Title
55513
    1DOPE     N    1   3.076   3.758   9.608  0.0191  0.4115 -0.7590
    1DOPE   HN1    2   3.032   3.797   9.523  1.0882 -0.8092 -1.9319
    1DOPE   HN2    3   3.001   3.758   9.680 -0.0195  0.6320 -0.8008
    1DOPE   HN3    4   3.145   3.829   9.637 -1.2298  0.8624  1.2869
    1DOPE   C12    5   3.127   3.619   9.585 -0.7452  0.4771  0.5309
    1DOPE  H12A    6   3.041   3.550   9.574  1.3665 -2.1437 -0.8229
    1DOPE  H12B    7   3.184   3.583   9.674  0.6665  1.4522  0.0565
    1DOPE   C11    8   3.223   3.602   9.466 -0.4004  0.2013 -0.1202
    1DOPE  H11A    9   3.170   3.643   9.378 -0.3303 -2.0159 -1.2740
    1DOPE  H11B   10   3.246   3.495   9.445  0.9996  0.8677 -2.3783
    1DOPE     P   11   3.408   3.764   9.390 -0.1805 -0.1971  0.4692
    1DOPE   O13   12   3.552   3.771   9.421  0.1572  0.2467  0.7857
    1DOPE   O14   13   3.336   3.894   9.394 -0.1013  0.3945  0.1333
    1DOPE   O11   14   3.377   3.687   9.257  0.1766  0.0915 -0.0518
    1DOPE   O12   15   3.343   3.667   9.499 -0.6673  0.1584 -0.0592
    1DOPE    C1   16   3.440   3.562   9.225  0.1153  0.8872  0.3517
    1DOPE    HA   17   3.433   3.501   9.317 -1.4177  1.6766  0.8001
    1DOPE    HB   18   3.547   3.575   9.198  0.7837 -0.7447  2.0356
    1DOPE    C2   19   3.372   3.485   9.107  0.0178 -0.9637 -0.1556
    1DOPE    HS   20   3.365   3.377   9.134 -2.4250 -0.3433  2.0917
    1DOPE   O21   21   3.436   3.522   8.983 -0.4201  0.0439  0.6295
    1DOPE   C21   22   3.542   3.443   8.950 -0.4761 -0.2242 -0.2735
    1DOPE   O22   23   3.592   3.356   9.022  0.2016  0.2140 -0.1010
    1DOPE   C22   24   3.590   3.482   8.812  0.1245  0.0216  0.0219
    1DOPE   H2R   25   3.672   3.414   8.780  0.6201  0.8162 -0.4107
    1DOPE   H2S   26   3.637   3.582   8.805  1.7017 -0.7045 -0.2863
    1DOPE    C3   27   3.219   3.528   9.094 -0.5087  0.3733  0.4204
    1DOPE    HX   28   3.213   3.638   9.076  0.1669  0.7462  2.2808
    1DOPE    HY   29   3.176   3.516   9.196  0.8557  0.8174  1.0780
    1DOPE   O31   30   3.159   3.453   8.990  0.0728  0.1066  1.1594
    1DOPE   C31   31   3.111   3.330   9.015 -0.3559  0.1908  0.0146
    1DOPE   O32   32   3.134   3.272   9.121  1.1189 -0.4971  0.4111
    1DOPE   C32   33   3.039   3.273   8.895 -0.2096  0.1700 -0.2678
    1DOPE   H2X   34   3.042   3.165   8.919 -0.5481  0.3018  0.3607
    1DOPE   H2Y   35   2.940   3.323   8.898 -0.3111  0.0104  3.3183
    1DOPE   C23   36   3.486   3.488   8.701  0.1719  0.2563  0.4148
    1DOPE   H3R   37   3.408   3.561   8.730 -1.5943 -2.0880  1.8743
    1DOPE   H3S   38   3.449   3.385   8.684 -0.7330  0.9439 -2.1869
    1DOPE   C24   39   3.531   3.541   8.559 -1.0752 -0.0366 -0.1850
    1DOPE   H4R   40   3.605   3.467   8.521 -0.4022  0.1542  0.7219
    1DOPE   H4S   41   3.589   3.634   8.576  1.2490 -1.3793 -0.4473
    1DOPE   C25   42   3.414   3.554   8.452  0.0824 -0.0742 -0.5088
    1DOPE   H5R   43   3.336   3.616   8.501 -0.9341  0.2885 -2.4873
    1DOPE   H5S   44   3.357   3.459   8.442 -0.5912  0.1530  0.8324
    1DOPE   C26   45   3.461   3.597   8.313  0.1263 -0.1894  0.5756
    1DOPE   H6R   46   3.530   3.521   8.272  0.6162  0.2676  0.5288
    1DOPE   H6S   47   3.522   3.689   8.325 -1.4074  1.1333 -1.1595
    1DOPE   C27   48   3.341   3.620   8.208 -0.2585  0.6040  0.0604
    1DOPE   H7R   49   3.273   3.705   8.234 -0.8320  0.1386  0.0938
    1DOPE   H7S   50   3.283   3.526   8.206  2.4059 -1.2057  1.2793
    1DOPE   C28   51   3.402   3.646   8.068  0.3014  0.5103 -0.1238
    1DOPE   H8R   52   3.483   3.720   8.085  0.6842  0.0006  0.2820
    1DOPE   H8S   53   3.322   3.694   8.008 -0.4875  0.4558  0.8664
    1DOPE   C29   54   3.440   3.519   7.987 -0.3819 -0.4878  0.2207
    1DOPE   H9R   55   3.353   3.458   7.955  0.3739 -1.9132  0.8189
    1DOPE  C210   56   3.560   3.490   7.928  1.0252 -0.1716 -0.3859
    1DOPE  H10R   57   3.571   3.402   7.863 -1.9129 -1.3686  0.5914
    1DOPE  C211   58   3.678   3.578   7.943 -0.4069  0.5939  0.4419
    1DOPE  H11R   59   3.763   3.509   7.961 -1.0757 -0.1481  0.8600
    1DOPE  H11S   60   3.662   3.640   8.034 -0.3496  1.0460  0.1476
    1DOPE  C212   61   3.717   3.670   7.822 -0.3337  0.5138  0.2308
    1DOPE  H12R   62   3.796   3.745   7.844 -1.0050  1.5869 -0.8704
    1DOPE  H12S   63   3.624   3.724   7.793 -1.0365  0.0070  1.4682
    1DOPE  C213   64   3.762   3.591   7.698 -0.4436 -0.4739  0.1686
    1DOPE  H13R   65   3.674   3.535   7.661 -0.8529  0.4633 -0.2999
    1DOPE  H13S   66   3.839   3.514   7.722 -0.1506 -0.1599  0.2512
    1DOPE  C214   67   3.809   3.674   7.576  0.3078  0.3519 -0.4498
    1DOPE  H14R   68   3.905   3.725   7.598 -0.0672  1.2296 -0.8164
    1DOPE  H14S   69   3.733   3.751   7.555 -0.3762 -0.0311  0.5121
    1DOPE  C215   70   3.842   3.578   7.461  0.0358 -0.1216  0.5955
    1DOPE  H15R   71   3.744   3.543   7.424  0.4670  1.0430 -1.8274
    1DOPE  H15S   72   3.896   3.489   7.499 -3.8879 -1.7261  3.0754
    1DOPE  C216   73   3.916   3.640   7.341 -0.0158 -0.2632  0.4898
    1DOPE  H16R   74   3.852   3.724   7.306  1.4295  0.5377 -0.3604
    1DOPE  H16S   75   3.926   3.580   7.248  0.2688  0.1919  0.2236
    1DOPE  C217   76   4.057   3.709   7.366 -0.3399 -0.2995  0.5586
    1DOPE  H17R   77   4.138   3.633   7.360  0.2507  0.4209 -1.1186
    1DOPE  H17S   78   4.065   3.753   7.468 -2.0129 -1.2170  1.1195
    1DOPE  C218   79   4.084   3.808   7.258 -0.4352  0.5084 -0.2198
    1DOPE  H18R   80   4.108   3.758   7.162  2.3692 -1.7278  1.4663
    1DOPE  H18S   81   4.179   3.857   7.288 -0.8798  1.0866  0.2638
    1DOPE  H18T   82   4.003   3.883   7.256  0.5575  1.6073 -1.4226
    1DOPE   C33   83   3.124   3.303   8.772  1.1918  0.5173  0.6131
    1DOPE   H3X   84   3.230   3.272   8.789  1.5910  0.6904 -1.3592
    1DOPE   H3Y   85   3.120   3.412   8.752  0.2304  0.6176  1.2713
    1DOPE   C34   86   3.063   3.230   8.644 -0.6771 -0.0767 -0.8302
    1DOPE   H4X   87   3.056   3.122   8.671  0.6716 -0.0838 -0.3919
    1DOPE   H4Y   88   2.967   3.281   8.626 -0.4606  0.4981 -0.3780
    1DOPE   C35   89   3.167   3.243   8.523  0.2397 -0.0876 -0.3823
    1DOPE   H5X   90   3.267   3.201   8.547  0.4203  0.5064 -0.0772
    1DOPE   H5Y   91   3.172   3.353   8.512 -2.3321  0.5066  2.7356
    1DOPE   C36   92   3.105   3.166   8.407 -0.0182 -0.0593 -0.8487
    1DOPE   H6X   93   3.000   3.200   8.396 -0.2668  0.9488  3.1163
    1DOPE   H6Y   94   3.114   3.059   8.437 -1.4442 -0.0410 -0.2693
    1DOPE   C37   95   3.175   3.203   8.277 -0.0426  0.2236  0.3830
    1DOPE   H7X   96   3.142   3.303   8.242 -0.3172  0.3520  1.0021
    1DOPE   H7Y   97   3.285   3.195   8.292 -0.1564 -1.4131  0.4996
    1DOPE   C38   98   3.121   3.104   8.162 -0.7290  0.0091 -0.3584
    1DOPE   H8X   99   3.018   3.128   8.130  0.5459  2.2996 -3.2402
    1DOPE   H8Y  100   3.143   3.001   8.197  2.1259  0.7442  0.2822
    1DOPE   C39  101   3.208   3.119   8.041 -0.7127 -0.1007 -0.9369
    1DOPE   H9X  102   3.316   3.107   8.058 -0.4802  1.7586 -0.8964
    1DOPE  C310  103   3.174   3.134   7.913  0.1048 -0.3710  0.3166
    1DOPE  H10X  104   3.255   3.155   7.841  0.2060 -1.1266  0.2035
    1DOPE  C311  105   3.041   3.137   7.846 -0.5487 -0.7149 -0.1376
    1DOPE  H11X  106   2.967   3.184   7.913  0.2378  2.8124 -1.4798
    1DOPE  H11Y  107   3.052   3.202   7.756 -1.4903 -0.4320 -0.0546
    1DOPE  C312  108   2.984   3.003   7.804 -0.0533  0.4099 -0.0221
    1DOPE  H12X  109   2.881   3.032   7.774 -0.6108 -2.5737 -1.4362
    1DOPE  H12Y  110   2.994   2.922   7.880  2.4532 -1.4034 -2.1051
    1DOPE  C313  111   3.043   2.948   7.670  0.5664 -0.4570 -0.8121
    1DOPE  H13X  112   2.965   2.878   7.636 -0.3704  0.9038 -1.5645
    1DOPE  H13Y  113   3.045   3.031   7.597  0.6298  0.1782 -0.1074
    1DOPE  C314  114   3.173   2.872   7.686 -0.4598 -0.5359 -0.6304
    1DOPE  H14X  115   3.146   2.769   7.718 -2.2389 -0.2665 -1.1796
    1DOPE  H14Y  116   3.238   2.910   7.769 -2.1662 -0.8842  0.9311
    1DOPE  C315  117   3.250   2.864   7.551 -0.2183 -0.0727 -0.4335
    1DOPE  H15X  118   3.273   2.970   7.529  2.7272 -0.5662 -0.1110
    1DOPE  H15Y  119   3.179   2.820   7.477  0.3070 -1.0576 -0.3630
    1DOPE  C316  120   3.383   2.798   7.547 -0.1587 -0.4682 -0.0820
    1DOPE  H16X  121   3.381   2.691   7.574 -1.5358 -1.0091 -2.0962
    1DOPE  H16Y  122   3.445   2.840   7.629 -2.1620 -0.6516  1.6242
    1DOPE  C317  123   3.461   2.801   7.417  0.5911 -0.4593  0.2500
    1DOPE  H17X  124   3.385   2.759   7.347  1.1531 -0.9356 -0.0770
    1DOPE  H17Y  125   3.470   2.905   7.379 -0.0196 -0.7414 -0.6816
    1DOPE  C318  126   3.596   2.732   7.415  0.3333 -0.0077 -0.0979
    1DOPE  H18X  127   3.631   2.717   7.311 -1.2409  1.6116 -0.9102
    1DOPE  H18Y  128   3.661   2.813   7.454  0.6247  0.1521 -0.9012
    1DOPE  H18Z  129   3.608   2.649   7.488  0.2386 -0.3212 -0.4331
    2DOPE     N  130   4.828   3.162  10.192  0.1913 -0.1943  0.0221
    2DOPE   HN1  131   4.793   3.073  10.233  0.5018 -0.6913 -0.7780
    2DOPE   HN2  132   4.926   3.173  10.223 -0.1066 -0.4570  1.0997
    2DOPE   HN3  133   4.770   3.232  10.243 -0.9438 -2.2406  1.7121
    2DOPE   C12  134   4.836   3.166  10.040  0.4796  0.0389  0.3846
    2DOPE  H12A  135   4.776   3.082  10.000 -1.1385  1.4990 -0.4097
    2DOPE  H12B  136   4.943   3.152  10.014 -0.0102 -1.0718 -1.1354
    2DOPE   C11  137   4.783   3.296   9.982 -0.0994 -0.4186  0.5125
    2DOPE  H11A  138   4.801   3.295   9.872 -3.3887  0.6889 -0.1489
    2DOPE  H11B  139   4.840   3.381  10.026  1.9668 -0.2507 -2.2147
    2DOPE     P  140   4.589   3.461  10.059  0.0862  0.1229  0.0571
    2DOPE   O13  141   4.677   3.526  10.161  0.3195  0.7094 -0.3049
    2DOPE   O14  142   4.439   3.451  10.082 -0.7946 -0.4093  0.2160
    2DOPE   O11  143   4.603   3.551   9.930 -0.0393  0.1581 -0.5709
    2DOPE   O12  144   4.645   3.320  10.010 -0.0125  0.0054  0.0777
    2DOPE    C1  145   4.530   3.499   9.819  0.0196 -0.0530 -0.6314
    2DOPE    HA  146   4.419   3.504   9.826 -0.1950 -0.4523 -2.9557
    2DOPE    HB  147   4.562   3.395   9.794 -0.0058 -0.1485 -0.2703
    2DOPE    C2  148   4.546   3.592   9.701 -0.0378 -0.7188 -0.4754
    2DOPE    HS  149   4.522   3.697   9.729  2.0033 -0.1241 -0.7664
    2DOPE   O21  150   4.474   3.540   9.585 -0.2965 -0.1888  0.0994
    2DOPE   C21  151   4.350   3.541   9.588 -0.3195 -0.1959 -0.1134
    2DOPE   O22  152   4.278   3.602   9.669 -0.6283  0.3165  0.1808
    2DOPE   C22  153   4.286   3.441   9.496 -0.2236 -1.2479 -0.0219
    2DOPE   H2R  154   4.267   3.352   9.560  0.1918 -0.0719  1.7807
    2DOPE   H2S  155   4.360   3.407   9.420 -1.5155 -1.1340 -1.3826
    2DOPE    C3  156   4.696   3.623   9.666  0.0754  0.3268 -0.0010
    2DOPE    HX  157   4.748   3.525   9.662 -0.2879  0.1572 -0.7815
    2DOPE    HY  158   4.742   3.688   9.744  1.8821 -0.2637 -0.5161
    2DOPE   O31  159   4.699   3.680   9.536  0.0819  0.1446  0.2644
    2DOPE   C31  160   4.704   3.812   9.535 -0.1744 -0.0483  0.1449
    2DOPE   O32  161   4.689   3.884   9.635  0.2648  0.2779  1.0755
    2DOPE   C32  162   4.738   3.853   9.394  0.5501 -0.6400  0.7428
    2DOPE   H2X  163   4.751   3.963   9.402 -1.5130 -0.2710 -0.4196
    2DOPE   H2Y  164   4.834   3.808   9.361  0.9808  1.2014 -0.7119
    2DOPE   C23  165   4.159   3.489   9.424  0.6304  0.1709  0.6951
    2DOPE   H3R  166   4.087   3.533   9.495  1.6050  2.0370  0.6009
    2DOPE   H3S  167   4.125   3.393   9.380  2.2735 -1.7881  3.3993
    2DOPE   C24  168   4.186   3.590   9.314  0.0865 -0.5560  0.1689
    2DOPE   H4R  169   4.227   3.685   9.353  1.1669 -0.6853 -0.6265
    2DOPE   H4S  170   4.090   3.620   9.265  0.9446  0.5640 -0.8763
    2DOPE   C25  171   4.293   3.545   9.211 -0.6118  0.3538  0.4289
    2DOPE   H5R  172   4.262   3.445   9.172  1.4631 -1.4747  3.0852
    2DOPE   H5S  173   4.392   3.527   9.257  0.2097  1.5420 -0.8173
    2DOPE   C26  174   4.300   3.649   9.105 -0.2197 -0.0100  0.8051
    2DOPE   H6R  175   4.361   3.732   9.146 -0.2364 -0.6231  2.1123
    2DOPE   H6S  176   4.202   3.688   9.068  0.7425  0.7086 -1.1389
    2DOPE   C27  177   4.365   3.602   8.971  0.1097  0.0782 -0.0421
    2DOPE   H7R  178   4.297   3.525   8.929  0.6571 -1.4660  1.7523
    2DOPE   H7S  179   4.463   3.555   8.993  1.1523  1.8840 -0.6263
    2DOPE   C28  180   4.400   3.723   8.882 -0.2183 -0.3107 -0.1576
    2DOPE   H8R  181   4.479   3.794   8.915  0.9545 -1.1004 -1.1470
    2DOPE   H8S  182   4.302   3.774   8.877 -1.4831 -2.6400 -0.8346
    2DOPE   C29  183   4.450   3.664   8.750  0.2896  0.8505 -0.4523
    2DOPE   H9R  184   4.518   3.579   8.763  0.9925  1.5932  0.9559
    2DOPE  C210  185   4.438   3.708   8.623  0.5470 -0.3060 -0.1541
    2DOPE  H10R  186   4.453   3.639   8.538 -0.2541 -0.7964  0.0831
    2DOPE  C211  187   4.384   3.842   8.583 -0.3678  0.6251 -0.4634
    2DOPE  H11R  188   4.378   3.910   8.670  0.3821 -0.3952  0.4039
    2DOPE  H11S  189   4.286   3.832   8.530  0.7978  1.3849 -2.8978
    2DOPE  C212  190   4.481   3.919   8.491 -0.2290  0.4533  0.4424
    2DOPE  H12R  191   4.565   3.948   8.557 -0.2684 -0.9748  1.1575
    2DOPE  H12S  192   4.437   4.015   8.456 -1.6942 -0.4648 -0.3370
    2DOPE  C213  193   4.533   3.843   8.369  0.7623 -0.5820  0.8438
    2DOPE  H13R  194   4.446   3.795   8.319  2.3152 -1.2572 -1.3682
    2DOPE  H13S  195   4.600   3.765   8.410  1.5915  0.1519  0.9140
    2DOPE  C214  196   4.609   3.930   8.268  0.3402 -0.8623 -0.3103
    2DOPE  H14R  197   4.696   3.968   8.325  0.7012 -0.9277 -0.8049
    2DOPE  H14S  198   4.552   4.023   8.248 -0.5641 -1.3175  0.1344
    2DOPE  C215  199   4.660   3.875   8.134 -0.0532  0.1671 -0.4634
    2DOPE  H15R  200   4.580   3.837   8.068 -1.0307  0.5397  0.4823
    2DOPE  H15S  201   4.722   3.790   8.170 -0.4820  0.3112  0.6549
    2DOPE  C216  202   4.751   3.965   8.068 -0.4875 -0.3202  0.1260
    2DOPE  H16R  203   4.843   3.980   8.130  0.7332 -0.6001 -1.5371
    2DOPE  H16S  204   4.710   4.067   8.052 -2.1719 -1.0600 -0.3638
    2DOPE  C217  205   4.798   3.929   7.928  0.2532  0.0219 -0.5737
    2DOPE  H17R  206   4.699   3.908   7.883 -0.1482 -2.9698  1.4173
    2DOPE  H17S  207   4.856   3.834   7.931 -0.0897 -0.2369 -1.6374
    2DOPE  C218  208   4.880   4.037   7.860 -0.3104 -0.4458  0.3151
    2DOPE  H18R  209   4.975   4.046   7.916  0.0487  0.7524 -0.4538
    2DOPE  H18S  210   4.819   4.130   7.864 -0.9705 -0.9056  3.0084
    2DOPE  H18T  211   4.901   4.016   7.753 -1.3792  0.8055 -0.1714
    2DOPE   C33  212   4.630   3.814   9.287  0.1066 -0.3472  0.2325
    2DOPE   H3X  213   4.557   3.897   9.271  0.5292  0.6143  2.8233
    2DOPE   H3Y  214   4.584   3.715   9.308 -0.6319  0.0834  0.7098
    2DOPE   C34  215   4.700   3.800   9.153  0.1256 -0.4822 -0.0928
    2DOPE   H4X  216   4.784   3.729   9.172 -1.9772 -2.5879  2.0370
    2DOPE   H4Y  217   4.632   3.741   9.087 -1.7130  1.9683 -0.5346
    2DOPE   C35  218   4.755   3.928   9.085  0.0255  0.6747  0.5207
    2DOPE   H5X  219   4.819   3.972   9.165 -1.1959  2.5801  0.4964
    2DOPE   H5Y  220   4.667   3.989   9.058  0.2193  0.0734 -1.6966
    2DOPE   C36  221   4.852   3.910   8.970  0.0158 -0.2739  0.1250
    2DOPE   H6X  222   4.942   3.848   8.989  0.7697  0.5513 -0.6824
    2DOPE   H6Y  223   4.871   4.010   8.925  0.1913  0.1849  1.1885
    2DOPE   C37  224   4.779   3.837   8.858 -0.4503  0.2298  0.1210
    2DOPE   H7X  225   4.754   3.738   8.901 -1.5814 -0.5299 -2.0861
    2DOPE   H7Y  226   4.687   3.886   8.817  0.1317 -1.2705 -3.3341
    2DOPE   C38  227   4.869   3.822   8.733 -0.0575 -0.4180 -0.1686
    2DOPE   H8X  228   4.954   3.771   8.784  0.7751  0.7457 -0.3613
    2DOPE   H8Y  229   4.895   3.920   8.688 -0.6441 -0.5019 -0.7104
    2DOPE   C39  230   4.805   3.744   8.628  0.1566  0.0080 -0.6584
    2DOPE   H9X  231   4.771   3.801   8.540  0.4566 -0.7258 -1.2665
    2DOPE  C310  232   4.809   3.611   8.621 -0.4623  0.4160 -0.1973
    2DOPE  H10X  233   4.772   3.572   8.524 -1.0955  2.5979 -0.8844
    2DOPE  C311  234   4.875   3.506   8.710  0.6664 -0.2739  0.1743
    2DOPE  H11X  235   4.921   3.427   8.647  0.7493 -0.5422  0.5674
    2DOPE  H11Y  236   4.963   3.558   8.756  0.9226  2.5996 -3.0960
    2DOPE  C312  237   4.791   3.444   8.830 -0.0189 -0.5507  0.0900
    2DOPE  H12X  238   4.741   3.354   8.788 -0.7970  0.0914 -0.3869
    2DOPE  H12Y  239   4.706   3.510   8.856 -0.0306 -1.5182  2.8024
    2DOPE  C313  240   4.865   3.424   8.959  0.1424  0.2693  0.2412
    2DOPE  H13X  241   4.949   3.359   8.928  0.0275  0.0553  0.3798
    2DOPE  H13Y  242   4.899   3.518   9.008 -1.9778 -0.5758  3.6515
    2DOPE  C314  243   4.792   3.329   9.051  0.1708 -0.0758  0.1967
    2DOPE  H14X  244   4.865   3.300   9.130 -2.3569 -1.0628  2.3129
    2DOPE  H14Y  245   4.770   3.232   9.001  0.3353  0.6731 -1.4084
    2DOPE  C315  246   4.671   3.386   9.121  0.3657 -0.2481 -0.1968
    2DOPE  H15X  247   4.591   3.393   9.045  0.4863 -0.1482 -0.3146
    2DOPE  H15Y  248   4.699   3.490   9.149  0.9926 -0.4244 -0.1425
    2DOPE  C316  249   4.626   3.310   9.239  0.2620  0.1367 -0.0004
    2DOPE  H16X  250   4.636   3.200   9.223  2.7261  0.1944  0.7035
    2DOPE  H16Y  251   4.528   3.353   9.267 -0.3540 -2.8035  3.0072
    2DOPE  C317  252   4.713   3.337   9.366 -0.2029  0.1710  0.3462
    2DOPE  H17X  253   4.818   3.307   9.349  0.3192  1.5384  0.9731
    2DOPE  H17Y  254   4.722   3.447   9.383 -2.3784  0.4120  0.1831
    2DOPE  C318  255   4.657   3.277   9.492  0.0978 -0.7622  0.0064
    2DOPE  H18X  256   4.725   3.306   9.576 -0.5148 -0.0660  0.2655
    2DOPE  H18Y  257   4.554   3.311   9.514 -0.2926  0.6575 -3.4917
    2DOPE  H18Z  258   4.656   3.166   9.488  0.9099 -0.7831  0.1697
    3DOPE     N  259   3.314   4.112   9.515  0.0654 -0.3836 -0.1687
    3DOPE   HN1  260   3.216   4.109   9.548  0.1486 -0.1021  0.1072
    3DOPE   HN2  261   3.333   4.016   9.478 -1.8975 -1.7189  1.9832
    3DOPE   HN3  262   3.370   4.126   9.602  0.5918  1.0997 -0.7286
    3DOPE   C12  263   3.313   4.243   9.444  0.4057  0.2264  0.2312
    3DOPE  H12A  264   3.264   4.329   9.494  3.9247  1.5287  1.7128
    3DOPE  H12B  265   3.243   4.223   9.359  0.3780  1.8628 -0.1632
    3DOPE   C11  266   3.445   4.284   9.396 -0.5351 -0.4682  0.1423
    3DOPE  H11A  267   3.434   4.367   9.324 -0.1782 -0.1219  0.4832
    3DOPE  H11B  268   3.502   4.200   9.350  0.8792  0.1699  0.6584
    3DOPE     P  269   3.627   4.251   9.598  0.1379  0.0319  0.5099
    3DOPE   O13  270   3.538   4.157   9.665  0.2732  0.3803 -0.2826
    3DOPE   O14  271   3.710   4.346   9.674  0.3011 -0.3519 -0.6043
    3DOPE   O11  272   3.730   4.168   9.510 -0.6859 -0.0364 -0.5881
    3DOPE   O12  273   3.535   4.330   9.495  0.3494 -0.5264  0.0524
    3DOPE    C1  274   3.819   4.228   9.414  0.1130  0.2443 -0.7046
    3DOPE    HA  275   3.923   4.191   9.430 -0.1792 -0.2460  0.1112
    3DOPE    HB  276   3.818   4.339   9.421 -0.9240  0.1317  1.9085
    3DOPE    C2  277   3.787   4.172   9.270 -0.0313  0.6234 -0.5891
    3DOPE    HS  278   3.885   4.153   9.222  0.4605 -0.1512  0.6638
    3DOPE   O21  279   3.694   4.259   9.200  0.1309  0.3122  0.2706
    3DOPE   C21  280   3.748   4.369   9.152  0.5145  0.5537  0.0250
    3DOPE   O22  281   3.863   4.401   9.155  0.0653 -0.0404 -0.1982
    3DOPE   C22  282   3.623   4.452   9.107  0.0125 -0.2184 -0.4028
    3DOPE   H2R  283   3.664   4.549   9.071  0.9743 -0.5163 -0.1491
    3DOPE   H2S  284   3.575   4.470   9.206 -1.3092 -0.3077 -1.0069
    3DOPE    C3  285   3.740   4.015   9.279  0.0277 -0.4162 -0.3641
    3DOPE    HX  286   3.644   4.005   9.332  0.2310  0.6207  0.2338
    3DOPE    HY  287   3.819   3.965   9.338 -0.2701  1.0337  1.3512
    3DOPE   O31  288   3.734   3.949   9.156 -0.3030  0.2405 -0.6448
    3DOPE   C31  289   3.619   3.946   9.097  0.3088 -0.5252  0.4685
    3DOPE   O32  290   3.514   3.996   9.135 -0.4528 -0.0316 -0.1472
    3DOPE   C32  291   3.630   3.877   8.968  0.8790  0.6758 -0.5102
    3DOPE   H2X  292   3.726   3.905   8.920  1.1536  0.4197 -0.1221
    3DOPE   H2Y  293   3.647   3.769   8.988 -0.1115  0.4683 -0.7519
    3DOPE   C23  294   3.546   4.387   8.996  0.0170 -0.0394 -0.3362
    3DOPE   H3R  295   3.475   4.463   8.958  2.1409  1.1539 -2.1622
    3DOPE   H3S  296   3.511   4.287   9.030 -0.2546 -1.0535 -3.3062
    3DOPE   C24  297   3.637   4.349   8.870 -0.1420  0.1216  0.0580
    3DOPE   H4R  298   3.571   4.301   8.795  0.1314  1.9697 -1.4347
    3DOPE   H4S  299   3.714   4.274   8.900 -1.2940 -1.0273  0.2384
    3DOPE   C25  300   3.699   4.471   8.796 -0.0020  0.2027  1.1326
    3DOPE   H5R  301   3.773   4.520   8.863 -0.4066  3.0691 -0.3765
    3DOPE   H5S  302   3.617   4.542   8.775 -1.6030 -1.9517 -0.3355
    3DOPE   C26  303   3.773   4.442   8.664  0.2028  0.1591  0.2167
    3DOPE   H6R  304   3.849   4.360   8.663  0.3478  0.2984 -0.1800
    3DOPE   H6S  305   3.822   4.537   8.635  2.6165 -0.3057  2.3719
    3DOPE   C27  306   3.682   4.408   8.542  0.4442 -0.1770  0.1225
    3DOPE   H7R  307   3.582   4.448   8.568 -0.3911 -1.9226 -0.2494
    3DOPE   H7S  308   3.655   4.301   8.554  0.3360 -0.2805 -0.9078
    3DOPE   C28  309   3.726   4.461   8.403 -0.2445  0.8206 -0.0387
    3DOPE   H8R  310   3.661   4.411   8.328 -1.0260 -3.1273  2.9421
    3DOPE   H8S  311   3.825   4.416   8.386 -0.8650  0.0912 -1.9984
    3DOPE   C29  312   3.727   4.610   8.379 -0.4925  0.2574 -0.2847
    3DOPE   H9R  313   3.641   4.658   8.428  0.1454 -0.7153  1.9318
    3DOPE  C210  314   3.821   4.687   8.320  0.0292 -0.7510  0.0474
    3DOPE  H10R  315   3.806   4.795   8.315  1.5605 -0.4800  0.7677
    3DOPE  C211  316   3.946   4.642   8.235  0.0301 -0.3406  0.0651
    3DOPE  H11R  317   3.960   4.532   8.223  0.9095 -0.4446  1.7979
    3DOPE  H11S  318   4.039   4.674   8.286  1.1611 -2.3427 -0.6339
    3DOPE  C212  319   3.928   4.707   8.096  0.4681  0.3799  0.4581
    3DOPE  H12R  320   4.015   4.692   8.029 -2.4380 -0.1966 -3.5113
    3DOPE  H12S  321   3.913   4.817   8.102 -0.5702  0.2546  0.1973
    3DOPE  C213  322   3.807   4.646   8.019  0.2149  0.0880  0.8823
    3DOPE  H13R  323   3.712   4.657   8.076  1.2714  1.9777  2.4049
    3DOPE  H13S  324   3.820   4.538   7.997 -1.3738 -0.0751  0.6086
    3DOPE  C214  325   3.799   4.723   7.884 -0.2084 -1.4073  0.5335
    3DOPE  H14R  326   3.896   4.726   7.830  1.2000  1.7382  2.9402
    3DOPE  H14S  327   3.776   4.830   7.903  1.6317 -0.9522  0.3777
    3DOPE  C215  328   3.700   4.657   7.794  0.0882 -0.4068  0.2253
    3DOPE  H15R  329   3.608   4.642   7.854  0.1617  1.0034  0.7153
    3DOPE  H15S  330   3.737   4.557   7.765  0.7294  0.7711 -3.5970
    3DOPE  C216  331   3.671   4.725   7.669  0.1193 -0.8166 -0.7353
    3DOPE  H16R  332   3.764   4.736   7.610 -0.5333 -0.5947 -1.7590
    3DOPE  H16S  333   3.641   4.831   7.681  2.2850 -0.4034  2.1898
    3DOPE  C217  334   3.558   4.671   7.583  0.3932  0.4009  0.3963
    3DOPE  H17R  335   3.566   4.718   7.483  2.6814 -1.5399 -0.4073
    3DOPE  H17S  336   3.456   4.688   7.626  0.7296  1.3507  0.8394
    3DOPE  C218  337   3.565   4.523   7.555 -0.1187 -0.4998  0.5735
    3DOPE  H18R  338   3.487   4.487   7.485  1.3988 -1.2336 -0.8246
    3DOPE  H18S  339   3.568   4.460   7.647  1.3732  0.6601  1.3651
    3DOPE  H18T  340   3.663   4.503   7.506 -0.1314 -0.3389  0.4840
    3DOPE   C33  341   3.508   3.889   8.871 -0.5361  0.0827 -0.0021
    3DOPE   H3X  342   3.452   3.985   8.876 -0.0109  0.3307  2.0180
    3DOPE   H3Y  343   3.430   3.815   8.897 -0.8562 -1.1117 -3.7736
    3DOPE   C34  344   3.562   3.862   8.726  0.6684 -0.7918 -0.5695
    3DOPE   H4X  345   3.620   3.768   8.735  3.8837  1.1985  2.3377
    3DOPE   H4Y  346   3.478   3.841   8.656  2.5946 -1.7271 -2.7471
    3DOPE   C35  347   3.643   3.973   8.665 -0.1369 -0.9808  0.3480
    3DOPE   H5X  348   3.730   3.987   8.733 -0.7908 -0.0277  1.0109
    3DOPE   H5Y  349   3.593   4.072   8.664 -0.9243 -1.3689 -0.2158
    3DOPE   C36  350   3.671   3.941   8.523  0.3513 -0.1653 -0.0984
    3DOPE   H6X  351   3.703   3.835   8.518 -3.1687 -1.4869  1.5486
    3DOPE   H6Y  352   3.756   4.006   8.494 -0.7226  1.4203  0.1668
    3DOPE   C37  353   3.562   3.968   8.417 -0.1838  0.0391  0.4536
    3DOPE   H7X  354   3.476   3.902   8.436 -1.3081  1.3916  0.2323
    3DOPE   H7Y  355   3.512   4.068   8.421 -1.7855 -0.6614 -0.9246
    3DOPE   C38  356   3.616   3.958   8.271 -0.3060 -0.5940 -0.0596
    3DOPE   H8X  357   3.663   3.863   8.238 -0.7300  0.2019 -3.3004
    3DOPE   H8Y  358   3.700   4.031   8.271 -0.3450 -0.5475  0.1928
    3DOPE   C39  359   3.513   3.986   8.164 -0.1928  0.0261  0.3195
    3DOPE   H9X  360   3.436   3.908   8.158  0.7944 -0.9263 -0.4078
    3DOPE  C310  361   3.498   4.096   8.094 -0.3362 -0.2683 -0.1014
    3DOPE  H10X  362   3.427   4.092   8.010  1.6600 -1.0332 -1.8255
    3DOPE  C311  363   3.579   4.225   8.098 -0.2069  0.1940  0.2962
    3DOPE  H11X  364   3.518   4.315   8.122 -0.7326 -0.3510  1.0619
    3DOPE  H11Y  365   3.659   4.217   8.174 -0.1860  0.9689  0.3646
    3DOPE  C312  366   3.654   4.259   7.964 -0.2343 -0.5774 -1.2273
    3DOPE  H12X  367   3.702   4.356   7.988  0.1324 -1.4016  1.7224
    3DOPE  H12Y  368   3.576   4.267   7.885 -0.9890  2.1901 -0.3180
    3DOPE  C313  369   3.763   4.157   7.925 -0.0281 -0.2948  1.0382
    3DOPE  H13X  370   3.848   4.146   7.995  0.0520 -2.1711  0.7086
    3DOPE  H13Y  371   3.707   4.061   7.923 -2.0928  0.8468  0.1816
    3DOPE  C314  372   3.817   4.158   7.780  0.0831 -0.0427  0.0494
    3DOPE  H14X  373   3.854   4.262   7.765 -1.5773  0.4436 -0.9819
    3DOPE  H14Y  374   3.732   4.137   7.712  0.9852 -1.0084 -0.8172
    3DOPE  C315  375   3.929   4.055   7.751 -0.9952  0.1472  0.7009
    3DOPE  H15X  376   3.898   3.956   7.791 -0.5181  0.7500  2.6976
    3DOPE  H15Y  377   4.010   4.082   7.823  2.2254  0.4244 -2.7344
    3DOPE  C316  378   3.987   4.058   7.609 -0.4136  0.8766  0.1058
    3DOPE  H16X  379   3.916   4.010   7.538 -0.5160  1.7565 -0.4042
    3DOPE  H16Y  380   4.068   3.982   7.609 -1.1897 -0.0150 -1.2958
    3DOPE  C317  381   4.049   4.194   7.563  0.0875  0.4233 -0.7111
    3DOPE  H17X  382   3.964   4.266   7.551  0.3380  0.5521 -1.7753
    3DOPE  H17Y  383   4.125   4.235   7.633 -0.9624  1.7072 -0.2646
    3DOPE  C318  384   4.107   4.191   7.416 -0.3677  0.2593 -0.5765
    3DOPE  H18X  385   4.164   4.099   7.394 -1.4394 -0.0926 -2.0604
    3DOPE  H18Y  386   4.031   4.193   7.335 -2.3764  0.1020  1.2005
    3DOPE  H18Z  387   4.178   4.272   7.390 -0.4829 -0.4591 -3.4686
    4DOPE     N  388   4.448   2.541   9.837  0.2464  0.5581  0.5243
    4DOPE   HN1  389   4.378   2.465   9.832 -0.5158  1.2024  1.1497
    4DOPE   HN2  390   4.536   2.487   9.849 -1.1435 -1.7094  0.9226
    4DOPE   HN3  391   4.433   2.598   9.923  2.1764 -1.4634  2.3423
    4DOPE   C12  392   4.442   2.622   9.710  0.1764 -0.0190  0.3097
    4DOPE  H12A  393   4.535   2.681   9.697 -0.9568  2.3548  2.1209
    4DOPE  H12B  394   4.355   2.692   9.715  1.8603  2.2871 -0.9850
    4DOPE   C11  395   4.429   2.519   9.592 -0.2994  0.5255 -0.3318
    4DOPE  H11A  396   4.529   2.471   9.589 -0.6363 -0.3178  1.0334
    4DOPE  H11B  397   4.420   2.573   9.495  1.0659  0.9343 -0.2372
    4DOPE     P  398   4.195   2.401   9.540  0.3259 -0.2900 -0.1907
    4DOPE   O13  399   4.104   2.517   9.558 -0.2054  0.5565 -0.3239
    4DOPE   O14  400   4.140   2.269   9.570 -0.5623  0.2832 -0.0575
    4DOPE   O11  401   4.244   2.388   9.391 -0.5008 -0.4443 -0.4216
    4DOPE   O12  402   4.327   2.417   9.618 -0.3486  0.5640 -0.1110
    4DOPE    C1  403   4.348   2.297   9.363  0.5883 -0.1046 -0.1203
    4DOPE    HA  404   4.362   2.214   9.436  1.8153  0.9758  0.9121
    4DOPE    HB  405   4.444   2.350   9.345 -0.3271  1.3262 -0.9585
    4DOPE    C2  406   4.316   2.218   9.238  0.2877  0.1160  0.1659
    4DOPE    HS  407   4.407   2.162   9.208  0.1195 -0.5106  0.8018
    4DOPE   O21  408   4.268   2.289   9.127 -0.6569 -0.0953 -0.0772
    4DOPE   C21  409   4.362   2.358   9.067 -0.2888 -0.3699  0.6548
    4DOPE   O22  410   4.480   2.353   9.096  0.3790 -0.2291 -0.1969
    4DOPE   C22  411   4.292   2.430   8.948 -0.0514  0.3969 -0.5025
    4DOPE   H2R  412   4.343   2.529   8.947 -0.6176  0.7208  0.6869
    4DOPE   H2S  413   4.185   2.442   8.974  0.0814 -0.5490  0.5719
    4DOPE    C3  414   4.208   2.116   9.265  0.0832  0.1494 -0.1670
    4DOPE    HX  415   4.114   2.166   9.296 -0.5190 -0.6542 -0.6616
    4DOPE    HY  416   4.237   2.064   9.359  0.5933 -1.0096 -0.9459
    4DOPE   O31  417   4.178   2.026   9.156 -0.1651  0.2938  0.6015
    4DOPE   C31  418   4.266   1.938   9.122  0.3175 -0.6003 -1.0093
    4DOPE   O32  419   4.366   1.908   9.179  0.2521  0.0709 -0.3362
    4DOPE   C32  420   4.216   1.859   8.995 -0.2225  0.1542 -0.6256
    4DOPE   H2X  421   4.255   1.756   9.006 -0.7947  0.1500  2.4070
    4DOPE   H2Y  422   4.105   1.857   8.990 -0.1935 -0.3587 -1.0977
    4DOPE   C23  423   4.312   2.367   8.805  0.2619  0.1574 -0.2806
    4DOPE   H3R  424   4.284   2.260   8.817  0.0997  0.2895  0.6438
    4DOPE   H3S  425   4.418   2.373   8.772  0.0986 -1.5787 -1.2208
    4DOPE   C24  426   4.230   2.430   8.696  0.1224  0.4311 -0.5962
    4DOPE   H4R  427   4.254   2.537   8.676  0.4244  0.4915  0.0792
    4DOPE   H4S  428   4.122   2.412   8.717  0.8021 -0.1396  2.8980
    4DOPE   C25  429   4.262   2.367   8.555 -0.0922  0.1896 -0.9344
    4DOPE   H5R  430   4.202   2.276   8.533 -1.3173  0.9071 -0.6179
    4DOPE   H5S  431   4.372   2.351   8.554 -0.0441  0.4075  0.1472
    4DOPE   C26  432   4.231   2.464   8.445 -0.5157 -0.2866  0.5702
    4DOPE   H6R  433   4.262   2.569   8.465 -0.8632 -0.7281  4.0270
    4DOPE   H6S  434   4.122   2.461   8.426 -0.3508 -0.1454 -0.5100
    4DOPE   C27  435   4.302   2.410   8.313  0.2546  0.5900  0.9709
    4DOPE   H7R  436   4.276   2.302   8.310  0.1093  0.6076  1.4384
    4DOPE   H7S  437   4.411   2.417   8.334  0.6766 -1.1807 -0.4872
    4DOPE   C28  438   4.289   2.498   8.185  0.1052 -0.0413  0.1453
    4DOPE   H8R  439   4.346   2.465   8.096  1.4524  3.4057 -0.4255
    4DOPE   H8S  440   4.325   2.599   8.212  0.6340  0.2053 -1.3656
    4DOPE   C29  441   4.140   2.499   8.151 -0.9749  0.3784  0.2043
    4DOPE   H9R  442   4.076   2.415   8.182 -0.0895 -0.4178 -0.0772
    4DOPE  C210  443   4.081   2.609   8.094  0.0169 -0.5816  0.2534
    4DOPE  H10R  444   3.975   2.600   8.066 -0.0404 -0.5454  0.4566
    4DOPE  C211  445   4.145   2.747   8.066 -0.2134 -0.4973  0.8632
    4DOPE  H11R  446   4.225   2.730   7.992 -2.4343  0.5862 -2.0097
    4DOPE  H11S  447   4.171   2.793   8.164 -0.3379 -1.3186  1.2875
    4DOPE  C212  448   4.073   2.853   7.981  0.1655  0.1585 -0.4165
    4DOPE  H12R  449   3.967   2.847   8.014  0.4864  0.5077  0.7129
    4DOPE  H12S  450   4.077   2.846   7.870  1.7300 -0.8775 -0.3206
    4DOPE  C213  451   4.113   2.996   8.012 -0.2964 -0.0302  0.0010
    4DOPE  H13R  452   4.220   3.008   7.981  0.1085 -2.5065  0.2539
    4DOPE  H13S  453   4.109   3.020   8.120  1.6677  2.4949 -0.3705
    4DOPE  C214  454   4.031   3.100   7.941  1.3243 -0.4935  0.9495
    4DOPE  H14R  455   3.926   3.080   7.972  0.0244  1.6982 -1.5569
    4DOPE  H14S  456   4.037   3.093   7.830  0.5284 -0.8789  0.9255
    4DOPE  C215  457   4.061   3.257   7.956  0.3906 -0.4740 -0.3883
    4DOPE  H15R  458   3.985   3.318   7.903  0.0719 -1.3029 -0.9091
    4DOPE  H15S  459   4.160   3.263   7.906  0.8762 -1.6033  0.3926
    4DOPE  C216  460   4.080   3.308   8.098 -0.0636 -0.4246  0.1867
    4DOPE  H16R  461   4.003   3.266   8.166  0.4977  0.7131  1.5633
    4DOPE  H16S  462   4.069   3.418   8.091 -1.1401 -0.6127 -2.0721
    4DOPE  C217  463   4.223   3.280   8.155 -0.0633 -0.3318 -0.2078
    4DOPE  H17R  464   4.258   3.175   8.147 -0.4466 -0.4796  0.0401
    4DOPE  H17S  465   4.217   3.304   8.263  3.9850 -1.1142  0.3321
    4DOPE  C218  466   4.325   3.376   8.092 -0.9201  0.4935  0.2363
    4DOPE  H18R  467   4.425   3.353   8.134 -0.9977 -1.9843 -0.7286
    4DOPE  H18S  468   4.311   3.482   8.121  3.4321  2.0542 -2.4012
    4DOPE  H18T  469   4.325   3.355   7.983 -1.4857 -0.8234  0.4597
    4DOPE   C33  470   4.279   1.929   8.879 -0.3808 -0.7331 -0.3053
    4DOPE   H3X  471   4.389   1.912   8.875 -0.1954  0.5062 -1.1113
    4DOPE   H3Y  472   4.265   2.039   8.889 -0.2681 -0.6907 -0.6035
    4DOPE   C34  473   4.229   1.888   8.738 -0.5123  0.2758 -0.3312
    4DOPE   H4X  474   4.242   1.780   8.715 -2.0738 -0.1140  0.4947
    4DOPE   H4Y  475   4.120   1.910   8.739 -0.6245  0.0254  2.9445
    4DOPE   C35  476   4.315   1.959   8.633  1.1675 -0.5291  0.2798
    4DOPE   H5X  477   4.425   1.946   8.648  1.6788  1.4071 -1.4496
    4DOPE   H5Y  478   4.285   2.065   8.647  0.2333 -0.7332 -0.1063
    4DOPE   C36  479   4.286   1.916   8.487 -0.3843 -0.4111  0.0644
    4DOPE   H6X  480   4.177   1.937   8.479 -0.3171 -0.4535 -1.0989
    4DOPE   H6Y  481   4.299   1.806   8.479  3.0534 -0.1564  0.4626
    4DOPE   C37  482   4.366   1.981   8.380 -0.4254 -0.3194  0.9475
    4DOPE   H7X  483   4.350   2.091   8.383 -1.1420 -0.4141  0.8003
    4DOPE   H7Y  484   4.474   1.989   8.406 -0.4837  2.2362  0.6764
    4DOPE   C38  485   4.325   1.927   8.237  0.1061  0.7623  0.4905
    4DOPE   H8X  486   4.215   1.913   8.232 -0.1076  2.6437 -2.4495
    4DOPE   H8Y  487   4.367   1.827   8.212 -1.7934  0.1531 -0.3881
    4DOPE   C39  488   4.380   2.019   8.134 -0.2520  0.1254  0.5976
    4DOPE   H9X  489   4.489   2.035   8.139 -0.2292  1.0318 -1.8421
    4DOPE  C310  490   4.317   2.066   8.024  0.1096 -0.1211 -0.3745
    4DOPE  H10X  491   4.375   2.137   7.964  1.2958  1.3150  2.2973
    4DOPE  C311  492   4.169   2.062   7.992 -0.4341 -0.0041 -0.2041
    4DOPE  H11X  493   4.120   1.984   8.054 -0.7500  1.4036  1.3780
    4DOPE  H11Y  494   4.119   2.160   8.011 -1.0343 -0.5431  1.1454
    4DOPE  C312  495   4.124   2.013   7.847  0.1779  0.5605 -0.6667
    4DOPE  H12X  496   4.025   1.964   7.859  1.7429 -2.2135  2.7205
    4DOPE  H12Y  497   4.179   1.917   7.840 -1.9647 -0.8966  1.1377
    4DOPE  C313  498   4.137   2.105   7.729  0.1080 -0.6041 -0.0396
    4DOPE  H13X  499   4.231   2.162   7.742 -1.2688  1.4115  1.7751
    4DOPE  H13Y  500   4.150   2.047   7.635  1.1197 -1.3457  0.5385
    4DOPE  C314  501   4.019   2.214   7.728  0.4983 -0.3451  0.4065
    4DOPE  H14X  502   4.049   2.314   7.688 -0.0549  0.1410  1.1821
    4DOPE  H14Y  503   3.988   2.231   7.833 -2.1317  1.0527 -0.5109
    4DOPE  C315  504   3.902   2.165   7.646  0.2447 -0.1639  0.4405
    4DOPE  H15X  505   3.867   2.077   7.704 -0.4223 -0.3394 -0.2123
    4DOPE  H15Y  506   3.940   2.127   7.549 -2.3460 -2.7582  0.2886
    4DOPE  C316  507   3.787   2.268   7.614  0.2719 -0.3947  0.4920
    4DOPE  H16X  508   3.835   2.347   7.552  1.3389 -1.6082 -0.2668
    4DOPE  H16Y  509   3.766   2.315   7.713 -1.0207 -0.3106  0.1934
    4DOPE  C317  510   3.659   2.207   7.554 -0.4156  0.5060 -0.2184
    4DOPE  H17X  511   3.674   2.161   7.454 -1.7401 -0.0293 -0.1896
    4DOPE  H17Y  512   3.629   2.117   7.612  2.1368 -0.3730 -0.1346
    4DOPE  C318  513   3.533   2.295   7.553  0.1060  0.1148  0.3543
    4DOPE  H18X  514   3.444   2.244   7.510  0.3130 -0.2243  0.3203
    4DOPE  H18Y  515   3.503   2.321   7.656 -0.4123  0.8597  0.0291
    4DOPE  H18Z  516   3.550   2.388   7.494  1.6873 -0.1430  0.3554
    5DOPE     N  517   1.626   4.237   9.380 -0.0704 -0.4520  0.1954
    5DOPE   HN1  518   1.544   4.186   9.419 -1.0182  1.0644  0.2655
    5DOPE   HN2  519   1.595   4.304   9.307  1.5083  0.6859  0.5218
    5DOPE   HN3  520   1.694   4.173   9.334  1.0031  1.4613 -1.0068
    5DOPE   C12  521   1.704   4.293   9.490 -0.3410  0.3699 -0.1913
    5DOPE  H12A  522   1.696   4.219   9.572 -0.2306 -0.7305 -1.1377
    5DOPE  H12B  523   1.668   4.393   9.522 -0.2164  0.7062 -1.0809
    5DOPE   C11  524   1.852   4.316   9.444  0.0800 -0.4014  0.7290
    5DOPE  H11A  525   1.909   4.337   9.537  1.1261 -0.1678  0.0446
    5DOPE  H11B  526   1.851   4.401   9.373 -0.3839 -1.8033 -1.0408
    5DOPE     P  527   2.037   4.140   9.398  0.2210  0.3986  0.1097
    5DOPE   O13  528   2.028   4.059   9.521  0.0725 -0.0494  0.7116
    5DOPE   O14  529   2.143   4.241   9.391  0.5405 -0.1233  0.2360
    5DOPE   O11  530   2.062   4.040   9.275  0.3821 -0.2170 -0.6692
    5DOPE   O12  531   1.901   4.204   9.380  0.8066  0.4641 -0.2779
    5DOPE    C1  532   1.962   3.995   9.192  0.4361  0.4166  0.5448
    5DOPE    HA  533   1.869   3.978   9.251  1.1891 -1.3496  1.2942
    5DOPE    HB  534   1.974   3.902   9.133 -1.5565  1.5091 -1.7928
    5DOPE    C2  535   1.924   4.108   9.084 -0.3291 -0.2837 -0.4969
    5DOPE    HS  536   1.890   4.201   9.133  0.5730 -0.2328  0.0551
    5DOPE   O21  537   1.832   4.060   8.981  0.0988  0.0778 -0.7324
    5DOPE   C21  538   1.713   4.052   9.034 -0.5103 -0.1464 -0.4557
    5DOPE   O22  539   1.679   4.089   9.145 -0.5537  0.1047 -0.3307
    5DOPE   C22  540   1.628   3.983   8.928  0.0250  0.4596 -0.2067
    5DOPE   H2R  541   1.660   3.879   8.908  0.7130  0.3396  1.4160
    5DOPE   H2S  542   1.645   4.046   8.838 -1.9772  1.2330 -0.1086
    5DOPE    C3  543   2.054   4.152   9.008 -0.2678  0.4511 -0.0636
    5DOPE    HX  544   2.102   4.058   8.975  0.9603  0.7575  0.8038
    5DOPE    HY  545   2.120   4.189   9.089  1.5097  2.2366 -2.1753
    5DOPE   O31  546   2.031   4.245   8.904  0.2046  0.5953 -0.2958
    5DOPE   C31  547   2.141   4.273   8.846  0.0394  0.2064  1.1464
    5DOPE   O32  548   2.253   4.239   8.877  0.1719  0.2951  0.4890
    5DOPE   C32  549   2.107   4.352   8.715 -0.5463  0.2464  0.2768
    5DOPE   H2X  550   2.006   4.320   8.683  0.2088 -2.7809  0.5773
    5DOPE   H2Y  551   2.114   4.459   8.743  0.0094  0.2448  0.1582
    5DOPE   C23  552   1.478   4.003   8.964  0.9083  0.0824  0.5785
    5DOPE   H3R  553   1.454   4.112   8.971 -2.4351 -0.0581 -3.8506
    5DOPE   H3S  554   1.432   3.969   9.059 -0.1303 -0.8428 -0.2280
    5DOPE   C24  555   1.389   3.959   8.851  0.4667 -0.1867  0.4980
    5DOPE   H4R  556   1.409   4.015   8.758 -1.8204  0.9700  0.6461
    5DOPE   H4S  557   1.282   3.974   8.876 -0.6337 -1.3315 -2.9780
    5DOPE   C25  558   1.398   3.808   8.824  0.3401 -0.8994 -0.0569
    5DOPE   H5R  559   1.368   3.748   8.913 -3.1616  1.5074  0.5880
    5DOPE   H5S  560   1.499   3.784   8.783  1.0752  0.2765  0.9721
    5DOPE   C26  561   1.310   3.768   8.708 -0.0151  0.2377 -0.1740
    5DOPE   H6R  562   1.288   3.855   8.643 -4.1694 -0.2159  0.3015
    5DOPE   H6S  563   1.214   3.739   8.755  0.9996 -0.8331  1.3031
    5DOPE   C27  564   1.352   3.645   8.623 -0.2886  1.0470 -0.1528
    5DOPE   H7R  565   1.276   3.643   8.542  1.4179  0.4071 -1.8045
    5DOPE   H7S  566   1.346   3.551   8.681  0.2594  0.6580 -0.7212
    5DOPE   C28  567   1.493   3.657   8.561 -0.4007 -0.2676 -0.6535
    5DOPE   H8R  568   1.566   3.653   8.645 -1.1548 -0.8076 -0.0072
    5DOPE   H8S  569   1.511   3.753   8.510  0.6233 -0.2832 -0.3538
    5DOPE   C29  570   1.525   3.541   8.461 -0.1818 -0.9158 -0.5978
    5DOPE   H9R  571   1.541   3.449   8.520  0.8953  1.0391  2.3806
    5DOPE  C210  572   1.559   3.551   8.333  0.4239 -0.0079 -0.0241
    5DOPE  H10R  573   1.594   3.460   8.281 -2.2694 -0.5021 -1.1425
    5DOPE  C211  574   1.577   3.680   8.253  0.4354 -0.2266 -0.7953
    5DOPE  H11R  575   1.685   3.699   8.238  0.7975 -1.5595 -0.0806
    5DOPE  H11S  576   1.548   3.769   8.313 -2.2744  0.2182 -2.5733
    5DOPE  C212  577   1.509   3.683   8.117  0.1609 -0.5683  0.0980
    5DOPE  H12R  578   1.549   3.605   8.048  1.1707  0.7468 -0.8595
    5DOPE  H12S  579   1.542   3.775   8.065  1.0185 -0.7709  0.2644
    5DOPE  C213  580   1.358   3.661   8.128 -0.0551 -0.4261 -0.3313
    5DOPE  H13R  581   1.315   3.722   8.210  3.5551  1.4773  0.3522
    5DOPE  H13S  582   1.334   3.555   8.148 -0.0230 -0.2828  0.5096
    5DOPE  C214  583   1.292   3.710   7.996  0.3883 -0.0373  0.5476
    5DOPE  H14R  584   1.318   3.814   7.965 -2.1548  0.3459 -0.5212
    5DOPE  H14S  585   1.187   3.725   8.029 -0.4981 -1.5019 -1.4122
    5DOPE  C215  586   1.310   3.602   7.896  0.4099 -0.8265  0.3244
    5DOPE  H15R  587   1.288   3.500   7.934  0.6513 -1.4234 -1.0959
    5DOPE  H15S  588   1.419   3.593   7.878  0.4240 -0.1209  0.0307
    5DOPE  C216  589   1.250   3.637   7.757  0.2467  1.1353 -0.0121
    5DOPE  H16R  590   1.147   3.677   7.769 -0.4660 -0.7085  0.3398
    5DOPE  H16S  591   1.232   3.548   7.692  0.8450 -0.0434  1.3804
    5DOPE  C217  592   1.335   3.741   7.681  0.2621 -0.5548  0.5062
    5DOPE  H17R  593   1.422   3.678   7.652  0.6510  1.0557 -2.2294
    5DOPE  H17S  594   1.379   3.824   7.740  0.1150 -0.8824  1.0851
    5DOPE  C218  595   1.278   3.779   7.541  0.0384 -0.0012 -0.2014
    5DOPE  H18R  596   1.293   3.698   7.467  4.0069 -0.5347  0.9665
    5DOPE  H18S  597   1.340   3.862   7.503  1.6311 -1.7927 -1.7300
    5DOPE  H18T  598   1.173   3.814   7.538 -0.4861 -1.5693 -1.4236
    5DOPE   C33  599   2.204   4.325   8.593 -0.1817  0.0072  0.4148
    5DOPE   H3X  600   2.195   4.222   8.551  0.8506  0.0413  0.0896
    5DOPE   H3Y  601   2.302   4.349   8.639 -0.5303  2.2521  0.0681
    5DOPE   C34  602   2.186   4.414   8.465 -0.4627  0.3932 -0.1021
    5DOPE   H4X  603   2.146   4.515   8.491  0.6907  1.6664 -2.8290
    5DOPE   H4Y  604   2.288   4.424   8.422  0.0539  0.7395  1.1699
    5DOPE   C35  605   2.095   4.341   8.357 -0.3416 -0.0291 -0.0133
    5DOPE   H5X  606   1.989   4.359   8.384 -0.2678  2.4592 -1.1238
    5DOPE   H5Y  607   2.131   4.237   8.345 -0.2333 -0.2166  1.7040
    5DOPE   C36  608   2.119   4.405   8.214 -0.5430  0.4285 -0.4459
    5DOPE   H6X  609   2.225   4.389   8.185 -0.2756  1.5012 -0.1338
    5DOPE   H6Y  610   2.093   4.513   8.215  1.5090  0.9580 -0.1177
    5DOPE   C37  611   2.037   4.330   8.108 -0.0162  0.5241  0.3399
    5DOPE   H7X  612   2.053   4.220   8.103 -1.3389  0.3413 -0.4564
    5DOPE   H7Y  613   1.929   4.346   8.126  0.0398  0.9389  0.3181
    5DOPE   C38  614   2.067   4.378   7.961  0.0615  0.4974 -0.6473
    5DOPE   H8X  615   2.018   4.296   7.905  2.5509 -1.6641  0.1453
    5DOPE   H8Y  616   2.173   4.376   7.928  0.1715 -1.7376 -0.2519
    5DOPE   C39  617   2.018   4.520   7.929 -0.2258  0.1420  0.7508
    5DOPE   H9X  618   2.063   4.599   7.990 -1.3406  2.1210 -0.8852
    5DOPE  C310  619   1.928   4.550   7.835  0.1394 -0.4488 -0.3359
    5DOPE  H10X  620   1.937   4.656   7.804 -0.6997  0.4625  2.3162
    5DOPE  C311  621   1.851   4.462   7.737 -0.1629 -0.1839  1.2875
    5DOPE  H11X  622   1.854   4.354   7.764 -1.3965 -0.5185  0.1914
    5DOPE  H11Y  623   1.742   4.483   7.725 -0.0476 -0.4435 -0.4795
    5DOPE  C312  624   1.918   4.476   7.600  0.3769  0.0464  0.0116
    5DOPE  H12X  625   2.025   4.447   7.603 -0.0475 -1.8127 -1.1851
    5DOPE  H12Y  626   1.931   4.585   7.583  0.3609  0.7397  3.7334
    5DOPE  C313  627   1.832   4.423   7.477 -0.1434 -0.7462  0.1196
    5DOPE  H13X  628   1.823   4.314   7.490  1.1296 -1.1634 -1.9706
    5DOPE  H13Y  629   1.729   4.465   7.483 -0.5936 -1.1672 -2.9709
    5DOPE  C314  630   1.885   4.440   7.327  0.6501  0.2243  0.2369
    5DOPE  H14X  631   1.982   4.387   7.315 -0.5198 -1.6149 -1.9823
    5DOPE  H14Y  632   1.890   4.549   7.308 -0.3794  0.8078  2.8031
    5DOPE  C315  633   1.780   4.369   7.229 -0.1414 -0.3754 -0.0547
    5DOPE  H15X  634   1.695   4.440   7.219 -1.6624 -2.1620 -0.2548
    5DOPE  H15Y  635   1.743   4.279   7.281 -0.5969  1.3653  2.8255
    5DOPE  C316  636   1.824   4.326   7.090 -0.2941 -0.1161  0.4619
    5DOPE  H16X  637   1.909   4.257   7.105  0.7735  0.2457 -3.0281
    5DOPE  H16Y  638   1.864   4.404   7.021  1.6929 -0.8493  0.7351
    5DOPE  C317  639   1.721   4.239   7.016 -0.1266 -0.0807 -0.5436
    5DOPE  H17X  640   1.690   4.154   7.079  1.0249 -0.2637 -0.1918
    5DOPE  H17Y  641   1.632   4.293   6.977 -0.4927 -0.0135  0.3740
    5DOPE  C318  642   1.781   4.188   6.886 -0.2451 -0.2940 -0.7778
    5DOPE  H18X  643   1.707   4.133   6.825 -2.5250 -0.7970  2.1965
    5DOPE  H18Y  644   1.815   4.276   6.827 -0.5212  0.9650  0.8694
    5DOPE  H18Z  645   1.863   4.119   6.919  0.2328  0.0658 -1.1980
    6DOPE     N  646   2.344   4.667   9.394  0.0727  0.3923  0.1730
    6DOPE   HN1  647   2.446   4.667   9.416  0.1374 -2.1514  0.0871
    6DOPE   HN2  648   2.310   4.574   9.364  1.8753 -0.2908  0.0901
    6DOPE   HN3  649   2.314   4.735   9.321 -0.6010 -0.5856 -0.4626
    6DOPE   C12  650   2.277   4.690   9.525  0.1495 -0.0836 -0.7574
    6DOPE  H12A  651   2.302   4.796   9.545 -0.1352 -0.0317 -0.6706
    6DOPE  H12B  652   2.324   4.623   9.599 -0.9021  0.4464  0.4355
    6DOPE   C11  653   2.123   4.667   9.511 -1.2480  0.2995 -0.0440
    6DOPE  H11A  654   2.073   4.653   9.609 -1.5092  0.9126 -0.0835
    6DOPE  H11B  655   2.113   4.565   9.467 -1.6801 -0.0183  0.7840
    6DOPE     P  656   1.938   4.730   9.341  0.0616 -0.4896  0.1756
    6DOPE   O13  657   1.920   4.844   9.246  0.0078  0.4647 -0.5276
    6DOPE   O14  658   1.823   4.683   9.422  0.1469 -0.7120  0.1132
    6DOPE   O11  659   1.995   4.604   9.258 -0.4648  0.2241 -0.7325
    6DOPE   O12  660   2.062   4.772   9.437 -0.3703 -0.3178 -0.1869
    6DOPE    C1  661   1.921   4.537   9.162 -0.1777 -0.0265 -0.8654
    6DOPE    HA  662   1.813   4.528   9.187  0.2691 -0.7308  0.9907
    6DOPE    HB  663   1.962   4.434   9.153  2.8217  1.1490 -2.1584
    6DOPE    C2  664   1.945   4.600   9.023 -0.6639 -0.6630  0.2579
    6DOPE    HS  665   1.881   4.691   9.022 -0.1676 -0.2904  1.2718
    6DOPE   O21  666   1.895   4.510   8.924 -0.4221  0.0571 -0.5163
    6DOPE   C21  667   1.762   4.518   8.912  0.6966  0.1761 -0.1702
    6DOPE   O22  668   1.693   4.610   8.952 -0.6239  0.4718  0.0105
    6DOPE   C22  669   1.709   4.397   8.842 -0.4020 -0.0470 -0.5674
    6DOPE   H2R  670   1.629   4.341   8.894 -0.0632 -1.7346 -1.7570
    6DOPE   H2S  671   1.792   4.323   8.835 -0.1428  0.1172  0.6549
    6DOPE    C3  672   2.087   4.639   8.990 -0.0627  0.0802 -0.2987
    6DOPE    HX  673   2.141   4.542   8.989 -1.5116 -0.7889  1.2132
    6DOPE    HY  674   2.137   4.685   9.077 -1.2754 -0.0214  0.4847
    6DOPE   O31  675   2.089   4.708   8.865  0.2213 -0.2193  0.5220
    6DOPE   C31  676   2.210   4.744   8.833  0.1222  0.4078  0.0890
    6DOPE   O32  677   2.312   4.693   8.874  0.2506 -0.1876 -0.0951
    6DOPE   C32  678   2.208   4.831   8.709  0.3691 -0.5385  0.1907
    6DOPE   H2X  679   2.146   4.782   8.630 -1.7126  1.2842  0.5757
    6DOPE   H2Y  680   2.152   4.922   8.739  0.5160 -0.9753  1.9081
    6DOPE   C23  681   1.652   4.439   8.705 -0.1206  0.1770 -0.6415
    6DOPE   H3R  682   1.717   4.509   8.648  2.6548 -0.0954  1.9383
    6DOPE   H3S  683   1.552   4.482   8.727  0.4807  0.4244  1.8802
    6DOPE   C24  684   1.629   4.317   8.610  0.2587  0.1791 -0.0461
    6DOPE   H4R  685   1.542   4.345   8.546  1.1299 -0.4143 -1.5564
    6DOPE   H4S  686   1.599   4.218   8.652 -2.5677  0.9020 -0.1444
    6DOPE   C25  687   1.744   4.295   8.513 -0.3797 -0.1093 -0.5007
    6DOPE   H5R  688   1.838   4.270   8.568 -0.0573 -0.8367 -1.3421
    6DOPE   H5S  689   1.746   4.387   8.451  1.3776 -0.0509 -0.4070
    6DOPE   C26  690   1.746   4.174   8.427  0.2781  0.7093 -0.1369
    6DOPE   H6R  691   1.731   4.087   8.494 -1.0759 -0.4096 -1.7850
    6DOPE   H6S  692   1.836   4.162   8.363  0.4623  0.5541  0.1501
    6DOPE   C27  693   1.634   4.182   8.329  0.3109 -0.6332  0.4073
    6DOPE   H7R  694   1.643   4.283   8.284 -1.3953 -0.5258  0.2373
    6DOPE   H7S  695   1.538   4.174   8.385  0.1561  3.7031  1.0793
    6DOPE   C28  696   1.628   4.082   8.213 -0.8197 -0.0499 -0.2610
    6DOPE   H8R  697   1.617   3.976   8.246 -0.1118 -0.0732 -0.0843
    6DOPE   H8S  698   1.727   4.098   8.166 -0.4343 -1.2975  0.0762
    6DOPE   C29  699   1.518   4.107   8.118  0.5741 -0.4604  0.6791
    6DOPE   H9R  700   1.412   4.101   8.148  0.8617 -1.0393  1.6380
    6DOPE  C210  701   1.543   4.158   7.994  0.4805 -0.8092 -0.1561
    6DOPE  H10R  702   1.452   4.167   7.933  0.7543  0.7555 -0.3895
    6DOPE  C211  703   1.664   4.208   7.925 -0.8833  0.6335 -0.2505
    6DOPE  H11R  704   1.756   4.205   7.987 -0.7458  1.0164 -0.4341
    6DOPE  H11S  705   1.647   4.314   7.898  1.0925  1.5409  1.7210
    6DOPE  C212  706   1.705   4.111   7.805 -0.1231 -0.8194 -0.4798
    6DOPE  H12R  707   1.791   4.165   7.761 -0.2891  0.7865  1.0575
    6DOPE  H12S  708   1.626   4.111   7.727  0.3822 -0.2253 -1.0059
    6DOPE  C213  709   1.749   3.972   7.833 -0.2392 -0.4938  0.8107
    6DOPE  H13R  710   1.676   3.939   7.910  0.6756  0.0434  1.9261
    6DOPE  H13S  711   1.845   3.975   7.888  0.6959  1.8794 -0.7651
    6DOPE  C214  712   1.767   3.877   7.712  0.7015  0.5368 -0.1144
    6DOPE  H14R  713   1.806   3.926   7.621  0.0916 -0.0337 -0.6973
    6DOPE  H14S  714   1.662   3.857   7.681  0.6875  1.0567 -0.4015
    6DOPE  C215  715   1.837   3.746   7.745 -0.8797 -0.1276  0.1623
    6DOPE  H15R  716   1.769   3.703   7.820 -2.8946  0.4567 -1.2478
    6DOPE  H15S  717   1.941   3.769   7.777  0.1677  0.8482 -3.3720
    6DOPE  C216  718   1.853   3.653   7.622 -0.5932 -0.5046  0.5325
    6DOPE  H16R  719   1.935   3.579   7.628 -0.3603 -0.2495  0.5111
    6DOPE  H16S  720   1.888   3.719   7.539  0.3369  1.6743  2.5468
    6DOPE  C217  721   1.723   3.578   7.589  0.3875  0.5607 -0.0746
    6DOPE  H17R  722   1.637   3.649   7.597 -1.7167 -2.0092  4.2292
    6DOPE  H17S  723   1.698   3.486   7.647 -2.4376  0.8226 -0.7275
    6DOPE  C218  724   1.728   3.527   7.442 -0.0319  0.0006  0.5936
    6DOPE  H18R  725   1.812   3.460   7.416 -0.6237 -0.6710  0.3889
    6DOPE  H18S  726   1.739   3.614   7.373  1.7374  0.2519  1.1547
    6DOPE  H18T  727   1.640   3.465   7.413  0.2516  0.3799 -1.2127
    6DOPE   C33  728   2.339   4.871   8.644  0.8174  0.4481 -0.9385
    6DOPE   H3X  729   2.388   4.782   8.601 -2.4741 -1.2827 -1.4180
    6DOPE   H3Y  730   2.410   4.911   8.720  1.5847 -0.5814 -1.0958
    6DOPE   C34  731   2.315   4.982   8.542  0.0604  0.2858  0.1236
    6DOPE   H4X  732   2.304   5.086   8.579 -1.5320  0.3378 -0.4140
    6DOPE   H4Y  733   2.411   4.993   8.487  0.1015 -4.2334 -1.0793
    6DOPE   C35  734   2.213   4.959   8.431  0.2683 -0.0932 -0.7729
    6DOPE   H5X  735   2.235   5.051   8.373 -0.9273  0.4798 -0.3433
    6DOPE   H5Y  736   2.111   4.953   8.474  0.7535  1.5124  0.6881
    6DOPE   C36  737   2.237   4.832   8.347  0.0789  0.1781 -0.6046
    6DOPE   H6X  738   2.228   4.739   8.407  0.1702  0.3523 -0.3135
    6DOPE   H6Y  739   2.340   4.821   8.309  1.0720 -0.7260  2.1196
    6DOPE   C37  740   2.135   4.819   8.226  0.6064 -0.0392 -0.2629
    6DOPE   H7X  741   2.162   4.728   8.168  2.3730  1.5641 -2.1181
    6DOPE   H7Y  742   2.032   4.811   8.266  0.8333  2.2610  0.9792
    6DOPE   C38  743   2.133   4.940   8.131 -0.3361 -0.3357  0.1637
    6DOPE   H8X  744   2.235   4.962   8.093  0.4533 -2.5753  0.8703
    6DOPE   H8Y  745   2.106   5.027   8.195 -1.7855  0.1779 -1.0966
    6DOPE   C39  746   2.047   4.927   8.009  0.3640 -0.0699 -0.5540
    6DOPE   H9X  747   1.953   4.979   8.030  0.7674  0.8998 -1.0891
    6DOPE  C310  748   2.080   4.895   7.886  0.7143  0.2861  0.3882
    6DOPE  H10X  749   2.002   4.907   7.808 -0.2614 -0.8889  1.1544
    6DOPE  C311  750   2.211   4.850   7.835  0.2114  0.1239  0.7038
    6DOPE  H11X  751   2.286   4.832   7.915 -0.8887  0.7677  1.9103
    6DOPE  H11Y  752   2.213   4.756   7.775  1.5474 -0.2312  1.2660
    6DOPE  C312  753   2.280   4.956   7.725  0.4253  0.4133  0.3890
    6DOPE  H12X  754   2.298   5.054   7.775  2.2156 -0.1057  0.8404
    6DOPE  H12Y  755   2.206   4.973   7.644 -0.6087  2.7305  1.7064
    6DOPE  C313  756   2.415   4.898   7.678 -0.5327  0.5253  0.2091
    6DOPE  H13X  757   2.480   4.885   7.767  2.2854 -0.8392 -1.8753
    6DOPE  H13Y  758   2.396   4.797   7.635  0.5015 -0.5022  2.0119
    6DOPE  C314  759   2.486   4.992   7.572  0.1767 -0.0087  0.1892
    6DOPE  H14X  760   2.420   4.994   7.483  1.3485 -0.4285 -0.7092
    6DOPE  H14Y  761   2.581   4.943   7.540  0.4279 -0.1122  1.0542
    6DOPE  C315  762   2.525   5.126   7.627  0.8566  0.1817 -0.6396
    6DOPE  H15X  763   2.591   5.104   7.715 -0.6825 -0.8402  0.3056
    6DOPE  H15Y  764   2.436   5.172   7.675  0.8267 -2.9260  2.6904
    6DOPE  C316  765   2.608   5.216   7.535 -0.4934 -0.0641 -0.2896
    6DOPE  H16X  766   2.546   5.259   7.453 -0.5062  0.8209  0.1819
    6DOPE  H16Y  767   2.698   5.168   7.490  1.4728  2.3425  0.8639
    6DOPE  C317  768   2.664   5.340   7.610  0.4795 -0.7417  0.8268
    6DOPE  H17X  769   2.747   5.320   7.681  0.9268 -2.0553 -0.0355
    6DOPE  H17Y  770   2.698   5.402   7.525 -1.6363 -2.2080 -1.2044
    6DOPE  C318  771   2.559   5.420   7.679  0.0595 -0.2066  0.1892
    6DOPE  H18X  772   2.614   5.499   7.734  2.3596 -1.4769 -0.1937
    6DOPE  H18Y  773   2.480   5.455   7.609  0.3883 -0.2947 -0.2292
    6DOPE  H18Z  774   2.524   5.347   7.755  2.6316  0.0146  1.7152
    7DOPE     N  775   3.888   4.628  10.049 -0.0438 -0.1274  0.3345
    7DOPE   HN1  776   3.852   4.550   9.990 -1.7595  0.3265  0.7387
    7DOPE   HN2  777   3.969   4.592  10.103 -0.3863 -0.9650  0.3146
    7DOPE   HN3  778   3.814   4.657  10.116  0.8742  1.8553  0.5423
    7DOPE   C12  779   3.931   4.740   9.964 -0.0139 -0.1372 -0.3904
    7DOPE  H12A  780   3.955   4.832  10.021  0.0157  1.4628 -2.8735
    7DOPE  H12B  781   3.837   4.765   9.911 -1.4112  0.5783  2.2497
    7DOPE   C11  782   4.045   4.709   9.864  0.0238  0.0108  0.3682
    7DOPE  H11A  783   4.064   4.793   9.794  2.3335  0.0634  0.9698
    7DOPE  H11B  784   4.023   4.614   9.812  2.2538 -0.2829 -0.1596
    7DOPE     P  785   4.251   4.805   9.981  0.1559 -0.2670  0.0777
    7DOPE   O13  786   4.335   4.782  10.100 -0.0735  0.0506 -0.0599
    7DOPE   O14  787   4.180   4.933   9.984  0.2100  0.2322  0.1431
    7DOPE   O11  788   4.349   4.799   9.861  0.1406 -0.2224 -0.5235
    7DOPE   O12  789   4.159   4.683   9.940 -0.3346 -0.3994  0.1255
    7DOPE    C1  790   4.414   4.679   9.817  0.6490  0.1389  0.0182
    7DOPE    HA  791   4.359   4.586   9.841  0.7578 -0.3311 -1.4551
    7DOPE    HB  792   4.517   4.674   9.858  1.0283  1.7749 -0.6557
    7DOPE    C2  793   4.422   4.678   9.664 -0.0332  0.1120 -0.1182
    7DOPE    HS  794   4.484   4.590   9.637 -0.4209 -0.4603  0.7807
    7DOPE   O21  795   4.487   4.799   9.615 -0.4611  0.2117 -0.0102
    7DOPE   C21  796   4.619   4.800   9.624  0.3206  0.2104 -0.0815
    7DOPE   O22  797   4.693   4.717   9.675  0.1463  0.0893  0.1727
    7DOPE   C22  798   4.686   4.911   9.536 -0.1968 -0.0396  0.5332
    7DOPE   H2R  799   4.794   4.883   9.530  0.1029  1.4413 -2.7227
    7DOPE   H2S  800   4.679   5.007   9.590 -1.8616 -2.0448  4.2784
    7DOPE    C3  801   4.283   4.664   9.593  0.5956 -0.8418 -0.5239
    7DOPE    HX  802   4.217   4.740   9.640  2.9633  1.9883 -1.4597
    7DOPE    HY  803   4.244   4.568   9.633 -0.4834 -0.4152 -0.5113
    7DOPE   O31  804   4.286   4.687   9.451 -0.1423  0.6397  0.0850
    7DOPE   C31  805   4.342   4.593   9.372  0.9147 -0.1924  0.1052
    7DOPE   O32  806   4.397   4.491   9.411  0.0496 -0.7635  0.0852
    7DOPE   C32  807   4.297   4.638   9.232 -0.6318 -0.2278 -0.0364
    7DOPE   H2X  808   4.186   4.630   9.240 -0.4955 -2.3773  0.3138
    7DOPE   H2Y  809   4.319   4.746   9.217  0.5389 -0.0509  2.5114
    7DOPE   C23  810   4.652   4.915   9.384 -0.0396 -0.3328 -0.1153
    7DOPE   H3R  811   4.682   5.007   9.330  1.5869 -1.4298 -1.1730
    7DOPE   H3S  812   4.543   4.897   9.375 -0.2126  0.7359 -0.2928
    7DOPE   C24  813   4.713   4.797   9.312 -0.2916 -0.1721  0.6341
    7DOPE   H4R  814   4.664   4.705   9.351 -3.3545  0.4553 -1.4580
    7DOPE   H4S  815   4.823   4.805   9.331 -0.3882 -0.2853  1.2543
    7DOPE   C25  816   4.695   4.802   9.161  0.2726  0.0482  0.6310
    7DOPE   H5R  817   4.691   4.910   9.134  0.3461 -0.2977 -0.8844
    7DOPE   H5S  818   4.594   4.764   9.135 -0.2960 -0.3804  3.2613
    7DOPE   C26  819   4.803   4.739   9.075 -0.1992  0.7882 -0.4631
    7DOPE   H6R  820   4.804   4.631   9.097  0.3099  1.4477  3.5537
    7DOPE   H6S  821   4.901   4.772   9.114 -0.7113 -0.8989  2.4719
    7DOPE   C27  822   4.783   4.765   8.926 -0.3243  0.2607 -0.4632
    7DOPE   H7R  823   4.766   4.875   8.932 -1.1257  0.0951  3.3096
    7DOPE   H7S  824   4.692   4.713   8.887  1.0478 -1.6470 -1.2461
    7DOPE   C28  825   4.894   4.722   8.836  0.0373 -0.6954 -0.1183
    7DOPE   H8R  826   4.847   4.737   8.736  0.5519  3.2860  0.0578
    7DOPE   H8S  827   4.918   4.616   8.855 -0.9991 -0.7436  0.9847
    7DOPE   C29  828   5.015   4.812   8.847 -0.1664 -0.6393  0.1336
    7DOPE   H9R  829   5.069   4.805   8.943  1.4165 -3.9446 -0.8309
    7DOPE  C210  830   5.054   4.903   8.756 -0.2926 -0.6250  0.0161
    7DOPE  H10R  831   5.141   4.965   8.784  0.2752 -0.2777 -2.3336
    7DOPE  C211  832   4.996   4.931   8.615 -0.0559  0.2915  0.5649
    7DOPE  H11R  833   4.966   5.038   8.605 -0.7479  0.0489 -0.0640
    7DOPE  H11S  834   4.913   4.864   8.586  0.6885 -1.1037  1.5384
    7DOPE  C212  835   5.096   4.919   8.498  0.0872  0.5653  0.4166
    7DOPE  H12R  836   5.092   4.809   8.486 -1.2889  0.6694 -0.2246
    7DOPE  H12S  837   5.198   4.951   8.530  0.1344  2.1838 -1.1812
    7DOPE  C213  838   5.041   4.971   8.362  0.3636 -0.4489 -0.5882
    7DOPE  H13R  839   5.048   5.082   8.370 -1.0823 -0.4837  2.2906
    7DOPE  H13S  840   4.935   4.943   8.344 -0.3497  0.4186  1.8493
    7DOPE  C214  841   5.126   4.929   8.237 -0.2870 -0.3257  0.5733
    7DOPE  H14R  842   5.142   4.819   8.243 -1.1315 -0.4684  0.4613
    7DOPE  H14S  843   5.221   4.986   8.241 -0.3856  0.1472 -2.0740
    7DOPE  C215  844   5.055   4.967   8.107  0.7980  0.7269  0.3707
    7DOPE  H15R  845   5.022   5.073   8.107 -0.3093  0.4158  1.9921
    7DOPE  H15S  846   4.963   4.905   8.105  0.9649  0.4736  0.4789
    7DOPE  C216  847   5.137   4.937   7.985 -0.0514  0.0258  1.4696
    7DOPE  H16R  848   5.066   4.944   7.899 -0.3188 -1.5553  1.5321
    7DOPE  H16S  849   5.179   4.834   7.990 -0.2873 -0.1301  0.4360
    7DOPE  C217  850   5.254   5.035   7.963  0.3145  0.2446  1.0410
    7DOPE  H17R  851   5.320   5.028   8.052  0.4032  0.5712  1.0022
    7DOPE  H17S  852   5.201   5.133   7.966 -0.8184 -0.2472 -1.0853
    7DOPE  C218  853   5.333   5.026   7.829 -0.1762  0.2285  0.7660
    7DOPE  H18R  854   5.267   5.054   7.745 -0.9887  0.0243  1.3252
    7DOPE  H18S  855   5.352   4.917   7.821  0.7033  0.4725 -1.1185
    7DOPE  H18T  856   5.426   5.088   7.831  0.9364 -1.3506 -0.0834
    7DOPE   C33  857   4.351   4.546   9.115 -0.0055 -0.5463 -0.0670
    7DOPE   H3X  858   4.283   4.459   9.117 -1.0739  0.2744  0.7815
    7DOPE   H3Y  859   4.452   4.514   9.150  0.9980  1.1989 -1.1916
    7DOPE   C34  860   4.353   4.611   8.974  0.9027 -0.1389 -0.0073
    7DOPE   H4X  861   4.246   4.632   8.958 -0.1047 -4.7041 -0.4530
    7DOPE   H4Y  862   4.404   4.709   8.988 -0.4697  0.7487 -0.9980
    7DOPE   C35  863   4.398   4.515   8.870  0.1853 -0.4555  0.1329
    7DOPE   H5X  864   4.384   4.411   8.905 -2.8880  0.7503  2.9873
    7DOPE   H5Y  865   4.505   4.531   8.843  0.2353 -0.7266  0.1712
    7DOPE   C36  866   4.313   4.544   8.742 -0.1404 -0.0983 -0.2349
    7DOPE   H6X  867   4.299   4.655   8.739 -0.1915 -0.0137  1.6605
    7DOPE   H6Y  868   4.210   4.502   8.747 -0.4253  0.5398 -0.5033
    7DOPE   C37  869   4.370   4.478   8.615  0.0891  0.3701 -0.0128
    7DOPE   H7X  870   4.390   4.370   8.629  2.4607  0.7043 -0.3766
    7DOPE   H7Y  871   4.283   4.493   8.548  0.0844  3.5215  0.5094
    7DOPE   C38  872   4.504   4.530   8.561 -0.6304  0.8027 -0.4616
    7DOPE   H8X  873   4.575   4.516   8.645  1.4322  0.6140 -2.1643
    7DOPE   H8Y  874   4.493   4.640   8.558  0.2540  0.9198  0.3470
    7DOPE   C39  875   4.554   4.464   8.432  0.2734 -0.2844 -0.8642
    7DOPE   H9X  876   4.533   4.357   8.417  0.5518 -0.3345 -0.9047
    7DOPE  C310  877   4.592   4.540   8.327 -0.5263  0.2591  0.4828
    7DOPE  H10X  878   4.635   4.484   8.242 -0.0415  1.7453 -0.2812
    7DOPE  C311  879   4.623   4.689   8.327  0.0891  0.0395  0.5650
    7DOPE  H11X  880   4.548   4.750   8.382 -0.6818  0.2116 -0.6252
    7DOPE  H11Y  881   4.722   4.711   8.373 -0.3576 -0.1942  1.6561
    7DOPE  C312  882   4.627   4.760   8.194  0.0937 -0.3197 -0.5185
    7DOPE  H12X  883   4.720   4.750   8.133  1.7736  4.3835  0.7954
    7DOPE  H12Y  884   4.608   4.867   8.216 -0.6971 -0.5742  0.0717
    7DOPE  C313  885   4.512   4.719   8.103  0.0548 -0.2854 -0.0198
    7DOPE  H13X  886   4.517   4.609   8.085 -2.3209 -0.5313  0.3822
    7DOPE  H13Y  887   4.416   4.736   8.157  0.3059 -0.8624  0.6239
    7DOPE  C314  888   4.504   4.792   7.970  0.2771  0.3303  0.8372
    7DOPE  H14X  889   4.560   4.745   7.887 -1.8986  0.8341 -1.0313
    7DOPE  H14Y  890   4.540   4.896   7.984  1.4666  0.0845 -0.1759
    7DOPE  C315  891   4.361   4.785   7.911 -0.0578  0.0433  0.0800
    7DOPE  H15X  892   4.358   4.852   7.823  0.0056  1.4777  1.1253
    7DOPE  H15Y  893   4.291   4.835   7.982 -0.8588  0.2417 -0.8219
    7DOPE  C316  894   4.302   4.645   7.891  0.3468 -0.3291 -0.3401
    7DOPE  H16X  895   4.250   4.613   7.983 -4.3864  3.7482 -1.1526
    7DOPE  H16Y  896   4.384   4.578   7.859  1.0017 -0.2147  1.0305
    7DOPE  C317  897   4.188   4.645   7.786 -0.2636  0.3911 -0.8971
    7DOPE  H17X  898   4.123   4.733   7.808 -0.5691 -0.0041 -0.2181
    7DOPE  H17Y  899   4.223   4.661   7.681  0.2027  0.8283 -0.6785
    7DOPE  C318  900   4.117   4.514   7.802 -0.7555  0.1525  0.5015
    7DOPE  H18X  901   4.183   4.430   7.770  0.0649  1.5285 -1.6946
    7DOPE  H18Y  902   4.070   4.495   7.900  1.3002 -2.6014  1.1027
    7DOPE  H18Z  903   4.037   4.517   7.725  0.3977 -1.1285 -0.8430
    8DOPE     N  904   4.404   0.026  10.622 -0.8773  0.4024  0.6425
    8DOPE   HN1  905   4.421  -0.058  10.679  1.2217  0.4678  0.1926
    8DOPE   HN2  906   4.479   0.091  10.654 -1.5814  2.5649 -1.7188
    8DOPE   HN3  907   4.307   0.063  10.634 -1.2182 -0.6550  1.2294
    8DOPE   C12  908   4.434  -0.010  10.486  0.3949  0.9766 -0.4685
    8DOPE  H12A  909   4.536  -0.052  10.479 -0.7734 -2.4109  0.7278
    8DOPE  H12B  910   4.424   0.072  10.411  0.6330 -0.7467 -2.4862
    8DOPE   C11  911   4.353  -0.135  10.441  0.1642  0.1754 -0.0103
    8DOPE  H11A  912   4.396  -0.163  10.343  0.2292 -0.7541  0.2734
    8DOPE  H11B  913   4.247  -0.102  10.430 -0.3126 -0.7962  1.3964
    8DOPE     P  914   4.274  -0.362  10.547  0.0764  0.0232 -0.0889
    8DOPE   O13  915   4.133  -0.318  10.566 -0.5711  0.7113  0.0870
    8DOPE   O14  916   4.315  -0.442  10.666  0.8594  0.0610 -0.8794
    8DOPE   O11  917   4.303  -0.427  10.410 -0.2102 -0.3164  0.3533
    8DOPE   O12  918   4.364  -0.234  10.537 -0.4847  0.7116 -0.1960
    8DOPE    C1  919   4.432  -0.478  10.370  0.2649  0.2524 -0.2229
    8DOPE    HA  920   4.445  -0.585  10.396  0.9549  0.5232  0.5948
    8DOPE    HB  921   4.510  -0.409  10.406 -0.5444  1.6267 -1.0178
    8DOPE    C2  922   4.439  -0.478  10.220 -0.6978  0.7264 -0.2256
    8DOPE    HS  923   4.424  -0.375  10.180 -1.7635 -0.4095 -3.0556
    8DOPE   O21  924   4.342  -0.579  10.176 -0.4015 -0.1242  0.5958
    8DOPE   C21  925   4.271  -0.549  10.070  0.1908  0.0563 -0.2063
    8DOPE   O22  926   4.266  -0.448  10.011 -0.4025  0.1361 -0.3661
    8DOPE   C22  927   4.216  -0.687  10.027 -0.1338  0.1062  0.2483
    8DOPE   H2R  928   4.150  -0.725  10.107  0.3446 -0.5692  0.3273
    8DOPE   H2S  929   4.298  -0.759  10.008 -1.0782 -0.7758 -0.6160
    8DOPE    C3  930   4.575  -0.529  10.174 -0.9265 -0.4274  0.3130
    8DOPE    HX  931   4.600  -0.624  10.227 -1.6745  0.1136  1.6990
    8DOPE    HY  932   4.648  -0.457  10.218  0.1214 -0.6198 -1.0563
    8DOPE   O31  933   4.591  -0.536  10.032  1.1398  0.8564 -0.1237
    8DOPE   C31  934   4.602  -0.661   9.984  0.6649  0.0212 -0.0095
    8DOPE   O32  935   4.629  -0.762  10.040  0.4016  0.1524 -0.3173
    8DOPE   C32  936   4.600  -0.661   9.829  0.2910 -0.5314  0.7863
    8DOPE   H2X  937   4.516  -0.596   9.796  0.3153 -1.2932 -0.8397
    8DOPE   H2Y  938   4.693  -0.606   9.802 -0.6726  1.1572  0.7673
    8DOPE   C23  939   4.133  -0.687   9.896  0.7397  0.3634  0.0829
    8DOPE   H3R  940   4.076  -0.592   9.889  2.6504  1.4562 -1.6013
    8DOPE   H3S  941   4.069  -0.777   9.895  0.5589  0.4489  1.5603
    8DOPE   C24  942   4.222  -0.685   9.773  0.0501  0.1704 -0.4551
    8DOPE   H4R  943   4.300  -0.758   9.801 -0.3951  0.8506  2.9444
    8DOPE   H4S  944   4.271  -0.586   9.761  0.2241  0.1461  0.0371
    8DOPE   C25  945   4.139  -0.715   9.650  0.0479  0.9276  0.1794
    8DOPE   H5R  946   4.070  -0.632   9.625 -2.9681 -0.5199  2.8692
    8DOPE   H5S  947   4.093  -0.816   9.652 -0.2652  1.0745  0.4663
    8DOPE   C26  948   4.240  -0.728   9.532  0.6158 -0.4505 -0.2590
    8DOPE   H6R  949   4.303  -0.816   9.554 -1.7331 -2.2761 -0.4443
    8DOPE   H6S  950   4.307  -0.639   9.531  0.8165 -0.6034 -0.4247
    8DOPE   C27  951   4.170  -0.759   9.400  0.8777 -0.1204  0.9920
    8DOPE   H7R  952   4.093  -0.681   9.384 -0.4668 -1.8535 -1.5590
    8DOPE   H7S  953   4.125  -0.859   9.415  0.0020 -0.3978 -2.6927
    8DOPE   C28  954   4.272  -0.778   9.288  0.4878  0.0676 -0.5759
    8DOPE   H8R  955   4.335  -0.863   9.321  0.2181  1.2224  3.4705
    8DOPE   H8S  956   4.334  -0.686   9.283 -0.5122  0.6869 -2.5720
    8DOPE   C29  957   4.211  -0.807   9.159  0.0333  0.8349  0.2764
    8DOPE   H9R  958   4.174  -0.911   9.153 -0.3239  1.0440 -3.5214
    8DOPE  C210  959   4.228  -0.736   9.044  0.4684 -0.0787 -0.7056
    8DOPE  H10R  960   4.177  -0.764   8.951 -1.3202 -1.1110  0.5303
    8DOPE  C211  961   4.309  -0.605   9.033 -0.0513  0.5160 -0.1970
    8DOPE  H11R  962   4.291  -0.549   9.127 -4.4420 -2.5915  1.1237
    8DOPE  H11S  963   4.260  -0.549   8.951 -1.7025  0.3247  0.6292
    8DOPE  C212  964   4.455  -0.638   9.003  0.2440  0.7366 -0.1544
    8DOPE  H12R  965   4.457  -0.706   8.916 -1.1853 -0.9791  1.0874
    8DOPE  H12S  966   4.499  -0.704   9.081 -2.9181 -0.2749  0.9390
    8DOPE  C213  967   4.541  -0.517   8.970 -0.1090 -0.1997 -0.2064
    8DOPE  H13R  968   4.498  -0.463   8.884  1.6392 -0.1198 -1.0709
    8DOPE  H13S  969   4.645  -0.553   8.950 -0.3993 -1.8603  1.0567
    8DOPE  C214  970   4.556  -0.425   9.098  0.0331 -0.1398  0.0813
    8DOPE  H14R  971   4.458  -0.392   9.139 -0.6095 -0.4588 -1.1641
    8DOPE  H14S  972   4.607  -0.330   9.071 -0.5660  0.4199  0.8533
    8DOPE  C215  973   4.629  -0.508   9.208  0.4444  0.0944  0.1679
    8DOPE  H15R  974   4.732  -0.535   9.175 -0.0520 -0.8943 -0.6282
    8DOPE  H15S  975   4.584  -0.606   9.234  2.4931 -1.4964 -1.8774
    8DOPE  C216  976   4.639  -0.438   9.346 -0.2205  0.0427 -0.2610
    8DOPE  H16R  977   4.649  -0.327   9.341 -1.7873  0.3800  2.1093
    8DOPE  H16S  978   4.731  -0.478   9.393  0.1658  0.2118 -0.8587
    8DOPE  C217  979   4.520  -0.478   9.430  0.2208  0.0687 -0.2971
    8DOPE  H17R  980   4.513  -0.587   9.448  0.3577  0.2508  0.8933
    8DOPE  H17S  981   4.426  -0.450   9.378  0.2497  0.1675 -0.2975
    8DOPE  C218  982   4.515  -0.408   9.567  0.7342  0.4690 -0.9632
    8DOPE  H18R  983   4.609  -0.430   9.621  0.7560 -1.1545 -1.5970
    8DOPE  H18S  984   4.427  -0.444   9.624 -0.1429  0.5696 -2.2080
    8DOPE  H18T  985   4.499  -0.303   9.535 -2.5207 -0.4298 -2.7635
    8DOPE   C33  986   4.619  -0.798   9.768 -0.3305  0.2203 -0.3094
    8DOPE   H3X  987   4.547  -0.874   9.804 -1.0989  1.7799  1.5956
    8DOPE   H3Y  988   4.719  -0.834   9.801 -0.4000  0.9591  0.7494
    8DOPE   C34  989   4.614  -0.795   9.618  0.6256  0.8090 -0.2382
    8DOPE   H4X  990   4.511  -0.774   9.581 -0.0864 -1.9947 -0.0998
    8DOPE   H4Y  991   4.686  -0.721   9.579  2.8509  0.4369  2.7378
    8DOPE   C35  992   4.670  -0.929   9.578  0.1461  0.0102  0.7879
    8DOPE   H5X  993   4.599  -0.996   9.631  0.9961 -1.1294  0.5079
    8DOPE   H5Y  994   4.775  -0.941   9.613  0.5956  2.7215  0.5830
    8DOPE   C36  995   4.650  -0.943   9.424  0.3933  0.1224  0.2244
    8DOPE   H6X  996   4.551  -0.903   9.396 -0.5877 -2.8605 -0.9489
    8DOPE   H6Y  997   4.641  -1.051   9.401 -1.4223 -0.0798  1.6508
    8DOPE   C37  998   4.766  -0.880   9.344 -0.3787 -0.2733 -0.4894
    8DOPE   H7X  999   4.755  -0.769   9.336 -1.3961 -0.3563 -0.2776
    8DOPE   H7Y 1000   4.857  -0.905   9.402 -1.4421  1.8188  2.3138
    8DOPE   C38 1001   4.783  -0.955   9.208 -0.2005 -0.8978  0.6709
    8DOPE   H8X 1002   4.769  -1.063   9.231  0.3041 -1.3831 -1.1626
    8DOPE   H8Y 1003   4.888  -0.955   9.174 -0.5489 -1.4660 -0.4388
    8DOPE   C39 1004   4.682  -0.908   9.105 -0.0908  0.2015 -0.3740
    8DOPE   H9X 1005   4.578  -0.919   9.138  0.3346 -1.3171  0.5833
    8DOPE  C310 1006   4.706  -0.891   8.972  0.2167  0.5951 -0.4685
    8DOPE  H10X 1007   4.615  -0.879   8.911 -1.6163 -1.7618  1.5810
    8DOPE  C311 1008   4.830  -0.927   8.896 -1.2299 -0.2423  0.0417
    8DOPE  H11X 1009   4.884  -1.011   8.945 -1.2980  0.3027  1.0910
    8DOPE  H11Y 1010   4.809  -0.953   8.791 -0.1870  0.8259 -0.4572
    8DOPE  C312 1011   4.934  -0.809   8.876  0.3961 -0.1929  0.0972
    8DOPE  H12X 1012   5.029  -0.850   8.836  2.0043  1.4627  1.9793
    8DOPE  H12Y 1013   4.947  -0.772   8.980  0.4614  0.4699 -0.1377
    8DOPE  C313 1014   4.885  -0.689   8.784  0.2084 -0.4972 -0.4196
    8DOPE  H13X 1015   4.848  -0.718   8.683 -3.9381 -0.7141  0.9753
    8DOPE  H13Y 1016   4.788  -0.658   8.829  0.7238  1.2835 -0.4558
    8DOPE  C314 1017   4.981  -0.567   8.784 -0.3452  0.2846  0.2893
    8DOPE  H14X 1018   5.085  -0.595   8.757 -0.0917  0.0354  1.4670
    8DOPE  H14Y 1019   4.991  -0.536   8.890  1.3588 -0.9043  0.5177
    8DOPE  C315 1020   4.936  -0.449   8.698  0.2069  0.9274  0.7924
    8DOPE  H15X 1021   4.987  -0.353   8.721  1.3319  0.1024  1.7833
    8DOPE  H15Y 1022   4.827  -0.430   8.707  0.2072  0.6395  1.3803
    8DOPE  C316 1023   4.963  -0.478   8.555  0.3604  0.7722  0.5121
    8DOPE  H16X 1024   4.913  -0.570   8.520  0.9839  0.3997  0.5772
    8DOPE  H16Y 1025   5.074  -0.480   8.543  0.5453  0.5978  2.0017
    8DOPE  C317 1026   4.912  -0.372   8.453 -0.1241  0.0883  0.2992
    8DOPE  H17X 1027   4.811  -0.336   8.482 -0.7146 -0.4874 -0.9630
    8DOPE  H17Y 1028   4.990  -0.294   8.465  0.7439 -0.8388  0.9573
    8DOPE  C318 1029   4.903  -0.428   8.311  0.1027  0.4190 -0.3355
    8DOPE  H18X 1030   4.881  -0.353   8.233  0.5622  2.1625  1.1366
    8DOPE  H18Y 1031   4.813  -0.492   8.315  1.2245 -1.1740  2.7763
    8DOPE  H18Z 1032   4.993  -0.489   8.289 -1.0066 -1.3649 -0.1416
    9DOPE     N 1033   1.531   4.598   9.742 -0.9074 -0.7588 -0.2486
    9DOPE   HN1 1034   1.527   4.702   9.753 -0.4942 -0.4633 -2.4503
    9DOPE   HN2 1035   1.614   4.566   9.796 -0.0996  1.9612  0.2728
    9DOPE   HN3 1036   1.545   4.589   9.639 -0.1040  0.3454 -0.2561
    9DOPE   C12 1037   1.417   4.513   9.794  0.1131 -1.2107 -0.4466
    9DOPE  H12A 1038   1.326   4.544   9.738 -0.8967 -2.7092  0.2913
    9DOPE  H12B 1039   1.416   4.538   9.902  1.1443 -0.6955 -0.5426
    9DOPE   C11 1040   1.438   4.364   9.784 -0.6414 -0.4658 -0.3101
    9DOPE  H11A 1041   1.358   4.323   9.848 -0.6010 -0.1747 -0.0672
    9DOPE  H11B 1042   1.536   4.338   9.829 -1.1158 -4.2721 -1.1613
    9DOPE     P 1043   1.310   4.240   9.592 -0.1284  0.2542 -0.1495
    9DOPE   O13 1044   1.248   4.177   9.714  0.3345  0.2853  0.3138
    9DOPE   O14 1045   1.366   4.154   9.488 -0.6238  0.0964  0.1125
    9DOPE   O11 1046   1.216   4.352   9.531 -0.4313  0.1044 -0.0601
    9DOPE   O12 1047   1.438   4.318   9.649  0.1647 -0.5618  0.1798
    9DOPE    C1 1048   1.267   4.450   9.443 -0.3809 -0.3240 -0.2498
    9DOPE    HA 1049   1.373   4.433   9.416 -0.1182  0.9032 -0.0444
    9DOPE    HB 1050   1.269   4.549   9.493  0.0890  0.0202 -0.9455
    9DOPE    C2 1051   1.189   4.459   9.307  0.7673 -0.8560  0.3140
    9DOPE    HS 1052   1.241   4.540   9.251  0.1348 -0.7025 -0.0575
    9DOPE   O21 1053   1.054   4.498   9.330 -0.0694 -0.1060 -0.1200
    9DOPE   C21 1054   0.988   4.550   9.234 -0.3847  0.6644  0.9051
    9DOPE   O22 1055   1.028   4.601   9.132 -0.5070  0.1815 -0.3559
    9DOPE   C22 1056   0.841   4.536   9.262 -0.2983 -0.5289 -0.3024
    9DOPE   H2R 1057   0.813   4.620   9.329  2.3923  1.8800 -1.9338
    9DOPE   H2S 1058   0.828   4.447   9.327 -0.4551  0.0961  0.5353
    9DOPE    C3 1059   1.189   4.320   9.241 -0.0684 -0.3803 -0.2986
    9DOPE    HX 1060   1.147   4.245   9.311  1.3443 -0.3593  0.6152
    9DOPE    HY 1061   1.296   4.289   9.240  0.5585  1.5826  0.8470
    9DOPE   O31 1062   1.130   4.308   9.112  0.4673 -0.3657 -0.2213
    9DOPE   C31 1063   1.212   4.326   9.005 -0.2656  0.2230  0.7406
    9DOPE   O32 1064   1.332   4.354   9.011 -0.0836 -0.0220  0.1350
    9DOPE   C32 1065   1.135   4.322   8.874 -0.0297  0.2938  0.4311
    9DOPE   H2X 1066   1.100   4.218   8.854 -1.3830  0.9254 -0.6957
    9DOPE   H2Y 1067   1.045   4.384   8.894  0.5821  1.3162  0.0851
    9DOPE   C23 1068   0.742   4.540   9.146 -0.2271  0.2460  0.0556
    9DOPE   H3R 1069   0.777   4.626   9.086  2.0175  0.0301  0.9519
    9DOPE   H3S 1070   0.637   4.555   9.181 -0.2387 -0.2015  0.2177
    9DOPE   C24 1071   0.737   4.404   9.073 -0.9097 -0.4465  0.2606
    9DOPE   H4R 1072   0.693   4.332   9.145 -2.2171  0.6205  0.5717
    9DOPE   H4S 1073   0.841   4.375   9.047 -0.6783  1.4908 -1.2474
    9DOPE   C25 1074   0.643   4.401   8.948 -0.4720  0.7269 -0.8776
    9DOPE   H5R 1075   0.675   4.484   8.880 -0.0644  0.5166 -0.9480
    9DOPE   H5S 1076   0.539   4.418   8.982 -0.1902 -2.6293  2.1848
    9DOPE   C26 1077   0.651   4.271   8.866 -0.1239  0.5239  0.0814
    9DOPE   H6R 1078   0.633   4.182   8.931  3.6804 -0.0492  0.5771
    9DOPE   H6S 1079   0.746   4.259   8.809  0.9598  1.3689  1.6265
    9DOPE   C27 1080   0.538   4.270   8.764 -0.3601  0.5043 -0.0012
    9DOPE   H7R 1081   0.510   4.368   8.720  0.3381 -0.1395 -1.9411
    9DOPE   H7S 1082   0.452   4.233   8.825  1.0419 -0.3804  1.5153
    9DOPE   C28 1083   0.562   4.176   8.645  1.1835 -0.1870  0.1718
    9DOPE   H8R 1084   0.464   4.158   8.596  1.2096 -0.7617  0.3270
    9DOPE   H8S 1085   0.599   4.078   8.681  0.6687 -0.3732  0.2111
    9DOPE   C29 1086   0.665   4.235   8.555 -0.6132  0.0073  0.0677
    9DOPE   H9R 1087   0.707   4.329   8.593 -2.3830  0.4686  0.9845
    9DOPE  C210 1088   0.689   4.195   8.429  1.1163  0.7907  0.1172
    9DOPE  H10R 1089   0.748   4.262   8.363  3.5141 -1.9642 -0.7370
    9DOPE  C211 1090   0.634   4.076   8.353 -0.2370  0.1016 -1.0473
    9DOPE  H11R 1091   0.591   4.001   8.421 -0.6547  2.0771  0.9855
    9DOPE  H11S 1092   0.724   4.028   8.307  1.3343  1.4251  0.4919
    9DOPE  C212 1093   0.527   4.108   8.250 -0.0809 -0.2730 -0.0341
    9DOPE  H12R 1094   0.429   4.146   8.287  0.5385  0.3295  1.0385
    9DOPE  H12S 1095   0.501   4.015   8.195  0.7748 -0.6405  0.1705
    9DOPE  C213 1096   0.577   4.204   8.146 -0.1417 -0.0355  0.5461
    9DOPE  H13R 1097   0.674   4.178   8.098 -1.3295  1.1429 -2.7245
    9DOPE  H13S 1098   0.592   4.308   8.183  0.7413  0.0517 -0.0245
    9DOPE  C214 1099   0.477   4.216   8.019  0.2942 -0.6437  0.6011
    9DOPE  H14R 1100   0.394   4.279   8.055 -0.2274 -0.0817 -1.4675
    9DOPE  H14S 1101   0.455   4.113   7.983  1.1827 -1.1761  1.5235
    9DOPE  C215 1102   0.536   4.297   7.907 -0.3295  0.2016  0.2945
    9DOPE  H15R 1103   0.611   4.362   7.957 -0.7805 -0.4900  1.9490
    9DOPE  H15S 1104   0.456   4.358   7.862 -0.4117 -1.7656 -2.4592
    9DOPE  C216 1105   0.611   4.222   7.795  0.5628  0.3051 -0.1207
    9DOPE  H16R 1106   0.526   4.189   7.732  0.9508  0.8422 -0.9330
    9DOPE  H16S 1107   0.656   4.132   7.843 -0.3369 -0.9764 -1.6014
    9DOPE  C217 1108   0.695   4.310   7.705 -0.7898  0.2664 -0.5065
    9DOPE  H17R 1109   0.718   4.247   7.617  1.0978  1.2695 -0.7850
    9DOPE  H17S 1110   0.790   4.353   7.746 -0.1945 -0.0527 -1.5226
    9DOPE  C218 1111   0.618   4.428   7.648 -0.2098 -0.1101 -0.0477
    9DOPE  H18R 1112   0.522   4.392   7.606 -1.3239  0.8303  1.5470
    9DOPE  H18S 1113   0.673   4.491   7.575  1.7191  0.2733  1.6588
    9DOPE  H18T 1114   0.587   4.499   7.728 -1.6073  0.9565 -1.4667
    9DOPE   C33 1115   1.219   4.361   8.756  0.4817  0.1986  0.5464
    9DOPE   H3X 1116   1.314   4.302   8.754  1.5895  1.6823 -3.8426
    9DOPE   H3Y 1117   1.253   4.467   8.755  0.9225  0.0598  0.4708
    9DOPE   C34 1118   1.139   4.331   8.629 -0.3392 -0.1612  0.3432
    9DOPE   H4X 1119   1.153   4.223   8.610 -0.9752 -0.5834  2.0483
    9DOPE   H4Y 1120   1.032   4.359   8.638 -0.5274 -1.2648  1.8944
    9DOPE   C35 1121   1.200   4.403   8.502  0.0088 -0.0322  0.1824
    9DOPE   H5X 1122   1.307   4.379   8.489 -0.4034 -2.8906  1.2922
    9DOPE   H5Y 1123   1.192   4.512   8.523  0.1330  0.0160 -0.0211
    9DOPE   C36 1124   1.131   4.363   8.370  0.8441 -0.1448 -0.1903
    9DOPE   H6X 1125   1.156   4.439   8.293 -0.1005 -2.5873 -3.1319
    9DOPE   H6Y 1126   1.021   4.376   8.375  1.0393  1.1540  1.2788
    9DOPE   C37 1127   1.174   4.223   8.310  0.0863  0.1255 -0.3086
    9DOPE   H7X 1128   1.285   4.220   8.304  0.1176 -2.1774  0.3162
    9DOPE   H7Y 1129   1.153   4.140   8.381 -1.8202  1.8730  1.2977
    9DOPE   C38 1130   1.102   4.182   8.181  0.4119 -0.5250 -0.0030
    9DOPE   H8X 1131   0.995   4.212   8.192  1.0045  1.3096  1.2575
    9DOPE   H8Y 1132   1.104   4.072   8.164 -1.5013 -0.8600  1.4778
    9DOPE   C39 1133   1.147   4.251   8.065 -0.2570 -0.1870  0.0757
    9DOPE   H9X 1134   1.194   4.350   8.078 -0.7546  0.0531  0.0946
    9DOPE  C310 1135   1.126   4.207   7.940 -0.2430 -0.4588  0.3421
    9DOPE  H10X 1136   1.137   4.277   7.857 -2.1684 -0.5028 -0.0018
    9DOPE  C311 1137   1.056   4.078   7.892  0.4465  0.0537  0.3781
    9DOPE  H11X 1138   1.107   3.989   7.934 -0.9022 -1.2248 -0.5890
    9DOPE  H11Y 1139   0.954   4.080   7.938  0.1781  0.0959 -0.2064
    9DOPE  C312 1140   1.032   4.061   7.738 -0.6611 -0.4647 -0.5635
    9DOPE  H12X 1141   1.132   4.058   7.689 -0.6098 -0.5544 -0.4537
    9DOPE  H12Y 1142   0.976   4.144   7.691  2.5072  1.8748 -0.5746
    9DOPE  C313 1143   0.950   3.935   7.709  0.0655  0.9962  0.5656
    9DOPE  H13X 1144   1.019   3.848   7.717 -0.5138  0.4521 -0.3301
    9DOPE  H13Y 1145   0.872   3.915   7.786  0.9614  1.0518  1.5264
    9DOPE  C314 1146   0.878   3.946   7.570  0.2173 -0.5492 -0.1689
    9DOPE  H14X 1147   0.953   3.964   7.490 -0.9575 -2.3004 -1.7280
    9DOPE  H14Y 1148   0.807   4.032   7.575 -2.3087 -2.4058 -1.6570
    9DOPE  C315 1149   0.801   3.818   7.554  0.0833  0.0441 -0.0844
    9DOPE  H15X 1150   0.716   3.822   7.626  0.4039 -0.2318  0.3084
    9DOPE  H15Y 1151   0.876   3.740   7.576 -0.6192 -0.3069  1.1821
    9DOPE  C316 1152   0.729   3.806   7.421 -0.0036 -0.2149  0.2803
    9DOPE  H16X 1153   0.809   3.800   7.345 -0.3614 -1.3141 -0.0391
    9DOPE  H16Y 1154   0.663   3.895   7.408  1.8236  1.0161 -0.9391
    9DOPE  C317 1155   0.641   3.686   7.417  1.0077  0.0057  0.3740
    9DOPE  H17X 1156   0.704   3.597   7.439  2.5006  0.2754 -2.3832
    9DOPE  H17Y 1157   0.558   3.705   7.489  0.9557  1.4101 -0.0224
    9DOPE  C318 1158   0.603   3.647   7.271  0.6400  0.5881  0.7693
    9DOPE  H18X 1159   0.537   3.558   7.266  0.4285  0.8168 -1.3477
    9DOPE  H18Y 1160   0.546   3.732   7.228 -1.0290 -0.3192  1.1346
    9DOPE  H18Z 1161   0.695   3.628   7.211  0.6536  3.0856 -0.1301
   10DOPE     N 1162   2.143   5.743   9.483 -0.0260 -0.0371 -0.4494
   10DOPE   HN1 1163   2.111   5.653   9.443  2.9106 -0.7709 -1.3676
   10DOPE   HN2 1164   2.239   5.731   9.521  1.0788  1.1488 -2.6499
   10DOPE   HN3 1165   2.077   5.774   9.557 -1.9488 -0.5406 -1.8669
   10DOPE   C12 1166   2.133   5.852   9.374  0.0948 -0.4282  0.1742
   10DOPE  H12A 1167   2.139   5.948   9.430  1.1806 -0.7566  0.6520
   10DOPE  H12B 1168   2.041   5.845   9.313  1.4186 -0.7151 -1.8954
   10DOPE   C11 1169   2.252   5.845   9.280  0.9405 -0.0275 -0.1870
   10DOPE  H11A 1170   2.354   5.862   9.320  1.8819 -1.3305 -1.9057
   10DOPE  H11B 1171   2.233   5.932   9.214 -0.8569 -1.1631 -1.2613
   10DOPE     P 1172   2.275   5.707   9.058 -0.2820 -0.0741 -0.0051
   10DOPE   O13 1173   2.318   5.567   9.044 -0.0907  0.3917  0.0555
   10DOPE   O14 1174   2.375   5.813   9.037  0.0410  0.2132 -0.2800
   10DOPE   O11 1175   2.144   5.733   8.983 -0.1291  0.1440  0.1957
   10DOPE   O12 1176   2.244   5.724   9.207  0.4871 -0.3289  0.5196
   10DOPE    C1 1177   2.014   5.674   9.015  0.3602  0.2726 -0.4724
   10DOPE    HA 1178   1.931   5.735   8.974 -0.5761  0.9851  2.2487
   10DOPE    HB 1179   1.986   5.681   9.122 -3.1979 -0.2768 -1.2271
   10DOPE    C2 1180   2.004   5.530   8.972  0.0566  0.9155  0.9377
   10DOPE    HS 1181   2.090   5.474   9.015  0.4763 -0.1003 -1.1046
   10DOPE   O21 1182   2.011   5.521   8.830  0.5081 -0.5077  0.4881
   10DOPE   C21 1183   2.063   5.421   8.784  0.2229 -0.6059 -0.0362
   10DOPE   O22 1184   2.109   5.326   8.847  0.4207  0.0445  0.0860
   10DOPE   C22 1185   2.089   5.451   8.638 -0.1478  0.3701  0.6641
   10DOPE   H2R 1186   2.032   5.543   8.612  1.5356  1.2176 -0.1954
   10DOPE   H2S 1187   2.048   5.360   8.589  2.0962  0.5554 -1.7574
   10DOPE    C3 1188   1.876   5.452   9.020 -0.1566  0.1354  0.4174
   10DOPE    HX 1189   1.887   5.458   9.130  2.9687  1.6731  0.1389
   10DOPE    HY 1190   1.884   5.349   8.978  1.0752  0.4104 -0.0657
   10DOPE   O31 1191   1.758   5.524   8.968 -0.3910  0.3122  0.3919
   10DOPE   C31 1192   1.637   5.468   9.000 -0.2312  0.2521 -0.2104
   10DOPE   O32 1193   1.629   5.362   9.059 -0.2813 -0.5711 -0.2721
   10DOPE   C32 1194   1.521   5.540   8.937  0.3371  0.2133 -0.4718
   10DOPE   H2X 1195   1.430   5.490   8.977 -1.6338  4.0390  0.3541
   10DOPE   H2Y 1196   1.527   5.643   8.977  2.0544  0.1249 -0.4474
   10DOPE   C23 1197   2.240   5.459   8.593 -0.4431  0.4127  0.1943
   10DOPE   H3R 1198   2.288   5.362   8.619 -0.2630 -0.4133 -2.8128
   10DOPE   H3S 1199   2.287   5.549   8.639  0.8316  0.7281 -1.6273
   10DOPE   C24 1200   2.261   5.465   8.443 -0.5395 -0.0120  0.9756
   10DOPE   H4R 1201   2.368   5.446   8.421 -0.7561  0.5487 -0.7086
   10DOPE   H4S 1202   2.233   5.560   8.392 -0.5071 -1.7121 -2.4467
   10DOPE   C25 1203   2.188   5.359   8.365 -0.2494 -0.2549 -0.3570
   10DOPE   H5R 1204   2.078   5.374   8.357 -0.1244  0.0307 -1.6374
   10DOPE   H5S 1205   2.205   5.265   8.422  0.5122 -0.6270 -1.1862
   10DOPE   C26 1206   2.250   5.326   8.225 -0.7150  0.4777  0.2597
   10DOPE   H6R 1207   2.232   5.223   8.187 -0.5674  0.4176  0.3557
   10DOPE   H6S 1208   2.359   5.342   8.234 -0.3548 -0.3324 -1.9863
   10DOPE   C27 1209   2.210   5.416   8.111 -0.3585 -0.6981  0.6845
   10DOPE   H7R 1210   2.232   5.518   8.148 -1.8018 -0.4247  0.8235
   10DOPE   H7S 1211   2.101   5.404   8.094 -0.1821 -0.4289 -0.7854
   10DOPE   C28 1212   2.299   5.393   7.980 -0.0032  0.1248 -0.1402
   10DOPE   H8R 1213   2.327   5.285   7.976 -1.2163 -0.2442  0.6692
   10DOPE   H8S 1214   2.391   5.451   8.003 -1.2808  1.2585  2.4723
   10DOPE   C29 1215   2.245   5.423   7.842 -0.4638 -0.4634 -0.8911
   10DOPE   H9R 1216   2.293   5.507   7.789  0.9557  0.1627  1.2526
   10DOPE  C210 1217   2.147   5.359   7.785 -0.3696  0.1543 -0.4672
   10DOPE  H10R 1218   2.117   5.392   7.685  0.1711 -0.3027 -0.7875
   10DOPE  C211 1219   2.069   5.243   7.844  1.2414 -0.0466  0.9011
   10DOPE  H11R 1220   2.091   5.235   7.953  0.8218  1.3856  1.1050
   10DOPE  H11S 1221   2.095   5.150   7.790  1.1770  0.8377 -0.7068
   10DOPE  C212 1222   1.917   5.257   7.834  0.3022 -0.7513  0.4798
   10DOPE  H12R 1223   1.871   5.158   7.853 -0.1341 -0.5624  0.4315
   10DOPE  H12S 1224   1.887   5.291   7.732  0.1171  0.2232  0.8403
   10DOPE  C213 1225   1.839   5.357   7.934  0.0714 -0.0719  0.1263
   10DOPE  H13R 1226   1.736   5.388   7.908  0.0067 -0.5761 -0.2250
   10DOPE  H13S 1227   1.890   5.456   7.928 -0.3781  0.1372 -0.2628
   10DOPE  C214 1228   1.843   5.291   8.075  0.0845 -0.4894  0.2626
   10DOPE  H14R 1229   1.945   5.269   8.113  0.6979  2.2932  0.4168
   10DOPE  H14S 1230   1.770   5.208   8.063 -1.3289  0.7736 -0.0804
   10DOPE  C215 1231   1.770   5.381   8.182 -0.5428  0.2105  0.3578
   10DOPE  H15R 1232   1.666   5.403   8.149 -0.7098  0.3272  0.9567
   10DOPE  H15S 1233   1.828   5.476   8.184 -0.3822  0.1502 -0.8633
   10DOPE  C216 1234   1.766   5.313   8.312 -1.0235 -0.5976  0.6256
   10DOPE  H16R 1235   1.871   5.305   8.348 -0.8000 -1.3572 -0.1563
   10DOPE  H16S 1236   1.722   5.211   8.311  0.4085 -1.2709 -1.5038
   10DOPE  C217 1237   1.690   5.389   8.421  0.3885 -0.0920 -0.9573
   10DOPE  H17R 1238   1.685   5.313   8.502  0.3201 -0.3266 -1.1797
   10DOPE  H17S 1239   1.584   5.412   8.394 -0.1447 -1.2167  0.0601
   10DOPE  C218 1240   1.747   5.520   8.470  0.2975  0.7093  0.0030
   10DOPE  H18R 1241   1.835   5.494   8.533 -0.5190 -1.0540  0.4866
   10DOPE  H18S 1242   1.678   5.575   8.539  1.1089  2.3724 -0.4662
   10DOPE  H18T 1243   1.766   5.579   8.379  1.2982  2.1276  1.0949
   10DOPE   C33 1244   1.518   5.530   8.786 -0.3582 -0.3772  0.6908
   10DOPE   H3X 1245   1.533   5.424   8.757  1.4262 -0.3740  1.4823
   10DOPE   H3Y 1246   1.600   5.594   8.746 -0.1852 -2.1499 -2.0251
   10DOPE   C34 1247   1.376   5.582   8.747  0.1837 -0.1714  0.4876
   10DOPE   H4X 1248   1.297   5.525   8.801 -1.9034  2.1294  0.0560
   10DOPE   H4Y 1249   1.361   5.684   8.788 -2.6992 -0.5393  0.5276
   10DOPE   C35 1250   1.358   5.576   8.592  0.4936 -0.1466 -0.3137
   10DOPE   H5X 1251   1.258   5.548   8.554 -0.1773  1.9231 -0.2242
   10DOPE   H5Y 1252   1.415   5.493   8.547 -1.2618 -0.8236 -1.3804
   10DOPE   C36 1253   1.389   5.704   8.526  0.2646 -0.2342 -0.4409
   10DOPE   H6X 1254   1.482   5.748   8.569 -0.4702 -1.7370  3.0451
   10DOPE   H6Y 1255   1.320   5.784   8.559  1.5752  0.4667  0.7176
   10DOPE   C37 1256   1.380   5.711   8.376  0.0319 -0.1971  0.8640
   10DOPE   H7X 1257   1.437   5.625   8.333  1.3599  1.4787 -0.9612
   10DOPE   H7Y 1258   1.276   5.690   8.342  0.1046  0.6870  0.0234
   10DOPE   C38 1259   1.431   5.842   8.311  0.8294 -0.2821 -0.2977
   10DOPE   H8X 1260   1.399   5.931   8.370  1.7991 -1.1939  1.7114
   10DOPE   H8Y 1261   1.379   5.857   8.214 -2.1184  0.2599  1.2508
   10DOPE   C39 1262   1.575   5.844   8.296 -0.1242  0.2537  0.2891
   10DOPE   H9X 1263   1.630   5.856   8.390 -0.7052 -0.6106  0.7526
   10DOPE  C310 1264   1.639   5.822   8.173  0.3714 -0.5395  0.1922
   10DOPE  H10X 1265   1.745   5.841   8.150 -0.6113  2.2361 -2.8942
   10DOPE  C311 1266   1.578   5.777   8.038 -0.3391 -0.0079  0.0493
   10DOPE  H11X 1267   1.666   5.725   7.995  0.9657  0.1659  2.3518
   10DOPE  H11Y 1268   1.506   5.694   8.052  0.2308 -0.7241 -1.0997
   10DOPE  C312 1269   1.527   5.883   7.938  0.0789  0.5491  0.1579
   10DOPE  H12X 1270   1.584   5.978   7.938 -0.9076  1.1821  1.6018
   10DOPE  H12Y 1271   1.428   5.920   7.974 -0.2245 -0.7136  0.6731
   10DOPE  C313 1272   1.510   5.814   7.801 -0.2790  0.6526  0.4323
   10DOPE  H13X 1273   1.602   5.765   7.763  0.6247  2.8102 -0.2547
   10DOPE  H13Y 1274   1.432   5.736   7.818  0.3773  0.0228  0.6161
   10DOPE  C314 1275   1.468   5.906   7.687  0.0670  0.4584 -0.3518
   10DOPE  H14X 1276   1.530   5.997   7.703  1.4145 -0.6668  1.1051
   10DOPE  H14Y 1277   1.361   5.928   7.708 -0.5848 -2.8081  0.1856
   10DOPE  C315 1278   1.489   5.857   7.547  0.2660  0.7914  0.3193
   10DOPE  H15X 1279   1.439   5.758   7.548 -0.3315  1.0976  0.9887
   10DOPE  H15Y 1280   1.595   5.849   7.513  0.9879  2.8173  1.8327
   10DOPE  C316 1281   1.417   5.952   7.447 -0.5736  0.7245 -0.0030
   10DOPE  H16X 1282   1.466   6.052   7.443 -0.6195  0.7636  0.3499
   10DOPE  H16Y 1283   1.310   5.954   7.475 -0.9904  2.2699 -1.5523
   10DOPE  C317 1284   1.431   5.913   7.302 -0.3896  0.8376 -0.1369
   10DOPE  H17X 1285   1.412   5.804   7.298  2.3642  0.1772  1.4370
   10DOPE  H17Y 1286   1.365   5.969   7.233 -0.8889 -0.0384 -0.3870
   10DOPE  C318 1287   1.575   5.930   7.254 -0.0448 -0.1673  0.1082
   10DOPE  H18X 1288   1.592   5.888   7.153  0.1217  0.8166 -0.2822
   10DOPE  H18Y 1289   1.610   6.035   7.261 -2.2746  0.5429  2.0976
   10DOPE  H18Z 1290   1.638   5.870   7.323 -1.6439 -1.8265  0.2048
   11DOPE     N 1291   1.017   3.380   9.623 -0.6644  0.4145  0.6095
   11DOPE   HN1 1292   0.932   3.431   9.592 -0.7487 -1.2987 -2.3367
   11DOPE   HN2 1293   1.096   3.406   9.561 -1.0158  0.6409  0.2457
   11DOPE   HN3 1294   0.987   3.282   9.604  0.1345  0.6439 -2.2558
   11DOPE   C12 1295   1.042   3.387   9.774 -0.3342  0.7000 -0.9838
   11DOPE  H12A 1296   1.028   3.495   9.792 -3.6622  0.1248  0.5874
   11DOPE  H12B 1297   1.143   3.347   9.796 -1.3611 -1.3168  0.4466
   11DOPE   C11 1298   0.930   3.318   9.853 -0.1263 -0.3556  0.4222
   11DOPE  H11A 1299   0.842   3.385   9.854 -0.0378 -0.2300  1.6793
   11DOPE  H11B 1300   0.977   3.312   9.954  1.6610 -0.0255 -0.3551
   11DOPE     P 1301   0.915   3.050   9.855 -0.3873 -0.5040  0.4691
   11DOPE   O13 1302   0.822   3.041   9.970 -0.4044 -0.1635 -0.0478
   11DOPE   O14 1303   1.055   3.026   9.892  0.2471 -0.0820  0.4381
   11DOPE   O11 1304   0.868   2.969   9.725  0.5155  0.3122 -0.2068
   11DOPE   O12 1305   0.910   3.190   9.802  0.5525  0.0701  0.7657
   11DOPE    C1 1306   0.728   2.928   9.712  0.1540  0.4088  0.1650
   11DOPE    HA 1307   0.661   3.013   9.682  2.1265  1.9426 -0.0947
   11DOPE    HB 1308   0.688   2.884   9.806  1.2491  1.0402  0.9466
   11DOPE    C2 1309   0.706   2.820   9.602 -0.1252 -0.0693  0.8633
   11DOPE    HS 1310   0.780   2.739   9.619 -2.0599 -1.8436  1.2892
   11DOPE   O21 1311   0.739   2.885   9.481  0.8780 -0.1269 -0.4716
   11DOPE   C21 1312   0.840   2.832   9.396 -0.3801  0.1464 -0.3253
   11DOPE   O22 1313   0.930   2.762   9.439 -0.4115  0.0653  0.5874
   11DOPE   C22 1314   0.834   2.905   9.260 -1.0137  0.2728  0.1045
   11DOPE   H2R 1315   0.828   2.836   9.173 -1.5630 -1.4666  1.4759
   11DOPE   H2S 1316   0.939   2.941   9.251 -0.4244 -1.4648 -0.3492
   11DOPE    C3 1317   0.561   2.761   9.599 -0.0725  0.3632  0.0539
   11DOPE    HX 1318   0.492   2.848   9.603 -0.7393 -0.1956  0.6206
   11DOPE    HY 1319   0.553   2.700   9.691 -0.2935 -0.5998 -0.5971
   11DOPE   O31 1320   0.537   2.689   9.475  0.1480 -0.0297 -0.2975
   11DOPE   C31 1321   0.472   2.755   9.373  0.4234  0.6152 -0.4545
   11DOPE   O32 1322   0.439   2.872   9.385 -0.2783  0.2530  0.5419
   11DOPE   C32 1323   0.448   2.672   9.249  0.8694  0.7654  0.8252
   11DOPE   H2X 1324   0.537   2.677   9.183  0.0697  0.2815 -0.3155
   11DOPE   H2Y 1325   0.450   2.565   9.279  1.2948  0.3222 -0.6984
   11DOPE   C23 1326   0.722   3.007   9.233 -0.3434 -0.0668  0.1880
   11DOPE   H3R 1327   0.704   3.053   9.333 -1.7732  0.0262 -0.0946
   11DOPE   H3S 1328   0.631   2.952   9.204 -0.8692  1.5707 -1.4689
   11DOPE   C24 1329   0.759   3.128   9.142  0.7478 -0.0389 -0.2501
   11DOPE   H4R 1330   0.853   3.170   9.183  1.4524 -2.5491  0.8917
   11DOPE   H4S 1331   0.681   3.207   9.143 -0.0011 -0.7661 -0.3455
   11DOPE   C25 1332   0.779   3.075   8.998  0.2103  0.0405 -0.2470
   11DOPE   H5R 1333   0.684   3.026   8.964 -0.6003  0.0982  1.7728
   11DOPE   H5S 1334   0.864   3.004   8.998  1.4302  1.4655 -0.5362
   11DOPE   C26 1335   0.830   3.193   8.907 -0.1981 -0.7619  0.0724
   11DOPE   H6R 1336   0.927   3.222   8.951 -0.4577  2.3527 -1.1800
   11DOPE   H6S 1337   0.762   3.280   8.920  0.4943 -0.2489  0.3187
   11DOPE   C27 1338   0.847   3.157   8.760 -0.4873 -0.9639  0.3938
   11DOPE   H7R 1339   0.786   3.067   8.735  0.4955 -1.6082  0.2949
   11DOPE   H7S 1340   0.953   3.150   8.727  0.5163 -0.7321  3.3016
   11DOPE   C28 1341   0.788   3.263   8.660 -0.3239  0.7661  0.0760
   11DOPE   H8R 1342   0.684   3.276   8.698 -0.9483 -3.5432  0.3914
   11DOPE   H8S 1343   0.769   3.221   8.559 -0.6201 -0.6271  0.6840
   11DOPE   C29 1344   0.867   3.393   8.681 -0.3631 -0.2870  0.1147
   11DOPE   H9R 1345   0.820   3.461   8.753 -0.1459 -2.3271  2.3381
   11DOPE  C210 1346   0.990   3.424   8.631  0.3641  0.4008  0.1686
   11DOPE  H10R 1347   1.033   3.524   8.647 -0.1240  0.4041  1.5593
   11DOPE  C211 1348   1.077   3.336   8.543 -0.0231 -0.2924  0.2108
   11DOPE  H11R 1349   1.044   3.230   8.552  3.5784 -1.4510  1.2219
   11DOPE  H11S 1350   1.179   3.324   8.584  0.8112  1.2438 -1.3103
   11DOPE  C212 1351   1.089   3.380   8.395  0.1818  0.2781 -0.7069
   11DOPE  H12R 1352   1.186   3.339   8.360  1.1648 -0.0790  2.1348
   11DOPE  H12S 1353   1.101   3.490   8.399 -0.4930  0.3192  1.0727
   11DOPE  C213 1354   0.963   3.347   8.311 -0.1605 -0.8768  0.0992
   11DOPE  H13R 1355   0.888   3.413   8.358  0.7627 -0.6396  1.2964
   11DOPE  H13S 1356   0.940   3.240   8.329  2.2690 -1.3317  0.9118
   11DOPE  C214 1357   0.973   3.372   8.156 -0.0360 -0.7073 -0.0274
   11DOPE  H14R 1358   1.050   3.303   8.115 -2.4140 -3.0131 -0.9437
   11DOPE  H14S 1359   1.003   3.478   8.145  1.4920 -1.0290  0.8360
   11DOPE  C215 1360   0.841   3.351   8.087 -0.0606  0.2264  0.0170
   11DOPE  H15R 1361   0.761   3.376   8.160  1.1046 -1.9216  2.1584
   11DOPE  H15S 1362   0.823   3.242   8.075  1.3830  0.1414 -1.9916
   11DOPE  C216 1363   0.824   3.413   7.945  0.6146 -0.0151  0.4546
   11DOPE  H16R 1364   0.850   3.520   7.960  0.9578 -0.2643  1.7481
   11DOPE  H16S 1365   0.717   3.409   7.913  0.8841  0.2080 -0.5068
   11DOPE  C217 1366   0.903   3.356   7.825  0.0259  0.5213  0.4451
   11DOPE  H17R 1367   0.857   3.257   7.806  0.4649  0.0336  1.8129
   11DOPE  H17S 1368   1.008   3.337   7.858 -0.3511 -0.5267  1.0844
   11DOPE  C218 1369   0.893   3.441   7.697  0.1005 -0.3544 -0.2005
   11DOPE  H18R 1370   0.792   3.453   7.653 -0.3023 -2.5095  0.0197
   11DOPE  H18S 1371   0.943   3.380   7.618 -0.1170 -0.3403 -0.3498
   11DOPE  H18T 1372   0.948   3.537   7.699 -0.1366 -0.2336  0.6207
   11DOPE   C33 1373   0.320   2.714   9.176 -0.6315  0.6198 -0.7500
   11DOPE   H3X 1374   0.321   2.822   9.149  1.1490  1.1134  1.0423
   11DOPE   H3Y 1375   0.233   2.693   9.242  1.4311 -1.7851  1.4173
   11DOPE   C34 1376   0.304   2.640   9.040  0.3797 -0.5895 -0.1224
   11DOPE   H4X 1377   0.323   2.534   9.065  1.2051 -0.4835 -0.2730
   11DOPE   H4Y 1378   0.209   2.646   8.983  1.4603  0.0940 -1.9080
   11DOPE   C35 1379   0.412   2.674   8.941  0.2555 -0.9673  0.7919
   11DOPE   H5X 1380   0.514   2.653   8.981  0.2544 -2.1356  0.2175
   11DOPE   H5Y 1381   0.411   2.784   8.926  1.9357 -0.8598  1.2397
   11DOPE   C36 1382   0.391   2.591   8.812  0.2818 -0.6181  0.2292
   11DOPE   H6X 1383   0.297   2.611   8.758  0.4474 -0.0060  0.1600
   11DOPE   H6Y 1384   0.381   2.489   8.854 -0.5180 -0.1238  1.2932
   11DOPE   C37 1385   0.508   2.593   8.714  0.4030  0.0365  0.1911
   11DOPE   H7X 1386   0.538   2.698   8.696 -1.4824  0.4641 -0.6951
   11DOPE   H7Y 1387   0.598   2.550   8.763 -0.4584 -3.2195 -0.7916
   11DOPE   C38 1388   0.474   2.519   8.583  0.5337  0.1816  0.3984
   11DOPE   H8X 1389   0.398   2.587   8.539 -0.2237  0.3932  1.9548
   11DOPE   H8Y 1390   0.436   2.416   8.597  1.1455 -0.6749 -3.1826
   11DOPE   C39 1391   0.593   2.507   8.495  0.4997 -0.7522 -0.3636
   11DOPE   H9X 1392   0.682   2.481   8.554 -0.5471 -0.8068  1.2681
   11DOPE  C310 1393   0.612   2.541   8.366  0.0507 -0.1500  0.1631
   11DOPE  H10X 1394   0.711   2.517   8.325  0.0057  0.6292 -0.4317
   11DOPE  C311 1395   0.511   2.594   8.267  0.1363 -0.6618 -0.0196
   11DOPE  H11X 1396   0.429   2.651   8.316  1.9664  0.8046  1.4849
   11DOPE  H11Y 1397   0.572   2.670   8.213  2.3207 -1.2822  1.4342
   11DOPE  C312 1398   0.451   2.486   8.174 -0.9255 -0.0492  0.1087
   11DOPE  H12X 1399   0.527   2.411   8.142 -0.0788 -0.2423  2.3624
   11DOPE  H12Y 1400   0.409   2.527   8.080 -0.5853  0.0035 -0.0212
   11DOPE  C313 1401   0.339   2.407   8.243 -0.0571  0.0501  0.4419
   11DOPE  H13X 1402   0.378   2.376   8.343  1.1845  0.9790  0.2546
   11DOPE  H13Y 1403   0.254   2.478   8.257 -0.0344  0.0437  0.6120
   11DOPE  C314 1404   0.297   2.271   8.184 -0.2772  0.2125  0.0709
   11DOPE  H14X 1405   0.389   2.210   8.169  1.8317  2.9604  0.9195
   11DOPE  H14Y 1406   0.250   2.310   8.092  0.7522  1.1746 -0.0698
   11DOPE  C315 1407   0.201   2.180   8.253 -0.0118 -0.4196 -0.2271
   11DOPE  H15X 1408   0.113   2.239   8.285  0.2374  0.0543 -0.4111
   11DOPE  H15Y 1409   0.247   2.139   8.346  0.3406  2.1222  0.8037
   11DOPE  C316 1410   0.144   2.075   8.153  0.0587 -0.5760  0.3210
   11DOPE  H16X 1411   0.225   2.007   8.118  0.1429 -0.7719  0.8714
   11DOPE  H16Y 1412   0.090   2.124   8.070  0.4295 -1.2167 -0.3110
   11DOPE  C317 1413   0.040   1.978   8.223 -0.0208 -0.2995 -0.2838
   11DOPE  H17X 1414   0.091   1.947   8.317 -0.1705  1.5977  0.4756
   11DOPE  H17Y 1415  -0.048   2.043   8.243  2.6617  2.7206  3.2149
   11DOPE  C318 1416   0.017   1.859   8.128  0.4765  0.2899 -0.4506
   11DOPE  H18X 1417  -0.073   1.803   8.163  0.8879 -1.1037 -1.5531
   11DOPE  H18Y 1418   0.003   1.893   8.024  0.5865  1.1002 -0.2063
   11DOPE  H18Z 1419   0.104   1.791   8.130  1.8660  1.9571 -1.6376
   12DOPE     N 1420   3.093   6.759  10.395  0.0857 -0.2742 -0.0658
   12DOPE   HN1 1421   3.147   6.787  10.479  0.1098  1.9475 -0.7661
   12DOPE   HN2 1422   3.123   6.820  10.317 -0.6472 -0.3459 -0.4110
   12DOPE   HN3 1423   2.993   6.779  10.418  0.1776  0.1044  0.0103
   12DOPE   C12 1424   3.108   6.612  10.365  0.1880 -0.4106 -0.1140
   12DOPE  H12A 1425   3.022   6.593  10.297  0.2612 -0.4491 -0.1952
   12DOPE  H12B 1426   3.102   6.562  10.464 -0.7245 -2.1668 -1.0203
   12DOPE   C11 1427   3.245   6.570  10.302  0.9283  0.8778 -0.5877
   12DOPE  H11A 1428   3.231   6.470  10.256 -1.9743  0.1555  1.5492
   12DOPE  H11B 1429   3.312   6.564  10.390 -0.2673 -1.2976  0.2564
   12DOPE     P 1430   3.247   6.663  10.045 -0.1522 -0.0909 -0.1981
   12DOPE   O13 1431   3.302   6.793  10.007 -0.9130 -0.2237  0.8897
   12DOPE   O14 1432   3.105   6.640  10.032 -0.0818 -0.2775  0.3280
   12DOPE   O11 1433   3.334   6.542   9.989 -0.0128 -0.3681 -0.4624
   12DOPE   O12 1434   3.286   6.656  10.206 -0.4057  0.0557  0.6644
   12DOPE    C1 1435   3.461   6.556   9.921 -0.2355 -0.0736 -0.3150
   12DOPE    HA 1436   3.513   6.459   9.935  2.7366  1.5928  1.3209
   12DOPE    HB 1437   3.528   6.633   9.966 -1.7710  0.2794  1.4888
   12DOPE    C2 1438   3.451   6.594   9.775 -1.2514 -0.5360 -0.1211
   12DOPE    HS 1439   3.415   6.699   9.767  1.2842  0.9013  3.9767
   12DOPE   O21 1440   3.362   6.495   9.721 -0.3514 -0.0650  0.5096
   12DOPE   C21 1441   3.291   6.523   9.617  0.0385 -0.0687 -0.3214
   12DOPE   O22 1442   3.289   6.633   9.566 -0.9471 -0.5747  0.2206
   12DOPE   C22 1443   3.210   6.405   9.566 -0.0436 -0.1647 -0.0812
   12DOPE   H2R 1444   3.106   6.435   9.592  0.9085  1.0459  2.7055
   12DOPE   H2S 1445   3.253   6.321   9.625  1.5543  0.2612 -0.5894
   12DOPE    C3 1446   3.596   6.580   9.699  0.4119  0.3285  0.2659
   12DOPE    HX 1447   3.627   6.476   9.724 -0.1529 -0.0784 -0.6659
   12DOPE    HY 1448   3.669   6.648   9.747  0.2683 -0.5890  1.8766
   12DOPE   O31 1449   3.596   6.598   9.555 -0.6414 -0.0208  0.1867
   12DOPE   C31 1450   3.574   6.719   9.514 -0.0489  0.0800  0.1076
   12DOPE   O32 1451   3.545   6.818   9.584 -0.3595 -0.4759 -0.0978
   12DOPE   C32 1452   3.585   6.727   9.363 -0.3758 -0.2066  0.5320
   12DOPE   H2X 1453   3.551   6.829   9.335 -0.7057 -0.1538  1.1069
   12DOPE   H2Y 1454   3.683   6.699   9.319 -0.7144  0.2070 -0.5270
   12DOPE   C23 1455   3.233   6.374   9.415  0.2097  0.2179 -0.2561
   12DOPE   H3R 1456   3.338   6.337   9.403  1.3451  2.9615  0.4204
   12DOPE   H3S 1457   3.230   6.464   9.350  3.1045 -0.0967 -0.9715
   12DOPE   C24 1458   3.127   6.280   9.346 -0.0287 -0.1257  0.3797
   12DOPE   H4R 1459   3.032   6.336   9.330  1.4517  2.9000  1.5035
   12DOPE   H4S 1460   3.109   6.187   9.404 -2.7996  0.1589  0.1300
   12DOPE   C25 1461   3.187   6.249   9.208  0.8048  0.3010 -0.5449
   12DOPE   H5R 1462   3.283   6.194   9.220 -0.2277 -1.5995 -0.6723
   12DOPE   H5S 1463   3.218   6.345   9.162 -0.0104  0.4627 -0.7633
   12DOPE   C26 1464   3.084   6.183   9.114  0.0933  0.2067 -0.3171
   12DOPE   H6R 1465   3.126   6.189   9.012 -1.1135  0.3596 -0.8140
   12DOPE   H6S 1466   2.994   6.248   9.118  1.6079  2.3840  0.6929
   12DOPE   C27 1467   3.044   6.039   9.155  0.6984  0.3414 -0.3025
   12DOPE   H7R 1468   2.944   6.008   9.119 -0.0257  1.8884  0.2922
   12DOPE   H7S 1469   3.044   6.028   9.266 -0.5878 -0.5990 -0.3732
   12DOPE   C28 1470   3.159   5.933   9.116 -0.0602  0.7151  0.2523
   12DOPE   H8R 1471   3.255   5.957   9.165  0.1373 -0.3690  0.4283
   12DOPE   H8S 1472   3.174   5.945   9.007 -1.2322  1.4731  0.1556
   12DOPE   C29 1473   3.118   5.789   9.158 -0.1747  0.2373 -0.6920
   12DOPE   H9R 1474   3.105   5.775   9.266 -0.8298  1.2775 -0.6180
   12DOPE  C210 1475   3.100   5.689   9.071 -0.1962 -0.3603 -0.0930
   12DOPE  H10R 1476   3.075   5.591   9.113 -1.9309 -0.1414 -0.5297
   12DOPE  C211 1477   3.106   5.707   8.919  0.2093  0.3219  0.6854
   12DOPE  H11R 1478   3.210   5.691   8.885  0.5450  0.6731  1.5341
   12DOPE  H11S 1479   3.082   5.810   8.884 -0.0155 -0.0492 -0.2989
   12DOPE  C212 1480   3.031   5.592   8.861  0.4309  0.1062  0.0188
   12DOPE  H12R 1481   2.925   5.593   8.894  0.3284  3.1794 -0.1130
   12DOPE  H12S 1482   3.073   5.492   8.885 -2.2548 -1.0585  0.2638
   12DOPE  C213 1483   3.018   5.610   8.714 -0.0691  0.0972 -0.0775
   12DOPE  H13R 1484   3.119   5.611   8.667  0.0371  2.0056  0.0898
   12DOPE  H13S 1485   2.974   5.709   8.691  1.0189  0.8740  1.0037
   12DOPE  C214 1486   2.940   5.489   8.650 -0.7283 -0.2676 -0.3924
   12DOPE  H14R 1487   2.848   5.475   8.710 -0.0714 -0.0242  0.6958
   12DOPE  H14S 1488   2.996   5.393   8.654 -1.3030 -0.5893 -0.0079
   12DOPE  C215 1489   2.901   5.529   8.508  0.1456 -0.4280  0.5613
   12DOPE  H15R 1490   2.986   5.509   8.440 -1.2150  1.8364 -1.9794
   12DOPE  H15S 1491   2.868   5.635   8.505 -0.1992 -0.5389  0.3987
   12DOPE  C216 1492   2.773   5.462   8.465  0.1397  0.3967 -0.7661
   12DOPE  H16R 1493   2.722   5.508   8.377 -1.6217 -0.1042 -0.0597
   12DOPE  H16S 1494   2.698   5.440   8.544 -0.7084  0.2803 -1.5907
   12DOPE  C217 1495   2.800   5.320   8.408  0.0500 -0.3878  0.3703
   12DOPE  H17R 1496   2.883   5.276   8.467  1.1775 -0.0705 -0.9351
   12DOPE  H17S 1497   2.835   5.331   8.303 -1.8268  0.6028 -0.2093
   12DOPE  C218 1498   2.673   5.236   8.415  0.1367  0.4730 -0.0160
   12DOPE  H18R 1499   2.593   5.301   8.373 -1.3547 -0.9584  0.5318
   12DOPE  H18S 1500   2.649   5.212   8.520 -2.0247 -1.0052 -0.7865
   12DOPE  H18T 1501   2.684   5.143   8.355 -1.1422  0.4324 -0.1976
   12DOPE   C33 1502   3.481   6.623   9.291 -0.3804 -0.3643 -0.2183
   12DOPE   H3X 1503   3.381   6.662   9.317  0.3487  1.1967  0.4253
   12DOPE   H3Y 1504   3.486   6.526   9.344 -0.7026  0.1336  0.7536
   12DOPE   C34 1505   3.501   6.616   9.136  0.5664 -0.3720 -0.6694
   12DOPE   H4X 1506   3.478   6.714   9.089  2.4927 -0.3537 -1.6988
   12DOPE   H4Y 1507   3.610   6.617   9.114  0.8209 -0.0365  0.5422
   12DOPE   C35 1508   3.422   6.506   9.061  0.5935 -0.0338  0.6170
   12DOPE   H5X 1509   3.314   6.513   9.087  0.3425 -0.4387 -0.2668
   12DOPE   H5Y 1510   3.462   6.412   9.103  0.9904  0.4862  1.4275
   12DOPE   C36 1511   3.444   6.516   8.913 -0.1548 -0.5963  0.0454
   12DOPE   H6X 1512   3.553   6.523   8.892  0.1031  0.4871  1.5900
   12DOPE   H6Y 1513   3.408   6.613   8.873  1.3461 -0.4814 -1.1493
   12DOPE   C37 1514   3.370   6.407   8.836  0.2998  0.1682 -0.0611
   12DOPE   H7X 1515   3.408   6.314   8.883 -1.2742  0.1254  1.2018
   12DOPE   H7Y 1516   3.264   6.400   8.868  0.5075  0.4303  0.6906
   12DOPE   C38 1517   3.376   6.412   8.688 -0.4890 -0.0792 -0.3914
   12DOPE   H8X 1518   3.394   6.518   8.661  1.6490 -0.1896  0.4188
   12DOPE   H8Y 1519   3.279   6.387   8.639  0.0463  0.2353 -1.6441
   12DOPE   C39 1520   3.495   6.327   8.635  0.6274  0.0010 -0.1741
   12DOPE   H9X 1521   3.594   6.360   8.670 -0.2524  2.0645  0.5269
   12DOPE  C310 1522   3.483   6.206   8.569  0.3838  0.3051 -0.4889
   12DOPE  H10X 1523   3.579   6.161   8.539  0.6194 -0.1772  0.9109
   12DOPE  C311 1524   3.367   6.135   8.515 -0.6833  0.0522  0.9893
   12DOPE  H11X 1525   3.297   6.197   8.455 -1.7714 -0.9176  1.2266
   12DOPE  H11Y 1526   3.400   6.064   8.437 -1.9792  1.0403 -0.5371
   12DOPE  C312 1527   3.270   6.071   8.612 -0.1939  0.2842 -0.0601
   12DOPE  H12X 1528   3.227   6.148   8.681  0.9115  1.2093 -0.3848
   12DOPE  H12Y 1529   3.315   5.991   8.675  0.2274  1.0460  0.6270
   12DOPE  C313 1530   3.156   5.995   8.539  0.2071  0.3949 -0.2614
   12DOPE  H13X 1531   3.081   5.974   8.619  1.1621  2.1331  1.1561
   12DOPE  H13Y 1532   3.102   6.059   8.467 -0.6246 -0.8977 -0.8319
   12DOPE  C314 1533   3.204   5.861   8.483  0.8600  0.8812  0.2480
   12DOPE  H14X 1534   3.213   5.787   8.565 -1.4070  1.0393  0.6978
   12DOPE  H14Y 1535   3.302   5.874   8.433  0.4154  0.9724 -0.6177
   12DOPE  C315 1536   3.105   5.822   8.367 -0.0285 -0.6501  0.2167
   12DOPE  H15X 1537   3.099   5.911   8.301  2.1609 -0.9097 -0.4159
   12DOPE  H15Y 1538   3.002   5.819   8.407 -0.7240  1.9131 -1.1289
   12DOPE  C316 1539   3.153   5.704   8.294 -0.1671 -0.0533  0.1930
   12DOPE  H16X 1540   3.154   5.627   8.374 -0.0533  2.0895  2.4006
   12DOPE  H16Y 1541   3.262   5.715   8.272  0.7123 -0.7002  3.5653
   12DOPE  C317 1542   3.067   5.688   8.166  0.1543  0.0821 -0.9612
   12DOPE  H17X 1543   2.960   5.683   8.197  0.9097  1.1201  2.1554
   12DOPE  H17Y 1544   3.091   5.771   8.097 -0.2990  2.0306  1.1011
   12DOPE  C318 1545   3.093   5.562   8.097 -0.2685  0.8794  0.4757
   12DOPE  H18X 1546   3.087   5.477   8.169  0.0877  0.0888 -0.4030
   12DOPE  H18Y 1547   3.024   5.552   8.011  3.7091  1.3646 -3.1246
   12DOPE  H18Z 1548   3.184   5.568   8.033 -2.7823 -0.4733 -3.6141
   13DOPE     N 1549   1.490   1.230   9.366  0.1862 -0.2562  0.2715
   13DOPE   HN1 1550   1.524   1.205   9.271  0.4087  1.4024 -0.1227
   13DOPE   HN2 1551   1.563   1.206   9.435 -0.7744  1.3734  1.9459
   13DOPE   HN3 1552   1.413   1.164   9.391  0.6587 -1.5746 -1.5828
   13DOPE   C12 1553   1.440   1.371   9.381  0.2983 -0.5167 -0.6579
   13DOPE  H12A 1554   1.358   1.379   9.307 -0.2613 -1.3681 -0.1463
   13DOPE  H12B 1555   1.525   1.440   9.361  1.6040 -1.4859  1.3386
   13DOPE   C11 1556   1.387   1.393   9.527 -0.1129  0.2603  0.2728
   13DOPE  H11A 1557   1.317   1.311   9.553  0.3458 -0.3601 -0.3942
   13DOPE  H11B 1558   1.330   1.487   9.539 -0.8281 -0.1124 -0.1449
   13DOPE     P 1559   1.571   1.501   9.682  0.1716  0.6490 -0.5372
   13DOPE   O13 1560   1.638   1.469   9.813  0.0628 -0.4965 -0.2145
   13DOPE   O14 1561   1.489   1.621   9.682 -0.4107 -0.0992 -0.0738
   13DOPE   O11 1562   1.688   1.516   9.579 -0.0616  0.4622 -0.0320
   13DOPE   O12 1563   1.491   1.380   9.623  0.2007  0.4658 -0.1690
   13DOPE    C1 1564   1.757   1.640   9.558  0.6652  0.2247  0.0260
   13DOPE    HA 1565   1.865   1.631   9.582  0.2927  0.3544  1.8461
   13DOPE    HB 1566   1.718   1.728   9.613  0.4027  0.2614 -0.2149
   13DOPE    C2 1567   1.749   1.668   9.406 -0.1398  0.2201  0.3128
   13DOPE    HS 1568   1.813   1.759   9.399  0.7043 -0.4466 -0.8368
   13DOPE   O21 1569   1.615   1.691   9.359  0.3093 -0.2545 -0.1359
   13DOPE   C21 1570   1.565   1.802   9.394  1.0135 -0.5628  0.2939
   13DOPE   O22 1571   1.620   1.907   9.428 -0.5371 -0.0203 -0.2026
   13DOPE   C22 1572   1.408   1.794   9.377 -0.4156 -0.2882 -0.3470
   13DOPE   H2R 1573   1.375   1.899   9.395  0.1358  0.0201 -1.0985
   13DOPE   H2S 1574   1.367   1.734   9.461 -0.4535 -0.3038 -0.3769
   13DOPE    C3 1575   1.797   1.548   9.328 -0.1415 -0.1106 -0.4794
   13DOPE    HX 1576   1.741   1.458   9.363 -0.2812 -0.3146 -1.2035
   13DOPE    HY 1577   1.901   1.519   9.354  0.5782  1.7556 -1.1377
   13DOPE   O31 1578   1.785   1.563   9.185  0.2224  0.3513 -0.6193
   13DOPE   C31 1579   1.739   1.456   9.124 -0.1780  0.4197 -0.5402
   13DOPE   O32 1580   1.691   1.356   9.179  0.2365  0.4268 -0.2454
   13DOPE   C32 1581   1.722   1.483   8.973 -0.0575 -0.1475 -0.0180
   13DOPE   H2X 1582   1.663   1.577   8.969  1.7759  1.0202 -1.0969
   13DOPE   H2Y 1583   1.820   1.511   8.930  1.3525 -1.1344  2.3579
   13DOPE   C23 1584   1.361   1.758   9.235  0.1366  0.7147  0.0659
   13DOPE   H3R 1585   1.250   1.750   9.241  0.3315 -2.3288  1.6120
   13DOPE   H3S 1586   1.404   1.656   9.221  0.1895  0.5081  1.6350
   13DOPE   C24 1587   1.406   1.862   9.133  0.4226  0.1308 -0.7226
   13DOPE   H4R 1588   1.452   1.951   9.181 -0.7021 -0.0244  0.7302
   13DOPE   H4S 1589   1.317   1.895   9.074  1.4243  3.2048 -0.6907
   13DOPE   C25 1590   1.509   1.801   9.035  0.9282 -0.1797 -0.3230
   13DOPE   H5R 1591   1.465   1.716   8.980 -0.3437 -0.2130  0.7104
   13DOPE   H5S 1592   1.596   1.765   9.094  0.8552  0.4779  0.1923
   13DOPE   C26 1593   1.548   1.915   8.939  0.4945 -0.2303 -0.3327
   13DOPE   H6R 1594   1.610   1.992   8.989 -0.4976  1.4700 -1.6140
   13DOPE   H6S 1595   1.461   1.966   8.892  0.2758  0.4640  0.7976
   13DOPE   C27 1596   1.641   1.853   8.830  0.6815 -0.5142 -0.3307
   13DOPE   H7R 1597   1.582   1.766   8.793 -2.8435  0.5294  2.2197
   13DOPE   H7S 1598   1.729   1.821   8.888 -0.0494 -1.8119  0.1124
   13DOPE   C28 1599   1.679   1.963   8.724  0.3964  0.7860 -0.6390
   13DOPE   H8R 1600   1.730   2.045   8.779  0.1202  0.4498  0.1317
   13DOPE   H8S 1601   1.581   2.001   8.689  0.4323  1.9893  0.4812
   13DOPE   C29 1602   1.776   1.904   8.627  0.1852  0.4887  0.9540
   13DOPE   H9R 1603   1.876   1.876   8.665  1.2866  0.2623 -1.8398
   13DOPE  C210 1604   1.753   1.900   8.495  0.3335 -0.2915 -0.1767
   13DOPE  H10R 1605   1.836   1.871   8.429 -1.0326  2.9738 -3.7172
   13DOPE  C211 1606   1.630   1.935   8.417  1.1826 -0.5843  0.3472
   13DOPE  H11R 1607   1.601   2.036   8.455 -1.1265 -0.7731 -0.7471
   13DOPE  H11S 1608   1.545   1.868   8.441 -0.2361  0.6237 -1.0556
   13DOPE  C212 1609   1.651   1.945   8.260 -0.3352 -0.0431  0.3553
   13DOPE  H12R 1610   1.748   1.998   8.248  1.5220 -3.1803  0.4665
   13DOPE  H12S 1611   1.580   2.022   8.223  0.6746 -0.2867 -2.2708
   13DOPE  C213 1612   1.655   1.812   8.196  0.6239 -0.0768  0.2297
   13DOPE  H13R 1613   1.556   1.761   8.199  1.1186 -1.4483 -2.7249
   13DOPE  H13S 1614   1.726   1.762   8.264 -0.6993 -0.5459  1.3039
   13DOPE  C214 1615   1.706   1.814   8.056  0.6071  0.5693  0.7374
   13DOPE  H14R 1616   1.731   1.709   8.030 -0.3129 -0.1579  2.5953
   13DOPE  H14S 1617   1.798   1.871   8.030 -0.2268  0.6926 -2.3017
   13DOPE  C215 1618   1.596   1.847   7.954 -0.0500  0.4177  0.1267
   13DOPE  H15R 1619   1.539   1.930   8.000  0.2398  0.1753  0.9356
   13DOPE  H15S 1620   1.529   1.760   7.935  1.1427 -0.1858 -1.6734
   13DOPE  C216 1621   1.643   1.892   7.815  0.0622 -0.0114 -0.1379
   13DOPE  H16R 1622   1.705   1.983   7.830 -0.4852  0.3374  0.0705
   13DOPE  H16S 1623   1.554   1.918   7.753 -0.6449 -0.1866  0.7768
   13DOPE  C217 1624   1.726   1.784   7.743 -0.1017 -0.7354 -0.4927
   13DOPE  H17R 1625   1.808   1.742   7.805 -1.0841 -0.2204  1.2132
   13DOPE  H17S 1626   1.763   1.846   7.657 -4.4059  2.0533 -0.6704
   13DOPE  C218 1627   1.640   1.678   7.681 -0.1986 -0.6295  0.0841
   13DOPE  H18R 1628   1.575   1.623   7.753 -0.2149  0.2922  0.8024
   13DOPE  H18S 1629   1.706   1.610   7.624  3.1388  1.4690  1.1813
   13DOPE  H18T 1630   1.567   1.717   7.607 -0.1367 -0.6736 -0.0001
   13DOPE   C33 1631   1.674   1.354   8.903 -0.3299 -0.1410 -0.1526
   13DOPE   H3X 1632   1.569   1.342   8.938 -0.4573  0.5384 -0.2740
   13DOPE   H3Y 1633   1.745   1.271   8.922 -0.1900 -0.3390 -1.4143
   13DOPE   C34 1634   1.694   1.371   8.749 -0.5715 -0.5644  0.8541
   13DOPE   H4X 1635   1.801   1.390   8.723 -1.0407  2.0990  0.6717
   13DOPE   H4Y 1636   1.669   1.271   8.706  1.1112 -0.8717  0.5161
   13DOPE   C35 1637   1.624   1.494   8.682 -0.3201  0.1447 -1.0833
   13DOPE   H5X 1638   1.673   1.579   8.734  1.9830 -1.3658 -0.6255
   13DOPE   H5Y 1639   1.517   1.494   8.711  0.0896 -0.3509  0.5726
   13DOPE   C36 1640   1.645   1.499   8.532  0.0720  0.0206  0.5085
   13DOPE   H6X 1641   1.754   1.520   8.522  0.1645 -0.7806 -0.3694
   13DOPE   H6Y 1642   1.585   1.580   8.486  0.9899  0.8667  0.7697
   13DOPE   C37 1643   1.606   1.364   8.469  0.3469  0.6715  0.2244
   13DOPE   H7X 1644   1.681   1.283   8.483  0.9301  1.0319 -0.7084
   13DOPE   H7Y 1645   1.517   1.337   8.530  1.0527 -1.1873  0.4753
   13DOPE   C38 1646   1.547   1.365   8.324 -0.1774 -0.0462 -0.9516
   13DOPE   H8X 1647   1.472   1.447   8.332  0.6167  0.5293  1.0259
   13DOPE   H8Y 1648   1.493   1.270   8.305 -1.6939  0.1858  1.7397
   13DOPE   C39 1649   1.652   1.394   8.226 -0.6668 -0.0329  0.0371
   13DOPE   H9X 1650   1.752   1.368   8.262 -0.9726 -0.9203  0.2769
   13DOPE  C310 1651   1.642   1.440   8.102  0.0008 -0.1693 -0.3531
   13DOPE  H10X 1652   1.737   1.455   8.050  0.0232  0.9741 -0.0242
   13DOPE  C311 1653   1.509   1.481   8.042  0.3633 -0.3692 -0.4398
   13DOPE  H11X 1654   1.458   1.564   8.096 -0.0557 -0.7338 -0.2700
   13DOPE  H11Y 1655   1.526   1.509   7.936 -2.0380  0.6336 -0.6390
   13DOPE  C312 1656   1.411   1.362   8.030  0.5154  0.4002 -0.9330
   13DOPE  H12X 1657   1.368   1.341   8.131  0.2088 -0.7364 -1.2844
   13DOPE  H12Y 1658   1.468   1.273   7.998 -0.6445 -0.4154 -0.7956
   13DOPE  C313 1659   1.305   1.372   7.919  0.0305 -0.0875 -0.0750
   13DOPE  H13X 1660   1.367   1.389   7.828 -0.9410  0.4292 -0.6636
   13DOPE  H13Y 1661   1.246   1.280   7.902  2.3943 -1.5457 -0.8911
   13DOPE  C314 1662   1.223   1.500   7.927  0.0472  0.0293  0.1343
   13DOPE  H14X 1663   1.293   1.583   7.906  0.7683 -0.7783 -0.7293
   13DOPE  H14Y 1664   1.191   1.498   8.033  2.2663 -0.3239  0.8410
   13DOPE  C315 1665   1.100   1.494   7.836  0.7724 -0.3697 -0.1428
   13DOPE  H15X 1666   1.058   1.592   7.805  2.6081  0.7183  0.6399
   13DOPE  H15Y 1667   1.025   1.431   7.888 -0.3222  1.6918  0.8812
   13DOPE  C316 1668   1.121   1.430   7.694 -0.1790 -0.4148  0.2809
   13DOPE  H16X 1669   1.156   1.325   7.703 -0.4594 -0.4844  0.5417
   13DOPE  H16Y 1670   1.201   1.484   7.638 -0.3139 -0.7636 -0.2526
   13DOPE  C317 1671   0.992   1.435   7.621 -0.0758 -0.1829 -0.4540
   13DOPE  H17X 1672   0.911   1.395   7.687  0.4999 -0.4789  0.0790
   13DOPE  H17Y 1673   0.969   1.540   7.596  0.6307 -0.0004 -0.3578
   13DOPE  C318 1674   1.004   1.353   7.490  0.3021 -0.1069  0.4455
   13DOPE  H18X 1675   1.096   1.379   7.433 -0.2576  1.7281  0.3374
   13DOPE  H18Y 1676   1.001   1.244   7.511  0.5970 -0.2964 -0.4314
   13DOPE  H18Z 1677   0.927   1.377   7.414 -0.2281 -0.7932  0.7565
   14DOPE     N 1678   5.151   4.261  10.054 -0.1671 -0.0522 -0.6718
   14DOPE   HN1 1679   5.059   4.299  10.024  0.7868  0.5711 -3.0741
   14DOPE   HN2 1680   5.231   4.282   9.990 -1.1304  4.3075 -0.7435
   14DOPE   HN3 1681   5.129   4.160  10.063 -0.0669 -0.2176 -2.0315
   14DOPE   C12 1682   5.202   4.312  10.187  0.1898  0.2485  0.4185
   14DOPE  H12A 1683   5.115   4.308  10.257  0.9448  0.1514  1.3656
   14DOPE  H12B 1684   5.257   4.408  10.178  0.6477 -0.0825 -0.3879
   14DOPE   C11 1685   5.310   4.213  10.243  0.5352 -0.6596 -0.3376
   14DOPE  H11A 1686   5.267   4.129  10.301  0.9319 -0.3718  0.3960
   14DOPE  H11B 1687   5.370   4.267  10.320  1.8963 -2.1746 -0.2706
   14DOPE     P 1688   5.543   4.197  10.126  0.3791  0.0694  0.1445
   14DOPE   O13 1689   5.614   4.110  10.227  0.7183 -0.4990 -0.0632
   14DOPE   O14 1690   5.548   4.347  10.135 -0.1308 -0.3784  0.1900
   14DOPE   O11 1691   5.570   4.141   9.978 -0.2095 -0.4249  0.3644
   14DOPE   O12 1692   5.392   4.158  10.144  0.0233  0.3324  0.1022
   14DOPE    C1 1693   5.498   4.204   9.872  0.2699  0.5434  0.3059
   14DOPE    HA 1694   5.487   4.314   9.884  1.3703  0.9121 -1.5770
   14DOPE    HB 1695   5.395   4.163   9.866 -0.0529  0.3098  4.3484
   14DOPE    C2 1696   5.555   4.192   9.732 -0.5076  0.9132  0.0395
   14DOPE    HS 1697   5.547   4.092   9.686 -1.2668  1.0109 -0.0486
   14DOPE   O21 1698   5.692   4.234   9.740  0.2778 -0.1801  0.1790
   14DOPE   C21 1699   5.781   4.141   9.769  0.2895  0.2301 -0.2514
   14DOPE   O22 1700   5.757   4.022   9.773 -0.6393 -0.1847  0.5468
   14DOPE   C22 1701   5.921   4.203   9.779  0.8608  0.1760  0.5308
   14DOPE   H2R 1702   5.951   4.181   9.884 -0.3358  2.7800  1.4970
   14DOPE   H2S 1703   5.905   4.313   9.778 -0.7725 -0.0497  0.2419
   14DOPE    C3 1704   5.477   4.278   9.619  0.0025  0.5952 -0.4718
   14DOPE    HX 1705   5.458   4.376   9.667 -2.7464 -1.2061  2.5500
   14DOPE    HY 1706   5.377   4.233   9.601  0.2911 -0.8814  1.2620
   14DOPE   O31 1707   5.555   4.286   9.493 -0.0616 -0.4843 -0.6208
   14DOPE   C31 1708   5.614   4.410   9.471  0.2969  0.4103 -0.6887
   14DOPE   O32 1709   5.601   4.507   9.543 -0.0415 -0.3208 -0.3011
   14DOPE   C32 1710   5.693   4.401   9.351 -0.0692  0.5592 -0.3369
   14DOPE   H2X 1711   5.759   4.490   9.339 -0.5327  1.0042  0.3930
   14DOPE   H2Y 1712   5.758   4.311   9.361  0.7427  1.3826  3.8109
   14DOPE   C23 1713   6.011   4.164   9.658 -0.9276 -0.4328 -0.0407
   14DOPE   H3R 1714   6.033   4.056   9.671  0.8211 -0.1269 -0.1568
   14DOPE   H3S 1715   6.112   4.210   9.669 -0.7146 -0.5261 -1.3737
   14DOPE   C24 1716   5.967   4.204   9.513 -0.1292 -0.3088  0.0145
   14DOPE   H4R 1717   5.939   4.312   9.520 -0.0408 -0.1219 -1.9529
   14DOPE   H4S 1718   5.875   4.149   9.483 -0.6522  0.1347  0.7455
   14DOPE   C25 1719   6.078   4.180   9.406 -0.5798  0.5494  0.7438
   14DOPE   H5R 1720   6.108   4.073   9.410  0.9422  0.7290 -2.2159
   14DOPE   H5S 1721   6.169   4.237   9.434  0.9816 -1.5702  0.2692
   14DOPE   C26 1722   6.037   4.212   9.257  0.6574  0.1879  0.2176
   14DOPE   H6R 1723   6.008   4.319   9.251  1.4828  0.3204 -2.4334
   14DOPE   H6S 1724   5.952   4.143   9.242  1.2044 -0.4656  0.0524
   14DOPE   C27 1725   6.150   4.169   9.167 -0.0202 -0.5717 -0.4433
   14DOPE   H7R 1726   6.171   4.062   9.188  0.3820 -0.6424 -1.1716
   14DOPE   H7S 1727   6.246   4.217   9.196  0.9098 -2.9430  0.6955
   14DOPE   C28 1728   6.120   4.188   9.017 -0.2792  0.3157 -0.3291
   14DOPE   H8R 1729   6.126   4.296   8.992 -1.6954  0.5455  0.2269
   14DOPE   H8S 1730   6.021   4.143   8.996 -1.9196  2.7768  1.6038
   14DOPE   C29 1731   6.229   4.119   8.939  0.4690  0.0488  0.3204
   14DOPE   H9R 1732   6.319   4.083   8.991  0.2421 -0.0800  0.6299
   14DOPE  C210 1733   6.231   4.104   8.799  0.7631 -0.2874 -0.9093
   14DOPE  H10R 1734   6.314   4.041   8.764  0.8243 -2.7345  2.9655
   14DOPE  C211 1735   6.125   4.155   8.709  0.7054  0.0394 -0.7551
   14DOPE  H11R 1736   6.068   4.243   8.748 -0.1340 -0.4300 -0.9025
   14DOPE  H11S 1737   6.046   4.079   8.691  0.5428  0.5613 -2.3902
   14DOPE  C212 1738   6.182   4.197   8.576  0.4507  0.7293 -0.1789
   14DOPE  H12R 1739   6.097   4.230   8.513 -1.2824 -2.2264  0.4207
   14DOPE  H12S 1740   6.227   4.110   8.524 -0.0949  0.2300  0.1618
   14DOPE  C213 1741   6.287   4.301   8.599  0.8379 -0.2006  0.2026
   14DOPE  H13R 1742   6.387   4.256   8.618 -0.0491 -2.0995  0.6395
   14DOPE  H13S 1743   6.262   4.366   8.686 -3.1816 -0.6168 -0.4459
   14DOPE  C214 1744   6.287   4.402   8.481 -0.0667 -0.3286  0.6257
   14DOPE  H14R 1745   6.365   4.476   8.510  0.3768 -0.5684  0.0688
   14DOPE  H14S 1746   6.188   4.451   8.475  1.1791  2.2808 -0.0420
   14DOPE  C215 1747   6.327   4.336   8.346 -0.5372  0.8996  0.1664
   14DOPE  H15R 1748   6.318   4.407   8.261 -1.1092 -0.5308 -0.9948
   14DOPE  H15S 1749   6.251   4.261   8.317  1.0916 -0.2791 -1.2429
   14DOPE  C216 1750   6.469   4.268   8.342 -0.5712 -0.4316 -0.5415
   14DOPE  H16R 1751   6.469   4.180   8.409  0.6045 -0.6297 -0.7774
   14DOPE  H16S 1752   6.552   4.340   8.359 -2.2660  1.8410 -1.3685
   14DOPE  C217 1753   6.496   4.203   8.203 -0.4169 -0.4259 -0.3885
   14DOPE  H17R 1754   6.400   4.152   8.179 -0.2212 -0.8348 -0.3035
   14DOPE  H17S 1755   6.578   4.129   8.206 -2.1563 -2.4419  0.3464
   14DOPE  C218 1756   6.524   4.302   8.093  0.2177  0.7040  0.7258
   14DOPE  H18R 1757   6.549   4.250   7.998 -0.5468  0.9707  0.3693
   14DOPE  H18S 1758   6.594   4.382   8.123  0.9682  0.4836 -0.3808
   14DOPE  H18T 1759   6.425   4.348   8.071  0.9954  1.5562 -1.1960
   14DOPE   C33 1760   5.611   4.398   9.223 -0.6469 -0.0985  0.1231
   14DOPE   H3X 1761   5.555   4.493   9.206 -0.6415 -0.4550 -2.2294
   14DOPE   H3Y 1762   5.539   4.314   9.235 -1.4068  0.9751  4.9929
   14DOPE   C34 1763   5.704   4.371   9.109 -0.3898  0.0423 -0.4775
   14DOPE   H4X 1764   5.776   4.455   9.108  0.3661 -0.5897 -0.2464
   14DOPE   H4Y 1765   5.761   4.278   9.133 -0.1219  0.7182  1.6940
   14DOPE   C35 1766   5.641   4.346   8.975 -0.2012 -0.6739 -0.1435
   14DOPE   H5X 1767   5.577   4.434   8.953  0.5880 -0.0907 -0.1540
   14DOPE   H5Y 1768   5.579   4.254   8.977  0.6965 -1.4265 -2.8601
   14DOPE   C36 1769   5.744   4.340   8.854  0.7885 -0.6734  0.4103
   14DOPE   H6X 1770   5.820   4.261   8.875  0.7932 -0.7722  0.0444
   14DOPE   H6Y 1771   5.786   4.442   8.859 -0.9222  0.0005  4.3571
   14DOPE   C37 1772   5.675   4.329   8.717  0.6022  0.0464 -0.0794
   14DOPE   H7X 1773   5.602   4.246   8.731  0.5385  0.4338  2.2993
   14DOPE   H7Y 1774   5.627   4.426   8.696  0.5860 -0.5002 -2.9657
   14DOPE   C38 1775   5.772   4.287   8.598  0.0610 -0.2054 -0.1003
   14DOPE   H8X 1776   5.707   4.262   8.511 -1.0047  0.9999  0.3172
   14DOPE   H8Y 1777   5.824   4.191   8.618  0.0931 -0.4863 -1.4454
   14DOPE   C39 1778   5.872   4.388   8.556 -0.0044 -0.4830 -0.0637
   14DOPE   H9X 1779   5.943   4.399   8.640 -0.5061 -1.7466  0.5582
   14DOPE  C310 1780   5.868   4.463   8.444  0.4951 -0.4765 -0.3045
   14DOPE  H10X 1781   5.949   4.535   8.424  1.1295 -0.8256  0.9368
   14DOPE  C311 1782   5.785   4.436   8.320 -0.3375 -0.1694  0.3750
   14DOPE  H11X 1783   5.677   4.421   8.340 -0.8329  1.3303 -0.9366
   14DOPE  H11Y 1784   5.792   4.527   8.255  0.2602 -0.7437 -0.3807
   14DOPE  C312 1785   5.827   4.322   8.224  0.0827  0.0261 -0.4962
   14DOPE  H12X 1786   5.755   4.310   8.141  0.5768 -1.9941 -0.6786
   14DOPE  H12Y 1787   5.820   4.231   8.287  0.9184  0.2944  0.0122
   14DOPE  C313 1788   5.971   4.326   8.169  0.0550 -0.6714 -0.0673
   14DOPE  H13X 1789   5.984   4.432   8.139 -1.2831  0.6242  3.4104
   14DOPE  H13Y 1790   6.044   4.306   8.250  0.5217 -0.9647 -0.5533
   14DOPE  C314 1791   5.974   4.238   8.052 -0.3088  0.1764 -0.5451
   14DOPE  H14X 1792   5.902   4.270   7.974  0.1941  0.7218 -0.7936
   14DOPE  H14Y 1793   5.936   4.141   8.089 -0.4779  0.3489 -0.2674
   14DOPE  C315 1794   6.110   4.223   7.990 -0.4362  0.0962  0.0450
   14DOPE  H15X 1795   6.191   4.188   8.058 -1.2621 -0.6066  0.6874
   14DOPE  H15Y 1796   6.143   4.322   7.951 -2.4320  0.5697 -0.5617
   14DOPE  C316 1797   6.117   4.128   7.867 -0.4087 -0.5012 -0.1549
   14DOPE  H16X 1798   6.043   4.180   7.802  0.7665  2.2115  0.5145
   14DOPE  H16Y 1799   6.073   4.028   7.885 -2.5479  0.1836 -1.2717
   14DOPE  C317 1800   6.252   4.101   7.798  0.1417  0.0667 -0.2232
   14DOPE  H17X 1801   6.312   4.192   7.777  2.0552 -1.7745 -3.7088
   14DOPE  H17Y 1802   6.326   4.041   7.855 -0.4113 -1.4533 -1.0305
   14DOPE  C318 1803   6.234   4.036   7.662  0.3880  0.8917  0.7387
   14DOPE  H18X 1804   6.329   4.014   7.609 -0.7254 -1.0420 -0.5656
   14DOPE  H18Y 1805   6.168   3.946   7.661  1.5376 -0.0179 -1.7538
   14DOPE  H18Z 1806   6.164   4.094   7.597  0.3941  0.9595  0.7923
   15DOPE     N 1807   1.078   2.359  10.028  0.3027  0.1554  0.2745
   15DOPE   HN1 1808   1.013   2.278  10.036 -0.4224  0.6897 -0.1010
   15DOPE   HN2 1809   1.132   2.351   9.940  1.1265  1.0817  0.6715
   15DOPE   HN3 1810   1.138   2.353  10.113 -0.8575 -1.0569  1.0587
   15DOPE   C12 1811   1.000   2.487  10.033  0.6447 -0.1929 -0.2711
   15DOPE  H12A 1812   1.077   2.560  10.066  0.7633  1.3789 -3.6532
   15DOPE  H12B 1813   0.927   2.466  10.115 -1.2681 -2.6830 -2.4270
   15DOPE   C11 1814   0.930   2.527   9.905 -0.3101  0.1672  0.0869
   15DOPE  H11A 1815   0.997   2.510   9.818  0.1715  1.4526  0.1817
   15DOPE  H11B 1816   0.913   2.634   9.928  0.2096 -0.3525  3.4292
   15DOPE     P 1817   0.784   2.309   9.844 -0.2208 -0.0677  0.0230
   15DOPE   O13 1818   0.643   2.262   9.868  0.2400  0.1181  0.2851
   15DOPE   O14 1819   0.893   2.233   9.902  0.2898  0.2853  0.5063
   15DOPE   O11 1820   0.810   2.319   9.690  0.2649 -0.7369 -0.1939
   15DOPE   O12 1821   0.802   2.461   9.893  0.3045  0.1427 -0.0784
   15DOPE    C1 1822   0.771   2.443   9.627  0.4062  0.7034  0.9655
   15DOPE    HA 1823   0.848   2.522   9.641 -0.2750  1.6316 -0.3751
   15DOPE    HB 1824   0.678   2.487   9.667  0.5597  2.3907 -0.4568
   15DOPE    C2 1825   0.756   2.414   9.468 -0.5142 -0.0103 -0.5887
   15DOPE    HS 1826   0.692   2.492   9.422 -1.4253  1.0416  2.3134
   15DOPE   O21 1827   0.705   2.278   9.451  0.0826  0.4062 -0.1996
   15DOPE   C21 1828   0.582   2.264   9.488  0.3256 -0.4392 -0.5459
   15DOPE   O22 1829   0.513   2.350   9.541  0.2012  0.3986  0.2731
   15DOPE   C22 1830   0.536   2.122   9.460  0.7502  0.1306  0.2081
   15DOPE   H2R 1831   0.463   2.086   9.536 -0.5014  1.6012 -0.2536
   15DOPE   H2S 1832   0.625   2.056   9.449 -0.3302 -1.6344  1.4425
   15DOPE    C3 1833   0.898   2.405   9.408  0.3984  1.0571 -0.4173
   15DOPE    HX 1834   0.952   2.325   9.462 -1.3523  0.0541 -0.0578
   15DOPE    HY 1835   0.948   2.500   9.435  2.1695  0.0048  0.1822
   15DOPE   O31 1836   0.897   2.373   9.272 -0.1660  0.2858  0.8232
   15DOPE   C31 1837   0.828   2.442   9.190  0.0898 -0.2940  0.0296
   15DOPE   O32 1838   0.768   2.546   9.209 -0.0386 -0.4277 -0.1035
   15DOPE   C32 1839   0.844   2.379   9.051  0.3878  1.0186  0.4163
   15DOPE   H2X 1840   0.919   2.296   9.048 -0.1492  0.4173  2.3014
   15DOPE   H2Y 1841   0.743   2.336   9.035  1.2215 -0.4811 -1.1814
   15DOPE   C23 1842   0.454   2.119   9.325  0.4757  0.2376  0.0015
   15DOPE   H3R 1843   0.382   2.203   9.318  0.0739 -0.1678 -0.8939
   15DOPE   H3S 1844   0.394   2.025   9.321  0.0225  0.5285 -0.1563
   15DOPE   C24 1845   0.539   2.119   9.201 -0.6952  0.3726 -0.5647
   15DOPE   H4R 1846   0.595   2.023   9.196  0.0072  0.6196  1.4721
   15DOPE   H4S 1847   0.609   2.205   9.208 -0.8661  0.3746  2.7670
   15DOPE   C25 1848   0.458   2.140   9.077 -0.5686 -0.1387  0.0763
   15DOPE   H5R 1849   0.427   2.245   9.056 -1.2015 -0.4600 -0.6150
   15DOPE   H5S 1850   0.364   2.083   9.089 -1.7090  1.6055 -0.1572
   15DOPE   C26 1851   0.542   2.101   8.953  0.0644  0.3185  0.2795
   15DOPE   H6R 1852   0.577   1.998   8.978  0.7407  0.4816  0.0247
   15DOPE   H6S 1853   0.637   2.160   8.951  2.4912 -3.2655  0.4634
   15DOPE   C27 1854   0.465   2.105   8.822  0.5845  0.1822 -0.3511
   15DOPE   H7R 1855   0.422   2.208   8.828  0.5862  0.1195  1.1482
   15DOPE   H7S 1856   0.383   2.030   8.821 -0.5814  1.3662  1.0445
   15DOPE   C28 1857   0.554   2.097   8.701 -0.4749  0.2168 -0.0489
   15DOPE   H8R 1858   0.606   1.999   8.707 -0.1012  0.2449 -2.0475
   15DOPE   H8S 1859   0.634   2.174   8.707  0.2526 -0.5091 -0.2698
   15DOPE   C29 1860   0.469   2.105   8.575  0.2862 -0.4936 -0.1527
   15DOPE   H9R 1861   0.362   2.123   8.591  0.3467 -1.3132  1.2586
   15DOPE  C210 1862   0.521   2.107   8.455 -0.4158  0.0940  0.2742
   15DOPE  H10R 1863   0.452   2.129   8.372 -1.0670  0.2803  0.8603
   15DOPE  C211 1864   0.662   2.101   8.416  0.2812 -0.6717 -1.0122
   15DOPE  H11R 1865   0.725   2.056   8.496  0.2334  1.1863  0.1208
   15DOPE  H11S 1866   0.696   2.200   8.379 -1.5741 -0.5055 -2.4220
   15DOPE  C212 1867   0.671   2.008   8.289 -0.4949  0.4187  0.3592
   15DOPE  H12R 1868   0.770   2.028   8.243 -0.1361  0.8294  1.2772
   15DOPE  H12S 1869   0.595   2.022   8.209 -1.9144 -0.0001  1.5865
   15DOPE  C213 1870   0.658   1.859   8.323  0.0819  0.5480 -0.3913
   15DOPE  H13R 1871   0.566   1.842   8.383  2.0413 -0.7287  2.5143
   15DOPE  H13S 1872   0.740   1.838   8.396 -0.7088  1.7999  0.9054
   15DOPE  C214 1873   0.672   1.763   8.201 -0.0870  0.1660 -0.9586
   15DOPE  H14R 1874   0.579   1.778   8.142 -0.1684 -0.7031 -1.0636
   15DOPE  H14S 1875   0.672   1.661   8.244 -0.7556  0.4958 -0.1573
   15DOPE  C215 1876   0.798   1.792   8.118 -0.3843  0.1228 -0.1802
   15DOPE  H15R 1877   0.885   1.775   8.186 -0.1518  0.0890 -0.4862
   15DOPE  H15S 1878   0.810   1.899   8.092  0.2175  0.0995 -0.0126
   15DOPE  C216 1879   0.815   1.716   7.986 -0.1633  0.1050  0.3617
   15DOPE  H16R 1880   0.802   1.607   8.002  1.2411 -0.5969 -2.5230
   15DOPE  H16S 1881   0.917   1.729   7.943 -0.2934  0.2988  0.1097
   15DOPE  C217 1882   0.712   1.740   7.880 -0.1245 -0.2494 -0.3521
   15DOPE  H17R 1883   0.703   1.846   7.849 -3.3472 -0.5352 -0.7250
   15DOPE  H17S 1884   0.607   1.712   7.903 -0.6066  1.7630  0.0925
   15DOPE  C218 1885   0.754   1.658   7.760  0.4322 -0.0150  0.0274
   15DOPE  H18R 1886   0.841   1.697   7.702  0.0923 -0.5326 -0.8459
   15DOPE  H18S 1887   0.676   1.665   7.681  2.8588  2.0383 -2.4184
   15DOPE  H18T 1888   0.771   1.552   7.790  2.9649  0.3925  0.2844
   15DOPE   C33 1889   0.861   2.468   8.930 -0.1456  0.8388 -0.4174
   15DOPE   H3X 1890   0.960   2.511   8.954 -0.0839 -0.8715  3.0871
   15DOPE   H3Y 1891   0.790   2.553   8.926  0.7941  1.7498  1.2375
   15DOPE   C34 1892   0.855   2.401   8.793  0.4908  0.0093 -0.1912
   15DOPE   H4X 1893   0.752   2.363   8.775  0.8314 -2.3753  2.1401
   15DOPE   H4Y 1894   0.860   2.487   8.723 -1.2055  0.9666  0.8300
   15DOPE   C35 1895   0.964   2.299   8.765 -0.2303  0.2831 -0.0867
   15DOPE   H5X 1896   0.954   2.209   8.829 -0.4316 -1.3967 -2.3571
   15DOPE   H5Y 1897   1.058   2.349   8.799 -0.4387  0.4736  0.2244
   15DOPE   C36 1898   0.984   2.243   8.627  0.2949  0.5039  0.1372
   15DOPE   H6X 1899   0.914   2.165   8.590  0.8261  0.3592 -0.5983
   15DOPE   H6Y 1900   1.081   2.189   8.619 -1.4121 -2.6080 -0.8275
   15DOPE   C37 1901   0.992   2.342   8.508  0.2087 -0.4285  0.6758
   15DOPE   H7X 1902   0.890   2.385   8.498  1.5745  2.5612 -1.7912
   15DOPE   H7Y 1903   1.070   2.420   8.523 -0.2603  0.4343 -1.1138
   15DOPE   C38 1904   1.033   2.270   8.380  0.2341 -0.0419  0.5039
   15DOPE   H8X 1905   0.963   2.186   8.360 -1.7410  0.1228  5.4845
   15DOPE   H8Y 1906   1.131   2.228   8.412  0.4453 -0.2654 -0.4041
   15DOPE   C39 1907   1.054   2.373   8.265  0.1326 -0.2540 -0.2852
   15DOPE   H9X 1908   1.114   2.462   8.288  1.9191 -0.9234 -2.0772
   15DOPE  C310 1909   0.982   2.375   8.154  0.1775 -0.2020  0.7557
   15DOPE  H10X 1910   1.007   2.447   8.075 -0.3772 -0.1516  0.6217
   15DOPE  C311 1911   0.877   2.273   8.120  0.8193  0.2833  0.1551
   15DOPE  H11X 1912   0.921   2.172   8.135  1.4929  0.3604 -1.1460
   15DOPE  H11Y 1913   0.785   2.280   8.181  0.1070  2.0358 -1.0183
   15DOPE  C312 1914   0.843   2.283   7.967 -0.3120  0.1025 -0.5156
   15DOPE  H12X 1915   0.921   2.233   7.906  0.0156 -0.5688  0.4268
   15DOPE  H12Y 1916   0.830   2.389   7.936  0.9601  0.6490  0.6999
   15DOPE  C313 1917   0.717   2.206   7.935 -0.1535 -0.0790  0.0064
   15DOPE  H13X 1918   0.732   2.109   7.985 -0.0877 -0.1961 -0.2402
   15DOPE  H13Y 1919   0.626   2.246   7.984  0.5123  0.3388  0.9286
   15DOPE  C314 1920   0.688   2.191   7.780  0.6419  0.2647  0.4415
   15DOPE  H14X 1921   0.661   2.293   7.744  0.1932  0.4367  1.2480
   15DOPE  H14Y 1922   0.601   2.122   7.772 -1.4742  2.8931 -1.2050
   15DOPE  C315 1923   0.791   2.114   7.694 -0.1587 -0.8985  0.0217
   15DOPE  H15X 1924   0.815   2.024   7.754  0.1138 -0.0362  1.2593
   15DOPE  H15Y 1925   0.884   2.173   7.679 -0.3828 -0.3071  0.8662
   15DOPE  C316 1926   0.744   2.093   7.555  0.1139  0.4857  0.9400
   15DOPE  H16X 1927   0.661   2.020   7.552  0.3219  0.0524  3.4476
   15DOPE  H16Y 1928   0.827   2.045   7.498  0.7356  1.7168  0.7637
   15DOPE  C317 1929   0.700   2.208   7.477 -0.0106  0.3691 -0.0442
   15DOPE  H17X 1930   0.608   2.247   7.525  1.1270  3.0085  0.1358
   15DOPE  H17Y 1931   0.775   2.289   7.484  1.5783 -1.1422  1.5677
   15DOPE  C318 1932   0.663   2.156   7.328  0.1453 -0.0198  0.4752
   15DOPE  H18X 1933   0.596   2.068   7.333  2.4779 -1.9147  0.0261
   15DOPE  H18Y 1934   0.617   2.235   7.265  1.8812  0.7162  0.0550
   15DOPE  H18Z 1935   0.761   2.131   7.280 -0.2633 -0.2374 -0.2574
   16DOPE     N 1936   0.437   3.333   9.960  0.4060  0.2808  0.3629
   16DOPE   HN1 1937   0.446   3.307  10.060  1.5728 -1.7690 -0.2148
   16DOPE   HN2 1938   0.465   3.433   9.963  2.9861 -0.2992 -1.1183
   16DOPE   HN3 1939   0.338   3.312   9.936  0.3310 -0.4816  1.3115
   16DOPE   C12 1940   0.530   3.253   9.865 -0.3150 -0.2887 -0.4397
   16DOPE  H12A 1941   0.481   3.154   9.857 -3.1261  0.7523  2.0637
   16DOPE  H12B 1942   0.631   3.251   9.912 -0.4746 -1.6179 -0.1303
   16DOPE   C11 1943   0.533   3.333   9.734 -0.3610  0.4774  0.2420
   16DOPE  H11A 1944   0.429   3.334   9.695  0.2642  0.3158 -1.5605
   16DOPE  H11B 1945   0.610   3.278   9.676 -0.6708  0.0928  0.1950
   16DOPE     P 1946   0.640   3.554   9.635 -0.3827 -0.2563 -0.1427
   16DOPE   O13 1947   0.784   3.519   9.634  0.1415  0.1252 -0.7220
   16DOPE   O14 1948   0.610   3.699   9.645  0.1046  0.5922 -0.6545
   16DOPE   O11 1949   0.578   3.488   9.501 -0.7390 -0.6660  0.1653
   16DOPE   O12 1950   0.572   3.467   9.755  0.4468 -0.7339  0.8355
   16DOPE    C1 1951   0.445   3.506   9.468 -0.5543  1.1127 -1.0767
   16DOPE    HA 1952   0.381   3.546   9.551 -0.9720  2.7463 -2.1340
   16DOPE    HB 1953   0.403   3.409   9.434 -0.0310  1.2340 -2.1065
   16DOPE    C2 1954   0.419   3.599   9.344 -0.5822 -0.4774  0.0545
   16DOPE    HS 1955   0.310   3.623   9.344 -0.6499 -0.7031  1.3922
   16DOPE   O21 1956   0.449   3.534   9.217  1.0615  0.8019 -0.0003
   16DOPE   C21 1957   0.371   3.429   9.176  0.1560 -0.4681  0.4174
   16DOPE   O22 1958   0.279   3.376   9.237 -1.2113 -0.5322 -0.5839
   16DOPE   C22 1959   0.403   3.407   9.022 -0.2902  0.3987 -0.3775
   16DOPE   H2R 1960   0.514   3.410   9.026 -0.2939 -0.0955  0.4643
   16DOPE   H2S 1961   0.370   3.500   8.971 -0.3736 -0.9543 -2.9474
   16DOPE    C3 1962   0.491   3.737   9.350  0.8239  0.2890  0.3832
   16DOPE    HX 1963   0.602   3.741   9.345  0.9374  0.0557  2.1915
   16DOPE    HY 1964   0.452   3.779   9.445 -0.1570  0.9009 -0.2689
   16DOPE   O31 1965   0.444   3.808   9.237  0.1922 -0.1532  0.0577
   16DOPE   C31 1966   0.461   3.937   9.219 -0.0917 -0.0595  0.3531
   16DOPE   O32 1967   0.500   4.017   9.305  0.1419 -0.1018  0.7711
   16DOPE   C32 1968   0.439   3.973   9.069 -0.0237  0.3278 -0.7935
   16DOPE   H2X 1969   0.415   4.082   9.071 -0.3275  0.2561 -0.1955
   16DOPE   H2Y 1970   0.538   3.953   9.024 -0.1317  0.7453 -1.2254
   16DOPE   C23 1971   0.336   3.284   8.964 -0.0026  0.6713  0.2851
   16DOPE   H3R 1972   0.227   3.296   8.946  0.1852  2.0731 -0.0356
   16DOPE   H3S 1973   0.346   3.210   9.047 -0.1597  2.4927  2.0144
   16DOPE   C24 1974   0.398   3.230   8.829  0.0079 -0.4864 -0.3515
   16DOPE   H4R 1975   0.505   3.203   8.839  0.5670  0.3019 -3.3390
   16DOPE   H4S 1976   0.389   3.320   8.764 -0.0870  0.9713  1.5710
   16DOPE   C25 1977   0.318   3.111   8.776  0.2647 -0.1121 -0.0468
   16DOPE   H5R 1978   0.213   3.146   8.792  0.3618  0.8799 -1.4577
   16DOPE   H5S 1979   0.325   3.014   8.830 -2.1453  0.4179  1.4090
   16DOPE   C26 1980   0.348   3.085   8.626 -0.1060 -0.6677 -0.2936
   16DOPE   H6R 1981   0.332   3.181   8.571 -2.0334  0.0607  1.4293
   16DOPE   H6S 1982   0.277   3.010   8.585 -2.1169  0.3632  1.1695
   16DOPE   C27 1983   0.483   3.024   8.597 -0.0487  0.1268 -0.3554
   16DOPE   H7R 1984   0.494   2.941   8.671  1.5629 -0.9189 -1.7132
   16DOPE   H7S 1985   0.560   3.104   8.606 -0.8090  0.7636  0.9128
   16DOPE   C28 1986   0.495   2.942   8.468  0.1158  0.3433  0.4290
   16DOPE   H8R 1987   0.400   2.885   8.460 -0.0505  0.7662 -0.7026
   16DOPE   H8S 1988   0.575   2.867   8.486 -1.9984 -1.6463  2.4683
   16DOPE   C29 1989   0.530   3.017   8.346 -0.0229  0.1522  0.0806
   16DOPE   H9R 1990   0.617   3.084   8.355  2.2422 -2.4432 -0.9402
   16DOPE  C210 1991   0.471   3.026   8.232 -0.0598  0.6891 -0.5496
   16DOPE  H10R 1992   0.513   3.097   8.160 -0.9197  0.6326 -1.1231
   16DOPE  C211 1993   0.340   2.976   8.181 -0.5219  0.5998  0.2325
   16DOPE  H11R 1994   0.262   3.055   8.187 -0.6636  0.3375  2.9763
   16DOPE  H11S 1995   0.309   2.882   8.231  0.0475  0.1871 -0.1865
   16DOPE  C212 1996   0.359   2.944   8.028  0.7873 -0.6911 -0.9950
   16DOPE  H12R 1997   0.264   2.898   7.994  0.6388 -2.0304  1.0420
   16DOPE  H12S 1998   0.431   2.865   7.999  0.2946 -0.5186 -2.7894
   16DOPE  C213 1999   0.404   3.055   7.929 -0.3338  0.2586  0.1842
   16DOPE  H13R 2000   0.512   3.079   7.940 -0.6047  1.6804 -0.0615
   16DOPE  H13S 2001   0.367   3.157   7.955  1.7656  1.3510 -0.8410
   16DOPE  C214 2002   0.370   3.028   7.782 -0.3815 -0.3062  0.1318
   16DOPE  H14R 2003   0.259   3.020   7.783 -0.6645  2.4585 -0.2288
   16DOPE  H14S 2004   0.421   2.932   7.762  0.7231  0.4088 -0.6200
   16DOPE  C215 2005   0.425   3.144   7.699 -0.3113  0.3840 -0.9286
   16DOPE  H15R 2006   0.535   3.144   7.715  0.3945 -2.2392 -4.5889
   16DOPE  H15S 2007   0.391   3.249   7.712  0.4189  0.5795 -0.5002
   16DOPE  C216 2008   0.405   3.110   7.550 -0.6273  0.6063 -0.1965
   16DOPE  H16R 2009   0.301   3.075   7.532 -0.0486 -0.4476 -1.6525
   16DOPE  H16S 2010   0.456   3.013   7.532 -1.6592 -0.2039  1.0109
   16DOPE  C217 2011   0.449   3.228   7.469  0.4793  0.1216  0.8268
   16DOPE  H17R 2012   0.558   3.229   7.450  0.1455  2.1174 -1.4976
   16DOPE  H17S 2013   0.423   3.322   7.523 -2.9300  0.0322 -0.3718
   16DOPE  C218 2014   0.383   3.227   7.330 -0.5350 -0.3807  0.5812
   16DOPE  H18R 2015   0.399   3.128   7.281  0.1046  0.3109 -0.6764
   16DOPE  H18S 2016   0.432   3.300   7.262 -1.8914  1.2676  1.2977
   16DOPE  H18T 2017   0.277   3.261   7.327 -0.1700  0.7551 -0.6597
   16DOPE   C33 2018   0.323   3.905   8.991 -0.6711 -0.1975 -0.0725
   16DOPE   H3X 2019   0.228   3.938   9.037 -1.1328  0.6710 -1.5565
   16DOPE   H3Y 2020   0.327   3.795   9.001  1.0722 -0.1474  0.1777
   16DOPE   C34 2021   0.313   3.951   8.837  0.5392  0.0184  0.3442
   16DOPE   H4X 2022   0.270   4.053   8.827 -1.3961 -0.7110  0.8872
   16DOPE   H4Y 2023   0.417   3.968   8.801  0.4014  1.7865  0.7155
   16DOPE   C35 2024   0.233   3.856   8.750  0.0268  0.6285 -0.5308
   16DOPE   H5X 2025   0.124   3.854   8.772 -0.4358 -1.4722 -2.6435
   16DOPE   H5Y 2026   0.258   3.751   8.775  1.4743  0.6164 -1.8803
   16DOPE   C36 2027   0.256   3.881   8.602  0.3809  0.8254 -0.1101
   16DOPE   H6X 2028   0.365   3.886   8.581  0.5678 -1.1928  0.1656
   16DOPE   H6Y 2029   0.201   3.977   8.593 -1.2747  0.1567  2.1699
   16DOPE   C37 2030   0.210   3.778   8.502  0.1506  0.0768 -0.2750
   16DOPE   H7X 2031   0.260   3.805   8.407  0.2439  1.5965  0.1788
   16DOPE   H7Y 2032   0.250   3.677   8.528  0.3215  0.1868 -0.1070
   16DOPE   C38 2033   0.055   3.765   8.483  0.3813 -0.1991  1.0801
   16DOPE   H8X 2034   0.006   3.747   8.581 -0.7182 -0.3887  0.5115
   16DOPE   H8Y 2035   0.028   3.679   8.417 -2.2853  2.2210 -1.2462
   16DOPE   C39 2036  -0.000   3.885   8.411  0.3018 -0.0120 -0.6233
   16DOPE   H9X 2037   0.072   3.950   8.359 -1.0216  2.4300  0.3766
   16DOPE  C310 2038  -0.118   3.942   8.447 -0.6614  0.5112 -0.0278
   16DOPE  H10X 2039  -0.138   4.026   8.379  2.5629 -0.6027 -2.6255
   16DOPE  C311 2040  -0.228   3.888   8.540 -0.1335  0.0064 -0.2394
   16DOPE  H11X 2041  -0.323   3.886   8.483 -0.1017  0.6465 -0.3144
   16DOPE  H11Y 2042  -0.197   3.785   8.568  1.9906  1.1956  2.1516
   16DOPE  C312 2043  -0.256   3.983   8.658 -0.3639  0.3170 -0.2669
   16DOPE  H12X 2044  -0.347   3.948   8.711  1.0702 -0.9571  1.5012
   16DOPE  H12Y 2045  -0.265   4.089   8.628  0.7645  0.8733  1.2282
   16DOPE  C313 2046  -0.162   3.965   8.769 -0.1436 -0.3971  0.2344
   16DOPE  H13X 2047  -0.146   3.862   8.807 -0.3214  0.3914  2.6584
   16DOPE  H13Y 2048  -0.065   3.992   8.724 -0.0822 -0.6486  0.2159
   16DOPE  C314 2049  -0.205   4.059   8.893 -0.6410 -0.4392 -0.3015
   16DOPE  H14X 2050  -0.310   4.032   8.918 -0.4519  0.5029  1.7088
   16DOPE  H14Y 2051  -0.196   4.165   8.861  1.7534 -1.0634 -1.9710
   16DOPE  C315 2052  -0.116   4.032   9.012 -1.0863  0.3313 -0.7435
   16DOPE  H15X 2053  -0.013   4.045   8.973 -1.2085  0.6257 -0.9673
   16DOPE  H15Y 2054  -0.132   3.928   9.049 -0.4448  0.7024  0.6405
   16DOPE  C316 2055  -0.137   4.140   9.115 -0.3843 -0.1071 -0.1283
   16DOPE  H16X 2056  -0.247   4.143   9.128 -0.3123 -0.3606  0.5859
   16DOPE  H16Y 2057  -0.098   4.234   9.070 -1.5712  0.4153 -0.1040
   16DOPE  C317 2058  -0.060   4.113   9.245  0.1994 -0.0476  0.1603
   16DOPE  H17X 2059  -0.101   4.020   9.291  0.9625 -0.4719  0.0019
   16DOPE  H17Y 2060   0.045   4.087   9.220  0.5052  1.2950 -0.0178
   16DOPE  C318 2061  -0.059   4.231   9.351 -0.6159  0.1601  0.4412
   16DOPE  H18X 2062   0.014   4.308   9.319  2.4942 -2.4636  0.6948
   16DOPE  H18Y 2063  -0.160   4.274   9.364 -0.7000  0.4578 -1.0039
   16DOPE  H18Z 2064  -0.031   4.186   9.449 -0.9391  0.2333  0.5658
   17DOPE     N 2065   2.642   5.857   9.016  0.1500  0.2192 -0.4790
   17DOPE   HN1 2066   2.669   5.909   9.103 -0.8611 -1.3366  0.8250
   17DOPE   HN2 2067   2.655   5.911   8.928 -1.7959  0.3127 -0.7430
   17DOPE   HN3 2068   2.540   5.839   9.017  0.3201 -0.8245 -1.0957
   17DOPE   C12 2069   2.724   5.731   9.007 -0.1035  0.3381 -0.3486
   17DOPE  H12A 2070   2.829   5.768   9.014 -0.6905  1.7802  1.8592
   17DOPE  H12B 2071   2.714   5.687   8.905  0.5892  1.0133 -0.7235
   17DOPE   C11 2072   2.699   5.644   9.123  0.1572  0.3831 -0.4307
   17DOPE  H11A 2073   2.731   5.540   9.101 -0.1158  0.6879 -2.3917
   17DOPE  H11B 2074   2.593   5.636   9.155 -0.1368 -1.7793 -1.7159
   17DOPE     P 2075   2.718   5.794   9.345 -0.1354 -0.2064 -0.6441
   17DOPE   O13 2076   2.829   5.807   9.439  0.2074 -0.1423 -0.7596
   17DOPE   O14 2077   2.587   5.737   9.393  0.1070  0.0236 -0.1482
   17DOPE   O11 2078   2.696   5.930   9.271  0.0283 -0.3279 -0.1140
   17DOPE   O12 2079   2.770   5.693   9.233  0.6935  0.4370  0.0971
   17DOPE    C1 2080   2.606   6.029   9.315 -0.7274  0.1537 -0.2406
   17DOPE    HA 2081   2.628   6.063   9.419  1.4744  2.0297 -1.2203
   17DOPE    HB 2082   2.506   5.981   9.320  0.0131 -1.9891 -3.2195
   17DOPE    C2 2083   2.589   6.148   9.213 -1.0761 -0.0637  0.4203
   17DOPE    HS 2084   2.539   6.232   9.265 -0.2763  0.9826 -0.4438
   17DOPE   O21 2085   2.540   6.112   9.089  0.1300  0.5200  0.1757
   17DOPE   C21 2086   2.412   6.135   9.083  0.8566  0.3466 -0.2338
   17DOPE   O22 2087   2.347   6.173   9.183  0.2425 -0.9604  0.3909
   17DOPE   C22 2088   2.362   6.112   8.940 -0.0747  0.2975  0.3030
   17DOPE   H2R 2089   2.396   6.015   8.899 -0.6189  0.3409 -0.2717
   17DOPE   H2S 2090   2.406   6.195   8.881 -0.4605  0.7193  0.5904
   17DOPE    C3 2091   2.730   6.212   9.197 -0.4156 -0.6894  0.3584
   17DOPE    HX 2092   2.800   6.144   9.145  1.7785  1.9587 -0.4209
   17DOPE    HY 2093   2.773   6.209   9.300  1.8550  0.7849 -0.4618
   17DOPE   O31 2094   2.723   6.348   9.145  0.7126 -0.0663  0.2007
   17DOPE   C31 2095   2.697   6.363   9.014 -0.3751  0.7011  0.1472
   17DOPE   O32 2096   2.689   6.263   8.939  0.3285 -0.4092  0.0788
   17DOPE   C32 2097   2.689   6.503   8.966 -0.7854  0.3447  0.2077
   17DOPE   H2X 2098   2.692   6.572   9.053  3.2953 -2.1112  2.3568
   17DOPE   H2Y 2099   2.780   6.512   8.904 -0.8214  2.1809  0.3806
   17DOPE   C23 2100   2.206   6.110   8.949  0.1175  0.1153  0.0063
   17DOPE   H3R 2101   2.157   6.195   9.001  1.0768  0.0942  0.9816
   17DOPE   H3S 2102   2.168   6.020   9.001  0.2893  0.9301  1.6075
   17DOPE   C24 2103   2.141   6.102   8.805  0.4419  0.7327  0.4479
   17DOPE   H4R 2104   2.031   6.097   8.813  0.3887 -0.4938 -0.6624
   17DOPE   H4S 2105   2.179   6.007   8.761  0.9036  0.3091  1.7246
   17DOPE   C25 2106   2.181   6.224   8.717  0.0288 -0.1141  0.1650
   17DOPE   H5R 2107   2.149   6.187   8.617  2.2344  3.9568 -2.3269
   17DOPE   H5S 2108   2.292   6.232   8.710 -0.0602  0.2930 -0.9630
   17DOPE   C26 2109   2.113   6.356   8.748  0.0128  0.7824 -0.1887
   17DOPE   H6R 2110   2.150   6.403   8.841 -0.1875  3.3252 -1.3334
   17DOPE   H6S 2111   2.007   6.326   8.760  0.3318 -0.1444  0.4604
   17DOPE   C27 2112   2.127   6.450   8.630  1.1506 -0.6948  0.9801
   17DOPE   H7R 2113   2.201   6.409   8.558  0.2289 -2.1722  0.8422
   17DOPE   H7S 2114   2.160   6.551   8.663 -0.3974  0.1891 -0.0416
   17DOPE   C28 2115   1.995   6.461   8.541  0.1410  0.7595 -0.2743
   17DOPE   H8R 2116   1.915   6.501   8.607  0.3656  0.6768  0.0536
   17DOPE   H8S 2117   1.967   6.357   8.514 -1.8660  0.8144  1.3068
   17DOPE   C29 2118   2.026   6.550   8.423  0.6372 -0.0108  0.2011
   17DOPE   H9R 2119   2.012   6.656   8.447 -3.2075 -0.9316  2.8827
   17DOPE  C210 2120   2.065   6.520   8.301 -0.6607 -1.0634 -0.0073
   17DOPE  H10R 2121   2.070   6.603   8.230  0.3078  0.5233  1.8373
   17DOPE  C211 2122   2.093   6.384   8.245 -0.1595  0.0756 -0.1225
   17DOPE  H11R 2123   2.099   6.300   8.318 -1.1741  2.4235  2.9064
   17DOPE  H11S 2124   2.197   6.396   8.207  0.2848 -0.9894  0.6757
   17DOPE  C212 2125   2.018   6.351   8.115  0.5472  0.1842 -0.3188
   17DOPE  H12R 2126   1.912   6.380   8.129  0.3747 -1.3657  2.2939
   17DOPE  H12S 2127   2.011   6.242   8.093 -1.0148 -0.2985  2.1674
   17DOPE  C213 2128   2.080   6.412   7.989  0.1757  0.9963  0.1244
   17DOPE  H13R 2129   2.159   6.341   7.956 -0.6178  0.7850 -1.4316
   17DOPE  H13S 2130   2.142   6.501   8.015  0.9255  0.5973 -0.2623
   17DOPE  C214 2131   1.984   6.463   7.887 -0.1081  0.0639  0.2516
   17DOPE  H14R 2132   1.894   6.495   7.943  0.9590  1.8053  1.0570
   17DOPE  H14S 2133   1.954   6.375   7.825 -0.6757 -0.1486  0.8138
   17DOPE  C215 2134   2.028   6.580   7.794 -0.8302  0.1226  0.2256
   17DOPE  H15R 2135   2.120   6.559   7.736 -1.2719 -1.1223 -0.0621
   17DOPE  H15S 2136   2.044   6.668   7.860 -2.3294  0.2518  0.4560
   17DOPE  C216 2137   1.922   6.607   7.679  0.0555  0.9927 -0.2173
   17DOPE  H16R 2138   1.826   6.643   7.723  0.2381 -0.8742  1.8790
   17DOPE  H16S 2139   1.892   6.511   7.630 -1.5176  0.7984  1.0522
   17DOPE  C217 2140   1.978   6.704   7.572 -0.0485  0.0676 -0.5486
   17DOPE  H17R 2141   1.931   6.676   7.475 -1.4401  0.0925  0.1003
   17DOPE  H17S 2142   2.086   6.686   7.555  0.0675  1.0506 -0.9304
   17DOPE  C218 2143   1.948   6.857   7.596  0.2000 -0.2073 -0.4443
   17DOPE  H18R 2144   1.852   6.862   7.651 -1.4263 -3.0772 -2.7320
   17DOPE  H18S 2145   1.922   6.913   7.504  0.1283  1.5885  0.6165
   17DOPE  H18T 2146   2.027   6.915   7.648 -0.7703 -0.5357  1.4911
   17DOPE   C33 2147   2.572   6.537   8.872 -0.3914  0.1525 -0.3960
   17DOPE   H3X 2148   2.529   6.635   8.900 -1.3409 -0.0465 -1.0939
   17DOPE   H3Y 2149   2.487   6.466   8.885  0.1065 -0.3761  0.0387
   17DOPE   C34 2150   2.613   6.547   8.722 -0.1298  0.1961  0.1397
   17DOPE   H4X 2151   2.527   6.568   8.655 -0.3603  0.6959  0.5873
   17DOPE   H4Y 2152   2.680   6.634   8.707  1.0365 -0.6866  0.0333
   17DOPE   C35 2153   2.674   6.420   8.661 -0.1322 -0.0095 -0.1331
   17DOPE   H5X 2154   2.602   6.336   8.671  1.6274 -1.5667  0.1484
   17DOPE   H5Y 2155   2.755   6.390   8.731 -2.0655 -0.0484  2.2131
   17DOPE   C36 2156   2.712   6.455   8.516 -0.1047 -0.5203  0.6873
   17DOPE   H6X 2157   2.733   6.564   8.515 -0.5517 -0.4326  0.4332
   17DOPE   H6Y 2158   2.627   6.433   8.447  1.5661 -0.1602 -1.5908
   17DOPE   C37 2159   2.830   6.375   8.465 -0.5739 -0.5897 -0.1723
   17DOPE   H7X 2160   2.919   6.405   8.525 -0.1611 -2.1314  0.0422
   17DOPE   H7Y 2161   2.817   6.265   8.471 -0.7612 -0.5393  4.6020
   17DOPE   C38 2162   2.845   6.408   8.319  0.4808 -0.8793  0.2306
   17DOPE   H8X 2163   2.823   6.517   8.313 -0.9888 -1.2394 -1.7539
   17DOPE   H8Y 2164   2.762   6.361   8.262 -0.7097  1.1679  0.1881
   17DOPE   C39 2165   2.980   6.373   8.266 -0.1776  0.1875 -0.7920
   17DOPE   H9X 2166   3.058   6.445   8.296 -0.4064 -0.3549  1.2945
   17DOPE  C310 2167   3.000   6.274   8.178 -0.4511  0.4478  0.2280
   17DOPE  H10X 2168   3.094   6.273   8.121 -0.2524  0.9610  0.5387
   17DOPE  C311 2169   2.892   6.189   8.111 -0.1275 -0.6941  0.0071
   17DOPE  H11X 2170   2.912   6.080   8.121 -3.2333 -1.2964  0.4768
   17DOPE  H11Y 2171   2.791   6.206   8.154  0.4861  0.4091  1.0856
   17DOPE  C312 2172   2.881   6.230   7.960  0.4505 -0.8117  1.1806
   17DOPE  H12X 2173   2.869   6.339   7.943  1.4660 -1.0338 -1.3732
   17DOPE  H12Y 2174   2.795   6.168   7.927  0.6172  0.1715 -1.2628
   17DOPE  C313 2175   2.992   6.186   7.867  0.3397 -0.2584 -0.4553
   17DOPE  H13X 2176   2.959   6.215   7.765 -0.4529 -0.5847 -0.2985
   17DOPE  H13Y 2177   3.082   6.245   7.893 -0.3770  1.3233 -1.3988
   17DOPE  C314 2178   3.020   6.037   7.881 -0.4708 -0.4394  0.1424
   17DOPE  H14X 2179   2.927   5.975   7.875 -0.1467 -0.8575 -0.6934
   17DOPE  H14Y 2180   3.085   6.016   7.968  1.6488  0.9056 -1.0219
   17DOPE  C315 2181   3.105   6.002   7.751  0.4062  1.0453 -0.3114
   17DOPE  H15X 2182   3.192   6.071   7.750  1.4922 -0.2794 -0.4637
   17DOPE  H15Y 2183   3.044   6.003   7.658  0.0108  0.2612 -0.0707
   17DOPE  C316 2184   3.158   5.853   7.765 -0.4902  0.6009 -0.7658
   17DOPE  H16X 2185   3.073   5.784   7.778  0.8719 -1.1912 -1.0601
   17DOPE  H16Y 2186   3.223   5.847   7.855 -1.5105  0.7424 -0.0033
   17DOPE  C317 2187   3.219   5.797   7.638 -0.3471 -0.4338  0.0180
   17DOPE  H17X 2188   3.251   5.691   7.649 -1.7295 -0.8396  0.3097
   17DOPE  H17Y 2189   3.130   5.787   7.572 -1.1043 -1.7457  1.1713
   17DOPE  C318 2190   3.330   5.885   7.567 -0.1065  0.7510  0.2964
   17DOPE  H18X 2191   3.289   5.987   7.552  0.5968  1.0914  0.6548
   17DOPE  H18Y 2192   3.428   5.883   7.618  0.3522  4.1660 -0.2238
   17DOPE  H18Z 2193   3.350   5.837   7.469  0.8451  1.3502  0.1889
   18DOPE     N 2194   6.588   3.393  10.283 -0.3598 -0.5820 -0.4260
   18DOPE   HN1 2195   6.519   3.412  10.208  0.4458  2.0822 -0.5751
   18DOPE   HN2 2196   6.545   3.386  10.377  2.4800 -0.8853  0.9444
   18DOPE   HN3 2197   6.648   3.477  10.284 -0.3366 -0.5713 -1.3937
   18DOPE   C12 2198   6.669   3.274  10.267 -0.6448  0.0266 -0.2129
   18DOPE  H12A 2199   6.597   3.190  10.257  1.5287 -2.3206  2.1296
   18DOPE  H12B 2200   6.741   3.250  10.349 -0.5867 -0.9873 -0.5424
   18DOPE   C11 2201   6.740   3.272  10.126  0.0524  0.2311 -0.0973
   18DOPE  H11A 2202   6.657   3.254  10.054 -0.2532 -2.2920  0.8002
   18DOPE  H11B 2203   6.803   3.181  10.118  0.9092  0.2569  4.0547
   18DOPE     P 2204   6.893   3.396   9.962  0.1342  0.0952  0.4180
   18DOPE   O13 2205   6.991   3.284   9.955 -0.3651  0.0714  0.0299
   18DOPE   O14 2206   6.946   3.537   9.973  0.5781 -0.6288 -0.0996
   18DOPE   O11 2207   6.792   3.380   9.845 -0.7217  0.0361  0.1352
   18DOPE   O12 2208   6.811   3.384  10.103  0.4782  0.3507 -0.1519
   18DOPE    C1 2209   6.773   3.262   9.767  0.7280  0.9977 -0.1601
   18DOPE    HA 2210   6.664   3.241   9.761  1.3852 -3.3262 -0.2748
   18DOPE    HB 2211   6.817   3.167   9.803 -2.3708 -1.0696 -1.4523
   18DOPE    C2 2212   6.818   3.271   9.620 -0.3571  0.1400 -0.2776
   18DOPE    HS 2213   6.928   3.284   9.615 -0.5021  2.6349  1.0594
   18DOPE   O21 2214   6.752   3.385   9.555 -0.2228  0.1396  0.1210
   18DOPE   C21 2215   6.822   3.494   9.548 -0.0831 -0.6577 -0.1929
   18DOPE   O22 2216   6.940   3.510   9.581 -0.7030 -0.1490 -0.2458
   18DOPE   C22 2217   6.741   3.615   9.493  0.5527  0.4870  0.6651
   18DOPE   H2R 2218   6.742   3.700   9.565  1.4797  2.0494 -1.0963
   18DOPE   H2S 2219   6.635   3.582   9.485  1.1092 -1.5743  1.2961
   18DOPE    C3 2220   6.777   3.145   9.542 -0.5300  0.3459  0.0805
   18DOPE    HX 2221   6.668   3.129   9.558 -0.7137  1.7915  0.4775
   18DOPE    HY 2222   6.822   3.052   9.582  1.1869  1.6705  1.4267
   18DOPE   O31 2223   6.796   3.158   9.403  0.3332  0.2979  0.0896
   18DOPE   C31 2224   6.922   3.136   9.356  0.2318  0.1624 -0.0122
   18DOPE   O32 2225   7.021   3.126   9.428  0.2910  0.2778  0.0986
   18DOPE   C32 2226   6.931   3.126   9.208  0.3674  0.1891 -0.0435
   18DOPE   H2X 2227   6.864   3.206   9.168  1.4674  0.3519 -1.6400
   18DOPE   H2Y 2228   7.035   3.142   9.172  0.2565  0.1532 -0.3820
   18DOPE   C23 2229   6.789   3.658   9.359 -0.3833 -0.1764  0.5715
   18DOPE   H3R 2230   6.892   3.697   9.379 -0.7645  0.5903  1.0925
   18DOPE   H3S 2231   6.720   3.738   9.324 -0.1799 -0.5923 -0.8267
   18DOPE   C24 2232   6.796   3.548   9.258 -0.5257 -0.5260 -0.2900
   18DOPE   H4R 2233   6.700   3.492   9.251 -1.3029  0.7241 -0.0005
   18DOPE   H4S 2234   6.876   3.477   9.288 -0.5576 -0.0767  0.9119
   18DOPE   C25 2235   6.837   3.612   9.123  0.1179 -0.0021 -0.4705
   18DOPE   H5R 2236   6.932   3.667   9.138 -1.0569  1.8666  0.5645
   18DOPE   H5S 2237   6.753   3.680   9.097 -0.2072 -0.3256 -0.2833
   18DOPE   C26 2238   6.844   3.509   9.008 -1.1282  0.4584 -0.2770
   18DOPE   H6R 2239   6.752   3.447   9.002 -0.3548 -0.8668  0.9858
   18DOPE   H6S 2240   6.932   3.449   9.040 -0.3253  1.0216 -1.3564
   18DOPE   C27 2241   6.857   3.588   8.871  0.4420  0.0484  0.5765
   18DOPE   H7R 2242   6.924   3.673   8.894 -0.3403  0.8612 -0.0681
   18DOPE   H7S 2243   6.758   3.633   8.847  0.8920  1.2115  0.8598
   18DOPE   C28 2244   6.909   3.502   8.757 -0.0615  0.1316 -0.3246
   18DOPE   H8R 2245   7.011   3.464   8.780 -0.3155 -0.2278  0.2177
   18DOPE   H8S 2246   6.921   3.566   8.667  0.2359  0.8610  0.2210
   18DOPE   C29 2247   6.823   3.377   8.741  0.5201  0.1515 -0.1045
   18DOPE   H9R 2248   6.811   3.316   8.831 -0.4664  1.5962  0.7888
   18DOPE  C210 2249   6.751   3.337   8.629  0.2564  0.4039  0.3047
   18DOPE  H10R 2250   6.682   3.252   8.638 -0.9344  1.4297  1.0982
   18DOPE  C211 2251   6.757   3.415   8.502 -0.1942  0.1175  0.1718
   18DOPE  H11R 2252   6.855   3.459   8.476  1.1777 -2.1013  1.2458
   18DOPE  H11S 2253   6.673   3.487   8.510 -0.8753 -0.8578  3.6377
   18DOPE  C212 2254   6.715   3.318   8.385  0.3322 -0.5555  0.5791
   18DOPE  H12R 2255   6.609   3.291   8.403  0.5351 -2.8475 -1.2244
   18DOPE  H12S 2256   6.769   3.221   8.391 -0.8200 -1.1523  2.0953
   18DOPE  C213 2257   6.728   3.378   8.239 -0.0831 -0.2317 -0.9353
   18DOPE  H13R 2258   6.810   3.453   8.244 -0.2342 -0.0826 -0.7336
   18DOPE  H13S 2259   6.637   3.438   8.218 -1.4750 -1.7540  0.4847
   18DOPE  C214 2260   6.750   3.274   8.135  0.1815  0.0313 -0.5816
   18DOPE  H14R 2261   6.670   3.198   8.148 -0.1436  0.6087  0.9248
   18DOPE  H14S 2262   6.852   3.233   8.152  0.6266  1.1558 -0.4427
   18DOPE  C215 2263   6.750   3.324   7.997  0.0212  0.1356  0.8677
   18DOPE  H15R 2264   6.830   3.401   7.990 -2.2756  2.6712  1.0291
   18DOPE  H15S 2265   6.655   3.379   7.979 -0.9647 -1.5642  0.6141
   18DOPE  C216 2266   6.766   3.213   7.889  0.0870  0.6216 -0.3704
   18DOPE  H16R 2267   6.675   3.149   7.881 -0.0179  0.3917  1.8293
   18DOPE  H16S 2268   6.853   3.145   7.902 -1.1804 -1.1845 -0.8209
   18DOPE  C217 2269   6.798   3.261   7.747 -0.1481 -0.1298 -0.3947
   18DOPE  H17R 2270   6.892   3.320   7.737 -1.4962  1.9484 -1.4914
   18DOPE  H17S 2271   6.724   3.333   7.705  2.7206  2.4625 -1.3814
   18DOPE  C218 2272   6.803   3.139   7.649 -0.3258 -0.1560 -0.8067
   18DOPE  H18R 2273   6.876   3.067   7.693 -0.2091 -0.5625 -1.6409
   18DOPE  H18S 2274   6.848   3.179   7.556  1.7051  1.9118  0.9671
   18DOPE  H18T 2275   6.707   3.090   7.621 -0.0515 -0.2789 -1.5766
   18DOPE   C33 2276   6.873   2.990   9.165 -0.2017  0.4429 -0.7044
   18DOPE   H3X 2277   6.767   2.983   9.196  0.3051  0.5995  1.1822
   18DOPE   H3Y 2278   6.921   2.903   9.215 -4.3385 -1.4687  0.4141
   18DOPE   C34 2279   6.876   2.983   9.011  0.1904 -0.2398  0.5007
   18DOPE   H4X 2280   6.819   3.060   8.955  1.1529 -0.2116 -0.4773
   18DOPE   H4Y 2281   6.983   2.994   8.984  0.1544 -0.9552  0.0443
   18DOPE   C35 2282   6.822   2.853   8.955 -0.5323 -0.6292  0.3228
   18DOPE   H5X 2283   6.712   2.856   8.938 -0.7227 -1.8522  1.1895
   18DOPE   H5Y 2284   6.852   2.772   9.025  0.8381 -0.3598  0.0712
   18DOPE   C36 2285   6.891   2.821   8.824  0.3378 -0.1817  0.0790
   18DOPE   H6X 2286   6.868   2.720   8.785 -0.6056  0.6622 -1.6431
   18DOPE   H6Y 2287   7.001   2.834   8.828  0.3657  2.5845 -4.1069
   18DOPE   C37 2288   6.839   2.914   8.716  0.4308  0.6735 -0.3077
   18DOPE   H7X 2289   6.729   2.908   8.716  0.4415  0.2621 -1.0349
   18DOPE   H7Y 2290   6.872   3.018   8.735  0.1279  0.5750  0.7692
   18DOPE   C38 2291   6.891   2.874   8.574  0.5032 -0.2871  0.2738
   18DOPE   H8X 2292   6.997   2.843   8.581  0.4892 -0.3612  0.1599
   18DOPE   H8Y 2293   6.886   2.957   8.501  1.9946  0.0195  0.5006
   18DOPE   C39 2294   6.814   2.753   8.522  1.1518 -0.1453 -0.0632
   18DOPE   H9X 2295   6.839   2.659   8.574 -0.4484 -0.6525 -0.1570
   18DOPE  C310 2296   6.736   2.746   8.417 -0.1662  0.0872 -0.5227
   18DOPE  H10X 2297   6.704   2.652   8.370  1.5909 -1.3503  0.9812
   18DOPE  C311 2298   6.702   2.862   8.330  0.1315 -0.1638 -0.5998
   18DOPE  H11X 2299   6.596   2.849   8.302 -0.5451  0.2544  1.5375
   18DOPE  H11Y 2300   6.697   2.965   8.373  0.3534  0.8770 -2.9237
   18DOPE  C312 2301   6.781   2.870   8.201  0.2499 -0.5406  0.3962
   18DOPE  H12X 2302   6.889   2.883   8.223  0.5884 -0.7560 -0.9946
   18DOPE  H12Y 2303   6.748   2.953   8.134  2.7038 -1.2230 -1.8190
   18DOPE  C313 2304   6.758   2.752   8.103  0.2445  0.4486  0.0085
   18DOPE  H13X 2305   6.811   2.664   8.144 -0.6251 -0.8309 -1.5164
   18DOPE  H13Y 2306   6.650   2.732   8.089  0.0959  0.9680  0.3792
   18DOPE  C314 2307   6.815   2.798   7.967  0.3556  0.4219 -0.1039
   18DOPE  H14X 2308   6.920   2.830   7.980  0.8421 -1.6488  1.7606
   18DOPE  H14Y 2309   6.753   2.888   7.944 -1.2632 -1.0994 -2.1244
   18DOPE  C315 2310   6.810   2.699   7.848 -0.1476  0.1138  0.0089
   18DOPE  H15X 2311   6.706   2.696   7.811  0.4051 -0.0235 -1.6583
   18DOPE  H15Y 2312   6.850   2.601   7.882 -1.1667  0.3983  2.1425
   18DOPE  C316 2313   6.881   2.753   7.723 -0.0526  0.3523  0.2708
   18DOPE  H16X 2314   6.988   2.761   7.753  0.2503 -2.1146  0.0547
   18DOPE  H16Y 2315   6.842   2.856   7.713 -0.3153  0.8985  4.8836
   18DOPE  C317 2316   6.880   2.663   7.595  0.6356 -0.1597 -0.0910
   18DOPE  H17X 2317   6.913   2.559   7.616  1.0319 -0.1161 -0.4823
   18DOPE  H17Y 2318   6.777   2.662   7.556  1.3246 -1.0886 -2.0093
   18DOPE  C318 2319   6.973   2.716   7.487 -0.3117 -0.4517  0.2746
   18DOPE  H18X 2320   6.974   2.826   7.472 -0.9969 -0.5508 -0.5201
   18DOPE  H18Y 2321   7.076   2.690   7.520 -0.0684  1.3410  1.0314
   18DOPE  H18Z 2322   6.958   2.670   7.387 -0.0218 -0.5062  0.2554
   19DOPE     N 2323   5.752   4.521  10.207  0.1409 -0.5445  0.0062
   19DOPE   HN1 2324   5.694   4.443  10.172 -0.9296  0.6282 -0.9162
   19DOPE   HN2 2325   5.778   4.499  10.305 -3.1076  0.9550  1.3351
   19DOPE   HN3 2326   5.690   4.604  10.208 -1.0745 -1.4236  1.4339
   19DOPE   C12 2327   5.858   4.544  10.107 -0.3978  0.1528  0.0518
   19DOPE  H12A 2328   5.949   4.574  10.163 -0.3615 -0.5479  0.3838
   19DOPE  H12B 2329   5.828   4.611  10.024  0.5887  0.3492 -0.1512
   19DOPE   C11 2330   5.884   4.407  10.033 -0.6713  0.4085 -0.5481
   19DOPE  H11A 2331   5.965   4.417   9.957  2.5373 -1.8254  2.3128
   19DOPE  H11B 2332   5.782   4.392   9.993 -1.0562 -1.6569  1.0659
   19DOPE     P 2333   6.060   4.291  10.184  0.2271  0.7078 -0.2284
   19DOPE   O13 2334   6.114   4.158  10.155 -0.0764  0.7322 -0.2680
   19DOPE   O14 2335   6.045   4.330  10.329 -0.0327  0.3933  0.7902
   19DOPE   O11 2336   6.155   4.395  10.124 -0.3052  0.3411  0.0785
   19DOPE   O12 2337   5.912   4.304  10.118  0.3541  0.0034  0.1299
   19DOPE    C1 2338   6.242   4.360  10.015  0.4589 -0.3931 -0.1030
   19DOPE    HA 2339   6.196   4.280   9.954  0.7434 -0.5028 -0.1791
   19DOPE    HB 2340   6.343   4.324  10.046  1.3967  0.1579 -2.3417
   19DOPE    C2 2341   6.269   4.485   9.923  0.3601  0.1283  0.5794
   19DOPE    HS 2342   6.361   4.538   9.957 -0.3310  1.9910 -0.2883
   19DOPE   O21 2343   6.152   4.578   9.923  0.6625  0.4970  0.2995
   19DOPE   C21 2344   6.165   4.677   9.837 -0.1086  0.2608 -0.2346
   19DOPE   O22 2345   6.271   4.712   9.790  0.1901 -0.4639 -0.1421
   19DOPE   C22 2346   6.037   4.759   9.826  0.1548 -0.1751  0.3771
   19DOPE   H2R 2347   6.085   4.858   9.840 -0.4305  0.4970 -1.9398
   19DOPE   H2S 2348   5.968   4.754   9.913 -1.3998 -3.1653 -0.8719
   19DOPE    C3 2349   6.298   4.425   9.777 -0.1914  0.3695 -0.3179
   19DOPE    HX 2350   6.347   4.501   9.712  1.4290  0.9156  1.4452
   19DOPE    HY 2351   6.209   4.394   9.720 -2.0440  0.9286  2.0853
   19DOPE   O31 2352   6.382   4.310   9.784 -0.0999 -0.0405  0.2789
   19DOPE   C31 2353   6.422   4.265   9.663 -0.0384 -0.8650 -0.7279
   19DOPE   O32 2354   6.397   4.310   9.555 -0.1058  0.4601  0.9777
   19DOPE   C32 2355   6.477   4.128   9.689 -0.3303  0.3290 -0.3998
   19DOPE   H2X 2356   6.557   4.141   9.765 -0.6481  1.8173 -0.2762
   19DOPE   H2Y 2357   6.397   4.062   9.728  1.5399 -2.5458 -1.1651
   19DOPE   C23 2358   5.959   4.736   9.696  0.4694  0.7719  0.7188
   19DOPE   H3R 2359   5.863   4.791   9.703  0.1883  0.8383 -2.3919
   19DOPE   H3S 2360   5.934   4.628   9.683  2.6808  0.1640  1.1054
   19DOPE   C24 2361   6.033   4.775   9.569  0.6292 -0.0425 -0.6206
   19DOPE   H4R 2362   6.122   4.709   9.574 -0.3803 -1.4437 -0.5262
   19DOPE   H4S 2363   6.073   4.878   9.562  0.3959  0.0770 -0.2313
   19DOPE   C25 2364   5.952   4.742   9.440  0.0452  0.1803  0.2878
   19DOPE   H5R 2365   5.893   4.831   9.409 -1.0536 -1.3213 -2.1656
   19DOPE   H5S 2366   5.887   4.656   9.465  0.3834 -0.4601 -0.9515
   19DOPE   C26 2367   6.054   4.701   9.328  0.4206 -0.7636  0.0473
   19DOPE   H6R 2368   6.117   4.614   9.357  0.0220 -1.2326 -0.4624
   19DOPE   H6S 2369   6.120   4.790   9.318  0.2173 -0.4519  1.4006
   19DOPE   C27 2370   5.979   4.681   9.195  0.6728 -1.0888 -0.7081
   19DOPE   H7R 2371   5.921   4.772   9.169  2.0936 -0.8130 -3.2438
   19DOPE   H7S 2372   5.901   4.603   9.212  1.6252 -1.7015  1.1304
   19DOPE   C28 2373   6.071   4.629   9.082  0.5776  0.1470  0.0153
   19DOPE   H8R 2374   6.129   4.540   9.117 -0.1787  0.2641  1.6866
   19DOPE   H8S 2375   6.150   4.703   9.058  0.7113  0.3199  0.9609
   19DOPE   C29 2376   5.982   4.603   8.965 -0.0068 -0.4767 -0.1168
   19DOPE   H9R 2377   5.903   4.532   8.992  0.1074 -0.5551  0.0132
   19DOPE  C210 2378   5.977   4.657   8.847 -0.1395 -0.4173 -0.2120
   19DOPE  H10R 2379   5.906   4.613   8.775 -0.7341 -2.1883  1.3760
   19DOPE  C211 2380   6.076   4.763   8.795  0.9771  0.2565 -0.1096
   19DOPE  H11R 2381   6.182   4.739   8.822  0.2861 -1.9706  0.8970
   19DOPE  H11S 2382   6.060   4.860   8.847  1.3381  1.1209 -1.5661
   19DOPE  C212 2383   6.051   4.795   8.649  0.0815  0.9110  0.2172
   19DOPE  H12R 2384   6.109   4.887   8.628 -0.2171  0.2134 -4.7688
   19DOPE  H12S 2385   5.945   4.819   8.625 -0.5627 -0.6617  1.3229
   19DOPE  C213 2386   6.122   4.705   8.545  0.6441 -0.2067  0.1817
   19DOPE  H13R 2387   6.088   4.600   8.559  0.7523 -0.1308  1.1100
   19DOPE  H13S 2388   6.232   4.711   8.557  0.9812 -2.5861 -1.2793
   19DOPE  C214 2389   6.100   4.759   8.400 -0.6479  0.4035 -1.0104
   19DOPE  H14R 2390   6.151   4.857   8.391 -1.2449  0.7349 -0.8539
   19DOPE  H14S 2391   5.992   4.778   8.382 -1.6332 -0.6577  2.7002
   19DOPE  C215 2392   6.168   4.666   8.293 -0.0564  0.2851  0.0538
   19DOPE  H15R 2393   6.133   4.561   8.284  2.3890 -0.9631  3.2409
   19DOPE  H15S 2394   6.277   4.659   8.311 -0.1401 -1.8069  0.0065
   19DOPE  C216 2395   6.162   4.729   8.147 -0.5085  0.5050  0.0617
   19DOPE  H16R 2396   6.194   4.835   8.144 -0.5908  0.5075 -1.3818
   19DOPE  H16S 2397   6.060   4.730   8.102 -0.5319 -1.0985  0.0026
   19DOPE  C217 2398   6.247   4.651   8.043  0.3513  0.6481  0.1011
   19DOPE  H17R 2399   6.201   4.554   8.014 -0.0029  1.3659 -1.8931
   19DOPE  H17S 2400   6.353   4.626   8.064  0.9981 -1.8314 -4.5977
   19DOPE  C218 2401   6.258   4.721   7.912  0.2793 -0.1172 -0.0101
   19DOPE  H18R 2402   6.314   4.666   7.833  2.0110  2.4276 -0.6832
   19DOPE  H18S 2403   6.297   4.825   7.923 -1.1905  0.4568 -0.0074
   19DOPE  H18T 2404   6.159   4.735   7.864  1.1597  1.3362 -1.4991
   19DOPE   C33 2405   6.533   4.065   9.561  0.8166 -0.3317 -0.5236
   19DOPE   H3X 2406   6.602   3.981   9.582  1.9553  0.7152  0.0495
   19DOPE   H3Y 2407   6.601   4.139   9.513  1.3587  1.0610  2.1853
   19DOPE   C34 2408   6.419   4.014   9.464 -0.9521 -0.0445  0.0005
   19DOPE   H4X 2409   6.345   3.972   9.536 -1.3027 -0.4245 -0.5731
   19DOPE   H4Y 2410   6.380   4.102   9.408 -2.0374  0.9030  2.1199
   19DOPE   C35 2411   6.478   3.909   9.366  0.6900 -0.4150  0.2391
   19DOPE   H5X 2412   6.533   3.842   9.435  3.8196  3.5287  1.9676
   19DOPE   H5Y 2413   6.545   3.946   9.287  2.1657 -0.3827  1.4599
   19DOPE   C36 2414   6.375   3.837   9.287  0.1760  1.0663  0.5496
   19DOPE   H6X 2415   6.295   3.897   9.239 -1.0223 -0.1085  1.0245
   19DOPE   H6Y 2416   6.335   3.764   9.361  1.7170 -0.2978  0.0956
   19DOPE   C37 2417   6.427   3.762   9.164 -0.6976  0.0669  0.1762
   19DOPE   H7X 2418   6.463   3.837   9.090 -1.2650  1.1427  0.9536
   19DOPE   H7Y 2419   6.510   3.695   9.193 -1.3418 -0.5560  0.6203
   19DOPE   C38 2420   6.325   3.674   9.089  0.4797  0.1629 -0.1470
   19DOPE   H8X 2421   6.255   3.734   9.027  0.1979  0.6646  0.6523
   19DOPE   H8Y 2422   6.258   3.628   9.164 -1.8678  3.1943 -0.1861
   19DOPE   C39 2423   6.398   3.577   8.997  0.5825 -0.6275 -0.6642
   19DOPE   H9X 2424   6.433   3.481   9.038 -2.3897 -1.6539 -0.2996
   19DOPE  C310 2425   6.406   3.583   8.861 -0.7102 -1.1136 -0.0624
   19DOPE  H10X 2426   6.477   3.513   8.814 -0.7732 -1.6799  0.6670
   19DOPE  C311 2427   6.352   3.692   8.772 -0.2001  0.2356  0.9441
   19DOPE  H11X 2428   6.299   3.769   8.832 -2.1257 -1.1081  1.0367
   19DOPE  H11Y 2429   6.438   3.731   8.713  1.0885 -3.9687 -0.3009
   19DOPE  C312 2430   6.263   3.613   8.670  0.0616 -0.9114  0.7020
   19DOPE  H12X 2431   6.210   3.685   8.604  0.2316 -1.5067 -0.0927
   19DOPE  H12Y 2432   6.179   3.576   8.733 -1.8874  0.6223 -0.8397
   19DOPE  C313 2433   6.325   3.499   8.577  0.4990  0.3386 -0.0188
   19DOPE  H13X 2434   6.397   3.435   8.631 -0.1659 -2.1775 -1.8927
   19DOPE  H13Y 2435   6.240   3.430   8.553 -0.5343  0.9064  1.8065
   19DOPE  C314 2436   6.381   3.542   8.442  0.8281 -0.0969  1.0387
   19DOPE  H14X 2437   6.387   3.464   8.363  1.2069  1.6695 -0.7490
   19DOPE  H14Y 2438   6.480   3.585   8.468  1.0894  0.0135 -0.1054
   19DOPE  C315 2439   6.284   3.640   8.369  0.3136  0.2720  0.0226
   19DOPE  H15X 2440   6.250   3.729   8.427 -2.9452  0.3912 -1.8530
   19DOPE  H15Y 2441   6.187   3.590   8.352  0.8182 -1.8533  2.6342
   19DOPE  C316 2442   6.334   3.692   8.236 -0.0598 -0.1595 -0.4950
   19DOPE  H16X 2443   6.362   3.604   8.174 -0.2352 -0.6853  0.1477
   19DOPE  H16Y 2444   6.426   3.753   8.249 -0.1080 -0.0804 -0.5245
   19DOPE  C317 2445   6.230   3.771   8.162  0.0875 -0.1927 -0.1434
   19DOPE  H17X 2446   6.158   3.712   8.102 -0.4048  1.0260 -0.7837
   19DOPE  H17Y 2447   6.158   3.821   8.230 -0.3117  0.3694 -0.9682
   19DOPE  C318 2448   6.291   3.881   8.082 -0.2583 -0.2538 -0.0092
   19DOPE  H18X 2449   6.232   3.917   7.995  3.8157  3.1245 -1.7147
   19DOPE  H18Y 2450   6.306   3.969   8.148 -1.2987 -0.3489  0.3674
   19DOPE  H18Z 2451   6.387   3.851   8.035  1.1824  3.2696  0.3863
   20DOPE     N 2452   4.861   5.806  10.334  0.1201  0.4717  0.0154
   20DOPE   HN1 2453   4.934   5.733  10.335  0.1629  0.4395 -1.7183
   20DOPE   HN2 2454   4.770   5.774  10.373  1.6809  0.4286  4.0249
   20DOPE   HN3 2455   4.842   5.827  10.234  0.7080  2.1529  0.2266
   20DOPE   C12 2456   4.913   5.926  10.396 -0.3986  0.3771 -0.4767
   20DOPE  H12A 2457   5.013   5.943  10.351 -1.2168  2.1195 -1.7771
   20DOPE  H12B 2458   4.924   5.920  10.506  2.1955 -0.4076 -0.7088
   20DOPE   C11 2459   4.814   6.040  10.368 -0.5613 -0.1458 -0.0117
   20DOPE  H11A 2460   4.716   6.003  10.405 -0.4056 -0.9087 -0.3455
   20DOPE  H11B 2461   4.795   6.050  10.259 -0.7638 -0.6543 -0.0274
   20DOPE     P 2462   4.788   6.245  10.534  0.6870  0.2362  0.4654
   20DOPE   O13 2463   4.865   6.273  10.656  0.2942  0.0826  0.0990
   20DOPE   O14 2464   4.657   6.186  10.554  0.0291 -0.2862  0.0680
   20DOPE   O11 2465   4.772   6.367  10.447 -0.4145 -0.1554 -0.0745
   20DOPE   O12 2466   4.874   6.152  10.440 -0.3281  0.1279  0.1734
   20DOPE    C1 2467   4.872   6.458  10.412  0.0865 -0.0225 -0.5380
   20DOPE    HA 2468   4.950   6.419  10.343 -0.6020 -0.2586 -1.2001
   20DOPE    HB 2469   4.924   6.483  10.506 -1.5493 -3.1346  1.3653
   20DOPE    C2 2470   4.808   6.589  10.367  0.4267  0.3042 -0.3673
   20DOPE    HS 2471   4.724   6.598  10.440  0.8404 -2.2899  0.5269
   20DOPE   O21 2472   4.763   6.578  10.231 -0.0206 -0.1901 -0.0958
   20DOPE   C21 2473   4.678   6.671  10.192 -0.8077 -0.2123  0.5274
   20DOPE   O22 2474   4.633   6.759  10.263  0.4549 -0.5835  0.3838
   20DOPE   C22 2475   4.653   6.651  10.045 -0.1969  0.5697  0.0855
   20DOPE   H2R 2476   4.570   6.724  10.036  1.3428  2.7071  1.8854
   20DOPE   H2S 2477   4.611   6.550  10.027  0.9804 -0.3007  1.8861
   20DOPE    C3 2478   4.908   6.707  10.385  0.5791  0.0621 -0.4578
   20DOPE    HX 2479   4.943   6.707  10.491  0.3956 -0.8903 -0.3930
   20DOPE    HY 2480   4.851   6.799  10.360 -0.0103  0.2946  1.5871
   20DOPE   O31 2481   5.026   6.686  10.304  0.7227 -0.6359  0.3379
   20DOPE   C31 2482   5.025   6.768  10.198 -0.5095  0.3344  0.4621
   20DOPE   O32 2483   4.943   6.854  10.171 -0.1059  0.1444  0.2282
   20DOPE   C32 2484   5.153   6.742  10.123  0.1289  0.7284  0.2916
   20DOPE   H2X 2485   5.241   6.784  10.175  0.8523 -2.4460  1.9104
   20DOPE   H2Y 2486   5.170   6.632  10.117 -0.2115  0.6958 -0.1652
   20DOPE   C23 2487   4.772   6.682   9.955  0.5725 -0.0748  0.5426
   20DOPE   H3R 2488   4.864   6.625   9.980  0.7648  0.1204  0.2741
   20DOPE   H3S 2489   4.796   6.790   9.963 -0.1618  0.0940  0.5475
   20DOPE   C24 2490   4.738   6.668   9.803 -0.2826  0.9795 -0.8958
   20DOPE   H4R 2491   4.641   6.718   9.785 -0.5859  0.7636  0.0598
   20DOPE   H4S 2492   4.723   6.561   9.776  0.5570  0.2099  1.3844
   20DOPE   C25 2493   4.846   6.724   9.714 -0.3920 -0.3565 -0.8496
   20DOPE   H5R 2494   4.938   6.664   9.732 -0.6472 -0.5116 -0.0222
   20DOPE   H5S 2495   4.866   6.819   9.768  1.4081 -0.7059 -0.8372
   20DOPE   C26 2496   4.812   6.731   9.568 -0.1166  0.5825  0.5759
   20DOPE   H6R 2497   4.723   6.795   9.556  1.8335  3.2312 -0.7269
   20DOPE   H6S 2498   4.794   6.626   9.535  0.6124 -0.3302  2.8471
   20DOPE   C27 2499   4.931   6.790   9.484 -0.1550  0.0645  0.0007
   20DOPE   H7R 2500   5.019   6.723   9.496  0.0476  0.1988 -0.6899
   20DOPE   H7S 2501   4.964   6.891   9.516  0.5058 -0.6593  1.7045
   20DOPE   C28 2502   4.897   6.798   9.326 -0.1069  0.0319 -0.4378
   20DOPE   H8R 2503   4.961   6.880   9.285 -1.3503  1.5870  0.6172
   20DOPE   H8S 2504   4.789   6.821   9.314  0.1207  0.5473 -1.6243
   20DOPE   C29 2505   4.920   6.674   9.255  0.0701  1.1608 -0.0198
   20DOPE   H9R 2506   4.865   6.591   9.302  2.4009 -0.0621  0.6847
   20DOPE  C210 2507   4.994   6.650   9.144  0.3135  0.2407 -0.2675
   20DOPE  H10R 2508   4.996   6.545   9.112  0.1118  0.3144 -0.5254
   20DOPE  C211 2509   5.073   6.751   9.061  0.2135 -0.6418 -0.3086
   20DOPE  H11R 2510   5.142   6.804   9.131  2.1049 -2.8667 -0.3636
   20DOPE  H11S 2511   5.008   6.830   9.017  0.0898 -0.4916  0.1387
   20DOPE  C212 2512   5.134   6.675   8.942 -0.0643  0.4417  0.5477
   20DOPE  H12R 2513   5.047   6.620   8.900 -0.0058 -1.5279  2.7995
   20DOPE  H12S 2514   5.218   6.609   8.973  0.5082  0.5425 -0.7164
   20DOPE  C213 2515   5.189   6.765   8.837 -0.5788 -0.5579 -0.5460
   20DOPE  H13R 2516   5.267   6.826   8.887 -0.4628 -2.4581  1.7934
   20DOPE  H13S 2517   5.120   6.841   8.794 -1.0587 -1.4588 -1.4047
   20DOPE  C214 2518   5.250   6.691   8.723 -0.0746  0.1352  0.7056
   20DOPE  H14R 2519   5.174   6.633   8.665 -0.3041  0.6561  0.4771
   20DOPE  H14S 2520   5.323   6.615   8.756  0.2285  0.4568  0.7746
   20DOPE  C215 2521   5.316   6.781   8.615 -0.0853 -0.2504 -0.3993
   20DOPE  H15R 2522   5.399   6.849   8.644 -0.0810 -0.6945  0.6764
   20DOPE  H15S 2523   5.233   6.846   8.579 -0.1689 -0.2929 -0.2862
   20DOPE  C216 2524   5.360   6.696   8.490  0.5532 -0.0402 -0.3682
   20DOPE  H16R 2525   5.279   6.627   8.460  1.2349 -0.2628 -1.7832
   20DOPE  H16S 2526   5.444   6.638   8.533 -0.2284 -0.2014  0.9970
   20DOPE  C217 2527   5.392   6.785   8.376  0.6006 -0.3290  0.3559
   20DOPE  H17R 2528   5.464   6.863   8.411 -0.1514  0.4488  0.1949
   20DOPE  H17S 2529   5.308   6.849   8.342  0.1646 -0.6101  0.8787
   20DOPE  C218 2530   5.429   6.702   8.257  0.5473 -0.3278 -0.3834
   20DOPE  H18R 2531   5.432   6.759   8.161  0.8368  0.6252  0.1813
   20DOPE  H18S 2532   5.364   6.612   8.252  0.3270 -0.1309 -1.5330
   20DOPE  H18T 2533   5.528   6.660   8.283  0.9607  0.2781 -0.9166
   20DOPE   C33 2534   5.147   6.805   9.980  0.3438 -0.4178 -0.0989
   20DOPE   H3X 2535   5.145   6.916   9.989 -1.5049 -0.1331 -2.7639
   20DOPE   H3Y 2536   5.054   6.776   9.926 -0.5392  0.5542  0.8505
   20DOPE   C34 2537   5.259   6.772   9.885 -0.6893 -0.0130 -0.5923
   20DOPE   H4X 2538   5.344   6.836   9.916 -0.9820  1.6156 -2.9185
   20DOPE   H4Y 2539   5.295   6.668   9.878  2.7182  0.9372  0.7851
   20DOPE   C35 2540   5.236   6.820   9.742  0.2102  0.3414 -0.4237
   20DOPE   H5X 2541   5.204   6.926   9.732 -1.1977  0.1229  1.2631
   20DOPE   H5Y 2542   5.154   6.764   9.693 -0.7438  0.4542  0.9871
   20DOPE   C36 2543   5.356   6.800   9.655 -0.0785 -0.3363  0.2429
   20DOPE   H6X 2544   5.408   6.703   9.668  0.1829 -0.4908 -1.6535
   20DOPE   H6Y 2545   5.437   6.872   9.679 -1.1878  0.4921  1.6670
   20DOPE   C37 2546   5.311   6.804   9.505 -0.3498 -0.7918 -0.1809
   20DOPE   H7X 2547   5.259   6.711   9.472  2.4334 -1.9482 -1.7114
   20DOPE   H7Y 2548   5.239   6.888   9.506  0.4733 -0.0780 -0.5181
   20DOPE   C38 2549   5.425   6.844   9.407 -0.5988  0.6486 -0.6928
   20DOPE   H8X 2550   5.465   6.941   9.445 -2.1475  1.0014  0.1276
   20DOPE   H8Y 2551   5.372   6.854   9.310 -0.1579 -2.1157 -1.2841
   20DOPE   C39 2552   5.540   6.745   9.400 -0.0661 -1.8704 -0.2655
   20DOPE   H9X 2553   5.617   6.745   9.478 -0.1774 -2.4946 -0.1549
   20DOPE  C310 2554   5.559   6.657   9.303 -0.0207  0.2672  0.2604
   20DOPE  H10X 2555   5.626   6.572   9.321 -1.4380 -1.4772 -2.0856
   20DOPE  C311 2556   5.475   6.636   9.180 -0.3584  0.0905  0.0184
   20DOPE  H11X 2557   5.394   6.566   9.211  1.0975 -0.8628  1.9224
   20DOPE  H11Y 2558   5.430   6.730   9.141 -0.1907  0.8758  1.6042
   20DOPE  C312 2559   5.568   6.570   9.080  0.7920  0.2017  0.7655
   20DOPE  H12X 2560   5.508   6.549   8.989  2.2007  2.1303 -0.6990
   20DOPE  H12Y 2561   5.603   6.475   9.124  0.8483 -0.4299 -0.5901
   20DOPE  C313 2562   5.683   6.657   9.023 -0.3036  0.2260 -0.2614
   20DOPE  H13X 2563   5.651   6.757   8.988  0.4196  0.7269  0.4911
   20DOPE  H13Y 2564   5.754   6.668   9.108 -0.3010  1.4162 -0.4054
   20DOPE  C314 2565   5.753   6.592   8.900  0.0538  0.2507 -0.3019
   20DOPE  H14X 2566   5.683   6.601   8.814  0.3990 -0.0562 -0.6153
   20DOPE  H14Y 2567   5.770   6.484   8.914 -0.6779 -0.1418 -2.1350
   20DOPE  C315 2568   5.885   6.666   8.867  0.4292  0.3768 -0.2646
   20DOPE  H15X 2569   5.972   6.641   8.932  1.1738  1.1832 -0.9367
   20DOPE  H15Y 2570   5.876   6.771   8.904  0.3831 -0.0140  0.8725
   20DOPE  C316 2571   5.922   6.677   8.722 -0.2082  0.5948 -0.2294
   20DOPE  H16X 2572   6.030   6.699   8.716 -0.4168  2.9229  2.4855
   20DOPE  H16Y 2573   5.865   6.762   8.680  0.4947  0.1125 -2.2733
   20DOPE  C317 2574   5.903   6.544   8.645  0.1343 -0.5430 -0.1118
   20DOPE  H17X 2575   5.970   6.471   8.694  0.0120 -1.0298 -0.6499
   20DOPE  H17Y 2576   5.801   6.500   8.640 -0.3843  0.7331 -2.4040
   20DOPE  C318 2577   5.950   6.558   8.498 -0.2305  0.6093  0.0477
   20DOPE  H18X 2578   5.879   6.618   8.436  0.3566  2.7955  1.3697
   20DOPE  H18Y 2579   6.052   6.603   8.496  0.2711 -0.4848 -1.2425
   20DOPE  H18Z 2580   5.967   6.460   8.449 -0.3935  2.1821 -3.4811
   21DOPE     N 2581   2.195   0.636   9.459  0.0648  0.1128 -0.0276
   21DOPE   HN1 2582   2.200   0.721   9.518  1.3499 -1.1058  1.7274
   21DOPE   HN2 2583   2.255   0.568   9.509  0.1287 -0.3509 -0.7240
   21DOPE   HN3 2584   2.248   0.662   9.374 -0.0642 -0.1089 -0.1775
   21DOPE   C12 2585   2.040   0.614   9.439 -0.7707  0.0468  0.0281
   21DOPE  H12A 2586   2.026   0.513   9.394  0.2398 -0.5315  0.9814
   21DOPE  H12B 2587   2.004   0.694   9.370 -3.4550  0.8451  2.1466
   21DOPE   C11 2588   1.971   0.627   9.576 -1.2268 -0.5275 -0.0192
   21DOPE  H11A 2589   1.863   0.600   9.576 -0.5251 -3.9275 -1.1864
   21DOPE  H11B 2590   1.976   0.732   9.609  0.8182 -0.4077 -0.5935
   21DOPE     P 2591   2.020   0.387   9.675 -0.5740  0.3328 -0.3904
   21DOPE   O13 2592   1.943   0.341   9.800  0.0101  0.0924 -0.0658
   21DOPE   O14 2593   2.158   0.335   9.646  0.6455  0.0839  0.3713
   21DOPE   O11 2594   1.941   0.344   9.547 -0.2223  0.0485 -0.0867
   21DOPE   O12 2595   2.030   0.542   9.676  0.0677  0.3392  0.1349
   21DOPE    C1 2596   1.916   0.199   9.532  0.0406  0.4597  0.3818
   21DOPE    HA 2597   1.814   0.184   9.573  0.1630 -2.8032 -0.2669
   21DOPE    HB 2598   1.978   0.134   9.597  0.0671  0.3408  0.2365
   21DOPE    C2 2599   1.925   0.145   9.380 -0.2437  1.0605 -0.4533
   21DOPE    HS 2600   1.932   0.034   9.386 -0.3924  1.1273  1.6341
   21DOPE   O21 2601   2.041   0.182   9.302 -0.0813 -0.4973 -0.3053
   21DOPE   C21 2602   2.152   0.148   9.363 -0.3346 -0.4595  0.2570
   21DOPE   O22 2603   2.165   0.066   9.453 -0.1608  0.1022  0.2116
   21DOPE   C22 2604   2.268   0.227   9.307  0.0784 -0.2976 -0.2039
   21DOPE   H2R 2605   2.353   0.220   9.378  0.0768 -0.8174 -0.2485
   21DOPE   H2S 2606   2.244   0.335   9.295  2.1823  0.4528  1.6319
   21DOPE    C3 2607   1.802   0.173   9.299 -0.7144 -0.2791  0.1581
   21DOPE    HX 2608   1.804   0.280   9.270 -3.9081 -0.4111 -0.9561
   21DOPE    HY 2609   1.715   0.165   9.368 -0.1783  1.4282  1.1021
   21DOPE   O31 2610   1.790   0.090   9.180  0.2320 -0.1279 -0.3166
   21DOPE   C31 2611   1.840   0.145   9.074 -0.1696  0.4743  0.2835
   21DOPE   O32 2612   1.880   0.258   9.062  0.0933  0.1172  0.5654
   21DOPE   C32 2613   1.807   0.051   8.955  0.0517 -0.2483  0.0074
   21DOPE   H2X 2614   1.882  -0.030   8.948  1.4367  1.1483 -3.2735
   21DOPE   H2Y 2615   1.708   0.003   8.973  0.0641  0.5935  2.9553
   21DOPE   C23 2616   2.328   0.161   9.181  0.4816  0.6057 -0.0662
   21DOPE   H3R 2617   2.360   0.057   9.200  0.2927  0.3571 -1.0729
   21DOPE   H3S 2618   2.414   0.223   9.150  0.7667  0.9186  1.2643
   21DOPE   C24 2619   2.234   0.159   9.063 -0.3630  0.4445  0.4462
   21DOPE   H4R 2620   2.188   0.259   9.052 -1.6660 -0.1947 -0.1024
   21DOPE   H4S 2621   2.154   0.082   9.067  0.2266 -0.5427 -3.2078
   21DOPE   C25 2622   2.299   0.129   8.927  0.3452  0.0194  0.1309
   21DOPE   H5R 2623   2.344   0.028   8.922  0.4600  0.0801 -0.0659
   21DOPE   H5S 2624   2.373   0.212   8.912  0.8549 -0.4764 -0.1301
   21DOPE   C26 2625   2.200   0.123   8.810  0.5725  0.0654  0.7422
   21DOPE   H6R 2626   2.128   0.208   8.810  0.3530 -0.0805 -1.4636
   21DOPE   H6S 2627   2.138   0.031   8.819 -0.1893  0.3625 -1.1143
   21DOPE   C27 2628   2.268   0.111   8.669  0.2476 -0.3955 -0.0145
   21DOPE   H7R 2629   2.351   0.039   8.677 -0.2930 -0.8009  2.8114
   21DOPE   H7S 2630   2.309   0.210   8.639  0.5857 -0.8281 -1.0091
   21DOPE   C28 2631   2.170   0.052   8.556 -0.0885 -0.3036  0.3339
   21DOPE   H8R 2632   2.068   0.088   8.582 -0.4585 -0.8920 -0.2802
   21DOPE   H8S 2633   2.161  -0.057   8.571 -0.9278 -0.3397 -0.3234
   21DOPE   C29 2634   2.202   0.073   8.408 -0.3327 -0.1128  0.1681
   21DOPE   H9R 2635   2.133   0.146   8.363  0.5302 -0.1880 -1.3259
   21DOPE  C210 2636   2.288  -0.003   8.330  0.2221 -0.3525 -0.0502
   21DOPE  H10R 2637   2.303   0.021   8.224  0.8281 -0.7066 -0.0478
   21DOPE  C211 2638   2.382  -0.108   8.371  0.5741 -0.2715  0.2003
   21DOPE  H11R 2639   2.316  -0.193   8.400 -2.1082  1.1802 -1.2598
   21DOPE  H11S 2640   2.432  -0.073   8.464  0.2439  0.0973  0.2437
   21DOPE  C212 2641   2.482  -0.140   8.261 -0.2450  0.4152 -0.2162
   21DOPE  H12R 2642   2.563  -0.196   8.313  0.1693  0.7739 -0.4709
   21DOPE  H12S 2643   2.521  -0.044   8.223 -0.9156  0.9582  0.4415
   21DOPE  C213 2644   2.427  -0.229   8.150 -0.2313 -0.2640 -0.2394
   21DOPE  H13R 2645   2.362  -0.159   8.094 -0.1520  0.8897  1.0737
   21DOPE  H13S 2646   2.375  -0.321   8.183  0.4637 -0.7120 -0.3715
   21DOPE  C214 2647   2.531  -0.274   8.052 -0.3383 -0.0114 -0.1476
   21DOPE  H14R 2648   2.616  -0.317   8.110 -1.2872 -0.5140  0.9192
   21DOPE  H14S 2649   2.575  -0.186   8.000 -0.5126 -0.1595 -0.5462
   21DOPE  C215 2650   2.483  -0.371   7.944 -0.2924  0.2965 -0.0840
   21DOPE  H15R 2651   2.373  -0.361   7.935 -0.2930 -0.8962 -1.9962
   21DOPE  H15S 2652   2.495  -0.470   7.994 -3.7036 -0.6444 -0.8959
   21DOPE  C216 2653   2.557  -0.370   7.812  0.3902  0.1066  0.3239
   21DOPE  H16R 2654   2.529  -0.452   7.743  1.0864 -0.1143  0.2915
   21DOPE  H16S 2655   2.668  -0.373   7.820  0.5896  3.6225  0.3102
   21DOPE  C217 2656   2.534  -0.255   7.720 -0.4633 -0.4277  0.0523
   21DOPE  H17R 2657   2.575  -0.280   7.620  0.9577 -1.3177  0.8093
   21DOPE  H17S 2658   2.607  -0.173   7.735 -1.0721  0.9820 -3.7676
   21DOPE  C218 2659   2.393  -0.207   7.709  0.1810 -0.5700 -0.0824
   21DOPE  H18R 2660   2.354  -0.168   7.805  2.3501  0.9383  0.2675
   21DOPE  H18S 2661   2.326  -0.293   7.686 -1.3162  0.4807  0.2666
   21DOPE  H18T 2662   2.375  -0.135   7.626  2.6938 -0.3906 -0.5532
   21DOPE   C33 2663   1.813   0.115   8.809 -0.3396  0.1388  0.7514
   21DOPE   H3X 2664   1.913   0.162   8.798  0.6967 -2.3406 -1.6866
   21DOPE   H3Y 2665   1.736   0.195   8.802  0.7588  1.2640  1.2133
   21DOPE   C34 2666   1.799   0.016   8.694  0.4345  0.2872  0.1389
   21DOPE   H4X 2667   1.885  -0.054   8.683  1.5179  1.5230  0.5558
   21DOPE   H4Y 2668   1.708  -0.046   8.709  1.3020 -0.9004  0.7338
   21DOPE   C35 2669   1.770   0.073   8.555 -0.6708  0.1946  0.3396
   21DOPE   H5X 2670   1.865   0.117   8.519 -1.1074  0.7580 -0.1427
   21DOPE   H5Y 2671   1.702   0.158   8.574  0.4873  1.4905 -1.0661
   21DOPE   C36 2672   1.716  -0.028   8.449  0.3518 -0.4381  0.7814
   21DOPE   H6X 2673   1.653  -0.104   8.499 -2.8202  0.6826 -1.2399
   21DOPE   H6Y 2674   1.803  -0.072   8.395 -0.8957  0.1885 -1.8996
   21DOPE   C37 2675   1.627   0.034   8.332 -1.0320 -0.0002 -0.2828
   21DOPE   H7X 2676   1.536   0.088   8.365 -0.0190  0.2338  2.3705
   21DOPE   H7Y 2677   1.700   0.112   8.301 -0.1608  0.0915  1.8420
   21DOPE   C38 2678   1.596  -0.060   8.209 -0.4174 -0.4915 -0.1293
   21DOPE   H8X 2679   1.533   0.002   8.142  0.3610  0.9103  0.3907
   21DOPE   H8Y 2680   1.535  -0.141   8.255 -0.4979  0.0478  0.7316
   21DOPE   C39 2681   1.719  -0.116   8.139 -0.0156 -0.1803 -0.0306
   21DOPE   H9X 2682   1.757  -0.212   8.176 -0.2796 -0.2917 -0.0419
   21DOPE  C310 2683   1.802  -0.047   8.058 -0.0829 -0.1494  0.0773
   21DOPE  H10X 2684   1.872  -0.107   7.999  0.7188  0.3796  0.4579
   21DOPE  C311 2685   1.774   0.091   8.007 -0.0735 -0.2197  0.1464
   21DOPE  H11X 2686   1.771   0.096   7.896  2.9384  0.0055 -0.0137
   21DOPE  H11Y 2687   1.680   0.125   8.056 -0.4276 -1.9299  0.7151
   21DOPE  C312 2688   1.881   0.201   8.044 -0.2493  0.5621  0.0142
   21DOPE  H12X 2689   1.882   0.215   8.154 -0.5078  0.5286  0.0230
   21DOPE  H12Y 2690   1.859   0.302   8.002  1.6929  0.6201 -0.9445
   21DOPE  C313 2691   2.024   0.158   8.005 -0.6281  0.1793  0.1180
   21DOPE  H13X 2692   2.062   0.078   8.072 -1.1636 -0.0537  0.1498
   21DOPE  H13Y 2693   2.020   0.098   7.912 -0.3436  0.2427  0.0648
   21DOPE  C314 2694   2.142   0.264   8.011  0.6279 -0.0931  0.4892
   21DOPE  H14X 2695   2.175   0.284   8.115 -0.2091  0.6896  0.6178
   21DOPE  H14Y 2696   2.109   0.359   7.964 -0.4918 -1.0250 -0.6824
   21DOPE  C315 2697   2.257   0.220   7.934 -0.3900 -0.2988 -0.0933
   21DOPE  H15X 2698   2.231   0.228   7.826  1.8402 -0.5483 -0.6846
   21DOPE  H15Y 2699   2.279   0.112   7.949 -0.9315 -0.1454  2.1382
   21DOPE  C316 2700   2.392   0.293   7.957 -0.1047 -0.7218 -0.1032
   21DOPE  H16X 2701   2.425   0.283   8.063  1.6200  2.4090 -0.1927
   21DOPE  H16Y 2702   2.372   0.397   7.923  0.8168 -0.3779  0.3532
   21DOPE  C317 2703   2.504   0.238   7.859  0.3639 -0.5012 -0.9884
   21DOPE  H17X 2704   2.508   0.131   7.887 -0.7332 -0.6108 -1.2317
   21DOPE  H17Y 2705   2.475   0.261   7.754 -0.8571  0.2498 -0.5034
   21DOPE  C318 2706   2.644   0.308   7.868 -0.4229 -0.1132  0.5444
   21DOPE  H18X 2707   2.653   0.416   7.847  2.3708 -0.0910  1.3798
   21DOPE  H18Y 2708   2.700   0.294   7.963  0.4452  1.1290  0.2337
   21DOPE  H18Z 2709   2.706   0.258   7.790 -0.9841  0.5079 -0.3153
   22DOPE     N 2710   6.263   4.553  10.317 -0.0999  0.1136 -0.1434
   22DOPE   HN1 2711   6.196   4.491  10.266  2.1305 -0.2168 -2.9625
   22DOPE   HN2 2712   6.356   4.506  10.326  1.9753  4.0475  1.4126
   22DOPE   HN3 2713   6.234   4.567  10.415  0.2605 -2.3234  0.3802
   22DOPE   C12 2714   6.281   4.679  10.239 -0.0489  0.2872 -0.1525
   22DOPE  H12A 2715   6.223   4.761  10.286 -0.2633  1.5081 -2.4429
   22DOPE  H12B 2716   6.234   4.663  10.140 -0.3501  3.4171 -0.6060
   22DOPE   C11 2717   6.427   4.717  10.229 -0.1664  0.6271 -0.0330
   22DOPE  H11A 2718   6.471   4.720  10.332 -2.2865 -0.5316  0.9678
   22DOPE  H11B 2719   6.423   4.813  10.174 -1.8335  0.6276  0.0353
   22DOPE     P 2720   6.658   4.626  10.136 -0.0931 -0.4593  0.4765
   22DOPE   O13 2721   6.712   4.494  10.139 -0.2511 -0.1878 -0.1857
   22DOPE   O14 2722   6.715   4.730  10.223  0.2270 -0.1827 -0.1433
   22DOPE   O11 2723   6.669   4.680   9.992  0.3136 -0.4227 -0.2591
   22DOPE   O12 2724   6.496   4.628  10.145  0.3308  0.2962 -0.1215
   22DOPE    C1 2725   6.625   4.603   9.883  0.1318 -0.0812  0.4191
   22DOPE    HA 2726   6.559   4.666   9.820  1.4490  1.0512  0.1215
   22DOPE    HB 2727   6.583   4.502   9.905 -1.3619  0.4149 -0.0329
   22DOPE    C2 2728   6.743   4.572   9.795 -0.5285 -0.4563 -0.7120
   22DOPE    HS 2729   6.825   4.520   9.850 -3.0107 -0.0781  3.8654
   22DOPE   O21 2730   6.786   4.696   9.738  0.0982  0.0227 -0.1772
   22DOPE   C21 2731   6.904   4.707   9.688 -0.1587  0.4526 -0.1159
   22DOPE   O22 2732   6.993   4.621   9.693 -0.7386 -0.1785  0.4590
   22DOPE   C22 2733   6.941   4.851   9.647  0.2365 -0.1886 -0.4558
   22DOPE   H2R 2734   7.018   4.877   9.723  0.0859 -0.0171 -0.3614
   22DOPE   H2S 2735   6.846   4.904   9.665 -1.7902 -3.1492 -1.6088
   22DOPE    C3 2736   6.707   4.470   9.679  0.0078 -0.3910 -0.1180
   22DOPE    HX 2737   6.677   4.375   9.728 -1.9499 -0.6323 -1.6462
   22DOPE    HY 2738   6.799   4.452   9.619  2.4484  2.3955  2.5040
   22DOPE   O31 2739   6.589   4.517   9.604 -0.2081 -0.3614 -0.6792
   22DOPE   C31 2740   6.598   4.567   9.485  0.4508 -0.6991 -0.2776
   22DOPE   O32 2741   6.705   4.577   9.424  0.1296  0.5818  0.4709
   22DOPE   C32 2742   6.463   4.628   9.445 -0.2127  0.1853  1.2469
   22DOPE   H2X 2743   6.380   4.562   9.481  1.5001 -2.1610  1.1563
   22DOPE   H2Y 2744   6.458   4.730   9.487 -0.6301 -0.1572  2.0617
   22DOPE   C23 2745   6.992   4.879   9.504  0.3199  0.1190 -0.2582
   22DOPE   H3R 2746   7.087   4.828   9.478 -0.2985  0.2730 -3.1714
   22DOPE   H3S 2747   7.004   4.990   9.499 -1.9440  0.3623 -1.1561
   22DOPE   C24 2748   6.896   4.844   9.394 -0.1884 -0.2907 -0.1902
   22DOPE   H4R 2749   6.799   4.895   9.413  0.3227 -0.7734  4.9551
   22DOPE   H4S 2750   6.871   4.736   9.390 -1.9841  0.0382  1.1809
   22DOPE   C25 2751   6.965   4.868   9.257  0.1993  0.2951 -0.3143
   22DOPE   H5R 2752   7.046   4.795   9.239  0.7379  0.2839  1.9088
   22DOPE   H5S 2753   7.027   4.960   9.258  1.1361 -0.3249 -0.3258
   22DOPE   C26 2754   6.862   4.855   9.143  0.3073  0.4118 -0.5428
   22DOPE   H6R 2755   6.786   4.935   9.153  1.1868  1.0153  2.0447
   22DOPE   H6S 2756   6.811   4.757   9.159 -1.2772  0.9781 -1.8153
   22DOPE   C27 2757   6.926   4.858   9.003 -0.4781  0.0263 -0.1560
   22DOPE   H7R 2758   7.026   4.810   9.000 -1.0136 -1.0440 -2.2363
   22DOPE   H7S 2759   6.946   4.964   8.979 -0.8113  0.1582  0.1264
   22DOPE   C28 2760   6.852   4.800   8.886 -0.0874  0.1933 -0.0162
   22DOPE   H8R 2761   6.756   4.854   8.893 -0.4195 -0.5590  1.7566
   22DOPE   H8S 2762   6.829   4.693   8.904 -2.6937  0.2121 -2.5031
   22DOPE   C29 2763   6.911   4.815   8.744 -0.4510  0.3325 -0.3800
   22DOPE   H9R 2764   6.950   4.719   8.707  3.3374  0.3036  3.0116
   22DOPE  C210 2765   6.923   4.922   8.670 -0.9325  0.6319  0.1933
   22DOPE  H10R 2766   6.997   4.926   8.589  0.4028  1.5899  1.4241
   22DOPE  C211 2767   6.891   5.062   8.717 -0.1660 -0.2600 -0.0426
   22DOPE  H11R 2768   6.985   5.110   8.753  0.2150  1.0455 -2.5679
   22DOPE  H11S 2769   6.820   5.063   8.802  1.0739  0.7007  1.0259
   22DOPE  C212 2770   6.832   5.136   8.601 -0.1754  0.1070  0.2733
   22DOPE  H12R 2771   6.826   5.242   8.634 -0.2186  0.1602  0.0947
   22DOPE  H12S 2772   6.731   5.100   8.574  0.7901 -1.5455 -1.3632
   22DOPE  C213 2773   6.924   5.141   8.478 -0.5897 -0.0323 -0.0423
   22DOPE  H13R 2774   6.952   5.044   8.430 -1.6994 -0.2792 -0.2181
   22DOPE  H13S 2775   7.015   5.190   8.518 -0.2995 -0.0985 -0.6137
   22DOPE  C214 2776   6.856   5.235   8.376  0.1963 -0.6042 -0.0104
   22DOPE  H14R 2777   6.813   5.324   8.427  0.4679 -0.8707  0.6940
   22DOPE  H14S 2778   6.772   5.182   8.327 -1.8221  2.5674 -0.2310
   22DOPE  C215 2779   6.951   5.266   8.264 -0.1658 -0.7003  0.1254
   22DOPE  H15R 2780   6.997   5.170   8.230  1.2870  0.0434 -0.0967
   22DOPE  H15S 2781   7.037   5.325   8.303  1.3185 -2.8998  0.3719
   22DOPE  C216 2782   6.888   5.356   8.155 -0.5191  0.2431  0.0227
   22DOPE  H16R 2783   6.791   5.306   8.134 -1.5712  1.5011  1.6842
   22DOPE  H16S 2784   6.947   5.351   8.061  1.6415  0.7590  1.2799
   22DOPE  C217 2785   6.873   5.503   8.183 -0.7515  0.4995 -0.4636
   22DOPE  H17R 2786   6.962   5.537   8.239 -1.4946  0.6444  0.6426
   22DOPE  H17S 2787   6.779   5.523   8.239  0.4445  1.8083  1.1688
   22DOPE  C218 2788   6.875   5.589   8.056  0.4132  0.2316  0.1379
   22DOPE  H18R 2789   6.781   5.578   7.998  0.4198 -0.2768  0.2254
   22DOPE  H18S 2790   6.966   5.579   7.992  0.4545 -3.2899  0.5693
   22DOPE  H18T 2791   6.876   5.693   8.095  0.9862 -0.3873  1.8771
   22DOPE   C33 2792   6.452   4.627   9.284 -0.2755 -0.3553 -0.0749
   22DOPE   H3X 2793   6.532   4.695   9.247  0.2937 -1.7119 -1.4598
   22DOPE   H3Y 2794   6.351   4.663   9.254  0.1128  1.2354  0.4379
   22DOPE   C34 2795   6.475   4.480   9.230  0.2546 -0.4438  1.2539
   22DOPE   H4X 2796   6.579   4.451   9.258 -0.0622 -0.9813  1.9001
   22DOPE   H4Y 2797   6.406   4.405   9.273  0.9408 -0.4938  2.2924
   22DOPE   C35 2798   6.438   4.469   9.076  0.6643  0.2335  0.2852
   22DOPE   H5X 2799   6.331   4.498   9.068  0.3058 -1.3103 -1.2450
   22DOPE   H5Y 2800   6.444   4.360   9.055  0.8786  0.5138 -1.2912
   22DOPE   C36 2801   6.525   4.557   8.991 -0.2849 -0.0463  0.2456
   22DOPE   H6X 2802   6.630   4.521   8.993 -0.5178 -0.8787 -1.1733
   22DOPE   H6Y 2803   6.518   4.664   9.020  0.0051  0.4021 -1.2309
   22DOPE   C37 2804   6.470   4.546   8.849 -0.6261 -0.6006  0.3499
   22DOPE   H7X 2805   6.452   4.444   8.810 -3.0293 -0.0640 -0.1332
   22DOPE   H7Y 2806   6.367   4.586   8.861  0.0382  1.4178 -0.2792
   22DOPE   C38 2807   6.543   4.627   8.744  1.0441 -0.4329 -0.9071
   22DOPE   H8X 2808   6.582   4.716   8.798 -0.1521 -0.1792 -0.4385
   22DOPE   H8Y 2809   6.463   4.665   8.676  0.4282 -1.1737 -0.6006
   22DOPE   C39 2810   6.652   4.554   8.662  0.4485 -0.0963 -0.2647
   22DOPE   H9X 2811   6.685   4.457   8.702 -1.3578 -0.4242  0.5467
   22DOPE  C310 2812   6.680   4.587   8.540 -0.3787  0.7010 -0.1058
   22DOPE  H10X 2813   6.761   4.528   8.493 -2.3960 -3.3051  0.9413
   22DOPE  C311 2814   6.622   4.697   8.459  0.0857  0.0560 -0.1577
   22DOPE  H11X 2815   6.530   4.668   8.403 -0.3700 -0.3712  0.7968
   22DOPE  H11Y 2816   6.602   4.792   8.514  1.1244  0.7892 -0.9850
   22DOPE  C312 2817   6.719   4.730   8.341 -0.1507 -0.2307 -0.0727
   22DOPE  H12X 2818   6.729   4.640   8.277  0.8218 -0.0417 -0.2052
   22DOPE  H12Y 2819   6.821   4.745   8.385 -0.1903 -1.4205  0.4657
   22DOPE  C313 2820   6.671   4.851   8.266 -0.6127  0.1799  0.1257
   22DOPE  H13X 2821   6.562   4.845   8.245 -0.7782  0.2639  0.9045
   22DOPE  H13Y 2822   6.665   4.940   8.333 -2.4738 -0.0584  0.3261
   22DOPE  C314 2823   6.760   4.893   8.145 -0.0774  0.9453 -0.7135
   22DOPE  H14X 2824   6.761   4.795   8.093 -1.8015  0.0139  0.8497
   22DOPE  H14Y 2825   6.862   4.922   8.177 -0.6735  2.4785 -0.1339
   22DOPE  C315 2826   6.703   5.011   8.064  0.6091 -0.8037 -0.0220
   22DOPE  H15X 2827   6.686   5.098   8.131 -0.6493  2.1108 -3.7603
   22DOPE  H15Y 2828   6.602   4.984   8.025  0.9540  0.1169 -1.6307
   22DOPE  C316 2829   6.783   5.045   7.938  0.1410  0.6243 -0.1371
   22DOPE  H16X 2830   6.891   5.042   7.967 -0.1751  0.0865  1.0755
   22DOPE  H16Y 2831   6.761   5.145   7.895 -1.3562  0.0065 -0.8672
   22DOPE  C317 2832   6.752   4.945   7.823  0.5785 -0.1205 -0.0064
   22DOPE  H17X 2833   6.794   4.843   7.832  0.4075 -0.1775  0.1654
   22DOPE  H17Y 2834   6.641   4.945   7.824  0.5111 -2.0415  2.2960
   22DOPE  C318 2835   6.808   5.011   7.691  1.0938  0.8520  0.1787
   22DOPE  H18X 2836   6.918   4.997   7.702  0.7021 -2.0702  1.3251
   22DOPE  H18Y 2837   6.779   4.956   7.599 -0.5212  0.5486  0.8377
   22DOPE  H18Z 2838   6.788   5.120   7.691  1.3170  0.9489 -2.4413
   23DOPE     N 2839   3.429   0.343  10.493  0.0245  0.2989 -0.1332
   23DOPE   HN1 2840   3.480   0.317  10.580 -0.9488  3.0582  1.4041
   23DOPE   HN2 2841   3.339   0.291  10.502 -0.9951  2.2008  1.4695
   23DOPE   HN3 2842   3.485   0.306  10.414 -0.7941 -0.2157 -0.4745
   23DOPE   C12 2843   3.411   0.491  10.472  0.6150  0.5049  0.8371
   23DOPE  H12A 2844   3.508   0.543  10.488  0.6842  1.1358 -1.3348
   23DOPE  H12B 2845   3.339   0.536  10.545 -2.0975  1.0741 -1.9747
   23DOPE   C11 2846   3.339   0.521  10.338 -0.4023  0.0261 -0.4437
   23DOPE  H11A 2847   3.345   0.629  10.312  0.7903  0.1326  0.2290
   23DOPE  H11B 2848   3.234   0.486  10.349  0.4399 -2.0854  1.8154
   23DOPE     P 2849   3.335   0.430  10.102  0.0265  0.0233  0.6988
   23DOPE   O13 2850   3.206   0.366  10.123 -0.7129 -0.3473  0.0963
   23DOPE   O14 2851   3.436   0.369  10.015  0.3631 -0.3027 -0.1783
   23DOPE   O11 2852   3.304   0.580  10.070  0.1381  0.1612  0.0868
   23DOPE   O12 2853   3.409   0.448  10.240  0.2786  0.0952  0.1336
   23DOPE    C1 2854   3.400   0.686  10.068  0.1371 -0.8233 -0.3288
   23DOPE    HA 2855   3.495   0.665  10.122  0.9295  3.4663  0.3480
   23DOPE    HB 2856   3.360   0.780  10.111  2.4330 -0.4281  1.1025
   23DOPE    C2 2857   3.441   0.723   9.917  0.2197 -0.9199 -0.7074
   23DOPE    HS 2858   3.349   0.753   9.862 -0.1204  0.4072  0.5230
   23DOPE   O21 2859   3.500   0.606   9.857 -0.2263 -0.0731 -0.0088
   23DOPE   C21 2860   3.426   0.550   9.771  0.3770 -0.1101 -0.1241
   23DOPE   O22 2861   3.312   0.585   9.734  0.0663 -0.2705 -0.1076
   23DOPE   C22 2862   3.507   0.439   9.703 -0.1097  0.1422 -0.4574
   23DOPE   H2R 2863   3.549   0.375   9.784 -0.9924  2.5034  2.0488
   23DOPE   H2S 2864   3.589   0.483   9.641  1.4986 -2.1334 -0.0572
   23DOPE    C3 2865   3.544   0.842   9.897 -0.5896  0.3122  0.1132
   23DOPE    HX 2866   3.638   0.816   9.950 -0.0485  1.6041 -0.1639
   23DOPE    HY 2867   3.501   0.932   9.947 -2.0807 -1.1610  1.6272
   23DOPE   O31 2868   3.567   0.880   9.759  0.1922  0.1807 -0.5918
   23DOPE   C31 2869   3.661   0.819   9.700 -0.4669 -0.3276  0.6018
   23DOPE   O32 2870   3.743   0.745   9.754 -0.0266  0.2072 -0.2937
   23DOPE   C32 2871   3.667   0.848   9.549  0.0077 -0.4337  0.3838
   23DOPE   H2X 2872   3.566   0.855   9.503 -0.9721 -1.0983  2.3170
   23DOPE   H2Y 2873   3.715   0.948   9.545  0.7588 -0.8145 -0.8923
   23DOPE   C23 2874   3.414   0.353   9.613 -0.4595 -0.6223 -0.8173
   23DOPE   H3R 2875   3.315   0.348   9.664  0.5553 -0.1991  1.2573
   23DOPE   H3S 2876   3.457   0.251   9.611  1.5030  0.1318  0.4400
   23DOPE   C24 2877   3.403   0.401   9.472 -0.2083  0.3530  0.0585
   23DOPE   H4R 2878   3.378   0.509   9.485 -0.5539  0.1375  1.2844
   23DOPE   H4S 2879   3.316   0.345   9.433  0.8421 -0.7781 -0.7405
   23DOPE   C25 2880   3.514   0.375   9.370  0.6149  0.7706 -0.5136
   23DOPE   H5R 2881   3.547   0.273   9.400 -0.0689  0.9230  0.8362
   23DOPE   H5S 2882   3.598   0.435   9.412 -0.7705  0.8012  2.4279
   23DOPE   C26 2883   3.503   0.397   9.221 -0.0648 -0.1885 -0.1619
   23DOPE   H6R 2884   3.600   0.358   9.184  0.6474  0.6275  0.7942
   23DOPE   H6S 2885   3.495   0.505   9.199  0.0061 -0.3106 -0.8115
   23DOPE   C27 2886   3.385   0.324   9.155 -0.3382  0.4450 -0.3803
   23DOPE   H7R 2887   3.299   0.392   9.172 -1.4474 -0.9539 -0.1940
   23DOPE   H7S 2888   3.364   0.224   9.198  0.7817 -0.4876 -1.8996
   23DOPE   C28 2889   3.412   0.290   9.006 -0.3806  0.5053  0.2450
   23DOPE   H8R 2890   3.493   0.214   8.995 -0.3092  0.3758  1.5333
   23DOPE   H8S 2891   3.464   0.383   8.974  2.4801 -0.2884  2.2127
   23DOPE   C29 2892   3.290   0.265   8.918 -0.1980  0.7462 -0.7171
   23DOPE   H9R 2893   3.206   0.309   8.973  0.4379  1.7570 -0.5236
   23DOPE  C210 2894   3.284   0.201   8.803  0.3438  0.1496  0.0133
   23DOPE  H10R 2895   3.188   0.199   8.748  0.4954 -1.3484 -0.2341
   23DOPE  C211 2896   3.394   0.145   8.726  0.1947 -0.6867  0.1860
   23DOPE  H11R 2897   3.402   0.034   8.722 -2.5510 -0.9217 -2.2943
   23DOPE  H11S 2898   3.486   0.184   8.774 -0.1588 -0.7905  0.9558
   23DOPE  C212 2899   3.370   0.204   8.589 -0.0817 -0.0245  0.4211
   23DOPE  H12R 2900   3.369   0.315   8.589  2.6371  0.0744 -0.4380
   23DOPE  H12S 2901   3.282   0.166   8.534  0.8779  0.6379 -1.6751
   23DOPE  C213 2902   3.486   0.154   8.499  0.1346  0.7237 -0.7396
   23DOPE  H13R 2903   3.479   0.044   8.503  0.7667  0.6817 -0.7608
   23DOPE  H13S 2904   3.590   0.160   8.538  1.2146 -1.3756 -3.0175
   23DOPE  C214 2905   3.482   0.204   8.354  0.3819 -0.5192 -0.6025
   23DOPE  H14R 2906   3.526   0.306   8.361 -1.7062  0.3443  3.7034
   23DOPE  H14S 2907   3.380   0.217   8.312  0.4775  0.5259 -0.5386
   23DOPE  C215 2908   3.566   0.115   8.265 -0.8222  0.0680  0.3654
   23DOPE  H15R 2909   3.511   0.019   8.262 -0.3751 -0.1969 -2.4087
   23DOPE  H15S 2910   3.666   0.096   8.309  0.3098  1.4750 -1.4150
   23DOPE  C216 2911   3.583   0.153   8.123 -0.2367 -0.3774  0.5583
   23DOPE  H16R 2912   3.644   0.084   8.060  0.1736  1.4215 -1.0979
   23DOPE  H16S 2913   3.631   0.253   8.119 -1.8299  0.3820 -1.4129
   23DOPE  C217 2914   3.452   0.165   8.044 -0.5206  0.4223  0.2490
   23DOPE  H17R 2915   3.448   0.254   7.978 -0.9962 -2.4745 -4.0950
   23DOPE  H17S 2916   3.368   0.186   8.114  0.6295  2.7137  1.0123
   23DOPE  C218 2917   3.414   0.041   7.960  0.0567 -0.2319  0.5546
   23DOPE  H18R 2918   3.481   0.043   7.871  0.7025  1.8578  1.0435
   23DOPE  H18S 2919   3.307   0.053   7.934  0.4921 -1.1902 -1.9822
   23DOPE  H18T 2920   3.427  -0.049   8.023  0.4599 -0.6206 -0.0727
   23DOPE   C33 2921   3.740   0.739   9.473  0.2370  0.3375  0.0465
   23DOPE   H3X 2922   3.679   0.646   9.483 -2.0987  2.0288  2.8361
   23DOPE   H3Y 2923   3.839   0.718   9.518  0.1842 -0.7234 -0.2916
   23DOPE   C34 2924   3.752   0.764   9.326 -0.1194 -0.2783 -0.7960
   23DOPE   H4X 2925   3.653   0.788   9.283 -0.1505 -0.1546 -0.6559
   23DOPE   H4Y 2926   3.817   0.853   9.309 -0.3264 -0.7060 -4.9018
   23DOPE   C35 2927   3.810   0.654   9.236  0.1877  0.3742  0.1790
   23DOPE   H5X 2928   3.754   0.558   9.244  0.3816  0.1235 -1.2217
   23DOPE   H5Y 2929   3.917   0.634   9.256 -0.2283 -2.0065  0.2985
   23DOPE   C36 2930   3.799   0.680   9.084  0.1779 -0.7406  0.1891
   23DOPE   H6X 2931   3.871   0.762   9.063  1.0960 -0.8472  2.6293
   23DOPE   H6Y 2932   3.693   0.710   9.067 -0.0152 -1.9386 -0.8887
   23DOPE   C37 2933   3.828   0.555   8.999  0.8041  0.1374  0.0213
   23DOPE   H7X 2934   3.930   0.517   9.018  0.4402 -1.4742 -1.0657
   23DOPE   H7Y 2935   3.747   0.490   9.039  0.7771  1.3153  2.0143
   23DOPE   C38 2936   3.810   0.581   8.848  0.3660 -0.3817  0.3466
   23DOPE   H8X 2937   3.896   0.638   8.807 -0.2516 -0.6048 -1.3256
   23DOPE   H8Y 2938   3.718   0.641   8.835  0.9853  0.3884 -0.5775
   23DOPE   C39 2939   3.809   0.450   8.780  0.1814  0.1921 -0.3446
   23DOPE   H9X 2940   3.857   0.371   8.840 -0.2686  0.8304  0.8860
   23DOPE  C310 2941   3.757   0.414   8.662 -0.1323 -0.5870  0.5157
   23DOPE  H10X 2942   3.761   0.311   8.622 -1.5508 -0.9654  1.2567
   23DOPE  C311 2943   3.695   0.508   8.567 -0.0938  0.0821 -0.5420
   23DOPE  H11X 2944   3.584   0.504   8.560 -0.0588 -1.9738 -0.6120
   23DOPE  H11Y 2945   3.723   0.611   8.597  0.0522 -0.6595  2.0955
   23DOPE  C312 2946   3.742   0.479   8.423 -1.2921 -0.1094  0.4894
   23DOPE  H12X 2947   3.670   0.526   8.352 -1.9421  0.6825  1.6496
   23DOPE  H12Y 2948   3.738   0.371   8.396  0.5239 -0.2207  0.5449
   23DOPE  C313 2949   3.888   0.527   8.387  1.0458 -0.3705  0.2994
   23DOPE  H13X 2950   3.894   0.637   8.401  0.6322 -0.4339  1.0263
   23DOPE  H13Y 2951   3.963   0.480   8.454  2.1152 -1.2272 -1.4476
   23DOPE  C314 2952   3.938   0.486   8.256 -0.1602  0.1620  0.8020
   23DOPE  H14X 2953   3.869   0.521   8.176 -1.3399 -2.2851  0.6887
   23DOPE  H14Y 2954   3.955   0.377   8.248  2.0932  0.3370  2.1468
   23DOPE  C315 2955   4.084   0.548   8.238 -0.0104 -0.5605  0.8159
   23DOPE  H15X 2956   4.145   0.535   8.330  1.2952 -0.4744 -0.0031
   23DOPE  H15Y 2957   4.068   0.658   8.233  1.7474 -0.3023  0.2336
   23DOPE  C316 2958   4.150   0.507   8.111 -0.5061  0.6144 -0.4255
   23DOPE  H16X 2959   4.094   0.521   8.016 -0.6839 -1.8641 -0.7526
   23DOPE  H16Y 2960   4.162   0.396   8.106  0.4087  0.6679  0.4345
   23DOPE  C317 2961   4.290   0.560   8.089 -0.0420 -0.3928 -0.4779
   23DOPE  H17X 2962   4.276   0.670   8.090  0.0768 -0.3761 -0.5589
   23DOPE  H17Y 2963   4.353   0.537   8.177 -1.2762  2.6173  1.3408
   23DOPE  C318 2964   4.356   0.525   7.958 -0.3499  0.2346  0.0723
   23DOPE  H18X 2965   4.410   0.617   7.925  1.7855 -1.0122 -0.0775
   23DOPE  H18Y 2966   4.422   0.438   7.977 -0.1900  0.1203 -0.9563
   23DOPE  H18Z 2967   4.287   0.491   7.878  0.5357  0.3304 -0.7558
   24DOPE     N 2968   4.878   5.290  10.184  0.1342 -0.0695  0.5743
   24DOPE   HN1 2969   4.812   5.211  10.202  1.0446 -0.9503  0.1158
   24DOPE   HN2 2970   4.964   5.279  10.240  0.8856  1.6276 -0.1797
   24DOPE   HN3 2971   4.831   5.375  10.221 -1.5051  0.8081 -3.0217
   24DOPE   C12 2972   4.909   5.310  10.038  0.9265  0.2977 -0.9568
   24DOPE  H12A 2973   4.832   5.370   9.988 -0.7801  0.1428  1.3263
   24DOPE  H12B 2974   4.907   5.209   9.991  0.6743 -0.7061  1.0557
   24DOPE   C11 2975   5.043   5.376  10.020  0.4331 -0.0923  0.1920
   24DOPE  H11A 2976   5.066   5.392   9.912  1.4431  1.5945  0.6202
   24DOPE  H11B 2977   5.130   5.312  10.047  0.4494  0.3381  1.1685
   24DOPE     P 2978   5.131   5.534  10.209 -0.1561 -0.1273  0.2997
   24DOPE   O13 2979   5.223   5.422  10.229  0.3662 -0.1060  0.3391
   24DOPE   O14 2980   5.043   5.596  10.312  0.6214 -0.2394 -0.0306
   24DOPE   O11 2981   5.216   5.646  10.144 -0.5212  0.0780 -0.1607
   24DOPE   O12 2982   5.039   5.511  10.079  0.0120 -0.2438 -0.1994
   24DOPE    C1 2983   5.246   5.669  10.010  0.2482 -0.0728  0.3642
   24DOPE    HA 2984   5.233   5.574   9.953 -1.3030 -0.5594  1.4698
   24DOPE    HB 2985   5.356   5.687  10.003  0.5876 -1.9836 -0.0103
   24DOPE    C2 2986   5.151   5.781   9.965 -0.9018 -0.0947 -0.1195
   24DOPE    HS 2987   5.047   5.752   9.988 -1.2508  0.2294 -1.2055
   24DOPE   O21 2988   5.164   5.798   9.820 -0.2572  0.5810 -0.4434
   24DOPE   C21 2989   5.056   5.844   9.760  0.1703  1.0252 -0.1331
   24DOPE   O22 2990   4.949   5.858   9.815  0.2080 -0.4238 -0.5304
   24DOPE   C22 2991   5.092   5.868   9.612  0.4342 -0.5697  1.0542
   24DOPE   H2R 2992   5.187   5.926   9.606  0.5605 -0.9273 -1.3602
   24DOPE   H2S 2993   5.016   5.935   9.567  0.4222 -0.5406  1.1164
   24DOPE    C3 2994   5.186   5.910  10.050  0.8773  0.2800 -0.4489
   24DOPE    HX 2995   5.290   5.943  10.028  0.8828 -0.2160 -1.1944
   24DOPE    HY 2996   5.181   5.877  10.156 -0.3250  0.4193 -0.4499
   24DOPE   O31 2997   5.094   6.020  10.026 -0.3886  0.3293 -0.1753
   24DOPE   C31 2998   5.104   6.117  10.109 -0.7371 -0.1828 -1.0864
   24DOPE   O32 2999   5.182   6.128  10.199 -0.6259 -0.6272  0.0105
   24DOPE   C32 3000   4.987   6.217  10.092 -0.0329  0.5014  0.1003
   24DOPE   H2X 3001   4.908   6.151  10.050 -0.6951  0.2095  1.7407
   24DOPE   H2Y 3002   4.952   6.251  10.191  2.7602  1.0183  1.0194
   24DOPE   C23 3003   5.101   5.735   9.532  0.3034 -0.6072 -0.0298
   24DOPE   H3R 3004   5.009   5.675   9.551 -0.8752  1.0439 -0.2720
   24DOPE   H3S 3005   5.189   5.678   9.569  1.4129  0.4963 -0.8810
   24DOPE   C24 3006   5.117   5.744   9.379  0.5444 -0.6237 -0.2355
   24DOPE   H4R 3007   5.218   5.785   9.354  1.0344 -1.0169  0.9865
   24DOPE   H4S 3008   5.042   5.811   9.333 -0.7407 -3.6934 -3.0363
   24DOPE   C25 3009   5.084   5.609   9.314  0.1877  0.3432 -0.2581
   24DOPE   H5R 3010   4.973   5.618   9.313  0.3523  4.5686  0.1741
   24DOPE   H5S 3011   5.104   5.527   9.386 -1.3006 -1.4184 -1.7312
   24DOPE   C26 3012   5.160   5.576   9.181 -0.2942 -0.0965  0.4252
   24DOPE   H6R 3013   5.124   5.476   9.148 -2.9938  1.0265 -0.3533
   24DOPE   H6S 3014   5.270   5.574   9.196  0.1155 -0.6686 -2.1432
   24DOPE   C27 3015   5.130   5.676   9.075 -0.4093  0.3173 -0.6632
   24DOPE   H7R 3016   5.166   5.777   9.106  0.7972 -0.2876 -0.0160
   24DOPE   H7S 3017   5.020   5.669   9.061 -0.2153 -2.2041 -1.3445
   24DOPE   C28 3018   5.199   5.633   8.938 -0.2371 -0.0148 -0.1734
   24DOPE   H8R 3019   5.164   5.533   8.905  2.4718 -0.7186 -1.2631
   24DOPE   H8S 3020   5.309   5.629   8.957 -0.2790  1.3499  0.4298
   24DOPE   C29 3021   5.167   5.740   8.836 -0.5706  0.4385  0.9966
   24DOPE   H9R 3022   5.216   5.836   8.856  2.5613 -1.2581  2.2284
   24DOPE  C210 3023   5.099   5.725   8.716 -0.6700  0.3136 -0.1311
   24DOPE  H10R 3024   5.082   5.813   8.652  3.9145  0.3912 -1.6237
   24DOPE  C211 3025   5.040   5.602   8.664  0.2812  0.2990  0.8544
   24DOPE  H11R 3026   4.929   5.606   8.665  0.0838 -2.3039 -0.7939
   24DOPE  H11S 3027   5.062   5.519   8.735  2.2946 -0.9507 -1.1116
   24DOPE  C212 3028   5.098   5.579   8.526 -0.6440  0.3407 -0.1730
   24DOPE  H12R 3029   5.207   5.565   8.514 -0.4590  0.1987  1.4152
   24DOPE  H12S 3030   5.069   5.665   8.461  0.7305  0.3433 -0.7978
   24DOPE  C213 3031   5.044   5.447   8.460 -0.5532  0.2822  0.4274
   24DOPE  H13R 3032   5.039   5.368   8.539 -0.4765 -1.2425 -1.0400
   24DOPE  H13S 3033   5.129   5.414   8.397  1.1394 -0.8711  3.0900
   24DOPE  C214 3034   4.919   5.472   8.378 -0.1576 -0.1330 -0.6553
   24DOPE  H14R 3035   4.928   5.549   8.299  3.7189 -2.7697 -3.1253
   24DOPE  H14S 3036   4.839   5.504   8.448  1.4702  2.6253  0.0905
   24DOPE  C215 3037   4.882   5.342   8.305  0.6094 -0.0378  0.0360
   24DOPE  H15R 3038   4.916   5.253   8.361 -0.0865 -1.8289 -2.2493
   24DOPE  H15S 3039   4.939   5.335   8.210  0.3112 -0.7711 -0.0933
   24DOPE  C216 3040   4.740   5.324   8.281  1.1489 -0.6897 -0.4069
   24DOPE  H16R 3041   4.703   5.408   8.219  1.7446  0.2404  0.4699
   24DOPE  H16S 3042   4.692   5.320   8.381  2.4674 -1.7888  0.2175
   24DOPE  C217 3043   4.700   5.194   8.214 -0.0443  0.0319  0.1192
   24DOPE  H17R 3044   4.755   5.102   8.244  1.1830  0.3984 -0.9074
   24DOPE  H17S 3045   4.715   5.204   8.104 -1.9255  0.2507 -0.1406
   24DOPE  C218 3046   4.548   5.169   8.211 -0.1204  0.8720 -0.2596
   24DOPE  H18R 3047   4.510   5.167   8.316  1.6632 -1.9471  0.4371
   24DOPE  H18S 3048   4.529   5.065   8.178 -0.0673  1.5535 -2.5804
   24DOPE  H18T 3049   4.493   5.241   8.147  1.9888  1.2745 -1.7157
   24DOPE   C33 3050   5.030   6.343  10.005  0.1459 -0.1652  0.1187
   24DOPE   H3X 3051   5.137   6.346   9.973 -0.1149  2.5512 -0.7414
   24DOPE   H3Y 3052   5.016   6.432  10.069 -1.5649 -0.1825 -0.1927
   24DOPE   C34 3053   4.946   6.373   9.878 -0.4007  0.6994 -0.2140
   24DOPE   H4X 3054   4.840   6.388   9.907  0.4762  1.7050  2.9676
   24DOPE   H4Y 3055   4.991   6.471   9.849  2.2395 -0.0191  1.1051
   24DOPE   C35 3056   4.969   6.268   9.764 -0.4995 -0.3479  0.2256
   24DOPE   H5X 3057   4.922   6.168   9.779 -0.4704 -0.7085 -1.8063
   24DOPE   H5Y 3058   5.076   6.242   9.776 -0.6118 -2.2603 -2.1382
   24DOPE   C36 3059   4.967   6.326   9.625 -0.2642  0.4184 -0.6425
   24DOPE   H6X 3060   5.030   6.418   9.626  0.3470 -0.0060 -0.1007
   24DOPE   H6Y 3061   4.864   6.358   9.595 -0.8146 -2.2002 -1.8250
   24DOPE   C37 3062   5.003   6.223   9.514  0.1481  0.4523  0.4011
   24DOPE   H7X 3063   5.097   6.172   9.542 -1.0619 -1.6888  0.8300
   24DOPE   H7Y 3064   4.927   6.143   9.502  1.0480 -0.2993 -0.4765
   24DOPE   C38 3065   5.018   6.287   9.383 -0.3902 -0.4384  0.0738
   24DOPE   H8X 3066   4.934   6.360   9.376  0.8844  1.0033 -0.9924
   24DOPE   H8Y 3067   5.021   6.212   9.302 -0.7812 -1.3383  0.8828
   24DOPE   C39 3068   5.146   6.364   9.373  0.4250 -0.1571 -0.2194
   24DOPE   H9X 3069   5.178   6.414   9.466  2.5811  2.5082 -2.2177
   24DOPE  C310 3070   5.240   6.373   9.276  0.3663 -0.2811  0.3305
   24DOPE  H10X 3071   5.327   6.432   9.309  0.4662  0.0258 -0.4738
   24DOPE  C311 3072   5.246   6.303   9.144 -0.0404  0.2012  0.1990
   24DOPE  H11X 3073   5.150   6.251   9.126 -0.6118 -0.0145  3.2685
   24DOPE  H11Y 3074   5.245   6.377   9.062 -0.7217  0.9646  0.8871
   24DOPE  C312 3075   5.361   6.203   9.134  1.0180  0.3769  0.5174
   24DOPE  H12X 3076   5.342   6.121   9.208 -1.2301 -0.7031 -1.1505
   24DOPE  H12Y 3077   5.461   6.248   9.153  1.4234 -0.8151  1.3531
   24DOPE  C313 3078   5.375   6.117   8.996  0.1090  0.1908  0.2120
   24DOPE  H13X 3079   5.469   6.061   9.014  1.5790  2.8074  1.1957
   24DOPE  H13Y 3080   5.295   6.040   8.986  0.7839 -0.3874 -0.8402
   24DOPE  C314 3081   5.378   6.201   8.873  0.4903  0.1964 -0.4482
   24DOPE  H14X 3082   5.463   6.272   8.878  0.1712  0.6403 -1.1858
   24DOPE  H14Y 3083   5.286   6.264   8.877 -0.9990 -1.8337 -1.0094
   24DOPE  C315 3084   5.393   6.123   8.744 -0.5586  0.2640  0.0805
   24DOPE  H15X 3085   5.308   6.052   8.748 -1.4878  1.2917 -0.7721
   24DOPE  H15Y 3086   5.488   6.066   8.747  0.6188  2.1062 -0.0317
   24DOPE  C316 3087   5.387   6.193   8.610 -0.2396 -0.0623  0.3690
   24DOPE  H16X 3088   5.478   6.255   8.602  2.7120 -4.1023 -0.4704
   24DOPE  H16Y 3089   5.301   6.263   8.610  0.1892  0.4973  1.4604
   24DOPE  C317 3090   5.359   6.097   8.500 -0.2114  0.3671  0.3100
   24DOPE  H17X 3091   5.443   6.024   8.493  1.8850  2.7738 -1.3122
   24DOPE  H17Y 3092   5.271   6.033   8.522  0.3503 -1.7774 -2.8817
   24DOPE  C318 3093   5.352   6.160   8.358  0.1803  0.0957 -0.4846
   24DOPE  H18X 3094   5.334   6.091   8.274 -1.3007  0.8297 -0.7995
   24DOPE  H18Y 3095   5.267   6.231   8.367  0.1226 -0.2512  4.2998
   24DOPE  H18Z 3096   5.446   6.214   8.334  0.9626 -1.6508 -1.4944
   25DOPE     N 3097   0.227   5.176  10.470  0.2069 -0.5215  0.1218
   25DOPE   HN1 3098   0.197   5.276  10.472  0.2849 -0.5134  1.1764
   25DOPE   HN2 3099   0.304   5.165  10.539 -0.8515  1.6970  1.8265
   25DOPE   HN3 3100   0.263   5.161  10.374  0.3834  0.7173 -0.0246
   25DOPE   C12 3101   0.121   5.068  10.491 -0.6438 -0.7192 -0.8026
   25DOPE  H12A 3102   0.060   5.111  10.573  1.5586  0.3024  0.3951
   25DOPE  H12B 3103   0.161   4.972  10.531 -1.5400 -0.6969  0.1876
   25DOPE   C11 3104   0.041   5.045  10.369 -0.5550 -0.3355 -0.1452
   25DOPE  H11A 3105  -0.043   4.974  10.381 -0.8431 -0.1531 -1.0156
   25DOPE  H11B 3106   0.112   5.001  10.295  0.6066  5.3410 -2.9640
   25DOPE     P 3107  -0.113   5.186  10.198 -0.0476  0.1121  0.1729
   25DOPE   O13 3108  -0.099   5.326  10.144 -0.2223  0.2221  0.0796
   25DOPE   O14 3109  -0.249   5.148  10.236  0.1508  0.1060 -0.2313
   25DOPE   O11 3110  -0.054   5.090  10.088 -0.1376  0.1040  0.0367
   25DOPE   O12 3111  -0.007   5.176  10.316 -0.0556 -0.0887  0.4629
   25DOPE    C1 3112   0.066   5.107  10.015  0.1291  0.0662  0.3011
   25DOPE    HA 3113   0.122   5.012  10.004  1.7099  0.9180  0.6060
   25DOPE    HB 3114   0.133   5.172  10.076  0.5439  0.6477 -0.7345
   25DOPE    C2 3115   0.037   5.174   9.875  0.0918 -0.7374 -0.5874
   25DOPE    HS 3116   0.008   5.280   9.887  1.1594 -0.2892 -1.8024
   25DOPE   O21 3117  -0.062   5.105   9.804  0.0512 -0.5387  0.1398
   25DOPE   C21 3118  -0.156   5.170   9.737 -0.3746 -0.2787  0.4393
   25DOPE   O22 3119  -0.170   5.291   9.736  0.8154  0.3403 -0.1409
   25DOPE   C22 3120  -0.213   5.074   9.638 -0.5381 -0.5795  0.6358
   25DOPE   H2R 3121  -0.245   4.978   9.684 -1.1655 -0.6165  0.1212
   25DOPE   H2S 3122  -0.133   5.046   9.566 -0.5482 -0.7376  0.6850
   25DOPE    C3 3123   0.171   5.178   9.786 -0.2423  0.1225 -0.4461
   25DOPE    HX 3124   0.213   5.075   9.775  2.3436  1.2290 -1.7842
   25DOPE    HY 3125   0.252   5.234   9.837 -0.0350  0.2508 -0.9140
   25DOPE   O31 3126   0.144   5.235   9.658  0.3782 -0.0297 -0.1365
   25DOPE   C31 3127   0.186   5.356   9.626 -0.2337 -0.4847  0.0699
   25DOPE   O32 3128   0.243   5.431   9.705  0.0770 -0.4481 -0.2069
   25DOPE   C32 3129   0.155   5.387   9.479  0.0879  0.2196 -0.4727
   25DOPE   H2X 3130   0.151   5.498   9.483 -0.0950  0.2718 -1.6772
   25DOPE   H2Y 3131   0.242   5.356   9.418  1.5386  0.6103  1.3048
   25DOPE   C23 3132  -0.328   5.139   9.554  0.2120 -0.0405  1.0529
   25DOPE   H3R 3133  -0.299   5.200   9.466  1.4885 -0.4997  1.1401
   25DOPE   H3S 3134  -0.378   5.214   9.620  0.7452  1.2951  0.0008
   25DOPE   C24 3135  -0.426   5.030   9.522  0.1464  0.3094  0.2080
   25DOPE   H4R 3136  -0.471   5.001   9.620 -0.4055 -0.3798 -0.2414
   25DOPE   H4S 3137  -0.366   4.950   9.475 -1.4681  0.5089 -2.3762
   25DOPE   C25 3138  -0.538   5.075   9.422  0.0751  0.5607 -0.2368
   25DOPE   H5R 3139  -0.589   5.169   9.452 -1.2442 -0.0835 -0.3942
   25DOPE   H5S 3140  -0.618   4.999   9.428 -0.2004  0.4653 -3.3509
   25DOPE   C26 3141  -0.500   5.096   9.274  0.0076 -0.7197  0.5283
   25DOPE   H6R 3142  -0.415   5.166   9.259 -1.4679  0.6352 -2.3686
   25DOPE   H6S 3143  -0.581   5.154   9.225  2.0755  1.2456 -0.7992
   25DOPE   C27 3144  -0.480   4.969   9.194 -0.0537 -0.0960  0.0550
   25DOPE   H7R 3145  -0.561   4.893   9.193  0.2460 -0.4413 -1.6661
   25DOPE   H7S 3146  -0.400   4.914   9.250 -0.1134 -0.9373 -0.6560
   25DOPE   C28 3147  -0.434   4.988   9.047 -0.3463  0.1727 -0.3041
   25DOPE   H8R 3148  -0.393   4.895   9.003  0.1786 -0.0773  0.6993
   25DOPE   H8S 3149  -0.353   5.064   9.049 -1.1583  1.1313 -1.4665
   25DOPE   C29 3150  -0.536   5.053   8.962  0.3599 -0.9969  0.6966
   25DOPE   H9R 3151  -0.607   5.107   9.026  1.3687 -1.1552  1.9840
   25DOPE  C210 3152  -0.540   5.054   8.825 -0.1094 -0.7299 -0.1783
   25DOPE  H10R 3153  -0.629   5.104   8.783 -1.0092 -0.3914  1.9735
   25DOPE  C211 3154  -0.447   4.979   8.731 -0.4372  0.5245  0.3408
   25DOPE  H11R 3155  -0.491   4.880   8.703  0.5987  0.6510 -2.0163
   25DOPE  H11S 3156  -0.362   4.939   8.790 -0.0677 -1.8984 -1.6449
   25DOPE  C212 3157  -0.384   5.049   8.607 -0.0501  0.6097  0.2543
   25DOPE  H12R 3158  -0.307   4.979   8.570  0.6544 -1.5232  4.9852
   25DOPE  H12S 3159  -0.337   5.142   8.644  0.0524  0.3286  0.8460
   25DOPE  C213 3160  -0.483   5.088   8.499 -0.1281  0.4520 -0.6110
   25DOPE  H13R 3161  -0.562   5.152   8.543 -1.2558 -1.5412  0.3982
   25DOPE  H13S 3162  -0.536   4.997   8.461  1.3369 -1.4890  1.6788
   25DOPE  C214 3163  -0.423   5.168   8.390 -0.1841  0.6020 -0.0920
   25DOPE  H14R 3164  -0.332   5.127   8.341 -0.1370  3.1694 -2.3752
   25DOPE  H14S 3165  -0.390   5.265   8.430 -0.8214  1.0870 -0.7078
   25DOPE  C215 3166  -0.515   5.207   8.268 -0.4028  0.0217 -0.1520
   25DOPE  H15R 3167  -0.588   5.287   8.296 -1.4236  0.5758 -3.9172
   25DOPE  H15S 3168  -0.567   5.113   8.240  0.6454 -0.8113  0.6446
   25DOPE  C216 3169  -0.433   5.235   8.148  0.9393 -0.8224  0.6905
   25DOPE  H16R 3170  -0.413   5.132   8.110 -0.1800 -0.6282 -0.4952
   25DOPE  H16S 3171  -0.338   5.291   8.158  0.1059  0.3775  2.1838
   25DOPE  C217 3172  -0.506   5.324   8.042 -0.2069 -0.5784  0.5602
   25DOPE  H17R 3173  -0.523   5.424   8.088 -0.2100 -0.5545  0.5064
   25DOPE  H17S 3174  -0.599   5.273   8.012  0.4196  0.0924 -2.9153
   25DOPE  C218 3175  -0.407   5.332   7.920  0.7890 -0.6886  0.9310
   25DOPE  H18R 3176  -0.306   5.349   7.964  0.3178  0.3519  1.6503
   25DOPE  H18S 3177  -0.427   5.421   7.857  0.5820 -0.4864  1.2786
   25DOPE  H18T 3178  -0.410   5.236   7.863  0.6946 -1.1341  1.6737
   25DOPE   C33 3179   0.019   5.334   9.427  0.1111  0.2385 -0.5624
   25DOPE   H3X 3180  -0.069   5.362   9.489 -0.0395 -0.9923 -0.1735
   25DOPE   H3Y 3181   0.017   5.222   9.432 -1.7802  0.2306  3.6166
   25DOPE   C34 3182  -0.002   5.381   9.282  0.3962 -0.2303  0.9728
   25DOPE   H4X 3183  -0.032   5.488   9.286 -0.8049 -0.5645  1.7950
   25DOPE   H4Y 3184   0.092   5.361   9.228  0.5877 -0.6340  1.4535
   25DOPE   C35 3185  -0.110   5.294   9.213 -0.3150 -0.1455  0.0750
   25DOPE   H5X 3186  -0.189   5.292   9.291 -0.6297  2.6872 -0.0591
   25DOPE   H5Y 3187  -0.063   5.196   9.190 -0.8003 -0.7601  1.5729
   25DOPE   C36 3188  -0.182   5.364   9.091 -0.9548  0.0958 -0.4195
   25DOPE   H6X 3189  -0.217   5.462   9.129 -1.8812  0.1502 -1.3729
   25DOPE   H6Y 3190  -0.265   5.299   9.056 -0.3782 -0.8317 -0.0883
   25DOPE   C37 3191  -0.092   5.390   8.967 -0.6993  0.4261  0.4295
   25DOPE   H7X 3192  -0.014   5.464   8.997 -1.7999  1.8368 -0.1101
   25DOPE   H7Y 3193  -0.042   5.298   8.930  0.0319  1.0930 -0.2965
   25DOPE   C38 3194  -0.159   5.465   8.853  0.2277 -0.3957  0.1576
   25DOPE   H8X 3195  -0.079   5.478   8.776  1.5376  0.0028  1.5383
   25DOPE   H8Y 3196  -0.202   5.564   8.877 -0.1076 -0.6177  0.4732
   25DOPE   C39 3197  -0.266   5.383   8.792  0.3527  0.3899  0.1058
   25DOPE   H9X 3198  -0.308   5.305   8.857  0.3005  0.4520  0.1465
   25DOPE  C310 3199  -0.308   5.412   8.669  0.3436 -0.6045 -0.0695
   25DOPE  H10X 3200  -0.385   5.349   8.622 -0.9217  0.9891 -0.2217
   25DOPE  C311 3201  -0.250   5.522   8.581  0.2632  0.4115 -0.0041
   25DOPE  H11X 3202  -0.291   5.618   8.620  0.3040  0.5312 -0.2522
   25DOPE  H11Y 3203  -0.141   5.545   8.581  0.4667 -0.4742 -0.6654
   25DOPE  C312 3204  -0.287   5.507   8.433 -0.7371 -0.3292 -0.0009
   25DOPE  H12X 3205  -0.393   5.474   8.432 -0.8574  0.0329 -1.1921
   25DOPE  H12Y 3206  -0.238   5.421   8.382 -0.7542 -0.7905  0.7541
   25DOPE  C313 3207  -0.262   5.642   8.361  0.4595  0.8983 -0.0856
   25DOPE  H13X 3208  -0.333   5.709   8.414 -0.6465  0.5046 -1.0252
   25DOPE  H13Y 3209  -0.156   5.675   8.370  1.1803 -1.6061  1.3540
   25DOPE  C314 3210  -0.312   5.640   8.212 -0.5575  0.0858 -0.5139
   25DOPE  H14X 3211  -0.421   5.617   8.214 -0.4468 -0.4263  0.1476
   25DOPE  H14Y 3212  -0.254   5.564   8.157 -2.8648 -0.8925 -1.7222
   25DOPE  C315 3213  -0.291   5.776   8.130 -0.4082  0.4425 -0.0526
   25DOPE  H15X 3214  -0.187   5.814   8.132 -0.7412  1.4165 -0.4581
   25DOPE  H15Y 3215  -0.367   5.845   8.174 -0.9482 -1.9801  3.2932
   25DOPE  C316 3216  -0.326   5.767   7.976 -0.1948  0.1043 -0.5479
   25DOPE  H16X 3217  -0.245   5.707   7.931 -1.6503 -1.5808 -1.0535
   25DOPE  H16Y 3218  -0.331   5.870   7.934  1.9475 -0.1008 -1.4054
   25DOPE  C317 3219  -0.463   5.706   7.958 -0.4916  0.7767 -0.4176
   25DOPE  H17X 3220  -0.443   5.599   7.982 -1.9274  0.3185 -1.1289
   25DOPE  H17Y 3221  -0.537   5.753   8.027 -0.2370  0.6840 -0.0761
   25DOPE  C318 3222  -0.529   5.708   7.821 -0.6816  0.0886  0.6940
   25DOPE  H18X 3223  -0.569   5.808   7.793  0.3937  0.2978 -0.1648
   25DOPE  H18Y 3224  -0.456   5.674   7.744  0.4433  2.1543  0.7873
   25DOPE  H18Z 3225  -0.607   5.629   7.822 -1.3718  0.7589  0.6839
   26DOPE     N 3226   0.239   5.660   9.861 -0.7642  0.0282 -0.0557
   26DOPE   HN1 3227   0.279   5.582   9.804 -0.5065 -0.1897  0.4276
   26DOPE   HN2 3228   0.175   5.612   9.928 -1.1536 -0.5789 -0.8237
   26DOPE   HN3 3229   0.179   5.716   9.797 -0.8199 -0.4624 -0.4450
   26DOPE   C12 3230   0.350   5.735   9.923 -0.1236 -0.2058 -0.8610
   26DOPE  H12A 3231   0.304   5.829   9.962 -1.2516 -0.3343 -1.7903
   26DOPE  H12B 3232   0.418   5.778   9.846  1.6123  0.3515  0.9189
   26DOPE   C11 3233   0.413   5.657  10.034 -0.2844 -0.0897 -0.7068
   26DOPE  H11A 3234   0.348   5.625  10.118  0.3826  0.4020  0.0254
   26DOPE  H11B 3235   0.488   5.711  10.097  1.8931 -2.9958 -0.5737
   26DOPE     P 3236   0.458   5.400  10.012  0.3672  0.4881  0.3954
   26DOPE   O13 3237   0.312   5.377  10.020  0.3264 -0.0731  0.2312
   26DOPE   O14 3238   0.534   5.363  10.134 -0.3475 -0.1793  0.0747
   26DOPE   O11 3239   0.519   5.319   9.888 -0.3759  0.4188 -0.5582
   26DOPE   O12 3240   0.484   5.546   9.971 -0.0412 -0.2356 -0.2058
   26DOPE    C1 3241   0.663   5.313   9.860  0.2013  0.2713  0.0285
   26DOPE    HA 3242   0.683   5.220   9.803 -1.8013  0.9081 -1.8600
   26DOPE    HB 3243   0.727   5.311   9.950  0.4517  0.0718 -0.1541
   26DOPE    C2 3244   0.718   5.429   9.776  0.0973 -0.0234  0.0064
   26DOPE    HS 3245   0.731   5.517   9.842 -0.8813  1.6613 -1.9585
   26DOPE   O21 3246   0.615   5.444   9.680 -0.4816 -0.2906 -0.4239
   26DOPE   C21 3247   0.590   5.572   9.660  0.2782 -0.0809 -1.4889
   26DOPE   O22 3248   0.645   5.671   9.708 -0.3152 -0.2860 -0.5641
   26DOPE   C22 3249   0.502   5.590   9.541 -0.4097 -0.2745 -0.5533
   26DOPE   H2R 3250   0.416   5.657   9.562 -0.2837  0.3145 -1.8179
   26DOPE   H2S 3251   0.453   5.499   9.502  0.4079 -0.3087 -1.5294
   26DOPE    C3 3252   0.859   5.420   9.706 -0.1646  0.7861  0.2687
   26DOPE    HX 3253   0.856   5.348   9.621  1.5620 -0.3261  1.1041
   26DOPE    HY 3254   0.929   5.382   9.783 -0.0537 -2.8609 -1.4197
   26DOPE   O31 3255   0.889   5.552   9.656 -0.1495  0.0683  0.0816
   26DOPE   C31 3256   0.931   5.644   9.744  0.2681 -0.2434 -0.1634
   26DOPE   O32 3257   0.948   5.627   9.862 -0.1756  0.1268  0.1448
   26DOPE   C32 3258   0.967   5.772   9.672  0.4973  0.0597  0.4051
   26DOPE   H2X 3259   0.888   5.849   9.684 -1.2208 -0.9371 -3.2220
   26DOPE   H2Y 3260   1.068   5.806   9.704  0.6196 -0.5885  0.7336
   26DOPE   C23 3261   0.581   5.650   9.415  0.1763  0.2669  0.4657
   26DOPE   H3R 3262   0.624   5.752   9.424  0.0341  0.3512  0.1895
   26DOPE   H3S 3263   0.501   5.673   9.342  0.1532 -0.8207  0.1183
   26DOPE   C24 3264   0.686   5.554   9.354  0.4824  0.2602 -0.0753
   26DOPE   H4R 3265   0.748   5.519   9.439 -1.6391  0.8526  1.8127
   26DOPE   H4S 3266   0.747   5.605   9.276 -0.8176  2.3671  0.2153
   26DOPE   C25 3267   0.625   5.435   9.284 -0.0333 -0.1665  0.8005
   26DOPE   H5R 3268   0.560   5.372   9.349  2.0190 -3.7838 -0.3694
   26DOPE   H5S 3269   0.710   5.374   9.248  0.2800  2.9491 -4.8274
   26DOPE   C26 3270   0.564   5.478   9.151  0.3608  0.3520 -0.1026
   26DOPE   H6R 3271   0.616   5.560   9.096 -2.2741  2.3246  0.1579
   26DOPE   H6S 3272   0.467   5.525   9.177  1.4548  1.1794  2.8429
   26DOPE   C27 3273   0.520   5.354   9.067  0.1414  0.3931 -0.1145
   26DOPE   H7R 3274   0.446   5.285   9.113  1.2643 -1.5920 -1.1840
   26DOPE   H7S 3275   0.604   5.282   9.068  0.3997  0.6838  1.2987
   26DOPE   C28 3276   0.469   5.397   8.930 -0.6341 -0.3228  0.0776
   26DOPE   H8R 3277   0.554   5.433   8.869 -0.2121 -2.3319 -0.6061
   26DOPE   H8S 3278   0.390   5.475   8.927  1.1255  1.5814  0.6614
   26DOPE   C29 3279   0.410   5.280   8.851  0.3572 -0.2504  0.2878
   26DOPE   H9R 3280   0.326   5.227   8.899 -0.7408  1.6765  0.6049
   26DOPE  C210 3281   0.471   5.207   8.754  0.4960  0.0251  0.3399
   26DOPE  H10R 3282   0.408   5.125   8.717  1.7213 -1.7675  2.0474
   26DOPE  C211 3283   0.599   5.252   8.679 -0.1759  0.0583 -0.2085
   26DOPE  H11R 3284   0.681   5.179   8.695 -2.4272 -3.3094 -2.4052
   26DOPE  H11S 3285   0.622   5.357   8.706  1.4430 -0.3156 -0.0287
   26DOPE  C212 3286   0.577   5.235   8.519  0.1545 -0.6225  0.2441
   26DOPE  H12R 3287   0.482   5.283   8.489 -0.5694 -2.4558 -0.5134
   26DOPE  H12S 3288   0.567   5.125   8.508  1.8487 -1.2977  3.8384
   26DOPE  C213 3289   0.702   5.296   8.450  0.3977 -0.2419 -0.1737
   26DOPE  H13R 3290   0.787   5.241   8.496  1.3779 -0.2233 -1.9049
   26DOPE  H13S 3291   0.714   5.402   8.480  2.5546 -0.5247  0.1585
   26DOPE  C214 3292   0.705   5.273   8.300 -0.3465 -0.4725 -0.1825
   26DOPE  H14R 3293   0.617   5.314   8.247 -0.2694 -0.9757 -0.7076
   26DOPE  H14S 3294   0.701   5.164   8.278  1.7497 -0.7984  0.8345
   26DOPE  C215 3295   0.831   5.332   8.240  0.0672 -0.3033  0.3084
   26DOPE  H15R 3296   0.920   5.271   8.267  0.2935 -0.9989 -1.8782
   26DOPE  H15S 3297   0.856   5.433   8.280  0.3976 -0.7189  1.1927
   26DOPE  C216 3298   0.844   5.334   8.083 -0.7368  0.8684 -0.2411
   26DOPE  H16R 3299   0.788   5.425   8.053 -0.7808 -0.2771 -4.1659
   26DOPE  H16S 3300   0.795   5.250   8.029 -1.3115 -0.0287  1.5675
   26DOPE  C217 3301   0.989   5.361   8.031  0.0723 -0.3543  1.2159
   26DOPE  H17R 3302   1.047   5.266   8.032 -1.6919 -1.4932  1.5425
   26DOPE  H17S 3303   1.040   5.430   8.101 -0.2035  0.1759  0.8981
   26DOPE  C218 3304   1.004   5.413   7.893  0.4323 -0.5341  0.2362
   26DOPE  H18R 3305   0.981   5.521   7.907  0.0745 -0.8741  2.9089
   26DOPE  H18S 3306   0.938   5.364   7.818 -0.8164 -0.0821  1.0156
   26DOPE  H18T 3307   1.107   5.394   7.858  0.5208  0.5567 -0.1155
   26DOPE   C33 3308   0.973   5.766   9.515  0.1297  0.3676 -0.4702
   26DOPE   H3X 3309   0.869   5.769   9.478 -0.2521 -0.2641  0.5047
   26DOPE   H3Y 3310   1.012   5.668   9.478  1.0832  1.5636 -2.8402
   26DOPE   C34 3311   1.047   5.876   9.447 -0.0287  0.4262 -0.6698
   26DOPE   H4X 3312   0.996   5.973   9.465  0.1417  0.9084 -2.6369
   26DOPE   H4Y 3313   1.149   5.880   9.491 -1.0637 -0.8781  2.0879
   26DOPE   C35 3314   1.050   5.854   9.291  0.2518 -0.3502  0.1932
   26DOPE   H5X 3315   0.940   5.859   9.276  0.2368 -2.5781 -0.9494
   26DOPE   H5Y 3316   1.093   5.752   9.275 -1.7010 -1.1229 -0.4127
   26DOPE   C36 3317   1.123   5.973   9.214 -0.0113  0.4642 -0.4340
   26DOPE   H6X 3318   1.182   6.028   9.290  0.2265 -0.9791  0.4692
   26DOPE   H6Y 3319   1.043   6.044   9.185  1.4655  1.4431 -2.3291
   26DOPE   C37 3320   1.199   5.938   9.091  0.2287  0.1057 -0.2223
   26DOPE   H7X 3321   1.242   6.028   9.044 -1.5621  0.0204 -2.1966
   26DOPE   H7Y 3322   1.280   5.879   9.138  0.9727  0.2038 -1.3352
   26DOPE   C38 3323   1.117   5.863   8.977 -0.3850  0.0077 -0.4635
   26DOPE   H8X 3324   1.061   5.775   9.014 -0.9402  0.3124 -0.5717
   26DOPE   H8Y 3325   1.198   5.831   8.908  0.2671  1.4750 -0.4127
   26DOPE   C39 3326   1.026   5.961   8.909 -0.2632 -0.7116 -0.3061
   26DOPE   H9X 3327   0.935   5.988   8.965  0.8157 -2.2067  2.3662
   26DOPE  C310 3328   1.047   6.018   8.784 -0.1669 -0.2126  0.4175
   26DOPE  H10X 3329   0.973   6.094   8.753  0.9792  0.4295 -0.8296
   26DOPE  C311 3330   1.179   6.003   8.698  0.7801 -0.1925 -0.4426
   26DOPE  H11X 3331   1.238   5.914   8.728  0.8866  0.0958  0.2362
   26DOPE  H11Y 3332   1.169   5.995   8.588 -0.9792  0.8843 -0.3977
   26DOPE  C312 3333   1.268   6.128   8.722 -0.2238 -0.1604  0.4044
   26DOPE  H12X 3334   1.371   6.104   8.688 -0.0920 -0.5292  1.0423
   26DOPE  H12Y 3335   1.286   6.136   8.831 -1.7212  0.0342  0.6524
   26DOPE  C313 3336   1.215   6.260   8.659  0.3595  0.1217 -0.1110
   26DOPE  H13X 3337   1.105   6.263   8.670  0.3712 -1.5761  0.8293
   26DOPE  H13Y 3338   1.261   6.333   8.729 -1.9675 -0.0513  1.7251
   26DOPE  C314 3339   1.255   6.291   8.513  0.0991  0.0621  0.3334
   26DOPE  H14X 3340   1.210   6.205   8.459 -1.1841  1.2707 -0.5837
   26DOPE  H14Y 3341   1.365   6.303   8.505 -0.0079  1.2933  0.5058
   26DOPE  C315 3342   1.179   6.410   8.464 -0.6593  0.2159 -0.3837
   26DOPE  H15X 3343   1.224   6.502   8.505  0.4195 -0.2876 -0.4087
   26DOPE  H15Y 3344   1.080   6.411   8.515  0.4197  1.8990  1.8625
   26DOPE  C316 3345   1.189   6.423   8.314 -0.8620  0.0368 -0.1647
   26DOPE  H16X 3346   1.296   6.431   8.286 -0.9764 -0.2238 -0.6934
   26DOPE  H16Y 3347   1.136   6.518   8.289 -0.0731  0.9801  1.5538
   26DOPE  C317 3348   1.127   6.310   8.243 -0.2900  0.4171  0.0205
   26DOPE  H17X 3349   1.160   6.206   8.263 -0.7198  0.1324 -0.6944
   26DOPE  H17Y 3350   1.023   6.299   8.280 -0.2863  0.3288  0.0053
   26DOPE  C318 3351   1.119   6.344   8.099  0.1830 -0.5385 -0.2484
   26DOPE  H18X 3352   1.062   6.438   8.084 -1.2262 -1.4424 -0.6563
   26DOPE  H18Y 3353   1.224   6.353   8.062 -0.0616 -0.6906 -1.0044
   26DOPE  H18Z 3354   1.066   6.263   8.045 -0.0790 -1.5802  1.4966
   27DOPE     N 3355   4.153   0.464  10.354  0.1645  0.9928 -0.2301
   27DOPE   HN1 3356   4.151   0.523  10.269  0.4528  0.6685 -0.4661
   27DOPE   HN2 3357   4.071   0.399  10.356  1.2891 -0.5584 -1.3970
   27DOPE   HN3 3358   4.138   0.528  10.434 -0.3031 -1.2991  1.6176
   27DOPE   C12 3359   4.288   0.395  10.364  0.3371  0.3818 -0.4170
   27DOPE  H12A 3360   4.305   0.354  10.263  2.5350  0.1844 -0.0156
   27DOPE  H12B 3361   4.292   0.314  10.439  0.9143  2.5221  2.0276
   27DOPE   C11 3362   4.409   0.489  10.378  0.0683  0.1406  0.3942
   27DOPE  H11A 3363   4.401   0.557  10.290 -2.9077 -1.3257 -0.6299
   27DOPE  H11B 3364   4.502   0.430  10.366 -0.5239 -0.5325 -1.1208
   27DOPE     P 3365   4.441   0.704  10.518  0.2480  0.2841  0.4280
   27DOPE   O13 3366   4.505   0.734  10.644 -0.4327  0.2861 -0.1546
   27DOPE   O14 3367   4.318   0.776  10.489  0.0884  0.3119  0.4799
   27DOPE   O11 3368   4.546   0.713  10.396 -0.4283 -0.2442  0.2724
   27DOPE   O12 3369   4.410   0.549  10.504 -0.0929 -0.3451  0.1450
   27DOPE    C1 3370   4.678   0.661  10.408  0.0150 -0.7824  0.1511
   27DOPE    HA 3371   4.682   0.559  10.453  0.1942 -0.3155  1.2296
   27DOPE    HB 3372   4.744   0.728  10.467  0.8964 -0.5702 -1.0398
   27DOPE    C2 3373   4.760   0.660  10.269 -0.1376 -0.0019 -0.9607
   27DOPE    HS 3374   4.807   0.760  10.256 -1.8474  0.8571 -0.8565
   27DOPE   O21 3375   4.666   0.631  10.159  0.1596  0.4620  0.2412
   27DOPE   C21 3376   4.679   0.708  10.057  0.4905  0.2861 -0.4220
   27DOPE   O22 3377   4.770   0.793  10.042  0.0456  0.1770  0.1797
   27DOPE   C22 3378   4.570   0.663   9.957  0.4401  0.4137 -0.3712
   27DOPE   H2R 3379   4.467   0.677   9.996  0.1529  1.3622 -1.4253
   27DOPE   H2S 3380   4.605   0.559   9.937  1.1752  0.2894  1.3822
   27DOPE    C3 3381   4.877   0.553  10.280  0.0622  0.6967 -0.1429
   27DOPE    HX 3382   4.836   0.461  10.327 -1.1470  0.9520 -0.6681
   27DOPE    HY 3383   4.947   0.587  10.359 -1.3811 -1.2344  2.0845
   27DOPE   O31 3384   4.950   0.542  10.152 -0.0519  0.3376 -0.6211
   27DOPE   C31 3385   4.901   0.464  10.063 -0.4250  0.6629  0.1785
   27DOPE   O32 3386   4.797   0.406  10.065 -0.1290  0.0772  0.3050
   27DOPE   C32 3387   4.995   0.470   9.943 -0.1852  0.2934 -0.2835
   27DOPE   H2X 3388   5.030   0.575   9.932  0.1895 -0.0505 -3.1916
   27DOPE   H2Y 3389   5.082   0.409   9.976 -0.9018 -1.0045 -0.7391
   27DOPE   C23 3390   4.572   0.740   9.823  0.6038 -0.4212  0.1940
   27DOPE   H3R 3391   4.570   0.850   9.837 -0.0018 -0.4157  0.1203
   27DOPE   H3S 3392   4.474   0.719   9.774  1.6000  0.0527 -2.0712
   27DOPE   C24 3393   4.680   0.710   9.711  0.1789  0.3647 -0.4647
   27DOPE   H4R 3394   4.686   0.600   9.709 -2.0803  0.1678  0.3333
   27DOPE   H4S 3395   4.778   0.745   9.749  0.7829  0.0070 -1.6399
   27DOPE   C25 3396   4.641   0.763   9.570  0.3799 -0.6923 -0.2097
   27DOPE   H5R 3397   4.636   0.874   9.560 -1.6248 -0.7824 -0.6379
   27DOPE   H5S 3398   4.534   0.735   9.560 -0.4137  1.3765  1.5932
   27DOPE   C26 3399   4.725   0.724   9.448  0.2357 -0.5223  0.2766
   27DOPE   H6R 3400   4.743   0.614   9.455 -1.2506 -1.0377 -2.4340
   27DOPE   H6S 3401   4.824   0.773   9.460  1.1050 -1.6011 -1.9049
   27DOPE   C27 3402   4.671   0.749   9.311  0.1111  0.0629 -0.5598
   27DOPE   H7R 3403   4.654   0.857   9.289 -1.7465 -0.2701 -0.9901
   27DOPE   H7S 3404   4.574   0.696   9.305 -0.1848  0.4257  0.6257
   27DOPE   C28 3405   4.778   0.700   9.205  0.3273  0.3848 -0.4544
   27DOPE   H8R 3406   4.718   0.688   9.112 -1.9312 -1.6386  1.1277
   27DOPE   H8S 3407   4.809   0.597   9.236 -1.0179 -0.1732 -0.8735
   27DOPE   C29 3408   4.899   0.777   9.165  0.1120 -0.2389 -0.2833
   27DOPE   H9R 3409   4.923   0.858   9.235 -2.8661  0.3722  0.1604
   27DOPE  C210 3410   4.974   0.774   9.055  0.8214  0.6140  0.3046
   27DOPE  H10R 3411   5.064   0.836   9.051  0.7691  0.6977  0.4094
   27DOPE  C211 3412   4.953   0.685   8.937 -0.4436  0.0973 -0.7855
   27DOPE  H11R 3413   4.896   0.598   8.975  1.2649 -0.9827 -0.5792
   27DOPE  H11S 3414   5.052   0.649   8.903  0.5081  0.1488  1.7509
   27DOPE  C212 3415   4.886   0.766   8.823  0.5664 -0.3811  0.3404
   27DOPE  H12R 3416   4.914   0.873   8.829  1.0956 -0.5359  0.7261
   27DOPE  H12S 3417   4.777   0.783   8.837  0.9300  2.2118  0.4494
   27DOPE  C213 3418   4.911   0.697   8.682 -0.1926 -0.0849 -0.2059
   27DOPE  H13R 3419   4.865   0.596   8.687  2.1682 -1.4096 -2.7136
   27DOPE  H13S 3420   5.021   0.685   8.674 -0.1210  1.1644 -1.7136
   27DOPE  C214 3421   4.833   0.757   8.564  0.0105 -0.5672  0.4040
   27DOPE  H14R 3422   4.869   0.856   8.531 -1.0237 -0.8922 -1.8898
   27DOPE  H14S 3423   4.724   0.758   8.585 -0.3737 -1.7010 -1.3124
   27DOPE  C215 3424   4.843   0.672   8.436 -0.6198  0.4786 -0.0243
   27DOPE  H15R 3425   4.822   0.566   8.460  1.9095  0.0058  0.4477
   27DOPE  H15S 3426   4.943   0.688   8.390 -0.3195 -0.2912  0.3476
   27DOPE  C216 3427   4.741   0.715   8.326  0.2867 -0.8365 -0.5022
   27DOPE  H16R 3428   4.730   0.826   8.327 -0.3489 -0.8834  0.9773
   27DOPE  H16S 3429   4.642   0.673   8.357 -0.6853  1.3844 -0.3584
   27DOPE  C217 3430   4.762   0.666   8.181  0.1203 -0.3367 -0.0966
   27DOPE  H17R 3431   4.742   0.557   8.179  0.9951 -0.5317  1.0780
   27DOPE  H17S 3432   4.870   0.664   8.157  0.3206 -0.5674  0.8106
   27DOPE  C218 3433   4.683   0.743   8.077 -0.1654  0.2836  0.7384
   27DOPE  H18R 3434   4.717   0.848   8.074  0.2765  0.1633  1.3978
   27DOPE  H18S 3435   4.575   0.726   8.096  0.3029 -1.9912  1.6407
   27DOPE  H18T 3436   4.707   0.703   7.976  1.3714 -1.1233  1.6113
   27DOPE   C33 3437   4.938   0.428   9.808  0.5302  0.4653  0.2748
   27DOPE   H3X 3438   4.833   0.456   9.785 -0.9704 -3.8022  1.0539
   27DOPE   H3Y 3439   4.942   0.317   9.802 -0.7154  0.4803 -3.0934
   27DOPE   C34 3440   5.019   0.474   9.679 -0.0416  0.3976 -0.9741
   27DOPE   H4X 3441   4.995   0.581   9.660 -0.7066  0.1508 -1.5797
   27DOPE   H4Y 3442   5.123   0.454   9.713 -0.7893 -0.1844  1.1687
   27DOPE   C35 3443   4.979   0.397   9.551  0.5874  0.5716 -0.2568
   27DOPE   H5X 3444   4.868   0.394   9.538  0.5636  1.2436 -0.2603
   27DOPE   H5Y 3445   5.021   0.295   9.560 -0.1675  0.2137 -0.6640
   27DOPE   C36 3446   5.044   0.454   9.424  0.3569 -0.0798  0.7655
   27DOPE   H6X 3447   5.143   0.498   9.450  1.2464 -1.6698  0.2245
   27DOPE   H6Y 3448   4.990   0.540   9.379  3.0577  1.4091  0.0757
   27DOPE   C37 3449   5.063   0.340   9.320  0.6145 -0.2885  0.3773
   27DOPE   H7X 3450   5.107   0.253   9.373 -0.7212  0.0918  2.2238
   27DOPE   H7Y 3451   4.961   0.310   9.289 -0.0810  0.0109  2.2776
   27DOPE   C38 3452   5.156   0.375   9.210  1.2543  0.4120 -0.0604
   27DOPE   H8X 3453   5.232   0.436   9.263 -0.3121  0.0392  2.8893
   27DOPE   H8Y 3454   5.102   0.446   9.143 -0.1707 -0.7842 -0.2422
   27DOPE   C39 3455   5.224   0.261   9.150 -0.4033 -0.5165  1.0887
   27DOPE   H9X 3456   5.271   0.185   9.214  0.1717  0.9116  2.4249
   27DOPE  C310 3457   5.224   0.241   9.017 -0.2900  0.8264  0.0251
   27DOPE  H10X 3458   5.262   0.147   8.974 -0.5514 -0.2674  2.0648
   27DOPE  C311 3459   5.156   0.318   8.905  1.0019 -0.1356 -0.4410
   27DOPE  H11X 3460   5.052   0.280   8.899  0.8902 -0.0102  0.5952
   27DOPE  H11Y 3461   5.144   0.427   8.924 -0.6264 -0.0330 -1.8247
   27DOPE  C312 3462   5.232   0.287   8.774  0.6073 -0.2983  1.1185
   27DOPE  H12X 3463   5.196   0.190   8.733 -2.1339  0.9591  0.3249
   27DOPE  H12Y 3464   5.342   0.294   8.789  0.5716  0.9722  0.9409
   27DOPE  C313 3465   5.188   0.373   8.654  0.1056  0.7557 -0.2064
   27DOPE  H13X 3466   5.080   0.354   8.637  0.0292  1.4459 -0.4997
   27DOPE  H13Y 3467   5.195   0.482   8.675 -0.9589  0.6913  0.5963
   27DOPE  C314 3468   5.256   0.337   8.525 -0.2367  0.5717 -0.5752
   27DOPE  H14X 3469   5.226   0.238   8.486 -3.2689  0.7964  0.8454
   27DOPE  H14Y 3470   5.366   0.331   8.542  0.5723  1.9232 -4.4074
   27DOPE  C315 3471   5.228   0.433   8.408  0.3823  0.0281  0.1741
   27DOPE  H15X 3472   5.254   0.538   8.433  1.5089 -0.3427  0.6197
   27DOPE  H15Y 3473   5.121   0.440   8.381  0.8309  2.8927 -1.1953
   27DOPE  C316 3474   5.301   0.396   8.280  0.5483 -0.3228 -0.7358
   27DOPE  H16X 3475   5.257   0.305   8.234  1.2328 -0.8643 -0.3387
   27DOPE  H16Y 3476   5.404   0.367   8.311  0.9072  3.0418  1.7029
   27DOPE  C317 3477   5.317   0.521   8.188  0.0220 -0.3294 -0.4141
   27DOPE  H17X 3478   5.225   0.555   8.135  0.4277  0.6854 -0.4835
   27DOPE  H17Y 3479   5.348   0.605   8.253  1.9674 -2.0990  1.0919
   27DOPE  C318 3480   5.427   0.478   8.089  0.0800  0.0442  0.3219
   27DOPE  H18X 3481   5.428   0.554   8.008  1.1661  0.6211  0.8474
   27DOPE  H18Y 3482   5.522   0.465   8.146  0.1103  1.5093  0.6410
   27DOPE  H18Z 3483   5.407   0.382   8.037  0.1504  1.3941 -2.3626
   28DOPE     N 3484   6.658   6.236  10.329  0.2987  0.2117 -0.5059
   28DOPE   HN1 3485   6.724   6.311  10.358  0.5771  0.5019 -1.8256
   28DOPE   HN2 3486   6.578   6.264  10.390  3.9156  2.2173  3.8985
   28DOPE   HN3 3487   6.686   6.140  10.354  0.2215  0.5374  0.9108
   28DOPE   C12 3488   6.611   6.242  10.186 -0.5530  0.3376 -0.4679
   28DOPE  H12A 3489   6.589   6.348  10.164  2.8858  1.0902 -0.8943
   28DOPE  H12B 3490   6.524   6.175  10.172  1.3748 -1.9516 -2.5422
   28DOPE   C11 3491   6.718   6.198  10.079  0.2919 -0.1612  0.5155
   28DOPE  H11A 3492   6.809   6.259  10.098 -0.5171  1.6674 -1.1127
   28DOPE  H11B 3493   6.678   6.225   9.978  1.4389  1.0671  0.3628
   28DOPE     P 3494   6.859   5.991  10.003  0.0665  0.2696 -0.2333
   28DOPE   O13 3495   6.856   5.843  10.009 -0.1740  0.1527 -0.0524
   28DOPE   O14 3496   6.986   6.057  10.060 -0.2747 -0.1936  0.3600
   28DOPE   O11 3497   6.835   6.046   9.862  0.2305  0.6199 -0.1018
   28DOPE   O12 3498   6.736   6.056  10.085  0.0890 -0.0673 -0.0835
   28DOPE    C1 3499   6.708   6.032   9.796 -0.8021 -0.0744  0.1127
   28DOPE    HA 3500   6.700   6.116   9.724  0.5840 -0.7779 -0.9258
   28DOPE    HB 3501   6.620   6.041   9.863 -0.4489  0.9319  0.4618
   28DOPE    C2 3502   6.712   5.910   9.697 -0.1724 -0.4906 -0.0470
   28DOPE    HS 3503   6.732   5.816   9.752  1.2411 -0.2617 -0.1319
   28DOPE   O21 3504   6.797   5.938   9.588  0.5109 -0.3571  0.4533
   28DOPE   C21 3505   6.906   5.865   9.584 -0.2947  0.3971  0.4013
   28DOPE   O22 3506   6.944   5.786   9.669 -0.0667 -0.4937  0.2530
   28DOPE   C22 3507   6.985   5.896   9.456 -0.3094 -0.0069  0.5824
   28DOPE   H2R 3508   7.093   5.886   9.481 -0.3101 -1.6274  0.0773
   28DOPE   H2S 3509   6.971   6.000   9.419  0.4962 -0.7444 -2.0040
   28DOPE    C3 3510   6.580   5.885   9.633 -0.8194 -0.2880 -0.8286
   28DOPE    HX 3511   6.545   5.969   9.569 -0.9698  0.2985  0.0052
   28DOPE    HY 3512   6.513   5.866   9.720  2.7016 -0.7784  1.9903
   28DOPE   O31 3513   6.582   5.757   9.561  0.2613  0.2833  0.1191
   28DOPE   C31 3514   6.459   5.708   9.527 -0.6265  0.4101 -0.5253
   28DOPE   O32 3515   6.357   5.766   9.533 -0.2113 -0.8450 -0.9271
   28DOPE   C32 3516   6.476   5.558   9.493  0.1604 -0.2619  0.3341
   28DOPE   H2X 3517   6.584   5.530   9.494  0.0841 -0.5558  1.8068
   28DOPE   H2Y 3518   6.425   5.495   9.568  2.6524 -1.0024  1.5107
   28DOPE   C23 3519   6.956   5.799   9.336 -0.1801  0.0264 -0.2993
   28DOPE   H3R 3520   6.849   5.812   9.310 -0.0641 -2.2453 -2.2994
   28DOPE   H3S 3521   6.980   5.695   9.367  1.1300  0.5065  0.3538
   28DOPE   C24 3522   7.040   5.828   9.207  0.2556  0.4431  0.0668
   28DOPE   H4R 3523   7.147   5.811   9.231  0.1053 -1.4786 -0.4637
   28DOPE   H4S 3524   7.032   5.936   9.182  0.8792  0.1819 -1.3321
   28DOPE   C25 3525   6.966   5.750   9.094  0.1431  0.3856  0.7400
   28DOPE   H5R 3526   6.855   5.756   9.096  0.0049 -1.5387  2.0166
   28DOPE   H5S 3527   6.979   5.639   9.092 -1.7219  0.1126  1.3319
   28DOPE   C26 3528   7.008   5.805   8.952  0.5153  0.0312 -0.4338
   28DOPE   H6R 3529   7.118   5.793   8.956  0.2142 -3.2128  0.5241
   28DOPE   H6S 3530   6.969   5.909   8.938 -0.6360 -0.2671  0.3923
   28DOPE   C27 3531   6.956   5.736   8.828  0.8602  0.6619  0.4007
   28DOPE   H7R 3532   6.845   5.739   8.820  0.7228 -1.9202  0.6072
   28DOPE   H7S 3533   6.977   5.629   8.848  0.5531  0.2234 -1.4378
   28DOPE   C28 3534   7.024   5.787   8.701 -0.3619 -0.2371 -0.1316
   28DOPE   H8R 3535   7.132   5.769   8.719 -0.8672 -0.9954  2.5594
   28DOPE   H8S 3536   7.017   5.895   8.673  0.8543  0.3752  1.7129
   28DOPE   C29 3537   6.970   5.711   8.588 -0.1060  0.1749  0.2132
   28DOPE   H9R 3538   6.874   5.751   8.552 -1.5939 -3.0537  0.2322
   28DOPE  C210 3539   7.025   5.602   8.530  0.1594  0.4061 -0.3762
   28DOPE  H10R 3540   6.965   5.558   8.449 -0.1975  1.6257 -0.7958
   28DOPE  C211 3541   7.146   5.524   8.557  0.2759  0.3465  0.1061
   28DOPE  H11R 3542   7.121   5.419   8.531  2.1288  0.2835 -1.7353
   28DOPE  H11S 3543   7.167   5.522   8.666 -1.5168  0.8325  0.4942
   28DOPE  C212 3544   7.276   5.566   8.475  0.8661 -0.0748 -0.0420
   28DOPE  H12R 3545   7.357   5.495   8.502  0.1251 -0.9573 -0.0609
   28DOPE  H12S 3546   7.309   5.670   8.492  0.3211 -0.0245  0.7578
   28DOPE  C213 3547   7.247   5.552   8.325 -0.3760  0.0684 -0.6929
   28DOPE  H13R 3548   7.157   5.609   8.293 -0.6572 -0.1964 -0.3858
   28DOPE  H13S 3549   7.211   5.449   8.302  0.2398 -0.5061  0.8116
   28DOPE  C214 3550   7.371   5.580   8.242  0.1185 -0.1224  0.0210
   28DOPE  H14R 3551   7.366   5.516   8.151  1.0343 -1.1426  0.6587
   28DOPE  H14S 3552   7.467   5.560   8.294  0.4856 -1.4191 -1.0936
   28DOPE  C215 3553   7.386   5.728   8.198 -0.0069  1.1467 -0.1174
   28DOPE  H15R 3554   7.399   5.800   8.282  0.4707 -1.3278  2.0714
   28DOPE  H15S 3555   7.291   5.755   8.147 -0.7856  0.9223  1.1597
   28DOPE  C216 3556   7.490   5.732   8.090 -0.4366 -0.1619 -0.1297
   28DOPE  H16R 3557   7.580   5.679   8.128 -1.4407 -0.8403  1.4047
   28DOPE  H16S 3558   7.510   5.840   8.072 -2.8530  1.1509  3.8333
   28DOPE  C217 3559   7.449   5.676   7.958  0.2810  0.0949 -0.0905
   28DOPE  H17R 3560   7.354   5.726   7.931  0.0000 -0.4472 -0.0976
   28DOPE  H17S 3561   7.428   5.568   7.949  1.6627 -0.0392 -2.4313
   28DOPE  C218 3562   7.550   5.713   7.849 -0.1528  0.0006  0.2956
   28DOPE  H18R 3563   7.575   5.820   7.863 -1.8912  0.4252  0.4880
   28DOPE  H18S 3564   7.505   5.708   7.747 -0.8724  1.1184  0.5362
   28DOPE  H18T 3565   7.640   5.649   7.854 -0.7478 -1.4202 -3.6078
   28DOPE   C33 3566   6.432   5.523   9.344  0.1841  0.0964  0.2307
   28DOPE   H3X 3567   6.461   5.419   9.317 -1.4846 -0.3138 -0.0742
   28DOPE   H3Y 3568   6.476   5.589   9.267 -1.6100  0.1581 -0.7728
   28DOPE   C34 3569   6.280   5.502   9.324  0.1045 -0.0182 -0.1821
   28DOPE   H4X 3570   6.240   5.431   9.400 -1.1240 -0.6001 -1.3204
   28DOPE   H4Y 3571   6.223   5.596   9.339  1.3302  0.2409  4.1297
   28DOPE   C35 3572   6.248   5.447   9.189 -0.4364 -0.0080  0.3037
   28DOPE   H5X 3573   6.148   5.400   9.183 -0.5953  0.2158  1.0172
   28DOPE   H5Y 3574   6.321   5.369   9.160 -0.0859  0.2296  0.5295
   28DOPE   C36 3575   6.255   5.550   9.078  0.6938  0.2372  0.8257
   28DOPE   H6X 3576   6.344   5.616   9.078 -0.0988  1.3682 -0.7125
   28DOPE   H6Y 3577   6.167   5.617   9.091  0.4809 -0.0856  1.0510
   28DOPE   C37 3578   6.248   5.486   8.933  0.0306 -0.6308  0.3097
   28DOPE   H7X 3579   6.336   5.421   8.914  1.2038  1.4495 -1.8902
   28DOPE   H7Y 3580   6.154   5.426   8.938 -2.2846  2.5588 -1.4197
   28DOPE   C38 3581   6.239   5.585   8.813 -0.1750  0.4827 -0.7635
   28DOPE   H8X 3582   6.241   5.525   8.720 -0.4967  0.8769 -1.0306
   28DOPE   H8Y 3583   6.322   5.657   8.826  0.0898 -0.0801  0.9054
   28DOPE   C39 3584   6.109   5.650   8.792  0.3198 -0.5783 -0.3174
   28DOPE   H9X 3585   6.080   5.699   8.886  1.6762 -1.1078  0.4041
   28DOPE  C310 3586   6.040   5.684   8.677  0.3685  0.2953  0.4633
   28DOPE  H10X 3587   5.944   5.739   8.680  0.9830  1.4684 -0.3741
   28DOPE  C311 3588   6.092   5.656   8.533  0.0061  0.6719  0.0708
   28DOPE  H11X 3589   6.190   5.604   8.538 -1.2422 -1.6981  1.8345
   28DOPE  H11Y 3590   6.014   5.594   8.485 -0.6109  1.8159 -0.4471
   28DOPE  C312 3591   6.121   5.781   8.444 -0.3148 -0.4756 -0.5703
   28DOPE  H12X 3592   6.194   5.841   8.502 -0.0844 -0.8754 -0.4455
   28DOPE  H12Y 3593   6.028   5.842   8.441 -0.0282  0.1176  1.2374
   28DOPE  C313 3594   6.172   5.740   8.302 -0.0018 -0.1138 -0.9501
   28DOPE  H13X 3595   6.221   5.818   8.240  0.4312 -0.3653 -0.9208
   28DOPE  H13Y 3596   6.253   5.664   8.300  0.3626  0.2529 -0.4872
   28DOPE  C314 3597   6.063   5.672   8.215 -0.5621  0.1762  0.3725
   28DOPE  H14X 3598   5.996   5.608   8.276 -1.2674  2.1520  1.7705
   28DOPE  H14Y 3599   6.108   5.618   8.129 -0.3007  3.7446 -1.9505
   28DOPE  C315 3600   5.962   5.776   8.163  0.6945 -0.4696 -0.5064
   28DOPE  H15X 3601   6.007   5.831   8.077  0.3433  0.6264 -0.0018
   28DOPE  H15Y 3602   5.954   5.861   8.234  1.1329 -0.0178 -0.9799
   28DOPE  C316 3603   5.817   5.726   8.132 -0.3795 -0.6730  0.0389
   28DOPE  H16X 3604   5.767   5.685   8.222 -0.9132 -0.1778 -0.0240
   28DOPE  H16Y 3605   5.827   5.642   8.060  1.7830 -1.4285  1.1329
   28DOPE  C317 3606   5.735   5.850   8.071 -0.7082  0.3303 -0.2118
   28DOPE  H17X 3607   5.630   5.822   8.094 -0.6896  1.8303  1.9525
   28DOPE  H17Y 3608   5.755   5.942   8.130  0.0306 -0.8380  1.4379
   28DOPE  C318 3609   5.747   5.884   7.922 -0.1282  0.0404  0.0459
   28DOPE  H18X 3610   5.689   5.972   7.887  1.3375  1.0593  0.1100
   28DOPE  H18Y 3611   5.853   5.897   7.891  0.1163 -2.6518 -0.4898
   28DOPE  H18Z 3612   5.710   5.797   7.863  2.1038 -1.2436  0.4440
   29DOPE     N 3613   0.157   6.439   9.922 -0.2027 -0.1953  0.3116
   29DOPE   HN1 3614   0.058   6.469   9.935 -0.1194  0.0926  0.3026
   29DOPE   HN2 3615   0.200   6.509   9.858 -0.2271 -0.1739  0.3187
   29DOPE   HN3 3616   0.150   6.349   9.872 -1.1421  0.7935 -1.4091
   29DOPE   C12 3617   0.247   6.421  10.042 -0.1852 -0.7781 -0.6753
   29DOPE  H12A 3618   0.332   6.492  10.043  0.0181 -0.9955 -1.5632
   29DOPE  H12B 3619   0.298   6.323  10.025  0.7503 -0.5326  0.5453
   29DOPE   C11 3620   0.183   6.396  10.177  0.5105 -0.6467  0.3011
   29DOPE  H11A 3621   0.256   6.423  10.256 -1.0653  0.5478  1.4132
   29DOPE  H11B 3622   0.141   6.294  10.186 -0.8613 -0.3743 -2.1011
   29DOPE     P 3623   0.018   6.533  10.327  0.1917 -0.2785 -0.0871
   29DOPE   O13 3624   0.112   6.627  10.393  0.0779  0.0976 -0.3059
   29DOPE   O14 3625  -0.008   6.408  10.404 -0.4774 -0.0934  0.2254
   29DOPE   O11 3626  -0.117   6.603  10.292  0.4540 -0.0583  0.4422
   29DOPE   O12 3627   0.080   6.496  10.186  0.2497  0.3009 -0.1350
   29DOPE    C1 3628  -0.112   6.741  10.238  0.0745  1.2958 -0.1488
   29DOPE    HA 3629  -0.032   6.810  10.273 -0.3884  2.0963 -0.6443
   29DOPE    HB 3630  -0.207   6.786  10.273 -0.4610  0.2396 -0.1830
   29DOPE    C2 3631  -0.124   6.739  10.087 -0.3151 -0.0580  0.2537
   29DOPE    HS 3632  -0.029   6.704  10.042  0.2227  1.7892 -0.1058
   29DOPE   O21 3633  -0.142   6.875  10.041  0.2882 -0.3474 -0.0531
   29DOPE   C21 3634  -0.082   6.913   9.922  0.4494  0.4976 -0.3479
   29DOPE   O22 3635  -0.006   6.845   9.859 -0.0739  0.5509 -0.0094
   29DOPE   C22 3636  -0.124   7.060   9.892  0.3558  0.6740  0.3498
   29DOPE   H2R 3637  -0.047   7.119   9.946  0.3654  1.7867 -0.8205
   29DOPE   H2S 3638  -0.224   7.075   9.938  0.6991 -0.2673  1.4392
   29DOPE    C3 3639  -0.243   6.657  10.050  0.5859  0.2526  0.4040
   29DOPE    HX 3640  -0.329   6.700  10.105 -0.9494 -0.3208 -1.4301
   29DOPE    HY 3641  -0.246   6.552  10.086 -0.6737 -0.2345 -1.0278
   29DOPE   O31 3642  -0.271   6.662   9.905 -0.3613  0.1432 -0.1946
   29DOPE   C31 3643  -0.183   6.588   9.844  0.7177  0.8302  0.1799
   29DOPE   O32 3644  -0.097   6.519   9.891  0.3864 -0.6816  0.4117
   29DOPE   C32 3645  -0.216   6.580   9.701  0.4681 -0.7168 -0.0287
   29DOPE   H2X 3646  -0.326   6.578   9.685  0.0482  4.5471  0.3493
   29DOPE   H2Y 3647  -0.183   6.669   9.644  0.2771  0.1861  1.2166
   29DOPE   C23 3648  -0.100   7.087   9.744 -0.5636 -0.9290  0.0911
   29DOPE   H3R 3649   0.004   7.059   9.715 -0.2339  1.2332 -0.9830
   29DOPE   H3S 3650  -0.103   7.198   9.735 -0.8757 -0.3093  5.0181
   29DOPE   C24 3651  -0.189   7.029   9.641 -0.6989  1.1663 -0.7206
   29DOPE   H4R 3652  -0.296   7.047   9.662 -1.1553 -1.7229 -0.1651
   29DOPE   H4S 3653  -0.175   6.920   9.655 -0.9977  1.3677  1.3735
   29DOPE   C25 3654  -0.158   7.064   9.498 -0.1622 -0.0952  0.5881
   29DOPE   H5R 3655  -0.062   7.019   9.464 -0.7679  1.0216 -3.0180
   29DOPE   H5S 3656  -0.146   7.174   9.486 -1.0758  0.0183  0.6928
   29DOPE   C26 3657  -0.271   7.020   9.404 -0.2325 -0.3217  0.3184
   29DOPE   H6R 3658  -0.358   7.074   9.448  0.9414  3.0990 -1.1740
   29DOPE   H6S 3659  -0.295   6.912   9.409 -0.5270 -0.3185 -0.7662
   29DOPE   C27 3660  -0.250   7.051   9.255  0.5095  0.3129  0.8017
   29DOPE   H7R 3661  -0.144   7.023   9.232  0.6848  2.4418 -1.3651
   29DOPE   H7S 3662  -0.259   7.158   9.230  0.2063  0.0151 -0.4389
   29DOPE   C28 3663  -0.352   6.985   9.164  0.2648 -0.3896  0.0976
   29DOPE   H8R 3664  -0.448   7.035   9.186 -0.1543 -1.1458  0.0184
   29DOPE   H8S 3665  -0.363   6.880   9.198  1.5040 -0.5360  0.0933
   29DOPE   C29 3666  -0.339   6.991   9.011 -0.6113  0.2656 -0.1515
   29DOPE   H9R 3667  -0.241   6.988   8.960 -1.8068 -0.4008 -2.5771
   29DOPE  C210 3668  -0.440   6.997   8.925  1.0069 -0.0130 -0.1421
   29DOPE  H10R 3669  -0.423   6.979   8.818 -1.5446 -0.3030 -0.5664
   29DOPE  C211 3670  -0.582   6.992   8.964 -0.0707  0.4461  0.1392
   29DOPE  H11R 3671  -0.605   7.096   8.997 -2.4663  0.1998 -0.5621
   29DOPE  H11S 3672  -0.610   6.920   9.043 -0.4477  0.2713 -0.1507
   29DOPE  C212 3673  -0.669   6.962   8.839  0.5253  0.1453  1.4484
   29DOPE  H12R 3674  -0.770   6.926   8.866  0.9178 -1.3389  1.0394
   29DOPE  H12S 3675  -0.625   6.877   8.782 -1.3018  0.9379 -1.3190
   29DOPE  C213 3676  -0.683   7.080   8.745 -0.3222  0.0650  0.2997
   29DOPE  H13R 3677  -0.579   7.115   8.731 -0.1217 -0.0472  1.4050
   29DOPE  H13S 3678  -0.746   7.154   8.799  0.9457  1.2216  0.2397
   29DOPE  C214 3679  -0.756   7.043   8.619  0.0982  0.3634  0.4325
   29DOPE  H14R 3680  -0.804   7.133   8.574  0.8720 -0.0484 -1.2674
   29DOPE  H14S 3681  -0.840   6.976   8.648 -0.8414  0.0065 -2.7385
   29DOPE  C215 3682  -0.661   6.972   8.520 -0.7125  0.1296  0.0566
   29DOPE  H15R 3683  -0.615   6.879   8.561  1.3511  0.2435 -1.8422
   29DOPE  H15S 3684  -0.572   7.035   8.502  1.6091 -2.2192  2.4156
   29DOPE  C216 3685  -0.727   6.952   8.381 -0.2758  0.2253 -0.0048
   29DOPE  H16R 3686  -0.725   7.040   8.312  0.8406 -2.0024 -3.0640
   29DOPE  H16S 3687  -0.834   6.937   8.405 -0.4596 -0.1058 -0.9722
   29DOPE  C217 3688  -0.669   6.829   8.312  0.1232 -0.3371  0.0370
   29DOPE  H17R 3689  -0.693   6.739   8.372 -0.7784 -0.6159 -0.7160
   29DOPE  H17S 3690  -0.558   6.840   8.312  0.1153 -0.0310 -1.2832
   29DOPE  C218 3691  -0.710   6.818   8.163 -0.5447  0.1531  0.2029
   29DOPE  H18R 3692  -0.713   6.710   8.139 -1.0445  0.5849 -1.8331
   29DOPE  H18S 3693  -0.639   6.852   8.084 -1.0390  0.3218 -0.1718
   29DOPE  H18T 3694  -0.806   6.869   8.141 -1.3770 -0.5252  2.0582
   29DOPE   C33 3695  -0.161   6.450   9.646 -0.8322  0.2627 -0.4316
   29DOPE   H3X 3696  -0.210   6.375   9.712  2.0237  1.4721  3.4185
   29DOPE   H3Y 3697  -0.054   6.435   9.670 -1.5318 -1.1299  2.2711
   29DOPE   C34 3698  -0.175   6.427   9.494  0.7305  0.0085 -0.3155
   29DOPE   H4X 3699  -0.276   6.461   9.461 -0.0463 -1.8466  0.0132
   29DOPE   H4Y 3700  -0.100   6.490   9.440  0.3827  0.8144  0.1191
   29DOPE   C35 3701  -0.148   6.290   9.455  0.3392  0.5597  0.2469
   29DOPE   H5X 3702  -0.223   6.220   9.498  1.7275 -2.0472 -1.3113
   29DOPE   H5Y 3703  -0.049   6.256   9.491  0.5542  1.7804  0.8722
   29DOPE   C36 3704  -0.153   6.281   9.305  0.1564 -0.5549  0.1789
   29DOPE   H6X 3705  -0.073   6.349   9.269 -1.3452  1.7495  0.9909
   29DOPE   H6Y 3706  -0.253   6.321   9.279  0.1075 -1.4515 -1.1410
   29DOPE   C37 3707  -0.139   6.139   9.256  0.0772 -0.0021 -0.0774
   29DOPE   H7X 3708  -0.093   6.139   9.154  2.1115  1.3776  0.7715
   29DOPE   H7Y 3709  -0.076   6.084   9.329  1.4507 -0.6651 -1.6699
   29DOPE   C38 3710  -0.275   6.068   9.226 -0.1453  1.1247 -0.2617
   29DOPE   H8X 3711  -0.323   6.105   9.132  0.2346 -0.4548 -1.1168
   29DOPE   H8Y 3712  -0.348   6.089   9.307 -2.1406  1.9478 -2.1708
   29DOPE   C39 3713  -0.249   5.919   9.204  0.2136 -0.5078  0.1520
   29DOPE   H9X 3714  -0.253   5.853   9.292 -0.3415 -0.6073  0.0559
   29DOPE  C310 3715  -0.226   5.856   9.089 -0.9966  0.0593 -0.5526
   29DOPE  H10X 3716  -0.226   5.746   9.095 -0.3239  0.0902  0.2105
   29DOPE  C311 3717  -0.220   5.921   8.953 -0.6776  0.0944 -0.4602
   29DOPE  H11X 3718  -0.214   6.031   8.966  4.3294 -0.1126  1.5342
   29DOPE  H11Y 3719  -0.116   5.906   8.915 -0.7215  0.9229 -0.9282
   29DOPE  C312 3720  -0.328   5.876   8.855  0.2966 -0.9899  0.7462
   29DOPE  H12X 3721  -0.430   5.893   8.896  0.3613  2.7322 -0.2707
   29DOPE  H12Y 3722  -0.317   5.767   8.837 -0.7042 -1.2130  1.3787
   29DOPE  C313 3723  -0.322   5.955   8.724 -0.7379 -0.4501  0.4770
   29DOPE  H13X 3724  -0.408   5.924   8.660  0.3083 -1.8455 -0.3206
   29DOPE  H13Y 3725  -0.332   6.065   8.734 -2.1354 -0.6149  1.1995
   29DOPE  C314 3726  -0.198   5.926   8.638 -0.0245  0.8333  0.3181
   29DOPE  H14X 3727  -0.198   5.821   8.600  0.1139  1.1271 -0.5041
   29DOPE  H14Y 3728  -0.106   5.936   8.701 -0.1109 -0.9473  0.7961
   29DOPE  C315 3729  -0.191   6.013   8.513 -0.2395 -0.2831  0.4296
   29DOPE  H15X 3730  -0.180   6.120   8.544  0.0393 -0.4841  1.0530
   29DOPE  H15Y 3731  -0.286   5.995   8.459  0.2309 -1.5047 -0.0245
   29DOPE  C316 3732  -0.067   5.984   8.433 -0.4309  0.1511  0.2589
   29DOPE  H16X 3733  -0.058   5.876   8.406  0.2398 -0.0135  1.0950
   29DOPE  H16Y 3734   0.021   6.014   8.493  0.7190  1.7015 -2.0698
   29DOPE  C317 3735  -0.062   6.080   8.311 -0.9545  0.7533 -0.1888
   29DOPE  H17X 3736  -0.155   6.070   8.250 -2.0682 -1.4380  1.6955
   29DOPE  H17Y 3737  -0.060   6.182   8.353 -2.6794 -0.1714  2.4418
   29DOPE  C318 3738   0.058   6.050   8.224 -0.8811 -0.6944 -0.2879
   29DOPE  H18X 3739   0.060   5.941   8.199  1.2986 -1.0334  1.0682
   29DOPE  H18Y 3740   0.071   6.106   8.129  1.0153 -2.4525 -1.1575
   29DOPE  H18Z 3741   0.146   6.070   8.289 -3.3940  0.8934  2.9093
   30DOPE     N 3742   0.931   6.543  10.236 -0.2076 -0.1345 -0.8951
   30DOPE   HN1 3743   0.946   6.637  10.278 -1.0540 -0.3559 -0.0455
   30DOPE   HN2 3744   0.839   6.522  10.282  0.4360  0.8186  0.9504
   30DOPE   HN3 3745   1.000   6.480  10.280 -0.0455 -0.1632 -1.1941
   30DOPE   C12 3746   0.942   6.526  10.084  0.6461 -0.6626 -0.3892
   30DOPE  H12A 3747   1.040   6.572  10.058  1.2767 -0.6760  1.7753
   30DOPE  H12B 3748   0.860   6.590  10.045  0.6957  2.1629  3.5390
   30DOPE   C11 3749   0.942   6.394  10.028  0.0443  0.5022  0.8143
   30DOPE  H11A 3750   1.039   6.345  10.051 -0.5218  0.1759  2.6606
   30DOPE  H11B 3751   0.935   6.398   9.917  1.8538  1.7424  0.7174
   30DOPE     P 3752   0.690   6.322  10.062  0.3818 -0.1741  0.0411
   30DOPE   O13 3753   0.640   6.385  10.188 -0.1237 -0.6048 -0.4480
   30DOPE   O14 3754   0.641   6.191  10.019 -0.2310  0.3802 -0.6856
   30DOPE   O11 3755   0.678   6.429   9.942  0.6956  0.0970 -0.3413
   30DOPE   O12 3756   0.841   6.308  10.079  0.0616  0.3868  0.0689
   30DOPE    C1 3757   0.633   6.386   9.812  0.0117  0.6531  0.2294
   30DOPE    HA 3758   0.599   6.280   9.810 -2.4228  1.3819 -0.9662
   30DOPE    HB 3759   0.717   6.393   9.740  0.6870 -1.0372  0.7913
   30DOPE    C2 3760   0.518   6.482   9.758 -0.0959 -0.0698 -0.3457
   30DOPE    HS 3761   0.421   6.461   9.807 -0.1843  0.2241 -0.3959
   30DOPE   O21 3762   0.512   6.451   9.618  0.3414 -0.3352 -0.0233
   30DOPE   C21 3763   0.391   6.429   9.570 -0.7498  0.7247 -0.3361
   30DOPE   O22 3764   0.285   6.450   9.616  0.3177 -0.4434 -0.2911
   30DOPE   C22 3765   0.417   6.385   9.426  0.1492 -0.5481  0.1284
   30DOPE   H2R 3766   0.483   6.298   9.439 -0.5728 -1.1732 -0.2833
   30DOPE   H2S 3767   0.478   6.467   9.382 -1.4516  0.9494  0.5731
   30DOPE    C3 3768   0.544   6.631   9.780  0.9125 -0.6743 -0.5806
   30DOPE    HX 3769   0.650   6.651   9.754  0.9039 -0.1896 -0.2506
   30DOPE    HY 3770   0.517   6.649   9.887 -1.1303  0.7691 -1.2657
   30DOPE   O31 3771   0.461   6.717   9.699  0.0292 -0.0242 -0.1071
   30DOPE   C31 3772   0.336   6.722   9.725 -0.4326  0.6359  0.2022
   30DOPE   O32 3773   0.275   6.661   9.816 -0.2710  0.4785 -0.2552
   30DOPE   C32 3774   0.281   6.835   9.644  0.0733  0.1494 -0.2335
   30DOPE   H2X 3775   0.271   6.912   9.724 -1.6258 -0.6745  0.3964
   30DOPE   H2Y 3776   0.357   6.875   9.574 -0.8330  2.3805 -0.0272
   30DOPE   C23 3777   0.300   6.366   9.320 -0.8567 -0.4209 -0.5610
   30DOPE   H3R 3778   0.275   6.464   9.274 -2.1962 -1.1664 -1.4935
   30DOPE   H3S 3779   0.212   6.324   9.373  0.0572  0.4250  1.7397
   30DOPE   C24 3780   0.344   6.270   9.208  0.8874  0.5594 -0.5327
   30DOPE   H4R 3781   0.375   6.174   9.256  0.3703  1.5047  1.8699
   30DOPE   H4S 3782   0.430   6.317   9.155  1.0500  0.1777 -0.6127
   30DOPE   C25 3783   0.222   6.239   9.114 -0.1584 -0.3624  0.4875
   30DOPE   H5R 3784   0.129   6.227   9.174 -0.3175  1.0692  0.5775
   30DOPE   H5S 3785   0.238   6.146   9.056 -0.1274  0.2954 -0.5875
   30DOPE   C26 3786   0.197   6.351   9.015  0.0104  0.2901  0.1574
   30DOPE   H6R 3787   0.289   6.369   8.954  0.5218 -0.6740  0.6129
   30DOPE   H6S 3788   0.200   6.450   9.066  0.0044  0.9742 -1.1292
   30DOPE   C27 3789   0.071   6.328   8.929  0.1459  0.1677 -0.1805
   30DOPE   H7R 3790   0.056   6.421   8.870  3.0982  0.4185 -0.6813
   30DOPE   H7S 3791  -0.017   6.312   8.995  0.5687 -1.5864  0.0170
   30DOPE   C28 3792   0.067   6.209   8.832  0.3262  0.0651 -0.6101
   30DOPE   H8R 3793  -0.015   6.229   8.761 -0.1557 -2.0924 -0.7249
   30DOPE   H8S 3794   0.050   6.119   8.894  0.1357  0.8196  0.4703
   30DOPE   C29 3795   0.197   6.194   8.763  0.2483  0.4582  0.3752
   30DOPE   H9R 3796   0.261   6.120   8.814  1.1740  0.0000 -1.3585
   30DOPE  C210 3797   0.241   6.253   8.651 -0.4233  0.3338  0.2401
   30DOPE  H10R 3798   0.346   6.228   8.627  0.0010  1.4351  0.8425
   30DOPE  C211 3799   0.176   6.363   8.572  1.2062  0.0715 -0.5943
   30DOPE  H11R 3800   0.223   6.450   8.622 -1.5998  0.4809  1.5780
   30DOPE  H11S 3801   0.066   6.374   8.588  1.3349  1.8373 -0.7113
   30DOPE  C212 3802   0.206   6.346   8.427  0.4611 -0.6567 -0.1566
   30DOPE  H12R 3803   0.179   6.245   8.388  0.1200 -0.7052  0.1992
   30DOPE  H12S 3804   0.314   6.358   8.408  0.4777 -0.8162 -0.1617
   30DOPE  C213 3805   0.139   6.449   8.329 -0.0545 -0.2483 -0.7290
   30DOPE  H13R 3806   0.128   6.547   8.381  1.2542  0.2443 -1.3231
   30DOPE  H13S 3807   0.035   6.427   8.299 -0.7518 -1.3985  2.2195
   30DOPE  C214 3808   0.210   6.482   8.196 -0.2407 -0.0340  0.1108
   30DOPE  H14R 3809   0.306   6.427   8.190 -0.1083  0.2798 -0.7634
   30DOPE  H14S 3810   0.238   6.590   8.190 -1.8616  0.3863 -0.3057
   30DOPE  C215 3811   0.133   6.430   8.077 -0.7692 -0.4630 -0.3327
   30DOPE  H15R 3812   0.038   6.487   8.071  0.4976  1.9974  1.2082
   30DOPE  H15S 3813   0.115   6.321   8.088  2.1732 -0.9597  0.3738
   30DOPE  C216 3814   0.199   6.441   7.946 -0.1156 -0.1573 -0.4055
   30DOPE  H16R 3815   0.126   6.418   7.865 -0.8153 -0.7732  0.3916
   30DOPE  H16S 3816   0.284   6.370   7.944  0.1327  0.1440 -1.0772
   30DOPE  C217 3817   0.248   6.580   7.912 -0.4747  0.6722  0.4518
   30DOPE  H17R 3818   0.317   6.616   7.992  1.2927  0.0200 -0.7200
   30DOPE  H17S 3819   0.156   6.642   7.907 -1.6860 -0.9200  1.6897
   30DOPE  C218 3820   0.333   6.589   7.786 -0.1619 -0.1618 -0.0999
   30DOPE  H18R 3821   0.419   6.520   7.796  1.8899  2.3440  0.7676
   30DOPE  H18S 3822   0.392   6.682   7.767  2.8575 -2.0004 -0.4353
   30DOPE  H18T 3823   0.264   6.577   7.700 -1.4525 -0.5144  0.9545
   30DOPE   C33 3824   0.137   6.812   9.581  0.3464 -0.1511  0.0300
   30DOPE   H3X 3825   0.084   6.903   9.547 -3.2635 -2.4967 -1.0942
   30DOPE   H3Y 3826   0.072   6.760   9.654 -0.2882  1.0970  0.3854
   30DOPE   C34 3827   0.142   6.718   9.450  0.3968  0.0022 -0.1208
   30DOPE   H4X 3828   0.237   6.747   9.400  0.6548 -0.5872  0.0286
   30DOPE   H4Y 3829   0.138   6.612   9.480  1.8209 -0.4598 -1.4282
   30DOPE   C35 3830   0.020   6.750   9.360 -0.2746 -0.2746  0.3517
   30DOPE   H5X 3831   0.025   6.859   9.339 -2.0306 -0.1709  0.3597
   30DOPE   H5Y 3832  -0.075   6.736   9.416 -0.9954 -1.7365 -1.1465
   30DOPE   C36 3833   0.021   6.665   9.234 -0.1757 -0.1512  0.0183
   30DOPE   H6X 3834   0.038   6.563   9.274 -1.8110 -0.9889 -1.2952
   30DOPE   H6Y 3835   0.101   6.699   9.165  0.0645  0.3783  0.5470
   30DOPE   C37 3836  -0.114   6.681   9.164 -1.0061  0.0674 -0.4267
   30DOPE   H7X 3837  -0.188   6.617   9.217  0.7672 -1.2718  0.5434
   30DOPE   H7Y 3838  -0.137   6.789   9.155 -0.4730  0.0735 -1.9947
   30DOPE   C38 3839  -0.107   6.631   9.017 -0.1639  0.0428 -0.0888
   30DOPE   H8X 3840  -0.102   6.520   9.016  0.3834  0.0670 -0.8814
   30DOPE   H8Y 3841  -0.019   6.684   8.976 -1.0306  1.7190  0.1327
   30DOPE   C39 3842  -0.230   6.669   8.938 -0.1830 -0.2972  0.6249
   30DOPE   H9X 3843  -0.324   6.639   8.985  0.7179  1.1900  3.6233
   30DOPE  C310 3844  -0.227   6.714   8.810 -0.1259 -0.4067 -0.0952
   30DOPE  H10X 3845  -0.315   6.739   8.750 -0.3766  0.5694  0.6517
   30DOPE  C311 3846  -0.106   6.748   8.722  0.7824  0.1211 -0.8228
   30DOPE  H11X 3847  -0.130   6.851   8.687  1.1552  0.7112  0.5745
   30DOPE  H11Y 3848  -0.011   6.752   8.779  0.7725  2.5250 -0.8756
   30DOPE  C312 3849  -0.098   6.645   8.602  0.4320 -0.9706 -0.2386
   30DOPE  H12X 3850  -0.089   6.549   8.658 -0.8169 -1.4042 -0.7541
   30DOPE  H12Y 3851   0.001   6.658   8.553  0.9362 -0.7864  0.7991
   30DOPE  C313 3852  -0.221   6.633   8.509 -0.8127  0.4605  0.2205
   30DOPE  H13X 3853  -0.311   6.646   8.572 -2.6192 -0.3474 -2.0383
   30DOPE  H13Y 3854  -0.226   6.729   8.453  0.8192  0.6215  0.3039
   30DOPE  C314 3855  -0.212   6.505   8.425  0.1205 -0.2049 -0.7842
   30DOPE  H14X 3856  -0.198   6.417   8.491 -0.7977  0.6677  0.6528
   30DOPE  H14Y 3857  -0.133   6.519   8.349 -0.0433  1.8634 -0.6515
   30DOPE  C315 3858  -0.342   6.488   8.339 -0.2963 -0.3466 -0.0785
   30DOPE  H15X 3859  -0.356   6.574   8.270 -0.6479 -0.8279 -0.6241
   30DOPE  H15Y 3860  -0.433   6.494   8.401  0.5655  1.7277  1.0691
   30DOPE  C316 3861  -0.342   6.349   8.274 -0.2653 -0.4352  0.9832
   30DOPE  H16X 3862  -0.341   6.272   8.354 -1.7897 -0.5609  0.9062
   30DOPE  H16Y 3863  -0.249   6.338   8.215 -1.1260 -0.4433 -0.4008
   30DOPE  C317 3864  -0.462   6.326   8.181 -0.3407 -0.2428  0.5453
   30DOPE  H17X 3865  -0.554   6.370   8.227  0.7287  2.4978  0.1993
   30DOPE  H17Y 3866  -0.452   6.393   8.093 -2.1510 -1.6561 -0.8257
   30DOPE  C318 3867  -0.486   6.185   8.132 -0.0235 -0.0258 -0.3838
   30DOPE  H18X 3868  -0.509   6.115   8.216  0.8396 -0.5687 -0.5880
   30DOPE  H18Y 3869  -0.581   6.190   8.074  1.6207  1.0772 -3.1382
   30DOPE  H18Z 3870  -0.403   6.145   8.071  0.2630  0.7137 -0.4838
   31DOPE     N 3871   2.438   2.455   4.767  0.2480  0.4927  0.0288
   31DOPE   HN1 3872   2.518   2.390   4.752  0.0501  0.7428 -2.4627
   31DOPE   HN2 3873   2.366   2.381   4.773  1.6215 -1.0073 -1.0223
   31DOPE   HN3 3874   2.407   2.523   4.696 -4.1601 -0.1639  1.0639
   31DOPE   C12 3875   2.454   2.532   4.894  0.2976 -0.3538  0.2168
   31DOPE  H12A 3876   2.476   2.638   4.869 -3.3406  0.4189 -0.2381
   31DOPE  H12B 3877   2.547   2.500   4.947 -0.6727  0.9617  2.9060
   31DOPE   C11 3878   2.323   2.529   4.980  0.3302 -0.5326  0.1688
   31DOPE  H11A 3879   2.350   2.566   5.081 -1.1426 -1.2513  0.8375
   31DOPE  H11B 3880   2.296   2.423   4.998  2.4033 -1.0540  0.4918
   31DOPE     P 3881   2.212   2.762   4.961  0.1035  0.2322  0.1225
   31DOPE   O13 3882   2.092   2.810   4.896  0.6712  0.0488  0.3490
   31DOPE   O14 3883   2.340   2.831   4.925  0.6551  0.9228  0.3269
   31DOPE   O11 3884   2.195   2.756   5.113  0.3828  0.3471  0.1408
   31DOPE   O12 3885   2.213   2.609   4.921 -0.0703  0.1773 -0.1112
   31DOPE    C1 3886   2.077   2.783   5.184 -0.0605 -0.1116 -0.8790
   31DOPE    HA 3887   1.999   2.704   5.185 -2.1046  1.7907  0.3450
   31DOPE    HB 3888   2.039   2.883   5.154  0.9886  1.3041  2.0848
   31DOPE    C2 3889   2.108   2.822   5.337  0.4072  0.8552  0.5471
   31DOPE    HS 3890   2.121   2.728   5.394  0.2335  0.0065 -0.7790
   31DOPE   O21 3891   1.997   2.897   5.394 -0.0958 -0.1872 -0.0102
   31DOPE   C21 3892   1.886   2.837   5.415 -0.0327 -0.6350 -0.0568
   31DOPE   O22 3893   1.864   2.720   5.389 -0.5288  0.0360  0.0432
   31DOPE   C22 3894   1.784   2.932   5.480  0.4592 -0.0107 -0.1197
   31DOPE   H2R 3895   1.734   2.999   5.408  1.7336  2.2600  0.9977
   31DOPE   H2S 3896   1.844   3.006   5.538 -0.6611  1.0832 -0.3068
   31DOPE    C3 3897   2.227   2.922   5.332  0.4664  1.4164 -0.3977
   31DOPE    HX 3898   2.184   3.008   5.276  2.2781  1.4865 -1.7585
   31DOPE    HY 3899   2.301   2.865   5.272 -0.1738  1.2736 -1.0756
   31DOPE   O31 3900   2.261   2.961   5.465 -0.1088 -0.4096  0.7370
   31DOPE   C31 3901   2.369   3.038   5.464 -0.8168 -0.1965  0.0987
   31DOPE   O32 3902   2.437   3.063   5.366 -0.5826  0.2737  0.5559
   31DOPE   C32 3903   2.405   3.079   5.607  0.0097  0.5574  0.1332
   31DOPE   H2X 3904   2.431   3.187   5.613 -0.2730  0.5662  1.2792
   31DOPE   H2Y 3905   2.320   3.054   5.673  0.7293 -2.9152 -0.0591
   31DOPE   C23 3906   1.686   2.863   5.581  0.0085 -0.0420 -0.8624
   31DOPE   H3R 3907   1.611   2.795   5.535 -0.7285 -1.2755  1.9721
   31DOPE   H3S 3908   1.620   2.944   5.619 -1.1347 -0.1995 -2.4014
   31DOPE   C24 3909   1.756   2.787   5.691 -0.4821  0.5124  0.1064
   31DOPE   H4R 3910   1.849   2.833   5.731 -0.6968  1.1781 -0.1559
   31DOPE   H4S 3911   1.799   2.694   5.648 -0.3024  1.4758 -1.9143
   31DOPE   C25 3912   1.663   2.746   5.806  0.1895 -0.1895  0.3690
   31DOPE   H5R 3913   1.586   2.680   5.763  0.9578 -0.9736  0.1576
   31DOPE   H5S 3914   1.622   2.842   5.844  0.6312  0.3914 -0.5857
   31DOPE   C26 3915   1.738   2.669   5.919 -0.3058  0.2666 -0.2866
   31DOPE   H6R 3916   1.801   2.583   5.888 -0.6455 -0.4492  0.9514
   31DOPE   H6S 3917   1.657   2.607   5.964 -0.0834  0.6780  0.7005
   31DOPE   C27 3918   1.802   2.753   6.022 -0.2192  0.4659  0.3070
   31DOPE   H7R 3919   1.727   2.824   6.063 -1.2103 -0.6227  0.4597
   31DOPE   H7S 3920   1.887   2.810   5.979  0.5269 -0.2100  0.8433
   31DOPE   C28 3921   1.850   2.678   6.146 -0.7368  1.0965  0.0195
   31DOPE   H8R 3922   1.932   2.720   6.208  0.4352  0.1980 -0.8701
   31DOPE   H8S 3923   1.904   2.591   6.103 -1.8024 -0.1942  1.1782
   31DOPE   C29 3924   1.726   2.629   6.233 -0.1313  0.2533  0.2128
   31DOPE   H9R 3925   1.644   2.572   6.186 -2.5921  0.5651  3.7336
   31DOPE  C210 3926   1.713   2.658   6.363 -0.6827 -0.3001 -0.0490
   31DOPE  H10R 3927   1.616   2.642   6.413 -0.0106  1.4515  1.9701
   31DOPE  C211 3928   1.812   2.732   6.446 -0.1586  0.8258  0.2705
   31DOPE  H11R 3929   1.826   2.840   6.423  3.0734  0.3150 -0.5668
   31DOPE  H11S 3930   1.909   2.680   6.433 -0.7283 -0.0611 -0.5332
   31DOPE  C212 3931   1.797   2.714   6.595  0.9882 -0.3012 -0.6388
   31DOPE  H12R 3932   1.799   2.604   6.613  0.6281 -0.1478  0.4483
   31DOPE  H12S 3933   1.700   2.749   6.638  1.1597  0.7161 -1.0464
   31DOPE  C213 3934   1.915   2.768   6.676 -0.0231  0.3655 -0.6693
   31DOPE  H13R 3935   1.913   2.876   6.650 -0.8500 -0.1868 -3.1741
   31DOPE  H13S 3936   2.010   2.718   6.650  1.1421  1.2793  1.5811
   31DOPE  C214 3937   1.915   2.738   6.830  1.0943  0.6501 -0.4934
   31DOPE  H14R 3938   1.920   2.630   6.855  1.4664  0.8793  0.4779
   31DOPE  H14S 3939   1.816   2.768   6.871  1.4594 -2.6708  3.4253
   31DOPE  C215 3940   2.031   2.815   6.895 -0.1236  0.5709  0.1396
   31DOPE  H15R 3941   1.988   2.876   6.978  0.4112  0.0752  0.8001
   31DOPE  H15S 3942   2.079   2.881   6.820  0.5165 -0.9147 -0.7936
   31DOPE  C216 3943   2.126   2.719   6.968 -0.6413  0.0339 -0.0673
   31DOPE  H16R 3944   2.062   2.646   7.021 -3.1341  0.8875 -1.7620
   31DOPE  H16S 3945   2.183   2.781   7.041 -1.3454  0.4995  0.0902
   31DOPE  C217 3946   2.215   2.644   6.874  0.0129 -0.4365 -0.3400
   31DOPE  H17R 3947   2.297   2.704   6.828  0.9020  0.4669  2.2390
   31DOPE  H17S 3948   2.159   2.622   6.781 -1.0817  0.4415  0.0898
   31DOPE  C218 3949   2.291   2.526   6.940  0.3658 -0.4090 -0.6748
   31DOPE  H18R 3950   2.379   2.572   6.989  0.2993  0.0958 -1.0215
   31DOPE  H18S 3951   2.324   2.454   6.862 -1.0722 -2.8068  0.7772
   31DOPE  H18T 3952   2.223   2.471   7.010  0.9266  0.1822  0.3630
   31DOPE   C33 3953   2.534   2.995   5.650 -0.4413 -0.1066  0.2646
   31DOPE   H3X 3954   2.610   3.003   5.569  1.9460 -1.3009  2.2371
   31DOPE   H3Y 3955   2.521   2.887   5.671  2.9179 -0.7577 -0.3908
   31DOPE   C34 3956   2.599   3.057   5.780  0.0070  0.1442 -0.3295
   31DOPE   H4X 3957   2.691   3.000   5.803  1.3894  1.7488 -1.6283
   31DOPE   H4Y 3958   2.638   3.157   5.751 -1.6502  1.0977  0.5688
   31DOPE   C35 3959   2.504   3.063   5.896  0.2614 -0.4130 -0.9710
   31DOPE   H5X 3960   2.471   2.959   5.921  1.3804 -0.2334  1.5781
   31DOPE   H5Y 3961   2.408   3.117   5.880  1.1164  1.5233  0.1209
   31DOPE   C36 3962   2.568   3.114   6.029  0.3879 -0.0504  0.2712
   31DOPE   H6X 3963   2.609   3.217   6.017  0.6341 -0.0298  1.2124
   31DOPE   H6Y 3964   2.653   3.044   6.043 -0.3426 -1.1880 -0.8166
   31DOPE   C37 3965   2.471   3.107   6.155 -0.4562 -0.3109  0.4321
   31DOPE   H7X 3966   2.370   3.145   6.128  0.1758  1.9663  1.0014
   31DOPE   H7Y 3967   2.456   3.002   6.188  1.5356 -0.9227 -0.4578
   31DOPE   C38 3968   2.523   3.192   6.273  0.1884 -0.3832  0.3848
   31DOPE   H8X 3969   2.446   3.181   6.353  1.1118 -1.3718  1.1655
   31DOPE   H8Y 3970   2.549   3.296   6.246  1.1046 -1.5228 -3.7716
   31DOPE   C39 3971   2.651   3.147   6.334  0.8900  0.3553 -0.2346
   31DOPE   H9X 3972   2.712   3.097   6.257 -0.4423 -0.9495 -0.4907
   31DOPE  C310 3973   2.708   3.175   6.456  0.7841 -0.9344  0.8124
   31DOPE  H10X 3974   2.804   3.125   6.472 -0.2034 -3.5194 -0.7190
   31DOPE  C311 3975   2.654   3.258   6.565  0.4064  0.1181 -0.2383
   31DOPE  H11X 3976   2.694   3.360   6.548  1.7339 -0.5934 -1.6202
   31DOPE  H11Y 3977   2.544   3.245   6.567  0.5204 -1.6771  3.4245
   31DOPE  C312 3978   2.711   3.207   6.703  0.2138  1.1384 -0.6919
   31DOPE  H12X 3979   2.698   3.291   6.776  0.1192 -0.0140  0.6591
   31DOPE  H12Y 3980   2.816   3.173   6.703 -0.4476 -1.1147  0.5667
   31DOPE  C313 3981   2.634   3.079   6.754 -0.0754 -0.0802  0.4140
   31DOPE  H13X 3982   2.525   3.097   6.751 -0.7168 -3.3425  0.7039
   31DOPE  H13Y 3983   2.664   2.992   6.692 -0.6325 -0.0504  0.1052
   31DOPE  C314 3984   2.673   3.032   6.893  0.3013  0.8943 -0.1993
   31DOPE  H14X 3985   2.665   3.115   6.966  2.1314 -0.2231  1.3464
   31DOPE  H14Y 3986   2.780   3.003   6.897 -0.1152 -0.6095  3.5179
   31DOPE  C315 3987   2.582   2.915   6.937  0.0715 -0.4626  0.1121
   31DOPE  H15X 3988   2.627   2.877   7.032  0.6123  1.3486  0.6126
   31DOPE  H15Y 3989   2.580   2.833   6.862 -1.7452 -1.1226  0.8033
   31DOPE  C316 3990   2.436   2.944   6.973  0.0430 -0.4688  0.5924
   31DOPE  H16X 3991   2.391   2.845   6.994 -0.4535 -0.9235 -2.2542
   31DOPE  H16Y 3992   2.384   2.994   6.888  1.9693 -0.9851 -0.9726
   31DOPE  C317 3993   2.424   3.035   7.099 -0.4294  0.0413 -0.1896
   31DOPE  H17X 3994   2.509   3.036   7.171 -0.2275  2.4683 -0.3820
   31DOPE  H17Y 3995   2.382   3.136   7.077  0.6592  0.7222  0.7206
   31DOPE  C318 3996   2.323   2.984   7.197  0.7647  0.1325 -0.4309
   31DOPE  H18X 3997   2.304   2.875   7.204 -1.8663  0.6131  2.4442
   31DOPE  H18Y 3998   2.335   3.022   7.301 -1.0225 -2.2571  0.7499
   31DOPE  H18Z 3999   2.222   3.025   7.180  0.5908  0.4775  1.2031
   32DOPE     N 4000   5.151   2.456   5.294  0.1554 -0.2468 -0.0198
   32DOPE   HN1 4001   5.235   2.517   5.293 -0.1866  0.2643  1.0687
   32DOPE   HN2 4002   5.127   2.445   5.394 -1.0402  0.9971 -0.1378
   32DOPE   HN3 4003   5.175   2.359   5.265  0.9191  0.7066 -2.8847
   32DOPE   C12 4004   5.038   2.519   5.224 -0.8027 -0.3680  0.1993
   32DOPE  H12A 4005   4.954   2.447   5.218 -1.3353 -0.1648  3.3367
   32DOPE  H12B 4006   5.073   2.550   5.123  1.7916 -0.0852  1.0817
   32DOPE   C11 4007   4.990   2.643   5.300 -0.8644  0.6565 -0.7300
   32DOPE  H11A 4008   5.065   2.724   5.287  0.9361 -0.9499 -0.7937
   32DOPE  H11B 4009   4.987   2.620   5.409 -1.7347  0.0741 -0.8759
   32DOPE     P 4010   4.810   2.831   5.216 -0.3030 -0.0434  0.0272
   32DOPE   O13 4011   4.715   2.805   5.103 -0.4182 -0.0125  0.0503
   32DOPE   O14 4012   4.922   2.916   5.181 -0.4393 -0.2639 -0.0989
   32DOPE   O11 4013   4.737   2.905   5.331  0.5382  0.0927  0.7509
   32DOPE   O12 4014   4.863   2.691   5.260  0.2073  0.2815 -0.6126
   32DOPE    C1 4015   4.753   2.862   5.467 -0.1277 -0.0444  0.2837
   32DOPE    HA 4016   4.802   2.762   5.467  1.6203  0.7740  0.4695
   32DOPE    HB 4017   4.659   2.857   5.526  0.0923 -0.2117  0.6231
   32DOPE    C2 4018   4.832   2.958   5.556 -0.3846  0.1828 -0.6574
   32DOPE    HS 4019   4.935   2.963   5.516  0.6705 -0.8800  1.7551
   32DOPE   O21 4020   4.825   2.901   5.689  0.2993  0.2215 -1.0191
   32DOPE   C21 4021   4.893   2.956   5.791  0.7504  0.3882  0.1963
   32DOPE   O22 4022   4.968   3.054   5.786  0.7406 -0.6604  0.4560
   32DOPE   C22 4023   4.861   2.863   5.915  0.2755 -0.0149 -0.0408
   32DOPE   H2R 4024   4.928   2.775   5.918  0.3248  0.0439  1.8596
   32DOPE   H2S 4025   4.755   2.830   5.906  0.3610 -0.1339 -0.6821
   32DOPE    C3 4026   4.763   3.100   5.557  0.4768 -0.0924  0.3606
   32DOPE    HX 4027   4.756   3.133   5.451 -0.9584 -1.6037 -0.0724
   32DOPE    HY 4028   4.834   3.169   5.606 -1.5659  0.9707  1.9805
   32DOPE   O31 4029   4.631   3.102   5.628 -0.2819 -0.8203  0.0517
   32DOPE   C31 4030   4.614   3.212   5.707  0.1948  0.9919 -0.4560
   32DOPE   O32 4031   4.694   3.302   5.714  0.5025  0.0585  0.3965
   32DOPE   C32 4032   4.487   3.201   5.793  0.2246 -0.1733  0.2085
   32DOPE   H2X 4033   4.400   3.194   5.724 -0.1268 -0.7391  0.6961
   32DOPE   H2Y 4034   4.502   3.105   5.848  0.8071  0.9028  2.0257
   32DOPE   C23 4035   4.881   2.930   6.054  0.2363 -0.1300  0.5895
   32DOPE   H3R 4036   4.812   3.017   6.069 -2.2894 -2.0728  0.9425
   32DOPE   H3S 4037   4.986   2.965   6.068  0.6041 -1.6312  1.8532
   32DOPE   C24 4038   4.853   2.826   6.161 -0.0973  0.1333  0.3441
   32DOPE   H4R 4039   4.892   2.726   6.133 -0.7996 -0.3425  1.0514
   32DOPE   H4S 4040   4.743   2.811   6.163 -0.0575 -0.4793 -0.8924
   32DOPE   C25 4041   4.912   2.861   6.302  0.2831 -0.0769 -0.0755
   32DOPE   H5R 4042   4.876   2.957   6.344  1.3501  0.2383  0.1430
   32DOPE   H5S 4043   5.019   2.872   6.276  0.3516  0.6483  0.4746
   32DOPE   C26 4044   4.909   2.752   6.405 -0.9669 -0.0793 -0.2928
   32DOPE   H6R 4045   4.943   2.661   6.350  1.0087 -0.6471  1.6953
   32DOPE   H6S 4046   4.800   2.733   6.421 -0.7147 -0.5976  0.9055
   32DOPE   C27 4047   4.989   2.774   6.533  0.7024  0.2261  0.9810
   32DOPE   H7R 4048   4.950   2.872   6.568 -0.3991  0.0621  0.2518
   32DOPE   H7S 4049   5.097   2.790   6.513  0.1256  0.9664 -2.0822
   32DOPE   C28 4050   4.955   2.675   6.637 -0.1353 -0.1918 -0.0827
   32DOPE   H8R 4051   5.029   2.683   6.719  1.0753  0.0144 -1.1552
   32DOPE   H8S 4052   4.994   2.587   6.582  0.4430  1.9203 -3.3981
   32DOPE   C29 4053   4.816   2.670   6.689  0.2227  0.2902  0.1236
   32DOPE   H9R 4054   4.741   2.630   6.618  0.9411 -2.4237  0.8118
   32DOPE  C210 4055   4.757   2.727   6.798  0.4760  0.4696 -0.3756
   32DOPE  H10R 4056   4.653   2.710   6.829  0.2890  1.4753 -0.4340
   32DOPE  C211 4057   4.836   2.797   6.902  0.6796  0.4035  0.1906
   32DOPE  H11R 4058   4.816   2.907   6.899  0.9057  0.4220 -1.0185
   32DOPE  H11S 4059   4.943   2.780   6.878 -0.2746 -2.7171 -2.6490
   32DOPE  C212 4060   4.805   2.743   7.045 -0.3087 -0.0383 -0.0977
   32DOPE  H12R 4061   4.814   2.632   7.045  0.4298  0.0112 -0.9386
   32DOPE  H12S 4062   4.699   2.767   7.066  0.1482 -0.3235  3.1033
   32DOPE  C213 4063   4.890   2.793   7.164  0.3200 -1.4418  0.3351
   32DOPE  H13R 4064   4.995   2.762   7.148  1.2183  1.5180 -0.0640
   32DOPE  H13S 4065   4.862   2.741   7.258  0.2110  1.7395  2.2077
   32DOPE  C214 4066   4.881   2.939   7.191  0.0866  0.1704 -0.0361
   32DOPE  H14R 4067   4.775   2.970   7.198 -0.7314 -2.3104 -0.4424
   32DOPE  H14S 4068   4.938   2.994   7.112 -0.0237  1.7120  0.9167
   32DOPE  C215 4069   4.955   2.983   7.321  0.4131 -0.0395 -0.1524
   32DOPE  H15R 4070   4.917   2.924   7.408  0.6753 -0.1412 -0.1050
   32DOPE  H15S 4071   4.932   3.090   7.339 -2.6478 -0.7777  1.0728
   32DOPE  C216 4072   5.108   2.960   7.304  0.2229 -0.4542 -0.3227
   32DOPE  H16R 4073   5.129   2.997   7.202 -2.3568  0.2316 -0.6747
   32DOPE  H16S 4074   5.131   2.852   7.319 -0.8103 -0.3569  2.8623
   32DOPE  C217 4075   5.201   3.034   7.403 -0.5479  1.0382  0.2588
   32DOPE  H17R 4076   5.307   3.004   7.389 -0.1450  2.7427 -0.5404
   32DOPE  H17S 4077   5.180   3.003   7.508  0.5947 -1.3611 -0.1561
   32DOPE  C218 4078   5.214   3.187   7.392 -0.4196  0.6650  0.7820
   32DOPE  H18R 4079   5.309   3.219   7.438  0.4668  0.7827 -1.0524
   32DOPE  H18S 4080   5.123   3.236   7.435 -1.5124 -0.8832  0.3162
   32DOPE  H18T 4081   5.224   3.230   7.290 -1.3492 -0.9868 -0.0469
   32DOPE   C33 4082   4.484   3.303   5.910 -0.3198 -0.3718  0.1981
   32DOPE   H3X 4083   4.384   3.350   5.901  0.0758  0.1954 -1.8755
   32DOPE   H3Y 4084   4.562   3.382   5.905  0.2977 -0.8524  1.6777
   32DOPE   C34 4085   4.490   3.233   6.040  0.2672 -0.1334 -0.1159
   32DOPE   H4X 4086   4.427   3.142   6.038 -1.2927  0.9254 -0.8027
   32DOPE   H4Y 4087   4.597   3.206   6.056  0.9751  2.9262  1.0521
   32DOPE   C35 4088   4.456   3.317   6.163  0.1473  0.2696 -0.8843
   32DOPE   H5X 4089   4.353   3.358   6.158 -0.3890 -0.9849 -0.4628
   32DOPE   H5Y 4090   4.514   3.412   6.161 -0.5942  0.7195 -1.8327
   32DOPE   C36 4091   4.488   3.238   6.292 -0.0029  0.3907  0.4658
   32DOPE   H6X 4092   4.471   3.292   6.387 -2.4389 -0.7203  0.7288
   32DOPE   H6Y 4093   4.597   3.221   6.300  0.1005  0.7190 -0.1754
   32DOPE   C37 4094   4.414   3.102   6.295 -0.2186 -0.6340 -0.0188
   32DOPE   H7X 4095   4.305   3.110   6.273 -0.0052 -0.0415 -0.9638
   32DOPE   H7Y 4096   4.452   3.037   6.213 -0.9657 -0.7360 -0.2877
   32DOPE   C38 4097   4.421   3.042   6.433  0.0801 -0.2732  0.0580
   32DOPE   H8X 4098   4.345   2.961   6.441  0.4795 -0.6668 -0.0699
   32DOPE   H8Y 4099   4.373   3.116   6.501  2.3071  0.7504  0.6244
   32DOPE   C39 4100   4.560   2.995   6.460 -0.2569  0.7293 -1.1786
   32DOPE   H9X 4101   4.607   2.941   6.378  0.8255 -1.0814  0.5495
   32DOPE  C310 4102   4.626   3.011   6.572  0.2007 -0.1780 -0.8736
   32DOPE  H10X 4103   4.728   2.968   6.577  0.7625  1.1144 -0.8361
   32DOPE  C311 4104   4.561   3.073   6.697 -0.0988  0.5336  0.9697
   32DOPE  H11X 4105   4.644   3.122   6.753  2.0648  1.2460 -2.5655
   32DOPE  H11Y 4106   4.486   3.147   6.664 -1.5123 -1.1585  0.2041
   32DOPE  C312 4107   4.467   2.984   6.774  1.0047  0.2673 -0.0376
   32DOPE  H12X 4108   4.523   2.902   6.824  0.7784  0.4923  0.5931
   32DOPE  H12Y 4109   4.395   2.937   6.704  2.7894  0.7460 -2.3082
   32DOPE  C313 4110   4.401   3.061   6.890  0.4383  0.1915  0.2483
   32DOPE  H13X 4111   4.469   3.094   6.970  1.5375 -0.0881 -0.5415
   32DOPE  H13Y 4112   4.344   3.146   6.847  0.7723 -0.2708 -1.1677
   32DOPE  C314 4113   4.297   2.963   6.956  0.2190  0.0432 -0.4227
   32DOPE  H14X 4114   4.352   2.882   7.008 -0.9493 -0.1833  0.4947
   32DOPE  H14Y 4115   4.236   2.912   6.878  0.2591 -0.1583 -0.3224
   32DOPE  C315 4116   4.198   3.040   7.050  0.0861 -0.6495  0.5610
   32DOPE  H15X 4117   4.146   2.954   7.098  0.7095 -0.0960  2.2769
   32DOPE  H15Y 4118   4.123   3.089   6.985  0.0135  2.7469  2.9518
   32DOPE  C316 4119   4.250   3.154   7.135 -0.3428 -0.0296 -0.5263
   32DOPE  H16X 4120   4.308   3.233   7.082  0.5294 -1.2734 -1.4814
   32DOPE  H16Y 4121   4.326   3.126   7.211  0.6648  1.6020 -0.8783
   32DOPE  C317 4122   4.130   3.225   7.208  0.9619 -0.0093  0.2685
   32DOPE  H17X 4123   4.072   3.272   7.126  0.9906 -1.6331 -0.7169
   32DOPE  H17Y 4124   4.062   3.156   7.262 -1.7605  2.3979  0.1955
   32DOPE  C318 4125   4.179   3.333   7.307 -1.1209  0.1003  0.0861
   32DOPE  H18X 4126   4.259   3.394   7.260 -0.9314  0.5974  1.0292
   32DOPE  H18Y 4127   4.094   3.399   7.334 -0.9076  0.5017 -0.2145
   32DOPE  H18Z 4128   4.231   3.292   7.397 -0.6361 -0.1409 -0.3019
   33DOPE     N 4129   2.557   3.131   5.123 -0.4896 -0.6240  0.3580
   33DOPE   HN1 4130   2.502   3.180   5.049 -0.9067  0.0886  1.1139
   33DOPE   HN2 4131   2.562   3.040   5.073 -0.7336 -0.7083  0.4822
   33DOPE   HN3 4132   2.503   3.105   5.208 -1.8045 -0.5409 -0.4196
   33DOPE   C12 4133   2.688   3.200   5.163  0.2869  1.1815  0.1640
   33DOPE  H12A 4134   2.731   3.128   5.236 -0.2400 -1.4608 -1.9900
   33DOPE  H12B 4135   2.663   3.296   5.213  0.0320  1.2742 -0.1381
   33DOPE   C11 4136   2.784   3.212   5.046 -0.1328 -0.0855  0.1283
   33DOPE  H11A 4137   2.765   3.304   4.986  1.0538 -0.9866 -1.7147
   33DOPE  H11B 4138   2.758   3.124   4.983 -2.3082  0.7369 -0.2202
   33DOPE     P 4139   3.022   3.109   5.063 -0.0310  0.0639  0.1105
   33DOPE   O13 4140   3.141   3.129   5.152 -0.0154  0.2272  0.5121
   33DOPE   O14 4141   3.050   3.120   4.918 -0.2887 -0.3741 -0.3151
   33DOPE   O11 4142   2.949   2.976   5.109  0.1265 -0.2092 -0.0445
   33DOPE   O12 4143   2.917   3.222   5.099 -0.3693 -0.3660 -0.7425
   33DOPE    C1 4144   2.991   2.843   5.075 -0.5168  0.2416 -0.9531
   33DOPE    HA 4145   3.084   2.852   5.015  0.7860  1.6851  1.1260
   33DOPE    HB 4146   2.912   2.790   5.019 -0.2275 -1.2767  0.0314
   33DOPE    C2 4147   3.032   2.744   5.190  0.0001 -0.6325  0.1485
   33DOPE    HS 4148   2.944   2.711   5.249  0.2366  0.3548  1.0943
   33DOPE   O21 4149   3.141   2.792   5.277 -0.1522  0.1269 -0.0553
   33DOPE   C21 4150   3.098   2.880   5.365 -0.3838 -0.0682  0.4435
   33DOPE   O22 4151   2.982   2.913   5.380  0.7807 -0.0905 -0.5851
   33DOPE   C22 4152   3.209   2.944   5.434  0.6593  0.3044 -0.3493
   33DOPE   H2R 4153   3.176   2.982   5.533  1.0461 -0.3250  0.0256
   33DOPE   H2S 4154   3.235   3.034   5.374 -1.4167  1.0597 -0.1875
   33DOPE    C3 4155   3.095   2.618   5.115  0.1715 -0.3312 -0.6391
   33DOPE    HX 4156   3.175   2.653   5.047  0.0226 -0.0585 -0.6764
   33DOPE    HY 4157   3.024   2.583   5.037  0.1073 -0.9520 -0.3040
   33DOPE   O31 4158   3.141   2.514   5.205 -0.0356 -0.0005  0.0291
   33DOPE   C31 4159   3.048   2.425   5.234 -0.3905 -0.0358  0.1372
   33DOPE   O32 4160   2.936   2.422   5.186 -0.3598  0.3458 -0.0137
   33DOPE   C32 4161   3.098   2.342   5.352 -0.6525  0.3119  0.0497
   33DOPE   H2X 4162   3.168   2.266   5.310 -1.0727  0.5992 -1.2181
   33DOPE   H2Y 4163   3.150   2.407   5.425 -1.2272  2.2012 -1.1565
   33DOPE   C23 4164   3.338   2.860   5.454 -0.3792  0.2580 -0.1135
   33DOPE   H3R 4165   3.392   2.843   5.358  0.3837 -0.4473  0.4279
   33DOPE   H3S 4166   3.324   2.758   5.496  0.5198  0.4119  0.5908
   33DOPE   C24 4167   3.437   2.933   5.550 -0.4657  0.7386 -0.0643
   33DOPE   H4R 4168   3.389   2.930   5.650 -2.1021 -1.6247 -0.8488
   33DOPE   H4S 4169   3.451   3.040   5.522  0.4168  0.4030 -0.9711
   33DOPE   C25 4170   3.582   2.870   5.553  0.5251 -0.0236  0.5909
   33DOPE   H5R 4171   3.630   2.866   5.453 -2.2959 -0.1233 -0.8690
   33DOPE   H5S 4172   3.560   2.764   5.579  2.4351 -1.1252 -1.9179
   33DOPE   C26 4173   3.673   2.927   5.668 -0.1022  0.6743 -0.8477
   33DOPE   H6R 4174   3.608   2.930   5.757 -0.6133  2.7154 -1.2222
   33DOPE   H6S 4175   3.710   3.031   5.649  0.7217  0.5515  0.0242
   33DOPE   C27 4176   3.794   2.833   5.681  0.5959 -0.4155  0.2829
   33DOPE   H7R 4177   3.888   2.888   5.703  1.7063 -1.2801 -1.9884
   33DOPE   H7S 4178   3.814   2.781   5.585 -1.0914 -1.3870  0.4165
   33DOPE   C28 4179   3.774   2.728   5.803 -0.4427 -0.0218  0.5102
   33DOPE   H8R 4180   3.857   2.654   5.796 -0.0402  0.4654  0.0283
   33DOPE   H8S 4181   3.677   2.689   5.767 -0.0382  1.9919 -3.2990
   33DOPE   C29 4182   3.757   2.803   5.934  0.2358 -0.2880  0.0470
   33DOPE   H9R 4183   3.747   2.912   5.926 -1.0137 -0.4227 -0.4451
   33DOPE  C210 4184   3.787   2.753   6.053 -0.3167  0.7656  0.1858
   33DOPE  H10R 4185   3.774   2.817   6.141  0.1529  1.2914 -0.1209
   33DOPE  C211 4186   3.848   2.615   6.075  1.6113 -0.3434  0.0101
   33DOPE  H11R 4187   3.951   2.619   6.115  2.3757 -1.7813 -1.6617
   33DOPE  H11S 4188   3.845   2.565   5.976 -3.8960  2.2869 -1.5842
   33DOPE  C212 4189   3.765   2.537   6.179  0.1575  0.0565  0.6490
   33DOPE  H12R 4190   3.788   2.429   6.171  0.7238  0.2511 -0.5556
   33DOPE  H12S 4191   3.655   2.534   6.161  0.0334  1.4802  1.0418
   33DOPE  C213 4192   3.793   2.587   6.321 -0.1608  0.2504 -0.5625
   33DOPE  H13R 4193   3.762   2.693   6.326 -1.3957  0.0696 -2.7400
   33DOPE  H13S 4194   3.903   2.580   6.337 -0.4090 -1.9453  0.6512
   33DOPE  C214 4195   3.731   2.496   6.423  0.3650 -0.1551  0.2203
   33DOPE  H14R 4196   3.764   2.526   6.524  1.8914  2.5977 -0.9732
   33DOPE  H14S 4197   3.796   2.407   6.414  2.5131  1.3627 -0.2993
   33DOPE  C215 4198   3.586   2.472   6.411  0.6713  0.1648 -0.6777
   33DOPE  H15R 4199   3.568   2.419   6.315  1.0265  0.2216 -0.7773
   33DOPE  H15S 4200   3.533   2.570   6.422  0.4518 -0.0853  0.7880
   33DOPE  C216 4201   3.545   2.377   6.529 -0.0395  0.4140  0.7073
   33DOPE  H16R 4202   3.580   2.420   6.625 -1.8440  0.7287  1.2700
   33DOPE  H16S 4203   3.583   2.274   6.509 -1.1670  0.3179 -1.2606
   33DOPE  C217 4204   3.393   2.369   6.534  0.1675 -0.5618  0.0190
   33DOPE  H17R 4205   3.355   2.328   6.438  1.2451  2.4949 -1.8657
   33DOPE  H17S 4206   3.345   2.469   6.539 -1.8588 -1.4994  0.4664
   33DOPE  C218 4207   3.332   2.287   6.653  0.1660 -0.2597 -0.3019
   33DOPE  H18R 4208   3.383   2.188   6.641 -0.1608 -0.3754 -0.7928
   33DOPE  H18S 4209   3.227   2.257   6.636 -0.2902  0.6055  0.9013
   33DOPE  H18T 4210   3.344   2.336   6.752  0.6816 -4.1666  1.7829
   33DOPE   C33 4211   2.983   2.269   5.414  0.0331  0.7955  0.2851
   33DOPE   H3X 4212   2.933   2.208   5.335  0.7257  0.3909  0.1531
   33DOPE   H3Y 4213   2.907   2.337   5.459  1.7757  1.2255  2.8059
   33DOPE   C34 4214   3.037   2.183   5.528 -0.1395  0.8086 -0.5592
   33DOPE   H4X 4215   2.954   2.116   5.559  0.6311  0.5995  1.1671
   33DOPE   H4Y 4216   3.120   2.119   5.491 -0.1464 -0.2968  1.2118
   33DOPE   C35 4217   3.089   2.258   5.652 -0.2122  1.1009 -1.0879
   33DOPE   H5X 4218   3.012   2.337   5.670  0.8221  1.5113  2.2939
   33DOPE   H5Y 4219   3.187   2.303   5.626  1.6385 -2.6172 -1.1798
   33DOPE   C36 4220   3.109   2.161   5.775  0.4359 -0.1142  0.0092
   33DOPE   H6X 4221   3.145   2.230   5.854  1.2118  3.3014 -3.0754
   33DOPE   H6Y 4222   3.194   2.094   5.747  0.0432 -0.9322  0.7513
   33DOPE   C37 4223   2.987   2.080   5.824  0.3389  0.5054 -0.0439
   33DOPE   H7X 4224   2.951   2.007   5.749  1.1323 -0.5057  0.5446
   33DOPE   H7Y 4225   3.018   2.017   5.910  0.1196 -0.8122 -0.8963
   33DOPE   C38 4226   2.871   2.176   5.866 -0.0574 -0.0410 -0.0955
   33DOPE   H8X 4227   2.830   2.212   5.769 -0.1194 -0.1820 -0.1228
   33DOPE   H8Y 4228   2.916   2.264   5.915 -1.5366  0.3954  0.5380
   33DOPE   C39 4229   2.763   2.121   5.955 -0.1531 -0.5230  0.2758
   33DOPE   H9X 4230   2.745   2.012   5.950 -2.3574 -0.1740 -0.1199
   33DOPE  C310 4231   2.692   2.196   6.042 -0.0929 -0.3803 -0.4490
   33DOPE  H10X 4232   2.617   2.143   6.103  0.7107  1.5226  2.4384
   33DOPE  C311 4233   2.697   2.348   6.054 -0.2038  0.7308  0.4945
   33DOPE  H11X 4234   2.702   2.361   6.164 -0.6840  0.1685  0.5888
   33DOPE  H11Y 4235   2.787   2.398   6.013 -1.8821  3.2621 -0.3912
   33DOPE  C312 4236   2.575   2.424   5.999 -0.0545 -0.5200 -0.1086
   33DOPE  H12X 4237   2.488   2.403   6.064  1.5709 -0.7476  2.1028
   33DOPE  H12Y 4238   2.560   2.400   5.892 -0.2352  0.4093 -0.3034
   33DOPE  C313 4239   2.597   2.576   5.997 -0.0539  0.2211 -0.0797
   33DOPE  H13X 4240   2.655   2.611   6.085  0.9336 -0.7011 -0.3459
   33DOPE  H13Y 4241   2.668   2.611   5.920 -0.8895 -0.8279 -1.3640
   33DOPE  C314 4242   2.470   2.661   5.998  0.1696  0.4109 -0.4414
   33DOPE  H14X 4243   2.515   2.762   6.009 -1.2323  0.7641  4.3948
   33DOPE  H14Y 4244   2.417   2.639   6.093  0.7884  1.8187  0.2600
   33DOPE  C315 4245   2.382   2.640   5.877  0.4054  0.1701 -0.6372
   33DOPE  H15X 4246   2.346   2.535   5.867 -0.2199  0.4537 -1.4460
   33DOPE  H15Y 4247   2.436   2.667   5.784 -3.5358 -0.2292 -3.2612
   33DOPE  C316 4248   2.256   2.726   5.886 -1.0208 -0.5071  0.0389
   33DOPE  H16X 4249   2.284   2.830   5.912  0.7851 -0.4817 -1.8081
   33DOPE  H16Y 4250   2.190   2.677   5.961 -2.0528  0.4547 -0.2172
   33DOPE  C317 4251   2.169   2.719   5.753  0.3557 -1.1132 -0.5439
   33DOPE  H17X 4252   2.093   2.799   5.769 -0.0825 -1.4474 -0.9434
   33DOPE  H17Y 4253   2.223   2.760   5.665  1.9188 -0.1530  0.8044
   33DOPE  C318 4254   2.096   2.589   5.726 -0.2061 -0.2556  0.1839
   33DOPE  H18X 4255   2.010   2.574   5.795 -0.5231 -0.0434 -0.1531
   33DOPE  H18Y 4256   2.047   2.595   5.626  0.2149 -1.3943 -0.1093
   33DOPE  H18Z 4257   2.167   2.504   5.727 -0.6265 -0.6062  0.9926
   34DOPE     N 4258   2.110   3.087   4.591  0.2878 -0.2641 -0.2629
   34DOPE   HN1 4259   2.193   3.145   4.567 -0.1763  0.2117 -0.7637
   34DOPE   HN2 4260   2.120   2.987   4.567  3.1800  0.1856 -1.3233
   34DOPE   HN3 4261   2.040   3.106   4.516 -0.8400 -1.1015  0.5466
   34DOPE   C12 4262   2.042   3.114   4.725  0.3715  0.1001  0.3359
   34DOPE  H12A 4263   1.987   3.020   4.749  1.6957 -1.6380 -2.7403
   34DOPE  H12B 4264   1.959   3.187   4.715  1.5824  1.4002 -0.6766
   34DOPE   C11 4265   2.140   3.147   4.834  0.2281 -0.6806  0.1072
   34DOPE  H11A 4266   2.205   3.059   4.852  2.7873  1.1801  0.6006
   34DOPE  H11B 4267   2.083   3.178   4.925  1.6818  1.6486  0.3000
   34DOPE     P 4268   2.335   3.311   4.871 -0.1088  0.1572  0.4583
   34DOPE   O13 4269   2.379   3.443   4.822  0.1020 -0.7993 -0.0344
   34DOPE   O14 4270   2.443   3.208   4.876  0.3200 -0.3253  0.0038
   34DOPE   O11 4271   2.294   3.341   5.020 -1.1115 -0.2640  0.0385
   34DOPE   O12 4272   2.210   3.266   4.796  0.1612  0.3474 -0.1334
   34DOPE    C1 4273   2.197   3.440   5.041 -0.5469  0.5310  0.5895
   34DOPE    HA 4274   2.121   3.442   4.960 -0.1630 -2.6351  0.0466
   34DOPE    HB 4275   2.236   3.544   5.038 -1.5317  0.9760 -3.5038
   34DOPE    C2 4276   2.123   3.418   5.181 -0.0705  0.1861 -0.5743
   34DOPE    HS 4277   2.019   3.457   5.179 -1.2106 -2.3994  1.2270
   34DOPE   O21 4278   2.181   3.496   5.287  0.3550 -0.0208  0.1316
   34DOPE   C21 4279   2.143   3.621   5.297  0.5172 -0.9028  0.9492
   34DOPE   O22 4280   2.068   3.675   5.213 -0.2029 -0.6075 -0.1683
   34DOPE   C22 4281   2.207   3.678   5.424  0.2472  0.3175  0.0617
   34DOPE   H2R 4282   2.317   3.694   5.423  0.3570 -0.4292 -0.0687
   34DOPE   H2S 4283   2.184   3.609   5.508  1.8595  0.1405  0.3831
   34DOPE    C3 4284   2.115   3.267   5.217 -0.0359  0.6156 -0.3398
   34DOPE    HX 4285   2.199   3.211   5.172 -2.5339 -2.9981 -0.9948
   34DOPE    HY 4286   2.020   3.222   5.179  0.8484 -0.1827 -1.6664
   34DOPE   O31 4287   2.130   3.243   5.354 -0.6389 -0.7512 -0.1845
   34DOPE   C31 4288   2.016   3.250   5.428 -1.2887  0.2084 -0.5189
   34DOPE   O32 4289   1.902   3.251   5.387 -0.5111  0.2553  0.3621
   34DOPE   C32 4290   2.062   3.249   5.578  0.9152  0.0580 -0.1272
   34DOPE   H2X 4291   2.103   3.147   5.597 -0.4984 -0.4820  0.1808
   34DOPE   H2Y 4292   2.146   3.319   5.596 -0.5950  1.8702  0.1133
   34DOPE   C23 4293   2.146   3.819   5.452 -0.4065  0.0917 -0.8645
   34DOPE   H3R 4294   2.036   3.820   5.439 -0.3140  0.4244 -1.6686
   34DOPE   H3S 4295   2.188   3.893   5.380  0.7192  2.6290  2.1937
   34DOPE   C24 4296   2.168   3.877   5.595 -0.1969 -0.2576 -0.5002
   34DOPE   H4R 4297   2.115   3.804   5.661 -4.3052  0.7484 -2.3361
   34DOPE   H4S 4298   2.113   3.972   5.612  1.6285  0.6630  0.5851
   34DOPE   C25 4299   2.310   3.901   5.642  0.0705  0.4460  0.7105
   34DOPE   H5R 4300   2.368   3.944   5.558 -0.4299  0.9356  0.6082
   34DOPE   H5S 4301   2.358   3.804   5.665  0.8776 -0.0896 -2.5956
   34DOPE   C26 4302   2.317   3.977   5.775 -0.1149  1.0414 -0.4812
   34DOPE   H6R 4303   2.424   3.968   5.800 -0.7861 -1.9728  1.9004
   34DOPE   H6S 4304   2.258   3.909   5.840  2.0729 -2.6015 -2.0048
   34DOPE   C27 4305   2.260   4.116   5.768 -0.2953 -0.2672  0.0927
   34DOPE   H7R 4306   2.149   4.118   5.761 -0.3346  0.9727  0.6221
   34DOPE   H7S 4307   2.285   4.173   5.676 -0.5722  0.2747  0.3455
   34DOPE   C28 4308   2.292   4.190   5.899  0.3441 -0.0583 -0.5773
   34DOPE   H8R 4309   2.257   4.123   5.980 -0.5613  0.0018 -0.9118
   34DOPE   H8S 4310   2.235   4.286   5.898  0.1889 -0.1015  1.3281
   34DOPE   C29 4311   2.437   4.204   5.928 -0.0082 -0.6833  0.6547
   34DOPE   H9R 4312   2.493   4.244   5.843 -3.0012 -2.5277 -2.4483
   34DOPE  C210 4313   2.505   4.163   6.034  0.1284 -0.1391 -0.4057
   34DOPE  H10R 4314   2.612   4.188   6.038  0.4269 -1.4136 -0.0237
   34DOPE  C211 4315   2.456   4.085   6.156 -0.8004  0.6196  0.7064
   34DOPE  H11R 4316   2.545   4.048   6.211 -2.4042 -0.7171  2.5381
   34DOPE  H11S 4317   2.398   3.998   6.119  1.2648 -1.6825  2.5431
   34DOPE  C212 4318   2.360   4.169   6.244 -0.5226 -0.2154 -0.1725
   34DOPE  H12R 4319   2.285   4.220   6.180 -1.0204 -1.8383 -0.9293
   34DOPE  H12S 4320   2.418   4.240   6.308 -1.5138 -0.8914  1.5481
   34DOPE  C213 4321   2.284   4.082   6.340  0.0660 -0.0743  0.3872
   34DOPE  H13R 4322   2.362   4.023   6.392  1.9994  1.8969 -0.1418
   34DOPE  H13S 4323   2.220   4.018   6.275  1.4563 -0.7935 -0.3172
   34DOPE  C214 4324   2.210   4.163   6.447  0.1155 -1.1787 -0.2653
   34DOPE  H14R 4325   2.125   4.214   6.397  0.1347 -2.0714 -1.2308
   34DOPE  H14S 4326   2.285   4.235   6.485 -0.1642  1.6970 -4.5123
   34DOPE  C215 4327   2.167   4.071   6.561 -0.4210 -0.1368  0.5176
   34DOPE  H15R 4328   2.256   4.014   6.596 -0.2656  0.4950  1.2039
   34DOPE  H15S 4329   2.079   4.013   6.526 -1.1319 -0.8125  3.1770
   34DOPE  C216 4330   2.098   4.147   6.682  0.2203  0.7267  0.1012
   34DOPE  H16R 4331   2.029   4.085   6.741  1.2377  0.7864  1.4034
   34DOPE  H16S 4332   2.027   4.216   6.633 -1.5309 -0.7342  0.4871
   34DOPE  C217 4333   2.188   4.236   6.765 -0.1395 -0.1403 -0.0686
   34DOPE  H17R 4334   2.236   4.304   6.691  2.0036 -1.1180  0.3797
   34DOPE  H17S 4335   2.264   4.172   6.814  0.8039  1.1083  0.1425
   34DOPE  C218 4336   2.128   4.332   6.865  0.5656 -0.7871 -0.0554
   34DOPE  H18R 4337   2.062   4.400   6.807  0.5952 -1.9163 -1.4883
   34DOPE  H18S 4338   2.205   4.390   6.921  0.6421  0.7337 -1.6134
   34DOPE  H18T 4339   2.065   4.279   6.939 -0.0864 -1.0304 -0.7757
   34DOPE   C33 4340   1.945   3.280   5.682 -0.1135 -0.0204  0.0897
   34DOPE   H3X 4341   1.853   3.224   5.657 -0.4321  0.0586  1.0403
   34DOPE   H3Y 4342   1.926   3.389   5.673  1.7844  0.3366 -0.1962
   34DOPE   C34 4343   1.980   3.253   5.827  0.3736  0.0463  0.1032
   34DOPE   H4X 4344   2.090   3.266   5.835  0.5959 -0.8113 -1.1275
   34DOPE   H4Y 4345   1.938   3.327   5.898  0.6806  1.5385 -1.2199
   34DOPE   C35 4346   1.944   3.114   5.879  0.6119  0.0393 -0.1648
   34DOPE   H5X 4347   1.983   3.053   5.795 -0.3455 -2.8911  1.3650
   34DOPE   H5Y 4348   1.836   3.089   5.895  0.6749  0.3454  0.7617
   34DOPE   C36 4349   2.016   3.066   6.006 -0.6480  0.1958  0.9347
   34DOPE   H6X 4350   2.120   3.104   5.995 -0.3719 -0.6691  0.4201
   34DOPE   H6Y 4351   2.037   2.957   6.013 -1.6230 -0.1762 -1.2002
   34DOPE   C37 4352   1.946   3.107   6.138  0.4557  0.8303  0.4932
   34DOPE   H7X 4353   1.915   3.214   6.144  1.8055  1.2515  0.3017
   34DOPE   H7Y 4354   1.859   3.039   6.140  1.1464 -0.2403 -2.3986
   34DOPE   C38 4355   2.040   3.098   6.260  0.1273  1.4109 -0.1556
   34DOPE   H8X 4356   2.134   3.152   6.238  0.5656  1.3886  1.5454
   34DOPE   H8Y 4357   2.071   2.991   6.255  1.6948  1.8623 -0.4134
   34DOPE   C39 4358   1.981   3.127   6.392  0.5679  0.5446 -0.2079
   34DOPE   H9X 4359   1.871   3.131   6.391  0.4366 -1.6066 -0.1661
   34DOPE  C310 4360   2.047   3.116   6.521  0.7113 -0.1436  0.0747
   34DOPE  H10X 4361   1.983   3.132   6.608 -0.0535  0.6616 -0.6179
   34DOPE  C311 4362   2.190   3.086   6.560  0.5332 -0.1460  0.3480
   34DOPE  H11X 4363   2.251   3.179   6.561 -0.7345  0.7167 -0.1067
   34DOPE  H11Y 4364   2.207   3.041   6.660  0.2341 -0.8471  0.0888
   34DOPE  C312 4365   2.283   2.999   6.469 -0.5434  0.7328  0.0990
   34DOPE  H12X 4366   2.385   3.013   6.511 -0.6252 -2.7989  1.8962
   34DOPE  H12Y 4367   2.295   3.034   6.364  0.0928  1.1522  0.3052
   34DOPE  C313 4368   2.243   2.850   6.459  0.5169 -0.2297 -0.5675
   34DOPE  H13X 4369   2.242   2.822   6.567 -0.2926  1.1456 -0.1903
   34DOPE  H13Y 4370   2.142   2.842   6.414  0.2432 -0.0787  0.0125
   34DOPE  C314 4371   2.340   2.767   6.373 -0.0474  0.1584  0.1090
   34DOPE  H14X 4372   2.323   2.807   6.271 -0.6757  0.5108  0.3437
   34DOPE  H14Y 4373   2.317   2.658   6.381  1.0562  0.0086  1.5218
   34DOPE  C315 4374   2.492   2.755   6.405  0.2131 -0.5361  0.4160
   34DOPE  H15X 4375   2.545   2.852   6.395  1.3520 -1.0095  1.5736
   34DOPE  H15Y 4376   2.534   2.672   6.345 -0.6821 -2.1953  1.9540
   34DOPE  C316 4377   2.506   2.720   6.553 -0.2217  0.4305  0.1831
   34DOPE  H16X 4378   2.439   2.780   6.619 -0.0611 -1.7243  2.4479
   34DOPE  H16Y 4379   2.608   2.752   6.585  0.1531 -0.3361 -0.2313
   34DOPE  C317 4380   2.481   2.579   6.598  0.4430 -0.9258 -0.0320
   34DOPE  H17X 4381   2.482   2.575   6.709 -0.8125  0.2936  0.0507
   34DOPE  H17Y 4382   2.373   2.557   6.580 -0.1720  0.7321  1.3642
   34DOPE  C318 4383   2.569   2.463   6.546  0.2637  0.3279 -0.0321
   34DOPE  H18X 4384   2.666   2.508   6.576  0.1806  1.2085 -1.0327
   34DOPE  H18Y 4385   2.549   2.366   6.596 -1.3950 -1.3183 -3.5485
   34DOPE  H18Z 4386   2.561   2.459   6.435 -1.9469  0.9732  0.0593
   35DOPE     N 4387   5.709   2.565   5.239 -0.4219  0.4394  0.1041
   35DOPE   HN1 4388   5.772   2.579   5.157 -1.0757  1.4920 -0.2418
   35DOPE   HN2 4389   5.610   2.596   5.227 -0.5293  0.7889  1.6794
   35DOPE   HN3 4390   5.743   2.610   5.326  0.4989  1.6293 -0.8351
   35DOPE   C12 4391   5.721   2.422   5.285 -0.3888  0.1129 -0.2041
   35DOPE  H12A 4392   5.827   2.393   5.266 -0.5336 -0.4989 -0.0831
   35DOPE  H12B 4393   5.654   2.359   5.223  0.2665  0.9481 -1.8375
   35DOPE   C11 4394   5.699   2.402   5.439  0.2344 -0.2463  0.5233
   35DOPE  H11A 4395   5.722   2.296   5.462 -0.2630 -0.7200 -1.0108
   35DOPE  H11B 4396   5.591   2.410   5.465  0.0855  0.3457 -0.2297
   35DOPE     P 4397   5.910   2.469   5.577  0.2450 -0.1312 -0.5691
   35DOPE   O13 4398   5.929   2.585   5.665 -0.3475  0.3092  0.1828
   35DOPE   O14 4399   6.004   2.447   5.461  0.0405 -0.2868  0.1293
   35DOPE   O11 4400   5.906   2.342   5.668  0.0804  0.0344  0.4706
   35DOPE   O12 4401   5.773   2.491   5.522 -0.1578  0.1727 -0.1166
   35DOPE    C1 4402   5.789   2.283   5.727  0.0003 -0.5179 -0.0257
   35DOPE    HA 4403   5.770   2.180   5.688 -0.1919 -1.0857  1.4864
   35DOPE    HB 4404   5.697   2.333   5.691 -0.0181  0.2561  1.0531
   35DOPE    C2 4405   5.797   2.285   5.883 -0.7016  0.4994  0.0020
   35DOPE    HS 4406   5.808   2.387   5.924  1.9825 -0.6672  2.5799
   35DOPE   O21 4407   5.907   2.198   5.926  0.1347 -0.2929  0.1831
   35DOPE   C21 4408   6.002   2.247   6.001 -0.2890 -0.2753 -0.0023
   35DOPE   O22 4409   6.032   2.366   6.007 -0.2326 -0.3457  0.0959
   35DOPE   C22 4410   6.082   2.137   6.069  0.6742 -0.5252  0.0526
   35DOPE   H2R 4411   6.169   2.184   6.120 -0.2058  2.9391 -1.3357
   35DOPE   H2S 4412   6.130   2.083   5.985  1.5523 -1.2816  1.0078
   35DOPE    C3 4413   5.664   2.235   5.943  0.0004  0.0737 -0.3190
   35DOPE    HX 4414   5.643   2.140   5.891  1.6381 -1.2657  1.3344
   35DOPE    HY 4415   5.579   2.304   5.924 -1.4205 -1.3086  0.8076
   35DOPE   O31 4416   5.677   2.207   6.086  0.2324  0.1037  0.1535
   35DOPE   C31 4417   5.560   2.186   6.148  0.1528  0.5652  0.6153
   35DOPE   O32 4418   5.450   2.196   6.092  0.0755  0.2337 -0.3027
   35DOPE   C32 4419   5.592   2.133   6.288  0.3308  0.2385 -0.1816
   35DOPE   H2X 4420   5.655   2.042   6.277  0.4944  0.2995  0.2382
   35DOPE   H2Y 4421   5.650   2.214   6.336 -0.5961  0.7846  0.0379
   35DOPE   C23 4422   6.012   2.035   6.164  0.3835 -0.8098 -0.4637
   35DOPE   H3R 4423   6.079   1.950   6.189  0.6717 -0.2659  0.6673
   35DOPE   H3S 4424   5.926   1.992   6.108 -1.3243 -2.8949  3.3329
   35DOPE   C24 4425   5.970   2.094   6.298  0.3591  0.0698 -0.2247
   35DOPE   H4R 4426   5.889   2.170   6.285  0.5944  0.7286  1.7873
   35DOPE   H4S 4427   6.046   2.156   6.350  0.5394 -0.2538 -0.0986
   35DOPE   C25 4428   5.934   1.989   6.408  0.1827 -0.4717  0.1364
   35DOPE   H5R 4429   6.008   1.908   6.424  1.0046  0.2209 -0.0380
   35DOPE   H5S 4430   5.840   1.945   6.369  0.9846 -1.4991 -0.6759
   35DOPE   C26 4431   5.916   2.060   6.551  0.6426 -0.2040  0.9106
   35DOPE   H6R 4432   5.824   2.121   6.540  1.1994  0.4178 -0.6122
   35DOPE   H6S 4433   5.985   2.141   6.583 -2.0539  1.3981  3.1181
   35DOPE   C27 4434   5.901   1.957   6.664 -0.3187  0.2359 -0.0311
   35DOPE   H7R 4435   5.978   1.877   6.659 -0.8864 -0.5400  2.3526
   35DOPE   H7S 4436   5.804   1.908   6.640 -0.5315 -0.6204  2.3319
   35DOPE   C28 4437   5.873   2.021   6.801 -0.4600 -0.1877  0.6155
   35DOPE   H8R 4438   5.788   2.091   6.789 -1.2023 -1.2160 -0.2496
   35DOPE   H8S 4439   5.961   2.087   6.822 -0.0456  0.0904 -1.7646
   35DOPE   C29 4440   5.864   1.912   6.912 -0.2599 -0.4359 -0.1057
   35DOPE   H9R 4441   5.798   1.827   6.890 -1.3725  0.3568  0.0933
   35DOPE  C210 4442   5.958   1.894   7.005 -0.0604  0.0854 -0.7020
   35DOPE  H10R 4443   5.941   1.806   7.070 -0.9670 -0.4063 -1.5853
   35DOPE  C211 4444   6.078   1.979   7.050 -0.5256  0.2162  0.6564
   35DOPE  H11R 4445   6.143   1.999   6.963 -1.6291  0.0038 -0.2468
   35DOPE  H11S 4446   6.143   1.920   7.118 -1.5984 -0.0028  1.5239
   35DOPE  C212 4447   6.052   2.116   7.113  0.2953  0.4007  0.4125
   35DOPE  H12R 4448   6.008   2.119   7.215  1.1575 -0.6800  0.8330
   35DOPE  H12S 4449   5.976   2.160   7.044  1.4366  1.6492 -0.1139
   35DOPE  C213 4450   6.181   2.212   7.119 -0.6119  0.5960 -0.2329
   35DOPE  H13R 4451   6.150   2.307   7.169  1.7754  0.2514  2.1408
   35DOPE  H13S 4452   6.218   2.229   7.016  0.7596  0.3261  0.1988
   35DOPE  C214 4453   6.304   2.150   7.194  0.1347 -0.2720 -0.2814
   35DOPE  H14R 4454   6.376   2.231   7.218  3.3531 -2.5597 -1.4687
   35DOPE  H14S 4455   6.344   2.075   7.123 -1.7464 -0.0759 -1.6576
   35DOPE  C215 4456   6.275   2.086   7.323 -0.1541  0.4201 -0.1137
   35DOPE  H15R 4457   6.365   2.024   7.343  0.0784  1.0539  0.8705
   35DOPE  H15S 4458   6.183   2.024   7.328  0.0107  0.2138  0.3539
   35DOPE  C216 4459   6.262   2.185   7.443 -0.0464 -0.5285 -0.1794
   35DOPE  H16R 4460   6.194   2.271   7.426 -0.0006 -0.2139  1.1629
   35DOPE  H16S 4461   6.363   2.230   7.448 -0.7435  1.3889 -1.7937
   35DOPE  C217 4462   6.221   2.114   7.574  0.3414 -0.2755 -0.0568
   35DOPE  H17R 4463   6.287   2.025   7.578  0.2159 -0.3719 -0.1028
   35DOPE  H17S 4464   6.112   2.093   7.573 -0.2772  2.3708  1.3484
   35DOPE  C218 4465   6.241   2.211   7.697 -0.0602  0.0623  0.0862
   35DOPE  H18R 4466   6.162   2.288   7.697 -1.0913 -0.9673 -0.7239
   35DOPE  H18S 4467   6.328   2.277   7.675  0.2205  0.1569  1.3998
   35DOPE  H18T 4468   6.257   2.153   7.791  0.0770  0.8308  0.5439
   35DOPE   C33 4469   5.474   2.089   6.390 -0.2673  0.7089 -0.1928
   35DOPE   H3X 4470   5.410   2.012   6.342  0.9815 -0.4983  0.0292
   35DOPE   H3Y 4471   5.399   2.171   6.397 -1.9032 -0.7764  0.2655
   35DOPE   C34 4472   5.523   2.050   6.527 -0.3319  0.2045  0.6055
   35DOPE   H4X 4473   5.587   1.961   6.509 -1.8191 -0.3774 -2.3976
   35DOPE   H4Y 4474   5.579   2.136   6.572  1.3755 -1.4920  1.9090
   35DOPE   C35 4475   5.412   2.000   6.618 -0.2221  0.3267  0.0476
   35DOPE   H5X 4476   5.348   1.926   6.564  1.3798 -1.6567  0.7392
   35DOPE   H5Y 4477   5.344   2.085   6.643 -0.8314  0.1545 -0.9659
   35DOPE   C36 4478   5.465   1.959   6.756  0.5835 -0.2891  0.1938
   35DOPE   H6X 4479   5.525   2.043   6.796 -1.1874 -0.1772  2.9307
   35DOPE   H6Y 4480   5.522   1.864   6.753 -1.5892 -1.7202  1.2860
   35DOPE   C37 4481   5.361   1.926   6.867  0.3104 -0.7451  0.2170
   35DOPE   H7X 4482   5.304   2.017   6.897 -0.0377 -1.1681  0.8706
   35DOPE   H7Y 4483   5.280   1.865   6.821 -0.8764  0.6237  0.3958
   35DOPE   C38 4484   5.422   1.857   6.988  0.5752  0.6060 -0.0839
   35DOPE   H8X 4485   5.453   1.755   6.956  1.2115  1.1213 -1.1364
   35DOPE   H8Y 4486   5.340   1.839   7.062  0.2144 -2.5457 -1.0816
   35DOPE   C39 4487   5.536   1.913   7.062 -0.2799 -0.0407  0.2631
   35DOPE   H9X 4488   5.627   1.929   7.004 -0.2065 -2.7655 -0.5026
   35DOPE  C310 4489   5.531   1.952   7.191  0.7162 -0.2629  0.0057
   35DOPE  H10X 4490   5.622   1.996   7.234  0.8767  0.4560 -1.0378
   35DOPE  C311 4491   5.422   1.940   7.297 -0.0198  0.2284 -0.6667
   35DOPE  H11X 4492   5.325   1.935   7.242  0.5664 -0.2633 -1.6726
   35DOPE  H11Y 4493   5.442   1.849   7.357  1.7475  1.1466  0.2238
   35DOPE  C312 4494   5.403   2.064   7.391 -0.3704 -0.1983  0.1633
   35DOPE  H12X 4495   5.486   2.079   7.463  0.0235 -2.2011  0.1858
   35DOPE  H12Y 4496   5.310   2.061   7.452 -1.3478  0.7485 -1.2144
   35DOPE  C313 4497   5.385   2.192   7.313  0.6410  0.5015  0.2224
   35DOPE  H13X 4498   5.472   2.199   7.244 -0.0116  0.0943 -0.6591
   35DOPE  H13Y 4499   5.294   2.184   7.249 -0.2758 -1.3680  1.6359
   35DOPE  C314 4500   5.367   2.317   7.396 -0.1037 -0.1452  0.1454
   35DOPE  H14X 4501   5.445   2.303   7.474  1.2889 -1.3415 -1.3817
   35DOPE  H14Y 4502   5.268   2.321   7.445  1.6145 -1.9088  4.3062
   35DOPE  C315 4503   5.383   2.444   7.311 -0.0131 -0.8151 -0.2825
   35DOPE  H15X 4504   5.321   2.462   7.221 -0.4461 -0.8360  0.0110
   35DOPE  H15Y 4505   5.491   2.455   7.285  0.7738  0.4258  2.9675
   35DOPE  C316 4506   5.364   2.575   7.394  0.3435 -0.4217 -0.3850
   35DOPE  H16X 4507   5.382   2.664   7.330  0.9768 -0.5323 -0.3692
   35DOPE  H16Y 4508   5.432   2.567   7.481  0.0941 -0.7380 -0.2167
   35DOPE  C317 4509   5.216   2.584   7.443  0.3540 -0.0157  0.0345
   35DOPE  H17X 4510   5.156   2.607   7.353  0.7751  2.0724  0.2545
   35DOPE  H17Y 4511   5.183   2.490   7.493  1.2889 -1.1433 -1.3536
   35DOPE  C318 4512   5.195   2.696   7.544 -0.4671 -0.4825 -0.4163
   35DOPE  H18X 4513   5.089   2.698   7.577 -0.3141 -2.2803  0.2994
   35DOPE  H18Y 4514   5.246   2.672   7.639 -1.0684 -2.0842 -0.4677
   35DOPE  H18Z 4515   5.235   2.791   7.501  0.0665 -0.7954 -0.6164
   36DOPE     N 4516   5.360   4.724   5.066 -0.2530  0.0679  0.3997
   36DOPE   HN1 4517   5.378   4.699   5.165 -1.7113  0.9635  0.9256
   36DOPE   HN2 4518   5.315   4.641   5.023 -0.4380 -0.2522  1.1855
   36DOPE   HN3 4519   5.454   4.740   5.024 -0.5223  0.5245 -0.0328
   36DOPE   C12 4520   5.278   4.851   5.077  0.1087  0.0333  0.3890
   36DOPE  H12A 4521   5.337   4.929   5.025  2.1748  0.4530  3.1206
   36DOPE  H12B 4522   5.278   4.880   5.185 -4.8199  0.9622  0.3766
   36DOPE   C11 4523   5.138   4.816   5.020 -0.3277 -0.3695  0.3958
   36DOPE  H11A 4524   5.138   4.797   4.910 -2.4062  2.7465 -0.2971
   36DOPE  H11B 4525   5.061   4.897   5.015 -1.0486 -1.0828 -0.4374
   36DOPE     P 4526   4.987   4.743   5.220  0.1778 -0.2091  0.2187
   36DOPE   O13 4527   4.857   4.667   5.217 -0.5044 -0.6448 -0.2013
   36DOPE   O14 4528   4.973   4.889   5.240  0.9856  0.0081 -0.2809
   36DOPE   O11 4529   5.082   4.695   5.335 -0.4973 -0.0043  0.5377
   36DOPE   O12 4530   5.066   4.710   5.085  0.3413  0.0181 -0.3446
   36DOPE    C1 4531   5.057   4.567   5.386 -0.7194 -0.3251  0.3589
   36DOPE    HA 4532   5.159   4.524   5.396  0.5863  2.7637  1.4131
   36DOPE    HB 4533   4.990   4.501   5.327 -1.3375  0.5545  0.0558
   36DOPE    C2 4534   4.993   4.580   5.524 -0.2632 -0.6829 -0.2128
   36DOPE    HS 4535   4.906   4.648   5.514  0.0345 -0.5342 -2.2610
   36DOPE   O21 4536   5.096   4.627   5.613 -0.2638 -0.3927 -0.2755
   36DOPE   C21 4537   5.053   4.698   5.714  0.4274 -0.1900  0.5669
   36DOPE   O22 4538   4.939   4.743   5.728 -0.0767 -0.3740 -1.1250
   36DOPE   C22 4539   5.174   4.736   5.797 -0.0353 -0.1054  0.3562
   36DOPE   H2R 4540   5.144   4.829   5.852  1.2774  1.9686 -2.2038
   36DOPE   H2S 4541   5.254   4.768   5.728 -0.6600  1.6525  0.3860
   36DOPE    C3 4542   4.937   4.442   5.566  0.5656  0.4250  0.1642
   36DOPE    HX 4543   5.022   4.371   5.555 -0.6626 -0.9594 -0.8239
   36DOPE    HY 4544   4.863   4.404   5.493  0.6753 -2.6823  1.4804
   36DOPE   O31 4545   4.874   4.430   5.697 -0.0890 -0.5481 -0.0175
   36DOPE   C31 4546   4.771   4.500   5.732  0.4031 -0.0241  0.3471
   36DOPE   O32 4547   4.690   4.556   5.659  0.3133  0.5903  0.2228
   36DOPE   C32 4548   4.774   4.490   5.889  1.1670  1.0418 -0.2996
   36DOPE   H2X 4549   4.782   4.379   5.899 -2.5347  0.7216  0.4848
   36DOPE   H2Y 4550   4.867   4.539   5.922  0.2501  2.0680  0.8374
   36DOPE   C23 4551   5.235   4.629   5.887 -0.4237  0.2918  0.5633
   36DOPE   H3R 4552   5.337   4.659   5.916 -1.1172  1.2602  2.1114
   36DOPE   H3S 4553   5.257   4.542   5.822  0.0250 -0.3102  1.4978
   36DOPE   C24 4554   5.147   4.584   6.002 -0.0787 -0.2748  0.1369
   36DOPE   H4R 4555   5.108   4.482   5.982  2.7960 -1.4175 -0.1423
   36DOPE   H4S 4556   5.062   4.652   6.023  0.1285  0.3729 -1.0562
   36DOPE   C25 4557   5.230   4.574   6.140 -0.7061  0.4808 -0.1900
   36DOPE   H5R 4558   5.259   4.678   6.164  0.4956  0.4880 -1.5520
   36DOPE   H5S 4559   5.320   4.509   6.131  0.7845  2.5249 -0.6792
   36DOPE   C26 4560   5.144   4.520   6.253 -0.0133 -0.1262  0.2765
   36DOPE   H6R 4561   5.107   4.422   6.216 -0.9588  0.2158  0.2958
   36DOPE   H6S 4562   5.061   4.590   6.276 -0.0309 -0.7464  2.3055
   36DOPE   C27 4563   5.219   4.492   6.385  0.3281  0.0134 -0.0835
   36DOPE   H7R 4564   5.285   4.578   6.412  1.4025 -1.5696  2.7349
   36DOPE   H7S 4565   5.289   4.407   6.372  1.0002  0.3989  0.9087
   36DOPE   C28 4566   5.129   4.454   6.509  0.0384  0.1935 -0.3812
   36DOPE   H8R 4567   5.051   4.381   6.479  1.2159 -1.5358  0.6057
   36DOPE   H8S 4568   5.073   4.541   6.548  1.2904  0.6919  0.3583
   36DOPE   C29 4569   5.205   4.400   6.625  1.0733 -0.3036 -0.3251
   36DOPE   H9R 4570   5.266   4.311   6.604  0.5229 -1.2281  1.7981
   36DOPE  C210 4571   5.187   4.440   6.752  0.4166  1.0453  0.4032
   36DOPE  H10R 4572   5.260   4.402   6.826 -1.8621  0.2090  2.3601
   36DOPE  C211 4573   5.102   4.550   6.800 -0.2408  0.6295  0.0352
   36DOPE  H11R 4574   4.995   4.556   6.773 -0.6615  4.1072  1.8819
   36DOPE  H11S 4575   5.137   4.645   6.755  0.4243  0.8321  0.9516
   36DOPE  C212 4576   5.115   4.559   6.954 -0.3995 -0.0720 -0.8033
   36DOPE  H12R 4577   5.062   4.652   6.984 -0.1469  0.0282 -0.6698
   36DOPE  H12S 4578   5.224   4.574   6.972 -0.7403 -0.6020  2.3164
   36DOPE  C213 4579   5.059   4.433   7.028 -0.3042 -0.1945 -0.2217
   36DOPE  H13R 4580   5.110   4.341   6.992  0.7658  0.8354 -1.4273
   36DOPE  H13S 4581   4.952   4.433   6.998 -0.0012  1.0255 -1.3767
   36DOPE  C214 4582   5.080   4.448   7.175 -0.3131  0.4251  0.0867
   36DOPE  H14R 4583   5.065   4.555   7.199 -1.1775  0.1555  0.7921
   36DOPE  H14S 4584   5.187   4.425   7.192  0.1705  1.2478 -1.6356
   36DOPE  C215 4585   4.993   4.358   7.264  0.2320 -0.1137 -0.3928
   36DOPE  H15R 4586   5.004   4.253   7.229  0.5643  0.8252 -3.3564
   36DOPE  H15S 4587   4.890   4.391   7.237  0.7002 -0.1046 -2.3321
   36DOPE  C216 4588   5.028   4.373   7.413  0.2050  0.4926  0.1871
   36DOPE  H16R 4589   5.024   4.477   7.453  1.3496  1.2821 -1.5955
   36DOPE  H16S 4590   5.135   4.344   7.419 -0.2142 -0.7836  2.4260
   36DOPE  C217 4591   4.967   4.268   7.504 -0.2040 -0.3839 -0.7241
   36DOPE  H17R 4592   5.029   4.268   7.596 -0.8154  1.1102 -0.2799
   36DOPE  H17S 4593   4.964   4.166   7.459 -0.1823  0.0544 -1.7465
   36DOPE  C218 4594   4.824   4.284   7.553 -0.0130  0.7264 -0.2731
   36DOPE  H18R 4595   4.754   4.250   7.474  1.1278  0.5913 -1.2704
   36DOPE  H18S 4596   4.798   4.390   7.575  2.0532  1.2954 -0.3221
   36DOPE  H18T 4597   4.793   4.225   7.641 -0.1578  2.6704  1.0461
   36DOPE   C33 4598   4.649   4.526   5.955  0.3791  0.5305  0.5605
   36DOPE   H3X 4599   4.565   4.480   5.898  1.1251  1.6785 -1.5896
   36DOPE   H3Y 4600   4.631   4.636   5.954 -0.0620  0.4858  2.1464
   36DOPE   C34 4601   4.651   4.463   6.094 -0.3583  0.4748  0.0708
   36DOPE   H4X 4602   4.550   4.456   6.139 -0.1641  0.5106  0.5134
   36DOPE   H4Y 4603   4.692   4.360   6.100 -3.1563 -0.6574  1.6859
   36DOPE   C35 4604   4.741   4.541   6.191  0.1821  0.5587  0.5409
   36DOPE   H5X 4605   4.704   4.643   6.212 -1.1135  0.8416 -2.5891
   36DOPE   H5Y 4606   4.838   4.551   6.137 -1.3410  0.7236 -2.3419
   36DOPE   C36 4607   4.758   4.453   6.319 -0.0336 -0.0371  0.0497
   36DOPE   H6X 4608   4.857   4.480   6.361 -0.9544  0.4859  2.0130
   36DOPE   H6Y 4609   4.764   4.347   6.287 -3.1047 -0.8094  1.5916
   36DOPE   C37 4610   4.645   4.480   6.419  0.1326 -0.5102  0.3466
   36DOPE   H7X 4611   4.649   4.581   6.465 -0.3448 -0.4310  0.2132
   36DOPE   H7Y 4612   4.547   4.479   6.367  0.2524  0.2022  0.0996
   36DOPE   C38 4613   4.637   4.377   6.540 -0.8473  0.0187  0.3001
   36DOPE   H8X 4614   4.611   4.284   6.486 -0.4592 -0.4613  0.9402
   36DOPE   H8Y 4615   4.557   4.394   6.615 -0.0103 -0.8576  1.4321
   36DOPE   C39 4616   4.767   4.356   6.614 -0.4129 -1.1788  0.0121
   36DOPE   H9X 4617   4.860   4.359   6.555 -0.5131  0.7326 -0.1000
   36DOPE  C310 4618   4.786   4.333   6.746  0.0638 -0.5353  0.1543
   36DOPE  H10X 4619   4.888   4.320   6.783 -1.1414 -1.5740  3.4658
   36DOPE  C311 4620   4.687   4.311   6.852 -0.2584  0.2824  0.2183
   36DOPE  H11X 4621   4.669   4.409   6.903  0.3029  0.6735 -0.3289
   36DOPE  H11Y 4622   4.592   4.268   6.813  0.3997  0.3277 -1.5400
   36DOPE  C312 4623   4.723   4.191   6.947  0.0651 -0.0259 -1.1467
   36DOPE  H12X 4624   4.833   4.179   6.949  0.0082 -0.8741 -2.1669
   36DOPE  H12Y 4625   4.683   4.094   6.911 -0.4433 -0.9032  1.5569
   36DOPE  C313 4626   4.673   4.218   7.093  0.1210  0.3196 -0.5116
   36DOPE  H13X 4627   4.717   4.314   7.126 -0.7387  0.7793 -0.6725
   36DOPE  H13Y 4628   4.564   4.230   7.111  0.5962  0.1870  3.3039
   36DOPE  C314 4629   4.734   4.107   7.187 -0.2661 -0.4138 -0.1642
   36DOPE  H14X 4630   4.746   4.133   7.294 -0.7716  1.6276 -0.5686
   36DOPE  H14Y 4631   4.831   4.070   7.146  0.1570  0.5988 -0.1103
   36DOPE  C315 4632   4.651   3.979   7.177 -0.4796 -0.5082 -0.0980
   36DOPE  H15X 4633   4.707   3.886   7.201 -2.4570 -0.9803  3.3054
   36DOPE  H15Y 4634   4.616   3.966   7.072  1.4890 -5.2438 -0.4244
   36DOPE  C316 4635   4.540   3.984   7.280 -0.8322 -0.2774  0.5959
   36DOPE  H16X 4636   4.445   3.955   7.230 -0.3708  0.2958 -0.6532
   36DOPE  H16Y 4637   4.530   4.092   7.306  0.5398  0.0747 -0.2221
   36DOPE  C317 4638   4.564   3.904   7.405  0.3281 -0.5724  0.6373
   36DOPE  H17X 4639   4.577   3.799   7.373  1.3692  0.1521 -1.5352
   36DOPE  H17Y 4640   4.654   3.937   7.461 -2.5007  1.1760  4.6380
   36DOPE  C318 4641   4.448   3.903   7.502  0.7737  0.2684  0.0968
   36DOPE  H18X 4642   4.472   3.846   7.595  0.0321 -0.4381 -0.1301
   36DOPE  H18Y 4643   4.417   4.007   7.525 -0.2177  0.3825 -1.6142
   36DOPE  H18Z 4644   4.360   3.860   7.450  0.9038 -0.5420  0.5285
   37DOPE     N 4645   2.114   1.817   4.671  0.9698  0.2760  0.1326
   37DOPE   HN1 4646   2.036   1.868   4.717  0.8246  0.2823 -0.1136
   37DOPE   HN2 4647   2.135   1.853   4.575  2.4258 -0.0689  0.3081
   37DOPE   HN3 4648   2.079   1.720   4.662 -0.6188  0.5245  2.8014
   37DOPE   C12 4649   2.236   1.830   4.761 -0.7589  0.1453  0.1733
   37DOPE  H12A 4650   2.319   1.771   4.716  0.5511  1.4980  0.7508
   37DOPE  H12B 4651   2.223   1.783   4.861  2.0432  0.7515  0.9176
   37DOPE   C11 4652   2.264   1.975   4.771  0.2352 -0.1207  0.0787
   37DOPE  H11A 4653   2.295   2.025   4.677 -0.2498  1.1125  0.5495
   37DOPE  H11B 4654   2.355   1.997   4.832  1.5692  3.9957 -2.9004
   37DOPE     P 4655   2.167   2.184   4.883 -0.0567  0.2342 -0.4240
   37DOPE   O13 4656   2.029   2.238   4.901  0.3851  0.7747 -0.0268
   37DOPE   O14 4657   2.264   2.258   4.799  0.0081 -0.0731 -0.1412
   37DOPE   O11 4658   2.244   2.153   5.020  0.0210  0.1025 -0.4113
   37DOPE   O12 4659   2.151   2.039   4.830 -0.3070  0.6357 -0.1017
   37DOPE    C1 4660   2.208   2.063   5.122 -0.2744  0.5905  0.7438
   37DOPE    HA 4661   2.286   1.989   5.151 -2.2265 -2.0088 -0.2590
   37DOPE    HB 4662   2.126   2.001   5.080 -0.4904  0.2415  1.6653
   37DOPE    C2 4663   2.154   2.139   5.241  0.8188  0.5290 -0.1392
   37DOPE    HS 4664   2.070   2.200   5.200  1.1383  0.1186 -1.4554
   37DOPE   O21 4665   2.262   2.209   5.296  0.3007  0.2248 -0.6620
   37DOPE   C21 4666   2.249   2.334   5.325  0.4809 -0.1664  0.5839
   37DOPE   O22 4667   2.146   2.401   5.307  0.1186 -0.2167 -0.4520
   37DOPE   C22 4668   2.381   2.379   5.392  0.4296  0.6689  0.3482
   37DOPE   H2R 4669   2.467   2.316   5.360 -0.0690  0.1497  0.0250
   37DOPE   H2S 4670   2.365   2.363   5.501  1.7622 -0.9289  0.3577
   37DOPE    C3 4671   2.098   2.040   5.342  0.3166  0.4300 -0.1861
   37DOPE    HX 4672   2.183   1.973   5.368  0.9520  1.7024  1.1526
   37DOPE    HY 4673   2.009   1.988   5.301  0.0017  1.4349 -0.8218
   37DOPE   O31 4674   2.062   2.107   5.466  0.1904 -0.3138 -0.1388
   37DOPE   C31 4675   1.935   2.156   5.471  0.0666  0.3156 -0.0807
   37DOPE   O32 4676   1.854   2.144   5.379  0.4157 -0.2211 -0.1491
   37DOPE   C32 4677   1.910   2.234   5.602  0.4043  0.2302 -0.2378
   37DOPE   H2X 4678   1.983   2.184   5.670  1.2689 -1.2156 -2.1342
   37DOPE   H2Y 4679   1.947   2.339   5.602 -0.9467  0.7637 -2.3267
   37DOPE   C23 4680   2.394   2.530   5.379 -0.2501  0.1416  0.4595
   37DOPE   H3R 4681   2.297   2.573   5.414 -0.4602 -2.0535  2.8206
   37DOPE   H3S 4682   2.426   2.573   5.282 -0.0498 -0.2768  0.3396
   37DOPE   C24 4683   2.482   2.595   5.494  0.0645 -0.0764  0.5784
   37DOPE   H4R 4684   2.430   2.581   5.591 -2.7097  0.1854 -0.7797
   37DOPE   H4S 4685   2.464   2.703   5.475  0.3765  0.0764  1.1139
   37DOPE   C25 4686   2.633   2.569   5.487  0.0227 -0.1144 -0.5020
   37DOPE   H5R 4687   2.693   2.597   5.398 -0.6255  1.1507 -0.5629
   37DOPE   H5S 4688   2.653   2.461   5.504 -0.7035 -0.5331 -2.1230
   37DOPE   C26 4689   2.699   2.649   5.599  0.1330 -0.5630  0.6348
   37DOPE   H6R 4690   2.648   2.615   5.692  0.4621 -0.8441  0.7108
   37DOPE   H6S 4691   2.680   2.759   5.598 -1.1098 -0.7331  1.8387
   37DOPE   C27 4692   2.850   2.618   5.597 -0.3199  0.0045 -0.8866
   37DOPE   H7R 4693   2.889   2.612   5.493  1.5231  0.3545 -0.2453
   37DOPE   H7S 4694   2.863   2.513   5.633  1.5213 -0.0217 -1.5358
   37DOPE   C28 4695   2.930   2.711   5.691  0.1174 -0.5398 -0.2928
   37DOPE   H8R 4696   2.885   2.705   5.792  1.0670  0.3205  0.2070
   37DOPE   H8S 4697   2.916   2.818   5.662 -0.1475 -0.7278 -0.8723
   37DOPE   C29 4698   3.077   2.665   5.688  0.4731 -0.3651 -0.6259
   37DOPE   H9R 4699   3.125   2.708   5.600 -1.7793  2.6446 -0.5335
   37DOPE  C210 4700   3.142   2.588   5.776 -0.2570  0.4153  0.6156
   37DOPE  H10R 4701   3.251   2.574   5.775 -0.3780 -0.5854 -0.0935
   37DOPE  C211 4702   3.068   2.523   5.894  0.2022 -0.4058  0.6940
   37DOPE  H11R 4703   3.092   2.417   5.917  1.4720 -0.5677 -1.2196
   37DOPE  H11S 4704   2.958   2.517   5.879  0.0572 -0.1039  1.5337
   37DOPE  C212 4705   3.088   2.602   6.026 -0.4769  0.5561 -0.7319
   37DOPE  H12R 4706   3.085   2.711   6.005 -0.3162  0.5364 -0.8558
   37DOPE  H12S 4707   3.191   2.583   6.064 -0.2639  0.0471 -1.5376
   37DOPE  C213 4708   2.994   2.562   6.137 -0.2028 -0.6541 -0.7357
   37DOPE  H13R 4709   2.992   2.452   6.155 -0.3261 -0.3101  1.5833
   37DOPE  H13S 4710   2.892   2.576   6.095  1.0451 -1.1765 -4.2388
   37DOPE  C214 4711   3.029   2.627   6.267 -0.2234  0.7092  0.2665
   37DOPE  H14R 4712   3.029   2.737   6.251 -0.6149  0.3614 -2.7076
   37DOPE  H14S 4713   3.134   2.612   6.301  0.7418 -0.8057 -2.9623
   37DOPE  C215 4714   2.935   2.578   6.387 -0.3554 -1.1267 -0.0863
   37DOPE  H15R 4715   2.951   2.468   6.391 -0.2847 -1.0763  1.9203
   37DOPE  H15S 4716   2.830   2.600   6.359 -0.1394 -0.6680 -0.5500
   37DOPE  C216 4717   2.975   2.659   6.512  0.0985 -0.2655  0.0150
   37DOPE  H16R 4718   3.085   2.662   6.523  0.0524  1.3569  0.3590
   37DOPE  H16S 4719   2.947   2.614   6.609  2.1820 -0.6453  0.4876
   37DOPE  C217 4720   2.923   2.806   6.501 -1.1516 -0.0669 -0.3880
   37DOPE  H17R 4721   2.812   2.804   6.489 -1.0989 -0.8776 -0.7977
   37DOPE  H17S 4722   2.978   2.857   6.419 -0.0582 -1.5044 -0.6067
   37DOPE  C218 4723   2.971   2.874   6.631 -0.0170  0.1128  0.2044
   37DOPE  H18R 4724   3.080   2.888   6.614  0.5107 -2.5208  0.9105
   37DOPE  H18S 4725   2.962   2.803   6.716  0.0702  0.0661  0.1743
   37DOPE  H18T 4726   2.928   2.974   6.653  3.1447  1.0236  3.1144
   37DOPE   C33 4727   1.766   2.216   5.644  0.3043  0.2710 -0.3661
   37DOPE   H3X 4728   1.739   2.109   5.638 -1.1022  0.3567  2.6369
   37DOPE   H3Y 4729   1.700   2.283   5.584 -0.5996  2.0968  2.4346
   37DOPE   C34 4730   1.730   2.250   5.794 -0.0459 -0.4378 -0.1429
   37DOPE   H4X 4731   1.767   2.164   5.854  0.2516  0.4748  1.0303
   37DOPE   H4Y 4732   1.777   2.342   5.834 -2.7636  0.9343  0.1062
   37DOPE   C35 4733   1.580   2.260   5.815  0.4943  0.2669  0.5262
   37DOPE   H5X 4734   1.532   2.214   5.726  1.4426 -1.5872  0.9183
   37DOPE   H5Y 4735   1.547   2.366   5.822  0.2618  0.4116 -2.0018
   37DOPE   C36 4736   1.534   2.191   5.941 -0.7566  0.3649  0.2506
   37DOPE   H6X 4737   1.562   2.084   5.946 -0.3465  0.4889  0.6517
   37DOPE   H6Y 4738   1.424   2.197   5.956 -0.6898 -0.8935  1.3930
   37DOPE   C37 4739   1.600   2.268   6.063 -0.1580  0.0721  0.3317
   37DOPE   H7X 4740   1.700   2.225   6.086 -0.1434 -1.5844 -2.3938
   37DOPE   H7Y 4741   1.605   2.378   6.045 -0.2517  0.0050 -0.1162
   37DOPE   C38 4742   1.522   2.253   6.190  0.1301 -0.1811 -0.5016
   37DOPE   H8X 4743   1.595   2.279   6.270 -1.7148 -0.0250  1.1886
   37DOPE   H8Y 4744   1.498   2.146   6.206  1.4108 -0.5613 -0.9549
   37DOPE   C39 4745   1.408   2.351   6.210 -0.1236 -0.4215 -0.5911
   37DOPE   H9X 4746   1.345   2.365   6.121 -0.6825 -0.1204 -0.1549
   37DOPE  C310 4747   1.385   2.428   6.319  0.1093  0.6006  0.1152
   37DOPE  H10X 4748   1.288   2.480   6.312 -0.3373 -0.4322 -2.3249
   37DOPE  C311 4749   1.453   2.425   6.446 -0.0745 -0.1748 -0.4804
   37DOPE  H11X 4750   1.560   2.394   6.443 -0.3161 -1.1700  0.3322
   37DOPE  H11Y 4751   1.455   2.525   6.494  0.3173 -0.0429 -0.7697
   37DOPE  C312 4752   1.381   2.344   6.556 -0.3335 -0.5144  0.0713
   37DOPE  H12X 4753   1.396   2.236   6.536  0.5240 -0.2898 -0.5586
   37DOPE  H12Y 4754   1.274   2.372   6.560 -0.6080 -1.6294  1.2615
   37DOPE  C313 4755   1.449   2.365   6.696 -0.5231 -0.0099 -0.3086
   37DOPE  H13X 4756   1.559   2.352   6.686 -0.0159  1.7799  1.9524
   37DOPE  H13Y 4757   1.436   2.471   6.729 -1.1289 -0.5969  1.3995
   37DOPE  C314 4758   1.400   2.268   6.801  0.6735  0.4639  0.7040
   37DOPE  H14X 4759   1.442   2.170   6.772 -1.8417 -0.2724 -0.6831
   37DOPE  H14Y 4760   1.290   2.269   6.789  0.6216  2.2540  1.0103
   37DOPE  C315 4761   1.446   2.311   6.947 -0.2386  0.5886  0.1037
   37DOPE  H15X 4762   1.369   2.373   6.999 -2.7283 -3.2867  1.4889
   37DOPE  H15Y 4763   1.540   2.370   6.940 -0.2656  0.5747 -0.3906
   37DOPE  C316 4764   1.464   2.194   7.042 -0.6008  0.2858 -0.2693
   37DOPE  H16X 4765   1.498   2.107   6.982 -3.5442  1.4267 -3.9958
   37DOPE  H16Y 4766   1.366   2.158   7.079 -0.0213  0.3453  1.3813
   37DOPE  C317 4767   1.559   2.243   7.151 -0.5058  0.3471 -0.0183
   37DOPE  H17X 4768   1.655   2.261   7.098 -0.3188  0.3849  0.3293
   37DOPE  H17Y 4769   1.525   2.330   7.211 -2.0898  0.3327 -0.8629
   37DOPE  C318 4770   1.579   2.132   7.252  0.4070 -0.2827  0.0025
   37DOPE  H18X 4771   1.652   2.157   7.333  1.7523  0.6541 -1.4345
   37DOPE  H18Y 4772   1.479   2.121   7.300 -0.3059 -1.2998 -1.6425
   37DOPE  H18Z 4773   1.605   2.039   7.198 -0.2999 -1.4208  1.5505
   38DOPE     N 4774   3.969   4.555   4.614 -0.3735  0.3187 -0.4306
   38DOPE   HN1 4775   3.997   4.654   4.601  0.5933  0.2083  0.7037
   38DOPE   HN2 4776   4.052   4.498   4.587  1.4044  2.0732  0.9974
   38DOPE   HN3 4777   3.892   4.535   4.547  1.2093  1.1503 -2.6341
   38DOPE   C12 4778   3.923   4.523   4.758  0.9140  0.3511 -0.7162
   38DOPE  H12A 4779   3.944   4.416   4.782  0.5509  0.1927 -1.0876
   38DOPE  H12B 4780   3.816   4.552   4.757  0.4716 -1.1780 -0.8313
   38DOPE   C11 4781   4.009   4.616   4.855  0.5542  0.3996  0.0712
   38DOPE  H11A 4782   4.114   4.602   4.821  0.8424 -1.0382  1.4452
   38DOPE  H11B 4783   4.005   4.573   4.958  2.9382  2.4374  1.1236
   38DOPE     P 4784   3.863   4.822   4.925 -0.1759 -0.8015 -0.2402
   38DOPE   O13 4785   3.734   4.759   4.894 -0.0511  0.3903 -0.4006
   38DOPE   O14 4786   3.875   4.966   4.883 -0.3764  0.1883  0.0004
   38DOPE   O11 4787   3.889   4.795   5.082  0.1390 -1.0991  0.9070
   38DOPE   O12 4788   3.978   4.751   4.844  0.4229  0.3137  0.6900
   38DOPE    C1 4789   3.936   4.908   5.169 -0.0762  0.3716  0.6502
   38DOPE    HA 4790   3.849   4.971   5.197 -0.5302  0.4594 -0.8745
   38DOPE    HB 4791   4.007   4.973   5.114  0.5223 -0.8282 -0.0443
   38DOPE    C2 4792   4.010   4.858   5.299  0.2829  0.0325  0.4487
   38DOPE    HS 4793   4.103   4.802   5.276  0.3470 -0.1322  1.1011
   38DOPE   O21 4794   3.917   4.775   5.374  0.4591 -0.4576  0.2967
   38DOPE   C21 4795   3.959   4.691   5.463  0.3231 -0.9021  0.5796
   38DOPE   O22 4796   4.077   4.661   5.482  0.2977 -0.0784 -0.1278
   38DOPE   C22 4797   3.837   4.631   5.533  0.1341  0.3578 -0.3029
   38DOPE   H2R 4798   3.877   4.549   5.596  0.8811  0.8095 -0.1760
   38DOPE   H2S 4799   3.774   4.587   5.453  0.5887 -2.5314  0.8212
   38DOPE    C3 4800   4.050   4.981   5.381 -0.8092 -0.2508 -0.3479
   38DOPE    HX 4801   3.955   5.024   5.419 -0.0687  0.0024  1.3198
   38DOPE    HY 4802   4.098   5.063   5.322  1.6541 -0.9369  0.5647
   38DOPE   O31 4803   4.146   4.938   5.490  0.1228  0.3969 -0.6483
   38DOPE   C31 4804   4.145   5.025   5.597  0.3769  0.5167  0.3619
   38DOPE   O32 4805   4.077   5.123   5.611 -0.4165 -0.0328  0.1262
   38DOPE   C32 4806   4.223   4.955   5.706 -0.1551  0.0191  0.1426
   38DOPE   H2X 4807   4.161   4.868   5.735  0.5833 -1.6098 -2.8487
   38DOPE   H2Y 4808   4.323   4.929   5.666 -0.4120  0.4206 -0.7928
   38DOPE   C23 4809   3.762   4.736   5.619  0.0605  0.0761  0.5718
   38DOPE   H3R 4810   3.674   4.698   5.674 -1.1719  0.3156 -1.1678
   38DOPE   H3S 4811   3.715   4.808   5.549  1.2922 -0.7851 -1.2264
   38DOPE   C24 4812   3.855   4.806   5.713  0.8773 -0.2591 -0.1161
   38DOPE   H4R 4813   3.930   4.856   5.648 -1.0003  0.6329 -1.6877
   38DOPE   H4S 4814   3.915   4.731   5.768 -0.6793 -1.8033 -0.4572
   38DOPE   C25 4815   3.784   4.911   5.796 -0.1416 -0.3398 -0.6129
   38DOPE   H5R 4816   3.704   4.852   5.846 -0.1189  0.3452  0.2552
   38DOPE   H5S 4817   3.734   4.986   5.732  0.2769 -1.0153 -1.7466
   38DOPE   C26 4818   3.860   5.000   5.896  0.2780  0.4710 -0.0207
   38DOPE   H6R 4819   3.932   5.060   5.835  3.3301 -2.6321  0.2387
   38DOPE   H6S 4820   3.916   4.942   5.972  1.8547  2.8264  0.7617
   38DOPE   C27 4821   3.757   5.107   5.958 -0.5557  0.3992  0.0781
   38DOPE   H7R 4822   3.685   5.047   6.019  0.7531 -1.2040  0.1152
   38DOPE   H7S 4823   3.700   5.145   5.871  0.1931  0.3722 -0.4322
   38DOPE   C28 4824   3.822   5.217   6.035 -0.5761  0.0903 -0.3807
   38DOPE   H8R 4825   3.754   5.303   6.046  1.3578  1.7319 -0.6878
   38DOPE   H8S 4826   3.897   5.257   5.963 -0.7668 -1.7086 -1.6525
   38DOPE   C29 4827   3.893   5.169   6.155 -0.2047  0.5057 -0.7200
   38DOPE   H9R 4828   3.992   5.127   6.131 -0.3861 -0.1786 -0.3320
   38DOPE  C210 4829   3.856   5.175   6.290 -0.1341  0.9818  0.5147
   38DOPE  H10R 4830   3.922   5.139   6.369  0.5498  3.3143  1.0763
   38DOPE  C211 4831   3.723   5.232   6.346  0.4532 -1.0102 -0.1181
   38DOPE  H11R 4832   3.646   5.222   6.266 -1.2908 -0.3458  1.4228
   38DOPE  H11S 4833   3.744   5.341   6.353  0.6981 -1.1290  1.0765
   38DOPE  C212 4834   3.676   5.181   6.482 -0.0799  0.0658 -0.4145
   38DOPE  H12R 4835   3.643   5.075   6.478 -0.6036  0.1959  0.2820
   38DOPE  H12S 4836   3.584   5.236   6.513  1.0344  1.0574  1.3202
   38DOPE  C213 4837   3.775   5.186   6.590  0.7705 -0.1254  0.3256
   38DOPE  H13R 4838   3.831   5.280   6.574  0.6521  0.2777  2.1054
   38DOPE  H13S 4839   3.842   5.098   6.577 -1.3954 -1.7032 -0.7901
   38DOPE  C214 4840   3.714   5.183   6.733  0.3387 -0.7938 -0.1286
   38DOPE  H14R 4841   3.641   5.100   6.737 -0.6597  0.0610 -0.0863
   38DOPE  H14S 4842   3.652   5.273   6.754 -1.0556 -1.9946  1.2111
   38DOPE  C215 4843   3.821   5.162   6.837 -0.3893  0.1241 -0.2921
   38DOPE  H15R 4844   3.902   5.235   6.820  0.7434 -1.3457 -1.4125
   38DOPE  H15S 4845   3.865   5.060   6.837 -0.5229 -0.0601  3.3377
   38DOPE  C216 4846   3.756   5.190   6.972  0.4450  0.0051 -0.7988
   38DOPE  H16R 4847   3.701   5.287   6.979  0.3461  0.0182 -1.6105
   38DOPE  H16S 4848   3.843   5.201   7.041 -0.3274  2.0440 -0.0539
   38DOPE  C217 4849   3.656   5.089   7.033 -0.1331 -0.4601 -0.2476
   38DOPE  H17R 4850   3.671   5.092   7.143  0.0685  0.1007 -0.2839
   38DOPE  H17S 4851   3.690   4.985   7.018 -0.8412 -1.0287  1.8154
   38DOPE  C218 4852   3.513   5.112   6.990 -0.3567 -0.2633 -0.5509
   38DOPE  H18R 4853   3.473   5.210   7.024  0.4161 -0.0682 -0.1824
   38DOPE  H18S 4854   3.440   5.039   7.029 -1.2916  1.8153  1.8150
   38DOPE  H18T 4855   3.500   5.106   6.880 -1.6785 -2.5216 -0.3342
   38DOPE   C33 4856   4.245   5.041   5.826 -0.2839  0.2655 -0.2060
   38DOPE   H3X 4857   4.164   5.108   5.862 -0.1620  0.2107  0.1670
   38DOPE   H3Y 4858   4.336   5.104   5.822 -0.6560  0.9815  1.5788
   38DOPE   C34 4859   4.259   4.944   5.953 -0.2313 -0.3326 -0.3275
   38DOPE   H4X 4860   4.169   4.879   5.954  0.5922 -1.5063 -0.3976
   38DOPE   H4Y 4861   4.344   4.873   5.941 -1.2270 -1.9503  1.6023
   38DOPE   C35 4862   4.274   5.032   6.084  0.0169  0.4426 -0.1980
   38DOPE   H5X 4863   4.255   4.954   6.161 -0.1321  0.0971 -0.5803
   38DOPE   H5Y 4864   4.191   5.106   6.080  0.4680  0.9020 -2.0343
   38DOPE   C36 4865   4.413   5.082   6.104  0.2649  0.4308  0.5344
   38DOPE   H6X 4866   4.446   5.133   6.011 -0.4514  2.3467  1.2759
   38DOPE   H6Y 4867   4.482   4.994   6.113 -1.9404 -1.3812  0.5409
   38DOPE   C37 4868   4.430   5.183   6.217  0.3291 -0.7036  0.2322
   38DOPE   H7X 4869   4.535   5.219   6.226 -0.2454  0.9868  0.7273
   38DOPE   H7Y 4870   4.375   5.276   6.190 -0.8611 -1.5698 -0.3818
   38DOPE   C38 4871   4.409   5.126   6.347  0.0814  0.2380  0.1388
   38DOPE   H8X 4872   4.482   5.178   6.413 -2.3508  3.4070  0.5174
   38DOPE   H8Y 4873   4.437   5.018   6.341  1.4476  0.5608  0.2661
   38DOPE   C39 4874   4.275   5.149   6.396 -0.0957  0.1206 -0.3534
   38DOPE   H9X 4875   4.193   5.152   6.323 -3.4758 -1.0834  3.0354
   38DOPE  C310 4876   4.234   5.168   6.528 -0.4383 -0.4630  0.5663
   38DOPE  H10X 4877   4.126   5.172   6.548 -0.7679  0.4921 -1.1718
   38DOPE  C311 4878   4.331   5.177   6.642 -0.7168 -0.3344  0.2818
   38DOPE  H11X 4879   4.418   5.115   6.613 -0.6605  0.5143 -1.4627
   38DOPE  H11Y 4880   4.380   5.276   6.651 -0.2661 -0.7276  3.3161
   38DOPE  C312 4881   4.287   5.145   6.783 -0.4029  0.6294 -0.9021
   38DOPE  H12X 4882   4.381   5.128   6.840 -1.3001 -0.4459  0.2934
   38DOPE  H12Y 4883   4.218   5.060   6.796 -2.1603  1.9208 -1.3369
   38DOPE  C313 4884   4.206   5.264   6.845  0.1347 -0.9308 -0.7397
   38DOPE  H13X 4885   4.261   5.360   6.860  2.9069 -2.4002 -0.8298
   38DOPE  H13Y 4886   4.124   5.296   6.777  0.3832  2.4705  0.3533
   38DOPE  C314 4887   4.150   5.219   6.975 -0.1067  0.7684 -0.3459
   38DOPE  H14X 4888   4.090   5.126   6.962 -1.3145  1.1936  1.7755
   38DOPE  H14Y 4889   4.066   5.279   7.015 -1.1537 -1.2502  0.6479
   38DOPE  C315 4890   4.252   5.184   7.087  0.1415  0.0558  0.4802
   38DOPE  H15X 4891   4.293   5.282   7.118  1.4568 -0.7654  1.4275
   38DOPE  H15Y 4892   4.338   5.124   7.049  0.2013  0.6183 -0.2943
   38DOPE  C316 4893   4.190   5.129   7.218  0.2315 -0.5897  0.5148
   38DOPE  H16X 4894   4.151   5.029   7.187  0.4488  0.4613 -3.8696
   38DOPE  H16Y 4895   4.105   5.194   7.246  0.1698  0.9660 -2.8392
   38DOPE  C317 4896   4.297   5.120   7.323  0.1201 -1.2043 -0.3447
   38DOPE  H17X 4897   4.359   5.212   7.335 -0.4347 -0.7105 -1.1819
   38DOPE  H17Y 4898   4.248   5.099   7.421  1.8353 -0.0850  0.8123
   38DOPE  C318 4899   4.401   5.013   7.306 -0.1693  0.0410  0.7852
   38DOPE  H18X 4900   4.358   4.921   7.260 -0.6738 -0.4982  2.2906
   38DOPE  H18Y 4901   4.481   5.047   7.237  2.9132 -3.8361  2.1468
   38DOPE  H18Z 4902   4.451   4.989   7.402  1.8578  2.8770  0.5492
   39DOPE     N 4903   1.832   2.750   4.878  0.1036  0.4432 -0.2142
   39DOPE   HN1 4904   1.810   2.850   4.894  0.3039  0.5179 -0.4084
   39DOPE   HN2 4905   1.792   2.709   4.965 -1.4220  0.4112 -0.9010
   39DOPE   HN3 4906   1.935   2.741   4.868  0.0588  1.7579 -2.5290
   39DOPE   C12 4907   1.761   2.702   4.754  0.4977  0.0858 -0.1081
   39DOPE  H12A 4908   1.803   2.603   4.727  1.9104 -0.1359  2.5637
   39DOPE  H12B 4909   1.784   2.773   4.672 -0.3456 -0.6486 -1.0168
   39DOPE   C11 4910   1.607   2.706   4.770 -0.0890 -0.2264 -0.1115
   39DOPE  H11A 4911   1.584   2.613   4.827 -0.7790  1.3646  2.3198
   39DOPE  H11B 4912   1.563   2.703   4.668  2.8145  0.2042 -1.4882
   39DOPE     P 4913   1.397   2.815   4.870 -0.6380  0.2633  0.0640
   39DOPE   O13 4914   1.363   2.675   4.905 -0.7366  0.0300 -0.1827
   39DOPE   O14 4915   1.334   2.874   4.752 -0.4710 -0.3544 -0.1646
   39DOPE   O11 4916   1.392   2.908   4.995 -0.0503 -0.2947 -0.2882
   39DOPE   O12 4917   1.558   2.816   4.842 -0.1608 -0.3723  0.6596
   39DOPE    C1 4918   1.431   3.046   4.984  0.5008  0.9964 -0.3593
   39DOPE    HA 4919   1.429   3.090   4.881 -0.3549  1.4810 -0.1452
   39DOPE    HB 4920   1.537   3.053   5.018  0.4400  0.9826 -0.1677
   39DOPE    C2 4921   1.342   3.140   5.073 -0.2162 -0.0523 -0.5036
   39DOPE    HS 4922   1.403   3.231   5.088 -0.6309  0.0110  1.0307
   39DOPE   O21 4923   1.306   3.074   5.194  0.2542  0.5393 -0.5076
   39DOPE   C21 4924   1.384   3.090   5.294 -0.0010  0.5876 -0.4566
   39DOPE   O22 4925   1.497   3.138   5.288  0.6446  0.0414  0.1037
   39DOPE   C22 4926   1.308   3.039   5.410  0.1647  0.2247  0.1475
   39DOPE   H2R 4927   1.335   2.931   5.411  0.0252  0.1601 -1.3985
   39DOPE   H2S 4928   1.199   3.034   5.391  0.2602 -0.2676 -0.3043
   39DOPE    C3 4929   1.209   3.174   5.003  0.3205 -0.7386  0.3638
   39DOPE    HX 4930   1.151   3.082   4.981  0.8992 -0.8443 -0.7790
   39DOPE    HY 4931   1.224   3.222   4.904  0.2827  0.4787  0.9382
   39DOPE   O31 4932   1.131   3.269   5.073 -0.3458  0.0239  0.2674
   39DOPE   C31 4933   1.178   3.393   5.074  0.6350 -0.5140  0.2983
   39DOPE   O32 4934   1.274   3.443   5.015 -0.1136 -0.2791 -0.5472
   39DOPE   C32 4935   1.092   3.470   5.179  0.1176  0.7145 -0.4199
   39DOPE   H2X 4936   1.068   3.570   5.136  2.2402  1.2883 -0.4221
   39DOPE   H2Y 4937   0.997   3.416   5.199 -0.2717  1.0651 -1.2566
   39DOPE   C23 4938   1.345   3.105   5.546  0.7535  0.2305 -0.0125
   39DOPE   H3R 4939   1.298   3.204   5.563  0.6087  0.0645  0.5686
   39DOPE   H3S 4940   1.455   3.115   5.539  0.9506  0.3283  2.2890
   39DOPE   C24 4941   1.332   3.019   5.672  0.6487  0.7180 -0.0010
   39DOPE   H4R 4942   1.347   2.916   5.632 -1.1384  0.3232  0.2583
   39DOPE   H4S 4943   1.228   3.022   5.711  0.3679  0.2523 -0.6857
   39DOPE   C25 4944   1.420   3.059   5.790  0.1204 -0.3273  0.0823
   39DOPE   H5R 4945   1.398   3.168   5.799 -1.6201 -0.4667 -1.7674
   39DOPE   H5S 4946   1.525   3.026   5.781 -0.4392 -4.0550  4.1365
   39DOPE   C26 4947   1.380   2.989   5.919 -0.3430  0.1398  0.5830
   39DOPE   H6R 4948   1.372   2.882   5.891  0.7102  0.2203 -0.0751
   39DOPE   H6S 4949   1.272   3.009   5.938 -0.3238 -0.4712  1.3335
   39DOPE   C27 4950   1.455   3.026   6.046 -0.4217 -0.0171  0.1293
   39DOPE   H7R 4951   1.453   3.137   6.056 -2.6347 -0.0882  1.2020
   39DOPE   H7S 4952   1.554   2.985   6.018 -0.1467 -0.0697  1.1384
   39DOPE   C28 4953   1.406   2.965   6.176 -0.0765 -0.1874 -0.8893
   39DOPE   H8R 4954   1.365   2.866   6.150 -1.5104  0.3401 -0.7084
   39DOPE   H8S 4955   1.320   3.024   6.213  1.7047  1.8840  0.2259
   39DOPE   C29 4956   1.521   2.967   6.272  0.1343  0.3478 -0.6458
   39DOPE   H9R 4957   1.622   2.941   6.237 -0.1155 -1.8208  0.1140
   39DOPE  C210 4958   1.500   3.013   6.401  0.2200 -0.4895  0.3703
   39DOPE  H10R 4959   1.579   3.015   6.477  0.5810 -1.8460  0.0616
   39DOPE  C211 4960   1.370   3.062   6.458 -0.9277  0.1407  0.0028
   39DOPE  H11R 4961   1.290   2.988   6.440 -1.3058  0.7131 -0.7122
   39DOPE  H11S 4962   1.338   3.154   6.404  2.0588  0.6375 -1.1433
   39DOPE  C212 4963   1.382   3.087   6.614 -0.0510 -0.0250 -0.2238
   39DOPE  H12R 4964   1.293   3.151   6.636 -1.2351 -1.8802  0.6107
   39DOPE  H12S 4965   1.474   3.142   6.642 -0.4687 -0.1534  1.4988
   39DOPE  C213 4966   1.382   2.962   6.700 -0.2980 -0.3907 -0.2117
   39DOPE  H13R 4967   1.403   2.873   6.638  1.0761  0.5006 -1.0682
   39DOPE  H13S 4968   1.283   2.945   6.749  0.0764  0.2441  0.7947
   39DOPE  C214 4969   1.494   2.954   6.801  0.2039 -1.2012 -0.3201
   39DOPE  H14R 4970   1.584   2.998   6.752  0.5482  0.1429  1.4055
   39DOPE  H14S 4971   1.506   2.847   6.826  0.7489 -2.2713 -4.4158
   39DOPE  C215 4972   1.478   3.038   6.937  1.2553 -0.4407 -0.2868
   39DOPE  H15R 4973   1.376   3.037   6.980  1.8347  1.5981  1.3206
   39DOPE  H15S 4974   1.501   3.144   6.913  1.5826 -0.1163  1.3192
   39DOPE  C216 4975   1.583   2.983   7.032  0.4601 -0.1080 -0.6807
   39DOPE  H16R 4976   1.614   3.044   7.119 -0.0308 -0.1026 -0.5051
   39DOPE  H16S 4977   1.678   2.960   6.979  0.7826 -1.1296  0.2780
   39DOPE  C217 4978   1.540   2.850   7.104 -0.5603  0.1037  0.0931
   39DOPE  H17R 4979   1.502   2.790   7.018  2.2580  1.0633 -1.9630
   39DOPE  H17S 4980   1.452   2.865   7.170 -1.0457  1.6391 -0.8545
   39DOPE  C218 4981   1.654   2.766   7.171 -0.4605 -0.1619  0.9805
   39DOPE  H18R 4982   1.723   2.832   7.228  0.4860  0.9842 -1.3680
   39DOPE  H18S 4983   1.724   2.730   7.093 -0.9144  1.0031 -0.0069
   39DOPE  H18T 4984   1.619   2.680   7.231  1.4795 -0.6342  1.4990
   39DOPE   C33 4985   1.168   3.483   5.315  0.9521  0.3098  0.5750
   39DOPE   H3X 4986   1.267   3.522   5.282  0.7274 -1.4036 -2.5722
   39DOPE   H3Y 4987   1.181   3.382   5.361  0.1636 -0.6904 -1.2810
   39DOPE   C34 4988   1.089   3.566   5.412  0.3449  0.6885  0.2274
   39DOPE   H4X 4989   1.091   3.666   5.363  0.6989  0.2691 -0.6453
   39DOPE   H4Y 4990   0.984   3.531   5.415  1.0907 -2.4433 -2.8747
   39DOPE   C35 4991   1.150   3.587   5.550  0.4994  0.1788 -0.5195
   39DOPE   H5X 4992   1.072   3.647   5.601 -0.6255  1.0394 -3.0474
   39DOPE   H5Y 4993   1.238   3.655   5.552  0.3596  0.3767 -0.9649
   39DOPE   C36 4994   1.161   3.468   5.640  0.0598  0.6067 -0.3488
   39DOPE   H6X 4995   1.220   3.394   5.581 -2.5255 -0.8883 -1.2056
   39DOPE   H6Y 4996   1.063   3.419   5.656  0.2944  0.2097 -0.0917
   39DOPE   C37 4997   1.216   3.495   5.782  0.3760 -0.4699 -0.4166
   39DOPE   H7X 4998   1.322   3.518   5.759  0.1061  1.6499  0.2801
   39DOPE   H7Y 4999   1.168   3.583   5.830  2.8689 -1.4204  4.5491
   39DOPE   C38 5000   1.216   3.382   5.892  0.7843 -0.2345 -0.3212
   39DOPE   H8X 5001   1.271   3.425   5.978  2.9546 -1.9307 -0.7593
   39DOPE   H8Y 5002   1.257   3.290   5.845  1.4009  1.1346 -2.6110
   39DOPE   C39 5003   1.075   3.355   5.938  0.4662 -0.4728 -0.9196
   39DOPE   H9X 5004   0.990   3.360   5.868 -1.8096 -0.2400  1.7016
   39DOPE  C310 5005   1.048   3.314   6.061  0.3329 -0.5790  0.3777
   39DOPE  H10X 5006   0.944   3.292   6.088 -0.1380  0.4321 -0.5283
   39DOPE  C311 5007   1.141   3.302   6.176  0.1029 -0.4131 -0.6836
   39DOPE  H11X 5008   1.147   3.193   6.198  0.7698 -0.3897 -0.7313
   39DOPE  H11Y 5009   1.245   3.338   6.156  0.8520 -1.8977  0.3541
   39DOPE  C312 5010   1.081   3.378   6.300 -0.0437  0.1816  0.0049
   39DOPE  H12X 5011   0.971   3.365   6.298  0.2221 -2.5997 -0.2983
   39DOPE  H12Y 5012   1.090   3.488   6.291 -2.0162  0.3704  0.0023
   39DOPE  C313 5013   1.118   3.334   6.439 -0.0496  0.2197 -0.1686
   39DOPE  H13X 5014   1.094   3.226   6.442 -1.8613  0.4975 -2.1586
   39DOPE  H13Y 5015   1.226   3.346   6.459 -0.2352  1.8956  0.0121
   39DOPE  C314 5016   1.029   3.400   6.553 -0.4347  0.3970  0.4304
   39DOPE  H14X 5017   0.922   3.381   6.530 -0.3864 -3.0845  2.4609
   39DOPE  H14Y 5018   1.047   3.510   6.556 -1.2165  0.5709 -0.5017
   39DOPE  C315 5019   1.072   3.338   6.686 -0.1217 -0.9840  0.0109
   39DOPE  H15X 5020   1.181   3.348   6.708 -0.6378 -1.9303  3.6328
   39DOPE  H15Y 5021   1.063   3.227   6.690 -0.7118 -1.0402 -1.9500
   39DOPE  C316 5022   0.985   3.387   6.801 -0.2892  0.3295 -0.5868
   39DOPE  H16X 5023   0.880   3.377   6.765 -0.0915 -1.1746 -0.8212
   39DOPE  H16Y 5024   1.023   3.484   6.839 -0.2517 -0.1019  0.5087
   39DOPE  C317 5025   1.008   3.308   6.929 -0.6301 -0.5871 -0.1451
   39DOPE  H17X 5026   0.957   3.370   7.006 -1.9384 -0.3451 -1.1667
   39DOPE  H17Y 5027   0.963   3.207   6.921 -0.6836 -0.9720  3.4873
   39DOPE  C318 5028   1.151   3.271   6.967 -0.0643  0.3896  0.3378
   39DOPE  H18X 5029   1.196   3.219   6.880 -1.3247 -0.8619  0.3992
   39DOPE  H18Y 5030   1.221   3.356   6.983  0.1831  0.4747 -1.0931
   39DOPE  H18Z 5031   1.158   3.204   7.055  1.5199  0.8382  0.5817
   40DOPE     N 5032   3.871   5.217   4.922 -0.3882  0.1105  0.5400
   40DOPE   HN1 5033   3.936   5.225   5.002 -0.5301 -2.5460  1.0047
   40DOPE   HN2 5034   3.865   5.114   4.908  1.2105 -0.0333  0.7734
   40DOPE   HN3 5035   3.916   5.253   4.835 -1.6476 -0.6585 -0.4741
   40DOPE   C12 5036   3.736   5.278   4.938  0.9417 -0.6678 -0.2848
   40DOPE  H12A 5037   3.683   5.241   4.847 -0.4089 -0.6016  0.4495
   40DOPE  H12B 5038   3.746   5.389   4.942  3.1250 -0.7583 -1.7132
   40DOPE   C11 5039   3.652   5.236   5.054 -0.2230 -0.2676  0.0051
   40DOPE  H11A 5040   3.646   5.125   5.063  1.5174 -0.2753  1.8578
   40DOPE  H11B 5041   3.548   5.266   5.030 -0.5894 -1.7976 -0.3914
   40DOPE     P 5042   3.814   5.292   5.262  0.0055 -0.0832 -0.4353
   40DOPE   O13 5043   3.848   5.421   5.322  0.7405  0.2548 -0.0407
   40DOPE   O14 5044   3.922   5.235   5.184  0.9211  0.6847 -0.9642
   40DOPE   O11 5045   3.764   5.203   5.377  0.1856  0.2930 -0.2309
   40DOPE   O12 5046   3.683   5.305   5.179  0.1573  0.7031  0.0515
   40DOPE    C1 5047   3.645   5.128   5.392 -1.0811 -0.4743  0.1063
   40DOPE    HA 5048   3.663   5.042   5.459 -1.7814 -0.8227 -0.1419
   40DOPE    HB 5049   3.631   5.086   5.290  0.8322 -2.6158  0.6609
   40DOPE    C2 5050   3.533   5.216   5.445  0.1069  0.4981 -0.1709
   40DOPE    HS 5051   3.514   5.294   5.369 -0.6561  0.0017 -0.5002
   40DOPE   O21 5052   3.566   5.253   5.578 -0.0655 -0.2693 -0.2164
   40DOPE   C21 5053   3.542   5.375   5.614 -0.2799  0.1111 -0.1462
   40DOPE   O22 5054   3.497   5.464   5.543 -0.4802 -0.0219  0.1254
   40DOPE   C22 5055   3.582   5.390   5.763 -0.1184  0.0975 -0.3198
   40DOPE   H2R 5056   3.690   5.365   5.774 -0.6684 -1.6242  1.8268
   40DOPE   H2S 5057   3.514   5.310   5.800 -1.3859  0.6203 -1.4310
   40DOPE    C3 5058   3.404   5.127   5.456 -0.2503  0.0976  0.4765
   40DOPE    HX 5059   3.409   5.073   5.360 -1.5660  0.5617  0.1293
   40DOPE    HY 5060   3.312   5.186   5.477 -0.4257 -0.7686  2.3592
   40DOPE   O31 5061   3.419   5.024   5.559 -0.7563  0.0479  0.2663
   40DOPE   C31 5062   3.367   5.052   5.675  0.0873 -0.2234  0.0692
   40DOPE   O32 5063   3.299   5.147   5.699 -0.6439  0.3479  0.4124
   40DOPE   C32 5064   3.401   4.941   5.771  0.5571 -0.1292 -0.0069
   40DOPE   H2X 5065   3.353   4.849   5.733 -0.4533 -0.7415  2.5618
   40DOPE   H2Y 5066   3.511   4.929   5.760  0.5111 -0.5158 -0.0482
   40DOPE   C23 5067   3.549   5.524   5.826  0.2349  0.0343  0.8950
   40DOPE   H3R 5068   3.443   5.555   5.813  0.7057  0.4552 -2.7560
   40DOPE   H3S 5069   3.600   5.602   5.766 -1.6044  0.0083 -0.7892
   40DOPE   C24 5070   3.587   5.539   5.972 -0.3924  0.2901 -0.7745
   40DOPE   H4R 5071   3.694   5.524   5.999 -0.9397  1.2589  2.3063
   40DOPE   H4S 5072   3.528   5.457   6.020  0.8148 -1.3041 -1.9013
   40DOPE   C25 5073   3.554   5.675   6.028 -0.2042 -0.5328  0.4048
   40DOPE   H5R 5074   3.443   5.680   6.035 -0.4790 -2.9920 -1.2442
   40DOPE   H5S 5075   3.585   5.748   5.950 -2.2690  1.4431  1.2927
   40DOPE   C26 5076   3.622   5.710   6.160 -0.1850 -0.3037 -0.3870
   40DOPE   H6R 5077   3.612   5.816   6.190 -0.1027 -0.2022 -0.7094
   40DOPE   H6S 5078   3.731   5.702   6.139  0.1946  0.3498  1.2249
   40DOPE   C27 5079   3.580   5.616   6.281 -0.0827  0.2968 -0.1340
   40DOPE   H7R 5080   3.586   5.512   6.242 -0.8898 -0.2050  1.0271
   40DOPE   H7S 5081   3.475   5.644   6.302  0.5999  2.6913  0.4518
   40DOPE   C28 5082   3.667   5.634   6.407 -0.0371  0.5651 -0.4704
   40DOPE   H8R 5083   3.768   5.617   6.364 -0.1801  0.1607 -0.6516
   40DOPE   H8S 5084   3.643   5.550   6.475  2.2660 -0.9509 -1.4236
   40DOPE   C29 5085   3.655   5.776   6.465 -0.5678 -0.5198  0.6534
   40DOPE   H9R 5086   3.575   5.836   6.420 -0.6907 -1.7237 -0.8302
   40DOPE  C210 5087   3.723   5.831   6.573  0.1510  0.1224  0.0310
   40DOPE  H10R 5088   3.700   5.935   6.598 -1.1999  0.0922 -0.9103
   40DOPE  C211 5089   3.821   5.759   6.656 -0.1499 -0.0323  0.3175
   40DOPE  H11R 5090   3.926   5.764   6.621  0.1440  0.4631  1.2176
   40DOPE  H11S 5091   3.797   5.651   6.656  2.0222 -0.5801 -1.4544
   40DOPE  C212 5092   3.818   5.821   6.800  0.6303 -0.5476 -0.7475
   40DOPE  H12R 5093   3.719   5.794   6.843  2.5333 -3.6779  2.2097
   40DOPE  H12S 5094   3.831   5.932   6.791  3.8918 -0.7005  0.5723
   40DOPE  C213 5095   3.929   5.769   6.888 -0.1253 -0.3140 -0.1427
   40DOPE  H13R 5096   3.949   5.840   6.971  0.2079  4.7963 -4.0392
   40DOPE  H13S 5097   4.027   5.767   6.835 -0.2503 -0.8813 -0.3626
   40DOPE  C214 5098   3.903   5.624   6.935  0.0304 -0.7748 -0.2978
   40DOPE  H14R 5099   3.887   5.564   6.843 -1.0721 -0.1639 -0.5227
   40DOPE  H14S 5100   3.809   5.633   6.993  0.5235  1.4585  0.2234
   40DOPE  C215 5101   4.015   5.565   7.022  0.1805 -0.0884  0.0037
   40DOPE  H15R 5102   4.114   5.556   6.973 -0.9515  1.2093 -2.7376
   40DOPE  H15S 5103   3.985   5.462   7.050  0.4757  0.3593  2.1651
   40DOPE  C216 5104   4.029   5.635   7.159 -0.5040 -0.3525 -0.5106
   40DOPE  H16R 5105   3.929   5.634   7.208 -0.2920 -1.9430 -0.0540
   40DOPE  H16S 5106   4.056   5.743   7.153 -0.7448 -0.2367  0.4115
   40DOPE  C217 5107   4.129   5.564   7.251 -0.6310 -0.2273  0.0885
   40DOPE  H17R 5108   4.181   5.644   7.308 -0.4916  0.5225 -1.0568
   40DOPE  H17S 5109   4.196   5.513   7.180 -1.2762  1.6961 -2.0442
   40DOPE  C218 5110   4.068   5.472   7.350  0.4017  0.5379 -0.1681
   40DOPE  H18R 5111   4.012   5.528   7.428  0.1663  1.1988 -0.8061
   40DOPE  H18S 5112   4.148   5.409   7.395 -0.5304 -0.4881  0.0977
   40DOPE  H18T 5113   4.006   5.395   7.298  0.3658  0.9749 -0.7754
   40DOPE   C33 5114   3.363   4.961   5.917 -0.4636 -0.3525  0.1995
   40DOPE   H3X 5115   3.260   5.002   5.927 -0.5214 -1.0361  3.6614
   40DOPE   H3Y 5116   3.428   5.039   5.961 -2.7872  1.4010  0.7566
   40DOPE   C34 5117   3.361   4.831   6.001  0.6843  0.1079 -0.0919
   40DOPE   H4X 5118   3.306   4.748   5.952  0.1819 -1.8906  3.5141
   40DOPE   H4Y 5119   3.465   4.794   5.996  1.7761  2.4918  2.3942
   40DOPE   C35 5120   3.327   4.853   6.153 -0.8858 -0.0760  0.7536
   40DOPE   H5X 5121   3.347   4.758   6.207  2.6395 -0.2463 -0.6358
   40DOPE   H5Y 5122   3.228   4.901   6.168 -1.9508 -2.1049  0.6078
   40DOPE   C36 5123   3.428   4.949   6.215 -0.0766 -0.3871  0.2285
   40DOPE   H6X 5124   3.439   5.045   6.161 -0.0629 -1.4589 -1.7560
   40DOPE   H6Y 5125   3.531   4.907   6.214  0.2190  0.3336 -0.7728
   40DOPE   C37 5126   3.387   4.974   6.360 -0.4376 -0.7138 -0.7387
   40DOPE   H7X 5127   3.434   5.067   6.399 -0.1852  0.8374 -4.3263
   40DOPE   H7Y 5128   3.279   5.000   6.372 -0.0041  0.8187  0.1159
   40DOPE   C38 5129   3.411   4.862   6.471  0.3267 -0.0663  0.0147
   40DOPE   H8X 5130   3.334   4.789   6.438  0.3160  0.4981 -1.2534
   40DOPE   H8Y 5131   3.374   4.892   6.572 -1.9879 -3.5137  0.3568
   40DOPE   C39 5132   3.549   4.789   6.474 -1.0156 -0.2316 -0.1507
   40DOPE   H9X 5133   3.585   4.760   6.374  1.5374 -0.5537  0.7679
   40DOPE  C310 5134   3.622   4.744   6.575 -0.3022 -0.3909  0.0021
   40DOPE  H10X 5135   3.720   4.697   6.562  0.0939 -0.5780  2.9818
   40DOPE  C311 5136   3.590   4.774   6.717 -0.3581  0.0709  0.7351
   40DOPE  H11X 5137   3.676   4.814   6.775 -1.1112  1.0122  1.2304
   40DOPE  H11Y 5138   3.514   4.854   6.731 -1.8452 -0.9729 -0.9487
   40DOPE  C312 5139   3.531   4.650   6.797 -0.2068 -0.0943 -0.1025
   40DOPE  H12X 5140   3.599   4.564   6.777  1.2209  0.6799  1.2497
   40DOPE  H12Y 5141   3.435   4.621   6.749  1.3748 -1.3110 -2.7569
   40DOPE  C313 5142   3.509   4.665   6.952  0.2149  0.4647 -0.1677
   40DOPE  H13X 5143   3.591   4.715   7.007 -0.4028  0.4215  0.8169
   40DOPE  H13Y 5144   3.426   4.736   6.971  0.7455  0.4735  2.3929
   40DOPE  C314 5145   3.479   4.540   7.032  0.3144  0.2917  0.3514
   40DOPE  H14X 5146   3.576   4.486   7.027 -0.7535 -1.7030  0.2664
   40DOPE  H14Y 5147   3.406   4.481   6.972  1.5657 -0.1492 -0.7706
   40DOPE  C315 5148   3.451   4.556   7.177  0.3199 -0.1686 -0.6455
   40DOPE  H15X 5149   3.536   4.582   7.243  0.5968 -1.4723 -0.4552
   40DOPE  H15Y 5150   3.401   4.460   7.201  2.5539 -0.9485  1.2713
   40DOPE  C316 5151   3.346   4.658   7.210  0.3134 -0.4151  0.8981
   40DOPE  H16X 5152   3.268   4.659   7.131  0.1549  0.9263  1.0436
   40DOPE  H16Y 5153   3.397   4.756   7.206  1.3250 -0.9618 -0.1208
   40DOPE  C317 5154   3.287   4.646   7.350  0.3352 -0.0263  0.3460
   40DOPE  H17X 5155   3.235   4.548   7.361 -1.0062  0.5472 -0.6945
   40DOPE  H17Y 5156   3.364   4.649   7.431 -2.1687 -0.2459  2.9205
   40DOPE  C318 5157   3.192   4.765   7.373 -0.7332 -0.1738  0.7950
   40DOPE  H18X 5158   3.157   4.762   7.478 -0.5042 -1.1186  0.8557
   40DOPE  H18Y 5159   3.247   4.858   7.350 -0.3758 -0.1068  1.8578
   40DOPE  H18Z 5160   3.109   4.750   7.301 -1.1580 -2.6171  1.6907
   41DOPE     N 5161   1.588   4.369   4.773  0.0802 -0.0018 -0.3019
   41DOPE   HN1 5162   1.522   4.429   4.826  0.0122 -1.2642  1.0847
   41DOPE   HN2 5163   1.529   4.310   4.712  0.2176  1.3303 -1.8009
   41DOPE   HN3 5164   1.642   4.321   4.848 -0.8268 -1.6871 -0.6825
   41DOPE   C12 5165   1.667   4.468   4.688  0.5749  0.4026 -1.0033
   41DOPE  H12A 5166   1.625   4.570   4.704  0.6040  0.1317  1.1925
   41DOPE  H12B 5167   1.664   4.441   4.581  1.5157 -3.0455 -0.2960
   41DOPE   C11 5168   1.813   4.472   4.730  0.5907  0.1464 -0.5275
   41DOPE  H11A 5169   1.869   4.533   4.657  0.8868  0.3662 -0.1205
   41DOPE  H11B 5170   1.855   4.369   4.734  0.6229  0.1467 -0.8999
   41DOPE     P 5171   1.956   4.553   4.930 -0.0109  0.1222 -0.0569
   41DOPE   O13 5172   2.003   4.693   4.930  0.4871 -0.5360 -0.3053
   41DOPE   O14 5173   2.047   4.449   4.878  0.0835  0.4950  0.1795
   41DOPE   O11 5174   1.914   4.518   5.078  0.2240 -0.2696 -0.3682
   41DOPE   O12 5175   1.817   4.539   4.856  0.1412 -0.3016 -0.6290
   41DOPE    C1 5176   1.996   4.531   5.193  0.3967  0.0530 -0.7305
   41DOPE    HA 5177   1.934   4.582   5.270 -2.2636 -0.5633 -2.3483
   41DOPE    HB 5178   2.096   4.574   5.172 -0.5066  2.0995 -1.0304
   41DOPE    C2 5179   2.029   4.388   5.256 -0.0361 -0.5465 -0.0946
   41DOPE    HS 5180   2.066   4.327   5.170  4.2227 -0.1241  1.1939
   41DOPE   O21 5181   1.912   4.328   5.306  0.1975  0.7378 -0.0135
   41DOPE   C21 5182   1.913   4.199   5.320  0.4463  0.1059  0.1354
   41DOPE   O22 5183   2.005   4.129   5.290 -0.3319  0.8128  0.1174
   41DOPE   C22 5184   1.783   4.140   5.377 -0.2553 -0.3364 -0.1116
   41DOPE   H2R 5185   1.747   4.063   5.305 -2.7450 -0.6859  1.3991
   41DOPE   H2S 5186   1.699   4.212   5.378 -0.7275 -0.8747 -0.3813
   41DOPE    C3 5187   2.150   4.380   5.358  0.1087  0.0851  0.4108
   41DOPE    HX 5188   2.231   4.454   5.340 -0.4572  0.5967 -0.0621
   41DOPE    HY 5189   2.189   4.277   5.341 -0.0107 -0.6042  3.7253
   41DOPE   O31 5190   2.110   4.376   5.496 -0.3652  0.9512 -0.4703
   41DOPE   C31 5191   2.068   4.485   5.545  0.1009  0.0583  0.2272
   41DOPE   O32 5192   2.062   4.594   5.491  0.2154  0.4575  0.5931
   41DOPE   C32 5193   2.018   4.453   5.686  0.7898  0.4003 -0.2629
   41DOPE   H2X 5194   1.912   4.422   5.676  0.7504  0.6206 -0.5502
   41DOPE   H2Y 5195   2.086   4.376   5.728  1.8784  0.4836 -1.7849
   41DOPE   C23 5196   1.825   4.072   5.501  0.4315 -0.1324 -0.8647
   41DOPE   H3R 5197   1.882   4.143   5.564 -1.0517  0.8387 -0.5773
   41DOPE   H3S 5198   1.888   3.984   5.474  2.4350  1.4026 -1.4335
   41DOPE   C24 5199   1.704   4.035   5.594  0.7640  0.5929  1.2017
   41DOPE   H4R 5200   1.626   3.984   5.533 -0.3522  0.6401  2.5503
   41DOPE   H4S 5201   1.668   4.133   5.631 -0.4231  0.4303  0.5469
   41DOPE   C25 5202   1.739   3.953   5.717  0.4906 -0.2270  0.8162
   41DOPE   H5R 5203   1.810   3.872   5.690  1.4114  0.8313 -0.0544
   41DOPE   H5S 5204   1.643   3.912   5.754 -0.3189  0.9181  0.0666
   41DOPE   C26 5205   1.821   4.035   5.823  0.2726  1.0555  0.4546
   41DOPE   H6R 5206   1.750   4.100   5.879 -1.0693  1.7415 -1.9117
   41DOPE   H6S 5207   1.911   4.089   5.789 -0.4166  1.2764 -1.1115
   41DOPE   C27 5208   1.888   3.931   5.918  0.0409 -0.4229  0.1196
   41DOPE   H7R 5209   1.971   3.871   5.875  2.2889 -0.2119  3.7759
   41DOPE   H7S 5210   1.807   3.857   5.938  0.0006 -0.6766 -0.9069
   41DOPE   C28 5211   1.948   4.005   6.037  0.2465  0.0284 -0.2431
   41DOPE   H8R 5212   1.866   4.062   6.086  1.2843  0.0523  1.5418
   41DOPE   H8S 5213   2.022   4.080   6.002  0.5661  0.3309  1.0543
   41DOPE   C29 5214   1.995   3.908   6.135 -0.6308  0.2085  0.7565
   41DOPE   H9R 5215   2.088   3.854   6.110  0.2477  1.9710  0.0573
   41DOPE  C210 5216   1.918   3.855   6.236  0.2489  0.3465 -0.3404
   41DOPE  H10R 5217   1.971   3.791   6.307  3.0881  0.5415 -2.1199
   41DOPE  C211 5218   1.778   3.893   6.281  0.1640  0.5555  0.2223
   41DOPE  H11R 5219   1.715   3.801   6.285 -0.0341  0.5932 -1.3914
   41DOPE  H11S 5220   1.721   3.952   6.206 -0.5054  1.5573  1.4714
   41DOPE  C212 5221   1.767   3.952   6.424  0.1763  0.3158 -0.0850
   41DOPE  H12R 5222   1.676   4.015   6.423 -0.6344 -0.5573 -4.4496
   41DOPE  H12S 5223   1.843   4.033   6.431 -0.6911  1.4329 -2.2415
   41DOPE  C213 5224   1.770   3.850   6.538  0.2192 -0.5773 -0.0987
   41DOPE  H13R 5225   1.852   3.775   6.531 -1.7911 -3.0729  1.2399
   41DOPE  H13S 5226   1.683   3.781   6.531 -0.0822 -0.0315 -2.2179
   41DOPE  C214 5227   1.779   3.902   6.677 -0.5393 -0.1907  0.0881
   41DOPE  H14R 5228   1.681   3.952   6.692 -0.2118  0.3994  0.2718
   41DOPE  H14S 5229   1.861   3.974   6.698 -2.0954  1.9766 -0.9698
   41DOPE  C215 5230   1.782   3.782   6.782 -0.2438 -0.4263  0.1293
   41DOPE  H15R 5231   1.869   3.715   6.763 -0.9111 -1.0101 -0.9613
   41DOPE  H15S 5232   1.693   3.720   6.762 -0.4066 -0.0002 -0.4965
   41DOPE  C216 5233   1.787   3.829   6.927 -0.2624 -0.2193  0.1787
   41DOPE  H16R 5234   1.694   3.879   6.961  1.0105  2.2206  0.2935
   41DOPE  H16S 5235   1.875   3.896   6.927  1.1503 -1.9542  1.9292
   41DOPE  C217 5236   1.817   3.713   7.021  0.2908 -0.2160 -0.6325
   41DOPE  H17R 5237   1.826   3.748   7.127 -0.0491 -0.0947 -0.6434
   41DOPE  H17S 5238   1.909   3.654   7.003  0.1719 -0.9727  0.9966
   41DOPE  C218 5239   1.708   3.603   7.030  0.9552  0.6298 -0.1998
   41DOPE  H18R 5240   1.607   3.645   7.045 -1.0338 -2.9895 -1.9955
   41DOPE  H18S 5241   1.732   3.528   7.109  0.8906  2.7528  1.9271
   41DOPE  H18T 5242   1.710   3.552   6.931  0.5033 -1.1853  0.6869
   41DOPE   C33 5243   2.027   4.579   5.774 -0.0267  0.4492 -0.1954
   41DOPE   H3X 5244   1.931   4.633   5.755  0.6479  1.0863 -1.9613
   41DOPE   H3Y 5245   2.118   4.634   5.743  0.3319  0.6270  1.1305
   41DOPE   C34 5246   2.033   4.566   5.929  0.2430  0.0429 -0.1415
   41DOPE   H4X 5247   2.129   4.519   5.959  0.7484  0.0372 -1.6725
   41DOPE   H4Y 5248   2.033   4.669   5.970 -1.1208 -0.7070  1.8667
   41DOPE   C35 5249   1.921   4.486   6.000  0.1504 -0.2317 -0.7135
   41DOPE   H5X 5250   1.920   4.387   5.950 -0.3445 -0.0227 -1.1226
   41DOPE   H5Y 5251   1.825   4.538   5.978  0.7581  0.2497 -2.3471
   41DOPE   C36 5252   1.936   4.464   6.145  0.0936 -0.7875 -0.5526
   41DOPE   H6X 5253   2.041   4.436   6.170  0.8453  1.1048 -1.3919
   41DOPE   H6Y 5254   1.865   4.391   6.188 -1.0679  0.4246 -0.3726
   41DOPE   C37 5255   1.920   4.599   6.221  0.0844 -0.3275 -0.1498
   41DOPE   H7X 5256   2.002   4.667   6.191  1.6627 -0.4263  3.4851
   41DOPE   H7Y 5257   1.829   4.644   6.175 -0.1603 -1.7660 -1.1521
   41DOPE   C38 5258   1.914   4.601   6.379 -0.3878  0.1943 -0.3018
   41DOPE   H8X 5259   1.817   4.558   6.413  0.6217 -1.1076  1.0398
   41DOPE   H8Y 5260   1.905   4.710   6.398  0.4914  0.0516  1.0601
   41DOPE   C39 5261   2.039   4.539   6.433  0.3991 -0.6270  0.0942
   41DOPE   H9X 5262   2.037   4.429   6.431 -1.1148 -0.6098 -0.3670
   41DOPE  C310 5263   2.132   4.603   6.506  0.1481 -0.0856 -0.3525
   41DOPE  H10X 5264   2.218   4.547   6.546 -1.4279 -2.3857  0.0062
   41DOPE  C311 5265   2.147   4.753   6.519  0.2231  0.8214  0.9859
   41DOPE  H11X 5266   2.254   4.783   6.521  0.4270  0.0956  1.5815
   41DOPE  H11Y 5267   2.096   4.802   6.434  0.1010  0.0292  0.6004
   41DOPE  C312 5268   2.082   4.810   6.643  0.0189  0.6730  0.0371
   41DOPE  H12X 5269   1.971   4.798   6.636  0.2021 -0.7317 -0.9348
   41DOPE  H12Y 5270   2.098   4.920   6.640 -2.0519  1.1018  1.8404
   41DOPE  C313 5271   2.151   4.761   6.774  0.1188  0.9094  0.2455
   41DOPE  H13X 5272   2.086   4.687   6.825 -0.0661  2.5664  2.6024
   41DOPE  H13Y 5273   2.242   4.705   6.745  0.3083  1.2026  0.2644
   41DOPE  C314 5274   2.170   4.869   6.874 -0.9536 -0.7227 -0.0236
   41DOPE  H14X 5275   2.075   4.925   6.887 -0.2089  0.2202  1.6948
   41DOPE  H14Y 5276   2.248   4.936   6.831 -1.3947  0.0486  0.3575
   41DOPE  C315 5277   2.219   4.816   7.008 -0.2777 -0.0308  0.3402
   41DOPE  H15X 5278   2.313   4.763   6.980  0.6923  2.0899 -0.6825
   41DOPE  H15Y 5279   2.137   4.747   7.036 -0.2214 -1.1647 -1.9945
   41DOPE  C316 5280   2.251   4.914   7.119 -0.3479  0.0511  0.1979
   41DOPE  H16X 5281   2.163   4.970   7.158 -0.1877 -0.2718  1.0635
   41DOPE  H16Y 5282   2.311   4.993   7.072 -2.1487  1.8666  0.7811
   41DOPE  C317 5283   2.318   4.844   7.240  0.2289 -0.6125  0.5654
   41DOPE  H17X 5284   2.398   4.773   7.207 -0.6060 -0.9717 -0.7428
   41DOPE  H17Y 5285   2.387   4.914   7.292 -0.0899 -0.3985  0.6947
   41DOPE  C318 5286   2.217   4.795   7.338  0.5120 -0.2975 -0.1798
   41DOPE  H18X 5287   2.269   4.749   7.425 -0.3424 -1.2220 -0.1418
   41DOPE  H18Y 5288   2.135   4.869   7.350 -0.3951 -0.7709 -2.7845
   41DOPE  H18Z 5289   2.160   4.710   7.295 -0.4029 -0.7757  1.8683
   42DOPE     N 5290   1.037   4.380   4.901  0.3887  0.4475  0.7003
   42DOPE   HN1 5291   0.981   4.467   4.911  0.8053  1.1404 -2.2277
   42DOPE   HN2 5292   1.051   4.319   4.985  0.5342  0.4783  0.6993
   42DOPE   HN3 5293   1.124   4.413   4.855 -0.2483  0.6630 -0.3806
   42DOPE   C12 5294   0.982   4.295   4.786 -1.1320  0.1253 -0.2339
   42DOPE  H12A 5295   0.962   4.367   4.704 -0.3652  2.0053  1.1598
   42DOPE  H12B 5296   0.891   4.244   4.824  0.0182 -1.2362  0.8284
   42DOPE   C11 5297   1.083   4.182   4.744 -0.4874  0.2715  0.2463
   42DOPE  H11A 5298   1.031   4.128   4.663  1.1640  0.3212 -0.9083
   42DOPE  H11B 5299   1.102   4.115   4.830 -0.1430 -1.6926 -1.2906
   42DOPE     P 5300   1.318   4.147   4.647 -0.4412 -0.0151 -0.0023
   42DOPE   O13 5301   1.445   4.220   4.617  0.1950  0.1841 -0.2745
   42DOPE   O14 5302   1.271   4.069   4.533  0.0853  0.2040  0.5412
   42DOPE   O11 5303   1.345   4.052   4.768 -1.4581 -0.0065  0.2068
   42DOPE   O12 5304   1.207   4.242   4.702 -0.0915 -0.0535 -0.2674
   42DOPE    C1 5305   1.352   4.086   4.908 -0.5249 -0.2990  0.9985
   42DOPE    HA 5306   1.261   4.041   4.953 -2.2008  0.7046 -1.1544
   42DOPE    HB 5307   1.338   4.195   4.925 -0.3294 -0.1641  0.3540
   42DOPE    C2 5308   1.481   4.040   4.978 -0.1105 -0.2101  0.3274
   42DOPE    HS 5309   1.557   4.067   4.902 -0.9138 -1.3159 -0.8993
   42DOPE   O21 5310   1.478   3.893   4.989  0.5378  0.1718  0.2154
   42DOPE   C21 5311   1.592   3.839   5.022 -0.4462 -0.0310 -1.2121
   42DOPE   O22 5312   1.693   3.904   5.056 -0.2501  0.7326  0.5975
   42DOPE   C22 5313   1.575   3.688   4.998 -0.2354 -0.1371 -0.0425
   42DOPE   H2R 5314   1.573   3.680   4.887  0.7263  0.1471 -0.0941
   42DOPE   H2S 5315   1.486   3.646   5.049  0.4550 -0.7300  0.6884
   42DOPE    C3 5316   1.489   4.115   5.119  0.5625 -0.7404 -1.2335
   42DOPE    HX 5317   1.512   4.223   5.103 -0.7331  0.1112  1.8932
   42DOPE    HY 5318   1.575   4.066   5.169 -0.8148 -1.6513  0.3526
   42DOPE   O31 5319   1.367   4.086   5.196 -0.2690  0.0105 -0.0177
   42DOPE   C31 5320   1.373   4.123   5.322 -0.4090 -0.4641 -0.0037
   42DOPE   O32 5321   1.465   4.179   5.376  0.7257 -0.2340 -0.6046
   42DOPE   C32 5322   1.239   4.095   5.396 -0.3414  0.1408  0.1354
   42DOPE   H2X 5323   1.184   4.191   5.410 -0.8625 -0.2235  0.6584
   42DOPE   H2Y 5324   1.184   4.031   5.324 -0.1247  0.8824 -0.7016
   42DOPE   C23 5325   1.701   3.611   5.053  0.7231 -0.6974 -0.1306
   42DOPE   H3R 5326   1.796   3.663   5.028 -0.0004  0.7222 -0.0317
   42DOPE   H3S 5327   1.684   3.516   4.998  0.0396  0.1133 -1.3944
   42DOPE   C24 5328   1.696   3.577   5.205 -0.0449  0.2830  0.1130
   42DOPE   H4R 5329   1.783   3.509   5.221  0.1702  0.1918 -1.3085
   42DOPE   H4S 5330   1.598   3.529   5.229 -0.3054  1.5521  1.7200
   42DOPE   C25 5331   1.728   3.701   5.295  0.5110 -0.1902  0.0344
   42DOPE   H5R 5332   1.654   3.782   5.279 -2.2773 -1.7845  3.4796
   42DOPE   H5S 5333   1.825   3.739   5.257  0.2137 -0.3000 -0.8747
   42DOPE   C26 5334   1.736   3.676   5.444 -0.6628  0.3540  0.1955
   42DOPE   H6R 5335   1.787   3.765   5.486  0.1865  0.1746 -0.4201
   42DOPE   H6S 5336   1.795   3.582   5.448 -2.4805 -0.9021 -0.8995
   42DOPE   C27 5337   1.601   3.662   5.508 -0.2332  0.2204  0.3975
   42DOPE   H7R 5338   1.540   3.601   5.437  0.1177  1.8305 -1.3593
   42DOPE   H7S 5339   1.546   3.758   5.502 -1.8061 -0.5110  2.0629
   42DOPE   C28 5340   1.599   3.619   5.660 -0.2576 -0.3656  0.3504
   42DOPE   H8R 5341   1.502   3.645   5.706 -1.4265 -0.9062 -1.6718
   42DOPE   H8S 5342   1.685   3.669   5.709  0.2769  0.6232 -1.4838
   42DOPE   C29 5343   1.622   3.473   5.675 -0.7480 -0.5297 -0.2188
   42DOPE   H9R 5344   1.636   3.420   5.580 -2.1383  1.1592 -1.4396
   42DOPE  C210 5345   1.596   3.403   5.784  0.5498  0.1661 -0.2081
   42DOPE  H10R 5346   1.601   3.293   5.783 -0.9532  0.0872 -1.6821
   42DOPE  C211 5347   1.559   3.451   5.922 -0.3222  0.2648  0.2911
   42DOPE  H11R 5348   1.520   3.361   5.974  0.9337 -1.2670 -1.3205
   42DOPE  H11S 5349   1.482   3.530   5.935  0.9246  1.9219 -1.8055
   42DOPE  C212 5350   1.681   3.491   6.009 -0.3753  0.3370  0.2029
   42DOPE  H12R 5351   1.723   3.577   5.952 -2.8895  3.1479  2.2590
   42DOPE  H12S 5352   1.766   3.421   6.022 -0.8689 -0.2340  0.3698
   42DOPE  C213 5353   1.646   3.554   6.141 -0.9376 -0.5600 -0.1799
   42DOPE  H13R 5354   1.572   3.636   6.141 -0.5290 -0.1365 -2.4752
   42DOPE  H13S 5355   1.745   3.595   6.171 -0.0609 -1.6937 -1.3903
   42DOPE  C214 5356   1.618   3.453   6.254  0.0195 -0.5615 -0.0665
   42DOPE  H14R 5357   1.682   3.362   6.252 -1.7456 -1.9177  1.4824
   42DOPE  H14S 5358   1.517   3.409   6.239 -0.3963 -0.8473  2.9077
   42DOPE  C215 5359   1.620   3.517   6.392 -0.8017 -0.2478  0.9567
   42DOPE  H15R 5360   1.552   3.605   6.383 -0.2382  0.1845  0.8964
   42DOPE  H15S 5361   1.719   3.553   6.426 -0.2315 -0.3198 -0.5695
   42DOPE  C216 5362   1.557   3.439   6.507  0.5000 -0.4467  0.1746
   42DOPE  H16R 5363   1.605   3.339   6.512 -0.6147 -1.2158 -2.6762
   42DOPE  H16S 5364   1.451   3.420   6.482 -0.1877  1.3181  1.5762
   42DOPE  C217 5365   1.573   3.529   6.634  0.3146  0.5975  1.0750
   42DOPE  H17R 5366   1.527   3.628   6.611 -2.0849  0.2259  3.6903
   42DOPE  H17S 5367   1.683   3.540   6.636  0.4287  0.1710 -0.7213
   42DOPE  C218 5368   1.510   3.458   6.758  0.6752 -0.0831  0.5715
   42DOPE  H18R 5369   1.553   3.359   6.785 -0.4242 -0.6022  0.5022
   42DOPE  H18S 5370   1.399   3.456   6.748  0.7200  2.1255 -0.9402
   42DOPE  H18T 5371   1.538   3.510   6.852  1.1038 -0.2806  0.5528
   42DOPE   C33 5372   1.248   4.022   5.530 -0.0112 -0.2083 -1.2368
   42DOPE   H3X 5373   1.308   3.930   5.517  1.5189  1.1473 -5.4473
   42DOPE   H3Y 5374   1.145   3.989   5.555 -0.2695  0.7420 -1.0008
   42DOPE   C34 5375   1.288   4.112   5.654  0.0165 -0.0962  0.0806
   42DOPE   H4X 5376   1.393   4.143   5.631  0.1375  1.4080  2.3898
   42DOPE   H4Y 5377   1.225   4.203   5.651  0.2174  0.0624  0.6534
   42DOPE   C35 5378   1.274   4.039   5.792  0.1936  0.7000  0.1259
   42DOPE   H5X 5379   1.169   4.003   5.793 -0.0140  1.2899  0.1753
   42DOPE   H5Y 5380   1.282   4.116   5.872 -1.0181  0.9227  0.0514
   42DOPE   C36 5381   1.369   3.919   5.814  0.0371  0.9478 -0.6397
   42DOPE   H6X 5382   1.469   3.960   5.839  0.3637 -0.6346  0.8264
   42DOPE   H6Y 5383   1.378   3.865   5.717  0.1329 -1.2964  0.5685
   42DOPE   C37 5384   1.328   3.802   5.906 -0.8928  0.3068 -0.0520
   42DOPE   H7X 5385   1.226   3.782   5.866  0.2254  0.0830 -3.0126
   42DOPE   H7Y 5386   1.398   3.716   5.899  2.9440  2.9629  2.0216
   42DOPE   C38 5387   1.335   3.849   6.051 -0.4447  0.3856 -0.0399
   42DOPE   H8X 5388   1.284   3.948   6.053 -1.9364 -0.3429 -0.8248
   42DOPE   H8Y 5389   1.441   3.856   6.084 -0.6845 -0.0150  0.8580
   42DOPE   C39 5390   1.278   3.758   6.155 -0.0335 -0.0822  0.4719
   42DOPE   H9X 5391   1.251   3.658   6.118 -1.2489  0.3545  0.1171
   42DOPE  C310 5392   1.270   3.790   6.280  0.0693 -0.2547  0.1316
   42DOPE  H10X 5393   1.203   3.733   6.346  0.3050  0.0526  0.6432
   42DOPE  C311 5394   1.310   3.926   6.330 -0.2464 -0.0300 -0.0485
   42DOPE  H11X 5395   1.391   3.971   6.268 -0.5287 -0.7365 -0.9494
   42DOPE  H11Y 5396   1.226   3.998   6.337  0.9088  1.2859  0.8372
   42DOPE  C312 5397   1.366   3.920   6.478  0.1476  0.5074  0.1434
   42DOPE  H12X 5398   1.419   4.015   6.502 -0.8312  0.9804  0.4772
   42DOPE  H12Y 5399   1.442   3.841   6.492  0.4177  0.8107  0.4205
   42DOPE  C313 5400   1.249   3.884   6.577 -0.1755  0.1257 -0.1541
   42DOPE  H13X 5401   1.185   3.796   6.551 -0.9342  0.3984  0.7166
   42DOPE  H13Y 5402   1.292   3.848   6.673 -0.5830 -1.7612 -0.6234
   42DOPE  C314 5403   1.134   3.985   6.602 -0.6894  0.3885 -0.8576
   42DOPE  H14X 5404   1.077   3.980   6.507  1.8799  0.0418 -2.4993
   42DOPE  H14Y 5405   1.189   4.080   6.617 -0.6081  0.0738  1.0371
   42DOPE  C315 5406   1.050   3.962   6.734  0.1196  0.2762  0.2841
   42DOPE  H15X 5407   1.117   3.962   6.823 -1.9747 -0.6450  1.9835
   42DOPE  H15Y 5408   1.004   3.862   6.720  1.4031 -0.3789  0.6588
   42DOPE  C316 5409   0.943   4.070   6.763 -0.2629 -0.3522 -0.2724
   42DOPE  H16X 5410   1.001   4.159   6.798 -1.2081 -0.2231  1.0436
   42DOPE  H16Y 5411   0.882   4.033   6.847 -1.9525  0.3800 -1.1294
   42DOPE  C317 5412   0.849   4.085   6.647  0.5447 -0.2426 -0.1297
   42DOPE  H17X 5413   0.903   4.123   6.558 -0.3564 -2.0593 -1.5244
   42DOPE  H17Y 5414   0.806   3.986   6.619 -0.5603 -0.0785  0.8979
   42DOPE  C318 5415   0.730   4.170   6.685  0.8372 -1.4683 -0.3397
   42DOPE  H18X 5416   0.754   4.267   6.733 -0.5280 -1.4516  0.3302
   42DOPE  H18Y 5417   0.668   4.204   6.600  0.5664  0.8074  0.6956
   42DOPE  H18Z 5418   0.659   4.131   6.761 -0.5048  2.1543  0.4513
   43DOPE     N 5419   0.035   2.072   5.495  0.0116  0.2594  0.1389
   43DOPE   HN1 5420   0.094   1.997   5.453  0.1933  0.5082 -0.0571
   43DOPE   HN2 5421   0.063   2.085   5.594 -0.8303  0.9169  0.2926
   43DOPE   HN3 5422  -0.064   2.040   5.487 -1.5226  3.7829  2.5425
   43DOPE   C12 5423   0.059   2.206   5.435  0.6533 -0.5013 -0.3230
   43DOPE  H12A 5424  -0.028   2.272   5.457  0.9034  0.4715 -2.0940
   43DOPE  H12B 5425   0.066   2.189   5.325  1.8809 -1.2605 -0.1423
   43DOPE   C11 5426   0.194   2.268   5.485 -0.4271 -0.0010 -0.3820
   43DOPE  H11A 5427   0.190   2.291   5.593  1.0104  1.6653 -0.6271
   43DOPE  H11B 5428   0.216   2.362   5.429 -0.2873  0.4891  0.4733
   43DOPE     P 5429   0.436   2.203   5.395 -0.0106 -0.1503 -0.0297
   43DOPE   O13 5430   0.497   2.325   5.449  0.4452 -0.6154  0.6095
   43DOPE   O14 5431   0.418   2.197   5.245  0.1328 -0.0569 -0.6278
   43DOPE   O11 5432   0.530   2.087   5.434 -0.0592  0.4935 -0.5093
   43DOPE   O12 5433   0.296   2.171   5.460 -0.7257 -0.1678  0.4943
   43DOPE    C1 5434   0.483   1.999   5.542  0.4392 -0.0246 -0.0076
   43DOPE    HA 5435   0.533   1.900   5.534 -0.3631 -0.4085 -0.4029
   43DOPE    HB 5436   0.374   1.977   5.539  0.2493  0.7575  0.6332
   43DOPE    C2 5437   0.508   2.056   5.680  1.2758 -0.5288 -0.3884
   43DOPE    HS 5438   0.447   2.149   5.680 -0.5510 -1.6572  1.4954
   43DOPE   O21 5439   0.650   2.079   5.686  0.2399  0.0851  0.1038
   43DOPE   C21 5440   0.691   2.194   5.733 -0.3366  0.1361 -0.0038
   43DOPE   O22 5441   0.617   2.286   5.764 -0.0210  0.5691  0.6321
   43DOPE   C22 5442   0.846   2.187   5.732 -0.0196  1.2594 -0.0426
   43DOPE   H2R 5443   0.880   2.221   5.632  1.2087  0.5528  0.1064
   43DOPE   H2S 5444   0.862   2.078   5.746  0.3300  1.1046 -1.5471
   43DOPE    C3 5445   0.452   1.969   5.797 -0.1149  0.1824  0.3830
   43DOPE    HX 5446   0.499   1.870   5.783  1.2789  1.1492 -2.5005
   43DOPE    HY 5447   0.344   1.961   5.774 -0.3453  1.7383  0.8063
   43DOPE   O31 5448   0.470   2.022   5.930  0.3183 -0.0651 -0.4380
   43DOPE   C31 5449   0.384   2.117   5.965  0.8435  0.0506 -0.1510
   43DOPE   O32 5450   0.280   2.144   5.907  0.3829  0.5892 -0.1192
   43DOPE   C32 5451   0.431   2.184   6.094  0.1608  0.5627 -0.5442
   43DOPE   H2X 5452   0.537   2.216   6.084  0.8578 -1.2892  0.3983
   43DOPE   H2Y 5453   0.373   2.278   6.105  0.3036  0.6730 -0.7316
   43DOPE   C23 5454   0.917   2.258   5.840 -0.3301  0.0819 -0.6962
   43DOPE   H3R 5455   0.887   2.363   5.862  3.5743  1.5293 -1.3939
   43DOPE   H3S 5456   1.024   2.263   5.808 -0.9925 -0.1329 -3.2040
   43DOPE   C24 5457   0.919   2.184   5.969  0.2133  0.6047 -0.2753
   43DOPE   H4R 5458   0.944   2.077   5.954 -2.1438  0.2225 -2.1540
   43DOPE   H4S 5459   0.811   2.181   5.997  0.7359  1.3000  2.0071
   43DOPE   C25 5460   0.990   2.258   6.093 -0.2107  0.0808 -0.6706
   43DOPE   H5R 5461   0.950   2.361   6.108 -0.6442 -0.3351  1.2817
   43DOPE   H5S 5462   1.100   2.246   6.086 -0.0928  0.1639  0.7653
   43DOPE   C26 5463   0.950   2.196   6.231 -0.3022 -0.1163  0.3933
   43DOPE   H6R 5464   0.968   2.087   6.224  2.3533  0.3492 -1.8178
   43DOPE   H6S 5465   0.841   2.206   6.246 -0.5690 -2.7064  0.5683
   43DOPE   C27 5466   1.031   2.251   6.349 -0.4994 -0.0547 -0.4498
   43DOPE   H7R 5467   1.005   2.357   6.370 -2.1591 -0.2943 -1.1196
   43DOPE   H7S 5468   1.139   2.249   6.324  0.1244 -2.6214  1.9517
   43DOPE   C28 5469   1.027   2.169   6.473 -0.0955  0.1444 -0.0546
   43DOPE   H8R 5470   1.118   2.190   6.534  0.5133 -1.5315 -0.3079
   43DOPE   H8S 5471   1.024   2.062   6.442  1.8267 -0.5273  1.8076
   43DOPE   C29 5472   0.898   2.188   6.541  0.0924 -0.0612 -0.2631
   43DOPE   H9R 5473   0.813   2.189   6.472 -0.8394  1.2845  0.8470
   43DOPE  C210 5474   0.878   2.226   6.668  0.2353  0.0366 -0.2546
   43DOPE  H10R 5475   0.778   2.243   6.713  0.6271  0.2926  0.5460
   43DOPE  C211 5476   0.990   2.255   6.770  0.5133 -0.1065  0.1712
   43DOPE  H11R 5477   1.034   2.354   6.743 -0.6065 -0.3443 -2.9685
   43DOPE  H11S 5478   1.062   2.171   6.757 -1.5189 -1.8162 -0.6396
   43DOPE  C212 5479   0.931   2.243   6.916 -0.3672 -0.0689  0.6252
   43DOPE  H12R 5480   0.889   2.141   6.925  1.7583 -0.8844  2.0952
   43DOPE  H12S 5481   0.854   2.320   6.936 -2.5466 -1.6765 -1.1241
   43DOPE  C213 5482   1.031   2.258   7.032  0.3863  0.3231  1.1391
   43DOPE  H13R 5483   1.105   2.333   6.999  1.2158 -0.5252  1.0242
   43DOPE  H13S 5484   1.081   2.159   7.022  3.2162  1.8854 -2.4302
   43DOPE  C214 5485   0.987   2.285   7.174  0.6217 -0.1912 -0.0937
   43DOPE  H14R 5486   0.905   2.212   7.191 -1.8188  1.9505 -1.8764
   43DOPE  H14S 5487   0.934   2.382   7.182  1.5352  0.3207 -0.1307
   43DOPE  C215 5488   1.091   2.261   7.282  0.4420 -0.2131  0.8260
   43DOPE  H15R 5489   1.172   2.192   7.250  1.0729  0.6871  0.4586
   43DOPE  H15S 5490   1.040   2.225   7.374  1.2821 -1.3984  0.8536
   43DOPE  C216 5491   1.160   2.395   7.326 -0.4357  0.3819  0.1440
   43DOPE  H16R 5492   1.075   2.458   7.362 -0.8297  0.6281 -1.1917
   43DOPE  H16S 5493   1.187   2.450   7.234  0.5485  0.7087  0.6106
   43DOPE  C217 5494   1.281   2.376   7.422 -0.9038 -0.1083  0.0330
   43DOPE  H17R 5495   1.343   2.292   7.385 -0.9212 -0.6146  1.1164
   43DOPE  H17S 5496   1.246   2.348   7.524 -0.3941  1.6675  0.7371
   43DOPE  C218 5497   1.370   2.502   7.439  0.5473  0.6711  0.5644
   43DOPE  H18R 5498   1.307   2.585   7.478 -0.6922 -0.2412  0.5743
   43DOPE  H18S 5499   1.403   2.539   7.340  0.4589 -1.1322 -0.1804
   43DOPE  H18T 5500   1.455   2.477   7.507 -0.7226 -2.0133  1.3194
   43DOPE   C33 5501   0.433   2.099   6.214 -0.4617  0.1363 -0.1183
   43DOPE   H3X 5502   0.510   2.020   6.199  1.5021  1.8669  0.2658
   43DOPE   H3Y 5503   0.331   2.059   6.227 -0.6924  1.0705  1.0675
   43DOPE   C34 5504   0.470   2.173   6.337 -0.1774  0.4318 -0.3168
   43DOPE   H4X 5505   0.578   2.199   6.331  0.2052  0.6235  4.0864
   43DOPE   H4Y 5506   0.401   2.259   6.346  0.5808  1.1165 -0.9528
   43DOPE   C35 5507   0.435   2.099   6.469 -0.7177  0.2362  0.6289
   43DOPE   H5X 5508   0.489   2.003   6.479 -0.7963  0.1704  0.4207
   43DOPE   H5Y 5509   0.325   2.089   6.470 -0.7960  1.0069  0.6239
   43DOPE   C36 5510   0.488   2.176   6.589 -0.6101 -0.1470 -0.6297
   43DOPE   H6X 5511   0.450   2.280   6.581 -1.0541 -0.2918 -0.4483
   43DOPE   H6Y 5512   0.599   2.180   6.585 -0.6266  1.1040 -0.0643
   43DOPE   C37 5513   0.449   2.120   6.728  0.0282  1.0961  0.8251
   43DOPE   H7X 5514   0.338   2.106   6.728  0.2686 -2.6621  4.6465
   43DOPE   H7Y 5515   0.495   2.020   6.744 -3.4832 -0.8939 -0.3472
   43DOPE   C38 5516   0.496   2.213   6.842  0.2144  0.0144  0.3822
   43DOPE   H8X 5517   0.419   2.292   6.852  2.9207  2.9231  0.0017
   43DOPE   H8Y 5518   0.597   2.246   6.810 -0.4252  0.0806 -1.6702
   43DOPE   C39 5519   0.503   2.137   6.971 -0.2915 -0.7912 -0.6253
   43DOPE   H9X 5520   0.581   2.059   6.962 -0.4902 -1.4059  2.0349
   43DOPE  C310 5521   0.425   2.142   7.081  0.1707 -0.3388  0.4459
   43DOPE  H10X 5522   0.438   2.062   7.155 -0.0678 -1.1213 -0.3400
   43DOPE  C311 5523   0.308   2.232   7.111 -0.1048 -0.9813  0.1112
   43DOPE  H11X 5524   0.351   2.333   7.130  0.8650 -0.8707 -2.3837
   43DOPE  H11Y 5525   0.237   2.239   7.026  1.5898 -0.4146 -1.3101
   43DOPE  C312 5526   0.238   2.198   7.243 -0.3580 -0.0019  0.1039
   43DOPE  H12X 5527   0.318   2.172   7.315  0.6389  2.0506 -0.1966
   43DOPE  H12Y 5528   0.173   2.112   7.214 -1.6918  1.5514 -1.8343
   43DOPE  C313 5529   0.147   2.304   7.311  0.2361 -0.0361  0.4819
   43DOPE  H13X 5530   0.194   2.405   7.309  0.2443 -0.0522 -1.1585
   43DOPE  H13Y 5531   0.056   2.314   7.249 -0.8126  0.3606  2.0366
   43DOPE  C314 5532   0.114   2.262   7.453 -0.1957 -0.4968 -0.2770
   43DOPE  H14X 5533   0.089   2.154   7.454 -0.1130 -0.5167  0.2733
   43DOPE  H14Y 5534   0.031   2.329   7.486 -1.8257 -1.0857 -2.8959
   43DOPE  C315 5535   0.238   2.284   7.550 -0.1002 -0.9945 -0.0567
   43DOPE  H15X 5536   0.276   2.386   7.528  0.1100 -1.4165 -1.8398
   43DOPE  H15Y 5537   0.319   2.212   7.527  0.0405 -0.9856  0.4150
   43DOPE  C316 5538   0.195   2.280   7.700 -0.8626 -0.1632  0.2362
   43DOPE  H16X 5539   0.148   2.180   7.711 -0.3427 -0.4992 -0.4880
   43DOPE  H16Y 5540   0.113   2.355   7.704  0.5602  1.4484  0.4135
   43DOPE  C317 5541   0.319   2.312   7.792  0.1019  0.3671 -0.1586
   43DOPE  H17X 5542   0.303   2.285   7.898  3.4612 -2.5498 -0.1858
   43DOPE  H17Y 5543   0.405   2.250   7.757  0.7169  0.6410  0.8381
   43DOPE  C318 5544   0.364   2.464   7.805 -0.4087  0.9384  0.4097
   43DOPE  H18X 5545   0.407   2.507   7.712 -2.3338 -0.8713 -1.4180
   43DOPE  H18Y 5546   0.283   2.533   7.838 -1.2305 -0.0755  0.5654
   43DOPE  H18Z 5547   0.455   2.474   7.868 -0.7797  0.9384  0.9533
   44DOPE     N 5548   2.173   1.331   4.973 -0.4225 -0.5478  0.1652
   44DOPE   HN1 5549   2.135   1.422   5.005  0.7175 -0.1045  0.3335
   44DOPE   HN2 5550   2.105   1.294   4.903 -2.1455  3.2094 -0.3686
   44DOPE   HN3 5551   2.171   1.273   5.059 -1.1655  0.2496  0.6976
   44DOPE   C12 5552   2.301   1.342   4.903 -0.6077 -0.4499  0.1552
   44DOPE  H12A 5553   2.284   1.412   4.818 -0.4170 -0.0115  0.4685
   44DOPE  H12B 5554   2.331   1.240   4.872  0.7820  0.0457 -0.2384
   44DOPE   C11 5555   2.422   1.395   4.993 -0.4665 -0.5653  0.0845
   44DOPE  H11A 5556   2.411   1.503   5.020 -2.4938 -1.2112  2.2546
   44DOPE  H11B 5557   2.517   1.395   4.936  0.4976 -0.9797  1.6429
   44DOPE     P 5558   2.553   1.269   5.175  0.0421  0.2835  0.1186
   44DOPE   O13 5559   2.655   1.265   5.071  0.9080 -0.8946  0.4783
   44DOPE   O14 5560   2.526   1.136   5.236 -0.0284 -0.5554  0.2234
   44DOPE   O11 5561   2.595   1.371   5.286  0.1021 -0.5190  0.9276
   44DOPE   O12 5562   2.417   1.325   5.117 -0.4209 -0.3502 -0.3570
   44DOPE    C1 5563   2.725   1.388   5.334  0.0824  0.2336  0.5582
   44DOPE    HA 5564   2.760   1.492   5.315  1.3145 -0.1645  0.5751
   44DOPE    HB 5565   2.797   1.325   5.277 -0.4476 -0.4188  0.5922
   44DOPE    C2 5566   2.750   1.376   5.487  0.3890  0.3185  0.6251
   44DOPE    HS 5567   2.859   1.386   5.506 -0.1179  1.8965  3.1697
   44DOPE   O21 5568   2.722   1.249   5.550  0.1503 -0.1855  0.4855
   44DOPE   C21 5569   2.797   1.148   5.514 -0.8171 -0.3823 -0.4564
   44DOPE   O22 5570   2.893   1.150   5.434 -0.2907 -0.9417  0.2997
   44DOPE   C22 5571   2.785   1.040   5.625 -0.2469  0.4267  0.1719
   44DOPE   H2R 5572   2.881   0.986   5.638 -0.4117  0.1257  0.1356
   44DOPE   H2S 5573   2.711   0.963   5.594 -1.9427  0.7386  3.0358
   44DOPE    C3 5574   2.695   1.502   5.571  1.6085 -0.3956 -0.2237
   44DOPE    HX 5575   2.609   1.531   5.506 -1.2623 -1.3467  2.8760
   44DOPE    HY 5576   2.770   1.585   5.565 -1.1860  2.2146 -3.3770
   44DOPE   O31 5577   2.647   1.464   5.703  0.8791 -0.1837  0.4444
   44DOPE   C31 5578   2.731   1.477   5.803 -0.2808  0.1128 -0.2773
   44DOPE   O32 5579   2.848   1.505   5.790 -0.2177 -0.0123  0.7524
   44DOPE   C32 5580   2.659   1.442   5.937 -0.2516  0.9275 -0.1574
   44DOPE   H2X 5581   2.579   1.519   5.948 -0.6014  0.3357  1.8023
   44DOPE   H2Y 5582   2.615   1.341   5.925 -0.1542  1.0153 -1.3467
   44DOPE   C23 5583   2.735   1.092   5.762  1.0107 -0.7199  0.1427
   44DOPE   H3R 5584   2.651   1.163   5.745  1.4960  0.8243  3.2792
   44DOPE   H3S 5585   2.819   1.152   5.805 -0.3391 -1.2889  3.9977
   44DOPE   C24 5586   2.696   0.981   5.856  0.4766  0.3432 -0.1202
   44DOPE   H4R 5587   2.786   0.917   5.871 -0.9653 -2.0683 -0.9939
   44DOPE   H4S 5588   2.617   0.932   5.794 -0.0849  2.1322 -0.8831
   44DOPE   C25 5589   2.640   1.020   5.980 -0.3478 -0.4382  0.1872
   44DOPE   H5R 5590   2.584   0.930   6.012  0.7002 -0.9720  0.5698
   44DOPE   H5S 5591   2.561   1.099   5.979  0.9336  0.8814  0.2669
   44DOPE   C26 5592   2.751   1.060   6.076 -0.1464  0.1697 -0.2282
   44DOPE   H6R 5593   2.785   1.164   6.054  2.9922 -0.4867  0.9695
   44DOPE   H6S 5594   2.840   0.993   6.072  0.0738  0.4611 -0.2119
   44DOPE   C27 5595   2.694   1.059   6.220  1.1427  0.3504  0.3938
   44DOPE   H7R 5596   2.622   0.976   6.232 -1.5175  2.2466 -1.2775
   44DOPE   H7S 5597   2.644   1.159   6.222  0.6766  0.3287 -3.0540
   44DOPE   C28 5598   2.803   1.066   6.331  0.4421  0.9688 -0.6757
   44DOPE   H8R 5599   2.840   1.170   6.318 -2.2214  2.0947  0.1607
   44DOPE   H8S 5600   2.877   0.984   6.320 -0.9095 -0.1026 -2.5238
   44DOPE   C29 5601   2.748   1.042   6.467 -0.7362 -0.4118  0.6050
   44DOPE   H9R 5602   2.657   0.979   6.467  0.1158 -1.7134 -0.7040
   44DOPE  C210 5603   2.782   1.106   6.578 -0.3965  0.1652  0.6396
   44DOPE  H10R 5604   2.728   1.075   6.669 -1.0353 -1.6705 -0.3201
   44DOPE  C211 5605   2.898   1.203   6.606  0.8822  0.4635  0.0666
   44DOPE  H11R 5606   2.863   1.283   6.674 -0.9124 -0.5060  0.3360
   44DOPE  H11S 5607   2.937   1.249   6.513  1.5243 -0.2757 -0.0407
   44DOPE  C212 5608   3.022   1.137   6.659  0.3103 -0.0352 -0.1103
   44DOPE  H12R 5609   3.098   1.216   6.643 -0.1503  0.5348  0.4487
   44DOPE  H12S 5610   3.045   1.047   6.599 -0.3964 -0.6695  0.5395
   44DOPE  C213 5611   3.022   1.108   6.806  0.5042  0.3543 -0.9851
   44DOPE  H13R 5612   2.957   1.019   6.819 -0.2324  1.0446  0.1678
   44DOPE  H13S 5613   2.977   1.197   6.854 -0.4053 -0.1987 -0.8011
   44DOPE  C214 5614   3.158   1.073   6.867  0.0674  0.9118 -0.2717
   44DOPE  H14R 5615   3.227   1.157   6.883 -0.4179  0.9557  1.9752
   44DOPE  H14S 5616   3.225   1.016   6.800  2.2317  0.2154  2.3293
   44DOPE  C215 5617   3.133   1.008   7.010  0.0832  0.2582  0.2512
   44DOPE  H15R 5618   3.063   0.922   7.010  1.1780 -0.6904  2.1349
   44DOPE  H15S 5619   3.086   1.089   7.069  2.1580  1.2356  0.6357
   44DOPE  C216 5620   3.256   0.970   7.091 -0.1743  0.2356 -1.0236
   44DOPE  H16R 5621   3.323   1.058   7.102  0.9947 -0.7544  0.1202
   44DOPE  H16S 5622   3.311   0.893   7.032  0.5936 -1.0749  1.2819
   44DOPE  C217 5623   3.226   0.910   7.229  0.2906 -0.4208  0.8193
   44DOPE  H17R 5624   3.175   0.987   7.291  0.7708 -0.4863  1.3004
   44DOPE  H17S 5625   3.324   0.894   7.280  0.8757  2.1916  0.7052
   44DOPE  C218 5626   3.156   0.771   7.228 -0.0980  0.0334  0.1150
   44DOPE  H18R 5627   3.217   0.696   7.173  0.7000  0.6195  0.1735
   44DOPE  H18S 5628   3.060   0.768   7.172 -1.1885 -1.5229  1.9338
   44DOPE  H18T 5629   3.142   0.735   7.332  0.4224  0.3430  0.2960
   44DOPE   C33 5630   2.748   1.460   6.061 -0.0116 -0.4657  0.1304
   44DOPE   H3X 5631   2.795   1.561   6.058 -0.8242 -0.0211  1.5936
   44DOPE   H3Y 5632   2.833   1.389   6.061  1.2877  1.0123 -1.3878
   44DOPE   C34 5633   2.676   1.449   6.192  0.6902  0.5765  0.1955
   44DOPE   H4X 5634   2.583   1.507   6.174  0.9001  0.2742 -2.1751
   44DOPE   H4Y 5635   2.651   1.342   6.204  1.4019  0.4897  1.0460
   44DOPE   C35 5636   2.757   1.506   6.309  0.3803  0.7290 -0.5307
   44DOPE   H5X 5637   2.785   1.613   6.295  2.7563  0.5255  1.8120
   44DOPE   H5Y 5638   2.848   1.442   6.309 -0.1941 -0.1134 -0.7852
   44DOPE   C36 5639   2.684   1.500   6.444 -0.0561  0.3422 -0.1398
   44DOPE   H6X 5640   2.727   1.412   6.497 -0.4854  0.3013  0.1378
   44DOPE   H6Y 5641   2.575   1.495   6.424  0.3588  0.4143 -2.9049
   44DOPE   C37 5642   2.724   1.610   6.548 -0.4201 -0.0123  0.1331
   44DOPE   H7X 5643   2.832   1.633   6.531  0.1220 -1.8987  0.7486
   44DOPE   H7Y 5644   2.670   1.705   6.526  0.2654  0.6386  1.1784
   44DOPE   C38 5645   2.704   1.581   6.696  0.0172 -0.3976 -0.1985
   44DOPE   H8X 5646   2.731   1.674   6.752  3.2053  0.1636 -2.4188
   44DOPE   H8Y 5647   2.763   1.493   6.730 -0.6114 -0.5536  0.4983
   44DOPE   C39 5648   2.557   1.558   6.714  0.1867 -0.4731 -0.0208
   44DOPE   H9X 5649   2.506   1.509   6.629 -2.0915  0.6076  0.6459
   44DOPE  C310 5650   2.474   1.612   6.808  0.1747  0.1795 -0.2650
   44DOPE  H10X 5651   2.365   1.610   6.793 -0.0067  0.2780  0.9587
   44DOPE  C311 5652   2.512   1.687   6.932  0.4068  0.6850 -0.0368
   44DOPE  H11X 5653   2.616   1.658   6.958  0.5280  1.9794  1.0544
   44DOPE  H11Y 5654   2.507   1.795   6.909  0.8031  0.4349 -1.3855
   44DOPE  C312 5655   2.418   1.669   7.054 -0.1828  0.2010  0.2753
   44DOPE  H12X 5656   2.319   1.625   7.032 -1.5665  2.8339  0.8231
   44DOPE  H12Y 5657   2.401   1.771   7.096  2.2634  1.1390 -0.8503
   44DOPE  C313 5658   2.470   1.595   7.176  0.4010 -0.3409  0.9119
   44DOPE  H13X 5659   2.488   1.488   7.153  1.0574  0.1982 -1.3265
   44DOPE  H13Y 5660   2.568   1.643   7.195  0.2466 -0.1677  1.3027
   44DOPE  C314 5661   2.385   1.620   7.294  0.1170 -0.1033 -0.3346
   44DOPE  H14X 5662   2.279   1.632   7.263  0.1414 -2.6738 -1.6013
   44DOPE  H14Y 5663   2.415   1.717   7.341  0.3432 -0.2369 -0.2014
   44DOPE  C315 5664   2.398   1.514   7.401  0.1193  0.1111  1.2945
   44DOPE  H15X 5665   2.495   1.460   7.407  0.4911  0.4762 -0.5727
   44DOPE  H15Y 5666   2.314   1.445   7.379  0.7760 -0.2181 -0.3530
   44DOPE  C316 5667   2.357   1.568   7.542  0.2675  0.8203  0.2552
   44DOPE  H16X 5668   2.435   1.643   7.569 -0.3555  2.0584 -1.2117
   44DOPE  H16Y 5669   2.370   1.481   7.609  0.8734  1.4000  0.9173
   44DOPE  C317 5670   2.209   1.608   7.542  0.0186 -0.6042  0.3181
   44DOPE  H17X 5671   2.188   1.687   7.466  0.9307  1.3377  1.9584
   44DOPE  H17Y 5672   2.150   1.516   7.523 -0.6120 -0.3500  0.9991
   44DOPE  C318 5673   2.172   1.683   7.673 -0.1393  0.2518  0.4567
   44DOPE  H18X 5674   2.239   1.771   7.679  2.9967 -1.9464  0.3183
   44DOPE  H18Y 5675   2.067   1.718   7.667 -0.2281 -0.0082  0.4634
   44DOPE  H18Z 5676   2.184   1.615   7.760 -0.4421 -0.5470 -0.1042
   45DOPE     N 5677   3.396   1.120   5.014  0.4760  0.9756  0.2393
   45DOPE   HN1 5678   3.376   1.023   5.046  2.5790  0.2039 -0.5569
   45DOPE   HN2 5679   3.384   1.180   5.098  0.4114  2.4294 -0.7761
   45DOPE   HN3 5680   3.326   1.137   4.939 -1.3832  2.1326  2.1271
   45DOPE   C12 5681   3.540   1.117   4.971  0.3299 -0.5234 -0.0260
   45DOPE  H12A 5682   3.570   1.214   4.927 -1.7222  1.2241  2.1442
   45DOPE  H12B 5683   3.546   1.035   4.897  2.9542 -0.6770  0.2514
   45DOPE   C11 5684   3.637   1.055   5.081  1.2212 -0.4140  1.0307
   45DOPE  H11A 5685   3.631   1.127   5.165 -2.9483 -1.8084  2.1671
   45DOPE  H11B 5686   3.736   1.047   5.031  0.2787 -1.3881 -0.7594
   45DOPE     P 5687   3.602   0.870   5.263 -0.0965  0.1137  0.3293
   45DOPE   O13 5688   3.717   0.782   5.276 -0.5132  0.2895 -0.3664
   45DOPE   O14 5689   3.467   0.813   5.289 -0.2153 -0.4800 -0.2902
   45DOPE   O11 5690   3.622   0.994   5.358 -0.2435 -0.2884  0.1102
   45DOPE   O12 5691   3.595   0.926   5.115  0.1936 -0.6597 -0.0484
   45DOPE    C1 5692   3.563   0.968   5.492 -0.3904  0.1529  0.8154
   45DOPE    HA 5693   3.624   1.029   5.563 -0.2458 -1.0141  1.7132
   45DOPE    HB 5694   3.571   0.867   5.537  0.7930 -0.1243  0.0361
   45DOPE    C2 5695   3.422   1.021   5.511 -0.2961 -0.0654 -0.8106
   45DOPE    HS 5696   3.358   0.984   5.429 -0.0184  1.9542 -1.9955
   45DOPE   O21 5697   3.427   1.166   5.509 -0.4976  0.6335  0.4411
   45DOPE   C21 5698   3.415   1.212   5.386  0.9781 -0.1905 -0.1202
   45DOPE   O22 5699   3.396   1.151   5.284 -0.1013 -0.0442 -0.5233
   45DOPE   C22 5700   3.449   1.366   5.396 -0.3621  0.3431 -1.2264
   45DOPE   H2R 5701   3.364   1.423   5.439 -1.6506 -1.9051 -0.5878
   45DOPE   H2S 5702   3.470   1.397   5.292  0.4922  1.1247 -0.8278
   45DOPE    C3 5703   3.363   0.992   5.654  0.2607  0.3407  0.4471
   45DOPE    HX 5704   3.342   0.883   5.660 -2.3438  0.5616 -2.3971
   45DOPE    HY 5705   3.265   1.045   5.654 -1.4477 -2.5789  1.1020
   45DOPE   O31 5706   3.445   1.049   5.761 -0.1888 -0.1538 -0.0257
   45DOPE   C31 5707   3.513   0.962   5.835 -1.1817 -0.2536 -0.0826
   45DOPE   O32 5708   3.502   0.842   5.834  0.1904  0.0366 -0.1922
   45DOPE   C32 5709   3.606   1.035   5.927 -0.3771  0.5899  0.4441
   45DOPE   H2X 5710   3.621   1.141   5.895 -0.3431  0.1633 -1.0408
   45DOPE   H2Y 5711   3.564   1.036   6.030  1.4543  0.8604  1.2294
   45DOPE   C23 5712   3.575   1.399   5.489  0.7402  0.1720 -0.4784
   45DOPE   H3R 5713   3.626   1.496   5.472  0.2935  0.8457  1.7315
   45DOPE   H3S 5714   3.652   1.319   5.473  0.4339 -0.5423  1.4340
   45DOPE   C24 5715   3.546   1.412   5.636 -0.0052 -0.4112 -0.1529
   45DOPE   H4R 5716   3.499   1.318   5.670  0.8494 -0.8915 -0.2645
   45DOPE   H4S 5717   3.474   1.495   5.651 -0.1002 -0.4852 -0.1972
   45DOPE   C25 5718   3.673   1.446   5.723 -0.2241 -0.4248  0.2456
   45DOPE   H5R 5719   3.718   1.536   5.675  0.3650 -0.7702  0.1439
   45DOPE   H5S 5720   3.744   1.360   5.726  1.1146  0.6407  3.2949
   45DOPE   C26 5721   3.626   1.479   5.867 -0.3238  0.4091 -0.0634
   45DOPE   H6R 5722   3.565   1.396   5.909 -0.8761  1.3560  1.0677
   45DOPE   H6S 5723   3.553   1.560   5.845 -1.7906 -0.2385  2.0680
   45DOPE   C27 5724   3.742   1.513   5.965 -0.3123 -0.4805 -0.1771
   45DOPE   H7R 5725   3.795   1.594   5.911  0.8660 -1.5727 -0.7285
   45DOPE   H7S 5726   3.802   1.419   5.968 -0.1914 -0.3824  2.7094
   45DOPE   C28 5727   3.705   1.571   6.105 -0.4388  0.5878  0.0287
   45DOPE   H8R 5728   3.675   1.676   6.087 -1.4879  0.0055 -1.9200
   45DOPE   H8S 5729   3.804   1.588   6.154  0.1345  0.2326 -0.9729
   45DOPE   C29 5730   3.604   1.491   6.180  0.1872 -0.1631 -0.4639
   45DOPE   H9R 5731   3.524   1.451   6.117  0.7990  1.0350 -2.0891
   45DOPE  C210 5732   3.600   1.471   6.313 -0.1203 -0.1215 -0.4046
   45DOPE  H10R 5733   3.539   1.386   6.347  2.6125 -1.7237  0.8895
   45DOPE  C211 5734   3.702   1.509   6.421  0.5078 -0.6542  0.6361
   45DOPE  H11R 5735   3.697   1.614   6.456  3.9814 -0.1387 -0.1396
   45DOPE  H11S 5736   3.802   1.480   6.382  0.2615 -1.5330  0.6231
   45DOPE  C212 5737   3.680   1.419   6.542  0.1117  0.4644  0.2789
   45DOPE  H12R 5738   3.765   1.445   6.610 -0.1735  1.6614  0.2037
   45DOPE  H12S 5739   3.688   1.317   6.501  3.1606  0.6259  0.2300
   45DOPE  C213 5740   3.553   1.442   6.614  0.8249 -0.1196 -0.3085
   45DOPE  H13R 5741   3.467   1.422   6.547  0.9067 -0.0783 -0.4258
   45DOPE  H13S 5742   3.554   1.549   6.646  1.7716 -0.5458  1.2218
   45DOPE  C214 5743   3.534   1.347   6.736  0.3033 -0.3878  0.5948
   45DOPE  H14R 5744   3.555   1.245   6.698 -1.7092 -1.6168  2.5371
   45DOPE  H14S 5745   3.427   1.357   6.766  0.1112  2.3045 -0.5943
   45DOPE  C215 5746   3.622   1.378   6.854 -0.0986  0.7255  0.7658
   45DOPE  H15R 5747   3.613   1.486   6.876  1.6401  1.2524 -0.7499
   45DOPE  H15S 5748   3.726   1.344   6.831 -0.1111  0.6281  0.8544
   45DOPE  C216 5749   3.579   1.290   6.968 -0.5746  0.5202  0.1861
   45DOPE  H16R 5750   3.599   1.186   6.933  1.3045  1.0873 -0.5169
   45DOPE  H16S 5751   3.468   1.289   6.980 -0.8272  0.0515 -1.7484
   45DOPE  C217 5752   3.653   1.325   7.095 -0.4200  0.1905  0.4259
   45DOPE  H17R 5753   3.764   1.321   7.089 -0.3836 -0.0947  1.1443
   45DOPE  H17S 5754   3.645   1.235   7.160  0.2878 -0.8139 -0.8293
   45DOPE  C218 5755   3.598   1.445   7.168 -0.4990 -0.2857 -0.0935
   45DOPE  H18R 5756   3.598   1.540   7.111  0.9940  1.3913  2.4794
   45DOPE  H18S 5757   3.642   1.468   7.268 -2.2079 -2.8913  1.3821
   45DOPE  H18T 5758   3.496   1.416   7.201 -1.4505 -1.4159 -3.6434
   45DOPE   C33 5759   3.738   0.952   5.930 -0.8800  0.2941 -0.0278
   45DOPE   H3X 5760   3.777   0.949   5.827  1.3235  0.2720  0.7591
   45DOPE   H3Y 5761   3.720   0.847   5.961 -0.3800  0.0440 -0.5833
   45DOPE   C34 5762   3.853   1.014   6.015  0.6974 -0.0223  0.0199
   45DOPE   H4X 5763   3.933   0.937   6.012  0.3155 -0.3995 -1.1622
   45DOPE   H4Y 5764   3.888   1.113   5.981  0.2211  0.0572 -0.2476
   45DOPE   C35 5765   3.813   1.038   6.162 -0.5957  0.4465 -0.4931
   45DOPE   H5X 5766   3.755   0.964   6.221  1.9218 -1.6809 -0.4794
   45DOPE   H5Y 5767   3.743   1.124   6.165 -0.2535  0.6897  1.4508
   45DOPE   C36 5768   3.936   1.083   6.250 -0.4360 -1.1131  0.1372
   45DOPE   H6X 5769   3.982   1.174   6.206  0.4094  0.0146  3.1679
   45DOPE   H6Y 5770   4.015   1.005   6.248 -1.0507 -1.7419  0.1466
   45DOPE   C37 5771   3.890   1.113   6.396 -0.2376  0.2451 -0.0937
   45DOPE   H7X 5772   3.790   1.159   6.387 -0.6572 -0.7071 -0.3419
   45DOPE   H7Y 5773   3.885   1.011   6.441 -0.3666  0.6864  0.9254
   45DOPE   C38 5774   3.993   1.206   6.474 -0.0224  0.1791  0.1209
   45DOPE   H8X 5775   3.944   1.242   6.566 -0.3141  1.1082 -0.3821
   45DOPE   H8Y 5776   4.019   1.296   6.414 -0.8166  0.0869 -0.3756
   45DOPE   C39 5777   4.128   1.132   6.494 -0.3146 -0.4714 -0.0043
   45DOPE   H9X 5778   4.168   1.087   6.402 -1.6098 -1.2276 -0.2129
   45DOPE  C310 5779   4.181   1.087   6.608  0.1317  0.2030 -1.0676
   45DOPE  H10X 5780   4.273   1.027   6.602 -0.0991 -0.1217 -1.5253
   45DOPE  C311 5781   4.134   1.116   6.747 -0.0938 -0.3511  0.0927
   45DOPE  H11X 5782   4.186   1.207   6.783 -1.1887  0.3977 -0.1637
   45DOPE  H11Y 5783   4.026   1.138   6.764  0.0592  0.0270  0.6131
   45DOPE  C312 5784   4.177   0.992   6.833  0.3112 -0.3669  0.2573
   45DOPE  H12X 5785   4.287   0.972   6.831  0.3531 -0.1402  0.3121
   45DOPE  H12Y 5786   4.135   0.896   6.794  2.2145 -2.2674  2.5160
   45DOPE  C313 5787   4.139   1.010   6.983  0.0110 -0.4659  0.0448
   45DOPE  H13X 5788   4.208   0.951   7.047 -0.7910 -0.5749  0.8173
   45DOPE  H13Y 5789   4.149   1.118   7.010 -0.2104 -0.4845  0.2071
   45DOPE  C314 5790   3.994   0.969   6.999 -0.4177 -0.4220  0.1568
   45DOPE  H14X 5791   3.976   0.870   6.954 -1.4210 -0.2889  0.2395
   45DOPE  H14Y 5792   3.940   1.044   6.937  1.0167  1.0676  0.6152
   45DOPE  C315 5793   3.954   0.982   7.141  0.7690 -0.5067 -0.1903
   45DOPE  H15X 5794   3.989   1.075   7.189 -2.8449  0.1549  1.5142
   45DOPE  H15Y 5795   3.996   0.895   7.195  1.4608  0.0763  0.2235
   45DOPE  C316 5796   3.805   0.972   7.159 -0.0497 -0.4271  0.1408
   45DOPE  H16X 5797   3.771   0.877   7.113 -0.6889 -0.2617  0.2570
   45DOPE  H16Y 5798   3.743   1.048   7.106 -2.4398 -0.3627  2.8116
   45DOPE  C317 5799   3.764   0.966   7.302 -0.2505 -0.6841  0.5952
   45DOPE  H17X 5800   3.811   0.877   7.348 -0.7528 -0.7563  0.9766
   45DOPE  H17Y 5801   3.797   1.059   7.354  0.1127 -1.3231  1.5391
   45DOPE  C318 5802   3.611   0.964   7.313 -0.7567 -0.5493 -0.2049
   45DOPE  H18X 5803   3.570   1.055   7.265  3.0116  1.3449 -0.2237
   45DOPE  H18Y 5804   3.566   0.878   7.259 -1.0831  0.6873 -1.9898
   45DOPE  H18Z 5805   3.585   0.959   7.421 -0.8733 -0.5207 -0.2314
   46DOPE     N 5806   4.039   5.609   5.320 -0.0758  0.0106  0.3427
   46DOPE   HN1 5807   3.958   5.553   5.351  0.1656  0.0422  1.0522
   46DOPE   HN2 5808   4.120   5.547   5.299  1.4613  0.8971  3.0445
   46DOPE   HN3 5809   4.077   5.662   5.401 -1.8048  3.8582 -1.1148
   46DOPE   C12 5810   4.003   5.706   5.210 -0.4120  0.0444 -0.0458
   46DOPE  H12A 5811   3.929   5.651   5.147 -0.9959 -1.7905  2.0986
   46DOPE  H12B 5812   4.091   5.737   5.149  1.2009 -0.1270  2.0998
   46DOPE   C11 5813   3.940   5.830   5.277  0.5844  0.2137  0.3452
   46DOPE  H11A 5814   3.849   5.797   5.332  0.8297 -0.0662  0.5855
   46DOPE  H11B 5815   3.912   5.897   5.193 -2.3806  0.8538  1.7166
   46DOPE     P 5816   4.010   6.045   5.426  0.2206 -0.1040 -0.0514
   46DOPE   O13 5817   3.867   6.081   5.397 -0.2652  0.3005 -0.1277
   46DOPE   O14 5818   4.115   6.140   5.377 -0.2765 -0.3828 -0.2357
   46DOPE   O11 5819   4.023   6.014   5.577  0.0765  0.2091  0.4171
   46DOPE   O12 5820   4.034   5.906   5.358 -0.0826  0.3940 -0.3618
   46DOPE    C1 5821   3.925   5.942   5.650 -0.7236 -0.2119  0.6109
   46DOPE    HA 5822   3.932   5.832   5.637  0.2225 -0.0146 -0.7752
   46DOPE    HB 5823   3.825   5.985   5.630 -1.5925 -1.7950  1.4094
   46DOPE    C2 5824   3.958   5.971   5.800  0.5439  0.0686 -0.9946
   46DOPE    HS 5825   3.949   6.082   5.803  0.5648  0.0671 -0.9061
   46DOPE   O21 5826   4.089   5.919   5.824 -0.3314 -0.1694  0.5815
   46DOPE   C21 5827   4.171   5.998   5.895 -0.8416  0.8097  0.5068
   46DOPE   O22 5828   4.152   6.109   5.929  0.0108 -0.4970  0.3387
   46DOPE   C22 5829   4.299   5.911   5.930  0.2067 -0.7247  0.4143
   46DOPE   H2R 5830   4.350   5.886   5.835  0.8473 -0.0260  0.5661
   46DOPE   H2S 5831   4.272   5.817   5.982 -0.0345 -1.4740 -1.0345
   46DOPE    C3 5832   3.854   5.902   5.893  0.1477  0.0815 -0.0556
   46DOPE    HX 5833   3.858   5.792   5.877  0.0552 -0.1187  1.2375
   46DOPE    HY 5834   3.751   5.931   5.864  0.2062 -0.4425 -0.8230
   46DOPE   O31 5835   3.867   5.921   6.032 -0.2598 -0.4580  0.4014
   46DOPE   C31 5836   3.809   6.035   6.076 -0.0078  0.1487  0.5418
   46DOPE   O32 5837   3.734   6.109   6.012 -0.1911  0.4068  0.5242
   46DOPE   C32 5838   3.849   6.061   6.225  0.0126 -0.8331  0.0727
   46DOPE   H2X 5839   3.861   6.171   6.233 -0.5383 -0.7457 -0.3098
   46DOPE   H2Y 5840   3.770   6.024   6.295  0.0430  2.3978  2.0507
   46DOPE   C23 5841   4.402   5.996   6.001  0.2304 -0.0379  0.0419
   46DOPE   H3R 5842   4.398   6.103   5.972 -0.5906 -0.6073 -2.1083
   46DOPE   H3S 5843   4.504   5.964   5.969  0.1310  0.1034 -0.4101
   46DOPE   C24 5844   4.400   5.984   6.155 -0.3886 -0.7217 -0.2091
   46DOPE   H4R 5845   4.396   5.877   6.185  1.7480 -0.7229  0.2724
   46DOPE   H4S 5846   4.312   6.041   6.192 -0.0495 -0.1771 -0.2266
   46DOPE   C25 5847   4.519   6.052   6.217  1.4027 -0.1026  0.3520
   46DOPE   H5R 5848   4.509   6.159   6.190  0.2380 -0.1412  0.5631
   46DOPE   H5S 5849   4.611   6.000   6.184  0.3168 -1.7180 -0.2540
   46DOPE   C26 5850   4.523   6.049   6.367  0.8097  0.8080  0.2153
   46DOPE   H6R 5851   4.542   5.946   6.405 -3.5241 -0.6711 -1.0738
   46DOPE   H6S 5852   4.434   6.089   6.418  0.1198  1.5895 -1.5352
   46DOPE   C27 5853   4.627   6.146   6.417 -0.4114  0.3061  0.0972
   46DOPE   H7R 5854   4.589   6.249   6.406 -0.4134  0.2658 -0.3037
   46DOPE   H7S 5855   4.712   6.137   6.345  0.6879 -0.2275  1.4039
   46DOPE   C28 5856   4.668   6.112   6.557  0.0685  0.0369 -1.1617
   46DOPE   H8R 5857   4.717   6.013   6.543  2.5460  1.2607 -1.6339
   46DOPE   H8S 5858   4.584   6.094   6.628  0.6440  0.4715 -0.3633
   46DOPE   C29 5859   4.754   6.228   6.626 -0.2794 -0.1484  0.5165
   46DOPE   H9R 5860   4.766   6.321   6.568  3.5959 -0.3654  0.7286
   46DOPE  C210 5861   4.809   6.228   6.742 -1.3399  0.0356 -0.5083
   46DOPE  H10R 5862   4.868   6.314   6.774 -0.9088 -1.0634  1.8892
   46DOPE  C211 5863   4.820   6.114   6.840  1.0218  0.4477  0.1674
   46DOPE  H11R 5864   4.926   6.100   6.868  1.4228 -0.4830 -1.6000
   46DOPE  H11S 5865   4.793   6.021   6.784  2.4025 -0.4484  0.9175
   46DOPE  C212 5866   4.751   6.137   6.981  0.1325 -0.0231 -0.0155
   46DOPE  H12R 5867   4.640   6.134   6.990  0.1867  0.1506  0.8219
   46DOPE  H12S 5868   4.786   6.229   7.032 -0.9696 -0.1089  0.9415
   46DOPE  C213 5869   4.802   6.028   7.089 -0.2663  0.1213 -0.6784
   46DOPE  H13R 5870   4.905   5.989   7.075 -0.1063 -0.7160  2.2643
   46DOPE  H13S 5871   4.730   5.943   7.084  1.5127 -1.4174 -2.0251
   46DOPE  C214 5872   4.794   6.091   7.225  0.5904 -0.5578 -0.4605
   46DOPE  H14R 5873   4.695   6.135   7.247  0.5343 -0.8593 -0.0995
   46DOPE  H14S 5874   4.878   6.164   7.231  0.3179 -0.3794  3.3348
   46DOPE  C215 5875   4.806   5.975   7.325 -0.5694  0.0593 -0.0626
   46DOPE  H15R 5876   4.910   5.938   7.311 -0.3425  0.9146 -0.7287
   46DOPE  H15S 5877   4.731   5.896   7.305 -0.8423  0.0653  0.8841
   46DOPE  C216 5878   4.782   6.018   7.469 -0.7918  0.4760  0.6221
   46DOPE  H16R 5879   4.683   6.068   7.463 -0.9200  0.1148 -0.4799
   46DOPE  H16S 5880   4.852   6.100   7.497 -1.6351  1.8963 -1.1794
   46DOPE  C217 5881   4.782   5.903   7.566 -0.1026 -0.2325  0.7476
   46DOPE  H17R 5882   4.705   5.827   7.542 -0.3721  0.0551  0.6952
   46DOPE  H17S 5883   4.755   5.936   7.669 -0.4788 -0.3794  0.6944
   46DOPE  C218 5884   4.914   5.827   7.572 -0.4498  0.2071  0.0369
   46DOPE  H18R 5885   4.911   5.719   7.597  1.6133 -0.0935 -0.8566
   46DOPE  H18S 5886   4.981   5.882   7.643 -0.0944  0.9314 -0.8433
   46DOPE  H18T 5887   4.968   5.830   7.475  1.3035 -0.0556  0.9636
   46DOPE   C33 5888   3.980   6.006   6.280  0.4973  0.2085 -0.0501
   46DOPE   H3X 5889   4.066   6.035   6.216  0.1455 -0.1468 -0.6908
   46DOPE   H3Y 5890   3.978   5.895   6.273 -0.0252  0.1861  0.3358
   46DOPE   C34 5891   3.997   6.051   6.427 -0.5319 -0.5669 -0.4516
   46DOPE   H4X 5892   3.990   6.162   6.426  1.4295 -0.3795 -3.0916
   46DOPE   H4Y 5893   3.921   6.011   6.497  0.4986  0.8714  1.6162
   46DOPE   C35 5894   4.131   6.003   6.487  0.1593 -0.1017 -0.0294
   46DOPE   H5X 5895   4.203   6.068   6.432 -2.9962  1.3344 -2.8386
   46DOPE   H5Y 5896   4.144   5.894   6.472 -0.7541 -0.1733 -0.3085
   46DOPE   C36 5897   4.126   6.040   6.634  0.4694 -0.0470 -0.1923
   46DOPE   H6X 5898   4.046   5.989   6.692  1.3165  1.8823  2.8757
   46DOPE   H6Y 5899   4.091   6.145   6.635 -0.2509 -0.2307 -1.8613
   46DOPE   C37 5900   4.259   6.021   6.709 -0.2485  0.0025 -0.3602
   46DOPE   H7X 5901   4.330   6.076   6.644 -1.5228 -0.5793 -2.3032
   46DOPE   H7Y 5902   4.257   6.083   6.802 -1.7645 -1.6490  0.7733
   46DOPE   C38 5903   4.295   5.878   6.737  0.3559 -0.1825 -0.5279
   46DOPE   H8X 5904   4.282   5.822   6.642  2.1528 -0.2806 -0.7384
   46DOPE   H8Y 5905   4.217   5.821   6.793 -1.1382  1.7751 -0.5094
   46DOPE   C39 5906   4.433   5.857   6.788 -0.1554  0.1016  0.4616
   46DOPE   H9X 5907   4.511   5.850   6.711  0.5945  0.6855  1.1499
   46DOPE  C310 5908   4.463   5.854   6.921 -0.4624  0.2423  0.4526
   46DOPE  H10X 5909   4.563   5.824   6.955  0.6568  0.3725 -2.4986
   46DOPE  C311 5910   4.366   5.862   7.039 -0.2300 -0.2939  0.8999
   46DOPE  H11X 5911   4.260   5.841   7.013 -0.0785 -2.0071  1.5304
   46DOPE  H11Y 5912   4.396   5.794   7.121  1.3198 -0.3624  0.3081
   46DOPE  C312 5913   4.364   6.005   7.110 -0.7447  0.3134 -0.3546
   46DOPE  H12X 5914   4.326   6.085   7.043  1.6505  1.3650 -0.5369
   46DOPE  H12Y 5915   4.473   6.022   7.121 -0.2908 -0.7229 -2.5584
   46DOPE  C313 5916   4.293   5.982   7.246 -0.2244 -0.2209 -0.0859
   46DOPE  H13X 5917   4.186   5.974   7.217 -0.1042 -0.6360 -0.4296
   46DOPE  H13Y 5918   4.330   5.886   7.288  1.2221  1.1416  1.8939
   46DOPE  C314 5919   4.318   6.089   7.354  0.4002  0.4511  0.2872
   46DOPE  H14X 5920   4.312   6.189   7.305 -0.7599 -0.6937 -2.1096
   46DOPE  H14Y 5921   4.419   6.087   7.399  0.6013  1.9509 -0.0427
   46DOPE  C315 5922   4.220   6.094   7.468 -0.3445 -0.4191  0.6800
   46DOPE  H15X 5923   4.114   6.093   7.435 -0.3045  0.0296  0.5308
   46DOPE  H15Y 5924   4.241   6.183   7.532  2.8750 -0.9048  0.4415
   46DOPE  C316 5925   4.233   5.977   7.574 -0.5449 -0.4665 -1.1217
   46DOPE  H16X 5926   4.335   5.987   7.618  0.4627 -4.2358 -2.2270
   46DOPE  H16Y 5927   4.232   5.889   7.506 -0.4429 -1.0276 -0.4096
   46DOPE  C317 5928   4.132   5.977   7.691  0.0887 -0.1956 -0.2129
   46DOPE  H17X 5929   4.144   6.063   7.759  0.7256 -0.0609 -0.4847
   46DOPE  H17Y 5930   4.031   5.998   7.649  0.5530  0.6710 -0.9314
   46DOPE  C318 5931   4.134   5.854   7.777 -0.1838  0.2951 -0.1565
   46DOPE  H18X 5932   4.095   5.773   7.711  0.1987  0.2032 -0.2707
   46DOPE  H18Y 5933   4.230   5.824   7.823 -0.6413 -1.9705 -0.5487
   46DOPE  H18Z 5934   4.066   5.865   7.864  0.0453 -0.5589  0.1364
   47DOPE     N 5935   1.501   5.015   5.076  0.1899 -0.3399 -0.0790
   47DOPE   HN1 5936   1.469   4.981   5.168 -1.0743  0.1798 -0.3138
   47DOPE   HN2 5937   1.559   5.101   5.085  2.0185 -1.3216 -1.7077
   47DOPE   HN3 5938   1.422   5.060   5.027  0.4218  1.5312  1.1707
   47DOPE   C12 5939   1.576   4.910   4.993  0.2230 -0.4896 -0.7098
   47DOPE  H12A 5940   1.669   4.891   5.052  0.0408  0.2146 -0.1824
   47DOPE  H12B 5941   1.614   4.951   4.897  0.4779 -0.9679 -0.8227
   47DOPE   C11 5942   1.490   4.788   4.961 -0.3600 -0.5127  0.4925
   47DOPE  H11A 5943   1.553   4.719   4.901 -0.9443 -1.1201  0.5681
   47DOPE  H11B 5944   1.411   4.818   4.889  1.4520 -1.2595 -1.9111
   47DOPE     P 5945   1.369   4.570   5.051  0.1555  0.0142  0.3034
   47DOPE   O13 5946   1.418   4.513   4.924 -0.0569  0.5035 -0.2542
   47DOPE   O14 5947   1.222   4.575   5.066 -0.1927  0.1943 -0.0546
   47DOPE   O11 5948   1.437   4.498   5.172 -0.1558  0.7121  0.4591
   47DOPE   O12 5949   1.432   4.723   5.068  0.2383 -0.3448  0.3627
   47DOPE    C1 5950   1.581   4.509   5.190 -0.1935 -0.4023 -0.4093
   47DOPE    HA 5951   1.637   4.557   5.108 -0.6391 -0.3633 -0.6955
   47DOPE    HB 5952   1.625   4.408   5.205  0.2851  0.2273  3.5570
   47DOPE    C2 5953   1.621   4.579   5.327  0.9342  0.1027 -0.6306
   47DOPE    HS 5954   1.731   4.572   5.321  1.0590  2.2478 -3.7825
   47DOPE   O21 5955   1.566   4.507   5.442 -0.1762 -0.1654 -0.4604
   47DOPE   C21 5956   1.635   4.525   5.553 -0.3370  0.4186 -0.1621
   47DOPE   O22 5957   1.732   4.593   5.572  0.4123 -0.0163  0.2889
   47DOPE   C22 5958   1.564   4.449   5.664 -0.2347  0.6278  0.1881
   47DOPE   H2R 5959   1.538   4.349   5.624  0.5303  0.0081  1.1803
   47DOPE   H2S 5960   1.468   4.501   5.683  0.0824  0.7310  1.6630
   47DOPE    C3 5961   1.571   4.731   5.344  0.1076  0.0071  0.0756
   47DOPE    HX 5962   1.462   4.741   5.363  0.3687  1.9285  0.8143
   47DOPE    HY 5963   1.576   4.773   5.241 -0.4822  0.4112  0.2052
   47DOPE   O31 5964   1.640   4.809   5.446  0.2307  0.7288  0.2208
   47DOPE   C31 5965   1.755   4.856   5.410  0.5914 -1.0113  0.5586
   47DOPE   O32 5966   1.805   4.847   5.299 -0.2181  0.1184  0.3197
   47DOPE   C32 5967   1.807   4.948   5.524  0.1709  0.8562  0.1158
   47DOPE   H2X 5968   1.760   5.046   5.502 -2.7326 -0.7090 -1.2544
   47DOPE   H2Y 5969   1.757   4.916   5.618 -0.6749  1.4461 -0.1184
   47DOPE   C23 5970   1.644   4.426   5.791  0.1917  0.3435  0.3801
   47DOPE   H3R 5971   1.668   4.521   5.844  0.2570 -0.4503  1.8420
   47DOPE   H3S 5972   1.741   4.376   5.770 -0.5427 -0.6361 -0.7537
   47DOPE   C24 5973   1.562   4.341   5.886  0.2334 -0.3096 -0.8273
   47DOPE   H4R 5974   1.553   4.237   5.849 -1.1870 -0.2526 -0.6782
   47DOPE   H4S 5975   1.459   4.382   5.891  0.4940  0.4806 -1.7579
   47DOPE   C25 5976   1.600   4.337   6.032  0.0995  0.4592 -0.2981
   47DOPE   H5R 5977   1.568   4.434   6.075  0.1424  0.3548 -0.0277
   47DOPE   H5S 5978   1.709   4.342   6.055  0.3014 -0.8141 -0.9036
   47DOPE   C26 5979   1.531   4.230   6.122 -0.7297 -0.2270 -0.2836
   47DOPE   H6R 5980   1.544   4.129   6.077 -1.2532 -0.5964  0.3693
   47DOPE   H6S 5981   1.422   4.247   6.113 -0.3571  2.5421 -0.2415
   47DOPE   C27 5982   1.584   4.224   6.270  0.0270  0.1256  0.0988
   47DOPE   H7R 5983   1.693   4.200   6.273  0.3628  1.5102 -0.2101
   47DOPE   H7S 5984   1.534   4.142   6.326  0.2805  1.1056  1.8308
   47DOPE   C28 5985   1.555   4.356   6.350  0.3099 -0.1746 -0.6334
   47DOPE   H8R 5986   1.445   4.369   6.355  0.3590 -0.1744  0.6961
   47DOPE   H8S 5987   1.590   4.444   6.291 -2.8605  0.7564 -1.2955
   47DOPE   C29 5988   1.624   4.345   6.484 -0.1100  0.3898 -0.3138
   47DOPE   H9R 5989   1.733   4.329   6.476  0.3127  2.6463  0.1890
   47DOPE  C210 5990   1.562   4.338   6.604 -0.0579  0.0787  0.1322
   47DOPE  H10R 5991   1.633   4.327   6.687  0.3629 -1.4065 -0.3944
   47DOPE  C211 5992   1.415   4.358   6.628 -0.7624  0.5729  0.6525
   47DOPE  H11R 5993   1.360   4.285   6.565 -1.5980 -0.0761  2.0825
   47DOPE  H11S 5994   1.381   4.456   6.589 -0.9999  0.4158  0.4545
   47DOPE  C212 5995   1.384   4.359   6.778  0.0926 -0.0732 -0.7402
   47DOPE  H12R 5996   1.281   4.403   6.784 -0.3799 -1.3553  2.1745
   47DOPE  H12S 5997   1.454   4.427   6.830  0.9122 -0.4656 -1.3059
   47DOPE  C213 5998   1.383   4.226   6.847  0.1328  0.1021 -0.2302
   47DOPE  H13R 5999   1.482   4.175   6.850  0.2401  0.2541 -0.9675
   47DOPE  H13S 6000   1.307   4.166   6.792 -0.2433  1.1257 -0.8482
   47DOPE  C214 6001   1.329   4.246   6.986 -0.3077  0.1389  0.0956
   47DOPE  H14R 6002   1.232   4.302   6.986  0.4380  1.4824  0.1089
   47DOPE  H14S 6003   1.400   4.296   7.055  1.2805 -0.0843 -1.3133
   47DOPE  C215 6004   1.293   4.109   7.056  0.5653 -0.2555  0.2902
   47DOPE  H15R 6005   1.227   4.045   6.995  0.1130  1.1178 -0.7159
   47DOPE  H15S 6006   1.236   4.126   7.149  1.3697 -0.6547  0.8687
   47DOPE  C216 6007   1.422   4.038   7.102 -0.0402 -0.6927 -0.1206
   47DOPE  H16R 6008   1.477   4.091   7.183  0.7351 -1.1247 -0.3525
   47DOPE  H16S 6009   1.495   4.011   7.023  0.4626 -0.9626  0.4258
   47DOPE  C217 6010   1.385   3.918   7.190  0.3405 -0.1353  0.0925
   47DOPE  H17R 6011   1.340   3.842   7.123 -0.4301  0.5206 -0.1516
   47DOPE  H17S 6012   1.311   3.942   7.268  1.6035 -1.0102  1.6092
   47DOPE  C218 6013   1.509   3.864   7.262  0.4198  0.5063 -0.0055
   47DOPE  H18R 6014   1.556   3.942   7.326 -2.2796  0.7034  1.8992
   47DOPE  H18S 6015   1.585   3.837   7.185 -0.9086 -0.5988 -0.9722
   47DOPE  H18T 6016   1.480   3.773   7.319  1.2198 -1.0275 -1.9378
   47DOPE   C33 6017   1.960   4.952   5.547  0.5338  0.8254 -0.1514
   47DOPE   H3X 6018   1.997   4.983   5.447 -0.5690  1.2210 -0.4541
   47DOPE   H3Y 6019   1.998   4.850   5.567 -1.1468 -0.0973 -1.4292
   47DOPE   C34 6020   2.000   5.063   5.648  0.0545  0.5591 -0.9329
   47DOPE   H4X 6021   2.110   5.077   5.643  0.0634  1.7359  1.1547
   47DOPE   H4Y 6022   1.959   5.163   5.625  2.1407  1.7301  0.0803
   47DOPE   C35 6023   1.975   5.004   5.783  0.0923 -0.1068 -0.3632
   47DOPE   H5X 6024   2.038   4.914   5.798  1.2354  0.4877 -1.4097
   47DOPE   H5Y 6025   1.872   4.964   5.798 -0.1746  0.8392  0.5082
   47DOPE   C36 6026   1.998   5.091   5.906  0.3770 -0.3009 -0.2692
   47DOPE   H6X 6027   1.946   5.188   5.889 -0.4413 -0.8326 -0.9024
   47DOPE   H6Y 6028   2.107   5.111   5.912 -0.0290  1.7799  1.1843
   47DOPE   C37 6029   1.947   5.028   6.036 -0.1461  0.2806 -1.1089
   47DOPE   H7X 6030   1.838   5.035   6.055  0.0233 -0.8590  0.5188
   47DOPE   H7Y 6031   1.960   4.918   6.038 -0.5651  0.2297  0.3048
   47DOPE   C38 6032   2.025   5.080   6.156 -1.3440  0.1474  0.1727
   47DOPE   H8X 6033   2.023   5.191   6.149 -2.1104  0.1346  0.1328
   47DOPE   H8Y 6034   2.130   5.043   6.150 -2.0459 -1.9311 -0.2175
   47DOPE   C39 6035   1.987   5.015   6.286  0.2286  0.2014  0.2054
   47DOPE   H9X 6036   1.979   4.905   6.284 -1.6827  0.2791 -2.5713
   47DOPE  C310 6037   1.954   5.068   6.410  0.5035  0.6814  0.0064
   47DOPE  H10X 6038   1.914   5.002   6.489  0.9925  2.7449  2.0808
   47DOPE  C311 6039   1.957   5.215   6.457 -0.0355 -0.5007  0.1080
   47DOPE  H11X 6040   1.995   5.276   6.372  1.4735 -2.1540 -0.4508
   47DOPE  H11Y 6041   1.852   5.248   6.476  0.7786  1.6892  1.1851
   47DOPE  C312 6042   2.033   5.250   6.591  0.1295 -0.1450 -0.9098
   47DOPE  H12X 6043   2.049   5.359   6.600  2.0934 -0.5575  1.6637
   47DOPE  H12Y 6044   2.136   5.211   6.588  0.9608  1.0289  4.0625
   47DOPE  C313 6045   1.962   5.189   6.713  0.6482  0.1000  0.0466
   47DOPE  H13X 6046   1.853   5.208   6.709  0.3493 -1.7607 -2.7300
   47DOPE  H13Y 6047   1.992   5.083   6.701 -0.7829 -0.1945 -1.2747
   47DOPE  C314 6048   2.020   5.241   6.846  0.2835 -0.3413  0.1014
   47DOPE  H14X 6049   2.029   5.352   6.844  1.3690 -0.4297 -0.5688
   47DOPE  H14Y 6050   2.125   5.206   6.855 -0.0434 -1.5097 -0.3655
   47DOPE  C315 6051   1.955   5.186   6.971 -0.0752  0.6656 -0.0187
   47DOPE  H15X 6052   1.959   5.075   6.978  0.3751  0.5975 -1.0686
   47DOPE  H15Y 6053   1.849   5.219   6.965 -0.0389  0.7944  0.0592
   47DOPE  C316 6054   2.035   5.235   7.103 -0.0856 -0.2318 -0.1694
   47DOPE  H16X 6055   2.073   5.339   7.092  0.2580 -0.2237  1.0227
   47DOPE  H16Y 6056   2.127   5.176   7.121 -0.5496 -1.1425 -0.7174
   47DOPE  C317 6057   1.945   5.219   7.223  1.1490  0.6632 -0.3266
   47DOPE  H17X 6058   1.849   5.276   7.222 -0.8259 -2.4238  0.8881
   47DOPE  H17Y 6059   1.920   5.111   7.221  0.3739  0.8347 -2.3806
   47DOPE  C318 6060   2.022   5.253   7.350  0.4130  0.1289 -0.4084
   47DOPE  H18X 6061   1.951   5.239   7.434  1.1675  0.1783  0.2561
   47DOPE  H18Y 6062   2.107   5.183   7.366  1.0374  1.1173  0.7402
   47DOPE  H18Z 6063   2.053   5.359   7.352 -1.2827  0.6380  0.8454
   48DOPE     N 6064   6.162   1.295   5.037 -0.5786  0.3186 -0.6198
   48DOPE   HN1 6065   6.067   1.337   5.040 -0.4584  0.5512 -0.0291
   48DOPE   HN2 6066   6.213   1.362   4.975 -1.0367  1.4014  0.1425
   48DOPE   HN3 6067   6.152   1.201   4.994 -0.1936  0.7364 -1.6755
   48DOPE   C12 6068   6.239   1.296   5.166  0.1912 -0.4009  0.2366
   48DOPE  H12A 6069   6.332   1.239   5.149 -0.2070 -1.4403  1.3806
   48DOPE  H12B 6070   6.179   1.231   5.234 -0.9083 -0.4864 -0.7735
   48DOPE   C11 6071   6.261   1.437   5.224  0.0337 -0.5291  0.7968
   48DOPE  H11A 6072   6.331   1.485   5.152 -1.5520 -1.0116 -1.1510
   48DOPE  H11B 6073   6.313   1.433   5.322 -1.7053 -0.4753  1.7603
   48DOPE     P 6074   6.050   1.521   5.358 -0.1993 -0.2484 -0.1265
   48DOPE   O13 6075   6.046   1.388   5.423  0.1778 -0.0727 -0.2377
   48DOPE   O14 6076   5.923   1.583   5.322  0.2979 -0.1735 -0.2266
   48DOPE   O11 6077   6.141   1.621   5.446  0.0483  0.2974 -0.0065
   48DOPE   O12 6078   6.140   1.511   5.232 -0.5405 -0.8252 -0.0553
   48DOPE    C1 6079   6.095   1.676   5.568 -0.0159  0.0963 -0.0609
   48DOPE    HA 6080   5.997   1.634   5.599  0.0419  0.5446  0.7649
   48DOPE    HB 6081   6.104   1.787   5.558  0.6747  0.0556  0.0918
   48DOPE    C2 6082   6.189   1.644   5.689  0.1753 -0.2524 -0.0431
   48DOPE    HS 6083   6.293   1.659   5.655  0.2543  0.9570  0.6681
   48DOPE   O21 6084   6.155   1.513   5.728 -0.5013 -0.0408 -0.0528
   48DOPE   C21 6085   6.227   1.419   5.675  1.3886  0.4243 -0.3771
   48DOPE   O22 6086   6.316   1.431   5.590 -0.0106  0.0638  0.1675
   48DOPE   C22 6087   6.191   1.275   5.726  0.6715  0.0276 -0.3880
   48DOPE   H2R 6088   6.175   1.211   5.636 -1.9386 -0.3127  0.2412
   48DOPE   H2S 6089   6.094   1.279   5.780  0.4303 -1.0587 -0.7043
   48DOPE    C3 6090   6.163   1.742   5.805 -0.1004 -0.1218  0.1676
   48DOPE    HX 6091   6.053   1.758   5.804 -0.4223 -2.0345 -0.7081
   48DOPE    HY 6092   6.216   1.838   5.787  0.9054 -0.2729  2.0198
   48DOPE   O31 6093   6.221   1.685   5.928 -0.7845 -0.3354  0.5036
   48DOPE   C31 6094   6.139   1.676   6.037  0.2779  0.5832 -0.5598
   48DOPE   O32 6095   6.021   1.709   6.049 -0.2677  0.4614  0.2549
   48DOPE   C32 6096   6.213   1.602   6.155  0.2291 -0.1255  0.8092
   48DOPE   H2X 6097   6.200   1.495   6.129  1.1558 -0.0874  0.1212
   48DOPE   H2Y 6098   6.323   1.621   6.157  0.8022 -2.0230 -2.9086
   48DOPE   C23 6099   6.302   1.223   5.831 -0.2357 -0.1813  0.0457
   48DOPE   H3R 6100   6.405   1.239   5.790 -0.6928 -1.4230 -1.7112
   48DOPE   H3S 6101   6.280   1.115   5.831 -0.2062 -0.2064 -1.2745
   48DOPE   C24 6102   6.295   1.278   5.972 -0.3213 -0.1893 -0.5911
   48DOPE   H4R 6103   6.198   1.240   6.013 -0.2333  1.7354  1.6457
   48DOPE   H4S 6104   6.301   1.389   5.972  2.1109 -0.2734 -0.2710
   48DOPE   C25 6105   6.393   1.210   6.067 -1.1218  0.6747  0.0426
   48DOPE   H5R 6106   6.494   1.237   6.029  0.1755  1.9256  3.8801
   48DOPE   H5S 6107   6.383   1.100   6.079 -1.0513  0.6392 -0.2144
   48DOPE   C26 6108   6.387   1.263   6.213  0.1279  0.3879  0.0960
   48DOPE   H6R 6109   6.293   1.227   6.260  0.3267 -1.4408 -0.8441
   48DOPE   H6S 6110   6.386   1.374   6.217  2.3914  0.5063 -0.8855
   48DOPE   C27 6111   6.504   1.221   6.301 -0.2713 -0.1281  0.5068
   48DOPE   H7R 6112   6.605   1.233   6.255  0.0575  2.7497  1.7654
   48DOPE   H7S 6113   6.489   1.113   6.320 -1.2808  0.0265  0.6117
   48DOPE   C28 6114   6.507   1.288   6.440 -0.9137 -0.4730  0.6826
   48DOPE   H8R 6115   6.407   1.307   6.486 -0.7099  0.7019  0.6596
   48DOPE   H8S 6116   6.544   1.392   6.426 -0.6587 -0.8566 -2.1201
   48DOPE   C29 6117   6.608   1.228   6.538 -0.3354 -0.2041 -0.1266
   48DOPE   H9R 6118   6.708   1.273   6.542  1.8828 -4.4388 -1.5340
   48DOPE  C210 6119   6.596   1.117   6.616  0.1561 -0.2198 -0.0252
   48DOPE  H10R 6120   6.677   1.099   6.690  0.0421  0.5465  0.3022
   48DOPE  C211 6121   6.489   1.011   6.624  0.3225 -0.4397 -0.3821
   48DOPE  H11R 6122   6.526   0.906   6.623 -1.2613 -1.0336  0.4935
   48DOPE  H11S 6123   6.419   1.008   6.538 -0.5932 -0.1165  0.3406
   48DOPE  C212 6124   6.405   1.033   6.755  0.6630 -0.0066  0.2683
   48DOPE  H12R 6125   6.314   0.970   6.743  0.5251  0.4572 -1.3279
   48DOPE  H12S 6126   6.365   1.136   6.769 -2.9970 -1.3937  1.1998
   48DOPE  C213 6127   6.488   0.987   6.873 -0.2607  0.1095 -0.2769
   48DOPE  H13R 6128   6.578   1.051   6.875 -1.0392  1.2367 -0.4512
   48DOPE  H13S 6129   6.520   0.881   6.860 -0.3005 -0.2234  2.0061
   48DOPE  C214 6130   6.412   0.981   7.012  0.4311  0.6417  0.2089
   48DOPE  H14R 6131   6.318   0.921   7.012  2.3716 -2.7245 -0.8647
   48DOPE  H14S 6132   6.372   1.084   7.019  1.3828  1.0301 -0.0068
   48DOPE  C215 6133   6.494   0.936   7.136  0.0789 -0.0039 -0.5723
   48DOPE  H15R 6134   6.570   1.016   7.138  1.3719 -1.1154 -2.1211
   48DOPE  H15S 6135   6.543   0.838   7.115  1.3338  0.8851 -2.0244
   48DOPE  C216 6136   6.415   0.941   7.277  0.2011  0.0495 -0.2239
   48DOPE  H16R 6137   6.323   0.881   7.259 -1.4349  0.7182  4.4313
   48DOPE  H16S 6138   6.388   1.047   7.297  0.2042  0.2895 -1.3898
   48DOPE  C217 6139   6.498   0.887   7.388 -0.7264  0.3114 -0.1325
   48DOPE  H17R 6140   6.525   0.779   7.385  2.6427  0.8103  3.5124
   48DOPE  H17S 6141   6.434   0.896   7.478 -0.8125 -2.2631  0.1348
   48DOPE  C218 6142   6.631   0.968   7.417  0.0236 -0.9905 -0.3838
   48DOPE  H18R 6143   6.606   1.076   7.418  2.6199 -0.3109  1.1320
   48DOPE  H18S 6144   6.706   0.956   7.335  0.6620 -0.5146  0.1156
   48DOPE  H18T 6145   6.681   0.937   7.512  1.6512  0.8321 -0.5969
   48DOPE   C33 6146   6.141   1.629   6.292 -0.0210 -0.7149 -0.0320
   48DOPE   H3X 6147   6.038   1.588   6.286 -0.2976 -0.1618  0.7728
   48DOPE   H3Y 6148   6.141   1.735   6.325  0.8744 -1.1774  1.5336
   48DOPE   C34 6149   6.210   1.549   6.410 -0.3033  0.0369  0.4243
   48DOPE   H4X 6150   6.190   1.442   6.388  0.8255  0.0211 -0.6283
   48DOPE   H4Y 6151   6.321   1.560   6.410 -0.1837 -0.7301 -1.9411
   48DOPE   C35 6152   6.164   1.592   6.548  0.2181  0.2556 -0.3652
   48DOPE   H5X 6153   6.056   1.568   6.562 -0.0803  0.0455 -2.6756
   48DOPE   H5Y 6154   6.172   1.702   6.557 -2.6135  0.5361 -0.1961
   48DOPE   C36 6155   6.231   1.517   6.665 -0.3355 -0.7822  0.2872
   48DOPE   H6X 6156   6.339   1.543   6.663 -0.4337 -0.2986 -2.6809
   48DOPE   H6Y 6157   6.214   1.409   6.647  2.3116 -0.8114 -2.7592
   48DOPE   C37 6158   6.174   1.549   6.805 -0.0125  0.6226 -0.2368
   48DOPE   H7X 6159   6.066   1.521   6.802  0.5292 -1.5463 -1.8084
   48DOPE   H7Y 6160   6.220   1.485   6.883 -0.9415 -0.8771 -0.8775
   48DOPE   C38 6161   6.171   1.694   6.845  0.1008 -0.6884 -0.1069
   48DOPE   H8X 6162   6.123   1.709   6.945  1.1593  0.9176  0.1885
   48DOPE   H8Y 6163   6.114   1.742   6.763  0.7046 -0.1252 -0.1991
   48DOPE   C39 6164   6.312   1.753   6.856  0.0000 -0.0557 -0.4022
   48DOPE   H9X 6165   6.361   1.715   6.947  0.6343 -0.1525 -0.7762
   48DOPE  C310 6166   6.369   1.862   6.800 -0.3252  0.0607  0.0812
   48DOPE  H10X 6167   6.476   1.885   6.813 -0.9809  2.9067  1.2738
   48DOPE  C311 6168   6.303   1.945   6.694 -0.0484  0.3090 -0.3398
   48DOPE  H11X 6169   6.203   1.906   6.665  0.1069 -1.6530  1.4945
   48DOPE  H11Y 6170   6.293   2.050   6.729  1.9912  1.5110 -2.9975
   48DOPE  C312 6171   6.390   1.958   6.562 -0.1262 -0.1850 -0.4855
   48DOPE  H12X 6172   6.409   1.855   6.526 -0.1653 -1.6684  3.2177
   48DOPE  H12Y 6173   6.490   2.003   6.579  0.8320 -2.1534 -0.6269
   48DOPE  C313 6174   6.318   2.016   6.444  0.2065 -0.2617 -0.0320
   48DOPE  H13X 6175   6.233   1.953   6.409  0.3509 -0.1583 -0.5797
   48DOPE  H13Y 6176   6.280   2.111   6.487  0.9319 -0.2204  0.5343
   48DOPE  C314 6177   6.402   2.054   6.325 -0.0495 -0.2783  1.0710
   48DOPE  H14X 6178   6.479   2.126   6.359 -2.3793  2.6966  0.4474
   48DOPE  H14Y 6179   6.338   2.114   6.256  1.6349  1.6643  1.1054
   48DOPE  C315 6180   6.464   1.942   6.242  0.3066  0.0516 -0.0106
   48DOPE  H15X 6181   6.387   1.873   6.201  2.4523 -2.3928 -0.2362
   48DOPE  H15Y 6182   6.540   1.877   6.292 -0.4701 -1.7364 -1.0520
   48DOPE  C316 6183   6.532   1.989   6.110 -0.1321 -0.2950 -0.2071
   48DOPE  H16X 6184   6.629   1.936   6.121 -0.4116 -0.6015  0.8922
   48DOPE  H16Y 6185   6.555   2.098   6.114  1.8456 -0.6931  0.8357
   48DOPE  C317 6186   6.471   1.946   5.979 -0.2941 -0.2052  0.3413
   48DOPE  H17X 6187   6.456   1.836   5.975  2.1083 -0.6182  1.4762
   48DOPE  H17Y 6188   6.374   2.000   5.968 -1.1206 -1.7635 -0.3922
   48DOPE  C318 6189   6.550   1.989   5.854 -0.0858  0.3666 -0.6208
   48DOPE  H18X 6190   6.479   1.980   5.770 -2.2903 -1.4157  1.2803
   48DOPE  H18Y 6191   6.596   2.089   5.841  2.5943 -0.7002 -0.0345
   48DOPE  H18Z 6192   6.641   1.927   5.836 -0.3480 -0.1134 -0.3332
   49DOPE     N 6193   2.037   4.862   5.155  0.1466  0.0578 -0.3321
   49DOPE   HN1 6194   2.027   4.789   5.081  1.3560  1.8469 -2.3660
   49DOPE   HN2 6195   2.107   4.836   5.227  0.1219  0.6797 -0.0793
   49DOPE   HN3 6196   1.942   4.867   5.198  0.1427 -0.4759 -0.2679
   49DOPE   C12 6197   2.068   4.988   5.082 -0.1941  0.8354 -0.1280
   49DOPE  H12A 6198   2.157   4.970   5.017  0.8437  1.4712  1.0644
   49DOPE  H12B 6199   2.083   5.068   5.158 -1.9116 -0.1610  1.3481
   49DOPE   C11 6200   1.944   5.039   4.999 -0.6071  0.0694  0.8280
   49DOPE  H11A 6201   1.917   4.960   4.925  0.9842  1.7326 -1.6431
   49DOPE  H11B 6202   1.983   5.120   4.934 -1.6658  0.5709  0.7989
   49DOPE     P 6203   1.784   5.228   5.059 -0.3062 -0.1354 -0.0600
   49DOPE   O13 6204   1.656   5.249   5.133 -0.0093  0.4976 -0.1304
   49DOPE   O14 6205   1.788   5.262   4.919 -0.1094  0.2856  0.4178
   49DOPE   O11 6206   1.902   5.302   5.133 -1.0700  0.4233  0.0185
   49DOPE   O12 6207   1.831   5.075   5.079 -0.0305 -0.2704  0.0019
   49DOPE    C1 6208   1.878   5.328   5.271  0.4883  0.1296 -0.6413
   49DOPE    HA 6209   1.838   5.239   5.324 -1.8168  0.0024 -2.4449
   49DOPE    HB 6210   1.805   5.411   5.283  0.9919  0.5179 -0.1898
   49DOPE    C2 6211   2.013   5.368   5.338  0.0442  0.3989  0.0691
   49DOPE    HS 6212   2.061   5.447   5.276  1.4324  0.7711  1.5527
   49DOPE   O21 6213   2.102   5.258   5.341 -0.4598 -0.1238 -0.3348
   49DOPE   C21 6214   2.233   5.278   5.322 -0.1022 -0.2319 -0.3719
   49DOPE   O22 6215   2.287   5.391   5.315 -0.0367 -0.1969 -0.6877
   49DOPE   C22 6216   2.305   5.141   5.323 -0.6174 -0.0617  0.8393
   49DOPE   H2R 6217   2.292   5.100   5.220  0.7890 -0.8032  0.9222
   49DOPE   H2S 6218   2.252   5.079   5.398  1.0107 -0.5130  1.6617
   49DOPE    C3 6219   1.992   5.434   5.479  0.2277 -0.3537  0.4157
   49DOPE    HX 6220   1.960   5.357   5.552 -5.0439 -0.1739 -1.2540
   49DOPE    HY 6221   1.901   5.497   5.468  0.2497  0.1390  2.6356
   49DOPE   O31 6222   2.105   5.506   5.520 -0.2206 -0.2490 -0.2773
   49DOPE   C31 6223   2.141   5.499   5.645  0.3604 -0.3785 -0.2309
   49DOPE   O32 6224   2.113   5.418   5.729 -0.0543 -0.3078  0.0993
   49DOPE   C32 6225   2.241   5.615   5.668 -0.1567 -1.3296 -0.1962
   49DOPE   H2X 6226   2.347   5.585   5.659  0.4570  0.8246 -0.8734
   49DOPE   H2Y 6227   2.229   5.697   5.594 -0.6450  0.1507  1.4527
   49DOPE   C23 6228   2.457   5.154   5.342  0.4760  0.1974  0.9766
   49DOPE   H3R 6229   2.494   5.236   5.277 -0.6386 -0.2675 -0.2847
   49DOPE   H3S 6230   2.507   5.062   5.305 -1.3899  0.0371 -1.3727
   49DOPE   C24 6231   2.492   5.176   5.490 -0.0812 -0.4557 -0.2567
   49DOPE   H4R 6232   2.457   5.277   5.521 -0.2275 -0.1124 -1.4804
   49DOPE   H4S 6233   2.602   5.181   5.499 -0.2168 -1.2926  2.6826
   49DOPE   C25 6234   2.435   5.070   5.590 -0.2808 -0.1311  0.5313
   49DOPE   H5R 6235   2.455   4.964   5.567  1.4569  0.5125 -1.1884
   49DOPE   H5S 6236   2.327   5.095   5.597  0.5361  3.6104  3.6786
   49DOPE   C26 6237   2.478   5.095   5.736  0.6800  0.0783 -0.4657
   49DOPE   H6R 6238   2.417   5.182   5.770  1.7671  1.0080 -0.8241
   49DOPE   H6S 6239   2.588   5.111   5.744  1.3758 -3.2153 -1.9411
   49DOPE   C27 6240   2.467   4.971   5.832  0.5185  0.8334 -0.1105
   49DOPE   H7R 6241   2.521   4.880   5.799  2.1841  2.1225 -1.1616
   49DOPE   H7S 6242   2.360   4.945   5.820  0.0414  1.6598  1.9768
   49DOPE   C28 6243   2.494   5.004   5.988 -0.1348 -1.1615  0.2104
   49DOPE   H8R 6244   2.593   5.054   5.987 -1.4968  1.8015  1.3887
   49DOPE   H8S 6245   2.502   4.911   6.047 -1.6073 -1.0282  0.6683
   49DOPE   C29 6246   2.386   5.097   6.043 -0.6949  0.0584  0.5641
   49DOPE   H9R 6247   2.310   5.132   5.972  0.1409 -0.0846 -0.4208
   49DOPE  C210 6248   2.385   5.146   6.167  0.3330  0.2410 -0.8461
   49DOPE  H10R 6249   2.309   5.216   6.203  0.5055 -0.1030  0.2112
   49DOPE  C211 6250   2.486   5.115   6.271 -0.5569 -0.4952 -0.8299
   49DOPE  H11R 6251   2.544   5.206   6.298  1.2060 -2.1390  1.4031
   49DOPE  H11S 6252   2.560   5.038   6.240 -0.6299 -0.9160  0.0225
   49DOPE  C212 6253   2.425   5.060   6.399  0.0544  0.2372  0.0581
   49DOPE  H12R 6254   2.389   4.955   6.395 -0.9550  0.4814  1.8294
   49DOPE  H12S 6255   2.336   5.116   6.433 -2.0617 -2.8775  0.1062
   49DOPE  C213 6256   2.530   5.066   6.508  0.2131 -0.6697 -0.1686
   49DOPE  H13R 6257   2.556   5.174   6.502  1.9410 -1.1192 -1.4655
   49DOPE  H13S 6258   2.623   5.014   6.475  1.1417  0.4544  0.6027
   49DOPE  C214 6259   2.489   5.008   6.642 -0.1666 -0.4481 -0.1381
   49DOPE  H14R 6260   2.473   4.898   6.631 -1.3623 -0.3324  0.2955
   49DOPE  H14S 6261   2.388   5.045   6.670 -0.3484  0.2422 -1.6064
   49DOPE  C215 6262   2.595   5.034   6.758  0.1604  0.6038  0.2385
   49DOPE  H15R 6263   2.634   5.137   6.744  1.8803 -0.1982 -1.3209
   49DOPE  H15S 6264   2.684   4.968   6.747 -1.0529 -1.1484  0.5500
   49DOPE  C216 6265   2.550   5.004   6.898  0.2677  0.1884 -0.0348
   49DOPE  H16R 6266   2.526   4.895   6.895 -1.5413  0.5590 -3.2152
   49DOPE  H16S 6267   2.449   5.049   6.911 -1.1137 -2.6283 -0.2042
   49DOPE  C217 6268   2.666   5.033   7.002 -0.5456 -0.3926  0.3864
   49DOPE  H17R 6269   2.688   5.142   6.997 -0.5395 -0.3793  0.6736
   49DOPE  H17S 6270   2.753   4.974   6.968  0.3891  2.2017 -2.1475
   49DOPE  C218 6271   2.627   5.006   7.144 -1.3959  0.5896 -0.0757
   49DOPE  H18R 6272   2.720   5.003   7.206 -1.3114  0.0004 -0.2294
   49DOPE  H18S 6273   2.589   4.902   7.151 -1.9588  0.7446 -0.7734
   49DOPE  H18T 6274   2.547   5.074   7.180 -1.2564  1.1244 -0.7722
   49DOPE   C33 6275   2.215   5.692   5.808  0.5184  0.2622  0.1552
   49DOPE   H3X 6276   2.109   5.716   5.831  0.5680  1.2549 -0.5969
   49DOPE   H3Y 6277   2.271   5.787   5.797 -0.1855  0.5307 -1.4443
   49DOPE   C34 6278   2.267   5.607   5.929  0.2726 -0.3702 -0.2780
   49DOPE   H4X 6279   2.209   5.513   5.945  2.9272 -2.0497  0.1445
   49DOPE   H4Y 6280   2.365   5.569   5.895  0.3412  0.8760 -1.5575
   49DOPE   C35 6281   2.261   5.680   6.062 -0.5987  0.0632  0.8398
   49DOPE   H5X 6282   2.152   5.700   6.076 -0.3870  2.0535 -0.1040
   49DOPE   H5Y 6283   2.309   5.780   6.057  1.3655 -0.7445  2.1820
   49DOPE   C36 6284   2.324   5.600   6.177  0.4708  0.1031  0.5003
   49DOPE   H6X 6285   2.428   5.582   6.144  1.0318 -1.1278  2.7220
   49DOPE   H6Y 6286   2.269   5.503   6.186 -0.4435  0.3714 -1.6163
   49DOPE   C37 6287   2.335   5.680   6.310 -0.4696 -0.6124  0.7072
   49DOPE   H7X 6288   2.375   5.779   6.280 -2.4039  0.0227  0.1240
   49DOPE   H7Y 6289   2.237   5.699   6.357 -0.0092  0.8082  1.1200
   49DOPE   C38 6290   2.425   5.612   6.406  0.2732 -0.9579  0.1300
   49DOPE   H8X 6291   2.532   5.622   6.377  0.3605 -1.4267  0.2912
   49DOPE   H8Y 6292   2.409   5.503   6.421  0.6919 -0.9529  0.6400
   49DOPE   C39 6293   2.429   5.679   6.542 -0.2765  0.8262  0.2270
   49DOPE   H9X 6294   2.445   5.788   6.544 -3.2402  1.3393  2.2268
   49DOPE  C310 6295   2.384   5.627   6.659 -0.4723 -0.6432  0.1823
   49DOPE  H10X 6296   2.390   5.683   6.753 -1.1847  0.0997 -0.2072
   49DOPE  C311 6297   2.323   5.483   6.674  0.2978  0.1596  0.0891
   49DOPE  H11X 6298   2.213   5.495   6.666  0.3604  2.3293  1.7151
   49DOPE  H11Y 6299   2.358   5.413   6.595 -0.1139  1.4031 -1.2361
   49DOPE  C312 6300   2.358   5.421   6.811  0.4357 -0.0379  0.9367
   49DOPE  H12X 6301   2.468   5.424   6.822  0.3596  0.6900  1.5753
   49DOPE  H12Y 6302   2.320   5.317   6.821 -0.7234  0.4456  1.8619
   49DOPE  C313 6303   2.304   5.514   6.917 -0.6047  0.3351 -0.2380
   49DOPE  H13X 6304   2.251   5.604   6.879  1.5852  0.6026 -3.0374
   49DOPE  H13Y 6305   2.224   5.463   6.974 -2.1989  2.6156 -0.3120
   49DOPE  C314 6306   2.417   5.554   7.017 -0.1512 -0.6102 -0.7818
   49DOPE  H14X 6307   2.387   5.649   7.066 -0.4927 -1.7446  1.3292
   49DOPE  H14Y 6308   2.511   5.572   6.960 -1.7056  1.8715 -2.7891
   49DOPE  C315 6309   2.432   5.446   7.130 -0.7812  0.0721 -0.4801
   49DOPE  H15X 6310   2.490   5.359   7.091  1.1337  1.2124 -0.3091
   49DOPE  H15Y 6311   2.335   5.406   7.166 -0.1710  0.3522  1.5737
   49DOPE  C316 6312   2.492   5.513   7.253  0.0954  0.6573  0.5015
   49DOPE  H16X 6313   2.513   5.429   7.323  0.8623  0.9366  0.6133
   49DOPE  H16Y 6314   2.411   5.570   7.303 -1.1711 -2.0688  1.7853
   49DOPE  C317 6315   2.627   5.585   7.228 -0.2382  0.5259  0.1708
   49DOPE  H17X 6316   2.708   5.514   7.203 -0.5329 -0.1212  1.0326
   49DOPE  H17Y 6317   2.616   5.662   7.149 -0.1257  1.5744  1.1525
   49DOPE  C318 6318   2.664   5.659   7.354 -0.2080 -0.6342 -0.2269
   49DOPE  H18X 6319   2.578   5.728   7.370  1.3049  1.0863  0.8176
   49DOPE  H18Y 6320   2.666   5.590   7.441  0.4425 -2.0814 -1.3426
   49DOPE  H18Z 6321   2.756   5.721   7.347  0.1659 -0.9608  1.3283
   50DOPE     N 6322   0.475   3.580   4.834  0.4706 -0.2064 -0.6285
   50DOPE   HN1 6323   0.470   3.477   4.848  1.1966 -0.4856 -2.2672
   50DOPE   HN2 6324   0.383   3.614   4.869  0.7082 -0.1871 -0.0072
   50DOPE   HN3 6325   0.469   3.600   4.732 -2.3154  0.1729 -0.4559
   50DOPE   C12 6326   0.590   3.654   4.901  0.1711 -0.6681 -0.5238
   50DOPE  H12A 6327   0.680   3.611   4.851  0.3614 -0.7369 -0.1220
   50DOPE  H12B 6328   0.596   3.621   5.007  2.4972 -0.6917 -0.5963
   50DOPE   C11 6329   0.585   3.809   4.877  0.1536  0.7309  0.9225
   50DOPE  H11A 6330   0.596   3.815   4.767 -1.9987 -2.7573  0.3600
   50DOPE  H11B 6331   0.670   3.863   4.924 -0.1441  2.5470 -0.5152
   50DOPE     P 6332   0.437   3.919   5.065 -0.3315  0.3099 -0.0693
   50DOPE   O13 6333   0.318   4.012   5.068  0.3718  0.6618  0.3880
   50DOPE   O14 6334   0.566   3.975   5.112 -0.9211 -0.4453  0.3971
   50DOPE   O11 6335   0.410   3.785   5.141  0.1149  0.6112 -0.1637
   50DOPE   O12 6336   0.460   3.862   4.916 -0.2894 -0.4068  0.6207
   50DOPE    C1 6337   0.298   3.697   5.138  0.8626  0.2780 -0.1079
   50DOPE    HA 6338   0.328   3.603   5.087 -1.7221 -0.5035 -0.2969
   50DOPE    HB 6339   0.228   3.739   5.063  1.9366  3.2408  0.3874
   50DOPE    C2 6340   0.225   3.658   5.273 -0.4250  0.1475 -0.0047
   50DOPE    HS 6341   0.157   3.573   5.252 -0.7633  0.1668  0.9726
   50DOPE   O21 6342   0.177   3.773   5.344  0.5343  0.4268 -0.3011
   50DOPE   C21 6343   0.059   3.818   5.308  0.7417  0.3410 -0.3206
   50DOPE   O22 6344  -0.011   3.762   5.230  0.1089 -0.5528 -0.5480
   50DOPE   C22 6345   0.023   3.944   5.382 -0.2706 -0.1178 -0.3786
   50DOPE   H2R 6346  -0.032   4.010   5.312 -1.1937  0.8274  1.1769
   50DOPE   H2S 6347   0.112   3.994   5.427 -1.5177  1.3231  0.5628
   50DOPE    C3 6348   0.331   3.598   5.373 -0.3823  0.3455  0.7773
   50DOPE    HX 6349   0.408   3.678   5.387  0.4136 -0.0489 -1.0684
   50DOPE    HY 6350   0.377   3.510   5.323 -2.4846 -0.0342 -0.6366
   50DOPE   O31 6351   0.264   3.566   5.496 -0.5908 -0.2348  0.7645
   50DOPE   C31 6352   0.330   3.491   5.577  0.6057 -0.3277 -0.1421
   50DOPE   O32 6353   0.439   3.445   5.560 -0.0284  0.0175 -0.6577
   50DOPE   C32 6354   0.226   3.453   5.693 -0.0568 -0.0615 -1.1774
   50DOPE   H2X 6355   0.151   3.535   5.695  0.6454  0.6042  1.2609
   50DOPE   H2Y 6356   0.181   3.354   5.668  1.6633 -1.1528 -0.1629
   50DOPE   C23 6357  -0.064   3.922   5.509 -0.0000 -0.1690 -0.4828
   50DOPE   H3R 6358  -0.154   3.862   5.484 -1.7450  0.8473  2.7982
   50DOPE   H3S 6359  -0.099   4.017   5.555  1.4738 -0.4423  1.3026
   50DOPE   C24 6360   0.014   3.855   5.619  0.0837 -0.0226 -0.4471
   50DOPE   H4R 6361   0.090   3.933   5.641  1.7381 -2.1157  1.8515
   50DOPE   H4S 6362   0.078   3.769   5.591 -1.1882 -0.8381 -0.9560
   50DOPE   C25 6363  -0.065   3.817   5.740  0.5413  0.7140 -0.2244
   50DOPE   H5R 6364  -0.094   3.711   5.722 -1.4269  1.3892 -1.2996
   50DOPE   H5S 6365  -0.160   3.875   5.739 -0.9713 -1.6110 -0.7140
   50DOPE   C26 6366   0.000   3.831   5.880 -0.0010  0.0598 -0.3628
   50DOPE   H6R 6367   0.038   3.935   5.882 -1.5134  0.6480 -0.6295
   50DOPE   H6S 6368   0.084   3.759   5.888 -2.1192 -2.3275  3.2241
   50DOPE   C27 6369  -0.097   3.807   6.004 -0.1644 -0.2486 -0.2397
   50DOPE   H7R 6370  -0.144   3.706   6.004  1.2213 -0.9409 -1.6854
   50DOPE   H7S 6371  -0.178   3.881   5.989  0.0019  0.4477  1.9170
   50DOPE   C28 6372  -0.034   3.840   6.140  0.0278  0.5501 -0.2448
   50DOPE   H8R 6373  -0.091   3.917   6.195  1.2344 -0.8423  3.2732
   50DOPE   H8S 6374   0.072   3.874   6.131  0.2406  0.6186  1.8958
   50DOPE   C29 6375  -0.031   3.716   6.228 -0.2141 -0.2822 -0.7063
   50DOPE   H9R 6376  -0.020   3.621   6.175  2.6579 -0.3640 -0.1409
   50DOPE  C210 6377  -0.057   3.706   6.357 -0.0744  0.2409 -0.1821
   50DOPE  H10R 6378  -0.048   3.609   6.407 -3.1659 -0.3490 -0.5607
   50DOPE  C211 6379  -0.083   3.816   6.456 -0.5086 -0.1680 -0.6185
   50DOPE  H11R 6380  -0.172   3.868   6.416  0.0747  2.5155  1.2664
   50DOPE  H11S 6381  -0.005   3.896   6.459 -0.9746  0.3290 -1.3243
   50DOPE  C212 6382  -0.099   3.764   6.601 -0.6039  0.3210  0.2806
   50DOPE  H12R 6383  -0.007   3.703   6.614  0.2713  1.8632  1.7726
   50DOPE  H12S 6384  -0.186   3.696   6.616 -1.3693  1.2623  0.2501
   50DOPE  C213 6385  -0.095   3.863   6.717 -0.3755 -0.2489  0.3637
   50DOPE  H13R 6386  -0.196   3.910   6.714 -0.8010 -1.1866 -1.7303
   50DOPE  H13S 6387  -0.012   3.936   6.707  0.6032 -1.4735 -0.8156
   50DOPE  C214 6388  -0.071   3.807   6.853  0.4899  0.4926  0.0193
   50DOPE  H14R 6389   0.035   3.774   6.862 -0.2251 -1.6641  1.3077
   50DOPE  H14S 6390  -0.140   3.726   6.883  1.2453  0.7102  2.6362
   50DOPE  C215 6391  -0.093   3.922   6.956 -0.6856 -0.1208  0.2782
   50DOPE  H15R 6392  -0.197   3.960   6.949 -0.4594  0.6678  1.0003
   50DOPE  H15S 6393  -0.021   4.002   6.925 -0.3194 -0.0644  1.2328
   50DOPE  C216 6394  -0.073   3.884   7.105  0.0708 -0.1672  0.1189
   50DOPE  H16R 6395   0.008   3.811   7.123  1.4564  1.2897 -0.0043
   50DOPE  H16S 6396  -0.158   3.819   7.136  0.8799 -0.9819  0.6746
   50DOPE  C217 6397  -0.083   3.996   7.200  0.9810 -0.3190 -0.3966
   50DOPE  H17R 6398  -0.094   3.936   7.293 -1.3587  0.8221  0.1331
   50DOPE  H17S 6399  -0.170   4.062   7.180  1.5171  0.4641 -0.1419
   50DOPE  C218 6400   0.035   4.080   7.217 -0.4507  0.1330  0.3297
   50DOPE  H18R 6401   0.029   4.161   7.293 -0.9017  0.9779 -0.5670
   50DOPE  H18S 6402   0.045   4.135   7.121 -0.4368  1.6643  1.1696
   50DOPE  H18T 6403   0.123   4.019   7.245 -0.1704  0.9891  1.3845
   50DOPE   C33 6404   0.277   3.441   5.841 -0.0940  0.0820  0.2702
   50DOPE   H3X 6405   0.317   3.535   5.885  2.8505  0.0591 -2.0726
   50DOPE   H3Y 6406   0.357   3.364   5.836 -0.4443 -0.2217 -1.1616
   50DOPE   C34 6407   0.166   3.370   5.930  0.4558 -0.2577 -0.0161
   50DOPE   H4X 6408   0.076   3.436   5.931 -1.5007 -2.7655  0.3697
   50DOPE   H4Y 6409   0.143   3.272   5.884  0.5234 -0.3239  0.0927
   50DOPE   C35 6410   0.212   3.349   6.077  0.5878  0.0507 -0.5316
   50DOPE   H5X 6411   0.241   3.448   6.120  1.7550  0.5501 -2.3359
   50DOPE   H5Y 6412   0.300   3.281   6.085  0.2487 -0.3921 -0.4991
   50DOPE   C36 6413   0.096   3.293   6.162  0.1704  0.8054  0.1054
   50DOPE   H6X 6414   0.038   3.226   6.095 -1.0598  0.6066  1.3221
   50DOPE   H6Y 6415   0.034   3.373   6.206  0.1197  1.0964 -0.4940
   50DOPE   C37 6416   0.150   3.203   6.269 -0.5888 -0.6770 -0.5166
   50DOPE   H7X 6417   0.070   3.158   6.331 -0.4068  0.9248  0.9763
   50DOPE   H7Y 6418   0.197   3.118   6.216  0.8227  0.8790 -1.8798
   50DOPE   C38 6419   0.252   3.273   6.363  0.4541  0.1930 -0.4316
   50DOPE   H8X 6420   0.342   3.300   6.304  1.1097 -2.7304 -0.9207
   50DOPE   H8Y 6421   0.294   3.204   6.440  0.7134 -0.2981 -1.0118
   50DOPE   C39 6422   0.206   3.403   6.425  0.9817 -0.1281 -0.3236
   50DOPE   H9X 6423   0.215   3.496   6.367  2.4794  0.4796  0.8139
   50DOPE  C310 6424   0.160   3.416   6.550 -0.0074 -0.4251 -0.1653
   50DOPE  H10X 6425   0.130   3.516   6.583 -1.0336 -0.7287 -0.1541
   50DOPE  C311 6426   0.147   3.308   6.652  0.0584 -0.0538 -0.0602
   50DOPE  H11X 6427   0.145   3.206   6.610 -0.0232 -0.3958  0.7586
   50DOPE  H11Y 6428   0.232   3.304   6.724  0.6522  1.4899 -0.6183
   50DOPE  C312 6429   0.026   3.327   6.743  0.5551  0.1165  0.1145
   50DOPE  H12X 6430   0.018   3.233   6.801  2.2593 -1.7124 -2.4040
   50DOPE  H12Y 6431  -0.067   3.336   6.683  1.6005 -0.4728 -1.6724
   50DOPE  C313 6432   0.040   3.437   6.843  0.4019 -0.8533 -0.6137
   50DOPE  H13X 6433   0.048   3.533   6.789  1.5911 -0.5567  0.0552
   50DOPE  H13Y 6434  -0.057   3.443   6.896  1.1018 -1.4325  0.7757
   50DOPE  C314 6435   0.148   3.429   6.951  0.1332  0.2403  0.2122
   50DOPE  H14X 6436   0.244   3.444   6.898 -0.5796  1.7432 -0.7311
   50DOPE  H14Y 6437   0.156   3.328   6.997  3.0381  1.0657  1.7610
   50DOPE  C315 6438   0.129   3.537   7.064  0.1223  0.1869 -0.3574
   50DOPE  H15X 6439   0.033   3.514   7.115  0.8219  2.4526  2.2296
   50DOPE  H15Y 6440   0.126   3.639   7.020  1.2489  0.8407  1.0179
   50DOPE  C316 6441   0.245   3.554   7.164  0.0877  0.1255  0.6175
   50DOPE  H16X 6442   0.337   3.579   7.107  1.4351 -1.0151  2.2237
   50DOPE  H16Y 6443   0.259   3.472   7.237  0.3998 -0.4363 -0.0701
   50DOPE  C317 6444   0.219   3.668   7.264  0.1360  0.5987 -0.2533
   50DOPE  H17X 6445   0.302   3.666   7.338  0.0974 -0.3745 -0.2223
   50DOPE  H17Y 6446   0.222   3.765   7.210 -0.0516 -0.2535 -1.8514
   50DOPE  C318 6447   0.094   3.653   7.356 -0.9901  0.2575  0.5400
   50DOPE  H18X 6448   0.076   3.735   7.429 -2.2752  1.7441 -1.3389
   50DOPE  H18Y 6449   0.005   3.642   7.290 -0.1893  0.0611 -0.5398
   50DOPE  H18Z 6450   0.104   3.556   7.409 -0.0166  0.2286  0.3299
   51DOPE     N 6451   3.681   6.250   5.501 -0.0043 -0.7054  0.3739
   51DOPE   HN1 6452   3.752   6.325   5.489 -0.7229 -0.4114 -3.1169
   51DOPE   HN2 6453   3.665   6.241   5.603 -2.2391  0.0865  0.1422
   51DOPE   HN3 6454   3.729   6.170   5.454  2.6679  1.4962 -0.9203
   51DOPE   C12 6455   3.553   6.283   5.441  0.1052 -0.2237 -0.1757
   51DOPE  H12A 6456   3.505   6.186   5.418  1.0374 -0.5551 -0.7838
   51DOPE  H12B 6457   3.569   6.343   5.348 -1.0900 -1.1471 -1.0117
   51DOPE   C11 6458   3.467   6.376   5.534  0.4013 -0.7742  0.0106
   51DOPE  H11A 6459   3.531   6.460   5.568 -0.8620  0.7785 -1.3328
   51DOPE  H11B 6460   3.446   6.326   5.631 -1.7515 -1.7578 -0.9084
   51DOPE     P 6461   3.224   6.341   5.474 -0.0705 -0.0087 -0.1866
   51DOPE   O13 6462   3.243   6.218   5.394 -0.0093  0.1134  0.3473
   51DOPE   O14 6463   3.117   6.429   5.418  0.3810  0.1148 -0.1242
   51DOPE   O11 6464   3.200   6.311   5.628 -0.3797  0.3366 -0.3336
   51DOPE   O12 6465   3.354   6.432   5.471  0.5305  0.0299  0.0270
   51DOPE    C1 6466   3.129   6.411   5.696 -0.3911 -0.0712  0.1128
   51DOPE    HA 6467   3.088   6.357   5.784  1.6617 -0.1688  1.0612
   51DOPE    HB 6468   3.058   6.467   5.631  1.2841  1.3975 -0.5357
   51DOPE    C2 6469   3.227   6.514   5.754  0.6032 -0.4140 -0.8539
   51DOPE    HS 6470   3.284   6.561   5.671  1.0460  2.7047  1.0211
   51DOPE   O21 6471   3.307   6.445   5.845 -0.0392  0.1003 -0.0365
   51DOPE   C21 6472   3.428   6.510   5.865  0.6439  0.7554 -0.3939
   51DOPE   O22 6473   3.459   6.607   5.802 -0.2345 -0.0758 -0.1745
   51DOPE   C22 6474   3.507   6.438   5.967  0.0931  0.3197 -0.6360
   51DOPE   H2R 6475   3.588   6.506   6.000  1.5074 -1.1245 -1.0052
   51DOPE   H2S 6476   3.548   6.344   5.923  0.9963  0.3980 -0.0019
   51DOPE    C3 6477   3.148   6.626   5.830  0.1687 -0.2339 -0.1310
   51DOPE    HX 6478   3.079   6.653   5.747  0.5026 -0.2698 -0.4232
   51DOPE    HY 6479   3.211   6.716   5.846 -2.8160  2.8962 -3.9182
   51DOPE   O31 6480   3.070   6.579   5.946 -0.0142 -0.7610  0.4845
   51DOPE   C31 6481   3.128   6.593   6.056  0.4447 -0.7530 -0.2723
   51DOPE   O32 6482   3.233   6.656   6.076 -0.2019  0.3194 -0.0633
   51DOPE   C32 6483   3.052   6.514   6.162  0.5051  0.2935  0.1901
   51DOPE   H2X 6484   2.946   6.546   6.158  0.2385 -0.4736  0.9281
   51DOPE   H2Y 6485   3.057   6.405   6.142  1.1446  0.6294 -1.6721
   51DOPE   C23 6486   3.435   6.389   6.093  0.6969 -0.4888  0.6689
   51DOPE   H3R 6487   3.361   6.312   6.061 -0.8116  1.3783 -0.5881
   51DOPE   H3S 6488   3.378   6.477   6.131 -1.3190 -1.1225 -0.6895
   51DOPE   C24 6489   3.530   6.341   6.201  0.3629 -0.1720  0.6541
   51DOPE   H4R 6490   3.602   6.423   6.222 -0.3364  0.7489 -0.4376
   51DOPE   H4S 6491   3.597   6.257   6.172  1.0980  0.7179 -0.3297
   51DOPE   C25 6492   3.480   6.315   6.341 -0.2802  0.2737 -0.1078
   51DOPE   H5R 6493   3.418   6.223   6.340  2.9403 -2.1220  1.4905
   51DOPE   H5S 6494   3.435   6.410   6.377  2.0248  2.1540 -1.7672
   51DOPE   C26 6495   3.591   6.274   6.444 -0.5658  0.4441 -0.6448
   51DOPE   H6R 6496   3.678   6.342   6.442 -0.6678  0.7006  1.3906
   51DOPE   H6S 6497   3.622   6.172   6.413  1.5446  1.6535 -2.8282
   51DOPE   C27 6498   3.543   6.273   6.588  0.2907 -0.0644 -1.7131
   51DOPE   H7R 6499   3.444   6.221   6.593  0.4207 -0.2284 -0.2685
   51DOPE   H7S 6500   3.508   6.375   6.612  0.3950 -0.2892 -0.5186
   51DOPE   C28 6501   3.645   6.222   6.687 -0.1979  0.4659 -0.0548
   51DOPE   H8R 6502   3.701   6.134   6.648 -1.7811 -1.8301  2.4697
   51DOPE   H8S 6503   3.597   6.177   6.777  0.6043 -2.4803 -0.9891
   51DOPE   C29 6504   3.740   6.330   6.714 -0.2088 -0.5301  0.6344
   51DOPE   H9R 6505   3.723   6.409   6.640 -0.7374 -1.9198 -0.8062
   51DOPE  C210 6506   3.804   6.347   6.831 -0.0938 -0.3356 -0.0357
   51DOPE  H10R 6507   3.862   6.440   6.842 -3.5412  1.9431  0.5626
   51DOPE  C211 6508   3.811   6.249   6.949  0.4136 -0.0522  0.0245
   51DOPE  H11R 6509   3.811   6.147   6.905 -0.4447  0.5475 -1.4201
   51DOPE  H11S 6510   3.727   6.264   7.019  0.3414  1.8981 -0.4137
   51DOPE  C212 6511   3.947   6.262   7.013  0.4457  0.1142 -0.1263
   51DOPE  H12R 6512   4.038   6.262   6.949  0.9073  0.8224  0.5123
   51DOPE  H12S 6513   3.951   6.170   7.075 -5.0197 -0.6339 -0.4187
   51DOPE  C213 6514   3.955   6.383   7.105 -0.3742 -0.3718 -0.3785
   51DOPE  H13R 6515   3.874   6.377   7.180  1.0327 -0.0552  1.2235
   51DOPE  H13S 6516   3.937   6.478   7.051  1.2515  0.1897  0.0205
   51DOPE  C214 6517   4.083   6.392   7.196 -0.4025 -0.2735  0.2911
   51DOPE  H14R 6518   4.174   6.399   7.133 -0.8229  0.2667 -0.2696
   51DOPE  H14S 6519   4.081   6.296   7.251 -0.3773  0.5808  1.8483
   51DOPE  C215 6520   4.086   6.509   7.291 -0.3402 -0.6644 -0.4552
   51DOPE  H15R 6521   3.986   6.525   7.338  0.4490 -1.3845  1.5813
   51DOPE  H15S 6522   4.118   6.603   7.243  0.9054 -0.2685  1.0786
   51DOPE  C216 6523   4.186   6.485   7.406 -0.1673  0.3300  0.0801
   51DOPE  H16R 6524   4.285   6.473   7.357  0.3710  1.9021  0.7130
   51DOPE  H16S 6525   4.155   6.394   7.461 -0.1321  1.7272  2.5187
   51DOPE  C217 6526   4.191   6.600   7.513 -0.3668  0.5853  0.3653
   51DOPE  H17R 6527   4.091   6.650   7.514  0.2332  1.9562 -1.3572
   51DOPE  H17S 6528   4.250   6.678   7.461 -2.3473  1.0000 -1.4520
   51DOPE  C218 6529   4.248   6.566   7.652 -0.4019 -1.0747  0.6232
   51DOPE  H18R 6530   4.351   6.526   7.643  0.2919  1.0448 -3.4161
   51DOPE  H18S 6531   4.180   6.498   7.707 -0.0400 -1.5729  0.4562
   51DOPE  H18T 6532   4.250   6.665   7.703  1.1874  0.2034 -1.7085
   51DOPE   C33 6533   3.113   6.542   6.302  0.0782 -0.4094 -0.2340
   51DOPE   H3X 6534   3.095   6.650   6.322 -1.1513 -0.4970 -0.7340
   51DOPE   H3Y 6535   3.223   6.535   6.297  0.1382  0.5655 -0.4766
   51DOPE   C34 6536   3.053   6.458   6.416 -0.1237  0.4660  0.0844
   51DOPE   H4X 6537   2.944   6.476   6.423 -0.4845 -0.9775 -1.2226
   51DOPE   H4Y 6538   3.073   6.353   6.387 -0.0322  0.5182 -0.0428
   51DOPE   C35 6539   3.126   6.490   6.547 -0.2360 -0.3709  0.1503
   51DOPE   H5X 6540   3.093   6.591   6.581 -2.2962 -1.0485  0.2830
   51DOPE   H5Y 6541   3.231   6.499   6.513  0.4364  1.0971  2.3717
   51DOPE   C36 6542   3.117   6.393   6.667  0.4081 -0.9578 -0.2152
   51DOPE   H6X 6543   3.143   6.293   6.627  1.3929 -1.0362  0.5778
   51DOPE   H6Y 6544   3.010   6.385   6.698  0.1080  0.2770 -0.8694
   51DOPE   C37 6545   3.204   6.439   6.790 -0.5649 -0.0888  0.2192
   51DOPE   H7X 6546   3.312   6.445   6.765 -0.9649 -0.5662 -1.7676
   51DOPE   H7Y 6547   3.163   6.541   6.807  3.8463  2.0056 -0.3331
   51DOPE   C38 6548   3.184   6.365   6.926  0.3649 -0.1221  0.0809
   51DOPE   H8X 6549   3.073   6.373   6.934  0.4665  3.4382 -0.5206
   51DOPE   H8Y 6550   3.218   6.428   7.010 -0.8426  2.0089 -0.9427
   51DOPE   C39 6551   3.248   6.230   6.927  0.3499  0.1180  0.1232
   51DOPE   H9X 6552   3.205   6.161   6.853 -0.4081 -0.8958  1.4479
   51DOPE  C310 6553   3.354   6.190   7.000 -0.7346 -0.4252  0.2499
   51DOPE  H10X 6554   3.401   6.093   6.981 -0.6015 -0.2200 -0.4757
   51DOPE  C311 6555   3.428   6.262   7.107 -0.3450  0.3247  0.3270
   51DOPE  H11X 6556   3.538   6.253   7.107 -0.3688 -1.2348  2.9867
   51DOPE  H11Y 6557   3.414   6.371   7.096  2.1233  0.4697 -2.3428
   51DOPE  C312 6558   3.402   6.215   7.253 -0.1363  0.4529  0.2375
   51DOPE  H12X 6559   3.426   6.106   7.263 -2.2003 -0.0912 -0.2996
   51DOPE  H12Y 6560   3.292   6.215   7.265 -0.2758 -0.2713 -0.8550
   51DOPE  C313 6561   3.490   6.294   7.358  0.2179  0.1233  0.4090
   51DOPE  H13X 6562   3.598   6.294   7.331  0.5466  0.4090  1.6622
   51DOPE  H13Y 6563   3.463   6.401   7.367 -4.0087 -0.7247  0.1953
   51DOPE  C314 6564   3.470   6.220   7.494 -0.4813 -0.0655 -0.1789
   51DOPE  H14X 6565   3.501   6.113   7.484  3.3347  0.8468  0.5083
   51DOPE  H14Y 6566   3.365   6.231   7.528 -0.0740  2.2386  0.5042
   51DOPE  C315 6567   3.563   6.279   7.596  0.4235 -0.0140  0.3740
   51DOPE  H15X 6568   3.524   6.383   7.608 -0.9825 -0.1136 -2.4698
   51DOPE  H15Y 6569   3.658   6.296   7.541 -0.6771 -1.4764 -2.1649
   51DOPE  C316 6570   3.580   6.216   7.736  0.0362 -0.1925  0.7399
   51DOPE  H16X 6571   3.597   6.109   7.714  0.0403 -0.3690  1.5601
   51DOPE  H16Y 6572   3.480   6.222   7.785 -0.6077  1.1825 -0.6669
   51DOPE  C317 6573   3.689   6.282   7.821  0.0636  0.4364 -0.5624
   51DOPE  H17X 6574   3.690   6.391   7.802 -1.1973  0.7710  1.0750
   51DOPE  H17Y 6575   3.671   6.274   7.931 -1.7573 -0.5932 -0.9030
   51DOPE  C318 6576   3.827   6.231   7.778 -0.3668 -0.6045 -0.5585
   51DOPE  H18X 6577   3.900   6.242   7.861 -2.2996  0.5209  1.0803
   51DOPE  H18Y 6578   3.815   6.122   7.759 -1.7626 -0.7258  0.7770
   51DOPE  H18Z 6579   3.864   6.300   7.700 -0.5669  1.8438  1.4090
   52DOPE     N 6580   0.478   4.766   5.152  0.4151 -0.7442 -0.2136
   52DOPE   HN1 6581   0.532   4.834   5.210 -1.8241  0.8141  0.1577
   52DOPE   HN2 6582   0.545   4.701   5.107  0.8404 -2.2427  2.3838
   52DOPE   HN3 6583   0.432   4.822   5.078  0.7696 -1.7284 -1.2030
   52DOPE   C12 6584   0.360   4.703   5.217  0.9661  0.3702 -0.3176
   52DOPE  H12A 6585   0.389   4.647   5.308  0.7744  1.7759  0.6458
   52DOPE  H12B 6586   0.318   4.620   5.156  2.6737 -0.2530 -0.6906
   52DOPE   C11 6587   0.251   4.811   5.234 -0.1996 -0.5929  0.3967
   52DOPE  H11A 6588   0.281   4.885   5.311  1.1776 -3.4458  2.8286
   52DOPE  H11B 6589   0.161   4.766   5.281 -0.1240 -0.8268  0.3208
   52DOPE     P 6590   0.081   4.910   5.054 -0.0625 -0.3399 -0.3079
   52DOPE   O13 6591   0.012   4.788   5.001  0.2324  0.5151  0.4169
   52DOPE   O14 6592   0.077   5.031   4.965  0.9570  0.0098 -0.4004
   52DOPE   O11 6593   0.016   4.947   5.186 -0.0831 -0.7683 -0.5930
   52DOPE   O12 6594   0.225   4.876   5.107  0.6555  0.0988  0.7835
   52DOPE    C1 6595  -0.126   4.976   5.210 -0.0105 -0.2153 -0.1261
   52DOPE    HA 6596  -0.172   5.004   5.112 -1.1487  1.0868  0.7461
   52DOPE    HB 6597  -0.129   5.064   5.277 -0.2284 -0.1365 -0.2387
   52DOPE    C2 6598  -0.208   4.866   5.284  0.3698  0.1068 -0.2060
   52DOPE    HS 6599  -0.298   4.923   5.316 -0.5870 -0.4548 -1.8229
   52DOPE   O21 6600  -0.128   4.825   5.389  0.0752  0.0836 -0.1338
   52DOPE   C21 6601  -0.195   4.779   5.497 -0.1417  0.3390  0.5803
   52DOPE   O22 6602  -0.314   4.759   5.505  0.9161 -0.0948  0.3547
   52DOPE   C22 6603  -0.099   4.744   5.610 -0.2854 -0.1525  0.1087
   52DOPE   H2R 6604  -0.013   4.814   5.615 -0.6366  0.4073 -1.2814
   52DOPE   H2S 6605  -0.059   4.642   5.590  1.6506  0.4692  0.6100
   52DOPE    C3 6606  -0.253   4.748   5.186  0.3835 -0.5488  0.2916
   52DOPE    HX 6607  -0.165   4.692   5.146  0.6598 -0.4387  0.7381
   52DOPE    HY 6608  -0.312   4.796   5.105 -1.1487 -0.1557  1.5909
   52DOPE   O31 6609  -0.337   4.654   5.251 -0.5584 -0.4819 -0.1382
   52DOPE   C31 6610  -0.305   4.534   5.268  0.7396  0.4474 -0.9098
   52DOPE   O32 6611  -0.209   4.471   5.225 -0.0917 -0.2507  0.2506
   52DOPE   C32 6612  -0.407   4.469   5.367  0.4546  0.0853  0.5707
   52DOPE   H2X 6613  -0.453   4.543   5.437  1.9363 -0.4361  2.1626
   52DOPE   H2Y 6614  -0.490   4.435   5.302  1.8117  1.3654 -1.9947
   52DOPE   C23 6615  -0.185   4.739   5.737 -0.8941  0.4459  1.1602
   52DOPE   H3R 6616  -0.237   4.641   5.729 -1.2748  0.7770 -1.3075
   52DOPE   H3S 6617  -0.264   4.817   5.735  0.4856  1.9204  2.7533
   52DOPE   C24 6618  -0.104   4.740   5.870 -0.0589  0.5823  0.4250
   52DOPE   H4R 6619  -0.037   4.828   5.868  0.8619 -0.1246 -0.5503
   52DOPE   H4S 6620  -0.048   4.644   5.869  2.4781  1.9942  0.8808
   52DOPE   C25 6621  -0.207   4.725   5.988 -0.2263 -0.6289 -0.8440
   52DOPE   H5R 6622  -0.145   4.675   6.065  0.9484 -1.9086 -2.5355
   52DOPE   H5S 6623  -0.300   4.668   5.963 -2.1028  1.9380 -0.1113
   52DOPE   C26 6624  -0.239   4.857   6.056  0.2987 -0.4515 -0.3136
   52DOPE   H6R 6625  -0.276   4.921   5.974  0.5526  1.1847  0.7985
   52DOPE   H6S 6626  -0.146   4.909   6.088  0.9286  0.5701 -3.4306
   52DOPE   C27 6627  -0.356   4.850   6.158 -0.3934 -0.9040  0.4618
   52DOPE   H7R 6628  -0.438   4.800   6.104 -0.3303  0.1453 -0.6519
   52DOPE   H7S 6629  -0.404   4.949   6.175 -1.1617 -0.9371 -1.3511
   52DOPE   C28 6630  -0.323   4.781   6.288 -0.1951  0.8054 -0.6023
   52DOPE   H8R 6631  -0.242   4.704   6.281 -2.2174 -1.4576 -0.3933
   52DOPE   H8S 6632  -0.416   4.730   6.321  0.0045 -0.7049 -2.1729
   52DOPE   C29 6633  -0.274   4.881   6.396  0.5841 -0.0729  0.3275
   52DOPE   H9R 6634  -0.182   4.934   6.365  0.3832 -0.2399 -0.5962
   52DOPE  C210 6635  -0.309   4.902   6.524 -0.1706  0.1366 -0.1092
   52DOPE  H10R 6636  -0.270   4.992   6.575  0.8237  0.3681 -1.2457
   52DOPE  C211 6637  -0.426   4.832   6.596  0.6193  0.2155 -0.6094
   52DOPE  H11R 6638  -0.492   4.769   6.532  1.7044 -2.8242  1.0694
   52DOPE  H11S 6639  -0.486   4.911   6.647  0.8034 -0.7982  1.2176
   52DOPE  C212 6640  -0.362   4.746   6.703  0.8410  0.6937 -0.5180
   52DOPE  H12R 6641  -0.287   4.686   6.647  0.2613  0.9601 -1.6009
   52DOPE  H12S 6642  -0.439   4.676   6.742  1.4503 -0.2519 -0.9724
   52DOPE  C213 6643  -0.307   4.822   6.826 -0.1872  0.6874 -0.6291
   52DOPE  H13R 6644  -0.373   4.891   6.883  0.3719 -0.5374  1.6492
   52DOPE  H13S 6645  -0.225   4.889   6.794 -1.6147  2.7432 -0.1793
   52DOPE  C214 6646  -0.249   4.723   6.936  0.3463  0.2028 -0.5914
   52DOPE  H14R 6647  -0.150   4.695   6.895  1.4296 -0.4525  2.2461
   52DOPE  H14S 6648  -0.313   4.634   6.953 -1.8873  1.3726 -2.3544
   52DOPE  C215 6649  -0.214   4.795   7.072  0.1445  0.1706  0.1188
   52DOPE  H15R 6650  -0.307   4.803   7.131  0.6688  2.2926  0.7448
   52DOPE  H15S 6651  -0.190   4.903   7.058  0.1769  0.0456 -0.9226
   52DOPE  C216 6652  -0.122   4.721   7.161  0.1637  0.0068 -0.7850
   52DOPE  H16R 6653  -0.034   4.688   7.102 -0.0179  1.9707 -2.2484
   52DOPE  H16S 6654  -0.178   4.633   7.199  2.4504  0.2528  3.8235
   52DOPE  C217 6655  -0.075   4.807   7.283 -0.3121  0.7432 -0.4646
   52DOPE  H17R 6656  -0.150   4.811   7.365  0.3873 -0.1694  0.2433
   52DOPE  H17S 6657  -0.045   4.910   7.255  4.7049 -0.2287  0.4234
   52DOPE  C218 6658   0.051   4.747   7.352 -0.1489  0.1418  0.0819
   52DOPE  H18R 6659   0.051   4.792   7.454 -2.4326 -1.6941  0.9707
   52DOPE  H18S 6660   0.052   4.638   7.374 -2.3794  0.2812  1.0942
   52DOPE  H18T 6661   0.139   4.773   7.289 -1.1176 -0.4261 -1.5781
   52DOPE   C33 6662  -0.345   4.354   5.453  0.1319 -0.3360  0.3016
   52DOPE   H3X 6663  -0.297   4.287   5.378  0.2810 -1.7173  1.5956
   52DOPE   H3Y 6664  -0.428   4.295   5.497 -0.7881  1.0892  0.5373
   52DOPE   C34 6665  -0.235   4.403   5.553  0.4257 -0.3997  0.5795
   52DOPE   H4X 6666  -0.146   4.457   5.515 -0.4794  0.4398 -0.3993
   52DOPE   H4Y 6667  -0.289   4.476   5.617 -0.5297  0.8110 -1.5050
   52DOPE   C35 6668  -0.195   4.295   5.644  0.1281  0.6607 -0.3434
   52DOPE   H5X 6669  -0.110   4.234   5.606 -0.5606 -1.3189  1.1432
   52DOPE   H5Y 6670  -0.270   4.213   5.653  1.0328  0.0194  2.2318
   52DOPE   C36 6671  -0.162   4.345   5.794  0.1878  0.2613 -0.0525
   52DOPE   H6X 6672  -0.237   4.417   5.832  0.0253 -0.2714  0.6625
   52DOPE   H6Y 6673  -0.065   4.399   5.790  0.0413  0.4737 -0.7057
   52DOPE   C37 6674  -0.138   4.222   5.889 -0.0292  0.8219  0.2899
   52DOPE   H7X 6675  -0.236   4.175   5.914  0.0022 -0.2624 -1.4102
   52DOPE   H7Y 6676  -0.065   4.154   5.841 -1.7150 -0.0562 -1.1496
   52DOPE   C38 6677  -0.077   4.247   6.025  0.1671 -0.3474  0.3265
   52DOPE   H8X 6678   0.018   4.305   6.015 -0.4118  0.4728 -0.6254
   52DOPE   H8Y 6679  -0.062   4.149   6.075  1.7550  1.1194  2.9689
   52DOPE   C39 6680  -0.156   4.340   6.114  0.0887  0.2455  0.5118
   52DOPE   H9X 6681  -0.249   4.380   6.070 -0.6878  1.0151  2.6877
   52DOPE  C310 6682  -0.154   4.356   6.246 -0.5397  0.5990 -0.6769
   52DOPE  H10X 6683  -0.238   4.414   6.289 -0.8226 -1.1331  1.3053
   52DOPE  C311 6684  -0.054   4.291   6.334 -1.1197 -0.6260  0.1196
   52DOPE  H11X 6685   0.040   4.263   6.281 -0.0580 -0.7008  1.9542
   52DOPE  H11Y 6686  -0.017   4.361   6.412  1.4573 -0.3422 -1.2180
   52DOPE  C312 6687  -0.113   4.164   6.407  0.2942 -0.2193  0.6675
   52DOPE  H12X 6688  -0.032   4.103   6.453  2.1723  1.4567 -0.2468
   52DOPE  H12Y 6689  -0.154   4.096   6.329  1.0752 -1.7012  1.5103
   52DOPE  C313 6690  -0.232   4.188   6.502  0.0974  0.2163  0.1714
   52DOPE  H13X 6691  -0.315   4.232   6.443 -0.1558  0.9395  1.0390
   52DOPE  H13Y 6692  -0.257   4.086   6.539  2.0871 -0.2578  0.3083
   52DOPE  C314 6693  -0.217   4.288   6.620 -0.4062 -0.7571 -0.6849
   52DOPE  H14X 6694  -0.200   4.397   6.607 -0.9960 -0.7071 -1.0849
   52DOPE  H14Y 6695  -0.138   4.250   6.688 -0.2414  0.8530  0.0670
   52DOPE  C315 6696  -0.356   4.288   6.703 -0.0118 -0.3603 -0.3528
   52DOPE  H15X 6697  -0.383   4.181   6.716  0.1786 -0.3389  0.2539
   52DOPE  H15Y 6698  -0.436   4.335   6.641 -0.0293  3.9697  2.4944
   52DOPE  C316 6699  -0.335   4.356   6.839  0.1723 -0.2245  0.1128
   52DOPE  H16X 6700  -0.438   4.373   6.878  0.0495 -0.5066 -0.0870
   52DOPE  H16Y 6701  -0.284   4.453   6.827  0.3499 -0.5948 -2.8376
   52DOPE  C317 6702  -0.261   4.283   6.938 -0.8551  1.1076  0.2146
   52DOPE  H17X 6703  -0.318   4.193   6.969  0.9354  0.1597  0.8852
   52DOPE  H17Y 6704  -0.171   4.235   6.893 -2.8674 -1.3639 -1.4584
   52DOPE  C318 6705  -0.214   4.363   7.054  0.2026  0.1264  0.3119
   52DOPE  H18X 6706  -0.164   4.306   7.135 -2.2260 -1.6352  0.6605
   52DOPE  H18Y 6707  -0.131   4.433   7.027  0.3681 -0.4615 -0.7388
   52DOPE  H18Z 6708  -0.298   4.421   7.098 -1.6073 -1.1282 -1.3181
   53DOPE     N 6709   5.625   5.941   5.572  0.8431 -0.1228 -1.0929
   53DOPE   HN1 6710   5.602   5.943   5.470 -2.4955 -3.0265 -0.6029
   53DOPE   HN2 6711   5.722   5.973   5.588  0.5932  0.8205 -1.3877
   53DOPE   HN3 6712   5.615   5.845   5.612  0.8953  1.5964  3.7278
   53DOPE   C12 6713   5.555   6.049   5.649  0.4947  0.4895  0.1012
   53DOPE  H12A 6714   5.451   6.043   5.611  0.2225  0.6882  0.8157
   53DOPE  H12B 6715   5.609   6.143   5.623  0.4733  0.5359  0.2270
   53DOPE   C11 6716   5.569   6.028   5.806  0.0707  0.3457 -0.6645
   53DOPE  H11A 6717   5.544   6.121   5.861 -0.8831 -0.1846 -0.1775
   53DOPE  H11B 6718   5.677   6.026   5.830  0.0642 -0.4273 -0.6600
   53DOPE     P 6719   5.349   5.927   5.911 -0.0227  0.0988  0.2646
   53DOPE   O13 6720   5.290   5.788   5.934 -0.0183 -0.0390 -0.3614
   53DOPE   O14 6721   5.277   6.013   5.812 -0.5339  0.1771 -0.1302
   53DOPE   O11 6722   5.379   6.004   6.038  0.7394  0.1602 -0.3131
   53DOPE   O12 6723   5.502   5.916   5.866  0.7238  0.4092  0.2185
   53DOPE    C1 6724   5.466   5.963   6.143 -0.2100 -0.0898 -0.2085
   53DOPE    HA 6725   5.538   6.045   6.165  0.5758 -0.5852 -0.8746
   53DOPE    HB 6726   5.519   5.868   6.120  1.5429  1.1673 -1.6154
   53DOPE    C2 6727   5.390   5.957   6.285 -0.8798  0.6191  0.3276
   53DOPE    HS 6728   5.463   5.959   6.368 -0.8120 -0.3189  0.3088
   53DOPE   O21 6729   5.328   5.821   6.295 -0.5042  0.0240  0.1631
   53DOPE   C21 6730   5.416   5.719   6.317  0.2091 -0.8852 -0.1441
   53DOPE   O22 6731   5.533   5.731   6.324 -0.2541 -0.3478  0.3369
   53DOPE   C22 6732   5.336   5.593   6.340  0.3239  0.0621 -0.0959
   53DOPE   H2R 6733   5.298   5.558   6.242  1.3864 -0.0332 -0.4813
   53DOPE   H2S 6734   5.255   5.624   6.410 -1.0203  0.1182 -1.6304
   53DOPE    C3 6735   5.298   6.074   6.313 -0.1888 -0.3418 -0.7418
   53DOPE    HX 6736   5.229   6.095   6.228  1.4171  0.4390 -1.9100
   53DOPE    HY 6737   5.363   6.164   6.321 -2.4405  1.2290  1.5738
   53DOPE   O31 6738   5.219   6.049   6.432  0.4242  0.3718  1.0247
   53DOPE   C31 6739   5.281   6.072   6.553 -0.4845 -0.2356  0.2591
   53DOPE   O32 6740   5.397   6.109   6.564  0.3661  0.2755 -0.1027
   53DOPE   C32 6741   5.185   6.046   6.668 -0.3177  0.4983 -0.4884
   53DOPE   H2X 6742   5.107   6.124   6.678 -0.8097 -0.0596  0.2145
   53DOPE   H2Y 6743   5.139   5.947   6.648 -2.1573  1.7861 -3.0753
   53DOPE   C23 6744   5.413   5.465   6.395 -0.1814 -0.1007 -0.5432
   53DOPE   H3R 6745   5.491   5.440   6.320 -1.6613  1.4555 -2.7573
   53DOPE   H3S 6746   5.340   5.382   6.396 -2.4169  1.7371  1.4659
   53DOPE   C24 6747   5.487   5.487   6.534  0.3450  0.2845  0.5522
   53DOPE   H4R 6748   5.574   5.554   6.516  1.3094 -1.2697 -0.7919
   53DOPE   H4S 6749   5.532   5.389   6.561 -2.6712 -1.7771 -1.2481
   53DOPE   C25 6750   5.387   5.529   6.644  0.5902 -0.2384  0.4522
   53DOPE   H5R 6751   5.325   5.441   6.671 -0.0522 -0.1119 -0.5818
   53DOPE   H5S 6752   5.322   5.614   6.615  0.7169  0.2326  1.4800
   53DOPE   C26 6753   5.458   5.551   6.771  0.3740  0.5622 -0.4875
   53DOPE   H6R 6754   5.532   5.634   6.759  0.7643  0.2399 -0.3016
   53DOPE   H6S 6755   5.503   5.455   6.803 -1.3795 -0.6707 -1.5528
   53DOPE   C27 6756   5.359   5.586   6.882 -0.1754  0.2057 -0.3146
   53DOPE   H7R 6757   5.275   5.514   6.890 -0.6512  0.7448 -0.4003
   53DOPE   H7S 6758   5.309   5.684   6.871 -0.0344  0.4290  0.9431
   53DOPE   C28 6759   5.430   5.592   7.022  0.5214 -0.2047  0.1052
   53DOPE   H8R 6760   5.373   5.657   7.092 -2.4032 -0.1351 -2.1409
   53DOPE   H8S 6761   5.535   5.629   7.014  0.4736 -0.4518 -4.3392
   53DOPE   C29 6762   5.434   5.459   7.087  0.3338  0.5962  0.2778
   53DOPE   H9R 6763   5.439   5.370   7.023  1.6816 -0.5585  1.9086
   53DOPE  C210 6764   5.426   5.433   7.221  0.2775 -0.0799 -0.5631
   53DOPE  H10R 6765   5.423   5.328   7.250 -1.0553 -0.2483 -1.2340
   53DOPE  C211 6766   5.422   5.538   7.336  0.0552 -0.4354  0.4267
   53DOPE  H11R 6767   5.349   5.501   7.411  0.2854 -1.1391  0.3168
   53DOPE  H11S 6768   5.387   5.637   7.300  0.9990 -0.4048 -0.4562
   53DOPE  C212 6769   5.567   5.553   7.389  0.5521  0.2659 -0.3711
   53DOPE  H12R 6770   5.612   5.455   7.416 -0.7107 -0.1481  0.3017
   53DOPE  H12S 6771   5.567   5.621   7.477 -0.9529 -1.5142  1.0926
   53DOPE  C213 6772   5.656   5.619   7.287 -0.0679 -0.4237  0.3781
   53DOPE  H13R 6773   5.604   5.706   7.243 -1.6128 -2.0315 -1.0982
   53DOPE  H13S 6774   5.668   5.539   7.210  0.8599 -1.9146  1.9820
   53DOPE  C214 6775   5.794   5.647   7.323 -0.3550 -0.9946 -0.5939
   53DOPE  H14R 6776   5.802   5.716   7.410  2.5089 -2.6149  0.5857
   53DOPE  H14S 6777   5.835   5.704   7.237 -2.9513  0.6369 -0.8592
   53DOPE  C215 6778   5.889   5.531   7.345  0.0587  0.1447 -0.3759
   53DOPE  H15R 6779   5.891   5.485   7.243 -0.0677  0.7837 -0.6721
   53DOPE  H15S 6780   5.838   5.465   7.419  1.5149  0.7903  1.2469
   53DOPE  C216 6781   6.033   5.557   7.395 -0.5222  0.5019  0.6952
   53DOPE  H16R 6782   6.087   5.628   7.328  1.6229 -3.0294 -1.6271
   53DOPE  H16S 6783   6.096   5.467   7.382  0.7748  0.6922  4.4193
   53DOPE  C217 6784   6.035   5.602   7.539 -0.1699  0.2839 -0.2904
   53DOPE  H17R 6785   6.118   5.548   7.589  0.2915  1.0387 -0.2269
   53DOPE  H17S 6786   5.930   5.592   7.574  0.5811  0.1439  2.1098
   53DOPE  C218 6787   6.062   5.748   7.562  0.3208 -0.3366 -0.3382
   53DOPE  H18R 6788   6.138   5.786   7.491  0.4016  0.3181  0.0919
   53DOPE  H18S 6789   6.089   5.776   7.666 -0.6783  3.4848 -0.9686
   53DOPE  H18T 6790   5.966   5.804   7.552 -1.2197 -2.5911  0.6791
   53DOPE   C33 6791   5.275   6.044   6.793 -0.0487 -0.2859  0.4699
   53DOPE   H3X 6792   5.327   6.142   6.804 -1.0010  0.6622 -2.5037
   53DOPE   H3Y 6793   5.360   5.974   6.773  1.8735  1.4771  2.0611
   53DOPE   C34 6794   5.189   6.002   6.911  0.0297  0.3564 -0.6504
   53DOPE   H4X 6795   5.111   6.080   6.926 -1.2334 -0.7228 -1.4153
   53DOPE   H4Y 6796   5.147   5.901   6.891  0.3344  0.4764 -2.0658
   53DOPE   C35 6797   5.261   5.974   7.044  0.9335  0.0600  0.0701
   53DOPE   H5X 6798   5.330   6.054   7.079  1.1749  0.7402 -1.8492
   53DOPE   H5Y 6799   5.327   5.886   7.028  1.1061  0.5114 -1.9601
   53DOPE   C36 6800   5.152   5.950   7.156  0.0347  0.1942  0.0524
   53DOPE   H6X 6801   5.082   5.876   7.111 -0.3220 -0.3208  1.4259
   53DOPE   H6Y 6802   5.102   6.046   7.181 -0.1221  0.0120  0.4276
   53DOPE   C37 6803   5.210   5.895   7.285 -0.4698  0.2868 -0.4173
   53DOPE   H7X 6804   5.133   5.840   7.344 -1.7412  1.9290 -0.4877
   53DOPE   H7Y 6805   5.277   5.808   7.270 -0.0708  0.4128  0.5275
   53DOPE   C38 6806   5.281   5.997   7.380 -0.4510  0.0366 -0.6249
   53DOPE   H8X 6807   5.214   6.029   7.462  3.2224  1.1258  2.2474
   53DOPE   H8Y 6808   5.305   6.091   7.326 -3.1160  0.9949 -0.2716
   53DOPE   C39 6809   5.400   5.932   7.441  0.1704  0.0408 -0.3323
   53DOPE   H9X 6810   5.474   5.894   7.368  0.2037 -0.7247  0.0824
   53DOPE  C310 6811   5.421   5.903   7.575  0.0367  0.3614 -0.4572
   53DOPE  H10X 6812   5.518   5.872   7.616 -1.4266  0.4767  3.5813
   53DOPE  C311 6813   5.308   5.908   7.686  0.1741 -0.5157 -0.5137
   53DOPE  H11X 6814   5.221   5.957   7.638  0.0198 -0.6781 -0.4021
   53DOPE  H11Y 6815   5.272   5.805   7.707  1.3123 -0.8256 -0.0008
   53DOPE  C312 6816   5.340   5.989   7.816  0.4379 -0.4732  0.1354
   53DOPE  H12X 6817   5.420   5.923   7.855  1.1633 -0.4918 -1.3555
   53DOPE  H12Y 6818   5.247   5.991   7.878  0.5768  2.1804  0.3749
   53DOPE  C313 6819   5.408   6.126   7.802  0.4159  0.6320 -1.1233
   53DOPE  H13X 6820   5.510   6.104   7.762  1.3357  0.4653  1.1429
   53DOPE  H13Y 6821   5.363   6.192   7.725  0.7027  2.1295 -0.0302
   53DOPE  C314 6822   5.418   6.198   7.934  0.4053 -0.1355 -0.7298
   53DOPE  H14X 6823   5.484   6.137   7.999  0.0011  1.5151  1.3437
   53DOPE  H14Y 6824   5.322   6.205   7.990  1.6569 -0.2821  1.5356
   53DOPE  C315 6825   5.474   6.340   7.913  0.4450  0.0398  0.4589
   53DOPE  H15X 6826   5.405   6.421   7.882  0.8914  1.2313  2.4348
   53DOPE  H15Y 6827   5.560   6.335   7.842  0.5360 -0.2684  0.5885
   53DOPE  C316 6828   5.534   6.403   8.040 -0.5635  0.0070  0.0908
   53DOPE  H16X 6829   5.487   6.370   8.135  0.3114 -0.5357  0.3415
   53DOPE  H16Y 6830   5.527   6.514   8.028 -1.4699 -0.2017 -1.8242
   53DOPE  C317 6831   5.677   6.352   8.052 -0.6531  0.3615  0.1952
   53DOPE  H17X 6832   5.682   6.242   8.068 -2.3294 -0.2274 -2.6237
   53DOPE  H17Y 6833   5.727   6.374   7.956 -0.9603  1.4255  0.2650
   53DOPE  C318 6834   5.756   6.420   8.167  0.3386 -0.4468  0.1906
   53DOPE  H18X 6835   5.749   6.531   8.162  0.6637 -0.4186  0.3708
   53DOPE  H18Y 6836   5.708   6.400   8.265 -0.9250 -3.7861 -0.9644
   53DOPE  H18Z 6837   5.859   6.379   8.166  1.0810  1.1481  2.7719
   54DOPE     N 6838   6.641   3.350   4.531  0.1477 -0.2515 -0.1467
   54DOPE   HN1 6839   6.692   3.269   4.570  0.9536  0.3420  0.0719
   54DOPE   HN2 6840   6.537   3.344   4.538  0.1360  0.5178  0.4846
   54DOPE   HN3 6841   6.679   3.365   4.436  0.9126  3.3290  0.5772
   54DOPE   C12 6842   6.696   3.467   4.612  0.6519 -0.2899 -0.6749
   54DOPE  H12A 6843   6.637   3.556   4.582  1.2248  0.5187  0.5336
   54DOPE  H12B 6844   6.804   3.487   4.594  0.0774  2.0370 -1.9393
   54DOPE   C11 6845   6.666   3.434   4.760 -0.3104  0.6885 -0.3855
   54DOPE  H11A 6846   6.558   3.434   4.787 -0.5669 -1.3640 -1.1873
   54DOPE  H11B 6847   6.700   3.516   4.826 -2.1206 -0.5596  2.3091
   54DOPE     P 6848   6.873   3.299   4.845 -0.1402  0.4425  0.2552
   54DOPE   O13 6849   6.909   3.413   4.935  0.1860 -0.0721 -0.4820
   54DOPE   O14 6850   6.961   3.277   4.725 -0.4012 -0.1875  0.1331
   54DOPE   O11 6851   6.875   3.168   4.935  0.0812 -0.0467  0.0811
   54DOPE   O12 6852   6.726   3.311   4.799  0.3416 -0.4183 -0.0532
   54DOPE    C1 6853   6.766   3.079   4.958 -0.0482 -0.2553  0.4070
   54DOPE    HA 6854   6.800   2.989   5.012  0.3388 -0.0196  0.5617
   54DOPE    HB 6855   6.726   3.042   4.861 -1.3489  1.5373  0.1992
   54DOPE    C2 6856   6.653   3.133   5.053 -0.5735  0.0630  0.2871
   54DOPE    HS 6857   6.585   3.187   4.985 -0.5453  1.7815  1.5672
   54DOPE   O21 6858   6.714   3.226   5.147  0.1704 -0.7417 -0.0121
   54DOPE   C21 6859   6.650   3.342   5.170 -0.6582  0.0686  0.9948
   54DOPE   O22 6860   6.556   3.390   5.106 -0.5720 -0.0662 -1.2445
   54DOPE   C22 6861   6.730   3.419   5.279  0.6650  0.0907  0.0489
   54DOPE   H2R 6862   6.763   3.515   5.235  2.0983  0.8282  2.5251
   54DOPE   H2S 6863   6.825   3.364   5.295  0.2168 -0.1614  2.1414
   54DOPE    C3 6864   6.575   3.026   5.136  0.4342 -0.0846 -0.7065
   54DOPE    HX 6865   6.645   2.968   5.199 -1.1394  0.4849  1.7088
   54DOPE    HY 6866   6.526   2.954   5.067  1.6395 -1.4258 -0.2112
   54DOPE   O31 6867   6.472   3.091   5.219  0.5168 -0.0187 -0.4082
   54DOPE   C31 6868   6.477   3.057   5.352 -0.2900  0.3484  0.0561
   54DOPE   O32 6869   6.539   2.966   5.400  0.3833  0.5556  0.7074
   54DOPE   C32 6870   6.375   3.137   5.431 -0.2564  0.0918  0.5558
   54DOPE   H2X 6871   6.404   3.245   5.430 -0.2129  0.0848  0.8893
   54DOPE   H2Y 6872   6.274   3.134   5.384  0.0881 -1.3164 -0.1221
   54DOPE   C23 6873   6.660   3.438   5.415 -0.4195 -0.5032  0.0445
   54DOPE   H3R 6874   6.725   3.498   5.482 -2.4379  0.8095  0.9270
   54DOPE   H3S 6875   6.634   3.339   5.456 -1.5925  0.3670  1.4870
   54DOPE   C24 6876   6.536   3.528   5.415 -0.1496  0.4432  0.8485
   54DOPE   H4R 6877   6.458   3.465   5.365  0.1269  0.1344  0.8026
   54DOPE   H4S 6878   6.556   3.615   5.349 -0.6483 -0.3524 -0.3935
   54DOPE   C25 6879   6.481   3.577   5.549 -0.4482  0.0630  0.3081
   54DOPE   H5R 6880   6.377   3.607   5.525  0.0635  0.6353 -1.3626
   54DOPE   H5S 6881   6.547   3.664   5.574 -0.1139 -0.1595  0.2004
   54DOPE   C26 6882   6.476   3.472   5.660 -0.1307 -0.1882  0.3318
   54DOPE   H6R 6883   6.445   3.376   5.614 -2.0970  0.8244 -0.5593
   54DOPE   H6S 6884   6.401   3.507   5.734  0.8286  2.3265  0.2466
   54DOPE   C27 6885   6.613   3.451   5.730 -0.4990 -0.8963 -0.6176
   54DOPE   H7R 6886   6.682   3.532   5.697 -2.5059  1.3385  0.3645
   54DOPE   H7S 6887   6.666   3.360   5.695  3.1575  0.7009  0.2608
   54DOPE   C28 6888   6.591   3.464   5.882 -0.5905 -0.4271  0.1761
   54DOPE   H8R 6889   6.554   3.563   5.919  0.5779  0.5203 -1.0949
   54DOPE   H8S 6890   6.688   3.453   5.935 -0.5188 -1.4251 -0.1517
   54DOPE   C29 6891   6.495   3.354   5.930  0.2460  0.1945 -0.1341
   54DOPE   H9R 6892   6.489   3.269   5.860 -0.3397 -0.8602  1.1352
   54DOPE  C210 6893   6.424   3.348   6.042 -0.8725  0.5215  0.2663
   54DOPE  H10R 6894   6.354   3.264   6.053 -0.5890  0.2718  0.1792
   54DOPE  C211 6895   6.413   3.460   6.145  0.3497 -0.0237 -0.2650
   54DOPE  H11R 6896   6.308   3.470   6.180  1.2887 -0.4327  3.0395
   54DOPE  H11S 6897   6.450   3.558   6.110 -0.4564  0.6796  0.7917
   54DOPE  C212 6898   6.477   3.417   6.279 -0.7161  0.2161  0.1145
   54DOPE  H12R 6899   6.587   3.432   6.265 -0.4907  0.3612  1.8620
   54DOPE  H12S 6900   6.469   3.308   6.295 -0.3916  0.2772  0.7313
   54DOPE  C213 6901   6.432   3.485   6.402  0.5879  0.3004 -1.1007
   54DOPE  H13R 6902   6.322   3.470   6.406  0.5692  0.6484  0.2962
   54DOPE  H13S 6903   6.459   3.592   6.411  1.3652 -0.0109  0.8149
   54DOPE  C214 6904   6.491   3.417   6.532 -0.3744 -0.6710 -0.4205
   54DOPE  H14R 6905   6.601   3.421   6.544 -0.5459  1.1774  1.0151
   54DOPE  H14S 6906   6.472   3.308   6.543  1.0896 -0.8893  0.0474
   54DOPE  C215 6907   6.427   3.492   6.644  0.2468 -0.6138 -0.4431
   54DOPE  H15R 6908   6.317   3.477   6.635 -0.0308  0.6007  0.5576
   54DOPE  H15S 6909   6.444   3.602   6.647 -3.7351  0.2338 -1.9239
   54DOPE  C216 6910   6.472   3.432   6.780 -0.0624 -0.7502  0.1435
   54DOPE  H16R 6911   6.581   3.452   6.779 -0.2388  0.2952  0.4670
   54DOPE  H16S 6912   6.450   3.323   6.784 -1.7360 -0.4111  1.1781
   54DOPE  C217 6913   6.399   3.503   6.894  0.1035  0.2347 -0.6957
   54DOPE  H17R 6914   6.294   3.468   6.905  0.9803 -1.8089  2.6609
   54DOPE  H17S 6915   6.393   3.607   6.855  1.6303  0.3957 -0.5604
   54DOPE  C218 6916   6.472   3.515   7.030  0.7177  0.5084 -0.0718
   54DOPE  H18R 6917   6.530   3.421   7.039  1.3730  0.6377 -2.2243
   54DOPE  H18S 6918   6.399   3.546   7.107  0.1352 -0.5428 -0.1784
   54DOPE  H18T 6919   6.549   3.595   7.020  1.8086 -0.6349 -1.2709
   54DOPE   C33 6920   6.359   3.081   5.579 -0.1143  0.1860  0.4333
   54DOPE   H3X 6921   6.455   3.091   5.634 -0.3404 -1.1996  1.1320
   54DOPE   H3Y 6922   6.342   2.972   5.588  0.8329 -0.0257 -0.2024
   54DOPE   C34 6923   6.251   3.143   5.659  0.3532  0.3591 -0.1981
   54DOPE   H4X 6924   6.270   3.251   5.678 -1.1956  1.4339 -3.8065
   54DOPE   H4Y 6925   6.166   3.138   5.587  0.5366 -2.2882 -0.3103
   54DOPE   C35 6926   6.218   3.072   5.796  0.1769  0.6751  0.1820
   54DOPE   H5X 6927   6.303   3.070   5.868 -0.0451  1.0363  0.4575
   54DOPE   H5Y 6928   6.199   2.965   5.771 -2.9642  1.1965 -0.1242
   54DOPE   C36 6929   6.089   3.114   5.855  0.8073  0.4322 -0.4970
   54DOPE   H6X 6930   6.012   3.120   5.775  1.3670  0.9696 -1.0098
   54DOPE   H6Y 6931   6.102   3.220   5.886  0.3995 -0.0719  1.4967
   54DOPE   C37 6932   6.040   3.024   5.969 -0.0527 -0.4023 -0.5337
   54DOPE   H7X 6933   5.931   3.043   5.975  0.1869  0.8298  0.2216
   54DOPE   H7Y 6934   6.049   2.915   5.946 -1.8109 -0.4939 -0.9362
   54DOPE   C38 6935   6.099   3.065   6.109 -0.2752 -0.3244 -0.0305
   54DOPE   H8X 6936   6.204   3.034   6.096  0.4040  2.3340 -1.5180
   54DOPE   H8Y 6937   6.073   2.996   6.192 -3.1798  1.4030  0.6763
   54DOPE   C39 6938   6.094   3.209   6.162 -0.5220  0.0538 -0.0599
   54DOPE   H9X 6939   6.046   3.274   6.087  0.8328  1.4418  0.2298
   54DOPE  C310 6940   6.140   3.255   6.281 -0.5185  0.4238  0.1063
   54DOPE  H10X 6941   6.137   3.361   6.308  1.4803  0.5768 -0.1023
   54DOPE  C311 6942   6.209   3.173   6.392 -0.4462 -0.2370 -0.5567
   54DOPE  H11X 6943   6.228   3.067   6.363  1.7578 -0.2211  0.6254
   54DOPE  H11Y 6944   6.312   3.210   6.410 -0.8768  1.0392 -0.6262
   54DOPE  C312 6945   6.126   3.180   6.516 -0.2002  0.3637  0.3668
   54DOPE  H12X 6946   6.019   3.160   6.494  0.0672  1.4448 -2.3001
   54DOPE  H12Y 6947   6.137   3.287   6.545  0.4910  0.6395 -0.8458
   54DOPE  C313 6948   6.187   3.100   6.626 -0.2739 -0.1630  0.3108
   54DOPE  H13X 6949   6.202   2.994   6.594  3.4473  0.0987  0.7857
   54DOPE  H13Y 6950   6.292   3.132   6.637 -0.3207 -0.1244  0.6409
   54DOPE  C314 6951   6.122   3.122   6.764 -0.8589  0.5411 -1.0501
   54DOPE  H14X 6952   6.033   3.057   6.777 -0.6607  0.1626 -1.5658
   54DOPE  H14Y 6953   6.095   3.230   6.763  0.1466  0.8058 -1.8411
   54DOPE  C315 6954   6.229   3.099   6.871 -1.0666 -0.7056 -0.3002
   54DOPE  H15X 6955   6.314   3.166   6.848  0.7229 -3.0205 -0.8018
   54DOPE  H15Y 6956   6.274   2.997   6.869  0.5118 -0.0477  0.1922
   54DOPE  C316 6957   6.196   3.146   7.017  0.0555  0.2356  0.2780
   54DOPE  H16X 6958   6.169   3.253   7.023  0.1643  0.3744 -1.3258
   54DOPE  H16Y 6959   6.285   3.139   7.082  0.0063 -1.5450  0.2085
   54DOPE  C317 6960   6.076   3.069   7.078 -0.3355  0.6268 -0.1445
   54DOPE  H17X 6961   6.050   3.129   7.168 -0.3564 -0.4772  0.6173
   54DOPE  H17Y 6962   5.995   3.071   7.003  1.3965 -0.7588 -2.1565
   54DOPE  C318 6963   6.107   2.930   7.137 -0.2351  0.2138  0.2250
   54DOPE  H18X 6964   6.019   2.872   7.171  0.3618 -1.7417 -1.4026
   54DOPE  H18Y 6965   6.163   2.873   7.060 -0.7881 -2.4061  1.6420
   54DOPE  H18Z 6966   6.178   2.928   7.222  0.8125  0.6719 -0.6187
   55DOPE     N 6967   1.135   5.354   5.563 -0.7715 -0.3873 -0.3684
   55DOPE   HN1 6968   1.085   5.396   5.644  2.5591  0.2993  1.5155
   55DOPE   HN2 6969   1.134   5.427   5.489 -1.1113 -0.0650 -0.0537
   55DOPE   HN3 6970   1.085   5.269   5.530 -0.3407 -1.0171  0.5655
   55DOPE   C12 6971   1.271   5.306   5.605  0.4460  0.6059 -0.0878
   55DOPE  H12A 6972   1.250   5.234   5.687  0.1232 -1.7224 -2.0888
   55DOPE  H12B 6973   1.339   5.387   5.639 -1.7472  1.9471  1.3283
   55DOPE   C11 6974   1.325   5.204   5.504 -0.7489 -0.2584  0.4332
   55DOPE  H11A 6975   1.417   5.154   5.543 -0.4105 -2.5294 -2.8906
   55DOPE  H11B 6976   1.353   5.270   5.419 -0.2092  0.0253  0.8203
   55DOPE     P 6977   1.259   4.997   5.367 -0.0239 -0.1745 -0.3112
   55DOPE   O13 6978   1.398   5.011   5.314  1.0601 -0.4101  0.0992
   55DOPE   O14 6979   1.144   4.993   5.270 -0.1137 -0.1886  0.4981
   55DOPE   O11 6980   1.241   4.858   5.444  0.5203 -0.2894  0.7237
   55DOPE   O12 6981   1.225   5.101   5.473  0.6898 -1.0969  0.4948
   55DOPE    C1 6982   1.159   4.839   5.563  0.1513  0.0703  0.4178
   55DOPE    HA 6983   1.153   4.729   5.581  0.5712  0.0713  0.5856
   55DOPE    HB 6984   1.053   4.868   5.553 -0.4346 -2.1582 -0.4559
   55DOPE    C2 6985   1.221   4.884   5.698 -0.0563 -0.1780 -0.5566
   55DOPE    HS 6986   1.242   4.993   5.693 -1.0192  0.2505  2.5011
   55DOPE   O21 6987   1.336   4.806   5.736  0.1437  0.1960 -0.1524
   55DOPE   C21 6988   1.421   4.875   5.822  0.6616  0.0239 -0.4984
   55DOPE   O22 6989   1.393   4.990   5.865 -0.3064  0.9913  0.3308
   55DOPE   C22 6990   1.552   4.797   5.835  0.3219  0.3574  0.0841
   55DOPE   H2R 6991   1.604   4.805   5.737  2.1551 -0.7478  0.9086
   55DOPE   H2S 6992   1.530   4.688   5.833  1.4748  0.1257 -1.5459
   55DOPE    C3 6993   1.113   4.861   5.804  0.4456 -0.2748 -0.4145
   55DOPE    HX 6994   1.027   4.921   5.768 -0.0974 -0.9584 -0.2878
   55DOPE    HY 6995   1.134   4.905   5.903  0.1012 -3.3334  1.1545
   55DOPE   O31 6996   1.074   4.722   5.813  0.2087 -0.3478  0.0567
   55DOPE   C31 6997   1.131   4.648   5.907 -0.1699  0.3558  0.0208
   55DOPE   O32 6998   1.207   4.697   5.987 -0.1366  0.0854  0.0180
   55DOPE   C32 6999   1.074   4.510   5.911 -0.3209 -0.2361 -0.2569
   55DOPE   H2X 7000   0.963   4.519   5.918 -0.3075  0.3885 -0.7878
   55DOPE   H2Y 7001   1.082   4.453   5.815 -0.9125  0.1433 -0.5411
   55DOPE   C23 7002   1.641   4.843   5.950 -0.6993 -0.1562 -0.0321
   55DOPE   H3R 7003   1.650   4.954   5.942  0.3349 -0.1260  1.3136
   55DOPE   H3S 7004   1.743   4.802   5.938 -0.8688 -1.3104  2.0799
   55DOPE   C24 7005   1.588   4.793   6.077 -0.1916  0.2634 -0.1338
   55DOPE   H4R 7006   1.617   4.686   6.070  0.4797  0.4680 -0.5219
   55DOPE   H4S 7007   1.477   4.796   6.076 -0.2140  0.5740  1.0530
   55DOPE   C25 7008   1.638   4.857   6.214 -0.4371 -0.2201  0.6028
   55DOPE   H5R 7009   1.622   4.965   6.194 -0.3949 -0.4571 -0.8072
   55DOPE   H5S 7010   1.747   4.841   6.213 -0.4970 -0.6467  0.6874
   55DOPE   C26 7011   1.572   4.807   6.349  0.3246 -0.5740  0.5085
   55DOPE   H6R 7012   1.598   4.701   6.369  1.2373 -0.8654 -1.8824
   55DOPE   H6S 7013   1.462   4.814   6.337  0.5152 -0.1732 -1.2714
   55DOPE   C27 7014   1.621   4.883   6.472 -0.4142 -0.3032 -0.3967
   55DOPE   H7R 7015   1.611   4.991   6.447  1.2353  0.0797  0.4674
   55DOPE   H7S 7016   1.731   4.873   6.477 -0.4990 -2.1900 -1.4408
   55DOPE   C28 7017   1.539   4.836   6.590 -0.0975  0.2575  0.1287
   55DOPE   H8R 7018   1.431   4.830   6.567  0.2029 -0.0544 -1.3324
   55DOPE   H8S 7019   1.545   4.912   6.670 -0.1405  1.4968 -0.9991
   55DOPE   C29 7020   1.589   4.698   6.624  0.4566 -0.3694  0.3727
   55DOPE   H9R 7021   1.547   4.614   6.567  0.9616  0.4759 -1.3161
   55DOPE  C210 7022   1.658   4.681   6.733 -1.1773  0.6031 -0.2810
   55DOPE  H10R 7023   1.704   4.582   6.745 -0.2124  0.3929 -4.2530
   55DOPE  C211 7024   1.717   4.793   6.822  0.6574  0.0509  0.7781
   55DOPE  H11R 7025   1.734   4.883   6.758 -1.1571  0.3042  0.6089
   55DOPE  H11S 7026   1.814   4.755   6.860  0.0933 -0.5277  1.6756
   55DOPE  C212 7027   1.623   4.834   6.943 -0.1807 -0.0283  0.5363
   55DOPE  H12R 7028   1.527   4.876   6.908 -0.3382 -0.8763 -0.0677
   55DOPE  H12S 7029   1.680   4.915   6.993 -2.8461  2.6540 -0.4867
   55DOPE  C213 7030   1.613   4.716   7.036  0.0741  0.4926  0.3954
   55DOPE  H13R 7031   1.709   4.659   7.037 -1.0024 -1.5173 -1.1293
   55DOPE  H13S 7032   1.533   4.656   6.987  0.6611 -0.7323  0.8764
   55DOPE  C214 7033   1.588   4.751   7.176 -0.2660 -0.5241 -0.0552
   55DOPE  H14R 7034   1.559   4.665   7.240 -0.3130 -0.5546 -0.1184
   55DOPE  H14S 7035   1.498   4.816   7.168 -0.4796 -0.5075  1.9748
   55DOPE  C215 7036   1.703   4.823   7.251 -0.5816 -0.1414  0.4782
   55DOPE  H15R 7037   1.685   4.930   7.227 -2.5455 -0.9359 -2.0343
   55DOPE  H15S 7038   1.800   4.790   7.207 -0.4403  1.4758 -0.5031
   55DOPE  C216 7039   1.695   4.806   7.401 -0.3920 -1.0053 -0.8087
   55DOPE  H16R 7040   1.700   4.697   7.421 -1.8965 -1.2679 -1.7092
   55DOPE  H16S 7041   1.605   4.846   7.453  0.4795 -0.6824  0.5335
   55DOPE  C217 7042   1.806   4.882   7.476  0.1640 -0.4116  0.0915
   55DOPE  H17R 7043   1.839   4.960   7.404  4.0674 -2.5203 -0.7055
   55DOPE  H17S 7044   1.889   4.808   7.483 -2.0554 -2.8962  2.4699
   55DOPE  C218 7045   1.769   4.949   7.608 -0.3680  0.8748  0.9744
   55DOPE  H18R 7046   1.793   4.879   7.690  0.4002  0.9843  0.8487
   55DOPE  H18S 7047   1.662   4.976   7.618 -1.0228 -0.9654 -0.5156
   55DOPE  H18T 7048   1.834   5.039   7.621 -1.5521  1.5901  2.1866
   55DOPE   C33 7049   1.128   4.423   6.024  0.4459  0.4895  0.2019
   55DOPE   H3X 7050   1.119   4.486   6.115 -1.3446  0.2968  0.1961
   55DOPE   H3Y 7051   1.237   4.406   6.016  0.3446 -0.0128 -0.1655
   55DOPE   C34 7052   1.042   4.303   6.042  0.0332 -0.8184  0.0363
   55DOPE   H4X 7053   0.934   4.322   6.025  0.0376 -2.0135 -1.5305
   55DOPE   H4Y 7054   1.068   4.227   5.966 -0.3875 -1.3493  0.4173
   55DOPE   C35 7055   1.058   4.235   6.180 -0.1481  0.2817 -1.0022
   55DOPE   H5X 7056   1.168   4.233   6.200 -0.1190  1.8074 -0.8405
   55DOPE   H5Y 7057   1.015   4.134   6.166 -2.0190  0.1642  3.9114
   55DOPE   C36 7058   0.990   4.304   6.302 -0.8877  0.0228 -0.3942
   55DOPE   H6X 7059   1.062   4.376   6.346  1.9977 -1.7905 -1.8124
   55DOPE   H6Y 7060   0.982   4.224   6.379 -1.2985  0.4450  0.0062
   55DOPE   C37 7061   0.853   4.363   6.285 -0.2799  0.0625 -0.2397
   55DOPE   H7X 7062   0.842   4.415   6.187  0.3418  0.7321  0.0345
   55DOPE   H7Y 7063   0.787   4.274   6.285 -2.0433  1.3092 -0.3975
   55DOPE   C38 7064   0.818   4.465   6.393 -0.4458  0.4841 -0.4033
   55DOPE   H8X 7065   0.907   4.531   6.402  1.4012 -1.0647 -4.4948
   55DOPE   H8Y 7066   0.817   4.405   6.486 -1.8349  1.7423  0.4407
   55DOPE   C39 7067   0.687   4.528   6.373  0.4515  0.6000 -0.6364
   55DOPE   H9X 7068   0.667   4.554   6.268 -0.4287 -4.5824 -2.0435
   55DOPE  C310 7069   0.582   4.568   6.456 -0.3260 -0.4570 -0.4743
   55DOPE  H10X 7070   0.494   4.613   6.406 -1.3811 -1.2093  0.6335
   55DOPE  C311 7071   0.590   4.564   6.606 -0.9380 -0.1009 -0.8462
   55DOPE  H11X 7072   0.531   4.476   6.642  0.8190 -1.4894 -1.2397
   55DOPE  H11Y 7073   0.688   4.533   6.648  0.0584  1.5609 -1.8730
   55DOPE  C312 7074   0.577   4.705   6.676 -0.6459  0.3461  0.0454
   55DOPE  H12X 7075   0.605   4.684   6.781  1.5592 -1.6111 -0.8505
   55DOPE  H12Y 7076   0.470   4.732   6.658 -0.7925 -0.2023  0.0854
   55DOPE  C313 7077   0.676   4.816   6.624 -0.5316 -0.1594  0.4066
   55DOPE  H13X 7078   0.782   4.781   6.625  0.1098  1.6627 -0.4840
   55DOPE  H13Y 7079   0.654   4.851   6.521 -0.9158 -0.7603  0.2784
   55DOPE  C314 7080   0.681   4.939   6.718 -0.2205 -0.2793 -0.3486
   55DOPE  H14X 7081   0.747   5.011   6.663 -0.2088  0.4407  0.5874
   55DOPE  H14Y 7082   0.724   4.907   6.815 -3.1636  0.1346  1.2112
   55DOPE  C315 7083   0.548   5.013   6.742  0.9497  0.1251  0.5274
   55DOPE  H15X 7084   0.557   5.092   6.819 -0.6857 -0.1663  1.0729
   55DOPE  H15Y 7085   0.477   4.932   6.770  1.3842 -0.2047  0.6936
   55DOPE  C316 7086   0.490   5.074   6.611  0.6647  0.8361 -0.4429
   55DOPE  H16X 7087   0.564   5.098   6.531 -0.1044  0.9672 -1.1358
   55DOPE  H16Y 7088   0.430   5.164   6.639 -2.1418 -0.1198 -2.7837
   55DOPE  C317 7089   0.368   5.000   6.548  0.6321  0.7184  0.2776
   55DOPE  H17X 7090   0.392   4.894   6.521 -1.5891 -0.0908  1.2247
   55DOPE  H17Y 7091   0.290   4.982   6.625  0.0851  2.1745  0.0761
   55DOPE  C318 7092   0.323   5.085   6.430 -0.5265 -0.2552 -0.5590
   55DOPE  H18X 7093   0.230   5.045   6.383 -2.1424  1.5203  0.9388
   55DOPE  H18Y 7094   0.310   5.192   6.457  1.2069  0.0723 -0.8886
   55DOPE  H18Z 7095   0.407   5.086   6.357  0.1694 -4.0458 -0.0253
   56DOPE     N 7096   0.715   5.600   5.452  0.5029  0.3427 -0.5989
   56DOPE   HN1 7097   0.635   5.658   5.419  1.0747  1.3242 -0.2959
   56DOPE   HN2 7098   0.675   5.508   5.478  3.4769 -1.3373 -1.5065
   56DOPE   HN3 7099   0.755   5.647   5.536 -0.8301  1.2997 -0.4521
   56DOPE   C12 7100   0.819   5.572   5.350 -0.2911  0.1054 -0.7826
   56DOPE  H12A 7101   0.774   5.526   5.259  2.3478  0.5531 -2.4087
   56DOPE  H12B 7102   0.889   5.507   5.407 -0.1606  1.2856  0.4471
   56DOPE   C11 7103   0.888   5.704   5.318 -0.0685 -0.0679  0.3063
   56DOPE  H11A 7104   0.981   5.687   5.260  0.1771 -0.9681  0.9450
   56DOPE  H11B 7105   0.909   5.748   5.417 -1.5617 -1.0991  1.1275
   56DOPE     P 7106   0.847   5.935   5.215 -0.2655  0.1773  0.3243
   56DOPE   O13 7107   0.744   6.014   5.142 -0.0550  0.1090  0.0582
   56DOPE   O14 7108   0.977   5.929   5.148  0.0483 -0.4076 -0.1617
   56DOPE   O11 7109   0.875   5.991   5.359  0.1556  0.1434 -0.0982
   56DOPE   O12 7110   0.799   5.788   5.248  0.2582 -0.3714 -0.4794
   56DOPE    C1 7111   0.751   6.016   5.434 -0.2845  0.1602 -0.4279
   56DOPE    HA 7112   0.750   5.952   5.525 -2.7695  0.0644 -0.4748
   56DOPE    HB 7113   0.657   5.991   5.381  0.1838 -0.9688 -0.7569
   56DOPE    C2 7114   0.740   6.168   5.480 -0.1359  0.4135  0.2532
   56DOPE    HS 7115   0.702   6.232   5.397  0.8257  1.2966  0.4728
   56DOPE   O21 7116   0.872   6.213   5.527 -0.6847  0.2335  0.1005
   56DOPE   C21 7117   0.878   6.347   5.545  0.7406  0.1314  0.2242
   56DOPE   O22 7118   0.791   6.425   5.512  0.4891 -0.0531 -0.1472
   56DOPE   C22 7119   1.011   6.386   5.608  0.3927  0.2890 -0.6464
   56DOPE   H2R 7120   1.017   6.497   5.607  2.9478  0.2588  1.4199
   56DOPE   H2S 7121   1.097   6.335   5.559 -0.3440 -1.5759 -0.1086
   56DOPE    C3 7122   0.620   6.174   5.583  0.1234  0.6815  0.1175
   56DOPE    HX 7123   0.538   6.120   5.530  2.4092 -0.5495 -2.4527
   56DOPE    HY 7124   0.584   6.277   5.602  1.9511  1.3114  0.2974
   56DOPE   O31 7125   0.664   6.107   5.703 -0.0809 -0.1354  0.1219
   56DOPE   C31 7126   0.581   6.123   5.812  1.0585 -0.6908 -0.0347
   56DOPE   O32 7127   0.497   6.215   5.822 -0.0798  0.3696  0.1369
   56DOPE   C32 7128   0.616   6.031   5.921 -0.0042  0.1420  0.4887
   56DOPE   H2X 7129   0.516   5.985   5.937 -0.0101  0.6522  2.0295
   56DOPE   H2Y 7130   0.686   5.951   5.889 -0.6333 -0.7382  1.2588
   56DOPE   C23 7131   1.022   6.350   5.760 -0.0549  0.1291  0.2827
   56DOPE   H3R 7132   1.131   6.354   5.779  0.2052 -0.5544 -0.9735
   56DOPE   H3S 7133   0.995   6.246   5.785  1.1108 -0.5133 -1.0168
   56DOPE   C24 7134   0.939   6.448   5.849 -0.2399 -0.0285 -0.7755
   56DOPE   H4R 7135   0.830   6.436   5.832 -0.4608 -2.4419  1.6608
   56DOPE   H4S 7136   0.969   6.554   5.834 -0.9573  0.2928 -0.0063
   56DOPE   C25 7137   0.966   6.416   5.996 -0.5098  0.2883  0.0876
   56DOPE   H5R 7138   1.077   6.417   6.008 -0.5691  1.6330  0.6931
   56DOPE   H5S 7139   0.929   6.313   6.014  0.0646  0.2145  0.9047
   56DOPE   C26 7140   0.903   6.509   6.105  0.2181  0.1322  0.2653
   56DOPE   H6R 7141   0.794   6.514   6.083  0.2158  3.3232  0.4491
   56DOPE   H6S 7142   0.940   6.614   6.102 -1.8976  0.9207 -0.1990
   56DOPE   C27 7143   0.911   6.460   6.255 -0.1135 -0.1257 -0.0054
   56DOPE   H7R 7144   1.014   6.433   6.285  0.4134  3.6065  1.9919
   56DOPE   H7S 7145   0.848   6.368   6.248 -0.9144  0.4623 -0.8295
   56DOPE   C28 7146   0.861   6.566   6.358  0.5149 -0.0409 -0.8280
   56DOPE   H8R 7147   0.853   6.513   6.455  1.8215  1.4407  0.1370
   56DOPE   H8S 7148   0.759   6.602   6.332  0.4718  0.4364 -0.0388
   56DOPE   C29 7149   0.953   6.686   6.366  0.0884 -0.6006  0.5380
   56DOPE   H9R 7150   0.950   6.746   6.274 -1.3439 -1.0992  0.2315
   56DOPE  C210 7151   1.007   6.727   6.479 -1.3584 -0.3462 -0.8179
   56DOPE  H10R 7152   1.069   6.816   6.472 -0.6008 -0.5922  1.6893
   56DOPE  C211 7153   0.995   6.675   6.621  0.3336  1.2352 -0.1689
   56DOPE  H11R 7154   0.893   6.635   6.636  0.8050 -0.0271 -0.2215
   56DOPE  H11S 7155   1.017   6.751   6.699 -0.4820 -0.2778  1.6127
   56DOPE  C212 7156   1.099   6.566   6.645  0.3857 -0.5731  0.2921
   56DOPE  H12R 7157   1.115   6.505   6.553 -1.2341 -0.2572 -0.2348
   56DOPE  H12S 7158   1.058   6.493   6.718  0.2912 -1.7083 -0.8493
   56DOPE  C213 7159   1.245   6.620   6.686  0.5774 -0.0834  0.0418
   56DOPE  H13R 7160   1.224   6.682   6.776 -1.9709 -2.2363  1.0750
   56DOPE  H13S 7161   1.274   6.679   6.596  0.3098  0.0036  0.0120
   56DOPE  C214 7162   1.355   6.510   6.701 -0.0149 -0.1770  0.1073
   56DOPE  H14R 7163   1.356   6.448   6.609  2.3026 -0.5963  0.3662
   56DOPE  H14S 7164   1.331   6.449   6.790 -3.6644 -0.1044 -0.6725
   56DOPE  C215 7165   1.501   6.569   6.699 -0.5164  0.2503 -0.0185
   56DOPE  H15R 7166   1.523   6.624   6.605  1.6135  0.5711  0.6358
   56DOPE  H15S 7167   1.571   6.482   6.701  2.6628  2.5685 -1.9880
   56DOPE  C216 7168   1.521   6.663   6.820  0.3745  1.0625 -0.0260
   56DOPE  H16R 7169   1.514   6.602   6.913  1.9164  1.2957  0.2625
   56DOPE  H16S 7170   1.445   6.744   6.811 -0.0373  0.6480 -0.3544
   56DOPE  C217 7171   1.662   6.723   6.821 -0.2560  0.6945 -0.0636
   56DOPE  H17R 7172   1.680   6.795   6.738  0.9358 -1.9192 -2.1935
   56DOPE  H17S 7173   1.735   6.641   6.807  0.1064  0.7586  1.3481
   56DOPE  C218 7174   1.713   6.783   6.952  0.0687 -0.1468  0.5564
   56DOPE  H18R 7175   1.641   6.857   6.993  0.5462  0.9141 -0.4656
   56DOPE  H18S 7176   1.812   6.832   6.941 -0.2801  0.4077 -0.1628
   56DOPE  H18T 7177   1.722   6.705   7.031 -1.4126 -0.1590  0.7266
   56DOPE   C33 7178   0.667   6.116   6.043 -0.7416  1.0225 -0.7451
   56DOPE   H3X 7179   0.613   6.211   6.060  0.2620  1.1160  2.5912
   56DOPE   H3Y 7180   0.775   6.138   6.037 -0.6868  0.6629 -1.1889
   56DOPE   C34 7181   0.653   6.028   6.176 -0.1516  0.4882  0.5795
   56DOPE   H4X 7182   0.658   6.095   6.264 -1.0616  0.2041  0.8601
   56DOPE   H4Y 7183   0.549   5.990   6.169  0.0783  0.1251 -1.0989
   56DOPE   C35 7184   0.747   5.901   6.179  0.7469 -0.6345  0.1566
   56DOPE   H5X 7185   0.853   5.929   6.197 -0.1619  1.8743  2.2872
   56DOPE   H5Y 7186   0.750   5.853   6.079 -2.2041  2.4801 -1.6177
   56DOPE   C36 7187   0.702   5.786   6.271 -0.0314 -1.2809  0.2813
   56DOPE   H6X 7188   0.779   5.707   6.273  0.1049 -1.1678 -0.3711
   56DOPE   H6Y 7189   0.606   5.742   6.236 -0.1910 -3.0090  2.6674
   56DOPE   C37 7190   0.673   5.828   6.427  0.0904  0.2255 -0.5451
   56DOPE   H7X 7191   0.602   5.914   6.418 -2.5913 -1.9216 -1.1685
   56DOPE   H7Y 7192   0.639   5.743   6.491 -0.2362  0.7251 -0.0379
   56DOPE   C38 7193   0.795   5.891   6.503  0.0005 -0.1019 -0.5136
   56DOPE   H8X 7194   0.772   5.972   6.576 -0.7214  0.4036 -1.2721
   56DOPE   H8Y 7195   0.841   5.953   6.423 -0.3307  0.7605 -0.0485
   56DOPE   C39 7196   0.899   5.788   6.551  0.5521 -0.3737  0.6242
   56DOPE   H9X 7197   0.973   5.770   6.472 -0.7583  1.3529 -1.0949
   56DOPE  C310 7198   0.891   5.721   6.663  0.1257  0.1202  0.2730
   56DOPE  H10X 7199   0.962   5.637   6.673  0.3563  0.0123 -1.8361
   56DOPE  C311 7200   0.798   5.747   6.777  0.9362 -0.3558  0.3360
   56DOPE  H11X 7201   0.701   5.795   6.752  0.6065 -2.8468 -4.3155
   56DOPE  H11Y 7202   0.770   5.643   6.805  0.1401 -0.5474 -1.0936
   56DOPE  C312 7203   0.883   5.804   6.901 -0.1987  0.6673  1.0986
   56DOPE  H12X 7204   0.815   5.873   6.956 -2.2024 -0.3641  0.0259
   56DOPE  H12Y 7205   0.977   5.847   6.862 -1.4290  0.4785 -2.3842
   56DOPE  C313 7206   0.912   5.690   7.004  0.1053  0.8368 -0.3167
   56DOPE  H13X 7207   0.813   5.679   7.054 -0.5962  2.3076 -1.3186
   56DOPE  H13Y 7208   0.939   5.592   6.960  0.7174  0.6774  0.3937
   56DOPE  C314 7209   1.019   5.724   7.112  0.2747  0.1895 -0.1798
   56DOPE  H14X 7210   0.990   5.821   7.158  4.9674  1.6548  0.2077
   56DOPE  H14Y 7211   1.117   5.735   7.062 -0.0860 -0.2239 -0.9939
   56DOPE  C315 7212   1.014   5.623   7.234  0.8423  0.1447  0.2692
   56DOPE  H15X 7213   1.044   5.526   7.189  0.6969  0.5530 -0.7441
   56DOPE  H15Y 7214   0.911   5.625   7.275  0.7161  0.5304 -0.0582
   56DOPE  C316 7215   1.104   5.664   7.356 -0.6399  0.2209 -0.2212
   56DOPE  H16X 7216   1.075   5.770   7.375 -1.8682 -0.2729  0.8445
   56DOPE  H16Y 7217   1.210   5.648   7.328 -0.3564 -0.5968  1.2481
   56DOPE  C317 7218   1.094   5.587   7.492  0.4258 -0.4973 -0.1994
   56DOPE  H17X 7219   0.986   5.580   7.515  0.3558  0.9872  0.0546
   56DOPE  H17Y 7220   1.131   5.483   7.483  1.4744 -0.0796 -0.9801
   56DOPE  C318 7221   1.158   5.660   7.610 -1.0183  0.0140 -0.0264
   56DOPE  H18X 7222   1.166   5.591   7.697 -1.7532 -1.7289 -1.2607
   56DOPE  H18Y 7223   1.261   5.692   7.583 -1.6687  2.8472  0.5749
   56DOPE  H18Z 7224   1.099   5.750   7.633  1.5885  1.5217  1.2306
   57DOPE     N 7225   0.044   1.862   5.007  0.1276  0.0170  0.1330
   57DOPE   HN1 7226   0.136   1.876   5.054  2.0909 -0.8589 -3.1851
   57DOPE   HN2 7227   0.042   1.906   4.913 -2.0454  4.3644  1.9086
   57DOPE   HN3 7228  -0.025   1.917   5.062  1.0799 -0.1536  1.5703
   57DOPE   C12 7229   0.016   1.715   5.019 -0.3290 -0.0693 -0.6757
   57DOPE  H12A 7230   0.090   1.657   4.960 -0.7025 -1.5506  0.2617
   57DOPE  H12B 7231  -0.090   1.692   4.993 -0.1634 -0.1295 -1.3107
   57DOPE   C11 7232   0.039   1.662   5.163  0.8820  0.2799 -0.6226
   57DOPE  H11A 7233   0.012   1.554   5.164  2.0468 -0.0482 -1.8449
   57DOPE  H11B 7234  -0.036   1.712   5.228  0.0077 -1.7898  0.0485
   57DOPE     P 7235   0.209   1.750   5.350 -0.1557 -0.0919  0.0397
   57DOPE   O13 7236   0.150   1.878   5.377  0.2085  0.0274  0.2957
   57DOPE   O14 7237   0.355   1.742   5.371 -0.1832 -0.5307 -0.4377
   57DOPE   O11 7238   0.136   1.651   5.454  0.1037  0.3731  0.7023
   57DOPE   O12 7239   0.168   1.698   5.206 -0.2931  0.2599  0.0983
   57DOPE    C1 7240   0.163   1.512   5.457 -0.4778  0.0139  0.5984
   57DOPE    HA 7241   0.250   1.478   5.396 -0.5728  0.9787 -0.1132
   57DOPE    HB 7242   0.078   1.458   5.412 -0.5493  1.4379 -1.1114
   57DOPE    C2 7243   0.181   1.459   5.609  0.1407 -0.2393 -0.3597
   57DOPE    HS 7244   0.159   1.351   5.621 -0.8250  0.1057  1.2202
   57DOPE   O21 7245   0.084   1.531   5.695 -0.1177  0.1378  0.1733
   57DOPE   C21 7246  -0.049   1.505   5.668 -0.4595  0.3336  0.7799
   57DOPE   O22 7247  -0.083   1.400   5.614 -0.3862  0.1999 -0.4111
   57DOPE   C22 7248  -0.135   1.617   5.719 -0.0105 -0.9103 -0.2291
   57DOPE   H2R 7249  -0.178   1.679   5.637  1.4457  0.8550  0.2740
   57DOPE   H2S 7250  -0.068   1.692   5.766 -2.3123  2.3223 -1.6943
   57DOPE    C3 7251   0.323   1.475   5.660  0.3184 -0.2124 -0.0721
   57DOPE    HX 7252   0.360   1.575   5.629 -1.9051  0.8128  0.3824
   57DOPE    HY 7253   0.389   1.406   5.603 -0.5976 -1.0209 -0.1889
   57DOPE   O31 7254   0.335   1.451   5.803 -0.0439 -0.4480 -0.2861
   57DOPE   C31 7255   0.320   1.559   5.882 -0.8551  0.2762 -0.0677
   57DOPE   O32 7256   0.300   1.674   5.846  0.1974  0.1890 -0.0951
   57DOPE   C32 7257   0.327   1.509   6.027  0.4775 -0.2987  0.1978
   57DOPE   H2X 7258   0.229   1.463   6.051  0.7036 -1.6722 -1.3909
   57DOPE   H2Y 7259   0.416   1.444   6.038  1.7610  1.2994 -0.3864
   57DOPE   C23 7260  -0.251   1.572   5.820  0.0357 -0.1425  0.1712
   57DOPE   H3R 7261  -0.314   1.493   5.773 -0.3183 -0.1900  0.7201
   57DOPE   H3S 7262  -0.321   1.658   5.831  1.1770  0.6316  1.7044
   57DOPE   C24 7263  -0.210   1.521   5.959 -0.1216  0.4157 -0.3635
   57DOPE   H4R 7264  -0.154   1.428   5.935  0.9422  0.3104  2.1881
   57DOPE   H4S 7265  -0.298   1.482   6.016  0.0612 -0.1912 -0.4905
   57DOPE   C25 7266  -0.117   1.618   6.028  0.5425 -0.3025 -0.2142
   57DOPE   H5R 7267  -0.152   1.722   6.011  1.4302 -0.3674 -2.7659
   57DOPE   H5S 7268  -0.013   1.611   5.992  1.0242  0.4950  0.9328
   57DOPE   C26 7269  -0.103   1.592   6.178  0.4497 -0.2864  0.0477
   57DOPE   H6R 7270  -0.051   1.498   6.204  0.4753 -0.2570  0.1031
   57DOPE   H6S 7271  -0.202   1.560   6.216  0.3162 -0.8003 -0.7058
   57DOPE   C27 7272  -0.037   1.710   6.251 -0.0175  0.1448 -0.7894
   57DOPE   H7R 7273  -0.098   1.803   6.262  0.9463  0.6259  0.8536
   57DOPE   H7S 7274   0.062   1.726   6.203  0.0473  0.0330 -0.6930
   57DOPE   C28 7275  -0.002   1.669   6.398  0.1392 -0.6861 -0.0427
   57DOPE   H8R 7276   0.052   1.754   6.445  2.4266 -1.2491 -1.5111
   57DOPE   H8S 7277   0.072   1.586   6.399  0.1383 -0.6908  1.1048
   57DOPE   C29 7278  -0.123   1.638   6.474  0.4066 -0.5914  0.0300
   57DOPE   H9R 7279  -0.212   1.643   6.409  0.1254  1.8772  0.5013
   57DOPE  C210 7280  -0.136   1.606   6.608 -1.1098  0.6297 -0.4480
   57DOPE  H10R 7281  -0.238   1.593   6.648 -1.0193  1.3439  0.0326
   57DOPE  C211 7282  -0.029   1.613   6.719  0.0518 -0.7065 -0.4463
   57DOPE  H11R 7283  -0.028   1.713   6.769 -0.2882  0.3048 -2.3957
   57DOPE  H11S 7284   0.073   1.603   6.675  0.7907  1.5878  0.5535
   57DOPE  C212 7285  -0.061   1.503   6.813  0.3854  0.1271  0.0800
   57DOPE  H12R 7286   0.037   1.480   6.861 -0.4941 -3.0489  0.5848
   57DOPE  H12S 7287  -0.066   1.404   6.763 -0.3559  0.5976 -0.8122
   57DOPE  C213 7288  -0.172   1.545   6.914  0.0346 -0.4294  0.2766
   57DOPE  H13R 7289  -0.267   1.568   6.861  0.9546  1.5523 -0.5916
   57DOPE  H13S 7290  -0.125   1.638   6.952  0.6797 -0.7337  0.2348
   57DOPE  C214 7291  -0.195   1.433   7.017 -0.1164  0.8221  0.3054
   57DOPE  H14R 7292  -0.106   1.414   7.080 -1.0443 -1.8782  0.9369
   57DOPE  H14S 7293  -0.232   1.345   6.960 -1.0417  0.2975  1.6695
   57DOPE  C215 7294  -0.311   1.466   7.106  0.2294  0.1745 -0.1994
   57DOPE  H15R 7295  -0.403   1.476   7.044 -0.3605 -0.5540  0.5325
   57DOPE  H15S 7296  -0.299   1.563   7.157  2.8451  0.7033 -1.6619
   57DOPE  C216 7297  -0.339   1.367   7.223  0.2829 -0.0673 -0.0904
   57DOPE  H16R 7298  -0.242   1.337   7.269  0.3657 -1.2887 -1.0119
   57DOPE  H16S 7299  -0.377   1.273   7.177 -0.4113 -0.0264  0.3939
   57DOPE  C217 7300  -0.433   1.421   7.334  0.6063  0.4237  0.6379
   57DOPE  H17R 7301  -0.529   1.469   7.305  0.5238  0.9741  1.7877
   57DOPE  H17S 7302  -0.387   1.511   7.379 -0.6042  2.6170 -2.1878
   57DOPE  C218 7303  -0.460   1.329   7.451 -0.1412 -0.4909 -0.6821
   57DOPE  H18R 7304  -0.368   1.271   7.476 -2.1933 -2.0397  4.8829
   57DOPE  H18S 7305  -0.537   1.250   7.439 -1.2600  0.2797  0.9255
   57DOPE  H18T 7306  -0.487   1.389   7.541  0.5820  0.4259 -1.0614
   57DOPE   C33 7307   0.335   1.629   6.124 -0.4361  0.3827 -0.3476
   57DOPE   H3X 7308   0.243   1.691   6.118 -0.6638  0.5648  2.9859
   57DOPE   H3Y 7309   0.430   1.685   6.114  0.1205 -0.5581 -0.5046
   57DOPE   C34 7310   0.334   1.576   6.274 -0.1200 -0.1616  1.0097
   57DOPE   H4X 7311   0.229   1.543   6.288 -0.5008  0.5983  0.0452
   57DOPE   H4Y 7312   0.409   1.494   6.281  0.2057 -0.3287 -2.6602
   57DOPE   C35 7313   0.361   1.685   6.377  0.2547  0.2953 -0.0895
   57DOPE   H5X 7314   0.279   1.760   6.373 -0.8917 -0.9179 -4.0533
   57DOPE   H5Y 7315   0.460   1.727   6.349  0.9826 -0.9851  0.4513
   57DOPE   C36 7316   0.363   1.627   6.518  0.2876 -0.6458 -0.7365
   57DOPE   H6X 7317   0.437   1.545   6.522  1.1096 -0.0198 -2.2098
   57DOPE   H6Y 7318   0.264   1.579   6.533  0.9420 -1.8363 -0.0535
   57DOPE   C37 7319   0.382   1.735   6.627  0.2327  0.5528  0.0758
   57DOPE   H7X 7320   0.484   1.778   6.620  1.0209 -1.4589 -1.3566
   57DOPE   H7Y 7321   0.311   1.819   6.608 -1.2828 -0.5391  0.7570
   57DOPE   C38 7322   0.357   1.684   6.772  0.0884  0.0104  0.1086
   57DOPE   H8X 7323   0.254   1.646   6.788 -0.6330  1.1305 -1.6195
   57DOPE   H8Y 7324   0.360   1.772   6.840  1.4703  1.8439 -2.1592
   57DOPE   C39 7325   0.460   1.584   6.811 -0.1143 -0.2852 -0.2376
   57DOPE   H9X 7326   0.534   1.566   6.733 -2.2380  1.9796 -2.9939
   57DOPE  C310 7327   0.494   1.543   6.939  0.7588 -0.7556  0.3549
   57DOPE  H10X 7328   0.592   1.496   6.954  0.1060 -1.3917  3.2565
   57DOPE  C311 7329   0.406   1.578   7.057 -0.2330  0.1596 -0.5027
   57DOPE  H11X 7330   0.313   1.631   7.030 -1.6091 -1.4711  0.8030
   57DOPE  H11Y 7331   0.365   1.489   7.110  0.4015  0.4471  0.5122
   57DOPE  C312 7332   0.483   1.665   7.154 -0.9296 -0.2828 -0.1288
   57DOPE  H12X 7333   0.511   1.760   7.106 -0.7934  0.1266  0.7342
   57DOPE  H12Y 7334   0.585   1.625   7.175 -1.2116 -1.4894 -0.9200
   57DOPE  C313 7335   0.412   1.690   7.288  0.2729 -0.1465  0.0432
   57DOPE  H13X 7336   0.311   1.735   7.281  0.7827  1.2378  1.1917
   57DOPE  H13Y 7337   0.403   1.586   7.329  2.3765  0.0472  1.1233
   57DOPE  C314 7338   0.511   1.767   7.379 -0.4431 -0.2395 -0.0266
   57DOPE  H14X 7339   0.554   1.859   7.335 -0.3253 -0.7026 -0.8936
   57DOPE  H14Y 7340   0.596   1.697   7.396 -1.1589 -0.8996  0.9974
   57DOPE  C315 7341   0.448   1.800   7.517  0.0558 -0.1738 -0.0855
   57DOPE  H15X 7342   0.531   1.816   7.589  0.0240  0.3101 -0.1548
   57DOPE  H15Y 7343   0.385   1.722   7.565 -0.2163  0.6129  0.8711
   57DOPE  C316 7344   0.362   1.923   7.505 -0.1160 -0.1491 -0.1926
   57DOPE  H16X 7345   0.329   1.928   7.399 -1.4535 -1.3736  0.1291
   57DOPE  H16Y 7346   0.415   2.019   7.518 -1.1095  0.8252 -2.7001
   57DOPE  C317 7347   0.246   1.920   7.606  0.1510 -0.0688 -0.4194
   57DOPE  H17X 7348   0.163   1.989   7.582  1.7458  2.2141  0.3193
   57DOPE  H17Y 7349   0.194   1.822   7.607  0.1851 -0.1002  1.2859
   57DOPE  C318 7350   0.292   1.949   7.752  0.0760  0.2873 -0.3307
   57DOPE  H18X 7351   0.357   2.039   7.759 -1.6176  1.3853  2.8216
   57DOPE  H18Y 7352   0.206   1.966   7.820  2.2455 -1.5286  3.1627
   57DOPE  H18Z 7353   0.335   1.856   7.794 -1.6905 -1.8589 -2.8846
   58DOPE     N 7354   1.037   4.712   5.197  0.3634 -1.1294 -0.0042
   58DOPE   HN1 7355   1.086   4.791   5.242 -0.9341 -0.7508  0.8060
   58DOPE   HN2 7356   1.098   4.654   5.135  1.0089 -0.7499  0.2728
   58DOPE   HN3 7357   0.955   4.745   5.141  0.4748  0.5156  0.7634
   58DOPE   C12 7358   0.979   4.610   5.299  0.0440  0.3598  0.2804
   58DOPE  H12A 7359   1.067   4.599   5.367  0.5343 -1.0656 -0.5492
   58DOPE  H12B 7360   0.974   4.515   5.242 -1.0676  0.4327  0.2484
   58DOPE   C11 7361   0.849   4.653   5.366  0.2864  0.0962  0.0959
   58DOPE  H11A 7362   0.844   4.589   5.456  4.8062 -0.5473  0.1177
   58DOPE  H11B 7363   0.770   4.624   5.294  1.3942  0.0692 -1.1394
   58DOPE     P 7364   0.740   4.901   5.351 -0.3747 -0.3892  0.0736
   58DOPE   O13 7365   0.730   4.899   5.207 -0.3263  0.2014  0.0941
   58DOPE   O14 7366   0.784   5.029   5.409 -0.6305 -0.6003 -0.4639
   58DOPE   O11 7367   0.606   4.856   5.399 -0.2141  0.3443 -0.3505
   58DOPE   O12 7368   0.843   4.792   5.398 -0.2115  0.1799  0.0551
   58DOPE    C1 7369   0.581   4.758   5.502  0.1907  0.2089 -0.3925
   58DOPE    HA 7370   0.652   4.673   5.494 -1.3236 -1.0771 -0.8015
   58DOPE    HB 7371   0.482   4.717   5.473  1.7642 -3.0913 -1.5579
   58DOPE    C2 7372   0.578   4.812   5.652 -0.1772  0.4473 -0.1793
   58DOPE    HS 7373   0.549   4.735   5.726 -0.1513 -0.0006 -0.6383
   58DOPE   O21 7374   0.485   4.920   5.663  0.0335 -0.2799 -0.5820
   58DOPE   C21 7375   0.360   4.895   5.643  0.4285  0.0699 -0.7521
   58DOPE   O22 7376   0.301   4.788   5.625  0.8465  0.6645  0.0810
   58DOPE   C22 7377   0.291   5.028   5.656 -0.2444 -0.7712 -0.2205
   58DOPE   H2R 7378   0.224   5.032   5.568  0.3284  1.0637 -0.6368
   58DOPE   H2S 7379   0.369   5.105   5.634 -0.3400 -0.6675 -0.1992
   58DOPE    C3 7380   0.721   4.850   5.707  0.6677 -0.2576  0.0639
   58DOPE    HX 7381   0.760   4.927   5.637 -0.5116  0.7344  0.4693
   58DOPE    HY 7382   0.792   4.764   5.702 -0.9759 -1.7300  0.7209
   58DOPE   O31 7383   0.712   4.897   5.847  0.2928  0.4293 -0.5725
   58DOPE   C31 7384   0.709   5.031   5.864  0.8818 -0.1534 -0.8501
   58DOPE   O32 7385   0.722   5.110   5.775  0.3586 -0.0213  0.2474
   58DOPE   C32 7386   0.665   5.057   6.012  0.6520  0.9293 -0.2540
   58DOPE   H2X 7387   0.634   5.163   6.027  0.8281  0.9962 -0.3587
   58DOPE   H2Y 7388   0.577   4.995   6.041 -0.9802  3.7384  1.2588
   58DOPE   C23 7389   0.215   5.046   5.788  0.0391  0.5430  0.4231
   58DOPE   H3R 7390   0.129   4.977   5.805  1.1309 -1.3675 -1.4280
   58DOPE   H3S 7391   0.172   5.148   5.780 -1.6298 -0.1617 -0.1427
   58DOPE   C24 7392   0.308   5.044   5.911  0.0178  0.2583  0.3206
   58DOPE   H4R 7393   0.415   5.051   5.879  0.0205 -0.0995  0.2478
   58DOPE   H4S 7394   0.302   4.942   5.955 -0.8261  0.8128  1.5286
   58DOPE   C25 7395   0.279   5.159   6.007 -0.1849 -0.0504 -0.5964
   58DOPE   H5R 7396   0.287   5.252   5.947 -1.9423 -0.5037 -1.5990
   58DOPE   H5S 7397   0.350   5.147   6.092 -1.2930  2.1282  0.6983
   58DOPE   C26 7398   0.136   5.159   6.063 -0.1513 -0.1214  0.1111
   58DOPE   H6R 7399   0.115   5.067   6.122  1.8510  0.1086  1.2689
   58DOPE   H6S 7400   0.059   5.167   5.983 -0.7214  2.4898  0.8210
   58DOPE   C27 7401   0.111   5.277   6.156 -0.4015 -0.0579 -0.2100
   58DOPE   H7R 7402   0.099   5.370   6.095 -0.6245  0.5595  0.7558
   58DOPE   H7S 7403   0.204   5.302   6.210  0.5340  1.4528 -2.3536
   58DOPE   C28 7404  -0.003   5.252   6.264  0.2116  0.2746  0.3787
   58DOPE   H8R 7405   0.013   5.155   6.317 -0.0876 -0.1831 -0.3530
   58DOPE   H8S 7406  -0.080   5.253   6.184  0.4130  1.0689  0.1855
   58DOPE   C29 7407  -0.011   5.378   6.348 -0.1348  0.4963  0.1721
   58DOPE   H9R 7408  -0.001   5.475   6.298  3.1234  0.4822  0.6038
   58DOPE  C210 7409  -0.036   5.387   6.480 -0.1491 -0.3522  0.3927
   58DOPE  H10R 7410  -0.046   5.488   6.523 -1.3651 -0.8171  1.2468
   58DOPE  C211 7411  -0.065   5.263   6.563 -0.8240 -0.2411  0.4020
   58DOPE  H11R 7412  -0.090   5.173   6.502 -2.5422  0.3473  0.1819
   58DOPE  H11S 7413  -0.152   5.278   6.630 -0.4790  0.0176  0.8000
   58DOPE  C212 7414   0.044   5.240   6.672 -0.5304  1.0570  0.6390
   58DOPE  H12R 7415   0.039   5.326   6.742 -1.4225  0.7377  0.9806
   58DOPE  H12S 7416   0.149   5.249   6.637  0.0882  0.1664  2.1923
   58DOPE  C213 7417   0.023   5.127   6.774  0.1703  0.5440 -0.0002
   58DOPE  H13R 7418   0.049   5.036   6.717  0.4504  0.5910  0.0544
   58DOPE  H13S 7419  -0.085   5.131   6.802  0.4176  3.0219  0.8745
   58DOPE  C214 7420   0.107   5.151   6.902  0.3886  0.2146 -0.1888
   58DOPE  H14R 7421   0.099   5.259   6.925 -1.1233  0.2787 -0.9248
   58DOPE  H14S 7422   0.214   5.129   6.880  1.1355 -0.0496  3.1993
   58DOPE  C215 7423   0.045   5.072   7.011 -0.6263  0.1321  0.2946
   58DOPE  H15R 7424   0.052   4.966   6.976 -2.0499  0.7343 -2.0856
   58DOPE  H15S 7425  -0.062   5.079   7.039 -0.5522 -1.0930  0.9727
   58DOPE  C216 7426   0.145   5.071   7.133  0.0278 -0.5035  0.6499
   58DOPE  H16R 7427   0.247   5.100   7.099 -0.5602  0.6603 -0.1979
   58DOPE  H16S 7428   0.135   4.966   7.168 -2.0233 -1.5849 -2.7795
   58DOPE  C217 7429   0.095   5.177   7.234 -0.6505  0.3965  0.4316
   58DOPE  H17R 7430  -0.008   5.147   7.264 -0.1262 -1.8283  0.1915
   58DOPE  H17S 7431   0.084   5.276   7.186 -1.5561 -1.0426 -2.5636
   58DOPE  C218 7432   0.177   5.186   7.369 -0.6513  0.5998 -0.0661
   58DOPE  H18R 7433   0.284   5.206   7.346  0.3766 -2.3808  1.5598
   58DOPE  H18S 7434   0.170   5.093   7.430  2.4009  0.7819  0.7474
   58DOPE  H18T 7435   0.135   5.269   7.429 -1.6083  1.3385 -1.7012
   58DOPE   C33 7436   0.778   5.027   6.108 -0.5330  0.0281 -0.1661
   58DOPE   H3X 7437   0.743   5.078   6.200 -0.7140 -0.9795  0.3395
   58DOPE   H3Y 7438   0.877   5.071   6.084  0.1500  1.0366  3.7435
   58DOPE   C34 7439   0.790   4.873   6.130  0.1348  0.2423 -0.2849
   58DOPE   H4X 7440   0.690   4.838   6.163  0.6265  0.0579  1.0602
   58DOPE   H4Y 7441   0.821   4.831   6.032 -1.1288 -0.4237 -0.4217
   58DOPE   C35 7442   0.890   4.817   6.242  0.0003 -0.5201 -0.2739
   58DOPE   H5X 7443   0.896   4.706   6.238  0.3110 -0.6780  2.5853
   58DOPE   H5Y 7444   0.850   4.833   6.345  0.3625 -1.1933 -0.0229
   58DOPE   C36 7445   1.031   4.876   6.229  0.1149 -0.2330 -0.2707
   58DOPE   H6X 7446   1.023   4.982   6.261  1.2150  0.3651 -1.8014
   58DOPE   H6Y 7447   1.057   4.863   6.121 -0.2138 -0.7488 -0.2884
   58DOPE   C37 7448   1.129   4.790   6.313  0.5317 -0.1162  0.1586
   58DOPE   H7X 7449   1.108   4.686   6.281 -0.1459  0.4399 -1.2833
   58DOPE   H7Y 7450   1.229   4.821   6.276  0.8583 -1.3168  0.0055
   58DOPE   C38 7451   1.122   4.805   6.463  0.1248  0.4309 -0.2118
   58DOPE   H8X 7452   1.017   4.818   6.496  0.4986  1.8715  0.5054
   58DOPE   H8Y 7453   1.180   4.897   6.486  1.8271 -0.3333 -1.2206
   58DOPE   C39 7454   1.193   4.693   6.535 -0.2753  0.1753  0.0295
   58DOPE   H9X 7455   1.297   4.688   6.500  0.2227  1.0043  1.3190
   58DOPE  C310 7456   1.145   4.625   6.642 -0.8222 -0.8128 -0.4637
   58DOPE  H10X 7457   1.213   4.554   6.691 -2.3077 -2.4171 -0.5980
   58DOPE  C311 7458   1.017   4.642   6.708 -0.0566  0.0853  0.3866
   58DOPE  H11X 7459   0.943   4.656   6.627 -1.4088 -0.5913  1.4595
   58DOPE  H11Y 7460   0.980   4.544   6.746 -0.3500 -0.5355 -1.3918
   58DOPE  C312 7461   0.992   4.752   6.802  0.4128  0.0947 -0.1959
   58DOPE  H12X 7462   0.882   4.757   6.820  0.6165  0.3178  1.0478
   58DOPE  H12Y 7463   1.023   4.854   6.772 -1.3547  2.0236  3.7801
   58DOPE  C313 7464   1.056   4.734   6.938  0.6037  0.3906 -0.0217
   58DOPE  H13X 7465   1.002   4.648   6.983  1.4043 -0.0938  0.0292
   58DOPE  H13Y 7466   1.161   4.701   6.928 -0.0041 -1.7663  0.2229
   58DOPE  C314 7467   1.027   4.850   7.036 -0.2764  0.1176 -0.6197
   58DOPE  H14X 7468   0.919   4.875   7.030 -0.2341  1.2454  2.0588
   58DOPE  H14Y 7469   1.089   4.934   6.999  0.7824 -0.2635  0.2364
   58DOPE  C315 7470   1.089   4.811   7.174  0.4641 -1.0145 -0.5066
   58DOPE  H15X 7471   1.101   4.897   7.244 -0.7771 -0.7779 -0.5632
   58DOPE  H15Y 7472   1.194   4.780   7.161  0.2798 -2.8676  1.6654
   58DOPE  C316 7473   1.027   4.694   7.256  1.2040 -0.0134  0.8226
   58DOPE  H16X 7474   1.054   4.598   7.207 -2.2858 -0.7658  0.0562
   58DOPE  H16Y 7475   0.917   4.700   7.238  1.5400 -0.4531 -1.6301
   58DOPE  C317 7476   1.049   4.696   7.406  0.3188 -0.4672 -0.7638
   58DOPE  H17X 7477   1.149   4.662   7.441  0.1998 -0.5509 -0.5050
   58DOPE  H17Y 7478   1.038   4.805   7.422 -0.6000 -0.5935 -0.5015
   58DOPE  C318 7479   0.934   4.623   7.481 -0.5970  0.3005  0.2337
   58DOPE  H18X 7480   0.962   4.614   7.588  0.1095 -1.8521 -0.0818
   58DOPE  H18Y 7481   0.845   4.690   7.476 -0.0376  1.0231 -0.1178
   58DOPE  H18Z 7482   0.918   4.523   7.435  2.0891 -0.2340  0.3312
   59DOPE     N 7483   6.515   0.360   5.157 -0.0555  0.2749  0.0694
   59DOPE   HN1 7484   6.595   0.339   5.094 -0.4603 -2.2295  0.3028
   59DOPE   HN2 7485   6.462   0.275   5.182  1.5706 -0.8668 -0.2333
   59DOPE   HN3 7486   6.445   0.419   5.107  0.8803 -0.6500 -2.5036
   59DOPE   C12 7487   6.563   0.415   5.288  0.0194 -0.5653 -0.2021
   59DOPE  H12A 7488   6.625   0.500   5.253  0.5122 -0.9971 -0.3760
   59DOPE  H12B 7489   6.619   0.337   5.343 -1.6096 -1.7776 -0.1936
   59DOPE   C11 7490   6.440   0.467   5.366  0.4217  0.6912 -0.7922
   59DOPE  H11A 7491   6.481   0.498   5.464 -0.1458 -0.9594  0.0063
   59DOPE  H11B 7492   6.374   0.379   5.382  2.0007 -0.4922 -0.5654
   59DOPE     P 7493   6.254   0.651   5.391 -0.4503 -0.4411 -0.2359
   59DOPE   O13 7494   6.154   0.557   5.461  0.1455  0.0840 -0.0828
   59DOPE   O14 7495   6.198   0.759   5.309 -0.2253  0.5482  0.0687
   59DOPE   O11 7496   6.328   0.713   5.505 -0.6577  0.4887 -0.2494
   59DOPE   O12 7497   6.373   0.576   5.303  0.3274 -0.3785  0.1768
   59DOPE    C1 7498   6.443   0.799   5.484 -0.1852  0.1910  0.1906
   59DOPE    HA 7499   6.397   0.892   5.445  0.3913  0.8266  0.9763
   59DOPE    HB 7500   6.509   0.759   5.404 -0.3834  0.1253  0.0609
   59DOPE    C2 7501   6.529   0.829   5.611  0.3399 -0.2348 -0.7922
   59DOPE    HS 7502   6.605   0.909   5.600  1.3665 -1.2538 -1.3488
   59DOPE   O21 7503   6.618   0.715   5.647  0.2469 -0.5323  0.3001
   59DOPE   C21 7504   6.716   0.707   5.569  0.1197  0.4825 -0.0006
   59DOPE   O22 7505   6.747   0.778   5.477 -0.3016 -0.3287 -0.1422
   59DOPE   C22 7506   6.784   0.580   5.612  0.4253 -1.0240  0.4935
   59DOPE   H2R 7507   6.793   0.503   5.532 -1.6259 -1.1401  0.3141
   59DOPE   H2S 7508   6.723   0.528   5.689  1.6021 -0.9726  1.4923
   59DOPE    C3 7509   6.450   0.872   5.737  0.5248  0.0416 -0.2749
   59DOPE    HX 7510   6.387   0.787   5.771  3.5846 -1.7490  1.3638
   59DOPE    HY 7511   6.375   0.952   5.718 -0.7963 -0.9751  0.4694
   59DOPE   O31 7512   6.549   0.912   5.837  0.2272  0.9064 -0.1190
   59DOPE   C31 7513   6.553   0.836   5.941  0.1643  0.3067 -0.0292
   59DOPE   O32 7514   6.484   0.736   5.961 -0.3720 -0.2213 -0.4195
   59DOPE   C32 7515   6.642   0.906   6.037 -0.7596  0.4228 -0.4377
   59DOPE   H2X 7516   6.742   0.904   5.989  1.6550 -2.2396  4.0742
   59DOPE   H2Y 7517   6.612   1.011   6.057 -0.7421 -0.1728  3.3310
   59DOPE   C23 7518   6.924   0.591   5.672 -0.1096  0.2702  0.0605
   59DOPE   H3R 7519   6.988   0.657   5.609  1.5205 -1.9081 -0.6667
   59DOPE   H3S 7520   6.958   0.486   5.663 -2.0618 -0.4238  0.4294
   59DOPE   C24 7521   6.919   0.619   5.821  0.0365  0.5536  0.0695
   59DOPE   H4R 7522   6.848   0.545   5.862 -1.2036 -0.4969 -3.5963
   59DOPE   H4S 7523   6.871   0.719   5.831 -1.7222 -0.2886  0.4743
   59DOPE   C25 7524   7.058   0.608   5.884 -0.2212 -0.0014  0.2707
   59DOPE   H5R 7525   7.137   0.666   5.833  0.4875 -0.9307  0.2745
   59DOPE   H5S 7526   7.101   0.506   5.892  2.1622  1.1183  4.0458
   59DOPE   C26 7527   7.043   0.651   6.029  0.1324 -0.0403  0.1216
   59DOPE   H6R 7528   6.958   0.614   6.090  0.2374  0.9818  0.9092
   59DOPE   H6S 7529   7.006   0.755   6.013 -1.3504 -0.7391 -1.2683
   59DOPE   C27 7530   7.175   0.656   6.099 -0.1095 -1.0100  0.2886
   59DOPE   H7R 7531   7.263   0.673   6.033 -0.5494 -0.9457 -0.2910
   59DOPE   H7S 7532   7.196   0.552   6.134 -1.4574 -0.8193  1.7688
   59DOPE   C28 7533   7.172   0.756   6.218 -0.0035  0.2748  0.1490
   59DOPE   H8R 7534   7.081   0.724   6.274  0.0492  1.4672  0.9536
   59DOPE   H8S 7535   7.148   0.853   6.171 -0.0124 -0.1410 -0.7149
   59DOPE   C29 7536   7.293   0.771   6.304 -0.7908 -0.3386  0.2260
   59DOPE   H9R 7537   7.378   0.826   6.261 -2.4156  2.0859 -0.0881
   59DOPE  C210 7538   7.314   0.728   6.438  0.9501  0.4730  0.4598
   59DOPE  H10R 7539   7.405   0.756   6.495 -0.2400  0.2613  2.5544
   59DOPE  C211 7540   7.218   0.645   6.518  0.3526  0.4087  0.0472
   59DOPE  H11R 7541   7.159   0.591   6.441 -0.3759  0.4520  0.5692
   59DOPE  H11S 7542   7.143   0.710   6.569  0.9940 -0.3141  1.9743
   59DOPE  C212 7543   7.277   0.546   6.623  0.0877 -0.5937 -0.4950
   59DOPE  H12R 7544   7.357   0.486   6.575  1.0453  2.1399 -2.6028
   59DOPE  H12S 7545   7.192   0.493   6.670 -0.8297  2.1038  1.1259
   59DOPE  C213 7546   7.340   0.613   6.752 -0.2123 -0.8522  0.3398
   59DOPE  H13R 7547   7.272   0.693   6.789  1.0159 -0.3628  1.6127
   59DOPE  H13S 7548   7.436   0.661   6.724  1.4945 -4.1167  0.1631
   59DOPE  C214 7549   7.362   0.507   6.865 -0.5641 -0.6742  0.7886
   59DOPE  H14R 7550   7.421   0.424   6.821 -1.0238 -1.1072  0.9883
   59DOPE  H14S 7551   7.270   0.455   6.899  0.8738 -1.6751  3.4134
   59DOPE  C215 7552   7.423   0.569   6.989 -0.0061 -0.5858 -0.3692
   59DOPE  H15R 7553   7.372   0.659   7.031 -0.8353 -2.0961  2.1220
   59DOPE  H15S 7554   7.527   0.599   6.964 -0.1028  0.5511  0.4607
   59DOPE  C216 7555   7.435   0.468   7.108  0.4317 -0.3853  0.0207
   59DOPE  H16R 7556   7.487   0.515   7.194  1.6236  2.3652 -2.0780
   59DOPE  H16S 7557   7.483   0.374   7.073 -1.1552 -1.4320  0.5078
   59DOPE  C217 7558   7.298   0.441   7.176 -0.2778 -0.5021 -0.1135
   59DOPE  H17R 7559   7.239   0.389   7.098  0.7393  1.2392 -2.1277
   59DOPE  H17S 7560   7.245   0.537   7.192 -0.2907 -0.7663  1.6820
   59DOPE  C218 7561   7.307   0.366   7.307  0.1277  0.3334  0.2069
   59DOPE  H18R 7562   7.366   0.273   7.292 -0.3909 -0.2185  1.4488
   59DOPE  H18S 7563   7.209   0.344   7.356  1.3813  0.0105  2.7519
   59DOPE  H18T 7564   7.372   0.427   7.373 -0.3367 -0.0395  1.0202
   59DOPE   C33 7565   6.653   0.817   6.158 -0.8522  0.4200  0.0989
   59DOPE   H3X 7566   6.672   0.708   6.147  0.9154  0.4025  2.4471
   59DOPE   H3Y 7567   6.555   0.816   6.211 -0.2929 -0.7297  1.1798
   59DOPE   C34 7568   6.761   0.852   6.269  0.2894  0.5242 -0.3575
   59DOPE   H4X 7569   6.858   0.870   6.218 -0.2920 -0.6627 -1.9733
   59DOPE   H4Y 7570   6.732   0.949   6.314  0.8316  0.4900  0.0714
   59DOPE   C35 7571   6.769   0.748   6.381 -0.4045  0.1961  0.6495
   59DOPE   H5X 7572   6.828   0.659   6.351  0.3102  0.9770 -0.3520
   59DOPE   H5Y 7573   6.665   0.710   6.392  0.2111 -2.4920 -1.6542
   59DOPE   C36 7574   6.830   0.805   6.518  0.5957  0.7284  0.3062
   59DOPE   H6X 7575   6.805   0.912   6.532  1.6478  1.2106 -1.1978
   59DOPE   H6Y 7576   6.941   0.797   6.526  0.4459  0.5332  3.2841
   59DOPE   C37 7577   6.777   0.729   6.644  0.2207 -0.6746 -0.4721
   59DOPE   H7X 7578   6.668   0.726   6.622  0.2380  0.4287 -0.7369
   59DOPE   H7Y 7579   6.807   0.622   6.637  0.6599 -0.5341 -0.8074
   59DOPE   C38 7580   6.825   0.795   6.776  0.2447 -0.2082  0.3904
   59DOPE   H8X 7581   6.748   0.771   6.853  0.7941  1.0125  1.3549
   59DOPE   H8Y 7582   6.816   0.905   6.776  1.8387 -0.0274  2.0530
   59DOPE   C39 7583   6.960   0.761   6.831  0.2190  0.5706  0.0599
   59DOPE   H9X 7584   7.038   0.742   6.756 -0.8612  0.0929 -0.9608
   59DOPE  C310 7585   6.990   0.727   6.962 -0.8441  0.1081  0.2017
   59DOPE  H10X 7586   7.097   0.702   6.969  0.3454  3.6023 -2.3930
   59DOPE  C311 7587   6.912   0.727   7.086 -0.0328 -0.2396  0.5796
   59DOPE  H11X 7588   6.964   0.797   7.156 -1.1020  1.6062 -0.3955
   59DOPE  H11Y 7589   6.813   0.771   7.062  0.4452 -0.2828 -1.7040
   59DOPE  C312 7590   6.907   0.588   7.144  0.0984 -0.4851 -0.5287
   59DOPE  H12X 7591   7.000   0.561   7.198 -0.1904  1.7801  1.2406
   59DOPE  H12Y 7592   6.890   0.509   7.067  1.5399 -0.9522 -0.4020
   59DOPE  C313 7593   6.800   0.570   7.256 -0.4778 -0.1455  0.3970
   59DOPE  H13X 7594   6.700   0.596   7.216 -0.2474  1.3947  0.7368
   59DOPE  H13Y 7595   6.784   0.462   7.278 -1.1154  0.0908  1.1377
   59DOPE  C314 7596   6.818   0.656   7.377 -0.0810  0.5564 -0.3246
   59DOPE  H14X 7597   6.733   0.631   7.444  1.5230 -1.5259  1.0770
   59DOPE  H14Y 7598   6.815   0.765   7.354 -2.1249  1.0561  1.8772
   59DOPE  C315 7599   6.936   0.611   7.472 -0.5440  0.3838 -0.2766
   59DOPE  H15X 7600   7.032   0.643   7.426 -0.7683 -0.5652 -1.4530
   59DOPE  H15Y 7601   6.928   0.501   7.471  0.2727  0.2541  1.8896
   59DOPE  C316 7602   6.922   0.643   7.622  0.9697  0.1605 -0.0243
   59DOPE  H16X 7603   6.815   0.627   7.646  1.3892  0.4248  2.2456
   59DOPE  H16Y 7604   6.942   0.749   7.647  0.2692  1.0936 -3.0321
   59DOPE  C317 7605   7.013   0.550   7.711  0.0879  0.3458  0.0326
   59DOPE  H17X 7606   6.999   0.451   7.661 -0.2794  1.0738 -1.3674
   59DOPE  H17Y 7607   7.119   0.581   7.702 -0.2115  1.0803 -1.3760
   59DOPE  C318 7608   6.964   0.557   7.853 -0.4413 -0.3025 -0.5325
   59DOPE  H18X 7609   6.860   0.520   7.864 -0.5653 -0.9381 -3.2355
   59DOPE  H18Y 7610   7.025   0.500   7.927 -1.9080 -0.0831  0.9080
   59DOPE  H18Z 7611   6.964   0.665   7.880  1.2772 -0.0612 -1.3421
   60DOPE     N 7612   1.111   5.993   5.477  0.3898 -0.2311  0.2855
   60DOPE   HN1 7613   1.139   6.074   5.418 -0.4298  0.4708  0.8422
   60DOPE   HN2 7614   1.143   5.905   5.430  3.6864  0.6181  0.6981
   60DOPE   HN3 7615   1.008   5.990   5.464 -0.0983 -0.4529  3.4301
   60DOPE   C12 7616   1.142   5.998   5.622 -0.6339  0.6184 -0.5153
   60DOPE  H12A 7617   1.160   6.103   5.653  2.1808  0.6064 -1.7417
   60DOPE  H12B 7618   1.243   5.953   5.633 -0.3968  1.3631  0.4495
   60DOPE   C11 7619   1.044   5.912   5.709 -0.0365  0.7109 -0.5447
   60DOPE  H11A 7620   0.944   5.954   5.687 -1.2369 -1.2268  0.8323
   60DOPE  H11B 7621   1.066   5.919   5.818 -0.5284 -2.2621 -0.1595
   60DOPE     P 7622   0.939   5.676   5.724 -0.2459 -0.1274 -0.2999
   60DOPE   O13 7623   0.986   5.540   5.688 -0.0132  0.0194  0.1432
   60DOPE   O14 7624   0.808   5.722   5.674  0.5324 -0.5892 -0.2851
   60DOPE   O11 7625   0.949   5.690   5.882  0.3165  0.2348  0.5477
   60DOPE   O12 7626   1.046   5.773   5.673 -0.6532  0.1480  0.3368
   60DOPE    C1 7627   0.952   5.579   5.961 -0.6570 -0.7182  0.1054
   60DOPE    HA 7628   0.982   5.614   6.062  1.8678 -1.3848 -0.3425
   60DOPE    HB 7629   1.031   5.508   5.928 -0.0755  0.6815 -1.7243
   60DOPE    C2 7630   0.817   5.505   5.960  0.1521  0.0304 -0.2167
   60DOPE    HS 7631   0.808   5.457   5.861 -0.6204 -2.8147  1.1179
   60DOPE   O21 7632   0.707   5.593   5.999 -0.4123 -0.4845  0.4224
   60DOPE   C21 7633   0.592   5.550   5.942  0.2791 -0.0456 -0.1182
   60DOPE   O22 7634   0.582   5.461   5.858  0.9807  0.0760 -0.5318
   60DOPE   C22 7635   0.481   5.638   5.993  0.0270  0.7447 -1.0135
   60DOPE   H2R 7636   0.403   5.623   5.915 -0.1566  1.0542 -0.8895
   60DOPE   H2S 7637   0.518   5.741   6.009  1.8834 -0.0243  0.0107
   60DOPE    C3 7638   0.839   5.386   6.064  0.2421  0.2700  0.1284
   60DOPE    HX 7639   0.912   5.308   6.033  0.2585 -0.3892  1.6984
   60DOPE    HY 7640   0.738   5.342   6.051  0.4456  0.2710 -1.6742
   60DOPE   O31 7641   0.862   5.432   6.198 -0.1228  0.2328 -0.0633
   60DOPE   C31 7642   0.762   5.421   6.286  0.0569 -0.6475  0.2062
   60DOPE   O32 7643   0.647   5.398   6.259  0.1475  0.3807 -0.3600
   60DOPE   C32 7644   0.807   5.449   6.432 -0.0945 -0.5763  0.1802
   60DOPE   H2X 7645   0.905   5.501   6.424 -0.8883  0.9793  0.1174
   60DOPE   H2Y 7646   0.736   5.525   6.471  2.0890  0.8717  1.5145
   60DOPE   C23 7647   0.415   5.580   6.126 -0.4673 -0.5840  0.2127
   60DOPE   H3R 7648   0.502   5.561   6.192  0.8297  0.5657 -1.0741
   60DOPE   H3S 7649   0.367   5.482   6.106  0.5619 -1.5812  2.2804
   60DOPE   C24 7650   0.313   5.676   6.185  0.6492 -0.1968  0.0173
   60DOPE   H4R 7651   0.226   5.688   6.118 -1.3451  2.7077  2.8462
   60DOPE   H4S 7652   0.357   5.778   6.190  0.8257 -0.2991  0.7954
   60DOPE   C25 7653   0.256   5.622   6.320  0.3639  0.4594  0.3953
   60DOPE   H5R 7654   0.195   5.530   6.304 -0.0697  0.5351  1.5440
   60DOPE   H5S 7655   0.179   5.684   6.371 -1.1991 -2.2989  1.6061
   60DOPE   C26 7656   0.365   5.597   6.429  0.2082 -0.5731 -0.0582
   60DOPE   H6R 7657   0.408   5.698   6.451  0.1044 -0.6252  0.3868
   60DOPE   H6S 7658   0.449   5.527   6.411  0.1511 -0.4736 -0.7242
   60DOPE   C27 7659   0.298   5.540   6.558  0.1714  0.2902  0.1961
   60DOPE   H7R 7660   0.265   5.438   6.530  1.3203  0.3170 -1.4293
   60DOPE   H7S 7661   0.219   5.609   6.593  1.2670  2.3153 -1.0894
   60DOPE   C28 7662   0.404   5.521   6.673  0.2599  0.6627  0.3879
   60DOPE   H8R 7663   0.434   5.626   6.694  0.9609  0.5674 -0.0950
   60DOPE   H8S 7664   0.485   5.449   6.647  0.7170  1.5133 -0.6075
   60DOPE   C29 7665   0.335   5.468   6.801 -0.3355 -0.6548  0.5554
   60DOPE   H9R 7666   0.237   5.424   6.777  0.1867 -1.7798  0.4283
   60DOPE  C210 7667   0.390   5.452   6.924 -0.1367 -0.2145 -0.2907
   60DOPE  H10R 7668   0.330   5.400   7.000  1.1227  0.2273  1.0631
   60DOPE  C211 7669   0.534   5.491   6.958 -0.7875 -1.0297 -0.2912
   60DOPE  H11R 7670   0.552   5.596   6.926  1.2911 -1.7385 -1.6630
   60DOPE  H11S 7671   0.600   5.422   6.900 -2.2659 -1.1971 -1.8819
   60DOPE  C212 7672   0.557   5.480   7.106  0.0844  0.0509  0.6762
   60DOPE  H12R 7673   0.667   5.486   7.123  0.4419 -0.3382 -1.2772
   60DOPE  H12S 7674   0.530   5.378   7.140  1.4931 -0.2929  0.8273
   60DOPE  C213 7675   0.467   5.576   7.190 -0.0061 -0.2920  0.6190
   60DOPE  H13R 7676   0.365   5.531   7.193 -0.1507 -0.3159 -2.1328
   60DOPE  H13S 7677   0.468   5.667   7.128 -1.9589  0.8289  2.1082
   60DOPE  C214 7678   0.512   5.618   7.325 -0.1375  0.3010 -0.9147
   60DOPE  H14R 7679   0.564   5.537   7.381  0.7408 -0.0622 -2.1973
   60DOPE  H14S 7680   0.419   5.645   7.378 -0.9012 -0.3549 -1.8932
   60DOPE  C215 7681   0.615   5.735   7.302 -0.2649  0.8367 -0.2964
   60DOPE  H15R 7682   0.565   5.815   7.243  0.7702 -0.6855 -3.4490
   60DOPE  H15S 7683   0.700   5.704   7.238  0.1775 -0.2646  0.7769
   60DOPE  C216 7684   0.666   5.785   7.442  0.0503 -0.6818  0.4225
   60DOPE  H16R 7685   0.704   5.695   7.494 -2.3255 -0.9445  1.8521
   60DOPE  H16S 7686   0.577   5.820   7.498  0.1830 -2.0993  1.5660
   60DOPE  C217 7687   0.780   5.888   7.427 -0.8525 -0.6391  1.0002
   60DOPE  H17R 7688   0.748   5.984   7.381 -1.2244 -0.5764  1.3782
   60DOPE  H17S 7689   0.850   5.840   7.355 -2.6849 -0.3287 -1.1223
   60DOPE  C218 7690   0.846   5.926   7.560  0.2407  0.4923  0.4260
   60DOPE  H18R 7691   0.773   5.968   7.633 -0.5245  3.4344 -1.8617
   60DOPE  H18S 7692   0.913   6.011   7.537 -2.0200  2.5812  1.1863
   60DOPE  H18T 7693   0.909   5.844   7.599  1.2354 -0.2841 -2.5292
   60DOPE   C33 7694   0.806   5.327   6.520 -0.0734 -0.0456  0.2291
   60DOPE   H3X 7695   0.895   5.265   6.497 -0.7416  0.3889 -4.4962
   60DOPE   H3Y 7696   0.712   5.268   6.516 -0.2700  0.3134 -0.6541
   60DOPE   C34 7697   0.816   5.374   6.668  0.8792 -0.4411  0.1452
   60DOPE   H4X 7698   0.916   5.419   6.684  1.5459 -2.3829  1.8369
   60DOPE   H4Y 7699   0.742   5.452   6.694  2.5206  0.3835  2.7230
   60DOPE   C35 7700   0.816   5.260   6.764  0.3960 -0.1917 -0.1575
   60DOPE   H5X 7701   0.869   5.173   6.719 -1.0157 -0.1572 -2.0458
   60DOPE   H5Y 7702   0.711   5.224   6.774 -0.1122  1.3419  0.2989
   60DOPE   C36 7703   0.868   5.305   6.892 -0.0309  0.4398 -0.5808
   60DOPE   H6X 7704   0.821   5.399   6.931 -0.3919  0.8275 -1.9120
   60DOPE   H6Y 7705   0.975   5.332   6.878  0.4661  1.2990  3.5135
   60DOPE   C37 7706   0.861   5.198   6.999  0.0126  0.1164 -0.2540
   60DOPE   H7X 7707   0.753   5.183   7.024 -0.1542 -2.1553 -2.0824
   60DOPE   H7Y 7708   0.884   5.105   6.943  1.1529 -0.2320  0.7496
   60DOPE   C38 7709   0.943   5.242   7.124 -0.3896  0.0200  0.1747
   60DOPE   H8X 7710   0.890   5.335   7.154  1.5357  1.2350 -0.0814
   60DOPE   H8Y 7711   1.042   5.278   7.089 -0.8679 -0.1262 -1.3991
   60DOPE   C39 7712   0.948   5.149   7.239 -0.4874  0.6473  0.3722
   60DOPE   H9X 7713   0.962   5.047   7.201  0.0402  0.8657 -0.0334
   60DOPE  C310 7714   0.936   5.176   7.374 -0.0066 -0.4551  0.0638
   60DOPE  H10X 7715   0.949   5.093   7.444 -0.7922 -3.0046 -2.6389
   60DOPE  C311 7716   0.912   5.316   7.421 -0.3052 -0.0320 -0.3757
   60DOPE  H11X 7717   0.938   5.317   7.528  1.0042 -0.8865 -0.6634
   60DOPE  H11Y 7718   0.970   5.396   7.369  1.1248 -0.0735  1.0859
   60DOPE  C312 7719   0.760   5.354   7.430  0.2556 -0.2740 -0.0728
   60DOPE  H12X 7720   0.718   5.334   7.329 -0.3433  0.6281 -0.0182
   60DOPE  H12Y 7721   0.750   5.465   7.435 -0.2228  0.1073 -4.7874
   60DOPE  C313 7722   0.677   5.266   7.526  0.1876 -0.2492  0.3586
   60DOPE  H13X 7723   0.676   5.159   7.496  1.3362 -0.2312  0.2252
   60DOPE  H13Y 7724   0.715   5.268   7.630 -2.8349 -2.9199  1.6666
   60DOPE  C314 7725   0.528   5.319   7.532  0.8121 -0.2953  0.1565
   60DOPE  H14X 7726   0.489   5.302   7.430 -0.8784 -0.5974  0.8271
   60DOPE  H14Y 7727   0.533   5.427   7.561  2.7894  0.2378 -1.8886
   60DOPE  C315 7728   0.441   5.231   7.617  0.0713 -0.2504 -0.3933
   60DOPE  H15X 7729   0.440   5.122   7.591 -0.2139 -0.4343  0.3652
   60DOPE  H15Y 7730   0.333   5.256   7.607 -0.0310 -1.0120 -1.3819
   60DOPE  C316 7731   0.483   5.242   7.771  0.1016  0.6334  0.3026
   60DOPE  H16X 7732   0.513   5.349   7.769  2.8370 -0.0621 -0.9747
   60DOPE  H16Y 7733   0.572   5.178   7.792 -0.9451 -0.3329  1.9342
   60DOPE  C317 7734   0.370   5.209   7.865 -0.7804 -0.2532 -0.2670
   60DOPE  H17X 7735   0.291   5.287   7.861 -0.6609 -0.0154  1.3101
   60DOPE  H17Y 7736   0.328   5.106   7.858 -2.8048  0.4345  0.8799
   60DOPE  C318 7737   0.413   5.214   8.014 -0.5474 -0.4303  0.6409
   60DOPE  H18X 7738   0.490   5.139   8.043 -1.5215 -1.5171  0.4964
   60DOPE  H18Y 7739   0.435   5.320   8.037 -1.5653  0.4433 -2.0474
   60DOPE  H18Z 7740   0.322   5.193   8.074 -1.5016  1.8105  0.0614
   6123SM     N 7741   2.569   4.198   9.237  0.9737  0.1342 -0.2926
   6123SM   C15 7742   2.496   4.108   9.329 -0.0284 -0.7704 -0.2019
   6123SM  H15A 7743   2.566   4.053   9.390 -1.1978 -3.4712 -1.1220
   6123SM  H15B 7744   2.437   4.040   9.271 -1.0845 -1.0630  1.1711
   6123SM  H15C 7745   2.431   4.160   9.397 -1.1992 -1.6505 -0.6216
   6123SM   C14 7746   2.472   4.251   9.132  0.2218 -0.6215  0.5931
   6123SM  H14A 7747   2.437   4.184   9.055 -1.6782  0.7540  0.1792
   6123SM  H14B 7748   2.514   4.333   9.076  0.1857 -0.5983  0.5994
   6123SM  H14C 7749   2.392   4.292   9.192 -2.0700 -0.9911 -2.0196
   6123SM   C13 7750   2.630   4.318   9.296  0.2093 -0.4199 -0.3360
   6123SM  H13A 7751   2.715   4.298   9.359  0.9215  2.2955 -0.2774
   6123SM  H13B 7752   2.557   4.362   9.363 -1.1735  0.5812 -2.3770
   6123SM  H13C 7753   2.663   4.385   9.217 -0.0938 -1.2084 -1.1454
   6123SM   C12 7754   2.667   4.119   9.156  0.6925 -0.5915 -0.1621
   6123SM  H12A 7755   2.724   4.184   9.090  2.2416  1.2903  2.8299
   6123SM  H12B 7756   2.616   4.037   9.108  0.6113 -1.4333  1.3339
   6123SM   C11 7757   2.779   4.054   9.239 -0.9748  0.0336 -0.8043
   6123SM  H11A 7758   2.832   4.144   9.277 -2.8971  0.3199  1.4483
   6123SM  H11B 7759   2.853   4.005   9.173  0.5057 -1.3654  1.7562
   6123SM     P 7760   2.782   3.823   9.367  0.6404  0.1543 -0.0488
   6123SM   O13 7761   2.923   3.805   9.413 -0.1600  0.2279  0.1600
   6123SM   O14 7762   2.676   3.770   9.456  0.0214  0.5795 -0.0835
   6123SM   O11 7763   2.767   3.772   9.219 -0.3614 -0.0203 -0.4224
   6123SM   O12 7764   2.744   3.975   9.352 -0.3622 -0.3836  0.3021
   6123SM   C1S 7765   2.637   3.766   9.159 -0.1587  0.6125 -0.2980
   6123SM   H1S 7766   2.575   3.857   9.177 -2.0993 -0.9829  1.5955
   6123SM   H1T 7767   2.573   3.686   9.202  0.9338 -0.2979 -0.3217
   6123SM    NF 7768   2.549   3.755   8.928  0.1436 -0.3603 -0.4359
   6123SM   HNF 7769   2.480   3.683   8.927  0.0580 -0.3915  1.8929
   6123SM   C2S 7770   2.667   3.735   9.008  0.1070  0.5422 -0.5988
   6123SM   H2S 7771   2.749   3.806   8.986  1.0425  0.4599  2.1938
   6123SM   C3S 7772   2.742   3.594   8.988  0.8724  0.1018 -0.2827
   6123SM   H3S 7773   2.675   3.506   9.002 -1.6669  1.2273 -3.9867
   6123SM    O3 7774   2.857   3.563   9.067  0.5991 -0.2264 -0.4485
   6123SM   HO3 7775   2.864   3.647   9.113 -3.1084  1.5444 -2.6034
   6123SM   C4S 7776   2.776   3.568   8.844 -0.3725 -0.6479  0.1654
   6123SM   H4S 7777   2.687   3.539   8.788  0.9036 -2.6537 -0.9376
   6123SM   C5S 7778   2.891   3.597   8.780 -0.3375  0.3814 -0.1216
   6123SM   H5S 7779   2.979   3.636   8.833 -0.5729  1.2960 -0.3783
   6123SM   C6S 7780   2.913   3.593   8.632 -0.0374  0.0913 -0.0979
   6123SM   H6S 7781   2.997   3.522   8.617  0.3684  0.7487 -1.0537
   6123SM   H6T 7782   2.943   3.692   8.591 -1.0992  0.4900  0.0711
   6123SM   C7S 7783   2.799   3.530   8.550 -0.2087  0.5927 -0.3368
   6123SM   H7S 7784   2.709   3.593   8.541 -2.5685 -2.4979 -0.1085
   6123SM   H7T 7785   2.766   3.432   8.592  2.0248 -0.8788 -1.7398
   6123SM   C8S 7786   2.854   3.498   8.411  1.0297  0.2745  0.2137
   6123SM   H8S 7787   2.771   3.450   8.355 -1.0479  0.3303  3.0440
   6123SM   H8T 7788   2.934   3.421   8.403  1.9662  1.4085 -2.3616
   6123SM   C9S 7789   2.884   3.626   8.330  0.0830 -0.1908  0.2224
   6123SM   H9S 7790   2.961   3.691   8.378  0.4000 -0.1230 -0.3718
   6123SM   H9T 7791   2.787   3.677   8.310  0.1143  0.8238  2.3660
   6123SM  C10S 7792   2.948   3.590   8.195  0.1385 -0.2016 -0.4964
   6123SM  H10S 7793   3.038   3.527   8.213  1.5313  2.0047  0.8108
   6123SM  H10T 7794   2.988   3.682   8.147 -3.3773  1.0991 -1.2167
   6123SM  C11S 7795   2.859   3.524   8.090 -0.2076 -0.7637 -0.7772
   6123SM  H11S 7796   2.785   3.601   8.057 -1.2887 -0.1805  2.5892
   6123SM  H11T 7797   2.803   3.436   8.129  1.8739 -1.9173 -0.2600
   6123SM  C12S 7798   2.946   3.480   7.976 -0.1213 -0.2249  0.6189
   6123SM  H12S 7799   2.879   3.429   7.903 -0.5432 -1.0033  1.5240
   6123SM  H12T 7800   3.016   3.401   8.011  0.1843  0.0895  0.7187
   6123SM  C13S 7801   3.015   3.598   7.896 -0.2489  0.2671 -0.0582
   6123SM  H13S 7802   3.077   3.653   7.971 -0.6828  0.1548  0.3863
   6123SM  H13T 7803   2.936   3.673   7.876 -0.2559 -0.0765 -1.4022
   6123SM  C14S 7804   3.105   3.554   7.781  0.5975  0.6019 -0.6723
   6123SM  H14S 7805   3.183   3.493   7.832  0.1618  0.0373 -0.6691
   6123SM  H14T 7806   3.159   3.640   7.738  0.2187  0.2050 -1.9848
   6123SM  C15S 7807   3.040   3.473   7.667  0.1221 -0.0102 -0.2874
   6123SM  H15S 7808   2.972   3.530   7.600  0.2724 -0.4101 -0.7889
   6123SM  H15T 7809   2.977   3.394   7.712  1.6062  0.1224  2.2184
   6123SM  C16S 7810   3.150   3.396   7.580 -0.2187  0.0675 -0.4711
   6123SM  H16S 7811   3.087   3.341   7.505 -0.4065 -1.7436  0.9371
   6123SM  H16T 7812   3.203   3.320   7.641 -1.2447 -1.2484 -1.1619
   6123SM  C17S 7813   3.248   3.481   7.502 -0.2336  0.6453  0.4079
   6123SM  H17S 7814   3.327   3.516   7.572  2.2094 -1.6301 -1.0123
   6123SM  H17T 7815   3.176   3.558   7.469 -0.2458  0.3758 -0.2100
   6123SM  C18S 7816   3.302   3.402   7.388  0.1258  0.0594 -0.8055
   6123SM  H18S 7817   3.348   3.308   7.425 -1.6945 -0.3095  0.6730
   6123SM  H18T 7818   3.368   3.454   7.315  1.5329  1.9713  1.6358
   6123SM  H18U 7819   3.213   3.360   7.338 -1.3089  0.8466  0.9374
   6123SM   C1F 7820   2.506   3.882   8.906  0.3476 -0.1941 -0.4378
   6123SM    OF 7821   2.570   3.982   8.931 -0.0755 -0.2495  0.2953
   6123SM   C2F 7822   2.371   3.890   8.839  0.7688  0.5795 -0.5691
   6123SM   H2F 7823   2.317   3.970   8.893  2.4013  0.7806  0.8277
   6123SM   H2G 7824   2.324   3.790   8.853  3.1543 -0.7950 -1.8118
   6123SM   C3F 7825   2.382   3.924   8.687  0.5746 -0.0344  0.0055
   6123SM   H3F 7826   2.436   4.019   8.668  0.5716 -0.2464 -1.1145
   6123SM   H3G 7827   2.275   3.946   8.664 -0.1671 -2.8227  0.3719
   6123SM   C4F 7828   2.440   3.824   8.587 -0.0957 -0.3985  0.9385
   6123SM   H4F 7829   2.386   3.731   8.616 -0.1844 -0.2045  1.4083
   6123SM   H4G 7830   2.546   3.795   8.604  1.1395  1.8312 -2.0971
   6123SM   C5F 7831   2.428   3.863   8.445 -0.6865 -0.1449  0.5857
   6123SM   H5F 7832   2.520   3.925   8.430 -1.1845  0.9209  1.7329
   6123SM   H5G 7833   2.335   3.921   8.427  0.7135  1.6099 -1.4766
   6123SM   C6F 7834   2.426   3.738   8.353 -0.1261 -0.1639  0.0958
   6123SM   H6F 7835   2.332   3.684   8.373 -1.3579  1.9427  0.2722
   6123SM   H6G 7836   2.509   3.668   8.377 -0.4529 -1.3173 -1.8573
   6123SM   C7F 7837   2.430   3.773   8.208 -0.4275  0.1372 -0.1107
   6123SM   H7F 7838   2.532   3.803   8.177 -0.4573 -0.7821 -1.1806
   6123SM   H7G 7839   2.370   3.865   8.191  0.1106  0.4933 -0.0662
   6123SM   C8F 7840   2.380   3.662   8.105 -0.9102 -0.5607 -0.1359
   6123SM   H8F 7841   2.272   3.643   8.119 -1.3347  1.8395  0.3587
   6123SM   H8G 7842   2.436   3.571   8.134 -0.5492 -0.1409  0.5152
   6123SM   C9F 7843   2.419   3.674   7.957 -0.4402 -0.1719 -0.2426
   6123SM   H9F 7844   2.528   3.697   7.947  0.3322 -1.8232  2.9637
   6123SM   H9G 7845   2.363   3.758   7.910 -0.8963 -0.6992 -0.6557
   6123SM  C10F 7846   2.389   3.541   7.890  0.1884  0.7683  0.2326
   6123SM  H10F 7847   2.346   3.575   7.793  1.1360 -0.1466 -0.5229
   6123SM  H10G 7848   2.314   3.478   7.943  1.9822 -0.9480  0.8404
   6123SM  C11F 7849   2.514   3.452   7.854 -0.1958 -0.0393  0.3377
   6123SM  H11F 7850   2.560   3.424   7.951  1.2731 -0.4229 -0.4490
   6123SM  H11G 7851   2.587   3.505   7.790  0.7916 -0.6457  0.9229
   6123SM  C12F 7852   2.462   3.327   7.784  0.1558  0.0744 -0.1430
   6123SM  H12F 7853   2.411   3.336   7.686  0.0303  0.8888 -0.0110
   6123SM  H12G 7854   2.379   3.275   7.838  0.1553 -1.2036 -1.3215
   6123SM  C13F 7855   2.571   3.215   7.764  0.0104  0.3666 -0.3282
   6123SM  H13F 7856   2.616   3.179   7.859 -1.2602  0.1317  0.2046
   6123SM  H13G 7857   2.656   3.254   7.705 -1.1533  0.1624 -2.2567
   6123SM  C14F 7858   2.520   3.090   7.691 -0.0619 -0.1510  0.3003
   6123SM  H14F 7859   2.466   3.127   7.601 -1.3740  0.9686  1.4865
   6123SM  H14G 7860   2.444   3.038   7.754 -0.1142  0.1499  0.4882
   6123SM  C15F 7861   2.629   2.992   7.640 -0.3013 -0.1845 -0.1688
   6123SM  H15F 7862   2.660   2.939   7.732  1.5881  2.1805  0.6598
   6123SM  H15G 7863   2.718   3.051   7.609  0.4883 -0.4551  1.5260
   6123SM  C16F 7864   2.568   2.897   7.532 -0.4421 -0.8028 -0.8072
   6123SM  H16F 7865   2.529   2.961   7.450  0.6822  0.0791 -0.6891
   6123SM  H16G 7866   2.488   2.835   7.577  0.3669 -1.4500 -0.2127
   6123SM  C17F 7867   2.676   2.813   7.460 -0.1306  0.1172  0.6870
   6123SM  H17F 7868   2.713   2.739   7.535 -1.1556  2.1270  3.3398
   6123SM  H17G 7869   2.760   2.878   7.427 -0.8722 -0.4072 -2.5530
   6123SM  C18F 7870   2.622   2.726   7.338  0.0009 -0.5894 -0.0105
   6123SM  H18F 7871   2.565   2.785   7.264 -0.2802  3.8647  3.3628
   6123SM  H18G 7872   2.552   2.650   7.380 -1.3421  0.0323 -1.0525
   6123SM  C19F 7873   2.732   2.658   7.257 -0.1151  0.0387  0.9995
   6123SM  H19F 7874   2.786   2.591   7.327 -1.0840 -2.5749 -0.5592
   6123SM  H19G 7875   2.806   2.734   7.225 -1.8540  2.4786  2.4707
   6123SM  C20F 7876   2.671   2.571   7.146 -0.7143  0.1220  0.5710
   6123SM  H20F 7877   2.601   2.626   7.079 -0.3629 -1.5215 -1.2405
   6123SM  H20G 7878   2.613   2.490   7.196 -0.0347 -1.9288 -1.7467
   6123SM  C21F 7879   2.784   2.519   7.056  0.0857 -1.0742 -0.5188
   6123SM  H21F 7880   2.867   2.467   7.109  0.2410 -1.0736 -0.7618
   6123SM  H21G 7881   2.842   2.606   7.018  0.1836 -0.7054  0.4374
   6123SM  C22F 7882   2.737   2.439   6.942 -0.0298  0.0409 -0.0240
   6123SM  H22F 7883   2.633   2.458   6.906  0.7346  2.7609 -1.0092
   6123SM  H22G 7884   2.732   2.339   6.990 -3.6852  0.5273  0.9141
   6123SM  C23F 7885   2.825   2.432   6.825 -0.3232 -0.1735  0.1022
   6123SM  H23F 7886   2.924   2.388   6.850  0.0137  1.3455  1.6193
   6123SM  H23G 7887   2.839   2.532   6.780  1.1775 -0.5656 -0.3644
   6123SM  H23H 7888   2.769   2.377   6.747  0.8027  0.4200 -1.1604
   6223SM     N 7889   3.200   2.339   9.911  0.0494 -0.1924 -0.9717
   6223SM   C15 7890   3.328   2.283   9.974 -0.4271 -0.1013 -0.0307
   6223SM  H15A 7891   3.411   2.273   9.905  0.1069  2.1547  0.1926
   6223SM  H15B 7892   3.320   2.178   9.998  1.2040  0.4712  3.5943
   6223SM  H15C 7893   3.361   2.349  10.053  1.2207 -1.7649  0.7346
   6223SM   C14 7894   3.117   2.372  10.024  0.7881 -0.8613 -0.1019
   6223SM  H14A 7895   3.023   2.402   9.979 -0.0564  1.1499  2.7169
   6223SM  H14B 7896   3.159   2.456  10.077  0.4843 -0.6231 -0.2304
   6223SM  H14C 7897   3.105   2.296  10.100 -1.3875  0.2829  0.7922
   6223SM   C13 7898   3.243   2.467   9.836  0.1916 -0.3304  0.8494
   6223SM  H13A 7899   3.274   2.543   9.907  1.8373 -0.2134  0.0472
   6223SM  H13B 7900   3.159   2.507   9.780  0.9959  0.1322 -0.0480
   6223SM  H13C 7901   3.320   2.461   9.761 -0.9824  2.0201 -0.6790
   6223SM   C12 7902   3.125   2.248   9.816 -0.1620 -0.9995 -0.0880
   6223SM  H12A 7903   3.091   2.158   9.865  0.1525 -0.5496  0.9639
   6223SM  H12B 7904   3.193   2.207   9.743  2.1050  1.7897  0.2896
   6223SM   C11 7905   3.009   2.310   9.726 -0.1012 -0.1964 -0.3040
   6223SM  H11A 7906   2.982   2.225   9.659 -1.1380  0.4225 -0.6940
   6223SM  H11B 7907   3.048   2.390   9.660  1.8207 -0.6644  0.1789
   6223SM     P 7908   2.762   2.301   9.804 -0.0842 -0.1094 -0.3785
   6223SM   O13 7909   2.769   2.158   9.846  0.0465  0.1785 -0.5872
   6223SM   O14 7910   2.674   2.396   9.881  0.0626 -0.1110 -0.2415
   6223SM   O11 7911   2.718   2.311   9.656 -1.3622  0.0692  0.0459
   6223SM   O12 7912   2.903   2.368   9.802 -0.1023  0.5397 -0.0492
   6223SM   C1S 7913   2.696   2.431   9.584  0.1467  0.4828 -0.8026
   6223SM   H1S 7914   2.716   2.525   9.641  2.2672 -0.4418  0.0890
   6223SM   H1T 7915   2.588   2.436   9.560 -0.2545 -0.6969  0.6142
   6223SM    NF 7916   2.771   2.594   9.414 -0.5742 -0.8301 -0.2526
   6223SM   HNF 7917   2.715   2.603   9.332  0.4701  0.4334 -0.8653
   6223SM   C2S 7918   2.787   2.454   9.465 -0.7838 -0.6139  0.0510
   6223SM   H2S 7919   2.891   2.446   9.502 -0.5512 -1.1405 -0.6944
   6223SM   C3S 7920   2.769   2.348   9.359  0.6097  0.3998  0.9219
   6223SM   H3S 7921   2.662   2.357   9.332  0.3456  0.5286  1.9764
   6223SM    O3 7922   2.781   2.217   9.412  0.3242  0.2774  0.2745
   6223SM   HO3 7923   2.742   2.222   9.499 -2.1427 -0.3688 -0.7053
   6223SM   C4S 7924   2.856   2.365   9.234  0.0204 -0.2318 -0.0193
   6223SM   H4S 7925   2.804   2.374   9.137  1.0525 -0.7285 -0.6432
   6223SM   C5S 7926   2.990   2.349   9.224 -0.2551 -0.3085 -0.7246
   6223SM   H5S 7927   3.047   2.323   9.315  0.9476 -1.4765 -1.7667
   6223SM   C6S 7928   3.071   2.346   9.096  0.2758 -0.2261  0.4384
   6223SM   H6S 7929   3.107   2.241   9.087  1.7303  0.4549 -2.7961
   6223SM   H6T 7930   3.160   2.412   9.097  2.0704 -2.5002  0.1704
   6223SM   C7S 7931   2.992   2.372   8.960 -0.1573  0.2882  0.2441
   6223SM   H7S 7932   2.958   2.477   8.965  1.3005  0.9336 -1.9582
   6223SM   H7T 7933   2.899   2.313   8.949  0.7034 -1.2019  0.5623
   6223SM   C8S 7934   3.092   2.354   8.843 -0.6704 -0.2040 -0.2799
   6223SM   H8S 7935   3.123   2.247   8.842  0.5941  0.1209  1.2048
   6223SM   H8T 7936   3.185   2.413   8.855  0.2136 -1.6250  0.0868
   6223SM   C9S 7937   3.044   2.411   8.709 -0.2701  0.0651  0.1634
   6223SM   H9S 7938   3.137   2.437   8.654  0.7470 -0.2554  1.6493
   6223SM   H9T 7939   2.983   2.502   8.726  1.0958  0.9177  0.6608
   6223SM  C10S 7940   2.977   2.301   8.622  0.5258  0.0628  0.1357
   6223SM  H10S 7941   2.899   2.269   8.694  1.3365 -1.0948  0.5269
   6223SM  H10T 7942   3.037   2.209   8.607  0.0719 -0.2774  0.3870
   6223SM  C11S 7943   2.915   2.350   8.483 -0.2339 -0.0749  0.2000
   6223SM  H11S 7944   2.872   2.450   8.502  0.5254  0.0261  1.5686
   6223SM  H11T 7945   2.840   2.272   8.456  1.2744 -1.8858  0.9767
   6223SM  C12S 7946   3.012   2.372   8.370 -0.3228  0.6728  0.5055
   6223SM  H12S 7947   3.083   2.288   8.359  0.1896  0.7631  2.6891
   6223SM  H12T 7948   3.072   2.461   8.399  1.8369 -0.6772  0.3506
   6223SM  C13S 7949   2.953   2.404   8.232  0.3956 -0.6399  0.0405
   6223SM  H13S 7950   2.891   2.318   8.199  1.3178 -1.3966  0.2302
   6223SM  H13T 7951   3.037   2.415   8.161 -0.1104  1.9038 -0.2599
   6223SM  C14S 7952   2.867   2.534   8.211 -0.2934 -0.1347  0.5178
   6223SM  H14S 7953   2.933   2.621   8.232 -0.3976  0.2490 -0.6496
   6223SM  H14T 7954   2.795   2.538   8.296 -0.9259  3.7360  0.0201
   6223SM  C15S 7955   2.789   2.552   8.077 -0.5111 -0.3545  0.1619
   6223SM  H15S 7956   2.712   2.632   8.073  0.4804  0.5772 -1.0365
   6223SM  H15T 7957   2.730   2.463   8.047  0.3430 -1.4825  1.6965
   6223SM  C16S 7958   2.880   2.596   7.970  0.3136  0.6999 -0.0583
   6223SM  H16S 7959   2.955   2.516   7.950 -2.1611 -1.7985  0.0731
   6223SM  H16T 7960   2.930   2.693   7.992 -1.8571  1.3838  2.2788
   6223SM  C17S 7961   2.806   2.594   7.833  0.9937  0.6266  0.0836
   6223SM  H17S 7962   2.736   2.679   7.817 -1.2022 -0.5885  2.4457
   6223SM  H17T 7963   2.745   2.501   7.822 -0.2627  1.6080 -1.7008
   6223SM  C18S 7964   2.901   2.585   7.711 -0.6382 -0.0384 -0.1223
   6223SM  H18S 7965   2.972   2.501   7.722 -2.2061 -1.1483  2.6341
   6223SM  H18T 7966   2.967   2.674   7.713  1.2725 -1.3816  1.7516
   6223SM  H18U 7967   2.850   2.574   7.613 -0.7464  1.1901 -0.2154
   6223SM   C1F 7968   2.815   2.709   9.478  0.7116 -0.0846 -0.3353
   6223SM    OF 7969   2.869   2.710   9.585  0.6345 -0.0501  0.0802
   6223SM   C2F 7970   2.785   2.839   9.412 -0.1193  0.2626  0.4236
   6223SM   H2F 7971   2.711   2.893   9.475 -1.1321 -1.0636  0.4118
   6223SM   H2G 7972   2.752   2.832   9.306  1.6087  3.8385 -0.5318
   6223SM   C3F 7973   2.919   2.921   9.395 -0.7465 -0.1452 -0.5705
   6223SM   H3F 7974   2.975   2.918   9.491 -0.2231  0.3162 -0.8545
   6223SM   H3G 7975   2.898   3.029   9.375 -1.2941 -0.1922 -0.2834
   6223SM   C4F 7976   3.010   2.868   9.288  0.1545  0.1220  0.2758
   6223SM   H4F 7977   3.020   2.757   9.288 -3.6775 -0.3371 -0.2363
   6223SM   H4G 7978   3.113   2.908   9.306 -1.3703  3.9800  1.4782
   6223SM   C5F 7979   2.961   2.901   9.149 -0.0868 -0.4335  0.2883
   6223SM   H5F 7980   2.926   3.005   9.131  0.8992  0.0081  0.8386
   6223SM   H5G 7981   2.872   2.838   9.125 -0.9357  1.4590 -1.9508
   6223SM   C6F 7982   3.074   2.866   9.037 -0.0840  0.2587 -0.2033
   6223SM   H6F 7983   3.135   2.776   9.058  0.0221  0.6048  1.0745
   6223SM   H6G 7984   3.154   2.941   9.022 -1.0103  0.8823 -2.2777
   6223SM   C7F 7985   3.001   2.835   8.901 -0.2905 -0.8384 -0.3768
   6223SM   H7F 7986   2.918   2.905   8.877 -1.4954 -2.6908 -1.8417
   6223SM   H7G 7987   2.955   2.735   8.913  0.7604 -1.2595  0.2658
   6223SM   C8F 7988   3.112   2.859   8.798 -0.2487  0.7479  0.7340
   6223SM   H8F 7989   3.188   2.787   8.833 -1.1015 -0.0324  1.0296
   6223SM   H8G 7990   3.143   2.966   8.792 -1.3302  0.9837 -3.3098
   6223SM   C9F 7991   3.085   2.800   8.657  0.5674 -0.4505 -0.2148
   6223SM   H9F 7992   3.000   2.863   8.624  1.2121  1.4268  1.5367
   6223SM   H9G 7993   3.052   2.694   8.666 -0.8409 -0.0670 -0.6369
   6223SM  C10F 7994   3.207   2.824   8.568  0.0817 -0.2144 -0.0089
   6223SM  H10F 7995   3.299   2.787   8.618  0.9426  0.2823 -1.1812
   6223SM  H10G 7996   3.227   2.933   8.560 -3.3434  0.4356 -1.3116
   6223SM  C11F 7997   3.185   2.757   8.434  0.0181  0.7972  0.5682
   6223SM  H11F 7998   3.089   2.789   8.388  0.8251  0.1048 -1.7502
   6223SM  H11G 7999   3.159   2.651   8.458 -1.1517  1.2127  1.1881
   6223SM  C12F 8000   3.302   2.756   8.337 -0.2884 -0.5290 -0.8243
   6223SM  H12F 8001   3.390   2.695   8.364 -1.1953 -2.0642 -1.1972
   6223SM  H12G 8002   3.340   2.861   8.329  1.3664 -0.7777  2.3059
   6223SM  C13F 8003   3.247   2.707   8.201 -0.0718 -0.1991 -0.2847
   6223SM  H13F 8004   3.194   2.793   8.154 -1.3104  0.8227  2.6755
   6223SM  H13G 8005   3.173   2.626   8.215 -2.1324  1.6757  0.3108
   6223SM  C14F 8006   3.366   2.669   8.112 -0.0750  0.2734  0.4119
   6223SM  H14F 8007   3.437   2.611   8.175 -0.1517  1.5366  1.7058
   6223SM  H14G 8008   3.409   2.770   8.090  1.7832 -0.4340  0.5974
   6223SM  C15F 8009   3.326   2.594   7.991 -0.0884 -0.0643 -0.7646
   6223SM  H15F 8010   3.262   2.653   7.922 -1.8174 -2.0784 -1.0089
   6223SM  H15G 8011   3.259   2.510   8.021 -1.5298  0.3634 -2.5807
   6223SM  C16F 8012   3.447   2.522   7.931 -0.1679 -0.3831 -0.3297
   6223SM  H16F 8013   3.404   2.483   7.837 -0.6288  0.9317 -0.6905
   6223SM  H16G 8014   3.477   2.442   8.002 -0.7268 -0.0429  0.3036
   6223SM  C17F 8015   3.559   2.625   7.901  0.1827  0.2035  0.0836
   6223SM  H17F 8016   3.595   2.662   8.000  2.5844  2.2068 -1.4126
   6223SM  H17G 8017   3.493   2.698   7.850 -0.7432 -0.4158  0.3717
   6223SM  C18F 8018   3.661   2.569   7.802 -0.4659  0.7576  0.1321
   6223SM  H18F 8019   3.604   2.546   7.710 -1.8077  1.3657  0.7943
   6223SM  H18G 8020   3.705   2.485   7.859 -3.1157 -0.5562  0.3846
   6223SM  C19F 8021   3.763   2.672   7.759  0.1048 -0.0904 -0.1018
   6223SM  H19F 8022   3.816   2.695   7.854  0.6364 -3.4803  0.5449
   6223SM  H19G 8023   3.694   2.750   7.720 -0.7885 -0.8184 -0.0185
   6223SM  C20F 8024   3.851   2.632   7.640  0.3617  0.0845  0.1673
   6223SM  H20F 8025   3.786   2.588   7.562  0.5605  2.2115 -1.2765
   6223SM  H20G 8026   3.915   2.547   7.673 -1.4053 -1.8599 -1.2096
   6223SM  C21F 8027   3.949   2.741   7.587  0.0409 -0.3394  0.4769
   6223SM  H21F 8028   4.011   2.793   7.663 -1.8379  1.8323  0.6422
   6223SM  H21G 8029   3.886   2.823   7.546  1.3649 -0.0874 -1.1667
   6223SM  C22F 8030   4.044   2.680   7.480  0.3105 -0.0571  0.3334
   6223SM  H22F 8031   3.992   2.648   7.387 -1.2349  1.5741  0.5747
   6223SM  H22G 8032   4.084   2.588   7.527 -3.5984 -0.8974  2.4476
   6223SM  C23F 8033   4.160   2.777   7.439 -0.9656 -0.4431  0.1693
   6223SM  H23F 8034   4.223   2.830   7.514 -2.0086  1.3256 -0.1475
   6223SM  H23G 8035   4.117   2.862   7.382 -1.0315 -0.3979  0.2840
   6223SM  H23H 8036   4.230   2.720   7.374  1.6634  1.1533  1.4038
   6323SM     N 8037   4.674   3.891  10.064 -1.0181  0.2371  0.1431
   6323SM   C15 8038   4.597   3.867   9.937  0.1685  0.0769 -0.1269
   6323SM  H15A 8039   4.646   3.900   9.847 -1.3521  1.1392 -0.5863
   6323SM  H15B 8040   4.499   3.909   9.948 -0.1166 -0.7545  0.6724
   6323SM  H15C 8041   4.577   3.761   9.927 -2.7572  0.5814 -0.4280
   6323SM   C14 8042   4.572   3.864  10.171 -0.2666  0.0116  0.9307
   6323SM  H14A 8043   4.624   3.884  10.264 -1.0970  0.1477  1.3684
   6323SM  H14B 8044   4.551   3.759  10.165  2.1901 -0.4710 -2.4688
   6323SM  H14C 8045   4.484   3.926  10.167 -1.1748 -1.2634  0.9098
   6323SM   C13 8046   4.786   3.794  10.080 -0.4806 -0.3637  0.1083
   6323SM  H13A 8047   4.758   3.691  10.092 -0.6406 -0.3323 -0.0034
   6323SM  H13B 8048   4.853   3.814  10.163  1.8089 -1.1875 -1.4246
   6323SM  H13C 8049   4.853   3.797   9.995  0.0040  0.0396  0.4961
   6323SM   C12 8050   4.729   4.031  10.068 -0.6575  0.1757 -0.4176
   6323SM  H12A 8051   4.767   4.067   9.974  1.2459 -0.7185 -0.0296
   6323SM  H12B 8052   4.820   4.035  10.127  1.1530 -0.2163 -3.0153
   6323SM   C11 8053   4.632   4.148  10.105  0.5305  0.1131  0.0268
   6323SM  H11A 8054   4.585   4.128  10.204 -0.9642 -0.2799 -0.7187
   6323SM  H11B 8055   4.549   4.160  10.032  0.6424 -2.0676 -0.5463
   6323SM     P 8056   4.749   4.347   9.979 -0.1018 -0.1800  0.1054
   6323SM   O13 8057   4.707   4.485  10.010  0.1559 -0.0068 -0.5127
   6323SM   O14 8058   4.892   4.315   9.951  0.9516 -0.1579  0.0271
   6323SM   O11 8059   4.664   4.295   9.856 -0.6954 -0.1331 -0.2831
   6323SM   O12 8060   4.706   4.264  10.109 -0.5156 -0.5845  0.4571
   6323SM   C1S 8061   4.697   4.337   9.722 -0.0576 -0.5296  0.5563
   6323SM   H1S 8062   4.805   4.322   9.698 -0.0326  2.2858 -1.5552
   6323SM   H1T 8063   4.693   4.448   9.731 -0.2787 -0.5931  1.2888
   6323SM    NF 8064   4.645   4.312   9.477  0.0343 -0.0687 -0.4999
   6323SM   HNF 8065   4.592   4.392   9.452  1.9186  1.3145 -0.3402
   6323SM   C2S 8066   4.612   4.259   9.613 -0.1970  0.0857 -0.7245
   6323SM   H2S 8067   4.646   4.154   9.612 -1.3579 -0.4422  2.8031
   6323SM   C3S 8068   4.459   4.272   9.651 -0.0308  0.0808  1.6231
   6323SM   H3S 8069   4.442   4.381   9.640 -1.2980 -0.2786 -0.4454
   6323SM    O3 8070   4.419   4.255   9.785  0.0109 -0.0975 -0.3597
   6323SM   HO3 8071   4.504   4.262   9.829  0.4401  1.4148 -1.3499
   6323SM   C4S 8072   4.370   4.200   9.556  0.0995 -0.4166 -0.5018
   6323SM   H4S 8073   4.325   4.271   9.485 -2.9115  0.7311  2.3151
   6323SM   C5S 8074   4.314   4.077   9.561 -0.0962 -0.1251 -0.2790
   6323SM   H5S 8075   4.326   4.025   9.657  1.2205  0.3002 -0.1929
   6323SM   C6S 8076   4.237   4.011   9.446 -0.3084  0.0528  0.4709
   6323SM   H6S 8077   4.130   4.001   9.473  0.4904 -0.7760  3.8171
   6323SM   H6T 8078   4.259   3.902   9.451 -2.2186 -0.6368 -2.9080
   6323SM   C7S 8079   4.272   4.046   9.302 -0.4151  0.6297  0.2215
   6323SM   H7S 8080   4.363   3.996   9.263 -2.1682 -1.5797 -1.3151
   6323SM   H7T 8081   4.276   4.157   9.303  2.4126  0.6086  0.7338
   6323SM   C8S 8082   4.170   4.006   9.191  0.7646 -0.2719  0.7203
   6323SM   H8S 8083   4.078   4.065   9.211  0.3439 -0.6437 -0.0923
   6323SM   H8T 8084   4.136   3.901   9.186 -2.3411  0.7154 -1.8068
   6323SM   C9S 8085   4.219   4.053   9.052  0.2704  0.1697  0.3177
   6323SM   H9S 8086   4.307   3.992   9.023  1.3319  2.6878 -2.1753
   6323SM   H9T 8087   4.253   4.158   9.050  1.8125 -0.3049 -2.2093
   6323SM  C10S 8088   4.100   4.025   8.946 -0.5637  0.2976 -0.1308
   6323SM  H10S 8089   4.004   4.076   8.969 -0.2362  0.5110  0.7914
   6323SM  H10T 8090   4.074   3.917   8.950  0.6839 -0.0900 -1.3787
   6323SM  C11S 8091   4.145   4.072   8.802 -0.0420 -0.2043 -0.4992
   6323SM  H11S 8092   4.250   4.040   8.786  1.1885  3.3259 -0.4390
   6323SM  H11T 8093   4.146   4.184   8.802 -1.3259 -0.1443 -2.5538
   6323SM  C12S 8094   4.050   4.018   8.694 -0.8349 -0.3080 -0.4870
   6323SM  H12S 8095   3.946   4.051   8.718 -0.5748  0.9637 -1.0270
   6323SM  H12T 8096   4.056   3.908   8.698  1.4886 -0.2147 -0.4917
   6323SM  C13S 8097   4.085   4.069   8.549 -0.5124 -0.0069  0.1883
   6323SM  H13S 8098   4.018   4.016   8.479 -1.7847  1.0902  0.5444
   6323SM  H13T 8099   4.191   4.038   8.533 -0.5237 -0.2362  0.5533
   6323SM  C14S 8100   4.049   4.214   8.514 -0.5086 -0.8049 -0.2102
   6323SM  H14S 8101   4.115   4.279   8.575 -0.1422 -0.5215 -0.8970
   6323SM  H14T 8102   3.941   4.227   8.536  0.0150  0.8434  1.6825
   6323SM  C15S 8103   4.065   4.242   8.364  0.6506 -0.4122 -1.0604
   6323SM  H15S 8104   4.006   4.332   8.336  1.9309  0.8205  0.0845
   6323SM  H15T 8105   4.036   4.158   8.297 -2.8793 -0.4232  0.2692
   6323SM  C16S 8106   4.212   4.268   8.334  0.2234 -0.0427 -0.1383
   6323SM  H16S 8107   4.275   4.189   8.380  0.1624  1.6189  3.0284
   6323SM  H16T 8108   4.238   4.366   8.379  0.6569 -1.0555  1.9203
   6323SM  C17S 8109   4.247   4.269   8.186  0.0568  0.0299  0.2964
   6323SM  H17S 8110   4.180   4.341   8.134 -2.2351 -0.2427  2.6748
   6323SM  H17T 8111   4.234   4.170   8.137  0.7708  0.4860 -0.8572
   6323SM  C18S 8112   4.391   4.323   8.162 -0.0577 -0.1421  0.4348
   6323SM  H18S 8113   4.479   4.259   8.187  0.5144 -0.8266 -2.8999
   6323SM  H18T 8114   4.391   4.422   8.213 -1.6577  1.5830 -2.6234
   6323SM  H18U 8115   4.409   4.351   8.056 -0.2451  1.2861  0.7601
   6323SM   C1F 8116   4.749   4.285   9.399 -0.4779 -0.1290  0.2600
   6323SM    OF 8117   4.842   4.213   9.439 -0.4508 -0.0604  0.1098
   6323SM   C2F 8118   4.752   4.356   9.273  0.8377 -0.6516 -0.4320
   6323SM   H2F 8119   4.812   4.449   9.286  0.7376 -0.6815  0.3179
   6323SM   H2G 8120   4.651   4.382   9.235  0.5944 -0.3220  0.4075
   6323SM   C3F 8121   4.822   4.283   9.152  0.1442 -0.0568 -0.2065
   6323SM   H3F 8122   4.780   4.181   9.142 -0.5815 -0.3463  4.1287
   6323SM   H3G 8123   4.931   4.275   9.172  0.4000 -2.7235 -2.0949
   6323SM   C4F 8124   4.825   4.362   9.013  0.2922 -0.1104  1.0754
   6323SM   H4F 8125   4.910   4.433   9.023  1.1348 -1.2816  2.6364
   6323SM   H4G 8126   4.737   4.430   9.009  1.0578  0.9466  1.7680
   6323SM   C5F 8127   4.854   4.271   8.894  0.1289  0.3889 -0.0703
   6323SM   H5F 8128   4.781   4.188   8.908 -0.5546  1.1246  0.8408
   6323SM   H5G 8129   4.957   4.235   8.913 -1.2045 -3.1177  1.4208
   6323SM   C6F 8130   4.868   4.335   8.760  0.2634  0.1446 -0.6348
   6323SM   H6F 8131   4.947   4.413   8.764 -2.0866  2.8468 -2.2720
   6323SM   H6G 8132   4.775   4.389   8.730 -0.9286 -1.9350 -0.8250
   6323SM   C7F 8133   4.907   4.230   8.649  0.1897  0.1629 -0.4923
   6323SM   H7F 8134   4.839   4.142   8.651 -0.7106  0.8489 -0.1702
   6323SM   H7G 8135   5.006   4.197   8.687 -0.5645 -0.7502  0.7609
   6323SM   C8F 8136   4.930   4.305   8.515  0.0050  0.6595 -0.8919
   6323SM   H8F 8137   4.987   4.399   8.526 -0.5357  1.2125 -2.6034
   6323SM   H8G 8138   4.828   4.322   8.473 -1.1058 -4.0212 -0.6492
   6323SM   C9F 8139   4.998   4.212   8.413  0.8111 -0.2102  0.4274
   6323SM   H9F 8140   4.962   4.109   8.438 -1.5524  0.2771 -0.6974
   6323SM   H9G 8141   5.108   4.225   8.414  1.1198 -2.2762 -0.8702
   6323SM  C10F 8142   4.934   4.231   8.270  0.4671  0.0807 -0.0545
   6323SM  H10F 8143   4.825   4.249   8.272  0.7188  1.9292 -1.2518
   6323SM  H10G 8144   4.955   4.148   8.199  1.5628  0.5565 -0.3093
   6323SM  C11F 8145   4.993   4.352   8.205 -0.1005 -0.5550 -0.2670
   6323SM  H11F 8146   5.104   4.353   8.197 -0.0259 -3.1974 -0.1974
   6323SM  H11G 8147   4.958   4.438   8.266  0.6884  0.4846 -1.2298
   6323SM  C12F 8148   4.926   4.373   8.067  0.9985  0.5443 -0.8571
   6323SM  H12F 8149   4.819   4.384   8.095  1.1869  0.5975 -0.1563
   6323SM  H12G 8150   4.945   4.287   7.999  1.2973  0.7474 -1.0333
   6323SM  C13F 8151   4.969   4.506   8.004  0.1860 -0.2558 -0.0450
   6323SM  H13F 8152   5.076   4.500   7.973  0.4045 -0.7280  0.7772
   6323SM  H13G 8153   4.939   4.588   8.072  1.9822 -0.8281  1.5220
   6323SM  C14F 8154   4.898   4.523   7.872 -0.0474  0.1396 -0.6367
   6323SM  H14F 8155   4.788   4.527   7.891 -0.3905 -0.1543 -2.3237
   6323SM  H14G 8156   4.933   4.446   7.800 -0.8270  1.0306 -2.0284
   6323SM  C15F 8157   4.936   4.660   7.817  0.0983 -0.3644  0.2409
   6323SM  H15F 8158   5.042   4.659   7.783 -0.1962  3.0951 -1.1745
   6323SM  H15G 8159   4.926   4.739   7.894 -3.0709  1.8386 -2.1850
   6323SM  C16F 8160   4.838   4.703   7.709 -0.5843  0.1872  0.2410
   6323SM  H16F 8161   4.739   4.654   7.727  1.3146 -3.6649  1.3777
   6323SM  H16G 8162   4.865   4.676   7.605 -1.1577 -0.0826  0.1544
   6323SM  C17F 8163   4.837   4.854   7.712  0.3269 -0.6331  1.2494
   6323SM  H17F 8164   4.943   4.886   7.699 -0.3234  0.8229 -1.1479
   6323SM  H17G 8165   4.798   4.878   7.813  1.0050 -1.0477  1.6175
   6323SM  C18F 8166   4.759   4.917   7.601 -0.2039  0.0780  1.3477
   6323SM  H18F 8167   4.652   4.888   7.602 -0.4437  0.9211  2.0005
   6323SM  H18G 8168   4.801   4.880   7.505 -0.5377  0.4422  1.0539
   6323SM  C19F 8169   4.781   5.074   7.583 -0.2103  0.2777  0.5599
   6323SM  H19F 8170   4.743   5.094   7.481 -1.0915 -2.6809  0.2140
   6323SM  H19G 8171   4.890   5.093   7.579  0.7311 -3.4823  3.0438
   6323SM  C20F 8172   4.708   5.164   7.685  0.7000  0.2137 -0.6611
   6323SM  H20F 8173   4.758   5.263   7.677 -0.4993  1.1034  1.9077
   6323SM  H20G 8174   4.734   5.134   7.788 -1.3827  0.0406 -0.1532
   6323SM  C21F 8175   4.551   5.163   7.669  0.1657  0.0637 -0.3408
   6323SM  H21F 8176   4.521   5.066   7.624 -3.9216  1.1387 -0.2711
   6323SM  H21G 8177   4.519   5.230   7.586 -1.3117 -1.7928 -1.3292
   6323SM  C22F 8178   4.470   5.182   7.798  0.0604  0.3505  0.4337
   6323SM  H22F 8179   4.514   5.123   7.881 -0.4210  2.7152  2.4943
   6323SM  H22G 8180   4.365   5.145   7.789  0.6741 -1.7302  1.1362
   6323SM  C23F 8181   4.462   5.327   7.839  0.1362 -0.2998  0.1747
   6323SM  H23F 8182   4.565   5.365   7.852  0.2453 -0.5837  0.1435
   6323SM  H23G 8183   4.400   5.336   7.931  0.2094 -1.1085  0.3109
   6323SM  H23H 8184   4.419   5.389   7.758  0.2259 -1.3777 -0.7182
   6423SM     N 8185   5.360   2.815  10.068 -0.0661  0.1803 -0.2034
   6423SM   C15 8186   5.442   2.694  10.051 -0.2737 -0.2262 -0.5600
   6423SM  H15A 8187   5.387   2.602  10.040  0.5994 -0.8577  0.1670
   6423SM  H15B 8188   5.506   2.691  10.138 -0.6249  1.9407 -0.1799
   6423SM  H15C 8189   5.511   2.694   9.968  1.0928 -2.4555  0.4691
   6423SM   C14 8190   5.453   2.919  10.123  0.2909 -0.0120  0.1774
   6423SM  H14A 8191   5.399   3.012  10.133  1.5449  0.6012  1.8345
   6423SM  H14B 8192   5.550   2.931  10.077 -0.6264 -1.0507 -2.1658
   6423SM  H14C 8193   5.477   2.892  10.225  2.2690 -0.9851 -0.4847
   6423SM   C13 8194   5.303   2.859   9.932 -1.2272  0.6657  0.1089
   6423SM  H13A 8195   5.264   2.960   9.937  0.5481  1.3809  0.2032
   6423SM  H13B 8196   5.223   2.792   9.904 -1.5511  0.5640  1.2309
   6423SM  H13C 8197   5.383   2.852   9.860  0.6421 -1.3155  2.2409
   6423SM   C12 8198   5.247   2.786  10.164  0.1722  0.0610  0.6186
   6423SM  H12A 8199   5.283   2.750  10.259  3.4635  0.8718 -0.2247
   6423SM  H12B 8200   5.184   2.704  10.131 -1.3481  1.5153 -0.2815
   6423SM   C11 8201   5.157   2.915  10.197  0.2841 -0.5039 -0.3560
   6423SM  H11A 8202   5.084   2.878  10.272 -1.0748  1.7157 -0.4885
   6423SM  H11B 8203   5.105   2.947  10.105 -1.9194  3.3413  1.9730
   6423SM     P 8204   5.209   3.167  10.209 -0.3537 -0.0456 -0.3940
   6423SM   O13 8205   5.072   3.206  10.252  0.8204 -0.2859  0.7495
   6423SM   O14 8206   5.325   3.235  10.277 -0.5949 -0.2607 -0.5648
   6423SM   O11 8207   5.216   3.179  10.050 -0.4412  0.2575  0.3589
   6423SM   O12 8208   5.235   3.017  10.252 -0.1578 -0.2604 -0.3720
   6423SM   C1S 8209   5.335   3.233   9.989  0.1579 -0.2557 -0.0274
   6423SM   H1S 8210   5.414   3.155   9.987 -1.9348 -2.5223 -3.3496
   6423SM   H1T 8211   5.366   3.324  10.046  1.2904  0.3273 -1.5223
   6423SM    NF 8212   5.426   3.287   9.774 -0.1887  0.0842  0.3798
   6423SM   HNF 8213   5.471   3.376   9.771 -0.3162  0.1222 -0.6208
   6423SM   C2S 8214   5.302   3.279   9.845 -0.4939  0.7181 -0.1529
   6423SM   H2S 8215   5.234   3.201   9.804 -2.1008  1.7126  0.5230
   6423SM   C3S 8216   5.219   3.410   9.854  0.0646  0.0770  0.3916
   6423SM   H3S 8217   5.267   3.501   9.895 -2.1589  1.8611 -0.6918
   6423SM    O3 8218   5.111   3.388   9.941 -0.0478 -0.2780 -0.3823
   6423SM   HO3 8219   5.139   3.307   9.984  1.1789 -0.6813 -1.8264
   6423SM   C4S 8220   5.169   3.468   9.718 -0.1675 -0.1723 -0.6097
   6423SM   H4S 8221   5.231   3.544   9.669  1.4819 -1.3313 -0.4245
   6423SM   C5S 8222   5.056   3.426   9.654  0.0846 -0.1313 -0.4819
   6423SM   H5S 8223   4.986   3.354   9.698  0.2921  1.0523  1.9805
   6423SM   C6S 8224   5.020   3.488   9.523  0.4580  0.5207  0.8410
   6423SM   H6S 8225   5.042   3.597   9.513 -1.6387  0.8332 -1.3725
   6423SM   H6T 8226   4.911   3.477   9.506  1.0498 -0.2374 -3.3914
   6423SM   C7S 8227   5.090   3.419   9.407 -0.5845  0.5471 -0.3561
   6423SM   H7S 8228   5.042   3.320   9.398 -2.6441  1.3571  1.1841
   6423SM   H7T 8229   5.196   3.406   9.440 -1.1328 -0.3327  1.1336
   6423SM   C8S 8230   5.077   3.496   9.278 -0.2565 -0.4115 -0.6680
   6423SM   H8S 8231   4.975   3.536   9.259 -0.0971  0.1617 -0.3462
   6423SM   H8T 8232   5.103   3.420   9.202  1.1838  0.3354 -0.9442
   6423SM   C9S 8233   5.171   3.612   9.266 -0.5699 -0.3695  0.8725
   6423SM   H9S 8234   5.272   3.584   9.302  0.4779 -1.0449 -2.2776
   6423SM   H9T 8235   5.138   3.692   9.336  0.0368  0.6100  0.0608
   6423SM  C10S 8236   5.175   3.680   9.128  0.2966  0.3298  0.7551
   6423SM  H10S 8237   5.209   3.784   9.147  2.0933  0.0321 -0.5317
   6423SM  H10T 8238   5.069   3.686   9.096  0.0004  0.7649  1.7914
   6423SM  C11S 8239   5.257   3.611   9.016 -0.1617  0.2525  0.2281
   6423SM  H11S 8240   5.239   3.501   9.020 -2.7039  0.6390  1.0313
   6423SM  H11T 8241   5.364   3.617   9.044  0.4006  0.4558 -1.7905
   6423SM  C12S 8242   5.236   3.669   8.872  0.2801  0.9088 -0.4801
   6423SM  H12S 8243   5.276   3.772   8.866  3.6098 -0.3341 -1.6555
   6423SM  H12T 8244   5.127   3.685   8.857  0.3327  0.2902 -1.5673
   6423SM  C13S 8245   5.283   3.580   8.759  0.4241  0.5097  0.5683
   6423SM  H13S 8246   5.249   3.475   8.766 -2.4318  1.2328 -1.0524
   6423SM  H13T 8247   5.394   3.579   8.764  0.5084  1.0695 -0.7356
   6423SM  C14S 8248   5.234   3.637   8.623 -0.4104 -0.5754  0.1479
   6423SM  H14S 8249   5.299   3.722   8.593 -1.3629  0.3917  0.7517
   6423SM  H14T 8250   5.134   3.684   8.626 -0.6854 -1.1504 -0.0298
   6423SM  C15S 8251   5.222   3.537   8.509 -0.8216  0.4847 -0.2802
   6423SM  H15S 8252   5.125   3.487   8.529 -1.1654  2.0049  2.2541
   6423SM  H15T 8253   5.302   3.460   8.506 -0.3857  0.8780  0.8212
   6423SM  C16S 8254   5.195   3.603   8.370  0.4793  0.3685 -0.2130
   6423SM  H16S 8255   5.162   3.515   8.310 -1.2417 -0.5057  1.9026
   6423SM  H16T 8256   5.292   3.635   8.326  0.7092 -1.1334 -0.8599
   6423SM  C17S 8257   5.085   3.705   8.368  0.1237 -0.3808 -0.4210
   6423SM  H17S 8258   5.131   3.794   8.416 -0.7173  0.7273 -1.6030
   6423SM  H17T 8259   5.000   3.684   8.436  0.3026 -1.7995 -0.6214
   6423SM  C18S 8260   5.040   3.732   8.223  0.7475 -0.2667 -0.2863
   6423SM  H18S 8261   5.124   3.771   8.162  0.1831  0.1167 -0.8153
   6423SM  H18T 8262   4.963   3.812   8.218 -0.9666 -1.8792 -0.6542
   6423SM  H18U 8263   5.005   3.640   8.172 -0.0079  0.4061 -0.9991
   6423SM   C1F 8264   5.490   3.185   9.717  0.7714  0.1469 -0.0492
   6423SM    OF 8265   5.451   3.067   9.728 -0.4251  0.7502 -1.0255
   6423SM   C2F 8266   5.617   3.221   9.635  0.4825 -0.0177 -0.1294
   6423SM   H2F 8267   5.690   3.143   9.663  1.2586  0.4760 -0.7357
   6423SM   H2G 8268   5.665   3.313   9.675  1.4571 -1.4229  2.1734
   6423SM   C3F 8269   5.588   3.237   9.486 -0.6359 -0.3865 -0.0105
   6423SM   H3F 8270   5.532   3.152   9.442 -2.6109 -0.3230  2.2079
   6423SM   H3G 8271   5.685   3.256   9.434 -0.5516  2.6753  1.0636
   6423SM   C4F 8272   5.517   3.371   9.449  0.4438  0.6917 -1.3211
   6423SM   H4F 8273   5.562   3.448   9.515 -1.8468 -0.5081  1.8847
   6423SM   H4G 8274   5.409   3.360   9.475  0.8819 -2.0736 -0.3539
   6423SM   C5F 8275   5.547   3.419   9.309  0.7866 -0.0883  0.0135
   6423SM   H5F 8276   5.640   3.479   9.298 -0.3580  1.4852 -1.8750
   6423SM   H5G 8277   5.465   3.488   9.279  1.7992  0.8760 -0.6219
   6423SM   C6F 8278   5.541   3.312   9.202 -0.6497  0.3104 -0.5749
   6423SM   H6F 8279   5.459   3.240   9.222 -1.2065  1.0090 -0.3102
   6423SM   H6G 8280   5.636   3.255   9.202 -2.1938 -2.4612 -1.4878
   6423SM   C7F 8281   5.517   3.367   9.056  0.6483  0.2193 -0.1536
   6423SM   H7F 8282   5.578   3.459   9.043  1.1500 -0.1301 -0.3207
   6423SM   H7G 8283   5.410   3.385   9.033 -0.3525 -5.4114 -1.5097
   6423SM   C8F 8284   5.558   3.270   8.952 -0.2842  0.2041 -0.7963
   6423SM   H8F 8285   5.511   3.178   8.993  2.8503 -0.7985  0.9085
   6423SM   H8G 8286   5.667   3.257   8.969 -0.9941 -2.0621  3.3131
   6423SM   C9F 8287   5.514   3.309   8.806 -0.5147 -1.1883 -0.0362
   6423SM   H9F 8288   5.556   3.412   8.802  1.0865 -1.8592 -2.4909
   6423SM   H9G 8289   5.403   3.310   8.802 -0.4969 -1.7324 -0.7281
   6423SM  C10F 8290   5.582   3.220   8.700  0.4278 -0.7568  0.2543
   6423SM  H10F 8291   5.586   3.116   8.738 -0.5037 -0.6585  0.6347
   6423SM  H10G 8292   5.689   3.250   8.692  0.8503 -2.4013 -0.7379
   6423SM  C11F 8293   5.508   3.240   8.567  0.0592 -0.7435  0.1026
   6423SM  H11F 8294   5.497   3.350   8.556 -0.2539 -0.8853 -1.2177
   6423SM  H11G 8295   5.405   3.198   8.566 -0.6727  0.8620 -2.4441
   6423SM  C12F 8296   5.583   3.194   8.442  0.1483 -0.3198  0.7233
   6423SM  H12F 8297   5.626   3.093   8.455 -2.6488 -1.7768 -0.4655
   6423SM  H12G 8298   5.665   3.265   8.417 -0.3901 -0.5702 -1.9828
   6423SM  C13F 8299   5.498   3.195   8.312 -0.6617 -0.2225  0.4966
   6423SM  H13F 8300   5.411   3.128   8.331 -0.3861 -1.5691 -2.4918
   6423SM  H13G 8301   5.557   3.157   8.226 -1.5048 -0.7089  0.1252
   6423SM  C14F 8302   5.467   3.333   8.267  0.4971  0.4815 -1.0239
   6423SM  H14F 8303   5.553   3.399   8.290  0.7340 -0.2716  0.4146
   6423SM  H14G 8304   5.382   3.360   8.333 -0.6515 -2.1122 -1.3342
   6423SM  C15F 8305   5.447   3.349   8.114  0.9660  0.5492 -0.7320
   6423SM  H15F 8306   5.527   3.290   8.065  1.3664 -0.9498  1.5579
   6423SM  H15G 8307   5.457   3.458   8.094 -0.7960  0.4625 -2.2964
   6423SM  C16F 8308   5.303   3.303   8.071 -0.0208  0.1923 -0.6199
   6423SM  H16F 8309   5.237   3.343   8.151 -0.1609  0.3617 -0.8182
   6423SM  H16G 8310   5.302   3.193   8.090 -0.9826  0.5032  1.3746
   6423SM  C17F 8311   5.276   3.325   7.921 -0.7559 -0.6278 -0.2248
   6423SM  H17F 8312   5.173   3.286   7.909 -1.2685  0.5700  0.1273
   6423SM  H17G 8313   5.329   3.258   7.850  1.6985  0.7099  0.2305
   6423SM  C18F 8314   5.286   3.475   7.867 -0.4326  0.2448  0.0920
   6423SM  H18F 8315   5.393   3.501   7.856  0.0385 -1.2436  0.9484
   6423SM  H18G 8316   5.237   3.542   7.942 -0.3888  2.1978 -1.5165
   6423SM  C19F 8317   5.207   3.488   7.734 -0.0186  0.3218 -0.4317
   6423SM  H19F 8318   5.116   3.428   7.751  0.7919 -1.1235 -1.0166
   6423SM  H19G 8319   5.265   3.430   7.658  1.6835 -2.9131  3.0077
   6423SM  C20F 8320   5.199   3.640   7.698  0.1299 -0.1324  0.0825
   6423SM  H20F 8321   5.295   3.667   7.649  0.0288 -1.9990 -1.2993
   6423SM  H20G 8322   5.187   3.706   7.785 -1.5130 -1.4412  0.9047
   6423SM  C21F 8323   5.091   3.675   7.594 -0.2235 -0.2684  0.1777
   6423SM  H21F 8324   4.989   3.682   7.640 -1.2616 -0.1436 -2.0301
   6423SM  H21G 8325   5.095   3.592   7.521  2.0824 -0.0840  0.0199
   6423SM  C22F 8326   5.113   3.813   7.518  0.4346 -0.0614 -0.4117
   6423SM  H22F 8327   5.206   3.822   7.458  1.5078 -0.3777  1.1442
   6423SM  H22G 8328   5.123   3.887   7.600 -2.9321  0.4565 -0.3000
   6423SM  C23F 8329   4.985   3.853   7.441  0.0357  0.2304  0.1947
   6423SM  H23F 8330   4.956   3.765   7.379 -0.3360 -0.2528  1.0394
   6423SM  H23G 8331   5.005   3.933   7.367 -2.5467  0.9496  0.1731
   6423SM  H23H 8332   4.909   3.880   7.517  1.6373  1.5382  1.3942
   6523SM     N 8333   5.504   3.782  10.078 -0.0463 -0.2091 -0.0907
   6523SM   C15 8334   5.406   3.832  10.172 -0.1149 -0.4991 -0.4210
   6523SM  H15A 8335   5.311   3.806  10.128  0.0875 -1.0240 -0.5545
   6523SM  H15B 8336   5.396   3.939  10.179 -1.7890 -0.6411 -0.3175
   6523SM  H15C 8337   5.403   3.789  10.271 -2.1319  0.2235 -0.1354
   6523SM   C14 8338   5.640   3.800  10.142 -0.2347  0.3424 -0.0188
   6523SM  H14A 8339   5.674   3.901  10.160  2.4287 -0.2059 -1.5346
   6523SM  H14B 8340   5.720   3.749  10.091  0.4729  0.1497  1.2335
   6523SM  H14C 8341   5.632   3.760  10.242 -3.9238  0.5705 -0.0927
   6523SM   C13 8342   5.469   3.637  10.051 -0.0881 -0.1164  0.4548
   6523SM  H13A 8343   5.554   3.621   9.985 -0.4113  1.2184 -0.3253
   6523SM  H13B 8344   5.370   3.629  10.008  0.0533 -0.5517  0.1956
   6523SM  H13C 8345   5.482   3.590  10.147 -0.3738  1.2239  1.1705
   6523SM   C12 8346   5.495   3.861   9.949 -0.1031  0.1412 -0.1451
   6523SM  H12A 8347   5.575   3.832   9.883  1.2297 -0.1934  1.5578
   6523SM  H12B 8348   5.515   3.965   9.970 -1.3529  0.5148 -0.6857
   6523SM   C11 8349   5.354   3.867   9.878  0.0752  0.0847 -0.0439
   6523SM  H11A 8350   5.316   3.763   9.864 -1.7689  0.8708 -1.2496
   6523SM  H11B 8351   5.374   3.907   9.776  2.6586  0.8672  0.6763
   6523SM     P 8352   5.117   3.905   9.980  0.2575  0.4688 -0.1070
   6523SM   O13 8353   5.104   3.762  10.005  0.6559  0.2931 -0.6766
   6523SM   O14 8354   5.073   4.005  10.078 -0.0664  0.1891 -0.0268
   6523SM   O11 8355   5.051   3.931   9.841  0.5318 -0.5030  0.0274
   6523SM   O12 8356   5.262   3.947   9.952  0.4349  0.2046 -0.0407
   6523SM   C1S 8357   5.015   4.057   9.784 -0.2137 -0.4284  0.3797
   6523SM   H1S 8358   5.009   4.133   9.865 -0.0455 -0.3375  0.3073
   6523SM   H1T 8359   4.914   4.050   9.739  0.4574  1.5454 -1.6131
   6523SM    NF 8360   5.090   4.243   9.643  0.2089 -0.6051 -0.5169
   6523SM   HNF 8361   5.045   4.270   9.559 -0.9509  1.3014  0.6430
   6523SM   C2S 8362   5.116   4.104   9.679 -0.2479  0.1468 -0.2085
   6523SM   H2S 8363   5.219   4.097   9.721  0.3463  2.2565 -1.1591
   6523SM   C3S 8364   5.117   3.997   9.560  0.1782 -0.2352  0.2981
   6523SM   H3S 8365   5.016   3.975   9.520  1.1516 -3.1543 -0.8665
   6523SM    O3 8366   5.169   3.869   9.587 -0.1607 -0.3510  0.4036
   6523SM   HO3 8367   5.145   3.852   9.679  0.7749  0.0577  0.7306
   6523SM   C4S 8368   5.195   4.049   9.442 -0.0480  1.2159 -0.2237
   6523SM   H4S 8369   5.301   4.066   9.469 -0.3831  1.0324  1.3128
   6523SM   C5S 8370   5.148   4.082   9.319 -0.7246  0.4390  0.6561
   6523SM   H5S 8371   5.041   4.070   9.296 -0.7548  1.0076  0.4758
   6523SM   C6S 8372   5.223   4.145   9.205 -0.1500  0.0584 -0.3770
   6523SM   H6S 8373   5.328   4.165   9.236 -0.7890 -0.4209  2.3739
   6523SM   H6T 8374   5.173   4.241   9.180  1.1074 -0.0096 -3.6600
   6523SM   C7S 8375   5.218   4.058   9.073 -0.4868  0.2429  0.1335
   6523SM   H7S 8376   5.123   4.002   9.057 -2.1129  2.5899  1.1365
   6523SM   H7T 8377   5.296   3.979   9.084  0.4177  1.0106 -0.6189
   6523SM   C8S 8378   5.251   4.140   8.943 -0.2034  0.1211 -0.0101
   6523SM   H8S 8379   5.354   4.180   8.948  0.2481 -1.1258  1.8244
   6523SM   H8T 8380   5.174   4.217   8.925  0.0885  0.3853 -0.1373
   6523SM   C9S 8381   5.249   4.043   8.826  0.0837 -0.0664  1.0242
   6523SM   H9S 8382   5.153   3.987   8.833  0.4013 -0.5517  1.7009
   6523SM   H9T 8383   5.321   3.959   8.830  0.0634 -0.1041  0.6037
   6523SM  C10S 8384   5.287   4.109   8.693  0.2340 -0.1999 -0.0935
   6523SM  H10S 8385   5.381   4.165   8.712  0.3935 -0.9057  1.3181
   6523SM  H10T 8386   5.204   4.177   8.665  1.5951  1.3034 -0.6185
   6523SM  C11S 8387   5.314   4.007   8.576 -0.4218 -0.0452 -0.1741
   6523SM  H11S 8388   5.221   3.949   8.562 -1.1637  0.7757  1.1136
   6523SM  H11T 8389   5.389   3.930   8.605  1.1706  1.7973  0.9018
   6523SM  C12S 8390   5.362   4.081   8.458  0.7841 -0.4740 -0.5841
   6523SM  H12S 8391   5.466   4.118   8.474  1.6524 -2.6595 -0.7678
   6523SM  H12T 8392   5.300   4.172   8.441  1.9805  0.7610  1.2249
   6523SM  C13S 8393   5.354   3.992   8.329 -0.0228 -0.3404  0.0131
   6523SM  H13S 8394   5.247   3.967   8.313  0.0789  0.0305 -1.3656
   6523SM  H13T 8395   5.394   3.892   8.355 -1.0404 -0.8643 -0.3391
   6523SM  C14S 8396   5.419   4.068   8.210  0.2762  0.0217 -0.5328
   6523SM  H14S 8397   5.529   4.067   8.221  0.1984  0.4707  0.4111
   6523SM  H14T 8398   5.381   4.172   8.211  2.7608  0.9894  0.3921
   6523SM  C15S 8399   5.372   3.992   8.083 -0.3603 -0.8106 -0.3377
   6523SM  H15S 8400   5.263   3.986   8.066 -0.2906  0.1466 -1.2517
   6523SM  H15T 8401   5.409   3.888   8.099 -1.5729 -0.8960  2.4944
   6523SM  C16S 8402   5.428   4.063   7.957 -0.9002 -0.3183 -0.4129
   6523SM  H16S 8403   5.536   4.072   7.981 -0.8901 -2.7294  0.7238
   6523SM  H16T 8404   5.386   4.165   7.941  0.4296 -0.0136 -2.4044
   6523SM  C17S 8405   5.416   3.989   7.827 -0.3349 -0.2732 -0.0391
   6523SM  H17S 8406   5.314   3.946   7.818 -1.0232  1.5716 -1.8820
   6523SM  H17T 8407   5.490   3.907   7.839 -0.7563 -0.5749  0.5230
   6523SM  C18S 8408   5.457   4.082   7.714 -0.0342 -0.2867 -0.7399
   6523SM  H18S 8409   5.377   4.157   7.696 -0.4364  0.0039  1.8933
   6523SM  H18T 8410   5.468   4.032   7.616  0.5695 -0.0124 -0.8203
   6523SM  H18U 8411   5.547   4.138   7.747  1.8044 -2.9760 -0.8803
   6523SM   C1F 8412   5.126   4.353   9.715 -0.1375  0.3717  0.2309
   6523SM    OF 8413   5.221   4.346   9.796  0.2985  0.3240 -0.2039
   6523SM   C2F 8414   5.046   4.481   9.694  0.2366  0.3391  0.3036
   6523SM   H2F 8415   5.093   4.567   9.745 -0.9400  1.0711  0.1884
   6523SM   H2G 8416   4.942   4.472   9.732  0.9624  1.0950  2.6489
   6523SM   C3F 8417   5.018   4.523   9.540 -0.3447  0.0054 -0.6036
   6523SM   H3F 8418   4.930   4.591   9.543 -0.4015 -0.0940  0.4153
   6523SM   H3G 8419   5.002   4.431   9.479 -0.4847 -0.1978 -0.2616
   6523SM   C4F 8420   5.144   4.596   9.487 -0.1319 -0.1967 -0.5428
   6523SM   H4F 8421   5.234   4.531   9.490 -0.9009 -1.3465 -1.3860
   6523SM   H4G 8422   5.169   4.686   9.546 -0.2646  0.2650 -1.1725
   6523SM   C5F 8423   5.141   4.646   9.345 -0.4399  0.4123 -0.4656
   6523SM   H5F 8424   5.236   4.704   9.340 -0.2833  0.2447  0.3771
   6523SM   H5G 8425   5.054   4.713   9.329  0.5969  1.6471 -1.2693
   6523SM   C6F 8426   5.152   4.538   9.246 -0.2292  0.7848  0.4155
   6523SM   H6F 8427   5.057   4.481   9.256  0.3347 -0.2085  0.1913
   6523SM   H6G 8428   5.237   4.474   9.277 -0.8093 -0.2164 -0.0011
   6523SM   C7F 8429   5.157   4.584   9.098 -0.3012 -0.5904  0.1310
   6523SM   H7F 8430   5.175   4.693   9.094  0.2559 -0.6562  0.6433
   6523SM   H7G 8431   5.059   4.568   9.048 -1.5622 -0.0850  2.3082
   6523SM   C8F 8432   5.269   4.506   9.027 -0.0088 -0.2897 -0.1411
   6523SM   H8F 8433   5.263   4.400   9.060 -0.0882 -0.1931  0.1587
   6523SM   H8G 8434   5.372   4.537   9.055 -0.3324  0.7066 -0.0364
   6523SM   C9F 8435   5.237   4.524   8.883  0.7815 -0.2327 -0.2075
   6523SM   H9F 8436   5.218   4.631   8.863 -0.5821 -0.9007 -2.8220
   6523SM   H9G 8437   5.136   4.482   8.868  0.7264 -1.1524  2.2151
   6523SM  C10F 8438   5.329   4.470   8.770 -0.2552 -0.7234  0.0863
   6523SM  H10F 8439   5.347   4.361   8.772  0.5548 -0.6208 -0.9188
   6523SM  H10G 8440   5.428   4.520   8.775 -1.6903  2.2979  0.7595
   6523SM  C11F 8441   5.260   4.506   8.639  0.4903  0.3505  1.2551
   6523SM  H11F 8442   5.254   4.616   8.628 -0.0167  0.3266  1.2529
   6523SM  H11G 8443   5.160   4.457   8.633  0.6977  0.0960 -0.7896
   6523SM  C12F 8444   5.341   4.465   8.518  0.6437 -0.1331 -0.1328
   6523SM  H12F 8445   5.344   4.355   8.505  0.1739 -0.1348 -0.2529
   6523SM  H12G 8446   5.444   4.490   8.549  0.9489 -0.1848 -1.0573
   6523SM  C13F 8447   5.303   4.536   8.382 -0.1622  0.6106  0.3736
   6523SM  H13F 8448   5.310   4.646   8.399  1.3504  1.1186 -2.8843
   6523SM  H13G 8449   5.198   4.507   8.360  0.2826  0.6722 -2.0368
   6523SM  C14F 8450   5.381   4.485   8.263 -0.0758 -0.4040 -0.2603
   6523SM  H14F 8451   5.361   4.376   8.252 -0.8077 -0.4391  1.2782
   6523SM  H14G 8452   5.487   4.513   8.277 -0.5768  1.1207  0.7865
   6523SM  C15F 8453   5.332   4.563   8.142  0.0210 -0.4437  0.0369
   6523SM  H15F 8454   5.364   4.667   8.161 -1.4693  0.1344 -0.4488
   6523SM  H15G 8455   5.222   4.550   8.132 -0.0695  0.4954 -0.2873
   6523SM  C16F 8456   5.410   4.514   8.016 -0.1521  0.0667 -0.2201
   6523SM  H16F 8457   5.386   4.407   8.001 -0.0127  0.1185 -0.8289
   6523SM  H16G 8458   5.519   4.534   8.018 -0.4005  1.7091 -1.0495
   6523SM  C17F 8459   5.357   4.578   7.883 -0.6469 -0.3268 -0.1218
   6523SM  H17F 8460   5.383   4.686   7.887 -0.1511 -0.4379 -0.2356
   6523SM  H17G 8461   5.247   4.565   7.876 -0.5615 -0.8114 -0.6660
   6523SM  C18F 8462   5.437   4.517   7.762  0.3889 -0.7167  0.1423
   6523SM  H18F 8463   5.407   4.411   7.754  0.1179 -0.5066 -4.0980
   6523SM  H18G 8464   5.547   4.518   7.778  0.8884  0.5093 -2.5952
   6523SM  C19F 8465   5.415   4.594   7.634 -0.3015 -0.3273  0.0931
   6523SM  H19F 8466   5.478   4.685   7.640 -0.2965 -0.4123  1.9123
   6523SM  H19G 8467   5.312   4.626   7.607  0.0089 -0.4856 -1.3520
   6523SM  C20F 8468   5.485   4.520   7.520  0.5705 -0.3536 -0.2691
   6523SM  H20F 8469   5.577   4.469   7.556 -0.6364 -2.2865  0.2232
   6523SM  H20G 8470   5.513   4.588   7.436  1.5927  0.4313  0.6797
   6523SM  C21F 8471   5.407   4.406   7.456  0.3929 -0.1605  0.2347
   6523SM  H21F 8472   5.324   4.447   7.395  1.2566 -0.6070 -1.3049
   6523SM  H21G 8473   5.356   4.354   7.539 -1.9223  0.0830 -0.9417
   6523SM  C22F 8474   5.489   4.299   7.370 -0.3422 -0.9350 -0.1020
   6523SM  H22F 8475   5.568   4.254   7.434 -1.9720  0.3228  3.0030
   6523SM  H22G 8476   5.532   4.366   7.292  1.5227 -1.2407  0.6153
   6523SM  C23F 8477   5.397   4.197   7.307  0.3816  0.0714  0.1861
   6523SM  H23F 8478   5.367   4.109   7.367 -1.6313  0.0074 -0.8348
   6523SM  H23G 8479   5.445   4.174   7.210  1.6319 -0.7209  0.9525
   6523SM  H23H 8480   5.301   4.247   7.283  0.3742 -0.1481 -0.2461
   6623SM     N 8481   3.642   2.990  10.141 -0.5770  0.7623 -0.0304
   6623SM   C15 8482   3.622   2.850  10.200  0.7234 -0.8229  0.1677
   6623SM  H15A 8483   3.714   2.797  10.217  2.6441  1.8582 -1.1432
   6623SM  H15B 8484   3.565   2.787  10.134  3.2334 -2.0368 -0.9506
   6623SM  H15C 8485   3.565   2.860  10.292  1.6900  0.9723  0.6162
   6623SM   C14 8486   3.517   3.073  10.156 -0.1544 -0.0982  0.4427
   6623SM  H14A 8487   3.481   3.078  10.258  1.1675  0.2733  0.9103
   6623SM  H14B 8488   3.445   3.047  10.080 -2.6194 -0.7424  2.8354
   6623SM  H14C 8489   3.554   3.174  10.144 -1.1558  0.1891 -0.4212
   6623SM   C13 8490   3.760   3.052  10.212 -0.4973  0.1466  0.4406
   6623SM  H13A 8491   3.738   3.073  10.316  5.6079 -0.6672  2.3376
   6623SM  H13B 8492   3.778   3.147  10.164 -3.7854  0.5622 -0.2009
   6623SM  H13C 8493   3.847   2.988  10.204 -0.7516 -0.0094 -1.3106
   6623SM   C12 8494   3.687   2.979   9.994  0.0152 -0.0573  0.3088
   6623SM  H12A 8495   3.761   2.900   9.996 -0.6643 -0.7167  0.0780
   6623SM  H12B 8496   3.732   3.073   9.966 -3.2130  1.3283 -0.6547
   6623SM   C11 8497   3.579   2.939   9.890  0.1966  0.2598  0.1814
   6623SM  H11A 8498   3.624   2.956   9.789 -0.4352 -1.1200 -0.3676
   6623SM  H11B 8499   3.491   3.006   9.892 -1.1083 -1.3410 -0.9812
   6623SM     P 8500   3.630   2.684   9.847 -0.4729  0.1085 -0.0496
   6623SM   O13 8501   3.766   2.703   9.902 -0.1142 -0.5951 -0.3427
   6623SM   O14 8502   3.561   2.555   9.859  0.8251  0.3769 -0.3115
   6623SM   O11 8503   3.640   2.718   9.690 -0.0505  0.3472  0.2792
   6623SM   O12 8504   3.539   2.801   9.907  0.6261  0.6316  0.6107
   6623SM   C1S 8505   3.750   2.650   9.630 -0.2541 -0.8929 -0.5227
   6623SM   H1S 8506   3.764   2.550   9.675 -1.6572 -0.5764  0.6951
   6623SM   H1T 8507   3.843   2.709   9.643  0.4705 -2.3129  1.0558
   6623SM    NF 8508   3.813   2.544   9.422  0.0034  0.8710  0.0981
   6623SM   HNF 8509   3.886   2.569   9.358  1.0734 -1.2329  0.4017
   6623SM   C2S 8510   3.732   2.645   9.484  0.0882 -0.7829 -0.4952
   6623SM   H2S 8511   3.625   2.617   9.468  0.0141  0.3146 -2.1435
   6623SM   C3S 8512   3.753   2.782   9.416 -0.6086 -0.1523 -0.2532
   6623SM   H3S 8513   3.856   2.818   9.438 -0.6344  0.2543 -0.7841
   6623SM    O3 8514   3.663   2.881   9.465  0.1544  0.1205 -0.4148
   6623SM   HO3 8515   3.634   2.832   9.542  2.5154 -2.7815 -1.2019
   6623SM   C4S 8516   3.734   2.769   9.265 -0.3192 -0.3748  0.3822
   6623SM   H4S 8517   3.632   2.741   9.236 -1.2561  0.3236  2.7231
   6623SM   C5S 8518   3.829   2.798   9.174  1.0343 -0.0901  0.2466
   6623SM   H5S 8519   3.922   2.845   9.207  0.0551  0.3613  2.5127
   6623SM   C6S 8520   3.811   2.787   9.025  0.2434  0.2573 -0.1099
   6623SM   H6S 8521   3.808   2.891   8.986 -0.3808  0.1726 -0.3031
   6623SM   H6T 8522   3.713   2.750   8.989 -0.5712  0.7061  1.5438
   6623SM   C7S 8523   3.920   2.693   8.974  0.3214  0.2780  0.4457
   6623SM   H7S 8524   3.923   2.599   9.033 -3.0957 -1.4758 -1.9000
   6623SM   H7T 8525   4.021   2.738   8.988  1.2005 -0.6117 -2.4991
   6623SM   C8S 8526   3.904   2.666   8.824  0.3823 -0.1942  0.1222
   6623SM   H8S 8527   3.796   2.668   8.797  0.3267 -3.0602 -0.1754
   6623SM   H8T 8528   3.922   2.562   8.790  0.5994 -0.5880  1.4128
   6623SM   C9S 8529   3.992   2.764   8.735 -0.4058  0.8750  0.0188
   6623SM   H9S 8530   4.098   2.757   8.767 -0.5237 -0.6054  0.1260
   6623SM   H9T 8531   3.950   2.867   8.746 -1.7426  0.1575  2.4408
   6623SM  C10S 8532   3.986   2.739   8.580  0.2605 -0.1688 -0.1412
   6623SM  H10S 8533   4.075   2.682   8.546 -0.9051 -1.4173 -1.1886
   6623SM  H10T 8534   4.010   2.839   8.536 -0.1614 -0.0864 -0.1897
   6623SM  C11S 8535   3.854   2.676   8.521  0.0710 -0.3619 -0.2682
   6623SM  H11S 8536   3.763   2.723   8.564  0.4516  0.3896 -0.2558
   6623SM  H11T 8537   3.857   2.570   8.555  0.0551 -0.5857 -0.9480
   6623SM  C12S 8538   3.850   2.680   8.364  0.9019  0.2479 -0.4550
   6623SM  H12S 8539   3.952   2.673   8.319  0.8224  2.1620 -0.9985
   6623SM  H12T 8540   3.824   2.786   8.344  0.8974  0.8120  2.1673
   6623SM  C13S 8541   3.746   2.593   8.294 -0.1001 -0.3550  0.2870
   6623SM  H13S 8542   3.740   2.640   8.194 -1.1800  0.0969  0.5467
   6623SM  H13T 8543   3.655   2.608   8.356 -0.7138  0.2027 -0.7338
   6623SM  C14S 8544   3.783   2.444   8.285  0.4302 -0.9227 -0.0023
   6623SM  H14S 8545   3.734   2.402   8.376 -0.6939  1.0045  0.3383
   6623SM  H14T 8546   3.893   2.428   8.289  0.6402  0.4983  0.1379
   6623SM  C15S 8547   3.728   2.394   8.146  0.5841  0.3843 -0.4642
   6623SM  H15S 8548   3.765   2.458   8.064 -0.2382  2.2869  0.5779
   6623SM  H15T 8549   3.617   2.401   8.148  0.6256  0.9849 -0.1267
   6623SM  C16S 8550   3.764   2.246   8.133 -0.2356  0.1800 -0.7400
   6623SM  H16S 8551   3.726   2.197   8.226 -0.6053  1.5326 -0.1493
   6623SM  H16T 8552   3.874   2.231   8.129 -0.0528  1.0637  0.2529
   6623SM  C17S 8553   3.705   2.183   8.005 -0.3412  0.0402 -0.3383
   6623SM  H17S 8554   3.733   2.246   7.918 -0.7823  0.6085 -0.0774
   6623SM  H17T 8555   3.595   2.197   8.013 -0.1009  2.5275 -0.4660
   6623SM  C18S 8556   3.726   2.035   7.985 -0.1221 -0.7892 -0.1423
   6623SM  H18S 8557   3.832   2.001   7.983 -0.2456 -1.2789  0.8807
   6623SM  H18T 8558   3.678   1.999   7.891 -2.3950 -1.1391  1.0902
   6623SM  H18U 8559   3.677   1.992   8.075  0.4496 -2.9191 -0.7868
   6623SM   C1F 8560   3.784   2.414   9.446 -0.0974 -0.1960 -0.0848
   6623SM    OF 8561   3.681   2.387   9.508 -0.3580 -0.2365 -0.1050
   6623SM   C2F 8562   3.868   2.308   9.380  0.1970  0.0318 -0.0123
   6623SM   H2F 8563   3.930   2.267   9.463 -1.9812 -3.9984 -0.0941
   6623SM   H2G 8564   3.933   2.352   9.301 -1.4389 -0.4670 -1.7152
   6623SM   C3F 8565   3.809   2.178   9.335 -0.1627  0.7441  0.0751
   6623SM   H3F 8566   3.746   2.124   9.410  0.8790 -2.0016 -0.9210
   6623SM   H3G 8567   3.891   2.109   9.308 -0.5488 -0.3554  1.5677
   6623SM   C4F 8568   3.714   2.199   9.212 -0.2122 -0.1474  0.1792
   6623SM   H4F 8569   3.629   2.266   9.237 -1.5346 -2.0269  0.8556
   6623SM   H4G 8570   3.686   2.095   9.188 -1.8551  0.3068  0.0451
   6623SM   C5F 8571   3.792   2.250   9.093 -0.1380 -0.9115  0.2379
   6623SM   H5F 8572   3.829   2.353   9.112 -0.0718 -0.8999  0.0509
   6623SM   H5G 8573   3.713   2.259   9.015  0.9265 -1.8094 -0.9839
   6623SM   C6F 8574   3.910   2.175   9.036 -0.1040  0.0304 -0.4855
   6623SM   H6F 8575   3.878   2.069   9.041  1.7968 -0.5399  0.6860
   6623SM   H6G 8576   3.987   2.197   9.113 -0.6508  0.4406 -0.0444
   6623SM   C7F 8577   3.964   2.212   8.901  0.8610  0.4267  0.2647
   6623SM   H7F 8578   4.070   2.179   8.902  0.1094 -2.2283  1.4140
   6623SM   H7G 8579   3.956   2.319   8.874 -0.3713  0.0920 -0.7754
   6623SM   C8F 8580   3.898   2.113   8.797 -0.3688 -0.4117  0.6001
   6623SM   H8F 8581   3.787   2.104   8.804 -0.6936  2.7034  1.1032
   6623SM   H8G 8582   3.947   2.014   8.810 -0.0161 -0.1351  1.4307
   6623SM   C9F 8583   3.926   2.163   8.650  0.1569  0.6603 -0.4134
   6623SM   H9F 8584   4.035   2.148   8.633  0.1906 -0.6223  0.7638
   6623SM   H9G 8585   3.917   2.274   8.647 -2.1060  0.5041 -0.8389
   6623SM  C10F 8586   3.834   2.103   8.549 -0.0688  0.3705  0.5265
   6623SM  H10F 8587   3.805   2.179   8.473 -2.1702 -2.0239 -1.2540
   6623SM  H10G 8588   3.733   2.072   8.584  0.5047 -1.8908  0.3220
   6623SM  C11F 8589   3.887   1.981   8.472 -0.1084 -0.3947  0.1794
   6623SM  H11F 8590   3.912   1.904   8.548  0.2045  0.3494  0.8340
   6623SM  H11G 8591   3.976   2.014   8.413 -0.0126  0.8675  1.0072
   6623SM  C12F 8592   3.780   1.921   8.383  0.8193 -0.4330  0.2567
   6623SM  H12F 8593   3.722   1.996   8.325 -0.4505 -2.1665 -0.8187
   6623SM  H12G 8594   3.701   1.872   8.444 -1.0947 -0.2954 -1.9614
   6623SM  C13F 8595   3.814   1.811   8.284  0.7775  0.8228 -0.3744
   6623SM  H13F 8596   3.886   1.736   8.324  0.5726  0.6241 -0.3794
   6623SM  H13G 8597   3.866   1.845   8.192 -0.2585 -1.5480 -1.9103
   6623SM  C14F 8598   3.685   1.740   8.233 -0.5367  0.1890  0.6150
   6623SM  H14F 8599   3.599   1.811   8.230 -0.5318  0.1591 -1.1602
   6623SM  H14G 8600   3.650   1.658   8.298  0.5695 -1.0042 -0.2515
   6623SM  C15F 8601   3.709   1.678   8.094 -0.0844 -0.7009  0.1148
   6623SM  H15F 8602   3.804   1.621   8.098  0.9179  0.8846  0.2365
   6623SM  H15G 8603   3.721   1.767   8.027 -2.9420  1.3127  2.0322
   6623SM  C16F 8604   3.601   1.593   8.031  0.0913 -0.7934 -0.1245
   6623SM  H16F 8605   3.511   1.656   8.013  0.2594 -0.5605 -0.1578
   6623SM  H16G 8606   3.567   1.505   8.090 -1.0380  0.1745  0.7166
   6623SM  C17F 8607   3.636   1.529   7.889 -0.1127 -0.6521  0.3225
   6623SM  H17F 8608   3.559   1.455   7.858  1.2179 -1.9420 -0.0406
   6623SM  H17G 8609   3.729   1.468   7.899  1.9814  1.9682 -1.5444
   6623SM  C18F 8610   3.667   1.630   7.773 -0.3680  0.4050  0.2556
   6623SM  H18F 8611   3.691   1.564   7.687 -0.3032  1.2050 -0.3506
   6623SM  H18G 8612   3.755   1.696   7.788  1.1939 -0.9673 -2.1257
   6623SM  C19F 8613   3.549   1.724   7.735  0.2033  0.2136 -0.6500
   6623SM  H19F 8614   3.519   1.799   7.811  1.5034 -0.4182  0.5440
   6623SM  H19G 8615   3.467   1.652   7.719  2.7877 -3.3059  0.6351
   6623SM  C20F 8616   3.560   1.798   7.601  0.0061  0.0899 -0.6176
   6623SM  H20F 8617   3.644   1.872   7.599  1.0449 -1.0464 -0.2317
   6623SM  H20G 8618   3.465   1.850   7.580 -1.3965 -2.3053 -0.5425
   6623SM  C21F 8619   3.566   1.691   7.480  0.1528 -0.7853  0.0321
   6623SM  H21F 8620   3.647   1.617   7.497 -0.1401 -1.1733 -0.2267
   6623SM  H21G 8621   3.580   1.759   7.393 -1.5471  0.8393  0.9618
   6623SM  C22F 8622   3.428   1.623   7.464  0.2805 -0.1652  0.6864
   6623SM  H22F 8623   3.394   1.564   7.552 -4.1700 -2.2186 -2.0728
   6623SM  H22G 8624   3.450   1.540   7.394  2.3453  0.8048  0.1171
   6623SM  C23F 8625   3.320   1.711   7.399  0.3123 -0.2490 -0.3292
   6623SM  H23F 8626   3.289   1.785   7.476  0.5665 -1.8278  1.3613
   6623SM  H23G 8627   3.227   1.654   7.377 -0.0876  0.2899 -0.0894
   6623SM  H23H 8628   3.359   1.766   7.311  0.7100 -0.1854 -0.1163
   6723SM     N 8629   2.604   5.527   9.750  0.7202 -0.0493 -1.1421
   6723SM   C15 8630   2.620   5.519   9.605 -1.2995 -0.0801  0.2853
   6723SM  H15A 8631   2.630   5.414   9.582 -1.6076  0.1046 -0.7538
   6723SM  H15B 8632   2.712   5.571   9.588 -2.3544  2.4920  1.8456
   6723SM  H15C 8633   2.539   5.577   9.563 -1.4264  0.2993  1.0336
   6723SM   C14 8634   2.554   5.660   9.788  0.5786 -0.6223 -0.0659
   6723SM  H14A 8635   2.511   5.653   9.887  1.2172  0.9834  0.3585
   6723SM  H14B 8636   2.476   5.683   9.717  2.0328 -2.1493 -2.2621
   6723SM  H14C 8637   2.629   5.737   9.794 -1.8386  1.8143  2.7636
   6723SM   C13 8638   2.513   5.411   9.788 -0.0248 -0.7003  0.3680
   6723SM  H13A 8639   2.421   5.422   9.732  0.8254  1.7427 -0.6863
   6723SM  H13B 8640   2.476   5.406   9.889  0.0947 -0.3560  0.4267
   6723SM  H13C 8641   2.554   5.313   9.767 -1.6770 -0.9808 -1.9838
   6723SM   C12 8642   2.731   5.506   9.831 -1.2441  0.3847 -0.0248
   6723SM  H12A 8643   2.702   5.493   9.934 -1.2983 -1.4689 -0.2299
   6723SM  H12B 8644   2.787   5.598   9.834  1.6259 -1.2769  0.8969
   6723SM   C11 8645   2.827   5.402   9.777 -0.6198  1.1150  0.6658
   6723SM  H11A 8646   2.909   5.382   9.849 -1.5284  0.3101  1.5133
   6723SM  H11B 8647   2.883   5.423   9.684 -0.2995  0.7374  0.7681
   6723SM     P 8648   2.802   5.131   9.795 -0.4064  0.5447 -0.5537
   6723SM   O13 8649   2.938   5.132   9.853  0.0303  0.0631 -0.0650
   6723SM   O14 8650   2.699   5.067   9.879  0.5561 -0.3144  0.3439
   6723SM   O11 8651   2.792   5.059   9.651  0.6525 -0.3939  0.2098
   6723SM   O12 8652   2.761   5.279   9.758 -0.4417  0.5861 -0.5118
   6723SM   C1S 8653   2.869   5.092   9.544  0.8130 -0.4480  0.5583
   6723SM   H1S 8654   2.899   5.199   9.545 -2.9661  0.7480  1.1284
   6723SM   H1T 8655   2.807   5.081   9.453 -0.6080 -0.1214  1.4449
   6723SM    NF 8656   3.059   5.044   9.402 -0.3787  0.5452 -0.3486
   6723SM   HNF 8657   3.001   5.004   9.331 -0.5884 -0.6103  0.4582
   6723SM   C2S 8658   2.998   5.000   9.529  0.0866 -0.0450  0.2161
   6723SM   H2S 8659   3.076   5.014   9.606 -0.7213 -0.9254  1.2236
   6723SM   C3S 8660   2.966   4.842   9.528  0.5510 -0.7433  0.2896
   6723SM   H3S 8661   2.884   4.831   9.454  2.2192  3.0459 -2.4601
   6723SM    O3 8662   2.899   4.801   9.651 -0.0824 -0.5816 -0.1368
   6723SM   HO3 8663   2.894   4.883   9.701 -0.2331 -1.1099  0.7419
   6723SM   C4S 8664   3.086   4.751   9.496  0.1115  0.1529  1.4506
   6723SM   H4S 8665   3.161   4.759   9.576  0.0705  0.3224  1.4711
   6723SM   C5S 8666   3.107   4.662   9.397 -0.3681  0.3338  1.0470
   6723SM   H5S 8667   3.030   4.667   9.319  2.2246 -0.9365 -1.7981
   6723SM   C6S 8668   3.245   4.603   9.371  0.1565 -0.5883 -0.4827
   6723SM   H6S 8669   3.226   4.504   9.324  0.4156 -0.1217 -1.5889
   6723SM   H6T 8670   3.295   4.585   9.469 -0.3029  1.9634  0.2763
   6723SM   C7S 8671   3.328   4.673   9.263 -0.8600 -0.2828  0.4860
   6723SM   H7S 8672   3.267   4.666   9.170  0.4405  1.2333 -0.5387
   6723SM   H7T 8673   3.417   4.607   9.263  0.1764  1.0589  0.4932
   6723SM   C8S 8674   3.365   4.814   9.292  0.5138 -0.2525  0.4244
   6723SM   H8S 8675   3.398   4.815   9.398 -0.7562  1.2360  0.8295
   6723SM   H8T 8676   3.279   4.882   9.279 -0.6315 -1.7796 -0.3673
   6723SM   C9S 8677   3.483   4.859   9.207  0.0418 -0.0198  0.2608
   6723SM   H9S 8678   3.568   4.790   9.227  0.4718  0.1616 -0.8682
   6723SM   H9T 8679   3.516   4.953   9.254  0.6937 -0.3254  0.4202
   6723SM  C10S 8680   3.452   4.874   9.057 -0.1055 -0.6082 -0.0792
   6723SM  H10S 8681   3.390   4.966   9.049 -0.8670 -1.1536 -0.5715
   6723SM  H10T 8682   3.397   4.784   9.021  2.0425 -1.2376 -1.9714
   6723SM  C11S 8683   3.581   4.870   8.978 -0.1584 -0.4246  0.0655
   6723SM  H11S 8684   3.601   4.761   8.979 -0.8569 -0.5742 -1.0390
   6723SM  H11T 8685   3.659   4.938   9.019  0.2022 -1.7185  1.6432
   6723SM  C12S 8686   3.546   4.913   8.840 -0.0386  0.1799  0.3482
   6723SM  H12S 8687   3.543   5.024   8.841  0.1742  0.1934  2.0650
   6723SM  H12T 8688   3.460   4.861   8.794 -0.7326  0.8973  0.8184
   6723SM  C13S 8689   3.660   4.869   8.741 -0.4537 -0.4185  0.1301
   6723SM  H13S 8690   3.683   4.760   8.746  0.3985 -0.3870 -2.0979
   6723SM  H13T 8691   3.753   4.926   8.762 -0.6261  0.1696 -0.6764
   6723SM  C14S 8692   3.636   4.893   8.584 -0.3311  0.6370 -0.3493
   6723SM  H14S 8693   3.545   4.841   8.547  0.4502 -0.3182 -0.9770
   6723SM  H14T 8694   3.725   4.851   8.532  0.2810  1.0360  0.3588
   6723SM  C15S 8695   3.631   5.044   8.550 -0.6659 -0.1314  0.5080
   6723SM  H15S 8696   3.711   5.085   8.615 -0.0408 -0.3379 -0.1200
   6723SM  H15T 8697   3.536   5.097   8.574 -1.8655 -1.8756 -0.2511
   6723SM  C16S 8698   3.670   5.064   8.400 -0.0534  0.6989  0.3320
   6723SM  H16S 8699   3.755   4.998   8.373 -2.5663 -1.8294 -1.9614
   6723SM  H16T 8700   3.694   5.169   8.373  0.7546  0.5864  0.5762
   6723SM  C17S 8701   3.561   5.017   8.300 -0.5202  0.8500 -0.1326
   6723SM  H17S 8702   3.466   5.075   8.305 -1.8330 -0.8736 -2.7837
   6723SM  H17T 8703   3.534   4.910   8.313 -0.5184  0.6944 -1.3375
   6723SM  C18S 8704   3.597   5.020   8.149 -0.1593  0.5299 -0.7240
   6723SM  H18S 8705   3.685   4.957   8.124 -0.1828  0.0172  0.4473
   6723SM  H18T 8706   3.623   5.126   8.126  0.6715  0.6461  0.6193
   6723SM  H18U 8707   3.508   5.000   8.086 -0.2884  0.8743 -0.6552
   6723SM   C1F 8708   3.145   5.146   9.394 -0.3223  0.0349 -0.4122
   6723SM    OF 8709   3.178   5.203   9.498  0.0026  0.0997  0.6266
   6723SM   C2F 8710   3.195   5.192   9.261  0.5781  0.3778  0.7841
   6723SM   H2F 8711   3.112   5.245   9.209 -1.9941 -2.0749  2.0704
   6723SM   H2G 8712   3.209   5.097   9.205  2.4628  0.0283  1.7838
   6723SM   C3F 8713   3.320   5.272   9.280  0.2396  0.4994  0.0911
   6723SM   H3F 8714   3.384   5.232   9.362 -1.5937  0.0005  1.3364
   6723SM   H3G 8715   3.297   5.374   9.319  1.4986  0.5464  0.7606
   6723SM   C4F 8716   3.394   5.275   9.152 -0.3884  0.4661  0.7745
   6723SM   H4F 8717   3.434   5.174   9.129 -0.4417  0.4514  0.7452
   6723SM   H4G 8718   3.476   5.348   9.168 -1.6794  1.8828  1.1915
   6723SM   C5F 8719   3.308   5.312   9.028  0.7726 -0.2789  0.0305
   6723SM   H5F 8720   3.289   5.420   9.047 -1.0427 -0.7937  1.3630
   6723SM   H5G 8721   3.221   5.243   9.025  0.0957  0.3692  2.7163
   6723SM   C6F 8722   3.380   5.303   8.893  0.5575  0.1435 -0.9963
   6723SM   H6F 8723   3.403   5.197   8.869  1.1833 -0.1653  0.8138
   6723SM   H6G 8724   3.483   5.343   8.896  1.0336 -1.0689  0.7962
   6723SM   C7F 8725   3.302   5.360   8.780  0.5284 -0.0736 -0.5166
   6723SM   H7F 8726   3.292   5.468   8.800  1.8327  0.2954 -1.7225
   6723SM   H7G 8727   3.202   5.312   8.780  0.8255 -0.8693 -3.3267
   6723SM   C8F 8728   3.370   5.347   8.644  0.4933  0.0774  0.0306
   6723SM   H8F 8729   3.370   5.236   8.635 -2.2187 -0.1156  1.3978
   6723SM   H8G 8730   3.476   5.374   8.663  0.5794 -0.7668  0.8291
   6723SM   C9F 8731   3.304   5.410   8.525  0.2245  0.1794  0.4981
   6723SM   H9F 8732   3.292   5.520   8.539  2.4361  0.7466 -1.4089
   6723SM   H9G 8733   3.203   5.363   8.516  0.7646 -0.7341 -1.3952
   6723SM  C10F 8734   3.380   5.389   8.395 -0.1712  0.4199 -0.3334
   6723SM  H10F 8735   3.312   5.384   8.308  0.3681  0.0912 -0.7405
   6723SM  H10G 8736   3.428   5.289   8.400 -0.1281  0.2882 -2.5863
   6723SM  C11F 8737   3.497   5.488   8.369 -0.9166 -0.1956  0.0736
   6723SM  H11F 8738   3.581   5.474   8.441  0.0325 -2.2594 -1.3456
   6723SM  H11G 8739   3.466   5.594   8.376 -2.8367 -0.6599 -0.7859
   6723SM  C12F 8740   3.558   5.472   8.232  0.2192 -0.2047 -0.2764
   6723SM  H12F 8741   3.591   5.366   8.223  1.6389  0.0145  1.7328
   6723SM  H12G 8742   3.642   5.545   8.227  1.0443 -1.0818  0.5079
   6723SM  C13F 8743   3.467   5.497   8.118  0.4442  0.8079 -0.7155
   6723SM  H13F 8744   3.398   5.580   8.145 -0.6525 -0.0985 -0.6475
   6723SM  H13G 8745   3.412   5.401   8.107  0.1945  0.9866 -1.0375
   6723SM  C14F 8746   3.531   5.527   7.984 -0.0253 -0.4827  0.6420
   6723SM  H14F 8747   3.604   5.448   7.957 -0.1022 -0.1469 -0.5768
   6723SM  H14G 8748   3.582   5.626   7.987  2.5399 -1.6923  0.1480
   6723SM  C15F 8749   3.435   5.526   7.857  0.4052  0.3585 -0.3283
   6723SM  H15F 8750   3.354   5.598   7.880 -0.9173 -0.6851 -1.4782
   6723SM  H15G 8751   3.391   5.423   7.853  0.2774  0.4442 -1.6717
   6723SM  C16F 8752   3.506   5.544   7.731  0.2495 -1.3118  0.2233
   6723SM  H16F 8753   3.442   5.544   7.640  1.8269  0.6458 -0.9825
   6723SM  H16G 8754   3.576   5.461   7.708  0.8729 -0.6160 -0.4711
   6723SM  C17F 8755   3.578   5.676   7.728  0.2266  0.8169  0.0004
   6723SM  H17F 8756   3.663   5.665   7.799 -0.3635 -2.5470  0.3221
   6723SM  H17G 8757   3.521   5.764   7.766 -1.7164 -0.7032  0.7403
   6723SM  C18F 8758   3.629   5.717   7.591 -0.4402  0.2635 -1.0522
   6723SM  H18F 8759   3.543   5.728   7.520 -1.9882 -0.1473  0.6797
   6723SM  H18G 8760   3.683   5.629   7.551 -1.6517 -1.1275  0.2336
   6723SM  C19F 8761   3.724   5.837   7.588 -0.3958  0.4100 -0.1282
   6723SM  H19F 8762   3.812   5.818   7.653  0.4441  1.9441 -0.7600
   6723SM  H19G 8763   3.673   5.929   7.622 -0.5455  0.6692 -1.0332
   6723SM  C20F 8764   3.782   5.852   7.442  0.0779  0.1951 -0.4205
   6723SM  H20F 8765   3.847   5.767   7.411 -0.8977  0.2189 -2.7045
   6723SM  H20G 8766   3.841   5.945   7.457  0.3281 -0.1586  0.9353
   6723SM  C21F 8767   3.678   5.895   7.336  0.0254 -0.3230  0.5593
   6723SM  H21F 8768   3.638   5.998   7.349  0.4755 -0.0416 -0.2565
   6723SM  H21G 8769   3.588   5.830   7.330 -0.8059  0.8953 -0.5603
   6723SM  C22F 8770   3.735   5.891   7.196 -0.3675 -0.0561  0.3836
   6723SM  H22F 8771   3.763   5.786   7.170 -1.0190 -1.0227  3.2991
   6723SM  H22G 8772   3.826   5.955   7.194 -0.1572 -0.3680 -0.6959
   6723SM  C23F 8773   3.637   5.950   7.092 -0.0823  0.0719 -0.5239
   6723SM  H23F 8774   3.586   6.041   7.132  0.1220 -0.4309  0.9144
   6723SM  H23G 8775   3.556   5.876   7.071 -2.2135  2.1109 -0.0131
   6723SM  H23H 8776   3.682   5.979   6.995 -1.8356  2.2820 -0.7775
   6823SM     N 8777   3.128   1.566  10.137 -0.2984  0.3642  0.4472
   6823SM   C15 8778   3.204   1.434  10.137  0.1156 -0.1143  0.1757
   6823SM  H15A 8779   3.306   1.435  10.173 -0.1660 -0.3550  0.9949
   6823SM  H15B 8780   3.200   1.388  10.039  1.9566 -0.6017  0.2971
   6823SM  H15C 8781   3.145   1.371  10.202 -1.7862  2.6681  1.3196
   6823SM   C14 8782   3.122   1.621  10.271 -0.8003 -0.4107  0.5701
   6823SM  H14A 8783   3.052   1.703  10.275  0.0100  0.3217  0.2016
   6823SM  H14B 8784   3.221   1.658  10.294 -0.3845 -0.8799 -0.4512
   6823SM  H14C 8785   3.088   1.552  10.347 -3.0885  0.8962  0.8279
   6823SM   C13 8786   3.207   1.664  10.061  0.0707 -0.8565  0.1352
   6823SM  H13A 8787   3.235   1.632   9.961  1.4821  2.1134 -0.5566
   6823SM  H13B 8788   3.301   1.676  10.113  0.7167 -0.5350 -1.0644
   6823SM  H13C 8789   3.158   1.760  10.050  0.9683 -0.1242  2.1161
   6823SM   C12 8790   2.986   1.549  10.092  1.1011  0.2596 -0.4089
   6823SM  H12A 8791   2.980   1.518   9.989 -1.3614  0.6988 -0.4618
   6823SM  H12B 8792   2.931   1.642  10.099 -1.8660 -1.2626 -1.4161
   6823SM   C11 8793   2.900   1.437  10.152 -0.3967  0.1538 -0.2881
   6823SM  H11A 8794   2.877   1.461  10.258 -0.6842 -0.6636 -0.1581
   6823SM  H11B 8795   2.957   1.342  10.153 -0.5384  0.0688  0.7470
   6823SM     P 8796   2.648   1.494  10.110  0.6955 -0.0082 -0.2978
   6823SM   O13 8797   2.577   1.409  10.210 -0.3443 -0.0986 -0.3335
   6823SM   O14 8798   2.672   1.635  10.156  0.1986 -0.3014  0.2000
   6823SM   O11 8799   2.569   1.497   9.971  1.1247 -0.1671 -0.5169
   6823SM   O12 8800   2.788   1.418  10.071 -0.0828 -0.3195 -0.1310
   6823SM   C1S 8801   2.640   1.478   9.851 -0.3096  0.4352  0.6242
   6823SM   H1S 8802   2.692   1.380   9.845 -1.8663 -0.3758 -0.2923
   6823SM   H1T 8803   2.720   1.555   9.845  0.8094 -0.7221  0.2081
   6823SM    NF 8804   2.632   1.505   9.604  0.4461 -0.4524  0.6211
   6823SM   HNF 8805   2.663   1.587   9.557  0.0223 -0.1116  0.9363
   6823SM   C2S 8806   2.554   1.520   9.726 -0.2892 -0.0027 -0.7717
   6823SM   H2S 8807   2.470   1.448   9.726  0.7828 -1.6588  3.8518
   6823SM   C3S 8808   2.489   1.661   9.741 -0.5052 -0.2637 -0.5296
   6823SM   H3S 8809   2.569   1.737   9.743 -1.4381  0.7554 -0.8826
   6823SM    O3 8810   2.438   1.695   9.876  0.3317 -0.2841  0.2642
   6823SM   HO3 8811   2.478   1.635   9.938  2.0647  1.5898  1.0766
   6823SM   C4S 8812   2.392   1.696   9.625  0.4342  0.0434 -0.5900
   6823SM   H4S 8813   2.442   1.729   9.532  3.4806 -0.3629  0.7780
   6823SM   C5S 8814   2.260   1.679   9.618 -0.1895  0.5332 -0.0912
   6823SM   H5S 8815   2.205   1.657   9.711  0.6915  1.7424  0.7609
   6823SM   C6S 8816   2.174   1.703   9.502  0.6562 -0.7617  0.3524
   6823SM   H6S 8817   2.145   1.809   9.512  4.0953  0.3308 -0.0194
   6823SM   H6T 8818   2.090   1.630   9.510  1.9538 -2.2576  0.7581
   6823SM   C7S 8819   2.230   1.683   9.358  0.2707 -0.4775 -0.7126
   6823SM   H7S 8820   2.323   1.741   9.337  1.0859 -1.8323 -0.9830
   6823SM   H7T 8821   2.140   1.703   9.295 -1.9183  0.4034  2.4768
   6823SM   C8S 8822   2.264   1.538   9.327 -0.0420  0.1554 -0.0561
   6823SM   H8S 8823   2.182   1.465   9.348 -0.0966  0.6037  1.3941
   6823SM   H8T 8824   2.352   1.502   9.383  0.1194  0.0676 -0.3637
   6823SM   C9S 8825   2.321   1.520   9.180  0.0954 -0.0060 -0.0933
   6823SM   H9S 8826   2.249   1.582   9.122 -3.1911 -1.5241  2.0226
   6823SM   H9T 8827   2.320   1.412   9.152  2.0935  0.2979 -1.6110
   6823SM  C10S 8828   2.460   1.575   9.158 -0.5224 -0.0451  0.5097
   6823SM  H10S 8829   2.528   1.575   9.246 -1.5930  4.0612  1.5397
   6823SM  H10T 8830   2.462   1.686   9.151  1.1425 -0.0644  0.1996
   6823SM  C11S 8831   2.518   1.528   9.024  0.2753  0.7391 -0.0860
   6823SM  H11S 8832   2.440   1.549   8.947 -0.7426  1.4233  1.0918
   6823SM  H11T 8833   2.533   1.418   9.027  1.7331  0.8349 -2.1490
   6823SM  C12S 8834   2.659   1.582   8.987  0.0243  0.0489  0.2006
   6823SM  H12S 8835   2.729   1.541   9.063  0.8613 -1.3230 -1.2459
   6823SM  H12T 8836   2.650   1.693   8.995  0.7140  0.1506 -0.3576
   6823SM  C13S 8837   2.710   1.512   8.862 -0.1312  0.1984  0.1489
   6823SM  H13S 8838   2.722   1.404   8.883  2.4479  0.6413  1.3197
   6823SM  H13T 8839   2.814   1.549   8.848  0.0302  0.6443  2.2165
   6823SM  C14S 8840   2.634   1.544   8.738  0.3168  0.5170 -0.2464
   6823SM  H14S 8841   2.628   1.654   8.725 -0.9896  0.6399  1.1173
   6823SM  H14T 8842   2.536   1.493   8.746  0.1537  0.5179 -1.8151
   6823SM  C15S 8843   2.703   1.474   8.611 -0.2342  0.5558  0.7583
   6823SM  H15S 8844   2.738   1.376   8.650  2.5215  1.5876  1.1175
   6823SM  H15T 8845   2.796   1.529   8.585  1.0280 -0.7905  2.2065
   6823SM  C16S 8846   2.607   1.460   8.489 -0.7128  0.1011 -0.3555
   6823SM  H16S 8847   2.579   1.562   8.458  0.6264  0.2028 -1.2816
   6823SM  H16T 8848   2.518   1.402   8.524 -0.2263 -1.5167 -1.6416
   6823SM  C17S 8849   2.654   1.370   8.379  0.5132  0.0700  0.8038
   6823SM  H17S 8850   2.568   1.344   8.314  1.0149  3.1062 -1.2958
   6823SM  H17T 8851   2.703   1.275   8.410 -1.2702 -0.7126  1.3083
   6823SM  C18S 8852   2.751   1.448   8.291 -0.6035  0.0299 -0.4738
   6823SM  H18S 8853   2.841   1.466   8.353 -1.7882  0.9008  1.0401
   6823SM  H18T 8854   2.716   1.548   8.258  1.1780  0.7917 -0.1676
   6823SM  H18U 8855   2.771   1.383   8.203 -1.4397 -0.1940 -0.5038
   6823SM   C1F 8856   2.682   1.396   9.557  0.2652  0.0882 -0.2639
   6823SM    OF 8857   2.658   1.293   9.606  0.6119 -0.7480 -0.2252
   6823SM   C2F 8858   2.783   1.412   9.446 -0.7227 -0.0517 -0.5350
   6823SM   H2F 8859   2.884   1.435   9.486 -0.9703 -0.7141  0.5077
   6823SM   H2G 8860   2.761   1.499   9.381 -0.7888  0.1900 -0.1893
   6823SM   C3F 8861   2.792   1.283   9.363 -0.1713 -0.5989 -0.1657
   6823SM   H3F 8862   2.692   1.242   9.342  0.6351 -1.4944 -2.5747
   6823SM   H3G 8863   2.841   1.216   9.437  3.8089  1.0069 -1.0422
   6823SM   C4F 8864   2.859   1.287   9.228 -0.0116 -1.3635  0.3694
   6823SM   H4F 8865   2.964   1.321   9.241 -0.4908 -0.1211  1.1083
   6823SM   H4G 8866   2.797   1.363   9.176  0.0653 -2.2662 -1.1039
   6823SM   C5F 8867   2.835   1.174   9.133  0.2658 -0.0181 -0.3226
   6823SM   H5F 8868   2.727   1.153   9.116 -0.1639  1.8650 -0.2321
   6823SM   H5G 8869   2.884   1.083   9.173 -0.4554 -0.7196 -1.0009
   6823SM   C6F 8870   2.905   1.192   9.000  0.4050 -0.2656 -0.4678
   6823SM   H6F 8871   3.013   1.215   9.000  0.1623  0.9632 -1.2526
   6823SM   H6G 8872   2.858   1.279   8.950 -1.2500  0.1499  1.6517
   6823SM   C7F 8873   2.876   1.069   8.917  0.3179 -0.6426 -0.3552
   6823SM   H7F 8874   2.772   1.031   8.926  1.0235 -2.6985 -0.4703
   6823SM   H7G 8875   2.941   0.984   8.946  1.9905  1.0607  1.1991
   6823SM   C8F 8876   2.905   1.077   8.764 -0.9781  0.2382  0.4942
   6823SM   H8F 8877   3.015   1.083   8.750 -0.8248 -0.7022  1.2212
   6823SM   H8G 8878   2.867   1.176   8.729  0.2330  0.2603 -0.8620
   6823SM   C9F 8879   2.847   0.965   8.681  0.6750  0.1618  0.0346
   6823SM   H9F 8880   2.751   0.938   8.730  0.4872 -0.6496 -0.7594
   6823SM   H9G 8881   2.914   0.877   8.680 -0.7357 -0.9628 -1.0783
   6823SM  C10F 8882   2.799   1.002   8.538  0.1654  0.3987  0.0307
   6823SM  H10F 8883   2.735   1.092   8.554 -2.8897 -1.2786 -1.7206
   6823SM  H10G 8884   2.735   0.921   8.497 -0.5108  1.2143 -0.5829
   6823SM  C11F 8885   2.905   1.029   8.434 -0.0872  0.0011  0.8585
   6823SM  H11F 8886   2.980   1.093   8.484  0.9886 -0.1915 -0.4506
   6823SM  H11G 8887   2.858   1.092   8.356  1.2755  1.6187  1.2871
   6823SM  C12F 8888   2.969   0.894   8.378 -0.2354 -0.7102  0.5175
   6823SM  H12F 8889   2.895   0.826   8.330  0.1452 -0.1079 -1.0090
   6823SM  H12G 8890   3.002   0.836   8.467  0.8344  1.3953  1.5612
   6823SM  C13F 8891   3.062   0.918   8.263  0.9938 -0.2525 -0.1436
   6823SM  H13F 8892   3.106   0.821   8.231 -1.4343 -1.5753  0.2117
   6823SM  H13G 8893   3.152   0.980   8.284 -1.3949  2.7474  2.3663
   6823SM  C14F 8894   2.998   0.970   8.139 -0.2999 -0.1339  0.3239
   6823SM  H14F 8895   2.966   1.076   8.150 -0.1829 -0.2260  1.8159
   6823SM  H14G 8896   2.904   0.916   8.115 -0.8150 -0.2180  2.3131
   6823SM  C15F 8897   3.087   0.956   8.018 -0.0148 -0.7651  0.3690
   6823SM  H15F 8898   3.139   0.857   8.019  0.6558 -0.5523 -2.5774
   6823SM  H15G 8899   3.172   1.026   8.032 -0.7400  0.3472 -0.6260
   6823SM  C16F 8900   3.011   0.980   7.887 -0.1013  0.0810  0.0914
   6823SM  H16F 8901   3.089   1.004   7.811  2.0737 -1.4923  1.7025
   6823SM  H16G 8902   2.940   1.065   7.886  0.6558  0.7534  1.2190
   6823SM  C17F 8903   2.921   0.858   7.839 -0.9346 -0.0158 -0.6318
   6823SM  H17F 8904   2.860   0.838   7.930  0.0711  0.5896  0.1913
   6823SM  H17G 8905   2.971   0.762   7.815 -1.0033 -0.3250  0.4162
   6823SM  C18F 8906   2.835   0.900   7.722  0.1285  0.3035 -0.2335
   6823SM  H18F 8907   2.905   0.923   7.639 -0.2857 -2.4683 -1.4609
   6823SM  H18G 8908   2.761   0.981   7.742 -0.9251 -1.0744  1.8743
   6823SM  C19F 8909   2.745   0.785   7.681  0.1682  0.6905 -0.1277
   6823SM  H19F 8910   2.685   0.746   7.765  1.1465 -2.4788 -0.7808
   6823SM  H19G 8911   2.810   0.697   7.663 -0.8907 -0.0316 -0.5347
   6823SM  C20F 8912   2.636   0.814   7.571 -0.8090 -0.6195 -0.2965
   6823SM  H20F 8913   2.554   0.872   7.617  0.1602  1.1478 -0.7261
   6823SM  H20G 8914   2.601   0.724   7.517  1.4138 -1.2025 -0.8582
   6823SM  C21F 8915   2.690   0.901   7.463 -0.2203 -0.1679 -0.3196
   6823SM  H21F 8916   2.797   0.883   7.443 -0.0040  1.5909 -0.9740
   6823SM  H21G 8917   2.688   1.009   7.489 -1.0741 -0.1135 -0.5611
   6823SM  C22F 8918   2.617   0.890   7.329 -0.1620  0.2828 -0.1007
   6823SM  H22F 8919   2.508   0.872   7.344 -0.0219  1.2593  2.6488
   6823SM  H22G 8920   2.664   0.808   7.271 -0.9391  0.8506 -1.5927
   6823SM  C23F 8921   2.631   1.012   7.231 -0.1597 -0.1765 -0.0300
   6823SM  H23F 8922   2.560   1.011   7.146  2.8215  1.3486 -2.7410
   6823SM  H23G 8923   2.730   1.027   7.184 -0.4087  0.1031 -0.4670
   6823SM  H23H 8924   2.602   1.103   7.287 -0.5026  1.4798 -2.7226
   6923SM     N 8925   5.021   2.319  10.677 -0.7519 -0.4058  0.1658
   6923SM   C15 8926   5.003   2.434  10.768  0.3779 -0.2440  0.5407
   6923SM  H15A 8927   5.083   2.507  10.761  0.0209 -0.0213 -2.4752
   6923SM  H15B 8928   5.000   2.397  10.870 -0.0585 -1.1870  0.1948
   6923SM  H15C 8929   4.911   2.485  10.745  0.7639 -0.5085 -1.7573
   6923SM   C14 8930   5.140   2.238  10.728  0.6476 -0.2424 -0.0597
   6923SM  H14A 8931   5.178   2.166  10.657 -0.9867 -1.5873  0.3883
   6923SM  H14B 8932   5.116   2.191  10.822  1.1059  1.5287  0.9994
   6923SM  H14C 8933   5.225   2.306  10.732 -0.7522  1.6455 -0.7443
   6923SM   C13 8934   4.896   2.234  10.670 -0.2287 -0.4227 -0.7503
   6923SM  H13A 8935   4.910   2.149  10.605  1.2377 -1.2259  0.5447
   6923SM  H13B 8936   4.807   2.291  10.648 -0.2945 -0.0708  0.3723
   6923SM  H13C 8937   4.876   2.190  10.766  0.7757 -2.4980 -1.4288
   6923SM   C12 8938   5.053   2.391  10.539 -0.7570 -0.0360 -0.2447
   6923SM  H12A 8939   5.134   2.460  10.556 -0.3553 -0.3757 -0.7877
   6923SM  H12B 8940   4.966   2.449  10.510 -0.2452  0.4866 -0.7552
   6923SM   C11 8941   5.093   2.299  10.422  0.5896 -0.3412  0.2404
   6923SM  H11A 8942   5.178   2.231  10.445  0.9901 -0.0938 -0.4760
   6923SM  H11B 8943   5.117   2.359  10.332 -0.0628 -0.5691 -0.0950
   6923SM     P 8944   4.872   2.254  10.291  0.2764  0.3586  0.4388
   6923SM   O13 8945   4.764   2.156  10.312  0.1445  0.0493  0.7205
   6923SM   O14 8946   4.841   2.397  10.301 -0.7287 -0.1430  0.5104
   6923SM   O11 8947   4.934   2.224  10.150  0.2214  0.0170  0.3844
   6923SM   O12 8948   4.981   2.216  10.394 -1.2481 -0.6215  0.1157
   6923SM   C1S 8949   4.962   2.086  10.113  0.6857  0.2597 -0.6798
   6923SM   H1S 8950   4.865   2.031  10.118 -0.2527  1.9282  0.2772
   6923SM   H1T 8951   5.039   2.028  10.169 -0.0573 -0.5115 -0.4274
   6923SM    NF 8952   5.015   1.949   9.921  0.0816 -0.3101  0.0987
   6923SM   HNF 8953   5.102   1.902   9.908  1.0258  1.7887 -1.7090
   6923SM   C2S 8954   5.016   2.084   9.969 -0.5714  0.5255  1.1624
   6923SM   H2S 8955   4.937   2.144   9.918 -0.9736 -0.6048  0.4283
   6923SM   C3S 8956   5.155   2.157   9.961  0.1355  0.3307 -0.7272
   6923SM   H3S 8957   5.231   2.094  10.011  0.4006  1.8969  0.9212
   6923SM    O3 8958   5.167   2.285  10.029  1.1744 -0.3966  0.5616
   6923SM   HO3 8959   5.091   2.269  10.086 -0.5947  0.6941 -1.3497
   6923SM   C4S 8960   5.174   2.177   9.815 -0.0282 -0.0060 -0.6724
   6923SM   H4S 8961   5.097   2.246   9.777 -1.2478  0.2144  1.9828
   6923SM   C5S 8962   5.273   2.123   9.742 -0.0177 -0.3841  0.0315
   6923SM   H5S 8963   5.350   2.060   9.789 -1.7864 -2.9228 -0.2639
   6923SM   C6S 8964   5.292   2.132   9.596 -0.5845 -0.1052 -0.2821
   6923SM   H6S 8965   5.295   2.032   9.548  0.2571  0.0663 -0.5992
   6923SM   H6T 8966   5.395   2.161   9.567  0.7389 -2.4551  1.7287
   6923SM   C7S 8967   5.173   2.186   9.510 -0.1853  0.1934  0.1628
   6923SM   H7S 8968   5.208   2.212   9.408 -0.1812  1.1071  0.3829
   6923SM   H7T 8969   5.119   2.275   9.550  0.6437  0.8305 -0.1146
   6923SM   C8S 8970   5.065   2.077   9.490  0.7071 -0.1845 -0.1781
   6923SM   H8S 8971   5.016   2.056   9.587 -0.9094 -3.7038 -1.5710
   6923SM   H8T 8972   5.117   1.983   9.462  0.5630  0.1899 -1.8084
   6923SM   C9S 8973   4.964   2.104   9.378  0.5140 -0.4122 -0.0369
   6923SM   H9S 8974   4.971   2.212   9.356 -0.2984 -0.0422  1.4549
   6923SM   H9T 8975   4.858   2.098   9.408  0.5312  1.8357  0.6345
   6923SM  C10S 8976   4.988   2.034   9.250  0.1116 -0.3729 -0.4202
   6923SM  H10S 8977   4.964   1.926   9.262  2.1847 -0.7979  0.2754
   6923SM  H10T 8978   5.096   2.044   9.224 -0.0120 -0.4924 -0.9966
   6923SM  C11S 8979   4.907   2.095   9.135 -0.1355 -0.0066  0.1745
   6923SM  H11S 8980   4.936   2.199   9.110 -1.1790 -0.0367 -1.2822
   6923SM  H11T 8981   4.797   2.099   9.146 -0.3570  0.5272 -1.9113
   6923SM  C12S 8982   4.930   2.010   9.005 -0.3675  0.3828  0.0147
   6923SM  H12S 8983   4.888   1.910   9.027  2.5492 -1.1925 -0.9880
   6923SM  H12T 8984   5.040   2.002   8.987  0.0028  0.4135  1.9925
   6923SM  C13S 8985   4.844   2.063   8.891 -0.0439  0.1910 -0.7898
   6923SM  H13S 8986   4.871   2.169   8.869 -0.1317  0.3820 -0.0051
   6923SM  H13T 8987   4.739   2.066   8.929 -0.5612  1.2449 -2.2198
   6923SM  C14S 8988   4.842   1.987   8.753 -0.2768 -0.3275 -0.1642
   6923SM  H14S 8989   4.757   1.915   8.755 -0.0316 -0.6466 -1.0059
   6923SM  H14T 8990   4.936   1.927   8.758 -0.5290 -0.6887  0.4025
   6923SM  C15S 8991   4.835   2.076   8.622 -0.0352 -0.1725 -0.2179
   6923SM  H15S 8992   4.932   2.122   8.596 -0.6689  0.7055 -1.0916
   6923SM  H15T 8993   4.745   2.142   8.629 -2.0376 -2.5914 -1.4772
   6923SM  C16S 8994   4.804   1.991   8.497 -0.1771 -0.3580 -0.2267
   6923SM  H16S 8995   4.710   1.937   8.520  0.0132 -0.1316  1.2009
   6923SM  H16T 8996   4.892   1.927   8.477  1.0642  0.1311  3.0434
   6923SM  C17S 8997   4.797   2.096   8.386 -0.1844 -0.2930 -0.6060
   6923SM  H17S 8998   4.901   2.130   8.366 -1.0532  2.8033 -0.4362
   6923SM  H17T 8999   4.729   2.176   8.421  2.3102  1.0657  1.5411
   6923SM  C18S 9000   4.749   2.034   8.259  0.0554  0.4012 -0.4451
   6923SM  H18S 9001   4.821   1.960   8.218 -1.2358 -1.7886  1.0060
   6923SM  H18T 9002   4.714   2.113   8.188  3.0172 -0.0109 -2.5378
   6923SM  H18U 9003   4.664   1.966   8.280 -0.5614  0.6133 -2.1247
   6923SM   C1F 9004   4.911   1.877   9.892  0.0281 -0.2618 -0.6983
   6923SM    OF 9005   4.803   1.937   9.892  0.2228 -0.2580  0.5882
   6923SM   C2F 9006   4.924   1.732   9.868 -0.5807 -0.6620  0.4177
   6923SM   H2F 9007   4.912   1.676   9.963 -0.3543 -0.0539  0.8168
   6923SM   H2G 9008   5.032   1.727   9.841  0.6379  3.6741  3.3420
   6923SM   C3F 9009   4.819   1.667   9.778  0.1976  0.1998  0.0915
   6923SM   H3F 9010   4.716   1.686   9.814 -0.0142  0.6198 -0.7154
   6923SM   H3G 9011   4.828   1.556   9.767 -0.7189  0.2601 -1.5772
   6923SM   C4F 9012   4.815   1.727   9.632 -0.4095 -0.1501 -0.6371
   6923SM   H4F 9013   4.922   1.743   9.604  0.0743 -0.4792  0.8823
   6923SM   H4G 9014   4.776   1.831   9.641 -1.6108 -0.7231  1.4927
   6923SM   C5F 9015   4.721   1.655   9.532 -0.5738  0.8626  1.1620
   6923SM   H5F 9016   4.614   1.657   9.560 -1.3967 -1.0171 -1.4478
   6923SM   H5G 9017   4.745   1.547   9.531 -3.1911  0.2280  1.4054
   6923SM   C6F 9018   4.726   1.724   9.386 -0.5114  0.7068 -0.5026
   6923SM   H6F 9019   4.832   1.715   9.353 -0.3382  0.8617 -0.0122
   6923SM   H6G 9020   4.710   1.834   9.396  1.7207  1.2032 -1.8256
   6923SM   C7F 9021   4.634   1.655   9.286  0.4018  0.4692  0.4043
   6923SM   H7F 9022   4.534   1.677   9.328  0.1217  1.4349 -0.7154
   6923SM   H7G 9023   4.643   1.545   9.285 -1.0026  0.2857 -2.6204
   6923SM   C8F 9024   4.659   1.705   9.146  0.1816 -0.0919  0.1814
   6923SM   H8F 9025   4.761   1.675   9.116  0.1360 -1.1727  1.0512
   6923SM   H8G 9026   4.648   1.815   9.151  1.1935  0.0875 -1.0267
   6923SM   C9F 9027   4.568   1.651   9.029  0.0554  1.0529  0.2833
   6923SM   H9F 9028   4.460   1.672   9.045 -0.7143 -1.1005 -1.5953
   6923SM   H9G 9029   4.573   1.542   9.045 -1.6952  1.1974  2.2115
   6923SM  C10F 9030   4.614   1.699   8.896 -0.1932  0.1899  0.3620
   6923SM  H10F 9031   4.723   1.687   8.877  0.4625  1.5922  2.8812
   6923SM  H10G 9032   4.592   1.807   8.884 -0.0503  0.4048  1.8925
   6923SM  C11F 9033   4.532   1.630   8.783  0.5390 -0.2841 -0.5652
   6923SM  H11F 9034   4.422   1.647   8.787  0.2004 -1.3989 -3.2777
   6923SM  H11G 9035   4.568   1.526   8.796  1.3431  0.1389  0.9538
   6923SM  C12F 9036   4.569   1.663   8.637 -0.1415  0.1922  1.1447
   6923SM  H12F 9037   4.674   1.696   8.630  0.3178 -1.4946 -0.6781
   6923SM  H12G 9038   4.507   1.751   8.609 -2.4538 -2.2488 -2.1199
   6923SM  C13F 9039   4.550   1.547   8.544  0.2048 -0.0099  0.5635
   6923SM  H13F 9040   4.456   1.490   8.560  0.2328 -0.7048 -1.4773
   6923SM  H13G 9041   4.636   1.478   8.557  0.0354 -0.0390  1.6026
   6923SM  C14F 9042   4.543   1.606   8.403  0.0875  0.0529  0.5211
   6923SM  H14F 9043   4.616   1.690   8.396 -1.7346  1.6307 -0.5651
   6923SM  H14G 9044   4.437   1.640   8.396 -0.1670 -0.8093 -0.0472
   6923SM  C15F 9045   4.561   1.508   8.290 -0.2555 -0.0664 -0.1213
   6923SM  H15F 9046   4.481   1.434   8.308 -1.6440  0.7493 -2.4822
   6923SM  H15G 9047   4.657   1.452   8.287 -0.2163 -0.0540  0.6646
   6923SM  C16F 9048   4.544   1.566   8.148  0.8704 -0.2681 -0.3601
   6923SM  H16F 9049   4.452   1.628   8.155  0.2947 -1.1532  0.1978
   6923SM  H16G 9050   4.528   1.487   8.072  1.1358 -0.8674  0.2021
   6923SM  C17F 9051   4.661   1.650   8.104  0.6040 -0.4806  0.2900
   6923SM  H17F 9052   4.748   1.583   8.088  1.3236  0.5974 -0.4701
   6923SM  H17G 9053   4.683   1.732   8.176  0.9973 -0.4446  0.1298
   6923SM  C18F 9054   4.635   1.727   7.973  0.0458  0.2867 -0.0187
   6923SM  H18F 9055   4.551   1.797   7.991  0.1341  0.3415  0.1836
   6923SM  H18G 9056   4.613   1.660   7.888  3.0549  2.7521 -3.0388
   6923SM  C19F 9057   4.759   1.800   7.922  0.2005  0.6939 -0.2093
   6923SM  H19F 9058   4.836   1.723   7.906 -0.1374  0.2703  0.1825
   6923SM  H19G 9059   4.793   1.871   8.001 -0.7994 -1.0240  1.8596
   6923SM  C20F 9060   4.727   1.862   7.792 -0.0194 -0.0348 -0.2432
   6923SM  H20F 9061   4.711   1.782   7.717  0.8431 -0.0931 -0.3796
   6923SM  H20G 9062   4.817   1.914   7.752  0.2801 -1.0754 -0.9531
   6923SM  C21F 9063   4.612   1.961   7.791 -0.0059  0.0853  0.0473
   6923SM  H21F 9064   4.622   2.039   7.868  1.7965  0.7345 -0.7705
   6923SM  H21G 9065   4.518   1.905   7.807  0.9463 -1.6753 -0.2173
   6923SM  C22F 9066   4.586   2.034   7.659  0.2909  0.2636 -0.3732
   6923SM  H22F 9067   4.497   2.093   7.689  2.4760  2.7270  1.6615
   6923SM  H22G 9068   4.551   1.955   7.588  0.0957 -0.1688  0.1857
   6923SM  C23F 9069   4.694   2.121   7.604 -0.6576 -0.2432  0.1293
   6923SM  H23F 9070   4.689   2.143   7.495 -2.4487  0.2480  0.2642
   6923SM  H23G 9071   4.797   2.085   7.622 -0.1158  1.7887  1.4580
   6923SM  H23H 9072   4.707   2.223   7.647  0.2235 -0.2504 -0.1167
   7023SM     N 9073   4.501   1.931  10.476  0.3837 -0.1421 -0.0436
   7023SM   C15 9074   4.497   2.081  10.473  0.2516 -0.3172 -0.9931
   7023SM  H15A 9075   4.578   2.127  10.418  1.9298 -0.6979  1.0590
   7023SM  H15B 9076   4.507   2.114  10.575  0.6228  1.1952 -1.4961
   7023SM  H15C 9077   4.400   2.114  10.439  0.5263  0.5275 -0.9914
   7023SM   C14 9078   4.646   1.889  10.488 -0.5259  0.2444 -0.8872
   7023SM  H14A 9079   4.657   1.785  10.458  1.4962  0.4583 -1.0049
   7023SM  H14B 9080   4.676   1.911  10.589  0.7515  0.8915 -1.3950
   7023SM  H14C 9081   4.713   1.950  10.429  0.6500 -1.3828 -1.2994
   7023SM   C13 9082   4.421   1.880  10.592 -0.1756 -0.2541 -0.2009
   7023SM  H13A 9083   4.320   1.919  10.580 -0.4362 -1.0662 -0.7180
   7023SM  H13B 9084   4.454   1.923  10.686 -2.5670  1.1596  0.1011
   7023SM  H13C 9085   4.431   1.773  10.599  0.8967 -0.1147  0.7797
   7023SM   C12 9086   4.448   1.889  10.339 -0.2266 -0.1393  0.1643
   7023SM  H12A 9087   4.432   1.782  10.335  0.0029 -0.2201  1.1995
   7023SM  H12B 9088   4.522   1.913  10.264 -0.1674 -1.0208 -0.0775
   7023SM   C11 9089   4.312   1.947  10.293 -0.1099 -0.0840 -0.0593
   7023SM  H11A 9090   4.298   2.057  10.291 -2.1086 -0.3168 -1.4487
   7023SM  H11B 9091   4.238   1.917  10.369  0.3199 -0.0778  0.3674
   7023SM     P 9092   4.274   1.970  10.029 -0.5327 -0.0769 -0.1620
   7023SM   O13 9093   4.173   2.077  10.035  0.1578 -0.1345 -0.0655
   7023SM   O14 9094   4.419   2.013  10.006 -0.9141 -0.0919  0.0212
   7023SM   O11 9095   4.234   1.875   9.917 -0.2341 -0.1698  0.2868
   7023SM   O12 9096   4.275   1.886  10.168  0.7266 -0.7766  0.6236
   7023SM   C1S 9097   4.098   1.832   9.916 -0.1604  0.0586  0.3339
   7023SM   H1S 9098   4.030   1.916   9.889 -2.6212 -2.4069 -1.7732
   7023SM   H1T 9099   4.051   1.777  10.000 -1.9489 -1.4402 -1.5360
   7023SM    NF 9100   3.953   1.694   9.761  0.7154  0.1331 -0.2818
   7023SM   HNF 9101   3.909   1.610   9.791  3.1626 -1.0490  0.1642
   7023SM   C2S 9102   4.093   1.725   9.803 -0.2935  0.3473  0.2604
   7023SM   H2S 9103   4.148   1.767   9.716  2.2156  2.3207  2.6407
   7023SM   C3S 9104   4.174   1.603   9.844 -0.3294  0.4223  0.0236
   7023SM   H3S 9105   4.121   1.556   9.930 -0.3215  0.2422 -0.0676
   7023SM    O3 9106   4.305   1.628   9.897 -0.1945 -0.1317  0.2345
   7023SM   HO3 9107   4.306   1.723   9.909  0.1716  0.1484 -1.8143
   7023SM   C4S 9108   4.179   1.514   9.724 -0.5429 -0.1130  0.0176
   7023SM   H4S 9109   4.090   1.453   9.702  0.4675 -1.9564  0.7437
   7023SM   C5S 9110   4.279   1.495   9.640  0.1508 -0.0556 -0.1057
   7023SM   H5S 9111   4.372   1.552   9.653  0.0336 -0.3088  2.3127
   7023SM   C6S 9112   4.263   1.395   9.527  0.0846  0.0919 -1.0322
   7023SM   H6S 9113   4.168   1.339   9.539  0.8228 -0.7330  1.7508
   7023SM   H6T 9114   4.350   1.326   9.533  1.9340  2.2785  5.0744
   7023SM   C7S 9115   4.269   1.457   9.385  1.3077  0.0880  0.0290
   7023SM   H7S 9116   4.368   1.506   9.374  1.0275  0.3507 -1.4987
   7023SM   H7T 9117   4.188   1.530   9.366  2.4600  1.3108 -0.3833
   7023SM   C8S 9118   4.268   1.348   9.277  0.5982 -0.7376  0.3699
   7023SM   H8S 9119   4.168   1.300   9.267  0.4126 -0.3628  0.3914
   7023SM   H8T 9120   4.347   1.274   9.300  1.8151 -0.1097 -1.5175
   7023SM   C9S 9121   4.299   1.415   9.141 -0.2878 -0.1328  0.4264
   7023SM   H9S 9122   4.403   1.455   9.142  0.3989 -1.8483  1.2335
   7023SM   H9T 9123   4.225   1.498   9.138  1.2645  1.3753  2.0265
   7023SM  C10S 9124   4.285   1.307   9.033  0.1463 -0.2766  0.1996
   7023SM  H10S 9125   4.189   1.252   9.041  0.5941 -0.8642  2.0348
   7023SM  H10T 9126   4.353   1.222   9.056 -1.3121 -1.6238 -0.2713
   7023SM  C11S 9127   4.297   1.350   8.892  0.2277 -0.6352  0.6624
   7023SM  H11S 9128   4.308   1.254   8.837 -0.4799  0.6120 -1.8356
   7023SM  H11T 9129   4.394   1.404   8.884 -0.0485 -0.1540  0.5458
   7023SM  C12S 9130   4.169   1.419   8.843  0.3306 -0.5439 -0.4760
   7023SM  H12S 9131   4.145   1.489   8.926  2.4874  0.3774 -0.5823
   7023SM  H12T 9132   4.090   1.341   8.839  0.0717 -0.4076  1.2195
   7023SM  C13S 9133   4.188   1.485   8.711 -0.2044 -0.0544  0.4103
   7023SM  H13S 9134   4.295   1.511   8.696  0.4450 -3.2178 -1.1999
   7023SM  H13T 9135   4.124   1.575   8.711 -1.6471 -1.0503  0.4097
   7023SM  C14S 9136   4.139   1.391   8.599  0.2147 -1.0358  0.0108
   7023SM  H14S 9137   4.034   1.356   8.612 -0.8607  1.9518  0.3676
   7023SM  H14T 9138   4.201   1.299   8.603 -0.0971 -1.3052 -0.9855
   7023SM  C15S 9139   4.151   1.456   8.459  0.7767 -0.2150  0.0125
   7023SM  H15S 9140   4.255   1.495   8.448 -0.2004  2.1755 -1.6483
   7023SM  H15T 9141   4.077   1.539   8.452  0.3463 -0.6032 -0.0511
   7023SM  C16S 9142   4.113   1.350   8.358 -0.6291  0.0034 -0.0935
   7023SM  H16S 9143   4.008   1.315   8.371 -0.3297 -0.7488  0.3489
   7023SM  H16T 9144   4.183   1.265   8.368 -0.8519 -0.2291 -0.5265
   7023SM  C17S 9145   4.118   1.415   8.217 -0.5453 -0.8876 -0.3757
   7023SM  H17S 9146   4.221   1.458   8.213 -1.1851  0.6288 -2.6379
   7023SM  H17T 9147   4.049   1.501   8.209  0.9565  0.4110  0.2406
   7023SM  C18S 9148   4.103   1.324   8.099 -0.4219  0.3459 -0.2009
   7023SM  H18S 9149   4.177   1.241   8.093 -1.8498 -0.9147 -0.9307
   7023SM  H18T 9150   4.103   1.380   8.003  1.8017 -1.9922 -1.6963
   7023SM  H18U 9151   4.005   1.274   8.112 -1.0237  1.4668 -0.3136
   7023SM   C1F 9152   3.880   1.791   9.694 -0.0833  0.0637  0.3729
   7023SM    OF 9153   3.940   1.891   9.661 -0.0397 -0.5006 -0.3847
   7023SM   C2F 9154   3.743   1.756   9.647 -0.0302  0.1926 -0.4478
   7023SM   H2F 9155   3.667   1.798   9.715  0.0462 -1.5917  0.8241
   7023SM   H2G 9156   3.729   1.646   9.637  0.9361 -0.1256  1.2643
   7023SM   C3F 9157   3.709   1.811   9.506 -0.4862 -0.3183  0.1893
   7023SM   H3F 9158   3.708   1.922   9.503 -0.0622 -0.3233 -3.0147
   7023SM   H3G 9159   3.603   1.792   9.479  0.0059 -0.3074 -1.8381
   7023SM   C4F 9160   3.811   1.766   9.394  0.0571 -1.0507  0.2150
   7023SM   H4F 9161   3.823   1.656   9.408 -0.7155 -1.0729  0.7725
   7023SM   H4G 9162   3.914   1.797   9.421  0.7031 -0.4099 -2.6788
   7023SM   C5F 9163   3.774   1.805   9.252  0.3537  0.4419 -0.1680
   7023SM   H5F 9164   3.789   1.915   9.257 -0.0716  0.4661  0.7082
   7023SM   H5G 9165   3.668   1.782   9.228  0.5190 -0.7474  0.1850
   7023SM   C6F 9166   3.856   1.731   9.145 -0.9012 -0.2953 -0.2732
   7023SM   H6F 9167   3.840   1.622   9.155 -4.9618 -0.3039 -3.9393
   7023SM   H6G 9168   3.965   1.742   9.161 -0.2375 -1.2145 -3.5162
   7023SM   C7F 9169   3.807   1.757   9.002  0.1266 -1.2933 -0.5768
   7023SM   H7F 9170   3.806   1.862   8.964  0.4723 -1.1926 -0.3079
   7023SM   H7G 9171   3.700   1.730   9.008 -0.1240  0.0053  3.3932
   7023SM   C8F 9172   3.872   1.664   8.896  0.1649 -0.0907  0.5136
   7023SM   H8F 9173   3.871   1.559   8.933  1.2834 -0.0309  0.7697
   7023SM   H8G 9174   3.974   1.706   8.886  0.1998 -0.2642  0.1483
   7023SM   C9F 9175   3.781   1.651   8.776  0.3232 -0.4032  0.0272
   7023SM   H9F 9176   3.801   1.734   8.704 -0.3215 -1.1176 -0.9999
   7023SM   H9G 9177   3.674   1.653   8.806 -0.0025  0.9186 -1.0994
   7023SM  C10F 9178   3.814   1.521   8.692  0.1878  0.0243  0.3945
   7023SM  H10F 9179   3.787   1.437   8.760  1.6481 -1.2753 -0.5610
   7023SM  H10G 9180   3.923   1.505   8.682 -0.0862 -1.0858 -1.0769
   7023SM  C11F 9181   3.754   1.505   8.556  0.1701  0.5982  0.3748
   7023SM  H11F 9182   3.811   1.564   8.481  2.2509  0.3107  1.6571
   7023SM  H11G 9183   3.656   1.556   8.548  0.6323  1.2944 -1.4113
   7023SM  C12F 9184   3.745   1.353   8.514  0.0442 -0.2119 -0.0259
   7023SM  H12F 9185   3.705   1.306   8.607  1.9465 -1.1907  0.3603
   7023SM  H12G 9186   3.847   1.316   8.487 -0.3323  0.1019 -1.9917
   7023SM  C13F 9187   3.655   1.317   8.399  0.6151 -0.0723  0.5389
   7023SM  H13F 9188   3.573   1.391   8.385  0.2897 -0.6775 -0.9227
   7023SM  H13G 9189   3.612   1.218   8.423  1.5625 -0.5532  0.3003
   7023SM  C14F 9190   3.714   1.302   8.262  0.2931 -0.9210 -0.2195
   7023SM  H14F 9191   3.813   1.253   8.276 -0.2547 -1.6238  1.4531
   7023SM  H14G 9192   3.743   1.404   8.230 -0.8506 -0.2250  0.8945
   7023SM  C15F 9193   3.626   1.229   8.162  0.3058  0.0921  0.0239
   7023SM  H15F 9194   3.534   1.284   8.133  0.1196 -0.1033  0.2408
   7023SM  H15G 9195   3.601   1.133   8.213  1.7340 -0.0997  0.4174
   7023SM  C16F 9196   3.692   1.202   8.026  0.3708  0.9730  0.2683
   7023SM  H16F 9197   3.761   1.114   8.029 -2.0960 -1.1162 -0.7065
   7023SM  H16G 9198   3.746   1.295   7.999 -0.1780  2.2311  3.1013
   7023SM  C17F 9199   3.583   1.162   7.920 -0.3288  0.1237 -0.2053
   7023SM  H17F 9200   3.497   1.232   7.931  1.0649  2.2277 -1.8929
   7023SM  H17G 9201   3.546   1.059   7.938  0.7376 -0.1376  0.6227
   7023SM  C18F 9202   3.632   1.160   7.773  0.4384 -0.6173 -0.1310
   7023SM  H18F 9203   3.706   1.077   7.763  0.3189 -0.6344 -0.9342
   7023SM  H18G 9204   3.677   1.256   7.740 -1.2578 -0.4060 -2.0076
   7023SM  C19F 9205   3.520   1.142   7.667 -1.1801  0.2959  0.2162
   7023SM  H19F 9206   3.566   1.154   7.566  1.3494  1.1885  1.3908
   7023SM  H19G 9207   3.452   1.229   7.678 -0.1506  0.8185  3.5410
   7023SM  C20F 9208   3.449   1.007   7.674 -0.1092 -0.5949  0.0801
   7023SM  H20F 9209   3.410   0.997   7.778 -2.3582 -1.0193 -0.7425
   7023SM  H20G 9210   3.510   0.915   7.661  1.1139  0.0564  0.9896
   7023SM  C21F 9211   3.328   1.003   7.581  0.1501 -0.4503 -0.3261
   7023SM  H21F 9212   3.355   1.011   7.473 -0.5804 -1.5300 -0.6059
   7023SM  H21G 9213   3.259   1.085   7.611 -2.9131 -2.5429 -1.2004
   7023SM  C22F 9214   3.248   0.873   7.592  0.6362  0.0534 -0.2970
   7023SM  H22F 9215   3.149   0.891   7.545  0.1474  2.5814  1.5232
   7023SM  H22G 9216   3.223   0.863   7.700 -1.6190 -0.1630 -0.7788
   7023SM  C23F 9217   3.326   0.750   7.547 -0.0499  0.2037 -0.5122
   7023SM  H23F 9218   3.383   0.757   7.452 -0.3651 -0.4369 -0.7565
   7023SM  H23G 9219   3.259   0.662   7.545 -0.4007  0.4361 -3.6223
   7023SM  H23H 9220   3.405   0.720   7.620 -0.2660  2.4240  0.7121
   7123SM     N 9221   3.643   6.651  10.361  0.3447 -0.1244 -0.4763
   7123SM   C15 9222   3.608   6.790  10.312 -0.7525  0.8049  0.1009
   7123SM  H15A 9223   3.502   6.809  10.300 -1.4014 -1.4693  1.4423
   7123SM  H15B 9224   3.660   6.810  10.220  2.7384 -0.1465  1.7171
   7123SM  H15C 9225   3.649   6.865  10.379 -0.2910  0.6960 -0.0576
   7123SM   C14 9226   3.575   6.641  10.490 -0.2220 -0.1593 -0.0137
   7123SM  H14A 9227   3.601   6.543  10.527 -0.5268 -0.0336  0.5358
   7123SM  H14B 9228   3.467   6.646  10.482 -0.1722  1.8712  0.1358
   7123SM  H14C 9229   3.612   6.720  10.553  1.7609  0.0834 -1.3799
   7123SM   C13 9230   3.599   6.544  10.269  0.0128 -0.2266  0.0655
   7123SM  H13A 9231   3.493   6.543  10.248  0.2260  0.9758 -1.2216
   7123SM  H13B 9232   3.628   6.448  10.310  2.5177  0.2578 -0.4118
   7123SM  H13C 9233   3.652   6.555  10.175 -0.7682  1.8070 -0.1903
   7123SM   C12 9234   3.796   6.648  10.370 -0.6785  0.3208  0.0274
   7123SM  H12A 9235   3.846   6.639  10.274 -0.2416  1.1769  0.1580
   7123SM  H12B 9236   3.831   6.560  10.421  1.3438  0.1511 -1.4952
   7123SM   C11 9237   3.871   6.758  10.449  0.5036 -0.2368 -0.7899
   7123SM  H11A 9238   3.976   6.721  10.455  0.3748 -0.3765  1.5207
   7123SM  H11B 9239   3.829   6.755  10.552 -0.2551  0.8990 -1.0467
   7123SM     P 9240   3.988   6.968  10.356  0.3230 -0.0996 -0.3527
   7123SM   O13 9241   3.958   7.111  10.334  0.1037 -0.4021 -0.7140
   7123SM   O14 9242   4.087   6.948  10.459 -0.2472  0.0039 -0.1373
   7123SM   O11 9243   4.021   6.892  10.224 -0.2563 -0.5633  0.1203
   7123SM   O12 9244   3.853   6.894  10.404 -0.4173 -0.1961 -0.5144
   7123SM   C1S 9245   3.946   6.944  10.114 -0.5768 -0.4095 -0.1289
   7123SM   H1S 9246   3.967   7.052  10.102  1.6498 -0.9359 -1.6708
   7123SM   H1T 9247   3.838   6.923  10.122 -0.5862 -0.3362 -0.0667
   7123SM    NF 9248   3.963   6.970   9.861  0.1611 -0.0692 -0.3233
   7123SM   HNF 9249   3.883   6.931   9.816  1.1286 -0.9229 -1.3946
   7123SM   C2S 9250   4.007   6.893   9.975  0.9047 -0.0148 -0.0924
   7123SM   H2S 9251   4.117   6.894   9.988  0.9746 -2.2834 -0.0606
   7123SM   C3S 9252   3.972   6.746   9.961 -0.6463 -0.7051  0.0137
   7123SM   H3S 9253   3.862   6.743   9.952 -0.9145  2.8558  0.7540
   7123SM    O3 9254   3.999   6.661  10.073 -0.3080 -0.2239  0.2637
   7123SM   HO3 9255   4.019   6.724  10.142  2.7342 -0.5284 -0.2221
   7123SM   C4S 9256   4.048   6.683   9.849 -0.6460 -0.1067 -0.2523
   7123SM   H4S 9257   4.155   6.708   9.860 -0.6343 -0.0982 -0.3862
   7123SM   C5S 9258   3.994   6.603   9.754 -0.4346 -0.0632 -0.2566
   7123SM   H5S 9259   3.887   6.579   9.767 -0.5133 -0.2220 -1.1196
   7123SM   C6S 9260   4.069   6.549   9.634 -0.6013  0.6230  0.0310
   7123SM   H6S 9261   4.038   6.444   9.620  0.8477  0.3571 -1.5868
   7123SM   H6T 9262   4.179   6.561   9.646 -0.3247 -0.2833 -1.3733
   7123SM   C7S 9263   4.049   6.616   9.498 -0.1504  0.5928 -0.1004
   7123SM   H7S 9264   4.047   6.727   9.511 -0.1371  0.5271  0.5213
   7123SM   H7T 9265   3.946   6.596   9.461  0.0970  0.6116 -0.7935
   7123SM   C8S 9266   4.155   6.571   9.390  0.3581  1.0219 -0.2819
   7123SM   H8S 9267   4.148   6.460   9.380  2.5206  0.6273  1.7176
   7123SM   H8T 9268   4.262   6.590   9.412  0.3891  0.3794  0.1389
   7123SM   C9S 9269   4.127   6.645   9.265 -0.3262  0.7308 -0.6930
   7123SM   H9S 9270   4.130   6.756   9.277 -0.2956  0.5353  1.2958
   7123SM   H9T 9271   4.025   6.625   9.225  0.5671 -1.3936 -2.0433
   7123SM  C10S 9272   4.210   6.591   9.146 -0.4804  0.0647 -0.4222
   7123SM  H10S 9273   4.201   6.480   9.148  1.5428 -0.1822  3.0475
   7123SM  H10T 9274   4.318   6.610   9.164 -0.9532  0.1536  2.9326
   7123SM  C11S 9275   4.158   6.650   9.016 -0.1599  0.1653  0.1936
   7123SM  H11S 9276   4.179   6.758   9.001 -2.2352  0.4333 -1.0580
   7123SM  H11T 9277   4.047   6.645   9.016 -0.1128 -1.0803  0.1723
   7123SM  C12S 9278   4.210   6.570   8.891  0.7073 -0.0284 -0.1838
   7123SM  H12S 9279   4.143   6.490   8.853 -1.5614  1.9134 -0.5671
   7123SM  H12T 9280   4.296   6.512   8.929  1.7776  0.5219 -1.6938
   7123SM  C13S 9281   4.244   6.665   8.780  0.0293  0.6038  0.3707
   7123SM  H13S 9282   4.318   6.746   8.796  1.3483 -0.1769 -1.4754
   7123SM  H13T 9283   4.155   6.722   8.748  0.4662  0.4473 -1.1797
   7123SM  C14S 9284   4.305   6.594   8.650 -0.3799  0.7023  0.6679
   7123SM  H14S 9285   4.242   6.510   8.613  0.2518  1.2227 -1.7686
   7123SM  H14T 9286   4.402   6.553   8.683  1.5666  3.7017 -0.9079
   7123SM  C15S 9287   4.300   6.698   8.536 -0.3184  0.1718  0.8156
   7123SM  H15S 9288   4.343   6.789   8.583 -0.4645 -0.2628  1.8273
   7123SM  H15T 9289   4.193   6.722   8.516  0.1756  0.6572 -1.5495
   7123SM  C16S 9290   4.353   6.648   8.406  0.5003  0.9608  0.8737
   7123SM  H16S 9291   4.342   6.729   8.331  0.7635  0.9666  0.8405
   7123SM  H16T 9292   4.304   6.554   8.373  1.2007  0.8528  0.0816
   7123SM  C17S 9293   4.501   6.606   8.411  0.3588 -0.2759 -0.2855
   7123SM  H17S 9294   4.513   6.509   8.464  0.5578 -0.0337  0.1270
   7123SM  H17T 9295   4.565   6.681   8.462 -0.4804 -0.6612  1.4353
   7123SM  C18S 9296   4.566   6.590   8.269  0.2682  0.3738 -0.2283
   7123SM  H18S 9297   4.551   6.679   8.205  1.1584  1.2817  0.7707
   7123SM  H18T 9298   4.520   6.500   8.224  0.5900  1.0340 -1.9341
   7123SM  H18U 9299   4.673   6.566   8.284  0.1772 -1.1918 -1.8269
   7123SM   C1F 9300   3.998   7.100   9.845 -0.4628  0.3709  0.0829
   7123SM    OF 9301   4.115   7.125   9.885 -0.2133  0.4915 -0.1212
   7123SM   C2F 9302   3.905   7.210   9.799  0.0895 -0.4130 -0.8226
   7123SM   H2F 9303   3.938   7.293   9.866 -0.7744 -2.0036  1.7189
   7123SM   H2G 9304   3.804   7.180   9.833  0.7078  0.8299  2.5475
   7123SM   C3F 9305   3.919   7.245   9.652 -0.2965 -0.3605 -0.2648
   7123SM   H3F 9306   4.025   7.275   9.637 -0.5474  0.9051  0.4181
   7123SM   H3G 9307   3.857   7.335   9.633  3.0134  1.9394 -0.9111
   7123SM   C4F 9308   3.880   7.118   9.559  0.6730 -0.5003  0.0528
   7123SM   H4F 9309   3.777   7.079   9.572 -0.6045  1.9097 -1.9736
   7123SM   H4G 9310   3.950   7.034   9.581  0.5144 -0.5044  0.5468
   7123SM   C5F 9311   3.916   7.160   9.421 -0.2023  0.0241  0.0403
   7123SM   H5F 9312   4.024   7.185   9.418 -0.4467  1.9553  3.1633
   7123SM   H5G 9313   3.856   7.247   9.386 -1.7164 -1.2928 -0.7250
   7123SM   C6F 9314   3.889   7.046   9.321 -0.2422  0.7151 -0.4877
   7123SM   H6F 9315   3.779   7.032   9.309 -0.1848  0.0530 -0.3043
   7123SM   H6G 9316   3.924   6.950   9.364 -0.6618  0.1677 -1.3486
   7123SM   C7F 9317   3.957   7.067   9.184  0.4446 -0.5079 -0.5410
   7123SM   H7F 9318   4.064   7.090   9.200  0.5697 -1.7997  0.7822
   7123SM   H7G 9319   3.906   7.153   9.136 -0.1249 -0.2356  0.5068
   7123SM   C8F 9320   3.939   6.959   9.081 -0.4581  0.1804 -0.1076
   7123SM   H8F 9321   4.001   6.870   9.103  0.1509  0.5686 -0.2264
   7123SM   H8G 9322   3.984   7.009   8.992 -1.4522  2.8997  0.8099
   7123SM   C9F 9323   3.793   6.920   9.045 -0.4655 -0.2323  0.3829
   7123SM   H9F 9324   3.751   7.002   8.983 -1.7936 -1.6761 -0.7166
   7123SM   H9G 9325   3.734   6.905   9.138  1.0228  2.1372  1.8059
   7123SM  C10F 9326   3.778   6.793   8.954 -0.5023  0.2242  0.0501
   7123SM  H10F 9327   3.675   6.758   8.977 -0.1544  0.0283  1.3857
   7123SM  H10G 9328   3.846   6.713   8.989 -0.7572  0.5107  1.2173
   7123SM  C11F 9329   3.789   6.821   8.803  0.2438  0.1964  1.5018
   7123SM  H11F 9330   3.873   6.891   8.781  0.7086 -0.3608  1.4839
   7123SM  H11G 9331   3.691   6.867   8.779  0.6451  0.0319 -0.6515
   7123SM  C12F 9332   3.824   6.694   8.723  0.0989  0.7766  0.2882
   7123SM  H12F 9333   3.760   6.619   8.774  0.3577  1.3572  1.4941
   7123SM  H12G 9334   3.930   6.671   8.744  0.1182 -0.8493 -1.3381
   7123SM  C13F 9335   3.817   6.699   8.570  0.2032  0.7042 -0.0285
   7123SM  H13F 9336   3.716   6.697   8.523  1.6991 -2.1701 -3.6180
   7123SM  H13G 9337   3.855   6.601   8.534 -1.9555  0.1529 -0.9481
   7123SM  C14F 9338   3.882   6.810   8.492 -0.9612  0.3491  0.2098
   7123SM  H14F 9339   3.982   6.830   8.538  1.0743 -1.1695 -3.1622
   7123SM  H14G 9340   3.831   6.909   8.492 -1.0471  0.3125 -1.0177
   7123SM  C15F 9341   3.898   6.785   8.342 -0.8451 -0.1437  0.3297
   7123SM  H15F 9342   3.803   6.751   8.296 -0.7907  1.2571 -0.9126
   7123SM  H15G 9343   3.981   6.713   8.327  1.7948  2.8602 -0.4599
   7123SM  C16F 9344   3.958   6.907   8.275  0.8780 -0.7159  0.0416
   7123SM  H16F 9345   4.051   6.940   8.327  0.1739 -1.1639  1.6249
   7123SM  H16G 9346   3.888   6.993   8.288  2.8303  1.1833 -1.1956
   7123SM  C17F 9347   3.993   6.899   8.120 -0.2206 -0.1214  0.4706
   7123SM  H17F 9348   4.040   6.998   8.107 -0.2104 -0.3255 -1.2017
   7123SM  H17G 9349   3.913   6.903   8.043  2.0578 -0.2192 -2.0175
   7123SM  C18F 9350   4.104   6.796   8.083  0.2480  0.9884 -0.3160
   7123SM  H18F 9351   4.055   6.697   8.079 -0.3778  1.2835 -0.2251
   7123SM  H18G 9352   4.174   6.782   8.168 -2.3831 -1.9435  1.6108
   7123SM  C19F 9353   4.183   6.818   7.958  0.5052 -0.0385  0.5082
   7123SM  H19F 9354   4.126   6.871   7.879  0.7864 -2.9553 -1.8500
   7123SM  H19G 9355   4.217   6.722   7.913  0.5446  0.4038 -0.4293
   7123SM  C20F 9356   4.297   6.913   7.990 -0.3664  0.2964  0.4414
   7123SM  H20F 9357   4.344   6.892   8.089  0.3083  3.2156  0.8507
   7123SM  H20G 9358   4.258   7.017   7.978 -0.1064  0.3794  0.3058
   7123SM  C21F 9359   4.411   6.903   7.882  0.1275 -0.6352 -0.9591
   7123SM  H21F 9360   4.357   6.910   7.786  1.4961 -0.6169 -1.7448
   7123SM  H21G 9361   4.459   6.803   7.888  0.9169 -0.1951  2.9354
   7123SM  C22F 9362   4.518   7.016   7.891  0.1252 -0.2571  0.1419
   7123SM  H22F 9363   4.474   7.116   7.875 -0.4631 -0.3451  1.1281
   7123SM  H22G 9364   4.588   6.993   7.808  1.1386  1.0712  0.6065
   7123SM  C23F 9365   4.593   7.022   8.029  0.5016 -0.2088  0.2264
   7123SM  H23F 9366   4.635   6.924   8.059  0.0128 -1.4298 -2.7128
   7123SM  H23G 9367   4.515   7.058   8.100 -1.8516 -2.2676 -1.1600
   7123SM  H23H 9368   4.673   7.099   8.021 -2.1784  2.6845 -1.4439
   7223SM     N 9369   6.056   2.309  10.276  0.3278  0.4071  0.5855
   7223SM   C15 9370   6.090   2.190  10.362  0.3571 -0.2546 -0.3488
   7223SM  H15A 9371   6.051   2.208  10.461 -0.9091  1.9680 -1.1799
   7223SM  H15B 9372   6.197   2.182  10.378  0.2654  0.3131  0.6437
   7223SM  H15C 9373   6.054   2.095  10.324 -0.9372  0.2907 -0.5358
   7223SM   C14 9374   6.124   2.286  10.144  0.1182  0.5684  0.8851
   7223SM  H14A 9375   6.101   2.191  10.100  0.0320  0.1023  1.8972
   7223SM  H14B 9376   6.232   2.289  10.156  0.1962 -0.6731  0.6166
   7223SM  H14C 9377   6.086   2.360  10.075 -1.3801 -0.0363  1.0238
   7223SM   C13 9378   5.910   2.302  10.259  0.5216  0.1358 -0.0923
   7223SM  H13A 9379   5.850   2.310  10.349 -2.1839  0.9924 -1.8416
   7223SM  H13B 9380   5.889   2.207  10.212 -0.8292  0.3088  0.1228
   7223SM  H13C 9381   5.860   2.377  10.198 -1.4677 -0.4318  0.7589
   7223SM   C12 9382   6.099   2.441  10.327 -0.3992 -0.8823  0.0345
   7223SM  H12A 9383   6.205   2.447  10.345 -0.6239 -0.7741  1.4218
   7223SM  H12B 9384   6.058   2.453  10.426  0.6343  0.8487  0.2890
   7223SM   C11 9385   6.049   2.560  10.248 -0.4135 -0.5742 -0.5038
   7223SM  H11A 9386   6.059   2.557  10.137 -0.8425  2.7438 -0.7428
   7223SM  H11B 9387   6.092   2.659  10.272 -1.3971  0.6297 -3.2234
   7223SM     P 9388   5.828   2.687  10.205 -0.0389  0.0283  0.2483
   7223SM   O13 9389   5.688   2.663  10.252 -0.5901  0.1275 -0.1593
   7223SM   O14 9390   5.889   2.820  10.227 -0.2511  0.0956  0.4353
   7223SM   O11 9391   5.850   2.631  10.057 -0.4610 -0.9716  0.5470
   7223SM   O12 9392   5.916   2.584  10.288 -0.2632 -0.1177  0.3410
   7223SM   C1S 9393   5.775   2.522   9.999 -0.0203 -0.1824 -0.5211
   7223SM   H1S 9394   5.665   2.528  10.014 -0.2960 -0.4919 -2.1690
   7223SM   H1T 9395   5.811   2.426  10.041  2.2842  0.2024 -1.4702
   7223SM    NF 9396   5.702   2.478   9.769  0.3951  0.0442  0.1441
   7223SM   HNF 9397   5.703   2.385   9.731 -3.9762 -1.1263  2.2099
   7223SM   C2S 9398   5.805   2.524   9.846 -0.2673  0.3584 -0.5255
   7223SM   H2S 9399   5.831   2.628   9.820  0.2581  0.7109  1.2856
   7223SM   C3S 9400   5.944   2.454   9.816  0.3270 -0.2266  0.3198
   7223SM   H3S 9401   5.920   2.349   9.842 -2.2725  0.1097 -0.4297
   7223SM    O3 9402   6.045   2.500   9.905 -0.0643  0.2364 -0.6175
   7223SM   HO3 9403   5.989   2.549   9.966  0.2071  0.1438 -0.2900
   7223SM   C4S 9404   5.987   2.462   9.670  0.4325  0.1213 -0.0297
   7223SM   H4S 9405   5.932   2.398   9.600  0.4513  1.0825 -0.9502
   7223SM   C5S 9406   6.072   2.549   9.622  0.0874 -0.2511  0.3381
   7223SM   H5S 9407   6.108   2.631   9.686 -2.1484  1.6707 -0.7298
   7223SM   C6S 9408   6.121   2.555   9.479 -0.1402 -0.2983  0.8017
   7223SM   H6S 9409   6.231   2.564   9.467 -0.0066 -1.1569  1.2964
   7223SM   H6T 9410   6.098   2.651   9.430  1.7112 -0.7193 -1.0339
   7223SM   C7S 9411   6.069   2.452   9.375 -0.3932  0.8357  0.7096
   7223SM   H7S 9412   5.958   2.461   9.370 -0.3829  0.4869 -0.3129
   7223SM   H7T 9413   6.098   2.355   9.419 -2.2603 -0.1471 -0.1170
   7223SM   C8S 9414   6.138   2.452   9.237 -0.2486 -0.0505 -0.4430
   7223SM   H8S 9415   6.233   2.394   9.247  0.8253  1.4370 -1.5639
   7223SM   H8T 9416   6.170   2.553   9.204 -2.0859  0.7455  0.0834
   7223SM   C9S 9417   6.038   2.394   9.137  1.0170 -0.9515 -0.3747
   7223SM   H9S 9418   5.954   2.467   9.134  0.4883 -1.5264  0.1017
   7223SM   H9T 9419   5.999   2.296   9.173  0.3957 -0.0040  1.6839
   7223SM  C10S 9420   6.106   2.377   9.006  0.4693 -0.4963  0.3003
   7223SM  H10S 9421   6.188   2.303   9.019  3.1673  2.4721  1.4886
   7223SM  H10T 9422   6.161   2.469   8.977 -0.7161  0.7941  1.9541
   7223SM  C11S 9423   6.011   2.337   8.892  0.1192  0.0860 -0.3405
   7223SM  H11S 9424   5.959   2.430   8.863  1.0630  1.1520  1.2067
   7223SM  H11T 9425   5.939   2.256   8.915  2.3123 -1.2830  2.3491
   7223SM  C12S 9426   6.083   2.294   8.766  0.2451  0.2296  0.2669
   7223SM  H12S 9427   6.131   2.196   8.784 -1.6910 -1.4416 -2.7740
   7223SM  H12T 9428   6.160   2.367   8.733  0.7196  0.6006  2.0738
   7223SM  C13S 9429   5.991   2.282   8.641 -0.5555  0.5698 -0.0925
   7223SM  H13S 9430   5.926   2.372   8.645 -0.5241  0.6840 -1.6519
   7223SM  H13T 9431   5.927   2.193   8.657  3.7682 -2.9853 -0.3962
   7223SM  C14S 9432   6.059   2.252   8.506 -0.2528 -0.2931 -0.0250
   7223SM  H14S 9433   6.095   2.147   8.493  1.5735  0.2749  0.2024
   7223SM  H14T 9434   6.143   2.324   8.494 -0.1728 -0.4663 -0.5468
   7223SM  C15S 9435   5.957   2.258   8.393 -0.4131 -0.6306 -0.0404
   7223SM  H15S 9436   5.929   2.365   8.387  1.6045  0.0154  1.0300
   7223SM  H15T 9437   5.858   2.213   8.416 -0.6840  0.3211  0.7054
   7223SM  C16S 9438   6.019   2.197   8.262 -0.4336 -0.2469 -0.0482
   7223SM  H16S 9439   6.049   2.091   8.281  3.0194  0.7843  1.1086
   7223SM  H16T 9440   6.117   2.244   8.238  0.0746 -1.1486  0.1957
   7223SM  C17S 9441   5.911   2.197   8.157  0.6127 -0.0965 -0.4086
   7223SM  H17S 9442   5.858   2.294   8.157 -1.1738 -1.0239 -1.1910
   7223SM  H17T 9443   5.827   2.127   8.176 -0.3668  1.4165  1.1129
   7223SM  C18S 9444   5.969   2.172   8.020  0.0656 -0.2907 -0.0540
   7223SM  H18S 9445   5.892   2.160   7.940 -0.3254  1.2448  0.0703
   7223SM  H18T 9446   6.022   2.074   8.018  0.6788  0.0363  0.1987
   7223SM  H18U 9447   6.039   2.253   7.991  1.3121 -1.2333  0.2823
   7223SM   C1F 9448   5.594   2.553   9.768 -1.0100  0.3639 -0.4304
   7223SM    OF 9449   5.596   2.674   9.790  0.0990 -0.4809 -1.4536
   7223SM   C2F 9450   5.464   2.490   9.732 -0.4449  0.2776 -0.1117
   7223SM   H2F 9451   5.412   2.467   9.827  0.6337  1.8951  0.9254
   7223SM   H2G 9452   5.491   2.397   9.677  1.0338  0.5234  0.1428
   7223SM   C3F 9453   5.389   2.577   9.634 -0.0302  0.3294  0.3879
   7223SM   H3F 9454   5.370   2.678   9.676 -0.7265 -0.0499  0.9931
   7223SM   H3G 9455   5.285   2.544   9.615 -0.2372  1.7803 -1.2860
   7223SM   C4F 9456   5.466   2.606   9.502  0.1952  0.3350 -0.0250
   7223SM   H4F 9457   5.553   2.671   9.525 -0.5707  1.5659 -0.5124
   7223SM   H4G 9458   5.406   2.675   9.440 -0.2428  1.2647  1.3854
   7223SM   C5F 9459   5.495   2.485   9.423  0.3773 -0.5633 -0.0934
   7223SM   H5F 9460   5.401   2.427   9.410  0.7820 -1.7244  1.7819
   7223SM   H5G 9461   5.567   2.415   9.472 -1.8503 -0.8827  2.9730
   7223SM   C6F 9462   5.557   2.515   9.288  0.2962 -0.0170  0.6498
   7223SM   H6F 9463   5.656   2.565   9.287 -0.6675  2.0288 -1.2689
   7223SM   H6G 9464   5.488   2.572   9.222 -0.0284  0.9267  1.7769
   7223SM   C7F 9465   5.574   2.391   9.200 -0.8144  0.1911  0.0859
   7223SM   H7F 9466   5.473   2.348   9.180 -1.8632  2.1422  0.8970
   7223SM   H7G 9467   5.633   2.310   9.249 -1.6680  0.1604  1.0976
   7223SM   C8F 9468   5.630   2.432   9.059  0.0327  0.4870  0.4803
   7223SM   H8F 9469   5.736   2.460   9.075  0.9099 -1.8543 -0.8453
   7223SM   H8G 9470   5.559   2.513   9.029  0.0911  0.2372 -0.3472
   7223SM   C9F 9471   5.616   2.315   8.960  0.0133  0.3374 -0.1682
   7223SM   H9F 9472   5.514   2.271   8.963  0.6137 -1.0655  2.3334
   7223SM   H9G 9473   5.694   2.237   8.965  0.6827  1.0221  0.3910
   7223SM  C10F 9474   5.638   2.379   8.816  0.4248  0.5776  0.0753
   7223SM  H10F 9475   5.745   2.408   8.821  0.4633  0.9485 -2.0627
   7223SM  H10G 9476   5.572   2.468   8.824 -0.9997 -0.4844  0.7573
   7223SM  C11F 9477   5.603   2.281   8.706 -0.3331 -0.0382 -0.2174
   7223SM  H11F 9478   5.509   2.228   8.734 -1.1938  2.7071  2.8009
   7223SM  H11G 9479   5.678   2.199   8.717 -0.7841 -0.5385 -0.8377
   7223SM  C12F 9480   5.595   2.338   8.568 -0.0690  0.4758  0.0540
   7223SM  H12F 9481   5.698   2.354   8.530  0.2109 -0.0192  0.5971
   7223SM  H12G 9482   5.542   2.436   8.569  3.8443  2.8047  0.3891
   7223SM  C13F 9483   5.533   2.240   8.468 -0.7040  0.1557  0.2906
   7223SM  H13F 9484   5.433   2.202   8.497 -0.4711 -2.6108 -2.0503
   7223SM  H13G 9485   5.591   2.145   8.460 -0.7919 -0.2040  2.9891
   7223SM  C14F 9486   5.507   2.299   8.333 -0.7235 -0.6246  0.8066
   7223SM  H14F 9487   5.600   2.310   8.272 -1.4731 -2.9841 -0.8928
   7223SM  H14G 9488   5.447   2.393   8.341 -0.4823 -0.4988  1.1607
   7223SM  C15F 9489   5.410   2.213   8.251 -0.5046  0.4631  0.1949
   7223SM  H15F 9490   5.315   2.206   8.307  0.6991 -2.0655  2.1426
   7223SM  H15G 9491   5.446   2.108   8.248 -1.7043  0.0428 -0.4479
   7223SM  C16F 9492   5.385   2.268   8.109 -0.1845  0.0749  0.1483
   7223SM  H16F 9493   5.362   2.376   8.118  0.3304  0.2600 -0.6207
   7223SM  H16G 9494   5.295   2.221   8.065 -1.2398  1.2132  1.0029
   7223SM  C17F 9495   5.504   2.238   8.012 -0.3522  0.1195  0.3277
   7223SM  H17F 9496   5.501   2.128   7.996 -0.1863  0.1795 -0.1273
   7223SM  H17G 9497   5.605   2.263   8.050  0.2759  1.7775 -2.2001
   7223SM  C18F 9498   5.490   2.311   7.883 -0.4828  0.1132 -0.1342
   7223SM  H18F 9499   5.564   2.270   7.810  0.0851 -1.9292  1.4816
   7223SM  H18G 9500   5.516   2.417   7.901  1.6169 -0.5932  1.5475
   7223SM  C19F 9501   5.351   2.333   7.812  0.6246  0.1035 -0.6014
   7223SM  H19F 9502   5.362   2.394   7.720  0.7568  0.4445 -0.3618
   7223SM  H19G 9503   5.288   2.394   7.880  1.1233 -0.4947  0.4146
   7223SM  C20F 9504   5.274   2.215   7.752 -0.1875 -0.0256  0.5891
   7223SM  H20F 9505   5.276   2.123   7.815 -1.7588  0.0809  0.8452
   7223SM  H20G 9506   5.331   2.192   7.660  2.1687  2.6053  1.2567
   7223SM  C21F 9507   5.133   2.255   7.713  0.0253  0.9394  0.4896
   7223SM  H21F 9508   5.098   2.193   7.628 -0.5599  1.3105  0.4569
   7223SM  H21G 9509   5.129   2.353   7.661 -1.9116  0.4571 -0.3682
   7223SM  C22F 9510   5.025   2.266   7.823 -0.0582  0.5999 -0.1252
   7223SM  H22F 9511   4.933   2.303   7.772  1.6733  1.2975 -2.9845
   7223SM  H22G 9512   5.052   2.346   7.895  0.4610 -0.9189  1.4367
   7223SM  C23F 9513   4.995   2.135   7.893 -0.1376 -0.1220  0.4123
   7223SM  H23F 9514   5.049   2.129   7.990 -0.6887 -0.7789  0.6780
   7223SM  H23G 9515   5.031   2.052   7.828  1.0826  0.7670 -0.1012
   7223SM  H23H 9516   4.887   2.127   7.917 -0.1650  1.4102  0.9343
   7323SM     N 9517   4.017   1.044  10.758  0.1829 -0.3068 -0.0467
   7323SM   C15 9518   4.155   1.002  10.717  0.5278 -0.5285  0.0742
   7323SM  H15A 9519   4.239   1.067  10.738  1.2849 -1.5084  0.1422
   7323SM  H15B 9520   4.165   1.000  10.609 -1.1664  2.3793 -0.2461
   7323SM  H15C 9521   4.184   0.906  10.756  1.9916 -1.0061 -1.9996
   7323SM   C14 9522   3.912   0.944  10.716 -0.1728  0.2286  0.0362
   7323SM  H14A 9523   3.895   0.940  10.610  1.5655  0.0547 -0.2668
   7323SM  H14B 9524   3.825   0.969  10.775 -0.0119  2.5989 -0.5989
   7323SM  H14C 9525   3.946   0.847  10.749 -0.5717 -0.4340 -1.4473
   7323SM   C13 9526   4.018   1.056  10.903 -0.1395 -0.0911  0.1160
   7323SM  H13A 9527   4.070   1.146  10.933 -0.2201 -0.1217  0.3437
   7323SM  H13B 9528   4.072   0.976  10.951 -1.5683 -0.8032  0.6124
   7323SM  H13C 9529   3.916   1.059  10.938 -0.7304 -1.5612 -1.3040
   7323SM   C12 9530   3.989   1.173  10.674 -0.5484  0.0662  0.1060
   7323SM  H12A 9531   4.040   1.157  10.581  0.2355  1.5560  0.2523
   7323SM  H12B 9532   4.032   1.256  10.728 -2.0752 -0.1249  1.6911
   7323SM   C11 9533   3.843   1.217  10.645  0.1015 -0.2281  0.0106
   7323SM  H11A 9534   3.799   1.272  10.730  2.6022  0.5339  0.8927
   7323SM  H11B 9535   3.772   1.135  10.620 -2.4272  1.9855 -0.5145
   7323SM     P 9536   3.765   1.274  10.408  0.2455 -0.1349 -0.0267
   7323SM   O13 9537   3.765   1.125  10.380 -0.5427 -0.2353  0.0150
   7323SM   O14 9538   3.634   1.336  10.409  0.5185 -0.5488  0.3567
   7323SM   O11 9539   3.849   1.347  10.302  0.1544  0.0390  0.0324
   7323SM   O12 9540   3.849   1.308  10.530  0.1987 -0.5993 -0.5356
   7323SM   C1S 9541   3.842   1.328  10.159 -0.1495  0.5857  0.0665
   7323SM   H1S 9542   3.784   1.417  10.125  0.1883  0.8348  0.1455
   7323SM   H1T 9543   3.785   1.236  10.132 -0.4871  0.6983  0.3788
   7323SM    NF 9544   3.935   1.272   9.944 -0.7011 -0.0927  0.0376
   7323SM   HNF 9545   3.948   1.177   9.917  0.4903 -0.0581  0.4196
   7323SM   C2S 9546   3.976   1.318  10.075 -0.3168  0.0162 -0.3934
   7323SM   H2S 9547   4.019   1.418  10.053  1.2568 -0.7829 -1.1348
   7323SM   C3S 9548   4.086   1.231  10.150 -0.0979 -0.2099  0.0118
   7323SM   H3S 9549   4.043   1.129  10.160 -0.1973 -0.1479  0.2051
   7323SM    O3 9550   4.122   1.262  10.278 -0.2484  0.1581 -0.0936
   7323SM   HO3 9551   4.040   1.292  10.317  0.0463  2.6856 -1.1853
   7323SM   C4S 9552   4.196   1.217  10.048 -0.3888 -0.2341  0.0523
   7323SM   H4S 9553   4.200   1.134   9.975 -1.1614  0.8038 -1.2295
   7323SM   C5S 9554   4.301   1.304  10.041  0.1636 -0.5157  0.5616
   7323SM   H5S 9555   4.311   1.390  10.109  0.1804 -0.5265  0.5723
   7323SM   C6S 9556   4.416   1.296   9.946  0.0709  0.5345  0.1249
   7323SM   H6S 9557   4.492   1.366   9.987 -0.7653  1.9803 -0.7277
   7323SM   H6T 9558   4.392   1.345   9.849 -1.6042 -0.6518 -0.1062
   7323SM   C7S 9559   4.475   1.151   9.931 -0.5980 -0.5351 -0.3600
   7323SM   H7S 9560   4.402   1.082   9.883 -1.0929 -0.2180 -0.0781
   7323SM   H7T 9561   4.503   1.102  10.027 -1.0644 -0.6473 -0.2776
   7323SM   C8S 9562   4.598   1.136   9.846  0.3505 -0.8496  0.0530
   7323SM   H8S 9563   4.639   1.034   9.832 -0.2595 -1.2381  1.0339
   7323SM   H8T 9564   4.680   1.199   9.888 -0.4200 -0.3392  0.8423
   7323SM   C9S 9565   4.568   1.204   9.712  0.0448 -0.0328  0.0581
   7323SM   H9S 9566   4.536   1.310   9.716  1.7375  0.6491 -2.4406
   7323SM   H9T 9567   4.471   1.162   9.680  0.2166 -0.4946  0.1413
   7323SM  C10S 9568   4.696   1.199   9.615 -0.3081  0.3202 -0.2426
   7323SM  H10S 9569   4.736   1.095   9.619  0.0459  0.4052 -1.2646
   7323SM  H10T 9570   4.775   1.269   9.649  0.8118  0.5223 -2.9423
   7323SM  C11S 9571   4.669   1.231   9.469 -0.7540  0.5146  0.2950
   7323SM  H11S 9572   4.668   1.341   9.450 -0.8351  0.9241  2.3995
   7323SM  H11T 9573   4.568   1.189   9.447 -0.4513 -0.3219  0.4568
   7323SM  C12S 9574   4.766   1.157   9.374 -0.4402  0.4048  0.0508
   7323SM  H12S 9575   4.763   1.049   9.399 -2.1995  0.4460  0.1960
   7323SM  H12T 9576   4.870   1.187   9.396  0.1194 -0.5752 -1.1549
   7323SM  C13S 9577   4.720   1.178   9.230 -0.5127  0.1970 -0.2796
   7323SM  H13S 9578   4.711   1.288   9.215  1.4824  0.7968  2.1649
   7323SM  H13T 9579   4.623   1.127   9.211  0.3063 -1.5142 -0.0144
   7323SM  C14S 9580   4.829   1.150   9.132 -0.0440  0.6032  0.5793
   7323SM  H14S 9581   4.850   1.041   9.134 -0.6283  0.4155 -1.1544
   7323SM  H14T 9582   4.924   1.191   9.172 -0.8341  2.3393  0.7500
   7323SM  C15S 9583   4.805   1.205   8.994  0.2103  0.0870 -0.8545
   7323SM  H15S 9584   4.897   1.227   8.935 -0.4722  0.6952 -1.7207
   7323SM  H15T 9585   4.760   1.304   9.013 -0.2080 -0.4904  1.4266
   7323SM  C16S 9586   4.699   1.132   8.909 -0.2799  0.0833 -0.5019
   7323SM  H16S 9587   4.609   1.138   8.974  2.1073  1.0076  2.9847
   7323SM  H16T 9588   4.736   1.028   8.920 -0.6547  0.1331  1.6102
   7323SM  C17S 9589   4.686   1.163   8.766 -0.1750  0.1507 -0.5388
   7323SM  H17S 9590   4.792   1.164   8.734 -0.2048 -0.8245 -0.6744
   7323SM  H17T 9591   4.642   1.265   8.754  0.5626  0.6073  0.4217
   7323SM  C18S 9592   4.613   1.060   8.688  0.6087 -0.2419 -0.0204
   7323SM  H18S 9593   4.624   1.080   8.579 -2.0278 -1.3569 -0.5880
   7323SM  H18T 9594   4.505   1.058   8.714  0.2173  0.1230 -1.5129
   7323SM  H18U 9595   4.638   0.954   8.711  0.2405 -0.4011 -0.3313
   7323SM   C1F 9596   3.853   1.345   9.872  0.5806 -0.6550 -0.6709
   7323SM    OF 9597   3.859   1.468   9.874  0.2177 -0.1343 -0.3037
   7323SM   C2F 9598   3.748   1.265   9.788 -0.3223 -0.1161  0.0287
   7323SM   H2F 9599   3.678   1.221   9.862 -1.3084 -0.3599 -1.0201
   7323SM   H2G 9600   3.798   1.186   9.728  0.6332 -0.0235  0.6771
   7323SM   C3F 9601   3.680   1.350   9.673  0.1844 -0.0902 -0.2072
   7323SM   H3F 9602   3.660   1.452   9.711  1.1977  0.4230 -0.9964
   7323SM   H3G 9603   3.590   1.296   9.637 -0.6765  1.7957 -1.0162
   7323SM   C4F 9604   3.753   1.367   9.536  0.2100 -0.0273 -0.5066
   7323SM   H4F 9605   3.851   1.416   9.554  0.3421 -1.3319  3.0377
   7323SM   H4G 9606   3.696   1.430   9.463  0.2628 -0.0934 -0.6053
   7323SM   C5F 9607   3.760   1.237   9.458 -0.3656 -0.3223  0.3434
   7323SM   H5F 9608   3.652   1.221   9.437 -0.0789 -0.0114 -1.4885
   7323SM   H5G 9609   3.796   1.148   9.515 -0.4657  0.4845  1.6984
   7323SM   C6F 9610   3.825   1.272   9.317  0.5169 -0.3765 -0.5522
   7323SM   H6F 9611   3.935   1.286   9.332  0.1942  1.0108  0.6472
   7323SM   H6G 9612   3.790   1.363   9.265  1.5124 -1.2048 -2.8381
   7323SM   C7F 9613   3.795   1.158   9.210  0.4706 -0.2720  0.1522
   7323SM   H7F 9614   3.684   1.152   9.209  0.3073  1.8811 -1.1276
   7323SM   H7G 9615   3.831   1.061   9.250  2.5371  0.5910  0.5040
   7323SM   C8F 9616   3.862   1.197   9.078 -0.2671  0.5752 -0.4942
   7323SM   H8F 9617   3.969   1.191   9.108 -0.7602 -2.1159  1.0444
   7323SM   H8G 9618   3.830   1.302   9.061  1.3786  1.4885  1.5160
   7323SM   C9F 9619   3.822   1.102   8.968 -0.2127  0.5099  0.1936
   7323SM   H9F 9620   3.712   1.103   8.962 -0.2177  0.0393  0.1851
   7323SM   H9G 9621   3.850   1.000   9.001 -1.7012 -1.3958 -3.7637
   7323SM  C10F 9622   3.881   1.127   8.833 -0.0802 -0.3608  0.0436
   7323SM  H10F 9623   3.992   1.127   8.836  0.0106  2.4348 -0.5394
   7323SM  H10G 9624   3.862   1.226   8.786  2.7944 -0.1041 -0.7927
   7323SM  C11F 9625   3.827   1.022   8.737 -0.4111 -0.0156  0.3144
   7323SM  H11F 9626   3.719   1.042   8.722  0.0761  1.3112 -1.9554
   7323SM  H11G 9627   3.830   0.928   8.796 -0.3322  1.6076  3.0832
   7323SM  C12F 9628   3.894   1.034   8.600  0.3116 -0.3466  0.0514
   7323SM  H12F 9629   4.004   1.041   8.602  0.2693  0.7791 -1.0263
   7323SM  H12G 9630   3.866   1.130   8.553 -0.1239  0.6081  2.1373
   7323SM  C13F 9631   3.855   0.914   8.512  0.6326  0.6154  1.0771
   7323SM  H13F 9632   3.747   0.921   8.484  1.0060 -2.1661 -1.5160
   7323SM  H13G 9633   3.883   0.811   8.541  1.2731 -0.2866 -2.2562
   7323SM  C14F 9634   3.909   0.937   8.370  0.0252  0.5420 -0.7278
   7323SM  H14F 9635   3.842   1.004   8.312  1.3770  2.3795 -0.2597
   7323SM  H14G 9636   3.898   0.836   8.326 -1.2222  0.4967 -0.3575
   7323SM  C15F 9637   4.057   0.984   8.354 -0.4369  0.1317 -0.0961
   7323SM  H15F 9638   4.072   1.083   8.403  3.2701 -0.5803  0.4493
   7323SM  H15G 9639   4.079   0.996   8.246 -4.1882  1.3189 -0.9108
   7323SM  C16F 9640   4.153   0.887   8.414 -0.6355 -0.0065 -0.5075
   7323SM  H16F 9641   4.118   0.784   8.392  1.1902 -1.0446  1.1947
   7323SM  H16G 9642   4.161   0.902   8.524  1.5381  1.6694 -0.8214
   7323SM  C17F 9643   4.302   0.890   8.371  0.5831 -0.5597  1.4097
   7323SM  H17F 9644   4.303   0.846   8.269  1.3610  1.2654  0.5780
   7323SM  H17G 9645   4.364   0.823   8.434  0.0752 -2.5841 -0.1159
   7323SM  C18F 9646   4.363   1.028   8.351  0.1723 -0.5574 -1.5734
   7323SM  H18F 9647   4.373   1.073   8.453 -0.9495  0.0561 -1.7184
   7323SM  H18G 9648   4.293   1.090   8.291 -0.5681  0.4158  0.1941
   7323SM  C19F 9649   4.492   1.029   8.283 -0.3318 -0.1349 -0.0438
   7323SM  H19F 9650   4.550   0.934   8.288  0.3538  0.2183 -0.9572
   7323SM  H19G 9651   4.546   1.109   8.337 -1.1357 -0.5678  1.4378
   7323SM  C20F 9652   4.485   1.078   8.139 -0.3264  0.4172 -0.0983
   7323SM  H20F 9653   4.586   1.100   8.098 -0.4135  0.5948 -0.2136
   7323SM  H20G 9654   4.422   1.169   8.132 -3.0535 -1.3254  0.3322
   7323SM  C21F 9655   4.411   0.984   8.039 -0.3572 -0.2699 -0.1685
   7323SM  H21F 9656   4.302   0.978   8.062 -0.4370  1.8857  0.1813
   7323SM  H21G 9657   4.451   0.880   8.041  2.1806  0.6392  0.4098
   7323SM  C22F 9658   4.424   1.037   7.896 -0.4679  0.2801  0.0028
   7323SM  H22F 9659   4.534   1.032   7.881 -0.5507 -0.0182 -0.5531
   7323SM  H22G 9660   4.381   1.139   7.884  1.5524  1.3230  1.0385
   7323SM  C23F 9661   4.349   0.943   7.791 -1.1064 -0.3797 -0.1006
   7323SM  H23F 9662   4.239   0.951   7.803 -1.2038 -0.5442 -0.8071
   7323SM  H23G 9663   4.374   0.838   7.817  0.4219  0.7132  3.4728
   7323SM  H23H 9664   4.381   0.974   7.689 -0.4795  0.6671  0.4048
   7423SM     N 9665   0.809   4.275  10.194 -0.2546 -0.6800 -0.1851
   7423SM   C15 9666   0.772   4.279  10.337  0.2762 -0.3630  0.0252
   7423SM  H15A 9667   0.678   4.228  10.352  0.9347 -0.9316  2.9288
   7423SM  H15B 9668   0.756   4.382  10.367  1.5712 -0.1607  0.0925
   7423SM  H15C 9669   0.851   4.245  10.402  2.1231  1.4536 -1.1423
   7423SM   C14 9670   0.929   4.364  10.177  0.3632 -0.0580  0.3695
   7423SM  H14A 9671   0.960   4.373  10.074 -3.1541  0.2372 -0.7881
   7423SM  H14B 9672   1.019   4.331  10.227  0.3274 -0.5263  0.1284
   7423SM  H14C 9673   0.914   4.468  10.203  1.5341 -0.2236  1.9086
   7423SM   C13 9674   0.845   4.134  10.157 -0.7383  0.4462 -0.4533
   7423SM  H13A 9675   0.859   4.123  10.051 -0.6643 -0.5212 -0.3554
   7423SM  H13B 9676   0.765   4.067  10.186 -0.0145 -0.0656  0.3968
   7423SM  H13C 9677   0.932   4.096  10.209 -2.2018 -1.1280  1.0290
   7423SM   C12 9678   0.698   4.318  10.110 -0.0196 -0.0271 -0.3192
   7423SM  H12A 9679   0.613   4.252  10.108  1.3637 -1.8795 -0.1774
   7423SM  H12B 9680   0.724   4.341  10.007 -0.8610  3.2312  0.0711
   7423SM   C11 9681   0.639   4.458  10.147 -0.4744 -0.4394  0.0896
   7423SM  H11A 9682   0.600   4.466  10.250 -0.5164  0.3657  0.0147
   7423SM  H11B 9683   0.547   4.475  10.086 -0.7437  0.3165  0.6953
   7423SM     P 9684   0.757   4.630   9.987 -0.3146 -0.2382  0.4436
   7423SM   O13 9685   0.654   4.736   9.959  0.5445  0.3015  0.3585
   7423SM   O14 9686   0.900   4.657   9.974 -0.2362 -0.8570  0.2871
   7423SM   O11 9687   0.732   4.498   9.901 -0.1791  0.0080 -0.1770
   7423SM   O12 9688   0.729   4.567  10.136  0.8217 -0.0923 -0.0162
   7423SM   C1S 9689   0.637   4.496   9.794 -0.3519 -0.2212 -0.1632
   7423SM   H1S 9690   0.640   4.595   9.744  1.3533 -0.3253 -0.3321
   7423SM   H1T 9691   0.545   4.462   9.847  0.5519  0.7104  2.1395
   7423SM    NF 9692   0.565   4.396   9.584 -0.0037 -0.7495 -0.6649
   7423SM   HNF 9693   0.504   4.317   9.590 -1.0579  0.0863  0.0083
   7423SM   C2S 9694   0.679   4.401   9.680  0.1075  0.2016  0.1471
   7423SM   H2S 9695   0.768   4.439   9.626 -0.0797 -0.7674 -0.8912
   7423SM   C3S 9696   0.725   4.262   9.716 -0.2968 -0.3683  0.0416
   7423SM   H3S 9697   0.646   4.219   9.782  0.1815  0.0340  0.8938
   7423SM    O3 9698   0.841   4.275   9.806  0.1592  0.1529  0.2410
   7423SM   HO3 9699   0.836   4.369   9.828 -2.5190  0.3393 -0.8667
   7423SM   C4S 9700   0.749   4.162   9.608  0.0411 -0.2010 -0.1495
   7423SM   H4S 9701   0.669   4.088   9.605 -2.1642  1.8819  2.4105
   7423SM   C5S 9702   0.859   4.142   9.540  0.1009 -0.0660 -0.4615
   7423SM   H5S 9703   0.945   4.208   9.559  0.4737  0.1984 -2.7668
   7423SM   C6S 9704   0.884   4.029   9.433 -0.5402  0.4445 -0.6516
   7423SM   H6S 9705   0.806   3.952   9.453  0.5789  0.3427  4.9046
   7423SM   H6T 9706   0.974   3.964   9.436 -0.7693  0.1599  0.3877
   7423SM   C7S 9707   0.875   4.081   9.291  0.5088  0.5787  0.0512
   7423SM   H7S 9708   0.937   4.173   9.299  1.8662 -0.4629  2.1803
   7423SM   H7T 9709   0.770   4.106   9.262  0.0534 -0.6266  0.6023
   7423SM   C8S 9710   0.924   3.991   9.178  0.0302 -0.7470  0.3667
   7423SM   H8S 9711   0.876   3.891   9.185 -0.1028 -0.7713 -0.7449
   7423SM   H8T 9712   1.033   3.988   9.198  0.9394  2.6207 -2.8792
   7423SM   C9S 9713   0.896   4.047   9.033 -0.1292  0.2270 -0.6977
   7423SM   H9S 9714   0.956   4.139   9.018 -0.7176  0.5441 -1.1252
   7423SM   H9T 9715   0.790   4.077   9.020  0.0023  0.5096 -1.1361
   7423SM  C10S 9716   0.932   3.943   8.935 -0.4855  0.3160  0.3501
   7423SM  H10S 9717   0.875   3.853   8.966  0.7512 -0.6244 -0.0143
   7423SM  H10T 9718   1.037   3.910   8.947  0.0720  2.0384  0.5062
   7423SM  C11S 9719   0.895   3.977   8.786 -0.0958 -0.6568 -0.6555
   7423SM  H11S 9720   0.917   4.082   8.759 -1.6101  0.0774  0.8464
   7423SM  H11T 9721   0.786   3.966   8.773 -0.3071 -1.1201  1.2701
   7423SM  C12S 9722   0.967   3.892   8.687  0.4509  0.0157 -0.0592
   7423SM  H12S 9723   0.966   3.784   8.713 -1.0171  0.2804  1.1140
   7423SM  H12T 9724   1.069   3.936   8.678 -0.2397  1.4766 -1.1630
   7423SM  C13S 9725   0.915   3.908   8.547  0.7829  0.3454 -0.6125
   7423SM  H13S 9726   0.902   4.008   8.500 -2.4685  1.1209  1.5525
   7423SM  H13T 9727   0.822   3.850   8.529  0.3008  0.8584  0.1059
   7423SM  C14S 9728   1.016   3.842   8.452  0.3785 -0.1020 -0.9206
   7423SM  H14S 9729   1.029   3.736   8.481  3.5777 -0.2265 -2.4648
   7423SM  H14T 9730   1.113   3.893   8.467  1.1769 -0.7635 -3.4256
   7423SM  C15S 9731   0.970   3.851   8.310  0.5901 -0.0325 -0.4507
   7423SM  H15S 9732   1.058   3.820   8.250 -1.3406 -1.9812 -2.4832
   7423SM  H15T 9733   0.931   3.953   8.295  2.3395  1.2016  2.4496
   7423SM  C16S 9734   0.854   3.764   8.260 -0.6058 -0.2470 -0.4747
   7423SM  H16S 9735   0.762   3.780   8.319 -0.5693 -1.5584 -0.0433
   7423SM  H16T 9736   0.883   3.657   8.259  1.8049  0.3116  0.7259
   7423SM  C17S 9737   0.813   3.801   8.122 -0.3279 -0.3109  0.4169
   7423SM  H17S 9738   0.899   3.778   8.055 -0.3957 -0.8110  0.4997
   7423SM  H17T 9739   0.784   3.907   8.102 -0.4830 -0.3843  0.2534
   7423SM  C18S 9740   0.695   3.716   8.074  0.1012 -0.6937 -0.6824
   7423SM  H18S 9741   0.711   3.608   8.097  1.0585 -0.1128  1.6905
   7423SM  H18T 9742   0.683   3.741   7.966 -0.1504  2.2541 -0.0602
   7423SM  H18U 9743   0.604   3.744   8.132  0.1961 -0.5671 -0.5959
   7423SM   C1F 9744   0.531   4.504   9.506 -0.7679 -0.1826 -0.0070
   7423SM    OF 9745   0.597   4.603   9.499  0.2377 -0.2056 -0.3327
   7423SM   C2F 9746   0.406   4.490   9.420 -0.5624 -0.3711 -0.0797
   7423SM   H2F 9747   0.398   4.584   9.361  0.1081 -0.2131  0.0640
   7423SM   H2G 9748   0.317   4.474   9.484 -0.7610 -0.4894 -0.3811
   7423SM   C3F 9749   0.419   4.375   9.320 -0.1696 -0.5120 -0.5546
   7423SM   H3F 9750   0.411   4.282   9.380 -1.2082 -0.5385 -0.7124
   7423SM   H3G 9751   0.520   4.381   9.274  0.4174 -1.2082  0.5864
   7423SM   C4F 9752   0.320   4.353   9.211  0.2820  0.4555  0.8209
   7423SM   H4F 9753   0.221   4.330   9.254  0.1550 -0.6005  0.0139
   7423SM   H4G 9754   0.354   4.263   9.156  3.3754  1.8167  0.2846
   7423SM   C5F 9755   0.291   4.478   9.130  0.2235 -0.3890  0.0317
   7423SM   H5F 9756   0.379   4.513   9.071 -1.8429 -0.0057 -3.0267
   7423SM   H5G 9757   0.279   4.556   9.209 -0.7004 -0.5102  0.0161
   7423SM   C6F 9758   0.171   4.477   9.041  0.4694  0.2672  0.2111
   7423SM   H6F 9759   0.153   4.582   9.008  0.7289  0.6632  1.2820
   7423SM   H6G 9760   0.085   4.440   9.101 -0.5810 -0.2279 -1.5286
   7423SM   C7F 9761   0.187   4.379   8.921  0.0952  1.4358 -0.2088
   7423SM   H7F 9762   0.233   4.281   8.946  0.5511  2.2152  2.3929
   7423SM   H7G 9763   0.271   4.417   8.859  0.8283 -0.1398 -0.2129
   7423SM   C8F 9764   0.057   4.360   8.843  0.1676  0.1309  0.7363
   7423SM   H8F 9765   0.006   4.453   8.812 -1.8251 -1.2701 -0.3965
   7423SM   H8G 9766  -0.012   4.298   8.903  0.1355  0.4142  0.9910
   7423SM   C9F 9767   0.066   4.269   8.718  0.6707  0.2690 -0.3117
   7423SM   H9F 9768  -0.040   4.245   8.697 -0.4143  0.9423  3.6550
   7423SM   H9G 9769   0.110   4.170   8.743  0.8345  0.1170 -1.1635
   7423SM  C10F 9770   0.131   4.333   8.598 -0.2468  0.1660 -0.4918
   7423SM  H10F 9771   0.232   4.289   8.606 -1.3924 -2.2389  2.9785
   7423SM  H10G 9772   0.139   4.444   8.606 -0.5216  0.1744 -0.3073
   7423SM  C11F 9773   0.066   4.296   8.461 -0.2669  0.4750 -0.2262
   7423SM  H11F 9774  -0.038   4.335   8.464  0.3016  2.0384  1.8230
   7423SM  H11G 9775   0.069   4.186   8.447 -2.5008  0.5015 -1.4097
   7423SM  C12F 9776   0.142   4.361   8.343 -0.4009 -0.0315 -0.0351
   7423SM  H12F 9777   0.252   4.350   8.349 -0.5312 -1.3582  0.2225
   7423SM  H12G 9778   0.119   4.469   8.338 -1.1848 -0.2138 -0.6248
   7423SM  C13F 9779   0.099   4.317   8.197 -0.1600  0.3811 -0.1849
   7423SM  H13F 9780   0.159   4.364   8.117 -2.7396 -1.5198 -3.4674
   7423SM  H13G 9781  -0.001   4.364   8.189 -0.1904  0.2561 -0.5369
   7423SM  C14F 9782   0.102   4.166   8.170 -0.0972  0.4356 -0.0690
   7423SM  H14F 9783   0.034   4.117   8.243 -1.2009 -0.9049 -1.9018
   7423SM  H14G 9784   0.205   4.126   8.182 -0.8676 -1.5005  0.4253
   7423SM  C15F 9785   0.058   4.118   8.032  0.1289 -0.2739 -0.5386
   7423SM  H15F 9786   0.142   4.116   7.959 -1.2231 -2.1241 -2.1462
   7423SM  H15G 9787  -0.018   4.194   8.004  0.0602  0.3679  1.2342
   7423SM  C16F 9788  -0.017   3.983   8.044  0.0266  0.1670 -0.1856
   7423SM  H16F 9789  -0.103   3.990   8.115 -1.2232 -3.2781 -1.1436
   7423SM  H16G 9790   0.052   3.911   8.093  1.3698  1.6258  0.1457
   7423SM  C17F 9791  -0.074   3.913   7.915  0.5774  0.2144  0.3477
   7423SM  H17F 9792   0.004   3.908   7.836  0.5641  1.5355  0.2178
   7423SM  H17G 9793  -0.159   3.972   7.874  1.5600  0.7002 -1.0945
   7423SM  C18F 9794  -0.141   3.770   7.941 -0.1946 -0.4369 -0.2717
   7423SM  H18F 9795  -0.219   3.776   8.019 -0.9506 -0.4728 -1.0043
   7423SM  H18G 9796  -0.061   3.696   7.962  0.8452  1.2077  1.8969
   7423SM  C19F 9797  -0.211   3.716   7.810 -0.5509 -0.2110 -0.0769
   7423SM  H19F 9798  -0.296   3.782   7.784  0.2284  0.9352  0.2179
   7423SM  H19G 9799  -0.251   3.615   7.833  2.3204 -1.6030 -0.6489
   7423SM  C20F 9800  -0.115   3.715   7.685  1.1732  0.2559  0.0061
   7423SM  H20F 9801  -0.023   3.657   7.708  0.9295  0.1585  0.7651
   7423SM  H20G 9802  -0.085   3.821   7.670  1.0219  0.1509 -1.1628
   7423SM  C21F 9803  -0.187   3.663   7.563  0.4895  0.2692  0.3333
   7423SM  H21F 9804  -0.253   3.576   7.581  1.8675 -1.2552 -1.5957
   7423SM  H21G 9805  -0.107   3.615   7.503  1.3640  0.7988  1.0525
   7423SM  C22F 9806  -0.272   3.768   7.488  0.7078 -0.4188 -0.0410
   7423SM  H22F 9807  -0.202   3.854   7.478 -0.3442  0.4087 -0.5365
   7423SM  H22G 9808  -0.357   3.799   7.553  1.0023  1.5531 -0.5094
   7423SM  C23F 9809  -0.326   3.720   7.354 -0.1850  0.5195  0.2168
   7423SM  H23F 9810  -0.245   3.688   7.284 -2.1289 -2.4645 -0.8678
   7423SM  H23G 9811  -0.396   3.794   7.311 -1.6845 -1.5103 -1.0172
   7423SM  H23H 9812  -0.391   3.630   7.364  1.0384 -0.3470  0.5544
   7523SM     N 9813   6.075   5.916  10.500 -0.3726  0.5557 -0.6836
   7523SM   C15 9814   6.181   5.812  10.541 -0.4728  0.0325  0.0536
   7523SM  H15A 9815   6.245   5.794  10.456 -0.9990  1.4710 -0.6784
   7523SM  H15B 9816   6.120   5.727  10.567 -1.2892  0.1530 -1.3712
   7523SM  H15C 9817   6.235   5.851  10.626 -2.7104  1.4230  0.9247
   7523SM   C14 9818   6.006   5.952  10.629 -0.0917 -0.1470 -0.1968
   7523SM  H14A 9819   5.939   6.036  10.614 -0.8406 -0.3724  1.6131
   7523SM  H14B 9820   6.078   5.990  10.699  0.6736 -2.8590  0.5903
   7523SM  H14C 9821   5.956   5.869  10.678  0.3262 -0.8881 -0.9997
   7523SM   C13 9822   6.145   6.042  10.459 -0.4389  0.1953  0.2780
   7523SM  H13A 9823   6.192   6.024  10.363 -0.4660  2.0054 -0.1110
   7523SM  H13B 9824   6.221   6.074  10.528  1.6208 -0.8185 -1.3966
   7523SM  H13C 9825   6.071   6.119  10.447 -1.0980 -0.5649 -0.7091
   7523SM   C12 9826   5.987   5.869  10.387  0.1581 -0.1122  0.1489
   7523SM  H12A 9827   6.052   5.842  10.306 -0.7665 -2.0139  0.0001
   7523SM  H12B 9828   5.922   5.948  10.350 -1.8272 -1.5368  0.4205
   7523SM   C11 9829   5.892   5.752  10.427 -0.0650 -0.1207  0.4864
   7523SM  H11A 9830   5.830   5.731  10.338  0.6171  0.2889 -0.1034
   7523SM  H11B 9831   5.822   5.785  10.507 -0.5556 -1.3984  0.5966
   7523SM     P 9832   5.997   5.507  10.391  0.0952  0.0490  0.0679
   7523SM   O13 9833   6.105   5.423  10.453  0.1279 -0.2466  0.3248
   7523SM   O14 9834   5.869   5.441  10.360  0.5551  0.2608 -0.6584
   7523SM   O11 9835   6.046   5.580  10.256 -0.2920  0.0263  0.7273
   7523SM   O12 9836   5.961   5.635  10.478 -0.1302 -0.3052  0.3341
   7523SM   C1S 9837   6.125   5.502  10.166  0.3492 -0.3938  0.0218
   7523SM   H1S 9838   6.104   5.395  10.182  1.0252 -0.5344  0.0216
   7523SM   H1T 9839   6.234   5.522  10.181  0.3084  0.3393 -0.5653
   7523SM    NF 9840   6.150   5.419   9.933  0.2288 -0.0760 -0.1929
   7523SM   HNF 9841   6.235   5.440   9.885  0.8869 -3.3070 -0.6547
   7523SM   C2S 9842   6.097   5.528  10.023 -0.4762  0.0741 -0.1559
   7523SM   H2S 9843   5.987   5.527  10.009 -0.3553  1.3305 -1.4377
   7523SM   C3S 9844   6.148   5.666   9.988 -0.0776  1.0460  0.7953
   7523SM   H3S 9845   6.259   5.662   9.993  0.0320  0.4796 -1.2310
   7523SM    O3 9846   6.105   5.767  10.079  0.3464 -0.6817  0.0182
   7523SM   HO3 9847   6.055   5.725  10.149 -1.7464 -1.0129 -1.5985
   7523SM   C4S 9848   6.117   5.707   9.844 -0.4803  0.0552 -0.5431
   7523SM   H4S 9849   6.197   5.678   9.774  0.8580  1.1781  0.4767
   7523SM   C5S 9850   6.002   5.757   9.794 -0.4786 -0.6068  0.3462
   7523SM   H5S 9851   5.917   5.784   9.859  0.3433  1.3319  0.6783
   7523SM   C6S 9852   5.974   5.759   9.651  0.8566 -0.0728 -0.3866
   7523SM   H6S 9853   6.060   5.716   9.595  1.4162  0.2275  0.2180
   7523SM   H6T 9854   5.946   5.862   9.619  0.6035  0.2232  0.7242
   7523SM   C7S 9855   5.849   5.679   9.629 -0.0411 -0.4574 -0.1740
   7523SM   H7S 9856   5.760   5.727   9.675  0.4230  0.2100  0.0436
   7523SM   H7T 9857   5.854   5.576   9.671 -2.0249 -0.1066  1.0355
   7523SM   C8S 9858   5.796   5.674   9.480  0.2255 -0.3883 -0.4324
   7523SM   H8S 9859   5.775   5.781   9.460 -0.3580 -0.1667  1.2397
   7523SM   H8T 9860   5.703   5.612   9.480 -0.9461  1.3201  0.1986
   7523SM   C9S 9861   5.900   5.623   9.386  0.3477  0.2542  0.4403
   7523SM   H9S 9862   5.937   5.534   9.441 -1.9100 -1.1514 -0.1825
   7523SM   H9T 9863   5.964   5.710   9.361 -1.0728  0.8566 -1.2664
   7523SM  C10S 9864   5.836   5.567   9.256 -0.2212 -0.8933  0.0761
   7523SM  H10S 9865   5.751   5.499   9.278 -0.8153 -0.5171 -0.9564
   7523SM  H10T 9866   5.920   5.507   9.214  1.1470  1.4448 -0.7739
   7523SM  C11S 9867   5.796   5.674   9.157 -0.2641 -0.2303 -0.0123
   7523SM  H11S 9868   5.842   5.654   9.058 -3.2532  0.2482 -1.6071
   7523SM  H11T 9869   5.837   5.771   9.192  2.2216 -1.5702  1.0162
   7523SM  C12S 9870   5.646   5.696   9.162 -0.3703 -0.7275  0.3950
   7523SM  H12S 9871   5.604   5.722   9.262  0.8424 -0.3395  0.8116
   7523SM  H12T 9872   5.583   5.617   9.117 -0.0303  0.4794 -2.3762
   7523SM  C13S 9873   5.606   5.817   9.080  0.6771 -0.4212  0.0536
   7523SM  H13S 9874   5.649   5.912   9.120 -0.0075 -0.2670  0.4383
   7523SM  H13T 9875   5.495   5.825   9.090  0.6964 -0.2257  0.1205
   7523SM  C14S 9876   5.641   5.809   8.929  0.1158  0.4236 -0.4034
   7523SM  H14S 9877   5.745   5.838   8.905  0.7047 -1.7011 -0.6262
   7523SM  H14T 9878   5.579   5.890   8.885  1.2758 -0.0593 -3.1237
   7523SM  C15S 9879   5.611   5.673   8.858  0.7172  0.2222 -0.0155
   7523SM  H15S 9880   5.508   5.646   8.890 -0.1947  0.5276 -2.4457
   7523SM  H15T 9881   5.679   5.598   8.902  2.5492  1.0803 -1.2559
   7523SM  C16S 9882   5.602   5.685   8.706 -1.2041  0.7017 -0.7484
   7523SM  H16S 9883   5.612   5.582   8.666  2.1294  0.1257  1.2401
   7523SM  H16T 9884   5.686   5.734   8.653  0.3550  0.1739  1.1568
   7523SM  C17S 9885   5.466   5.733   8.661 -0.2068  0.3303 -0.6011
   7523SM  H17S 9886   5.443   5.838   8.689 -4.7725 -0.8119  0.8138
   7523SM  H17T 9887   5.382   5.676   8.706 -0.8713  0.8568 -1.1530
   7523SM  C18S 9888   5.452   5.722   8.505 -0.7443  0.2837  0.0468
   7523SM  H18S 9889   5.552   5.754   8.467  0.4655 -2.0191  1.0691
   7523SM  H18T 9890   5.370   5.787   8.468 -2.2865 -1.7643 -0.2987
   7523SM  H18U 9891   5.439   5.616   8.474  0.8713  0.5591 -1.8110
   7523SM   C1F 9892   6.103   5.293   9.933 -0.3392  0.0358  0.4348
   7523SM    OF 9893   6.010   5.259  10.002 -0.0992  0.2438  0.1490
   7523SM   C2F 9894   6.162   5.199   9.827  0.0733  0.0219  0.4961
   7523SM   H2F 9895   6.205   5.114   9.884 -4.3760 -1.5190  1.9806
   7523SM   H2G 9896   6.256   5.236   9.780  0.3999  1.6474  2.2965
   7523SM   C3F 9897   6.056   5.130   9.732  0.1710 -0.1818  0.1901
   7523SM   H3F 9898   5.988   5.071   9.797  0.4372 -0.9211 -0.1915
   7523SM   H3G 9899   6.121   5.065   9.671  0.8927 -0.5282  1.2917
   7523SM   C4F 9900   5.990   5.234   9.637  0.2463 -0.2025 -0.0469
   7523SM   H4F 9901   6.069   5.303   9.601  0.6801 -0.5694  0.1762
   7523SM   H4G 9902   5.902   5.291   9.675 -0.4370 -1.6858  0.7151
   7523SM   C5F 9903   5.947   5.157   9.513  0.3368 -0.4123 -0.3607
   7523SM   H5F 9904   5.881   5.084   9.563  0.9438  1.1178  3.0393
   7523SM   H5G 9905   6.034   5.099   9.476  0.3119  0.4678 -1.8427
   7523SM   C6F 9906   5.889   5.234   9.399 -0.1845  0.1318 -0.4245
   7523SM   H6F 9907   5.970   5.307   9.376 -0.8869  1.8220  1.9977
   7523SM   H6G 9908   5.804   5.300   9.428  0.7215  1.2750 -0.2765
   7523SM   C7F 9909   5.850   5.146   9.279  0.5150 -0.2101  0.7605
   7523SM   H7F 9910   5.740   5.131   9.277  0.4958 -0.0286 -0.0998
   7523SM   H7G 9911   5.904   5.049   9.285  1.7041  0.3939  0.2206
   7523SM   C8F 9912   5.884   5.213   9.141 -0.7033 -0.2094  0.3258
   7523SM   H8F 9913   5.990   5.246   9.145 -0.5915 -0.7011  1.6155
   7523SM   H8G 9914   5.816   5.300   9.126  1.4193  1.2109 -1.6509
   7523SM   C9F 9915   5.878   5.131   9.018  0.0225 -0.4947 -0.4859
   7523SM   H9F 9916   5.778   5.083   9.022 -0.2710  0.1684  1.6677
   7523SM   H9G 9917   5.947   5.045   9.028  2.5026  1.1690 -2.2050
   7523SM  C10F 9918   5.903   5.200   8.887 -0.4454  0.0788  0.4844
   7523SM  H10F 9919   6.000   5.255   8.882 -0.1657  0.0363  3.5724
   7523SM  H10G 9920   5.832   5.285   8.882  0.6535  0.9891 -0.2998
   7523SM  C11F 9921   5.871   5.111   8.769  0.5048  1.1644  0.1405
   7523SM  H11F 9922   5.761   5.095   8.767  0.1627  2.3388  3.0906
   7523SM  H11G 9923   5.927   5.016   8.781  0.7120  1.4429  1.6525
   7523SM  C12F 9924   5.902   5.176   8.637 -0.3577 -0.9495 -0.0340
   7523SM  H12F 9925   5.932   5.106   8.557 -0.5091 -0.0893 -0.8558
   7523SM  H12G 9926   5.986   5.246   8.656 -1.5843  0.9368 -1.2881
   7523SM  C13F 9927   5.790   5.266   8.580  0.2008  0.0659 -0.5431
   7523SM  H13F 9928   5.762   5.345   8.653 -1.1502 -1.5984  0.8414
   7523SM  H13G 9929   5.699   5.209   8.552 -0.4863 -0.0914  1.7717
   7523SM  C14F 9930   5.830   5.352   8.461  0.2495 -0.6243  0.3103
   7523SM  H14F 9931   5.920   5.408   8.493 -0.3340  0.3113  0.3600
   7523SM  H14G 9932   5.748   5.422   8.435  0.4045 -1.2661 -2.1226
   7523SM  C15F 9933   5.849   5.265   8.333  0.7497 -0.2391  0.1903
   7523SM  H15F 9934   5.758   5.201   8.327  0.4160  0.3260 -0.9818
   7523SM  H15G 9935   5.937   5.198   8.345  0.9101 -0.1752 -0.5932
   7523SM  C16F 9936   5.852   5.339   8.201 -0.8429  0.3418  0.6076
   7523SM  H16F 9937   5.943   5.403   8.192  1.2111 -2.5757 -1.2590
   7523SM  H16G 9938   5.756   5.395   8.196 -1.2585 -0.4282 -0.2047
   7523SM  C17F 9939   5.854   5.223   8.089 -0.0647 -0.7726  0.3012
   7523SM  H17F 9940   5.768   5.157   8.112 -1.7005  0.8370 -0.8929
   7523SM  H17G 9941   5.950   5.168   8.086  0.8337  0.6839 -3.0064
   7523SM  C18F 9942   5.835   5.290   7.953 -0.2563 -0.1089 -0.2761
   7523SM  H18F 9943   5.913   5.367   7.934  0.1331 -0.9989 -2.6168
   7523SM  H18G 9944   5.740   5.348   7.947 -1.3076 -1.7710 -0.5138
   7523SM  C19F 9945   5.848   5.211   7.825  0.4058 -0.1338  0.0359
   7523SM  H19F 9946   5.778   5.125   7.822  1.6266 -1.1425 -1.1041
   7523SM  H19G 9947   5.951   5.179   7.797  0.8602  0.6649  0.7424
   7523SM  C20F 9948   5.798   5.291   7.700  0.0741 -0.3730 -0.4516
   7523SM  H20F 9949   5.887   5.354   7.678  0.3647  0.5733  2.8686
   7523SM  H20G 9950   5.703   5.342   7.725  0.0884  0.2265 -1.5472
   7523SM  C21F 9951   5.774   5.198   7.576 -0.4502 -0.2830 -0.0275
   7523SM  H21F 9952   5.864   5.134   7.562 -0.0757  0.4792 -1.1943
   7523SM  H21G 9953   5.777   5.265   7.488  1.2477 -0.4485 -0.1390
   7523SM  C22F 9954   5.656   5.109   7.580 -0.6565  0.4157 -0.6434
   7523SM  H22F 9955   5.648   5.044   7.669 -1.1005  0.6331 -0.5189
   7523SM  H22G 9956   5.665   5.033   7.499  0.4995  0.2600 -0.3827
   7523SM  C23F 9957   5.526   5.184   7.562 -0.0384 -0.4442  0.7136
   7523SM  H23F 9958   5.536   5.252   7.475 -0.9523  0.2778  1.1538
   7523SM  H23G 9959   5.495   5.238   7.655  0.4333  0.0194  0.6086
   7523SM  H23H 9960   5.449   5.105   7.550  2.4938 -3.3840  2.3923
   7623SM     N 9961   1.008   4.986  10.110  0.3285 -0.3232 -0.0718
   7623SM   C15 9962   0.954   5.124  10.070 -0.3836 -0.3706  0.0127
   7623SM  H15A 9963   0.931   5.180  10.160  0.3180  0.5398 -0.3519
   7623SM  H15B 9964   0.860   5.122  10.017  0.9104  2.6703 -2.7436
   7623SM  H15C 9965   1.026   5.186  10.019 -1.4872  0.7562 -0.2569
   7623SM   C14 9966   1.120   5.007  10.204 -0.1512 -0.2520 -0.0776
   7623SM  H14A 9967   1.153   4.916  10.251 -0.0767 -1.6302 -2.6003
   7623SM  H14B 9968   1.107   5.080  10.283 -0.3722 -0.9592  0.5454
   7623SM  H14C 9969   1.202   5.034  10.139 -1.9464 -0.6217 -2.6519
   7623SM   C13 9970   0.894   4.911  10.171  0.3515  0.3854  0.3303
   7623SM  H13A 9971   0.855   4.950  10.264  1.1551 -1.4695  1.5134
   7623SM  H13B 9972   0.928   4.810  10.187  0.1917  0.5159  1.6148
   7623SM  H13C 9973   0.814   4.919  10.099  0.1865  3.7287  0.7249
   7623SM   C12 9974   1.045   4.913   9.978  0.1243 -0.9266  0.6677
   7623SM  H12A 9975   0.963   4.925   9.908 -0.0939  0.2312  1.0928
   7623SM  H12B 9976   1.060   4.808   9.999  0.4173 -0.7490  1.3526
   7623SM   C11 9977   1.174   4.952   9.901 -0.1277  0.0260 -0.8305
   7623SM  H11A 9978   1.257   4.937   9.973 -0.8293 -0.1267 -0.0473
   7623SM  H11B 9979   1.178   5.060   9.876  2.0326  0.2718  0.3050
   7623SM     P 9980   1.315   4.890   9.697  0.2839  0.3606  0.0731
   7623SM   O13 9981   1.315   5.033   9.662 -0.2751 -0.8167  0.1849
   7623SM   O14 9982   1.439   4.842   9.751 -0.3804  0.1125  0.1683
   7623SM   O11 9983   1.286   4.797   9.572 -0.4621  0.5470 -0.4606
   7623SM   O12 9984   1.187   4.860   9.787  0.3527 -0.0773 -0.2875
   7623SM   C1S 9985   1.160   4.824   9.502 -0.5819  0.3544  0.2078
   7623SM   H1S 9986   1.075   4.860   9.564 -1.9377 -1.9097 -0.1938
   7623SM   H1T 9987   1.124   4.729   9.456  0.0234 -0.1194  0.6912
   7623SM    NF 9988   1.056   4.965   9.314 -0.0249 -0.3412 -0.7430
   7623SM   HNF 9989   1.033   4.940   9.220 -2.2074  1.0227 -0.6494
   7623SM   C2S 9990   1.184   4.918   9.377  0.0453 -0.0294  0.2927
   7623SM   H2S 9991   1.226   5.011   9.420 -2.2346  0.7391  0.9722
   7623SM   C3S 9992   1.284   4.859   9.274  0.6077 -0.1581 -0.2397
   7623SM   H3S 9993   1.250   4.764   9.228  0.9246 -0.4712  0.1670
   7623SM    O3 9994   1.409   4.828   9.327  0.0157  0.7363 -0.3383
   7623SM   HO3 9995   1.392   4.798   9.417 -2.1187  1.3781 -0.4753
   7623SM   C4S 9996   1.307   4.944   9.153  0.5617  0.0094  0.5345
   7623SM   H4S 9997   1.252   4.912   9.064  3.2678  2.5406 -2.2766
   7623SM   C5S 9998   1.386   5.049   9.147  0.5056  0.0857 -0.0281
   7623SM   H5S 9999   1.430   5.098   9.235  0.5880  1.1924 -0.6696
   7623SM   C6S10000   1.416   5.137   9.035 -0.4205 -0.0621  0.1440
   7623SM   H6S10001   1.525   5.128   9.018 -0.4489  1.4357 -1.0441
   7623SM   H6T10002   1.397   5.243   9.065  0.4183  0.8762 -2.3711
   7623SM   C7S10003   1.344   5.097   8.903 -0.3070  0.1610 -0.3569
   7623SM   H7S10004   1.236   5.078   8.921  0.0795 -0.9050  1.0511
   7623SM   H7T10005   1.397   5.005   8.872  0.7542  0.1061  1.4690
   7623SM   C8S10006   1.361   5.191   8.782  0.4731  0.8593 -0.1427
   7623SM   H8S10007   1.470   5.204   8.762  0.5623  0.6591  0.2144
   7623SM   H8T10008   1.303   5.285   8.791 -4.0459 -1.6471 -0.3462
   7623SM   C9S10009   1.292   5.121   8.664 -0.6608  0.1860  0.0523
   7623SM   H9S10010   1.184   5.104   8.686 -0.5683  0.0306  0.3904
   7623SM   H9T10011   1.347   5.027   8.643 -0.6597  0.5403 -1.6473
   7623SM  C10S10012   1.322   5.197   8.535  0.2258  0.0743 -0.0132
   7623SM  H10S10013   1.433   5.199   8.526  0.3212  0.1859  1.0663
   7623SM  H10T10014   1.278   5.299   8.541 -0.5031 -0.1373 -1.4270
   7623SM  C11S10015   1.262   5.122   8.412 -0.9997 -0.0531 -0.1466
   7623SM  H11S10016   1.153   5.121   8.432 -0.3971  0.4840  4.1169
   7623SM  H11T10017   1.294   5.016   8.420  0.4930  0.3473 -0.4002
   7623SM  C12S10018   1.308   5.175   8.273  0.0017  0.2270  0.3344
   7623SM  H12S10019   1.418   5.173   8.264 -0.1163  0.1962 -1.5571
   7623SM  H12T10020   1.265   5.274   8.246 -0.8274 -0.3353 -0.4438
   7623SM  C13S10021   1.249   5.086   8.160  0.5090  0.1033  0.3934
   7623SM  H13S10022   1.140   5.108   8.160  0.2039 -1.2998 -0.6814
   7623SM  H13T10023   1.269   4.980   8.187 -0.5682 -0.5038 -1.0589
   7623SM  C14S10024   1.304   5.110   8.022 -0.6059 -0.9365 -0.6234
   7623SM  H14S10025   1.413   5.096   8.007 -0.5614 -1.4491  0.1537
   7623SM  H14T10026   1.291   5.218   7.999  1.1255 -0.5360  0.1496
   7623SM  C15S10027   1.232   5.030   7.913 -0.2299 -0.2387  0.6102
   7623SM  H15S10028   1.121   5.028   7.926 -0.3798  0.3007 -0.5239
   7623SM  H15T10029   1.267   4.925   7.914  0.4375 -0.0915 -1.9509
   7623SM  C16S10030   1.279   5.088   7.777  0.3916 -0.0142  0.1144
   7623SM  H16S10031   1.390   5.083   7.779  0.3839  0.0240  0.9568
   7623SM  H16T10032   1.256   5.196   7.763  0.9303  0.4848  2.5811
   7623SM  C17S10033   1.214   5.012   7.662 -0.9505 -0.2000  0.4847
   7623SM  H17S10034   1.105   5.020   7.679 -0.9389  0.2658  0.3432
   7623SM  H17T10035   1.239   4.903   7.666 -1.4077 -0.4007 -1.3091
   7623SM  C18S10036   1.236   5.060   7.519 -0.5761 -1.0805 -0.6677
   7623SM  H18S10037   1.201   4.992   7.438  0.8688  2.0093 -4.1651
   7623SM  H18T10038   1.347   5.065   7.508 -0.3225  1.1466  1.9277
   7623SM  H18U10039   1.192   5.160   7.503 -0.9592 -0.5072  3.0757
   7623SM   C1F10040   0.966   5.034   9.388 -0.2096 -0.1733 -0.2789
   7623SM    OF10041   0.979   5.065   9.507 -0.1700  0.0461 -0.7449
   7623SM   C2F10042   0.846   5.081   9.313 -0.0279 -0.5837  0.2359
   7623SM   H2F10043   0.868   5.077   9.204 -0.3332  0.0991  0.1370
   7623SM   H2G10044   0.814   5.184   9.340 -0.8042 -0.5495 -0.7611
   7623SM   C3F10045   0.725   4.993   9.331  0.6857  0.8000 -0.8358
   7623SM   H3F10046   0.679   5.001   9.433 -0.7241  0.6574 -1.4292
   7623SM   H3G10047   0.752   4.887   9.315 -1.6955 -0.1717  0.8535
   7623SM   C4F10048   0.607   5.007   9.230 -0.1363 -0.2246 -0.8928
   7623SM   H4F10049   0.577   5.113   9.227 -2.1542 -0.7174  0.0982
   7623SM   H4G10050   0.522   4.956   9.280  1.2235 -1.3223  0.4021
   7623SM   C5F10051   0.620   4.946   9.089  0.2757  0.3059 -0.9680
   7623SM   H5F10052   0.665   4.846   9.105 -0.3624  0.5573  3.7567
   7623SM   H5G10053   0.684   5.020   9.037  0.8517 -0.7930 -1.8686
   7623SM   C6F10054   0.487   4.929   9.022  0.5743  0.5093  0.7061
   7623SM   H6F10055   0.438   5.027   9.005  1.4557  0.6615 -1.1533
   7623SM   H6G10056   0.436   4.856   9.088 -0.9416 -1.5372 -2.4657
   7623SM   C7F10057   0.500   4.867   8.879  0.4256 -0.1412  0.0521
   7623SM   H7F10058   0.583   4.914   8.822 -0.0075  2.6083  1.4987
   7623SM   H7G10059   0.403   4.892   8.832  0.9874 -0.4408 -1.3131
   7623SM   C8F10060   0.499   4.714   8.871  0.1332 -0.2389  0.0672
   7623SM   H8F10061   0.409   4.671   8.920  1.4082  0.5037  3.3358
   7623SM   H8G10062   0.587   4.678   8.929 -0.7477  0.6816  2.1110
   7623SM   C9F10063   0.497   4.671   8.726 -0.1469 -0.0181 -0.5035
   7623SM   H9F10064   0.518   4.561   8.722 -0.9714 -0.1638 -1.0450
   7623SM   H9G10065   0.581   4.719   8.672 -1.2940  2.0820 -0.5092
   7623SM  C10F10066   0.354   4.680   8.661 -0.0365 -0.0776 -1.0738
   7623SM  H10F10067   0.325   4.786   8.677 -1.1393 -0.5563  0.3106
   7623SM  H10G10068   0.282   4.614   8.714  0.2758  1.0850  0.8771
   7623SM  C11F10069   0.350   4.652   8.508  0.3691  0.0756  0.8117
   7623SM  H11F10070   0.251   4.619   8.469  0.1564  1.8497 -0.2767
   7623SM  H11G10071   0.422   4.572   8.480 -0.5666 -0.4575 -0.1458
   7623SM  C12F10072   0.382   4.766   8.411  0.0513  0.1756 -0.2194
   7623SM  H12F10073   0.484   4.798   8.440  0.1585  1.8820 -2.2345
   7623SM  H12G10074   0.316   4.854   8.427  0.6931  0.5581  0.3638
   7623SM  C13F10075   0.374   4.729   8.265  0.5074 -0.2534  0.6861
   7623SM  H13F10076   0.285   4.664   8.250  0.6378 -0.2424 -0.1718
   7623SM  H13G10077   0.463   4.665   8.243  0.0274 -1.9010  3.0543
   7623SM  C14F10078   0.352   4.849   8.168 -0.0752 -0.9359  0.2018
   7623SM  H14F10079   0.423   4.928   8.201  1.1212 -2.1421  0.5777
   7623SM  H14G10080   0.251   4.896   8.172  0.2502  0.2322 -2.7555
   7623SM  C15F10081   0.378   4.809   8.019 -1.1646 -0.0571 -0.7026
   7623SM  H15F10082   0.478   4.760   8.016  0.0718  2.2949 -1.0058
   7623SM  H15G10083   0.377   4.899   7.953  0.1991  1.2588  0.9467
   7623SM  C16F10084   0.276   4.713   7.956 -0.9768 -0.3196 -0.2215
   7623SM  H16F10085   0.180   4.768   7.947 -0.4482  0.3380 -2.3475
   7623SM  H16G10086   0.261   4.628   8.026  0.6230  0.3340  0.9613
   7623SM  C17F10087   0.322   4.657   7.821 -0.5758  0.3801  0.2174
   7623SM  H17F10088   0.399   4.578   7.829  1.6203  2.4642  1.0873
   7623SM  H17G10089   0.378   4.743   7.778 -0.3384  0.1544  0.0672
   7623SM  C18F10090   0.204   4.611   7.728  0.7316 -0.4671 -0.1336
   7623SM  H18F10091   0.249   4.596   7.627 -1.2861 -0.4505 -1.0917
   7623SM  H18G10092   0.131   4.695   7.724 -0.5793 -1.4431  1.8630
   7623SM  C19F10093   0.144   4.478   7.786  0.1882 -0.0038  0.6330
   7623SM  H19F10094   0.103   4.500   7.887 -3.5922  1.7917 -1.1089
   7623SM  H19G10095   0.229   4.406   7.786  0.3176  0.1411 -0.1119
   7623SM  C20F10096   0.037   4.413   7.698  0.3931  0.3651 -0.4667
   7623SM  H20F10097   0.025   4.308   7.734  1.1011 -0.2320 -1.8867
   7623SM  H20G10098   0.077   4.416   7.595  0.4891  1.5848 -0.4018
   7623SM  C21F10099  -0.102   4.472   7.709  0.4830  0.2472 -0.1170
   7623SM  H21F10100  -0.094   4.583   7.696  0.4024  0.0955 -1.7605
   7623SM  H21G10101  -0.150   4.445   7.805  1.4161 -0.2562  0.2102
   7623SM  C22F10102  -0.194   4.427   7.592  0.3393  0.0003 -0.3051
   7623SM  H22F10103  -0.132   4.464   7.507  0.8758  1.9938  0.8935
   7623SM  H22G10104  -0.287   4.487   7.596  0.4871  0.1448  1.2929
   7623SM  C23F10105  -0.227   4.277   7.568 -0.1726 -1.0906 -0.4033
   7623SM  H23F10106  -0.133   4.223   7.547  0.7492  0.2140  0.2033
   7623SM  H23G10107  -0.304   4.255   7.491 -0.7197  1.7220 -0.7902
   7623SM  H23H10108  -0.270   4.229   7.659 -3.2181 -1.7880 -2.0725
   7723SM     N10109   0.132   1.423  10.391  0.5456 -0.2788 -0.0245
   7723SM   C1510110   0.098   1.474  10.529  0.4607  0.1298  0.2524
   7723SM  H15A10111  -0.004   1.504  10.543  1.2246  4.4386 -1.6669
   7723SM  H15B10112   0.154   1.565  10.543 -0.0872  0.7089 -1.1185
   7723SM  H15C10113   0.121   1.404  10.608  0.5054  0.2110  0.3109
   7723SM   C1410114   0.262   1.356  10.406 -0.2825  0.8011  0.5321
   7723SM  H14A10115   0.286   1.313  10.310 -1.6284 -0.7413  0.8420
   7723SM  H14B10116   0.252   1.281  10.482  2.7967 -0.1737  0.1146
   7723SM  H14C10117   0.335   1.426  10.444  0.9902 -0.2794  0.1648
   7723SM   C1310118   0.036   1.317  10.345  0.5419 -0.2291  0.7047
   7723SM  H13A10119  -0.065   1.348  10.369  0.1923 -1.4069  0.8075
   7723SM  H13B10120   0.045   1.227  10.404 -2.2248 -0.4322  0.9832
   7723SM  H13C10121   0.053   1.286  10.243 -0.6802  2.7054 -0.5255
   7723SM   C1210122   0.122   1.539  10.296  0.6863 -0.2153 -0.3840
   7723SM  H12A10123   0.018   1.567  10.287  0.6116 -0.8837 -1.9415
   7723SM  H12B10124   0.152   1.500  10.200  1.4563 -0.9322  0.1443
   7723SM   C1110125   0.201   1.665  10.332  0.0298 -0.3347  0.0552
   7723SM  H11A10126   0.157   1.707  10.425 -1.2084 -0.9533 -0.2275
   7723SM  H11B10127   0.178   1.726  10.242 -1.8387 -2.7380 -1.2452
   7723SM     P10128   0.438   1.748  10.343  0.0410 -0.1232 -0.4001
   7723SM   O1310129   0.449   1.831  10.470 -0.1124  0.7954  0.4549
   7723SM   O1410130   0.565   1.710  10.288 -0.1234  0.2984  0.4309
   7723SM   O1110131   0.375   1.848  10.240 -0.1231 -0.3805 -0.1266
   7723SM   O1210132   0.337   1.638  10.343  0.1928  0.6180 -0.7275
   7723SM   C1S10133   0.409   1.829  10.103  0.7337  1.1497 -0.6064
   7723SM   H1S10134   0.405   1.720  10.080  1.8849  0.9017  0.2850
   7723SM   H1T10135   0.514   1.861  10.086  1.4389 -0.5817  0.1848
   7723SM    NF10136   0.335   1.872   9.873 -0.3465 -0.4522 -0.1799
   7723SM   HNF10137   0.418   1.911   9.835 -0.0994  0.6555  1.4190
   7723SM   C2S10138   0.305   1.906  10.012  0.6831  0.3088  0.0002
   7723SM   H2S10139   0.201   1.875  10.037  0.0854  1.7902 -0.5338
   7723SM   C3S10140   0.313   2.052  10.041 -0.2762 -0.8900  0.3390
   7723SM   H3S10141   0.423   2.071  10.038 -0.4030  0.3608  2.0974
   7723SM    O310142   0.302   2.097  10.177  0.4271  0.7666  0.1366
   7723SM   HO310143   0.343   2.021  10.220 -1.0958 -0.2265 -0.0876
   7723SM   C4S10144   0.235   2.131   9.946  0.2530 -0.4989 -0.3052
   7723SM   H4S10145   0.288   2.159   9.853 -2.4670  2.4678 -1.1412
   7723SM   C5S10146   0.103   2.162   9.957  0.0437 -0.0374  0.1663
   7723SM   H5S10147   0.044   2.113  10.036  1.2213 -1.1502  0.3839
   7723SM   C6S10148   0.036   2.232   9.848  0.4487 -0.5024  0.4272
   7723SM   H6S10149   0.099   2.310   9.800 -0.3420 -0.7545 -1.0942
   7723SM   H6T10150  -0.048   2.292   9.889  0.8877  1.3642 -1.2444
   7723SM   C7S10151  -0.041   2.141   9.756 -0.3991  0.6587 -0.1021
   7723SM   H7S10152  -0.126   2.193   9.708 -2.4415 -0.3569  2.2279
   7723SM   H7T10153  -0.065   2.040   9.796  0.3021 -0.2692 -1.8754
   7723SM   C8S10154   0.046   2.102   9.638 -0.3982 -0.1003  0.1111
   7723SM   H8S10155   0.116   2.021   9.670 -0.7007  0.7755  3.3383
   7723SM   H8T10156   0.115   2.187   9.617 -0.0732 -0.4458 -0.2350
   7723SM   C9S10157  -0.031   2.055   9.516  0.2577  0.4407 -0.0123
   7723SM   H9S10158  -0.093   2.136   9.473 -0.2684 -0.2754 -0.6498
   7723SM   H9T10159  -0.097   1.972   9.550  2.1793 -1.6198 -1.0386
   7723SM  C10S10160   0.065   1.995   9.412 -0.7510  0.5871  0.0481
   7723SM  H10S10161   0.128   1.912   9.450  0.0069 -0.0146 -2.3417
   7723SM  H10T10162   0.138   2.074   9.385 -1.7378  1.2240 -0.8576
   7723SM  C11S10163   0.007   1.949   9.272 -0.3281  0.6171 -0.3104
   7723SM  H11S10164  -0.047   2.037   9.230  0.6596  1.1805 -0.4308
   7723SM  H11T10165  -0.058   1.861   9.290  0.8667 -0.1009  0.5956
   7723SM  C12S10166   0.117   1.893   9.174  0.7860 -1.0905 -0.7775
   7723SM  H12S10167   0.176   1.809   9.217  0.5020 -0.6402  0.5389
   7723SM  H12T10168   0.182   1.982   9.156 -1.4263  0.3355 -2.1426
   7723SM  C13S10169   0.071   1.854   9.033 -0.0147  0.0315 -0.4164
   7723SM  H13S10170   0.009   1.938   8.994  1.2439  0.9243 -0.5591
   7723SM  H13T10171  -0.000   1.770   9.044 -0.1449  0.3391  1.5600
   7723SM  C14S10172   0.184   1.812   8.936 -0.2157 -1.1278 -0.0813
   7723SM  H14S10173   0.232   1.721   8.979 -1.4590 -0.9611  1.7877
   7723SM  H14T10174   0.263   1.890   8.933  0.8033 -2.0909  0.8049
   7723SM  C15S10175   0.141   1.779   8.795 -0.5527  0.4751 -0.4549
   7723SM  H15S10176   0.077   1.689   8.789 -1.6077  1.1509  0.2584
   7723SM  H15T10177   0.240   1.771   8.744  0.3299 -0.7739  1.3402
   7723SM  C16S10178   0.075   1.900   8.736  0.5791  0.9155 -0.3399
   7723SM  H16S10179   0.116   1.999   8.766 -0.6370  1.1176  0.7262
   7723SM  H16T10180  -0.030   1.896   8.773  0.9934 -1.1205  0.7424
   7723SM  C17S10181   0.075   1.898   8.579 -0.5422 -0.4589 -0.4788
   7723SM  H17S10182   0.179   1.920   8.548  0.0837 -1.7395  0.5587
   7723SM  H17T10183   0.015   1.985   8.546  1.5263  0.1614 -2.8674
   7723SM  C18S10184   0.029   1.764   8.524 -0.0002  0.2198 -0.3716
   7723SM  H18S10185  -0.068   1.723   8.561 -0.0357  0.0125 -0.6966
   7723SM  H18T10186   0.105   1.687   8.550 -0.8051 -0.9384 -1.3523
   7723SM  H18U10187   0.031   1.774   8.414  3.6961 -1.3340 -0.5664
   7723SM   C1F10188   0.297   1.755   9.830  0.3703  0.5886  0.1839
   7723SM    OF10189   0.231   1.678   9.899  0.4932 -0.3591 -0.0866
   7723SM   C2F10190   0.349   1.720   9.696  0.6448 -0.2757  0.1361
   7723SM   H2F10191   0.432   1.649   9.712 -0.9970 -1.6854  3.1498
   7723SM   H2G10192   0.381   1.816   9.649  1.5774 -0.4932  0.3160
   7723SM   C3F10193   0.244   1.650   9.602  0.3908 -0.0892  0.8346
   7723SM   H3F10194   0.148   1.707   9.599 -0.3291 -1.2974  0.1076
   7723SM   H3G10195   0.217   1.556   9.654  0.6894 -1.3535 -1.1659
   7723SM   C4F10196   0.306   1.604   9.464 -0.5038  0.3857  0.0998
   7723SM   H4F10197   0.385   1.529   9.488 -0.5052 -0.1017 -1.3298
   7723SM   H4G10198   0.360   1.686   9.412 -1.2875  0.6304 -0.3418
   7723SM   C5F10199   0.201   1.533   9.381  0.6166 -0.0743  0.7105
   7723SM   H5F10200   0.103   1.585   9.382  1.0435  1.0195 -2.2724
   7723SM   H5G10201   0.174   1.431   9.415  1.5276 -1.3724 -2.1252
   7723SM   C6F10202   0.229   1.516   9.234  0.2784  0.3413  0.6137
   7723SM   H6F10203   0.339   1.510   9.219  0.3772 -0.9018  1.6067
   7723SM   H6G10204   0.194   1.607   9.182  1.6938 -0.0806 -1.1645
   7723SM   C7F10205   0.167   1.387   9.176  0.2418  0.5571 -0.0807
   7723SM   H7F10206   0.057   1.384   9.197  0.4388 -1.3684  0.9131
   7723SM   H7G10207   0.215   1.303   9.230 -0.6009  0.2770  0.2608
   7723SM   C8F10208   0.188   1.358   9.025  0.3649 -0.4109 -0.0477
   7723SM   H8F10209   0.202   1.248   9.011  0.4379 -0.3208 -0.7234
   7723SM   H8G10210   0.272   1.416   8.982  0.3661  0.6579  1.3651
   7723SM   C9F10211   0.073   1.384   8.926 -0.1274  0.1997 -0.2451
   7723SM   H9F10212   0.045   1.492   8.923  0.9338  0.4618 -2.8855
   7723SM   H9G10213  -0.018   1.332   8.964  0.1682  0.6720  1.1834
   7723SM  C10F10214   0.110   1.348   8.781  0.5955 -0.3605 -0.0628
   7723SM  H10F10215   0.121   1.238   8.769  2.2394 -0.0981 -1.3256
   7723SM  H10G10216   0.205   1.399   8.755  0.4709  0.1767  0.5244
   7723SM  C11F10217   0.004   1.404   8.680 -0.4295 -0.5413  0.5257
   7723SM  H11F10218   0.003   1.515   8.690  0.9681 -0.4008 -0.5279
   7723SM  H11G10219  -0.098   1.365   8.700 -0.4361 -0.8025  0.0044
   7723SM  C12F10220   0.041   1.363   8.531  0.1088  0.4044 -0.2330
   7723SM  H12F10221   0.086   1.261   8.537 -0.5261 -0.1963 -3.5312
   7723SM  H12G10222   0.108   1.433   8.477 -0.7254  1.0884 -0.4101
   7723SM  C13F10223  -0.080   1.361   8.439  0.5642  0.6001 -0.0246
   7723SM  H13F10224  -0.132   1.459   8.444  1.7347  1.4850 -3.1001
   7723SM  H13G10225  -0.155   1.280   8.455 -0.0592  0.7722 -1.7738
   7723SM  C14F10226  -0.045   1.325   8.288 -0.5463  0.1862  0.2350
   7723SM  H14F10227  -0.007   1.221   8.280 -0.6966  0.0515  1.0994
   7723SM  H14G10228   0.040   1.383   8.248 -0.4952  0.3494  0.5784
   7723SM  C15F10229  -0.170   1.337   8.197 -0.0573 -0.2368  0.5867
   7723SM  H15F10230  -0.211   1.440   8.199  0.9690  0.1900  0.1109
   7723SM  H15G10231  -0.250   1.272   8.240 -1.9710  0.7980 -1.1890
   7723SM  C16F10232  -0.155   1.290   8.053  0.4472 -0.3326 -0.3092
   7723SM  H16F10233  -0.249   1.276   7.995  0.1479 -0.1950  0.1373
   7723SM  H16G10234  -0.105   1.192   8.044 -0.3539 -0.6374 -1.7738
   7723SM  C17F10235  -0.070   1.378   7.961 -0.1300 -0.3761 -0.1659
   7723SM  H17F10236   0.027   1.392   8.013 -1.5776  1.4004  2.2546
   7723SM  H17G10237  -0.122   1.476   7.961 -0.3265 -0.4777 -0.3813
   7723SM  C18F10238  -0.055   1.321   7.817  0.1067  0.3764  0.6262
   7723SM  H18F10239  -0.118   1.231   7.798  1.2649 -0.5293  0.9211
   7723SM  H18G10240   0.050   1.283   7.812  0.1177  0.4996 -0.3238
   7723SM  C19F10241  -0.084   1.421   7.708  0.6055  0.1079 -0.2665
   7723SM  H19F10242  -0.042   1.519   7.741 -2.0498  0.9851  0.7737
   7723SM  H19G10243  -0.192   1.441   7.693  0.8593  1.6943 -0.2260
   7723SM  C20F10244  -0.029   1.381   7.569 -0.2442 -0.3546  0.1257
   7723SM  H20F10245  -0.076   1.292   7.521 -0.3948  0.6740 -1.7557
   7723SM  H20G10246   0.080   1.362   7.568 -0.3515 -1.1451 -1.8252
   7723SM  C21F10247  -0.050   1.490   7.460  0.2383 -0.9045 -0.0055
   7723SM  H21F10248  -0.022   1.586   7.508 -0.6297  0.5440 -2.2600
   7723SM  H21G10249  -0.153   1.507   7.421  0.4564 -1.9022 -1.0675
   7723SM  C22F10250   0.032   1.467   7.333 -0.3121  0.7251 -0.3138
   7723SM  H22F10251  -0.008   1.379   7.279  1.2140  0.1427 -0.5521
   7723SM  H22G10252   0.138   1.453   7.366 -0.3749  0.9681  0.0038
   7723SM  C23F10253   0.033   1.587   7.232 -0.8757  0.3942 -0.3086
   7723SM  H23F10254  -0.070   1.595   7.191 -0.8624 -2.1641 -0.9942
   7723SM  H23G10255   0.089   1.562   7.139  0.7234  1.1381  0.4343
   7723SM  H23H10256   0.051   1.684   7.282 -3.7748  0.1513  1.4215
   7823SM     N10257   1.218   6.150  10.776  0.0729 -0.3027  0.3452
   7823SM   C1510258   1.068   6.161  10.777 -0.0562 -0.1768  0.1643
   7823SM  H15A10259   1.024   6.223  10.854  1.9018 -0.5313  1.6482
   7823SM  H15B10260   1.026   6.062  10.773  1.9417 -1.0735  0.4602
   7823SM  H15C10261   1.034   6.213  10.688  1.9069  2.2256  0.7004
   7823SM   C1410262   1.265   6.294  10.779  0.5956 -0.6165 -1.1665
   7823SM  H14A10263   1.217   6.350  10.858  0.9118 -1.3871 -0.4245
   7823SM  H14B10264   1.245   6.347  10.687  1.9024  1.4368 -0.3545
   7823SM  H14C10265   1.371   6.303  10.800  0.1031 -0.0459  1.3746
   7823SM   C1310266   1.243   6.091  10.914  0.3286  0.2327  0.7388
   7823SM  H13A10267   1.203   5.991  10.925 -0.3844 -0.1831 -3.8741
   7823SM  H13B10268   1.200   6.154  10.991 -0.2576  0.6046  0.1074
   7823SM  H13C10269   1.350   6.086  10.931  0.5862  1.7929 -0.2600
   7823SM   C1210270   1.268   6.067  10.653 -0.6530  0.3496 -0.8320
   7823SM  H12A10271   1.216   5.972  10.663  0.1336  0.1374  2.1977
   7823SM  H12B10272   1.374   6.050  10.661 -0.5061  0.4649 -2.2352
   7823SM   C1110273   1.245   6.134  10.518  0.0188 -0.0946  0.4456
   7823SM  H11A10274   1.135   6.146  10.501  0.2673  0.7217 -0.6957
   7823SM  H11B10275   1.276   6.059  10.441  1.1056 -1.2492  1.9521
   7823SM     P10276   1.460   6.268  10.471 -0.1847  0.0235  0.2393
   7823SM   O1310277   1.477   6.414  10.450 -0.1176 -0.6317  0.2650
   7823SM   O1410278   1.532   6.200  10.584  0.3314  0.6771  0.5064
   7823SM   O1110279   1.485   6.203  10.327  0.3265  0.7509  0.1189
   7823SM   O1210280   1.304   6.257  10.494 -0.0841  0.1995  0.0566
   7823SM   C1S10281   1.387   6.251  10.226 -0.0076 -0.6178  0.2333
   7823SM   H1S10282   1.385   6.362  10.217  1.6485 -0.5590  0.2222
   7823SM   H1T10283   1.286   6.218  10.257  0.2647  0.2851  2.2568
   7823SM    NF10284   1.338   6.244   9.984  0.1425 -0.1644  0.1526
   7823SM   HNF10285   1.250   6.198   9.975 -0.2025  0.2318  1.3743
   7823SM   C2S10286   1.414   6.187  10.089  0.0643 -0.2630  0.3626
   7823SM   H2S10287   1.518   6.208  10.056 -0.8182  0.0218 -2.5435
   7823SM   C3S10288   1.402   6.032  10.100  0.0884  0.5791  0.6435
   7823SM   H3S10289   1.301   6.008  10.139  0.6490 -2.7838  0.3700
   7823SM    O310290   1.482   5.981  10.203  0.0525 -0.5227 -0.1284
   7823SM   HO310291   1.512   6.060  10.249  1.3930 -0.7178 -0.6153
   7823SM   C4S10292   1.420   5.965   9.968  0.0431 -0.1049  0.0431
   7823SM   H4S10293   1.320   5.942   9.929  0.4088 -0.2072 -0.8470
   7823SM   C5S10294   1.527   5.934   9.894  0.5072 -0.3133  0.1090
   7823SM   H5S10295   1.627   5.949   9.938  0.0049  2.7013  0.4060
   7823SM   C6S10296   1.518   5.871   9.757  0.1147  0.2493 -0.4463
   7823SM   H6S10297   1.458   5.779   9.740 -2.2496  1.7176 -0.3404
   7823SM   H6T10298   1.620   5.836   9.729 -0.4290 -1.4108 -0.4502
   7823SM   C7S10299   1.481   5.978   9.646  0.7577 -0.2134 -0.1582
   7823SM   H7S10300   1.375   6.009   9.644  1.2371  1.5012 -1.3843
   7823SM   H7T10301   1.485   5.916   9.553 -2.2761 -2.5960  1.1486
   7823SM   C8S10302   1.574   6.099   9.649  0.4956  0.0952 -0.0785
   7823SM   H8S10303   1.682   6.080   9.669  0.1411 -1.4877  0.4787
   7823SM   H8T10304   1.532   6.168   9.725 -4.2977  0.4335 -2.6252
   7823SM   C9S10305   1.586   6.170   9.512 -0.0756  0.0725  0.3421
   7823SM   H9S10306   1.645   6.104   9.445  0.5950 -0.4195  1.3839
   7823SM   H9T10307   1.648   6.262   9.515  0.2598 -0.0858 -1.1059
   7823SM  C10S10308   1.455   6.215   9.452  0.7615 -0.2767 -0.3868
   7823SM  H10S10309   1.403   6.301   9.499 -0.6188  1.7483 -4.9916
   7823SM  H10T10310   1.386   6.129   9.434  1.8553 -1.1363 -0.5534
   7823SM  C11S10311   1.477   6.262   9.308 -0.0365 -0.1605 -0.0995
   7823SM  H11S10312   1.522   6.171   9.262  1.1785  0.0085  0.6837
   7823SM  H11T10313   1.561   6.335   9.307  0.3726 -0.6016  0.6467
   7823SM  C12S10314   1.339   6.308   9.245 -0.2903  0.3932  1.0243
   7823SM  H12S10315   1.312   6.406   9.290  0.4127  1.7327 -1.3505
   7823SM  H12T10316   1.255   6.238   9.263  0.2498 -0.8251 -0.9305
   7823SM  C13S10317   1.345   6.350   9.092  0.6546 -0.0445  0.2627
   7823SM  H13S10318   1.357   6.249   9.047 -1.5023 -0.7603  1.1100
   7823SM  H13T10319   1.428   6.414   9.057 -0.5287  0.5704 -1.5891
   7823SM  C14S10320   1.210   6.408   9.052  0.2042  0.6296 -0.3906
   7823SM  H14S10321   1.226   6.438   8.946  0.8781 -2.7413 -1.3409
   7823SM  H14T10322   1.191   6.502   9.108 -1.9262 -0.6051  1.0637
   7823SM  C15S10323   1.096   6.308   9.054  0.3184  0.3401  0.0441
   7823SM  H15S10324   1.068   6.276   9.157 -1.0297  0.9049 -0.1165
   7823SM  H15T10325   1.133   6.217   9.003  0.3161  0.8442 -0.8614
   7823SM  C16S10326   0.971   6.334   8.960 -0.0128  0.2430  0.4545
   7823SM  H16S10327   0.907   6.243   8.966 -0.4179  0.5957  1.9296
   7823SM  H16T10328   1.011   6.338   8.856 -1.2137 -0.2947 -0.0526
   7823SM  C17S10329   0.894   6.467   8.990  0.3994  0.2288  0.2888
   7823SM  H17S10330   0.970   6.545   8.971  1.6085 -0.8844  0.4057
   7823SM  H17T10331   0.880   6.475   9.100 -1.1932  0.0042  0.1320
   7823SM  C18S10332   0.766   6.484   8.898 -0.3275 -0.0794  0.7421
   7823SM  H18S10333   0.723   6.585   8.914  1.1391  0.6307  0.3585
   7823SM  H18T10334   0.692   6.403   8.914 -0.5898 -0.2009 -0.9127
   7823SM  H18U10335   0.788   6.481   8.789 -1.8750 -0.4411  0.4160
   7823SM   C1F10336   1.372   6.358   9.942 -0.2702 -0.7570  0.4609
   7823SM    OF10337   1.468   6.417   9.981 -0.6306  0.0955 -0.2459
   7823SM   C2F10338   1.269   6.427   9.854  0.7383 -0.2657  0.4460
   7823SM   H2F10339   1.334   6.495   9.795  1.9179 -0.7605  1.1438
   7823SM   H2G10340   1.202   6.482   9.924  0.5609 -1.4622  1.2576
   7823SM   C3F10341   1.173   6.342   9.770  0.0348 -0.0480  0.3174
   7823SM   H3F10342   1.087   6.296   9.823 -0.5823 -0.1712 -0.7807
   7823SM   H3G10343   1.221   6.265   9.706 -0.6322 -0.1735 -0.0466
   7823SM   C4F10344   1.112   6.434   9.661  0.4780 -0.2781  0.2417
   7823SM   H4F10345   1.184   6.486   9.594 -1.1604  1.3564 -0.3231
   7823SM   H4G10346   1.044   6.511   9.702 -0.9945 -0.4580 -1.6897
   7823SM   C5F10347   1.022   6.347   9.570  0.6074  0.0874 -0.2783
   7823SM   H5F10348   0.952   6.285   9.631  0.0353  1.3272  0.3644
   7823SM   H5G10349   1.084   6.283   9.503 -0.4914 -0.9364 -0.3615
   7823SM   C6F10350   0.937   6.437   9.481 -0.7448  0.1825  0.1195
   7823SM   H6F10351   1.002   6.518   9.441  1.9079 -0.9726  1.8279
   7823SM   H6G10352   0.852   6.476   9.541  0.1736  0.3740  1.3326
   7823SM   C7F10353   0.869   6.369   9.367 -0.0621 -0.0452  0.3633
   7823SM   H7F10354   0.950   6.329   9.302 -0.8762 -0.8975 -0.1580
   7823SM   H7G10355   0.807   6.442   9.312  1.1174  0.2699 -0.5626
   7823SM   C8F10356   0.777   6.251   9.400  0.0817  0.6053 -0.6055
   7823SM   H8F10357   0.693   6.285   9.464  1.3543 -0.7974  1.9817
   7823SM   H8G10358   0.834   6.169   9.448 -0.4076  1.5629  1.7372
   7823SM   C9F10359   0.718   6.185   9.265 -0.3167 -1.0036 -0.5923
   7823SM   H9F10360   0.800   6.145   9.201  1.9063 -0.1821  1.5697
   7823SM   H9G10361   0.659   6.261   9.211  2.9467  1.8021 -0.5215
   7823SM  C10F10362   0.637   6.061   9.291 -0.8114  0.5565 -0.6924
   7823SM  H10F10363   0.552   6.080   9.359  0.0799 -1.7603  1.2027
   7823SM  H10G10364   0.688   5.980   9.347  0.8433  0.1499 -2.6628
   7823SM  C11F10365   0.582   6.003   9.158 -0.4347  0.5383  0.0659
   7823SM  H11F10366   0.575   6.087   9.085 -0.8453 -1.1275 -1.8977
   7823SM  H11G10367   0.486   5.948   9.164  0.5038 -1.4359 -1.6489
   7823SM  C12F10368   0.675   5.895   9.106  0.4395 -0.0661 -0.0557
   7823SM  H12F10369   0.653   5.814   9.178 -0.3653 -1.6596 -1.9722
   7823SM  H12G10370   0.776   5.942   9.110  0.1691  0.5707 -0.4567
   7823SM  C13F10371   0.669   5.832   8.965  0.0987 -0.0795  0.3956
   7823SM  H13F10372   0.600   5.746   8.974  0.9248 -0.8014  0.0731
   7823SM  H13G10373   0.766   5.782   8.941  0.5768  1.4255 -0.9641
   7823SM  C14F10374   0.644   5.927   8.847  0.1125  0.4964  0.7707
   7823SM  H14F10375   0.722   6.004   8.830 -2.0947  3.1374  1.7850
   7823SM  H14G10376   0.547   5.981   8.857 -0.0828  0.2404  0.2518
   7823SM  C15F10377   0.652   5.840   8.714 -0.4631  0.7926  0.0208
   7823SM  H15F10378   0.570   5.765   8.719  0.6261 -0.3777  0.6185
   7823SM  H15G10379   0.753   5.795   8.707  0.2322  2.4476 -1.4141
   7823SM  C16F10380   0.624   5.925   8.589  0.0567 -0.4176 -0.6409
   7823SM  H16F10381   0.518   5.957   8.601  0.4969  1.5143 -1.4959
   7823SM  H16G10382   0.631   5.865   8.495  0.2100  1.1457 -1.6683
   7823SM  C17F10383   0.703   6.059   8.573  0.5732 -0.0566 -0.4399
   7823SM  H17F10384   0.810   6.031   8.590  0.0492 -1.5210  0.6561
   7823SM  H17G10385   0.685   6.125   8.660 -0.9325  0.0498 -0.8103
   7823SM  C18F10386   0.682   6.131   8.441 -0.4627 -0.4610  0.5058
   7823SM  H18F10387   0.725   6.233   8.456  0.1438 -0.7782  0.9987
   7823SM  H18G10388   0.574   6.138   8.418  0.0300  0.1884 -1.8996
   7823SM  C19F10389   0.761   6.071   8.323  0.0917  0.6115  0.2937
   7823SM  H19F10390   0.730   5.967   8.301 -0.5551  1.3577 -2.7029
   7823SM  H19G10391   0.869   6.069   8.348  0.5535 -0.9099 -1.5936
   7823SM  C20F10392   0.758   6.171   8.204 -0.0494  0.6123  0.4552
   7823SM  H20F10393   0.858   6.163   8.156  0.3364 -1.6612  1.5164
   7823SM  H20G10394   0.747   6.275   8.242 -0.1043  0.6595  0.3095
   7823SM  C21F10395   0.636   6.159   8.109 -0.5514 -1.2580 -0.3700
   7823SM  H21F10396   0.540   6.173   8.165  0.2053 -2.0529  1.1805
   7823SM  H21G10397   0.636   6.060   8.060 -0.4686 -0.8105 -1.2942
   7823SM  C22F10398   0.651   6.256   7.987  0.2070 -0.3220  0.0187
   7823SM  H22F10399   0.588   6.221   7.902 -0.6957  1.3989 -0.0611
   7823SM  H22G10400   0.753   6.253   7.941  0.0477 -1.3230 -0.3118
   7823SM  C23F10401   0.596   6.396   8.023  0.2648  0.3775 -0.0832
   7823SM  H23F10402   0.663   6.442   8.098  2.6060 -1.2308 -1.0519
   7823SM  H23G10403   0.497   6.393   8.071  0.6033 -3.3018  0.7035
   7823SM  H23H10404   0.584   6.464   7.936 -1.7879 -0.0258 -0.1595
   7923SM     N10405   6.333   0.104  10.877  0.2595 -0.0982  1.1351
   7923SM   C1510406   6.420   0.221  10.890 -0.1284 -0.2180 -0.4328
   7923SM  H15A10407   6.412   0.275  10.796  1.2279 -0.2314 -0.5808
   7923SM  H15B10408   6.524   0.193  10.895  0.1723  0.9869  0.7183
   7923SM  H15C10409   6.397   0.278  10.978  0.2256 -1.0716  0.2204
   7923SM   C1410410   6.371  -0.004  10.982 -0.5758 -0.1058 -0.1734
   7923SM  H14A10411   6.292  -0.075  10.993  0.0497 -0.8920 -0.6449
   7923SM  H14B10412   6.378   0.038  11.081 -1.9938 -1.4583  0.5296
   7923SM  H14C10413   6.459  -0.056  10.948 -0.0417 -0.2312  1.3522
   7923SM   C1310414   6.198   0.147  10.907  0.5623 -0.2586 -0.1670
   7923SM  H13A10415   6.182   0.171  11.011  0.8230  1.2158 -0.4420
   7923SM  H13B10416   6.128   0.067  10.885  0.4619 -0.7595  1.8314
   7923SM  H13C10417   6.172   0.225  10.837  0.7191  0.3939  0.4953
   7923SM   C1210418   6.344   0.049  10.739 -0.1401  0.9958  0.4044
   7923SM  H12A10419   6.263  -0.023  10.736 -0.3623  1.2740 -2.1013
   7923SM  H12B10420   6.437  -0.000  10.714 -2.1218 -2.6327 -0.5825
   7923SM   C1110421   6.315   0.144  10.615  0.0164  0.5889 -0.1370
   7923SM  H11A10422   6.221   0.201  10.621 -1.0691 -0.9678 -1.5052
   7923SM  H11B10423   6.315   0.067  10.535  1.5786  0.3716  0.0313
   7923SM     P10424   6.553   0.207  10.527  0.2300  0.0481 -0.1500
   7923SM   O1310425   6.639   0.325  10.535  0.1428 -0.4651 -0.2502
   7923SM   O1410426   6.614   0.084  10.574  0.3179 -0.5724 -0.1820
   7923SM   O1110427   6.502   0.187  10.378  0.3540  0.0528  0.4165
   7923SM   O1210428   6.420   0.244  10.595 -0.9221  0.0603  0.5062
   7923SM   C1S10429   6.437   0.300  10.318 -0.1116 -0.5020  0.1864
   7923SM   H1S10430   6.492   0.395  10.333 -0.4922 -0.3598  0.6990
   7923SM   H1T10431   6.335   0.316  10.360  0.2721  0.2187  0.8446
   7923SM    NF10432   6.382   0.393  10.095  0.5076  0.2132 -0.3498
   7923SM   HNF10433   6.293   0.413  10.055  0.1197  1.5206  1.0552
   7923SM   C2S10434   6.412   0.268  10.165  0.2472  0.2992  0.4205
   7923SM   H2S10435   6.508   0.231  10.124 -0.5024 -0.3554 -0.8066
   7923SM   C3S10436   6.303   0.155  10.153  0.0991 -0.1369 -0.5144
   7923SM   H3S10437   6.207   0.180  10.204  0.0669  0.7136 -0.9799
   7923SM    O310438   6.336   0.036  10.225 -0.2799  0.2542  0.8594
   7923SM   HO310439   6.399   0.063  10.291 -0.7264 -2.0723  2.3688
   7923SM   C4S10440   6.266   0.129  10.006 -0.6237  0.1042  0.8205
   7923SM   H4S10441   6.169   0.168   9.972 -0.1907 -0.6291 -1.4136
   7923SM   C5S10442   6.332   0.051   9.914 -0.4602 -0.5436 -0.5067
   7923SM   H5S10443   6.422  -0.003   9.947 -0.2751  0.0153 -0.0845
   7923SM   C6S10444   6.299   0.043   9.764  0.4975  0.2534  0.0936
   7923SM   H6S10445   6.394   0.045   9.707  0.3731 -2.5892 -0.3575
   7923SM   H6T10446   6.245   0.132   9.726  0.6293 -0.1402 -1.0745
   7923SM   C7S10447   6.232  -0.085   9.722  0.8107  0.5483 -0.0998
   7923SM   H7S10448   6.148  -0.116   9.787  1.2337 -1.2669 -0.3680
   7923SM   H7T10449   6.307  -0.165   9.738 -0.9352 -1.2580 -0.5009
   7923SM   C8S10450   6.189  -0.077   9.578  1.2587 -0.2076  0.2793
   7923SM   H8S10451   6.163   0.027   9.549 -0.5069 -1.1133 -1.6356
   7923SM   H8T10452   6.092  -0.132   9.574  0.5539  0.8684  1.5996
   7923SM   C9S10453   6.285  -0.136   9.472  0.2828  0.4979 -0.0046
   7923SM   H9S10454   6.315  -0.239   9.500 -0.9852  0.0563 -0.2018
   7923SM   H9T10455   6.381  -0.081   9.471  0.4909  0.1489  0.3467
   7923SM  C10S10456   6.222  -0.172   9.334  0.4037  0.0156 -0.3875
   7923SM  H10S10457   6.175  -0.081   9.292 -1.0192 -0.5085  0.0288
   7923SM  H10T10458   6.133  -0.237   9.346 -1.4302  1.8932 -2.6919
   7923SM  C11S10459   6.321  -0.241   9.239  0.2264  0.2727  0.1465
   7923SM  H11S10460   6.385  -0.320   9.285  0.3292 -0.5463 -1.3252
   7923SM  H11T10461   6.398  -0.169   9.206  0.3633  0.9180  1.8161
   7923SM  C12S10462   6.255  -0.314   9.124  0.6009 -0.0112 -0.2208
   7923SM  H12S10463   6.218  -0.240   9.051 -0.0176  0.2266  0.3283
   7923SM  H12T10464   6.167  -0.362   9.171  1.5109 -2.4147 -0.8241
   7923SM  C13S10465   6.336  -0.430   9.060  0.1464 -0.6646  0.1836
   7923SM  H13S10466   6.305  -0.529   9.099 -0.4581 -1.5221 -2.2868
   7923SM  H13T10467   6.444  -0.418   9.082 -0.2685  2.2153  1.0326
   7923SM  C14S10468   6.334  -0.421   8.903  0.1399 -0.9927 -0.3365
   7923SM  H14S10469   6.414  -0.495   8.878  0.4622 -0.9100  0.4303
   7923SM  H14T10470   6.369  -0.324   8.863  1.8923 -2.1809 -1.8709
   7923SM  C15S10471   6.201  -0.470   8.850 -0.1253 -0.3889  0.3933
   7923SM  H15S10472   6.121  -0.394   8.860 -2.5540 -2.6405 -0.6175
   7923SM  H15T10473   6.174  -0.566   8.898  0.6865 -0.4062  0.8399
   7923SM  C16S10474   6.197  -0.500   8.699  0.4040  0.2447  0.3939
   7923SM  H16S10475   6.226  -0.407   8.647 -0.7687 -0.5937 -1.9343
   7923SM  H16T10476   6.095  -0.533   8.672  0.5051 -1.4117  1.8832
   7923SM  C17S10477   6.293  -0.610   8.650 -0.1374 -0.5151 -0.3484
   7923SM  H17S10478   6.271  -0.696   8.716 -0.7878 -0.4911 -0.5340
   7923SM  H17T10479   6.399  -0.577   8.658 -0.3885  0.5298 -1.1105
   7923SM  C18S10480   6.251  -0.650   8.511  0.0665  0.1941 -0.5166
   7923SM  H18S10481   6.312  -0.735   8.472 -0.4390 -0.2261 -0.3939
   7923SM  H18T10482   6.248  -0.562   8.442 -0.8913 -0.8035 -1.7967
   7923SM  H18U10483   6.148  -0.691   8.519  0.8821 -1.8715  0.0159
   7923SM   C1F10484   6.466   0.495  10.081  0.5472  0.2025 -0.3551
   7923SM    OF10485   6.587   0.478  10.102  0.1016  0.9833 -0.5784
   7923SM   C2F10486   6.406   0.630  10.051 -0.5565  0.4875 -0.0597
   7923SM   H2F10487   6.413   0.681  10.150 -0.4753 -0.7492  0.5960
   7923SM   H2G10488   6.299   0.615  10.026 -1.1916  1.8526  1.6434
   7923SM   C3F10489   6.476   0.709   9.941  0.1607 -0.5729 -0.6362
   7923SM   H3F10490   6.577   0.740   9.972 -0.6819  2.6513 -0.7939
   7923SM   H3G10491   6.425   0.805   9.917  0.0673  0.0948  1.9336
   7923SM   C4F10492   6.476   0.632   9.807  0.2277  0.4522 -0.0263
   7923SM   H4F10493   6.377   0.586   9.786  1.8974 -3.1525 -0.7800
   7923SM   H4G10494   6.543   0.544   9.813 -0.7002 -0.5707 -2.9492
   7923SM   C5F10495   6.509   0.716   9.687  0.2290 -0.6083  0.0875
   7923SM   H5F10496   6.600   0.773   9.716 -0.2647  0.8397 -1.1147
   7923SM   H5G10497   6.425   0.787   9.670 -0.5861 -1.0816  1.8597
   7923SM   C6F10498   6.522   0.648   9.555 -0.9332  0.0024  0.6810
   7923SM   H6F10499   6.424   0.595   9.544 -0.2317 -1.7597  2.2848
   7923SM   H6G10500   6.598   0.568   9.567 -0.4079  0.4559  0.3977
   7923SM   C7F10501   6.557   0.744   9.438  0.2855  0.5955 -0.3500
   7923SM   H7F10502   6.646   0.800   9.475 -0.0898 -0.6157  2.6861
   7923SM   H7G10503   6.467   0.800   9.405 -0.0636 -0.8373 -1.9866
   7923SM   C8F10504   6.596   0.658   9.315 -0.8027 -0.8209  0.0885
   7923SM   H8F10505   6.646   0.563   9.343 -1.2628 -0.7701  1.1107
   7923SM   H8G10506   6.663   0.721   9.251 -0.3775  0.9528  2.1692
   7923SM   C9F10507   6.469   0.627   9.228 -0.2295 -0.0778  0.0825
   7923SM   H9F10508   6.404   0.717   9.238 -0.5600 -0.2778 -0.2271
   7923SM   H9G10509   6.422   0.540   9.278 -0.1832  1.0825  2.2935
   7923SM  C10F10510   6.488   0.599   9.075 -0.1260 -0.1321  0.1290
   7923SM  H10F10511   6.550   0.507   9.062  0.5554  0.4887 -1.2169
   7923SM  H10G10512   6.551   0.674   9.023  0.5403  0.0016  1.0902
   7923SM  C11F10513   6.354   0.573   8.999  0.1367  0.9488  0.6287
   7923SM  H11F10514   6.281   0.657   8.999  0.1219  0.9508 -0.6478
   7923SM  H11G10515   6.304   0.488   9.049  0.5812  0.2771 -0.0599
   7923SM  C12F10516   6.382   0.530   8.854  0.1792  0.0891  0.3511
   7923SM  H12F10517   6.292   0.473   8.822 -0.0929  0.6679  0.0625
   7923SM  H12G10518   6.462   0.456   8.839 -1.2381 -1.2090 -1.1933
   7923SM  C13F10519   6.404   0.651   8.764 -0.4097 -0.4411  0.8703
   7923SM  H13F10520   6.465   0.719   8.828 -1.2872  0.0281  1.2322
   7923SM  H13G10521   6.314   0.713   8.744  0.7799  0.1194 -3.9879
   7923SM  C14F10522   6.474   0.621   8.630  0.3413  0.5206 -0.5483
   7923SM  H14F10523   6.559   0.556   8.661  0.4340  1.1847  0.6211
   7923SM  H14G10524   6.524   0.711   8.589  1.8311  0.5401  1.1496
   7923SM  C15F10525   6.382   0.538   8.537 -0.4844 -0.2848 -0.0667
   7923SM  H15F10526   6.290   0.592   8.505 -0.2082  0.2531  0.0260
   7923SM  H15G10527   6.350   0.449   8.594 -0.7106  1.2031  2.2928
   7923SM  C16F10528   6.460   0.507   8.410 -0.4135 -0.1185  0.2442
   7923SM  H16F10529   6.569   0.491   8.422  0.1148  0.6172 -2.8541
   7923SM  H16G10530   6.438   0.583   8.332  1.0016 -1.1197 -1.1933
   7923SM  C17F10531   6.412   0.371   8.350 -0.2337 -0.0465  0.3150
   7923SM  H17F10532   6.301   0.375   8.339 -0.1350  2.4775 -0.3913
   7923SM  H17G10533   6.433   0.287   8.419 -0.4776 -0.3407  0.0372
   7923SM  C18F10534   6.472   0.335   8.211  0.4264 -0.0334  0.5491
   7923SM  H18F10535   6.583   0.328   8.223  0.6523  1.9248 -0.1680
   7923SM  H18G10536   6.451   0.422   8.145 -0.7740 -0.2347  0.6475
   7923SM  C19F10537   6.416   0.199   8.168  0.0988  0.2349  0.7188
   7923SM  H19F10538   6.306   0.214   8.173 -0.1406 -1.5604  1.7459
   7923SM  H19G10539   6.440   0.108   8.227  1.1644  1.1842  1.7846
   7923SM  C20F10540   6.464   0.168   8.023 -0.0787 -0.3170  0.4547
   7923SM  H20F10541   6.496   0.265   7.980  0.9323 -0.3831  1.0299
   7923SM  H20G10542   6.377   0.129   7.966  0.4734 -0.0625 -0.5896
   7923SM  C21F10543   6.580   0.064   8.004 -0.1751 -0.2379 -0.2165
   7923SM  H21F10544   6.653   0.061   8.087  0.6327  1.4752 -0.8271
   7923SM  H21G10545   6.634   0.081   7.908 -0.6012 -0.4700 -0.5044
   7923SM  C22F10546   6.530  -0.085   7.983  0.2173 -0.7143 -0.3194
   7923SM  H22F10547   6.495  -0.088   7.877 -0.9921  0.8494 -0.0035
   7923SM  H22G10548   6.449  -0.111   8.055  1.8726 -2.7298  0.9382
   7923SM  C23F10549   6.639  -0.186   8.021  0.3334  0.5906  0.5888
   7923SM  H23F10550   6.666  -0.179   8.129  1.4515  0.0500  0.3653
   7923SM  H23G10551   6.730  -0.169   7.960  1.9370 -1.5703  2.2223
   7923SM  H23H10552   6.607  -0.287   7.989  1.7262 -0.0603  1.1608
   8023SM     N10553   1.363   0.354  10.007  0.4938 -0.7421 -0.2848
   8023SM   C1510554   1.496   0.368   9.940 -0.0365 -0.2015 -0.1617
   8023SM  H15A10555   1.558   0.451   9.972 -1.8990  1.3290 -0.3752
   8023SM  H15B10556   1.490   0.405   9.839  2.6117 -0.9019 -0.6548
   8023SM  H15C10557   1.542   0.272   9.922  0.4319  0.1516 -0.9437
   8023SM   C1410558   1.288   0.265   9.916  0.7671 -0.2236 -0.0680
   8023SM  H14A10559   1.197   0.228   9.960 -0.3719  1.2875 -1.0422
   8023SM  H14B10560   1.351   0.191   9.869  0.2172 -0.7593  0.0233
   8023SM  H14C10561   1.247   0.312   9.828  0.9754 -0.4928 -0.3098
   8023SM   C1310562   1.388   0.285  10.142  0.7787 -0.4130 -0.2917
   8023SM  H13A10563   1.290   0.262  10.183  0.8065  1.9794  1.3037
   8023SM  H13B10564   1.432   0.357  10.208  2.1980 -0.8705 -0.7107
   8023SM  H13C10565   1.447   0.196  10.124  0.0219 -0.6951 -1.5473
   8023SM   C1210566   1.291   0.488  10.026 -0.6878  0.4536 -0.5149
   8023SM  H12A10567   1.283   0.533   9.928 -2.8428  0.2712 -0.4593
   8023SM  H12B10568   1.348   0.553  10.091 -0.0881  0.0366 -0.6093
   8023SM   C1110569   1.145   0.488  10.060 -0.1814  0.3626 -0.0553
   8023SM  H11A10570   1.090   0.450   9.971  0.4337 -2.6184  0.7004
   8023SM  H11B10571   1.109   0.590  10.082 -0.6661  0.4983 -1.3884
   8023SM     P10572   1.000   0.309  10.193  0.2441  0.4578  0.0952
   8023SM   O1310573   1.047   0.189  10.269 -0.0669 -0.0795 -0.3119
   8023SM   O1410574   0.889   0.392  10.260  0.3318  0.8194 -0.4946
   8023SM   O1110575   0.955   0.261  10.045 -0.2580  0.3626 -0.7726
   8023SM   O1210576   1.122   0.407  10.176 -0.4288  0.9053  0.4573
   8023SM   C1S10577   0.840   0.312   9.989  0.4307  0.1116  0.4563
   8023SM   H1S10578   0.835   0.423   9.992 -1.7439  0.1648 -1.8642
   8023SM   H1T10579   0.753   0.275  10.047 -0.4734 -1.1258 -1.5726
   8023SM    NF10580   0.707   0.360   9.785 -0.1095 -0.5482 -0.3052
   8023SM   HNF10581   0.612   0.337   9.802  0.3087 -1.7828  0.4829
   8023SM   C2S10582   0.813   0.273   9.841 -0.0364 -0.2440  0.0761
   8023SM   H2S10583   0.909   0.287   9.788 -0.8899  0.2548 -1.4086
   8023SM   C3S10584   0.773   0.121   9.828 -0.3311  0.0056 -0.7514
   8023SM   H3S10585   0.672   0.117   9.874  0.2454 -1.6156  0.4696
   8023SM    O310586   0.850   0.035   9.912  0.2667  0.2221  0.6508
   8023SM   HO310587   0.900   0.095   9.968 -0.2094 -0.4950  1.8648
   8023SM   C4S10588   0.758   0.078   9.686 -0.0759 -0.8289  0.0224
   8023SM   H4S10589   0.654   0.079   9.650  0.0536 -2.9907 -0.5588
   8023SM   C5S10590   0.851   0.016   9.610 -0.7428 -0.2037  0.0371
   8023SM   H5S10591   0.949  -0.001   9.657 -1.5043 -0.4355  1.5911
   8023SM   C6S10592   0.840  -0.025   9.465  0.4571  0.4435 -0.0292
   8023SM   H6S10593   0.884  -0.125   9.446 -0.7316 -0.3391  1.1403
   8023SM   H6T10594   0.894   0.045   9.398 -0.6360  0.2426 -1.1435
   8023SM   C7S10595   0.696  -0.025   9.414 -0.2012  0.6433  0.2785
   8023SM   H7S10596   0.639   0.068   9.438  1.3168  1.6220  0.2400
   8023SM   H7T10597   0.645  -0.108   9.468  1.2027  2.0531  4.1480
   8023SM   C8S10598   0.675  -0.058   9.266 -0.2459  0.1432  0.1743
   8023SM   H8S10599   0.723  -0.154   9.239 -0.1049  0.3594 -0.3510
   8023SM   H8T10600   0.735   0.014   9.207  1.7663 -1.1426  0.5405
   8023SM   C9S10601   0.527  -0.059   9.218  1.0676  0.4074  0.2045
   8023SM   H9S10602   0.480   0.037   9.248  1.9066 -0.1190  3.7628
   8023SM   H9T10603   0.481  -0.146   9.268 -1.2987  0.6388 -1.4358
   8023SM  C10S10604   0.520  -0.079   9.069  0.5477  0.4500 -0.4532
   8023SM  H10S10605   0.583  -0.165   9.038 -0.5290 -0.3754 -0.4332
   8023SM  H10T10606   0.551   0.019   9.027  1.8994  0.4606  0.5210
   8023SM  C11S10607   0.371  -0.108   9.026 -0.7145  0.3755 -0.3837
   8023SM  H11S10608   0.314  -0.022   9.065 -0.4573  0.6089 -0.5165
   8023SM  H11T10609   0.339  -0.207   9.067 -2.4659  0.8142 -0.6476
   8023SM  C12S10610   0.350  -0.091   8.874 -0.3258  0.1780  0.4396
   8023SM  H12S10611   0.385   0.008   8.838 -2.4752  0.1546 -1.9633
   8023SM  H12T10612   0.241  -0.098   8.855 -0.2713 -0.0740  0.2150
   8023SM  C13S10613   0.418  -0.206   8.791  0.1801 -0.0205  0.4388
   8023SM  H13S10614   0.373  -0.305   8.814 -1.9184  0.8573  0.4068
   8023SM  H13T10615   0.523  -0.221   8.820  0.6708 -2.0869 -2.0346
   8023SM  C14S10616   0.429  -0.162   8.641  0.0789  0.0366 -0.1256
   8023SM  H14S10617   0.477  -0.063   8.653  2.7937 -1.2950  0.9250
   8023SM  H14T10618   0.323  -0.156   8.612 -0.1123 -2.2871 -0.1158
   8023SM  C15S10619   0.517  -0.259   8.563 -0.1510 -0.7527  0.2449
   8023SM  H15S10620   0.462  -0.291   8.472 -1.3240 -0.1424  0.7161
   8023SM  H15T10621   0.547  -0.351   8.620  1.8267  0.9372  2.1250
   8023SM  C16S10622   0.643  -0.189   8.508  0.1502  0.3104 -0.5410
   8023SM  H16S10623   0.702  -0.139   8.588 -0.5593 -0.7920  0.7123
   8023SM  H16T10624   0.595  -0.113   8.443 -2.8243 -0.6263  0.3669
   8023SM  C17S10625   0.721  -0.281   8.413 -0.2615  0.5020 -0.0763
   8023SM  H17S10626   0.659  -0.334   8.338  0.3209 -1.0078  0.4759
   8023SM  H17T10627   0.745  -0.362   8.485  1.2002  0.4643 -0.5692
   8023SM  C18S10628   0.848  -0.232   8.338 -0.4330 -0.2131  0.3040
   8023SM  H18S10629   0.889  -0.311   8.271  2.2286  0.5337  0.9329
   8023SM  H18T10630   0.929  -0.203   8.408 -0.5359  2.4094 -0.5519
   8023SM  H18U10631   0.832  -0.139   8.280  2.6330  1.1910  1.5224
   8023SM   C1F10632   0.728   0.488   9.746 -0.0102 -0.0353 -0.2896
   8023SM    OF10633   0.843   0.527   9.752  0.2573  0.2447  0.3559
   8023SM   C2F10634   0.624   0.576   9.691  0.0569  0.8775 -0.4179
   8023SM   H2F10635   0.662   0.680   9.696  1.3052  0.4105  0.2310
   8023SM   H2G10636   0.533   0.575   9.755  0.2602 -1.1855 -0.0769
   8023SM   C3F10637   0.585   0.544   9.546 -0.3476  0.3031  0.1150
   8023SM   H3F10638   0.533   0.447   9.563  1.0092  0.1063  4.1566
   8023SM   H3G10639   0.675   0.533   9.482 -0.0455 -1.6067  0.8011
   8023SM   C4F10640   0.488   0.639   9.487 -0.0187  0.2524 -0.3735
   8023SM   H4F10641   0.409   0.669   9.559  1.0780  2.2663  0.0921
   8023SM   H4G10642   0.441   0.594   9.397  1.1841  1.2271 -1.5556
   8023SM   C5F10643   0.551   0.766   9.431  0.1835  0.5266 -0.3230
   8023SM   H5F10644   0.626   0.794   9.508  0.3809 -0.0014 -0.3165
   8023SM   H5G10645   0.482   0.852   9.415 -0.5104 -0.1116 -0.8291
   8023SM   C6F10646   0.609   0.759   9.286  0.0194 -0.1471  0.3922
   8023SM   H6F10647   0.688   0.681   9.277 -1.7650 -2.1028  0.8903
   8023SM   H6G10648   0.649   0.863   9.283 -0.9251  0.1994 -0.9182
   8023SM   C7F10649   0.503   0.732   9.183 -0.3765  0.1110  1.0163
   8023SM   H7F10650   0.421   0.807   9.193 -2.8886 -2.2842 -0.1410
   8023SM   H7G10651   0.446   0.637   9.188  1.0995 -1.3172 -3.9572
   8023SM   C8F10652   0.560   0.741   9.039 -0.7613 -0.8308 -0.2864
   8023SM   H8F10653   0.659   0.690   9.038  0.0559  0.4061  3.0672
   8023SM   H8G10654   0.577   0.846   9.007 -0.4481 -0.5969  0.6084
   8023SM   C9F10655   0.477   0.672   8.929 -0.0186  0.5087  0.3531
   8023SM   H9F10656   0.375   0.716   8.919  0.3540  1.1714 -0.7520
   8023SM   H9G10657   0.473   0.564   8.953 -2.9382 -0.3182 -3.1555
   8023SM  C10F10658   0.538   0.682   8.790 -0.4043  0.1092 -0.6178
   8023SM  H10F10659   0.637   0.632   8.788 -0.8667 -0.9001  0.3873
   8023SM  H10G10660   0.566   0.787   8.767  0.9955 -0.2300 -0.5051
   8023SM  C11F10661   0.447   0.635   8.673  0.0377  0.0982 -0.0262
   8023SM  H11F10662   0.356   0.698   8.670 -1.0983 -1.5119 -0.9790
   8023SM  H11G10663   0.423   0.528   8.692 -2.3628  0.3658 -1.1911
   8023SM  C12F10664   0.525   0.658   8.543 -0.5342 -0.8246  0.3221
   8023SM  H12F10665   0.616   0.600   8.568 -0.9321 -0.8391  1.8377
   8023SM  H12G10666   0.557   0.763   8.525 -2.6401 -0.3363 -0.9408
   8023SM  C13F10667   0.451   0.600   8.422 -0.3950 -0.0484  0.6223
   8023SM  H13F10668   0.356   0.655   8.407 -0.0119  0.6583  0.7563
   8023SM  H13G10669   0.423   0.496   8.452  2.5957 -0.4908  2.3163
   8023SM  C14F10670   0.529   0.617   8.287  0.8737  0.7309 -0.5297
   8023SM  H14F10671   0.632   0.576   8.300 -0.0092 -1.4101  0.3281
   8023SM  H14G10672   0.542   0.725   8.268 -1.1890  1.1326  0.0733
   8023SM  C15F10673   0.463   0.563   8.162 -0.6936 -0.1180  0.3893
   8023SM  H15F10674   0.363   0.607   8.145  0.5827  2.7506 -0.2605
   8023SM  H15G10675   0.451   0.453   8.170  0.0884 -0.1438  1.4570
   8023SM  C16F10676   0.562   0.579   8.040  0.5499 -0.0632  0.1026
   8023SM  H16F10677   0.656   0.526   8.064  0.8211  1.2192  2.1039
   8023SM  H16G10678   0.570   0.690   8.036  0.1578  0.0152  1.0729
   8023SM  C17F10679   0.500   0.516   7.921 -0.4981 -0.5236 -0.5639
   8023SM  H17F10680   0.402   0.555   7.886 -1.4452 -0.7151  1.6554
   8023SM  H17G10681   0.486   0.407   7.940  0.5941 -0.3310  1.7922
   8023SM  C18F10682   0.602   0.525   7.801  0.2443  0.6881 -0.3112
   8023SM  H18F10683   0.700   0.498   7.845  0.4276  0.5096 -0.8245
   8023SM  H18G10684   0.597   0.627   7.758  0.9948  0.4919 -0.8798
   8023SM  C19F10685   0.573   0.432   7.679 -0.2206  0.1815 -0.6117
   8023SM  H19F10686   0.646   0.461   7.601  0.8348  3.3173  1.3549
   8023SM  H19G10687   0.469   0.454   7.643 -0.5937  0.1685  0.4282
   8023SM  C20F10688   0.594   0.277   7.722 -0.2616 -0.3808 -0.4014
   8023SM  H20F10689   0.545   0.260   7.820 -2.3195 -0.7360 -1.4303
   8023SM  H20G10690   0.700   0.251   7.740 -0.3027 -0.6597 -0.5567
   8023SM  C21F10691   0.529   0.186   7.617 -0.0754 -0.0500  0.0255
   8023SM  H21F10692   0.565   0.207   7.514  2.1045 -0.9450  0.5550
   8023SM  H21G10693   0.418   0.194   7.628 -0.0247  2.5053 -0.7779
   8023SM  C22F10694   0.581   0.041   7.638 -0.6705 -0.3181  0.0330
   8023SM  H22F10695   0.535   0.018   7.736  0.1652 -0.8230  0.3231
   8023SM  H22G10696   0.692   0.048   7.648 -0.8336 -0.3184  2.2590
   8023SM  C23F10697   0.548  -0.058   7.528  0.1194  0.1634 -0.0860
   8023SM  H23F10698   0.593  -0.022   7.433  0.4128 -0.4501 -0.1819
   8023SM  H23G10699   0.438  -0.068   7.536  0.3123 -0.7996  2.8115
   8023SM  H23H10700   0.593  -0.156   7.554  0.8993  0.5224 -0.0661
   8123SM     N10701   3.674   3.924   5.101 -0.0901 -0.1638  0.7133
   8123SM   C1510702   3.687   3.838   4.979  0.0239  0.1458  0.1782
   8123SM  H15A10703   3.607   3.767   4.965 -0.4381  1.0234 -2.0499
   8123SM  H15B10704   3.779   3.781   4.983  0.4677  0.7801 -0.5468
   8123SM  H15C10705   3.696   3.907   4.896  0.5583  1.4983  1.3260
   8123SM   C1410706   3.805   4.002   5.118 -0.2307 -1.0125  0.2394
   8123SM  H14A10707   3.815   4.042   5.217 -0.9547 -0.0506 -0.0633
   8123SM  H14B10708   3.797   4.084   5.048 -1.3771  0.0141  1.5177
   8123SM  H14C10709   3.891   3.938   5.101 -1.3573 -3.0712  1.8254
   8123SM   C1310710   3.556   4.013   5.095  0.8016  0.7134  0.2862
   8123SM  H13A10711   3.457   3.978   5.071  0.4475  1.4374  0.6640
   8123SM  H13B10712   3.575   4.085   5.017 -0.3516  0.5598 -0.1599
   8123SM  H13C10713   3.549   4.079   5.180  0.4004  0.9639  0.0591
   8123SM   C1210714   3.658   3.833   5.228 -0.2468  0.7179  0.8892
   8123SM  H12A10715   3.741   3.765   5.240 -2.6378 -2.7695 -0.5908
   8123SM  H12B10716   3.573   3.767   5.220 -1.2805  1.9738  1.0732
   8123SM   C1110717   3.645   3.911   5.364 -0.7623  0.4792  0.2779
   8123SM  H11A10718   3.722   3.991   5.372 -0.5920  0.3133  0.3096
   8123SM  H11B10719   3.668   3.839   5.445 -1.4064  0.5050  0.4894
   8123SM     P10720   3.463   4.055   5.500 -0.4243 -0.1227  0.0477
   8123SM   O1310721   3.550   4.176   5.500 -0.2832  0.0174 -0.3888
   8123SM   O1410722   3.321   4.069   5.481 -0.0514  0.0165  0.0974
   8123SM   O1110723   3.487   3.981   5.641 -0.0367  0.2045  0.3783
   8123SM   O1210724   3.511   3.953   5.382  0.8027 -0.2433  0.5990
   8123SM   C1S10725   3.456   3.835   5.655  0.1470 -0.4381 -0.0737
   8123SM   H1S10726   3.550   3.781   5.629  2.0283  1.8986  1.4360
   8123SM   H1T10727   3.367   3.801   5.598 -0.1320 -0.4202  0.3475
   8123SM    NF10728   3.367   3.669   5.808 -0.0128  0.8671 -0.3033
   8123SM   HNF10729   3.271   3.641   5.815  0.0996  0.5253 -0.0817
   8123SM   C2S10730   3.413   3.801   5.799  0.8003 -0.4751 -0.1509
   8123SM   H2S10731   3.501   3.817   5.864  1.0146  1.3778 -0.8180
   8123SM   C3S10732   3.308   3.904   5.852 -0.0706  0.3097 -0.7910
   8123SM   H3S10733   3.217   3.901   5.788 -0.6474  0.3310  0.0136
   8123SM    O310734   3.344   4.042   5.842  0.0751 -0.2758  0.0670
   8123SM   HO310735   3.419   4.031   5.784  0.1474  0.0608  0.0962
   8123SM   C4S10736   3.257   3.860   5.991  0.2611 -0.2443  0.7806
   8123SM   H4S10737   3.184   3.778   5.989 -1.7202  1.4655  0.0991
   8123SM   C5S10738   3.303   3.903   6.108 -0.3289 -0.5763 -0.1201
   8123SM   H5S10739   3.395   3.964   6.104 -0.6162 -0.0658  0.8324
   8123SM   C6S10740   3.273   3.871   6.253  0.0045 -0.3218  0.1475
   8123SM   H6S10741   3.212   3.957   6.287  2.1808  2.1347 -1.7654
   8123SM   H6T10742   3.359   3.890   6.320  0.2738  2.4573 -0.8602
   8123SM   C7S10743   3.203   3.734   6.270  0.0854 -0.4795 -0.0892
   8123SM   H7S10744   3.282   3.656   6.264  0.8554  0.1666  1.1354
   8123SM   H7T10745   3.126   3.706   6.196  2.7363 -3.3693 -2.0214
   8123SM   C8S10746   3.134   3.736   6.413 -0.2567  0.7535  0.0946
   8123SM   H8S10747   3.079   3.640   6.426 -0.1343  0.6169 -0.3684
   8123SM   H8T10748   3.058   3.815   6.399 -1.9159 -0.2238  2.6953
   8123SM   C9S10749   3.224   3.755   6.542  0.5429 -0.5173  0.8632
   8123SM   H9S10750   3.274   3.854   6.537 -0.4442  0.0987  2.4160
   8123SM   H9T10751   3.298   3.674   6.558  0.3385 -0.5783  1.5766
   8123SM  C10S10752   3.144   3.759   6.668 -0.0731 -0.0041 -0.1226
   8123SM  H10S10753   3.079   3.848   6.683  0.2645  0.1214  0.6525
   8123SM  H10T10754   3.224   3.766   6.745 -1.2482  1.2066  1.0579
   8123SM  C11S10755   3.051   3.636   6.694  0.1539 -1.0238 -0.2701
   8123SM  H11S10756   3.095   3.537   6.668  0.7584 -0.6122 -0.8441
   8123SM  H11T10757   2.948   3.644   6.654  0.0844  1.8306  0.2585
   8123SM  C12S10758   3.015   3.618   6.847  0.4874 -0.5419  0.2352
   8123SM  H12S10759   2.944   3.699   6.875 -0.9409 -1.7454  0.2578
   8123SM  H12T10760   3.102   3.641   6.911  0.8370 -0.9172 -0.0918
   8123SM  C13S10761   2.943   3.490   6.876  0.3683 -0.8947 -0.1684
   8123SM  H13S10762   3.001   3.398   6.854  1.5197 -0.4017  0.6594
   8123SM  H13T10763   2.852   3.487   6.813 -0.5647 -1.3065  1.1425
   8123SM  C14S10764   2.893   3.508   7.017 -0.2533 -0.6795  0.0836
   8123SM  H14S10765   2.839   3.605   7.031  0.3786 -0.2943 -0.0935
   8123SM  H14T10766   2.978   3.530   7.085 -1.1711 -1.1270  1.4262
   8123SM  C15S10767   2.792   3.407   7.068 -0.5117  0.4922  0.2698
   8123SM  H15S10768   2.840   3.308   7.053  0.4887  0.9641  0.3054
   8123SM  H15T10769   2.691   3.411   7.022 -0.9364 -0.5691  1.0448
   8123SM  C16S10770   2.754   3.426   7.218 -0.6591  0.3988  0.0242
   8123SM  H16S10771   2.700   3.521   7.236 -2.7058 -0.6248 -0.3914
   8123SM  H16T10772   2.851   3.413   7.271 -0.8693  0.5486  0.4507
   8123SM  C17S10773   2.653   3.315   7.252 -0.2963  0.1847  0.3601
   8123SM  H17S10774   2.710   3.222   7.233 -0.2535 -0.7094  4.1738
   8123SM  H17T10775   2.561   3.332   7.191  1.0720  1.3869 -1.5086
   8123SM  C18S10776   2.609   3.309   7.397 -0.7069  0.3222  0.0577
   8123SM  H18S10777   2.539   3.224   7.413 -1.4204  0.7307 -0.7930
   8123SM  H18T10778   2.559   3.399   7.439 -0.0514 -0.0733  1.7971
   8123SM  H18U10779   2.701   3.294   7.457 -0.1382  1.5962 -0.4524
   8123SM   C1F10780   3.442   3.567   5.799 -0.3094  0.4034 -0.4770
   8123SM    OF10781   3.558   3.572   5.762 -0.1091  0.0236 -0.1353
   8123SM   C2F10782   3.381   3.429   5.835 -0.9610  0.3948  0.1072
   8123SM   H2F10783   3.290   3.431   5.900 -0.6147 -1.8870  0.7239
   8123SM   H2G10784   3.459   3.387   5.901 -1.6772 -0.4008  0.4588
   8123SM   C3F10785   3.357   3.327   5.719 -0.0615 -0.3157 -0.0902
   8123SM   H3F10786   3.456   3.286   5.688  1.0480  1.3686  1.0655
   8123SM   H3G10787   3.311   3.375   5.631 -0.9537 -1.0631 -0.0505
   8123SM   C4F10788   3.276   3.206   5.765  0.2659  0.3577 -0.3781
   8123SM   H4F10789   3.251   3.131   5.687 -1.0844 -1.5434  1.7396
   8123SM   H4G10790   3.177   3.239   5.802  0.0011 -0.2424 -0.5481
   8123SM   C5F10791   3.342   3.126   5.879  0.4675 -0.0243  0.0365
   8123SM   H5F10792   3.383   3.176   5.969  0.7262 -3.5832  2.0966
   8123SM   H5G10793   3.436   3.084   5.836  0.6044 -0.5324  0.8174
   8123SM   C6F10794   3.260   3.006   5.935  0.0756 -0.6169  0.6815
   8123SM   H6F10795   3.208   2.969   5.844  0.6510  1.8481 -0.7659
   8123SM   H6G10796   3.176   3.051   5.992 -0.1412 -2.2483  1.6879
   8123SM   C7F10797   3.337   2.903   6.015  0.0868 -0.5479 -0.5581
   8123SM   H7F10798   3.421   2.888   5.944 -0.6480 -0.7132 -1.4079
   8123SM   H7G10799   3.285   2.805   6.028 -2.5792  0.7952 -0.3766
   8123SM   C8F10800   3.377   2.959   6.153 -0.4175  0.5046  0.0900
   8123SM   H8F10801   3.296   3.025   6.191 -0.5983  0.5799 -0.4138
   8123SM   H8G10802   3.462   3.029   6.136  0.5312  0.0796  2.5629
   8123SM   C9F10803   3.418   2.860   6.267 -0.5374  0.3892 -0.6940
   8123SM   H9F10804   3.516   2.809   6.252  0.6604  2.4872 -0.3832
   8123SM   H9G10805   3.329   2.794   6.270 -1.7489  2.0121  0.5093
   8123SM  C10F10806   3.453   2.926   6.401 -0.1746 -0.8653 -0.4677
   8123SM  H10F10807   3.387   3.006   6.440  0.6708 -0.8699  1.0332
   8123SM  H10G10808   3.555   2.966   6.377  0.3413 -2.6377 -1.3470
   8123SM  C11F10809   3.483   2.831   6.517  0.0451  0.3083  0.7765
   8123SM  H11F10810   3.538   2.891   6.592 -0.2500  0.8340  0.5729
   8123SM  H11G10811   3.542   2.749   6.471  3.2999  1.5061  2.4625
   8123SM  C12F10812   3.349   2.778   6.572  0.6956  0.1945  0.4266
   8123SM  H12F10813   3.301   2.700   6.508  0.0468  0.5751  0.4407
   8123SM  H12G10814   3.282   2.866   6.575 -1.2424 -1.2203  0.6423
   8123SM  C13F10815   3.365   2.742   6.721  0.0303 -0.0424  0.5273
   8123SM  H13F10816   3.368   2.835   6.781 -0.2009  1.2795 -1.3954
   8123SM  H13G10817   3.456   2.679   6.717  1.2424  1.6925 -1.1228
   8123SM  C14F10818   3.251   2.661   6.772 -0.1713 -0.0432  0.6561
   8123SM  H14F10819   3.231   2.572   6.708 -1.3591  0.1130  0.7833
   8123SM  H14G10820   3.158   2.721   6.781  0.0364 -0.0026  3.3175
   8123SM  C15F10821   3.274   2.607   6.910  0.3127  1.1139 -0.2140
   8123SM  H15F10822   3.267   2.692   6.981 -2.2825 -1.0390  2.3516
   8123SM  H15G10823   3.374   2.559   6.916 -1.7927 -4.1284 -1.3034
   8123SM  C16F10824   3.180   2.498   6.965 -0.1066 -0.0125  0.1547
   8123SM  H16F10825   3.172   2.414   6.892 -0.2989 -3.0785  3.4005
   8123SM  H16G10826   3.080   2.541   6.986 -0.1023 -0.1522  0.4738
   8123SM  C17F10827   3.230   2.434   7.096 -0.0141 -0.4108  0.0834
   8123SM  H17F10828   3.337   2.411   7.073 -0.1849  0.2707 -1.5512
   8123SM  H17G10829   3.172   2.346   7.128  0.6761 -0.7110  0.5276
   8123SM  C18F10830   3.232   2.534   7.209 -0.3339  0.4328 -0.3425
   8123SM  H18F10831   3.129   2.573   7.205 -0.9681 -1.2301 -0.8847
   8123SM  H18G10832   3.297   2.623   7.194 -0.5147  0.5717 -0.2973
   8123SM  C19F10833   3.258   2.476   7.349  0.1359 -0.7213 -0.6108
   8123SM  H19F10834   3.263   2.549   7.433  0.7417  0.7953 -1.9073
   8123SM  H19G10835   3.358   2.429   7.341 -0.6267 -2.3493 -0.8568
   8123SM  C20F10836   3.173   2.347   7.392 -0.1349 -0.4958  0.4760
   8123SM  H20F10837   3.193   2.309   7.494 -2.0589 -1.5841  0.4950
   8123SM  H20G10838   3.206   2.268   7.321  0.0423  0.2676 -0.3012
   8123SM  C21F10839   3.022   2.378   7.384  0.5566 -0.5335 -0.2722
   8123SM  H21F10840   3.001   2.461   7.314  3.1212 -0.2606 -0.7960
   8123SM  H21G10841   2.986   2.399   7.487 -0.2525 -0.9951 -0.4458
   8123SM  C22F10842   2.942   2.249   7.353  0.0908 -0.8502 -0.3925
   8123SM  H22F10843   2.966   2.169   7.426  0.6174  0.3524  0.7774
   8123SM  H22G10844   2.978   2.211   7.255  0.8089  2.4670 -1.5282
   8123SM  C23F10845   2.789   2.267   7.356  0.4507 -0.4020  0.0780
   8123SM  H23F10846   2.742   2.166   7.353  1.2792 -0.7753 -1.5073
   8123SM  H23G10847   2.755   2.330   7.271  1.7376 -0.2564 -0.3457
   8123SM  H23H10848   2.753   2.315   7.449  0.7149  1.0689 -0.5529
   8223SM     N10849   4.213   3.880   4.830  0.5838 -0.4564 -0.3806
   8223SM   C1510850   4.223   3.984   4.723 -0.1892 -0.2366 -0.1109
   8223SM  H15A10851   4.178   4.077   4.756  1.1950 -0.2886  2.1289
   8223SM  H15B10852   4.174   3.954   4.632  1.5251  0.8453 -1.4357
   8223SM  H15C10853   4.322   4.012   4.690 -0.6801 -0.0974 -1.5270
   8223SM   C1410854   4.278   3.758   4.790  0.4283  0.0779  0.0373
   8223SM  H14A10855   4.275   3.678   4.863  3.7125 -0.2437 -0.0257
   8223SM  H14B10856   4.384   3.776   4.777  0.4052  0.9384  0.9030
   8223SM  H14C10857   4.238   3.720   4.698  0.6258  0.5352 -0.2411
   8223SM   C1310858   4.282   3.926   4.953 -0.1680  0.0752  0.1714
   8223SM  H13A10859   4.265   3.873   5.046  1.9238 -1.4424 -0.2427
   8223SM  H13B10860   4.273   4.033   4.965  0.1151  0.2715 -1.2082
   8223SM  H13C10861   4.388   3.914   4.937 -0.3078  0.5109 -1.2136
   8223SM   C1210862   4.064   3.851   4.849  0.0594  0.4647 -0.6368
   8223SM  H12A10863   4.025   3.821   4.752 -1.1616 -0.0211 -0.0233
   8223SM  H12B10864   4.018   3.947   4.871 -0.6941  0.3767 -1.7063
   8223SM   C1110865   4.036   3.739   4.949 -0.6965  0.6209  0.9368
   8223SM  H11A10866   4.083   3.643   4.922 -1.7820 -0.4355  2.5829
   8223SM  H11B10867   3.926   3.722   4.943 -1.2025  3.1468  1.6964
   8223SM     P10868   4.055   3.670   5.190  0.0659  0.4399 -0.2564
   8223SM   O1310869   3.911   3.631   5.196  0.1529 -0.5340 -0.1602
   8223SM   O1410870   4.146   3.556   5.165  0.7332  0.0943  0.1587
   8223SM   O1110871   4.096   3.749   5.316 -0.0531  0.1235  0.0621
   8223SM   O1210872   4.084   3.776   5.077  0.4858  0.2852 -0.1271
   8223SM   C1S10873   4.032   3.870   5.365 -0.8647 -0.2242 -0.2005
   8223SM   H1S10874   3.942   3.839   5.421  0.3986 -0.9402  1.5166
   8223SM   H1T10875   4.020   3.953   5.291  1.9560  0.3112 -0.1805
   8223SM    NF10876   4.061   3.929   5.609 -0.4589 -0.0053 -0.1617
   8223SM   HNF10877   4.036   4.021   5.636  0.6135  0.1393  0.3803
   8223SM   C2S10878   4.130   3.921   5.478 -0.3989 -0.3447 -0.1920
   8223SM   H2S10879   4.205   3.840   5.488 -1.0554 -1.0206 -0.5840
   8223SM   C3S10880   4.223   4.052   5.433  0.0783  0.9421 -0.4269
   8223SM   H3S10881   4.155   4.140   5.436 -1.6355 -0.3259  0.0274
   8223SM    O310882   4.258   4.028   5.299 -0.0224  0.1109  0.1474
   8223SM   HO310883   4.205   3.953   5.269 -1.6522  1.1307  0.3531
   8223SM   C4S10884   4.351   4.062   5.513  0.3611  0.9928  0.2296
   8223SM   H4S10885   4.408   3.969   5.503 -0.9662  0.3028 -1.3381
   8223SM   C5S10886   4.401   4.169   5.574 -1.0849 -0.1753  0.6944
   8223SM   H5S10887   4.355   4.269   5.561  1.5885  1.1888  1.0999
   8223SM   C6S10888   4.535   4.177   5.649  0.2424  0.2002  0.1666
   8223SM   H6S10889   4.606   4.247   5.601  0.3101 -0.8782 -1.3641
   8223SM   H6T10890   4.581   4.076   5.655 -0.3190  0.0246  2.7725
   8223SM   C7S10891   4.507   4.214   5.797 -0.7096  0.2945  0.7923
   8223SM   H7S10892   4.460   4.315   5.799  2.0180  1.6913  0.0948
   8223SM   H7T10893   4.603   4.229   5.851 -1.5229  0.2888  2.3072
   8223SM   C8S10894   4.435   4.109   5.883 -0.2953 -0.0406  0.0308
   8223SM   H8S10895   4.491   4.013   5.873 -0.5787 -0.2552  0.4575
   8223SM   H8T10896   4.328   4.095   5.856 -0.7317  0.2263  1.4826
   8223SM   C9S10897   4.446   4.139   6.031  0.1609 -0.0071 -0.2666
   8223SM   H9S10898   4.413   4.243   6.051  0.6651  0.0598  0.2506
   8223SM   H9T10899   4.549   4.127   6.071 -0.1031 -1.6814 -0.0124
   8223SM  C10S10900   4.355   4.053   6.120  0.6372 -0.0272 -0.5781
   8223SM  H10S10901   4.355   3.943   6.101 -1.9334 -0.2519  0.3398
   8223SM  H10T10902   4.252   4.076   6.086 -0.3049 -1.1299  1.3126
   8223SM  C11S10903   4.368   4.106   6.261 -0.5679  0.2947 -0.5448
   8223SM  H11S10904   4.412   4.207   6.273  2.1913 -0.8578 -0.2984
   8223SM  H11T10905   4.452   4.048   6.304 -1.4920 -1.0137 -0.4079
   8223SM  C12S10906   4.249   4.085   6.350 -0.0928 -0.6357  0.0895
   8223SM  H12S10907   4.215   3.980   6.358  1.4968 -1.0650  1.6740
   8223SM  H12T10908   4.170   4.147   6.301 -0.0847 -1.5471 -1.1235
   8223SM  C13S10909   4.269   4.128   6.497  0.2458 -0.0840  0.2780
   8223SM  H13S10910   4.172   4.122   6.552  1.5085  1.0389  2.8076
   8223SM  H13T10911   4.314   4.230   6.502 -0.1258  0.1711 -1.2083
   8223SM  C14S10912   4.364   4.030   6.578  0.1729 -0.3142 -0.2403
   8223SM  H14S10913   4.458   4.042   6.519  0.0131 -2.2340 -0.9587
   8223SM  H14T10914   4.335   3.923   6.574 -0.1353 -0.2293 -0.2909
   8223SM  C15S10915   4.386   4.079   6.721 -0.6336  0.5050 -0.1814
   8223SM  H15S10916   4.417   4.186   6.725  2.0127 -0.2452  1.5753
   8223SM  H15T10917   4.460   4.010   6.768  0.2638  0.8601 -1.0236
   8223SM  C16S10918   4.262   4.070   6.812 -0.1015  0.4000 -0.2514
   8223SM  H16S10919   4.229   3.964   6.816 -3.8057  1.3208 -1.7637
   8223SM  H16T10920   4.183   4.139   6.775 -0.7160 -0.3945 -0.4455
   8223SM  C17S10921   4.299   4.128   6.955  0.3509 -0.0633 -0.2624
   8223SM  H17S10922   4.311   4.237   6.936  0.4868 -0.1527 -0.6960
   8223SM  H17T10923   4.393   4.085   6.994  0.5938  1.7102  1.2568
   8223SM  C18S10924   4.187   4.110   7.056  0.7585 -0.3914  0.3326
   8223SM  H18S10925   4.227   4.150   7.152  0.5088  0.8930 -0.0941
   8223SM  H18T10926   4.155   4.003   7.060 -2.2550  0.2478 -2.6106
   8223SM  H18U10927   4.098   4.172   7.037  0.0279 -1.0766  1.3888
   8223SM   C1F10928   4.012   3.824   5.676  0.1075 -0.0653 -0.2914
   8223SM    OF10929   4.025   3.710   5.640 -0.1102  0.0014 -0.1032
   8223SM   C2F10930   3.946   3.859   5.806  0.4257 -0.2216  0.0659
   8223SM   H2F10931   3.872   3.938   5.779 -2.1899 -2.6183 -0.1653
   8223SM   H2G10932   4.015   3.884   5.889 -0.6989 -3.0558  1.9986
   8223SM   C3F10933   3.856   3.747   5.857  0.1785 -0.1803 -0.0071
   8223SM   H3F10934   3.911   3.650   5.862  0.7251 -0.0091 -1.9090
   8223SM   H3G10935   3.778   3.734   5.779  0.6089  1.9897 -0.8626
   8223SM   C4F10936   3.796   3.774   5.998  0.0138  0.5134  1.0392
   8223SM   H4F10937   3.714   3.849   5.990 -0.8701 -0.4973  0.3771
   8223SM   H4G10938   3.874   3.801   6.073 -0.4589 -0.1197  1.7755
   8223SM   C5F10939   3.725   3.646   6.036 -0.3933 -0.3831 -0.4993
   8223SM   H5F10940   3.792   3.560   6.054 -2.5063 -1.9128  0.4565
   8223SM   H5G10941   3.661   3.610   5.953 -0.4886 -0.6742 -0.2977
   8223SM   C6F10942   3.630   3.664   6.155  0.2798  0.5404  0.2450
   8223SM   H6F10943   3.553   3.584   6.153  1.3219 -0.4702 -0.2064
   8223SM   H6G10944   3.578   3.762   6.150 -0.9627 -0.1037  0.1042
   8223SM   C7F10945   3.710   3.667   6.289 -0.1476 -0.5777 -0.3793
   8223SM   H7F10946   3.780   3.753   6.277 -0.5494 -0.2437 -0.3599
   8223SM   H7G10947   3.768   3.573   6.294 -0.0805 -0.4532  2.0792
   8223SM   C8F10948   3.613   3.676   6.405  0.1762 -0.2809 -0.0367
   8223SM   H8F10949   3.529   3.604   6.398 -0.8471  0.8479  0.3314
   8223SM   H8G10950   3.568   3.777   6.406 -2.0531 -1.2241  0.8450
   8223SM   C9F10951   3.686   3.654   6.535  0.0370 -0.1840  0.1149
   8223SM   H9F10952   3.756   3.737   6.557 -2.3704  1.6969  1.1622
   8223SM   H9G10953   3.747   3.562   6.529  0.3524  0.0486 -0.2829
   8223SM  C10F10954   3.599   3.653   6.661 -0.0963 -0.0424  0.1570
   8223SM  H10F10955   3.529   3.566   6.663 -0.9189  0.3498 -3.6740
   8223SM  H10G10956   3.528   3.739   6.660 -0.7894 -0.5089  2.1910
   8223SM  C11F10957   3.690   3.667   6.787 -0.3481 -0.1970 -0.3534
   8223SM  H11F10958   3.781   3.725   6.763  0.5047 -1.0753  0.6625
   8223SM  H11G10959   3.734   3.568   6.812  1.0320  0.1277 -1.4254
   8223SM  C12F10960   3.620   3.724   6.910  0.0160  0.2070  0.0011
   8223SM  H12F10961   3.580   3.823   6.882  1.3588  0.7410 -0.0953
   8223SM  H12G10962   3.695   3.751   6.988 -1.4083  1.4396  0.9788
   8223SM  C13F10963   3.494   3.646   6.956 -0.3202 -0.3853 -0.0128
   8223SM  H13F10964   3.520   3.538   6.963  0.6305 -0.0946  1.3658
   8223SM  H13G10965   3.417   3.653   6.876 -0.6616  0.6237  0.3805
   8223SM  C14F10966   3.436   3.703   7.088 -0.0810  0.3331  0.3851
   8223SM  H14F10967   3.517   3.727   7.160 -0.9771 -1.6979  2.1480
   8223SM  H14G10968   3.381   3.617   7.131  1.5123 -1.9488 -1.9118
   8223SM  C15F10969   3.366   3.843   7.063  0.0421 -0.1982  0.2250
   8223SM  H15F10970   3.304   3.828   6.972  1.1390 -1.4328 -0.3620
   8223SM  H15G10971   3.436   3.927   7.047 -1.4281  0.6584 -2.1773
   8223SM  C16F10972   3.285   3.886   7.185 -0.1387  0.6818  0.1455
   8223SM  H16F10973   3.261   3.994   7.178  1.3642  1.0111 -0.1458
   8223SM  H16G10974   3.345   3.868   7.277 -2.1965 -2.3955  1.0525
   8223SM  C17F10975   3.151   3.816   7.188 -0.1982 -0.9842  0.4168
   8223SM  H17F10976   3.179   3.712   7.219  0.6312 -0.4452  1.5588
   8223SM  H17G10977   3.098   3.809   7.091  0.0611  0.1014  0.1859
   8223SM  C18F10978   3.047   3.880   7.288 -0.5002  0.1991  0.5235
   8223SM  H18F10979   3.005   3.976   7.251  0.5346 -0.4355 -2.5921
   8223SM  H18G10980   3.096   3.895   7.386  2.9184 -1.0728 -0.8313
   8223SM  C19F10981   2.920   3.798   7.309 -0.2355 -0.3306  0.1930
   8223SM  H19F10982   2.941   3.693   7.282  0.0473 -0.1215 -0.4010
   8223SM  H19G10983   2.847   3.836   7.234 -0.2547 -1.1304 -0.1983
   8223SM  C20F10984   2.853   3.815   7.447 -0.0167  0.2019 -0.0758
   8223SM  H20F10985   2.920   3.754   7.510 -0.0184  0.8848  0.5960
   8223SM  H20G10986   2.755   3.762   7.450 -1.1371  1.9558 -2.4837
   8223SM  C21F10987   2.831   3.959   7.483  0.0352  0.1575  0.0734
   8223SM  H21F10988   2.778   4.008   7.397 -0.5772  0.3811  0.5680
   8223SM  H21G10989   2.930   4.002   7.507  1.8652 -2.3104 -2.4640
   8223SM  C22F10990   2.747   3.955   7.609  0.0880  0.4077  0.3322
   8223SM  H22F10991   2.810   3.920   7.693  0.7094  1.7318  0.4471
   8223SM  H22G10992   2.656   3.891   7.604 -0.2961  0.9159  0.6360
   8223SM  C23F10993   2.699   4.096   7.648 -0.0339 -0.0239 -0.0938
   8223SM  H23F10994   2.686   4.101   7.758  0.7825 -0.8187  0.0592
   8223SM  H23G10995   2.599   4.116   7.603 -0.7290 -1.1185  0.8788
   8223SM  H23H10996   2.776   4.168   7.613 -1.3826  1.9018  0.7563
   8323SM     N10997   4.676   3.280   5.058 -0.3283  0.1293  0.2947
   8323SM   C1510998   4.696   3.361   4.931  0.3631 -0.1327  0.6070
   8323SM  H15A10999   4.624   3.442   4.927 -0.7868 -1.0868  1.3163
   8323SM  H15B11000   4.694   3.302   4.842 -0.0891  0.5206  0.1694
   8323SM  H15C11001   4.789   3.417   4.929 -0.3127  1.0429  0.7271
   8323SM   C1411002   4.654   3.365   5.178  0.2308 -0.1967  0.1556
   8323SM  H14A11003   4.567   3.428   5.177 -1.1957 -2.0796 -1.1103
   8323SM  H14B11004   4.744   3.424   5.191  1.1320 -1.5865  0.4663
   8323SM  H14C11005   4.646   3.293   5.258  1.4228  0.4804  0.9207
   8323SM   C1311006   4.561   3.189   5.030 -0.5745 -0.3401  0.2896
   8323SM  H13A11007   4.578   3.132   4.940 -2.2547 -0.2762 -0.0955
   8323SM  H13B11008   4.472   3.248   5.021 -0.9623 -1.1139 -1.3955
   8323SM  H13C11009   4.567   3.110   5.104 -0.3836 -0.3086  0.3092
   8323SM   C1211010   4.814   3.197   5.061  0.1230 -0.4281 -0.2126
   8323SM  H12A11011   4.806   3.135   4.972 -1.5263  0.2353 -0.5687
   8323SM  H12B11012   4.803   3.131   5.145 -4.1929 -0.5004 -0.5997
   8323SM   C1111013   4.948   3.268   5.075  0.1054  0.7384  0.2992
   8323SM  H11A11014   4.963   3.325   4.981 -0.3550  1.3440  0.5861
   8323SM  H11B11015   5.021   3.184   5.073 -1.0114 -0.2616 -1.3922
   8323SM     P11016   5.020   3.482   5.194 -0.1629  0.3982  0.0444
   8323SM   O1311017   5.166   3.460   5.163  0.0949  0.0950 -0.6370
   8323SM   O1411018   4.952   3.569   5.092 -0.7412  0.8872 -0.1726
   8323SM   O1111019   4.998   3.549   5.334  0.0201  0.1131  0.0398
   8323SM   O1211020   4.958   3.332   5.196  0.3824  0.3941 -0.5785
   8323SM   C1S11021   4.997   3.467   5.456 -0.1407 -0.2979  1.0204
   8323SM   H1S11022   5.096   3.460   5.506 -1.1505  0.5248  3.2443
   8323SM   H1T11023   4.959   3.363   5.442 -1.7598  0.1113  2.0842
   8323SM    NF11024   4.916   3.467   5.691 -0.2479 -0.0505  0.3447
   8323SM   HNF11025   4.832   3.419   5.716 -1.3426  0.5911 -1.7946
   8323SM   C2S11026   4.895   3.528   5.561  0.1177  0.3861 -0.0079
   8323SM   H2S11027   4.911   3.636   5.581 -1.3146  1.2091 -2.8247
   8323SM   C3S11028   4.755   3.532   5.505  0.1119 -0.1540 -0.1865
   8323SM   H3S11029   4.712   3.435   5.474  0.6356 -0.8954  1.3655
   8323SM    O311030   4.734   3.595   5.380 -0.5128  0.5480 -0.4642
   8323SM   HO311031   4.825   3.604   5.351  0.0743 -0.2416  1.0112
   8323SM   C4S11032   4.656   3.595   5.608  0.2985 -0.2313 -0.2664
   8323SM   H4S11033   4.615   3.519   5.676  1.0424  1.2853  1.9411
   8323SM   C5S11034   4.605   3.721   5.600  0.1131 -0.8091 -0.0978
   8323SM   H5S11035   4.643   3.784   5.519 -0.7826 -0.3555 -0.1671
   8323SM   C6S11036   4.484   3.765   5.682 -0.3623 -0.2954  0.4021
   8323SM   H6S11037   4.392   3.761   5.620 -0.0379  0.7109 -0.1702
   8323SM   H6T11038   4.497   3.871   5.714 -0.2690 -0.3284  0.4738
   8323SM   C7S11039   4.453   3.680   5.800 -0.4802  0.7208  0.0533
   8323SM   H7S11040   4.541   3.656   5.862 -2.5773 -3.9298  1.7076
   8323SM   H7T11041   4.431   3.580   5.757 -0.8842  0.8039  0.0614
   8323SM   C8S11042   4.336   3.722   5.883  0.6705  0.7426  0.2273
   8323SM   H8S11043   4.248   3.700   5.819  0.2625  1.0333  0.6779
   8323SM   H8T11044   4.341   3.831   5.905  1.0133  1.3385 -2.4562
   8323SM   C9S11045   4.326   3.653   6.021 -0.0738  0.0226 -1.1055
   8323SM   H9S11046   4.418   3.678   6.077 -1.8127  0.4102  1.8047
   8323SM   H9T11047   4.322   3.543   6.007 -0.8718 -0.0270 -0.5800
   8323SM  C10S11048   4.212   3.703   6.108  0.7831 -0.6675  0.5742
   8323SM  H10S11049   4.125   3.642   6.076 -0.2812  1.0165  0.0710
   8323SM  H10T11050   4.176   3.806   6.086 -1.1074 -1.4779 -0.4202
   8323SM  C11S11051   4.242   3.700   6.256 -0.1338  0.1319 -0.4400
   8323SM  H11S11052   4.324   3.775   6.262 -0.8594  1.0165 -1.2824
   8323SM  H11T11053   4.269   3.600   6.294  1.4247  0.0342 -1.6955
   8323SM  C12S11054   4.112   3.734   6.323  0.1643 -0.3018  0.0453
   8323SM  H12S11055   4.036   3.656   6.300  1.9569 -0.7511 -5.9878
   8323SM  H12T11056   4.072   3.827   6.278 -0.8069 -0.1638  1.1460
   8323SM  C13S11057   4.106   3.749   6.475  0.5153  0.4138  0.4377
   8323SM  H13S11058   4.001   3.778   6.498 -0.7527 -1.5154 -2.3600
   8323SM  H13T11059   4.179   3.817   6.525  1.0367  0.6539 -0.6279
   8323SM  C14S11060   4.127   3.609   6.546 -0.4255 -1.5253 -0.6324
   8323SM  H14S11061   4.233   3.576   6.538  0.0153 -1.4593  3.1764
   8323SM  H14T11062   4.057   3.546   6.487 -0.7894 -0.9005 -0.8878
   8323SM  C15S11063   4.081   3.598   6.693  0.3647 -0.5869  0.1111
   8323SM  H15S11064   3.972   3.618   6.687  0.6670  1.0141 -0.8462
   8323SM  H15T11065   4.135   3.678   6.749  3.6914 -3.1241  0.8691
   8323SM  C16S11066   4.116   3.455   6.746  0.0033  0.3042 -0.2098
   8323SM  H16S11067   4.225   3.462   6.769  0.1320  1.5155 -1.0792
   8323SM  H16T11068   4.113   3.370   6.675  0.6564  0.6109 -0.6123
   8323SM  C17S11069   4.036   3.413   6.871  0.2800 -0.3625 -0.0166
   8323SM  H17S11070   4.103   3.337   6.916  2.6187  1.4204 -0.2976
   8323SM  H17T11071   3.941   3.366   6.838  0.0949  0.1387 -0.2021
   8323SM  C18S11072   4.001   3.521   6.975 -0.4528 -0.0402  0.3177
   8323SM  H18S11073   3.945   3.470   7.056  0.8612 -0.9213  0.6842
   8323SM  H18T11074   3.946   3.613   6.946 -3.9646 -2.0428  0.0311
   8323SM  H18U11075   4.097   3.550   7.022  1.3342 -0.6433 -2.7396
   8323SM   C1F11076   5.022   3.481   5.764 -0.6970  0.0621 -0.8891
   8323SM    OF11077   5.129   3.536   5.734 -0.0194  0.9646 -0.1408
   8323SM   C2F11078   5.002   3.412   5.910 -0.3006  0.2212  0.4544
   8323SM   H2F11079   4.930   3.328   5.894 -0.2137  0.2594 -0.1610
   8323SM   H2G11080   4.955   3.496   5.966  0.9595 -0.6443  2.9191
   8323SM   C3F11081   5.130   3.368   5.977 -0.0545  0.3609 -1.1275
   8323SM   H3F11082   5.199   3.451   6.001  0.4475 -0.8274  1.9990
   8323SM   H3G11083   5.190   3.295   5.917  1.6518  0.0972  0.7831
   8323SM   C4F11084   5.083   3.299   6.109 -0.5932 -0.6112  0.4091
   8323SM   H4F11085   5.030   3.204   6.087 -0.0512 -1.9011  3.9854
   8323SM   H4G11086   5.009   3.368   6.156  1.6331 -0.3478  3.9890
   8323SM   C5F11087   5.196   3.280   6.211  0.2872  0.5848 -0.0002
   8323SM   H5F11088   5.243   3.371   6.253 -0.3789 -0.2637  2.7954
   8323SM   H5G11089   5.272   3.210   6.171  1.0747  0.8895  0.9471
   8323SM   C6F11090   5.128   3.207   6.333  0.2498 -0.6776  1.1453
   8323SM   H6F11091   5.218   3.192   6.397  1.0278  1.9947  0.8283
   8323SM   H6G11092   5.078   3.111   6.308  0.8769 -0.7535  0.1465
   8323SM   C7F11093   5.032   3.289   6.418  0.5450 -0.0892 -0.0962
   8323SM   H7F11094   4.935   3.289   6.364 -0.2772 -0.7631  1.3181
   8323SM   H7G11095   5.067   3.395   6.419 -0.4235  0.2419  0.2282
   8323SM   C8F11096   4.991   3.224   6.548  0.3154  1.3316 -0.4508
   8323SM   H8F11097   5.092   3.211   6.593  1.3697  0.8963 -2.7904
   8323SM   H8G11098   4.947   3.125   6.522  1.1092  0.7456  0.3704
   8323SM   C9F11099   4.891   3.305   6.627  0.1063 -0.0728 -0.1209
   8323SM   H9F11100   4.785   3.287   6.599 -0.4576 -0.8732  2.2871
   8323SM   H9G11101   4.907   3.414   6.610  1.1396 -0.3870 -1.3251
   8323SM  C10F11102   4.914   3.303   6.779  0.0086  0.2298 -0.3024
   8323SM  H10F11103   4.919   3.197   6.814  2.6283 -0.5503 -2.7038
   8323SM  H10G11104   4.829   3.359   6.824 -0.1036 -0.6891  0.6791
   8323SM  C11F11105   5.046   3.371   6.835  0.6565 -0.6448  0.2429
   8323SM  H11F11106   5.041   3.471   6.787 -3.0093 -0.2561  1.1122
   8323SM  H11G11107   5.135   3.315   6.799 -0.4373 -0.7875 -2.4409
   8323SM  C12F11108   5.056   3.377   6.985 -0.0388  0.2621 -0.5133
   8323SM  H12F11109   5.159   3.406   7.014 -0.6693 -0.2178  2.5043
   8323SM  H12G11110   5.030   3.282   7.036  0.7414 -0.0677 -0.7285
   8323SM  C13F11111   4.968   3.482   7.044  0.7086  0.3896 -0.3538
   8323SM  H13F11112   4.858   3.471   7.035  0.6173 -0.9981  1.7286
   8323SM  H13G11113   4.982   3.571   6.979  0.1917 -2.2949 -4.5005
   8323SM  C14F11114   5.011   3.522   7.192 -0.0093  0.6593  0.0410
   8323SM  H14F11115   4.960   3.617   7.220  0.9347  1.7868 -1.8601
   8323SM  H14G11116   5.121   3.529   7.201  0.0549 -0.3126  0.1015
   8323SM  C15F11117   4.952   3.416   7.289 -0.1190 -1.0243  0.5811
   8323SM  H15F11118   5.008   3.417   7.385  0.2015  0.5885  0.3991
   8323SM  H15G11119   4.966   3.320   7.234 -1.0512 -0.2343 -1.0889
   8323SM  C16F11120   4.805   3.440   7.319 -0.2546 -0.3086  0.6086
   8323SM  H16F11121   4.748   3.456   7.225  0.2932 -0.5417  0.2293
   8323SM  H16G11122   4.801   3.535   7.376 -3.3499  0.9490 -1.4391
   8323SM  C17F11123   4.741   3.321   7.397  0.5334 -0.0183  0.2319
   8323SM  H17F11124   4.801   3.306   7.489  0.4708 -0.3785  0.2154
   8323SM  H17G11125   4.745   3.225   7.341  3.2550  0.1254  0.0701
   8323SM  C18F11126   4.598   3.339   7.432 -0.0749  0.5329 -0.3027
   8323SM  H18F11127   4.577   3.249   7.493 -1.9650  1.7344  0.9414
   8323SM  H18G11128   4.534   3.342   7.342 -0.5245 -1.3625 -0.0806
   8323SM  C19F11129   4.572   3.462   7.514 -0.2104  0.0378  0.1495
   8323SM  H19F11130   4.592   3.566   7.479 -1.2100  0.0226 -0.4882
   8323SM  H19G11131   4.648   3.464   7.595  0.9833 -0.2202 -0.9258
   8323SM  C20F11132   4.427   3.451   7.575  0.5088 -0.0286 -0.3125
   8323SM  H20F11133   4.440   3.373   7.654 -2.1078 -1.0116 -0.7565
   8323SM  H20G11134   4.352   3.417   7.501 -1.3107  1.1506  0.9170
   8323SM  C21F11135   4.368   3.587   7.623 -1.0562  0.7329 -0.2751
   8323SM  H21F11136   4.315   3.648   7.547 -1.5996 -2.1801 -2.4022
   8323SM  H21G11137   4.455   3.642   7.665 -2.3645  3.1051 -0.5599
   8323SM  C22F11138   4.274   3.560   7.739  0.4217  0.4000 -0.6510
   8323SM  H22F11139   4.262   3.649   7.805 -1.1634  0.1280 -0.5364
   8323SM  H22G11140   4.303   3.473   7.802  0.4422  1.1001  0.3335
   8323SM  C23F11141   4.131   3.543   7.682 -0.2323  0.4172  0.3796
   8323SM  H23F11142   4.057   3.512   7.759 -1.2023  0.6251 -0.4497
   8323SM  H23G11143   4.133   3.470   7.598 -1.4661  2.0597 -1.1643
   8323SM  H23H11144   4.098   3.635   7.629  0.4300 -0.2410 -1.2246
   8423SM     N11145   3.963   2.025   4.756  0.7014 -0.1256 -0.1695
   8423SM   C1511146   3.938   2.172   4.769  0.2521 -0.2086  0.1076
   8423SM  H15A11147   3.837   2.189   4.802 -0.0205 -0.3201 -0.6568
   8423SM  H15B11148   3.953   2.224   4.676  0.6978  0.5515  0.5849
   8423SM  H15C11149   3.998   2.225   4.842  0.3911  1.7451 -1.3371
   8423SM   C1411150   3.854   1.979   4.655 -0.3539 -0.1978  0.0392
   8423SM  H14A11151   3.872   1.879   4.618  0.4254  0.1612 -0.5863
   8423SM  H14B11152   3.845   2.046   4.571 -0.4567 -0.8184 -0.4538
   8423SM  H14C11153   3.755   1.974   4.697 -0.2983  1.2209  0.3852
   8423SM   C1311154   4.098   2.015   4.693  0.5262 -0.3121 -0.0298
   8423SM  H13A11155   4.115   1.910   4.673 -1.3854 -0.5434 -0.7026
   8423SM  H13B11156   4.173   2.041   4.766  0.4676 -0.8949  0.2491
   8423SM  H13C11157   4.105   2.068   4.599  1.8356  0.0474  0.2465
   8423SM   C1211158   3.961   1.950   4.890  0.6631  0.5717  0.5869
   8423SM  H12A11159   3.861   1.966   4.926 -1.1405 -0.3989 -3.3717
   8423SM  H12B11160   4.026   2.000   4.959 -0.6842  1.7726  1.0226
   8423SM   C1111161   3.985   1.790   4.893 -0.0612  0.4866 -0.5119
   8423SM  H11A11162   3.911   1.733   4.832 -1.1509 -0.6725  1.7490
   8423SM  H11B11163   3.961   1.755   4.996  1.8199 -2.5324 -0.9710
   8423SM     P11164   4.240   1.818   4.945 -0.2072  0.1983 -0.0661
   8423SM   O1311165   4.310   1.697   5.000  0.5197  0.1897  0.5973
   8423SM   O1411166   4.313   1.919   4.862  0.2632 -0.1863  0.8573
   8423SM   O1111167   4.175   1.886   5.071 -0.3669  0.4009  0.2198
   8423SM   O1211168   4.121   1.763   4.853 -0.1022 -0.1147 -0.4323
   8423SM   C1S11169   4.254   1.922   5.184 -0.7151  0.4587 -0.3880
   8423SM   H1S11170   4.280   2.030   5.184 -1.3814  0.6305  0.9833
   8423SM   H1T11171   4.339   1.852   5.194 -0.0124  1.1428 -1.3520
   8423SM    NF11172   4.275   1.946   5.421 -0.5408  0.3690  0.5651
   8423SM   HNF11173   4.321   1.865   5.456 -1.0063 -0.2109 -0.1404
   8423SM   C2S11174   4.180   1.910   5.318 -0.4505 -0.1501  0.0859
   8423SM   H2S11175   4.095   1.982   5.326 -2.2390 -2.1166 -0.1724
   8423SM   C3S11176   4.112   1.766   5.341  0.3223  0.4471 -0.9827
   8423SM   H3S11177   4.189   1.687   5.329  0.4970  0.5184 -0.3475
   8423SM    O311178   4.005   1.736   5.255  0.0204  0.6095 -0.4891
   8423SM   HO311179   4.011   1.784   5.172 -1.2938 -0.4575 -1.2299
   8423SM   C4S11180   4.053   1.757   5.484  0.2047 -0.2149 -0.5930
   8423SM   H4S11181   3.961   1.811   5.513  0.0449 -1.4441  1.3755
   8423SM   C5S11182   4.101   1.686   5.584 -0.1863  0.8132 -0.1029
   8423SM   H5S11183   4.197   1.637   5.563 -1.3768 -1.4260 -0.6354
   8423SM   C6S11184   4.046   1.680   5.729  0.3548 -0.0119  0.3459
   8423SM   H6S11185   4.042   1.575   5.764  1.3483 -0.3042 -0.3587
   8423SM   H6T11186   3.942   1.716   5.740 -0.9573 -3.3970  0.2582
   8423SM   C7S11187   4.142   1.759   5.826 -0.2490  0.1728 -0.2786
   8423SM   H7S11188   4.162   1.858   5.780  0.2089  0.9678  1.5210
   8423SM   H7T11189   4.239   1.706   5.838  1.1882  1.8320 -3.5441
   8423SM   C8S11190   4.090   1.783   5.969 -0.1865  0.2213  0.8793
   8423SM   H8S11191   3.979   1.792   5.973 -0.2021  1.2591 -0.9314
   8423SM   H8T11192   4.124   1.882   6.006 -1.2235  0.3172  1.6483
   8423SM   C9S11193   4.140   1.673   6.060  0.7868 -0.7350  0.8477
   8423SM   H9S11194   4.251   1.675   6.064  0.8475  2.0508  0.3029
   8423SM   H9T11195   4.109   1.579   6.010 -0.2161  1.2891 -2.6770
   8423SM  C10S11196   4.095   1.691   6.203 -0.0033 -0.0922 -0.2408
   8423SM  H10S11197   3.986   1.673   6.213 -0.0616 -0.6296 -1.6150
   8423SM  H10T11198   4.109   1.799   6.223 -2.1555 -0.0742  1.5384
   8423SM  C11S11199   4.165   1.594   6.300 -0.1303  0.2638 -0.4660
   8423SM  H11S11200   4.276   1.606   6.297  0.0441 -1.0194 -4.2262
   8423SM  H11T11201   4.145   1.487   6.278 -0.4557  0.4942 -1.3279
   8423SM  C12S11202   4.137   1.612   6.449 -0.3114  0.1296 -0.3894
   8423SM  H12S11203   4.031   1.589   6.473  0.1012  0.2586  1.7295
   8423SM  H12T11204   4.158   1.720   6.464  0.5157 -0.1328  0.4251
   8423SM  C13S11205   4.231   1.537   6.544 -0.2621  0.2184  0.0836
   8423SM  H13S11206   4.337   1.558   6.520  0.0534  0.9112  1.9085
   8423SM  H13T11207   4.212   1.429   6.525  1.8045  0.3185 -3.5412
   8423SM  C14S11208   4.198   1.580   6.688  0.5433  0.4018 -0.1237
   8423SM  H14S11209   4.093   1.546   6.699  0.1480  1.6704  0.1450
   8423SM  H14T11210   4.205   1.691   6.689  0.1888  0.4654  2.1307
   8423SM  C15S11211   4.296   1.510   6.784 -0.8111 -0.0152 -0.2937
   8423SM  H15S11212   4.398   1.542   6.751  0.1226 -1.2932  1.2023
   8423SM  H15T11213   4.279   1.402   6.767 -4.1140  0.3654 -0.0705
   8423SM  C16S11214   4.270   1.535   6.932 -0.1447  0.0831 -0.1689
   8423SM  H16S11215   4.225   1.635   6.946  1.2297  0.6422  0.4401
   8423SM  H16T11216   4.360   1.541   6.996 -0.7929  0.3153  0.7428
   8423SM  C17S11217   4.182   1.433   7.003  0.0379  0.3045  0.5377
   8423SM  H17S11218   4.194   1.441   7.113 -0.7611 -2.1241  0.8378
   8423SM  H17T11219   4.222   1.331   6.985 -1.4624 -0.6721  2.3989
   8423SM  C18S11220   4.037   1.431   6.956 -0.1220 -0.1378  0.1742
   8423SM  H18S11221   4.023   1.408   6.848 -1.2630  0.5804  0.1449
   8423SM  H18T11222   3.993   1.532   6.971 -1.5606 -0.8422  0.9262
   8423SM  H18U11223   3.966   1.361   7.006  1.6673 -1.5352  0.8572
   8423SM   C1F11224   4.317   2.071   5.440  0.3649  0.2682  0.4244
   8423SM    OF11225   4.275   2.165   5.374  0.1369 -0.0388 -0.4676
   8423SM   C2F11226   4.414   2.092   5.554  0.1636 -0.1679  0.2415
   8423SM   H2F11227   4.432   2.201   5.563  2.0847 -0.4085 -0.3900
   8423SM   H2G11228   4.511   2.044   5.530 -0.2951 -3.1042  3.5351
   8423SM   C3F11229   4.360   2.022   5.684 -0.3351  0.2215 -0.4563
   8423SM   H3F11230   4.341   1.914   5.662  0.3942 -0.3088  1.2855
   8423SM   H3G11231   4.265   2.073   5.711  0.0890  0.4918  0.5747
   8423SM   C4F11232   4.463   2.038   5.804 -0.6662 -0.6230 -0.7176
   8423SM   H4F11233   4.505   2.141   5.805 -0.1628 -0.8287  0.1165
   8423SM   H4G11234   4.546   1.971   5.773 -1.7844 -2.0858 -0.6772
   8423SM   C5F11235   4.406   2.000   5.936  0.1097  0.6682 -0.2861
   8423SM   H5F11236   4.379   1.893   5.926 -0.2912  0.8187 -0.9189
   8423SM   H5G11237   4.313   2.051   5.969 -0.6944 -1.3626  0.7482
   8423SM   C6F11238   4.496   2.019   6.062  0.3424  0.4215 -0.2239
   8423SM   H6F11239   4.508   2.130   6.071 -0.3077  0.4185  0.9571
   8423SM   H6G11240   4.588   1.958   6.064  0.0563 -0.0185 -0.4308
   8423SM   C7F11241   4.415   1.967   6.184 -0.0169  0.2783  0.0394
   8423SM   H7F11242   4.396   1.857   6.175  2.8630 -0.5432  2.4281
   8423SM   H7G11243   4.322   2.027   6.176  0.7085  1.4724  0.3184
   8423SM   C8F11244   4.490   2.001   6.312 -0.2202  0.2967  0.1150
   8423SM   H8F11245   4.511   2.110   6.317 -0.3125  0.2714  1.3555
   8423SM   H8G11246   4.591   1.956   6.313  0.4486  1.7237 -0.1419
   8423SM   C9F11247   4.408   1.969   6.442 -0.1215 -0.2437 -0.0723
   8423SM   H9F11248   4.356   1.872   6.432 -0.3029  0.0190 -2.0507
   8423SM   H9G11249   4.337   2.054   6.449  1.8434  1.4243  0.5579
   8423SM  C10F11250   4.500   1.956   6.562 -0.1494 -1.0080  0.7886
   8423SM  H10F11251   4.557   2.050   6.579 -2.2293  0.6321 -0.8380
   8423SM  H10G11252   4.565   1.870   6.536 -2.5258 -2.1617 -1.7896
   8423SM  C11F11253   4.428   1.925   6.690 -0.1407 -0.0682 -0.0799
   8423SM  H11F11254   4.364   1.835   6.682 -1.2093  0.5199  1.4330
   8423SM  H11G11255   4.354   2.007   6.705  1.8061  1.7378  0.1951
   8423SM  C12F11256   4.520   1.910   6.815  0.2823 -0.1339  0.2404
   8423SM  H12F11257   4.599   1.988   6.823  0.1478 -0.1067  1.5366
   8423SM  H12G11258   4.577   1.817   6.795  0.9143 -0.2006  2.1437
   8423SM  C13F11259   4.437   1.904   6.947  0.3483  0.4030  0.5094
   8423SM  H13F11260   4.388   1.805   6.957  0.1314  0.3554 -0.9052
   8423SM  H13G11261   4.360   1.982   6.929  2.2828  1.8206 -2.3622
   8423SM  C14F11262   4.521   1.945   7.066  0.3499 -0.0829 -0.6133
   8423SM  H14F11263   4.531   2.054   7.051 -1.8322  1.1000  4.4675
   8423SM  H14G11264   4.625   1.905   7.059  0.6596  0.7283 -0.7844
   8423SM  C15F11265   4.460   1.913   7.203 -0.3734 -0.1150  0.1786
   8423SM  H15F11266   4.354   1.946   7.209 -0.2558  0.3701 -0.2790
   8423SM  H15G11267   4.518   1.962   7.284  0.0707  0.9182 -0.7437
   8423SM  C16F11268   4.475   1.765   7.238 -0.2089 -0.2155 -0.4749
   8423SM  H16F11269   4.580   1.730   7.252  0.5089  1.1395 -2.1721
   8423SM  H16G11270   4.442   1.694   7.159  1.0328 -0.0588 -1.1495
   8423SM  C17F11271   4.415   1.742   7.379  0.3746 -0.6195  0.0733
   8423SM  H17F11272   4.309   1.775   7.388  0.1352 -1.5962  1.0427
   8423SM  H17G11273   4.467   1.793   7.463 -1.5439 -0.1110  1.0078
   8423SM  C18F11274   4.420   1.597   7.421  0.3945  0.3233  0.4148
   8423SM  H18F11275   4.521   1.554   7.443  0.0031 -1.2848 -0.7046
   8423SM  H18G11276   4.386   1.536   7.334  0.8984  0.0539  0.3999
   8423SM  C19F11277   4.324   1.563   7.540  0.1480  0.6811 -0.3762
   8423SM  H19F11278   4.293   1.456   7.540 -0.6143  0.8781 -1.5769
   8423SM  H19G11279   4.234   1.624   7.518 -2.1626 -2.5901 -0.6823
   8423SM  C20F11280   4.381   1.595   7.690 -0.0110  0.1948  0.4641
   8423SM  H20F11281   4.393   1.705   7.685  0.9318  0.1389  1.1871
   8423SM  H20G11282   4.476   1.540   7.707 -0.5253 -0.1686  2.4387
   8423SM  C21F11283   4.273   1.558   7.796  0.5601 -0.8038  0.0227
   8423SM  H21F11284   4.310   1.608   7.889  0.4905  2.4858 -1.5659
   8423SM  H21G11285   4.264   1.448   7.804 -1.8377 -0.8328 -1.8591
   8423SM  C22F11286   4.132   1.615   7.772  0.0093  0.0871  0.0882
   8423SM  H22F11287   4.082   1.543   7.703  2.0468 -2.0170  0.7027
   8423SM  H22G11288   4.137   1.713   7.722 -2.4937  0.0842 -0.2985
   8423SM  C23F11289   4.039   1.643   7.899  0.1155  0.3828 -0.3378
   8423SM  H23F11290   4.087   1.704   7.979  1.5753 -1.1074 -0.0105
   8423SM  H23G11291   3.991   1.550   7.937  1.0485  0.5575  1.3706
   8423SM  H23H11292   3.963   1.706   7.849  2.2900 -0.5075 -5.4596
   8523SM     N11293   4.823   4.508   4.887 -0.1188  0.5122  0.6367
   8523SM   C1511294   4.731   4.480   4.996 -0.1358 -0.7279 -0.5455
   8523SM  H15A11295   4.732   4.374   5.015  2.2638 -0.7684 -0.6927
   8523SM  H15B11296   4.633   4.516   4.967  0.4003  1.6918  0.4680
   8523SM  H15C11297   4.757   4.528   5.089  1.4451  0.2076 -1.4280
   8523SM   C1411298   4.790   4.426   4.765  0.2857  0.3150  0.0655
   8523SM  H14A11299   4.684   4.430   4.742  0.4339 -0.7939 -0.8846
   8523SM  H14B11300   4.806   4.321   4.786  0.8335  0.3457 -0.1940
   8523SM  H14C11301   4.843   4.454   4.675 -0.0720 -1.7154 -0.8479
   8523SM   C1311302   4.801   4.651   4.856 -0.3815 -0.3357  0.0008
   8523SM  H13A11303   4.696   4.662   4.831 -0.6075 -0.3046  0.9287
   8523SM  H13B11304   4.868   4.699   4.786 -0.7274  1.4284  0.8221
   8523SM  H13C11305   4.816   4.700   4.951 -1.1718 -0.1890  0.0608
   8523SM   C1211306   4.965   4.488   4.934 -0.7269 -0.2215  0.0602
   8523SM  H12A11307   4.988   4.577   4.991  1.7844  1.2653 -2.9982
   8523SM  H12B11308   5.028   4.478   4.847 -0.7642  0.4242 -0.0401
   8523SM   C1111309   5.010   4.364   5.006 -0.9343 -0.1753 -0.4227
   8523SM  H11A11310   4.941   4.330   5.087  0.3034  0.0043  0.7352
   8523SM  H11B11311   5.103   4.386   5.063 -2.0110 -0.9836  1.7654
   8523SM     P11312   5.170   4.195   4.883  0.0084 -0.0613  0.0391
   8523SM   O1311313   5.163   4.058   4.823 -0.9781  0.4303 -0.2372
   8523SM   O1411314   5.240   4.299   4.806 -0.7771  0.0062 -0.0579
   8523SM   O1111315   5.242   4.180   5.021 -0.4167 -0.4911 -0.1824
   8523SM   O1211316   5.025   4.249   4.916  0.5802 -0.9859  0.0130
   8523SM   C1S11317   5.214   4.072   5.112 -0.6865 -0.1523 -0.2525
   8523SM   H1S11318   5.238   3.973   5.068  0.6449 -0.1096  0.3271
   8523SM   H1T11319   5.104   4.067   5.127 -0.9440  0.2734 -1.7746
   8523SM    NF11320   5.242   3.979   5.330 -0.7761  0.2801  0.3369
   8523SM   HNF11321   5.172   4.001   5.397 -0.3413  0.4234  0.7506
   8523SM   C2S11322   5.281   4.091   5.252  0.4707  0.1856 -0.2184
   8523SM   H2S11323   5.391   4.089   5.239  0.5427  0.1616  0.3820
   8523SM   C3S11324   5.245   4.233   5.310  0.6294  0.2664 -0.4402
   8523SM   H3S11325   5.137   4.253   5.299 -0.1130 -1.3592  2.7123
   8523SM    O311326   5.298   4.335   5.227 -0.0567 -0.3772  0.1096
   8523SM   HO311327   5.318   4.292   5.143  1.1090  0.2560  0.0530
   8523SM   C4S11328   5.300   4.242   5.446 -0.2883  0.1494  0.1092
   8523SM   H4S11329   5.228   4.231   5.528 -0.7813  0.7121 -0.2374
   8523SM   C5S11330   5.425   4.268   5.481  0.6862  0.5451  0.2975
   8523SM   H5S11331   5.507   4.279   5.408 -0.1282 -1.2730 -0.9614
   8523SM   C6S11332   5.486   4.290   5.615 -0.3436 -0.6107  0.4153
   8523SM   H6S11333   5.498   4.400   5.627 -1.5334 -0.2554 -1.2734
   8523SM   H6T11334   5.591   4.257   5.622 -0.5066 -0.9940  1.3412
   8523SM   C7S11335   5.409   4.236   5.740  0.7743  0.0907 -0.0781
   8523SM   H7S11336   5.404   4.127   5.718 -0.5463  0.5403 -2.3007
   8523SM   H7T11337   5.311   4.287   5.728 -0.2634 -1.3859  1.6373
   8523SM   C8S11338   5.466   4.257   5.885 -0.5506 -0.1660  0.7158
   8523SM   H8S11339   5.499   4.361   5.904 -0.0781 -0.1088 -0.3575
   8523SM   H8T11340   5.546   4.181   5.897 -2.0905 -1.6783  2.0543
   8523SM   C9S11341   5.352   4.210   5.983  0.2530  0.2081  1.1835
   8523SM   H9S11342   5.314   4.117   5.934  2.3481  0.4305 -1.0912
   8523SM   H9T11343   5.269   4.281   5.999  0.1494  0.0591  1.3064
   8523SM  C10S11344   5.392   4.177   6.124 -0.0576  0.5838  0.0969
   8523SM  H10S11345   5.431   4.263   6.182  0.7814  0.2194  0.0800
   8523SM  H10T11346   5.471   4.099   6.130  1.3320  1.8891 -0.5898
   8523SM  C11S11347   5.276   4.131   6.212  0.3101  0.2581 -0.2263
   8523SM  H11S11348   5.238   4.045   6.153 -0.6485  1.4099 -1.3574
   8523SM  H11T11349   5.195   4.206   6.220 -0.1351 -0.2422 -0.0490
   8523SM  C12S11350   5.318   4.080   6.350 -0.5257 -0.2682  0.8291
   8523SM  H12S11351   5.335   4.166   6.418 -1.0827  1.1585 -0.7583
   8523SM  H12T11352   5.409   4.016   6.348 -2.0688 -2.7356  3.0060
   8523SM  C13S11353   5.205   3.992   6.409  0.1708  0.2669  0.3942
   8523SM  H13S11354   5.212   3.891   6.363  2.9512 -0.0445  1.3098
   8523SM  H13T11355   5.104   4.036   6.396  0.4031  0.2789 -1.8117
   8523SM  C14S11356   5.227   3.945   6.556  0.3004 -0.2168  0.6990
   8523SM  H14S11357   5.327   3.899   6.570  0.9487  0.5632 -1.2143
   8523SM  H14T11358   5.152   3.864   6.569  1.0923 -1.4533 -1.8883
   8523SM  C15S11359   5.194   4.059   6.656  0.0842 -0.1800  0.2707
   8523SM  H15S11360   5.111   4.116   6.610  0.4890  1.0572  1.0273
   8523SM  H15T11361   5.291   4.112   6.649 -1.0055  1.9382  0.5032
   8523SM  C16S11362   5.152   4.006   6.802  0.3586 -0.0513 -1.2484
   8523SM  H16S11363   5.171   4.089   6.873  2.8806 -2.3044  0.8995
   8523SM  H16T11364   5.217   3.920   6.831  1.7215  1.1583 -0.6174
   8523SM  C17S11365   5.006   3.959   6.818  0.4467 -0.1436 -0.7265
   8523SM  H17S11366   4.984   3.883   6.739 -1.3232  0.6818 -1.0735
   8523SM  H17T11367   4.937   4.042   6.790  2.0950  1.2083 -0.9428
   8523SM  C18S11368   4.962   3.901   6.950 -0.4915  0.3349  0.7079
   8523SM  H18S11369   5.018   3.947   7.035 -0.6227 -1.0156  1.5588
   8523SM  H18T11370   5.006   3.800   6.944  1.3673  1.1889 -1.7251
   8523SM  H18U11371   4.851   3.900   6.964 -0.5184 -0.2538  0.4530
   8523SM   C1F11372   5.288   3.851   5.315 -0.0244  0.4296 -0.1273
   8523SM    OF11373   5.359   3.814   5.218  0.1989  0.2470  0.4815
   8523SM   C2F11374   5.236   3.765   5.419  0.2280  0.9826 -1.1012
   8523SM   H2F11375   5.265   3.660   5.397  2.6686  1.6402 -1.2965
   8523SM   H2G11376   5.126   3.768   5.408  0.0887 -0.1396 -0.2298
   8523SM   C3F11377   5.267   3.816   5.564 -0.6723 -0.0320  0.6795
   8523SM   H3F11378   5.228   3.746   5.642  0.6477 -2.8374 -1.0092
   8523SM   H3G11379   5.211   3.908   5.591 -3.0512 -1.8562  2.4737
   8523SM   C4F11380   5.413   3.828   5.580 -0.2866  0.1341 -0.4193
   8523SM   H4F11381   5.457   3.912   5.523 -0.8658  0.7183 -0.0196
   8523SM   H4G11382   5.458   3.734   5.542  1.2966  2.1008 -3.8467
   8523SM   C5F11383   5.457   3.847   5.727  0.0607 -0.1657 -0.6752
   8523SM   H5F11384   5.374   3.885   5.790  2.7057  0.2373  2.9250
   8523SM   H5G11385   5.534   3.928   5.726 -0.7904  0.6610 -2.1015
   8523SM   C6F11386   5.501   3.718   5.796  0.4298  0.1827 -0.4348
   8523SM   H6F11387   5.599   3.685   5.754  0.1875  0.0107 -0.8766
   8523SM   H6G11388   5.435   3.633   5.768  2.7586 -1.2183 -2.1274
   8523SM   C7F11389   5.516   3.715   5.947 -0.2834  0.9315  0.2600
   8523SM   H7F11390   5.611   3.752   5.991  1.6985 -1.8342 -1.3611
   8523SM   H7G11391   5.523   3.611   5.986  0.8226  1.3795  1.3201
   8523SM   C8F11392   5.394   3.780   6.011  0.1463 -0.4991 -0.9711
   8523SM   H8F11393   5.305   3.731   5.966 -1.3907  1.0229  0.2908
   8523SM   H8G11394   5.388   3.889   5.992 -0.4321 -0.0437  1.5423
   8523SM   C9F11395   5.385   3.767   6.162 -0.9985  0.8412 -0.1967
   8523SM   H9F11396   5.305   3.837   6.193 -2.3742 -1.4540  1.7646
   8523SM   H9G11397   5.475   3.802   6.218  1.3062 -2.2410 -1.6881
   8523SM  C10F11398   5.360   3.624   6.211 -0.1374  0.5276  0.0868
   8523SM  H10F11399   5.442   3.555   6.182 -0.2753  0.0875  0.7133
   8523SM  H10G11400   5.271   3.576   6.165 -0.4025  0.6766  0.4292
   8523SM  C11F11401   5.349   3.613   6.362  0.1206  0.3262  0.7475
   8523SM  H11F11402   5.303   3.513   6.374  0.3330 -0.1773 -1.9796
   8523SM  H11G11403   5.272   3.682   6.404 -0.4748 -0.5488  1.1269
   8523SM  C12F11404   5.482   3.626   6.431  0.2337 -0.6388 -0.0442
   8523SM  H12F11405   5.520   3.730   6.430  0.2232 -0.6038  1.4547
   8523SM  H12G11406   5.558   3.567   6.374  1.4913  0.8118  0.0695
   8523SM  C13F11407   5.485   3.578   6.576 -0.0797  0.4067  0.0088
   8523SM  H13F11408   5.584   3.594   6.624 -0.3124 -0.8709  0.9800
   8523SM  H13G11409   5.468   3.468   6.578  0.1537  0.2835 -2.2450
   8523SM  C14F11410   5.381   3.644   6.665 -0.1872  0.2691  0.5663
   8523SM  H14F11411   5.283   3.636   6.614 -0.0314  2.5170 -0.1776
   8523SM  H14G11412   5.414   3.750   6.671  0.8507 -0.1134  2.2542
   8523SM  C15F11413   5.357   3.585   6.805 -0.0054  0.1336  0.6231
   8523SM  H15F11414   5.367   3.475   6.816 -1.7654 -0.1713 -0.4414
   8523SM  H15G11415   5.252   3.610   6.831  0.1948  2.5940 -0.7054
   8523SM  C16F11416   5.440   3.657   6.917 -0.5439 -0.1799 -0.1135
   8523SM  H16F11417   5.439   3.767   6.898 -1.6033  0.1368  1.5479
   8523SM  H16G11418   5.547   3.626   6.914 -0.0629  1.2478  1.0455
   8523SM  C17F11419   5.394   3.641   7.055  0.1312  0.3742  0.4037
   8523SM  H17F11420   5.370   3.534   7.075 -1.1597  0.3800 -0.9878
   8523SM  H17G11421   5.305   3.705   7.069  1.3922  2.5276 -0.9902
   8523SM  C18F11422   5.500   3.677   7.165 -0.0503  0.3250  0.6656
   8523SM  H18F11423   5.572   3.748   7.119  0.2962 -0.4660 -0.0249
   8523SM  H18G11424   5.546   3.577   7.180  0.9367  0.7656  0.6228
   8523SM  C19F11425   5.442   3.739   7.285  1.1408 -0.5761 -0.0868
   8523SM  H19F11426   5.377   3.664   7.334 -2.7973  1.6066 -1.5081
   8523SM  H19G11427   5.372   3.823   7.264 -0.9746 -2.3195 -0.2615
   8523SM  C20F11428   5.536   3.797   7.395 -0.0943  0.1416  0.4520
   8523SM  H20F11429   5.608   3.715   7.417 -0.4786  0.0594  1.4425
   8523SM  H20G11430   5.478   3.820   7.487 -0.0301  0.2608  0.4633
   8523SM  C21F11431   5.615   3.921   7.344 -0.0302  0.1673 -0.5389
   8523SM  H21F11432   5.591   4.001   7.416 -2.6808 -0.3551 -0.7571
   8523SM  H21G11433   5.563   3.954   7.252 -1.1285  0.7588  0.2675
   8523SM  C22F11434   5.764   3.886   7.314  0.0199  0.3931 -0.3158
   8523SM  H22F11435   5.778   3.780   7.285  5.3548  0.4876  0.7389
   8523SM  H22G11436   5.811   3.886   7.415 -0.8524  1.0608  0.1061
   8523SM  C23F11437   5.812   3.999   7.223 -0.1063  0.1601 -0.0436
   8523SM  H23F11438   5.805   4.094   7.280  1.9517 -0.4429  1.3231
   8523SM  H23G11439   5.750   4.007   7.131  1.0907 -1.6663 -1.0676
   8523SM  H23H11440   5.918   3.982   7.194 -0.1798 -0.0936 -0.1683
   8623SM     N11441   3.270   1.795   4.947 -0.0390  0.1034  0.0247
   8623SM   C1511442   3.405   1.750   4.986  0.2256  0.2484 -0.0068
   8623SM  H15A11443   3.404   1.665   5.053  0.1698 -1.9966 -2.7037
   8623SM  H15B11444   3.465   1.824   5.037  0.7432 -1.5891  2.1851
   8623SM  H15C11445   3.459   1.722   4.897 -1.6422  1.5103 -1.6312
   8623SM   C1411446   3.216   1.686   4.860  0.1897 -0.0821  0.1931
   8623SM  H14A11447   3.115   1.712   4.830  0.1469 -1.3093 -0.8010
   8623SM  H14B11448   3.212   1.594   4.916 -0.2598 -0.8604 -1.0657
   8623SM  H14C11449   3.279   1.666   4.774  0.4071 -0.9157  0.5393
   8623SM   C1311450   3.192   1.815   5.072  0.3230 -0.2222 -0.3476
   8623SM  H13A11451   3.166   1.717   5.110  0.3847  0.0286  0.3723
   8623SM  H13B11452   3.105   1.878   5.067  0.1723  0.0287  3.0161
   8623SM  H13C11453   3.259   1.865   5.141 -0.7995  3.2952 -1.5946
   8623SM   C1211454   3.278   1.925   4.873  0.5569  0.4686  0.6881
   8623SM  H12A11455   3.175   1.930   4.842  1.2760  0.0997 -1.9690
   8623SM  H12B11456   3.340   1.903   4.787 -0.8515 -1.3701  0.0746
   8623SM   C1111457   3.321   2.059   4.948 -0.3452  1.4842  0.8747
   8623SM  H11A11458   3.241   2.075   5.023 -1.5639 -0.7602  0.1284
   8623SM  H11B11459   3.294   2.136   4.872  1.2926  0.6599 -0.6409
   8623SM     P11460   3.572   2.072   4.915 -0.1000  0.2514 -0.4880
   8623SM   O1311461   3.588   1.936   4.860 -0.2055 -0.5094 -0.7208
   8623SM   O1411462   3.537   2.181   4.821  0.2096  0.7123 -0.5442
   8623SM   O1111463   3.688   2.100   5.015  0.4585 -0.0716  0.5925
   8623SM   O1211464   3.450   2.068   5.006  0.2787 -0.2320 -0.6109
   8623SM   C1S11465   3.708   2.234   5.077  0.3174 -0.2777  0.4202
   8623SM   H1S11466   3.625   2.299   5.041  0.6904 -1.1375 -2.2085
   8623SM   H1T11467   3.798   2.284   5.035 -0.7381 -0.3894 -2.1722
   8623SM    NF11468   3.660   2.350   5.297 -0.2214 -0.6449 -0.3559
   8623SM   HNF11469   3.734   2.408   5.330 -0.8310  0.8333 -1.4863
   8623SM   C2S11470   3.696   2.226   5.231  0.4043 -0.2596  0.6321
   8623SM   H2S11471   3.617   2.154   5.261  0.2261 -0.0842  0.5828
   8623SM   C3S11472   3.824   2.154   5.277  0.0107 -0.0015 -0.3218
   8623SM   H3S11473   3.911   2.217   5.248  0.0635 -0.4840 -1.2710
   8623SM    O311474   3.862   2.039   5.197 -0.4074 -0.4205 -0.1850
   8623SM   HO311475   3.792   2.044   5.132 -0.8524  1.5600  0.3962
   8623SM   C4S11476   3.839   2.127   5.429 -0.3566  0.0280 -0.5338
   8623SM   H4S11477   3.765   2.063   5.478  0.2401  0.4164  0.9380
   8623SM   C5S11478   3.945   2.166   5.502  1.3536 -0.0375  0.4032
   8623SM   H5S11479   4.024   2.222   5.450  0.4571  1.5822  0.6825
   8623SM   C6S11480   3.970   2.150   5.649  0.3190  0.0335 -0.5286
   8623SM   H6S11481   4.003   2.243   5.700  2.4770 -0.4441 -0.9821
   8623SM   H6T11482   4.056   2.081   5.664  0.4667  0.2658 -0.3070
   8623SM   C7S11483   3.856   2.088   5.731  0.6514  0.2019  0.1645
   8623SM   H7S11484   3.852   1.986   5.687  1.6553 -0.0731  0.6718
   8623SM   H7T11485   3.769   2.144   5.690  0.8191 -0.2099 -0.7855
   8623SM   C8S11486   3.868   2.097   5.878 -0.0000  0.3733 -0.5692
   8623SM   H8S11487   3.861   2.203   5.912 -2.5542  1.0029 -2.6905
   8623SM   H8T11488   3.950   2.034   5.918  2.3515  3.1265 -0.8142
   8623SM   C9S11489   3.736   2.034   5.950  0.1054  0.1850 -0.0081
   8623SM   H9S11490   3.699   1.950   5.887 -2.2211  0.2462  1.1566
   8623SM   H9T11491   3.659   2.112   5.931  1.8415  1.1826 -3.7482
   8623SM  C10S11492   3.749   2.005   6.097 -0.0498  0.5822 -0.1481
   8623SM  H10S11493   3.815   2.081   6.145  0.8236 -2.1642  3.4805
   8623SM  H10T11494   3.807   1.911   6.105 -0.9598 -0.1759 -1.8458
   8623SM  C11S11495   3.618   1.990   6.176 -0.4986 -0.0991  0.5362
   8623SM  H11S11496   3.550   1.922   6.121  0.8067 -1.2092  0.2371
   8623SM  H11T11497   3.564   2.087   6.178 -0.9704 -0.2797 -1.5761
   8623SM  C12S11498   3.640   1.922   6.315  0.1285 -0.0518 -0.1338
   8623SM  H12S11499   3.742   1.951   6.347 -0.2927  2.1435 -0.6229
   8623SM  H12T11500   3.655   1.813   6.296  0.1833 -0.1895  0.6283
   8623SM  C13S11501   3.529   1.955   6.419  0.4300 -0.0546 -0.5691
   8623SM  H13S11502   3.430   1.926   6.377 -0.2372  1.5950 -0.1794
   8623SM  H13T11503   3.524   2.065   6.428 -1.2062 -0.1633  0.2520
   8623SM  C14S11504   3.539   1.903   6.562 -0.1440 -0.1977  0.1050
   8623SM  H14S11505   3.587   1.803   6.551  1.5879  0.3322  2.2353
   8623SM  H14T11506   3.440   1.897   6.612 -0.6221  0.9575 -0.6706
   8623SM  C15S11507   3.632   1.974   6.653 -0.7092  0.0163  0.4262
   8623SM  H15S11508   3.605   2.080   6.673 -0.5687 -0.1780  1.8037
   8623SM  H15T11509   3.736   1.958   6.617 -0.0768 -2.0679  2.9011
   8623SM  C16S11510   3.626   1.925   6.803 -0.2908 -0.5997 -0.4841
   8623SM  H16S11511   3.536   1.964   6.855  0.6464 -0.1925  0.8951
   8623SM  H16T11512   3.710   1.975   6.856 -1.2643  0.5486  0.0102
   8623SM  C17S11513   3.623   1.779   6.831  0.1644  0.1531 -0.0704
   8623SM  H17S11514   3.533   1.727   6.793  0.5333 -0.0800 -0.6484
   8623SM  H17T11515   3.620   1.759   6.940 -0.0147  0.1785 -0.0705
   8623SM  C18S11516   3.749   1.712   6.781  0.2801  0.2839  0.2699
   8623SM  H18S11517   3.842   1.767   6.804 -0.3173  1.0127  1.0136
   8623SM  H18T11518   3.737   1.687   6.673 -0.1955  0.8868  0.1781
   8623SM  H18U11519   3.762   1.618   6.839  1.1920  0.6824  0.7260
   8623SM   C1F11520   3.536   2.399   5.279 -0.0180 -0.8857  0.5894
   8623SM    OF11521   3.452   2.341   5.207  0.3041  0.1450 -0.2973
   8623SM   C2F11522   3.501   2.520   5.353  0.1437 -0.1290  0.6070
   8623SM   H2F11523   3.432   2.579   5.289  1.2209 -0.0460 -0.5151
   8623SM   H2G11524   3.591   2.581   5.378  0.0669  0.9428 -1.4709
   8623SM   C3F11525   3.445   2.472   5.485  0.0869  0.5073  1.0710
   8623SM   H3F11526   3.374   2.387   5.481  2.1341 -1.2504  0.5394
   8623SM   H3G11527   3.387   2.560   5.520  2.0938  1.8699  1.1750
   8623SM   C4F11528   3.555   2.434   5.590 -0.0844  0.3435 -0.5360
   8623SM   H4F11529   3.649   2.492   5.591  0.0274  0.1541  0.3461
   8623SM   H4G11530   3.582   2.328   5.570 -1.8325 -0.3946  0.7302
   8623SM   C5F11531   3.496   2.430   5.731  0.1327  0.4697 -0.1607
   8623SM   H5F11532   3.399   2.377   5.721 -0.4627  1.4437  0.2513
   8623SM   H5G11533   3.468   2.531   5.769 -2.8045  0.5284 -2.1485
   8623SM   C6F11534   3.585   2.355   5.829 -0.0782 -0.0251 -0.6661
   8623SM   H6F11535   3.691   2.387   5.837  0.6729 -2.0614 -1.6938
   8623SM   H6G11536   3.587   2.251   5.789  1.8530  0.8817 -3.1828
   8623SM   C7F11537   3.528   2.362   5.964  0.2819  0.0969  0.5569
   8623SM   H7F11538   3.519   2.469   5.992  2.1196  0.7128 -0.9975
   8623SM   H7G11539   3.606   2.324   6.033  0.6716  2.1039  1.2938
   8623SM   C8F11540   3.380   2.307   5.974  0.3020  0.6089 -0.0687
   8623SM   H8F11541   3.379   2.202   5.937  1.8831 -0.7904  3.4409
   8623SM   H8G11542   3.301   2.367   5.923 -0.1047  0.6482  0.5982
   8623SM   C9F11543   3.325   2.285   6.116  0.4968  0.2872 -0.5472
   8623SM   H9F11544   3.303   2.381   6.168 -1.4558 -0.8948  0.9391
   8623SM   H9G11545   3.403   2.237   6.178  0.1678 -0.3473 -0.6143
   8623SM  C10F11546   3.202   2.198   6.118  0.3905 -0.5153 -1.3830
   8623SM  H10F11547   3.238   2.096   6.094  1.3775 -0.8587  1.2662
   8623SM  H10G11548   3.123   2.227   6.045 -0.7223  0.8661  0.2933
   8623SM  C11F11549   3.126   2.200   6.259 -0.9337  0.2510  0.9623
   8623SM  H11F11550   3.111   2.305   6.292 -1.6187  0.2647  0.6219
   8623SM  H11G11551   3.191   2.159   6.339 -1.6711 -0.5355  1.1804
   8623SM  C12F11552   2.998   2.118   6.252  0.4631 -0.2998 -0.0879
   8623SM  H12F11553   3.019   2.009   6.245 -0.6310 -0.6404  1.4843
   8623SM  H12G11554   2.934   2.142   6.165  1.5303  1.2828 -0.4794
   8623SM  C13F11555   2.918   2.134   6.382  0.8194 -0.1007 -0.5370
   8623SM  H13F11556   2.812   2.113   6.356  0.6347  0.0729  0.0512
   8623SM  H13G11557   2.915   2.236   6.428 -0.2294 -1.0097  1.5410
   8623SM  C14F11558   2.956   2.048   6.502  0.5043  0.7653  0.0609
   8623SM  H14F11559   3.053   2.076   6.546  1.3568 -1.6988 -0.0891
   8623SM  H14G11560   2.954   1.945   6.460 -0.2405  1.5239 -1.9074
   8623SM  C15F11561   2.860   2.046   6.618  0.4366  0.4495 -0.7038
   8623SM  H15F11562   2.759   2.019   6.581  0.5956 -2.7266  0.7881
   8623SM  H15G11563   2.846   2.146   6.663 -0.5522 -1.7065  4.6014
   8623SM  C16F11564   2.897   1.941   6.730  0.2120 -0.2666  0.5109
   8623SM  H16F11565   3.000   1.965   6.763  1.1917  0.1236 -2.5276
   8623SM  H16G11566   2.902   1.838   6.689  1.0414 -0.7098  1.6591
   8623SM  C17F11567   2.794   1.934   6.847 -0.3921  0.3534 -0.3383
   8623SM  H17F11568   2.704   1.877   6.815 -1.4855  1.3389  0.8560
   8623SM  H17G11569   2.771   2.041   6.869  0.3506  0.3679  0.4487
   8623SM  C18F11570   2.850   1.882   6.981 -0.1655 -0.4113 -1.0857
   8623SM  H18F11571   2.950   1.929   6.988 -0.5349  0.3330 -0.6846
   8623SM  H18G11572   2.865   1.772   6.981 -0.2667 -0.4260 -0.2948
   8623SM  C19F11573   2.763   1.926   7.108 -0.1977 -1.2823 -0.2044
   8623SM  H19F11574   2.670   1.872   7.080 -0.7657  0.4104 -1.7645
   8623SM  H19G11575   2.747   2.036   7.112 -0.2165 -1.1935 -2.1634
   8623SM  C20F11576   2.808   1.884   7.249  0.3627  0.1648  0.2111
   8623SM  H20F11577   2.885   1.951   7.294 -1.9244  2.6168  0.7323
   8623SM  H20G11578   2.846   1.781   7.230 -2.0408 -0.5071 -1.3498
   8623SM  C21F11579   2.692   1.879   7.350 -0.3440 -0.5529  0.1658
   8623SM  H21F11580   2.613   1.812   7.307  2.1726 -2.1107 -2.4066
   8623SM  H21G11581   2.644   1.979   7.352  1.8282  0.6283 -1.9071
   8623SM  C22F11582   2.730   1.858   7.493  0.7998  0.9989  0.2233
   8623SM  H22F11583   2.642   1.872   7.560  0.6960  0.2116  0.2620
   8623SM  H22G11584   2.800   1.936   7.528  0.8612  0.5593  1.1044
   8623SM  C23F11585   2.794   1.727   7.534 -0.3295  0.2704  0.3364
   8623SM  H23F11586   2.828   1.740   7.639  0.8413 -3.4245  0.5363
   8623SM  H23G11587   2.886   1.700   7.478  1.0466  1.3041  1.9986
   8623SM  H23H11588   2.724   1.641   7.531 -1.7013  1.3229  1.0171
   8723SM     N11589   4.131   1.490   4.517  0.0097 -0.4195  0.0252
   8723SM   C1511590   4.222   1.459   4.404 -0.2649  0.5332 -0.1010
   8723SM  H15A11591   4.312   1.412   4.440 -0.6574  0.0794  0.3127
   8723SM  H15B11592   4.245   1.547   4.346  1.2123  0.5913  0.5336
   8723SM  H15C11593   4.184   1.381   4.341 -1.1375 -0.3645  1.4850
   8723SM   C1411594   4.166   1.612   4.596 -0.2043 -0.5794 -0.5254
   8723SM  H14A11595   4.088   1.624   4.670  0.1128 -2.0219  0.0702
   8723SM  H14B11596   4.179   1.698   4.532  0.1261 -0.8848 -0.8699
   8723SM  H14C11597   4.260   1.609   4.650 -0.3194 -0.1121 -0.2920
   8723SM   C1311598   3.993   1.509   4.458 -0.1301  0.3107  0.2261
   8723SM  H13A11599   3.962   1.419   4.407  0.1952  0.3264 -0.0006
   8723SM  H13B11600   3.993   1.586   4.382  2.5817  1.6416  1.4495
   8723SM  H13C11601   3.920   1.521   4.536  0.9976 -0.5250  1.4475
   8723SM   C1211602   4.127   1.375   4.617 -0.3810  0.0300  0.4969
   8723SM  H12A11603   4.226   1.342   4.647  0.8775  4.7651  2.5875
   8723SM  H12B11604   4.078   1.293   4.567 -2.2305  1.7737 -0.7112
   8723SM   C1111605   4.046   1.394   4.750  0.6010 -0.3392 -0.5072
   8723SM  H11A11606   4.079   1.481   4.811  0.4842 -0.1825 -0.6645
   8723SM  H11B11607   4.059   1.302   4.810 -0.2110  0.8051  1.5100
   8723SM     P11608   3.801   1.301   4.752 -0.3949 -0.6204 -0.0597
   8723SM   O1311609   3.671   1.334   4.682  0.1092 -0.3204 -0.6857
   8723SM   O1411610   3.869   1.176   4.711  0.1028 -0.0809  0.2821
   8723SM   O1111611   3.789   1.307   4.915  0.2950  0.0973 -0.2164
   8723SM   O1211612   3.911   1.415   4.720 -0.4089 -0.5406 -0.5299
   8723SM   C1S11613   3.782   1.445   4.976 -0.3078  0.2965 -0.5316
   8723SM   H1S11614   3.678   1.484   4.965 -0.8613 -1.0223 -0.2167
   8723SM   H1T11615   3.849   1.524   4.936  0.1907  0.2432  0.1940
   8723SM    NF11616   3.792   1.566   5.195  0.5600  0.1003 -0.0744
   8723SM   HNF11617   3.876   1.610   5.226  1.1548 -0.7681 -0.4226
   8723SM   C2S11618   3.821   1.440   5.131  0.6537 -0.7016 -0.1946
   8723SM   H2S11619   3.746   1.376   5.182 -0.5567 -0.3534 -1.4998
   8723SM   C3S11620   3.961   1.388   5.164 -0.0168  0.4336  0.5471
   8723SM   H3S11621   4.030   1.473   5.144 -1.4946  1.2826 -1.2274
   8723SM    O311622   3.995   1.277   5.081  0.4917 -0.4293  0.7058
   8723SM   HO311623   3.926   1.283   5.015  1.0561  2.0195  0.2641
   8723SM   C4S11624   3.971   1.355   5.308 -0.6528  0.1753 -0.6178
   8723SM   H4S11625   4.046   1.416   5.360  1.6472 -0.7979 -2.5894
   8723SM   C5S11626   3.915   1.243   5.361  0.1364  0.0977  0.7818
   8723SM   H5S11627   3.858   1.181   5.289  0.3924  0.0146  0.6510
   8723SM   C6S11628   3.931   1.195   5.498  0.6164  0.2673 -0.4917
   8723SM   H6S11629   3.971   1.091   5.495 -0.6097 -0.3535  1.8890
   8723SM   H6T11630   3.831   1.179   5.545 -0.5291  0.7240 -2.6348
   8723SM   C7S11631   3.994   1.279   5.613 -0.3326  0.0122 -0.1199
   8723SM   H7S11632   3.951   1.381   5.624 -0.2335  0.1407 -0.8366
   8723SM   H7T11633   4.102   1.287   5.591  0.2279  0.0692  2.4307
   8723SM   C8S11634   3.981   1.207   5.751  0.1796  0.1156  0.1850
   8723SM   H8S11635   3.899   1.132   5.753  0.5245 -0.2881  2.5707
   8723SM   H8T11636   3.945   1.282   5.825 -1.1472 -1.0814  0.8065
   8723SM   C9S11637   4.105   1.129   5.794  0.0036  0.3638 -0.4319
   8723SM   H9S11638   4.141   1.071   5.707 -1.5205  0.2182 -0.9916
   8723SM   H9T11639   4.075   1.044   5.859  0.3849 -0.4751 -1.3223
   8723SM  C10S11640   4.221   1.204   5.866 -0.1145  0.5109  0.0999
   8723SM  H10S11641   4.271   1.271   5.794 -1.3162  0.8404 -0.4471
   8723SM  H10T11642   4.294   1.128   5.902  1.9818  1.8838 -1.0856
   8723SM  C11S11643   4.187   1.282   5.983 -0.5558 -0.6133  0.1338
   8723SM  H11S11644   4.077   1.284   5.994 -0.7082 -0.0086 -1.2299
   8723SM  H11T11645   4.219   1.388   5.996  0.8863 -0.9514 -0.4638
   8723SM  C12S11646   4.250   1.226   6.110 -0.5307  0.5642 -1.1265
   8723SM  H12S11647   4.228   1.118   6.112 -0.4825  0.5209  1.8837
   8723SM  H12T11648   4.209   1.270   6.203 -1.7171 -1.3139 -0.7180
   8723SM  C13S11649   4.404   1.258   6.122 -0.1450 -0.6349  0.0062
   8723SM  H13S11650   4.409   1.360   6.166 -0.3151 -0.9559  0.7935
   8723SM  H13T11651   4.436   1.248   6.016 -1.6967 -1.6158 -0.4087
   8723SM  C14S11652   4.474   1.165   6.218  0.3380  0.1181 -0.1233
   8723SM  H14S11653   4.581   1.161   6.190  0.1298 -0.0551 -0.9143
   8723SM  H14T11654   4.427   1.065   6.206 -0.2338  0.3585  0.0737
   8723SM  C15S11655   4.449   1.226   6.357  0.3203  0.0073 -0.0562
   8723SM  H15S11656   4.339   1.235   6.372 -0.0441 -1.1724 -1.7254
   8723SM  H15T11657   4.498   1.325   6.349  1.1974 -0.3413  0.7764
   8723SM  C16S11658   4.516   1.149   6.474  0.3329 -0.4360  0.0500
   8723SM  H16S11659   4.615   1.101   6.457  0.3800 -1.3285  2.4260
   8723SM  H16T11660   4.454   1.058   6.491 -1.1945  0.5676 -0.0229
   8723SM  C17S11661   4.515   1.246   6.594  0.6761 -0.7277  0.1874
   8723SM  H17S11662   4.416   1.296   6.592 -0.1126 -2.2341 -0.2538
   8723SM  H17T11663   4.597   1.319   6.577 -0.9285  0.9090 -0.9003
   8723SM  C18S11664   4.528   1.176   6.726 -0.5338  0.6349  0.0983
   8723SM  H18S11665   4.627   1.130   6.747 -1.8277 -1.7220  1.4005
   8723SM  H18T11666   4.453   1.094   6.730 -1.5018  1.5257  1.0939
   8723SM  H18U11667   4.504   1.249   6.807  0.3900  0.5114  0.4894
   8723SM   C1F11668   3.668   1.618   5.205 -0.3675  0.2502 -0.4782
   8723SM    OF11669   3.570   1.565   5.153  0.3678 -0.1673  0.0771
   8723SM   C2F11670   3.652   1.733   5.301  1.4375 -0.2795  0.2840
   8723SM   H2F11671   3.701   1.817   5.248  0.2712  0.7085  0.7227
   8723SM   H2G11672   3.711   1.719   5.394  1.5576 -1.7628  0.0002
   8723SM   C3F11673   3.507   1.781   5.343  0.1040  0.0689 -0.6853
   8723SM   H3F11674   3.443   1.695   5.373  1.2680 -0.9108 -0.9417
   8723SM   H3G11675   3.461   1.825   5.251  1.1519  0.6207 -0.9583
   8723SM   C4F11676   3.497   1.886   5.453 -0.2492  0.0248 -0.0221
   8723SM   H4F11677   3.393   1.924   5.446  0.1508  1.4443  1.0607
   8723SM   H4G11678   3.567   1.968   5.424  0.0390 -0.6394 -1.2350
   8723SM   C5F11679   3.541   1.834   5.587  0.8643  1.0251 -0.6508
   8723SM   H5F11680   3.650   1.849   5.596  0.8157  1.2490 -0.4289
   8723SM   H5G11681   3.523   1.725   5.589  1.4423  0.9353 -0.3550
   8723SM   C6F11682   3.471   1.902   5.708 -0.1355 -0.3100 -0.0811
   8723SM   H6F11683   3.372   1.937   5.671 -1.1861 -3.4825 -0.5412
   8723SM   H6G11684   3.529   1.990   5.742  0.0856  0.1713 -1.6194
   8723SM   C7F11685   3.455   1.810   5.831  0.8045  0.1250 -0.3337
   8723SM   H7F11686   3.554   1.796   5.880 -0.4038 -0.8727  1.9517
   8723SM   H7G11687   3.426   1.711   5.791 -1.2812  0.0639  1.1750
   8723SM   C8F11688   3.340   1.857   5.928 -0.5718 -0.1997  0.3760
   8723SM   H8F11689   3.246   1.876   5.873 -0.5729 -0.1299  0.4019
   8723SM   H8G11690   3.375   1.955   5.968 -0.8343  0.6340 -1.3644
   8723SM   C9F11691   3.301   1.754   6.040 -0.0505 -0.0284  0.2582
   8723SM   H9F11692   3.373   1.766   6.124 -1.5306  0.3467  1.5067
   8723SM   H9G11693   3.323   1.655   5.996 -3.2631 -2.0978  2.9050
   8723SM  C10F11694   3.151   1.761   6.083 -0.2773  0.7790  0.2464
   8723SM  H10F11695   3.088   1.746   5.992 -0.0243 -1.7464  0.4174
   8723SM  H10G11696   3.123   1.866   6.107  0.2614  0.7690  0.9445
   8723SM  C11F11697   3.123   1.672   6.211  0.5914  0.3826 -0.4442
   8723SM  H11F11698   3.159   1.567   6.217  2.0842  0.9622  3.3029
   8723SM  H11G11699   3.013   1.657   6.217  0.4094  1.8133  0.1471
   8723SM  C12F11700   3.182   1.741   6.326 -0.6684 -0.0631 -0.7979
   8723SM  H12F11701   3.151   1.847   6.327 -1.1090 -0.1889 -0.7473
   8723SM  H12G11702   3.291   1.719   6.324 -0.7638 -0.5343 -1.2261
   8723SM  C13F11703   3.136   1.694   6.464  0.3224 -0.5075 -0.3938
   8723SM  H13F11704   3.125   1.583   6.467 -0.0807 -0.4468  0.9054
   8723SM  H13G11705   3.036   1.735   6.487  0.6310 -0.2872  0.5650
   8723SM  C14F11706   3.240   1.732   6.573  0.5779 -0.0378  0.3955
   8723SM  H14F11707   3.261   1.838   6.550  0.9920  0.2820  2.1235
   8723SM  H14G11708   3.334   1.682   6.542  0.6098 -0.1563  0.6761
   8723SM  C15F11709   3.203   1.712   6.719 -0.0354 -0.2796  0.0897
   8723SM  H15F11710   3.093   1.726   6.717 -0.0183  0.0448 -2.8232
   8723SM  H15G11711   3.253   1.790   6.781  0.1153 -0.8652  0.7116
   8723SM  C16F11712   3.249   1.576   6.769 -0.3647 -0.2327  0.5461
   8723SM  H16F11713   3.359   1.568   6.756 -0.0449  1.4453  1.8895
   8723SM  H16G11714   3.208   1.493   6.709  1.0581 -0.3644 -0.2962
   8723SM  C17F11715   3.226   1.543   6.918 -0.0093 -0.0769  0.7490
   8723SM  H17F11716   3.270   1.633   6.965  0.7367  1.2275 -2.1871
   8723SM  H17G11717   3.282   1.453   6.951  0.7725 -0.1973 -0.8038
   8723SM  C18F11718   3.077   1.518   6.956  0.4703  0.4552 -0.5971
   8723SM  H18F11719   3.057   1.422   6.903 -0.6421 -0.2398  1.0065
   8723SM  H18G11720   3.019   1.604   6.917  1.4324  1.2075 -0.3968
   8723SM  C19F11721   3.052   1.500   7.112 -0.1294 -0.4027 -0.0446
   8723SM  H19F11722   3.082   1.601   7.146  0.6663 -0.5213 -0.3650
   8723SM  H19G11723   3.112   1.409   7.134 -0.1708 -0.8832 -1.7605
   8723SM  C20F11724   2.901   1.477   7.138 -0.7660 -0.1214 -0.4492
   8723SM  H20F11725   2.865   1.406   7.060  0.7669 -2.3303  0.7239
   8723SM  H20G11726   2.845   1.573   7.134 -1.6789 -0.5399  1.2209
   8723SM  C21F11727   2.873   1.414   7.278 -0.1357  0.6034  0.4263
   8723SM  H21F11728   2.764   1.426   7.298 -0.3587 -1.2341  0.4205
   8723SM  H21G11729   2.920   1.474   7.358  0.7746 -1.6910  1.6899
   8723SM  C22F11730   2.928   1.275   7.302 -0.1021 -0.2599  0.1158
   8723SM  H22F11731   3.039   1.277   7.308 -0.1142 -1.0006  0.7057
   8723SM  H22G11732   2.895   1.206   7.221 -2.3804 -1.2446  1.8080
   8723SM  C23F11733   2.869   1.234   7.439 -0.2474 -0.7192 -0.4910
   8723SM  H23F11734   2.761   1.213   7.426 -0.3653 -0.6174  0.2519
   8723SM  H23G11735   2.900   1.314   7.510  2.4547 -0.7436 -1.5427
   8723SM  H23H11736   2.912   1.140   7.480  0.1119 -0.2385  0.2643
   8823SM     N11737   0.616   1.788   5.111 -0.1708  0.0216  0.1135
   8823SM   C1511738   0.603   1.851   4.971 -0.1412 -0.1662  0.1778
   8823SM  H15A11739   0.505   1.894   4.955 -0.3553 -1.3941 -2.2914
   8823SM  H15B11740   0.614   1.776   4.894  0.6957 -0.4068  0.5210
   8823SM  H15C11741   0.673   1.933   4.968 -0.3627  0.0203  0.0275
   8823SM   C1411742   0.590   1.890   5.213  0.1053 -0.0219  0.3219
   8823SM  H14A11743   0.592   1.842   5.309 -0.8270  0.9657  0.8660
   8823SM  H14B11744   0.497   1.938   5.186  0.7442  1.4208  0.5831
   8823SM  H14C11745   0.676   1.955   5.218  0.6636 -0.6008 -1.0646
   8823SM   C1311746   0.512   1.681   5.117  0.2451 -0.3415  0.2350
   8823SM  H13A11747   0.545   1.596   5.059 -0.9398 -1.5478  1.2703
   8823SM  H13B11748   0.413   1.722   5.104  0.4905  0.0250 -0.5354
   8823SM  H13C11749   0.503   1.647   5.219  1.5035  1.4818  1.0132
   8823SM   C1211750   0.759   1.733   5.124 -0.2428 -0.3740 -0.3434
   8823SM  H12A11751   0.775   1.666   5.041 -0.4846 -0.6926 -0.1348
   8823SM  H12B11752   0.767   1.658   5.202  2.1349  0.2127  0.0520
   8823SM   C1111753   0.869   1.828   5.127  0.4668  0.0808 -0.0812
   8823SM  H11A11754   0.956   1.765   5.154 -0.2956 -0.9713 -0.0347
   8823SM  H11B11755   0.855   1.901   5.210  0.9044  1.1762 -0.9540
   8823SM     P11756   1.018   1.867   4.923  0.2913 -0.1520  0.8097
   8823SM   O1311757   1.001   1.745   4.840  0.7737 -0.1314  0.0424
   8823SM   O1411758   1.058   1.987   4.840  0.3435 -0.0476  0.1481
   8823SM   O1111759   1.133   1.833   5.022  0.2422  0.0320 -0.3667
   8823SM   O1211760   0.891   1.904   5.012  0.7351  0.4113  0.1095
   8823SM   C1S11761   1.188   1.926   5.120  0.1363  0.4083 -0.4156
   8823SM   H1S11762   1.118   1.946   5.204  2.3833 -1.6181  2.1198
   8823SM   H1T11763   1.210   2.026   5.077 -0.9084  1.0673  0.5341
   8823SM    NF11764   1.354   1.912   5.316  0.3661  0.0450  0.3110
   8823SM   HNF11765   1.440   1.959   5.336  0.3427  0.4316 -0.4647
   8823SM   C2S11766   1.326   1.867   5.178 -0.2506 -0.6162  0.0251
   8823SM   H2S11767   1.316   1.757   5.186 -1.4576 -0.3902  2.4352
   8823SM   C3S11768   1.442   1.891   5.079  0.8686 -0.5990  0.0065
   8823SM   H3S11769   1.463   1.999   5.072 -1.6903  0.0642  1.1995
   8823SM    O311770   1.408   1.849   4.950  0.1155 -0.1443 -0.4084
   8823SM   HO311771   1.316   1.823   4.956  0.0063  0.3624  0.3645
   8823SM   C4S11772   1.562   1.807   5.120 -0.1362  0.4875  0.5736
   8823SM   H4S11773   1.555   1.700   5.094  1.0638  0.1735  1.4279
   8823SM   C5S11774   1.682   1.848   5.160  0.1413 -0.5519  0.8142
   8823SM   H5S11775   1.702   1.955   5.149  0.4990 -0.3673  2.8838
   8823SM   C6S11776   1.806   1.772   5.184  0.5616  0.3350  0.1392
   8823SM   H6S11777   1.886   1.837   5.144 -0.3817  1.1988 -0.3925
   8823SM   H6T11778   1.812   1.678   5.124 -1.1564  0.2224  0.0825
   8823SM   C7S11779   1.825   1.745   5.337 -0.0580  0.7621  0.7893
   8823SM   H7S11780   1.877   1.836   5.371  0.0805  1.6583 -1.6496
   8823SM   H7T11781   1.909   1.672   5.342  1.9390  2.4420 -3.3125
   8823SM   C8S11782   1.690   1.702   5.400 -1.0152  0.3060  0.1488
   8823SM   H8S11783   1.670   1.605   5.349  0.9203 -0.9306  1.5817
   8823SM   H8T11784   1.617   1.785   5.394  1.4902  2.5801 -0.7736
   8823SM   C9S11785   1.699   1.675   5.555  0.0068  0.1544 -0.2222
   8823SM   H9S11786   1.774   1.594   5.569 -1.2589 -0.9286  0.5286
   8823SM   H9T11787   1.599   1.636   5.585  0.5311  0.2441  1.7511
   8823SM  C10S11788   1.735   1.795   5.647  0.5376  0.7548 -0.1980
   8823SM  H10S11789   1.658   1.875   5.639 -0.8053 -0.3170  1.4247
   8823SM  H10T11790   1.838   1.836   5.633  0.1384  1.0018 -2.8850
   8823SM  C11S11791   1.724   1.746   5.791 -0.5386  0.3165 -0.1567
   8823SM  H11S11792   1.778   1.651   5.810 -0.6335  0.0115 -1.3201
   8823SM  H11T11793   1.616   1.722   5.804 -1.5882  2.5374 -3.4732
   8823SM  C12S11794   1.778   1.851   5.886 -0.0552  0.3028 -0.0940
   8823SM  H12S11795   1.735   1.953   5.872  1.4061  0.7116 -2.1181
   8823SM  H12T11796   1.884   1.848   5.854 -0.8444 -0.1231 -2.9134
   8823SM  C13S11797   1.775   1.823   6.037  0.2512  0.6211  0.3488
   8823SM  H13S11798   1.822   1.725   6.063 -1.2960  0.0894  1.2191
   8823SM  H13T11799   1.667   1.806   6.053 -0.1245  0.4064 -2.0129
   8823SM  C14S11800   1.812   1.944   6.128  0.2882  0.9051 -0.4357
   8823SM  H14S11801   1.747   2.031   6.104 -2.5738 -0.7323  0.9438
   8823SM  H14T11802   1.917   1.979   6.119  0.6937  0.9265  3.1377
   8823SM  C15S11803   1.775   1.908   6.272  0.0020  0.5976  1.6363
   8823SM  H15S11804   1.843   1.824   6.301  0.6190  0.6649  0.4219
   8823SM  H15T11805   1.671   1.869   6.281 -0.5796  1.9309  0.9631
   8823SM  C16S11806   1.787   2.027   6.363  0.5792  0.5061  0.5789
   8823SM  H16S11807   1.732   2.110   6.314 -0.1182 -1.4965 -2.2768
   8823SM  H16T11808   1.893   2.048   6.386  0.6067  0.4182  0.5307
   8823SM  C17S11809   1.709   2.006   6.498  0.2530 -0.3175  0.4905
   8823SM  H17S11810   1.599   2.011   6.482  0.1603 -2.7232  0.1065
   8823SM  H17T11811   1.747   2.083   6.570  1.6367  0.2975 -0.8454
   8823SM  C18S11812   1.736   1.870   6.559  0.0200  0.1476  0.2247
   8823SM  H18S11813   1.844   1.853   6.580  0.4388  0.3419 -1.6066
   8823SM  H18T11814   1.709   1.782   6.497  2.2929 -0.4558 -0.0006
   8823SM  H18U11815   1.702   1.869   6.665 -0.2940  0.4551  0.1276
   8823SM   C1F11816   1.267   1.898   5.414 -0.2499 -0.1257  0.0365
   8823SM    OF11817   1.161   1.842   5.401  0.2568  0.3894 -0.3971
   8823SM   C2F11818   1.317   1.952   5.547 -0.3643  0.5155 -0.5188
   8823SM   H2F11819   1.349   2.059   5.539  1.3117 -0.0104 -1.2768
   8823SM   H2G11820   1.415   1.901   5.556 -1.0339 -1.1562 -2.1025
   8823SM   C3F11821   1.224   1.917   5.668 -0.1305  0.0695  0.1796
   8823SM   H3F11822   1.211   1.807   5.679 -0.0872  0.0539  0.0741
   8823SM   H3G11823   1.128   1.970   5.653  0.9151  2.1526  0.4949
   8823SM   C4F11824   1.303   1.951   5.798 -0.0889 -0.6140 -0.7806
   8823SM   H4F11825   1.299   2.059   5.823 -0.9371 -0.9668  0.7502
   8823SM   H4G11826   1.412   1.929   5.794  0.5717  1.7541  1.3173
   8823SM   C5F11827   1.253   1.873   5.925  0.0570  0.0917  0.5705
   8823SM   H5F11828   1.253   1.763   5.908 -0.7892  0.3846 -1.6275
   8823SM   H5G11829   1.146   1.900   5.934 -0.0595  0.3698 -1.2887
   8823SM   C6F11830   1.323   1.911   6.054 -0.4453  0.3920  0.2764
   8823SM   H6F11831   1.329   2.022   6.055 -2.6507  0.5549  1.2556
   8823SM   H6G11832   1.422   1.860   6.049 -0.5885  0.0437  0.8721
   8823SM   C7F11833   1.240   1.876   6.176  0.0226 -0.2762  0.3449
   8823SM   H7F11834   1.209   1.770   6.174 -1.6513  0.1010  2.8361
   8823SM   H7G11835   1.157   1.949   6.169  3.4351  3.8974 -1.2002
   8823SM   C8F11836   1.317   1.906   6.304 -0.2154  0.0447  0.7878
   8823SM   H8F11837   1.316   2.016   6.321 -2.0824  0.1613  0.1146
   8823SM   H8G11838   1.424   1.880   6.289 -0.3055  0.9070 -1.7974
   8823SM   C9F11839   1.265   1.839   6.431  0.3222  0.3217  0.1037
   8823SM   H9F11840   1.276   1.728   6.431 -2.1315  0.0280  0.5711
   8823SM   H9G11841   1.157   1.861   6.441  0.4975  0.8992  0.8012
   8823SM  C10F11842   1.326   1.884   6.562  0.1572 -0.0656  0.4424
   8823SM  H10F11843   1.319   1.995   6.567 -0.8456 -0.1479  1.1595
   8823SM  H10G11844   1.432   1.853   6.553 -0.3958 -1.9599 -0.0005
   8823SM  C11F11845   1.270   1.815   6.681  0.2735 -0.0554 -0.0188
   8823SM  H11F11846   1.282   1.706   6.665 -1.5898 -0.3794  0.5624
   8823SM  H11G11847   1.161   1.834   6.679 -0.5095 -3.4908 -3.7486
   8823SM  C12F11848   1.327   1.865   6.812  0.1911  0.3634  0.3101
   8823SM  H12F11849   1.253   1.854   6.894  1.1185  0.7974  1.2380
   8823SM  H12G11850   1.338   1.976   6.812 -0.2419  0.4074  0.3788
   8823SM  C13F11851   1.465   1.807   6.857 -0.3356 -0.3914  0.4420
   8823SM  H13F11852   1.543   1.886   6.857  1.1651 -1.7629 -1.3520
   8823SM  H13G11853   1.494   1.727   6.785 -0.8559  0.3736 -0.6580
   8823SM  C14F11854   1.460   1.760   7.006 -0.5920  0.2646  0.3386
   8823SM  H14F11855   1.437   1.844   7.075 -2.2732 -1.0838  1.4944
   8823SM  H14G11856   1.562   1.726   7.036 -0.7918 -0.2766  0.4049
   8823SM  C15F11857   1.369   1.637   7.026 -0.0059  0.0889 -0.3358
   8823SM  H15F11858   1.393   1.560   6.951  1.4257  0.3355 -0.1585
   8823SM  H15G11859   1.263   1.670   7.028 -0.4121 -1.1803  0.9610
   8823SM  C16F11860   1.392   1.565   7.162 -0.0076 -0.2319  0.4809
   8823SM  H16F11861   1.500   1.546   7.176 -0.8009 -4.7221  2.1253
   8823SM  H16G11862   1.340   1.467   7.153 -0.9297  0.3185 -0.3080
   8823SM  C17F11863   1.348   1.634   7.292  0.6892  0.0182 -0.4169
   8823SM  H17F11864   1.238   1.631   7.308  0.6506  0.0026 -0.6711
   8823SM  H17G11865   1.382   1.739   7.291 -2.6059  1.1986 -1.2335
   8823SM  C18F11866   1.418   1.568   7.404 -0.0668 -0.4461 -0.7703
   8823SM  H18F11867   1.363   1.606   7.493  0.2519 -1.2267 -0.2325
   8823SM  H18G11868   1.523   1.606   7.404 -0.1058 -0.2931 -2.3052
   8823SM  C19F11869   1.428   1.417   7.411 -0.2342 -0.1067  0.5378
   8823SM  H19F11870   1.484   1.380   7.322  0.5039 -0.9358  1.3287
   8823SM  H19G11871   1.325   1.376   7.411  0.6253 -2.4284  0.2167
   8823SM  C20F11872   1.502   1.368   7.531  0.2182  0.3964  0.0144
   8823SM  H20F11873   1.447   1.386   7.626 -0.2599  0.2576 -0.2326
   8823SM  H20G11874   1.601   1.418   7.535 -0.4600  1.8012 -0.0621
   8823SM  C21F11875   1.507   1.211   7.518  0.1179 -0.4319 -0.3432
   8823SM  H21F11876   1.596   1.178   7.460 -0.5827 -2.1400 -0.4886
   8823SM  H21G11877   1.413   1.178   7.469 -1.3448  1.0103  1.3732
   8823SM  C22F11878   1.517   1.135   7.650  0.3420 -0.6262 -0.1613
   8823SM  H22F11879   1.534   1.027   7.629  1.0215 -0.2652 -1.5448
   8823SM  H22G11880   1.417   1.139   7.698  0.3383  0.7150 -0.2489
   8823SM  C23F11881   1.616   1.179   7.759  0.1834  0.4115  0.3578
   8823SM  H23F11882   1.622   1.105   7.842  0.0382  1.3920  1.2755
   8823SM  H23G11883   1.586   1.278   7.800 -0.0339  0.0885  0.9953
   8823SM  H23H11884   1.721   1.195   7.727 -0.0341  1.3298  0.0538
   8923SM     N11885   5.783   1.894   5.064 -0.6007 -0.2295 -0.0204
   8923SM   C1511886   5.803   2.040   5.026  0.1950 -0.5179 -0.1563
   8923SM  H15A11887   5.906   2.066   5.008 -0.0217 -1.3039 -2.9900
   8923SM  H15B11888   5.766   2.103   5.105  1.2867 -0.5683  0.4169
   8923SM  H15C11889   5.753   2.059   4.932  1.0555 -1.2375 -0.7794
   8923SM   C1411890   5.829   1.808   4.950  0.2656 -0.1853  0.2712
   8923SM  H14A11891   5.936   1.801   4.935  0.4376 -2.5155  1.9731
   8923SM  H14B11892   5.782   1.847   4.861  0.8965  0.6158  0.2722
   8923SM  H14C11893   5.793   1.707   4.965  3.4430 -1.5025 -0.0990
   8923SM   C1311894   5.860   1.870   5.181 -0.3585  0.4378 -0.3742
   8923SM  H13A11895   5.843   1.938   5.263  0.0870 -1.8481  1.7261
   8923SM  H13B11896   5.962   1.870   5.145 -0.1518 -0.4673  0.1860
   8923SM  H13C11897   5.827   1.774   5.217 -1.5173  1.3408  1.0573
   8923SM   C1211898   5.635   1.875   5.094  0.0651  0.1444 -0.3698
   8923SM  H12A11899   5.615   1.771   5.117 -0.6348  0.2894 -0.3214
   8923SM  H12B11900   5.570   1.898   5.011  0.0997  0.8633 -0.2036
   8923SM   C1111901   5.589   1.958   5.221  0.0104  0.1028  0.3212
   8923SM  H11A11902   5.566   2.058   5.180  1.4860  0.8117  1.1791
   8923SM  H11B11903   5.665   1.955   5.302 -1.9291 -3.4709  2.2709
   8923SM     P11904   5.350   1.953   5.328  0.5324 -0.1673 -0.3848
   8923SM   O1311905   5.376   2.085   5.391 -0.3893 -0.2781  0.1341
   8923SM   O1411906   5.242   1.956   5.222 -0.4043 -0.5782 -0.0403
   8923SM   O1111907   5.311   1.847   5.434  0.0644  0.0551 -0.9230
   8923SM   O1211908   5.481   1.881   5.271  0.0324 -0.0508  0.1407
   8923SM   C1S11909   5.396   1.805   5.543  0.4761  0.4566  0.1057
   8923SM   H1S11910   5.496   1.852   5.530  0.6392  0.5678  1.6476
   8923SM   H1T11911   5.407   1.696   5.523 -2.3060  0.4418 -1.9147
   8923SM    NF11912   5.461   1.796   5.774  0.7004  0.3176 -0.9669
   8923SM   HNF11913   5.458   1.714   5.831  1.3844  0.7618 -0.2588
   8923SM   C2S11914   5.351   1.828   5.689 -0.0686  0.3439 -0.1774
   8923SM   H2S11915   5.329   1.936   5.706  0.2706  0.1832  1.4453
   8923SM   C3S11916   5.224   1.752   5.720  0.4776 -0.6031 -0.1068
   8923SM   H3S11917   5.255   1.646   5.715  1.9622 -0.1864 -0.3867
   8923SM    O311918   5.121   1.753   5.615 -0.5088  0.1441 -0.4347
   8923SM   HO311919   5.164   1.781   5.534  0.9415  0.6154  0.4558
   8923SM   C4S11920   5.173   1.777   5.859 -0.4754 -0.0586  0.0346
   8923SM   H4S11921   5.185   1.880   5.896 -1.8424 -0.2210  1.0253
   8923SM   C5S11922   5.138   1.686   5.951 -0.1479  0.3118 -0.4468
   8923SM   H5S11923   5.157   1.583   5.915 -1.2803 -0.6777  1.6127
   8923SM   C6S11924   5.095   1.701   6.095 -0.3080  0.7271 -0.2638
   8923SM   H6S11925   4.991   1.662   6.102  0.0003  0.0861  1.2581
   8923SM   H6T11926   5.082   1.809   6.116 -0.6749  0.9902 -1.7100
   8923SM   C7S11927   5.188   1.637   6.192 -0.2428  0.2209  0.1802
   8923SM   H7S11928   5.285   1.690   6.196  0.6705 -1.3117 -0.7143
   8923SM   H7T11929   5.205   1.533   6.157 -3.3695 -1.5083  3.1742
   8923SM   C8S11930   5.128   1.621   6.335 -1.2151 -0.2866  0.2213
   8923SM   H8S11931   5.039   1.554   6.339 -0.6255 -1.2270 -1.5213
   8923SM   H8T11932   5.090   1.723   6.360 -1.5655 -0.5898  0.9593
   8923SM   C9S11933   5.234   1.587   6.439 -0.3510  0.0106 -0.7399
   8923SM   H9S11934   5.317   1.661   6.439  0.2267 -0.5477  1.3136
   8923SM   H9T11935   5.289   1.493   6.418  0.6811 -0.4699  3.2490
   8923SM  C10S11936   5.169   1.589   6.570  0.5382  0.0087  0.3203
   8923SM  H10S11937   5.080   1.523   6.580 -0.2572  0.9013 -0.5997
   8923SM  H10T11938   5.126   1.689   6.596 -1.0294 -1.4180  3.8605
   8923SM  C11S11939   5.257   1.561   6.690  0.3521 -0.3489 -0.3862
   8923SM  H11S11940   5.330   1.644   6.705  2.0348 -1.5800 -1.3821
   8923SM  H11T11941   5.322   1.474   6.663 -1.1211 -1.5359 -0.2170
   8923SM  C12S11942   5.181   1.516   6.813 -0.4939  0.0749  0.4051
   8923SM  H12S11943   5.096   1.453   6.780  0.7069 -0.8131 -1.1163
   8923SM  H12T11944   5.124   1.604   6.851  1.1282  0.6203  1.7114
   8923SM  C13S11945   5.269   1.460   6.915 -0.6708  0.2655 -0.1614
   8923SM  H13S11946   5.346   1.537   6.938 -0.7234  0.2411  0.0935
   8923SM  H13T11947   5.328   1.376   6.872 -0.6550 -0.4733  1.2664
   8923SM  C14S11948   5.208   1.436   7.051  0.4130 -0.1132 -0.2630
   8923SM  H14S11949   5.181   1.330   7.073  1.8262 -0.2387  1.0224
   8923SM  H14T11950   5.112   1.492   7.062 -0.6434 -1.9607  0.3942
   8923SM  C15S11951   5.294   1.491   7.168 -0.5014 -0.5237  0.2830
   8923SM  H15S11952   5.314   1.597   7.145 -2.0592 -0.2178  0.2438
   8923SM  H15T11953   5.383   1.424   7.174 -0.9147 -1.1613 -0.4683
   8923SM  C16S11954   5.210   1.487   7.298 -0.3896  0.7488 -0.9288
   8923SM  H16S11955   5.183   1.381   7.318 -1.8295  0.8552 -2.1577
   8923SM  H16T11956   5.112   1.537   7.287 -1.2670 -0.8209 -0.5659
   8923SM  C17S11957   5.287   1.547   7.422 -0.2998 -0.3635 -0.6255
   8923SM  H17S11958   5.205   1.537   7.496 -0.1120 -1.7594 -0.5648
   8923SM  H17T11959   5.307   1.652   7.394 -3.7632  0.5696 -0.0696
   8923SM  C18S11960   5.415   1.470   7.454 -0.6905  0.1808  0.7577
   8923SM  H18S11961   5.474   1.525   7.530 -0.4784  1.5675 -0.3684
   8923SM  H18T11962   5.472   1.460   7.360  0.7972  2.5430  1.3223
   8923SM  H18U11963   5.401   1.369   7.500  7.4478  0.2246  5.3212
   8923SM   C1F11964   5.563   1.878   5.793  0.0850  0.5925  0.0549
   8923SM    OF11965   5.562   1.990   5.743  0.6940  0.3929 -0.3806
   8923SM   C2F11966   5.663   1.820   5.892  0.2851 -0.2261  0.0777
   8923SM   H2F11967   5.755   1.882   5.891  0.7046 -0.8116 -1.5226
   8923SM   H2G11968   5.696   1.722   5.851  0.0100 -0.3547  0.1619
   8923SM   C3F11969   5.603   1.799   6.033 -0.2016  0.0660  0.2368
   8923SM   H3F11970   5.516   1.731   6.041  0.8415 -1.1931  1.1161
   8923SM   H3G11971   5.577   1.900   6.072  0.8927  0.6353 -0.4328
   8923SM   C4F11972   5.703   1.749   6.149 -0.3579 -0.1342  0.4287
   8923SM   H4F11973   5.782   1.828   6.159 -1.4984  1.1288 -0.2263
   8923SM   H4G11974   5.757   1.654   6.128  1.3615  0.5573  1.5170
   8923SM   C5F11975   5.618   1.732   6.271  0.3703  0.2605  0.3014
   8923SM   H5F11976   5.541   1.655   6.250  2.0723 -1.3401 -0.3576
   8923SM   H5G11977   5.566   1.824   6.305 -0.7122  0.1038 -0.8915
   8923SM   C6F11978   5.700   1.674   6.387 -0.4562 -0.6724 -0.8738
   8923SM   H6F11979   5.793   1.730   6.409 -2.2559  1.3378  2.7377
   8923SM   H6G11980   5.732   1.578   6.343 -0.2333 -0.3586 -1.4110
   8923SM   C7F11981   5.634   1.660   6.519 -0.2376  0.7015  0.6382
   8923SM   H7F11982   5.548   1.591   6.501  0.4159 -0.1721  0.7843
   8923SM   H7G11983   5.592   1.756   6.557  0.7669  2.5717 -2.6511
   8923SM   C8F11984   5.726   1.604   6.633  0.2054  0.1717  1.5410
   8923SM   H8F11985   5.801   1.680   6.664  0.7912 -0.1053  0.8310
   8923SM   H8G11986   5.769   1.514   6.585  0.3373  0.9882  0.0726
   8923SM   C9F11987   5.650   1.557   6.764  0.2658 -0.2360 -0.1052
   8923SM   H9F11988   5.588   1.472   6.727  0.9063 -1.1131  0.7774
   8923SM   H9G11989   5.590   1.642   6.802  1.8919  0.6259  0.5931
   8923SM  C10F11990   5.746   1.502   6.865  0.4267 -0.4482  0.4172
   8923SM  H10F11991   5.825   1.577   6.884 -0.4093  0.6219 -0.2587
   8923SM  H10G11992   5.785   1.404   6.830  0.2063 -0.1434 -0.7087
   8923SM  C11F11993   5.670   1.477   6.999 -0.7621  0.5397 -0.7647
   8923SM  H11F11994   5.583   1.414   6.969  0.0815 -0.7689 -0.5437
   8923SM  H11G11995   5.634   1.576   7.033  2.4254  1.3075  0.7134
   8923SM  C12F11996   5.760   1.406   7.103 -0.3087 -0.2929 -0.5430
   8923SM  H12F11997   5.862   1.411   7.061  1.5781 -0.5398  3.4887
   8923SM  H12G11998   5.726   1.301   7.117  0.2508 -0.4176 -0.0675
   8923SM  C13F11999   5.768   1.480   7.240 -0.1471  0.0072 -0.0536
   8923SM  H13F12000   5.661   1.503   7.257  0.0574  1.6857 -0.8652
   8923SM  H13G12001   5.831   1.571   7.247  0.6239 -0.4391 -0.9488
   8923SM  C14F12002   5.797   1.384   7.353  0.1616 -0.1904  0.3047
   8923SM  H14F12003   5.903   1.351   7.342  0.6994  1.6278 -0.4097
   8923SM  H14G12004   5.722   1.302   7.353  0.5606 -0.5828  2.0055
   8923SM  C15F12005   5.799   1.436   7.499 -0.4052  0.0204  0.2264
   8923SM  H15F12006   5.703   1.488   7.513 -0.7457 -0.1425 -1.3046
   8923SM  H15G12007   5.875   1.517   7.497  1.3401 -1.4397  2.1697
   8923SM  C16F12008   5.832   1.338   7.610 -0.7567 -0.0998 -0.7323
   8923SM  H16F12009   5.942   1.341   7.620 -0.7752  1.0204 -0.6903
   8923SM  H16G12010   5.796   1.239   7.575  0.9144 -1.2371  0.6090
   8923SM  C17F12011   5.766   1.365   7.743 -0.2746 -0.2126 -0.1976
   8923SM  H17F12012   5.657   1.379   7.728 -0.2671 -0.8850 -0.9570
   8923SM  H17G12013   5.796   1.467   7.774 -1.2834  0.2301 -0.6561
   8923SM  C18F12014   5.783   1.250   7.855  0.3953  0.4080 -0.2254
   8923SM  H18F12015   5.699   1.186   7.819 -0.8818  1.7118  0.3339
   8923SM  H18G12016   5.746   1.294   7.950 -1.3308 -1.1564 -0.1170
   8923SM  C19F12017   5.910   1.168   7.873 -0.0644 -0.2000  0.5873
   8923SM  H19F12018   5.982   1.248   7.902 -0.1381  0.7848 -1.7037
   8923SM  H19G12019   5.941   1.127   7.774 -0.4956 -2.9756  1.5109
   8923SM  C20F12020   5.909   1.044   7.965 -0.7225 -0.3887  0.5839
   8923SM  H20F12021   5.901   1.071   8.072 -2.0612 -0.0972  0.4275
   8923SM  H20G12022   6.007   0.991   7.958 -1.1340 -0.9915 -1.2277
   8923SM  C21F12023   5.803   0.939   7.927 -0.0495 -0.0402 -0.3287
   8923SM  H21F12024   5.793   0.925   7.817 -1.4933  3.0963 -0.7026
   8923SM  H21G12025   5.709   0.976   7.973  1.8651  3.9227  0.8194
   8923SM  C22F12026   5.819   0.799   7.988  0.0988 -0.2262  0.8039
   8923SM  H22F12027   5.826   0.820   8.097  1.2686  3.4235  0.1676
   8923SM  H22G12028   5.915   0.753   7.956 -0.6876 -2.0103  0.9537
   8923SM  C23F12029   5.699   0.705   7.961 -0.5506 -0.3668 -0.1968
   8923SM  H23F12030   5.610   0.748   8.012  0.2218 -0.1785  1.0341
   8923SM  H23G12031   5.713   0.601   7.997  0.1796 -0.4182 -0.6069
   8923SM  H23H12032   5.676   0.712   7.852 -1.2180 -0.4118 -0.0651
   9023SM     N12033   4.914   1.645   5.212 -0.4684 -0.2677  0.2048
   9023SM   C1512034   4.791   1.675   5.127 -0.2843 -0.6893  0.2645
   9023SM  H15A12035   4.739   1.584   5.100  0.2684 -0.6742 -0.9450
   9023SM  H15B12036   4.811   1.744   5.046 -1.1737 -0.3480  0.3282
   9023SM  H15C12037   4.725   1.734   5.187  1.1402  0.2248  0.9840
   9023SM   C1412038   5.006   1.564   5.120 -0.4557 -0.2539 -0.2762
   9023SM  H14A12039   4.944   1.488   5.075 -0.2445 -0.1950 -0.6677
   9023SM  H14B12040   5.079   1.516   5.184  0.6794 -0.8969 -1.9761
   9023SM  H14C12041   5.044   1.622   5.037  1.3752  0.0234  0.6995
   9023SM   C1312042   4.982   1.771   5.239  0.1618 -0.4670  0.6557
   9023SM  H13A12043   5.082   1.767   5.281  1.3886  1.0726 -1.8722
   9023SM  H13B12044   4.913   1.825   5.302 -0.2108  2.1352 -1.7794
   9023SM  H13C12045   4.995   1.823   5.146 -2.7191 -1.0467 -0.1508
   9023SM   C1212046   4.874   1.567   5.332 -0.0341 -0.1744 -0.4384
   9023SM  H12A12047   4.818   1.480   5.301 -0.3408 -0.5212  1.0076
   9023SM  H12B12048   4.806   1.629   5.389 -0.5569  0.1592 -1.3948
   9023SM   C1112049   4.986   1.514   5.427  0.4768  0.8822  1.0559
   9023SM  H11A12050   4.943   1.498   5.528  1.9063  1.5657  1.8114
   9023SM  H11B12051   5.063   1.594   5.438  0.2061  1.7156 -2.1879
   9023SM     P12052   5.188   1.349   5.369  0.3688  0.2585 -0.2336
   9023SM   O1312053   5.202   1.202   5.359  0.3967 -0.1370 -0.1384
   9023SM   O1412054   5.254   1.423   5.264 -0.0431 -0.1900 -0.3355
   9023SM   O1112055   5.250   1.389   5.506  0.0956  0.0680  0.1396
   9023SM   O1212056   5.034   1.391   5.368 -0.2448 -0.8723  0.0679
   9023SM   C1S12057   5.377   1.360   5.553  0.0213 -0.1209  0.2107
   9023SM   H1S12058   5.448   1.432   5.507  1.7807 -0.1807  2.6399
   9023SM   H1T12059   5.414   1.255   5.544 -0.7863 -0.8659  3.8263
   9023SM    NF12060   5.531   1.349   5.739 -0.2840  0.1000  0.2477
   9023SM   HNF12061   5.554   1.261   5.781  0.6428  0.0308 -0.3691
   9023SM   C2S12062   5.392   1.377   5.711 -0.0094 -0.3787 -0.2196
   9023SM   H2S12063   5.371   1.485   5.726 -2.6401 -0.9194  0.5696
   9023SM   C3S12064   5.280   1.280   5.768 -1.1299  0.5617 -0.0866
   9023SM   H3S12065   5.309   1.187   5.714  1.8572  1.3375  0.0083
   9023SM    O312066   5.147   1.313   5.732 -0.5663  0.3654 -0.0254
   9023SM   HO312067   5.159   1.365   5.652 -0.0345  0.8924  0.3878
   9023SM   C4S12068   5.302   1.265   5.923  0.1879  0.5549 -0.7355
   9023SM   H4S12069   5.309   1.358   5.983 -2.1797  0.3891 -0.0911
   9023SM   C5S12070   5.338   1.148   5.981  0.0151 -0.5559 -0.7748
   9023SM   H5S12071   5.347   1.058   5.918  0.8850  1.3067 -3.4573
   9023SM   C6S12072   5.376   1.139   6.135 -0.5168  0.1558  0.4429
   9023SM   H6S12073   5.447   1.056   6.154 -0.5023  0.3669  1.4112
   9023SM   H6T12074   5.287   1.098   6.187 -1.3380  1.1386 -0.1499
   9023SM   C7S12075   5.424   1.271   6.208  0.7711 -0.9364  0.1638
   9023SM   H7S12076   5.335   1.335   6.224  2.0144  0.9962 -0.4209
   9023SM   H7T12077   5.513   1.313   6.157  1.9305 -1.3716  1.7533
   9023SM   C8S12078   5.486   1.248   6.337  0.2535  0.0403 -0.3115
   9023SM   H8S12079   5.536   1.337   6.380 -1.4798  1.0314 -0.2392
   9023SM   H8T12080   5.560   1.168   6.317 -0.7728 -1.1109  0.3703
   9023SM   C9S12081   5.388   1.206   6.446 -0.1702 -0.7259 -0.1870
   9023SM   H9S12082   5.330   1.116   6.417  2.3521 -2.1021 -1.2899
   9023SM   H9T12083   5.306   1.281   6.455 -0.5994 -1.1211 -0.7661
   9023SM  C10S12084   5.461   1.174   6.577 -0.5106 -0.2748  0.1653
   9023SM  H10S12085   5.519   1.263   6.609  2.1966 -0.3257 -3.9357
   9023SM  H10T12086   5.542   1.103   6.549 -1.7091 -1.3238 -0.7671
   9023SM  C11S12087   5.379   1.119   6.692  0.3152  0.9318 -0.2696
   9023SM  H11S12088   5.313   1.037   6.659  1.8963 -0.5973  0.1996
   9023SM  H11T12089   5.322   1.207   6.729  1.1425  0.8578  1.2736
   9023SM  C12S12090   5.466   1.082   6.814 -0.2849 -0.2225 -0.4586
   9023SM  H12S12091   5.527   1.172   6.837  0.5652 -1.6346  3.7617
   9023SM  H12T12092   5.535   0.996   6.799  2.3502  1.3033  1.9377
   9023SM  C13S12093   5.382   1.054   6.945 -0.0548  0.9047 -0.5601
   9023SM  H13S12094   5.308   0.971   6.938  2.5372 -1.8482  2.0275
   9023SM  H13T12095   5.329   1.147   6.972 -2.6665 -0.2650 -1.2802
   9023SM  C14S12096   5.488   1.021   7.055  0.3043  0.1352 -0.0344
   9023SM  H14S12097   5.558   1.107   7.063 -1.3579  1.5822 -0.5092
   9023SM  H14T12098   5.541   0.925   7.036  0.2094  0.1291 -0.2724
   9023SM  C15S12099   5.414   1.023   7.189 -0.9601  0.2361  0.1170
   9023SM  H15S12100   5.331   0.950   7.180  0.1500 -0.9734 -0.4861
   9023SM  H15T12101   5.362   1.121   7.200 -0.8185  0.4168 -0.7192
   9023SM  C16S12102   5.509   1.001   7.312 -0.3933 -0.6982  0.7199
   9023SM  H16S12103   5.590   1.076   7.297 -2.4574  1.0305 -3.7025
   9023SM  H16T12104   5.558   0.903   7.299  1.5141 -0.0931  2.8149
   9023SM  C17S12105   5.439   1.009   7.445 -0.2932 -0.1361 -1.1657
   9023SM  H17S12106   5.342   0.956   7.448 -0.5953  0.4650  0.0966
   9023SM  H17T12107   5.412   1.113   7.473  0.1488 -0.8483  2.3160
   9023SM  C18S12108   5.532   0.960   7.553 -0.2896 -0.1818 -0.1848
   9023SM  H18S12109   5.482   0.966   7.651  0.0852 -2.0003  0.1555
   9023SM  H18T12110   5.628   1.016   7.549  0.6682 -1.6977  0.4255
   9023SM  H18U12111   5.557   0.853   7.533  0.3856 -0.2787  1.0536
   9023SM   C1F12112   5.633   1.431   5.703  0.3532  0.2263 -0.1555
   9023SM    OF12113   5.603   1.542   5.651  0.0569  0.3496 -0.6650
   9023SM   C2F12114   5.774   1.391   5.723 -0.1961 -0.1097 -0.2927
   9023SM   H2F12115   5.844   1.452   5.661 -0.7494  1.6183  0.7066
   9023SM   H2G12116   5.789   1.285   5.693  0.1208 -0.5624  1.3971
   9023SM   C3F12117   5.817   1.400   5.870  0.0964 -0.0460  0.7607
   9023SM   H3F12118   5.785   1.499   5.909 -0.5295  0.8609 -1.8222
   9023SM   H3G12119   5.927   1.382   5.877  0.4978 -1.1886 -4.1624
   9023SM   C4F12120   5.754   1.287   5.951 -0.2315 -0.1105 -0.7424
   9023SM   H4F12121   5.757   1.193   5.892  0.8026  0.7380 -2.1066
   9023SM   H4G12122   5.647   1.305   5.972  0.3961  0.2204  2.9420
   9023SM   C5F12123   5.796   1.271   6.094 -0.8316 -0.0465 -0.0601
   9023SM   H5F12124   5.752   1.183   6.144  0.9158  0.5646  2.7675
   9023SM   H5G12125   5.763   1.355   6.159  2.8206 -0.1607  2.2070
   9023SM   C6F12126   5.944   1.249   6.110 -0.0812  0.3112  1.3529
   9023SM   H6F12127   5.993   1.346   6.088 -0.4256  0.1938 -0.0283
   9023SM   H6G12128   5.978   1.175   6.034 -0.4472  1.1648  0.3381
   9023SM   C7F12129   5.977   1.188   6.244 -0.5006 -0.5731  0.1830
   9023SM   H7F12130   6.087   1.198   6.253 -0.6468  0.2417  1.2400
   9023SM   H7G12131   5.940   1.083   6.242 -0.8788 -0.4368 -1.0131
   9023SM   C8F12132   5.923   1.246   6.376  0.2581  0.2965  0.4260
   9023SM   H8F12133   5.812   1.233   6.373  0.1356  1.3355 -0.5584
   9023SM   H8G12134   5.957   1.351   6.377 -2.7004  1.3907 -0.6476
   9023SM   C9F12135   5.991   1.171   6.492  0.7247 -0.0410 -0.2683
   9023SM   H9F12136   6.095   1.207   6.507  1.2174 -0.0642 -3.1322
   9023SM   H9G12137   5.992   1.062   6.471 -1.4489  0.0868 -1.2777
   9023SM  C10F12138   5.913   1.192   6.619 -0.2483 -0.0200  0.2639
   9023SM  H10F12139   5.805   1.165   6.609 -0.6444 -0.8023  4.6338
   9023SM  H10G12140   5.887   1.298   6.636 -0.2951 -0.0996  0.6920
   9023SM  C11F12141   5.974   1.125   6.744  0.2776 -1.0142  0.8584
   9023SM  H11F12142   6.063   1.187   6.766 -0.2695  0.1392 -0.0571
   9023SM  H11G12143   5.998   1.021   6.714 -1.0808 -1.8038  2.3481
   9023SM  C12F12144   5.889   1.108   6.872  0.0727 -0.1578 -0.2112
   9023SM  H12F12145   5.787   1.067   6.860 -0.7151  1.2940  1.1869
   9023SM  H12G12146   5.876   1.206   6.921  2.4722 -0.0150  0.2689
   9023SM  C13F12147   5.952   1.007   6.972 -0.8265 -0.1077  0.3213
   9023SM  H13F12148   6.059   1.035   6.984 -1.0471 -0.1041  2.9646
   9023SM  H13G12149   5.959   0.904   6.932 -1.9744  0.9120 -2.7556
   9023SM  C14F12150   5.887   0.991   7.109  0.5903  0.3666 -0.5492
   9023SM  H14F12151   5.780   0.969   7.088  0.3719  1.4028 -0.5670
   9023SM  H14G12152   5.887   1.088   7.163 -0.1420 -0.1780  0.4778
   9023SM  C15F12153   5.953   0.889   7.203 -0.2772 -0.3083 -0.4926
   9023SM  H15F12154   6.055   0.924   7.228  0.3172 -2.5622  0.5345
   9023SM  H15G12155   5.971   0.796   7.146 -0.5552 -0.7200  0.0755
   9023SM  C16F12156   5.882   0.848   7.338  0.5279 -0.0051  0.5710
   9023SM  H16F12157   5.792   0.790   7.310  0.5134 -0.1434  0.8963
   9023SM  H16G12158   5.848   0.939   7.392  0.6794  0.6396 -0.4123
   9023SM  C17F12159   5.971   0.761   7.429  0.0333  0.0899 -0.3092
   9023SM  H17F12160   6.011   0.674   7.372 -0.6266 -0.4898  0.0839
   9023SM  H17G12161   5.905   0.712   7.505  1.1636 -1.3990 -0.2278
   9023SM  C18F12162   6.078   0.852   7.497 -0.4891 -0.4642 -0.3817
   9023SM  H18F12163   6.025   0.947   7.519  1.2935  0.6444 -0.6781
   9023SM  H18G12164   6.148   0.878   7.415  0.4762 -0.1160  0.5280
   9023SM  C19F12165   6.146   0.794   7.622 -0.1619  0.8060 -0.0959
   9023SM  H19F12166   6.211   0.711   7.589  1.1207  0.9982  1.7717
   9023SM  H19G12167   6.076   0.756   7.700 -1.5306  2.7967 -0.2707
   9023SM  C20F12168   6.227   0.891   7.703 -0.3446  0.0857 -0.1259
   9023SM  H20F12169   6.166   0.951   7.773 -0.0123 -0.7175  0.8682
   9023SM  H20G12170   6.270   0.971   7.639  1.2566  1.0537  2.0229
   9023SM  C21F12171   6.336   0.831   7.802  0.7576  0.0415 -0.0620
   9023SM  H21F12172   6.397   0.758   7.744 -1.1200 -2.9566  1.4425
   9023SM  H21G12173   6.292   0.765   7.880  1.2822  0.4201  0.5712
   9023SM  C22F12174   6.427   0.928   7.869 -0.5953  0.3899 -0.9528
   9023SM  H22F12175   6.374   1.002   7.932 -0.2516 -0.7535  0.7297
   9023SM  H22G12176   6.475   0.977   7.781  0.6025  1.3969  0.2345
   9023SM  C23F12177   6.535   0.857   7.960 -0.5223  0.8258  0.4256
   9023SM  H23F12178   6.486   0.824   8.054  1.3105  1.5212  1.6897
   9023SM  H23G12179   6.624   0.923   7.973  1.1076 -1.2330  0.2578
   9023SM  H23H12180   6.580   0.766   7.916 -1.6549  0.0125  0.9206
   9123SM     N12181   5.552   3.935   4.888  0.2278  0.2267 -0.0158
   9123SM   C1512182   5.559   3.845   5.006 -0.1092 -0.5485  0.2304
   9123SM  H15A12183   5.548   3.749   4.959 -3.3705 -0.7440  1.1395
   9123SM  H15B12184   5.478   3.850   5.078 -1.1793  0.6014 -1.0120
   9123SM  H15C12185   5.651   3.864   5.060  0.3139  1.1816 -1.0359
   9123SM   C1412186   5.674   3.903   4.803  0.0910  0.0600 -0.2198
   9123SM  H14A12187   5.760   3.895   4.867 -0.2013  0.7027  0.2749
   9123SM  H14B12188   5.687   3.987   4.737 -0.0637  1.5269  1.5083
   9123SM  H14C12189   5.666   3.812   4.747 -1.0591 -0.8935  1.3903
   9123SM   C1312190   5.433   3.894   4.805 -0.5410  0.1264  0.0305
   9123SM  H13A12191   5.334   3.921   4.836 -1.1313 -2.5898  0.8323
   9123SM  H13B12192   5.436   3.786   4.798  2.1102 -0.0471  2.0761
   9123SM  H13C12193   5.448   3.942   4.709  2.5566 -0.7248 -0.0278
   9123SM   C1212194   5.555   4.081   4.938  0.1818  0.0110  0.0219
   9123SM  H12A12195   5.637   4.095   5.007  0.1396 -0.1333  0.1011
   9123SM  H12B12196   5.465   4.097   4.995 -0.4039  2.7011 -1.4717
   9123SM   C1112197   5.578   4.196   4.832  1.1194  0.0577 -0.6017
   9123SM  H11A12198   5.530   4.291   4.864 -0.5960 -0.7947 -0.5175
   9123SM  H11B12199   5.524   4.158   4.742  0.0970 -0.9238  0.4024
   9123SM     P12200   5.807   4.301   4.903  0.5577 -0.1391 -0.1388
   9123SM   O1312201   5.938   4.332   4.848 -0.0450  0.2229 -0.4898
   9123SM   O1412202   5.725   4.409   4.960  0.7773 -0.3113 -0.1021
   9123SM   O1112203   5.815   4.196   5.030 -0.7835 -0.2592  0.2727
   9123SM   O1212204   5.715   4.211   4.797  0.2699 -0.3363  0.1373
   9123SM   C1S12205   5.928   4.104   5.040  0.6568 -0.5243  0.2684
   9123SM   H1S12206   6.014   4.142   4.981 -0.5667 -2.0009 -2.6483
   9123SM   H1T12207   5.893   4.006   5.000  0.0611 -0.2237  0.0432
   9123SM    NF12208   6.089   4.004   5.207 -0.2891 -0.0104  0.4934
   9123SM   HNF12209   6.082   3.907   5.229 -2.1224 -0.1960 -0.6326
   9123SM   C2S12210   5.965   4.083   5.191  0.3214 -0.0200  1.2100
   9123SM   H2S12211   5.992   4.181   5.235  4.0192 -0.6785  0.7909
   9123SM   C3S12212   5.833   4.027   5.254 -0.2042  0.2111  0.0947
   9123SM   H3S12213   5.814   3.926   5.210  3.0504 -0.5913  0.2960
   9123SM    O312214   5.709   4.096   5.228  0.3289  0.4528 -0.2145
   9123SM   HO312215   5.722   4.142   5.145  0.1166  0.0993 -0.4462
   9123SM   C4S12216   5.855   4.015   5.398  0.8846 -0.2880 -0.0814
   9123SM   H4S12217   5.879   4.118   5.429 -0.6008  0.4670 -1.2594
   9123SM   C5S12218   5.831   3.913   5.479 -0.2756 -0.6344 -0.0547
   9123SM   H5S12219   5.795   3.825   5.424  0.4760 -0.7640 -0.3424
   9123SM   C6S12220   5.848   3.903   5.631  0.1979 -0.6714  0.6342
   9123SM   H6S12221   5.934   3.834   5.649  1.0197  0.6196  1.8109
   9123SM   H6T12222   5.760   3.851   5.674  0.0620 -0.4962  0.5655
   9123SM   C7S12223   5.888   4.027   5.716  0.7404  0.5290 -0.1155
   9123SM   H7S12224   5.804   4.099   5.712 -0.6670 -1.0915 -0.8624
   9123SM   H7T12225   5.981   4.069   5.670  0.4774  0.6274 -0.5601
   9123SM   C8S12226   5.920   3.995   5.860 -0.2914 -0.1591  0.5176
   9123SM   H8S12227   6.003   3.921   5.860 -0.6056 -0.6228  3.2997
   9123SM   H8T12228   5.837   3.943   5.914  0.9353 -2.1665  0.5514
   9123SM   C9S12229   5.952   4.126   5.939 -0.2557 -0.1249 -0.1878
   9123SM   H9S12230   5.878   4.209   5.940 -1.7438 -1.4129  1.2673
   9123SM   H9T12231   6.045   4.165   5.892 -0.9152  0.1184 -1.3445
   9123SM  C10S12232   5.979   4.098   6.084 -0.3325 -0.8424  0.1117
   9123SM  H10S12233   6.027   4.184   6.135  0.8465 -1.1568 -0.4556
   9123SM  H10T12234   6.050   4.014   6.103  0.7888 -0.5663 -2.4577
   9123SM  C11S12235   5.853   4.054   6.165  0.3650  0.1729  0.2123
   9123SM  H11S12236   5.820   3.951   6.139  1.6928 -0.6133  1.5168
   9123SM  H11T12237   5.776   4.132   6.144 -0.8666 -1.0628 -0.0210
   9123SM  C12S12238   5.873   4.053   6.316 -0.0230  0.0774  0.1025
   9123SM  H12S12239   5.893   4.161   6.337 -1.0202  0.3791 -0.3782
   9123SM  H12T12240   5.958   3.996   6.357  1.4418  0.7011 -1.9298
   9123SM  C13S12241   5.750   4.012   6.395 -0.0509  0.0580  0.7199
   9123SM  H13S12242   5.721   3.911   6.357  2.5109  0.7309 -3.7853
   9123SM  H13T12243   5.673   4.085   6.363 -1.8061 -1.0224  2.2480
   9123SM  C14S12244   5.773   4.015   6.541 -0.2986  0.1936 -0.0020
   9123SM  H14S12245   5.780   4.118   6.582 -0.1229 -0.2076  0.9919
   9123SM  H14T12246   5.867   3.959   6.557 -1.5101 -2.7445 -2.2897
   9123SM  C15S12247   5.664   3.948   6.624 -0.2975 -0.7342 -0.0587
   9123SM  H15S12248   5.690   3.840   6.616 -1.5197 -0.9551 -1.5019
   9123SM  H15T12249   5.569   3.964   6.569 -0.4766 -0.1106  0.4254
   9123SM  C16S12250   5.666   4.001   6.768  0.0056  0.2965  0.4055
   9123SM  H16S12251   5.743   4.079   6.783  1.4341 -0.4404 -2.3967
   9123SM  H16T12252   5.686   3.915   6.836 -1.4142 -0.2863  0.1217
   9123SM  C17S12253   5.528   4.065   6.807 -0.3342  0.3574 -0.3282
   9123SM  H17S12254   5.444   3.992   6.811  0.7419 -0.8548  1.3073
   9123SM  H17T12255   5.519   4.140   6.726  2.2086  1.0731 -0.0077
   9123SM  C18S12256   5.522   4.143   6.936 -0.0891  0.0421 -0.9145
   9123SM  H18S12257   5.421   4.186   6.950 -1.2931 -3.2678  2.3986
   9123SM  H18T12258   5.601   4.221   6.942  0.1169 -0.1874 -0.6001
   9123SM  H18U12259   5.544   4.066   7.013 -1.7504  0.8052  0.3805
   9123SM   C1F12260   6.215   4.055   5.190  0.5355  0.3016 -0.7248
   9123SM    OF12261   6.225   4.178   5.185 -0.4812 -0.0970 -0.4486
   9123SM   C2F12262   6.332   3.966   5.182 -0.0326 -0.5345 -0.5065
   9123SM   H2F12263   6.407   3.996   5.106 -1.0600  2.7170 -0.3655
   9123SM   H2G12264   6.303   3.864   5.150 -0.8682 -0.6391  0.5519
   9123SM   C3F12265   6.410   3.954   5.325 -0.1660 -0.9885  0.9238
   9123SM   H3F12266   6.454   4.055   5.343 -0.4781 -0.2394 -1.9885
   9123SM   H3G12267   6.489   3.877   5.327  1.6062  0.7497  1.0718
   9123SM   C4F12268   6.319   3.912   5.440 -0.6845 -0.6272  0.4882
   9123SM   H4F12269   6.300   3.802   5.438 -0.1390 -0.7244  0.3858
   9123SM   H4G12270   6.220   3.961   5.428 -0.4814 -0.2694  0.2558
   9123SM   C5F12271   6.367   3.978   5.574  0.6673  0.3637 -0.1651
   9123SM   H5F12272   6.344   4.087   5.572 -2.4081 -0.1440  0.8818
   9123SM   H5G12273   6.477   3.965   5.574  0.7090  0.6207  0.5381
   9123SM   C6F12274   6.314   3.913   5.706  0.2550  0.2859  0.5794
   9123SM   H6F12275   6.340   3.805   5.711  0.0598  0.1693 -0.5946
   9123SM   H6G12276   6.204   3.927   5.714 -0.0343 -1.8854  1.0433
   9123SM   C7F12277   6.370   3.981   5.830  0.1567  0.3039 -0.1948
   9123SM   H7F12278   6.318   4.076   5.849 -1.3848 -0.5292 -0.1301
   9123SM   H7G12279   6.479   3.999   5.815 -0.3198  2.0310 -1.9867
   9123SM   C8F12280   6.350   3.883   5.953 -0.1735 -0.0063 -0.7171
   9123SM   H8F12281   6.424   3.801   5.962  0.0855  0.4253  1.8568
   9123SM   H8G12282   6.243   3.855   5.942  0.0381 -0.7186 -0.9792
   9123SM   C9F12283   6.365   3.962   6.082  0.0178  0.8430 -1.0692
   9123SM   H9F12284   6.328   4.066   6.070  1.6152  1.5011 -0.5195
   9123SM   H9G12285   6.472   3.980   6.102 -0.0766  0.7044 -0.3998
   9123SM  C10F12286   6.304   3.887   6.201  0.3251 -0.0176  0.5873
   9123SM  H10F12287   6.324   3.778   6.191  2.3029  0.2635  0.9920
   9123SM  H10G12288   6.195   3.905   6.200 -0.3938 -3.2539  2.7251
   9123SM  C11F12289   6.346   3.932   6.342  0.0962  0.4287  0.2693
   9123SM  H11F12290   6.331   4.042   6.335  0.1615  0.3362 -3.1309
   9123SM  H11G12291   6.453   3.908   6.360  0.4724  1.7921 -0.0879
   9123SM  C12F12292   6.272   3.871   6.463 -0.4872  0.5901 -0.6070
   9123SM  H12F12293   6.283   3.761   6.468  2.0860  0.8156 -0.1178
   9123SM  H12G12294   6.162   3.890   6.467 -0.6809 -0.6827  1.0696
   9123SM  C13F12295   6.330   3.943   6.586  0.2958  0.9413 -0.0304
   9123SM  H13F12296   6.321   4.053   6.578  0.5284  1.0453  0.9944
   9123SM  H13G12297   6.434   3.906   6.593 -1.1188 -3.5949  0.1552
   9123SM  C14F12298   6.259   3.898   6.715 -0.0513  0.0130 -0.4411
   9123SM  H14F12299   6.276   3.789   6.727 -0.4392  0.1613  1.8141
   9123SM  H14G12300   6.152   3.929   6.715  0.3612  1.5456  0.8061
   9123SM  C15F12301   6.329   3.973   6.831 -0.5368  0.0708  0.3118
   9123SM  H15F12302   6.313   4.083   6.824 -0.0241  0.0586 -1.8595
   9123SM  H15G12303   6.438   3.954   6.824 -1.0496 -2.6210 -2.1947
   9123SM  C16F12304   6.287   3.913   6.972 -0.2561 -0.5712 -0.2686
   9123SM  H16F12305   6.325   3.810   6.987  2.1313  0.3131  0.1819
   9123SM  H16G12306   6.175   3.912   6.971 -0.2984  0.6976  0.3481
   9123SM  C17F12307   6.331   3.991   7.094  0.1900 -0.9838  0.2613
   9123SM  H17F12308   6.442   4.001   7.094  0.3352 -2.2739 -0.5829
   9123SM  H17G12309   6.300   3.950   7.193 -0.0280 -2.8741 -0.5422
   9123SM  C18F12310   6.284   4.141   7.101  0.2357  0.0625  0.5414
   9123SM  H18F12311   6.173   4.136   7.095  0.0087 -1.2288  3.9031
   9123SM  H18G12312   6.317   4.192   7.008  0.4001 -2.1113 -0.6561
   9123SM  C19F12313   6.333   4.218   7.223 -0.3255 -0.3256 -0.3222
   9123SM  H19F12314   6.444   4.220   7.219 -0.3509 -0.4423 -3.0137
   9123SM  H19G12315   6.302   4.156   7.309  0.5502  0.0080  0.2504
   9123SM  C20F12316   6.272   4.360   7.229  0.0150 -0.0512 -0.1358
   9123SM  H20F12317   6.162   4.342   7.235 -0.2203  0.8959 -1.3788
   9123SM  H20G12318   6.300   4.422   7.142  0.6612  1.5337  1.1393
   9123SM  C21F12319   6.299   4.448   7.355  0.5786 -0.9563  1.0570
   9123SM  H21F12320   6.264   4.550   7.327 -1.6479 -1.1208  2.9215
   9123SM  H21G12321   6.408   4.462   7.368  0.1397  5.6589  1.0626
   9123SM  C22F12322   6.223   4.400   7.480 -0.0271 -0.5160 -0.3369
   9123SM  H22F12323   6.255   4.302   7.522 -0.0494  0.1103  1.2085
   9123SM  H22G12324   6.116   4.383   7.459  0.0644 -1.9143  0.1863
   9123SM  C23F12325   6.232   4.503   7.598  0.5945  0.0692  0.2676
   9123SM  H23F12326   6.216   4.601   7.548 -0.1401 -1.8469 -3.6205
   9123SM  H23G12327   6.335   4.496   7.641  0.7974  1.8766  0.1502
   9123SM  H23H12328   6.162   4.477   7.681  1.5367 -0.5142  0.9035
   9223SM     N12329   4.767   0.691   5.648  1.0304  0.1535 -0.1775
   9223SM   C1512330   4.909   0.747   5.622 -0.0779 -0.3604 -0.2152
   9223SM  H15A12331   4.922   0.836   5.683  0.9075  0.3830 -1.4500
   9223SM  H15B12332   4.925   0.775   5.519  1.5542 -0.0611  0.0985
   9223SM  H15C12333   4.986   0.678   5.653 -0.4445  0.2785  2.3581
   9223SM   C1412334   4.746   0.568   5.560  0.6640 -0.7105  0.8393
   9223SM  H14A12335   4.842   0.520   5.541  0.7868  0.1220 -0.7667
   9223SM  H14B12336   4.702   0.584   5.463  3.3985 -1.7054 -0.7055
   9223SM  H14C12337   4.676   0.498   5.604  0.2092  0.3945  1.9172
   9223SM   C1312338   4.768   0.642   5.792 -0.2209  0.4870 -1.0256
   9223SM  H13A12339   4.856   0.583   5.816  0.1274  1.2337 -0.4376
   9223SM  H13B12340   4.681   0.580   5.808  0.9763 -1.1073 -0.4892
   9223SM  H13C12341   4.768   0.726   5.859  0.9915 -0.4460  0.1970
   9223SM   C1212342   4.655   0.798   5.626  0.4908 -0.2481 -0.8007
   9223SM  H12A12343   4.699   0.888   5.668  0.5239 -0.4091 -0.4862
   9223SM  H12B12344   4.573   0.766   5.688  1.5900  0.9782  1.4463
   9223SM   C1112345   4.610   0.849   5.488 -0.5000  0.0783 -0.4001
   9223SM  H11A12346   4.551   0.943   5.499  0.3264  0.6615 -0.9094
   9223SM  H11B12347   4.547   0.769   5.442 -0.7213  1.1494 -2.0535
   9223SM     P12348   4.792   1.017   5.407 -0.0968  0.5133  0.4113
   9223SM   O1312349   4.928   0.989   5.368 -0.2848  0.2181  0.0954
   9223SM   O1412350   4.713   1.113   5.336  0.2115  1.1880  0.2259
   9223SM   O1112351   4.780   1.054   5.565  0.2888  0.4106  0.0753
   9223SM   O1212352   4.720   0.874   5.398 -0.3502 -0.1586  0.2188
   9223SM   C1S12353   4.824   1.183   5.598  0.2081 -0.5383 -0.5734
   9223SM   H1S12354   4.785   1.262   5.530  0.3408 -1.4071 -1.6910
   9223SM   H1T12355   4.935   1.186   5.589  0.0657  0.1903 -2.9639
   9223SM    NF12356   4.792   1.370   5.763 -1.0399  0.2176 -0.1010
   9223SM   HNF12357   4.877   1.410   5.798  1.1547 -2.9891 -1.3480
   9223SM   C2S12358   4.791   1.221   5.745 -0.1783 -0.0445 -0.2907
   9223SM   H2S12359   4.688   1.188   5.770 -0.1495 -1.1844 -1.5931
   9223SM   C3S12360   4.874   1.125   5.834 -0.3481  0.3144  0.0623
   9223SM   H3S12361   4.980   1.147   5.807 -0.9326  1.9251 -1.1075
   9223SM    O312362   4.838   0.986   5.807  0.5027  0.7080 -0.2847
   9223SM   HO312363   4.803   1.000   5.719 -2.3864 -0.8203  0.4865
   9223SM   C4S12364   4.862   1.161   5.975  0.2005  0.4672 -0.2044
   9223SM   H4S12365   4.766   1.138   6.024  0.5406  0.2490  0.3686
   9223SM   C5S12366   4.953   1.217   6.055 -0.1968  0.4862 -0.1589
   9223SM   H5S12367   5.054   1.231   6.014 -0.5633  1.7722 -0.6745
   9223SM   C6S12368   4.922   1.264   6.193 -0.0377 -0.3563 -0.4612
   9223SM   H6S12369   4.816   1.294   6.208 -0.5901 -1.9449 -0.9528
   9223SM   H6T12370   4.968   1.363   6.211  1.8105 -1.2914  0.1714
   9223SM   C7S12371   4.971   1.172   6.305  0.6820  0.6221  0.2835
   9223SM   H7S12372   5.079   1.150   6.286  1.2704  2.8955  0.6534
   9223SM   H7T12373   4.911   1.079   6.294 -0.9998  1.7230 -0.2071
   9223SM   C8S12374   4.956   1.241   6.441  0.0596 -0.1467 -0.3887
   9223SM   H8S12375   4.849   1.265   6.452  0.3137  1.1480 -0.6248
   9223SM   H8T12376   5.008   1.339   6.442 -1.0788  0.4727 -0.7104
   9223SM   C9S12377   4.989   1.142   6.558  0.6519 -0.2306  0.1385
   9223SM   H9S12378   5.100   1.141   6.568  0.5495  0.9371  1.7246
   9223SM   H9T12379   4.956   1.042   6.521 -2.5135  1.4000 -1.8531
   9223SM  C10S12380   4.926   1.188   6.684  0.3892  0.9976 -0.3828
   9223SM  H10S12381   4.815   1.180   6.684  0.4388  0.2199  0.1090
   9223SM  H10T12382   4.947   1.297   6.696 -0.9032  1.2132  0.1444
   9223SM  C11S12383   4.979   1.107   6.807 -0.0846 -0.1196 -0.2344
   9223SM  H11S12384   5.090   1.113   6.812 -0.1851  1.8713  0.4001
   9223SM  H11T12385   4.959   1.000   6.786  1.1233  0.1115 -3.0488
   9223SM  C12S12386   4.926   1.152   6.938  0.4951 -0.1063  0.2195
   9223SM  H12S12387   4.815   1.147   6.938  0.5505 -1.8554  0.3730
   9223SM  H12T12388   4.955   1.258   6.954  0.4352 -0.2128  1.1002
   9223SM  C13S12389   4.992   1.078   7.055 -0.0753 -0.4113  0.4823
   9223SM  H13S12390   5.104   1.080   7.052 -0.0410 -0.1742  1.5924
   9223SM  H13T12391   4.967   0.969   7.054 -0.1205 -0.3979  0.0496
   9223SM  C14S12392   4.954   1.127   7.194 -0.7663 -0.8075 -0.3876
   9223SM  H14S12393   4.844   1.143   7.193 -0.7323 -0.3944  0.7592
   9223SM  H14T12394   5.001   1.227   7.202 -0.0074 -1.0779 -1.2804
   9223SM  C15S12395   4.996   1.034   7.308  0.1809 -0.3950  0.0796
   9223SM  H15S12396   5.104   1.035   7.336 -0.1305 -1.4523  1.4739
   9223SM  H15T12397   4.981   0.927   7.285  0.6618 -0.9526  2.1189
   9223SM  C16S12398   4.915   1.066   7.441 -0.1145 -0.6418  0.0759
   9223SM  H16S12399   4.944   0.991   7.517  2.8829  1.1193  0.8200
   9223SM  H16T12400   4.810   1.040   7.413  0.2224 -1.8204 -0.1770
   9223SM  C17S12401   4.923   1.211   7.492 -0.0393 -0.7556  0.2351
   9223SM  H17S12402   4.874   1.277   7.418 -0.7760  0.4847  1.7727
   9223SM  H17T12403   5.027   1.248   7.503 -0.2664  0.3711 -1.1922
   9223SM  C18S12404   4.849   1.220   7.628 -0.4283  0.8065  0.6107
   9223SM  H18S12405   4.875   1.139   7.700  1.5426 -0.0224 -0.9313
   9223SM  H18T12406   4.739   1.228   7.621 -0.4170  0.8441  0.4675
   9223SM  H18U12407   4.878   1.305   7.694 -2.1824  1.1175  1.0121
   9223SM   C1F12408   4.705   1.446   5.703  1.0695 -0.0658 -0.5069
   9223SM    OF12409   4.620   1.408   5.625  0.0430  0.3531  0.1150
   9223SM   C2F12410   4.721   1.589   5.734 -0.4583 -0.6942  0.1018
   9223SM   H2F12411   4.752   1.640   5.640 -0.9029 -0.5026  0.0602
   9223SM   H2G12412   4.809   1.601   5.802 -0.7295  0.6808  0.2389
   9223SM   C3F12413   4.587   1.644   5.778  0.7285  0.0873  0.1286
   9223SM   H3F12414   4.504   1.626   5.706 -2.2364 -1.5007  3.5871
   9223SM   H3G12415   4.608   1.752   5.789  1.6099  0.0008 -0.6255
   9223SM   C4F12416   4.550   1.588   5.918  0.0052 -0.1542 -0.3602
   9223SM   H4F12417   4.561   1.477   5.918  2.9693  0.0535  0.8552
   9223SM   H4G12418   4.441   1.608   5.926  0.0483  0.9042 -1.9640
   9223SM   C5F12419   4.633   1.636   6.037  0.0008 -0.5048  0.3336
   9223SM   H5F12420   4.610   1.743   6.055  4.1850  0.9471 -1.6045
   9223SM   H5G12421   4.739   1.642   6.005 -0.3108  0.3197 -0.5914
   9223SM   C6F12422   4.621   1.556   6.170 -0.8080 -0.6472 -0.1972
   9223SM   H6F12423   4.656   1.451   6.159 -0.2783 -0.2259 -3.2185
   9223SM   H6G12424   4.513   1.544   6.197 -0.6857  0.3835  0.8526
   9223SM   C7F12425   4.691   1.632   6.280 -0.4112  0.3883 -1.3938
   9223SM   H7F12426   4.625   1.718   6.305  0.4949  0.5415  0.6052
   9223SM   H7G12427   4.794   1.670   6.259 -0.4012  2.9135  2.2784
   9223SM   C8F12428   4.707   1.545   6.406  0.0869 -0.1492  0.2766
   9223SM   H8F12429   4.778   1.461   6.389  1.5490  0.2843  3.5625
   9223SM   H8G12430   4.606   1.501   6.418  1.1230 -3.5731 -1.8245
   9223SM   C9F12431   4.768   1.614   6.532 -0.3474  0.4579  0.4473
   9223SM   H9F12432   4.717   1.712   6.544 -1.7475 -0.0643 -0.8719
   9223SM   H9G12433   4.873   1.635   6.506 -0.0356 -3.0640 -1.7865
   9223SM  C10F12434   4.745   1.524   6.653  0.2142 -0.2502  0.5222
   9223SM  H10F12435   4.803   1.431   6.635  1.5257  0.8212 -1.0228
   9223SM  H10G12436   4.637   1.502   6.666  0.3209 -2.3846 -1.5880
   9223SM  C11F12437   4.788   1.582   6.788  0.3833 -0.5141 -0.0371
   9223SM  H11F12438   4.744   1.683   6.799 -0.4386 -0.8127 -0.4416
   9223SM  H11G12439   4.897   1.598   6.793  0.4466 -0.2136 -1.7426
   9223SM  C12F12440   4.732   1.493   6.900  0.0174 -0.1016  0.4460
   9223SM  H12F12441   4.776   1.391   6.895  0.2111  0.0252 -0.5946
   9223SM  H12G12442   4.622   1.481   6.889  0.1064  0.6966 -1.8349
   9223SM  C13F12443   4.766   1.552   7.041  0.2724 -0.0973  0.5312
   9223SM  H13F12444   4.716   1.649   7.059 -0.5805 -0.4755  0.2558
   9223SM  H13G12445   4.875   1.560   7.025  0.0172  1.5539 -0.5984
   9223SM  C14F12446   4.761   1.463   7.164  0.1535  0.0778  0.0669
   9223SM  H14F12447   4.793   1.510   7.259 -1.9702  0.9473  0.4044
   9223SM  H14G12448   4.834   1.383   7.138  0.9586 -0.3074  3.1457
   9223SM  C15F12449   4.623   1.399   7.178  0.1422  0.6674  0.2219
   9223SM  H15F12450   4.591   1.357   7.079  0.7634  1.4940 -0.3390
   9223SM  H15G12451   4.561   1.488   7.203 -1.5091 -1.2638  3.6678
   9223SM  C16F12452   4.603   1.300   7.284 -0.2637  0.2687 -0.1215
   9223SM  H16F12453   4.609   1.353   7.381 -0.5939  1.0448 -0.5177
   9223SM  H16G12454   4.670   1.214   7.265 -0.2679  0.0742  0.7336
   9223SM  C17F12455   4.470   1.229   7.288 -0.0365  0.4052 -0.6622
   9223SM  H17F12456   4.440   1.192   7.187 -1.5756 -1.3101  0.3646
   9223SM  H17G12457   4.383   1.290   7.320 -0.8880 -1.1825  0.1594
   9223SM  C18F12458   4.471   1.109   7.383  0.1542 -0.2378 -0.8097
   9223SM  H18F12459   4.508   1.142   7.483  0.6245  0.8589 -1.3182
   9223SM  H18G12460   4.536   1.030   7.341 -0.7630 -0.8830 -1.0347
   9223SM  C19F12461   4.324   1.060   7.404 -0.7338 -0.4801 -0.2475
   9223SM  H19F12462   4.335   0.962   7.454  0.6012  0.4887  1.4888
   9223SM  H19G12463   4.269   1.058   7.307  0.1384  1.4954 -0.8551
   9223SM  C20F12464   4.243   1.154   7.495 -0.7421  0.1003 -0.1867
   9223SM  H20F12465   4.228   1.254   7.447 -0.1111 -0.0002 -0.6095
   9223SM  H20G12466   4.295   1.180   7.590 -0.0626 -0.3540 -0.4325
   9223SM  C21F12467   4.103   1.096   7.521 -1.0295 -0.4479 -0.6852
   9223SM  H21F12468   4.126   0.992   7.555 -2.1351 -0.8969 -1.2764
   9223SM  H21G12469   4.049   1.085   7.424 -0.2299 -1.2354 -1.0615
   9223SM  C22F12470   4.024   1.177   7.629 -0.0859  0.2285 -0.1623
   9223SM  H22F12471   4.090   1.208   7.713  0.8881 -0.1806 -0.7602
   9223SM  H22G12472   3.950   1.105   7.671  1.0665 -0.5712  0.5307
   9223SM  C23F12473   3.940   1.296   7.581 -0.6805  0.0280 -0.4043
   9223SM  H23F12474   4.013   1.361   7.527  1.9857 -1.5753  1.0520
   9223SM  H23G12475   3.889   1.352   7.663  1.9599  0.9341  0.7288
   9223SM  H23H12476   3.859   1.267   7.511 -1.5132  0.2731  0.4347
   9323SM     N12477   6.232   3.091   4.825  0.7804  0.1310  0.0550
   9323SM   C1512478   6.156   3.204   4.756 -0.0341  0.7480 -1.5200
   9323SM  H15A12479   6.195   3.233   4.659  1.0257 -2.1860 -2.0653
   9323SM  H15B12480   6.164   3.293   4.817 -0.5499 -1.3108  1.8041
   9323SM  H15C12481   6.051   3.179   4.756 -0.2922  1.7698 -1.7246
   9323SM   C1412482   6.180   2.954   4.781 -0.1440 -0.4725 -0.4868
   9323SM  H14A12483   6.079   2.944   4.819  0.0051 -3.5812 -0.6443
   9323SM  H14B12484   6.241   2.878   4.828  0.3383 -0.9373 -1.8328
   9323SM  H14C12485   6.177   2.949   4.673  1.2183 -1.1174 -0.5065
   9323SM   C1312486   6.375   3.105   4.765 -0.2157 -0.4730  0.4519
   9323SM  H13A12487   6.411   3.204   4.788  0.7582 -0.7749  0.3020
   9323SM  H13B12488   6.368   3.104   4.657  2.8520  0.8376  0.1340
   9323SM  H13C12489   6.448   3.026   4.777 -0.8157 -0.9589  1.0127
   9323SM   C1212490   6.236   3.103   4.977  0.4010 -0.6153 -0.5199
   9323SM  H12A12491   6.314   3.039   5.017  0.9612  0.8035  0.7475
   9323SM  H12B12492   6.140   3.077   5.017  0.7706  0.0349  0.8339
   9323SM   C1112493   6.276   3.240   5.044 -0.4233  0.2077 -0.6602
   9323SM  H11A12494   6.380   3.268   5.015  0.0223  0.4343  1.0194
   9323SM  H11B12495   6.281   3.226   5.154  2.1529 -0.4568 -0.7843
   9323SM     P12496   6.039   3.346   5.077 -0.2038  0.0018 -0.2154
   9323SM   O1312497   5.982   3.480   5.041 -0.1210  0.1498  0.0637
   9323SM   O1412498   5.969   3.221   5.038 -0.4199 -0.1157 -0.3818
   9323SM   O1112499   6.054   3.338   5.241  0.0547  0.1813 -0.0333
   9323SM   O1212500   6.190   3.347   5.017  0.0771 -0.0661  0.6883
   9323SM   C1S12501   5.924   3.351   5.308 -0.6635  0.1606  0.4584
   9323SM   H1S12502   5.858   3.268   5.277  1.5517 -1.6651  0.4052
   9323SM   H1T12503   5.874   3.446   5.279 -0.5397 -0.3577 -1.6435
   9323SM    NF12504   5.821   3.299   5.533 -0.5218  0.8245 -0.6364
   9323SM   HNF12505   5.768   3.354   5.597 -2.1330 -1.9427  0.5756
   9323SM   C2S12506   5.945   3.353   5.461 -0.4545  0.1441 -0.6694
   9323SM   H2S12507   6.024   3.284   5.496 -0.7885  0.8741  1.7848
   9323SM   C3S12508   5.984   3.509   5.500  0.3867  0.1640 -0.4585
   9323SM   H3S12509   5.899   3.576   5.475 -1.6736 -1.4198  1.8747
   9323SM    O312510   6.102   3.543   5.423  0.1373 -0.1763  0.1422
   9323SM   HO312511   6.117   3.468   5.366 -1.4580  0.5601 -1.3463
   9323SM   C4S12512   6.005   3.521   5.654 -0.8783  0.4080 -0.1963
   9323SM   H4S12513   5.918   3.501   5.719 -0.7840  1.5083  0.2937
   9323SM   C5S12514   6.124   3.549   5.716  0.0050 -0.3565  0.2798
   9323SM   H5S12515   6.213   3.575   5.657 -0.6527 -0.2439 -0.6761
   9323SM   C6S12516   6.136   3.561   5.865 -0.5161  0.0753 -0.4764
   9323SM   H6S12517   6.207   3.643   5.888 -0.1693 -0.1936 -0.5822
   9323SM   H6T12518   6.177   3.462   5.897  1.0340  0.7803 -0.1788
   9323SM   C7S12519   6.003   3.572   5.942 -0.1125 -0.6712 -0.1393
   9323SM   H7S12520   5.953   3.473   5.937  0.4379 -1.0496  1.4504
   9323SM   H7T12521   5.928   3.647   5.908  0.3643 -1.0855 -2.2586
   9323SM   C8S12522   6.044   3.624   6.082 -0.4109 -0.5327  0.2561
   9323SM   H8S12523   6.046   3.735   6.085  2.2373 -0.3699 -2.3755
   9323SM   H8T12524   6.148   3.595   6.107  0.0893 -0.3735 -1.5241
   9323SM   C9S12525   5.952   3.578   6.192  0.3067 -0.5325 -0.4259
   9323SM   H9S12526   5.950   3.470   6.215  0.7563 -0.8310 -1.7185
   9323SM   H9T12527   5.846   3.606   6.172 -0.0943 -0.2792  1.7583
   9323SM  C10S12528   6.002   3.642   6.324  0.0386  0.1073 -0.2271
   9323SM  H10S12529   5.998   3.748   6.291 -3.6604 -0.1826 -1.1314
   9323SM  H10T12530   6.107   3.610   6.341 -0.5256 -0.7942  1.8257
   9323SM  C11S12531   5.919   3.613   6.450 -0.3546  0.1069  0.2146
   9323SM  H11S12532   5.917   3.502   6.457 -0.0069  0.1528  1.2283
   9323SM  H11T12533   5.810   3.635   6.440 -0.3894  0.2093  0.7444
   9323SM  C12S12534   5.987   3.663   6.578 -1.1157 -0.4603  0.0629
   9323SM  H12S12535   6.002   3.773   6.581  3.6460 -0.8559 -0.9867
   9323SM  H12T12536   6.092   3.628   6.579 -0.2974  1.8187 -0.2650
   9323SM  C13S12537   5.922   3.624   6.707  0.3256  0.3252  0.2284
   9323SM  H13S12538   5.896   3.515   6.710 -3.0243  0.9882 -0.5344
   9323SM  H13T12539   5.819   3.665   6.709  0.4967  0.9140 -1.7880
   9323SM  C14S12540   5.993   3.659   6.837 -0.0217  0.3825  0.1850
   9323SM  H14S12541   5.977   3.765   6.868 -0.2352 -0.2757  2.4433
   9323SM  H14T12542   6.103   3.652   6.822 -0.1716 -0.8643 -0.4252
   9323SM  C15S12543   5.938   3.581   6.955 -0.4603 -0.2711 -0.7652
   9323SM  H15S12544   5.828   3.566   6.963 -0.3805 -1.0303 -1.0028
   9323SM  H15T12545   5.976   3.478   6.943  1.7425  0.4906 -0.7686
   9323SM  C16S12546   5.971   3.630   7.094 -0.5172  0.1371  0.1487
   9323SM  H16S12547   5.907   3.581   7.171 -0.1308 -1.9329 -0.7841
   9323SM  H16T12548   5.956   3.739   7.107  0.5638  0.3435 -0.2336
   9323SM  C17S12549   6.114   3.598   7.142 -0.1908 -0.1182 -0.2731
   9323SM  H17S12550   6.189   3.627   7.065 -0.2617 -1.5416 -0.9045
   9323SM  H17T12551   6.129   3.493   7.172 -0.7074 -0.0447  0.2659
   9323SM  C18S12552   6.142   3.677   7.272  0.0634 -0.0319 -0.1811
   9323SM  H18S12553   6.059   3.651   7.341 -1.2362  0.1767 -1.6061
   9323SM  H18T12554   6.138   3.785   7.247 -3.1977  0.2463  1.0710
   9323SM  H18U12555   6.243   3.653   7.312 -0.5044  0.7120  1.7815
   9323SM   C1F12556   5.791   3.170   5.533 -0.8277 -0.2377 -0.0598
   9323SM    OF12557   5.869   3.082   5.493  0.3741  0.4774 -0.5462
   9323SM   C2F12558   5.664   3.127   5.585  0.2285 -0.3121  0.0557
   9323SM   H2F12559   5.630   3.045   5.518 -1.0465  1.2379 -1.3068
   9323SM   H2G12560   5.593   3.211   5.569  1.5898  1.1708  1.5226
   9323SM   C3F12561   5.669   3.089   5.734  0.5670  0.0625  0.0772
   9323SM   H3F12562   5.746   3.013   5.758 -1.0792 -1.6051  0.4016
   9323SM   H3G12563   5.570   3.040   5.750  0.5931 -0.0370 -0.0642
   9323SM   C4F12564   5.685   3.208   5.820 -1.3513 -1.3887  0.0391
   9323SM   H4F12565   5.624   3.293   5.783 -0.0483 -0.8780 -1.0224
   9323SM   H4G12566   5.789   3.245   5.822 -2.2317  1.3030  0.5061
   9323SM   C5F12567   5.637   3.182   5.962 -1.1241 -0.2937 -0.0885
   9323SM   H5F12568   5.660   3.073   5.970  0.9831 -0.0943 -2.2536
   9323SM   H5G12569   5.527   3.201   5.960 -0.9550  0.6916 -1.6620
   9323SM   C6F12570   5.703   3.261   6.076 -0.1667  0.2486  0.6403
   9323SM   H6F12571   5.685   3.370   6.070 -0.4227  0.1440 -1.3777
   9323SM   H6G12572   5.812   3.246   6.062 -0.5054 -3.5409  0.7780
   9323SM   C7F12573   5.652   3.204   6.212 -0.4991  0.0096  0.2214
   9323SM   H7F12574   5.697   3.103   6.215  0.9986  0.6679  0.8661
   9323SM   H7G12575   5.541   3.192   6.210 -0.6018  0.8221  0.5400
   9323SM   C8F12576   5.714   3.271   6.329  0.3551 -0.7601 -0.9202
   9323SM   H8F12577   5.698   3.381   6.326  1.9236 -0.5350 -2.2999
   9323SM   H8G12578   5.824   3.262   6.316  1.0688  1.8477  2.0896
   9323SM   C9F12579   5.668   3.210   6.469  0.8026  0.2860  0.0956
   9323SM   H9F12580   5.715   3.109   6.468 -2.1493 -1.2452  2.1630
   9323SM   H9G12581   5.559   3.188   6.465  0.7499 -0.0952  2.3620
   9323SM  C10F12582   5.712   3.285   6.590  0.0398 -0.8602  0.3488
   9323SM  H10F12583   5.691   3.393   6.573  1.8543 -0.8299 -2.0235
   9323SM  H10G12584   5.822   3.285   6.604  0.4404  0.0918 -2.2636
   9323SM  C11F12585   5.647   3.245   6.722 -0.0290  0.6600 -0.0406
   9323SM  H11F12586   5.650   3.134   6.725 -0.5688  0.6533  0.3978
   9323SM  H11G12587   5.541   3.277   6.716 -0.8549 -1.9592 -1.0056
   9323SM  C12F12588   5.717   3.302   6.844  0.4281 -0.4946 -0.3672
   9323SM  H12F12589   5.692   3.410   6.842 -1.9029 -0.9535  0.6836
   9323SM  H12G12590   5.827   3.297   6.832  0.4559 -1.6328  0.2629
   9323SM  C13F12591   5.680   3.233   6.966 -0.1953  0.0688 -0.8009
   9323SM  H13F12592   5.726   3.132   6.973 -3.3426 -1.4863 -0.6103
   9323SM  H13G12593   5.570   3.224   6.978 -0.2626  0.5750 -1.0326
   9323SM  C14F12594   5.716   3.329   7.081  0.2430  0.3018 -0.1071
   9323SM  H14F12595   5.676   3.432   7.072 -1.1023 -0.0588  1.3004
   9323SM  H14G12596   5.826   3.334   7.096  0.2297  0.0741  0.0612
   9323SM  C15F12597   5.659   3.278   7.207  0.2343  0.0084  0.1158
   9323SM  H15F12598   5.694   3.173   7.214  0.0491 -0.0572  0.0515
   9323SM  H15G12599   5.549   3.283   7.201  0.3129  3.9345 -1.1127
   9323SM  C16F12600   5.704   3.351   7.330 -0.0826  0.3691  0.0307
   9323SM  H16F12601   5.651   3.319   7.423  1.7632  1.1563  1.4254
   9323SM  H16G12602   5.673   3.457   7.331 -3.7765 -0.5411  1.7019
   9323SM  C17F12603   5.848   3.327   7.352  0.4400 -0.2010  0.0288
   9323SM  H17F12604   5.910   3.385   7.280  1.3216 -1.1141  0.0344
   9323SM  H17G12605   5.868   3.219   7.336 -1.8714 -0.8666  1.1503
   9323SM  C18F12606   5.894   3.356   7.498 -0.1829 -0.6838 -0.1250
   9323SM  H18F12607   5.825   3.341   7.584  0.7503  1.4788  1.1106
   9323SM  H18G12608   5.915   3.465   7.508 -1.7769 -0.4628  1.3874
   9323SM  C19F12609   6.022   3.281   7.538  0.5678  0.3498  0.0057
   9323SM  H19F12610   6.101   3.315   7.467  0.3215 -0.7276 -0.8071
   9323SM  H19G12611   6.026   3.171   7.527 -0.5429  0.2787  0.2604
   9323SM  C20F12612   6.063   3.318   7.685 -0.1954  0.3428 -0.0599
   9323SM  H20F12613   6.148   3.248   7.702 -1.3603 -1.2681 -0.6038
   9323SM  H20G12614   5.982   3.291   7.756  1.7704 -1.6854  1.5278
   9323SM  C21F12615   6.119   3.462   7.706  1.4150 -0.1090  0.0726
   9323SM  H21F12616   6.042   3.541   7.692  1.2572 -0.3292 -0.3296
   9323SM  H21G12617   6.196   3.499   7.635  0.5881  1.3312 -0.1025
   9323SM  C22F12618   6.186   3.491   7.843 -0.4191  0.3286 -0.0116
   9323SM  H22F12619   6.137   3.435   7.926 -0.9502  1.0130  0.1468
   9323SM  H22G12620   6.194   3.599   7.867 -2.1753  0.0538  2.1206
   9323SM  C23F12621   6.339   3.436   7.851  0.4138  0.4078  0.2237
   9323SM  H23F12622   6.326   3.326   7.843 -0.6653  0.3149  2.4342
   9323SM  H23G12623   6.377   3.476   7.947  0.2708 -1.4800  1.0956
   9323SM  H23H12624   6.395   3.475   7.763 -0.5415  0.7853 -0.2474
   9423SM     N12625   5.349   5.400   5.277 -0.3015  0.4361  0.1501
   9423SM   C1512626   5.350   5.529   5.206 -0.8534 -0.0892  0.7401
   9423SM  H15A12627   5.329   5.522   5.100  2.9388 -1.3776 -0.0589
   9423SM  H15B12628   5.446   5.577   5.213 -0.6756 -0.4309  0.6570
   9423SM  H15C12629   5.281   5.598   5.252 -1.9183 -0.3084 -0.4895
   9423SM   C1412630   5.215   5.332   5.258  0.1019  0.1002  0.0074
   9423SM  H14A12631   5.134   5.390   5.300 -1.6889 -1.0095 -1.7531
   9423SM  H14B12632   5.218   5.234   5.303 -1.5900  0.0817  0.1552
   9423SM  H14C12633   5.195   5.311   5.154  1.3057  0.0322 -0.2149
   9423SM   C1312634   5.455   5.318   5.224 -0.0311 -0.0280 -0.6113
   9423SM  H13A12635   5.445   5.216   5.260  4.0101 -0.7462 -1.0264
   9423SM  H13B12636   5.555   5.344   5.254 -0.3271  0.1637  0.2520
   9423SM  H13C12637   5.455   5.310   5.117  1.5478 -1.3064 -0.5542
   9423SM   C1212638   5.372   5.425   5.425 -0.8613  0.2108 -0.1560
   9423SM  H12A12639   5.462   5.485   5.427 -1.2720  0.8243  0.6096
   9423SM  H12B12640   5.400   5.329   5.465 -1.9815 -0.9644 -2.0504
   9423SM   C1112641   5.258   5.481   5.508 -0.6748 -0.1680 -1.0018
   9423SM  H11A12642   5.302   5.500   5.608  0.0019 -0.1347 -1.2954
   9423SM  H11B12643   5.189   5.394   5.512  1.1819 -1.6949 -0.0437
   9423SM     P12644   5.029   5.614   5.461 -0.0546  0.2713  0.3483
   9423SM   O1312645   4.996   5.749   5.416 -0.4120 -0.0114 -0.4715
   9423SM   O1412646   4.962   5.501   5.383  0.0909 -0.0858 -0.3796
   9423SM   O1112647   5.006   5.593   5.615 -0.0078  0.4173 -0.9527
   9423SM   O1212648   5.190   5.598   5.457 -0.0315 -0.5471 -0.0466
   9423SM   C1S12649   5.026   5.693   5.709 -0.9515  0.2731 -0.1963
   9423SM   H1S12650   4.953   5.771   5.679  0.1088  0.8603 -1.3494
   9423SM   H1T12651   5.135   5.718   5.708 -0.8786  0.0227  0.6538
   9423SM    NF12652   5.036   5.743   5.947  0.0991 -0.1909  0.3021
   9423SM   HNF12653   5.134   5.756   5.964 -0.3242  3.4768  0.7190
   9423SM   C2S12654   4.994   5.638   5.850 -0.2958 -0.3007  0.3631
   9423SM   H2S12655   4.885   5.637   5.867 -0.8789  3.8210 -1.7796
   9423SM   C3S12656   5.071   5.501   5.866 -0.1188  0.1741 -0.6493
   9423SM   H3S12657   5.179   5.513   5.842  0.0916 -0.0867  0.1358
   9423SM    O312658   5.019   5.397   5.781  0.2275  0.2896  0.0826
   9423SM   HO312659   4.987   5.438   5.701  1.0274  2.0727  0.6091
   9423SM   C4S12660   5.072   5.465   6.012  0.2652  0.0174 -0.8575
   9423SM   H4S12661   5.132   5.537   6.070 -1.1498  0.8273 -0.3580
   9423SM   C5S12662   4.985   5.370   6.058 -0.4437  0.6515 -0.1178
   9423SM   H5S12663   4.941   5.301   5.984  1.4787 -0.0701 -0.6456
   9423SM   C6S12664   4.965   5.322   6.202 -0.6225 -0.0494  0.2863
   9423SM   H6S12665   5.033   5.235   6.215 -0.6988  0.0998  1.8778
   9423SM   H6T12666   4.857   5.295   6.208 -2.1119  4.6955 -0.9181
   9423SM   C7S12667   4.982   5.428   6.311  0.2638  0.0443  0.0629
   9423SM   H7S12668   4.900   5.501   6.292  0.0742  0.7507  3.0654
   9423SM   H7T12669   5.072   5.492   6.296  0.0207  0.5133  0.5616
   9423SM   C8S12670   4.977   5.374   6.452 -0.4068  0.6226 -0.1727
   9423SM   H8S12671   5.026   5.449   6.518 -1.1360  0.5991  0.4089
   9423SM   H8T12672   5.033   5.278   6.453 -1.3381  0.0500  1.2043
   9423SM   C9S12673   4.834   5.333   6.494 -0.2532  0.2927  0.2434
   9423SM   H9S12674   4.782   5.266   6.422  3.0617 -0.7765 -1.3711
   9423SM   H9T12675   4.768   5.422   6.489  0.3854  0.7243 -1.2676
   9423SM  C10S12676   4.827   5.278   6.631 -0.6940 -0.4078 -0.9218
   9423SM  H10S12677   4.905   5.331   6.690 -2.9188  1.5132  0.4350
   9423SM  H10T12678   4.844   5.168   6.622 -0.3387 -0.2583 -2.1632
   9423SM  C11S12679   4.695   5.293   6.712  0.3800 -0.5279  0.3137
   9423SM  H11S12680   4.617   5.231   6.663  2.0756  0.3603 -4.0426
   9423SM  H11T12681   4.662   5.394   6.680 -0.6323  0.2360  3.4913
   9423SM  C12S12682   4.704   5.282   6.862  0.2328 -0.5147 -0.2177
   9423SM  H12S12683   4.809   5.262   6.891  0.2198 -2.1604 -1.1984
   9423SM  H12T12684   4.643   5.194   6.891  3.0581 -2.5999 -0.1510
   9423SM  C13S12685   4.642   5.404   6.928 -0.1660 -0.0471 -0.1772
   9423SM  H13S12686   4.543   5.432   6.886  0.3867 -0.3259 -1.7185
   9423SM  H13T12687   4.706   5.492   6.911  0.5792  0.0161  2.5760
   9423SM  C14S12688   4.629   5.387   7.081 -0.2498 -0.3965  0.1973
   9423SM  H14S12689   4.728   5.373   7.129 -0.0220  1.4274  0.3069
   9423SM  H14T12690   4.571   5.293   7.094  2.5614 -2.1305  1.0388
   9423SM  C15S12691   4.571   5.515   7.142  0.8150 -0.8177  0.0824
   9423SM  H15S12692   4.493   5.559   7.077  2.0303  1.6924  0.1996
   9423SM  H15T12693   4.651   5.592   7.132 -0.4296  0.3318 -1.4667
   9423SM  C16S12694   4.521   5.500   7.286  0.4242 -0.5089 -0.0161
   9423SM  H16S12695   4.601   5.453   7.348 -1.4788 -1.1159  2.1243
   9423SM  H16T12696   4.426   5.444   7.300  0.8275 -2.0659 -2.8065
   9423SM  C17S12697   4.517   5.632   7.369  0.3125 -0.2028  0.1747
   9423SM  H17S12698   4.433   5.694   7.330 -0.4781  1.0963  3.6304
   9423SM  H17T12699   4.612   5.685   7.350 -0.3335  1.1584  0.5908
   9423SM  C18S12700   4.503   5.612   7.526  0.7239  0.2347  0.7463
   9423SM  H18S12701   4.443   5.686   7.582  2.0368  1.2973  0.7963
   9423SM  H18T12702   4.608   5.615   7.564  2.1408  1.9996 -2.8332
   9423SM  H18U12703   4.452   5.514   7.537 -2.7937  2.1787  3.9791
   9423SM   C1F12704   4.963   5.855   5.976 -0.0083 -0.2220  0.2427
   9423SM    OF12705   4.861   5.881   5.914 -0.3064 -0.4068  0.1688
   9423SM   C2F12706   5.027   5.964   6.061 -0.4778  0.0748  0.4069
   9423SM   H2F12707   5.042   6.059   6.005  1.6171 -0.8379 -0.7093
   9423SM   H2G12708   5.130   5.931   6.086 -0.3690 -0.2518 -0.4145
   9423SM   C3F12709   4.943   5.980   6.190  0.3774  0.2685 -0.7748
   9423SM   H3F12710   4.838   5.980   6.153  0.5787 -3.4493 -1.8442
   9423SM   H3G12711   4.966   6.067   6.254 -1.8587  0.5674 -0.3254
   9423SM   C4F12712   4.964   5.858   6.281  0.7656  0.2564 -0.0907
   9423SM   H4F12713   5.071   5.832   6.276  0.1439 -2.6050 -0.0037
   9423SM   H4G12714   4.911   5.763   6.258 -1.2654  1.4532 -0.6155
   9423SM   C5F12715   4.915   5.882   6.425  0.0633  0.0193 -0.0046
   9423SM   H5F12716   4.805   5.873   6.419 -0.0201  0.7515  0.3221
   9423SM   H5G12717   4.939   5.983   6.465 -0.4443  0.6453 -1.2372
   9423SM   C6F12718   4.973   5.775   6.518 -0.5448 -0.1760 -0.1702
   9423SM   H6F12719   5.084   5.776   6.518 -0.5122  0.4607  1.4976
   9423SM   H6G12720   4.943   5.673   6.484  0.2404 -1.1050  1.7747
   9423SM   C7F12721   4.915   5.779   6.665  0.0042  0.1074 -0.0267
   9423SM   H7F12722   4.806   5.764   6.680  0.1279 -0.0454  0.7679
   9423SM   H7G12723   4.929   5.878   6.713  2.3582 -0.1196 -0.1254
   9423SM   C8F12724   4.972   5.663   6.748 -0.3521 -0.1399 -0.0057
   9423SM   H8F12725   5.082   5.656   6.761 -0.1370  2.6302  0.2769
   9423SM   H8G12726   4.935   5.567   6.705 -1.0035  0.5046 -0.9204
   9423SM   C9F12727   4.934   5.685   6.891 -0.2381  0.4783 -0.8700
   9423SM   H9F12728   4.825   5.698   6.913 -0.0583 -1.3370  1.4056
   9423SM   H9G12729   4.993   5.776   6.914 -1.7793  0.8242  2.2696
   9423SM  C10F12730   4.974   5.566   6.985 -0.3250 -0.0823  0.5163
   9423SM  H10F12731   5.080   5.537   6.968  0.0330  1.5911 -0.3171
   9423SM  H10G12732   4.910   5.476   6.977 -0.0709 -0.5790  3.0550
   9423SM  C11F12733   4.972   5.606   7.132  0.0698 -0.0271 -0.1848
   9423SM  H11F12734   4.878   5.652   7.168  0.0905 -0.5299  0.5242
   9423SM  H11G12735   5.045   5.689   7.141  0.7970 -0.4903 -1.5941
   9423SM  C12F12736   5.018   5.494   7.230  0.7307  0.0058 -0.8012
   9423SM  H12F12737   5.119   5.464   7.194  1.0768 -0.0965  0.2408
   9423SM  H12G12738   4.944   5.414   7.206  0.9411 -0.3154 -0.3864
   9423SM  C13F12739   5.025   5.535   7.375 -0.6180 -0.4690 -0.5277
   9423SM  H13F12740   4.927   5.578   7.404 -0.3829  0.3595 -0.9503
   9423SM  H13G12741   5.105   5.611   7.385  0.3932 -1.6090  0.3721
   9423SM  C14F12742   5.059   5.415   7.464  0.1608  0.1467  0.0526
   9423SM  H14F12743   5.153   5.364   7.434  0.9186  0.5186  1.7115
   9423SM  H14G12744   4.976   5.342   7.460  0.9867 -0.9115  1.4669
   9423SM  C15F12745   5.094   5.472   7.603  0.2827  0.7967 -0.1610
   9423SM  H15F12746   5.006   5.536   7.622 -1.2319 -0.2926 -3.0626
   9423SM  H15G12747   5.184   5.537   7.601  0.4506  0.5786  0.0925
   9423SM  C16F12748   5.103   5.362   7.708 -0.5221  0.4542 -0.3200
   9423SM  H16F12749   5.191   5.298   7.689 -1.6812 -1.6733  1.1058
   9423SM  H16G12750   5.012   5.298   7.704 -1.1137  1.2799 -0.2372
   9423SM  C17F12751   5.119   5.414   7.855 -0.1976  0.0932  0.6105
   9423SM  H17F12752   5.221   5.458   7.864 -0.3660  0.2130  2.3249
   9423SM  H17G12753   5.125   5.319   7.912  2.2144  0.6387  1.4032
   9423SM  C18F12754   5.014   5.505   7.906  0.3583  0.1009  0.3880
   9423SM  H18F12755   5.018   5.601   7.850 -0.7414 -0.4022 -0.6007
   9423SM  H18G12756   5.032   5.522   8.014 -2.6532 -1.1983  1.1894
   9423SM  C19F12757   4.865   5.450   7.889 -0.0829  0.2224  0.9757
   9423SM  H19F12758   4.869   5.343   7.919  1.0369 -0.6819 -2.0505
   9423SM  H19G12759   4.836   5.453   7.782  0.0216  1.2223  0.9650
   9423SM  C20F12760   4.756   5.529   7.963  0.1325  0.5027 -0.2789
   9423SM  H20F12761   4.791   5.568   8.060  2.1292  0.5293 -0.9692
   9423SM  H20G12762   4.666   5.473   7.998  1.3778 -0.0299  2.2643
   9423SM  C21F12763   4.699   5.639   7.873 -0.3850 -0.4804  0.2979
   9423SM  H21F12764   4.639   5.593   7.791  0.8707  0.9344 -1.5184
   9423SM  H21G12765   4.772   5.702   7.818 -2.9144  0.6777 -1.9982
   9423SM  C22F12766   4.627   5.741   7.958  0.0487  0.0478 -0.4353
   9423SM  H22F12767   4.685   5.771   8.048 -0.7345 -0.4280  0.2508
   9423SM  H22G12768   4.540   5.686   8.000  0.1350 -1.5670 -2.1877
   9423SM  C23F12769   4.590   5.861   7.877  0.7181  0.3309  0.2308
   9423SM  H23F12770   4.685   5.909   7.845  0.1702  1.2301 -0.0604
   9423SM  H23G12771   4.539   5.938   7.938 -0.3427 -0.3420  0.2290
   9423SM  H23H12772   4.538   5.843   7.780  2.1756  1.4154 -0.8034
   9523SM     N12773   1.521   1.078   4.136 -0.4988  0.4705 -0.4527
   9523SM   C1512774   1.665   1.114   4.159 -0.3904 -0.1150  0.4953
   9523SM  H15A12775   1.691   1.114   4.264  0.7973  1.3999  0.2425
   9523SM  H15B12776   1.685   1.212   4.117  0.0259 -0.3803  0.0697
   9523SM  H15C12777   1.728   1.037   4.120 -2.1742 -1.6835  0.5463
   9523SM   C1412778   1.490   1.076   3.992 -0.3386  0.5323 -0.2665
   9523SM  H14A12779   1.537   0.991   3.944 -1.1852 -0.6549  0.9067
   9523SM  H14B12780   1.523   1.159   3.932  1.2622  0.4249  0.4394
   9523SM  H14C12781   1.385   1.060   3.968  0.0501 -1.4081 -0.9045
   9523SM   C1312782   1.494   0.936   4.189 -0.0626  0.0953 -0.4340
   9523SM  H13A12783   1.397   0.895   4.165 -0.1972  0.3203 -0.2782
   9523SM  H13B12784   1.512   0.940   4.295 -0.6115  2.4810 -0.3893
   9523SM  H13C12785   1.570   0.872   4.147  0.7370  0.3468  0.5819
   9523SM   C1212786   1.428   1.177   4.199  0.4759 -0.2188  0.1856
   9523SM  H12A12787   1.327   1.141   4.207  0.6925 -0.4535  2.6652
   9523SM  H12B12788   1.429   1.266   4.139  2.5887 -0.3092  0.0001
   9523SM   C1112789   1.465   1.215   4.349  0.3088  0.0202 -0.4012
   9523SM  H11A12790   1.390   1.289   4.386 -1.2193 -0.7191 -1.8715
   9523SM  H11B12791   1.566   1.261   4.348  0.1835  0.2978 -0.7203
   9523SM     P12792   1.556   1.056   4.540  0.2183  0.2158 -0.4062
   9523SM   O1312793   1.515   0.921   4.578  0.2545 -0.5254 -0.2942
   9523SM   O1412794   1.692   1.077   4.479 -0.3533  0.0532  0.2984
   9523SM   O1112795   1.527   1.163   4.651 -0.5110  0.1928 -0.0359
   9523SM   O1212796   1.456   1.099   4.422 -0.6634 -0.0445  0.2040
   9523SM   C1S12797   1.574   1.144   4.794 -0.2217 -0.7916  0.4019
   9523SM   H1S12798   1.682   1.167   4.803 -0.6497  0.6314  2.5518
   9523SM   H1T12799   1.558   1.042   4.834  0.8516 -1.7059 -1.3841
   9523SM    NF12800   1.550   1.242   5.023  0.1073  0.6761 -0.4927
   9523SM   HNF12801   1.495   1.206   5.098 -0.7189  3.3509  0.2626
   9523SM   C2S12802   1.492   1.240   4.893  0.7366  0.0095  0.3615
   9523SM   H2S12803   1.494   1.344   4.854 -0.1451  0.6157  1.8701
   9523SM   C3S12804   1.343   1.204   4.885  1.0052 -0.7058  0.2730
   9523SM   H3S12805   1.320   1.102   4.921 -0.2413 -0.8851 -0.9725
   9523SM    O312806   1.293   1.197   4.750 -0.3763 -0.0317  0.0265
   9523SM   HO312807   1.371   1.188   4.694  0.4074  0.0208  1.0756
   9523SM   C4S12808   1.268   1.310   4.963 -0.5847  0.6838  0.6574
   9523SM   H4S12809   1.233   1.389   4.894 -2.0175  0.2524  0.8479
   9523SM   C5S12810   1.229   1.333   5.089  0.1424  0.5418 -0.3305
   9523SM   H5S12811   1.253   1.264   5.171 -0.7176 -1.3687 -1.6028
   9523SM   C6S12812   1.157   1.455   5.136  0.3387  0.8398 -0.6046
   9523SM   H6S12813   1.058   1.419   5.172 -0.3009  1.5522 -1.6153
   9523SM   H6T12814   1.142   1.520   5.048  3.6935  1.5846 -0.7477
   9523SM   C7S12815   1.228   1.534   5.244 -0.2327  0.0600  0.1158
   9523SM   H7S12816   1.166   1.625   5.260 -0.7016 -0.6238  2.6666
   9523SM   H7T12817   1.331   1.559   5.210 -0.5728  1.7280  0.2474
   9523SM   C8S12818   1.230   1.453   5.375 -0.7183  0.0298 -0.0629
   9523SM   H8S12819   1.299   1.367   5.369 -1.0148 -0.2510  0.4521
   9523SM   H8T12820   1.130   1.411   5.400 -1.2663  0.8576 -0.7952
   9523SM   C9S12821   1.283   1.529   5.503 -0.6083 -0.1759  0.2513
   9523SM   H9S12822   1.199   1.597   5.531  0.7239  0.9554  1.7085
   9523SM   H9T12823   1.371   1.591   5.474 -1.3318 -0.2991 -2.4655
   9523SM  C10S12824   1.312   1.430   5.619 -0.3484  0.0445  0.0027
   9523SM  H10S12825   1.400   1.368   5.594 -0.9673 -0.1843 -1.7520
   9523SM  H10T12826   1.226   1.363   5.642  1.2691 -2.1641 -0.0661
   9523SM  C11S12827   1.352   1.508   5.748  0.8194 -0.3069  0.0576
   9523SM  H11S12828   1.263   1.573   5.764  1.6023  0.6124  0.8141
   9523SM  H11T12829   1.445   1.567   5.739  1.0401 -0.8602 -1.7013
   9523SM  C12S12830   1.371   1.423   5.871  0.0693 -0.3678 -0.6157
   9523SM  H12S12831   1.440   1.337   5.856 -0.0671 -0.7558  0.8487
   9523SM  H12T12832   1.275   1.374   5.898  0.5224 -0.2158  1.4691
   9523SM  C13S12833   1.417   1.510   5.984  0.0255 -0.6980  0.2852
   9523SM  H13S12834   1.346   1.596   5.988  1.3609  0.3973  1.9188
   9523SM  H13T12835   1.509   1.566   5.957 -0.7559  0.5483  0.1124
   9523SM  C14S12836   1.430   1.439   6.113  0.5488  0.4645 -0.1758
   9523SM  H14S12837   1.514   1.366   6.108 -0.6534 -0.8978 -3.0303
   9523SM  H14T12838   1.344   1.371   6.129  0.7205 -0.3717 -2.4126
   9523SM  C15S12839   1.460   1.527   6.233 -0.5926 -0.2382  0.2768
   9523SM  H15S12840   1.383   1.606   6.243  0.4050  1.3706 -3.3219
   9523SM  H15T12841   1.560   1.574   6.219 -0.0699 -0.9441  1.4711
   9523SM  C16S12842   1.467   1.441   6.365  0.0604 -1.0271 -0.5046
   9523SM  H16S12843   1.539   1.358   6.347  2.0789  1.1090 -3.1574
   9523SM  H16T12844   1.361   1.418   6.388  0.0255  1.1411  2.0772
   9523SM  C17S12845   1.517   1.530   6.473  0.3028 -0.3557 -0.5909
   9523SM  H17S12846   1.456   1.622   6.462  2.5994  1.4080  0.6937
   9523SM  H17T12847   1.616   1.569   6.442  0.5639 -1.0019 -0.5978
   9523SM  C18S12848   1.518   1.468   6.609 -0.0335  0.4843 -0.2472
   9523SM  H18S12849   1.552   1.363   6.598 -1.6628 -0.0373 -0.5695
   9523SM  H18T12850   1.420   1.470   6.661 -0.3186  2.5504 -0.7598
   9523SM  H18U12851   1.583   1.524   6.681  1.1588 -2.0208  0.7481
   9523SM   C1F12852   1.672   1.276   5.057 -0.2801  0.5022  0.5738
   9523SM    OF12853   1.756   1.319   4.973 -0.1502  0.1203 -0.5144
   9523SM   C2F12854   1.697   1.277   5.209 -0.5381 -0.6294  0.3972
   9523SM   H2F12855   1.649   1.186   5.252 -0.4856 -0.5057  0.7213
   9523SM   H2G12856   1.641   1.359   5.260  0.5102 -0.2263  0.9306
   9523SM   C3F12857   1.856   1.298   5.238 -0.0897 -0.5930  0.0919
   9523SM   H3F12858   1.891   1.385   5.178  0.0307 -0.7094 -0.0070
   9523SM   H3G12859   1.917   1.214   5.200 -1.3309 -0.5616 -2.2025
   9523SM   C4F12860   1.870   1.315   5.390  0.6917 -0.3705  0.1108
   9523SM   H4F12861   1.815   1.408   5.417 -0.2681 -1.2255  1.2132
   9523SM   H4G12862   1.978   1.339   5.403  0.5645 -0.3884  1.3138
   9523SM   C5F12863   1.837   1.200   5.488  0.2618 -0.3637 -0.2182
   9523SM   H5F12864   1.928   1.176   5.546 -0.7687 -2.0469  0.7900
   9523SM   H5G12865   1.817   1.117   5.416  0.9359  1.6320 -2.8894
   9523SM   C6F12866   1.719   1.231   5.580 -1.0168  0.0643  0.9199
   9523SM   H6F12867   1.649   1.153   5.616 -4.8740  2.8161  0.0041
   9523SM   H6G12868   1.645   1.285   5.517 -1.1750  0.1270  1.1559
   9523SM   C7F12869   1.759   1.326   5.692 -0.2925 -0.0122 -0.6582
   9523SM   H7F12870   1.671   1.394   5.700  0.4767  0.9732 -0.3828
   9523SM   H7G12871   1.852   1.384   5.677 -1.2531  2.0663  0.8489
   9523SM   C8F12872   1.766   1.268   5.838  0.0085 -0.0874  0.4115
   9523SM   H8F12873   1.829   1.177   5.842  0.0682 -0.0083  2.1155
   9523SM   H8G12874   1.666   1.244   5.880  0.1138 -0.5705  0.3903
   9523SM   C9F12875   1.831   1.374   5.930 -1.0444  0.0177  0.3712
   9523SM   H9F12876   1.772   1.466   5.907  1.3938  1.3379 -1.0811
   9523SM   H9G12877   1.937   1.381   5.898 -1.7000 -0.2121 -2.0896
   9523SM  C10F12878   1.812   1.348   6.084  0.2525  0.1237 -0.4200
   9523SM  H10F12879   1.825   1.241   6.107  0.2821  0.3460  0.6416
   9523SM  H10G12880   1.706   1.372   6.109  0.5168  2.8727 -1.5592
   9523SM  C11F12881   1.899   1.440   6.168 -0.0233  0.9721 -0.3716
   9523SM  H11F12882   1.843   1.536   6.164 -1.1004  0.4719  1.7552
   9523SM  H11G12883   2.002   1.445   6.125 -0.2678 -0.0236 -1.0926
   9523SM  C12F12884   1.910   1.393   6.311 -0.1141 -0.0404 -0.3904
   9523SM  H12F12885   1.971   1.300   6.305  0.5996  0.4251 -0.4173
   9523SM  H12G12886   1.816   1.352   6.353  0.0376  0.1327  0.1266
   9523SM  C13F12887   1.972   1.501   6.407  0.2001  0.2598 -0.2077
   9523SM  H13F12888   1.912   1.594   6.402  0.8047  0.6856  0.2444
   9523SM  H13G12889   2.077   1.535   6.391  0.3130  0.5660  1.0331
   9523SM  C14F12890   1.950   1.459   6.548 -0.1104  0.3895  0.6023
   9523SM  H14F12891   1.988   1.356   6.562 -1.9706 -0.2026  1.7325
   9523SM  H14G12892   1.840   1.445   6.561  0.0665 -2.6513 -0.3348
   9523SM  C15F12893   2.005   1.558   6.649 -0.3885  0.3008  0.6033
   9523SM  H15F12894   1.976   1.660   6.617 -0.8187  0.0840  0.2831
   9523SM  H15G12895   2.113   1.535   6.656 -0.7228 -2.1542 -1.0223
   9523SM  C16F12896   1.966   1.545   6.798 -0.1276 -0.1424  0.5639
   9523SM  H16F12897   1.976   1.441   6.836 -0.9133  0.7664  3.4792
   9523SM  H16G12898   1.862   1.577   6.816  0.4677  3.0187 -0.9735
   9523SM  C17F12899   2.049   1.656   6.883 -0.0751  0.2856 -0.0325
   9523SM  H17F12900   2.024   1.762   6.862  0.7340  0.8542  1.7029
   9523SM  H17G12901   2.158   1.645   6.868 -0.0597 -0.7523  0.7721
   9523SM  C18F12902   2.025   1.643   7.034 -0.6960  0.4482 -0.0037
   9523SM  H18F12903   2.096   1.716   7.080 -1.5051 -0.1909  2.3979
   9523SM  H18G12904   2.059   1.541   7.061  0.2076  0.7244 -0.0545
   9523SM  C19F12905   1.886   1.677   7.084 -0.0371  0.1106  0.4434
   9523SM  H19F12906   1.808   1.599   7.068 -0.2642  0.2395  0.9119
   9523SM  H19G12907   1.850   1.769   7.033  0.2517  0.2825  0.5471
   9523SM  C20F12908   1.872   1.713   7.235 -0.2046  0.9009 -0.0549
   9523SM  H20F12909   1.910   1.621   7.286  1.5551  1.2606 -0.6486
   9523SM  H20G12910   1.764   1.724   7.259 -0.4047 -1.9595  0.7837
   9523SM  C21F12911   1.948   1.837   7.281 -0.3949  0.2289 -0.5760
   9523SM  H21F12912   1.904   1.922   7.224 -0.9697 -1.1061 -2.2047
   9523SM  H21G12913   2.059   1.833   7.271 -0.5470 -1.2137 -1.9294
   9523SM  C22F12914   1.914   1.875   7.424 -0.3856 -0.7233 -0.3595
   9523SM  H22F12915   1.967   1.814   7.501 -0.0899  0.0103  0.0303
   9523SM  H22G12916   1.807   1.858   7.446  0.3362 -1.6968  2.9382
   9523SM  C23F12917   1.938   2.030   7.448  0.6411 -0.3954  0.3463
   9523SM  H23F12918   1.891   2.086   7.364 -1.7621 -2.2228  0.3731
   9523SM  H23G12919   2.046   2.055   7.449  0.6164 -0.1873 -0.8136
   9523SM  H23H12920   1.882   2.058   7.540  0.5206 -0.4853  0.3011
   9623SM     N12921   3.247   6.609   5.001  0.5958  0.0261 -0.3521
   9623SM   C1512922   3.180   6.555   4.886  0.3169  0.4444 -0.0201
   9623SM  H15A12923   3.190   6.614   4.796 -3.0288  1.5836  0.1869
   9623SM  H15B12924   3.074   6.568   4.904 -0.3846 -3.1812 -0.8111
   9623SM  H15C12925   3.185   6.449   4.869  0.0955  0.2769  0.8864
   9623SM   C1412926   3.208   6.537   5.126 -0.1931 -0.1043  0.0471
   9623SM  H14A12927   3.112   6.563   5.167 -0.6264 -1.8459  0.2392
   9623SM  H14B12928   3.274   6.550   5.211  0.4597 -0.6625 -0.3601
   9623SM  H14C12929   3.189   6.431   5.118 -2.6025  0.2523  0.2943
   9623SM   C1312930   3.391   6.590   4.981 -0.3935 -0.5521 -0.1503
   9623SM  H13A12931   3.418   6.490   4.953  0.6230 -0.3269 -0.0281
   9623SM  H13B12932   3.454   6.588   5.069 -1.3301 -1.7453  0.5293
   9623SM  H13C12933   3.434   6.639   4.895 -3.3036 -0.0576 -1.4454
   9623SM   C1212934   3.216   6.753   5.009  0.3289  0.6784 -0.5573
   9623SM  H12A12935   3.234   6.798   4.913  1.2528 -0.9809 -1.2021
   9623SM  H12B12936   3.288   6.798   5.076  0.1949  0.4174 -0.2349
   9623SM   C1112937   3.083   6.805   5.063  0.5290  1.0432 -0.2789
   9623SM  H11A12938   3.098   6.915   5.073 -2.1293  1.4794 -0.4125
   9623SM  H11B12939   3.063   6.768   5.166 -2.2726  1.7106 -0.5136
   9623SM     P12940   2.898   6.885   4.906  0.2341  0.0254 -0.4575
   9623SM   O1312941   2.995   6.977   4.846 -0.6050  0.0397  0.2868
   9623SM   O1412942   2.796   6.831   4.813  0.6734  0.2048 -0.2872
   9623SM   O1112943   2.826   6.960   5.032  0.1729 -0.1270  0.4056
   9623SM   O1212944   2.971   6.763   4.977  0.3685 -0.3732 -0.6785
   9623SM   C1S12945   2.755   6.879   5.129 -0.3231 -1.4182 -0.5114
   9623SM   H1S12946   2.824   6.797   5.159  1.4095  0.2903  0.3585
   9623SM   H1T12947   2.654   6.849   5.093 -1.2390  0.5438  0.2707
   9623SM    NF12948   2.674   6.882   5.356  0.0304 -0.1187  0.1338
   9623SM   HNF12949   2.575   6.890   5.364  0.0272  0.0902 -0.1037
   9623SM   C2S12950   2.737   6.972   5.257  0.1574  0.9043  0.6486
   9623SM   H2S12951   2.840   7.011   5.275  0.8858 -0.4728 -0.3355
   9623SM   C3S12952   2.643   7.086   5.211  0.5015 -0.4484 -0.1216
   9623SM   H3S12953   2.548   7.037   5.181  1.3137 -0.7759 -2.3537
   9623SM    O312954   2.678   7.159   5.097  0.0517  0.2349 -0.0153
   9623SM   HO312955   2.739   7.098   5.055  1.2822  1.9151 -0.7959
   9623SM   C4S12956   2.616   7.173   5.333 -0.2720 -0.4264  0.7314
   9623SM   H4S12957   2.532   7.146   5.399 -2.9733 -0.5929 -2.4608
   9623SM   C5S12958   2.693   7.277   5.373  0.8265 -0.2046  0.2783
   9623SM   H5S12959   2.785   7.306   5.320  1.2491 -0.0553  1.0820
   9623SM   C6S12960   2.661   7.354   5.501 -0.0434  0.3836  0.6713
   9623SM   H6S12961   2.556   7.334   5.532 -0.3157  0.4344 -0.1702
   9623SM   H6T12962   2.661   7.464   5.484 -1.0416  0.1367 -1.3240
   9623SM   C7S12963   2.750   7.311   5.625  0.4232 -0.1426 -0.6857
   9623SM   H7S12964   2.857   7.338   5.610  0.6455  0.0420  1.0228
   9623SM   H7T12965   2.743   7.201   5.644  0.8740 -0.1438 -0.5106
   9623SM   C8S12966   2.687   7.381   5.750  0.1067 -0.4534  0.1262
   9623SM   H8S12967   2.576   7.380   5.737  0.2837 -0.1648 -1.6353
   9623SM   H8T12968   2.716   7.488   5.748 -0.0613 -0.3522  1.7052
   9623SM   C9S12969   2.725   7.326   5.893  0.2254  0.2240  0.4021
   9623SM   H9S12970   2.833   7.301   5.894  0.6766  1.7831 -1.6931
   9623SM   H9T12971   2.658   7.239   5.912  1.6440 -1.1570 -0.7250
   9623SM  C10S12972   2.709   7.431   6.004 -0.3483 -0.2307 -0.1036
   9623SM  H10S12973   2.606   7.474   6.007 -0.3750 -0.3714  1.4335
   9623SM  H10T12974   2.784   7.506   5.970 -0.0852 -1.0105 -1.3247
   9623SM  C11S12975   2.740   7.368   6.143  0.1004  0.1033  0.3483
   9623SM  H11S12976   2.842   7.325   6.153  0.7073  1.0165 -1.5424
   9623SM  H11T12977   2.665   7.288   6.160  1.5205 -0.9582  1.9532
   9623SM  C12S12978   2.725   7.469   6.263 -0.4363  0.5171  0.2547
   9623SM  H12S12979   2.624   7.514   6.252 -0.9341 -0.9827 -1.9174
   9623SM  H12T12980   2.804   7.546   6.248  0.4512 -0.6582 -1.3978
   9623SM  C13S12981   2.743   7.398   6.401 -0.3800 -0.3403  0.2147
   9623SM  H13S12982   2.837   7.340   6.402 -1.0525 -1.5648  2.6967
   9623SM  H13T12983   2.664   7.320   6.400 -1.1199  0.3935 -1.5631
   9623SM  C14S12984   2.742   7.501   6.512 -0.2343 -0.1240 -0.5698
   9623SM  H14S12985   2.660   7.574   6.500  0.1580  0.2161 -1.2971
   9623SM  H14T12986   2.838   7.558   6.511 -0.1807 -0.1256  1.0791
   9623SM  C15S12987   2.728   7.447   6.655  0.1357 -0.3433 -0.0724
   9623SM  H15S12988   2.799   7.365   6.675  0.5755  0.3648  1.4706
   9623SM  H15T12989   2.628   7.400   6.666  0.7451 -1.1764  3.1116
   9623SM  C16S12990   2.752   7.555   6.758  0.3228 -0.6913 -0.2999
   9623SM  H16S12991   2.684   7.638   6.729 -0.7601 -1.0538  1.1234
   9623SM  H16T12992   2.856   7.594   6.751  0.1035 -0.0339  0.0751
   9623SM  C17S12993   2.737   7.506   6.904  0.0615  0.7003  0.6977
   9623SM  H17S12994   2.789   7.409   6.921 -2.0539 -0.8676 -1.1830
   9623SM  H17T12995   2.632   7.477   6.926 -0.5305  0.8277 -1.6664
   9623SM  C18S12996   2.782   7.606   7.004 -0.6155 -0.1755  0.5541
   9623SM  H18S12997   2.817   7.558   7.098  3.3499  1.2473  0.0055
   9623SM  H18T12998   2.703   7.681   7.027  0.2553  0.9357  0.0620
   9623SM  H18U12999   2.873   7.658   6.965  0.2894 -1.5271  0.7983
   9623SM   C1F13000   2.751   6.793   5.420  0.2835  0.0638  1.0757
   9623SM    OF13001   2.872   6.788   5.415  0.1986 -0.2832  0.3268
   9623SM   C2F13002   2.680   6.687   5.495  0.3323  0.5750 -0.0188
   9623SM   H2F13003   2.717   6.589   5.457  1.7699  0.3843  1.7418
   9623SM   H2G13004   2.569   6.695   5.497  0.3561  1.8123 -1.5651
   9623SM   C3F13005   2.739   6.698   5.637  0.2826  0.2160  0.4106
   9623SM   H3F13006   2.849   6.678   5.636  0.6326  0.8831  4.7293
   9623SM   H3G13007   2.697   6.612   5.693 -1.9172  0.8031 -0.2528
   9623SM   C4F13008   2.689   6.819   5.708 -0.5965  0.1259 -0.5875
   9623SM   H4F13009   2.582   6.838   5.685 -1.1405 -2.9202 -1.0606
   9623SM   H4G13010   2.743   6.911   5.678 -1.0911  1.4622  2.2942
   9623SM   C5F13011   2.722   6.803   5.860  0.5485  0.0530  0.0440
   9623SM   H5F13012   2.709   6.905   5.903 -1.4093 -0.1988  0.1349
   9623SM   H5G13013   2.830   6.779   5.869  0.1327 -2.0449 -0.0790
   9623SM   C6F13014   2.625   6.716   5.945 -0.3825  0.8047 -0.3962
   9623SM   H6F13015   2.605   6.613   5.909  0.3919 -0.1108  1.5973
   9623SM   H6G13016   2.531   6.773   5.963  0.9804  3.5212 -1.3408
   9623SM   C7F13017   2.692   6.688   6.083  0.0722 -0.5679 -0.9750
   9623SM   H7F13018   2.748   6.781   6.110 -2.4018  0.3953  1.3422
   9623SM   H7G13019   2.762   6.602   6.070 -0.4208 -1.2589  0.6283
   9623SM   C8F13020   2.593   6.663   6.201 -0.0291  0.6857 -0.0290
   9623SM   H8F13021   2.540   6.570   6.170  1.4933  0.7093 -3.1133
   9623SM   H8G13022   2.524   6.750   6.206 -1.6212 -0.5628  0.8113
   9623SM   C9F13023   2.666   6.655   6.332 -0.1439  0.0767 -0.0929
   9623SM   H9F13024   2.727   6.746   6.348 -0.3415  0.2093 -0.0770
   9623SM   H9G13025   2.742   6.574   6.320 -1.0421 -1.2456  2.4948
   9623SM  C10F13026   2.569   6.621   6.450 -0.0938  0.5250  0.2289
   9623SM  H10F13027   2.539   6.514   6.450 -1.0080  0.7673 -0.8757
   9623SM  H10G13028   2.471   6.670   6.436 -1.3639 -2.2722 -1.3988
   9623SM  C11F13029   2.639   6.640   6.589 -0.7343  0.5337 -0.1723
   9623SM  H11F13030   2.658   6.747   6.610  3.1809 -0.0021 -0.1078
   9623SM  H11G13031   2.741   6.595   6.583 -0.0208  1.9130  1.0504
   9623SM  C12F13032   2.561   6.571   6.706  0.2321  0.5261 -0.6560
   9623SM  H12F13033   2.568   6.461   6.689  1.5292 -0.1045  2.9380
   9623SM  H12G13034   2.453   6.599   6.701  0.2937  0.6362 -1.4150
   9623SM  C13F13035   2.623   6.611   6.843 -0.2451  0.1826  1.1309
   9623SM  H13F13036   2.598   6.718   6.861  2.6355  1.3808 -1.1713
   9623SM  H13G13037   2.731   6.586   6.848 -0.2753  0.2971  3.0544
   9623SM  C14F13038   2.548   6.533   6.959  0.1845 -0.4381 -0.0313
   9623SM  H14F13039   2.555   6.427   6.929 -0.2369 -0.2512 -0.8292
   9623SM  H14G13040   2.441   6.562   6.968  0.6078  1.4281 -0.4781
   9623SM  C15F13041   2.612   6.554   7.096  0.2822 -0.0021 -1.1662
   9623SM  H15F13042   2.722   6.540   7.085  1.1610  3.6844  0.9096
   9623SM  H15G13043   2.576   6.472   7.162 -0.4260  0.9203 -0.3606
   9623SM  C16F13044   2.586   6.682   7.170  0.1120  0.2220 -0.3763
   9623SM  H16F13045   2.479   6.701   7.147  0.0479 -1.9806 -2.2360
   9623SM  H16G13046   2.641   6.764   7.120  1.5243 -0.8102 -0.6065
   9623SM  C17F13047   2.600   6.694   7.319  0.0372  0.8361  0.3056
   9623SM  H17F13048   2.695   6.648   7.352 -1.0443 -2.3635 -0.6184
   9623SM  H17G13049   2.521   6.622   7.351 -1.5775  0.7957 -3.2879
   9623SM  C18F13050   2.584   6.836   7.368 -0.7085 -0.1558 -0.4003
   9623SM  H18F13051   2.592   6.837   7.479 -0.8337 -0.0089 -0.3922
   9623SM  H18G13052   2.487   6.875   7.332 -1.6843 -3.2425 -1.4417
   9623SM  C19F13053   2.697   6.936   7.320 -0.4267  0.1204  0.0735
   9623SM  H19F13054   2.690   6.947   7.210  0.4304  0.6290  0.0610
   9623SM  H19G13055   2.797   6.889   7.330 -0.3872 -0.9417 -3.7570
   9623SM  C20F13056   2.691   7.080   7.385 -0.0159 -0.3205 -0.1310
   9623SM  H20F13057   2.677   7.072   7.494  1.0741  1.3275  0.1785
   9623SM  H20G13058   2.603   7.141   7.356  0.9529  1.7955  1.1082
   9623SM  C21F13059   2.817   7.167   7.357  0.4851 -0.1069 -0.0225
   9623SM  H21F13060   2.841   7.170   7.249 -0.7401 -0.7412 -0.3283
   9623SM  H21G13061   2.902   7.115   7.406  0.8777  0.0051 -0.5740
   9623SM  C22F13062   2.800   7.307   7.409 -0.1612 -0.5257 -0.0812
   9623SM  H22F13063   2.787   7.315   7.519  1.1732 -0.7567  0.1086
   9623SM  H22G13064   2.713   7.356   7.360 -0.7331  0.1336  1.5395
   9623SM  C23F13065   2.925   7.399   7.378 -0.4370  0.3044  0.4740
   9623SM  H23F13066   3.021   7.347   7.397  0.7328  2.2217  0.0536
   9623SM  H23G13067   2.922   7.495   7.434 -3.2707  0.4807  0.1714
   9623SM  H23H13068   2.920   7.427   7.270 -1.9812 -0.9074  0.1984
   9723SM     N13069   4.288   0.962   5.274 -0.2406 -0.1372  0.2782
   9723SM   C1513070   4.185   1.054   5.219  0.6083  0.2419  0.3234
   9723SM  H15A13071   4.099   0.990   5.205  0.2852  0.7690 -0.1394
   9723SM  H15B13072   4.198   1.106   5.125 -1.2605  0.7805  0.3322
   9723SM  H15C13073   4.148   1.122   5.294  0.2098 -0.8560  1.1498
   9723SM   C1413074   4.321   0.864   5.163  0.2539 -0.6989  0.2428
   9723SM  H14A13075   4.336   0.906   5.065 -0.4765  2.0803  1.2192
   9723SM  H14B13076   4.239   0.794   5.155  0.5335 -1.4430  2.9871
   9723SM  H14C13077   4.406   0.803   5.189  0.2257 -0.2449  1.4743
   9723SM   C1313078   4.403   1.051   5.297 -0.2303  0.3077  0.3246
   9723SM  H13A13079   4.414   1.120   5.214  2.4702 -0.2436  0.1285
   9723SM  H13B13080   4.498   1.001   5.307  1.0719  2.6283  0.2021
   9723SM  H13C13081   4.399   1.116   5.383  0.8414  3.4255 -1.7867
   9723SM   C1213082   4.262   0.894   5.407 -0.0187  0.2274  0.0805
   9723SM  H12A13083   4.283   0.968   5.483  0.7878  0.2983 -0.1992
   9723SM  H12B13084   4.339   0.818   5.409 -0.2323  0.0214  0.8270
   9723SM   C1113085   4.123   0.822   5.420  0.0904  0.0784  0.8179
   9723SM  H11A13086   4.053   0.908   5.428 -0.1420  0.0673 -0.8228
   9723SM  H11B13087   4.115   0.773   5.519  0.9795  0.0050  0.8592
   9723SM     P13088   4.139   0.576   5.331 -0.3655 -0.3199 -0.2973
   9723SM   O1313089   4.086   0.500   5.218 -0.6316  0.3150 -0.0761
   9723SM   O1413090   4.283   0.578   5.341  0.3117  0.3397 -0.1674
   9723SM   O1113091   4.076   0.531   5.464 -0.2852 -0.1759 -0.0351
   9723SM   O1213092   4.097   0.732   5.313  0.5998  0.3822 -0.9498
   9723SM   C1S13093   3.939   0.552   5.494  0.0462  0.1571  0.3955
   9723SM   H1S13094   3.871   0.505   5.419  0.9573  1.1184 -1.0913
   9723SM   H1T13095   3.926   0.663   5.496 -0.6154  0.1747 -1.7036
   9723SM    NF13096   3.771   0.429   5.629 -0.0111  0.2120 -0.0489
   9723SM   HNF13097   3.682   0.457   5.664 -0.8582 -0.6049 -1.4261
   9723SM   C2S13098   3.899   0.494   5.633 -0.0963 -0.0414  0.0533
   9723SM   H2S13099   3.982   0.427   5.662  2.7717  2.4526 -1.7208
   9723SM   C3S13100   3.913   0.608   5.738 -0.3224  0.2649  0.2222
   9723SM   H3S13101   3.878   0.710   5.712  1.3012  1.7102  3.1296
   9723SM    O313102   4.058   0.627   5.771  0.4879 -0.0927 -0.1138
   9723SM   HO313103   4.104   0.565   5.714 -1.1068 -2.1311  0.7124
   9723SM   C4S13104   3.840   0.576   5.863  0.3665  0.5501 -0.3725
   9723SM   H4S13105   3.732   0.595   5.862  0.0979 -0.2464  2.7496
   9723SM   C5S13106   3.887   0.530   5.983  0.4037  0.1326 -0.0194
   9723SM   H5S13107   3.992   0.496   5.991  0.1618 -0.4491  0.8185
   9723SM   C6S13108   3.795   0.506   6.096  0.1195 -0.2531  0.1107
   9723SM   H6S13109   3.823   0.405   6.133 -0.4019 -0.0583  1.0643
   9723SM   H6T13110   3.689   0.507   6.063  0.6214 -1.0919 -1.6569
   9723SM   C7S13111   3.818   0.621   6.200 -0.0212  0.0274  0.3727
   9723SM   H7S13112   3.762   0.711   6.164 -1.1571 -0.2600  1.3717
   9723SM   H7T13113   3.921   0.661   6.207  0.6584 -1.4019 -0.9473
   9723SM   C8S13114   3.753   0.589   6.336  0.3056  0.0432 -0.2677
   9723SM   H8S13115   3.644   0.571   6.330 -0.3711  3.6789 -1.5445
   9723SM   H8T13116   3.758   0.684   6.395 -2.2969  0.6030 -0.8302
   9723SM   C9S13117   3.833   0.476   6.409 -0.0680 -0.1675  0.4744
   9723SM   H9S13118   3.943   0.492   6.402 -0.2325  0.8686 -0.0339
   9723SM   H9T13119   3.820   0.382   6.351 -1.0849  0.1885  0.0936
   9723SM  C10S13120   3.788   0.457   6.558  0.2042 -0.8022 -0.5035
   9723SM  H10S13121   3.677   0.454   6.565  0.1206  1.8555  0.4226
   9723SM  H10T13122   3.829   0.547   6.610  0.4695 -0.8681 -0.5938
   9723SM  C11S13123   3.844   0.325   6.608  0.3016 -0.6755  0.2565
   9723SM  H11S13124   3.955   0.320   6.607  0.2647 -2.5351  1.2331
   9723SM  H11T13125   3.797   0.239   6.556 -0.8793 -0.4402  0.8849
   9723SM  C12S13126   3.813   0.306   6.757  0.6192 -0.9636 -0.2085
   9723SM  H12S13127   3.848   0.396   6.812 -1.1869 -0.1457 -0.3445
   9723SM  H12T13128   3.872   0.219   6.793 -1.3865 -1.4262  2.2779
   9723SM  C13S13129   3.662   0.285   6.789 -0.2712 -0.4703 -0.1379
   9723SM  H13S13130   3.639   0.198   6.723  2.2492 -2.3507  1.3211
   9723SM  H13T13131   3.603   0.379   6.778 -2.0253 -1.4591  0.3137
   9723SM  C14S13132   3.642   0.245   6.930  0.4753 -0.4188 -0.5719
   9723SM  H14S13133   3.718   0.175   6.971 -0.1794 -0.8112  0.0112
   9723SM  H14T13134   3.539   0.203   6.935 -0.0718  0.8264 -1.1316
   9723SM  C15S13135   3.645   0.362   7.028 -0.0967  0.7974  0.3968
   9723SM  H15S13136   3.572   0.440   6.997 -0.7837 -0.0311 -0.0886
   9723SM  H15T13137   3.747   0.407   7.027 -0.0139  0.6118 -1.2390
   9723SM  C16S13138   3.595   0.324   7.173 -0.2309 -0.6131 -0.5605
   9723SM  H16S13139   3.666   0.257   7.227  0.9691  0.5573 -0.6371
   9723SM  H16T13140   3.494   0.280   7.160 -0.6117  0.2539 -0.6125
   9723SM  C17S13141   3.556   0.457   7.252  1.2851  0.1332 -0.2561
   9723SM  H17S13142   3.471   0.427   7.317  1.1280  2.2691  0.5894
   9723SM  H17T13143   3.508   0.525   7.179 -0.4649 -1.1465 -0.3717
   9723SM  C18S13144   3.663   0.534   7.325 -0.4536 -0.1932  0.2235
   9723SM  H18S13145   3.768   0.526   7.287  0.9129 -2.1391  3.8668
   9723SM  H18T13146   3.672   0.499   7.430 -0.8935  0.2825  0.4199
   9723SM  H18U13147   3.648   0.643   7.340  1.7680 -0.1178  2.7804
   9723SM   C1F13148   3.763   0.311   5.565  0.3115 -0.3056 -0.6791
   9723SM    OF13149   3.858   0.237   5.534  0.0219 -0.0021  0.1443
   9723SM   C2F13150   3.621   0.278   5.521 -0.7266  0.3757  1.0880
   9723SM   H2F13151   3.633   0.228   5.423  0.5812 -2.5136  2.5998
   9723SM   H2G13152   3.573   0.378   5.507  1.9488  1.8346  1.6140
   9723SM   C3F13153   3.547   0.179   5.607  0.2695 -1.1566 -0.5908
   9723SM   H3F13154   3.606   0.089   5.635  0.0470 -0.6727  1.6320
   9723SM   H3G13155   3.460   0.147   5.547 -0.3421  0.4922 -0.6527
   9723SM   C4F13156   3.500   0.241   5.737 -0.1639  0.2561 -0.4112
   9723SM   H4F13157   3.409   0.295   5.702 -0.6091 -1.4126 -1.9672
   9723SM   H4G13158   3.568   0.318   5.781 -1.7530  0.3756  2.0139
   9723SM   C5F13159   3.472   0.138   5.850 -0.3015 -1.0550  0.2835
   9723SM   H5F13160   3.545   0.054   5.842 -0.3388 -1.2670  1.8933
   9723SM   H5G13161   3.371   0.094   5.840 -0.8144  0.0163  0.5951
   9723SM   C6F13162   3.481   0.201   5.994 -0.2893 -0.1306  0.6908
   9723SM   H6F13163   3.418   0.292   5.984 -1.3177 -0.9557 -0.7143
   9723SM   H6G13164   3.586   0.227   6.019 -1.0952  1.2351  2.9051
   9723SM   C7F13165   3.428   0.102   6.097 -0.0468 -0.0701  0.6881
   9723SM   H7F13166   3.486   0.008   6.086 -0.8646 -0.6474  1.1998
   9723SM   H7G13167   3.323   0.065   6.088 -0.9997  2.4258  0.9319
   9723SM   C8F13168   3.462   0.139   6.239 -0.0219  0.0592  0.6001
   9723SM   H8F13169   3.369   0.104   6.290 -1.1776  2.2869  0.1744
   9723SM   H8G13170   3.460   0.250   6.248 -1.4812  0.1893 -0.9076
   9723SM   C9F13171   3.599   0.104   6.294 -0.6170  0.2582  0.2214
   9723SM   H9F13172   3.611   0.153   6.393 -1.1196  0.2595  0.2819
   9723SM   H9G13173   3.689   0.130   6.235 -1.2644 -1.1591 -1.4798
   9723SM  C10F13174   3.612  -0.053   6.326  0.6974 -0.0303  0.6979
   9723SM  H10F13175   3.716  -0.072   6.359  0.3242 -1.9289  0.8954
   9723SM  H10G13176   3.599  -0.110   6.231  0.0260  0.4529  0.4885
   9723SM  C11F13177   3.499  -0.108   6.418 -0.4815  0.0887 -0.8289
   9723SM  H11F13178   3.507  -0.216   6.393  1.1404  0.1415 -0.6763
   9723SM  H11G13179   3.395  -0.080   6.394 -0.9394 -0.2284  0.6889
   9723SM  C12F13180   3.526  -0.093   6.570  0.6722  0.2484  0.6011
   9723SM  H12F13181   3.558   0.010   6.595  1.3271  0.3599 -0.5925
   9723SM  H12G13182   3.601  -0.167   6.604  0.5457  0.1483  0.6641
   9723SM  C13F13183   3.401  -0.119   6.655 -0.2044 -0.2224  0.7868
   9723SM  H13F13184   3.375  -0.226   6.643  1.6637 -0.6697  0.3770
   9723SM  H13G13185   3.321  -0.058   6.608  0.3539  0.0081  0.1242
   9723SM  C14F13186   3.414  -0.081   6.804  0.3544  0.3589 -0.3733
   9723SM  H14F13187   3.312  -0.081   6.849  0.8040 -0.9811  0.7265
   9723SM  H14G13188   3.446   0.025   6.797 -0.8944  0.7453 -0.5391
   9723SM  C15F13189   3.500  -0.175   6.890  0.3730 -0.9418 -0.2619
   9723SM  H15F13190   3.607  -0.168   6.860  0.6995  2.4293  1.2142
   9723SM  H15G13191   3.486  -0.285   6.881  3.7471 -1.4318 -0.9356
   9723SM  C16F13192   3.500  -0.137   7.038 -0.0618  0.2440 -0.6975
   9723SM  H16F13193   3.404  -0.170   7.084  0.1767  0.3023 -0.1533
   9723SM  H16G13194   3.514  -0.028   7.046  1.2905  0.3119 -3.0357
   9723SM  C17F13195   3.607  -0.208   7.117 -1.2479 -0.3365  0.3027
   9723SM  H17F13196   3.702  -0.166   7.079 -2.5703  1.5951 -1.0391
   9723SM  H17G13197   3.607  -0.318   7.101  1.2040 -0.2356 -0.8388
   9723SM  C18F13198   3.601  -0.163   7.262 -0.1081 -0.8185 -0.1067
   9723SM  H18F13199   3.508  -0.198   7.312 -0.5034  0.6688  0.2638
   9723SM  H18G13200   3.591  -0.052   7.261  0.3894 -0.7179 -3.0636
   9723SM  C19F13201   3.723  -0.215   7.333 -0.5093  0.5096  0.0300
   9723SM  H19F13202   3.816  -0.155   7.327  0.7966 -1.1798  1.9388
   9723SM  H19G13203   3.739  -0.320   7.299  0.5614  0.7703 -0.3122
   9723SM  C20F13204   3.711  -0.230   7.489  0.1644  0.1495 -0.1035
   9723SM  H20F13205   3.798  -0.282   7.533 -0.4547 -0.3785  0.5318
   9723SM  H20G13206   3.617  -0.283   7.516  1.2333 -2.7910 -1.7380
   9723SM  C21F13207   3.723  -0.085   7.561 -0.8014 -0.6912  0.5344
   9723SM  H21F13208   3.647  -0.017   7.517  2.0737  1.4410 -1.4855
   9723SM  H21G13209   3.812  -0.030   7.526 -0.7227 -0.6931  0.7279
   9723SM  C22F13210   3.706  -0.088   7.711  0.2597  0.2284 -0.2415
   9723SM  H22F13211   3.608  -0.139   7.724  0.5179 -0.0571  0.7373
   9723SM  H22G13212   3.670   0.010   7.750  0.1904  0.4566 -0.8635
   9723SM  C23F13213   3.819  -0.160   7.790  0.4425 -0.6520  0.5600
   9723SM  H23F13214   3.913  -0.100   7.792 -0.1215  0.3535  4.0708
   9723SM  H23G13215   3.846  -0.254   7.739 -0.9729 -0.3384 -0.8321
   9723SM  H23H13216   3.781  -0.183   7.892 -0.0268 -0.6940  0.3772
   9823SM     N13217   6.159   6.837   4.866 -0.2529  0.9594  0.2032
   9823SM   C1513218   6.273   6.929   4.880 -0.1720  0.3176 -0.2298
   9823SM  H15A13219   6.255   7.030   4.845  1.3042 -0.2525 -2.9117
   9823SM  H15B13220   6.362   6.894   4.829  0.2450  0.6821  0.2408
   9823SM  H15C13221   6.290   6.936   4.986 -0.7686  1.3951 -0.1903
   9823SM   C1413222   6.037   6.885   4.932 -0.3656  0.3342 -0.8688
   9823SM  H14A13223   6.023   6.991   4.919  0.0949  1.0231  3.1007
   9823SM  H14B13224   6.055   6.878   5.038  0.2849 -0.0743 -0.9953
   9823SM  H14C13225   5.944   6.836   4.906 -0.3524 -1.5692  2.1834
   9823SM   C1313226   6.128   6.821   4.719 -0.1256 -0.3941  0.3523
   9823SM  H13A13227   6.212   6.799   4.655  0.9845  2.9746  0.4589
   9823SM  H13B13228   6.074   6.907   4.682 -1.2873 -0.6266  1.4365
   9823SM  H13C13229   6.050   6.752   4.690  1.8775 -1.2215 -3.7303
   9823SM   C1213230   6.194   6.702   4.924 -0.1420 -0.0673  0.5687
   9823SM  H12A13231   6.267   6.654   4.861  0.4260 -0.8121  1.7640
   9823SM  H12B13232   6.104   6.643   4.911  0.7506 -1.2937 -0.1869
   9823SM   C1113233   6.263   6.693   5.068  0.3441  0.0757  0.0005
   9823SM  H11A13234   6.364   6.739   5.058  0.3124  0.1984  0.2400
   9823SM  H11B13235   6.283   6.586   5.089 -2.0131 -0.3211  0.4378
   9823SM     P13236   6.074   6.702   5.264  0.3867 -0.6048 -0.1826
   9823SM   O1313237   6.019   6.811   5.347 -0.5754  0.5617 -0.1158
   9823SM   O1413238   5.972   6.626   5.187 -0.1744  0.1639  0.2459
   9823SM   O1113239   6.155   6.600   5.358  0.1175  0.1138  0.1884
   9823SM   O1213240   6.188   6.760   5.169  0.2728 -0.4033 -0.0792
   9823SM   C1S13241   6.283   6.635   5.414 -0.4745 -0.3411  0.3380
   9823SM   H1S13242   6.273   6.710   5.496  0.1559 -1.2536  1.2712
   9823SM   H1T13243   6.351   6.671   5.334  0.2978 -1.6000  0.4064
   9823SM    NF13244   6.399   6.549   5.606  0.4699 -0.0923  0.0930
   9823SM   HNF13245   6.498   6.543   5.599  0.3385 -0.8195 -1.5868
   9823SM   C2S13246   6.324   6.508   5.492 -0.5064  0.0910  0.1250
   9823SM   H2S13247   6.243   6.443   5.533 -0.9347  0.3183 -0.3519
   9823SM   C3S13248   6.407   6.421   5.401 -0.2828 -0.1881 -0.5506
   9823SM   H3S13249   6.498   6.473   5.364 -2.2272  1.0186 -4.2147
   9823SM    O313250   6.356   6.396   5.269 -0.4537 -0.1042  0.5511
   9823SM   HO313251   6.290   6.462   5.247  1.4585  1.3392 -1.2125
   9823SM   C4S13252   6.435   6.287   5.464 -1.2538  0.0769  1.1134
   9823SM   H4S13253   6.346   6.235   5.502 -2.0345  1.1954  0.8853
   9823SM   C5S13254   6.565   6.234   5.477  0.3151  0.3701 -0.2388
   9823SM   H5S13255   6.650   6.284   5.428  1.1842 -1.5078 -0.7408
   9823SM   C6S13256   6.590   6.105   5.549 -0.2720  0.3050  0.2214
   9823SM   H6S13257   6.678   6.062   5.498 -0.3011  0.2426  0.2224
   9823SM   H6T13258   6.507   6.031   5.544 -1.5059  1.6842 -0.5725
   9823SM   C7S13259   6.642   6.110   5.696  0.1212  0.5074 -0.0517
   9823SM   H7S13260   6.743   6.155   5.690  1.4054 -2.1804  0.1805
   9823SM   H7T13261   6.650   6.005   5.730 -0.9226 -0.1785 -1.7652
   9823SM   C8S13262   6.556   6.182   5.805  0.3411 -0.2350  0.3795
   9823SM   H8S13263   6.447   6.159   5.805  0.6752 -2.0300 -0.6480
   9823SM   H8T13264   6.558   6.292   5.791  0.1748 -0.2972 -0.1934
   9823SM   C9S13265   6.598   6.151   5.951  1.1025 -0.2982 -1.1573
   9823SM   H9S13266   6.699   6.195   5.964  1.7141 -1.9390 -0.0713
   9823SM   H9T13267   6.619   6.044   5.971  0.0755 -0.6127 -1.6920
   9823SM  C10S13268   6.500   6.210   6.063 -0.2412 -0.3023  0.8343
   9823SM  H10S13269   6.403   6.156   6.053 -1.3311  1.5226  1.1307
   9823SM  H10T13270   6.473   6.316   6.044 -1.2634 -0.5078  1.0781
   9823SM  C11S13271   6.563   6.191   6.196  0.6640 -0.2900 -0.6556
   9823SM  H11S13272   6.673   6.209   6.196  0.7094 -0.5547  0.0477
   9823SM  H11T13273   6.551   6.085   6.228 -1.1641  0.7938  2.7680
   9823SM  C12S13274   6.489   6.278   6.304 -0.3561 -0.5342 -0.6281
   9823SM  H12S13275   6.381   6.274   6.282 -0.6147 -2.2226  0.7075
   9823SM  H12T13276   6.519   6.384   6.290  1.3410 -1.2179 -2.7401
   9823SM  C13S13277   6.521   6.217   6.442  0.5765 -0.1279 -0.1956
   9823SM  H13S13278   6.626   6.244   6.465 -0.3952  3.2232  0.8885
   9823SM  H13T13279   6.511   6.107   6.433  1.5428 -0.1737 -0.9296
   9823SM  C14S13280   6.440   6.267   6.563 -0.8645  0.0570  0.1912
   9823SM  H14S13281   6.331   6.276   6.543 -0.4149  0.7647 -2.2659
   9823SM  H14T13282   6.481   6.370   6.566  0.7754 -0.2994 -3.6122
   9823SM  C15S13283   6.469   6.181   6.694  0.3495 -0.4884  0.8793
   9823SM  H15S13284   6.575   6.198   6.719 -0.0122  0.3188  1.9157
   9823SM  H15T13285   6.452   6.073   6.674  0.2113 -0.5776  1.4769
   9823SM  C16S13286   6.398   6.228   6.816  0.4676  0.1872 -0.7128
   9823SM  H16S13287   6.287   6.242   6.811  0.6559  1.7190 -1.0143
   9823SM  H16T13288   6.434   6.331   6.833 -1.1884  0.4842  1.3885
   9823SM  C17S13289   6.428   6.141   6.939  0.0739 -0.9839 -0.6680
   9823SM  H17S13290   6.536   6.140   6.967  0.3200  1.8900 -1.2088
   9823SM  H17T13291   6.395   6.035   6.930 -2.1513 -0.6005  1.6393
   9823SM  C18S13292   6.362   6.187   7.074  0.5012 -0.1280  0.0152
   9823SM  H18S13293   6.408   6.274   7.126 -2.5280  1.4324  0.2783
   9823SM  H18T13294   6.377   6.110   7.152  2.1554  0.1540  0.0240
   9823SM  H18U13295   6.253   6.202   7.059  0.6761 -0.0834 -1.3133
   9823SM   C1F13296   6.342   6.603   5.714 -0.5250  0.1504  0.4659
   9823SM    OF13297   6.217   6.606   5.722  0.2732 -0.1811  0.0378
   9823SM   C2F13298   6.438   6.642   5.823  0.3309 -0.2178 -0.0878
   9823SM   H2F13299   6.540   6.631   5.781  0.5074 -1.2583  0.5954
   9823SM   H2G13300   6.428   6.559   5.896  2.0729 -0.0650  0.3611
   9823SM   C3F13301   6.412   6.791   5.867 -0.1593 -0.9833 -0.6266
   9823SM   H3F13302   6.311   6.792   5.912 -0.0071 -0.5046 -0.2909
   9823SM   H3G13303   6.408   6.863   5.783  0.8461 -0.6608 -0.4110
   9823SM   C4F13304   6.501   6.815   5.988  0.4847 -0.3201  0.2299
   9823SM   H4F13305   6.497   6.922   6.015  1.6490 -0.5944  1.6112
   9823SM   H4G13306   6.609   6.798   5.969  0.7662 -0.0073  1.4785
   9823SM   C5F13307   6.455   6.738   6.114 -0.6302  0.4409  0.9621
   9823SM   H5F13308   6.499   6.637   6.125 -0.5578  0.4086  0.4006
   9823SM   H5G13309   6.346   6.722   6.105 -0.2219 -1.6626 -1.1531
   9823SM   C6F13310   6.491   6.813   6.240  0.5230 -0.4814  0.2861
   9823SM   H6F13311   6.451   6.916   6.228  0.9492 -0.5844 -2.6044
   9823SM   H6G13312   6.601   6.821   6.254  0.5825 -0.4591 -0.1829
   9823SM   C7F13313   6.430   6.762   6.372 -0.3237  0.3278  0.1635
   9823SM   H7F13314   6.428   6.653   6.350  1.3631  0.6083 -1.7252
   9823SM   H7G13315   6.323   6.791   6.378 -0.6414 -0.0681 -2.3473
   9823SM   C8F13316   6.509   6.807   6.495  0.2245  0.0871  0.0559
   9823SM   H8F13317   6.487   6.915   6.507  3.0495  0.9847 -1.8649
   9823SM   H8G13318   6.616   6.792   6.470 -0.1752 -2.3782 -0.4925
   9823SM   C9F13319   6.495   6.718   6.624  0.2359 -0.3276 -0.0301
   9823SM   H9F13320   6.547   6.622   6.605  2.8626  1.2916 -1.5058
   9823SM   H9G13321   6.386   6.701   6.636  0.1416 -0.0547 -0.4952
   9823SM  C10F13322   6.542   6.774   6.760 -0.0086  0.1167  0.6075
   9823SM  H10F13323   6.500   6.875   6.776 -0.5970 -0.3328  2.1872
   9823SM  H10G13324   6.653   6.782   6.761 -0.0617  1.0927  1.8185
   9823SM  C11F13325   6.489   6.692   6.878  0.4290 -0.2087  0.3232
   9823SM  H11F13326   6.534   6.591   6.870  2.6725  0.6926  0.8886
   9823SM  H11G13327   6.381   6.676   6.858 -0.1055  0.4346  2.4389
   9823SM  C12F13328   6.511   6.764   7.012  0.0491 -1.1361 -0.3393
   9823SM  H12F13329   6.456   6.860   7.012  0.4055 -0.9252  0.1769
   9823SM  H12G13330   6.616   6.801   7.015 -0.2000 -0.5024  1.3017
   9823SM  C13F13331   6.471   6.683   7.143  0.0176 -0.3468  0.0832
   9823SM  H13F13332   6.535   6.592   7.140  2.0812  1.0080  0.8794
   9823SM  H13G13333   6.365   6.653   7.133 -1.0192  2.6927  1.1158
   9823SM  C14F13334   6.507   6.761   7.269 -0.6844  0.6546  0.5484
   9823SM  H14F13335   6.469   6.864   7.257  0.6020  1.2733  1.5335
   9823SM  H14G13336   6.617   6.756   7.284 -0.7503 -3.1806  0.7939
   9823SM  C15F13337   6.443   6.711   7.395  0.5235 -0.5179 -0.6967
   9823SM  H15F13338   6.429   6.601   7.398  1.6351 -0.6819 -0.9387
   9823SM  H15G13339   6.345   6.763   7.391  0.7141 -0.1092 -0.2329
   9823SM  C16F13340   6.508   6.759   7.524 -0.1511 -0.0412  0.0490
   9823SM  H16F13341   6.443   6.751   7.614 -0.6909 -2.6274 -0.4827
   9823SM  H16G13342   6.528   6.868   7.510 -0.4916 -0.0782 -0.8230
   9823SM  C17F13343   6.636   6.686   7.560  0.3773  0.3574 -0.2373
   9823SM  H17F13344   6.678   6.718   7.658 -1.0748  0.6545  0.3153
   9823SM  H17G13345   6.718   6.678   7.486  0.3725  0.2257 -0.2277
   9823SM  C18F13346   6.605   6.537   7.586 -0.2089 -0.5206  0.3767
   9823SM  H18F13347   6.583   6.481   7.493 -2.6472  0.6175  0.1859
   9823SM  H18G13348   6.516   6.534   7.652  0.1047  0.3471  0.8637
   9823SM  C19F13349   6.718   6.472   7.659  0.8910  0.1855 -0.2194
   9823SM  H19F13350   6.750   6.511   7.759  2.9897 -1.4490 -0.2015
   9823SM  H19G13351   6.809   6.481   7.596  1.7465 -0.4153  0.8748
   9823SM  C20F13352   6.708   6.320   7.677 -0.6490  0.2070  0.7069
   9823SM  H20F13353   6.806   6.292   7.720 -0.5597 -0.2350  0.2210
   9823SM  H20G13354   6.698   6.263   7.582  1.7000 -0.9071  1.0526
   9823SM  C21F13355   6.604   6.271   7.772  0.1049 -0.3002  0.9830
   9823SM  H21F13356   6.511   6.285   7.713  1.7229 -1.6829 -2.1577
   9823SM  H21G13357   6.603   6.337   7.861 -0.3946  0.2398  0.5815
   9823SM  C22F13358   6.615   6.119   7.792 -0.7089 -0.0024  0.3287
   9823SM  H22F13359   6.645   6.071   7.696 -1.2250 -1.0888  0.6931
   9823SM  H22G13360   6.519   6.076   7.828 -1.1330  2.5963  2.6339
   9823SM  C23F13361   6.720   6.089   7.898 -0.6543 -0.3710  0.6402
   9823SM  H23F13362   6.688   6.119   8.000  1.1997  0.4748  1.0303
   9823SM  H23G13363   6.823   6.127   7.876 -0.5895  1.1018  3.0921
   9823SM  H23H13364   6.731   5.979   7.901 -0.1770 -0.3079  3.1677
   9923SM     N13365   0.360   0.177   4.937  0.1045  0.2440  0.2032
   9923SM   C1513366   0.211   0.203   4.944  0.2074  0.3911  0.4193
   9923SM  H15A13367   0.184   0.301   4.979 -1.7236 -0.3148  1.0647
   9923SM  H15B13368   0.165   0.131   5.011  2.3407  0.8159  2.4566
   9923SM  H15C13369   0.160   0.195   4.849  1.2407  1.0955 -0.2069
   9923SM   C1413370   0.371   0.055   4.854 -0.1900  0.7915 -0.3029
   9923SM  H14A13371   0.311  -0.021   4.903  1.6622 -0.8797 -0.5108
   9923SM  H14B13372   0.474   0.025   4.842 -0.1305  0.5445  0.7228
   9923SM  H14C13373   0.318   0.076   4.763 -0.6792  0.5391 -0.0824
   9923SM   C1313374   0.434   0.283   4.871  0.2759  0.5311  1.0520
   9923SM  H13A13375   0.397   0.300   4.771  1.8445  1.1966  0.5582
   9923SM  H13B13376   0.539   0.261   4.856  0.3691  1.8910 -0.6444
   9923SM  H13C13377   0.447   0.376   4.925  4.5542 -0.7014  2.5848
   9923SM   C1213378   0.420   0.154   5.075 -0.2858 -0.5293  0.7433
   9923SM  H12A13379   0.419   0.253   5.119 -0.7758  0.0486 -0.5414
   9923SM  H12B13380   0.526   0.137   5.065  0.0601  1.7935 -0.0173
   9923SM   C1113381   0.356   0.044   5.165 -0.2383 -0.1525  1.0065
   9923SM  H11A13382   0.252   0.074   5.190 -0.0355 -1.8072  4.3649
   9923SM  H11B13383   0.405   0.054   5.264  1.0566  2.7314  0.1801
   9923SM     P13384   0.482  -0.179   5.117  0.6865  0.1231 -0.2845
   9923SM   O1313385   0.444  -0.298   5.041 -0.3961 -0.2732 -0.6970
   9923SM   O1413386   0.599  -0.100   5.065 -0.0542  0.4752  0.5136
   9923SM   O1113387   0.505  -0.209   5.276 -0.7356 -0.3903 -0.2694
   9923SM   O1213388   0.353  -0.090   5.119  0.5004 -0.1744 -0.1527
   9923SM   C1S13389   0.393  -0.272   5.350 -0.2131 -0.6015  0.8154
   9923SM   H1S13390   0.355  -0.365   5.301  1.0700 -0.3933 -0.6655
   9923SM   H1T13391   0.307  -0.202   5.351  0.5397  0.3920 -0.5908
   9923SM    NF13392   0.309  -0.383   5.551  0.4723 -0.6488  0.0657
   9923SM   HNF13393   0.245  -0.333   5.608 -0.3554  0.6895 -1.9299
   9923SM   C2S13394   0.424  -0.307   5.499 -0.7118 -0.6296 -0.1531
   9923SM   H2S13395   0.507  -0.381   5.501 -0.6808 -0.6085 -0.5154
   9923SM   C3S13396   0.451  -0.181   5.579 -0.3306 -0.0080  0.3151
   9923SM   H3S13397   0.367  -0.110   5.565  0.1682  0.8528  1.5977
   9923SM    O313398   0.562  -0.103   5.522 -0.3149 -0.4534 -0.3137
   9923SM   HO313399   0.575  -0.146   5.438 -1.2890  0.4677 -0.9645
   9923SM   C4S13400   0.473  -0.212   5.720  0.3155  0.6713 -0.1887
   9923SM   H4S13401   0.488  -0.319   5.738  0.9486  0.5961 -1.0612
   9923SM   C5S13402   0.453  -0.122   5.820  0.0510  0.4424  0.5518
   9923SM   H5S13403   0.415  -0.024   5.790  0.7351  0.0427 -1.7846
   9923SM   C6S13404   0.459  -0.138   5.969 -0.0793 -0.0636 -0.2734
   9923SM   H6S13405   0.362  -0.109   6.015 -1.1658 -3.0972 -0.4421
   9923SM   H6T13406   0.536  -0.075   6.018  0.0097  1.2906 -2.0138
   9923SM   C7S13407   0.478  -0.285   6.015 -0.4399  0.1073  0.0978
   9923SM   H7S13408   0.577  -0.326   5.985  0.4717  0.8670  1.9270
   9923SM   H7T13409   0.403  -0.348   5.962  0.5704 -0.9375 -0.1364
   9923SM   C8S13410   0.455  -0.298   6.160  0.0448  0.0998 -0.6801
   9923SM   H8S13411   0.352  -0.271   6.189  0.4225 -0.1496  0.9778
   9923SM   H8T13412   0.518  -0.223   6.213 -2.1536  1.7408 -0.2848
   9923SM   C9S13413   0.483  -0.436   6.225  0.0267  0.0061  0.0796
   9923SM   H9S13414   0.582  -0.476   6.194 -0.3552 -1.0455  0.1699
   9923SM   H9T13415   0.417  -0.510   6.175  0.6356  0.1082 -0.9183
   9923SM  C10S13416   0.459  -0.430   6.372 -0.3564  0.1616  1.0720
   9923SM  H10S13417   0.360  -0.387   6.397 -0.7196  0.3800 -0.5847
   9923SM  H10T13418   0.538  -0.361   6.410 -0.1679  0.9368 -0.6031
   9923SM  C11S13419   0.445  -0.571   6.441  0.1113  0.0383 -0.5498
   9923SM  H11S13420   0.534  -0.629   6.410 -0.9064 -1.9626  0.1314
   9923SM  H11T13421   0.351  -0.618   6.404  0.8708 -1.5867 -0.4854
   9923SM  C12S13422   0.442  -0.556   6.596  0.4059  0.1453 -0.2468
   9923SM  H12S13423   0.380  -0.466   6.618  0.9962  0.8879 -1.5551
   9923SM  H12T13424   0.543  -0.532   6.636  0.9086  1.3266 -2.1100
   9923SM  C13S13425   0.369  -0.679   6.660  0.9779  0.5668 -0.1429
   9923SM  H13S13426   0.402  -0.782   6.634 -2.5012 -0.7247  0.0287
   9923SM  H13T13427   0.265  -0.680   6.622  0.9009 -3.0203 -0.1244
   9923SM  C14S13428   0.363  -0.664   6.810 -0.1858 -0.1906 -0.1216
   9923SM  H14S13429   0.329  -0.561   6.834 -0.2474 -0.6288  1.8266
   9923SM  H14T13430   0.468  -0.675   6.845 -0.0783 -1.5469 -0.7988
   9923SM  C15S13431   0.275  -0.772   6.879 -0.0860  0.0025 -0.9107
   9923SM  H15S13432   0.174  -0.759   6.835  0.3841  0.1369 -2.0002
   9923SM  H15T13433   0.284  -0.743   6.986  0.8737  0.8835 -1.2143
   9923SM  C16S13434   0.329  -0.910   6.855  0.0542 -0.0496  0.1907
   9923SM  H16S13435   0.306  -0.949   6.753 -0.0443 -0.5798  0.4105
   9923SM  H16T13436   0.273  -0.979   6.921  0.6271 -1.0995 -0.3728
   9923SM  C17S13437   0.473  -0.943   6.896  0.1572  0.4176  0.4087
   9923SM  H17S13438   0.539  -0.904   6.816 -1.1046  0.6390 -0.5439
   9923SM  H17T13439   0.495  -1.052   6.897 -1.2375  0.0997 -1.0397
   9923SM  C18S13440   0.521  -0.889   7.036  0.2797  0.1301  0.2865
   9923SM  H18S13441   0.626  -0.914   7.058  0.3256 -0.1287 -0.1957
   9923SM  H18T13442   0.450  -0.925   7.113 -0.7848  0.1206 -0.6581
   9923SM  H18U13443   0.523  -0.778   7.040  0.0675  0.3464 -2.8606
   9923SM   C1F13444   0.281  -0.510   5.519 -0.2595 -0.0162 -0.1446
   9923SM    OF13445   0.341  -0.564   5.421  0.1654 -0.4009 -0.2999
   9923SM   C2F13446   0.170  -0.581   5.591  0.1896 -0.4507  0.4893
   9923SM   H2F13447   0.077  -0.594   5.531  0.3794 -0.0361  0.1048
   9923SM   H2G13448   0.140  -0.527   5.684 -0.8748  0.6187 -0.4371
   9923SM   C3F13449   0.226  -0.716   5.634  0.5635  1.1315  0.1278
   9923SM   H3F13450   0.337  -0.720   5.648  0.6563  0.8763 -0.6232
   9923SM   H3G13451   0.216  -0.784   5.547  3.1422 -0.4668  0.9607
   9923SM   C4F13452   0.177  -0.801   5.751 -0.0948 -0.0583 -0.8430
   9923SM   H4F13453   0.243  -0.887   5.772  0.9341  1.2938  2.0918
   9923SM   H4G13454   0.072  -0.831   5.730 -1.8038  1.4785  3.9886
   9923SM   C5F13455   0.167  -0.732   5.887  0.5134  0.7949  0.1568
   9923SM   H5F13456   0.090  -0.651   5.894  0.1665  0.6080 -1.1712
   9923SM   H5G13457   0.263  -0.682   5.912  0.6560 -0.0980  1.5083
   9923SM   C6F13458   0.134  -0.831   5.997  0.2379  0.4039 -0.6695
   9923SM   H6F13459   0.201  -0.918   6.007 -0.9585 -0.5838 -0.9845
   9923SM   H6G13460   0.029  -0.863   5.977 -0.5163  0.7608  2.2441
   9923SM   C7F13461   0.136  -0.757   6.132 -0.2909  0.0123 -0.2168
   9923SM   H7F13462   0.074  -0.665   6.133 -1.1687 -0.5536 -0.4858
   9923SM   H7G13463   0.239  -0.721   6.152  0.4015 -1.7534 -0.3796
   9923SM   C8F13464   0.085  -0.840   6.247  0.7461  0.1540 -1.2481
   9923SM   H8F13465   0.144  -0.933   6.242  0.0767 -0.2319 -2.4260
   9923SM   H8G13466  -0.021  -0.872   6.236 -0.3066  1.9112  2.2275
   9923SM   C9F13467   0.095  -0.784   6.392 -0.1681 -0.8555  0.3937
   9923SM   H9F13468   0.038  -0.689   6.400 -0.8948 -1.3681  1.5249
   9923SM   H9G13469   0.203  -0.767   6.409  0.4540 -1.2853 -2.6551
   9923SM  C10F13470   0.048  -0.887   6.502  0.5330 -0.4014  0.8192
   9923SM  H10F13471   0.112  -0.856   6.588 -0.5613  1.3553  1.0476
   9923SM  H10G13472   0.076  -0.992   6.479 -2.1863 -1.7482  3.0626
   9923SM  C11F13473  -0.099  -0.879   6.537  0.2645 -0.0175 -0.7046
   9923SM  H11F13474  -0.164  -0.908   6.452 -1.3401  2.2773 -0.3843
   9923SM  H11G13475  -0.116  -0.771   6.558  1.6796  0.1122 -0.1195
   9923SM  C12F13476  -0.131  -0.950   6.667  0.3782 -0.1477  0.4096
   9923SM  H12F13477  -0.235  -0.935   6.702 -0.6328  0.4787 -2.6517
   9923SM  H12G13478  -0.070  -0.911   6.752  0.2007  0.8874  0.0765
   9923SM  C13F13479  -0.115  -1.099   6.659  0.4286  0.6544  0.5047
   9923SM  H13F13480  -0.012  -1.130   6.633 -0.8134 -3.7891  0.1085
   9923SM  H13G13481  -0.178  -1.130   6.574  0.9057  1.9882 -0.3680
   9923SM  C14F13482  -0.162  -1.186   6.777  0.0918  0.2637  0.9546
   9923SM  H14F13483  -0.118  -1.288   6.777 -0.4890  0.0100  1.1605
   9923SM  H14G13484  -0.270  -1.205   6.763  0.1731 -0.7280  1.5794
   9923SM  C15F13485  -0.133  -1.122   6.919 -0.1573  0.3104 -0.5232
   9923SM  H15F13486  -0.183  -1.187   6.993  1.2124  2.1791  2.2051
   9923SM  H15G13487  -0.168  -1.020   6.943 -1.6783 -0.4152  0.4827
   9923SM  C16F13488   0.019  -1.119   6.943  0.4508 -0.3762 -0.5164
   9923SM  H16F13489   0.062  -1.065   6.856 -3.1403 -0.2041 -2.3810
   9923SM  H16G13490   0.061  -1.222   6.935  0.3982 -0.5171  0.7951
   9923SM  C17F13491   0.046  -1.055   7.086 -0.8434  0.2230  0.1675
   9923SM  H17F13492  -0.019  -0.969   7.114 -0.7145 -0.0540  1.3823
   9923SM  H17G13493   0.152  -1.021   7.084 -0.5504 -0.7075 -0.2918
   9923SM  C18F13494   0.039  -1.157   7.201  0.1688 -0.2283  0.4761
   9923SM  H18F13495   0.106  -1.243   7.180 -0.2517 -0.0188 -2.0568
   9923SM  H18G13496  -0.066  -1.191   7.212  0.0472  0.7581  3.3047
   9923SM  C19F13497   0.086  -1.093   7.334  0.3439  0.2419  0.9347
   9923SM  H19F13498   0.003  -1.039   7.384  1.1888  2.3715  0.1712
   9923SM  H19G13499   0.174  -1.026   7.322  1.3900 -1.1307  0.7298
   9923SM  C20F13500   0.142  -1.196   7.430 -0.4801 -0.8624 -0.9508
   9923SM  H20F13501   0.207  -1.148   7.506  1.7414 -1.1111 -2.5778
   9923SM  H20G13502   0.207  -1.273   7.382 -0.9778 -0.7720 -1.7856
   9923SM  C21F13503   0.043  -1.290   7.497 -0.3342 -0.0793 -0.3362
   9923SM  H21F13504   0.099  -1.372   7.546  0.2393  0.4208 -0.1404
   9923SM  H21G13505  -0.020  -1.341   7.421 -1.2256 -1.7820  1.4717
   9923SM  C22F13506  -0.048  -1.234   7.607 -1.0287 -0.7146  0.1364
   9923SM  H22F13507  -0.120  -1.165   7.557 -1.3192 -2.0654 -1.4190
   9923SM  H22G13508   0.023  -1.183   7.675 -2.0201 -1.1308  1.5249
   9923SM  C23F13509  -0.116  -1.349   7.685 -0.1952 -0.0315  0.6980
   9923SM  H23F13510  -0.206  -1.380   7.627  0.4228 -1.8363  0.6291
   9923SM  H23G13511  -0.141  -1.317   7.788 -0.3468  0.6124  0.4619
   9923SM  H23H13512  -0.049  -1.438   7.694 -1.1572 -0.7467  0.9144
  10023SM     N13513   0.012   6.510   5.080  0.2373  0.3939  0.5434
  10023SM   C1513514   0.078   6.527   4.943 -0.3716 -0.6309  0.4121
  10023SM  H15A13515   0.019   6.482   4.865 -0.7144  2.4930 -1.2745
  10023SM  H15B13516   0.176   6.483   4.935 -0.3050 -0.1464 -2.4151
  10023SM  H15C13517   0.083   6.631   4.915  0.2395 -0.5610  0.7602
  10023SM   C1413518  -0.138   6.527   5.061 -0.0763  0.3901  0.1459
  10023SM  H14A13519  -0.178   6.457   4.990 -0.0287 -1.2641  1.6908
  10023SM  H14B13520  -0.173   6.624   5.029 -0.1513 -0.3781 -2.2346
  10023SM  H14C13521  -0.196   6.511   5.151 -2.7944  1.3120 -1.3292
  10023SM   C1313522   0.041   6.369   5.122  0.1450  0.8506  0.7281
  10023SM  H13A13523   0.144   6.339   5.132  0.6009  1.7345 -0.9239
  10023SM  H13B13524  -0.001   6.305   5.046 -0.1200  2.4410 -0.5113
  10023SM  H13C13525  -0.004   6.337   5.215  1.6064 -0.4569  1.0368
  10023SM   C1213526   0.074   6.610   5.174  0.3855  0.3161 -0.5791
  10023SM  H12A13527   0.057   6.706   5.126  2.8897  1.4681  0.6400
  10023SM  H12B13528   0.180   6.589   5.179  0.1573 -1.2468 -1.7210
  10023SM   C1113529   0.010   6.616   5.312 -0.3561 -0.2754 -0.4908
  10023SM  H11A13530   0.072   6.670   5.388 -1.4396  0.4793 -0.1198
  10023SM  H11B13531   0.008   6.511   5.349  0.6954 -0.4120 -0.7690
  10023SM     P13532  -0.155   6.816   5.272 -0.1139 -0.4415  0.2824
  10023SM   O1313533  -0.122   6.842   5.133 -0.1800 -0.0974 -0.3234
  10023SM   O1413534  -0.295   6.844   5.309 -0.1904  0.5485 -0.6635
  10023SM   O1113535  -0.062   6.912   5.364  0.0043 -0.2183  0.3943
  10023SM   O1213536  -0.125   6.667   5.310  0.3178 -0.3070  0.6507
  10023SM   C1S13537  -0.055   6.887   5.508 -0.0909  0.6992 -0.0883
  10023SM   H1S13538  -0.089   6.787   5.543 -1.4473  1.3700  0.6006
  10023SM   H1T13539  -0.131   6.954   5.553 -0.3536  0.2933  0.0798
  10023SM    NF13540   0.080   6.856   5.704  0.3229  0.0962  0.4991
  10023SM   HNF13541   0.057   6.928   5.770 -4.0207  0.2162 -0.8720
  10023SM   C2S13542   0.083   6.902   5.562 -0.2893  0.3922 -0.0931
  10023SM   H2S13543   0.147   6.840   5.497 -3.0183 -3.3766  0.4939
  10023SM   C3S13544   0.127   7.055   5.532 -0.2135  0.1175 -0.1586
  10023SM   H3S13545   0.043   7.124   5.556 -0.0519  0.0908  0.5096
  10023SM    O313546   0.154   7.076   5.396  0.1163  0.7231  0.6011
  10023SM   HO313547   0.101   7.009   5.353 -1.0231  1.6025  0.5697
  10023SM   C4S13548   0.247   7.085   5.630 -0.5728 -0.4759  0.5981
  10023SM   H4S13549   0.230   7.066   5.737 -1.6491  0.5140  0.6222
  10023SM   C5S13550   0.380   7.111   5.597 -0.0588 -0.2320 -0.0335
  10023SM   H5S13551   0.410   7.122   5.492  0.9671  0.8963  0.3574
  10023SM   C6S13552   0.497   7.113   5.693  0.3440  0.2119 -0.4043
  10023SM   H6S13553   0.571   7.189   5.662  1.9662 -1.1055  0.1090
  10023SM   H6T13554   0.548   7.017   5.672  0.7724  0.3624 -0.0747
  10023SM   C7S13555   0.468   7.126   5.847 -0.2882 -0.4442 -0.3421
  10023SM   H7S13556   0.432   7.027   5.881 -1.2799 -0.5961 -1.7264
  10023SM   H7T13557   0.388   7.200   5.868  1.0574  0.2367  2.8160
  10023SM   C8S13558   0.596   7.176   5.917 -0.2562  0.6693  0.1467
  10023SM   H8S13559   0.626   7.278   5.884  0.6226  0.3796  0.0403
  10023SM   H8T13560   0.687   7.116   5.901  0.9303  2.6511 -0.9428
  10023SM   C9S13561   0.577   7.176   6.070  0.2463  0.4095 -0.2760
  10023SM   H9S13562   0.483   7.223   6.105  1.6013  2.2577  1.0603
  10023SM   H9T13563   0.663   7.226   6.118 -0.5261  1.5172 -0.0051
  10023SM  C10S13564   0.571   7.038   6.130 -0.6984  0.6713 -0.3992
  10023SM  H10S13565   0.645   6.970   6.083 -2.4953 -0.7732 -1.2950
  10023SM  H10T13566   0.476   6.989   6.099  0.5601 -0.6887 -2.3355
  10023SM  C11S13567   0.590   7.051   6.281 -0.1416  0.7775 -0.7169
  10023SM  H11S13568   0.510   7.121   6.315 -1.7495 -1.0688 -0.5738
  10023SM  H11T13569   0.691   7.092   6.304 -0.4465 -0.5935  4.4332
  10023SM  C12S13570   0.578   6.917   6.362 -0.3200  0.1508 -0.2860
  10023SM  H12S13571   0.668   6.859   6.333  0.5760  2.1864 -1.8423
  10023SM  H12T13572   0.486   6.868   6.323  0.0974 -0.6094 -0.3373
  10023SM  C13S13573   0.558   6.942   6.512  0.0877  0.5084  0.2425
  10023SM  H13S13574   0.461   6.996   6.517 -0.3512 -0.3066  0.8678
  10023SM  H13T13575   0.643   6.989   6.565  1.8798 -1.4370 -0.7466
  10023SM  C14S13576   0.517   6.809   6.580 -0.5619 -0.0114 -0.0302
  10023SM  H14S13577   0.604   6.739   6.576 -1.0568 -0.5863 -1.1171
  10023SM  H14T13578   0.434   6.758   6.527  1.5709 -4.0895  0.1263
  10023SM  C15S13579   0.474   6.819   6.723 -0.1447 -0.0799 -0.2097
  10023SM  H15S13580   0.427   6.726   6.761  1.1947  0.0501  1.9435
  10023SM  H15T13581   0.414   6.911   6.736  2.2491  1.5922 -0.4141
  10023SM  C16S13582   0.589   6.856   6.821  0.4160 -0.0452 -0.4438
  10023SM  H16S13583   0.642   6.944   6.780  0.9706 -0.3383 -0.3703
  10023SM  H16T13584   0.657   6.768   6.814 -1.5159 -1.8349  1.5762
  10023SM  C17S13585   0.537   6.870   6.966 -0.4000 -0.0417 -0.6208
  10023SM  H17S13586   0.467   6.786   6.988  0.0937 -0.4910 -0.7353
  10023SM  H17T13587   0.483   6.967   6.972 -0.2504  0.0053 -0.0100
  10023SM  C18S13588   0.641   6.881   7.087  0.3816  0.0618 -0.2684
  10023SM  H18S13589   0.707   6.791   7.084  2.0927  1.2956 -1.0553
  10023SM  H18T13590   0.587   6.886   7.184 -2.5673  0.0611 -1.8076
  10023SM  H18U13591   0.703   6.973   7.087  1.0778 -0.3837  0.7618
  10023SM   C1F13592   0.085   6.727   5.737 -0.5833 -0.0907 -0.3350
  10023SM    OF13593   0.104   6.643   5.654  0.4738  0.0367  0.1675
  10023SM   C2F13594   0.058   6.692   5.881 -0.1716  0.0428 -0.5106
  10023SM   H2F13595  -0.020   6.765   5.913  0.2135  0.2309  0.0056
  10023SM   H2G13596   0.145   6.714   5.946 -0.4912  1.9685 -0.6480
  10023SM   C3F13597   0.013   6.545   5.916  0.1012  0.3911  0.5303
  10023SM   H3F13598   0.095   6.472   5.900  1.2906  2.0230 -1.2250
  10023SM   H3G13599  -0.066   6.515   5.844 -0.1108  3.8445 -0.8792
  10023SM   C4F13600  -0.050   6.522   6.053  0.0937 -0.4028  0.5285
  10023SM   H4F13601  -0.115   6.432   6.041 -2.8423  1.7150 -0.8817
  10023SM   H4G13602  -0.112   6.614   6.065  2.7286  1.8140 -1.6594
  10023SM   C5F13603   0.051   6.522   6.162  0.2331  0.5241  0.6165
  10023SM   H5F13604   0.123   6.600   6.129 -0.2686  0.2714 -1.1575
  10023SM   H5G13605   0.104   6.425   6.165 -1.8180 -0.6413  0.8278
  10023SM   C6F13606  -0.010   6.558   6.300 -0.5639 -0.7056 -0.7171
  10023SM   H6F13607  -0.100   6.495   6.319 -0.2114 -0.9503  0.1581
  10023SM   H6G13608  -0.053   6.659   6.287  0.2808 -0.5196 -2.4426
  10023SM   C7F13609   0.095   6.552   6.415 -0.2450  0.2564  0.1033
  10023SM   H7F13610   0.171   6.628   6.386 -0.6267  1.8074  2.8600
  10023SM   H7G13611   0.162   6.463   6.418  0.0842  0.5247  0.9398
  10023SM   C8F13612   0.047   6.581   6.552 -0.2757 -0.5401  0.7364
  10023SM   H8F13613  -0.057   6.544   6.559 -1.3944  2.1002 -0.5797
  10023SM   H8G13614   0.034   6.689   6.578 -1.4237  0.3758 -2.9944
  10023SM   C9F13615   0.135   6.503   6.649 -0.1004  0.2485 -0.2788
  10023SM   H9F13616   0.232   6.557   6.642 -1.1588  2.5376  1.4673
  10023SM   H9G13617   0.136   6.394   6.627 -1.4039  0.0325  0.6400
  10023SM  C10F13618   0.084   6.518   6.791  0.9389  0.0223 -0.1990
  10023SM  H10F13619   0.050   6.623   6.808 -0.6542 -0.7070  1.4300
  10023SM  H10G13620   0.163   6.500   6.867 -0.6265 -2.3909  0.9799
  10023SM  C11F13621  -0.033   6.425   6.822  0.7792 -0.2723  0.3341
  10023SM  H11F13622   0.005   6.321   6.822  0.0712 -0.5508 -0.7647
  10023SM  H11G13623  -0.118   6.437   6.751 -0.8308  2.5896  2.4981
  10023SM  C12F13624  -0.086   6.464   6.962 -0.2927  0.0375  0.6333
  10023SM  H12F13625  -0.190   6.425   6.971  0.6952 -2.8568  0.4752
  10023SM  H12G13626  -0.084   6.575   6.965  2.3338  0.0890 -0.4178
  10023SM  C13F13627  -0.004   6.407   7.074  0.3469  0.4813  0.5300
  10023SM  H13F13628   0.102   6.439   7.070  0.4654 -0.0108 -1.0725
  10023SM  H13G13629   0.001   6.297   7.055  0.4173  0.2962  1.5665
  10023SM  C14F13630  -0.055   6.428   7.219  0.4680 -0.6363  0.8493
  10023SM  H14F13631  -0.153   6.376   7.218  1.5928 -2.8829  0.7691
  10023SM  H14G13632  -0.052   6.538   7.230  1.3004 -0.4111 -1.1694
  10023SM  C15F13633   0.034   6.364   7.329 -0.1460 -0.3162  0.6581
  10023SM  H15F13634  -0.009   6.360   7.431 -0.0920 -2.1362  0.6455
  10023SM  H15G13635   0.133   6.415   7.333  1.6036 -3.5030  2.8511
  10023SM  C16F13636   0.067   6.216   7.296  0.0365 -0.5244 -0.3476
  10023SM  H16F13637   0.125   6.210   7.202 -0.8631 -1.9156 -0.8550
  10023SM  H16G13638  -0.032   6.165   7.288  0.0047 -0.6884  0.8333
  10023SM  C17F13639   0.138   6.149   7.412 -0.8062 -0.8865 -0.6545
  10023SM  H17F13640   0.112   6.041   7.423  0.6865 -1.1251  1.2097
  10023SM  H17G13641   0.122   6.199   7.510  1.0767 -0.4667 -0.5105
  10023SM  C18F13642   0.293   6.158   7.399  1.4300 -0.4578  0.6082
  10023SM  H18F13643   0.342   6.256   7.419  2.8789 -0.9831 -0.1648
  10023SM  H18G13644   0.298   6.131   7.292 -0.0687  1.0381  0.1122
  10023SM  C19F13645   0.367   6.054   7.482  0.5745 -0.0765 -0.3548
  10023SM  H19F13646   0.468   6.045   7.438  1.0620  1.2318  0.4303
  10023SM  H19G13647   0.314   5.958   7.463  0.5059 -0.2833  0.7883
  10023SM  C20F13648   0.363   6.094   7.631 -0.1439 -0.3734  0.0051
  10023SM  H20F13649   0.255   6.096   7.654  0.1686  0.5712  1.5182
  10023SM  H20G13650   0.400   6.198   7.644 -1.0912 -0.2493  2.0384
  10023SM  C21F13651   0.445   5.993   7.719  0.3627  0.3877  0.1407
  10023SM  H21F13652   0.553   6.016   7.709  0.2618  0.9771  0.3889
  10023SM  H21G13653   0.436   5.888   7.684  1.8126  0.4466 -0.4668
  10023SM  C22F13654   0.409   5.990   7.862 -0.3608 -0.1904  0.4366
  10023SM  H22F13655   0.407   6.092   7.907 -0.8324  1.2022 -2.5179
  10023SM  H22G13656   0.499   5.944   7.908  0.9512 -1.1148 -2.8250
  10023SM  C23F13657   0.277   5.918   7.904  0.0200  0.0118 -0.0294
  10023SM  H23F13658   0.289   5.809   7.887 -1.3315  0.2361 -3.0846
  10023SM  H23G13659   0.192   5.963   7.848 -0.9028 -1.0653  0.4821
  10023SM  H23H13660   0.256   5.935   8.012  0.2514  0.8604 -0.1068
  101CHL1    C313661   3.011   4.166   8.959 -0.2085 -0.0299  0.1650
  101CHL1    H313662   2.910   4.207   8.941  0.3035  0.6291 -1.3259
  101CHL1    O313663   3.037   4.157   9.098  0.1796  0.2603 -0.4568
  101CHL1   H3'13664   3.113   4.099   9.096 -0.3416 -0.5379  1.0954
  101CHL1    C413665   3.016   4.025   8.909 -0.1560  0.0312 -0.0652
  101CHL1   H4A13666   3.118   3.985   8.924 -0.0230  0.8517  1.4484
  101CHL1   H4B13667   2.941   3.963   8.963  0.0666 -1.2700 -1.2048
  101CHL1    C513668   2.990   4.034   8.758 -0.4626  0.3216 -0.1732
  101CHL1    C613669   2.877   3.983   8.694  0.4520 -0.5481  0.1844
  101CHL1    H613670   2.793   3.935   8.746 -0.2187  1.3510  0.9235
  101CHL1    C713671   2.855   3.988   8.546  0.3307 -0.7774  0.3741
  101CHL1   H7A13672   2.821   3.885   8.523  1.7915 -1.1162 -0.3651
  101CHL1   H7B13673   2.773   4.060   8.526  2.5394  1.1296 -2.6499
  101CHL1    C813674   2.981   4.028   8.464 -0.3499 -0.4659 -0.0208
  101CHL1    H813675   3.049   3.941   8.470 -1.9373 -1.8212 -0.6719
  101CHL1   C1413676   2.940   4.064   8.320 -0.0894  0.1640  0.0526
  101CHL1   H1413677   2.868   4.149   8.324  0.5033  0.6188  2.3845
  101CHL1   C1513678   2.863   3.959   8.235  0.9491 -0.1362  0.1944
  101CHL1  H15A13679   2.937   3.877   8.239  2.2503  1.0349  2.1388
  101CHL1  H15B13680   2.763   3.923   8.268  0.8571  0.0971  0.1753
  101CHL1   C1613681   2.871   4.016   8.091  0.6891 -0.2762  0.9372
  101CHL1  H16A13682   2.892   3.938   8.015  1.8645  0.1448  0.8170
  101CHL1  H16B13683   2.771   4.051   8.056  1.1861 -0.5742 -0.8720
  101CHL1   C1713684   2.981   4.122   8.097  0.0888  0.0044  0.4604
  101CHL1   H1713685   2.924   4.216   8.112 -0.8289 -0.7498  1.8792
  101CHL1   C1313686   3.053   4.107   8.234 -0.5941 -0.1403 -0.0024
  101CHL1   C1813687   3.167   3.998   8.221 -0.3144  0.2518  0.4030
  101CHL1  H18A13688   3.203   3.965   8.321  1.0630  0.9695  0.1686
  101CHL1  H18B13689   3.123   3.915   8.163 -0.2789  2.5874 -3.2654
  101CHL1  H18C13690   3.252   4.050   8.171 -0.4888  2.0139  1.8231
  101CHL1   C1213691   3.110   4.238   8.294  0.0370 -0.5894  1.4642
  101CHL1  H12A13692   3.189   4.287   8.234 -0.8596 -0.4529  0.3647
  101CHL1  H12B13693   3.027   4.309   8.313 -0.8425 -0.9939 -0.6748
  101CHL1   C1113694   3.170   4.203   8.434 -0.2380 -0.6319  0.1212
  101CHL1  H11A13695   3.251   4.127   8.429  0.0609 -0.2887 -0.3927
  101CHL1  H11B13696   3.212   4.296   8.480 -1.9854 -0.7505  2.0592
  101CHL1    C913697   3.057   4.145   8.535 -0.0255  0.1204 -1.5195
  101CHL1    H913698   2.983   4.228   8.544 -3.6214 -3.0184  1.6442
  101CHL1   C1013699   3.096   4.110   8.680 -0.4313  0.1727  0.1264
  101CHL1   C1913700   3.235   4.038   8.673  0.2355 -0.0387  0.1250
  101CHL1  H19A13701   3.319   4.109   8.659  0.3449  0.2189  1.8164
  101CHL1  H19B13702   3.255   3.990   8.772  0.7739 -1.2582 -0.5505
  101CHL1  H19C13703   3.237   3.959   8.595  1.3935  1.1318 -1.0754
  101CHL1    C113704   3.101   4.248   8.749 -0.0809  0.2767  0.0636
  101CHL1   H1A13705   3.183   4.308   8.704  1.9211 -1.2040  1.5416
  101CHL1   H1B13706   3.005   4.301   8.729  0.0293  0.6999  0.6224
  101CHL1    C213707   3.121   4.244   8.900  0.5053 -0.5520  0.2813
  101CHL1   H2A13708   3.112   4.346   8.944 -3.5384 -1.0792  1.0998
  101CHL1   H2B13709   3.217   4.196   8.927 -0.1234 -1.6987  0.5207
  101CHL1   C2013710   3.075   4.154   7.977 -0.1833  0.8023 -0.0427
  101CHL1   H2013711   3.173   4.196   8.008 -0.1853  0.6151  0.2312
  101CHL1   C2113712   2.999   4.271   7.908 -0.4901 -0.3861  0.5438
  101CHL1  H21A13713   2.894   4.237   7.889 -0.3537 -2.0428  2.4138
  101CHL1  H21B13714   3.053   4.303   7.817  0.5207 -0.6557  1.0306
  101CHL1  H21C13715   2.993   4.362   7.971  0.7506  0.4079 -0.4594
  101CHL1   C2213716   3.092   4.038   7.877 -0.2126 -0.7467 -0.9074
  101CHL1  H22A13717   3.120   3.950   7.939  2.2560  0.4150 -0.2421
  101CHL1  H22B13718   3.007   4.024   7.807 -2.1789  0.1354  1.1841
  101CHL1   C2313719   3.225   4.059   7.790 -0.6811  0.3628 -0.4633
  101CHL1  H23A13720   3.207   4.148   7.725 -3.0038  2.1353  2.3700
  101CHL1  H23B13721   3.315   4.083   7.850  0.9426 -1.3958 -2.0590
  101CHL1   C2413722   3.251   3.933   7.710 -0.4521 -0.5052 -0.4285
  101CHL1  H24A13723   3.253   3.844   7.777  0.2079 -1.2454 -1.4004
  101CHL1  H24B13724   3.166   3.916   7.641 -1.0743 -1.9223  0.6293
  101CHL1   C2513725   3.387   3.927   7.642  0.2203  0.5233 -0.3189
  101CHL1   H2513726   3.376   3.996   7.555  0.4723 -0.4835 -1.1663
  101CHL1   C2613727   3.516   3.972   7.718  0.6457  1.2468  0.9004
  101CHL1  H26A13728   3.593   3.945   7.642 -1.5786 -1.9344 -0.4377
  101CHL1  H26B13729   3.519   4.082   7.733 -1.6141  1.0951  3.2054
  101CHL1  H26C13730   3.518   3.915   7.813 -1.5492  1.4679  1.1246
  101CHL1   C2713731   3.405   3.786   7.578  0.1368 -0.3296 -0.1024
  101CHL1  H27A13732   3.332   3.760   7.499  1.3372 -1.2692 -0.9409
  101CHL1  H27B13733   3.506   3.791   7.533  0.4608  1.1809  0.7068
  101CHL1  H27C13734   3.407   3.702   7.652 -1.2426 -2.6183 -2.4887
  102CHL1    C313735   2.623   4.489   8.912 -0.3232 -0.5416  0.7979
  102CHL1    H313736   2.513   4.474   8.916 -0.3280 -0.4578  1.0433
  102CHL1    O313737   2.672   4.489   9.042 -0.1410 -0.4069  0.6390
  102CHL1   H3'13738   2.757   4.532   9.031 -1.5499  1.9407 -2.7849
  102CHL1    C413739   2.704   4.383   8.841 -0.1833 -0.5470 -0.4577
  102CHL1   H4A13740   2.811   4.411   8.838 -0.1000 -0.9224 -3.4634
  102CHL1   H4B13741   2.701   4.290   8.903  1.9245 -0.1083  0.3542
  102CHL1    C513742   2.659   4.371   8.702 -0.2714 -0.3089  0.7124
  102CHL1    C613743   2.609   4.260   8.646  1.0604  0.4067 -1.0465
  102CHL1    H613744   2.603   4.179   8.720 -0.8603  0.8570 -0.6660
  102CHL1    C713745   2.569   4.240   8.503  0.5682 -0.1427  0.2919
  102CHL1   H7A13746   2.577   4.137   8.463 -0.0703 -0.0541 -0.0700
  102CHL1   H7B13747   2.461   4.262   8.497  0.4234 -1.0781 -0.6995
  102CHL1    C813748   2.630   4.349   8.412 -0.2119 -0.1786  0.5154
  102CHL1    H813749   2.739   4.334   8.402 -0.3936 -1.4157  0.2468
  102CHL1   C1413750   2.566   4.341   8.271 -0.1150  0.0719  0.0739
  102CHL1   H1413751   2.457   4.352   8.285 -0.1761  1.1868 -1.1161
  102CHL1   C1513752   2.594   4.215   8.192  0.1890  0.0214 -0.0667
  102CHL1  H15A13753   2.699   4.183   8.210  0.0915 -0.9358 -1.0761
  102CHL1  H15B13754   2.526   4.133   8.226 -1.2132  0.9619 -0.5368
  102CHL1   C1613755   2.579   4.254   8.047  0.0293 -0.0165  0.3020
  102CHL1  H16A13756   2.673   4.232   7.992 -0.1953  1.8649 -0.9475
  102CHL1  H16B13757   2.503   4.198   7.989  1.5862 -0.5237 -1.3723
  102CHL1   C1713758   2.542   4.411   8.045  0.6927  0.7624 -0.0680
  102CHL1   H1713759   2.433   4.411   8.066  1.1437  0.1047  2.6203
  102CHL1   C1313760   2.607   4.452   8.177  0.2404 -0.3645  0.4432
  102CHL1   C1813761   2.762   4.461   8.153 -0.5155  0.0165 -0.2431
  102CHL1  H18A13762   2.781   4.554   8.097  0.4418  0.2626  0.4677
  102CHL1  H18B13763   2.818   4.467   8.249 -0.5111 -1.0148 -0.1674
  102CHL1  H18C13764   2.792   4.376   8.087 -0.4171 -0.6714  0.6601
  102CHL1   C1213765   2.557   4.582   8.250 -0.3041 -0.2430 -0.1562
  102CHL1  H12A13766   2.582   4.667   8.183 -1.5213 -1.2107 -1.9104
  102CHL1  H12B13767   2.447   4.575   8.261 -0.1243  0.2592  2.8693
  102CHL1   C1113768   2.628   4.609   8.382  0.4068 -0.2445  0.1859
  102CHL1  H11A13769   2.734   4.629   8.355 -0.2426 -0.8488 -3.2689
  102CHL1  H11B13770   2.587   4.695   8.439  0.7938  0.1185 -0.0749
  102CHL1    C913771   2.605   4.488   8.478  0.2654  0.0195 -0.4906
  102CHL1    H913772   2.496   4.488   8.501  0.1384 -1.4581 -0.9706
  102CHL1   C1013773   2.670   4.501   8.614 -0.5692 -0.7500  0.2975
  102CHL1   C1913774   2.827   4.536   8.595 -0.3958  0.2976 -0.2645
  102CHL1  H19A13775   2.886   4.525   8.688  0.4173 -2.1821 -1.0223
  102CHL1  H19B13776   2.871   4.474   8.514 -0.1554  0.3677 -0.1891
  102CHL1  H19C13777   2.834   4.645   8.574  0.2430 -0.0930 -2.2596
  102CHL1    C113778   2.606   4.621   8.700 -0.3914 -0.9760  0.2530
  102CHL1   H1A13779   2.640   4.711   8.644  0.2528 -2.2717 -1.5680
  102CHL1   H1B13780   2.495   4.626   8.695 -0.4962 -1.8662  1.4151
  102CHL1    C213781   2.649   4.621   8.848 -0.0768 -0.3304 -0.0245
  102CHL1   H2A13782   2.574   4.683   8.901 -0.4795 -0.2191 -0.7120
  102CHL1   H2B13783   2.754   4.658   8.856 -0.1520  0.4591 -2.0489
  102CHL1   C2013784   2.581   4.477   7.910 -0.1753  0.0374 -0.3697
  102CHL1   H2013785   2.691   4.489   7.902 -0.2837  0.1159 -2.3151
  102CHL1   C2113786   2.512   4.618   7.905 -0.0931 -0.1985  0.4149
  102CHL1  H21A13787   2.402   4.611   7.887 -0.2678  0.3968  1.2050
  102CHL1  H21B13788   2.554   4.685   7.827  0.8953 -1.1885  0.0594
  102CHL1  H21C13789   2.524   4.670   8.002  2.5861 -2.9757  1.7680
  102CHL1   C2213790   2.531   4.388   7.795 -0.0649 -0.7196 -0.7084
  102CHL1  H22A13791   2.583   4.291   7.805  1.8634  0.2591 -0.7772
  102CHL1  H22B13792   2.421   4.375   7.806  0.0558 -0.1872  1.5808
  102CHL1   C2313793   2.549   4.439   7.653  0.1332  0.3809  0.1745
  102CHL1  H23A13794   2.521   4.354   7.587  3.5170 -1.3620  0.7727
  102CHL1  H23B13795   2.470   4.517   7.644 -0.4043  0.1708  2.4431
  102CHL1   C2413796   2.685   4.498   7.619 -0.2870 -0.0663 -0.1482
  102CHL1  H24A13797   2.696   4.585   7.687 -2.5794 -0.5502  0.9728
  102CHL1  H24B13798   2.751   4.418   7.657  0.2851 -0.6201 -2.1900
  102CHL1   C2513799   2.694   4.529   7.467  0.0018 -0.6061 -0.8084
  102CHL1   H2513800   2.697   4.436   7.407  1.1356 -0.5497 -0.8652
  102CHL1   C2613801   2.578   4.615   7.418  0.0332 -0.6916 -0.5556
  102CHL1  H26A13802   2.564   4.711   7.471 -0.5534  0.4904 -2.7102
  102CHL1  H26B13803   2.577   4.641   7.310  0.3757  2.0313  0.0430
  102CHL1  H26C13804   2.481   4.562   7.433  1.4739 -3.7105 -1.1144
  102CHL1   C2713805   2.819   4.613   7.441 -0.4292  0.4586  0.0286
  102CHL1  H27A13806   2.837   4.648   7.337 -0.2461  2.9209  0.8079
  102CHL1  H27B13807   2.814   4.703   7.506 -1.4886 -0.3202  1.0698
  102CHL1  H27C13808   2.914   4.558   7.455 -0.2562  0.4585 -1.0386
  103CHL1    C313809   2.545   2.615   9.054 -0.7082  0.1237  0.1035
  103CHL1    H313810   2.452   2.675   9.039  0.8363  3.2723  2.0284
  103CHL1    O313811   2.590   2.619   9.192  0.7579  0.0534 -0.2361
  103CHL1   H3'13812   2.554   2.703   9.221 -0.7582 -0.1560 -1.3792
  103CHL1    C413813   2.510   2.463   9.023  0.3552  0.5148 -0.5976
  103CHL1   H4A13814   2.602   2.414   9.061  0.9574  3.2886  1.8898
  103CHL1   H4B13815   2.427   2.440   9.092  0.2240  1.3410 -0.4772
  103CHL1    C513816   2.470   2.442   8.878 -0.9687 -0.3952  0.4210
  103CHL1    C613817   2.358   2.390   8.841  0.2559 -0.1286  0.2680
  103CHL1    H613818   2.287   2.359   8.920 -1.6498  0.3252 -1.1843
  103CHL1    C713819   2.310   2.368   8.697  0.4357  0.2173  0.1319
  103CHL1   H7A13820   2.279   2.265   8.668  1.0861  0.1703 -0.4419
  103CHL1   H7B13821   2.218   2.428   8.680 -0.1402 -0.4167  0.9551
  103CHL1    C813822   2.409   2.412   8.592  0.5409 -0.3612 -0.2565
  103CHL1    H813823   2.479   2.327   8.577 -0.0589 -1.3122  1.8496
  103CHL1   C1413824   2.334   2.436   8.458  0.7498  0.2806 -0.1399
  103CHL1   H1413825   2.267   2.521   8.483  1.0814  0.7847 -0.9199
  103CHL1   C1513826   2.254   2.322   8.386  0.2018 -0.5465 -0.1734
  103CHL1  H15A13827   2.289   2.216   8.381 -0.4551 -0.7184 -3.2074
  103CHL1  H15B13828   2.147   2.317   8.414 -0.9816  0.6395 -3.8523
  103CHL1   C1613829   2.252   2.368   8.235  0.5322  0.2049 -0.0105
  103CHL1  H16A13830   2.300   2.285   8.179  0.3777  2.3733 -3.7162
  103CHL1  H16B13831   2.150   2.377   8.191  0.9502  0.1189 -1.0399
  103CHL1   C1713832   2.343   2.487   8.229  0.4752 -0.1771 -0.1200
  103CHL1   H1713833   2.285   2.580   8.244 -1.2915 -0.8995 -2.0376
  103CHL1   C1313834   2.437   2.474   8.353  0.2017  0.2244  1.0326
  103CHL1   C1813835   2.541   2.355   8.334  0.1667  0.2468  0.7378
  103CHL1  H18A13836   2.617   2.394   8.263  0.7332  0.9881  1.7174
  103CHL1  H18B13837   2.600   2.348   8.428  1.2233  1.8396  0.2181
  103CHL1  H18C13838   2.497   2.262   8.291  0.6247  1.6927 -3.2860
  103CHL1   C1213839   2.521   2.597   8.397 -0.4157 -0.1268  0.0632
  103CHL1  H12A13840   2.586   2.639   8.318 -0.6740  0.4322  0.1495
  103CHL1  H12B13841   2.447   2.677   8.415 -0.7547  0.3095 -2.8657
  103CHL1   C1113842   2.592   2.588   8.534 -0.4710 -0.3034  0.4794
  103CHL1  H11A13843   2.682   2.528   8.510 -0.9281  0.3785 -3.7460
  103CHL1  H11B13844   2.623   2.689   8.568 -0.8605  0.3841 -1.0749
  103CHL1    C913845   2.495   2.532   8.640  0.2690  0.0926 -0.0142
  103CHL1    H913846   2.428   2.619   8.653 -1.8807 -1.0660 -2.5014
  103CHL1   C1013847   2.564   2.512   8.778 -0.7970  0.6527  0.3673
  103CHL1   C1913848   2.683   2.410   8.762 -0.3160  0.1178 -0.1892
  103CHL1  H19A13849   2.724   2.395   8.864  1.7721  2.6731 -0.5387
  103CHL1  H19B13850   2.652   2.317   8.711  2.2382 -0.3207 -1.0833
  103CHL1  H19C13851   2.760   2.453   8.694  0.9011  2.0509  2.2292
  103CHL1    C113852   2.624   2.649   8.828 -0.6052 -0.1993  0.5465
  103CHL1   H1A13853   2.709   2.678   8.763 -0.6487 -0.8282  0.1992
  103CHL1   H1B13854   2.554   2.735   8.817  0.7834  0.9764  0.6333
  103CHL1    C213855   2.667   2.660   8.973  0.8498  0.5653  0.3865
  103CHL1   H2A13856   2.690   2.766   8.996 -1.2847  1.2744 -0.4180
  103CHL1   H2B13857   2.757   2.599   8.995  1.6443  1.1881 -1.0011
  103CHL1   C2013858   2.414   2.512   8.092 -0.6738  0.1580  0.0949
  103CHL1   H2013859   2.524   2.497   8.086 -0.5131  1.6217 -1.9185
  103CHL1   C2113860   2.406   2.663   8.057  0.7265  0.2433 -0.3912
  103CHL1  H21A13861   2.490   2.695   7.991  0.4936  1.5044 -0.0953
  103CHL1  H21B13862   2.418   2.723   8.150 -1.9152 -0.2317  0.3485
  103CHL1  H21C13863   2.305   2.680   8.015 -0.8199 -1.2806  2.3742
  103CHL1   C2213864   2.348   2.420   7.983 -0.2447 -0.0341 -0.0754
  103CHL1  H22A13865   2.382   2.320   8.019 -0.2129  0.0241  0.0552
  103CHL1  H22B13866   2.239   2.441   7.985 -0.6170 -1.6023 -1.6097
  103CHL1   C2313867   2.416   2.429   7.842 -0.2175 -1.1749 -0.3231
  103CHL1  H23A13868   2.434   2.536   7.818  0.1385 -1.3769 -0.9767
  103CHL1  H23B13869   2.520   2.395   7.858  0.4145 -0.7436 -3.0356
  103CHL1   C2413870   2.337   2.348   7.747  0.1644  0.0665 -0.1101
  103CHL1  H24A13871   2.320   2.243   7.780  1.6587 -0.3688 -0.6589
  103CHL1  H24B13872   2.234   2.390   7.740 -0.0250 -0.3159  0.3290
  103CHL1   C2513873   2.397   2.329   7.603  0.1137  0.4774 -0.5869
  103CHL1   H2513874   2.489   2.266   7.603 -0.2107 -0.2389  2.8415
  103CHL1   C2613875   2.295   2.245   7.512  0.1397 -0.4907 -0.2652
  103CHL1  H26A13876   2.278   2.143   7.552 -2.2940 -0.0292  0.0410
  103CHL1  H26B13877   2.199   2.302   7.504  0.0134 -0.5286  0.8241
  103CHL1  H26C13878   2.345   2.238   7.413 -0.6109  0.9484 -0.7816
  103CHL1   C2713879   2.444   2.467   7.540 -0.4319 -1.1731 -0.0927
  103CHL1  H27A13880   2.526   2.525   7.588  0.2170 -0.0011 -2.4459
  103CHL1  H27B13881   2.476   2.448   7.435  0.2720 -1.3199  0.1435
  103CHL1  H27C13882   2.358   2.538   7.542  0.1681 -0.3206 -2.2591
  104CHL1    C313883   5.676   3.768   9.531 -0.1446 -0.2449  0.6013
  104CHL1    H313884   5.716   3.665   9.519  1.2712  0.4175 -0.7556
  104CHL1    O313885   5.647   3.794   9.668  0.1264  0.3779 -0.4470
  104CHL1   H3'13886   5.686   3.882   9.680 -0.5926  1.0542 -2.6136
  104CHL1    C413887   5.785   3.863   9.483 -0.3565 -0.2341 -0.3039
  104CHL1   H4A13888   5.756   3.965   9.517  0.8222  0.4028 -1.1331
  104CHL1   H4B13889   5.877   3.829   9.536 -0.8700 -1.4291 -0.1539
  104CHL1    C513890   5.801   3.850   9.336  0.1161 -0.0723 -0.1477
  104CHL1    C613891   5.920   3.816   9.285 -0.1607 -0.1458 -0.3617
  104CHL1    H613892   6.008   3.802   9.349 -0.5938 -3.5884 -0.3599
  104CHL1    C713893   5.947   3.814   9.137 -0.5358 -0.3343 -0.9965
  104CHL1   H7A13894   6.025   3.890   9.114 -1.1350  0.3238 -0.8860
  104CHL1   H7B13895   5.985   3.714   9.108  0.4003 -0.1064 -0.6165
  104CHL1    C813896   5.834   3.855   9.042  0.3503 -0.3124  0.3438
  104CHL1    H813897   5.835   3.964   9.024 -0.3179 -0.3138  0.2780
  104CHL1   C1413898   5.845   3.785   8.905 -0.4712 -0.1473 -0.1866
  104CHL1   H1413899   5.841   3.676   8.928  2.9731 -0.3128  0.0925
  104CHL1   C1513900   5.968   3.809   8.818  0.1482 -0.0120 -0.7995
  104CHL1  H15A13901   5.996   3.916   8.819 -2.1969  0.6932 -2.4518
  104CHL1  H15B13902   6.054   3.752   8.860 -0.6515 -2.5817 -2.3914
  104CHL1   C1613903   5.930   3.762   8.682  0.2600 -0.0739  0.4972
  104CHL1  H16A13904   5.964   3.833   8.605 -1.8642 -0.6588 -1.0832
  104CHL1  H16B13905   5.982   3.667   8.657 -0.2262  0.1593 -1.5522
  104CHL1   C1713906   5.774   3.738   8.682  0.0197  0.1990  0.1627
  104CHL1   H1713907   5.768   3.629   8.705 -2.8557  0.8277  2.8861
  104CHL1   C1313908   5.725   3.813   8.808  0.1027 -0.8061  0.9333
  104CHL1   C1813909   5.729   3.962   8.772  0.5606  0.0811  0.5387
  104CHL1  H18A13910   5.641   3.990   8.711  0.0261  2.2595  2.1665
  104CHL1  H18B13911   5.728   4.035   8.857  0.7373  2.0438 -1.0773
  104CHL1  H18C13912   5.818   3.987   8.710 -0.5931 -1.1959 -1.7455
  104CHL1   C1213913   5.593   3.775   8.874 -0.4205  0.9976 -0.1498
  104CHL1  H12A13914   5.499   3.789   8.816 -0.7794 -0.3202  0.0691
  104CHL1  H12B13915   5.604   3.664   8.884 -0.0400  0.9852 -0.6631
  104CHL1   C1113916   5.580   3.852   9.006  0.3183 -0.6495 -0.3328
  104CHL1  H11A13917   5.581   3.961   8.986  2.0574 -0.5894 -0.0658
  104CHL1  H11B13918   5.484   3.815   9.049  0.0301 -2.6077 -2.4894
  104CHL1    C913919   5.697   3.823   9.105  0.8348 -0.4678 -0.3290
  104CHL1    H913920   5.706   3.713   9.117 -2.3971 -0.8821 -0.8433
  104CHL1   C1013921   5.679   3.874   9.251 -0.5717  0.9635  1.3001
  104CHL1   C1913922   5.652   4.026   9.237 -0.5108 -0.2616  0.3577
  104CHL1  H19A13923   5.562   4.048   9.175  0.3768  0.2402 -0.7952
  104CHL1  H19B13924   5.627   4.068   9.336  1.1627  3.4327 -0.6158
  104CHL1  H19C13925   5.733   4.085   9.190 -1.9082  0.9343 -0.6205
  104CHL1    C113926   5.558   3.800   9.317  0.3665 -0.3278  0.0816
  104CHL1   H1A13927   5.463   3.846   9.283  1.0410 -0.2898 -1.8458
  104CHL1   H1B13928   5.551   3.694   9.284  0.7857 -0.1024 -0.7566
  104CHL1    C213929   5.552   3.808   9.466  0.2329 -0.1409 -0.9482
  104CHL1   H2A13930   5.471   3.735   9.491  0.7639 -0.0507  1.3115
  104CHL1   H2B13931   5.518   3.910   9.492  0.9062  0.0952 -0.9889
  104CHL1   C2013932   5.694   3.756   8.554 -0.0776  0.1262  0.1173
  104CHL1   H2013933   5.630   3.846   8.560 -2.3157 -1.3793  0.0743
  104CHL1   C2113934   5.612   3.630   8.543 -0.0459  0.0304  0.4123
  104CHL1  H21A13935   5.543   3.625   8.630  0.1315 -0.3653  0.5340
  104CHL1  H21B13936   5.677   3.540   8.543  0.5747  0.4448  1.9687
  104CHL1  H21C13937   5.550   3.631   8.451 -2.3623  2.2411  1.8516
  104CHL1   C2213938   5.794   3.764   8.430  0.0706 -0.5011 -0.3553
  104CHL1  H22A13939   5.845   3.863   8.430  2.5648 -1.6837 -1.9725
  104CHL1  H22B13940   5.875   3.688   8.438  1.9297  1.4622  0.5278
  104CHL1   C2313941   5.722   3.762   8.295 -0.1315  0.4089 -0.0267
  104CHL1  H23A13942   5.684   3.661   8.266  2.5323 -1.1525  1.4530
  104CHL1  H23B13943   5.644   3.840   8.305  0.8735  1.3560  0.6111
  104CHL1   C2413944   5.824   3.806   8.190  0.0653 -0.0831  0.5675
  104CHL1  H24A13945   5.849   3.913   8.202  1.7998 -0.2157 -1.4172
  104CHL1  H24B13946   5.913   3.740   8.190  0.1350  0.0025 -0.4143
  104CHL1   C2513947   5.755   3.805   8.047 -0.3237  0.5422 -0.4079
  104CHL1   H2513948   5.673   3.879   8.044  0.4672  1.4358 -0.4967
  104CHL1   C2613949   5.861   3.854   7.957  0.2204  0.7751  0.0995
  104CHL1  H26A13950   5.961   3.813   7.985 -0.5921 -0.6330  1.0877
  104CHL1  H26B13951   5.844   3.847   7.848  1.3712  1.1397 -0.1207
  104CHL1  H26C13952   5.886   3.959   7.982  1.3863  0.6708 -0.5542
  104CHL1   C2713953   5.718   3.667   7.994 -0.1986 -0.0788 -0.5694
  104CHL1  H27A13954   5.634   3.622   8.051  1.3286 -1.1809  0.9122
  104CHL1  H27B13955   5.691   3.672   7.886  1.0897 -0.7761 -0.9478
  104CHL1  H27C13956   5.804   3.597   8.001  1.0989  1.5426  0.2670
  105CHL1    C313957   5.925   2.860   9.590 -0.0439 -0.8838 -0.3038
  105CHL1    H313958   5.993   2.773   9.585  0.0414 -0.7649 -1.4140
  105CHL1    O313959   5.935   2.899   9.727  0.5773 -0.2688 -0.0709
  105CHL1   H3'13960   5.847   2.926   9.756 -1.0119 -2.3085 -2.5153
  105CHL1    C413961   5.993   2.967   9.502 -0.0886 -0.4444 -0.5094
  105CHL1   H4A13962   5.958   3.071   9.516  0.5564 -0.4428  1.5328
  105CHL1   H4B13963   6.098   2.975   9.538 -0.4179 -0.2487  0.4178
  105CHL1    C513964   5.987   2.936   9.354  0.0676 -0.0587 -0.3002
  105CHL1    C613965   6.101   2.936   9.280  0.5672 -0.1416  0.0395
  105CHL1    H613966   6.192   2.960   9.336  0.6363 -2.2000  0.9231
  105CHL1    C713967   6.107   2.904   9.135  0.0972 -0.0154 -0.7837
  105CHL1   H7A13968   6.177   2.976   9.086  1.4431 -1.0466 -0.4257
  105CHL1   H7B13969   6.157   2.805   9.129 -1.1129 -0.5670 -2.4357
  105CHL1    C813970   5.969   2.899   9.069 -0.4580  0.0219  0.2421
  105CHL1    H813971   5.944   3.007   9.074 -0.3687  0.1957 -1.9644
  105CHL1   C1413972   5.978   2.841   8.928 -0.0555  0.3060  0.3079
  105CHL1   H1413973   6.022   2.742   8.954  0.3963  0.7093  1.1252
  105CHL1   C1513974   6.077   2.894   8.827 -0.7945  0.0829 -0.0932
  105CHL1  H15A13975   6.058   3.002   8.808  0.6715  0.1642 -1.3078
  105CHL1  H15B13976   6.186   2.882   8.846 -0.1228  1.4925 -2.5752
  105CHL1   C1613977   6.034   2.830   8.694 -0.2660 -0.2980 -1.1140
  105CHL1  H16A13978   6.018   2.911   8.619 -1.4311  1.7000  1.1371
  105CHL1  H16B13979   6.112   2.770   8.642 -0.9013 -1.4738 -0.7281
  105CHL1   C1713980   5.902   2.760   8.721 -0.0953  0.4247 -0.0296
  105CHL1   H1713981   5.931   2.653   8.730 -0.7842 -0.1420 -3.3118
  105CHL1   C1313982   5.853   2.816   8.859 -0.0049  0.9588 -0.0263
  105CHL1   C1813983   5.781   2.951   8.833 -0.1870  0.0324 -0.5605
  105CHL1  H18A13984   5.771   2.997   8.934 -1.9412  0.4206 -0.8802
  105CHL1  H18B13985   5.831   3.020   8.762 -3.8749 -0.9647 -4.5126
  105CHL1  H18C13986   5.686   2.928   8.782  0.5882 -0.9235 -1.6298
  105CHL1   C1213987   5.762   2.724   8.949  0.2982  0.4320  0.3273
  105CHL1  H12A13988   5.666   2.704   8.895  0.8989 -0.1455 -0.5592
  105CHL1  H12B13989   5.810   2.624   8.955  0.2941  0.5144  2.0459
  105CHL1   C1113990   5.744   2.775   9.093  0.1752  0.5263 -0.7958
  105CHL1  H11A13991   5.680   2.865   9.083 -2.0117 -0.9918 -1.2561
  105CHL1  H11B13992   5.680   2.709   9.157  0.7879  0.4095 -0.2958
  105CHL1    C913993   5.870   2.818   9.159 -0.3814 -0.4510 -0.2635
  105CHL1    H913994   5.928   2.725   9.178 -0.0033  0.0806  1.3166
  105CHL1   C1013995   5.849   2.890   9.294 -0.6921  1.0001 -0.5405
  105CHL1   C1913996   5.756   3.012   9.287  0.1066 -0.6809  0.0706
  105CHL1  H19A13997   5.749   3.063   9.386 -0.6779 -1.1613  0.2762
  105CHL1  H19B13998   5.795   3.088   9.217 -0.9927 -1.3578 -1.3166
  105CHL1  H19C13999   5.651   2.989   9.258 -0.6749  1.6899  0.7982
  105CHL1    C114000   5.794   2.788   9.399  0.2751 -0.0071  0.7489
  105CHL1   H1A14001   5.688   2.780   9.365  0.9959 -1.2816 -1.4494
  105CHL1   H1B14002   5.826   2.682   9.392  1.6267  0.4205  0.0880
  105CHL1    C214003   5.789   2.834   9.545 -0.1068 -0.1253 -0.1607
  105CHL1   H2A14004   5.742   2.752   9.602  1.8160 -1.7691 -0.8196
  105CHL1   H2B14005   5.712   2.914   9.553 -1.6201 -1.7229  2.6191
  105CHL1   C2014006   5.812   2.759   8.601 -0.4261  0.7633  0.4641
  105CHL1   H2014007   5.780   2.865   8.595 -2.0631  0.2047 -2.8138
  105CHL1   C2114008   5.670   2.696   8.636  0.3675  0.1797 -0.2003
  105CHL1  H21A14009   5.618   2.775   8.693 -0.4684  1.0491 -2.0615
  105CHL1  H21B14010   5.682   2.602   8.694  1.9229  1.3153  1.4182
  105CHL1  H21C14011   5.605   2.689   8.546  1.1902  0.1203 -0.8094
  105CHL1   C2214012   5.875   2.697   8.475  0.3719  0.7864 -1.0499
  105CHL1  H22A14013   5.977   2.739   8.458 -0.1506  2.1417 -0.9395
  105CHL1  H22B14014   5.889   2.588   8.494  0.6808  0.8082 -1.1383
  105CHL1   C2314015   5.785   2.716   8.344  0.3657  0.3767 -0.5043
  105CHL1  H23A14016   5.679   2.694   8.370  1.2801 -1.4048  2.0045
  105CHL1  H23B14017   5.790   2.822   8.311 -1.8059  1.0761  1.2258
  105CHL1   C2414018   5.820   2.634   8.221  0.5845  0.0854  0.1480
  105CHL1  H24A14019   5.927   2.639   8.194  0.3309  1.2217 -0.7572
  105CHL1  H24B14020   5.794   2.529   8.243  2.1205 -0.4935 -0.6604
  105CHL1   C2514021   5.735   2.678   8.092 -0.3178 -0.4035  0.3292
  105CHL1   H2514022   5.731   2.788   8.079 -0.6881 -0.5844 -1.3478
  105CHL1   C2614023   5.793   2.603   7.972  0.3649 -0.2461 -0.5401
  105CHL1  H26A14024   5.745   2.629   7.875 -1.7083 -0.9165  0.2523
  105CHL1  H26B14025   5.898   2.638   7.961  0.3831 -0.1139  0.0275
  105CHL1  H26C14026   5.801   2.492   7.982 -0.8598 -0.2671  0.4221
  105CHL1   C2714027   5.587   2.645   8.100  0.0560  0.4244  0.5929
  105CHL1  H27A14028   5.570   2.535   8.103 -2.5496  0.6955 -0.6536
  105CHL1  H27B14029   5.531   2.688   8.186 -1.7459 -0.3668 -0.1227
  105CHL1  H27C14030   5.538   2.678   8.006  1.5496  0.2946 -0.2591
  106CHL1    C314031   1.148   2.904   8.913 -0.6295  0.2587  0.1431
  106CHL1    H314032   1.074   2.985   8.929 -0.0962  0.9452 -0.7731
  106CHL1    O314033   1.194   2.852   9.035 -0.1864  0.0785 -0.1753
  106CHL1   H3'14034   1.260   2.919   9.053 -0.7135  1.1460 -1.9335
  106CHL1    C414035   1.079   2.791   8.824 -0.0933 -0.0926  0.2403
  106CHL1   H4A14036   1.154   2.709   8.819  0.7009  0.3372  3.1281
  106CHL1   H4B14037   0.989   2.746   8.871 -2.0535  0.6943 -2.5081
  106CHL1    C514038   1.040   2.835   8.686  0.3266  0.2374  0.0797
  106CHL1    C614039   0.918   2.819   8.630  0.1797  1.2024  0.9206
  106CHL1    H614040   0.837   2.770   8.686 -1.3707  2.0470 -0.4970
  106CHL1    C714041   0.886   2.842   8.486 -0.4269 -0.2732  0.0876
  106CHL1   H7A14042   0.830   2.756   8.444  1.0623  0.2339 -3.3236
  106CHL1   H7B14043   0.825   2.935   8.484 -0.3006 -0.1838 -2.0080
  106CHL1    C814044   1.012   2.852   8.397  0.6899 -0.2349  0.5825
  106CHL1    H814045   1.056   2.750   8.395 -1.8748 -1.4076 -0.9276
  106CHL1   C1414046   0.976   2.899   8.259 -0.3645  0.2821 -1.4614
  106CHL1   H1414047   0.937   3.002   8.270  0.8842  0.6158  0.1264
  106CHL1   C1514048   0.877   2.821   8.175 -0.2086  0.0587  0.1906
  106CHL1  H15A14049   0.882   2.712   8.195  2.4448  0.1681  0.4527
  106CHL1  H15B14050   0.778   2.856   8.212  0.0154  1.6192 -0.5795
  106CHL1   C1614051   0.904   2.862   8.034 -0.6562 -0.1699  0.1735
  106CHL1  H16A14052   0.926   2.770   7.976 -1.0624 -1.2155  1.6439
  106CHL1  H16B14053   0.818   2.908   7.981 -0.1078 -1.1459 -1.6685
  106CHL1   C1714054   1.029   2.963   8.036 -0.5737 -0.0159  0.1684
  106CHL1   H1714055   0.991   3.067   8.045  2.8827  1.4401 -0.5457
  106CHL1   C1314056   1.103   2.922   8.166 -0.8392  0.1845  0.5781
  106CHL1   C1814057   1.188   2.799   8.146  0.4318 -0.0310 -0.4008
  106CHL1  H18A14058   1.224   2.756   8.242 -0.0212  3.4407  1.4908
  106CHL1  H18B14059   1.135   2.718   8.091 -0.6238  0.8405 -0.7186
  106CHL1  H18C14060   1.272   2.823   8.078 -1.4366  1.1421 -2.4196
  106CHL1   C1214061   1.187   3.033   8.235  0.0486 -0.4580  1.1981
  106CHL1  H12A14062   1.270   3.050   8.163 -3.7124 -0.3667 -3.6523
  106CHL1  H12B14063   1.129   3.128   8.230 -2.9930 -2.2250 -0.6458
  106CHL1   C1114064   1.227   2.999   8.382 -0.0489 -0.0135  0.4206
  106CHL1  H11A14065   1.289   2.910   8.359  0.0201  0.3495 -0.8700
  106CHL1  H11B14066   1.291   3.078   8.427  1.2930 -0.1399 -1.1796
  106CHL1    C914067   1.111   2.951   8.469 -0.1958 -0.3142  0.6512
  106CHL1    H914068   1.050   3.044   8.473 -0.9445 -0.7372 -0.5542
  106CHL1   C1014069   1.151   2.901   8.605  0.5861 -0.1918  0.0411
  106CHL1   C1914070   1.252   2.787   8.576  0.2437 -0.0490 -0.1057
  106CHL1  H19A14071   1.220   2.707   8.507 -0.4718  0.5612 -0.5044
  106CHL1  H19B14072   1.340   2.839   8.534 -0.0780  1.2037  0.6981
  106CHL1  H19C14073   1.294   2.739   8.667 -0.1984  0.1294  0.1987
  106CHL1    C114074   1.214   3.012   8.693 -0.4161 -0.5227  0.3400
  106CHL1   H1A14075   1.300   3.044   8.631 -0.0460 -1.1264  0.5308
  106CHL1   H1B14076   1.154   3.105   8.690  0.8795  0.3045 -0.7684
  106CHL1    C214077   1.262   2.965   8.827 -0.2749  0.0504  0.2968
  106CHL1   H2A14078   1.312   3.045   8.886 -0.6546 -0.0723  0.7889
  106CHL1   H2B14079   1.347   2.893   8.828 -0.5810 -0.3325 -0.4955
  106CHL1   C2014080   1.103   2.959   7.901  0.4517 -0.2904  0.2579
  106CHL1   H2014081   1.166   2.869   7.884  0.3444 -0.1138 -1.1427
  106CHL1   C2114082   1.201   3.077   7.904 -0.4273  0.2937  0.7195
  106CHL1  H21A14083   1.149   3.170   7.938 -0.9838 -0.2927  1.5175
  106CHL1  H21B14084   1.245   3.095   7.804  3.2237  0.5999  2.2270
  106CHL1  H21C14085   1.282   3.048   7.974  1.5467 -0.7260 -1.8258
  106CHL1   C2214086   1.006   2.968   7.773  0.0562  0.1607  0.6741
  106CHL1  H22A14087   0.933   2.884   7.771  0.0599  0.1152  1.6894
  106CHL1  H22B14088   0.958   3.068   7.782 -0.0273  0.1682  0.1475
  106CHL1   C2314089   1.078   2.971   7.635 -0.8656 -0.1379 -0.5386
  106CHL1  H23A14090   1.138   3.064   7.624  1.5783 -1.4329  0.8539
  106CHL1  H23B14091   1.157   2.893   7.640 -2.0247 -1.4861 -2.2659
  106CHL1   C2414092   0.982   2.955   7.518  0.0505  0.0643  0.3141
  106CHL1  H24A14093   0.928   2.858   7.524  1.0081 -0.4407  0.9216
  106CHL1  H24B14094   0.905   3.035   7.526 -1.2029 -1.0854  0.0318
  106CHL1   C2514095   1.060   2.984   7.384 -0.3198 -0.2732 -0.1830
  106CHL1   H2514096   1.127   3.070   7.402 -0.0091 -0.5293 -0.1097
  106CHL1   C2614097   1.144   2.858   7.336  0.1729 -0.2873  0.2669
  106CHL1  H26A14098   1.177   2.867   7.230 -0.4478  0.3452  0.1263
  106CHL1  H26B14099   1.225   2.831   7.407 -1.2335 -2.8093  1.0156
  106CHL1  H26C14100   1.070   2.776   7.349 -1.8668  1.6008  1.0884
  106CHL1   C2714101   0.962   3.033   7.284  0.0178 -0.0040 -0.3172
  106CHL1  H27A14102   1.021   3.083   7.204 -2.9036  1.2447 -1.8563
  106CHL1  H27B14103   0.907   2.954   7.228  0.0032 -0.0048 -0.3020
  106CHL1  H27C14104   0.904   3.122   7.317  0.9499  0.4753  0.0649
  107CHL1    C314105   3.593   5.569   9.769 -0.2853 -0.0470 -0.0996
  107CHL1    H314106   3.651   5.477   9.750 -1.9710 -0.8756 -1.4899
  107CHL1    O314107   3.569   5.583   9.910  0.1364  0.1283 -0.0986
  107CHL1   H3'14108   3.552   5.676   9.927 -0.6096 -0.1190  0.6005
  107CHL1    C414109   3.676   5.695   9.727 -0.0346  0.0283  0.1211
  107CHL1   H4A14110   3.616   5.780   9.766 -1.0346 -0.7619  0.3531
  107CHL1   H4B14111   3.772   5.690   9.783  1.3676 -0.4558 -2.1816
  107CHL1    C514112   3.694   5.689   9.577 -0.2519 -0.0667 -0.0195
  107CHL1    C614113   3.811   5.701   9.518 -0.6158 -0.1163  0.2530
  107CHL1    H614114   3.901   5.721   9.577 -0.7880  0.5729  0.2926
  107CHL1    C714115   3.839   5.704   9.371 -0.0047  0.5764  0.1917
  107CHL1   H7A14116   3.903   5.794   9.357 -0.0028  0.7441  1.2165
  107CHL1   H7B14117   3.899   5.619   9.333 -0.7853  0.7662 -1.5453
  107CHL1    C814118   3.713   5.730   9.280 -0.3431  0.6961 -0.3500
  107CHL1    H814119   3.704   5.840   9.290  0.0089  0.6230  0.8631
  107CHL1   C1414120   3.740   5.696   9.133  0.0815 -0.3724  0.1553
  107CHL1   H1414121   3.751   5.585   9.137 -0.0452 -0.3602  1.3076
  107CHL1   C1514122   3.866   5.753   9.061  0.5851 -0.1142 -0.0201
  107CHL1  H15A14123   3.882   5.857   9.095 -2.5128  0.2492  0.6507
  107CHL1  H15B14124   3.958   5.698   9.089  0.0288 -0.5577  1.0175
  107CHL1   C1614125   3.833   5.743   8.913 -0.7446 -0.2422 -0.5781
  107CHL1  H16A14126   3.839   5.844   8.866 -2.9770 -0.1726 -0.8106
  107CHL1  H16B14127   3.907   5.682   8.856 -2.1248 -2.7259  0.1406
  107CHL1   C1714128   3.690   5.691   8.893  0.0269  0.4114 -0.5175
  107CHL1   H1714129   3.685   5.580   8.894 -1.2600  0.4259 -2.0331
  107CHL1   C1314130   3.627   5.728   9.032  1.1058  0.9040 -0.5827
  107CHL1   C1814131   3.588   5.872   9.037 -0.0361  0.5251  0.1143
  107CHL1  H18A14132   3.505   5.890   8.966  1.8498 -1.6224 -2.8393
  107CHL1  H18B14133   3.557   5.896   9.141  0.4956 -0.5422  0.5302
  107CHL1  H18C14134   3.669   5.942   9.007  1.2557 -0.5971  0.8952
  107CHL1   C1214135   3.503   5.645   9.083 -1.0392 -0.0766 -0.4830
  107CHL1  H12A14136   3.409   5.648   9.023 -0.7868 -2.0975 -1.0749
  107CHL1  H12B14137   3.533   5.539   9.069  0.4642  0.4671 -1.6629
  107CHL1   C1114138   3.474   5.662   9.238  0.5371 -0.5161  0.0076
  107CHL1  H11A14139   3.419   5.758   9.251 -1.2332 -1.4115 -0.6276
  107CHL1  H11B14140   3.412   5.573   9.263  0.3724 -0.4910 -0.3128
  107CHL1    C914141   3.592   5.650   9.337  0.3471 -0.0204  0.6273
  107CHL1    H914142   3.624   5.544   9.327  1.0542  0.3593 -1.8944
  107CHL1   C1014143   3.566   5.678   9.491 -0.3132  0.5718  0.7358
  107CHL1   C1914144   3.491   5.814   9.501  0.3392  0.1629 -0.0513
  107CHL1  H19A14145   3.482   5.843   9.608 -0.4386  0.8700 -0.3007
  107CHL1  H19B14146   3.543   5.895   9.446 -0.2675 -0.4236 -1.5343
  107CHL1  H19C14147   3.390   5.823   9.457  0.4334 -2.8946 -1.1411
  107CHL1    C114148   3.480   5.567   9.549  1.2922  0.1361 -0.6084
  107CHL1   H1A14149   3.381   5.545   9.502  0.6807 -2.0506  1.4976
  107CHL1   H1B14150   3.535   5.471   9.538 -0.0359 -0.4421 -3.1045
  107CHL1    C214151   3.463   5.567   9.703 -0.0232 -0.2980  0.3702
  107CHL1   H2A14152   3.411   5.473   9.730  0.1152 -0.1528  1.1499
  107CHL1   H2B14153   3.396   5.652   9.727 -0.0082 -0.7630  2.1987
  107CHL1   C2014154   3.627   5.749   8.764  0.4124  0.4348 -0.3237
  107CHL1   H2014155   3.609   5.858   8.781 -0.7422  0.1093  0.6869
  107CHL1   C2114156   3.496   5.678   8.735  0.2762 -0.2884  0.1786
  107CHL1  H21A14157   3.440   5.703   8.642  0.8231 -0.0134 -0.0776
  107CHL1  H21B14158   3.431   5.713   8.819  0.3101 -0.5893  0.3317
  107CHL1  H21C14159   3.511   5.569   8.730  0.4037 -0.2291 -1.0589
  107CHL1   C2214160   3.711   5.745   8.630  0.0273 -0.0158 -0.6738
  107CHL1  H22A14161   3.818   5.750   8.660 -0.2069 -1.4732  0.5576
  107CHL1  H22B14162   3.700   5.645   8.583  0.0640  0.3040 -1.3759
  107CHL1   C2314163   3.660   5.848   8.525  0.0295 -0.0460  0.3034
  107CHL1  H23A14164   3.550   5.837   8.515 -0.2773 -0.5580  3.2449
  107CHL1  H23B14165   3.677   5.950   8.565  1.2244 -1.2510  3.1813
  107CHL1   C2414166   3.739   5.815   8.395 -0.1103 -0.3020 -0.2276
  107CHL1  H24A14167   3.844   5.839   8.423 -0.2853 -1.6926  1.8829
  107CHL1  H24B14168   3.744   5.707   8.373  1.3301 -0.1299 -0.8517
  107CHL1   C2514169   3.694   5.904   8.275  1.0750 -0.0092  0.1703
  107CHL1   H2514170   3.690   6.013   8.299  1.8544  0.2888 -0.9607
  107CHL1   C2614171   3.794   5.913   8.157 -0.4964 -0.5484  0.3032
  107CHL1  H26A14172   3.738   5.935   8.064 -2.8624 -1.6070  1.3764
  107CHL1  H26B14173   3.877   5.981   8.184  4.6042 -4.4399 -3.4911
  107CHL1  H26C14174   3.839   5.815   8.130 -0.6942 -0.0624 -1.8964
  107CHL1   C2714175   3.548   5.864   8.222 -0.2452 -0.3535  0.0964
  107CHL1  H27A14176   3.564   5.761   8.183  1.3494 -0.2582  0.4213
  107CHL1  H27B14177   3.473   5.869   8.303 -0.8830 -1.2803 -0.4210
  107CHL1  H27C14178   3.521   5.937   8.142 -0.7405  1.5850  1.9559
  108CHL1    C314179   5.201   2.906   9.517  0.1741 -0.1572  0.5690
  108CHL1    H314180   5.193   2.795   9.513  0.7415 -0.2465  1.5596
  108CHL1    O314181   5.226   2.939   9.653 -1.0254  0.9633  0.0797
  108CHL1   H3'14182   5.314   2.977   9.656  0.8430 -2.8204 -0.4248
  108CHL1    C414183   5.313   2.971   9.434  0.4409 -0.0811 -0.2150
  108CHL1   H4A14184   5.309   3.081   9.446 -0.8479  0.2947 -3.3241
  108CHL1   H4B14185   5.408   2.919   9.460 -1.6406 -3.5497  1.1105
  108CHL1    C514186   5.284   2.939   9.294  0.0571 -0.1066 -0.0205
  108CHL1    C614187   5.361   2.855   9.222 -0.4923  0.0941 -0.1591
  108CHL1    H614188   5.457   2.819   9.263  0.7664  1.4072 -1.8004
  108CHL1    C714189   5.348   2.825   9.075 -0.0272  0.1888 -0.2872
  108CHL1   H7A14190   5.446   2.833   9.023  0.3506  0.5521  0.4580
  108CHL1   H7B14191   5.315   2.720   9.089  2.5948 -0.4473  2.0899
  108CHL1    C814192   5.252   2.924   9.010  0.0672 -0.0402  0.7171
  108CHL1    H814193   5.307   3.020   9.010 -0.1074  0.0799 -0.7843
  108CHL1   C1414194   5.236   2.884   8.868 -0.1945  0.5735 -0.0698
  108CHL1   H1414195   5.205   2.778   8.878  2.9766 -0.3623  0.9807
  108CHL1   C1514196   5.362   2.878   8.775  0.2213 -0.0552 -0.2368
  108CHL1  H15A14197   5.420   2.972   8.792 -0.8175  0.6283 -0.4286
  108CHL1  H15B14198   5.429   2.791   8.792  0.6782  0.4722  0.8051
  108CHL1   C1614199   5.309   2.873   8.635  0.0781  0.2080 -0.2663
  108CHL1  H16A14200   5.365   2.937   8.564  0.4175 -0.5371 -0.6877
  108CHL1  H16B14201   5.318   2.767   8.601  1.5755  0.3215 -0.2564
  108CHL1   C1714202   5.155   2.909   8.647 -0.0510 -0.1963  0.2430
  108CHL1   H1714203   5.095   2.817   8.630  0.5679 -0.0809 -3.3148
  108CHL1   C1314204   5.130   2.968   8.791  0.0927  0.1707 -0.1048
  108CHL1   C1814205   5.165   3.121   8.801  0.4304 -0.2496 -0.2462
  108CHL1  H18A14206   5.082   3.167   8.744  0.9315  1.1299  0.0996
  108CHL1  H18B14207   5.162   3.168   8.902 -1.6996 -0.7784 -0.0205
  108CHL1  H18C14208   5.262   3.152   8.757 -0.2160  0.3736 -1.2503
  108CHL1   C1214209   4.998   2.932   8.858  0.1647 -0.1841  0.6573
  108CHL1  H12A14210   4.919   2.978   8.794  1.6644  1.6852  0.0387
  108CHL1  H12B14211   4.990   2.822   8.851  1.1420 -0.2112 -0.4556
  108CHL1   C1114212   4.991   2.979   9.008 -0.5474 -0.2830  0.5532
  108CHL1  H11A14213   4.986   3.090   9.000  3.9766 -0.0259 -1.8412
  108CHL1  H11B14214   4.895   2.940   9.047  0.6004 -3.2169  0.6784
  108CHL1    C914215   5.118   2.928   9.090  0.4682  0.1708  0.0240
  108CHL1    H914216   5.078   2.826   9.105 -1.3267  0.5521 -1.6792
  108CHL1   C1014217   5.147   2.987   9.233  0.3263  0.3905  0.3758
  108CHL1   C1914218   5.154   3.143   9.211  0.1287  0.1520 -0.3220
  108CHL1  H19A14219   5.055   3.183   9.182 -0.6696 -2.0264 -0.8207
  108CHL1  H19B14220   5.189   3.195   9.303  2.2300  2.3705 -2.2564
  108CHL1  H19C14221   5.224   3.159   9.127  0.5335 -0.3684 -0.0912
  108CHL1    C114222   5.034   2.947   9.332  0.3072 -0.0563 -0.1822
  108CHL1   H1A14223   4.937   2.992   9.301  0.1755 -0.8562 -0.9852
  108CHL1   H1B14224   5.009   2.838   9.326  0.9883 -0.2321  0.0880
  108CHL1    C214225   5.069   2.975   9.480  0.3685 -0.3153 -0.6544
  108CHL1   H2A14226   4.987   2.948   9.549 -1.0788  1.5409 -1.5762
  108CHL1   H2B14227   5.095   3.082   9.498  0.4542 -0.2422 -1.1965
  108CHL1   C2014228   5.104   2.998   8.528  0.5403  0.1296 -0.0092
  108CHL1   H2014229   5.152   3.097   8.539 -2.6240  1.9087 -0.8335
  108CHL1   C2114230   4.944   3.009   8.523 -0.4168  0.2161 -0.6983
  108CHL1  H21A14231   4.900   3.066   8.439  0.9818  0.7019 -1.1216
  108CHL1  H21B14232   4.897   3.062   8.608 -1.0470 -1.6045  0.1509
  108CHL1  H21C14233   4.903   2.905   8.516  0.3361 -0.0716 -0.9447
  108CHL1   C2214234   5.151   2.919   8.394 -0.5914 -0.6282 -0.4072
  108CHL1  H22A14235   5.254   2.876   8.398  0.8194  2.3446 -1.4967
  108CHL1  H22B14236   5.077   2.836   8.394 -1.3813  0.0336  0.9163
  108CHL1   C2314237   5.141   3.003   8.270 -0.1114 -0.2793  0.0676
  108CHL1  H23A14238   5.038   3.043   8.262  0.6446  1.6181 -0.8283
  108CHL1  H23B14239   5.209   3.091   8.277  0.9170 -1.0061 -0.5471
  108CHL1   C2414240   5.198   2.928   8.144 -0.6380  0.2093 -0.1456
  108CHL1  H24A14241   5.235   3.001   8.070 -1.9962  0.4563 -0.6088
  108CHL1  H24B14242   5.286   2.877   8.188 -1.4313 -0.9000  0.2137
  108CHL1   C2514243   5.106   2.827   8.070  0.9083 -0.5472 -0.0788
  108CHL1   H2514244   5.057   2.756   8.140 -1.7574  2.7209  1.6710
  108CHL1   C2614245   4.993   2.896   7.989 -0.1666  0.5526  0.7405
  108CHL1  H26A14246   5.023   2.974   7.916 -1.6168  2.2392  1.8452
  108CHL1  H26B14247   4.915   2.828   7.949 -1.9205  1.4087  2.5270
  108CHL1  H26C14248   4.928   2.960   8.053 -2.4546 -1.2379  0.3271
  108CHL1   C2714249   5.174   2.727   7.974 -0.0480  0.2707  0.1330
  108CHL1  H27A14250   5.258   2.673   8.024 -1.3226 -0.1871  1.9067
  108CHL1  H27B14251   5.107   2.650   7.929  1.1838  0.1113 -1.4839
  108CHL1  H27C14252   5.221   2.786   7.893 -0.7696 -0.0926 -0.5602
  109CHL1    C314253   2.652   6.025   8.658  0.8338 -0.7745  0.0501
  109CHL1    H314254   2.707   6.115   8.625 -1.8688  1.0119  0.1940
  109CHL1    O314255   2.658   6.021   8.794 -0.7925  0.1922 -0.4126
  109CHL1   H3'14256   2.664   6.115   8.813 -0.2867  0.2071 -0.6474
  109CHL1    C414257   2.509   6.033   8.596 -0.5181  0.0239 -0.6624
  109CHL1   H4A14258   2.450   5.949   8.638  0.0096 -1.2818 -2.4092
  109CHL1   H4B14259   2.461   6.126   8.633  0.8927  0.5321 -0.0501
  109CHL1    C514260   2.504   6.034   8.445 -0.8648 -0.6140  0.5179
  109CHL1    C614261   2.437   6.128   8.375 -0.5339  0.3299 -0.2507
  109CHL1    H614262   2.374   6.203   8.424 -2.7022 -1.5619  0.0564
  109CHL1    C714263   2.429   6.132   8.226 -0.1105  0.2873 -0.3133
  109CHL1   H7A14264   2.326   6.151   8.191  0.5579  1.5913 -1.6686
  109CHL1   H7B14265   2.488   6.215   8.181  1.9598 -1.4531 -0.9986
  109CHL1    C814266   2.479   5.997   8.165 -0.4005 -0.1973  0.5882
  109CHL1    H814267   2.397   5.923   8.174  0.2218 -0.8869  0.7300
  109CHL1   C1414268   2.503   6.023   8.019 -0.2145 -0.0538  0.5528
  109CHL1   H1414269   2.590   6.092   8.017 -0.4208  0.3412 -3.6765
  109CHL1   C1514270   2.388   6.076   7.937 -0.4070 -0.1247  0.9762
  109CHL1  H15A14271   2.296   6.015   7.948 -1.4580  1.0495 -0.8249
  109CHL1  H15B14272   2.369   6.183   7.962  0.6804 -0.0383  1.4903
  109CHL1   C1614273   2.442   6.069   7.795 -0.2664 -0.3866  0.3601
  109CHL1  H16A14274   2.372   6.011   7.731 -2.8972  1.0813  1.7297
  109CHL1  H16B14275   2.461   6.171   7.755  0.7449 -0.7932 -0.2018
  109CHL1   C1714276   2.572   5.983   7.805 -0.2105  0.1448 -0.3091
  109CHL1   H1714277   2.656   6.056   7.814  1.2866 -1.3886 -1.2832
  109CHL1   C1314278   2.565   5.911   7.935  0.6039  0.6334 -0.0533
  109CHL1   C1814279   2.465   5.793   7.910  0.2614  0.7593  0.1059
  109CHL1  H18A14280   2.503   5.711   7.846  0.4113 -0.0648  1.2193
  109CHL1  H18B14281   2.439   5.736   8.001  0.9940 -0.0864 -0.2086
  109CHL1  H18C14282   2.370   5.821   7.859 -0.4549 -2.2911 -0.4157
  109CHL1   C1214283   2.697   5.858   8.007  0.6593 -0.4080 -0.3233
  109CHL1  H12A14284   2.724   5.765   7.952 -0.4895 -0.2592 -1.1849
  109CHL1  H12B14285   2.777   5.933   7.991  0.5326  0.2188  1.7300
  109CHL1   C1114286   2.666   5.819   8.154  0.3837  0.4392 -0.2204
  109CHL1  H11A14287   2.596   5.733   8.147  3.0613 -1.9787  0.8966
  109CHL1  H11B14288   2.752   5.767   8.201 -0.0915 -0.9776 -0.8718
  109CHL1    C914289   2.605   5.941   8.232 -0.1776 -0.1927  0.2586
  109CHL1    H914290   2.672   6.029   8.223  0.7040 -0.6516  1.8310
  109CHL1   C1014291   2.587   5.917   8.383  0.2117 -0.4842 -0.1536
  109CHL1   C1914292   2.508   5.783   8.408  0.2717 -0.1125  0.3709
  109CHL1  H19A14293   2.487   5.772   8.517  2.5889  1.3189  1.0459
  109CHL1  H19B14294   2.410   5.795   8.357  0.3120 -0.2017  0.2714
  109CHL1  H19C14295   2.566   5.697   8.369  0.7343 -0.0921  1.0000
  109CHL1    C114296   2.725   5.904   8.461  0.0617  0.6153  0.3954
  109CHL1   H1A14297   2.762   5.808   8.418 -1.7051  0.0863 -0.0573
  109CHL1   H1B14298   2.790   5.988   8.431  0.0579  1.5121  2.7230
  109CHL1    C214299   2.719   5.898   8.611  0.4201 -0.1164  0.3550
  109CHL1   H2A14300   2.822   5.889   8.653  0.1380  0.8665  1.3205
  109CHL1   H2B14301   2.659   5.808   8.640 -0.9732  0.2408 -1.2788
  109CHL1   C2014302   2.604   5.906   7.672 -0.2035  0.1742  0.7253
  109CHL1   H2014303   2.513   5.847   7.649 -0.8986  2.1085 -2.0188
  109CHL1   C2114304   2.721   5.817   7.678 -0.2656  0.5546 -0.3909
  109CHL1  H21A14305   2.698   5.737   7.753 -1.6290  1.3344  0.0544
  109CHL1  H21B14306   2.818   5.860   7.711  0.5924 -1.1052 -0.6401
  109CHL1  H21C14307   2.749   5.766   7.583 -1.4375 -0.2451 -0.3286
  109CHL1   C2214308   2.620   6.005   7.550  0.8235  1.1820  0.8092
  109CHL1  H22A14309   2.650   5.937   7.467 -0.1728 -3.5027  3.9001
  109CHL1  H22B14310   2.522   6.052   7.527 -0.7506 -1.1902  2.1504
  109CHL1   C2314311   2.731   6.114   7.568 -0.3798  0.8477  0.1712
  109CHL1  H23A14312   2.701   6.176   7.656  0.6249  2.1582 -0.3754
  109CHL1  H23B14313   2.826   6.062   7.593 -0.8297 -0.1261 -0.1039
  109CHL1   C2414314   2.746   6.197   7.439 -0.1004  0.1351 -0.5772
  109CHL1  H24A14315   2.772   6.134   7.352 -1.4743 -0.6805 -0.4175
  109CHL1  H24B14316   2.648   6.240   7.408 -2.3437 -4.0175  0.0466
  109CHL1   C2514317   2.857   6.305   7.443  0.3621 -0.6526 -0.2127
  109CHL1   H2514318   2.844   6.374   7.529 -0.4125  1.1066 -1.6738
  109CHL1   C2614319   2.993   6.245   7.435 -0.2888  1.2586 -0.0029
  109CHL1  H26A14320   3.005   6.183   7.527  2.9384 -0.7230 -1.6014
  109CHL1  H26B14321   2.999   6.179   7.346  1.6511  0.6285  0.5384
  109CHL1  H26C14322   3.066   6.328   7.423  0.7301  0.0713 -2.7442
  109CHL1   C2714323   2.839   6.393   7.318 -0.5725  0.3500  0.4112
  109CHL1  H27A14324   2.750   6.458   7.331 -1.9121 -0.9137 -1.8877
  109CHL1  H27B14325   2.931   6.453   7.298  0.5677 -0.7727  1.9745
  109CHL1  H27C14326   2.816   6.337   7.225 -0.6520  2.0225 -0.6229
  110CHL1    C314327   1.765   5.030   8.787  0.3841  0.4647 -0.2855
  110CHL1    H314328   1.680   5.097   8.765  0.9903  1.0876 -0.7718
  110CHL1    O314329   1.816   5.074   8.911  0.0564  0.2718 -0.3563
  110CHL1   H3'14330   1.763   5.037   8.982  1.7029 -1.0836  0.2198
  110CHL1    C414331   1.730   4.878   8.792 -0.4733 -0.6301  0.6771
  110CHL1   H4A14332   1.819   4.817   8.818 -0.8606 -2.2835 -1.5682
  110CHL1   H4B14333   1.648   4.882   8.867 -2.4416  0.7784 -1.4083
  110CHL1    C514334   1.669   4.839   8.658  0.3833  0.1397 -0.8252
  110CHL1    C614335   1.548   4.788   8.655  0.3084 -0.1832  0.6088
  110CHL1    H614336   1.483   4.768   8.742 -1.0667  2.0872  0.1848
  110CHL1    C714337   1.482   4.732   8.532 -0.3404 -0.0398 -0.5740
  110CHL1   H7A14338   1.468   4.625   8.557  1.9192 -0.1519  0.5001
  110CHL1   H7B14339   1.385   4.772   8.495 -0.0634 -0.5071 -1.8482
  110CHL1    C814340   1.589   4.719   8.414  0.1332 -0.5076  0.2497
  110CHL1    H814341   1.643   4.623   8.427 -0.5235 -1.0757 -0.9753
  110CHL1   C1414342   1.515   4.708   8.280 -0.9298 -0.6312  0.9940
  110CHL1   H1414343   1.440   4.789   8.265 -0.7100 -0.3978  1.1471
  110CHL1   C1514344   1.432   4.580   8.273 -0.5245  1.2777 -0.2090
  110CHL1  H15A14345   1.488   4.484   8.284  0.0442  1.4663 -1.3617
  110CHL1  H15B14346   1.344   4.577   8.341  0.7249 -0.4489  1.4472
  110CHL1   C1614347   1.392   4.569   8.132  0.2900 -0.3609  0.1406
  110CHL1  H16A14348   1.418   4.467   8.095  1.7474  0.4508 -1.2386
  110CHL1  H16B14349   1.283   4.583   8.116  0.2909  3.6251  2.3939
  110CHL1   C1714350   1.475   4.678   8.057 -0.0734 -0.1633 -0.5073
  110CHL1   H1714351   1.427   4.777   8.038 -0.1308 -0.2696 -0.9398
  110CHL1   C1314352   1.597   4.716   8.155  0.0456 -0.0838 -0.2593
  110CHL1   C1814353   1.705   4.600   8.149 -0.3808  0.2585 -0.1318
  110CHL1  H18A14354   1.782   4.616   8.071 -0.4534  0.7339 -0.1054
  110CHL1  H18B14355   1.755   4.585   8.247 -1.1237  0.2289  0.2475
  110CHL1  H18C14356   1.653   4.504   8.128 -0.7786  0.1867  1.0717
  110CHL1   C1214357   1.659   4.857   8.150  0.6911  0.2461 -0.0654
  110CHL1  H12A14358   1.714   4.854   8.053  1.8628 -0.4669  0.5995
  110CHL1  H12B14359   1.576   4.931   8.147 -1.2917 -1.8828 -1.9215
  110CHL1   C1114360   1.747   4.887   8.270  0.1169  0.3115 -0.3624
  110CHL1  H11A14361   1.833   4.818   8.260  0.7924  1.4201 -2.9864
  110CHL1  H11B14362   1.784   4.992   8.262 -1.1751  0.7889 -0.2727
  110CHL1    C914363   1.672   4.858   8.409 -0.1480 -0.4835  0.4994
  110CHL1    H914364   1.592   4.936   8.413  1.1479  0.9045  0.2694
  110CHL1   C1014365   1.757   4.881   8.534 -0.0920 -0.2770 -0.4906
  110CHL1   C1914366   1.873   4.788   8.530 -0.4846  0.1251 -0.4438
  110CHL1  H19A14367   1.928   4.796   8.626 -1.3758  2.7947 -0.0942
  110CHL1  H19B14368   1.840   4.683   8.513  0.5381 -0.2189 -0.4165
  110CHL1  H19C14369   1.943   4.818   8.449 -1.7131 -0.0481 -1.6111
  110CHL1    C114370   1.807   5.030   8.540 -0.6309  0.2810 -0.2133
  110CHL1   H1A14371   1.881   5.050   8.460 -2.9303  2.6912 -1.9029
  110CHL1   H1B14372   1.723   5.102   8.532 -1.6151 -0.7413  0.4395
  110CHL1    C214373   1.869   5.065   8.679 -0.6224  0.0312 -0.2193
  110CHL1   H2A14374   1.896   5.173   8.683 -4.9566  1.2886  0.4667
  110CHL1   H2B14375   1.960   5.005   8.700 -0.9291  0.5286  2.9506
  110CHL1   C2014376   1.505   4.629   7.910  0.0445 -0.2491 -1.0904
  110CHL1   H2014377   1.585   4.554   7.923 -0.4281 -0.2976  2.7102
  110CHL1   C2114378   1.563   4.750   7.832 -0.3308  0.2074  0.4697
  110CHL1  H21A14379   1.663   4.776   7.873 -0.0935  1.4603 -0.8228
  110CHL1  H21B14380   1.503   4.842   7.847  2.6161  2.4844 -0.5737
  110CHL1  H21C14381   1.577   4.728   7.724 -0.5674 -0.0888  0.4994
  110CHL1   C2214382   1.386   4.559   7.837  0.1729  0.3995  0.1505
  110CHL1  H22A14383   1.324   4.502   7.911 -1.4739  0.3050 -1.2443
  110CHL1  H22B14384   1.332   4.653   7.811  0.7908  1.1085  1.3620
  110CHL1   C2314385   1.423   4.472   7.723  0.7577 -0.8177  0.1971
  110CHL1  H23A14386   1.487   4.526   7.650 -1.2642 -0.1570 -1.1598
  110CHL1  H23B14387   1.483   4.393   7.774 -0.5042 -1.2943  0.9731
  110CHL1   C2414388   1.309   4.399   7.657 -0.6331 -0.6080 -0.6105
  110CHL1  H24A14389   1.275   4.321   7.728  3.4853  0.3481  2.7913
  110CHL1  H24B14390   1.224   4.470   7.655  0.3103  0.5302 -1.1886
  110CHL1   C2514391   1.339   4.358   7.511  0.1575  0.1107  0.2671
  110CHL1   H2514392   1.386   4.440   7.451  3.1688 -1.4322  0.3255
  110CHL1   C2614393   1.450   4.242   7.506  0.0961  0.1950 -0.1850
  110CHL1  H26A14394   1.466   4.203   7.403  0.1680 -2.2178  0.6835
  110CHL1  H26B14395   1.551   4.279   7.536 -1.0130  2.7031  0.7823
  110CHL1  H26C14396   1.427   4.152   7.567  2.5263 -0.0986  0.4163
  110CHL1   C2714397   1.215   4.313   7.437 -0.2093 -0.2216  0.4156
  110CHL1  H27A14398   1.136   4.391   7.433 -1.0142 -1.0386 -0.2383
  110CHL1  H27B14399   1.224   4.277   7.332  0.1268  0.7653  0.0954
  110CHL1  H27C14400   1.175   4.228   7.497  0.8578 -1.8787 -1.1110
  111CHL1    C314401   2.284   1.150   9.503 -0.0870 -0.0041 -0.2893
  111CHL1    H314402   2.310   1.257   9.492 -2.7284  0.6017 -1.3043
  111CHL1    O314403   2.278   1.117   9.644 -0.4923 -0.5018  0.3071
  111CHL1   H3'14404   2.205   1.169   9.677  0.4043  0.4877  0.8207
  111CHL1    C414405   2.144   1.134   9.448  0.0261 -0.0195 -0.3124
  111CHL1   H4A14406   2.099   1.038   9.481 -0.2391  0.3350  0.3578
  111CHL1   H4B14407   2.077   1.205   9.499  1.1663  0.4824  0.5325
  111CHL1    C514408   2.131   1.151   9.298 -0.6502 -0.1843 -0.8410
  111CHL1    C614409   2.041   1.235   9.236 -0.0533 -0.1305  0.0426
  111CHL1    H614410   1.961   1.281   9.296  0.2113 -0.2015  0.4556
  111CHL1    C714411   2.033   1.250   9.084 -0.0903  0.5277  0.6382
  111CHL1   H7A14412   1.935   1.251   9.032  1.3046  0.1045 -2.2111
  111CHL1   H7B14413   2.080   1.346   9.056  2.6581 -1.7383 -3.7697
  111CHL1    C814414   2.105   1.134   9.003 -0.1218  0.5810  0.1538
  111CHL1    H814415   2.043   1.042   9.012  0.4531  0.2365  0.5978
  111CHL1   C1414416   2.122   1.172   8.853 -0.1596 -0.0256 -0.2183
  111CHL1   H1414417   2.185   1.263   8.850  0.1116 -0.2276 -0.7609
  111CHL1   C1514418   1.995   1.199   8.777  0.3650  0.1699  0.1139
  111CHL1  H15A14419   1.924   1.122   8.814  1.0643 -0.0526  1.0481
  111CHL1  H15B14420   1.960   1.303   8.800 -0.3143  0.0617 -0.3977
  111CHL1   C1614421   2.036   1.198   8.628  0.3727  0.2604  0.1586
  111CHL1  H16A14422   1.960   1.133   8.579 -1.1385  0.2605  2.3611
  111CHL1  H16B14423   2.033   1.303   8.592 -3.9173  0.6444  1.0610
  111CHL1   C1714424   2.190   1.160   8.628  0.9220  0.2181 -0.0578
  111CHL1   H1714425   2.239   1.260   8.636  1.5117 -0.0667 -0.1027
  111CHL1   C1314426   2.204   1.083   8.759 -0.3328 -0.3828  0.0773
  111CHL1   C1814427   2.136   0.948   8.755  0.8803  0.4162  0.6383
  111CHL1  H18A14428   2.044   0.947   8.693  1.6825  2.3456 -0.6679
  111CHL1  H18B14429   2.204   0.870   8.715 -1.4363 -0.9833 -0.8121
  111CHL1  H18C14430   2.100   0.927   8.858 -2.6378  0.7027 -0.4045
  111CHL1   C1214431   2.345   1.070   8.817  0.2810 -0.0706 -0.1537
  111CHL1  H12A14432   2.400   0.989   8.764 -0.1194  0.4223 -1.3559
  111CHL1  H12B14433   2.406   1.160   8.795  1.4232 -1.2014 -1.8311
  111CHL1   C1114434   2.346   1.030   8.972  0.2366 -0.1932  0.3968
  111CHL1  H11A14435   2.320   0.922   8.978  0.9613 -0.5192 -1.5508
  111CHL1  H11B14436   2.452   1.030   9.007 -0.0703 -0.7306  1.3376
  111CHL1    C914437   2.246   1.118   9.064 -0.7517  0.1694  0.5231
  111CHL1    H914438   2.298   1.216   9.063 -0.3610 -0.0383 -0.4183
  111CHL1   C1014439   2.241   1.074   9.216 -0.6884  0.2598  0.3929
  111CHL1   C1914440   2.192   0.929   9.222 -0.8284  0.4076 -0.8410
  111CHL1  H19A14441   2.267   0.862   9.175  0.6266 -0.5121  2.5240
  111CHL1  H19B14442   2.200   0.896   9.327  1.7701 -0.3216 -1.1961
  111CHL1  H19C14443   2.090   0.906   9.182 -0.9589  0.1679 -0.3809
  111CHL1    C114444   2.380   1.083   9.279  0.0752 -0.5809 -0.7812
  111CHL1   H1A14445   2.434   0.996   9.235 -2.2862 -1.1889 -2.6638
  111CHL1   H1B14446   2.430   1.179   9.253  0.6726  0.1870  2.6263
  111CHL1    C214447   2.388   1.060   9.435 -0.5320  0.4938 -0.4349
  111CHL1   H2A14448   2.491   1.080   9.471  0.3379 -0.0290 -2.4748
  111CHL1   H2B14449   2.346   0.961   9.460 -1.1439  0.6972 -0.6494
  111CHL1   C2014450   2.236   1.086   8.498  0.0794 -0.5960  0.2684
  111CHL1   H2014451   2.201   0.981   8.503 -0.2147 -0.5823 -1.0459
  111CHL1   C2114452   2.391   1.077   8.485  0.7818  0.2816 -0.1007
  111CHL1  H21A14453   2.433   1.068   8.383  0.0391  0.6588 -0.4493
  111CHL1  H21B14454   2.434   0.998   8.550  0.1189  0.5925  0.7424
  111CHL1  H21C14455   2.428   1.174   8.524  0.4482  0.8861 -1.2314
  111CHL1   C2214456   2.179   1.137   8.361  0.0441  0.8343 -0.1002
  111CHL1  H22A14457   2.230   1.084   8.278  0.0342 -3.4667  2.3755
  111CHL1  H22B14458   2.075   1.100   8.350  1.1764 -2.2233 -1.6893
  111CHL1   C2314459   2.204   1.281   8.324  0.3636  0.0901  0.1018
  111CHL1  H23A14460   2.201   1.343   8.417 -0.2098  0.5291 -0.2034
  111CHL1  H23B14461   2.305   1.280   8.278  0.0326  3.4454 -1.0022
  111CHL1   C2414462   2.099   1.349   8.234 -0.1081 -0.2598  0.0825
  111CHL1  H24A14463   2.123   1.305   8.135  1.2730 -0.9777  0.7095
  111CHL1  H24B14464   1.999   1.318   8.270 -0.6677  0.8872 -0.4291
  111CHL1   C2514465   2.114   1.514   8.222  0.2579 -0.0382 -0.1005
  111CHL1   H2514466   2.104   1.556   8.325  2.6744  2.7804 -0.8879
  111CHL1   C2614467   2.247   1.569   8.166 -0.1198  0.9211 -0.3293
  111CHL1  H26A14468   2.245   1.547   8.057 -0.6461 -1.8763  0.1665
  111CHL1  H26B14469   2.264   1.676   8.193 -0.9822  0.1534  4.0573
  111CHL1  H26C14470   2.327   1.508   8.213 -2.6314 -2.4007 -0.0433
  111CHL1   C2714471   2.001   1.570   8.144  0.3313  0.0592 -0.2664
  111CHL1  H27A14472   2.037   1.661   8.091 -1.2803  0.8916  0.0046
  111CHL1  H27B14473   1.956   1.498   8.071 -1.9690  0.9725  0.1684
  111CHL1  H27C14474   1.917   1.617   8.199  0.0561  0.8793 -1.3514
  112CHL1    C314475   3.160   1.045   9.589 -0.1523  0.0007  0.5311
  112CHL1    H314476   3.064   0.989   9.580  0.4496 -1.1809  1.2558
  112CHL1    O314477   3.161   1.086   9.722  0.0833  0.5294 -0.3159
  112CHL1   H3'14478   3.255   1.098   9.738  0.6741 -1.0176 -2.2073
  112CHL1    C414479   3.278   0.949   9.561 -0.5121  0.1008 -0.9121
  112CHL1   H4A14480   3.373   1.000   9.587  0.4758  0.8769 -5.2544
  112CHL1   H4B14481   3.270   0.871   9.639  1.4465 -0.1513 -0.9158
  112CHL1    C514482   3.284   0.911   9.411  0.8463  1.0377 -0.6392
  112CHL1    C614483   3.281   0.777   9.387  0.7181  0.1560  0.1026
  112CHL1    H614484   3.281   0.714   9.477 -1.9506 -0.2280 -0.0891
  112CHL1    C714485   3.298   0.736   9.247  0.0923 -0.1869 -0.2336
  112CHL1   H7A14486   3.364   0.647   9.246 -0.7216 -0.8022 -1.1860
  112CHL1   H7B14487   3.196   0.704   9.217 -0.1446 -0.2402  0.6153
  112CHL1    C814488   3.348   0.844   9.142 -0.3313  0.3380 -0.5252
  112CHL1    H814489   3.456   0.860   9.163 -0.1839 -0.5789 -0.5485
  112CHL1   C1414490   3.327   0.789   9.010 -0.8844  0.5349 -0.1277
  112CHL1   H1414491   3.217   0.784   8.996 -1.2417  0.0544  2.4065
  112CHL1   C1514492   3.391   0.654   8.956 -0.1001 -0.0464 -0.0330
  112CHL1  H15A14493   3.496   0.637   8.989 -0.2852 -2.9955 -0.7379
  112CHL1  H15B14494   3.332   0.567   8.992  1.6631 -0.9732  0.7732
  112CHL1   C1614495   3.395   0.656   8.812  0.1791  0.1254  0.3679
  112CHL1  H16A14496   3.497   0.632   8.776  0.5468  0.7456  0.9531
  112CHL1  H16B14497   3.331   0.579   8.764 -0.0759  0.4587  0.1743
  112CHL1   C1714498   3.347   0.802   8.771 -0.2344  0.2440 -0.4752
  112CHL1   H1714499   3.236   0.799   8.766 -0.2909 -0.7399  0.8518
  112CHL1   C1314500   3.374   0.890   8.897 -0.3420 -0.5467  0.5845
  112CHL1   C1814501   3.528   0.927   8.907 -0.2382  0.2587 -0.1755
  112CHL1  H18A14502   3.588   0.834   8.903 -3.3213 -1.8275 -0.9676
  112CHL1  H18B14503   3.558   0.995   8.825  1.3591  0.9728  0.9444
  112CHL1  H18C14504   3.545   0.987   8.999 -1.7771  0.0534  0.2635
  112CHL1   C1214505   3.277   1.011   8.912 -0.2145  1.0432  1.0806
  112CHL1  H12A14506   3.296   1.093   8.840 -1.8541 -0.3629 -1.1127
  112CHL1  H12B14507   3.171   0.978   8.905 -0.0081  0.2056  1.7552
  112CHL1   C1114508   3.279   1.069   9.051 -0.3609 -0.7603 -0.3270
  112CHL1  H11A14509   3.380   1.112   9.066 -1.0448  0.0948  2.6191
  112CHL1  H11B14510   3.203   1.150   9.061 -0.6389 -1.2323  2.3076
  112CHL1    C914511   3.256   0.966   9.166 -0.7157 -0.1359  0.3733
  112CHL1    H914512   3.151   0.937   9.149 -0.3936 -0.6700 -0.8074
  112CHL1   C1014513   3.277   1.024   9.315 -0.5242 -0.4829  0.5445
  112CHL1   C1914514   3.417   1.090   9.328  0.1883 -0.6226  0.0104
  112CHL1  H19A14515   3.420   1.176   9.258 -0.8190 -0.3903  0.2404
  112CHL1  H19B14516   3.431   1.130   9.431 -0.9029  0.7727 -0.3577
  112CHL1  H19C14517   3.506   1.029   9.303  0.7947  0.1091  0.3412
  112CHL1    C114518   3.161   1.123   9.356  1.1063  0.4127 -0.2013
  112CHL1   H1A14519   3.175   1.213   9.292 -0.3349 -0.2708 -1.5113
  112CHL1   H1B14520   3.066   1.069   9.341  0.5838  1.2498  0.0521
  112CHL1    C214521   3.167   1.168   9.498  0.0402  0.3736 -0.5937
  112CHL1   H2A14522   3.078   1.228   9.528 -0.2558 -0.2277 -0.2573
  112CHL1   H2B14523   3.260   1.228   9.507 -0.6934  1.6868 -1.3589
  112CHL1   C2014524   3.397   0.843   8.628 -0.3519  1.1232  0.2232
  112CHL1   H2014525   3.507   0.856   8.633 -0.2169  0.2221 -0.1347
  112CHL1   C2114526   3.325   0.969   8.588 -0.3385  0.2898 -0.0552
  112CHL1  H21A14527   3.344   1.055   8.656  0.4202  2.3665 -2.7531
  112CHL1  H21B14528   3.221   0.960   8.551 -0.4441  0.9614  0.0566
  112CHL1  H21C14529   3.379   1.011   8.501  1.4197 -2.6035 -0.4974
  112CHL1   C2214530   3.369   0.730   8.512 -0.0421 -0.6950 -0.2811
  112CHL1  H22A14531   3.387   0.630   8.555  2.2660  0.2841  1.2401
  112CHL1  H22B14532   3.263   0.741   8.480 -0.3368  0.3734  0.9511
  112CHL1   C2314533   3.448   0.754   8.387 -0.5420  0.4729 -0.2507
  112CHL1  H23A14534   3.427   0.852   8.340 -3.0508  0.3484  0.4726
  112CHL1  H23B14535   3.555   0.729   8.405 -0.9006 -1.8306 -0.9645
  112CHL1   C2414536   3.404   0.650   8.284  0.1424  0.9433 -0.5922
  112CHL1  H24A14537   3.419   0.554   8.337  0.7187  1.6228  0.4943
  112CHL1  H24B14538   3.294   0.654   8.268  0.1661 -0.5411 -1.2908
  112CHL1   C2514539   3.491   0.662   8.156  0.0350  0.1072 -1.3112
  112CHL1   H2514540   3.598   0.674   8.184 -0.8709  1.2044  2.2202
  112CHL1   C2614541   3.471   0.530   8.091  1.1936 -0.2905 -0.0145
  112CHL1  H26A14542   3.514   0.447   8.150 -1.0835 -0.3776  1.6613
  112CHL1  H26B14543   3.362   0.507   8.090  0.8929  0.7508  2.2178
  112CHL1  H26C14544   3.511   0.523   7.988 -0.8099 -0.4222 -0.8414
  112CHL1   C2714545   3.447   0.777   8.067 -0.0448 -0.1893  0.3712
  112CHL1  H27A14546   3.453   0.870   8.128 -1.0270 -0.2830  0.6410
  112CHL1  H27B14547   3.504   0.781   7.972 -1.1400  0.8514 -0.2752
  112CHL1  H27C14548   3.340   0.762   8.039 -0.3759  1.4537  0.6239
  113CHL1    C314549   0.918   4.849   8.889  0.3492  0.7616  0.6256
  113CHL1    H314550   0.808   4.858   8.900  0.4511  1.0891  1.4002
  113CHL1    O314551   0.985   4.846   9.017  0.0757  0.6073 -0.4125
  113CHL1   H3'14552   1.028   4.760   9.024 -0.9595  0.1516  1.0339
  113CHL1    C414553   0.944   4.720   8.817 -0.0711  0.8514 -0.3302
  113CHL1   H4A14554   1.050   4.694   8.840 -0.0417  0.4869 -0.8611
  113CHL1   H4B14555   0.887   4.643   8.872 -0.7715  1.1380 -0.6491
  113CHL1    C514556   0.913   4.710   8.666 -0.2835  0.8069  0.3386
  113CHL1    C614557   0.848   4.604   8.611 -0.1104  0.4428  0.5575
  113CHL1    H614558   0.821   4.524   8.681 -0.4428  2.0148  2.2955
  113CHL1    C714559   0.816   4.591   8.466  0.8105 -0.1292  0.3249
  113CHL1   H7A14560   0.830   4.489   8.423  1.2270  0.7350 -1.7425
  113CHL1   H7B14561   0.709   4.614   8.447  1.1662 -0.6409 -2.9917
  113CHL1    C814562   0.890   4.691   8.379 -0.5994 -0.1972  0.2182
  113CHL1    H814563   0.996   4.663   8.369 -0.6706 -0.0695 -1.0825
  113CHL1   C1414564   0.823   4.692   8.240 -0.2349 -0.6882 -0.1820
  113CHL1   H1414565   0.720   4.732   8.256 -0.1943 -0.4994 -0.3941
  113CHL1   C1514566   0.823   4.562   8.155 -0.3524  0.0086  0.4780
  113CHL1  H15A14567   0.920   4.512   8.140  0.5066  1.4022  1.1455
  113CHL1  H15B14568   0.749   4.489   8.194  1.1885 -2.8348 -1.5571
  113CHL1   C1614569   0.775   4.617   8.011  0.3860  0.3819  0.1165
  113CHL1  H16A14570   0.834   4.567   7.930  0.8985 -0.5016  1.0142
  113CHL1  H16B14571   0.665   4.603   8.001  0.3442  1.4414 -1.2957
  113CHL1   C1714572   0.793   4.771   8.020  0.0664  0.4485  1.0076
  113CHL1   H1714573   0.700   4.818   8.061  0.0523 -1.1181  2.9512
  113CHL1   C1314574   0.884   4.799   8.145 -0.2630 -0.0846 -0.0641
  113CHL1   C1814575   1.033   4.769   8.109  0.0885  0.1692 -0.2314
  113CHL1  H18A14576   1.061   4.855   8.044  0.5034  0.0400 -0.2231
  113CHL1  H18B14577   1.095   4.772   8.201  2.1576  2.1204 -1.5723
  113CHL1  H18C14578   1.053   4.670   8.062  0.7018 -0.7898  1.9303
  113CHL1   C1214579   0.876   4.938   8.216 -0.3587 -0.0606  0.1872
  113CHL1  H12A14580   0.930   5.011   8.152  0.4935 -1.8222 -1.1947
  113CHL1  H12B14581   0.768   4.964   8.224  0.0639  1.7708  0.5686
  113CHL1   C1114582   0.940   4.937   8.355  0.4873 -0.5303 -0.2257
  113CHL1  H11A14583   1.051   4.945   8.349  0.5043 -0.9227 -0.4716
  113CHL1  H11B14584   0.909   5.034   8.400  0.2464 -0.7291  0.0355
  113CHL1    C914585   0.883   4.827   8.447  0.3791 -0.0869  0.5723
  113CHL1    H914586   0.776   4.847   8.467  0.1488 -1.9661  1.4171
  113CHL1   C1014587   0.952   4.825   8.588  0.1984 -0.0334 -0.2263
  113CHL1   C1914588   1.106   4.825   8.568 -0.3184 -0.1116 -0.1013
  113CHL1  H19A14589   1.142   4.748   8.496  1.2995  0.4069  0.1139
  113CHL1  H19B14590   1.147   4.923   8.537 -0.4513 -0.5727 -1.8639
  113CHL1  H19C14591   1.156   4.810   8.666 -2.1750  0.1543  0.9272
  113CHL1    C114592   0.914   4.953   8.668 -0.0279  0.3808  0.0362
  113CHL1   H1A14593   0.945   5.039   8.604  0.2152 -0.5795 -1.1711
  113CHL1   H1B14594   0.804   4.957   8.681 -0.1263  2.0578 -0.9644
  113CHL1    C214595   0.972   4.967   8.807 -0.5547  0.2015 -0.1103
  113CHL1   H2A14596   0.950   5.068   8.847 -2.2056  0.1564 -0.8368
  113CHL1   H2B14597   1.082   4.953   8.801 -0.4622  0.6434  0.4786
  113CHL1   C2014598   0.818   4.844   7.881 -0.5278 -0.0612  0.0296
  113CHL1   H2014599   0.928   4.845   7.866 -0.4927  2.3569 -0.0523
  113CHL1   C2114600   0.790   4.996   7.891  0.4224  1.0397  0.2843
  113CHL1  H21A14601   0.816   5.026   7.787  0.9233 -0.4054 -0.0366
  113CHL1  H21B14602   0.853   5.050   7.964  1.3395 -0.1761  0.4339
  113CHL1  H21C14603   0.682   5.020   7.891 -0.4436 -2.1873 -1.2413
  113CHL1   C2214604   0.732   4.780   7.775 -0.0862  0.0082  0.2620
  113CHL1  H22A14605   0.789   4.689   7.748  2.6792  1.5657  0.4702
  113CHL1  H22B14606   0.640   4.751   7.830 -0.6642 -0.2747 -0.8388
  113CHL1   C2314607   0.693   4.860   7.645 -0.0833  0.3606 -0.3831
  113CHL1  H23A14608   0.641   4.952   7.679 -0.2773 -0.1097  0.6415
  113CHL1  H23B14609   0.788   4.869   7.587 -0.0950  3.4090 -0.0810
  113CHL1   C2414610   0.590   4.790   7.558 -0.1248  1.1763 -0.1262
  113CHL1  H24A14611   0.635   4.691   7.532 -2.7344 -0.4390  1.0521
  113CHL1  H24B14612   0.503   4.778   7.626  1.0800 -0.9956  1.1691
  113CHL1   C2514613   0.549   4.872   7.438  0.2509 -0.0501 -0.2235
  113CHL1   H2514614   0.525   4.976   7.467  0.8954 -0.2902  1.2783
  113CHL1   C2614615   0.666   4.893   7.341  0.1716 -0.2089 -0.2013
  113CHL1  H26A14616   0.628   4.963   7.263  1.5586  2.5881  1.4579
  113CHL1  H26B14617   0.748   4.956   7.383 -0.6383  1.3933 -0.9396
  113CHL1  H26C14618   0.708   4.795   7.311  0.4674  0.0657 -0.7045
  113CHL1   C2714619   0.431   4.816   7.352  0.3498  0.1365  1.2152
  113CHL1  H27A14620   0.347   4.792   7.421 -0.7174  0.7811  0.1955
  113CHL1  H27B14621   0.411   4.889   7.271  1.8532  0.0643  0.7506
  113CHL1  H27C14622   0.469   4.719   7.313  0.1678  0.2646  0.7093
  114CHL1    C314623   4.408   0.130   9.781 -0.3612 -0.3084  0.2083
  114CHL1    H314624   4.513   0.116   9.815  0.5539  3.6338 -0.4687
  114CHL1    O314625   4.327   0.144   9.893  0.4077 -0.3820 -0.1913
  114CHL1   H3'14626   4.252   0.202   9.874  0.2699 -0.8003 -0.9561
  114CHL1    C414627   4.404   0.260   9.705 -0.6438 -0.4760  0.2289
  114CHL1   H4A14628   4.301   0.301   9.702 -0.4133  0.0840 -2.5756
  114CHL1   H4B14629   4.463   0.334   9.764 -0.6635  1.2907 -1.8609
  114CHL1    C514630   4.456   0.253   9.565  0.3792  0.2850  0.7506
  114CHL1    C614631   4.547   0.347   9.517  0.3017 -0.0240  0.4090
  114CHL1    H614632   4.579   0.436   9.572 -0.4605  1.9847 -2.1825
  114CHL1    C714633   4.599   0.342   9.374 -0.5668  0.8066 -0.1003
  114CHL1   H7A14634   4.596   0.446   9.333  1.1798  0.4288 -1.2571
  114CHL1   H7B14635   4.706   0.313   9.373 -0.3797  0.9632  3.2192
  114CHL1    C814636   4.523   0.245   9.274  0.2972  0.8007 -0.1290
  114CHL1    H814637   4.425   0.290   9.249 -1.3609 -0.5085  3.3195
  114CHL1   C1414638   4.612   0.214   9.153  0.4526 -0.2429 -0.3238
  114CHL1   H1414639   4.699   0.169   9.204  1.6912  0.5914 -1.6294
  114CHL1   C1514640   4.665   0.330   9.075  0.0875  0.1712  0.6672
  114CHL1  H15A14641   4.575   0.388   9.046  0.3056  0.1120 -0.1478
  114CHL1  H15B14642   4.746   0.380   9.131  1.8310 -0.5493 -1.1048
  114CHL1   C1614643   4.718   0.262   8.948  0.8054 -0.2194 -0.4480
  114CHL1  H16A14644   4.691   0.323   8.859  1.2986  2.4193  1.0910
  114CHL1  H16B14645   4.829   0.257   8.941  0.8789  0.2180  0.3480
  114CHL1   C1714646   4.669   0.112   8.951 -0.1565  0.2031  0.6472
  114CHL1   H1714647   4.744   0.049   9.004 -0.9195 -0.5524  0.8325
  114CHL1   C1314648   4.550   0.116   9.049  0.9285 -0.3624  0.2868
  114CHL1   C1814649   4.431   0.175   8.985  0.5000  0.3242 -0.1483
  114CHL1  H18A14650   4.365   0.098   8.939 -0.1713  1.6375 -1.4768
  114CHL1  H18B14651   4.359   0.210   9.062 -0.7344 -1.4173 -0.4623
  114CHL1  H18C14652   4.452   0.257   8.913 -1.3418  0.0219 -1.0971
  114CHL1   C1214653   4.535  -0.016   9.123  0.0685 -1.0137  0.5247
  114CHL1  H12A14654   4.497  -0.087   9.046  0.0528  0.7140 -1.1543
  114CHL1  H12B14655   4.635  -0.060   9.140 -0.5337 -2.5483  0.2846
  114CHL1   C1114656   4.457  -0.003   9.258  0.7578  0.0701 -1.1189
  114CHL1  H11A14657   4.352   0.014   9.227  0.2094 -0.4507  0.3697
  114CHL1  H11B14658   4.460  -0.107   9.298 -1.9886  0.1482 -0.5612
  114CHL1    C914659   4.493   0.112   9.347  0.2768 -0.3105 -0.3045
  114CHL1    H914660   4.595   0.084   9.381  1.0212  4.5342  2.4149
  114CHL1   C1014661   4.409   0.129   9.481  0.3153  0.1716  0.0657
  114CHL1   C1914662   4.258   0.145   9.453  0.1229 -0.2559  0.1590
  114CHL1  H19A14663   4.206   0.050   9.429  0.1306 -0.5619  1.2816
  114CHL1  H19B14664   4.215   0.187   9.546 -0.0508 -1.0746  0.4612
  114CHL1  H19C14665   4.222   0.220   9.380 -1.9883 -0.4134  0.9568
  114CHL1    C114666   4.428   0.002   9.570 -0.4597 -1.0446  0.9254
  114CHL1   H1A14667   4.384  -0.076   9.503  3.9544 -0.8166 -2.7504
  114CHL1   H1B14668   4.536  -0.015   9.589 -0.5937  0.2768  3.1104
  114CHL1    C214669   4.356   0.005   9.704 -0.2217  0.8336 -0.4511
  114CHL1   H2A14670   4.387  -0.083   9.764  0.8670  1.6200  0.1859
  114CHL1   H2B14671   4.245  -0.001   9.702 -0.2681  0.8970  0.8938
  114CHL1   C2014672   4.656   0.048   8.814 -0.3976 -0.1663  0.5140
  114CHL1   H2014673   4.576   0.096   8.753  0.8538 -0.3909 -1.3801
  114CHL1   C2114674   4.619  -0.097   8.811  0.6514 -0.2483  0.4863
  114CHL1  H21A14675   4.522  -0.106   8.864  1.0373  0.2127  1.2999
  114CHL1  H21B14676   4.704  -0.155   8.855  1.3477  0.2588 -0.1626
  114CHL1  H21C14677   4.597  -0.132   8.708  0.7500  2.1149 -0.3870
  114CHL1   C2214678   4.786   0.074   8.730  0.0453 -1.0109  0.5331
  114CHL1  H22A14679   4.792   0.185   8.731 -3.3389 -0.7274  0.4490
  114CHL1  H22B14680   4.870   0.025   8.783  1.0305 -0.7510 -0.7465
  114CHL1   C2314681   4.783   0.041   8.579 -0.0980 -0.1713 -0.2303
  114CHL1  H23A14682   4.782  -0.068   8.557  1.2521 -0.0900 -0.8343
  114CHL1  H23B14683   4.687   0.088   8.548 -0.1713 -0.5668 -0.6103
  114CHL1   C2414684   4.912   0.089   8.496  0.3552 -0.1948 -0.0093
  114CHL1  H24A14685   4.929   0.192   8.535 -0.1407 -0.0237 -0.2257
  114CHL1  H24B14686   5.001   0.027   8.516  1.1746  0.8072 -0.4656
  114CHL1   C2514687   4.879   0.106   8.343 -0.4634  0.0730  0.4886
  114CHL1   H2514688   4.790   0.171   8.329 -1.0045 -0.6100  0.6684
  114CHL1   C2614689   4.989   0.183   8.272 -0.2540  0.0129  0.3837
  114CHL1  H26A14690   4.992   0.167   8.162  0.7351  1.4834  0.1570
  114CHL1  H26B14691   4.973   0.293   8.274 -1.8220 -0.0820 -2.0462
  114CHL1  H26C14692   5.094   0.166   8.304  0.2548  1.1133 -0.5912
  114CHL1   C2714693   4.861  -0.032   8.278 -0.6486  0.7058  0.1032
  114CHL1  H27A14694   4.956  -0.087   8.295  0.0754  1.9756  0.3299
  114CHL1  H27B14695   4.782  -0.086   8.334 -0.3392  0.0888 -0.0567
  114CHL1  H27C14696   4.857  -0.032   8.167  0.2947  1.4031  0.0631
  115CHL1    C314697   1.112   1.333   9.192 -0.3788  0.6887 -0.8840
  115CHL1    H314698   1.184   1.249   9.181  1.3271  1.6864  1.6778
  115CHL1    O314699   1.115   1.370   9.327 -0.0141 -0.1808  0.2365
  115CHL1   H3'14700   1.055   1.307   9.368 -2.0432  1.8551  0.5944
  115CHL1    C414701   1.151   1.456   9.109  0.1944 -0.2274 -0.1404
  115CHL1   H4A14702   1.085   1.538   9.145  1.1066  1.1918 -1.6283
  115CHL1   H4B14703   1.255   1.490   9.128  1.1153 -2.7481 -0.1895
  115CHL1    C514704   1.125   1.435   8.965  0.7000 -0.1757  0.5071
  115CHL1    C614705   1.224   1.450   8.881  0.3879 -0.5356  0.7600
  115CHL1    H614706   1.324   1.487   8.907  0.0941 -0.2731  1.5705
  115CHL1    C714707   1.214   1.432   8.731  0.1533 -0.1071  0.4173
  115CHL1   H7A14708   1.274   1.506   8.674  2.1695 -2.8314 -1.2275
  115CHL1   H7B14709   1.266   1.339   8.702  0.5397  0.6595 -1.4446
  115CHL1    C814710   1.069   1.434   8.682 -0.1051 -0.0545 -0.2475
  115CHL1    H814711   1.038   1.540   8.686 -0.8706 -0.2877  0.0319
  115CHL1   C1414712   1.058   1.375   8.544 -0.4586 -0.0512 -0.2914
  115CHL1   H1414713   1.085   1.268   8.563  1.6376  0.2825 -1.1285
  115CHL1   C1514714   1.157   1.434   8.438  0.4284 -0.2804  0.1341
  115CHL1  H15A14715   1.156   1.545   8.440 -0.1050 -0.2809  0.0305
  115CHL1  H15B14716   1.263   1.406   8.458  0.4830  0.3774  0.8103
  115CHL1   C1614717   1.098   1.391   8.308  0.2342  0.2892  0.9303
  115CHL1  H16A14718   1.083   1.486   8.252 -0.6501  0.6568  1.7599
  115CHL1  H16B14719   1.164   1.322   8.251  0.1420  1.4307 -0.6410
  115CHL1   C1714720   0.956   1.331   8.338 -0.8325 -0.6992 -0.0975
  115CHL1   H1714721   0.976   1.221   8.345  1.2498 -0.4958 -1.6125
  115CHL1   C1314722   0.919   1.380   8.483 -0.3211 -0.2335  0.8221
  115CHL1   C1814723   0.865   1.522   8.471  0.0626  0.1127  0.4762
  115CHL1  H18A14724   0.765   1.530   8.423  0.1446  1.5599  0.4929
  115CHL1  H18B14725   0.848   1.568   8.570  2.1664  0.2882  0.7992
  115CHL1  H18C14726   0.937   1.584   8.413  1.1892 -1.8574 -0.3456
  115CHL1   C1214727   0.827   1.294   8.562 -0.2419 -0.7366 -1.0478
  115CHL1  H12A14728   0.721   1.307   8.531 -1.2321  1.0385  2.5016
  115CHL1  H12B14729   0.855   1.186   8.564 -2.1398 -1.2557 -0.2366
  115CHL1   C1114730   0.834   1.343   8.710 -0.0953  0.7920  0.4660
  115CHL1  H11A14731   0.781   1.440   8.713 -0.5071  0.6322 -1.0197
  115CHL1  H11B14732   0.781   1.267   8.771 -0.5201  0.8539  0.1772
  115CHL1    C914733   0.976   1.349   8.767 -0.2959 -0.4557 -0.5518
  115CHL1    H914734   1.023   1.248   8.761  1.3058 -0.0830  2.9780
  115CHL1   C1014735   0.991   1.383   8.919  0.3200  0.6244 -0.2532
  115CHL1   C1914736   0.884   1.492   8.954 -0.2621  0.1240 -0.1047
  115CHL1  H19A14737   0.890   1.535   9.056 -0.8944  0.5961 -0.2575
  115CHL1  H19B14738   0.893   1.574   8.879 -1.0428 -0.1209 -0.4703
  115CHL1  H19C14739   0.784   1.445   8.950  0.5137 -1.5622 -1.5032
  115CHL1    C114740   0.968   1.255   9.009  0.2398 -0.1636  0.3532
  115CHL1   H1A14741   0.869   1.214   8.979 -0.1541  2.0049 -1.6197
  115CHL1   H1B14742   1.041   1.175   8.985 -2.1967 -2.5421  0.3370
  115CHL1    C214743   0.973   1.282   9.160  0.3325  0.5557  0.6705
  115CHL1   H2A14744   0.957   1.185   9.210  1.5055  0.3171  0.6130
  115CHL1   H2B14745   0.892   1.348   9.196 -0.2950  1.3811 -1.9806
  115CHL1   C2014746   0.848   1.359   8.229 -0.2918 -0.0085 -0.1739
  115CHL1   H2014747   0.841   1.469   8.220  0.6686  0.2851  2.0271
  115CHL1   C2114748   0.705   1.310   8.260 -0.1807  0.0611 -0.3305
  115CHL1  H21A14749   0.699   1.208   8.303 -2.0912  0.1895 -0.1944
  115CHL1  H21B14750   0.649   1.300   8.164 -2.3107 -2.5048  1.0545
  115CHL1  H21C14751   0.653   1.386   8.322  2.0332  2.4618 -1.2666
  115CHL1   C2214752   0.891   1.315   8.082  0.1672 -0.1979  0.3184
  115CHL1  H22A14753   0.825   1.376   8.016  1.4217  0.2804 -0.5378
  115CHL1  H22B14754   0.998   1.340   8.064 -0.0218  0.1034 -0.4314
  115CHL1   C2314755   0.876   1.167   8.055  0.3921  0.2407  0.3969
  115CHL1  H23A14756   0.914   1.097   8.133 -0.4850 -1.9925 -1.0718
  115CHL1  H23B14757   0.766   1.151   8.059  0.2813  0.6718 -0.6229
  115CHL1   C2414758   0.921   1.122   7.914 -1.0029 -0.5762 -0.0657
  115CHL1  H24A14759   0.857   1.162   7.833  0.1472 -0.5625 -0.9832
  115CHL1  H24B14760   1.018   1.173   7.900 -1.0428 -0.4666  0.0513
  115CHL1   C2514761   0.941   0.971   7.894 -0.3884  0.3680 -0.3278
  115CHL1   H2514762   1.014   0.948   7.974 -1.9438 -0.6076  0.8674
  115CHL1   C2614763   0.813   0.899   7.924 -1.4427 -0.0112 -0.1443
  115CHL1  H26A14764   0.731   0.942   7.863  0.1045  2.6099 -0.5403
  115CHL1  H26B14765   0.818   0.794   7.890 -1.1459  0.2532 -0.9409
  115CHL1  H26C14766   0.792   0.901   8.034 -1.7577 -1.7386 -0.1505
  115CHL1   C2714767   1.007   0.928   7.759  0.2412  0.6167  0.7426
  115CHL1  H27A14768   1.107   0.974   7.746  1.0571 -1.2549  0.0757
  115CHL1  H27B14769   1.020   0.818   7.752  0.7202  0.7238 -0.1762
  115CHL1  H27C14770   0.944   0.959   7.673 -0.8211  1.3100  1.7438
  116CHL1    C314771   1.975   0.591   8.987  0.0989 -0.7113  0.0843
  116CHL1    H314772   2.025   0.689   9.004  2.5878 -1.7701 -0.7197
  116CHL1    O314773   1.963   0.527   9.115 -0.2232  0.0750 -0.2994
  116CHL1   H3'14774   1.949   0.434   9.094  3.1767 -1.0071  1.5263
  116CHL1    C414775   1.837   0.626   8.926  0.2073 -0.0236  0.2067
  116CHL1   H4A14776   1.781   0.530   8.930 -0.1229  0.1107 -0.9931
  116CHL1   H4B14777   1.787   0.698   8.995 -4.1017 -1.0342 -1.5661
  116CHL1    C514778   1.842   0.669   8.783  0.7098 -0.2038  0.3060
  116CHL1    C614779   1.768   0.777   8.735 -0.7467  0.8217 -0.5583
  116CHL1    H614780   1.688   0.822   8.796 -2.9893 -0.9072 -2.0661
  116CHL1    C714781   1.779   0.841   8.599 -0.1199  0.3403  0.0418
  116CHL1   H7A14782   1.682   0.864   8.548  0.1224 -0.2986 -0.7283
  116CHL1   H7B14783   1.838   0.935   8.601  0.3421  0.0452  0.4328
  116CHL1    C814784   1.849   0.734   8.501  0.2140  0.0340 -0.1896
  116CHL1    H814785   1.771   0.657   8.483 -1.4420  1.7570 -0.7918
  116CHL1   C1414786   1.883   0.797   8.366 -0.0100 -0.4120 -0.2762
  116CHL1   H1414787   1.955   0.878   8.389 -2.9019  1.8709  1.5067
  116CHL1   C1514788   1.776   0.885   8.301  0.2304 -0.1176  0.4209
  116CHL1  H15A14789   1.682   0.828   8.314 -0.2210  0.7896  1.2741
  116CHL1  H15B14790   1.772   0.991   8.335  2.5945  0.3016 -0.3874
  116CHL1   C1614791   1.821   0.885   8.149  0.3110  0.6419 -0.0465
  116CHL1  H16A14792   1.733   0.847   8.092  0.5338 -1.0286  0.6804
  116CHL1  H16B14793   1.845   0.982   8.101 -0.6334  0.9141  0.0171
  116CHL1   C1714794   1.952   0.790   8.141 -0.5683  0.1084  0.0168
  116CHL1   H1714795   2.042   0.852   8.160  0.3321  0.4066 -4.2283
  116CHL1   C1314796   1.935   0.691   8.263  0.3826 -0.0744 -0.2038
  116CHL1   C1814797   1.829   0.581   8.219  0.1210 -0.5006 -0.5306
  116CHL1  H18A14798   1.892   0.513   8.158  0.7307  0.3999 -0.9361
  116CHL1  H18B14799   1.791   0.534   8.312  2.8352  1.4844  1.8033
  116CHL1  H18C14800   1.746   0.624   8.159 -0.7016 -1.1135  0.1460
  116CHL1   C1214801   2.062   0.634   8.322 -0.3877  0.3671  0.2834
  116CHL1  H12A14802   2.109   0.561   8.252  0.1703  1.0301 -0.0508
  116CHL1  H12B14803   2.131   0.722   8.324 -0.4706  0.4692 -0.7080
  116CHL1   C1114804   2.036   0.567   8.458  0.1151  0.7580 -0.0935
  116CHL1  H11A14805   1.962   0.485   8.441 -0.3204  1.2658 -0.6872
  116CHL1  H11B14806   2.126   0.511   8.489 -0.6803 -1.7098 -1.9118
  116CHL1    C914807   1.971   0.659   8.563 -0.8279 -0.0279  0.0765
  116CHL1    H914808   2.051   0.732   8.587 -0.5785  0.4899 -2.1437
  116CHL1   C1014809   1.947   0.586   8.700  0.1973  0.2299 -1.0338
  116CHL1   C1914810   1.878   0.440   8.680 -0.0570 -0.0978  0.2053
  116CHL1  H19A14811   1.784   0.458   8.624  0.7451 -0.5789 -1.3722
  116CHL1  H19B14812   1.946   0.373   8.622  3.3541  2.1218  1.2767
  116CHL1  H19C14813   1.851   0.395   8.778  0.8130  1.3203  1.1374
  116CHL1    C114814   2.085   0.564   8.771  0.2023  0.7864  0.4120
  116CHL1   H1A14815   2.147   0.503   8.701 -1.4156 -0.3523 -0.0857
  116CHL1   H1B14816   2.138   0.661   8.781 -0.0794  1.0244 -0.3942
  116CHL1    C214817   2.067   0.503   8.909 -0.5639 -0.2186 -0.0466
  116CHL1   H2A14818   2.169   0.499   8.953  0.4912 -0.2780 -2.3226
  116CHL1   H2B14819   2.026   0.400   8.893  0.2343 -0.7048  0.9078
  116CHL1   C2014820   1.971   0.732   8.002 -0.2830  0.2055  0.9127
  116CHL1   H2014821   1.885   0.664   7.981  1.5374 -1.7101 -0.7972
  116CHL1   C2114822   2.102   0.660   8.001 -0.3402  0.5195 -1.2505
  116CHL1  H21A14823   2.121   0.623   7.898 -1.4473 -0.6384 -1.0616
  116CHL1  H21B14824   2.092   0.562   8.053 -0.1051  0.7983 -0.6742
  116CHL1  H21C14825   2.189   0.724   8.028 -0.4318 -0.4285  1.6499
  116CHL1   C2214826   1.961   0.833   7.881  0.0829 -0.1103 -0.0625
  116CHL1  H22A14827   1.981   0.777   7.787  0.3240 -0.0148 -0.0698
  116CHL1  H22B14828   1.861   0.880   7.877  0.6025  1.0987  0.5434
  116CHL1   C2314829   2.067   0.947   7.891 -0.0316 -0.6946 -0.7022
  116CHL1  H23A14830   2.071   1.016   7.978  3.6437 -2.5070  0.7918
  116CHL1  H23B14831   2.163   0.893   7.909  0.4064  0.3363  0.2090
  116CHL1   C2414832   2.064   1.030   7.760  0.6714 -0.3716 -0.7936
  116CHL1  H24A14833   2.038   0.962   7.676  0.5913  0.4683 -1.4700
  116CHL1  H24B14834   1.974   1.094   7.777  0.6441 -1.1103  2.5442
  116CHL1   C2514835   2.195   1.108   7.726 -0.6769  0.1584 -0.0246
  116CHL1   H2514836   2.169   1.182   7.648 -0.9587 -0.4101 -0.4838
  116CHL1   C2614837   2.247   1.193   7.840 -0.5427 -0.5450 -0.9097
  116CHL1  H26A14838   2.341   1.247   7.818  0.7658 -2.5135 -0.4666
  116CHL1  H26B14839   2.164   1.264   7.858  0.2938 -0.3000  2.7343
  116CHL1  H26C14840   2.262   1.131   7.931 -0.2850 -0.8432 -1.1506
  116CHL1   C2714841   2.306   1.013   7.666 -0.1617  0.2915 -0.6954
  116CHL1  H27A14842   2.252   0.946   7.595 -0.0527  0.2754 -0.7636
  116CHL1  H27B14843   2.382   1.068   7.607 -1.8398  1.6981 -1.6570
  116CHL1  H27C14844   2.352   0.948   7.743 -1.7013 -0.7840 -0.6189
  117CHL1    C314845   4.048   0.941   9.737 -0.0640  0.4101  0.3415
  117CHL1    H314846   3.956   0.883   9.717 -0.3150 -0.1592  2.8426
  117CHL1    O314847   4.039   0.991   9.865 -0.2884 -0.0364  0.3213
  117CHL1   H3'14848   4.095   0.934   9.919  0.4351  0.9734  0.6669
  117CHL1    C414849   4.169   0.848   9.722  0.1091 -0.9050  0.2328
  117CHL1   H4A14850   4.254   0.903   9.766 -0.9394  1.3907 -0.4534
  117CHL1   H4B14851   4.156   0.762   9.792  1.1841 -0.2035  1.3335
  117CHL1    C514852   4.183   0.801   9.578 -1.2363  0.1189  0.3784
  117CHL1    C614853   4.182   0.670   9.548 -0.1801 -0.5215 -0.5872
  117CHL1    H614854   4.177   0.595   9.628  2.0115 -0.8664 -0.6938
  117CHL1    C714855   4.205   0.611   9.411  0.4210  0.2615 -0.1840
  117CHL1   H7A14856   4.278   0.528   9.421 -2.2819 -2.1132  1.3134
  117CHL1   H7B14857   4.110   0.567   9.372  2.0955 -1.8986 -2.1233
  117CHL1    C814858   4.260   0.718   9.319  0.0903 -0.7253 -0.0539
  117CHL1    H814859   4.368   0.732   9.340 -0.5267  0.9845  2.5295
  117CHL1   C1414860   4.241   0.667   9.175 -0.5561 -0.5057 -0.7695
  117CHL1   H1414861   4.130   0.660   9.172 -0.5765 -1.3773  0.8196
  117CHL1   C1514862   4.290   0.529   9.145 -0.0527  0.3425  0.2253
  117CHL1  H15A14863   4.393   0.508   9.180  0.5415  1.1576 -0.9815
  117CHL1  H15B14864   4.215   0.458   9.185 -0.3495  0.5524  0.0517
  117CHL1   C1614865   4.291   0.522   8.995  0.2987 -0.1322  0.4574
  117CHL1  H16A14866   4.398   0.499   8.977  0.9333  0.4325  3.0239
  117CHL1  H16B14867   4.228   0.441   8.954  0.1310  0.6670 -0.9018
  117CHL1   C1714868   4.262   0.674   8.946  0.3648  0.3128  0.3797
  117CHL1   H1714869   4.151   0.680   8.945  0.4064  2.0840  1.9771
  117CHL1   C1314870   4.284   0.759   9.065 -0.1021  0.1461 -0.4735
  117CHL1   C1814871   4.436   0.779   9.068  0.3715 -0.5195 -0.2291
  117CHL1  H18A14872   4.468   0.817   9.168  1.6163 -1.2150 -0.3352
  117CHL1  H18B14873   4.478   0.676   9.057 -1.3045 -1.3954  1.1708
  117CHL1  H18C14874   4.474   0.848   8.989 -2.1290 -0.0855 -1.1246
  117CHL1   C1214875   4.202   0.889   9.077 -0.1516 -0.2401  0.3706
  117CHL1  H12A14876   4.239   0.965   9.006  0.8274 -0.6402  0.4383
  117CHL1  H12B14877   4.097   0.862   9.050 -0.1939 -0.9251  1.1826
  117CHL1   C1114878   4.210   0.951   9.216  0.4288  0.9175 -0.4848
  117CHL1  H11A14879   4.309   1.001   9.229  2.0027 -1.8580 -0.8577
  117CHL1  H11B14880   4.141   1.037   9.225  0.0159  0.4720  0.9175
  117CHL1    C914881   4.184   0.851   9.330  0.3040  0.6417  0.0118
  117CHL1    H914882   4.079   0.820   9.314  0.0739  1.3003  0.2064
  117CHL1   C1014883   4.193   0.910   9.474 -0.4805  0.2457  0.1564
  117CHL1   C1914884   4.325   0.989   9.489 -0.2767 -0.2516 -0.5320
  117CHL1  H19A14885   4.312   1.087   9.439 -0.3119 -0.2649 -0.5490
  117CHL1  H19B14886   4.349   1.017   9.594 -0.1767 -0.0581 -0.6064
  117CHL1  H19C14887   4.410   0.927   9.453  1.6074  1.2933  1.0410
  117CHL1    C114888   4.065   1.003   9.494 -0.0986 -0.0751  0.3383
  117CHL1   H1A14889   4.052   1.080   9.416  0.4782 -0.7940 -0.4842
  117CHL1   H1B14890   3.978   0.935   9.478 -0.4143  0.2594  0.6252
  117CHL1    C214891   4.057   1.056   9.636  0.2163 -0.2400 -0.6664
  117CHL1   H2A14892   3.965   1.118   9.648 -0.0383 -0.8644  0.8938
  117CHL1   H2B14893   4.142   1.115   9.673  0.5287 -2.1785  1.9828
  117CHL1   C2014894   4.319   0.706   8.812  0.0218 -0.1004  0.1493
  117CHL1   H2014895   4.430   0.706   8.806 -0.0489  1.1958 -2.9473
  117CHL1   C2114896   4.270   0.842   8.766  0.4452  0.6900  0.0810
  117CHL1  H21A14897   4.306   0.864   8.663  0.8874  1.0903  0.3170
  117CHL1  H21B14898   4.320   0.923   8.823  0.5354 -0.4416  1.6599
  117CHL1  H21C14899   4.159   0.855   8.769  0.6054  2.3421  0.0065
  117CHL1   C2214900   4.282   0.609   8.700  0.8646 -0.3569  0.0881
  117CHL1  H22A14901   4.175   0.586   8.717  0.7252 -0.0980 -0.4092
  117CHL1  H22B14902   4.286   0.662   8.602 -0.6136 -2.7515 -1.3615
  117CHL1   C2314903   4.380   0.493   8.667  0.0457 -0.2026 -0.0509
  117CHL1  H23A14904   4.475   0.548   8.652 -0.9127  1.4315 -0.4058
  117CHL1  H23B14905   4.381   0.435   8.761 -0.4883  2.1202  1.4864
  117CHL1   C2414906   4.344   0.417   8.540 -0.2063 -0.3692  0.0935
  117CHL1  H24A14907   4.245   0.368   8.551 -0.1962 -0.9438 -2.0039
  117CHL1  H24B14908   4.350   0.488   8.455 -1.9835 -1.6675 -1.1891
  117CHL1   C2514909   4.450   0.315   8.494  0.1186 -0.2535 -0.0597
  117CHL1   H2514910   4.503   0.268   8.580  2.3317 -1.1445 -1.8065
  117CHL1   C2614911   4.404   0.209   8.397  0.8076  0.5927 -0.7554
  117CHL1  H26A14912   4.480   0.132   8.372 -0.2197 -0.1687 -1.6648
  117CHL1  H26B14913   4.310   0.165   8.439 -1.6646  2.7331 -3.5935
  117CHL1  H26C14914   4.376   0.244   8.295  2.5557  0.0407 -1.4532
  117CHL1   C2714915   4.566   0.392   8.428 -1.1499 -0.8438  0.3915
  117CHL1  H27A14916   4.531   0.448   8.339 -0.9385  3.1049  2.5828
  117CHL1  H27B14917   4.596   0.462   8.508 -0.5541  0.0939 -0.6396
  117CHL1  H27C14918   4.653   0.324   8.415  0.8987  1.5685  0.7339
  118CHL1    C314919   6.402   1.283   9.844 -0.8181  0.3158  0.3700
  118CHL1    H314920   6.301   1.329   9.847 -2.1862 -2.1905 -2.5687
  118CHL1    O314921   6.453   1.291   9.979  0.6669  0.0289  0.8729
  118CHL1   H3'14922   6.535   1.242   9.974 -0.2958 -1.5358 -0.7353
  118CHL1    C414923   6.386   1.137   9.788 -0.6544 -1.5161  0.2618
  118CHL1   H4A14924   6.476   1.080   9.821 -0.0867 -2.7053 -2.9836
  118CHL1   H4B14925   6.301   1.092   9.843 -2.0898 -0.0856 -0.7015
  118CHL1    C514926   6.367   1.135   9.636 -0.4772  0.4846 -0.1065
  118CHL1    C614927   6.272   1.061   9.579 -0.3349  0.2219  0.1403
  118CHL1    H614928   6.189   1.022   9.639 -1.9851  1.5102 -1.1910
  118CHL1    C714929   6.258   1.035   9.430  0.4923 -0.1244  0.5257
  118CHL1   H7A14930   6.247   0.926   9.410 -1.6327  0.0638  0.4266
  118CHL1   H7B14931   6.161   1.076   9.392  0.4725 -1.2258 -0.7000
  118CHL1    C814932   6.376   1.078   9.347 -0.3031 -0.3617  0.0651
  118CHL1    H814933   6.463   1.011   9.359 -0.8441 -1.0477  0.2203
  118CHL1   C1414934   6.336   1.098   9.205  0.3269  0.0419  0.6681
  118CHL1   H1414935   6.268   1.187   9.204 -0.5075 -0.5695 -0.7974
  118CHL1   C1514936   6.257   0.983   9.148  0.0710 -0.0060  0.5001
  118CHL1  H15A14937   6.302   0.883   9.163  0.5191 -0.4264 -2.7888
  118CHL1  H15B14938   6.149   0.990   9.170  0.1105  0.9306  0.4372
  118CHL1   C1614939   6.269   1.007   8.996  0.1978  0.0996 -0.0109
  118CHL1  H16A14940   6.297   0.915   8.942 -0.2776  0.5517 -1.0500
  118CHL1  H16B14941   6.172   1.035   8.950  0.8009  0.7105 -0.9564
  118CHL1   C1714942   6.383   1.116   8.977 -0.2139 -0.3904  0.1928
  118CHL1   H1714943   6.322   1.208   8.964  1.0543  0.4614 -0.0010
  118CHL1   C1314944   6.457   1.120   9.115  0.1000  0.0299 -0.0675
  118CHL1   C1814945   6.556   1.004   9.118  0.9361 -0.3334  0.0380
  118CHL1  H18A14946   6.512   0.902   9.104  0.2498  0.0388 -0.5911
  118CHL1  H18B14947   6.624   1.019   9.032 -1.7642  0.3200 -2.1270
  118CHL1  H18C14948   6.606   0.996   9.217 -0.3786 -0.0082  0.7574
  118CHL1   C1214949   6.527   1.259   9.153  0.3140 -0.7316  0.1636
  118CHL1  H12A14950   6.612   1.292   9.090  0.5843 -1.5512  0.0854
  118CHL1  H12B14951   6.446   1.334   9.144  1.0908  0.4378  2.1195
  118CHL1   C1114952   6.559   1.261   9.303 -0.4939  0.8390 -0.2301
  118CHL1  H11A14953   6.644   1.190   9.317 -0.2024  1.3604  0.6965
  118CHL1  H11B14954   6.588   1.364   9.330  2.2492  0.1854 -0.3986
  118CHL1    C914955   6.441   1.213   9.402 -0.1096  0.3309  0.3632
  118CHL1    H914956   6.365   1.293   9.393 -0.2350  0.1201 -0.4731
  118CHL1   C1014957   6.478   1.209   9.547  0.2668 -0.6368 -0.0801
  118CHL1   C1914958   6.608   1.124   9.571  0.3712 -0.2162 -0.0283
  118CHL1  H19A14959   6.688   1.173   9.511  1.1659 -1.2113  0.1783
  118CHL1  H19B14960   6.647   1.119   9.675  0.1694  1.1452  0.1330
  118CHL1  H19C14961   6.588   1.021   9.536  0.1693 -1.1139  2.5070
  118CHL1    C114962   6.497   1.355   9.606 -0.5570 -0.4403 -0.4345
  118CHL1   H1A14963   6.601   1.384   9.578 -0.5087  0.9364  1.0342
  118CHL1   H1B14964   6.422   1.425   9.562  0.9287 -0.9196 -4.0800
  118CHL1    C214965   6.507   1.363   9.762  0.7696  0.5594 -0.0879
  118CHL1   H2A14966   6.490   1.470   9.785  2.4871  0.5481  1.4327
  118CHL1   H2B14967   6.610   1.336   9.793 -0.4831 -3.2370  1.3188
  118CHL1   C2014968   6.448   1.091   8.843 -0.5589  0.4085  0.2073
  118CHL1   H2014969   6.497   0.991   8.844 -0.5017  0.4151  2.0850
  118CHL1   C2114970   6.553   1.198   8.829 -0.0016 -0.0241  0.7426
  118CHL1  H21A14971   6.610   1.186   8.735  0.5474 -0.4708  1.1251
  118CHL1  H21B14972   6.625   1.186   8.912  0.0373  1.8996  1.0450
  118CHL1  H21C14973   6.512   1.302   8.832  2.5524  1.1247 -0.7990
  118CHL1   C2214974   6.343   1.090   8.724  0.0059 -0.1045  0.1164
  118CHL1  H22A14975   6.264   1.015   8.746  0.3626 -0.4183  0.3228
  118CHL1  H22B14976   6.289   1.187   8.720 -1.7560 -1.0498 -0.0749
  118CHL1   C2314977   6.408   1.063   8.595  0.1872 -0.3384 -0.2273
  118CHL1  H23A14978   6.460   1.156   8.563 -0.6899  0.0861 -0.4277
  118CHL1  H23B14979   6.491   0.990   8.614 -0.1010 -0.1989  1.8700
  118CHL1   C2414980   6.311   1.031   8.482 -0.2526  0.2374  0.4134
  118CHL1  H24A14981   6.228   0.977   8.532 -1.7630  2.5205  0.5043
  118CHL1  H24B14982   6.270   1.125   8.439 -0.8083 -1.2716 -2.5678
  118CHL1   C2514983   6.374   0.945   8.373  0.0658 -0.0244  0.3721
  118CHL1   H2514984   6.424   0.861   8.426  1.1157 -0.4362 -1.2147
  118CHL1   C2614985   6.257   0.887   8.290  0.4330  0.5303 -0.3245
  118CHL1  H26A14986   6.204   0.964   8.229 -1.8623  0.2498  1.1994
  118CHL1  H26B14987   6.302   0.801   8.236 -1.1245 -1.7051  1.7584
  118CHL1  H26C14988   6.184   0.839   8.359  0.5020 -0.7670 -1.1189
  118CHL1   C2714989   6.483   1.024   8.295  0.4967  0.4919 -0.5033
  118CHL1  H27A14990   6.550   0.952   8.242 -1.7942 -3.1939  1.1729
  118CHL1  H27B14991   6.437   1.081   8.212  1.0645  1.9081  0.1353
  118CHL1  H27C14992   6.534   1.104   8.352  0.6354  1.7644 -2.3156
  119CHL1    C314993   1.010   0.475   9.475 -0.2517 -0.0694  0.2188
  119CHL1    H314994   0.939   0.560   9.472  0.6105  0.6615  0.3250
  119CHL1    O314995   1.068   0.462   9.606 -0.4189  0.0884  0.0971
  119CHL1   H3'14996   1.005   0.497   9.669  0.6439  0.1367  1.1733
  119CHL1    C414997   0.929   0.346   9.452 -0.2011 -0.2637  0.4999
  119CHL1   H4A14998   1.000   0.261   9.458  3.2433  2.3754 -0.0326
  119CHL1   H4B14999   0.848   0.333   9.527  0.5346 -1.9639  1.0536
  119CHL1    C515000   0.873   0.356   9.304 -0.2300 -0.0306  0.0502
  119CHL1    C615001   0.740   0.346   9.277  0.1138  0.5427  0.2350
  119CHL1    H615002   0.665   0.324   9.355 -1.9684 -1.6442 -2.1781
  119CHL1    C715003   0.681   0.330   9.137 -0.7277  0.7278 -0.0806
  119CHL1   H7A15004   0.599   0.256   9.134  1.8031 -2.2270 -0.8112
  119CHL1   H7B15005   0.638   0.419   9.086 -1.0753  0.3526 -0.4475
  119CHL1    C815006   0.793   0.298   9.032  0.3209  0.7835 -0.4744
  119CHL1    H815007   0.825   0.193   9.049 -0.5034  0.2004 -2.3117
  119CHL1   C1415008   0.734   0.318   8.888  0.3790  0.2174 -0.2312
  119CHL1   H1415009   0.690   0.419   8.875  0.2942  0.1348 -0.5792
  119CHL1   C1515010   0.617   0.222   8.853 -0.5944 -0.5543  0.6798
  119CHL1  H15A15011   0.649   0.120   8.885  2.0792  0.4069  1.2700
  119CHL1  H15B15012   0.520   0.246   8.901 -0.6491  0.8962 -0.1295
  119CHL1   C1615013   0.603   0.245   8.702  0.1788  0.3470 -0.4684
  119CHL1  H16A15014   0.584   0.141   8.669  1.4410  0.1898 -0.7396
  119CHL1  H16B15015   0.527   0.320   8.669  1.7236  1.9573 -0.5532
  119CHL1   C1715016   0.739   0.306   8.658 -1.0681 -0.7381  0.4369
  119CHL1   H1715017   0.714   0.414   8.649 -0.2352 -0.6801 -1.9671
  119CHL1   C1315018   0.833   0.296   8.777  0.0858  0.4741 -0.2934
  119CHL1   C1815019   0.895   0.150   8.780  0.0732 -0.1926 -0.0045
  119CHL1  H18A15020   0.990   0.145   8.722  0.0025  0.1654 -0.1571
  119CHL1  H18B15021   0.928   0.121   8.882  1.9316 -0.4486 -0.6461
  119CHL1  H18C15022   0.833   0.072   8.731  0.4928 -0.4930 -0.0565
  119CHL1   C1215023   0.939   0.404   8.791 -0.1512 -0.2798 -0.1767
  119CHL1  H12A15024   1.011   0.388   8.708 -1.5129  0.0280 -1.4439
  119CHL1  H12B15025   0.893   0.503   8.775  2.7879  1.2848  0.3580
  119CHL1   C1115026   1.007   0.385   8.929  0.6648 -0.4532 -0.0676
  119CHL1  H11A15027   1.066   0.292   8.927  0.1338 -0.8579  1.7188
  119CHL1  H11B15028   1.082   0.467   8.934  1.6152 -1.3581  0.8273
  119CHL1    C915029   0.912   0.387   9.049 -0.1795  0.5263  0.0855
  119CHL1    H915030   0.875   0.491   9.037  1.0941  0.7291 -2.9463
  119CHL1   C1015031   0.977   0.361   9.193 -1.1428 -0.5832  0.0196
  119CHL1   C1915032   1.065   0.241   9.184  0.1118  1.1037  0.3773
  119CHL1  H19A15033   1.122   0.224   9.278  1.0717  0.2087 -0.3447
  119CHL1  H19B15034   1.000   0.155   9.155  0.8207  1.5437 -2.8715
  119CHL1  H19C15035   1.141   0.250   9.104  2.1928 -1.8151  1.8367
  119CHL1    C115036   1.070   0.476   9.229  0.4246 -0.6065  0.1861
  119CHL1   H1A15037   1.153   0.485   9.156  0.2098 -0.8340 -0.0908
  119CHL1   H1B15038   1.004   0.565   9.218  0.8168 -0.3644 -0.2187
  119CHL1    C215039   1.125   0.481   9.369  0.0144 -0.0834 -0.3853
  119CHL1   H2A15040   1.175   0.577   9.397 -2.1506  1.7450 -2.3919
  119CHL1   H2B15041   1.197   0.399   9.392 -2.1064 -1.6643  0.9178
  119CHL1   C2015042   0.791   0.256   8.520  0.6928  0.7285  0.3762
  119CHL1   H2015043   0.841   0.160   8.543 -2.4262 -0.9961  0.3917
  119CHL1   C2115044   0.879   0.358   8.451 -0.2364  0.4591 -0.0852
  119CHL1  H21A15045   0.951   0.310   8.381  3.5815  1.1196  3.0405
  119CHL1  H21B15046   0.942   0.403   8.530  0.0531  0.4759 -0.3222
  119CHL1  H21C15047   0.827   0.444   8.404 -0.8068  0.5712  0.7366
  119CHL1   C2215048   0.677   0.220   8.421 -0.5724 -0.0808 -0.1726
  119CHL1  H22A15049   0.636   0.125   8.461  2.3228 -2.4007 -2.2225
  119CHL1  H22B15050   0.605   0.303   8.406 -0.1599  0.3254  0.0556
  119CHL1   C2315051   0.723   0.173   8.281  0.0095 -0.0336  0.1731
  119CHL1  H23A15052   0.755   0.264   8.225  3.6104 -1.5388 -0.5050
  119CHL1  H23B15053   0.814   0.109   8.281 -0.0154 -0.3055  4.2623
  119CHL1   C2415054   0.608   0.098   8.219  0.2396 -0.6234 -0.5389
  119CHL1  H24A15055   0.572   0.021   8.291 -0.4778 -0.7605 -1.0307
  119CHL1  H24B15056   0.526   0.171   8.203  0.9955  0.1372 -0.9497
  119CHL1   C2515057   0.647   0.019   8.099  0.2199  0.7837  0.4078
  119CHL1   H2515058   0.706  -0.073   8.119 -0.3272 -0.2812 -2.3627
  119CHL1   C2615059   0.517  -0.039   8.040 -0.6454  0.4484  0.1742
  119CHL1  H26A15060   0.454   0.048   8.013  0.2193  0.5807 -1.5827
  119CHL1  H26B15061   0.530  -0.107   7.953  2.2977 -0.0606  0.9295
  119CHL1  H26C15062   0.464  -0.099   8.117 -0.1344  0.9417  0.9178
  119CHL1   C2715063   0.722   0.093   7.995 -0.2905 -0.6614  0.1863
  119CHL1  H27A15064   0.823   0.124   8.030 -0.9070  0.1868  1.2755
  119CHL1  H27B15065   0.741   0.034   7.903  1.4919 -0.9186  0.6781
  119CHL1  H27C15066   0.674   0.188   7.964  0.3119 -0.0060  1.2085
  120CHL1    C315067   6.336   6.377   9.892 -0.0538 -0.2827 -0.3880
  120CHL1    H315068   6.361   6.452   9.814  0.0671 -1.3662 -1.4243
  120CHL1    O315069   6.381   6.409  10.021  0.4284 -0.0437 -0.3489
  120CHL1   H3'15070   6.322   6.474  10.061  0.4910  0.5432 -1.1739
  120CHL1    C415071   6.182   6.366   9.901  0.1848  0.4509  0.4464
  120CHL1   H4A15072   6.167   6.287   9.977  2.0064 -0.4238 -0.0516
  120CHL1   H4B15073   6.152   6.465   9.941  0.5693  0.1429  1.5065
  120CHL1    C515074   6.127   6.333   9.763 -0.2193 -0.3321  0.0450
  120CHL1    C615075   6.049   6.426   9.710 -0.0002  0.1377 -0.0529
  120CHL1    H615076   6.001   6.508   9.766 -1.4109  1.2653 -2.7220
  120CHL1    C715077   5.987   6.407   9.579  0.3309  0.2820  0.0702
  120CHL1   H7A15078   5.877   6.421   9.580  0.5484  2.3792  0.2084
  120CHL1   H7B15079   6.019   6.490   9.512 -1.4506 -1.0258 -2.5933
  120CHL1    C815080   6.013   6.270   9.508 -0.8930 -0.5075 -0.8503
  120CHL1    H815081   5.951   6.194   9.561  1.7922 -1.2746  1.4804
  120CHL1   C1415082   5.979   6.273   9.369 -0.0293  0.1705 -0.4039
  120CHL1   H1415083   6.056   6.344   9.333  0.6092  0.5118  1.5286
  120CHL1   C1515084   5.843   6.340   9.319 -0.3247 -0.0097  0.3149
  120CHL1  H15A15085   5.756   6.285   9.360  0.3229 -1.5630 -0.3359
  120CHL1  H15B15086   5.834   6.450   9.336  1.7407  0.3507 -0.5754
  120CHL1   C1615087   5.838   6.301   9.169 -0.3225 -0.1615 -0.6562
  120CHL1  H16A15088   5.734   6.264   9.154 -0.3342 -0.3859 -0.0346
  120CHL1  H16B15089   5.861   6.385   9.100 -2.3071 -0.7210 -2.0765
  120CHL1   C1715090   5.947   6.190   9.152 -0.4122 -0.5527 -0.3584
  120CHL1   H1715091   6.039   6.244   9.121 -0.0710 -0.2817  1.0396
  120CHL1   C1315092   5.994   6.136   9.292 -0.2015 -0.3744 -0.0710
  120CHL1   C1815093   5.898   6.037   9.357  0.5162 -0.0374  0.6942
  120CHL1  H18A15094   5.924   6.023   9.465 -1.2346  0.9050  1.2734
  120CHL1  H18B15095   5.794   6.076   9.354  0.6627  0.2915 -1.8627
  120CHL1  H18C15096   5.914   5.941   9.303  2.3423 -0.2713  1.5540
  120CHL1   C1215097   6.147   6.104   9.300  0.0709 -0.0809 -0.8833
  120CHL1  H12A15098   6.167   6.010   9.246  0.2940  0.4785 -1.7999
  120CHL1  H12B15099   6.191   6.197   9.257 -0.1080  0.4251  0.0016
  120CHL1   C1115100   6.199   6.097   9.446  0.7945 -0.3567 -0.5107
  120CHL1  H11A15101   6.149   6.009   9.492  1.3677 -1.1701 -1.4103
  120CHL1  H11B15102   6.308   6.079   9.453  0.5117 -1.5380  2.1465
  120CHL1    C915103   6.157   6.223   9.535 -0.2976  0.5648 -0.1358
  120CHL1    H915104   6.216   6.304   9.487  1.4187  0.0897  1.0977
  120CHL1   C1015105   6.187   6.215   9.691 -0.1223  1.1911 -0.0077
  120CHL1   C1915106   6.124   6.082   9.753  0.3755 -0.8864  0.6587
  120CHL1  H19A15107   6.146   6.002   9.679 -3.2478  0.3547 -2.0675
  120CHL1  H19B15108   6.168   6.069   9.853  2.7256  1.6645  0.0775
  120CHL1  H19C15109   6.013   6.093   9.746  0.5000  0.0282 -0.1400
  120CHL1    C115110   6.344   6.207   9.702 -0.0723  0.0705 -0.1380
  120CHL1   H1A15111   6.384   6.112   9.660 -1.0815 -0.9029  1.0164
  120CHL1   H1B15112   6.395   6.286   9.644 -0.7834 -0.1040 -1.0290
  120CHL1    C215113   6.388   6.236   9.845  0.3944 -0.1461 -1.0752
  120CHL1   H2A15114   6.499   6.238   9.844  0.3916  0.4432 -0.8529
  120CHL1   H2B15115   6.350   6.162   9.919  1.0945  1.0643  0.5513
  120CHL1   C2015116   5.913   6.099   9.036  0.5117  0.4115 -0.3315
  120CHL1   H2015117   5.826   6.046   9.080 -0.2600  2.0711  0.2359
  120CHL1   C2115118   6.025   5.992   9.009  0.0396 -0.1980 -0.1698
  120CHL1  H21A15119   5.986   5.928   8.928 -1.9749  1.3496 -0.4949
  120CHL1  H21B15120   6.049   5.932   9.100  2.9166 -0.1720 -0.8173
  120CHL1  H21C15121   6.123   6.041   8.991  2.2662 -3.9616  0.8433
  120CHL1   C2215122   5.882   6.179   8.907 -0.4118 -0.6678  0.1430
  120CHL1  H22A15123   5.812   6.263   8.930  1.4220  0.4805  1.8501
  120CHL1  H22B15124   5.970   6.238   8.873 -1.3283  0.9347  0.4298
  120CHL1   C2315125   5.838   6.095   8.790 -0.3640 -0.2639 -0.2116
  120CHL1  H23A15126   5.914   6.019   8.759  0.8982  0.0104  1.9922
  120CHL1  H23B15127   5.740   6.048   8.814 -0.3886 -1.4907 -2.3985
  120CHL1   C2415128   5.796   6.183   8.663  0.8778  0.5341 -0.1617
  120CHL1  H24A15129   5.704   6.237   8.694  1.3406  1.3627 -0.2224
  120CHL1  H24B15130   5.875   6.255   8.634 -0.0745  1.4322 -0.5810
  120CHL1   C2515131   5.749   6.113   8.530 -0.1882 -0.3354 -0.4075
  120CHL1   H2515132   5.647   6.071   8.540  0.0271 -0.9808 -0.8573
  120CHL1   C2615133   5.736   6.213   8.416 -0.0333  0.3182  0.8906
  120CHL1  H26A15134   5.826   6.276   8.401  0.2664 -0.2504  0.2023
  120CHL1  H26B15135   5.707   6.163   8.321 -0.0615  2.5237 -0.3141
  120CHL1  H26C15136   5.645   6.271   8.443 -0.8505 -0.3641 -0.2858
  120CHL1   C2715137   5.849   6.004   8.498 -0.2810 -0.1745  0.3471
  120CHL1  H27A15138   5.862   5.931   8.580 -0.5062  0.2550  0.7689
  120CHL1  H27B15139   5.816   5.953   8.405  1.6231 -0.1411 -0.4015
  120CHL1  H27C15140   5.942   6.061   8.477 -1.1993  1.4278  0.4835
  121CHL1    C315141   3.957   3.258   5.642 -0.0606 -0.3289  0.3385
  121CHL1    H315142   3.885   3.174   5.631 -0.1961 -0.6730  3.1207
  121CHL1    O315143   4.016   3.312   5.524 -0.1207 -0.5399  0.2209
  121CHL1   H3'15144   4.079   3.373   5.563 -0.8155 -0.2815  0.9630
  121CHL1    C415145   3.896   3.372   5.724 -0.2331  0.1079 -0.8474
  121CHL1   H4A15146   3.950   3.467   5.743  0.9164 -0.7724  0.4529
  121CHL1   H4B15147   3.803   3.397   5.668 -0.9419  0.5764  0.5026
  121CHL1    C515148   3.857   3.312   5.860 -0.1431  0.0252  0.1694
  121CHL1    C615149   3.730   3.310   5.899  0.0349  0.4136 -0.2257
  121CHL1    H615150   3.649   3.353   5.838  0.1880  0.4911 -0.3771
  121CHL1    C715151   3.690   3.273   6.037 -0.0832  0.1035 -0.3270
  121CHL1   H7A15152   3.631   3.357   6.080 -1.7563 -1.4269  0.4829
  121CHL1   H7B15153   3.631   3.179   6.036  0.6957 -0.4776  1.7386
  121CHL1    C815154   3.811   3.265   6.136  1.0447 -0.0806 -0.2899
  121CHL1    H815155   3.839   3.372   6.152  0.8466  0.7458 -4.4156
  121CHL1   C1415156   3.769   3.191   6.267  0.2039  0.1333 -0.3817
  121CHL1   H1415157   3.726   3.092   6.238  0.4046 -0.7110  1.9744
  121CHL1   C1515158   3.653   3.261   6.348  0.5506  0.1664  0.0117
  121CHL1  H15A15159   3.656   3.372   6.339 -0.1117  0.1921  0.0090
  121CHL1  H15B15160   3.551   3.230   6.315  0.6252  0.5119 -0.5675
  121CHL1   C1615161   3.668   3.203   6.487 -0.3045 -0.0473 -0.5074
  121CHL1  H16A15162   3.674   3.282   6.563 -2.6118 -0.4035  0.1196
  121CHL1  H16B15163   3.582   3.140   6.517 -0.8330 -0.0078 -1.8412
  121CHL1   C1715164   3.806   3.119   6.487 -0.6038  0.3454  0.7377
  121CHL1   H1715165   3.770   3.022   6.447 -0.3553  0.1711  0.9374
  121CHL1   C1315166   3.885   3.174   6.367 -0.7015 -0.4683  0.0299
  121CHL1   C1815167   3.938   3.308   6.413 -0.3025  0.4087 -0.6186
  121CHL1  H18A15168   3.981   3.363   6.327  1.8776 -0.7649 -0.3464
  121CHL1  H18B15169   3.858   3.368   6.462  0.9563  0.7890  1.0695
  121CHL1  H18C15170   4.012   3.297   6.495 -1.9108 -0.1858  0.8248
  121CHL1   C1215171   3.993   3.089   6.300  0.3425  0.3155  0.5351
  121CHL1  H12A15172   4.083   3.075   6.364  1.3594 -1.2953 -1.1636
  121CHL1  H12B15173   3.954   2.987   6.279  3.8432 -1.2169  0.8096
  121CHL1   C1115174   4.043   3.156   6.171 -0.1006  0.8145 -0.3774
  121CHL1  H11A15175   4.089   3.250   6.207 -1.4894  1.5217 -0.3862
  121CHL1  H11B15176   4.117   3.089   6.122 -0.0939  1.3142 -1.0557
  121CHL1    C915177   3.929   3.185   6.074  0.1869 -0.2604  1.0141
  121CHL1    H915178   3.888   3.086   6.043 -1.4624  1.1462 -1.6925
  121CHL1   C1015179   3.978   3.255   5.943 -0.7416 -0.1479  0.3246
  121CHL1   C1915180   4.073   3.375   5.979 -0.5241  0.0112 -0.4196
  121CHL1  H19A15181   4.020   3.441   6.051  0.6454  0.1963  0.2968
  121CHL1  H19B15182   4.162   3.357   6.042 -0.7898  1.8713  0.5628
  121CHL1  H19C15183   4.102   3.435   5.890  0.7792  1.3153  0.8330
  121CHL1    C115184   4.032   3.145   5.843  0.6221 -0.2182 -0.6842
  121CHL1   H1A15185   4.120   3.094   5.890  0.5605  0.1560 -0.1506
  121CHL1   H1B15186   3.952   3.068   5.840  1.3641 -1.0022 -0.7600
  121CHL1    C215187   4.076   3.197   5.710  0.3180  0.9021 -0.1145
  121CHL1   H2A15188   4.121   3.119   5.645 -0.7580  0.2589 -0.0971
  121CHL1   H2B15189   4.157   3.270   5.734  0.0891  1.4245 -0.8817
  121CHL1   C2015190   3.871   3.101   6.630 -0.8768  0.0233  0.9539
  121CHL1   H2015191   3.910   3.205   6.642  1.6094 -0.3522 -2.5110
  121CHL1   C2115192   3.993   3.009   6.619 -0.0058 -0.2970 -0.8827
  121CHL1  H21A15193   4.077   3.058   6.566 -0.0742  0.9496  0.1184
  121CHL1  H21B15194   3.970   2.906   6.582  0.4156 -0.5199 -0.5331
  121CHL1  H21C15195   4.037   2.990   6.720  4.7032  0.9559 -2.4645
  121CHL1   C2215196   3.766   3.066   6.737  0.3498  0.1805  0.3273
  121CHL1  H22A15197   3.693   3.149   6.752 -1.5345 -0.9317 -2.0436
  121CHL1  H22B15198   3.707   2.978   6.704 -1.6824  1.8572 -0.8224
  121CHL1   C2315199   3.817   3.034   6.879  0.7742  0.3050 -0.4459
  121CHL1  H23A15200   3.885   2.945   6.881 -1.0404 -1.1277  0.3422
  121CHL1  H23B15201   3.893   3.103   6.922  1.6965 -1.5091  1.0266
  121CHL1   C2415202   3.712   3.000   6.985  0.6133  0.0488 -0.1170
  121CHL1  H24A15203   3.646   2.915   6.960 -1.2270  0.5131  2.7789
  121CHL1  H24B15204   3.756   2.957   7.078 -2.1016 -2.1172  0.2903
  121CHL1   C2515205   3.605   3.106   7.020 -0.3304  0.1189 -0.3715
  121CHL1   H2515206   3.557   3.142   6.926 -0.1918  0.4141 -0.3282
  121CHL1   C2615207   3.503   3.038   7.111 -0.0211 -0.4333 -0.0974
  121CHL1  H26A15208   3.432   3.121   7.135  0.7699  1.2928 -3.1422
  121CHL1  H26B15209   3.439   2.963   7.061  0.7323 -0.4061 -1.1444
  121CHL1  H26C15210   3.538   2.985   7.202 -1.4099  1.8477  1.9187
  121CHL1   C2715211   3.671   3.238   7.078  0.6725  0.2689 -0.3738
  121CHL1  H27A15212   3.595   3.319   7.078 -0.7409 -1.0033  0.2765
  121CHL1  H27B15213   3.709   3.226   7.182  1.1717  0.4196 -0.5349
  121CHL1  H27C15214   3.757   3.270   7.016  0.1225  0.2205 -1.1747
  122CHL1    C315215   2.347   3.493   5.776 -0.0472  0.5775  0.1148
  122CHL1    H315216   2.295   3.394   5.775 -0.5553  0.8339  0.6566
  122CHL1    O315217   2.378   3.527   5.642 -0.4923  0.5858 -0.5977
  122CHL1   H3'15218   2.451   3.590   5.644  0.7475 -0.8152  0.2270
  122CHL1    C415219   2.235   3.579   5.832 -0.2215  0.0628 -0.7000
  122CHL1   H4A15220   2.260   3.686   5.816 -0.7632  0.5959  1.5889
  122CHL1   H4B15221   2.143   3.564   5.772  1.2294 -0.7578 -2.8243
  122CHL1    C515222   2.210   3.554   5.982  0.1236 -0.7981  0.6806
  122CHL1    C615223   2.089   3.515   6.030 -0.2290  0.1167  0.1604
  122CHL1    H615224   2.009   3.488   5.960 -2.1224 -0.0908  2.2749
  122CHL1    C715225   2.064   3.503   6.175 -0.3398  0.2939 -0.2843
  122CHL1   H7A15226   1.964   3.539   6.205  0.2253  2.8213 -1.1913
  122CHL1   H7B15227   2.072   3.398   6.210  1.3070  0.9278  1.4856
  122CHL1    C815228   2.168   3.563   6.270  0.5122 -0.4612  0.0864
  122CHL1    H815229   2.147   3.672   6.269 -0.2765 -0.6012 -1.1084
  122CHL1   C1415230   2.150   3.503   6.413 -0.4986  0.9003  0.8154
  122CHL1   H1415231   2.178   3.396   6.400 -2.7408  0.2201  1.2310
  122CHL1   C1515232   2.009   3.513   6.472 -0.6684  0.1061  0.4509
  122CHL1  H15A15233   1.984   3.617   6.442  0.9945 -0.1872 -2.2485
  122CHL1  H15B15234   1.933   3.441   6.433 -0.7479  0.5494 -0.2372
  122CHL1   C1615235   2.039   3.486   6.622  0.2377 -0.3887 -0.0984
  122CHL1  H16A15236   1.997   3.570   6.681  3.3197  1.6008 -0.5318
  122CHL1  H16B15237   1.998   3.387   6.654 -1.0701  0.2741  0.3334
  122CHL1   C1715238   2.193   3.491   6.645  0.2219  0.5452 -0.3115
  122CHL1   H1715239   2.228   3.385   6.639 -0.3596  0.4381 -3.0028
  122CHL1   C1315240   2.248   3.562   6.520  0.0301 -0.1220 -0.5689
  122CHL1   C1815241   2.230   3.715   6.533 -0.1348 -0.1979  0.4835
  122CHL1  H18A15242   2.256   3.767   6.439  0.5200 -0.4369  0.5254
  122CHL1  H18B15243   2.125   3.744   6.555 -0.9233 -1.2011 -1.7034
  122CHL1  H18C15244   2.304   3.747   6.610 -0.4731  0.4859  0.5229
  122CHL1   C1215245   2.381   3.510   6.472 -0.1468  0.6003  0.0142
  122CHL1  H12A15246   2.461   3.529   6.548 -0.7802  0.8556  0.6222
  122CHL1  H12B15247   2.379   3.399   6.464  1.6870  0.4958  0.4607
  122CHL1   C1115248   2.421   3.564   6.333  0.1665  0.0620  0.1488
  122CHL1  H11A15249   2.413   3.675   6.324 -0.0654 -0.0481 -1.3005
  122CHL1  H11B15250   2.519   3.518   6.306  0.3721 -0.2465  1.3662
  122CHL1    C915251   2.310   3.527   6.221 -0.3356  0.0150 -0.3408
  122CHL1    H915252   2.315   3.416   6.211 -1.6184  0.1688 -3.6579
  122CHL1   C1015253   2.339   3.567   6.076  0.0266 -0.6223 -0.1102
  122CHL1   C1915254   2.394   3.708   6.074 -0.5312 -0.8264 -0.2483
  122CHL1  H19A15255   2.496   3.717   6.117 -0.4193  0.8576 -0.7802
  122CHL1  H19B15256   2.387   3.745   5.970 -1.3187 -0.7225 -0.1670
  122CHL1  H19C15257   2.334   3.773   6.141  0.3647 -1.0214  0.7793
  122CHL1    C115258   2.446   3.471   6.014  0.5959 -0.3672  0.1479
  122CHL1   H1A15259   2.540   3.469   6.073  1.0893 -1.2871 -0.6323
  122CHL1   H1B15260   2.394   3.373   6.024  0.3172 -0.0776  1.7731
  122CHL1    C215261   2.471   3.496   5.863 -0.6297  0.0235 -0.2902
  122CHL1   H2A15262   2.553   3.430   5.829 -0.7701 -0.9291  1.1099
  122CHL1   H2B15263   2.513   3.598   5.852  0.1329 -0.4734 -2.2802
  122CHL1   C2015264   2.228   3.548   6.783 -0.1122 -0.5717 -0.5755
  122CHL1   H2015265   2.203   3.655   6.770  0.5974 -0.4931 -1.3635
  122CHL1   C2115266   2.379   3.523   6.826  0.4320  0.2405 -0.7401
  122CHL1  H21A15267   2.398   3.416   6.807 -1.0861 -0.1485 -0.1933
  122CHL1  H21B15268   2.390   3.540   6.935  0.4929 -0.7119 -0.5965
  122CHL1  H21C15269   2.452   3.577   6.762  2.6807 -1.3206  0.3668
  122CHL1   C2215270   2.149   3.508   6.911 -0.2404 -0.5923 -0.0210
  122CHL1  H22A15271   2.196   3.550   7.002 -1.3968 -1.5639  1.0558
  122CHL1  H22B15272   2.048   3.551   6.897 -0.2871  0.4076  2.7300
  122CHL1   C2315273   2.156   3.355   6.935 -0.5272 -0.4078 -0.0528
  122CHL1  H23A15274   2.118   3.287   6.857  0.9565 -0.7903 -0.4678
  122CHL1  H23B15275   2.261   3.327   6.958 -1.1382 -2.9026 -0.0476
  122CHL1   C2415276   2.069   3.327   7.059 -0.4909  0.6791  0.2617
  122CHL1  H24A15277   2.131   3.330   7.151 -0.1367 -1.7660  0.1762
  122CHL1  H24B15278   1.983   3.395   7.076 -0.8746 -0.2680  2.3123
  122CHL1   C2515279   2.013   3.178   7.055  0.1888 -0.0481 -0.1581
  122CHL1   H2515280   2.102   3.119   7.024  0.1422  0.2627 -0.8978
  122CHL1   C2615281   1.972   3.140   7.195  0.1068 -0.2936  0.2812
  122CHL1  H26A15282   1.985   3.030   7.205 -0.3430 -0.3296  0.5272
  122CHL1  H26B15283   2.053   3.177   7.261 -0.3814 -0.5196  1.0122
  122CHL1  H26C15284   1.870   3.174   7.222  0.1667 -0.5047  0.7861
  122CHL1   C2715285   1.897   3.164   6.958  0.1208  0.1508 -0.0701
  122CHL1  H27A15286   1.804   3.207   7.001 -0.7467 -0.7090 -1.0541
  122CHL1  H27B15287   1.920   3.230   6.872 -2.4868  1.4358  0.1479
  122CHL1  H27C15288   1.882   3.056   6.938 -2.4739  0.6372 -1.1607
  123CHL1    C315289   4.950   4.100   5.656 -0.0565  0.4853  0.3071
  123CHL1    H315290   4.860   4.165   5.657 -0.4818 -0.0819  1.6912
  123CHL1    O315291   5.026   4.112   5.534 -0.5421  0.5944  0.4185
  123CHL1   H3'15292   4.984   4.063   5.463  1.6318 -3.3431  1.5529
  123CHL1    C415293   5.042   4.136   5.779 -0.4422 -0.0139  1.2615
  123CHL1   H4A15294   5.136   4.076   5.772 -0.6416 -0.2401  0.3534
  123CHL1   H4B15295   5.068   4.244   5.768  0.3848 -0.3739 -0.6994
  123CHL1    C515296   4.971   4.100   5.906  0.4162  0.0518 -0.0742
  123CHL1    C615297   4.956   4.192   6.001  0.3635  0.4882  0.4507
  123CHL1    H615298   4.979   4.299   5.990 -1.4072  0.7126 -1.5115
  123CHL1    C715299   4.904   4.155   6.137 -0.0046 -0.0208 -0.4280
  123CHL1   H7A15300   4.961   4.200   6.221  2.0772 -1.8614 -0.7357
  123CHL1   H7B15301   4.799   4.188   6.127  0.0023  0.0590 -0.2298
  123CHL1    C815302   4.894   4.000   6.170  0.0541 -0.4621  0.2364
  123CHL1    H815303   4.995   3.955   6.185 -1.1994 -3.8490 -0.4854
  123CHL1   C1415304   4.801   3.965   6.294  0.0766 -0.5090 -0.3869
  123CHL1   H1415305   4.703   3.999   6.254 -0.4251 -1.7288 -0.2170
  123CHL1   C1515306   4.812   4.056   6.420  0.0803  0.3912  0.5831
  123CHL1  H15A15307   4.917   4.064   6.457  0.0186 -0.4804  0.9730
  123CHL1  H15B15308   4.768   4.157   6.402  0.0133  0.9247  3.2611
  123CHL1   C1615309   4.736   3.963   6.521 -0.4853  0.4054 -0.2292
  123CHL1  H16A15310   4.809   3.951   6.604 -1.1243 -0.5026  0.2128
  123CHL1  H16B15311   4.653   4.016   6.571 -0.7261  1.3236 -1.5540
  123CHL1   C1715312   4.703   3.827   6.458  0.4855 -0.2943 -0.4134
  123CHL1   H1715313   4.599   3.828   6.419  0.3799 -2.6049 -0.2927
  123CHL1   C1315314   4.788   3.819   6.335 -0.0803 -0.1086  0.8186
  123CHL1   C1815315   4.927   3.762   6.366  0.3277 -0.1466  0.1332
  123CHL1  H18A15316   4.994   3.770   6.277  1.9512  1.7180  1.4341
  123CHL1  H18B15317   4.970   3.822   6.449 -2.0319  0.1411  1.1933
  123CHL1  H18C15318   4.912   3.655   6.391  0.8773 -0.2258  0.1487
  123CHL1   C1215319   4.734   3.747   6.209  0.1493  0.7229  0.9621
  123CHL1  H12A15320   4.737   3.637   6.225  2.2016  0.9489  2.6077
  123CHL1  H12B15321   4.626   3.775   6.211  0.7561  3.3907  0.2141
  123CHL1   C1115322   4.805   3.779   6.075 -0.4752 -0.1839 -0.0967
  123CHL1  H11A15323   4.906   3.732   6.085  0.8410  2.5706  0.5963
  123CHL1  H11B15324   4.753   3.726   5.992  0.6992 -1.7236  0.0863
  123CHL1    C915325   4.839   3.928   6.040 -0.7789 -0.7504 -0.1165
  123CHL1    H915326   4.738   3.968   6.015 -0.0511  0.3635 -1.4683
  123CHL1   C1015327   4.932   3.954   5.919  0.1867 -0.1399  0.0976
  123CHL1   C1915328   5.055   3.869   5.926 -0.0976  0.1728  0.4075
  123CHL1  H19A15329   5.126   3.883   5.842 -0.1699  1.9067  0.6069
  123CHL1  H19B15330   5.110   3.890   6.021  0.1479  1.5974 -0.0294
  123CHL1  H19C15331   5.027   3.761   5.924  2.4971 -0.5631  0.2241
  123CHL1    C115332   4.852   3.907   5.794 -0.2493  0.0127  0.8914
  123CHL1   H1A15333   4.822   3.800   5.796 -0.6471  0.1280  1.1208
  123CHL1   H1B15334   4.752   3.955   5.802 -1.1635 -1.6176 -0.1967
  123CHL1    C215335   4.908   3.954   5.657  0.3007  0.3610 -0.8874
  123CHL1   H2A15336   4.831   3.940   5.578 -1.9868  1.7980  0.9384
  123CHL1   H2B15337   4.990   3.886   5.627 -0.1667 -0.2890 -0.6929
  123CHL1   C2015338   4.706   3.709   6.558  0.7593  0.1460 -0.2565
  123CHL1   H2015339   4.810   3.712   6.598  0.9073  2.7770 -0.6788
  123CHL1   C2115340   4.666   3.573   6.491 -0.2750 -0.0228 -0.5288
  123CHL1  H21A15341   4.736   3.558   6.406 -1.0118  0.2131 -1.1940
  123CHL1  H21B15342   4.562   3.581   6.451 -0.8003  1.6798  1.0875
  123CHL1  H21C15343   4.672   3.485   6.559 -0.7797  0.5269  0.2326
  123CHL1   C2215344   4.615   3.739   6.679 -0.1026  0.2066 -0.4096
  123CHL1  H22A15345   4.655   3.831   6.728 -0.5962 -0.2416  0.8724
  123CHL1  H22B15346   4.510   3.746   6.644 -0.1648 -0.8843 -0.4616
  123CHL1   C2315347   4.626   3.640   6.799 -0.0326 -0.1311 -0.1199
  123CHL1  H23A15348   4.584   3.541   6.772 -1.4257  0.6494 -0.9469
  123CHL1  H23B15349   4.726   3.642   6.848  0.3979  1.5866 -0.9867
  123CHL1   C2415350   4.530   3.685   6.912  0.0089  0.2852  0.2258
  123CHL1  H24A15351   4.553   3.788   6.948  2.7884 -0.5133  1.0179
  123CHL1  H24B15352   4.431   3.673   6.863  0.4181 -0.8536 -0.3571
  123CHL1   C2515353   4.537   3.605   7.042 -0.4018  0.3595  0.4966
  123CHL1   H2515354   4.637   3.626   7.086  0.9526  1.1686 -2.6788
  123CHL1   C2615355   4.435   3.646   7.143 -0.9102  0.5467 -0.7818
  123CHL1  H26A15356   4.440   3.756   7.157  0.9038  0.4885 -0.7341
  123CHL1  H26B15357   4.336   3.614   7.105 -1.2474 -0.3065  0.7331
  123CHL1  H26C15358   4.460   3.604   7.243  0.7244  4.3611  0.6198
  123CHL1   C2715359   4.522   3.454   7.013  0.4309  0.0787 -0.3825
  123CHL1  H27A15360   4.530   3.397   7.108  2.2406  0.1234 -0.4703
  123CHL1  H27B15361   4.426   3.434   6.960 -0.0899  0.8915  0.2546
  123CHL1  H27C15362   4.602   3.405   6.953  1.0084 -0.7046  0.9903
  124CHL1    C315363   3.617   4.383   5.798 -0.2591  0.1775  0.6622
  124CHL1    H315364   3.721   4.415   5.775 -0.4376  1.4412  1.5031
  124CHL1    O315365   3.537   4.388   5.685 -0.4023  0.3141 -0.2918
  124CHL1   H3'15366   3.563   4.318   5.625  0.9278  0.2838  0.2938
  124CHL1    C415367   3.617   4.241   5.857  0.5227 -0.1521 -0.6813
  124CHL1   H4A15368   3.511   4.208   5.863  0.6408 -0.6924 -1.5015
  124CHL1   H4B15369   3.668   4.169   5.790 -0.0540 -0.4506 -0.8010
  124CHL1    C515370   3.674   4.240   5.999  0.4375  0.1203 -0.1138
  124CHL1    C615371   3.778   4.155   6.031  0.8110 -0.3577  0.1647
  124CHL1    H615372   3.809   4.084   5.952  1.2567  1.4836 -1.3987
  124CHL1    C715373   3.828   4.131   6.167  0.0822 -0.4034 -0.0945
  124CHL1   H7A15374   3.847   4.023   6.185  0.1688 -0.3240  0.3070
  124CHL1   H7B15375   3.925   4.185   6.171 -0.3922  0.4417  0.0782
  124CHL1    C815376   3.732   4.187   6.275 -0.1699 -0.1173  0.3329
  124CHL1    H815377   3.641   4.123   6.282 -0.9891  1.0756  1.0392
  124CHL1   C1415378   3.804   4.188   6.414 -0.3172 -0.1698 -0.2466
  124CHL1   H1415379   3.894   4.252   6.404  1.4179 -2.0260  2.3556
  124CHL1   C1515380   3.868   4.058   6.464 -0.2058 -0.3817  0.0381
  124CHL1  H15A15381   3.801   3.971   6.447 -0.0265 -0.7980  1.2959
  124CHL1  H15B15382   3.969   4.053   6.417  1.0919 -1.2613  2.6633
  124CHL1   C1615383   3.883   4.086   6.618  0.0408  0.4254  0.0804
  124CHL1  H16A15384   3.831   3.999   6.663  2.0850 -1.8270 -1.6246
  124CHL1  H16B15385   3.985   4.063   6.654 -0.0286 -1.6778 -0.9081
  124CHL1   C1715386   3.832   4.232   6.641 -0.6443  0.5235  0.0545
  124CHL1   H1715387   3.916   4.298   6.609  1.3496 -1.9498 -0.1975
  124CHL1   C1315388   3.728   4.249   6.527  0.3480  0.7040 -0.8359
  124CHL1   C1815389   3.605   4.159   6.568 -0.0651  0.1379 -0.8291
  124CHL1  H18A15390   3.541   4.136   6.480  1.0750 -0.7584 -1.4518
  124CHL1  H18B15391   3.628   4.056   6.604 -0.7356  0.4590  0.5618
  124CHL1  H18C15392   3.538   4.195   6.649  2.6124 -0.3954  1.7994
  124CHL1   C1215393   3.698   4.390   6.490 -0.4086 -0.3018  0.7164
  124CHL1  H12A15394   3.656   4.448   6.575  1.0136 -0.4819  1.5682
  124CHL1  H12B15395   3.793   4.445   6.472 -0.9264  0.1844 -0.7175
  124CHL1   C1115396   3.611   4.402   6.357  0.4014 -0.3654 -0.3263
  124CHL1  H11A15397   3.508   4.370   6.382 -0.1237  1.0938 -0.5197
  124CHL1  H11B15398   3.604   4.507   6.321  0.9112  0.8245  2.7655
  124CHL1    C915399   3.689   4.329   6.242  0.3169  0.3078 -0.7181
  124CHL1    H915400   3.784   4.381   6.220 -0.4809  1.1513 -2.4363
  124CHL1   C1015401   3.613   4.333   6.102 -0.2619  0.5206 -0.7018
  124CHL1   C1915402   3.465   4.283   6.119 -0.3903  0.0152  0.0082
  124CHL1  H19A15403   3.426   4.344   6.203 -0.1224 -1.0554  0.9363
  124CHL1  H19B15404   3.415   4.303   6.022  0.6585  2.6937 -0.0664
  124CHL1  H19C15405   3.463   4.176   6.150  0.3746  0.5178  1.9562
  124CHL1    C115406   3.613   4.477   6.039  0.1467  1.0848  0.0414
  124CHL1   H1A15407   3.548   4.537   6.106  1.5012  1.2877  1.2296
  124CHL1   H1B15408   3.718   4.513   6.043 -0.1770  1.9244  1.6481
  124CHL1    C215409   3.551   4.476   5.902 -0.3157 -0.4351  0.5514
  124CHL1   H2A15410   3.563   4.579   5.862  0.2597 -0.7751 -0.1702
  124CHL1   H2B15411   3.441   4.461   5.910 -0.1452 -0.7271  3.2625
  124CHL1   C2015412   3.790   4.271   6.786 -0.1479 -0.3530 -0.0224
  124CHL1   H2015413   3.689   4.317   6.780 -0.1124 -0.3915 -0.9823
  124CHL1   C2115414   3.897   4.375   6.841  0.4499  1.1118  0.3466
  124CHL1  H21A15415   3.909   4.463   6.775 -1.1030  1.0052 -0.1263
  124CHL1  H21B15416   3.995   4.323   6.849  1.1924  1.9388 -2.3561
  124CHL1  H21C15417   3.862   4.417   6.937  0.1612 -0.3247  0.8895
  124CHL1   C2215418   3.776   4.161   6.892 -0.2319  0.4269  0.0815
  124CHL1  H22A15419   3.738   4.071   6.839 -0.8627  0.2681  0.7847
  124CHL1  H22B15420   3.882   4.140   6.918  0.4821  1.1919 -2.0524
  124CHL1   C2315421   3.691   4.190   7.018 -0.0914 -0.2604  0.0725
  124CHL1  H23A15422   3.724   4.287   7.061 -1.4248  0.8009 -1.1903
  124CHL1  H23B15423   3.583   4.207   6.999  0.1009  2.6147  1.0212
  124CHL1   C2415424   3.709   4.087   7.137  0.5502  0.8110 -0.0307
  124CHL1  H24A15425   3.663   3.990   7.111  1.3769  0.2101  0.7002
  124CHL1  H24B15426   3.816   4.065   7.157  0.2704  0.1072  0.7495
  124CHL1   C2515427   3.645   4.138   7.270  0.5792 -0.1761  0.6631
  124CHL1   H2515428   3.543   4.176   7.247  0.7939  0.8792  1.4242
  124CHL1   C2615429   3.641   4.018   7.368  0.3566 -0.9306 -0.0448
  124CHL1  H26A15430   3.597   4.057   7.462 -1.9690 -0.9703 -1.0499
  124CHL1  H26B15431   3.572   3.940   7.329 -1.8328  1.2532 -0.8156
  124CHL1  H26C15432   3.736   3.967   7.394  0.5447  1.3144  4.6681
  124CHL1   C2715433   3.722   4.249   7.331 -0.2753  0.1793 -0.0266
  124CHL1  H27A15434   3.669   4.305   7.411  2.9727  1.2709  1.5242
  124CHL1  H27B15435   3.809   4.204   7.384  1.6980  2.2093 -1.3836
  124CHL1  H27C15436   3.762   4.328   7.264  0.0579  0.0861  0.0596
  125CHL1    C315437   3.985   4.451   5.960 -0.3673 -0.2323 -0.4653
  125CHL1    H315438   3.904   4.410   6.025  1.6775  1.3682  3.4307
  125CHL1    O315439   3.964   4.435   5.825  0.0850  0.1886  0.7913
  125CHL1   H3'15440   4.028   4.491   5.780  1.7630 -1.0727  1.4991
  125CHL1    C415441   3.978   4.608   5.989  0.1975  0.3476  0.2213
  125CHL1   H4A15442   4.054   4.645   5.917  2.5723 -3.4380  0.5473
  125CHL1   H4B15443   3.872   4.635   5.966 -1.1222 -1.0144  3.9511
  125CHL1    C515444   4.009   4.635   6.134 -0.6139 -0.1602  0.2912
  125CHL1    C615445   3.932   4.718   6.207  0.0583  0.3711  0.0765
  125CHL1    H615446   3.842   4.763   6.161 -1.8674 -0.2837  2.9514
  125CHL1    C715447   3.959   4.766   6.345 -0.1528 -0.0706  0.1172
  125CHL1   H7A15448   3.973   4.876   6.342 -0.4521  0.0106  1.1549
  125CHL1   H7B15449   3.876   4.744   6.415 -0.9234 -2.3383 -1.4021
  125CHL1    C815450   4.093   4.715   6.401  0.2116 -0.2501 -0.5729
  125CHL1    H815451   4.172   4.789   6.377  0.4328  0.5353  2.2052
  125CHL1   C1415452   4.087   4.716   6.554  0.4486 -0.0067  0.1774
  125CHL1   H1415453   4.011   4.637   6.575  0.8189 -0.4776 -0.2218
  125CHL1   C1515454   4.027   4.828   6.637  0.5790 -0.5012 -0.5259
  125CHL1  H15A15455   4.053   4.931   6.603  0.6198 -0.1529  0.5307
  125CHL1  H15B15456   3.917   4.821   6.635  0.3488  2.0190 -0.1976
  125CHL1   C1615457   4.075   4.801   6.783  0.3305  0.4205  0.0531
  125CHL1  H16A15458   4.111   4.891   6.836  1.2300  0.5888 -0.8192
  125CHL1  H16B15459   3.988   4.761   6.840  0.4321 -0.9317 -0.6831
  125CHL1   C1715460   4.179   4.681   6.770  0.1251  0.0784 -0.1662
  125CHL1   H1715461   4.130   4.585   6.795  0.2730  0.4612  1.6992
  125CHL1   C1315462   4.220   4.675   6.619  0.0330 -0.0074  0.3583
  125CHL1   C1815463   4.323   4.788   6.590 -0.2788  0.2220 -0.2881
  125CHL1  H18A15464   4.291   4.888   6.626 -1.8416 -0.2401 -0.3162
  125CHL1  H18B15465   4.417   4.748   6.633 -0.3662 -0.1637 -0.4520
  125CHL1  H18C15466   4.337   4.801   6.481 -2.5172  2.0009 -0.4522
  125CHL1   C1215467   4.262   4.540   6.568 -0.7788  0.0590 -0.3417
  125CHL1  H12A15468   4.354   4.510   6.623 -1.8218 -1.2764  0.7444
  125CHL1  H12B15469   4.177   4.471   6.590 -2.1352  1.8720  0.3268
  125CHL1   C1115470   4.273   4.538   6.409  0.0109  0.2229  0.2304
  125CHL1  H11A15471   4.353   4.612   6.389 -0.0503 -0.0651 -1.1753
  125CHL1  H11B15472   4.310   4.439   6.375  1.8830  0.1076  2.3911
  125CHL1    C915473   4.137   4.579   6.342  0.5272  0.4292 -0.4823
  125CHL1    H915474   4.065   4.508   6.388  1.5701 -0.4665 -0.1874
  125CHL1   C1015475   4.130   4.563   6.190  0.6391 -0.5697 -0.2185
  125CHL1   C1915476   4.261   4.635   6.142  0.2659  0.0188  0.5881
  125CHL1  H19A15477   4.334   4.551   6.146  0.4685  0.2506  2.3455
  125CHL1  H19B15478   4.258   4.665   6.035  0.4561 -1.2898  0.1875
  125CHL1  H19C15479   4.296   4.722   6.201  1.5641 -0.2685  0.2754
  125CHL1    C115480   4.134   4.414   6.150 -0.6563 -1.2391 -0.4045
  125CHL1   H1A15481   4.224   4.359   6.184 -1.5679 -3.4714 -1.4110
  125CHL1   H1B15482   4.041   4.375   6.196 -0.7017  0.2163  0.7981
  125CHL1    C215483   4.117   4.390   6.003 -0.1287 -0.0876  0.2405
  125CHL1   H2A15484   4.123   4.280   5.986 -0.2525 -0.0276 -0.1901
  125CHL1   H2B15485   4.195   4.435   5.939  0.9227  0.1314  1.6355
  125CHL1   C2015486   4.293   4.690   6.878 -0.3173  0.3726  0.4420
  125CHL1   H2015487   4.360   4.777   6.855  0.9960 -0.8739 -0.6682
  125CHL1   C2115488   4.369   4.557   6.889 -0.2463  0.0601 -0.2977
  125CHL1  H21A15489   4.434   4.560   6.979 -0.4006 -1.8040 -0.0977
  125CHL1  H21B15490   4.433   4.527   6.803 -0.1946  1.4715 -0.7930
  125CHL1  H21C15491   4.304   4.470   6.912  0.4454 -0.3262  0.2362
  125CHL1   C2215492   4.232   4.720   7.019  1.1026  0.7941 -0.4695
  125CHL1  H22A15493   4.317   4.697   7.087  2.1974 -1.5518 -2.4737
  125CHL1  H22B15494   4.210   4.829   7.024 -3.4920  0.1421 -2.1728
  125CHL1   C2315495   4.119   4.635   7.076 -0.4364  0.2470 -0.1677
  125CHL1  H23A15496   4.028   4.655   7.015 -0.7609 -2.7381 -0.8198
  125CHL1  H23B15497   4.135   4.527   7.057 -0.0488  0.4057 -0.7970
  125CHL1   C2415498   4.098   4.663   7.223 -0.2531 -0.1987  0.4893
  125CHL1  H24A15499   4.192   4.631   7.273 -0.8272  0.2812  1.9067
  125CHL1  H24B15500   4.095   4.773   7.237 -0.9917  0.2079 -2.2621
  125CHL1   C2515501   3.991   4.581   7.296 -0.1437  0.0054 -0.8028
  125CHL1   H2515502   4.003   4.472   7.277  0.7591  0.0708 -0.6495
  125CHL1   C2615503   4.002   4.608   7.450 -0.3281 -0.1033  0.0624
  125CHL1  H26A15504   4.101   4.568   7.478 -0.5211  0.3457  1.4866
  125CHL1  H26B15505   3.987   4.714   7.481 -0.2175 -0.2131  0.5001
  125CHL1  H26C15506   3.928   4.547   7.506 -2.0200  2.4200  0.7507
  125CHL1   C2715507   3.850   4.618   7.244 -0.1090 -0.2580 -0.4883
  125CHL1  H27A15508   3.835   4.728   7.255 -0.6692 -0.2902 -0.8990
  125CHL1  H27B15509   3.840   4.592   7.136  1.0729 -3.5606  0.0904
  125CHL1  H27C15510   3.764   4.568   7.292  0.0381  0.8291  0.9658
  126CHL1    C315511   2.947   4.463   5.906  0.4514  0.0500  0.6289
  126CHL1    H315512   2.913   4.564   5.939 -0.6158  0.1451 -0.6764
  126CHL1    O315513   2.949   4.463   5.768 -0.1145  0.5561 -0.1822
  126CHL1   H3'15514   2.910   4.548   5.745  0.7864  1.9429  2.9114
  126CHL1    C415515   3.090   4.442   5.952 -0.0409 -0.2236 -0.2595
  126CHL1   H4A15516   3.138   4.354   5.904  0.4714  0.3798 -0.8612
  126CHL1   H4B15517   3.156   4.523   5.916  1.5657 -0.4775  1.9042
  126CHL1    C515518   3.090   4.436   6.105  0.1032 -0.7307 -0.3702
  126CHL1    C615519   3.175   4.523   6.163 -0.1386 -0.6332 -0.0901
  126CHL1    H615520   3.231   4.590   6.096 -0.4980 -0.4567 -0.2174
  126CHL1    C715521   3.220   4.507   6.302 -0.2506 -0.1069 -0.6809
  126CHL1   H7A15522   3.331   4.503   6.307 -0.1850 -1.8153 -2.5840
  126CHL1   H7B15523   3.174   4.592   6.357 -2.5242 -1.4048 -0.4625
  126CHL1    C815524   3.154   4.383   6.377 -0.2798 -0.1061  1.1012
  126CHL1    H815525   3.224   4.300   6.353  1.3323  1.7923 -1.2379
  126CHL1   C1415526   3.141   4.399   6.526 -0.3690  0.0084  0.3865
  126CHL1   H1415527   3.068   4.480   6.546  0.2668  0.8904 -0.7614
  126CHL1   C1515528   3.265   4.439   6.602  0.4679  0.0495 -0.6330
  126CHL1  H15A15529   3.351   4.382   6.560  1.9596  1.5909  0.2313
  126CHL1  H15B15530   3.297   4.545   6.598  0.7823 -0.0435 -0.6381
  126CHL1   C1615531   3.246   4.399   6.742  0.6932  0.6209 -0.2024
  126CHL1  H16A15532   3.333   4.335   6.767  1.0256  1.1291 -0.0270
  126CHL1  H16B15533   3.250   4.474   6.824 -1.8497  0.3359  0.2578
  126CHL1   C1715534   3.110   4.322   6.743  0.5570  0.0526  0.1666
  126CHL1   H1715535   3.027   4.392   6.765 -0.4585 -1.3247  0.8937
  126CHL1   C1315536   3.096   4.273   6.600  0.0265  1.1377  0.4992
  126CHL1   C1815537   3.204   4.161   6.595  0.1724 -0.5278 -0.0364
  126CHL1  H18A15538   3.203   4.126   6.490 -1.2883  0.0615 -0.2446
  126CHL1  H18B15539   3.306   4.179   6.634 -0.2338 -0.8516  1.2547
  126CHL1  H18C15540   3.176   4.079   6.665  2.8202 -2.0800 -0.6525
  126CHL1   C1215541   2.953   4.239   6.547  0.7849  0.6017 -0.5987
  126CHL1  H12A15542   2.914   4.149   6.597  1.8420 -0.0591 -0.9283
  126CHL1  H12B15543   2.887   4.325   6.573  0.0315 -0.5499  1.4886
  126CHL1   C1115544   2.952   4.222   6.398  0.2137  0.0272  0.5048
  126CHL1  H11A15545   3.008   4.134   6.360  1.0244  1.5498 -2.0677
  126CHL1  H11B15546   2.846   4.209   6.366  0.3071  1.5894 -0.5558
  126CHL1    C915547   3.010   4.345   6.318 -0.0657  0.3480 -0.5084
  126CHL1    H915548   2.946   4.433   6.340 -0.3924 -0.2202  0.9269
  126CHL1   C1015549   3.010   4.327   6.168  0.4725 -1.0431  0.2588
  126CHL1   C1915550   3.077   4.197   6.120  0.2375 -0.4900 -0.5709
  126CHL1  H19A15551   3.187   4.189   6.132  0.0420 -0.8596  1.2990
  126CHL1  H19B15552   3.047   4.096   6.155 -1.3654 -1.1795 -3.6539
  126CHL1  H19C15553   3.059   4.189   6.011 -4.2917  3.0089 -0.3828
  126CHL1    C115554   2.862   4.344   6.117 -0.2305 -0.0198 -0.0080
  126CHL1   H1A15555   2.799   4.261   6.153 -0.7397  0.1028 -0.5932
  126CHL1   H1B15556   2.820   4.444   6.144 -1.4567 -0.3915 -0.4588
  126CHL1    C215557   2.857   4.353   5.957 -0.5687 -0.6645 -0.4811
  126CHL1   H2A15558   2.757   4.368   5.911  0.0388 -0.5097 -1.7823
  126CHL1   H2B15559   2.880   4.251   5.919  0.3642 -1.2495  1.5261
  126CHL1   C2015560   3.100   4.231   6.859 -0.6401  0.5991  0.2028
  126CHL1   H2015561   3.183   4.159   6.871  0.7968  1.3819 -3.7320
  126CHL1   C2115562   2.974   4.132   6.852  0.1414  0.0668 -0.6982
  126CHL1  H21A15563   2.889   4.197   6.822 -0.3626  0.5779  1.5904
  126CHL1  H21B15564   2.946   4.089   6.951  2.0394 -1.3208 -0.7139
  126CHL1  H21C15565   3.001   4.050   6.782  1.4739  0.0920 -0.2369
  126CHL1   C2215566   3.085   4.324   6.985  0.1365  0.1562 -0.0434
  126CHL1  H22A15567   3.157   4.408   6.981  1.2015 -0.7799 -1.9435
  126CHL1  H22B15568   2.982   4.365   6.979 -0.0193  0.0232  1.3303
  126CHL1   C2315569   3.107   4.243   7.114 -0.0806 -0.2339  0.4805
  126CHL1  H23A15570   3.032   4.161   7.110 -0.3900  0.0807 -1.8832
  126CHL1  H23B15571   3.207   4.194   7.118  0.5232  1.0561  1.5098
  126CHL1   C2415572   3.075   4.319   7.242 -0.9466 -0.0870  0.2775
  126CHL1  H24A15573   3.135   4.413   7.244  1.0138 -1.2584  2.9718
  126CHL1  H24B15574   2.974   4.365   7.251 -0.4979  0.4762  4.3407
  126CHL1   C2515575   3.099   4.239   7.372  0.3227  0.1501 -0.4101
  126CHL1   H2515576   3.052   4.141   7.353 -0.4709  0.5487 -0.5744
  126CHL1   C2615577   3.248   4.213   7.408 -0.4021  0.3567 -0.2084
  126CHL1  H26A15578   3.253   4.140   7.492  0.2831  0.9434  0.2729
  126CHL1  H26B15579   3.302   4.172   7.320 -2.8973  0.1742 -1.7562
  126CHL1  H26C15580   3.288   4.315   7.428 -0.4046  0.2921  0.1351
  126CHL1   C2715581   3.024   4.299   7.491  0.9059 -0.0020 -0.0779
  126CHL1  H27A15582   3.047   4.242   7.584 -3.5971  0.0330  1.2834
  126CHL1  H27B15583   3.064   4.401   7.510 -0.6104  0.4359  0.9654
  126CHL1  H27C15584   2.915   4.310   7.471  0.7942 -0.0214  0.5096
  127CHL1    C315585   3.205   5.894   5.564 -0.5121 -1.0223 -0.2133
  127CHL1    H315586   3.201   5.784   5.552  2.5464 -0.8908 -4.5767
  127CHL1    O315587   3.216   5.956   5.442 -0.3698  0.3288  0.5737
  127CHL1   H3'15588   3.206   6.051   5.448 -1.8927  0.1435  1.6014
  127CHL1    C415589   3.068   5.936   5.630 -0.0051  0.3301 -0.0964
  127CHL1   H4A15590   3.059   6.044   5.610 -0.6071  0.1840 -0.6636
  127CHL1   H4B15591   2.987   5.891   5.568  0.6812  0.0784 -0.8348
  127CHL1    C515592   3.062   5.899   5.783  0.1477  0.5907 -0.0516
  127CHL1    C615593   2.954   5.836   5.829  0.3389 -0.4425  0.2338
  127CHL1    H615594   2.871   5.820   5.759 -0.8543  0.0894  1.4832
  127CHL1    C715595   2.944   5.810   5.974  0.5526  0.0666  0.1420
  127CHL1   H7A15596   2.842   5.830   6.014 -0.0706  2.0423 -2.1791
  127CHL1   H7B15597   2.969   5.702   5.979  3.4633  0.4840 -2.2634
  127CHL1    C815598   3.043   5.897   6.054 -0.0505  0.0780 -0.5357
  127CHL1    H815599   3.004   6.001   6.056 -0.5246 -0.0909  1.8370
  127CHL1   C1415600   3.047   5.845   6.203  0.0569  0.9190  0.0293
  127CHL1   H1415601   3.097   5.747   6.192  1.5919  1.5930  0.7368
  127CHL1   C1515602   2.916   5.816   6.278  0.0525  0.5744  0.5654
  127CHL1  H15A15603   2.831   5.888   6.273 -0.4928 -0.0441  0.7610
  127CHL1  H15B15604   2.882   5.716   6.244 -1.0308  1.4300 -0.9559
  127CHL1   C1615605   2.953   5.816   6.424 -0.0476  0.0448 -0.0675
  127CHL1  H16A15606   2.893   5.898   6.469 -0.7332  0.3981 -1.5508
  127CHL1  H16B15607   2.934   5.719   6.476  1.9416  0.5592  1.7610
  127CHL1   C1715608   3.103   5.856   6.431  0.0001  0.1655  0.8925
  127CHL1   H1715609   3.158   5.760   6.424  0.3379  0.4523 -0.8872
  127CHL1   C1315610   3.131   5.926   6.291  0.8828  0.3401 -0.3787
  127CHL1   C1815611   3.087   6.076   6.296  0.0076  0.3581 -0.0902
  127CHL1  H18A15612   2.979   6.085   6.321  0.0093 -0.3397  0.2056
  127CHL1  H18B15613   3.154   6.130   6.366 -0.6026 -0.4672  1.1630
  127CHL1  H18C15614   3.117   6.113   6.195 -0.7967 -0.0283 -0.4775
  127CHL1   C1215615   3.274   5.904   6.247  0.4564 -0.2063  0.3382
  127CHL1  H12A15616   3.350   5.963   6.303  0.8469 -1.0445  0.7088
  127CHL1  H12B15617   3.298   5.798   6.266 -1.6406 -0.7029  0.5119
  127CHL1   C1115618   3.290   5.930   6.097 -0.0546 -0.0630 -0.4569
  127CHL1  H11A15619   3.299   6.041   6.094  0.0842 -0.0447  0.3541
  127CHL1  H11B15620   3.386   5.887   6.062 -0.0789 -1.6687  1.3025
  127CHL1    C915621   3.183   5.875   6.003  0.5148 -0.0422  0.1706
  127CHL1    H915622   3.207   5.766   6.004  1.4786  0.1591  0.1987
  127CHL1   C1015623   3.185   5.938   5.863 -0.2099 -0.0874 -0.5849
  127CHL1   C1915624   3.204   6.093   5.875  0.3173 -0.2301  0.5524
  127CHL1  H19A15625   3.298   6.125   5.925  1.3561 -0.3819 -1.2171
  127CHL1  H19B15626   3.199   6.143   5.776 -2.2803 -2.0430 -0.3168
  127CHL1  H19C15627   3.122   6.127   5.942  2.7738  0.7693  3.3076
  127CHL1    C115628   3.311   5.892   5.797 -0.0971 -0.3719 -0.1479
  127CHL1   H1A15629   3.403   5.938   5.839  1.0543 -1.0554 -1.7974
  127CHL1   H1B15630   3.323   5.783   5.815 -0.5467 -0.3378  0.4136
  127CHL1    C215631   3.330   5.926   5.645  0.2337  0.0858 -0.3092
  127CHL1   H2A15632   3.409   5.867   5.594 -2.5588 -3.2925 -1.0883
  127CHL1   H2B15633   3.359   6.033   5.650  0.4390 -0.0246  1.1856
  127CHL1   C2015634   3.128   5.931   6.572  0.2957 -0.0698  0.2125
  127CHL1   H2015635   3.062   6.021   6.571  0.2261 -0.1155  0.4622
  127CHL1   C2115636   3.272   5.983   6.588 -0.7180 -0.5513 -0.1817
  127CHL1  H21A15637   3.284   6.026   6.690  3.7226 -1.1940 -0.2643
  127CHL1  H21B15638   3.302   6.074   6.532 -1.4276 -0.1230  0.1145
  127CHL1  H21C15639   3.349   5.907   6.565  1.5669  1.7044 -0.5363
  127CHL1   C2215640   3.080   5.853   6.699 -0.4154 -0.1114  0.2411
  127CHL1  H22A15641   2.980   5.806   6.700 -0.7431  0.5690  1.1353
  127CHL1  H22B15642   3.150   5.767   6.708  1.0215  1.1402  1.7336
  127CHL1   C2315643   3.084   5.933   6.832 -0.7493  0.0584  0.4830
  127CHL1  H23A15644   3.186   5.967   6.858 -0.6223  0.9884 -1.1157
  127CHL1  H23B15645   3.020   6.020   6.807 -0.6673 -0.0348 -0.0630
  127CHL1   C2415646   3.021   5.847   6.947 -0.0530  0.0442 -0.2612
  127CHL1  H24A15647   2.915   5.829   6.921 -0.6035  2.4083  0.1161
  127CHL1  H24B15648   3.079   5.753   6.955 -0.5220 -0.1898  0.4828
  127CHL1   C2515649   3.032   5.928   7.077 -0.2318 -0.2634 -0.6492
  127CHL1   H2515650   3.018   6.034   7.046 -0.5849 -0.0627  0.1568
  127CHL1   C2615651   2.925   5.879   7.175  0.5078 -0.1955 -0.1307
  127CHL1  H26A15652   2.929   5.919   7.279 -2.2152 -0.1271  0.0296
  127CHL1  H26B15653   2.825   5.895   7.128  0.3463 -0.3555  0.1531
  127CHL1  H26C15654   2.943   5.770   7.183  1.6726 -0.1183 -1.4040
  127CHL1   C2715655   3.169   5.917   7.135 -0.2469 -0.1599  0.3238
  127CHL1  H27A15656   3.195   5.813   7.165 -2.5422 -0.6412  0.8523
  127CHL1  H27B15657   3.245   5.942   7.058 -1.5038  0.5851 -0.7232
  127CHL1  H27C15658   3.196   5.982   7.222  0.3703 -0.1253  0.1071
  128CHL1    C315659   2.239   1.677   5.581 -0.3823 -0.2120 -0.2251
  128CHL1    H315660   2.243   1.784   5.550  2.3878 -0.2746 -0.3790
  128CHL1    O315661   2.235   1.610   5.456  0.0896  0.2929 -0.4672
  128CHL1   H3'15662   2.325   1.601   5.426  0.1923 -2.6038  0.3422
  128CHL1    C415663   2.371   1.640   5.646  0.2892 -0.3878 -0.0195
  128CHL1   H4A15664   2.376   1.529   5.646  0.1944 -0.3903  0.3261
  128CHL1   H4B15665   2.451   1.667   5.573 -0.5546  0.6828 -0.5821
  128CHL1    C515666   2.382   1.688   5.790 -0.5131 -0.7456  0.6279
  128CHL1    C615667   2.491   1.760   5.829  0.1735 -0.7096 -0.0703
  128CHL1    H615668   2.571   1.768   5.754 -0.0853 -1.8625 -0.4932
  128CHL1    C715669   2.513   1.812   5.966  0.1678  0.5719  0.2731
  128CHL1   H7A15670   2.608   1.775   6.010 -0.8929 -3.2801 -0.3321
  128CHL1   H7B15671   2.504   1.923   5.975 -1.8441  0.4090  0.6468
  128CHL1    C815672   2.408   1.762   6.071  0.3523  0.1740 -0.3769
  128CHL1    H815673   2.433   1.655   6.081 -1.2964 -0.2840 -0.7790
  128CHL1   C1415674   2.408   1.847   6.198 -1.5026 -0.0159 -0.1165
  128CHL1   H1415675   2.380   1.952   6.179 -1.8849 -0.1103 -0.0819
  128CHL1   C1515676   2.541   1.872   6.272 -0.0340  0.1001 -0.5005
  128CHL1  H15A15677   2.586   1.774   6.299  1.2973  0.1219 -2.3967
  128CHL1  H15B15678   2.625   1.930   6.229  1.7238 -0.6888  1.6654
  128CHL1   C1615679   2.501   1.943   6.403  0.1876 -0.6925 -0.2185
  128CHL1  H16A15680   2.560   1.911   6.492 -0.8183 -0.3928  0.5818
  128CHL1  H16B15681   2.513   2.052   6.390 -2.0672 -0.3150  0.4160
  128CHL1   C1715682   2.351   1.918   6.421 -0.3666  0.3180  0.0370
  128CHL1   H1715683   2.304   2.014   6.392  1.5767  0.9701 -1.1203
  128CHL1   C1315684   2.304   1.817   6.306 -0.9278  0.2739  0.9155
  128CHL1   C1815685   2.336   1.676   6.354  0.0640  0.2169  0.0291
  128CHL1  H18A15686   2.431   1.664   6.411  0.3234 -0.7791 -0.5903
  128CHL1  H18B15687   2.264   1.647   6.433  1.6121 -0.4059  1.2893
  128CHL1  H18C15688   2.320   1.601   6.274 -4.4776 -0.1276  0.9894
  128CHL1   C1215689   2.167   1.832   6.242  0.3501 -0.4945  0.0384
  128CHL1  H12A15690   2.082   1.811   6.311  0.4987 -0.3151  0.2754
  128CHL1  H12B15691   2.148   1.939   6.219 -6.0170 -0.8018  1.8095
  128CHL1   C1115692   2.149   1.753   6.110  0.1967 -0.0418  0.7449
  128CHL1  H11A15693   2.151   1.647   6.141 -0.5846 -0.4736 -0.5991
  128CHL1  H11B15694   2.053   1.770   6.057 -0.2938 -1.6286  1.0686
  128CHL1    C915695   2.268   1.769   6.010 -0.1419  0.0173  0.6461
  128CHL1    H915696   2.259   1.867   5.959 -0.2353 -0.3100  0.0156
  128CHL1   C1015697   2.252   1.673   5.888  0.4217  0.1040  0.5845
  128CHL1   C1915698   2.243   1.525   5.921 -0.3383 -0.1584 -0.2699
  128CHL1  H19A15699   2.265   1.467   5.829 -0.3299  0.3503 -0.5909
  128CHL1  H19B15700   2.309   1.504   6.008 -0.7732  0.5112  0.2361
  128CHL1  H19C15701   2.139   1.507   5.954 -0.5740  2.0873  0.4060
  128CHL1    C115702   2.120   1.710   5.800 -0.5997  0.5918 -0.3865
  128CHL1   H1A15703   2.034   1.684   5.866  1.4443 -0.9976  1.8476
  128CHL1   H1B15704   2.122   1.820   5.787  2.1969  0.8612  1.5156
  128CHL1    C215705   2.116   1.637   5.663 -0.7891  1.3515 -0.6728
  128CHL1   H2A15706   2.027   1.676   5.609  0.4125  3.0282 -1.5269
  128CHL1   H2B15707   2.115   1.527   5.671  2.1273  1.2551 -0.8907
  128CHL1   C2015708   2.321   1.888   6.567 -0.8886  0.4014  0.3813
  128CHL1   H2015709   2.372   1.795   6.600  0.0267  0.9384  0.4950
  128CHL1   C2115710   2.170   1.868   6.589  0.7776 -0.0228  0.5780
  128CHL1  H21A15711   2.136   1.789   6.520  2.7568  0.1194 -0.6296
  128CHL1  H21B15712   2.115   1.963   6.570  0.4565  0.0029  1.5720
  128CHL1  H21C15713   2.148   1.831   6.692  0.1309 -2.1816 -0.2837
  128CHL1   C2215714   2.369   2.005   6.650 -0.4169  0.0114  0.2101
  128CHL1  H22A15715   2.480   2.010   6.661 -0.3160  2.7644 -1.2175
  128CHL1  H22B15716   2.345   2.102   6.603  0.1483  0.6911  1.2660
  128CHL1   C2315717   2.329   1.992   6.797  0.4266  0.1767  0.2049
  128CHL1  H23A15718   2.227   2.034   6.812  0.7042  0.3355  1.8348
  128CHL1  H23B15719   2.331   1.885   6.827  1.3668 -0.3281 -1.5230
  128CHL1   C2415720   2.423   2.083   6.884 -0.3425 -0.1669  0.4251
  128CHL1  H24A15721   2.509   2.018   6.908  1.5943  2.2885  0.5490
  128CHL1  H24B15722   2.459   2.171   6.827 -0.5296  0.2142  0.8871
  128CHL1   C2515723   2.363   2.133   7.015  0.8257  0.2795 -0.0822
  128CHL1   H2515724   2.281   2.204   6.991  0.3795  0.0074  0.6162
  128CHL1   C2615725   2.301   2.016   7.093 -0.9416 -0.5470  0.2145
  128CHL1  H26A15726   2.242   2.060   7.176 -0.1343  3.4175 -1.1077
  128CHL1  H26B15727   2.233   1.959   7.026 -0.9421 -2.6417  1.8470
  128CHL1  H26C15728   2.382   1.950   7.131 -0.8382 -2.1444 -2.5049
  128CHL1   C2715729   2.474   2.214   7.088 -0.1443  0.4071 -0.1460
  128CHL1  H27A15730   2.507   2.302   7.027 -0.4599  1.0011  0.5236
  128CHL1  H27B15731   2.443   2.256   7.186  1.3016 -0.9046  0.9192
  128CHL1  H27C15732   2.566   2.154   7.098 -0.8495 -0.3643  2.3531
  129CHL1    C315733   5.482   5.160   5.911  0.4815  0.2862 -0.6553
  129CHL1    H315734   5.525   5.260   5.934  0.2001  0.5788 -1.3705
  129CHL1    O315735   5.482   5.142   5.770  0.0817  0.0225  0.5788
  129CHL1   H3'15736   5.412   5.081   5.746  0.1130 -0.0277  0.6160
  129CHL1    C415737   5.560   5.044   5.979  0.1344 -0.2651  0.3525
  129CHL1   H4A15738   5.527   4.949   5.932  1.3496  0.4508 -2.1294
  129CHL1   H4B15739   5.665   5.059   5.945  1.1539 -0.6384  3.0600
  129CHL1    C515740   5.549   5.050   6.129 -0.4990 -0.3616  0.2640
  129CHL1    C615741   5.659   5.050   6.211 -0.1637  0.7538 -0.4351
  129CHL1    H615742   5.765   5.062   6.185  0.4140  1.7098  2.1097
  129CHL1    C715743   5.644   5.055   6.355 -0.3336  0.0539  0.5324
  129CHL1   H7A15744   5.723   4.994   6.404 -0.5838  0.1522  1.0707
  129CHL1   H7B15745   5.655   5.160   6.387 -0.5498  0.4870 -0.7704
  129CHL1    C815746   5.508   4.994   6.411  0.2264  0.6390 -0.0092
  129CHL1    H815747   5.503   4.883   6.407  0.1461  0.5800  1.1802
  129CHL1   C1415748   5.492   5.039   6.558  0.7100  0.2493  0.1390
  129CHL1   H1415749   5.497   5.150   6.552  0.0124  0.4117  1.8969
  129CHL1   C1515750   5.599   4.996   6.654  0.4591  0.0774  0.2230
  129CHL1  H15A15751   5.610   4.886   6.663  1.3968  0.1070 -0.4580
  129CHL1  H15B15752   5.700   5.026   6.621  0.3530  1.9051  1.4156
  129CHL1   C1615753   5.537   5.031   6.792  0.5212  0.1741 -0.5841
  129CHL1  H16A15754   5.547   4.942   6.857  0.0511 -0.1408 -0.9442
  129CHL1  H16B15755   5.577   5.112   6.857  0.4174 -1.4065  1.5592
  129CHL1   C1715756   5.384   5.055   6.773  0.4919  0.3741  0.0071
  129CHL1   H1715757   5.367   5.164   6.765 -0.6682  0.0825 -3.5731
  129CHL1   C1315758   5.358   5.001   6.632  0.1369 -0.8030 -0.2827
  129CHL1   C1815759   5.331   4.844   6.632 -0.3581  0.3815 -0.2964
  129CHL1  H18A15760   5.329   4.806   6.528  0.0225 -0.1031 -0.1293
  129CHL1  H18B15761   5.412   4.789   6.684  1.2447  1.9760 -0.9842
  129CHL1  H18C15762   5.230   4.818   6.669 -0.5978  0.6426 -0.7591
  129CHL1   C1215763   5.242   5.069   6.545  0.7566 -0.3211  0.3011
  129CHL1  H12A15764   5.143   5.033   6.582  0.7591 -0.7782 -0.1254
  129CHL1  H12B15765   5.244   5.178   6.563  1.2833 -0.4000  0.7369
  129CHL1   C1115766   5.251   5.043   6.392 -0.2583 -0.1837  0.4345
  129CHL1  H11A15767   5.224   4.936   6.380  0.3029 -0.5364  2.1531
  129CHL1  H11B15768   5.177   5.090   6.324  1.4868  0.1623 -1.3572
  129CHL1    C915769   5.392   5.068   6.332  0.0169  0.2018 -0.0703
  129CHL1    H915770   5.411   5.177   6.344 -2.1494  0.5636  0.6062
  129CHL1   C1015771   5.405   5.051   6.181 -0.8241  0.0768  0.3776
  129CHL1   C1915772   5.347   4.918   6.142  0.3919  0.5829 -0.0891
  129CHL1  H19A15773   5.248   4.897   6.187 -0.0625 -0.0152 -1.3082
  129CHL1  H19B15774   5.326   4.911   6.033  0.9715  0.6205 -0.2064
  129CHL1  H19C15775   5.411   4.834   6.172 -0.4585  0.0252  0.2048
  129CHL1    C115776   5.338   5.167   6.105  0.7668  0.0161 -0.3416
  129CHL1   H1A15777   5.236   5.175   6.147  1.0172 -0.6632  0.4233
  129CHL1   H1B15778   5.384   5.266   6.125 -1.5874  1.1538 -0.2038
  129CHL1    C215779   5.335   5.159   5.957  0.9942  0.0666  0.5998
  129CHL1   H2A15780   5.278   5.249   5.924  0.5945  0.1006  1.3640
  129CHL1   H2B15781   5.283   5.072   5.913 -0.2432  0.4314  1.2975
  129CHL1   C2015782   5.298   5.005   6.888  0.8884  0.2883 -0.2902
  129CHL1   H2015783   5.302   4.895   6.898  0.5101  0.4144  1.7612
  129CHL1   C2115784   5.147   5.048   6.866  0.0472  0.1302  0.5771
  129CHL1  H21A15785   5.098   5.045   6.966 -0.0178  0.1886  0.5465
  129CHL1  H21B15786   5.100   4.980   6.791  0.5185  0.6100 -0.1578
  129CHL1  H21C15787   5.134   5.151   6.828 -1.6354  0.2176  1.2760
  129CHL1   C2215788   5.345   5.047   7.035  0.1289 -0.6640 -0.1946
  129CHL1  H22A15789   5.453   5.019   7.032 -0.2352 -2.1057 -1.0125
  129CHL1  H22B15790   5.333   5.155   7.057 -0.1858 -0.8552  0.5996
  129CHL1   C2315791   5.275   4.966   7.144 -0.0579  0.1638  0.1782
  129CHL1  H23A15792   5.165   4.977   7.140 -0.1163  0.3115  1.7025
  129CHL1  H23B15793   5.292   4.858   7.125  0.8032  0.5718 -1.5902
  129CHL1   C2415794   5.320   5.004   7.287 -0.7035  1.0684 -0.1836
  129CHL1  H24A15795   5.416   4.953   7.310 -0.4236  1.0550 -1.3356
  129CHL1  H24B15796   5.328   5.114   7.280 -3.7256  1.2759 -3.8643
  129CHL1   C2515797   5.233   4.962   7.406  0.4795  0.4254  0.3516
  129CHL1   H2515798   5.290   4.990   7.497 -1.5729  2.6241  1.0456
  129CHL1   C2615799   5.101   5.037   7.399 -0.1608  0.2995 -0.8852
  129CHL1  H26A15800   5.029   4.990   7.327  1.3695 -1.0510 -1.6073
  129CHL1  H26B15801   5.056   5.016   7.498 -0.1402  1.3526 -0.6457
  129CHL1  H26C15802   5.110   5.146   7.380  0.4295  0.2242 -1.0451
  129CHL1   C2715803   5.213   4.809   7.410 -0.5286  0.1670 -0.0242
  129CHL1  H27A15804   5.313   4.762   7.414  0.7783  2.7499 -0.2943
  129CHL1  H27B15805   5.151   4.782   7.498  1.3170  0.7889  1.5063
  129CHL1  H27C15806   5.169   4.778   7.313  1.7338  0.0971 -1.0811
  130CHL1    C315807   2.769   6.137   5.477 -0.6161 -0.2988  0.6711
  130CHL1    H315808   2.839   6.060   5.514 -1.7027 -2.2510 -1.0887
  130CHL1    O315809   2.771   6.156   5.335  0.2678  0.4100  0.0666
  130CHL1   H3'15810   2.715   6.231   5.312  2.5263  1.9394 -0.8111
  130CHL1    C415811   2.629   6.105   5.521 -0.0011  0.0109  0.1473
  130CHL1   H4A15812   2.569   6.186   5.475  0.3238 -0.0801 -0.4373
  130CHL1   H4B15813   2.594   6.010   5.476 -4.1437  1.5167 -0.2460
  130CHL1    C515814   2.621   6.093   5.670  0.4865 -0.9221 -0.0462
  130CHL1    C615815   2.581   5.981   5.737 -0.7678  0.1097 -0.5125
  130CHL1    H615816   2.562   5.894   5.672 -1.7304 -0.9546  1.1372
  130CHL1    C715817   2.562   5.972   5.887 -0.4087  0.1317 -0.1735
  130CHL1   H7A15818   2.458   5.936   5.905 -0.8197  0.6336 -1.4380
  130CHL1   H7B15819   2.635   5.898   5.925  0.5034  0.5254 -1.1210
  130CHL1    C815820   2.582   6.107   5.968  0.0305  0.1154  0.6628
  130CHL1    H815821   2.487   6.163   5.963  1.0801  1.8507 -0.8125
  130CHL1   C1415822   2.614   6.071   6.110 -0.5278  0.1832  0.0733
  130CHL1   H1415823   2.711   6.016   6.108 -0.5027  0.2407 -1.5014
  130CHL1   C1515824   2.517   5.982   6.183 -0.6167  0.4138  0.2622
  130CHL1  H15A15825   2.418   6.029   6.166 -1.4484 -2.0129 -2.3137
  130CHL1  H15B15826   2.523   5.878   6.144  1.1762  1.0770 -1.4641
  130CHL1   C1615827   2.571   5.986   6.330  0.1918 -0.1410 -0.3723
  130CHL1  H16A15828   2.482   5.983   6.397  1.0270  1.4357  0.8536
  130CHL1  H16B15829   2.622   5.888   6.344 -1.0184 -1.1295 -2.2962
  130CHL1   C1715830   2.665   6.111   6.338 -0.6979 -0.0280  0.7818
  130CHL1   H1715831   2.768   6.072   6.330 -0.7724 -0.7356  2.7710
  130CHL1   C1315832   2.634   6.190   6.205  0.1524  0.3593 -0.2038
  130CHL1   C1815833   2.499   6.276   6.228 -0.1730 -0.6312 -1.1025
  130CHL1  H18A15834   2.418   6.209   6.265  1.0582 -1.7496 -0.3427
  130CHL1  H18B15835   2.523   6.359   6.299 -0.5927 -1.1946 -0.2809
  130CHL1  H18C15836   2.472   6.326   6.133  0.3803 -0.8124 -1.3535
  130CHL1   C1215837   2.741   6.285   6.135 -0.0951  0.0914  0.4585
  130CHL1  H12A15838   2.748   6.377   6.197  0.4833  0.4182 -0.0786
  130CHL1  H12B15839   2.834   6.225   6.126 -0.2765 -0.0897 -0.3236
  130CHL1   C1115840   2.706   6.324   5.986  0.0760  0.2259  0.1846
  130CHL1  H11A15841   2.618   6.390   6.004 -0.4974 -0.6883  0.8195
  130CHL1  H11B15842   2.792   6.388   5.956  0.1252  0.2930  0.4620
  130CHL1    C915843   2.685   6.195   5.903  0.1420 -0.3671 -0.5290
  130CHL1    H915844   2.781   6.140   5.911 -0.8106 -1.8204  2.7899
  130CHL1   C1015845   2.658   6.217   5.750  0.7057  0.0738  0.2541
  130CHL1   C1915846   2.560   6.330   5.732  0.7086  0.3053  0.1968
  130CHL1  H19A15847   2.587   6.424   5.785 -0.2040  1.1757 -0.8552
  130CHL1  H19B15848   2.560   6.364   5.627  0.3293 -1.0411 -0.2621
  130CHL1  H19C15849   2.462   6.293   5.769  1.4034  0.6707  2.6218
  130CHL1    C115850   2.796   6.263   5.690  0.0959  0.3858  0.0965
  130CHL1   H1A15851   2.815   6.364   5.732  1.2063  0.0418  0.4478
  130CHL1   H1B15852   2.872   6.188   5.721  0.5282  1.0993  0.7892
  130CHL1    C215853   2.811   6.272   5.533 -0.1787 -0.2003 -0.6628
  130CHL1   H2A15854   2.916   6.294   5.504  0.0171 -1.7692 -1.2431
  130CHL1   H2B15855   2.741   6.352   5.501 -0.9504 -0.8955 -0.7496
  130CHL1   C2015856   2.656   6.182   6.476 -0.1539 -0.1830 -0.0243
  130CHL1   H2015857   2.560   6.237   6.477  0.5062  1.0121 -0.3058
  130CHL1   C2115858   2.783   6.263   6.496  0.0381 -0.5525 -0.1314
  130CHL1  H21A15859   2.794   6.341   6.418 -1.5404  0.7496  0.8701
  130CHL1  H21B15860   2.875   6.202   6.506  1.0744  1.2276  2.5336
  130CHL1  H21C15861   2.781   6.299   6.601 -1.8542 -0.6531 -0.1062
  130CHL1   C2215862   2.648   6.080   6.587 -0.5276  0.7313 -0.2388
  130CHL1  H22A15863   2.559   6.014   6.576 -0.3897  0.2457  1.2886
  130CHL1  H22B15864   2.738   6.015   6.585 -0.5986  0.6365 -0.4562
  130CHL1   C2315865   2.640   6.148   6.725 -0.6967  0.1311 -0.8655
  130CHL1  H23A15866   2.733   6.203   6.752 -1.2105  1.4087 -1.6263
  130CHL1  H23B15867   2.557   6.221   6.729  1.3788  2.6052 -0.0936
  130CHL1   C2415868   2.609   6.048   6.843 -0.1620  0.0297 -0.5528
  130CHL1  H24A15869   2.521   5.997   6.798 -0.8699  0.7045  0.0486
  130CHL1  H24B15870   2.686   5.969   6.856  2.0038  2.1515  0.3614
  130CHL1   C2515871   2.567   6.115   6.974 -0.6341  0.4064  0.3593
  130CHL1   H2515872   2.494   6.194   6.945 -1.1929  0.0113  0.6686
  130CHL1   C2615873   2.491   6.009   7.069  0.5243  0.0774  0.1975
  130CHL1  H26A15874   2.551   5.930   7.118 -1.2934 -2.2236 -1.0378
  130CHL1  H26B15875   2.428   6.069   7.138  0.3580  0.1660 -0.0311
  130CHL1  H26C15876   2.420   5.951   7.005  1.6767 -2.9161  1.4643
  130CHL1   C2715877   2.685   6.178   7.044  0.4993 -0.4694  0.3486
  130CHL1  H27A15878   2.752   6.097   7.080 -0.3059 -0.2743  2.4139
  130CHL1  H27B15879   2.735   6.263   6.993 -0.6910 -0.3812 -0.7149
  130CHL1  H27C15880   2.663   6.222   7.143  1.3688 -0.9196  0.7538
  131CHL1    C315881   0.761   3.940   5.389 -0.3154 -0.2649 -0.3427
  131CHL1    H315882   0.729   4.035   5.437 -2.1956 -1.4445  0.8813
  131CHL1    O315883   0.787   3.949   5.255 -0.2373 -0.0714  0.3536
  131CHL1   H3'15884   0.698   3.936   5.221 -0.5706 -0.7864  1.4506
  131CHL1    C415885   0.885   3.907   5.477  0.1069 -0.2256 -0.0429
  131CHL1   H4A15886   0.937   3.814   5.444  0.0581  0.4977 -2.3165
  131CHL1   H4B15887   0.952   3.994   5.463 -0.8435  0.2094 -2.3832
  131CHL1    C515888   0.842   3.894   5.627 -0.0610 -0.5222 -0.2634
  131CHL1    C615889   0.898   3.973   5.722 -0.4022 -0.4775  0.9176
  131CHL1    H615890   0.978   4.042   5.693  1.2946 -2.3261  1.0011
  131CHL1    C715891   0.863   3.982   5.869  0.8394  0.0954  0.5112
  131CHL1   H7A15892   0.956   3.992   5.929  0.8933 -1.4641  0.7406
  131CHL1   H7B15893   0.802   4.070   5.899 -1.0004 -1.4995  1.6592
  131CHL1    C815894   0.788   3.846   5.911 -0.1692 -0.0739  0.3667
  131CHL1    H815895   0.870   3.771   5.912 -0.6099 -0.5650  0.1173
  131CHL1   C1415896   0.727   3.854   6.049  0.7322  0.3437  0.7472
  131CHL1   H1415897   0.650   3.933   6.046  1.1714  0.7623  0.4125
  131CHL1   C1515898   0.818   3.912   6.153 -0.5662  0.0484 -0.1771
  131CHL1  H15A15899   0.919   3.867   6.144  0.6164  2.5394 -0.1257
  131CHL1  H15B15900   0.831   4.022   6.157 -0.7828  0.0476  0.9484
  131CHL1   C1615901   0.754   3.863   6.287 -0.4583  0.5478 -0.3313
  131CHL1  H16A15902   0.830   3.809   6.348 -0.0903  0.5836 -0.7523
  131CHL1  H16B15903   0.716   3.947   6.350 -0.3174  0.3994 -0.0431
  131CHL1   C1715904   0.634   3.769   6.246  0.4979 -0.5264  0.4027
  131CHL1   H1715905   0.538   3.825   6.246  0.2521 -0.9298 -0.7230
  131CHL1   C1315906   0.662   3.726   6.100  0.1441 -0.2071 -1.0928
  131CHL1   C1815907   0.768   3.606   6.101  0.3496 -0.3548  0.1849
  131CHL1  H18A15908   0.847   3.626   6.177 -0.2038  1.9251  0.2251
  131CHL1  H18B15909   0.723   3.508   6.128 -2.3221  0.0804 -2.2258
  131CHL1  H18C15910   0.821   3.597   6.004 -2.7350 -2.4982 -1.4851
  131CHL1   C1215911   0.547   3.697   6.008 -0.0050  0.1114  0.5303
  131CHL1  H12A15912   0.488   3.606   6.034  0.5066  0.0306  1.4729
  131CHL1  H12B15913   0.470   3.776   6.009 -2.5522 -2.0875 -2.3960
  131CHL1   C1115914   0.593   3.677   5.865  0.0596 -0.1081 -0.4109
  131CHL1  H11A15915   0.651   3.583   5.861 -1.0148 -0.7528 -3.1023
  131CHL1  H11B15916   0.503   3.652   5.804 -0.9142 -0.1344  0.9777
  131CHL1    C915917   0.675   3.802   5.812  1.0025 -0.3257 -0.0423
  131CHL1    H915918   0.603   3.886   5.814  0.6824 -0.5840 -0.5378
  131CHL1   C1015919   0.729   3.793   5.664  0.5214  0.2690 -0.1169
  131CHL1   C1915920   0.778   3.651   5.647 -0.5301 -0.3307  0.5035
  131CHL1  H19A15921   0.697   3.577   5.660 -1.1284  0.3218  0.5482
  131CHL1  H19B15922   0.814   3.641   5.542 -3.0885 -1.2259 -0.3560
  131CHL1  H19C15923   0.857   3.628   5.722  1.2952 -0.1723 -1.2682
  131CHL1    C115924   0.607   3.808   5.562  0.0461 -0.0194 -0.2358
  131CHL1   H1A15925   0.541   3.721   5.579 -2.5964  2.1356  1.4293
  131CHL1   H1B15926   0.554   3.900   5.597  1.2581 -0.0415  1.8124
  131CHL1    C215927   0.652   3.831   5.407 -0.0796 -0.0897 -1.1464
  131CHL1   H2A15928   0.566   3.842   5.339 -0.2331  0.8980 -0.8032
  131CHL1   H2B15929   0.694   3.736   5.367  0.9879  0.4557 -1.3497
  131CHL1   C2015930   0.609   3.661   6.354 -0.0425 -0.0331 -0.2176
  131CHL1   H2015931   0.707   3.608   6.357 -0.3810 -0.6344  0.5239
  131CHL1   C2115932   0.505   3.556   6.309  0.0243 -0.2298 -0.5667
  131CHL1  H21A15933   0.414   3.606   6.270  0.2779  0.7514  0.0773
  131CHL1  H21B15934   0.489   3.473   6.381  1.3004 -1.0948 -1.2231
  131CHL1  H21C15935   0.539   3.499   6.220 -1.3134  1.1719 -2.0302
  131CHL1   C2215936   0.556   3.721   6.489  0.1970  0.3013  0.0508
  131CHL1  H22A15937   0.626   3.802   6.522 -1.3156  1.3379  0.8661
  131CHL1  H22B15938   0.456   3.766   6.470  0.7672  0.4964 -2.8728
  131CHL1   C2315939   0.554   3.608   6.592  0.0620 -0.1444  0.2734
  131CHL1  H23A15940   0.479   3.527   6.575  1.6432 -1.4549 -0.8775
  131CHL1  H23B15941   0.652   3.556   6.598 -0.1020 -0.6181 -0.9097
  131CHL1   C2415942   0.531   3.665   6.736 -0.4036  0.1058  0.6799
  131CHL1  H24A15943   0.519   3.572   6.796 -0.6036 -0.4417 -0.2022
  131CHL1  H24B15944   0.626   3.715   6.766  1.4349 -2.0656 -1.1850
  131CHL1   C2515945   0.415   3.765   6.749 -0.6922 -0.2796  0.5552
  131CHL1   H2515946   0.436   3.851   6.682 -1.5585 -0.8603 -0.5059
  131CHL1   C2615947   0.290   3.702   6.689  0.6365 -0.5354  0.2171
  131CHL1  H26A15948   0.253   3.607   6.734 -1.4019  0.5613  0.9756
  131CHL1  H26B15949   0.207   3.772   6.714  0.1577 -1.1331  0.3274
  131CHL1  H26C15950   0.301   3.690   6.579  0.2487  2.6434 -0.2548
  131CHL1   C2715951   0.399   3.811   6.894  0.8190 -0.5943 -0.4975
  131CHL1  H27A15952   0.300   3.859   6.909  0.9785  0.1596 -1.7346
  131CHL1  H27B15953   0.399   3.718   6.955  1.8365 -0.2641  0.0210
  131CHL1  H27C15954   0.477   3.881   6.932 -0.0273 -1.2677  2.8270
  132CHL1    C315955   4.575   6.628   6.273  0.0935  0.3087 -0.0510
  132CHL1    H315956   4.624   6.530   6.255  0.5764  0.5259  0.0697
  132CHL1    O315957   4.544   6.674   6.143  0.2578 -0.3468 -0.2001
  132CHL1   H3'15958   4.579   6.764   6.150 -0.1924 -0.2712  1.6753
  132CHL1    C415959   4.444   6.604   6.338  0.7129  0.2842 -0.1837
  132CHL1   H4A15960   4.386   6.699   6.327 -1.8027 -1.3191 -1.6695
  132CHL1   H4B15961   4.376   6.541   6.277 -1.6944  1.6787  0.9126
  132CHL1    C515962   4.449   6.557   6.477 -0.8001  0.9254 -0.6945
  132CHL1    C615963   4.407   6.430   6.521  0.8631 -0.0537 -0.8363
  132CHL1    H615964   4.346   6.367   6.454 -3.9694  1.9207  1.1951
  132CHL1    C715965   4.421   6.388   6.666 -0.0297 -0.0527 -0.4104
  132CHL1   H7A15966   4.326   6.350   6.709 -0.2951  1.6913  0.6353
  132CHL1   H7B15967   4.500   6.310   6.680  0.3672  0.3748 -0.2496
  132CHL1    C815968   4.457   6.501   6.763 -0.0748  0.1386  0.1855
  132CHL1    H815969   4.368   6.565   6.781 -1.3095 -1.7146  0.9621
  132CHL1   C1415970   4.506   6.447   6.902  0.6179 -0.1772  0.2582
  132CHL1   H1415971   4.599   6.392   6.875  1.5134  0.2869  2.2004
  132CHL1   C1515972   4.420   6.342   6.973 -0.4864  0.6088 -0.3599
  132CHL1  H15A15973   4.313   6.370   6.964 -0.9312 -1.3466 -2.1544
  132CHL1  H15B15974   4.430   6.242   6.926 -0.5363  0.4511 -0.0369
  132CHL1   C1615975   4.473   6.336   7.114  0.2167  0.1963  0.4957
  132CHL1  H16A15976   4.396   6.353   7.192 -0.1717  0.5421  0.0414
  132CHL1  H16B15977   4.517   6.236   7.134  3.1280  0.5819 -2.9493
  132CHL1   C1715978   4.578   6.447   7.124  0.0294  0.2159 -0.1099
  132CHL1   H1715979   4.677   6.399   7.107  0.2805 -0.8138  3.4847
  132CHL1   C1315980   4.538   6.544   7.007 -0.1429 -0.2006  0.0409
  132CHL1   C1815981   4.427   6.635   7.053 -0.2434  0.5074  0.7262
  132CHL1  H18A15982   4.335   6.581   7.083 -0.3203 -1.1269 -2.1357
  132CHL1  H18B15983   4.460   6.717   7.121 -0.9066  2.9047 -1.6805
  132CHL1  H18C15984   4.394   6.681   6.957 -0.0471 -0.8062  0.0072
  132CHL1   C1215985   4.657   6.627   6.953  0.5767 -0.1419  0.1776
  132CHL1  H12A15986   4.689   6.715   7.013  2.2388  1.4592 -2.8296
  132CHL1  H12B15987   4.749   6.567   6.940  1.0555  0.6193 -0.0087
  132CHL1   C1115988   4.624   6.693   6.814  0.5325 -0.6530 -0.1357
  132CHL1  H11A15989   4.545   6.767   6.839  2.1921  1.5374 -1.0328
  132CHL1  H11B15990   4.706   6.751   6.767 -0.5303 -0.3844 -1.7344
  132CHL1    C915991   4.567   6.592   6.709  0.7065  0.1863  0.2386
  132CHL1    H915992   4.649   6.522   6.683  0.6488  0.8811 -2.0216
  132CHL1   C1015993   4.534   6.654   6.570  0.0755 -0.0648  0.1650
  132CHL1   C1915994   4.450   6.787   6.588  0.5877 -0.1207 -0.2335
  132CHL1  H19A15995   4.417   6.822   6.488 -0.3442 -0.3630 -0.0185
  132CHL1  H19B15996   4.357   6.766   6.644  0.3048 -0.8290 -0.9398
  132CHL1  H19C15997   4.507   6.873   6.629  0.0255 -0.5419  1.4988
  132CHL1    C115998   4.664   6.689   6.492 -1.5680 -0.0965  0.3277
  132CHL1   H1A15999   4.716   6.773   6.543  2.3988 -0.5436 -2.5028
  132CHL1   H1B16000   4.735   6.605   6.507  1.0001  1.9200  0.3044
  132CHL1    C216001   4.651   6.733   6.347  0.2598  0.0914  0.3256
  132CHL1   H2A16002   4.752   6.731   6.300 -0.0412 -2.3643 -0.3234
  132CHL1   H2B16003   4.606   6.834   6.338  4.4858  2.1081 -1.0162
  132CHL1   C2016004   4.591   6.504   7.266  0.7359  0.5151  0.1433
  132CHL1   H2016005   4.500   6.565   7.286  1.2743  1.4296 -0.1511
  132CHL1   C2116006   4.713   6.596   7.278  0.2635  0.5060 -0.0101
  132CHL1  H21A16007   4.688   6.680   7.211  0.9639 -0.8216 -2.0384
  132CHL1  H21B16008   4.799   6.532   7.246  1.1875  0.3843  2.4766
  132CHL1  H21C16009   4.731   6.639   7.379 -1.6977  1.4069 -0.0101
  132CHL1   C2216010   4.599   6.394   7.377 -0.1577  0.8803 -0.6139
  132CHL1  H22A16011   4.505   6.335   7.387  0.1704  0.4581  0.0641
  132CHL1  H22B16012   4.676   6.320   7.347 -2.0198  0.0981 -4.0443
  132CHL1   C2316013   4.627   6.454   7.517  0.1936 -0.6608  0.3537
  132CHL1  H23A16014   4.729   6.498   7.524 -0.0110 -0.3305  1.6309
  132CHL1  H23B16015   4.558   6.538   7.542  0.6461 -0.3873  0.7096
  132CHL1   C2416016   4.620   6.339   7.618  0.1737 -0.5188 -0.4806
  132CHL1  H24A16017   4.516   6.300   7.630  1.0406 -3.3280 -1.2786
  132CHL1  H24B16018   4.694   6.259   7.596  1.5346  0.6399 -0.2708
  132CHL1   C2516019   4.669   6.384   7.759  0.0567  0.1798 -0.1656
  132CHL1   H2516020   4.774   6.418   7.744  0.9702 -1.6099  1.6253
  132CHL1   C2616021   4.571   6.490   7.820 -0.5535  0.6686 -0.0875
  132CHL1  H26A16022   4.470   6.443   7.815 -0.1333 -0.1409 -1.5235
  132CHL1  H26B16023   4.598   6.502   7.927  1.1100 -1.2300 -0.2473
  132CHL1  H26C16024   4.556   6.577   7.753 -1.1105 -0.8377 -2.0099
  132CHL1   C2716025   4.681   6.266   7.861 -0.8691 -0.1861 -0.3792
  132CHL1  H27A16026   4.773   6.203   7.855  0.4387  1.7707 -2.5656
  132CHL1  H27B16027   4.714   6.304   7.960  1.0630 -1.7652 -0.3375
  132CHL1  H27C16028   4.588   6.206   7.869 -1.3019  0.6954  1.8165
  133CHL1    C316029   0.856   1.675   5.648 -0.4625  0.4016 -0.3546
  133CHL1    H316030   0.957   1.722   5.642 -0.2005 -0.2183 -0.8455
  133CHL1    O316031   0.826   1.665   5.514 -0.0988 -1.0323  0.0697
  133CHL1   H3'16032   0.731   1.654   5.507 -0.2185  0.4625 -1.1770
  133CHL1    C416033   0.866   1.535   5.717  0.7374  0.3001 -0.1146
  133CHL1   H4A16034   0.765   1.490   5.704  1.0298 -0.4404  0.1311
  133CHL1   H4B16035   0.945   1.485   5.658 -1.1089 -1.3012 -1.3837
  133CHL1    C516036   0.890   1.546   5.868  0.0380 -0.0290 -0.0796
  133CHL1    C616037   0.987   1.473   5.929 -0.5319 -0.6201  0.0922
  133CHL1    H616038   1.041   1.403   5.864  0.1891  1.9408 -2.2743
  133CHL1    C716039   1.017   1.478   6.082 -0.0421 -0.2585  0.0514
  133CHL1   H7A16040   1.027   1.375   6.121  1.5557 -0.6268 -1.2121
  133CHL1   H7B16041   1.111   1.537   6.090  1.7275 -2.5941 -2.0659
  133CHL1    C816042   0.904   1.553   6.156  0.1342  0.5783 -0.0104
  133CHL1    H816043   0.818   1.482   6.164 -0.1411  0.7761 -1.0793
  133CHL1   C1416044   0.950   1.589   6.299  0.0154 -0.2979  0.5744
  133CHL1   H1416045   1.035   1.660   6.292  0.7259 -1.2109 -0.4178
  133CHL1   C1516046   1.001   1.481   6.393  0.7124 -0.1776  0.3321
  133CHL1  H15A16047   0.940   1.388   6.382  0.3079  0.1662 -0.3982
  133CHL1  H15B16048   1.107   1.453   6.382  0.4658 -1.2677  0.5634
  133CHL1   C1616049   0.986   1.536   6.533 -0.6232 -0.4262  0.2863
  133CHL1  H16A16050   0.915   1.468   6.584  0.7021 -2.1134 -0.0227
  133CHL1  H16B16051   1.085   1.534   6.584 -0.1287  1.8748 -0.4496
  133CHL1   C1716052   0.915   1.670   6.533 -0.9631 -0.3285  0.3916
  133CHL1   H1716053   0.996   1.746   6.529 -1.5274  0.4248  2.2368
  133CHL1   C1316054   0.846   1.668   6.387 -0.0798  0.3861 -0.2655
  133CHL1   C1816055   0.725   1.569   6.411  0.3437 -0.4054 -0.4909
  133CHL1  H18A16056   0.750   1.478   6.471  0.9333 -0.9218 -1.5019
  133CHL1  H18B16057   0.640   1.618   6.464  1.5096  2.6423 -1.2474
  133CHL1  H18C16058   0.683   1.544   6.312 -0.3905  1.5128 -0.7128
  133CHL1   C1216059   0.795   1.791   6.322  0.4534 -0.2378  0.2670
  133CHL1  H12A16060   0.704   1.822   6.378  0.7533 -0.2370  0.7566
  133CHL1  H12B16061   0.877   1.865   6.327 -0.2588  0.6702 -1.1206
  133CHL1   C1116062   0.752   1.766   6.170 -0.6664  0.3910 -0.1046
  133CHL1  H11A16063   0.658   1.707   6.166 -0.3175 -0.1259 -0.9644
  133CHL1  H11B16064   0.727   1.863   6.122  1.4793  0.2475 -1.6151
  133CHL1    C916065   0.853   1.684   6.086 -0.1813 -0.1739 -0.4225
  133CHL1    H916066   0.935   1.756   6.071 -1.6520  2.0706  1.6079
  133CHL1   C1016067   0.803   1.655   5.943  0.3981  0.0711  0.4149
  133CHL1   C1916068   0.663   1.596   5.947  0.9113  0.4637  0.0125
  133CHL1  H19A16069   0.593   1.680   5.970  0.3962  0.3659 -1.1206
  133CHL1  H19B16070   0.633   1.549   5.851 -1.5712  0.4237  0.7297
  133CHL1  H19C16071   0.655   1.513   6.020  1.2654  1.9610  1.8344
  133CHL1    C116072   0.805   1.789   5.860 -0.1174  0.4535 -0.2733
  133CHL1   H1A16073   0.740   1.866   5.908  1.3344  1.1904  0.5905
  133CHL1   H1B16074   0.911   1.822   5.867 -0.2675  0.8357  0.3513
  133CHL1    C216075   0.762   1.769   5.714 -0.2790 -0.3666  0.2436
  133CHL1   H2A16076   0.776   1.865   5.660 -0.6338 -0.4060  0.0831
  133CHL1   H2B16077   0.659   1.728   5.710  0.6823 -3.0888  0.8525
  133CHL1   C2016078   0.838   1.717   6.655  0.6664 -0.5169 -0.0615
  133CHL1   H2016079   0.743   1.663   6.674 -0.4069  1.2566 -0.1583
  133CHL1   C2116080   0.806   1.864   6.638  0.0513 -0.2293 -0.1823
  133CHL1  H21A16081   0.753   1.911   6.724  1.6971  1.9806 -0.2834
  133CHL1  H21B16082   0.726   1.889   6.566  0.4066  1.5139 -0.0141
  133CHL1  H21C16083   0.896   1.926   6.615 -0.6238  0.9634  0.3352
  133CHL1   C2216084   0.909   1.686   6.788  0.1083 -0.3463 -0.4058
  133CHL1  H22A16085   0.920   1.578   6.810 -0.9093 -0.1746  1.1135
  133CHL1  H22B16086   1.015   1.719   6.791 -0.0788  0.1399  1.4554
  133CHL1   C2316087   0.837   1.720   6.920  0.2506 -0.7913  0.0336
  133CHL1  H23A16088   0.790   1.820   6.917  0.5733 -0.6562 -1.5364
  133CHL1  H23B16089   0.759   1.643   6.942  0.0897 -0.5230  0.3951
  133CHL1   C2416090   0.940   1.724   7.037  0.1582 -0.2936  1.2183
  133CHL1  H24A16091   0.997   1.630   7.023  1.1669  0.6696 -1.8809
  133CHL1  H24B16092   1.022   1.797   7.024  0.4690 -0.7506  0.5492
  133CHL1   C2516093   0.883   1.753   7.179 -0.3583 -0.3421  0.4291
  133CHL1   H2516094   0.802   1.678   7.184 -0.0002 -0.9492 -1.6370
  133CHL1   C2616095   0.988   1.719   7.291  0.3807 -0.1582 -0.3935
  133CHL1  H26A16096   1.075   1.789   7.300  0.1484 -0.0557  1.4330
  133CHL1  H26B16097   0.933   1.730   7.386  0.5864 -0.3373 -0.2520
  133CHL1  H26C16098   1.009   1.610   7.295  0.9417 -0.0247  0.6749
  133CHL1   C2716099   0.835   1.902   7.199  0.0398  0.2948 -0.2247
  133CHL1  H27A16100   0.744   1.916   7.136 -1.1208  0.9288  1.5208
  133CHL1  H27B16101   0.799   1.914   7.303 -0.7249 -0.7256 -0.3541
  133CHL1  H27C16102   0.916   1.977   7.190 -0.7998  1.3405  0.6068
  134CHL1    C316103   6.341   2.536   5.765 -0.2105 -0.5583  0.1373
  134CHL1    H316104   6.236   2.501   5.769 -0.9484  1.4141 -0.8383
  134CHL1    O316105   6.369   2.556   5.627 -0.1481  0.0786  0.6906
  134CHL1   H3'16106   6.440   2.620   5.621  0.1168 -0.2599  0.1695
  134CHL1    C416107   6.361   2.675   5.831  0.1620  0.1354 -0.9500
  134CHL1   H4A16108   6.461   2.711   5.801 -0.2708  1.1722 -1.1867
  134CHL1   H4B16109   6.288   2.747   5.789 -0.5369 -0.3513 -0.6088
  134CHL1    C516110   6.343   2.660   5.986  0.0756  0.4711 -0.4848
  134CHL1    C616111   6.256   2.735   6.051  0.5545  0.1230 -0.2273
  134CHL1    H616112   6.195   2.810   5.999 -1.0443 -1.2186 -0.3560
  134CHL1    C716113   6.220   2.720   6.197 -0.0047 -0.6649 -0.1814
  134CHL1   H7A16114   6.210   2.819   6.246  1.2968 -0.0825 -1.0502
  134CHL1   H7B16115   6.128   2.658   6.204 -0.4708  0.1269  0.9211
  134CHL1    C816116   6.337   2.648   6.261  0.5273  0.1667 -0.0320
  134CHL1    H816117   6.429   2.710   6.269  0.0949  0.7459  0.5480
  134CHL1   C1416118   6.294   2.612   6.404 -0.3562 -0.5621  0.7902
  134CHL1   H1416119   6.202   2.550   6.393 -1.5297  1.3472 -0.9921
  134CHL1   C1516120   6.267   2.736   6.490 -0.1222  0.0167 -0.4162
  134CHL1  H15A16121   6.323   2.826   6.456 -0.6674  0.0588 -1.2283
  134CHL1  H15B16122   6.163   2.768   6.470  0.1956  1.7826  0.4933
  134CHL1   C1616123   6.275   2.692   6.633 -0.2912 -0.3407  0.4273
  134CHL1  H16A16124   6.329   2.766   6.695 -0.8247  0.0799  0.3900
  134CHL1  H16B16125   6.174   2.664   6.670 -1.5324 -0.2434 -2.5327
  134CHL1   C1716126   6.344   2.546   6.631  0.5115  0.3201  0.0968
  134CHL1   H1716127   6.258   2.476   6.635  0.5361  0.2747 -0.1815
  134CHL1   C1316128   6.393   2.540   6.487 -0.6538  0.4334  0.0865
  134CHL1   C1816129   6.528   2.619   6.484 -0.0027 -0.6214  0.2588
  134CHL1  H18A16130   6.517   2.729   6.493  0.9434 -0.5629  0.8767
  134CHL1  H18B16131   6.593   2.582   6.566 -0.0341  0.1836  0.6514
  134CHL1  H18C16132   6.582   2.601   6.388 -3.0233  0.3471 -1.7475
  134CHL1   C1216133   6.411   2.399   6.422  0.1692  0.2284 -0.0509
  134CHL1  H12A16134   6.480   2.337   6.483  0.5094  1.3599  0.7615
  134CHL1  H12B16135   6.309   2.355   6.418  0.6047 -0.8796  0.7863
  134CHL1   C1116136   6.457   2.409   6.271  0.7221 -0.0126 -0.4940
  134CHL1  H11A16137   6.567   2.425   6.275  0.7961 -0.1298 -1.7765
  134CHL1  H11B16138   6.451   2.304   6.234 -0.6255  0.5662 -2.0197
  134CHL1    C916139   6.365   2.515   6.191  0.8522 -0.3068 -0.4024
  134CHL1    H916140   6.267   2.466   6.169  0.6644 -0.6521  1.0481
  134CHL1   C1016141   6.416   2.543   6.053 -0.0829 -0.1616 -0.0726
  134CHL1   C1916142   6.569   2.588   6.071 -0.3936 -0.0270  0.9665
  134CHL1  H19A16143   6.615   2.585   5.970 -0.2454  0.6093  1.0112
  134CHL1  H19B16144   6.587   2.687   6.116 -0.7295  0.3421  0.3053
  134CHL1  H19C16145   6.635   2.514   6.120  0.4578  0.5481  0.7037
  134CHL1    C116146   6.393   2.411   5.963 -0.7261 -0.0215  0.0941
  134CHL1   H1A16147   6.458   2.331   6.005 -1.0414 -0.1084  0.4144
  134CHL1   H1B16148   6.286   2.386   5.975 -0.0646 -2.7050  1.2241
  134CHL1    C216149   6.429   2.423   5.819  0.5734 -0.2018  0.4309
  134CHL1   H2A16150   6.393   2.334   5.764 -2.7148  1.3481 -0.1428
  134CHL1   H2B16151   6.538   2.443   5.810  0.3404  0.5399 -0.9272
  134CHL1   C2016152   6.421   2.518   6.758 -0.4583  0.5418 -0.5773
  134CHL1   H2016153   6.510   2.584   6.760 -0.0580  0.0336 -1.2673
  134CHL1   C2116154   6.477   2.377   6.766  0.0297  0.7365 -1.2344
  134CHL1  H21A16155   6.395   2.309   6.735 -0.0761  0.4876 -0.4328
  134CHL1  H21B16156   6.506   2.343   6.868 -2.2049  0.1113 -0.7655
  134CHL1  H21C16157   6.569   2.369   6.703  0.9175  1.2085 -0.0328
  134CHL1   C2216158   6.328   2.561   6.883 -0.1615 -0.0371 -0.0520
  134CHL1  H22A16159   6.293   2.666   6.874  0.7236  0.4941  2.1126
  134CHL1  H22B16160   6.241   2.491   6.881  0.5619 -0.9976  0.8065
  134CHL1   C2316161   6.384   2.546   7.028 -0.3174  0.1252  0.5406
  134CHL1  H23A16162   6.414   2.440   7.040 -2.1858 -0.6141 -0.7508
  134CHL1  H23B16163   6.472   2.612   7.041  1.5485 -1.5326 -2.5595
  134CHL1   C2416164   6.268   2.571   7.132  0.3912  0.1389 -0.0938
  134CHL1  H24A16165   6.218   2.666   7.105  0.9158  0.8427  1.2814
  134CHL1  H24B16166   6.197   2.487   7.116  1.6939 -0.7071 -1.7292
  134CHL1   C2516167   6.298   2.551   7.282 -0.0916  0.1230  0.2241
  134CHL1   H2516168   6.339   2.448   7.293 -0.9906 -0.1808  0.8226
  134CHL1   C2616169   6.404   2.651   7.340 -0.0680 -0.2076  0.1247
  134CHL1  H26A16170   6.496   2.637   7.280  0.1300 -0.6108  0.5201
  134CHL1  H26B16171   6.361   2.753   7.338  0.3155 -0.0529 -0.7404
  134CHL1  H26C16172   6.432   2.632   7.446  1.4627  0.5226 -0.1236
  134CHL1   C2716173   6.179   2.563   7.381 -0.0910 -0.0851  0.6045
  134CHL1  H27A16174   6.217   2.537   7.482 -1.1282 -0.6264  0.8655
  134CHL1  H27B16175   6.130   2.663   7.384 -0.1338 -0.0068 -1.3233
  134CHL1  H27C16176   6.106   2.481   7.362  1.5346 -1.4986  0.2094
  135CHL1    C316177   5.724   2.761   6.091 -0.1624 -0.2211 -0.0092
  135CHL1    H316178   5.646   2.830   6.131 -0.5621 -0.1574 -0.8706
  135CHL1    O316179   5.747   2.789   5.954  0.3641  0.3647  0.1270
  135CHL1   H3'16180   5.842   2.782   5.946  0.4137  2.1769 -1.7678
  135CHL1    C416181   5.845   2.801   6.175 -0.6608 -0.7014 -0.5007
  135CHL1   H4A16182   5.931   2.745   6.132  0.1110 -0.0601  0.1878
  135CHL1   H4B16183   5.864   2.909   6.157 -1.6460 -0.6799 -1.5367
  135CHL1    C516184   5.837   2.754   6.318 -0.6687 -0.2831 -0.2535
  135CHL1    C616185   5.861   2.851   6.410 -0.4251 -0.5900 -0.3049
  135CHL1    H616186   5.898   2.947   6.371  0.0541  0.2454  2.0642
  135CHL1    C716187   5.861   2.835   6.563  0.2871  0.2338 -0.0091
  135CHL1   H7A16188   5.950   2.880   6.612  1.2667  0.6112 -2.0320
  135CHL1   H7B16189   5.776   2.894   6.603 -0.0823 -0.2526 -0.0656
  135CHL1    C816190   5.844   2.685   6.599 -0.0542 -0.3885  0.2237
  135CHL1    H816191   5.936   2.624   6.585  1.3083  1.4136  0.9428
  135CHL1   C1416192   5.810   2.654   6.744  0.3041  0.3308  0.4650
  135CHL1   H1416193   5.724   2.721   6.764 -0.3826  0.1098 -1.4885
  135CHL1   C1516194   5.888   2.721   6.851  0.1900 -0.1321 -0.9285
  135CHL1  H15A16195   5.995   2.725   6.823  1.2562 -0.1817  2.6947
  135CHL1  H15B16196   5.871   2.830   6.865  0.3517 -0.1207 -0.8238
  135CHL1   C1616197   5.853   2.650   6.978 -0.1635 -0.4426  0.1686
  135CHL1  H16A16198   5.951   2.618   7.020 -0.7504 -0.5534  1.5145
  135CHL1  H16B16199   5.803   2.707   7.060 -0.7334 -0.8975  0.1483
  135CHL1   C1716200   5.759   2.528   6.937  0.4631 -0.1239  0.3356
  135CHL1   H1716201   5.654   2.563   6.947  0.9123  1.0716  1.1146
  135CHL1   C1316202   5.780   2.505   6.785 -0.5848  0.4779 -0.2382
  135CHL1   C1816203   5.906   2.417   6.763  0.2023 -0.0631 -0.5022
  135CHL1  H18A16204   5.983   2.435   6.841 -0.8663 -1.5439  0.9733
  135CHL1  H18B16205   5.874   2.311   6.769  2.0787 -0.6934 -0.9748
  135CHL1  H18C16206   5.955   2.420   6.663  1.4150 -2.1287 -0.0142
  135CHL1   C1216207   5.666   2.454   6.695  0.2100 -0.1123  0.8743
  135CHL1  H12A16208   5.631   2.355   6.732 -1.7630  0.2307  0.0925
  135CHL1  H12B16209   5.578   2.521   6.705 -0.4312 -0.3746 -2.1413
  135CHL1   C1116210   5.706   2.461   6.551 -0.0792 -0.0511  0.0082
  135CHL1  H11A16211   5.782   2.384   6.529  0.1318  0.4638 -1.1511
  135CHL1  H11B16212   5.618   2.428   6.492  0.4041 -0.6467 -0.3895
  135CHL1    C916213   5.744   2.605   6.502 -0.2123  0.1587  0.6031
  135CHL1    H916214   5.652   2.668   6.502  0.2202  0.7967 -0.1408
  135CHL1   C1016215   5.788   2.615   6.355 -0.6589  0.4428  0.2929
  135CHL1   C1916216   5.909   2.524   6.333 -0.2173 -0.4700  0.4009
  135CHL1  H19A16217   5.940   2.517   6.227  0.2785 -1.4152  0.6052
  135CHL1  H19B16218   5.999   2.565   6.384  0.8947 -0.3245 -1.5900
  135CHL1  H19C16219   5.898   2.421   6.373  0.4362 -1.3773 -1.6562
  135CHL1    C116220   5.675   2.580   6.260 -0.3864  0.5162 -0.1939
  135CHL1   H1A16221   5.654   2.471   6.265 -0.0471  0.3744 -1.4699
  135CHL1   H1B16222   5.576   2.619   6.292  0.2991 -0.0125  2.8744
  135CHL1    C216223   5.691   2.620   6.114 -0.2291  0.9819  0.4570
  135CHL1   H2A16224   5.599   2.601   6.054 -0.4035  1.9426  0.4061
  135CHL1   H2B16225   5.773   2.558   6.072 -0.5170  0.3049  0.8747
  135CHL1   C2016226   5.777   2.418   7.044 -0.3521  0.4014  0.2134
  135CHL1   H2016227   5.874   2.369   7.019  0.5600  0.8585  2.6808
  135CHL1   C2116228   5.674   2.298   7.031 -0.4007  0.1583 -0.9157
  135CHL1  H21A16229   5.686   2.216   7.106 -2.5502  0.8896  0.3426
  135CHL1  H21B16230   5.681   2.249   6.932  2.3532  0.4970 -0.9666
  135CHL1  H21C16231   5.567   2.324   7.046  0.1351  1.1972  1.6447
  135CHL1   C2216232   5.780   2.472   7.195 -0.5310  0.0709  0.1191
  135CHL1  H22A16233   5.873   2.531   7.209 -0.2589 -0.4450  0.5670
  135CHL1  H22B16234   5.691   2.536   7.212 -0.9460 -0.8513  1.5982
  135CHL1   C2316235   5.794   2.363   7.308  0.0292 -0.2709 -0.1519
  135CHL1  H23A16236   5.707   2.295   7.300 -0.1239 -0.3878  1.8418
  135CHL1  H23B16237   5.887   2.306   7.287 -0.0793 -0.6356  0.3268
  135CHL1   C2416238   5.808   2.414   7.450  0.7283 -0.2991  0.3954
  135CHL1  H24A16239   5.878   2.499   7.457  0.2259  0.0195  2.2172
  135CHL1  H24B16240   5.709   2.461   7.472  0.1786 -1.2280 -0.0291
  135CHL1   C2516241   5.842   2.324   7.575  0.2720  0.6867  0.2568
  135CHL1   H2516242   5.945   2.285   7.560 -0.1589  0.2783 -1.8432
  135CHL1   C2616243   5.839   2.413   7.699  0.3976  0.2139 -1.0152
  135CHL1  H26A16244   5.834   2.360   7.796 -0.8232 -0.5389 -1.4676
  135CHL1  H26B16245   5.933   2.473   7.703  0.0893  0.7595 -1.7893
  135CHL1  H26C16246   5.758   2.488   7.689  0.8103  0.7684 -0.3339
  135CHL1   C2716247   5.752   2.197   7.575  0.1695 -0.4327  0.8038
  135CHL1  H27A16248   5.754   2.154   7.678  1.0091 -2.5351 -0.0328
  135CHL1  H27B16249   5.651   2.228   7.542  0.3673 -1.6488 -1.1227
  135CHL1  H27C16250   5.791   2.119   7.505 -3.6712 -2.0510  0.2238
  136CHL1    C316251   5.158   0.564   6.171  0.5663 -0.8046  0.5531
  136CHL1    H316252   5.190   0.460   6.194  1.8616 -0.6905 -0.6455
  136CHL1    O316253   5.142   0.565   6.028 -0.1468  0.2439 -0.5881
  136CHL1   H3'16254   5.126   0.656   6.002 -0.8110 -0.1178 -1.5069
  136CHL1    C416255   5.016   0.590   6.235  0.0261 -0.6035 -0.0542
  136CHL1   H4A16256   4.974   0.689   6.206  0.1866 -0.5906 -0.2402
  136CHL1   H4B16257   4.950   0.512   6.191  1.9424 -2.3984  0.0950
  136CHL1    C516258   5.021   0.587   6.389 -0.1110 -0.1317  0.1114
  136CHL1    C616259   4.942   0.509   6.460 -0.0799 -0.6408 -0.0556
  136CHL1    H616260   4.876   0.443   6.401 -0.1747  0.7952 -1.6331
  136CHL1    C716261   4.933   0.503   6.604 -0.1097 -0.0310 -1.0173
  136CHL1   H7A16262   4.831   0.526   6.642 -0.0278 -1.9219  0.5111
  136CHL1   H7B16263   4.947   0.395   6.625  0.8192  0.2851  0.0348
  136CHL1    C816264   5.036   0.591   6.681 -0.1193 -0.1257  0.3160
  136CHL1    H816265   4.984   0.689   6.681 -0.2687 -0.1670 -2.0737
  136CHL1   C1416266   5.065   0.539   6.822  0.0637 -0.4387  0.2919
  136CHL1   H1416267   5.110   0.437   6.821 -2.1088 -1.4612 -0.8401
  136CHL1   C1516268   4.941   0.524   6.908  0.7362 -1.5239  0.0183
  136CHL1  H15A16269   4.861   0.598   6.885  0.8934 -0.5183  2.4238
  136CHL1  H15B16270   4.892   0.425   6.897  1.0687 -1.9051  1.7309
  136CHL1   C1616271   4.997   0.540   7.045 -0.3375  0.3058 -0.8697
  136CHL1  H16A16272   4.941   0.623   7.093 -0.4013 -0.3626  0.2358
  136CHL1  H16B16273   4.983   0.453   7.113 -1.5839  1.1498 -0.0033
  136CHL1   C1716274   5.152   0.580   7.033 -0.2144 -0.1267 -0.4007
  136CHL1   H1716275   5.203   0.481   7.036  3.4670  1.5752 -1.7247
  136CHL1   C1316276   5.158   0.642   6.896 -0.6429 -0.0638 -0.3036
  136CHL1   C1816277   5.106   0.775   6.895 -0.0287 -0.2279 -0.3589
  136CHL1  H18A16278   4.998   0.780   6.919  0.2723 -1.0798  1.4188
  136CHL1  H18B16279   5.151   0.839   6.974  1.9956 -3.1988  1.1192
  136CHL1  H18C16280   5.118   0.826   6.797  1.2733  0.3570  0.0752
  136CHL1   C1216281   5.295   0.643   6.824  0.6861 -0.1056  0.4786
  136CHL1  H12A16282   5.368   0.713   6.870  0.3553  0.8286 -0.3903
  136CHL1  H12B16283   5.337   0.541   6.840  0.2441 -0.4775 -0.6125
  136CHL1   C1116284   5.283   0.680   6.676  0.7420 -0.4288  0.3824
  136CHL1  H11A16285   5.293   0.788   6.654 -1.1659  0.1898  2.2752
  136CHL1  H11B16286   5.373   0.627   6.637  0.3603 -1.3982  0.7947
  136CHL1    C916287   5.165   0.605   6.597 -0.0573  0.0321 -0.0380
  136CHL1    H916288   5.206   0.502   6.586  0.1249  0.0348  0.5485
  136CHL1   C1016289   5.143   0.655   6.456 -0.9306 -0.3516 -0.5153
  136CHL1   C1916290   5.113   0.807   6.460 -0.3558 -0.1217  0.2348
  136CHL1  H19A16291   5.019   0.826   6.516 -0.7496 -0.3270 -0.3476
  136CHL1  H19B16292   5.199   0.864   6.500  0.2762 -2.0891  1.8663
  136CHL1  H19C16293   5.103   0.849   6.358  1.2408 -1.4435 -0.5218
  136CHL1    C116294   5.282   0.640   6.377  1.0000  0.4382  0.0695
  136CHL1   H1A16295   5.344   0.718   6.427  0.5484 -0.9852  3.0979
  136CHL1   H1B16296   5.328   0.540   6.394  2.0314  0.7428 -0.7995
  136CHL1    C216297   5.273   0.662   6.225 -0.5118  0.2365  0.4028
  136CHL1   H2A16298   5.373   0.644   6.179  0.0479  1.5815  1.0510
  136CHL1   H2B16299   5.251   0.769   6.205 -0.1258  0.2720  0.1638
  136CHL1   C2016300   5.202   0.655   7.153  0.3401 -0.1355  0.1479
  136CHL1   H2016301   5.152   0.754   7.157 -0.9845 -0.8172  2.1910
  136CHL1   C2116302   5.350   0.676   7.134 -1.0071 -0.1875  0.8101
  136CHL1  H21A16303   5.364   0.763   7.066  2.6694 -0.2958  1.2563
  136CHL1  H21B16304   5.387   0.589   7.076 -2.2368 -0.3014  0.1454
  136CHL1  H21C16305   5.402   0.693   7.230  2.3843 -4.0744 -0.0721
  136CHL1   C2216306   5.175   0.581   7.287  0.5047  0.0278 -0.2069
  136CHL1  H22A16307   5.072   0.539   7.288  0.3801  0.1667 -2.5210
  136CHL1  H22B16308   5.243   0.494   7.302 -1.0602 -1.1260  0.3959
  136CHL1   C2316309   5.185   0.676   7.410  0.1636  0.3832 -0.6028
  136CHL1  H23A16310   5.270   0.747   7.406  0.7137 -0.1340  0.9296
  136CHL1  H23B16311   5.094   0.736   7.430  1.3602  1.5762  1.6439
  136CHL1   C2416312   5.194   0.591   7.535 -0.2735  0.0361 -0.1346
  136CHL1  H24A16313   5.109   0.521   7.545  1.1373 -1.4756  3.0411
  136CHL1  H24B16314   5.279   0.521   7.519 -2.2584 -2.1327 -1.9782
  136CHL1   C2516315   5.234   0.668   7.665  0.6394  0.2199  0.2506
  136CHL1   H2516316   5.326   0.729   7.649  0.9235  0.0689  1.1881
  136CHL1   C2616317   5.126   0.771   7.702 -0.2701 -0.6039 -0.0637
  136CHL1  H26A16318   5.031   0.715   7.701  0.5103 -1.9705 -1.0095
  136CHL1  H26B16319   5.142   0.833   7.793 -3.2834  1.2508 -0.6647
  136CHL1  H26C16320   5.120   0.842   7.617  2.1960 -1.1757 -0.8205
  136CHL1   C2716321   5.268   0.576   7.780 -0.5486  0.3305 -0.0490
  136CHL1  H27A16322   5.350   0.509   7.745 -1.7804 -0.7643 -0.9033
  136CHL1  H27B16323   5.292   0.636   7.871 -1.9482  1.7743 -0.5894
  136CHL1  H27C16324   5.177   0.516   7.801 -0.5568  0.1049 -0.6972
  137CHL1    C316325   1.281   1.053   5.608  0.2007 -0.6139  0.3544
  137CHL1    H316326   1.320   1.156   5.593 -0.0332 -0.4407  0.9330
  137CHL1    O316327   1.282   0.995   5.479  0.1997  0.2038  0.2942
  137CHL1   H3'16328   1.246   0.907   5.493 -1.4526  1.0344  1.6645
  137CHL1    C416329   1.370   0.967   5.700 -0.3812 -0.1523  0.2445
  137CHL1   H4A16330   1.341   0.860   5.692 -0.9847 -0.0542  0.9390
  137CHL1   H4B16331   1.474   0.975   5.665  0.5917 -0.5424  2.7872
  137CHL1    C516332   1.363   0.996   5.853 -0.5599 -0.3304  0.2347
  137CHL1    C616333   1.478   1.017   5.925 -0.7860  0.4982 -0.4370
  137CHL1    H616334   1.579   1.005   5.883 -1.2504 -0.8852 -1.2454
  137CHL1    C716335   1.467   1.042   6.071  0.2238 -0.6259 -0.4909
  137CHL1   H7A16336   1.540   0.981   6.127 -0.6683 -1.9867 -0.7563
  137CHL1   H7B16337   1.498   1.147   6.090  0.7297 -0.9635  0.6106
  137CHL1    C816338   1.331   1.011   6.132  0.0598  0.7270 -0.0980
  137CHL1    H816339   1.330   0.900   6.124 -0.2020  0.6153  1.2977
  137CHL1   C1416340   1.314   1.067   6.276  0.2930  0.3499 -0.1231
  137CHL1   H1416341   1.312   1.177   6.256 -0.5696  0.4966  0.6706
  137CHL1   C1516342   1.427   1.055   6.372 -0.5247  0.3223 -0.2996
  137CHL1  H15A16343   1.466   0.952   6.359 -2.1262 -0.5802  1.5141
  137CHL1  H15B16344   1.511   1.127   6.362 -0.6781  0.2799 -2.1574
  137CHL1   C1616345   1.360   1.074   6.513 -0.0514  0.8299 -0.9679
  137CHL1  H16A16346   1.378   0.975   6.559 -2.0855  0.2820 -1.2749
  137CHL1  H16B16347   1.410   1.159   6.566 -0.0987 -0.6192  1.5738
  137CHL1   C1716348   1.212   1.080   6.479  0.4996 -0.0288 -0.0039
  137CHL1   H1716349   1.195   1.189   6.463  1.5789 -0.1390 -2.4525
  137CHL1   C1316350   1.188   1.032   6.341  0.4065 -0.6034 -0.2211
  137CHL1   C1816351   1.173   0.879   6.335  0.6621  0.7594 -0.3485
  137CHL1  H18A16352   1.071   0.855   6.374  1.3011 -0.6201  0.5899
  137CHL1  H18B16353   1.175   0.841   6.231 -1.9223  4.1876 -1.8335
  137CHL1  H18C16354   1.242   0.815   6.394  1.0799  0.6452 -0.9567
  137CHL1   C1216355   1.073   1.096   6.259  0.3781  0.1714  0.1409
  137CHL1  H12A16356   0.976   1.058   6.298 -0.4214 -0.1980 -2.0712
  137CHL1  H12B16357   1.090   1.206   6.262 -0.6779  0.3784 -0.8070
  137CHL1   C1116358   1.080   1.067   6.107  0.4630  0.1461  0.1055
  137CHL1  H11A16359   1.025   0.971   6.100  0.2869  0.0027  2.6642
  137CHL1  H11B16360   1.027   1.142   6.045  0.4769 -0.0354 -0.1272
  137CHL1    C916361   1.219   1.065   6.044 -0.8490  0.3556 -0.3328
  137CHL1    H916362   1.248   1.171   6.026  3.6278 -0.3419  1.4673
  137CHL1   C1016363   1.224   1.000   5.905  0.0419 -0.4777  0.3995
  137CHL1   C1916364   1.165   0.852   5.917  0.1039 -0.0150  0.2262
  137CHL1  H19A16365   1.228   0.791   5.984 -3.0564 -3.6226  0.2447
  137CHL1  H19B16366   1.062   0.843   5.959  1.0218 -0.0944  2.5618
  137CHL1  H19C16367   1.159   0.803   5.817  0.8114  1.5444 -0.6325
  137CHL1    C116368   1.128   1.089   5.817 -0.1850 -0.2714  0.0966
  137CHL1   H1A16369   1.024   1.078   5.854  0.4747  1.5856  2.8060
  137CHL1   H1B16370   1.154   1.196   5.821  1.1877 -0.4870 -1.7697
  137CHL1    C216371   1.132   1.056   5.661  0.1823 -0.1051 -0.2142
  137CHL1   H2A16372   1.074   1.132   5.604  2.1750 -0.1755 -2.5069
  137CHL1   H2B16373   1.081   0.959   5.641  0.5647 -0.2790 -0.3536
  137CHL1   C2016374   1.097   1.046   6.576  0.1008 -0.3191  0.2069
  137CHL1   H2016375   1.006   1.008   6.524  0.4485 -1.8998  0.6924
  137CHL1   C2116376   1.066   1.175   6.653 -0.1951  0.8360  0.1352
  137CHL1  H21A16377   0.992   1.158   6.734  0.3134 -0.3399  0.3800
  137CHL1  H21B16378   1.027   1.243   6.575  2.9457  1.8080 -0.7556
  137CHL1  H21C16379   1.159   1.222   6.693 -0.7073 -0.2264  2.7686
  137CHL1   C2216380   1.132   0.927   6.670 -0.0122  1.0911  0.1176
  137CHL1  H22A16381   1.160   0.829   6.625  0.5811 -0.3782  3.3622
  137CHL1  H22B16382   1.222   0.959   6.728 -0.7158  1.5302  0.9881
  137CHL1   C2316383   1.023   0.890   6.776 -0.3509  0.8501 -0.0292
  137CHL1  H23A16384   1.003   0.985   6.830 -2.2538  0.7030 -0.4038
  137CHL1  H23B16385   0.926   0.877   6.723 -0.3254  1.2185 -0.1683
  137CHL1   C2416386   1.073   0.780   6.870 -0.2480  0.5781 -0.9372
  137CHL1  H24A16387   1.089   0.690   6.807 -0.0469  0.4518 -0.7094
  137CHL1  H24B16388   1.176   0.800   6.907 -0.7152  0.6116  0.3898
  137CHL1   C2516389   0.981   0.733   6.983 -0.5199 -0.9321 -0.1781
  137CHL1   H2516390   0.886   0.735   6.926  0.6795  3.6520 -2.5566
  137CHL1   C2616391   1.013   0.592   7.023 -0.2719 -0.2094 -0.0225
  137CHL1  H26A16392   1.118   0.596   7.058  0.9080 -0.1388 -3.2491
  137CHL1  H26B16393   0.940   0.554   7.097 -1.5148  2.5479  0.2895
  137CHL1  H26C16394   1.014   0.518   6.940 -1.1895 -0.3109  0.0515
  137CHL1   C2716395   0.970   0.829   7.103  0.0545  0.5971 -0.1592
  137CHL1  H27A16396   0.935   0.932   7.078 -0.0979  0.3650 -0.9483
  137CHL1  H27B16397   0.898   0.799   7.182 -0.6372 -0.4038 -1.1414
  137CHL1  H27C16398   1.064   0.829   7.162 -0.6439 -0.3809  0.9965
  138CHL1    C316399   6.102   0.204   5.897 -0.0743 -0.8363 -0.1263
  138CHL1    H316400   6.102   0.093   5.903  1.0256 -0.9385 -1.5225
  138CHL1    O316401   6.109   0.238   5.759 -0.9240 -0.0737 -0.5157
  138CHL1   H3'16402   6.168   0.312   5.747  0.0169 -0.8566 -0.8479
  138CHL1    C416403   5.971   0.264   5.963  0.5734  0.0563  0.4200
  138CHL1   H4A16404   5.986   0.370   5.933  1.5804 -0.5404 -1.2937
  138CHL1   H4B16405   5.876   0.242   5.909 -1.1554  3.0897  1.9287
  138CHL1    C516406   5.961   0.225   6.105 -0.0041 -0.1242 -0.3938
  138CHL1    C616407   5.862   0.150   6.162  0.1316  0.7087 -0.2850
  138CHL1    H616408   5.781   0.114   6.097 -1.1067  1.1525  0.9588
  138CHL1    C716409   5.845   0.117   6.312  0.0615  0.0789 -0.5078
  138CHL1   H7A16410   5.745   0.139   6.356  1.2436  0.0413  2.4833
  138CHL1   H7B16411   5.860   0.009   6.331 -0.1785  0.5007  2.6452
  138CHL1    C816412   5.951   0.193   6.407  0.5820 -0.8938 -1.0596
  138CHL1    H816413   5.920   0.299   6.419  3.8211  0.2530 -1.7916
  138CHL1   C1416414   5.964   0.126   6.543 -0.1543 -0.2660 -0.0071
  138CHL1   H1416415   6.003   0.024   6.521 -0.8092 -0.3147 -1.0259
  138CHL1   C1516416   5.833   0.101   6.619  0.5546 -0.6984 -0.0923
  138CHL1  H15A16417   5.765   0.189   6.615 -0.5341 -1.5596 -0.8975
  138CHL1  H15B16418   5.774   0.017   6.576  1.8067 -0.3944 -2.5783
  138CHL1   C1616419   5.883   0.086   6.763  0.3145 -0.2859  0.5878
  138CHL1  H16A16420   5.839   0.176   6.812  1.2866 -0.4762  1.8731
  138CHL1  H16B16421   5.863  -0.008   6.819 -2.3582 -0.4658 -0.5564
  138CHL1   C1716422   6.037   0.117   6.762 -0.0706  0.5414  0.1421
  138CHL1   H1716423   6.090   0.020   6.755 -0.6129  0.1524  1.1832
  138CHL1   C1316424   6.065   0.199   6.634  0.2953  0.6096 -0.0283
  138CHL1   C1816425   6.022   0.350   6.661  0.0498 -0.4006 -0.2622
  138CHL1  H18A16426   6.045   0.408   6.568  0.7383 -1.5860 -0.8560
  138CHL1  H18B16427   5.915   0.365   6.686 -0.2573 -3.0080  0.2116
  138CHL1  H18C16428   6.086   0.396   6.739 -1.7453  3.0830 -0.6316
  138CHL1   C1216429   6.200   0.180   6.564  0.1446 -0.6109  0.3029
  138CHL1  H12A16430   6.288   0.221   6.618 -1.4636  2.8494  0.6312
  138CHL1  H12B16431   6.214   0.070   6.559 -0.0892 -0.7523  2.0194
  138CHL1   C1116432   6.202   0.247   6.423  0.1899 -0.3673 -0.2195
  138CHL1  H11A16433   6.209   0.357   6.436 -0.8224 -0.4300  1.1347
  138CHL1  H11B16434   6.301   0.223   6.379 -0.2563  0.8610 -2.0188
  138CHL1    C916435   6.084   0.192   6.335 -0.2991  0.4609 -0.8333
  138CHL1    H916436   6.100   0.083   6.317 -1.7301 -0.2781  1.8127
  138CHL1   C1016437   6.085   0.264   6.196  0.0612  0.7909  0.2550
  138CHL1   C1916438   6.076   0.412   6.217 -0.5298  0.7397 -0.3348
  138CHL1  H19A16439   6.172   0.447   6.261  1.0476 -2.5127 -0.8851
  138CHL1  H19B16440   6.066   0.471   6.123  0.8031  0.5834 -0.5920
  138CHL1  H19C16441   5.995   0.449   6.282 -0.8192  1.8777 -1.2976
  138CHL1    C116442   6.212   0.229   6.118 -0.4748 -0.1863 -0.0568
  138CHL1   H1A16443   6.306   0.272   6.158  0.2368  0.3982 -2.2058
  138CHL1   H1B16444   6.230   0.120   6.129 -0.1671 -0.0140  1.2782
  138CHL1    C216445   6.226   0.263   5.973  0.2826  0.9396 -0.8394
  138CHL1   H2A16446   6.324   0.234   5.927  0.7793  0.1527  0.6330
  138CHL1   H2B16447   6.229   0.373   5.983 -0.8403  0.8404  1.0705
  138CHL1   C2016448   6.083   0.162   6.900  0.9523  0.3958 -0.1143
  138CHL1   H2016449   6.015   0.244   6.932 -0.7372 -1.6508  1.8328
  138CHL1   C2116450   6.241   0.207   6.891  0.3396  0.9100 -0.1006
  138CHL1  H21A16451   6.245   0.303   6.835  0.7306  1.4345  0.7854
  138CHL1  H21B16452   6.312   0.126   6.864 -0.6966 -0.0083 -0.1372
  138CHL1  H21C16453   6.272   0.237   6.994  0.8658 -1.3543  0.4708
  138CHL1   C2216454   6.074   0.056   7.012 -0.0052  0.8190 -0.7148
  138CHL1  H22A16455   5.973   0.011   7.012  1.6833 -3.5187 -2.3498
  138CHL1  H22B16456   6.137  -0.026   6.973  0.9572  0.3104  1.6793
  138CHL1   C2316457   6.125   0.100   7.146 -0.0102 -0.0572  0.1845
  138CHL1  H23A16458   6.127   0.012   7.214 -1.6864 -0.8305 -0.7380
  138CHL1  H23B16459   6.233   0.124   7.137  0.3692 -1.4233  0.7581
  138CHL1   C2416460   6.037   0.216   7.207 -0.7529 -0.4950  0.4018
  138CHL1  H24A16461   6.041   0.315   7.157  1.9351 -0.7837 -0.1332
  138CHL1  H24B16462   5.932   0.182   7.203 -0.6887 -0.6441 -0.2345
  138CHL1   C2516463   6.083   0.236   7.354 -0.1247  0.2564  0.3145
  138CHL1   H2516464   6.194   0.239   7.362  0.1385 -2.2489 -1.3256
  138CHL1   C2616465   6.041   0.378   7.401 -0.2587 -0.5915 -0.2380
  138CHL1  H26A16466   6.063   0.396   7.508  0.1182 -0.1635 -0.3850
  138CHL1  H26B16467   6.094   0.455   7.341 -1.8831  0.8746  0.1588
  138CHL1  H26C16468   5.931   0.388   7.392 -0.3407 -1.6482 -0.5654
  138CHL1   C2716469   6.028   0.132   7.449  0.4303 -0.2122  0.3730
  138CHL1  H27A16470   6.077   0.125   7.549 -0.0025 -1.0461  0.5387
  138CHL1  H27B16471   5.919   0.152   7.457  0.2863 -0.0003 -1.6825
  138CHL1  H27C16472   6.032   0.029   7.407 -0.7002 -0.1026 -0.0340
  139CHL1    C316473   1.200   5.200   6.105 -0.3621  0.0858  0.4518
  139CHL1    H316474   1.093   5.180   6.130 -0.3334 -0.1571  0.3796
  139CHL1    O316475   1.219   5.178   5.968  0.7407 -0.1867  0.0990
  139CHL1   H3'16476   1.302   5.131   5.959  1.1189  0.8581 -3.0870
  139CHL1    C416477   1.238   5.342   6.146  0.6382 -0.5632 -0.6540
  139CHL1   H4A16478   1.338   5.361   6.102  0.1561  0.0376 -1.5085
  139CHL1   H4B16479   1.162   5.407   6.099 -2.1090 -3.6232 -0.8155
  139CHL1    C516480   1.238   5.358   6.298  0.4854  0.0528  0.0545
  139CHL1    C616481   1.172   5.452   6.365  0.3612  0.8874 -0.2668
  139CHL1    H616482   1.125   5.533   6.307  0.0145 -0.0862 -1.3799
  139CHL1    C716483   1.176   5.469   6.512 -0.3139 -0.0178  0.2736
  139CHL1   H7A16484   1.185   5.578   6.534  1.3545  0.1321 -0.8726
  139CHL1   H7B16485   1.075   5.440   6.546 -0.1357  1.2225  1.9640
  139CHL1    C816486   1.291   5.393   6.583  0.3442  0.4009  0.1989
  139CHL1    H816487   1.384   5.447   6.553  0.4363  1.0730  1.6326
  139CHL1   C1416488   1.266   5.384   6.736 -0.0942 -0.1909 -0.5153
  139CHL1   H1416489   1.181   5.315   6.753 -1.1170  1.0737 -0.3396
  139CHL1   C1516490   1.228   5.509   6.808 -0.1681 -1.1356 -0.1334
  139CHL1  H15A16491   1.275   5.594   6.755 -0.6241 -2.5977 -3.0485
  139CHL1  H15B16492   1.118   5.523   6.814 -0.2896 -1.8526 -0.5637
  139CHL1   C1616493   1.274   5.487   6.951  0.0065  0.3440  0.7602
  139CHL1  H16A16494   1.342   5.573   6.968  1.8031 -1.0124  0.8088
  139CHL1  H16B16495   1.186   5.478   7.018 -1.7563 -2.1068 -1.6866
  139CHL1   C1716496   1.347   5.347   6.954 -0.0945 -0.1431  0.1560
  139CHL1   H1716497   1.258   5.281   6.957 -1.2146  0.9529 -3.3070
  139CHL1   C1316498   1.389   5.325   6.809 -0.5435  0.3007 -0.6695
  139CHL1   C1816499   1.521   5.406   6.784  0.2958  0.4730 -0.7605
  139CHL1  H18A16500   1.608   5.354   6.830  1.2101  1.4196 -1.3754
  139CHL1  H18B16501   1.544   5.423   6.676  1.3696  2.4530 -0.2766
  139CHL1  H18C16502   1.515   5.509   6.825  0.2902 -0.3526  1.4445
  139CHL1   C1216503   1.408   5.177   6.757 -0.2650  0.2040  0.6437
  139CHL1  H12A16504   1.501   5.128   6.794  0.4150 -0.8621 -2.1638
  139CHL1  H12B16505   1.317   5.121   6.788 -0.6722  1.4564  1.8035
  139CHL1   C1116506   1.425   5.173   6.608  0.2159 -0.3592  0.0055
  139CHL1  H11A16507   1.526   5.207   6.578  0.9364  0.8276  3.3613
  139CHL1  H11B16508   1.409   5.072   6.564 -2.5828  0.7115 -1.7411
  139CHL1    C916509   1.308   5.254   6.526 -0.3362 -0.2027 -0.4487
  139CHL1    H916510   1.215   5.201   6.557 -0.3800  0.8471  1.3770
  139CHL1   C1016511   1.320   5.256   6.370 -0.6685 -0.2916  0.3982
  139CHL1   C1916512   1.466   5.277   6.336 -0.6853 -0.0750 -0.8947
  139CHL1  H19A16513   1.523   5.190   6.375 -0.7101  0.3440  0.1009
  139CHL1  H19B16514   1.502   5.278   6.231  0.4441 -2.7831 -0.6144
  139CHL1  H19C16515   1.510   5.365   6.388 -3.1412 -0.1336  1.5157
  139CHL1    C116516   1.273   5.116   6.325 -0.2085 -0.8702  0.0841
  139CHL1   H1A16517   1.329   5.041   6.385 -2.2071 -1.7417  0.9403
  139CHL1   H1B16518   1.164   5.112   6.347 -0.9276 -2.0423 -3.1058
  139CHL1    C216519   1.287   5.096   6.176 -0.3115 -0.2093  0.0529
  139CHL1   H2A16520   1.274   4.990   6.144  0.3716 -0.0259 -0.8785
  139CHL1   H2B16521   1.394   5.108   6.149 -0.1845 -2.0689 -0.4134
  139CHL1   C2016522   1.444   5.316   7.073 -0.2153 -0.3410 -0.3640
  139CHL1   H2016523   1.547   5.348   7.046 -0.0152 -0.1758  0.5693
  139CHL1   C2116524   1.438   5.162   7.091 -0.2246 -0.3319  0.3210
  139CHL1  H21A16525   1.488   5.123   7.182  1.1308 -1.6840 -0.9656
  139CHL1  H21B16526   1.480   5.114   7.001 -3.0962  0.2235 -1.4587
  139CHL1  H21C16527   1.331   5.131   7.092  0.1388 -1.6721 -0.1298
  139CHL1   C2216528   1.392   5.384   7.205 -0.2795 -0.2624 -0.4664
  139CHL1  H22A16529   1.402   5.493   7.187 -1.0424 -0.1114 -0.0051
  139CHL1  H22B16530   1.288   5.357   7.233 -0.7168  1.1724 -0.6191
  139CHL1   C2316531   1.487   5.365   7.321  0.7953 -0.2270  0.9198
  139CHL1  H23A16532   1.509   5.258   7.339 -0.7433 -0.5930  0.8123
  139CHL1  H23B16533   1.587   5.405   7.294 -0.0927  1.4750 -0.0133
  139CHL1   C2416534   1.431   5.426   7.446 -0.4397  0.1992 -0.2735
  139CHL1  H24A16535   1.452   5.535   7.435 -0.8271  0.2274 -0.7139
  139CHL1  H24B16536   1.322   5.406   7.440 -0.8064  2.0361 -0.4733
  139CHL1   C2516537   1.486   5.365   7.577 -1.5239 -0.2071 -0.2154
  139CHL1   H2516538   1.436   5.266   7.574 -1.1976 -0.3594 -1.9230
  139CHL1   C2616539   1.638   5.338   7.590 -0.2459 -0.7849 -0.0889
  139CHL1  H26A16540   1.658   5.279   7.682  0.6173  3.4909  2.7842
  139CHL1  H26B16541   1.685   5.287   7.503 -0.6325  2.3842 -2.3455
  139CHL1  H26C16542   1.706   5.426   7.592  2.5542 -2.8304  0.4468
  139CHL1   C2716543   1.434   5.444   7.690 -0.1264 -0.0307 -0.9346
  139CHL1  H27A16544   1.324   5.456   7.680 -0.6510 -3.0217  0.3246
  139CHL1  H27B16545   1.447   5.398   7.790 -0.7935 -1.1085 -1.3275
  139CHL1  H27C16546   1.479   5.546   7.691  0.1716 -0.0872  2.3756
  140CHL1    C316547   6.807   0.195   6.055 -0.0837  0.3587 -0.2198
  140CHL1    H316548   6.731   0.118   6.082 -0.6235  0.9218 -0.1224
  140CHL1    O316549   6.832   0.197   5.918  0.2551  0.4074  0.3834
  140CHL1   H3'16550   6.756   0.240   5.876  2.3476  1.1169 -3.0659
  140CHL1    C416551   6.757   0.330   6.110  0.3417 -0.3153  0.4829
  140CHL1   H4A16552   6.809   0.419   6.069 -1.9118  0.7889 -0.1793
  140CHL1   H4B16553   6.653   0.335   6.072  0.6881 -2.0449 -0.8070
  140CHL1    C516554   6.759   0.331   6.260 -0.1726  0.1608 -0.7308
  140CHL1    C616555   6.647   0.360   6.335 -0.5689  0.4039  0.0106
  140CHL1    H616556   6.559   0.401   6.285 -2.9146 -2.5199  1.3942
  140CHL1    C716557   6.643   0.353   6.482  0.3751 -0.1415 -0.1246
  140CHL1   H7A16558   6.591   0.444   6.519 -1.0486 -1.1336  0.4117
  140CHL1   H7B16559   6.581   0.266   6.513  1.8155 -0.6328  1.5377
  140CHL1    C816560   6.777   0.336   6.557  0.0802 -0.0903  0.5508
  140CHL1    H816561   6.819   0.439   6.561  1.3842 -0.4506 -1.8538
  140CHL1   C1416562   6.756   0.276   6.702 -0.5706 -0.1509  0.4503
  140CHL1   H1416563   6.705   0.182   6.674 -0.6235  0.5046 -1.8125
  140CHL1   C1516564   6.659   0.348   6.800 -0.7018 -0.1911 -0.2296
  140CHL1  H15A16565   6.688   0.454   6.812  0.2812 -0.6947  2.8147
  140CHL1  H15B16566   6.553   0.341   6.768 -0.1658 -1.9033 -1.8534
  140CHL1   C1616567   6.682   0.279   6.933 -0.1713  0.8783 -0.5831
  140CHL1  H16A16568   6.686   0.348   7.020  1.4824 -0.0247  0.1120
  140CHL1  H16B16569   6.596   0.210   6.945  0.4047 -0.1599 -2.1195
  140CHL1   C1716570   6.815   0.197   6.917 -0.6620 -0.2320  0.1495
  140CHL1   H1716571   6.790   0.090   6.898  1.4565 -0.1367 -4.3136
  140CHL1   C1316572   6.879   0.246   6.787 -0.1998 -0.2184 -0.2061
  140CHL1   C1816573   6.953   0.383   6.796  0.3356  0.3287 -0.0997
  140CHL1  H18A16574   7.047   0.370   6.855  0.0919  2.8715  0.9796
  140CHL1  H18B16575   6.972   0.419   6.693 -1.3186 -0.5152 -0.7429
  140CHL1  H18C16576   6.895   0.459   6.852  0.4605 -0.6204  1.3985
  140CHL1   C1216577   6.961   0.142   6.703 -0.7057  0.3533  0.0672
  140CHL1  H12A16578   7.054   0.126   6.762 -0.3629  0.2083 -0.5094
  140CHL1  H12B16579   6.899   0.049   6.701  0.8196 -0.6827 -1.4224
  140CHL1   C1116580   6.994   0.193   6.564 -0.6384 -0.1791 -0.2072
  140CHL1  H11A16581   7.064   0.280   6.566  1.7639 -2.0118  2.7448
  140CHL1  H11B16582   7.051   0.113   6.513  1.6124 -1.5433  3.9442
  140CHL1    C916583   6.867   0.237   6.489  0.0898 -0.1386 -0.6554
  140CHL1    H916584   6.807   0.144   6.494  1.0126 -0.7415 -0.5330
  140CHL1   C1016585   6.882   0.282   6.339 -0.2895 -0.2238 -0.2733
  140CHL1   C1916586   6.978   0.409   6.329 -0.2228  0.3563  0.3719
  140CHL1  H19A16587   7.081   0.380   6.357 -0.3154 -0.0877  0.2606
  140CHL1  H19B16588   6.995   0.435   6.222 -0.0451 -1.6145 -0.1304
  140CHL1  H19C16589   6.941   0.491   6.394 -1.4851 -0.0719  0.2380
  140CHL1    C116590   6.947   0.165   6.267  0.2833 -0.1870  0.4719
  140CHL1   H1A16591   7.052   0.162   6.304  0.6834  2.3069 -0.2941
  140CHL1   H1B16592   6.898   0.070   6.298  1.9733 -0.9272  0.9957
  140CHL1    C216593   6.943   0.167   6.112 -0.2892 -0.0652  0.2713
  140CHL1   H2A16594   6.987   0.071   6.079  0.1882 -0.4153  1.8161
  140CHL1   H2B16595   7.014   0.248   6.086 -2.2519  1.7885  0.3553
  140CHL1   C2016596   6.900   0.200   7.051 -0.0390 -0.2024 -0.1637
  140CHL1   H2016597   6.938   0.302   7.070  0.3463 -0.5786  1.1839
  140CHL1   C2116598   7.029   0.121   7.026 -0.0721 -0.0569  0.2529
  140CHL1  H21A16599   7.011   0.032   6.962 -0.6983  1.3893 -1.6573
  140CHL1  H21B16600   7.083   0.096   7.120  0.0381  1.8369  0.7346
  140CHL1  H21C16601   7.092   0.193   6.971 -2.6681  1.2628 -1.1866
  140CHL1   C2216602   6.824   0.146   7.177  0.3187  0.7878  0.1498
  140CHL1  H22A16603   6.736   0.208   7.203 -1.3303 -1.4441  0.1062
  140CHL1  H22B16604   6.789   0.042   7.162 -2.4091  1.6317  0.1911
  140CHL1   C2316605   6.913   0.148   7.312  1.4439  0.3791  0.4478
  140CHL1  H23A16606   6.987   0.066   7.309 -1.2347 -2.2531  1.2515
  140CHL1  H23B16607   6.964   0.246   7.326 -0.2668  1.4338 -0.3368
  140CHL1   C2416608   6.822   0.126   7.437 -0.2219 -0.0377 -0.8637
  140CHL1  H24A16609   6.763   0.220   7.446  2.7212  2.1820 -2.6566
  140CHL1  H24B16610   6.747   0.045   7.424  0.3031 -0.5318 -0.8267
  140CHL1   C2516611   6.902   0.129   7.573 -0.4085  0.1727 -0.3230
  140CHL1   H2516612   6.979   0.208   7.568  2.4438 -2.3787  0.2721
  140CHL1   C2616613   6.981  -0.004   7.600 -0.4076 -0.3714  0.6299
  140CHL1  H26A16614   7.008   0.001   7.707 -1.8715 -0.3312  1.0055
  140CHL1  H26B16615   6.932  -0.100   7.574  0.3424 -0.2272 -1.5311
  140CHL1  H26C16616   7.074   0.000   7.539 -0.8937  0.6870 -0.0743
  140CHL1   C2716617   6.817   0.158   7.696  0.3756  0.5276 -0.1728
  140CHL1  H27A16618   6.743   0.075   7.696  0.4760  0.4364 -0.8053
  140CHL1  H27B16619   6.876   0.146   7.789 -0.4777 -1.4310  0.1717
  140CHL1  H27C16620   6.787   0.265   7.689  2.9156  1.3270  0.0615
  141DOPC     N16621   2.714   3.061   9.914 -0.1879  0.1510  0.1274
  141DOPC   C1216622   2.830   2.984   9.861  0.3128  0.7756  0.0144
  141DOPC  H12A16623   2.837   3.007   9.755 -0.3097  1.3172  0.0853
  141DOPC  H12B16624   2.813   2.878   9.870  0.4271  0.8547  1.3391
  141DOPC   C1316625   2.705   3.024  10.060 -0.5837  1.0109 -0.4028
  141DOPC  H13A16626   2.681   2.921  10.082 -0.0602  1.3384  1.9382
  141DOPC  H13B16627   2.793   3.055  10.115 -0.9151  0.5279  0.4304
  141DOPC  H13C16628   2.628   3.080  10.111 -0.0712 -0.4996  2.2691
  141DOPC   C1416629   2.594   3.009   9.846 -0.0621  0.3071  0.3950
  141DOPC  H14A16630   2.602   3.025   9.739  0.4566  0.7193  0.4940
  141DOPC  H14B16631   2.570   2.904   9.857 -2.3556  0.6864 -0.4375
  141DOPC  H14C16632   2.504   3.055   9.883 -1.9401 -0.9989 -2.2152
  141DOPC   C1516633   2.734   3.205   9.899 -0.2073  0.0089 -0.4543
  141DOPC  H15A16634   2.835   3.226   9.931  0.7338 -1.2566 -2.4017
  141DOPC  H15B16635   2.674   3.266   9.965 -0.4941 -2.7795  2.0303
  141DOPC  H15C16636   2.729   3.228   9.793  1.4828 -2.0739 -1.0466
  141DOPC   C1116637   2.969   3.019   9.913 -0.1986 -0.0718  0.0191
  141DOPC  H11A16638   2.966   3.042  10.021  0.4385 -0.3406  0.0983
  141DOPC  H11B16639   3.031   2.931   9.886  1.9888  1.3475  0.1337
  141DOPC     P16640   3.169   3.174   9.864 -0.1276 -0.1489 -0.3057
  141DOPC   O1316641   3.207   3.137  10.003 -0.3139  0.0739  0.2709
  141DOPC   O1416642   3.195   3.312   9.813 -0.3765  0.0738 -0.2510
  141DOPC   O1216643   3.022   3.134   9.842  0.4960 -0.0906  0.2546
  141DOPC   O1116644   3.235   3.078   9.760  0.9217 -0.4540  0.3225
  141DOPC    C116645   3.234   3.091   9.616  0.0036 -0.0954  0.1685
  141DOPC    HA16646   3.278   3.190   9.592 -3.0710  1.6213  1.0416
  141DOPC    HB16647   3.132   3.083   9.573  1.1057 -4.9504 -2.2979
  141DOPC    C216648   3.325   2.981   9.554 -0.0242  0.1626  0.2075
  141DOPC    HS16649   3.425   2.986   9.601 -0.5210  0.1983  1.2879
  141DOPC   O2116650   3.326   2.990   9.409 -0.0342 -0.1430 -0.3677
  141DOPC   C2116651   3.407   3.081   9.361  0.1652 -0.1647 -0.1584
  141DOPC   O2216652   3.479   3.163   9.417  0.3173  0.2469  0.0936
  141DOPC   C2216653   3.380   3.067   9.208 -0.5689  0.9681 -0.2161
  141DOPC   H2R16654   3.310   3.148   9.178  1.4644  2.9204  0.0944
  141DOPC   H2S16655   3.318   2.977   9.185 -2.3426  2.4284 -1.3873
  141DOPC    C316656   3.277   2.838   9.583 -0.5594  0.3454 -0.4845
  141DOPC    HX16657   3.168   2.843   9.562 -1.4763  1.7162  3.6570
  141DOPC    HY16658   3.294   2.820   9.691  0.3859 -2.4429 -0.9912
  141DOPC   O3116659   3.353   2.735   9.513 -0.7620  0.5239 -0.3744
  141DOPC   C3116660   3.281   2.621   9.507 -0.3351 -0.2874 -0.1510
  141DOPC   O3216661   3.173   2.597   9.556  0.2420  0.4049  0.3785
  141DOPC   C3216662   3.338   2.529   9.403  0.5121 -0.2060 -0.0613
  141DOPC   H2X16663   3.446   2.508   9.419  0.1477 -1.9666  0.2682
  141DOPC   H2Y16664   3.285   2.431   9.409  3.5964 -1.9025  2.1038
  141DOPC   C2316665   3.504   3.061   9.107 -0.1456 -0.3129 -0.6383
  141DOPC   H3R16666   3.574   2.981   9.140  1.3288  0.2377 -2.2990
  141DOPC   H3S16667   3.565   3.154   9.118 -2.0619  0.9603 -0.2984
  141DOPC   C2416668   3.464   3.042   8.963 -0.3320 -0.1532 -0.1532
  141DOPC   H4R16669   3.395   3.127   8.943 -1.0646  0.0873  2.8577
  141DOPC   H4S16670   3.404   2.949   8.958 -0.2573 -0.1265 -2.0765
  141DOPC   C2516671   3.579   3.048   8.862  0.3456  0.3532  0.8276
  141DOPC   H5R16672   3.631   2.952   8.885  0.6104  0.4976  0.8410
  141DOPC   H5S16673   3.646   3.135   8.881 -0.7262  1.6142 -0.8537
  141DOPC   C2616674   3.524   3.052   8.717  0.0413  0.6121  0.2398
  141DOPC   H6R16675   3.460   3.142   8.703 -3.2862 -1.0039  3.3524
  141DOPC   H6S16676   3.448   2.971   8.706  1.2113 -0.6329  1.0023
  141DOPC   C2716677   3.636   3.048   8.611  0.3232  0.3302 -0.6558
  141DOPC   H7R16678   3.665   2.941   8.606 -1.3157 -0.1336 -0.9819
  141DOPC   H7S16679   3.718   3.117   8.639  1.3765  0.0735 -2.9131
  141DOPC   C2816680   3.587   3.093   8.473  0.1071  0.3442  0.7629
  141DOPC   H8R16681   3.551   3.198   8.471  0.9057  0.7180  3.2421
  141DOPC   H8S16682   3.498   3.029   8.452  0.9077 -1.2175  1.8896
  141DOPC   C2916683   3.704   3.082   8.371  0.7844  0.0796  0.4885
  141DOPC   H9R16684   3.800   3.117   8.412  1.8747 -1.8830 -0.2582
  141DOPC  C21016685   3.693   3.053   8.234 -0.3660  0.6468  0.5574
  141DOPC  H10R16686   3.786   3.033   8.179 -0.7494  0.4088 -0.0110
  141DOPC  C21116687   3.568   3.013   8.164 -0.3274 -0.1151  0.0748
  141DOPC  H11R16688   3.494   3.095   8.170  1.2706  1.3001  1.7617
  141DOPC  H11S16689   3.523   2.934   8.229  0.7501 -2.8039 -2.2353
  141DOPC  C21216690   3.577   2.967   8.020  0.5638  0.2242  0.1980
  141DOPC  H12R16691   3.475   2.935   7.990 -0.1307  1.6455  0.9465
  141DOPC  H12S16692   3.641   2.877   8.011  0.4992  0.2270 -0.3539
  141DOPC  C21316693   3.617   3.082   7.923  0.3155 -0.1472  0.5230
  141DOPC  H13R16694   3.721   3.119   7.937  0.3166  0.8431 -1.7131
  141DOPC  H13S16695   3.543   3.163   7.941 -0.4096 -0.8020  0.5748
  141DOPC  C21416696   3.602   3.041   7.771 -0.5966 -0.9846 -0.1137
  141DOPC  H14R16697   3.503   2.992   7.767  0.3874 -3.1305  0.0820
  141DOPC  H14S16698   3.675   2.960   7.750 -1.8682 -2.3260  0.5281
  141DOPC  C21516699   3.601   3.160   7.673  0.6070  0.3789  0.0562
  141DOPC  H15R16700   3.533   3.229   7.727  1.0849 -0.1162  1.3447
  141DOPC  H15S16701   3.542   3.140   7.581 -1.6249  1.4978  1.1706
  141DOPC  C21616702   3.729   3.238   7.643 -0.7497 -0.3363  0.1528
  141DOPC  H16R16703   3.760   3.280   7.740 -1.6296  0.7346 -0.0179
  141DOPC  H16S16704   3.715   3.316   7.565 -1.6920 -1.2494 -0.6300
  141DOPC  C21716705   3.841   3.142   7.601  0.1503  1.0726  0.0826
  141DOPC  H17R16706   3.811   3.073   7.520  0.1331  1.2391 -0.0516
  141DOPC  H17S16707   3.865   3.072   7.685 -1.8773  0.2842  0.0787
  141DOPC  C21816708   3.976   3.210   7.561  0.2107 -0.4711 -0.5342
  141DOPC  H18R16709   4.060   3.138   7.560  0.7687  0.1644 -1.9126
  141DOPC  H18S16710   3.993   3.291   7.636 -0.8432 -1.6532  1.0517
  141DOPC  H18T16711   3.971   3.259   7.461 -2.5326 -1.0792 -0.7702
  141DOPC   C3316712   3.332   2.588   9.255 -0.2670  0.1236 -0.2054
  141DOPC   H3X16713   3.390   2.682   9.245  0.4657 -0.3753 -0.7258
  141DOPC   H3Y16714   3.225   2.603   9.227 -1.1992  0.9327  3.2944
  141DOPC   C3416715   3.407   2.492   9.162 -0.0921 -0.1636 -0.2465
  141DOPC   H4X16716   3.361   2.391   9.171  1.6626 -0.9774  0.1142
  141DOPC   H4Y16717   3.516   2.496   9.186  0.2211  0.6504 -1.7119
  141DOPC   C3516718   3.393   2.547   9.017 -0.1929 -0.2821 -0.7144
  141DOPC   H5X16719   3.446   2.644   9.025 -0.9786  0.2431 -1.6153
  141DOPC   H5Y16720   3.290   2.574   8.986  0.5307  1.5954 -1.6461
  141DOPC   C3616721   3.478   2.467   8.921 -0.2156  0.4126  1.2095
  141DOPC   H6X16722   3.585   2.480   8.948  0.5064 -0.2078 -1.1111
  141DOPC   H6Y16723   3.458   2.359   8.908  0.6999  0.2470  1.1007
  141DOPC   C3716724   3.472   2.523   8.781  0.1424 -0.2470  0.3752
  141DOPC   H7X16725   3.365   2.537   8.756 -0.2012 -1.0280  1.3339
  141DOPC   H7Y16726   3.520   2.623   8.779  0.8244 -0.5164  1.7360
  141DOPC   C3816727   3.530   2.431   8.667  0.2830  0.3050 -0.1804
  141DOPC   H8X16728   3.634   2.398   8.684  0.8973  1.6785 -1.0898
  141DOPC   H8Y16729   3.543   2.479   8.568  1.6151  0.4829  0.0697
  141DOPC   C3916730   3.450   2.307   8.643  0.4060 -0.2551 -0.1680
  141DOPC   H9X16731   3.421   2.252   8.734  1.6766  0.9904  1.0414
  141DOPC  C31016732   3.379   2.277   8.527 -0.4995 -0.2481  0.8544
  141DOPC  H10X16733   3.304   2.197   8.529  0.7875 -1.4941  0.9271
  141DOPC  C31116734   3.381   2.344   8.390 -0.1784  0.2101 -0.3711
  141DOPC  H11X16735   3.461   2.421   8.391  0.0769 -0.0376  1.3241
  141DOPC  H11Y16736   3.283   2.393   8.373 -0.9194 -1.5769 -1.5088
  141DOPC  C31216737   3.409   2.244   8.278  0.2608  0.0473  0.7242
  141DOPC  H12X16738   3.511   2.199   8.281  0.1446 -0.2093  0.8518
  141DOPC  H12Y16739   3.397   2.297   8.181 -1.2208 -4.4080 -1.8580
  141DOPC  C31316740   3.305   2.129   8.255 -0.3120  0.6825  0.6799
  141DOPC  H13X16741   3.279   2.068   8.344 -0.1965 -1.2976 -0.5890
  141DOPC  H13Y16742   3.205   2.169   8.227 -1.3238 -0.7031  2.0890
  141DOPC  C31416743   3.339   2.033   8.140  0.9334 -0.1378 -0.2863
  141DOPC  H14X16744   3.377   2.087   8.051 -0.5856  1.8693  0.2150
  141DOPC  H14Y16745   3.423   1.965   8.167  2.0253 -0.0406 -3.1046
  141DOPC  C31516746   3.220   1.954   8.102 -0.2981 -0.0461  0.5798
  141DOPC  H15X16747   3.145   2.031   8.074  1.3170  0.9916 -1.1302
  141DOPC  H15Y16748   3.195   1.881   8.182  1.3188 -0.0759  1.0887
  141DOPC  C31616749   3.246   1.867   7.977 -0.5995 -0.2902  0.0271
  141DOPC  H16X16750   3.253   1.934   7.889  0.7202 -0.6352 -0.1559
  141DOPC  H16Y16751   3.338   1.805   7.980 -0.8648 -0.6846 -0.0150
  141DOPC  C31716752   3.135   1.768   7.937 -0.1849 -0.3096  0.1451
  141DOPC  H17X16753   3.161   1.702   7.852 -2.0087 -0.3335 -0.4309
  141DOPC  H17Y16754   3.125   1.691   8.017 -1.2180  0.8664  1.1907
  141DOPC  C31816755   3.001   1.826   7.910  0.0644 -0.0465  0.3840
  141DOPC  H18X16756   3.006   1.906   7.833  1.8173 -1.1314 -0.6917
  141DOPC  H18Y16757   2.924   1.751   7.883 -0.3028  0.9553 -1.4749
  141DOPC  H18Z16758   2.972   1.872   8.007 -0.7956 -0.3807  0.2929
  142DOPC     N16759   3.568   3.433   9.693  0.0232  0.1168 -1.0313
  142DOPC   C1216760   3.721   3.428   9.699  0.2461 -0.5568 -0.0161
  142DOPC  H12A16761   3.751   3.522   9.657 -1.0491  0.9022  2.1001
  142DOPC  H12B16762   3.760   3.354   9.631 -0.4101 -0.3644 -0.6226
  142DOPC   C1316763   3.516   3.325   9.781 -0.0099  0.4619  1.3372
  142DOPC  H13A16764   3.557   3.328   9.880 -1.7916  0.7226  2.1027
  142DOPC  H13B16765   3.408   3.328   9.780 -0.0750  0.2476 -1.5016
  142DOPC  H13C16766   3.530   3.227   9.736 -3.9680  0.0532  0.6392
  142DOPC   C1416767   3.533   3.411   9.550 -0.4714 -0.2215  0.2365
  142DOPC  H14A16768   3.545   3.309   9.515 -0.4170 -0.2718  0.4022
  142DOPC  H14B16769   3.428   3.435   9.538 -0.0998  1.2077 -0.3048
  142DOPC  H14C16770   3.595   3.485   9.502 -0.5969  0.0754  0.5275
  142DOPC   C1516771   3.515   3.563   9.729  0.3679 -0.3597  0.2385
  142DOPC  H15A16772   3.549   3.601   9.824 -0.4642  2.5379 -0.5228
  142DOPC  H15B16773   3.407   3.565   9.732 -0.0012  1.6233 -4.7491
  142DOPC  H15C16774   3.545   3.640   9.660  0.2177  0.5764  1.1853
  142DOPC   C1116775   3.792   3.422   9.838  0.3382 -0.7438 -0.7326
  142DOPC  H11A16776   3.884   3.484   9.829 -1.0325  1.4973 -0.2556
  142DOPC  H11B16777   3.738   3.455   9.929  2.0178  0.2552 -0.0446
  142DOPC     P16778   3.950   3.215   9.811 -0.1243 -0.0376  0.4764
  142DOPC   O1316779   3.963   3.075   9.862  0.3036 -0.1022  0.5320
  142DOPC   O1416780   4.065   3.307   9.851  0.0420 -0.2507  0.5781
  142DOPC   O1216781   3.812   3.278   9.866 -0.0490 -0.7410  0.5369
  142DOPC   O1116782   3.922   3.217   9.656  0.0173 -0.2685 -0.2514
  142DOPC    C116783   3.863   3.116   9.582 -0.3773 -0.5585  0.6221
  142DOPC    HA16784   3.753   3.118   9.595 -0.5308  3.3686 -0.0748
  142DOPC    HB16785   3.898   3.019   9.624  0.5720  0.6562  2.8295
  142DOPC    C216786   3.902   3.129   9.432 -0.5800 -0.1359  0.6259
  142DOPC    HS16787   3.881   3.030   9.385  2.6319 -0.3404 -0.6636
  142DOPC   O2116788   4.049   3.160   9.414  0.0467 -0.3060  0.3163
  142DOPC   C2116789   4.128   3.055   9.429  0.7386 -0.4991  0.0213
  142DOPC   O2216790   4.093   2.953   9.467  0.3574 -0.0783  0.3607
  142DOPC   C2216791   4.273   3.081   9.383 -0.1694 -0.5385 -0.1674
  142DOPC   H2R16792   4.341   3.025   9.451 -0.9580 -1.1128  0.1628
  142DOPC   H2S16793   4.291   3.188   9.408  2.5320 -0.5895 -1.5216
  142DOPC    C316794   3.807   3.226   9.366  0.3209  0.1240 -0.4235
  142DOPC    HX16795   3.814   3.328   9.407 -1.5409  1.3129 -2.7814
  142DOPC    HY16796   3.699   3.202   9.380 -0.2291  2.4025 -0.4772
  142DOPC   O3116797   3.832   3.222   9.228  0.5463  0.1226  0.1456
  142DOPC   C3116798   3.842   3.347   9.169  0.0846  0.1783 -0.3650
  142DOPC   O3216799   3.811   3.451   9.225  0.3428 -0.1381 -0.6985
  142DOPC   C3216800   3.901   3.327   9.032 -0.0638  0.1667  0.6334
  142DOPC   H2X16801   3.982   3.253   9.050 -0.9193 -2.4197 -4.2754
  142DOPC   H2Y16802   3.830   3.282   8.959 -0.3196  0.2794  0.8119
  142DOPC   C2316803   4.298   3.033   9.239  0.2557 -0.1977  0.7375
  142DOPC   H3R16804   4.285   2.924   9.223 -0.1964  0.0348 -0.5199
  142DOPC   H3S16805   4.404   3.043   9.209 -0.2715 -1.6829 -1.9430
  142DOPC   C2416806   4.203   3.093   9.133 -0.2554  0.3105 -0.4010
  142DOPC   H4R16807   4.200   3.204   9.134 -0.7445  0.3339 -1.8035
  142DOPC   H4S16808   4.102   3.055   9.159 -0.3088 -0.0500 -1.1264
  142DOPC   C2516809   4.255   3.051   8.993 -0.5347 -0.7878 -0.0874
  142DOPC   H5R16810   4.169   3.039   8.924 -0.4998  0.2237 -0.3272
  142DOPC   H5S16811   4.298   2.948   8.995  2.3727  0.3307  0.8338
  142DOPC   C2616812   4.371   3.139   8.933 -0.3720 -0.4816  0.2051
  142DOPC   H6R16813   4.458   3.121   8.999 -0.9348 -3.7317  0.2618
  142DOPC   H6S16814   4.343   3.246   8.929 -1.3972 -0.7539 -2.6219
  142DOPC   C2716815   4.421   3.087   8.796  0.2671 -0.4006 -0.4506
  142DOPC   H7R16816   4.428   2.977   8.811 -3.2583 -0.4750  1.7818
  142DOPC   H7S16817   4.518   3.138   8.778 -0.5802  1.9378  1.1311
  142DOPC   C2816818   4.330   3.116   8.682  0.2180 -1.0838 -0.7276
  142DOPC   H8R16819   4.227   3.084   8.707 -0.1311 -0.1232 -0.8885
  142DOPC   H8S16820   4.361   3.045   8.603  2.1056 -1.5096  0.3261
  142DOPC   C2916821   4.327   3.261   8.656 -0.0600  0.0343 -0.2196
  142DOPC   H9R16822   4.256   3.310   8.725 -0.0863 -0.0540 -0.1836
  142DOPC  C21016823   4.398   3.332   8.567 -0.3523  0.1709 -0.0539
  142DOPC  H10R16824   4.380   3.440   8.554 -1.0943 -0.1637 -2.4091
  142DOPC  C21116825   4.488   3.275   8.462  0.4100  0.7003  0.3549
  142DOPC  H11R16826   4.424   3.251   8.375 -1.6401  0.2889  1.9014
  142DOPC  H11S16827   4.545   3.186   8.495 -1.2174 -0.4523  0.1366
  142DOPC  C21216828   4.597   3.373   8.417 -0.5534 -0.5318  0.5433
  142DOPC  H12R16829   4.666   3.387   8.503 -0.0528 -1.8419  0.3773
  142DOPC  H12S16830   4.557   3.474   8.394 -1.1123 -1.0852 -1.0504
  142DOPC  C21316831   4.690   3.322   8.309  0.0299  0.1353  0.5038
  142DOPC  H13R16832   4.625   3.301   8.221  0.3540  0.9082  0.0705
  142DOPC  H13S16833   4.737   3.227   8.343  3.6953  1.3374 -0.7518
  142DOPC  C21416834   4.813   3.409   8.268  0.1268 -0.0247 -0.0133
  142DOPC  H14R16835   4.881   3.426   8.354  2.0992 -0.9395 -1.3210
  142DOPC  H14S16836   4.777   3.502   8.219  1.2256 -1.0807 -3.0185
  142DOPC  C21516837   4.907   3.344   8.168 -0.0795  0.4273 -0.2809
  142DOPC  H15R16838   4.950   3.250   8.209  0.8005  1.2390  0.7250
  142DOPC  H15S16839   4.993   3.412   8.151 -2.0940  2.7978 -1.5076
  142DOPC  C21616840   4.850   3.322   8.029 -0.3008 -0.8248  1.2330
  142DOPC  H16R16841   4.749   3.275   8.032 -0.2104 -1.0794  0.4688
  142DOPC  H16S16842   4.918   3.247   7.984  0.0570  1.5970 -2.8006
  142DOPC  C21716843   4.854   3.454   7.940 -0.1894  0.7066 -0.2862
  142DOPC  H17R16844   4.884   3.428   7.837  2.4503  3.5002 -0.3743
  142DOPC  H17S16845   4.938   3.521   7.972  1.5340 -0.6991 -1.6741
  142DOPC  C21816846   4.723   3.524   7.931  0.1628  0.6186  0.0422
  142DOPC  H18R16847   4.718   3.600   7.850 -0.4461 -0.1352 -0.6398
  142DOPC  H18S16848   4.704   3.592   8.017  0.7125  0.0215  0.6435
  142DOPC  H18T16849   4.646   3.445   7.918 -0.2647  1.1808 -0.9718
  142DOPC   C3316850   3.961   3.461   8.989 -0.4093 -0.4792 -0.5640
  142DOPC   H3X16851   4.036   3.494   9.063 -1.8903 -2.0738  1.7656
  142DOPC   H3Y16852   3.885   3.540   8.971  1.1734  1.4854  0.8893
  142DOPC   C3416853   4.040   3.454   8.849  0.3762  0.0244  1.3511
  142DOPC   H4X16854   4.097   3.359   8.840  3.2209  1.6914  0.5209
  142DOPC   H4Y16855   4.107   3.542   8.846 -0.6689  0.8390  1.3745
  142DOPC   C3516856   3.942   3.471   8.727 -0.3626  0.7952  0.3412
  142DOPC   H5X16857   3.889   3.567   8.743  1.4212  1.5883  1.8737
  142DOPC   H5Y16858   3.877   3.381   8.722  0.3978  0.2156  0.6485
  142DOPC   C3616859   4.015   3.501   8.598 -0.5725  0.0493  0.8058
  142DOPC   H6X16860   4.103   3.569   8.608  0.5520 -1.1422 -0.5531
  142DOPC   H6Y16861   4.061   3.406   8.564 -0.8254 -0.0895  0.8564
  142DOPC   C3716862   3.921   3.559   8.486  0.4446 -0.1471 -0.2104
  142DOPC   H7X16863   3.835   3.489   8.492 -0.7233  1.2978  0.5648
  142DOPC   H7Y16864   3.877   3.655   8.522  2.7166  1.2465 -0.9716
  142DOPC   C3816865   3.979   3.569   8.346 -0.1729 -0.5020  0.8490
  142DOPC   H8X16866   4.003   3.463   8.320 -0.3931 -0.0411 -1.4343
  142DOPC   H8Y16867   4.078   3.616   8.334 -0.5120 -0.4056 -2.6092
  142DOPC   C3916868   3.882   3.638   8.247  0.6322 -0.0478 -0.3466
  142DOPC   H9X16869   3.782   3.592   8.255  0.1890  0.9748  0.3011
  142DOPC  C31016870   3.912   3.736   8.162 -0.3175 -0.2083  0.1603
  142DOPC  H10X16871   3.827   3.775   8.104  0.1531 -0.9377 -1.0625
  142DOPC  C31116872   4.042   3.808   8.152 -0.4687 -0.5441 -0.1317
  142DOPC  H11X16873   4.086   3.824   8.253 -0.9103  0.2402 -0.0578
  142DOPC  H11Y16874   4.005   3.904   8.111  1.9872 -0.3581 -2.1050
  142DOPC  C31216875   4.141   3.733   8.063  0.0109  0.5350 -0.3172
  142DOPC  H12X16876   4.091   3.708   7.967 -0.8025  2.4822 -0.4324
  142DOPC  H12Y16877   4.165   3.642   8.123  2.4423  1.8873  0.8958
  142DOPC  C31316878   4.263   3.822   8.041 -0.4886 -0.2868 -0.0307
  142DOPC  H13X16879   4.304   3.862   8.136 -0.1048  1.7536 -1.0208
  142DOPC  H13Y16880   4.342   3.753   8.001  0.0119 -1.3616  2.5895
  142DOPC  C31416881   4.234   3.936   7.939  0.6490 -0.0039 -0.0599
  142DOPC  H14X16882   4.199   3.897   7.842 -1.8327 -1.2878  1.2586
  142DOPC  H14Y16883   4.162   4.012   7.975  0.0452 -1.2617  1.4997
  142DOPC  C31516884   4.361   4.014   7.909  0.0672 -0.7475 -0.0470
  142DOPC  H15X16885   4.429   3.935   7.871 -0.2953 -1.4401  0.7168
  142DOPC  H15Y16886   4.405   4.054   8.003 -0.9088  0.8092 -0.2100
  142DOPC  C31616887   4.329   4.129   7.814  0.4198  0.2511  0.2856
  142DOPC  H16X16888   4.261   4.081   7.741  0.4925  0.8065 -0.1507
  142DOPC  H16Y16889   4.283   4.221   7.856  0.7030  0.6115 -0.1832
  142DOPC  C31716890   4.458   4.174   7.743 -0.5621 -0.0918 -0.3405
  142DOPC  H17X16891   4.516   4.089   7.701 -1.6940 -1.5304  0.8835
  142DOPC  H17Y16892   4.421   4.239   7.661 -2.6673 -0.5606  0.1794
  142DOPC  C31816893   4.556   4.261   7.828 -0.5175  0.3559 -0.1985
  142DOPC  H18X16894   4.510   4.352   7.872 -1.2058 -0.0669 -0.0287
  142DOPC  H18Y16895   4.602   4.207   7.915  1.9759  1.3387 -0.8291
  142DOPC  H18Z16896   4.635   4.300   7.761  2.0034 -3.7304  0.0393
  143DOPC     N16897   2.078   3.701   9.574  0.0894  0.0180  0.2588
  143DOPC   C1216898   2.089   3.554   9.595 -0.3815  0.2777 -0.5601
  143DOPC  H12A16899   2.116   3.541   9.698 -1.0769  0.7460 -0.3133
  143DOPC  H12B16900   2.172   3.519   9.534  0.1920  0.3710  0.1549
  143DOPC   C1316901   2.195   3.759   9.628  0.0576  0.3409  0.0507
  143DOPC  H13A16902   2.203   3.867   9.620 -2.8987  0.5935 -1.2302
  143DOPC  H13B16903   2.196   3.740   9.734 -3.5696  1.4226  0.4472
  143DOPC  H13C16904   2.284   3.715   9.585  0.6950  1.4424  0.2064
  143DOPC   C1416905   1.968   3.753   9.655  0.0515 -0.4648 -0.1758
  143DOPC  H14A16906   1.960   3.860   9.643  0.3013 -0.4140  0.0894
  143DOPC  H14B16907   1.875   3.699   9.645  0.4806 -1.2862  0.0982
  143DOPC  H14C16908   1.992   3.729   9.758  1.6408 -0.6649 -0.5694
  143DOPC   C1516909   2.047   3.736   9.436 -0.4285  0.7143  0.3032
  143DOPC  H15A16910   2.054   3.844   9.423  2.0496  0.2901 -3.7097
  143DOPC  H15B16911   1.948   3.704   9.408 -0.5504  0.7348  0.7092
  143DOPC  H15C16912   2.119   3.696   9.366 -0.3584 -0.6461  1.1252
  143DOPC   C1116913   1.970   3.463   9.562  0.6938  0.0728  0.3987
  143DOPC  H11A16914   1.972   3.374   9.627  0.3220 -0.1419  0.1225
  143DOPC  H11B16915   1.870   3.512   9.569 -0.0747 -1.0391 -1.7864
  143DOPC     P16916   1.867   3.410   9.329 -0.0557 -0.1390  0.0015
  143DOPC   O1316917   1.818   3.545   9.311  0.2748 -0.1746  0.3624
  143DOPC   O1416918   1.772   3.325   9.401  0.2385 -0.1576  0.5412
  143DOPC   O1216919   1.997   3.413   9.423  0.0204 -0.3042 -0.2135
  143DOPC   O1116920   1.915   3.349   9.188  0.8055  0.0235 -0.5448
  143DOPC    C116921   2.055   3.330   9.152  0.1974  0.2146  0.4514
  143DOPC    HA16922   2.061   3.267   9.060  1.4656  0.2904  0.4560
  143DOPC    HB16923   2.108   3.267   9.227  1.2631  0.5057 -0.0295
  143DOPC    C216924   2.132   3.460   9.112 -0.2371  0.3119 -0.0315
  143DOPC    HS16925   2.105   3.527   9.196  2.0278  2.0477 -0.5662
  143DOPC   O2116926   2.078   3.509   8.988 -0.1273  0.1205 -0.7415
  143DOPC   C2116927   2.107   3.637   8.964 -0.9446  0.1908 -0.1782
  143DOPC   O2216928   2.167   3.709   9.043 -0.0369 -0.3535 -0.7743
  143DOPC   C2216929   2.058   3.671   8.814 -0.6674 -0.9017 -0.5713
  143DOPC   H2R16930   1.963   3.616   8.803 -1.4791  0.2791  0.2993
  143DOPC   H2S16931   2.142   3.638   8.748 -0.7760 -3.5188  0.4512
  143DOPC    C316932   2.289   3.433   9.112  0.2841  0.0449  0.3403
  143DOPC    HX16933   2.322   3.389   9.208 -1.7663  1.3343  1.7145
  143DOPC    HY16934   2.345   3.529   9.110  1.6917 -0.6891  1.6844
  143DOPC   O3116935   2.328   3.338   9.004  0.0762 -0.4185  0.1791
  143DOPC   C3116936   2.369   3.399   8.892  0.1390  0.6644 -0.0910
  143DOPC   O3216937   2.397   3.519   8.884  0.6636 -0.2769  0.1855
  143DOPC   C3216938   2.384   3.303   8.777 -0.4378  0.0323 -0.0607
  143DOPC   H2X16939   2.471   3.237   8.798 -0.8366 -0.3269  0.4895
  143DOPC   H2Y16940   2.299   3.231   8.774 -1.4704  1.2440 -1.7362
  143DOPC   C2316941   2.012   3.821   8.803 -0.1732 -0.2811 -0.0562
  143DOPC   H3R16942   2.090   3.899   8.821  0.0206 -0.4159 -0.3081
  143DOPC   H3S16943   1.944   3.840   8.889  0.3716 -0.8088  0.5115
  143DOPC   C2416944   1.932   3.847   8.677 -0.4492  0.4143  0.4414
  143DOPC   H4R16945   1.881   3.946   8.676 -2.6048 -0.6243  0.5201
  143DOPC   H4S16946   1.845   3.778   8.664  0.2323 -0.0110 -2.6912
  143DOPC   C2516947   2.022   3.829   8.553  0.7430 -0.2123  0.2293
  143DOPC   H5R16948   2.066   3.727   8.549  0.5899 -0.2622 -0.3633
  143DOPC   H5S16949   2.105   3.904   8.550  1.1188 -0.6470 -0.6240
  143DOPC   C2616950   1.942   3.850   8.415  0.3281 -0.6203 -0.3124
  143DOPC   H6R16951   1.918   3.958   8.415  1.2833 -0.3953 -0.4440
  143DOPC   H6S16952   1.846   3.795   8.413  0.2638 -0.4964 -2.4171
  143DOPC   C2716953   2.033   3.823   8.301 -0.1998  0.6666  0.6105
  143DOPC   H7R16954   2.057   3.714   8.300 -1.0231  0.4812 -0.1443
  143DOPC   H7S16955   2.133   3.866   8.323  1.9880 -1.9135 -3.0875
  143DOPC   C2816956   1.967   3.872   8.165  0.0617 -0.0617  0.4363
  143DOPC   H8R16957   1.984   3.982   8.168 -0.1520  0.0162 -0.7790
  143DOPC   H8S16958   1.858   3.854   8.171  0.3762 -1.9510  1.0021
  143DOPC   C2916959   2.030   3.805   8.047  0.7856 -0.3097  0.3545
  143DOPC   H9R16960   2.002   3.699   8.038  0.5856 -0.1131 -1.7576
  143DOPC  C21016961   2.108   3.857   7.959  0.4811 -0.6890  0.3154
  143DOPC  H10R16962   2.148   3.791   7.880 -1.1450 -0.3122 -0.8719
  143DOPC  C21116963   2.150   4.006   7.958 -0.5594 -0.1508 -0.5594
  143DOPC  H11R16964   2.200   4.030   8.054 -2.8734  1.5522  0.3285
  143DOPC  H11S16965   2.074   4.086   7.948 -1.0280 -0.3240  1.1859
  143DOPC  C21216966   2.258   4.035   7.848 -0.0060  0.4942 -0.0762
  143DOPC  H12R16967   2.351   3.974   7.855 -1.4963 -2.3765 -2.7732
  143DOPC  H12S16968   2.275   4.145   7.859 -1.2483  0.7583 -0.6629
  143DOPC  C21316969   2.199   4.009   7.704 -0.3334  0.2722 -0.3048
  143DOPC  H13R16970   2.094   4.045   7.703  0.0218  1.3569 -0.3184
  143DOPC  H13S16971   2.193   3.901   7.680 -2.5826  0.3138 -0.1873
  143DOPC  C21416972   2.270   4.082   7.598  0.5601  0.1618  0.1147
  143DOPC  H14R16973   2.367   4.036   7.568 -0.0724 -0.8736 -0.3461
  143DOPC  H14S16974   2.289   4.183   7.641 -1.6660  0.9577 -0.6750
  143DOPC  C21516975   2.181   4.110   7.479  0.0481 -0.1679 -0.3445
  143DOPC  H15R16976   2.223   4.198   7.426 -2.1483  1.0833 -0.1700
  143DOPC  H15S16977   2.082   4.148   7.513 -0.6785 -2.3338  0.0863
  143DOPC  C21616978   2.169   3.994   7.381 -0.1045  0.1341 -0.2482
  143DOPC  H16R16979   2.130   3.904   7.433 -0.7268  0.5507  0.0169
  143DOPC  H16S16980   2.271   3.976   7.342 -0.2143  0.6988 -0.8028
  143DOPC  C21716981   2.076   4.020   7.258 -0.1654  0.3485 -0.8277
  143DOPC  H17R16982   2.108   4.115   7.210  0.6814  0.2879 -0.4040
  143DOPC  H17S16983   1.971   4.027   7.293 -0.1454  0.4470 -0.7858
  143DOPC  C21816984   2.084   3.903   7.156  0.3694  0.0167  0.0274
  143DOPC  H18R16985   2.067   3.806   7.206  0.1393  0.0313 -0.0200
  143DOPC  H18S16986   2.182   3.889   7.106  0.0274 -0.6955 -0.4512
  143DOPC  H18T16987   2.006   3.903   7.077 -0.3988 -1.2714  0.7608
  143DOPC   C3316988   2.398   3.390   8.649 -0.2760 -0.0276  0.1823
  143DOPC   H3X16989   2.504   3.424   8.654 -0.8072  1.5355  1.4022
  143DOPC   H3Y16990   2.325   3.473   8.649 -0.6816 -0.3697  1.0190
  143DOPC   C3416991   2.389   3.286   8.530  0.1383 -0.3353 -0.7265
  143DOPC   H4X16992   2.287   3.244   8.517  1.1631 -2.4071 -2.9481
  143DOPC   H4Y16993   2.452   3.197   8.550 -1.5087 -1.3771  0.0689
  143DOPC   C3516994   2.417   3.367   8.399  0.1504  0.4535 -0.1124
  143DOPC   H5X16995   2.520   3.408   8.399  0.4498 -0.2041 -2.1646
  143DOPC   H5Y16996   2.344   3.450   8.382 -1.5662 -0.7108  1.2268
  143DOPC   C3616997   2.406   3.287   8.264  0.7616  0.2176 -0.1975
  143DOPC   H6X16998   2.301   3.251   8.269  1.3838 -1.6109  0.3817
  143DOPC   H6Y16999   2.416   3.361   8.181  2.2685  0.1666 -0.0947
  143DOPC   C3717000   2.492   3.168   8.242 -0.5851 -0.7386  0.0869
  143DOPC   H7X17001   2.476   3.083   8.313  2.0101  0.0232  1.7150
  143DOPC   H7Y17002   2.454   3.134   8.143 -1.0273 -1.7317  0.5878
  143DOPC   C3817003   2.643   3.196   8.223 -0.3956  0.2636 -0.3868
  143DOPC   H8X17004   2.679   3.245   8.316  1.0365 -0.3288 -0.6035
  143DOPC   H8Y17005   2.651   3.279   8.150  3.3786 -0.7425 -1.2987
  143DOPC   C3917006   2.735   3.079   8.176 -0.5900  0.5460 -1.0108
  143DOPC   H9X17007   2.769   3.092   8.073  1.9516  4.4746  0.1047
  143DOPC  C31017008   2.775   2.960   8.241 -0.4954 -0.8323 -0.0783
  143DOPC  H10X17009   2.838   2.888   8.187  1.5784  1.9747 -1.6903
  143DOPC  C31117010   2.735   2.919   8.382 -0.3882  0.2412 -0.4853
  143DOPC  H11X17011   2.780   2.820   8.405 -0.6623 -0.0516 -1.1679
  143DOPC  H11Y17012   2.627   2.894   8.381  0.1255 -2.2155 -1.0473
  143DOPC  C31217013   2.766   3.018   8.498  0.1342 -0.4294 -0.4705
  143DOPC  H12X17014   2.733   3.118   8.461  0.0149 -0.3417 -0.1336
  143DOPC  H12Y17015   2.874   3.038   8.515 -0.5291  3.7341  0.0940
  143DOPC  C31317016   2.704   2.973   8.633 -0.0452  0.1382 -0.3769
  143DOPC  H13X17017   2.596   2.958   8.611 -0.3012  1.1586  0.1508
  143DOPC  H13Y17018   2.746   2.874   8.664 -2.4096 -0.4412  1.2923
  143DOPC  C31417019   2.725   3.075   8.745  0.5347  0.1557 -0.5312
  143DOPC  H14X17020   2.831   3.083   8.776 -0.0714  0.7503  1.5590
  143DOPC  H14Y17021   2.695   3.180   8.722 -0.5298  0.4906  2.0351
  143DOPC  C31517022   2.658   3.046   8.882  0.2064  0.0442 -0.4309
  143DOPC  H15X17023   2.705   2.952   8.917  0.1637  1.1714  3.0314
  143DOPC  H15Y17024   2.551   3.023   8.866  0.8642 -2.2370 -2.0736
  143DOPC  C31617025   2.680   3.158   8.994 -0.3909 -0.1619  0.0563
  143DOPC  H16X17026   2.789   3.175   9.004 -0.1383 -2.2229  1.6113
  143DOPC  H16Y17027   2.623   3.247   8.962 -1.3812 -0.1531  1.7108
  143DOPC  C31717028   2.630   3.111   9.130 -0.0869  0.1370 -0.0294
  143DOPC  H17X17029   2.522   3.139   9.124  0.3601  1.6263 -1.7758
  143DOPC  H17Y17030   2.631   3.000   9.141 -0.6671  0.3245  2.5243
  143DOPC  C31817031   2.698   3.170   9.251 -0.1120  0.4283  0.1852
  143DOPC  H18X17032   2.653   3.128   9.343 -0.1173  1.9282  0.8779
  143DOPC  H18Y17033   2.808   3.164   9.235 -0.0777  2.2485 -0.5230
  143DOPC  H18Z17034   2.677   3.279   9.256  1.1395  0.7154 -0.3515
  144DOPC     N17035   2.417   1.966  10.134  0.4610 -0.3485 -1.1685
  144DOPC   C1217036   2.433   1.975   9.987  0.0854 -0.3384 -0.2997
  144DOPC  H12A17037   2.373   1.907   9.928 -1.3902 -0.0817  0.8585
  144DOPC  H12B17038   2.531   1.934   9.966 -0.1168 -1.2653  0.5124
  144DOPC   C1317039   2.273   2.012  10.176 -0.5463  0.5554 -0.1156
  144DOPC  H13A17040   2.187   1.964  10.131  0.2113 -1.2564  0.2840
  144DOPC  H13B17041   2.244   1.981  10.275 -1.1201 -1.0083 -0.7414
  144DOPC  H13C17042   2.261   2.115  10.146 -1.2764  0.4841 -0.0845
  144DOPC   C1417043   2.521   2.039  10.216  0.8529  0.6481 -0.1989
  144DOPC  H14A17044   2.517   2.027  10.323 -0.2609  3.3071  0.1344
  144DOPC  H14B17045   2.617   2.001  10.184  1.7084  0.1403  2.6794
  144DOPC  H14C17046   2.517   2.146  10.198 -2.6256  0.4767 -1.2354
  144DOPC   C1517047   2.430   1.820  10.179 -0.3513  0.4759  0.6893
  144DOPC  H15A17048   2.535   1.800  10.161 -0.3971  1.1174 -0.3407
  144DOPC  H15B17049   2.363   1.761  10.118 -1.6880 -0.1609  2.6754
  144DOPC  H15C17050   2.411   1.808  10.285  0.3091  0.2517  0.7912
  144DOPC   C1117051   2.423   2.114   9.916 -0.7907 -0.1550 -0.1409
  144DOPC  H11A17052   2.486   2.189   9.968 -1.5030  0.3052  0.0802
  144DOPC  H11B17053   2.468   2.109   9.815  2.7529  1.2755  1.1883
  144DOPC     P17054   2.192   2.100   9.826  0.3752 -0.3324  0.6594
  144DOPC   O1317055   2.069   2.178   9.827  0.2884  0.1212 -0.0582
  144DOPC   O1417056   2.183   1.948   9.833 -0.1338  0.6196 -0.3614
  144DOPC   O1217057   2.286   2.164   9.932 -0.7871  0.0726 -0.5095
  144DOPC   O1117058   2.271   2.149   9.696  0.1167  0.0931  0.2671
  144DOPC    C117059   2.343   2.076   9.600 -0.7443  0.6209  0.4515
  144DOPC    HA17060   2.337   1.966   9.611  1.0755  0.7324  3.5635
  144DOPC    HB17061   2.452   2.099   9.606 -0.3660 -0.4907 -1.3852
  144DOPC    C217062   2.306   2.112   9.450 -0.6909 -0.3978 -0.4512
  144DOPC    HS17063   2.300   2.222   9.445 -0.3059 -0.1498  2.7253
  144DOPC   O2117064   2.182   2.043   9.417 -0.3137  0.1358  0.4611
  144DOPC   C2117065   2.064   2.102   9.439 -0.5597  0.5041 -0.4253
  144DOPC   O2217066   2.045   2.197   9.512 -0.0018 -0.0520  0.2606
  144DOPC   C2217067   1.958   2.018   9.372  0.5215 -0.8269  0.7210
  144DOPC   H2R17068   1.872   2.019   9.443  1.4872  0.6325  1.9436
  144DOPC   H2S17069   1.994   1.913   9.360  1.7972 -0.2720 -0.5510
  144DOPC    C317070   2.422   2.055   9.367  0.1987 -0.4586  0.8620
  144DOPC    HX17071   2.421   1.945   9.382 -3.7116 -0.5698  0.7381
  144DOPC    HY17072   2.524   2.091   9.393  0.2037 -0.2385  0.5376
  144DOPC   O3117073   2.411   2.081   9.224 -0.4279 -0.5250  0.3118
  144DOPC   C3117074   2.501   2.015   9.152 -0.2482 -0.1315 -0.0539
  144DOPC   O3217075   2.569   1.920   9.195  0.2610 -0.8148 -0.3800
  144DOPC   C3217076   2.503   2.070   9.013  0.3153 -0.7012  0.2706
  144DOPC   H2X17077   2.406   2.116   8.984  0.2596 -0.0340  1.4409
  144DOPC   H2Y17078   2.579   2.151   9.000  0.9419 -1.5483 -1.6643
  144DOPC   C2317079   1.922   2.072   9.229 -1.5740  0.1099  0.7643
  144DOPC   H3R17080   1.867   2.167   9.246 -1.3358  0.1274  1.4436
  144DOPC   H3S17081   1.846   2.008   9.179  0.1879 -0.3576 -1.4663
  144DOPC   C2417082   2.049   2.085   9.142  0.1059 -0.1060 -0.0703
  144DOPC   H4R17083   2.119   2.159   9.185 -0.7891 -1.0364  3.3032
  144DOPC   H4S17084   2.022   2.132   9.045  1.1425 -0.2390 -0.4308
  144DOPC   C2517085   2.130   1.960   9.115  0.0243  0.4230 -0.1670
  144DOPC   H5R17086   2.164   1.923   9.215 -0.5577 -0.3329 -0.2378
  144DOPC   H5S17087   2.219   1.992   9.059 -0.6419 -0.3012 -1.6928
  144DOPC   C2617088   2.066   1.845   9.038  0.2833  0.3964 -0.0862
  144DOPC   H6R17089   1.986   1.882   8.970  0.3965 -1.8113 -1.5048
  144DOPC   H6S17090   2.014   1.775   9.107  0.2497 -1.3125 -1.7819
  144DOPC   C2717091   2.165   1.770   8.947 -0.8512  0.6905 -0.8145
  144DOPC   H7R17092   2.257   1.749   9.005  0.3121 -3.4375 -3.6947
  144DOPC   H7S17093   2.192   1.836   8.862 -0.7431  0.0297 -1.3022
  144DOPC   C2817094   2.104   1.644   8.894  0.2807  0.3708  0.1066
  144DOPC   H8R17095   2.008   1.676   8.848  1.3080  0.7090 -1.8977
  144DOPC   H8S17096   2.084   1.573   8.978  0.5683 -1.4276 -1.3053
  144DOPC   C2917097   2.191   1.576   8.790  0.0278 -0.7088 -0.3375
  144DOPC   H9R17098   2.244   1.488   8.830  0.5418 -0.0179  0.5379
  144DOPC  C21017099   2.202   1.612   8.663  0.0604 -0.1224  0.2129
  144DOPC  H10R17100   2.281   1.559   8.607 -0.1282 -2.4979  2.0261
  144DOPC  C21117101   2.125   1.723   8.595  0.3455 -0.1539  0.1499
  144DOPC  H11R17102   2.055   1.768   8.669 -0.1565  0.1860 -0.5212
  144DOPC  H11S17103   2.069   1.683   8.508 -0.0472 -0.7750  0.6792
  144DOPC  C21217104   2.211   1.831   8.541 -0.3419 -0.0833  0.0919
  144DOPC  H12R17105   2.286   1.777   8.479  0.2692 -1.6430  2.0722
  144DOPC  H12S17106   2.269   1.882   8.620 -2.1160 -1.5984  2.5186
  144DOPC  C21317107   2.129   1.931   8.462 -0.4084  0.1464  0.4473
  144DOPC  H13R17108   2.180   2.026   8.490  1.8384 -1.2843  1.4627
  144DOPC  H13S17109   2.023   1.944   8.493 -0.9459  0.5419 -1.4076
  144DOPC  C21417110   2.148   1.910   8.310  0.3840 -0.1061  0.5753
  144DOPC  H14R17111   2.110   1.808   8.289 -1.5297  0.8676 -1.0647
  144DOPC  H14S17112   2.254   1.917   8.279  0.5526 -0.4268  1.0544
  144DOPC  C21517113   2.071   2.012   8.217 -0.5236 -0.5447  0.0505
  144DOPC  H15R17114   2.111   2.105   8.261  0.9263 -1.9150  1.7563
  144DOPC  H15S17115   1.961   2.011   8.230 -0.7372 -4.0569 -0.9743
  144DOPC  C21617116   2.102   1.991   8.059  0.4504  0.1390 -0.0135
  144DOPC  H16R17117   2.054   1.897   8.025 -0.4913  0.6505 -0.1518
  144DOPC  H16S17118   2.211   1.985   8.040  0.8466  0.0549  2.0688
  144DOPC  C21717119   2.042   2.096   7.969  0.3165 -0.1393  0.6275
  144DOPC  H17R17120   2.102   2.188   7.982 -0.2919  0.0783  2.1563
  144DOPC  H17S17121   1.935   2.121   7.988  0.3280  0.6988 -0.2927
  144DOPC  C21817122   2.052   2.048   7.821  0.1287  0.5635  0.1276
  144DOPC  H18R17123   2.153   2.075   7.785 -1.1656  5.6117 -0.5053
  144DOPC  H18S17124   1.984   2.105   7.754  0.2287 -1.6370 -1.9519
  144DOPC  H18T17125   2.026   1.941   7.809 -2.3201  1.1917 -0.9633
  144DOPC   C3317126   2.537   1.959   8.915 -0.1658  0.6688 -0.1645
  144DOPC   H3X17127   2.463   1.876   8.918  0.4993  0.0012 -1.4724
  144DOPC   H3Y17128   2.639   1.928   8.944  0.3318  1.2312 -1.2487
  144DOPC   C3417129   2.548   2.020   8.775 -0.0651 -0.8866 -0.0981
  144DOPC   H4X17130   2.638   2.085   8.768  0.7377 -1.7883  1.3867
  144DOPC   H4Y17131   2.460   2.085   8.754  0.3723 -0.5465 -0.9278
  144DOPC   C3517132   2.561   1.913   8.660 -0.3305  0.0767  0.3399
  144DOPC   H5X17133   2.468   1.852   8.666  0.1508 -0.8730 -1.3001
  144DOPC   H5Y17134   2.654   1.854   8.672 -0.8556 -0.7418  0.4508
  144DOPC   C3617135   2.563   1.976   8.515 -0.1263  0.5624 -0.7171
  144DOPC   H6X17136   2.478   2.046   8.502 -1.4515 -0.7106  0.6284
  144DOPC   H6Y17137   2.656   2.037   8.521  0.5877 -0.5562  0.3063
  144DOPC   C3717138   2.584   1.874   8.407 -0.0141  0.0493  0.4156
  144DOPC   H7X17139   2.679   1.823   8.436  1.4382  1.2165 -1.9538
  144DOPC   H7Y17140   2.504   1.799   8.387 -1.2483  1.0602  1.4366
  144DOPC   C3817141   2.624   1.946   8.269 -0.3155 -0.1608  0.2827
  144DOPC   H8X17142   2.701   2.024   8.287  0.8496 -0.7271 -1.8516
  144DOPC   H8Y17143   2.539   2.013   8.242 -0.1291 -0.0658 -0.0777
  144DOPC   C3917144   2.662   1.859   8.156 -0.1089  0.3830  0.2955
  144DOPC   H9X17145   2.762   1.815   8.168 -0.4129 -0.6943 -0.8853
  144DOPC  C31017146   2.609   1.835   8.041  0.8130 -0.6619  0.2444
  144DOPC  H10X17147   2.652   1.752   7.983 -0.8348 -2.4016  1.3901
  144DOPC  C31117148   2.494   1.910   7.977 -0.3816  0.5568 -0.9198
  144DOPC  H11X17149   2.463   2.001   8.033 -0.3365 -1.3458  2.4523
  144DOPC  H11Y17150   2.409   1.840   7.976 -1.1380  1.3954 -3.1252
  144DOPC  C31217151   2.510   1.943   7.831  0.4084  0.3565  0.0982
  144DOPC  H12X17152   2.411   1.974   7.790  0.3993 -0.0250 -0.1664
  144DOPC  H12Y17153   2.542   1.857   7.770 -1.6655  1.1446 -2.2534
  144DOPC  C31317154   2.612   2.060   7.798 -0.0317 -0.2380 -1.0899
  144DOPC  H13X17155   2.618   2.074   7.688 -0.3048  0.9294 -0.9777
  144DOPC  H13Y17156   2.579   2.158   7.840  1.8865  0.0631 -0.1551
  144DOPC  C31417157   2.763   2.054   7.853  0.2680 -0.7131  0.2389
  144DOPC  H14X17158   2.765   2.035   7.962 -0.6051  0.9762  0.5905
  144DOPC  H14Y17159   2.807   1.969   7.797  3.7370  0.4745  0.9235
  144DOPC  C31517160   2.834   2.184   7.822 -0.0768  0.1135 -0.4854
  144DOPC  H15X17161   2.768   2.270   7.848  1.0979  1.1101 -0.6734
  144DOPC  H15Y17162   2.854   2.194   7.713  1.6121  1.8097 -0.0892
  144DOPC  C31617163   2.962   2.200   7.901 -0.1709 -0.5240 -0.6022
  144DOPC  H16X17164   2.949   2.298   7.951  2.4102 -0.0262 -0.7751
  144DOPC  H16Y17165   2.982   2.125   7.981  1.2223  0.4865  0.0137
  144DOPC  C31717166   3.095   2.200   7.823  0.5370 -0.3951 -0.1213
  144DOPC  H17X17167   3.129   2.096   7.802  3.5441  0.3859  0.3259
  144DOPC  H17Y17168   3.090   2.249   7.724  1.7656 -3.2773 -1.7157
  144DOPC  C31817169   3.199   2.269   7.901 -0.0939 -0.4576  0.0644
  144DOPC  H18X17170   3.300   2.275   7.854 -0.8978 -0.3619 -1.7333
  144DOPC  H18Y17171   3.159   2.371   7.921  0.4718 -0.8883  4.2727
  144DOPC  H18Z17172   3.209   2.234   8.006 -1.8938 -1.1839  0.0228
  145DOPC     N17173   3.256   4.677  10.317  0.0063 -0.1050 -0.5375
  145DOPC   C1217174   3.388   4.623  10.299  0.1778  0.7660 -0.1664
  145DOPC  H12A17175   3.392   4.518  10.326 -1.6894  0.4032 -1.1261
  145DOPC  H12B17176   3.447   4.684  10.367  2.1259  0.5247 -1.5587
  145DOPC   C1317177   3.211   4.654  10.457  0.3246  0.0067 -0.1071
  145DOPC  H13A17178   3.221   4.551  10.488  2.4231  0.2493  0.1878
  145DOPC  H13B17179   3.270   4.713  10.525  1.5975 -2.1034  0.7029
  145DOPC  H13C17180   3.109   4.682  10.476  0.3053  0.1482 -0.4122
  145DOPC   C1417181   3.161   4.613  10.228 -0.4463 -0.5859  0.1901
  145DOPC  H14A17182   3.188   4.624  10.124 -1.0336 -1.7843 -0.1063
  145DOPC  H14B17183   3.155   4.508  10.254  0.1784 -1.2029 -1.9644
  145DOPC  H14C17184   3.058   4.642  10.239 -0.6622 -1.6055  1.0893
  145DOPC   C1517185   3.251   4.823  10.284  0.1782  0.0237 -0.0486
  145DOPC  H15A17186   3.147   4.845  10.268 -0.3407 -1.9005  0.4196
  145DOPC  H15B17187   3.302   4.830  10.189 -1.2062  1.8276 -0.7060
  145DOPC  H15C17188   3.296   4.879  10.364 -2.1114 -1.4990  2.5047
  145DOPC   C1117189   3.457   4.625  10.154 -0.5349 -0.2885  0.4013
  145DOPC  H11A17190   3.561   4.592  10.174  0.5849  1.4672 -2.0186
  145DOPC  H11B17191   3.402   4.551  10.091 -0.5139  0.1135 -0.0894
  145DOPC     P17192   3.406   4.778   9.960 -0.3997  0.6376 -0.1484
  145DOPC   O1317193   3.406   4.919   9.921 -0.0304  0.0229 -0.5185
  145DOPC   O1417194   3.282   4.708   9.966 -0.0214  0.0077 -0.0553
  145DOPC   O1217195   3.476   4.761  10.103 -0.3918  0.0931 -0.2301
  145DOPC   O1117196   3.505   4.698   9.867 -0.5300  0.6095 -0.3134
  145DOPC    C117197   3.490   4.671   9.726 -0.5402  0.2453  0.0199
  145DOPC    HA17198   3.388   4.693   9.687 -0.2910  1.5405  0.0656
  145DOPC    HB17199   3.518   4.564   9.710  2.2161  0.7580  0.9871
  145DOPC    C217200   3.598   4.746   9.650 -0.8618 -0.1696  0.7897
  145DOPC    HS17201   3.691   4.740   9.709 -1.0081 -0.3500  1.0058
  145DOPC   O2117202   3.566   4.882   9.622 -0.0527  0.2636  0.1544
  145DOPC   C2117203   3.630   4.978   9.687 -0.2063  0.8280  0.1585
  145DOPC   O2217204   3.722   4.955   9.766 -0.4729  0.4205  0.3486
  145DOPC   C2217205   3.580   5.112   9.640 -0.9687 -0.3949  0.6343
  145DOPC   H2R17206   3.552   5.179   9.724 -0.2209  2.4195 -1.2310
  145DOPC   H2S17207   3.486   5.105   9.581 -0.3717 -0.4704 -0.3328
  145DOPC    C317208   3.625   4.665   9.511  0.0018  1.5625  0.6861
  145DOPC    HX17209   3.528   4.661   9.457 -0.7763 -0.1668  2.1045
  145DOPC    HY17210   3.653   4.561   9.540 -2.3598  0.3329 -1.1316
  145DOPC   O3117211   3.720   4.723   9.421  0.0139 -0.3452  0.3650
  145DOPC   C3117212   3.849   4.706   9.457  0.9119 -1.1806 -0.3636
  145DOPC   O3217213   3.896   4.648   9.551 -0.2258  0.1902  0.1878
  145DOPC   C3217214   3.937   4.760   9.343  0.3857 -0.0123  0.9309
  145DOPC   H2X17215   3.922   4.869   9.357 -0.5843 -0.1783  1.2538
  145DOPC   H2Y17216   4.044   4.735   9.363 -0.2310 -1.7607  2.3163
  145DOPC   C2317217   3.683   5.193   9.554 -0.1332  0.7394 -0.2689
  145DOPC   H3R17218   3.766   5.219   9.624 -0.6101  1.0533  0.1879
  145DOPC   H3S17219   3.637   5.291   9.527  1.8982  2.1739  1.1105
  145DOPC   C2417220   3.724   5.124   9.422 -0.2132 -0.6490 -0.8225
  145DOPC   H4R17221   3.631   5.110   9.362 -0.5609 -1.3198 -0.1446
  145DOPC   H4S17222   3.771   5.024   9.428 -0.5610 -1.0607 -3.6781
  145DOPC   C2517223   3.811   5.216   9.342  0.2545 -0.2579 -0.0290
  145DOPC   H5R17224   3.906   5.236   9.397 -0.2385  1.0137  0.3813
  145DOPC   H5S17225   3.754   5.310   9.332 -1.1044 -0.9817  0.6606
  145DOPC   C2617226   3.849   5.162   9.205  0.6777 -0.2342  0.4064
  145DOPC   H6R17227   3.758   5.117   9.161 -0.0697  1.5350  0.0656
  145DOPC   H6S17228   3.925   5.082   9.221  1.1147  0.1637  0.3310
  145DOPC   C2717229   3.900   5.268   9.111 -0.1158  0.3665  0.7208
  145DOPC   H7R17230   3.999   5.287   9.156  1.5121  0.5667 -2.6448
  145DOPC   H7S17231   3.847   5.366   9.113 -1.6059 -0.3569 -0.7798
  145DOPC   C2817232   3.925   5.226   8.963  0.0177  0.3072  0.0875
  145DOPC   H8R17233   3.967   5.124   8.961 -0.5563  0.0416  1.0700
  145DOPC   H8S17234   4.003   5.288   8.914 -2.5632  2.1741 -2.0210
  145DOPC   C2917235   3.799   5.236   8.878 -0.4204  1.0792 -0.7920
  145DOPC   H9R17236   3.720   5.176   8.926  0.5476  0.1434 -0.3312
  145DOPC  C21017237   3.782   5.310   8.771  0.1034 -0.4984 -0.6692
  145DOPC  H10R17238   3.685   5.299   8.721  0.3094 -1.7885 -0.7949
  145DOPC  C21117239   3.886   5.403   8.705 -0.5187 -0.0304  0.5471
  145DOPC  H11R17240   3.989   5.382   8.741 -0.3868  2.0059  1.5054
  145DOPC  H11S17241   3.867   5.509   8.733  1.7119  0.4756  0.3393
  145DOPC  C21217242   3.876   5.372   8.554 -0.1722 -0.3761 -0.2461
  145DOPC  H12R17243   3.770   5.367   8.522  0.0111  0.3620 -1.0049
  145DOPC  H12S17244   3.922   5.272   8.534 -0.2079 -0.4547  0.0599
  145DOPC  C21317245   3.934   5.475   8.446 -0.1872  0.6616  0.0930
  145DOPC  H13R17246   3.856   5.553   8.444 -0.3217  0.5215 -0.1577
  145DOPC  H13S17247   3.934   5.433   8.343 -2.0333  1.1629 -0.1444
  145DOPC  C21417248   4.067   5.539   8.493 -0.4723 -0.4276  0.1799
  145DOPC  H14R17249   4.152   5.472   8.519  1.1578  1.9443  1.4130
  145DOPC  H14S17250   4.048   5.583   8.594 -0.5082  0.4549 -0.2026
  145DOPC  C21517251   4.113   5.659   8.411 -0.0323  0.0948  0.0844
  145DOPC  H15R17252   4.207   5.700   8.454 -0.5963 -0.0537  1.5249
  145DOPC  H15S17253   4.038   5.741   8.418 -0.1911  0.0182 -0.6574
  145DOPC  C21617254   4.135   5.625   8.261  0.8171 -0.3096  0.2788
  145DOPC  H16R17255   4.042   5.573   8.230  0.9166 -0.1153 -0.3563
  145DOPC  H16S17256   4.228   5.567   8.242  0.3686 -0.6063 -1.0884
  145DOPC  C21717257   4.149   5.751   8.176 -0.5395  0.2874  0.8185
  145DOPC  H17R17258   4.079   5.829   8.211 -0.2724  0.5401  0.7915
  145DOPC  H17S17259   4.131   5.719   8.071  0.7036 -1.0401  0.9727
  145DOPC  C21817260   4.285   5.828   8.184 -0.4515  0.5100 -0.6853
  145DOPC  H18R17261   4.308   5.881   8.089  2.6721 -0.2887 -0.4475
  145DOPC  H18S17262   4.370   5.761   8.206  0.0041  0.9889 -0.9657
  145DOPC  H18T17263   4.273   5.899   8.269  0.2275  1.3317 -1.2634
  145DOPC   C3317264   3.902   4.718   9.195 -0.6418 -0.0582  0.1602
  145DOPC   H3X17265   3.793   4.739   9.190 -0.6861 -0.2803  0.2152
  145DOPC   H3Y17266   3.938   4.614   9.191  1.5872  0.4956  2.8520
  145DOPC   C3417267   3.967   4.806   9.088 -0.4237 -0.1651  0.2537
  145DOPC   H4X17268   4.077   4.803   9.106 -0.2712 -3.2023 -0.6641
  145DOPC   H4Y17269   3.927   4.910   9.083  0.8980  0.3157 -1.3271
  145DOPC   C3517270   3.947   4.747   8.945 -0.1694  0.2436 -0.2127
  145DOPC   H5X17271   3.839   4.756   8.922 -0.0324  1.5759 -0.4094
  145DOPC   H5Y17272   3.972   4.640   8.957 -0.9220  0.1960  1.0530
  145DOPC   C3617273   4.027   4.815   8.835 -0.2495 -0.1540 -0.1997
  145DOPC   H6X17274   3.997   4.922   8.829 -1.1077 -0.3921 -0.2138
  145DOPC   H6Y17275   4.136   4.811   8.858  0.4312  0.5311 -2.9623
  145DOPC   C3717276   3.998   4.767   8.685 -0.3267 -0.4570  0.1589
  145DOPC   H7X17277   4.029   4.660   8.688  1.0739 -0.0477  2.3789
  145DOPC   H7Y17278   3.891   4.768   8.655  0.0162 -1.2810 -1.1698
  145DOPC   C3817279   4.074   4.822   8.556 -0.1340  0.3482 -0.0366
  145DOPC   H8X17280   4.036   4.765   8.469  0.0686 -2.1635  1.4363
  145DOPC   H8Y17281   4.179   4.794   8.576  0.0188  0.7435 -0.2765
  145DOPC   C3917282   4.054   4.976   8.537  0.5622  0.2073 -0.2369
  145DOPC   H9X17283   4.033   5.039   8.625 -0.0095  1.5687 -1.3119
  145DOPC  C31017284   4.063   5.038   8.417  0.3625  0.0758  0.6456
  145DOPC  H10X17285   4.043   5.146   8.415  0.8465  0.1697  0.9213
  145DOPC  C31117286   4.088   4.973   8.281 -0.6403  0.5525  0.2354
  145DOPC  H11X17287   3.997   4.954   8.221  0.0803  2.0074 -1.4192
  145DOPC  H11Y17288   4.139   4.876   8.294 -1.6816  0.1530  1.5536
  145DOPC  C31217289   4.180   5.062   8.191  0.7750  0.2051 -0.5563
  145DOPC  H12X17290   4.234   5.003   8.114 -0.6735 -0.1459 -1.3158
  145DOPC  H12Y17291   4.256   5.123   8.246 -0.1534  0.2453  0.7241
  145DOPC  C31317292   4.106   5.173   8.103 -0.0856 -0.1614  0.4223
  145DOPC  H13X17293   4.052   5.238   8.175 -1.4030 -0.4781 -0.2495
  145DOPC  H13Y17294   4.186   5.237   8.060  1.5914 -1.3132  1.6853
  145DOPC  C31417295   4.022   5.119   7.988 -0.2870 -0.8857  0.5602
  145DOPC  H14X17296   4.086   5.089   7.903 -2.3383 -1.0279 -1.0372
  145DOPC  H14Y17297   3.968   5.024   8.007 -1.1226 -0.1040  2.3474
  145DOPC  C31517298   3.925   5.224   7.931  0.3440  0.2227 -0.2788
  145DOPC  H15X17299   3.843   5.241   8.004  0.1620  0.2534 -0.4876
  145DOPC  H15Y17300   3.870   5.201   7.837 -1.3397  0.1891  0.6762
  145DOPC  C31617301   3.984   5.363   7.905  0.8124  0.5124 -0.3579
  145DOPC  H16X17302   4.009   5.412   8.001 -2.5899  0.4958  0.6844
  145DOPC  H16Y17303   4.081   5.356   7.851  0.9441  1.0960 -0.2004
  145DOPC  C31717304   3.886   5.462   7.826  0.3406 -0.7399  0.0348
  145DOPC  H17X17305   3.781   5.450   7.860  0.0003 -1.4888 -1.2249
  145DOPC  H17Y17306   3.920   5.565   7.851 -0.8258  0.1413 -1.7999
  145DOPC  C31817307   3.894   5.437   7.681 -0.0088  1.4008  0.8540
  145DOPC  H18X17308   3.998   5.406   7.658 -0.1081 -1.7405  3.7743
  145DOPC  H18Y17309   3.827   5.353   7.652 -0.1946  1.9746 -0.4218
  145DOPC  H18Z17310   3.864   5.526   7.622 -3.2060  0.1566  0.3766
  146DOPC     N17311   4.574   2.096   9.706 -0.1946  0.8489  0.4706
  146DOPC   C1217312   4.679   2.173   9.779  0.2453  0.2539  0.5611
  146DOPC  H12A17313   4.753   2.110   9.826  1.6930  2.4856  1.4585
  146DOPC  H12B17314   4.635   2.220   9.866  0.0390  1.8024 -0.3537
  146DOPC   C1317315   4.437   2.154   9.738 -0.0591  0.3880  0.2569
  146DOPC  H13A17316   4.410   2.166   9.842  0.4564  0.6690  0.3630
  146DOPC  H13B17317   4.407   2.245   9.689 -2.0916 -0.3321  0.0361
  146DOPC  H13C17318   4.362   2.084   9.704 -1.7292  2.0914  0.2788
  146DOPC   C1417319   4.566   1.950   9.754 -0.4680  0.2344 -0.2932
  146DOPC  H14A17320   4.667   1.911   9.767  0.1143  1.7511 -0.0449
  146DOPC  H14B17321   4.521   1.940   9.852  2.5206 -1.5046  1.0664
  146DOPC  H14C17322   4.514   1.886   9.685  0.4524 -1.6622  0.6812
  146DOPC   C1517323   4.597   2.090   9.560  0.0522 -0.2093  0.1839
  146DOPC  H15A17324   4.513   2.042   9.511  1.6095 -2.3143 -0.6195
  146DOPC  H15B17325   4.689   2.037   9.535 -0.1592 -0.3526 -0.3128
  146DOPC  H15C17326   4.608   2.188   9.515  1.9740 -0.6746 -0.4954
  146DOPC   C1117327   4.755   2.281   9.697 -0.1540  0.2545  0.3070
  146DOPC  H11A17328   4.813   2.231   9.617  1.9787  1.6464  0.8934
  146DOPC  H11B17329   4.687   2.343   9.635  0.3161 -1.1248 -1.6874
  146DOPC     P17330   4.791   2.477   9.870 -0.0600  0.2536  0.0844
  146DOPC   O1317331   4.894   2.537   9.961  0.2745 -0.6062 -0.8980
  146DOPC   O1417332   4.667   2.437   9.931  0.2759  0.2474 -0.1929
  146DOPC   O1217333   4.843   2.351   9.791 -0.2714 -0.2882  0.1638
  146DOPC   O1117334   4.760   2.574   9.746 -0.5951  0.3097 -0.1815
  146DOPC    C117335   4.872   2.599   9.656  0.5481 -0.2574  0.0076
  146DOPC    HA17336   4.945   2.516   9.651 -0.4265 -1.1213 -0.1666
  146DOPC    HB17337   4.938   2.685   9.681  1.0176  0.1830 -2.4795
  146DOPC    C217338   4.834   2.607   9.506 -0.7315 -0.5373  0.0359
  146DOPC    HS17339   4.766   2.522   9.483  0.1162 -0.9940 -0.8142
  146DOPC   O2117340   4.965   2.601   9.441  0.5377 -0.4629  0.2525
  146DOPC   C2117341   4.961   2.551   9.317 -0.4749  0.0487  0.3993
  146DOPC   O2217342   4.869   2.490   9.265  0.0229 -0.0906 -0.3106
  146DOPC   C2217343   5.109   2.565   9.268 -0.6480  0.1551 -0.0953
  146DOPC   H2R17344   5.185   2.515   9.332  1.7424  1.6992 -1.5542
  146DOPC   H2S17345   5.127   2.674   9.262 -2.2214  0.5733  1.9740
  146DOPC    C317346   4.770   2.746   9.470  0.6759  0.3232  0.6884
  146DOPC    HX17347   4.849   2.823   9.483  1.0895  0.0216  0.0145
  146DOPC    HY17348   4.694   2.762   9.549  0.6450  0.1047  0.7042
  146DOPC   O3117349   4.719   2.748   9.336 -0.6423  0.4611  0.0992
  146DOPC   C3117350   4.596   2.782   9.314 -0.4813 -0.7916 -0.2388
  146DOPC   O3217351   4.515   2.811   9.399 -0.4263  0.4202  0.1932
  146DOPC   C3217352   4.559   2.778   9.169 -0.0286  0.2473  0.3350
  146DOPC   H2X17353   4.452   2.751   9.163  0.1927 -0.6990  0.4589
  146DOPC   H2Y17354   4.575   2.883   9.134 -0.0392  1.1294  2.7700
  146DOPC   C2317355   5.138   2.480   9.141  0.3471  0.4609  0.0176
  146DOPC   H3R17356   5.110   2.375   9.163  0.1372  0.8937  2.0444
  146DOPC   H3S17357   5.247   2.469   9.125 -0.1484 -3.1056 -1.8889
  146DOPC   C2417358   5.086   2.528   9.009 -0.5751  0.3827 -0.4953
  146DOPC   H4R17359   5.133   2.624   8.978 -0.0800 -0.0387 -1.0881
  146DOPC   H4S17360   4.978   2.552   9.024  0.2105  2.4921  2.9102
  146DOPC   C2517361   5.103   2.427   8.899 -0.2789  0.4829  0.6797
  146DOPC   H5R17362   5.016   2.358   8.891 -0.6372  0.8595  1.2720
  146DOPC   H5S17363   5.193   2.362   8.912 -0.3124  0.7736  2.6044
  146DOPC   C2617364   5.117   2.500   8.764  0.3573 -0.4265 -0.1813
  146DOPC   H6R17365   5.222   2.532   8.751  0.4279 -0.4426  0.3131
  146DOPC   H6S17366   5.044   2.583   8.755 -0.0197 -0.8230 -0.8247
  146DOPC   C2717367   5.081   2.394   8.646  0.8232  0.1573  0.7915
  146DOPC   H7R17368   4.972   2.375   8.653  0.1406  2.8484 -0.8680
  146DOPC   H7S17369   5.140   2.304   8.670  1.0971  0.7894  2.6256
  146DOPC   C2817370   5.093   2.448   8.506  0.1269 -0.2261 -0.1523
  146DOPC   H8R17371   5.183   2.512   8.496 -0.1459  0.1271 -0.3709
  146DOPC   H8S17372   5.012   2.523   8.495  0.7096  0.4186 -0.0574
  146DOPC   C2917373   5.092   2.348   8.396  0.0311 -0.0511 -0.4714
  146DOPC   H9R17374   5.146   2.253   8.410 -0.1199 -0.1904 -0.8281
  146DOPC  C21017375   5.039   2.363   8.277  0.1041  0.0820 -0.8773
  146DOPC  H10R17376   5.007   2.273   8.222 -2.8555 -0.0178  0.7474
  146DOPC  C21117377   4.965   2.491   8.231  0.3443 -0.0885 -0.0080
  146DOPC  H11R17378   5.006   2.522   8.132 -0.5863  2.7133  0.3898
  146DOPC  H11S17379   4.995   2.570   8.302  1.8086  0.1010 -0.8041
  146DOPC  C21217380   4.814   2.482   8.202 -0.5308 -0.9616  0.1638
  146DOPC  H12R17381   4.772   2.583   8.185  2.2472  0.1390 -0.8590
  146DOPC  H12S17382   4.776   2.452   8.302  1.5319 -0.2697  1.2288
  146DOPC  C21317383   4.778   2.393   8.086 -0.0803 -0.3525  0.7352
  146DOPC  H13R17384   4.816   2.290   8.103  0.5069 -0.2269  0.2251
  146DOPC  H13S17385   4.824   2.440   7.997  0.2645  0.3538  1.2765
  146DOPC  C21417386   4.627   2.388   8.064  0.3187 -0.4283  0.5117
  146DOPC  H14R17387   4.578   2.485   8.087  1.6603  0.1299  1.1610
  146DOPC  H14S17388   4.584   2.313   8.133 -3.1261  1.5934  0.7748
  146DOPC  C21517389   4.578   2.342   7.930  0.0118 -0.7320 -0.0065
  146DOPC  H15R17390   4.469   2.317   7.928  0.0564 -1.1129  1.4207
  146DOPC  H15S17391   4.630   2.249   7.899  0.3450 -0.4849 -0.1874
  146DOPC  C21617392   4.588   2.460   7.832 -0.2318 -0.2983  0.1267
  146DOPC  H16R17393   4.572   2.419   7.730  1.4150 -0.0911 -0.2507
  146DOPC  H16S17394   4.696   2.488   7.832 -0.0601 -0.9259 -0.3042
  146DOPC  C21717395   4.494   2.577   7.856 -0.0687 -0.7753 -0.6388
  146DOPC  H17R17396   4.538   2.667   7.807  1.3428  0.1069  2.0200
  146DOPC  H17S17397   4.472   2.598   7.963 -0.6057 -2.1485 -0.4605
  146DOPC  C21817398   4.361   2.563   7.777  0.4946 -0.1251  0.1334
  146DOPC  H18R17399   4.384   2.545   7.670 -1.0399 -0.5291 -0.1564
  146DOPC  H18S17400   4.292   2.649   7.771 -0.8945 -1.1645  0.6186
  146DOPC  H18T17401   4.299   2.479   7.817  0.4381  0.4406  1.2842
  146DOPC   C3317402   4.637   2.675   9.091 -0.1879 -0.6724 -0.2412
  146DOPC   H3X17403   4.610   2.578   9.136 -2.7413  0.7900  1.6799
  146DOPC   H3Y17404   4.746   2.691   9.106 -0.7494  1.7259  2.0971
  146DOPC   C3417405   4.608   2.677   8.939 -0.0532 -0.3218 -0.0051
  146DOPC   H4X17406   4.623   2.779   8.896 -1.0119  0.1842  0.8343
  146DOPC   H4Y17407   4.501   2.663   8.915  0.1224 -2.4019  0.2083
  146DOPC   C3517408   4.674   2.567   8.850  0.1341 -0.6009 -0.2984
  146DOPC   H5X17409   4.630   2.476   8.894 -0.9805 -0.5539 -1.2622
  146DOPC   H5Y17410   4.784   2.555   8.862  0.1593  0.1397  0.2421
  146DOPC   C3617411   4.646   2.576   8.705  0.2590  0.0375 -0.6219
  146DOPC   H6X17412   4.691   2.497   8.642 -2.2508 -2.3809  0.3854
  146DOPC   H6Y17413   4.543   2.535   8.691  1.0100 -1.4198 -2.2321
  146DOPC   C3717414   4.664   2.719   8.642 -0.1625  0.0382 -1.4201
  146DOPC   H7X17415   4.603   2.800   8.685  1.5145  1.8867 -2.3578
  146DOPC   H7Y17416   4.768   2.751   8.667  0.3821 -2.5046 -0.0056
  146DOPC   C3817417   4.656   2.725   8.492 -0.0946  0.0279  0.4738
  146DOPC   H8X17418   4.698   2.631   8.449 -0.0547  1.1117 -2.0330
  146DOPC   H8Y17419   4.705   2.811   8.441  0.4242 -0.9877 -0.8291
  146DOPC   C3917420   4.510   2.725   8.448 -0.6711 -0.5251 -0.7261
  146DOPC   H9X17421   4.446   2.661   8.510  0.9358  0.1139  1.7515
  146DOPC  C31017422   4.438   2.804   8.369 -0.3172  0.0399 -0.1652
  146DOPC  H10X17423   4.329   2.795   8.367 -0.5545  2.3568 -0.0499
  146DOPC  C31117424   4.491   2.926   8.305  0.1573  0.2871  0.3415
  146DOPC  H11X17425   4.597   2.942   8.332  0.7192 -1.3466 -0.7390
  146DOPC  H11Y17426   4.434   3.020   8.319 -0.0137 -0.2320  4.1736
  146DOPC  C31217427   4.489   2.899   8.157  0.4688 -0.2270  0.2365
  146DOPC  H12X17428   4.385   2.887   8.119  0.1203  1.0063  0.7634
  146DOPC  H12Y17429   4.548   2.807   8.138  2.4167  1.4494 -2.6100
  146DOPC  C31317430   4.568   2.997   8.073 -0.0427  0.4858  0.2288
  146DOPC  H13X17431   4.545   3.104   8.095 -1.4727  0.0461  1.0309
  146DOPC  H13Y17432   4.675   2.992   8.101 -0.2997  4.1632  2.6584
  146DOPC  C31417433   4.551   2.974   7.921  0.1302 -0.3158 -0.2272
  146DOPC  H14X17434   4.588   2.869   7.919  1.3608  0.1143 -0.9626
  146DOPC  H14Y17435   4.448   2.984   7.881 -0.5675 -0.6363  1.4125
  146DOPC  C31517436   4.664   3.027   7.835 -0.7322 -0.2103 -0.1830
  146DOPC  H15X17437   4.756   3.007   7.894 -0.4515  0.6779 -0.3134
  146DOPC  H15Y17438   4.652   3.137   7.824  1.6705  0.2782  1.2792
  146DOPC  C31617439   4.687   2.964   7.696 -0.7054  0.4145 -0.2884
  146DOPC  H16X17440   4.780   3.012   7.658  1.9029 -3.1578  1.0806
  146DOPC  H16Y17441   4.717   2.859   7.712  0.3334  0.4550 -1.7873
  146DOPC  C31717442   4.566   2.971   7.600  0.2814  0.2615 -0.1830
  146DOPC  H17X17443   4.484   2.910   7.644  0.5791 -0.3936 -0.5365
  146DOPC  H17Y17444   4.527   3.075   7.608  1.5887  0.7956 -0.5817
  146DOPC  C31817445   4.590   2.924   7.460 -0.3522 -0.0958  0.2095
  146DOPC  H18X17446   4.508   2.952   7.392 -1.1440 -0.3959  1.0219
  146DOPC  H18Y17447   4.686   2.969   7.427  0.3911 -1.3029  0.6550
  146DOPC  H18Z17448   4.609   2.815   7.461  0.1238 -0.0184  0.8859
  147DOPC     N17449   2.215   2.572   9.612  0.7022  0.2972 -0.8661
  147DOPC   C1217450   2.171   2.709   9.662  0.3151  0.1971  0.4479
  147DOPC  H12A17451   2.104   2.688   9.745 -0.7122 -1.1370 -0.6785
  147DOPC  H12B17452   2.112   2.748   9.581 -2.4241 -2.5602  0.9271
  147DOPC   C1317453   2.310   2.511   9.712  0.0022  0.4072 -0.4334
  147DOPC  H13A17454   2.265   2.494   9.809 -0.2821 -0.4356 -0.7061
  147DOPC  H13B17455   2.345   2.413   9.686  1.4691  0.7532  0.1321
  147DOPC  H13C17456   2.396   2.573   9.734  0.2809 -0.4976  1.1600
  147DOPC   C1417457   2.279   2.574   9.472 -0.4118 -0.7996 -0.1561
  147DOPC  H14A17458   2.216   2.639   9.413  0.6678  0.7714  0.3534
  147DOPC  H14B17459   2.377   2.619   9.474 -0.6517 -0.2449 -0.5877
  147DOPC  H14C17460   2.293   2.472   9.439  2.4736 -1.2674  2.1128
  147DOPC   C1517461   2.098   2.482   9.597  0.1388 -0.1457 -0.3925
  147DOPC  H15A17462   2.131   2.382   9.572  2.0638  0.5778 -0.8790
  147DOPC  H15B17463   2.039   2.515   9.513  0.6807 -0.1716 -0.7848
  147DOPC  H15C17464   2.035   2.474   9.685 -0.0968  2.0433 -0.3066
  147DOPC   C1117465   2.279   2.815   9.690  1.0264  0.1547 -0.0195
  147DOPC  H11A17466   2.348   2.774   9.767  0.8735 -1.6993 -0.8310
  147DOPC  H11B17467   2.338   2.834   9.597  0.7071  3.0329  0.2499
  147DOPC     P17468   2.162   3.047   9.653 -0.1125  0.5009  0.1436
  147DOPC   O1317469   2.254   3.160   9.639  0.1079  0.4915 -0.2681
  147DOPC   O1417470   2.032   3.081   9.700  1.3718 -0.1542 -0.0688
  147DOPC   O1217471   2.224   2.937   9.741  0.0193 -0.2385 -0.1275
  147DOPC   O1117472   2.145   2.975   9.515 -0.0608  0.3221 -0.5163
  147DOPC    C117473   2.030   3.026   9.442 -0.5923 -0.4688  0.8206
  147DOPC    HA17474   2.038   3.136   9.433  1.0916 -0.5460  1.0216
  147DOPC    HB17475   1.936   3.000   9.495  1.2068 -5.3566  2.2033
  147DOPC    C217476   2.029   2.965   9.301  0.7186 -0.2755 -0.5112
  147DOPC    HS17477   2.103   3.022   9.240  0.5778 -0.5374 -0.9316
  147DOPC   O2117478   1.906   2.973   9.249  0.4788 -0.1240 -0.0054
  147DOPC   C2117479   1.901   3.012   9.124 -0.2094 -0.3350  0.3092
  147DOPC   O2217480   1.993   3.018   9.047  0.2250  0.0680 -0.6693
  147DOPC   C2217481   1.754   3.038   9.080 -0.0603  0.2463 -0.4867
  147DOPC   H2R17482   1.747   3.115   9.001 -1.8354  0.4277 -0.1804
  147DOPC   H2S17483   1.715   3.091   9.169  0.7176  1.4095 -0.8183
  147DOPC    C317484   2.071   2.817   9.293  1.0634 -0.0499  0.1705
  147DOPC    HX17485   1.989   2.766   9.347  1.0672 -2.2024 -1.6764
  147DOPC    HY17486   2.167   2.800   9.346  2.0854  0.7203 -1.3462
  147DOPC   O3117487   2.079   2.756   9.160  0.2506 -0.1895 -0.1358
  147DOPC   C3117488   2.173   2.799   9.086 -0.1978 -0.5237 -0.1088
  147DOPC   O3217489   2.273   2.864   9.126 -0.2364 -0.2201  0.3603
  147DOPC   C3217490   2.148   2.735   8.952  0.0302 -0.3971 -0.1834
  147DOPC   H2X17491   2.210   2.644   8.938  1.4374  0.7706 -2.0102
  147DOPC   H2Y17492   2.040   2.711   8.938  0.1808 -1.0326 -0.3034
  147DOPC   C2317493   1.667   2.918   9.046 -0.9306 -0.4099 -0.5870
  147DOPC   H3R17494   1.562   2.942   9.075 -0.8759  1.5313 -1.8090
  147DOPC   H3S17495   1.692   2.832   9.112  1.5401 -0.5841 -1.6644
  147DOPC   C2417496   1.639   2.886   8.902  0.5646  0.1278 -0.0479
  147DOPC   H4R17497   1.561   2.951   8.857 -0.8761 -1.0393  0.6437
  147DOPC   H4S17498   1.599   2.782   8.905  0.5610  0.0868 -1.1486
  147DOPC   C2517499   1.760   2.882   8.816 -0.5460 -0.0531  0.1123
  147DOPC   H5R17500   1.844   2.845   8.879 -0.8638  0.1551  0.6682
  147DOPC   H5S17501   1.783   2.988   8.795 -1.9682  0.9405  3.0019
  147DOPC   C2617502   1.749   2.817   8.684 -0.2623  0.1270  0.3128
  147DOPC   H6R17503   1.723   2.710   8.691  0.6724 -0.3352 -2.2877
  147DOPC   H6S17504   1.844   2.830   8.628 -0.9965  2.3390 -0.5360
  147DOPC   C2717505   1.634   2.880   8.601 -0.1909  0.8194  0.8250
  147DOPC   H7R17506   1.630   2.991   8.606  0.5597  1.0175 -1.8955
  147DOPC   H7S17507   1.537   2.846   8.645 -1.3933  1.6856 -1.0306
  147DOPC   C2817508   1.634   2.838   8.451  0.0535  0.3816 -0.1835
  147DOPC   H8R17509   1.527   2.849   8.425 -0.3936  2.0011  2.0678
  147DOPC   H8S17510   1.653   2.728   8.449  0.2703  0.4044  0.4115
  147DOPC   C2917511   1.713   2.908   8.345  0.3866 -0.6632  0.0216
  147DOPC   H9R17512   1.812   2.939   8.383  0.2224 -0.9972  0.7533
  147DOPC  C21017513   1.677   2.929   8.212 -0.1134 -0.1133 -0.3817
  147DOPC  H10R17514   1.749   2.982   8.148  0.8771 -1.5461 -0.5036
  147DOPC  C21117515   1.549   2.890   8.144  0.0109 -0.3173  0.4064
  147DOPC  H11R17516   1.475   2.971   8.167  0.1652 -0.2394  0.6296
  147DOPC  H11S17517   1.516   2.798   8.197 -0.3054 -0.0689  0.6509
  147DOPC  C21217518   1.558   2.872   7.990  0.2163  0.2462 -1.1031
  147DOPC  H12R17519   1.464   2.827   7.952  0.3912 -1.3368  0.1858
  147DOPC  H12S17520   1.645   2.803   7.978  0.3714  0.2559 -0.1149
  147DOPC  C21317521   1.577   3.003   7.917  0.0669 -0.5618  0.0425
  147DOPC  H13R17522   1.662   3.064   7.954  0.3808 -1.7379  1.3661
  147DOPC  H13S17523   1.483   3.062   7.909  0.7019  0.9746  2.6165
  147DOPC  C21417524   1.612   2.965   7.771  0.4589  0.2557  0.1450
  147DOPC  H14R17525   1.559   2.877   7.728 -1.1715  2.6395 -3.0699
  147DOPC  H14S17526   1.721   2.941   7.770  0.6059  0.7264  1.6796
  147DOPC  C21517527   1.597   3.092   7.684 -0.0835  0.1477  0.6181
  147DOPC  H15R17528   1.646   3.180   7.729  1.3464 -1.4867  2.4535
  147DOPC  H15S17529   1.487   3.102   7.699 -0.2965 -1.1569  0.1117
  147DOPC  C21617530   1.609   3.088   7.526 -0.2016 -0.5603 -0.7070
  147DOPC  H16R17531   1.588   2.985   7.489 -1.3413 -1.0053  1.0826
  147DOPC  H16S17532   1.716   3.113   7.511 -0.1094  0.1366  0.9759
  147DOPC  C21717533   1.513   3.191   7.473  0.0346  0.5484  0.4173
  147DOPC  H17R17534   1.531   3.293   7.514 -0.6356 -0.2870  2.9733
  147DOPC  H17S17535   1.412   3.148   7.490 -0.5879 -0.8997 -4.9351
  147DOPC  C21817536   1.497   3.201   7.321  0.6543 -0.6815  0.0446
  147DOPC  H18R17537   1.451   3.106   7.286  0.6468 -0.9343  0.7299
  147DOPC  H18S17538   1.593   3.221   7.268  2.0440 -2.4571  1.7712
  147DOPC  H18T17539   1.424   3.281   7.293 -0.0348 -1.5400 -0.7011
  147DOPC   C3317540   2.192   2.838   8.845 -0.0059  0.5478  0.0367
  147DOPC   H3X17541   2.303   2.841   8.845  0.0112  1.3280  2.1250
  147DOPC   H3Y17542   2.165   2.944   8.869 -0.3336  0.4665  0.0350
  147DOPC   C3417543   2.143   2.807   8.702  0.2549 -0.1202  0.0060
  147DOPC   H4X17544   2.032   2.814   8.712  0.0652 -0.7088 -1.4273
  147DOPC   H4Y17545   2.166   2.702   8.674 -0.5995 -0.0149 -1.1655
  147DOPC   C3517546   2.190   2.897   8.591  0.0906 -0.1298 -0.5689
  147DOPC   H5X17547   2.300   2.892   8.588  0.0927 -0.6891  0.1926
  147DOPC   H5Y17548   2.170   3.002   8.619  0.4401  0.4074 -2.2427
  147DOPC   C3617549   2.131   2.857   8.453  0.3048  0.3678 -0.4935
  147DOPC   H6X17550   2.191   2.773   8.413 -0.6451 -0.1412 -0.8702
  147DOPC   H6Y17551   2.024   2.833   8.469  0.0271  1.4866 -0.5474
  147DOPC   C3717552   2.139   2.984   8.361  0.1028  0.8173  0.6315
  147DOPC   H7X17553   2.068   3.056   8.409 -0.7320  0.2478  0.2789
  147DOPC   H7Y17554   2.243   3.022   8.369 -0.4492  2.5058  0.3004
  147DOPC   C3817555   2.116   2.959   8.209 -0.5476 -0.0903  0.1434
  147DOPC   H8X17556   2.009   2.941   8.184 -0.7976  1.7348 -0.2196
  147DOPC   H8Y17557   2.171   2.868   8.177 -1.0411  0.0273 -1.1249
  147DOPC   C3917558   2.161   3.069   8.115  0.4680 -0.3031  0.2691
  147DOPC   H9X17559   2.147   3.170   8.157 -1.7973 -0.1909 -0.6588
  147DOPC  C31017560   2.203   3.067   7.985 -0.1590 -0.5612 -0.1890
  147DOPC  H10X17561   2.217   3.161   7.930 -2.4887 -0.2565 -0.3608
  147DOPC  C31117562   2.214   2.943   7.907  1.0124 -0.5235  0.0137
  147DOPC  H11X17563   2.157   2.872   7.971  1.2570 -1.4865 -0.8021
  147DOPC  H11Y17564   2.318   2.904   7.895  1.3271  0.0765  0.7184
  147DOPC  C31217565   2.140   2.959   7.771  0.2348  0.0274 -0.0014
  147DOPC  H12X17566   2.174   3.054   7.724  0.0468  0.4655  0.7370
  147DOPC  H12Y17567   2.035   2.971   7.803 -0.5921 -3.7687 -0.8190
  147DOPC  C31317568   2.164   2.836   7.675  0.3248 -0.6710  0.0045
  147DOPC  H13X17569   2.263   2.853   7.627  0.8001  1.0530  1.4731
  147DOPC  H13Y17570   2.157   2.747   7.740  1.0072  1.3134  3.0222
  147DOPC  C31417571   2.066   2.828   7.557 -0.4200 -0.6875 -0.2839
  147DOPC  H14X17572   1.961   2.834   7.595 -0.5350  3.2448 -0.7796
  147DOPC  H14Y17573   2.092   2.908   7.485  0.3175 -1.1846 -0.5794
  147DOPC  C31517574   2.097   2.692   7.488  0.8727 -0.2983  0.2157
  147DOPC  H15X17575   2.075   2.609   7.558  0.0986 -0.9602 -0.7866
  147DOPC  H15Y17576   2.202   2.685   7.453  1.1187  0.0844  0.8524
  147DOPC  C31617577   2.011   2.657   7.361  0.0970 -0.4295 -0.5685
  147DOPC  H16X17578   1.907   2.694   7.379  0.2711  0.1942 -0.8145
  147DOPC  H16Y17579   2.045   2.723   7.279 -0.4216 -0.5045 -0.8519
  147DOPC  C31717580   1.998   2.511   7.314 -0.0358 -0.1327 -0.2179
  147DOPC  H17X17581   1.972   2.505   7.206  0.1508 -0.0506 -0.2687
  147DOPC  H17Y17582   2.102   2.474   7.300 -1.1553 -3.2625 -1.2725
  147DOPC  C31817583   1.914   2.427   7.404  0.4848 -0.2506 -0.2733
  147DOPC  H18X17584   1.917   2.320   7.375 -2.0886 -0.6948  0.7740
  147DOPC  H18Y17585   1.956   2.428   7.507  0.5210  2.5677 -0.2306
  147DOPC  H18Z17586   1.805   2.449   7.403  0.5572  0.1605  0.2315
  148DOPC     N17587   2.596   5.252   9.200 -0.1950 -0.2625 -0.4693
  148DOPC   C1217588   2.707   5.249   9.098 -0.6024 -0.8823  0.2289
  148DOPC  H12A17589   2.713   5.345   9.050  1.9859 -0.5857  0.9795
  148DOPC  H12B17590   2.671   5.193   9.013 -0.9364  1.6738 -1.3949
  148DOPC   C1317591   2.632   5.346   9.306  0.1023 -0.0713  0.0753
  148DOPC  H13A17592   2.538   5.381   9.346  1.3242  2.3763  1.0110
  148DOPC  H13B17593   2.697   5.314   9.386 -1.2583  3.0611  2.6473
  148DOPC  H13C17594   2.685   5.432   9.268 -2.2312  1.2540 -0.3283
  148DOPC   C1417595   2.570   5.114   9.251 -0.7236  0.1040  0.2033
  148DOPC  H14A17596   2.506   5.060   9.182 -0.6524  0.8519 -0.4674
  148DOPC  H14B17597   2.657   5.057   9.277 -0.9595 -0.2467  0.2325
  148DOPC  H14C17598   2.504   5.117   9.336 -1.0094 -1.8276  0.0937
  148DOPC   C1517599   2.462   5.305   9.139  0.5481  0.4504  0.3604
  148DOPC  H15A17600   2.427   5.252   9.052  1.5531 -3.7109  2.2192
  148DOPC  H15B17601   2.468   5.411   9.122 -0.6802  0.7714  1.7002
  148DOPC  H15C17602   2.379   5.285   9.205  0.5541  1.7584  0.7931
  148DOPC   C1117603   2.848   5.211   9.147 -0.9533 -0.8827  0.3368
  148DOPC  H11A17604   2.925   5.232   9.070 -0.9605 -0.6468  0.3930
  148DOPC  H11B17605   2.874   5.262   9.243 -0.8634 -2.5846  1.2618
  148DOPC     P17606   2.865   4.960   9.081 -0.2065 -0.0730 -0.1832
  148DOPC   O1317607   2.748   4.952   8.989 -0.2548  0.4562 -0.0460
  148DOPC   O1417608   2.900   4.841   9.163  0.3219 -0.1587  0.0272
  148DOPC   O1217609   2.846   5.075   9.185  0.0470  0.2165  0.3573
  148DOPC   O1117610   2.993   5.008   8.999  0.6019 -0.5549  0.2570
  148DOPC    C117611   3.093   4.920   8.955  0.4949 -0.2314  0.8988
  148DOPC    HA17612   3.092   4.827   9.015 -2.0092 -0.9833 -0.1997
  148DOPC    HB17613   3.191   4.971   8.971  2.2531 -2.5905 -1.3884
  148DOPC    C217614   3.076   4.889   8.811 -0.0427  0.4795 -0.0658
  148DOPC    HS17615   2.976   4.843   8.795 -1.0968  2.4484  0.4124
  148DOPC   O2117616   3.183   4.813   8.768 -0.4332 -0.3807  0.3676
  148DOPC   C2117617   3.172   4.672   8.771 -0.1803 -0.2051 -0.1190
  148DOPC   O2217618   3.079   4.616   8.823  0.7258  0.2696 -0.1414
  148DOPC   C2217619   3.303   4.608   8.722 -0.2076  0.1160  1.2094
  148DOPC   H2R17620   3.306   4.504   8.761 -2.1648 -1.3247 -2.0070
  148DOPC   H2S17621   3.385   4.678   8.748 -0.7221  1.9289 -1.6637
  148DOPC    C317622   3.056   5.020   8.730 -0.8104 -0.9238 -0.6960
  148DOPC    HX17623   3.128   5.094   8.772 -0.9420 -0.3360 -1.4810
  148DOPC    HY17624   2.952   5.053   8.752 -0.2302  0.5858 -0.0534
  148DOPC   O3117625   3.092   5.009   8.587  0.0350 -0.0357  0.2874
  148DOPC   C3117626   2.986   4.976   8.512 -0.3649  0.5765  0.7476
  148DOPC   O3217627   2.879   4.940   8.552 -0.2072  0.2243 -0.0512
  148DOPC   C3217628   3.031   4.995   8.364 -0.1202 -0.5832  0.3495
  148DOPC   H2X17629   3.061   4.894   8.329  1.9493  0.4008 -0.8970
  148DOPC   H2Y17630   2.944   5.032   8.306  1.5428  0.2179 -1.7986
  148DOPC   C2317631   3.301   4.585   8.569 -0.0761  0.3037  0.8089
  148DOPC   H3R17632   3.223   4.516   8.530  0.9809 -1.5084  1.7710
  148DOPC   H3S17633   3.401   4.541   8.547 -0.4942 -1.4671  2.2358
  148DOPC   C2417634   3.290   4.712   8.488 -0.2059  0.1464 -0.4653
  148DOPC   H4R17635   3.325   4.803   8.542  1.0404 -0.5649 -0.0429
  148DOPC   H4S17636   3.184   4.743   8.476 -0.4479 -1.1526 -2.0177
  148DOPC   C2517637   3.339   4.702   8.338 -0.0832 -0.0794 -0.1149
  148DOPC   H5R17638   3.450   4.710   8.341 -0.0706  0.3571  3.8884
  148DOPC   H5S17639   3.301   4.786   8.275 -2.3927  0.4702  1.8474
  148DOPC   C2617640   3.299   4.579   8.253  0.1245 -0.4645 -0.3229
  148DOPC   H6R17641   3.194   4.547   8.272 -0.3835  1.4495  0.3068
  148DOPC   H6S17642   3.354   4.492   8.295 -1.4720 -2.6923 -2.5646
  148DOPC   C2717643   3.330   4.596   8.102  0.7765  0.2509 -0.3698
  148DOPC   H7R17644   3.440   4.604   8.109  0.6949  0.4094  0.8463
  148DOPC   H7S17645   3.286   4.686   8.055  0.9444  1.5295  1.8095
  148DOPC   C2817646   3.281   4.473   8.021 -0.0541  0.5835 -0.7375
  148DOPC   H8R17647   3.175   4.451   8.047  0.2571  0.8454  0.9101
  148DOPC   H8S17648   3.337   4.386   8.061 -1.1657 -0.1621 -0.7772
  148DOPC   C2917649   3.311   4.500   7.872 -0.3884  0.1948  0.1097
  148DOPC   H9R17650   3.396   4.438   7.840 -0.2199  0.8066 -0.6255
  148DOPC  C21017651   3.232   4.557   7.781  0.5054  0.0796 -0.0797
  148DOPC  H10R17652   3.261   4.570   7.675  3.1588 -0.4891  0.5153
  148DOPC  C21117653   3.098   4.621   7.800  0.3488  0.5011 -0.5182
  148DOPC  H11R17654   3.050   4.584   7.893  1.1363  0.3289 -0.1720
  148DOPC  H11S17655   3.019   4.595   7.726  0.7945 -1.2379 -0.4274
  148DOPC  C21217656   3.104   4.773   7.806  0.0785  0.3068 -0.2965
  148DOPC  H12R17657   3.111   4.819   7.704 -2.1897  0.8555 -0.2595
  148DOPC  H12S17658   3.193   4.804   7.865 -2.5322  3.5743  2.3117
  148DOPC  C21317659   2.996   4.830   7.899  0.8335 -0.4400 -0.0806
  148DOPC  H13R17660   3.031   4.932   7.922 -0.3283 -0.2885  1.1135
  148DOPC  H13S17661   2.985   4.772   7.993 -0.2460 -1.1925 -0.6433
  148DOPC  C21417662   2.866   4.850   7.824  0.2138  0.2282  0.3710
  148DOPC  H14R17663   2.805   4.758   7.817 -0.1167  0.3848  1.0878
  148DOPC  H14S17664   2.897   4.883   7.722  2.0286 -1.3430  0.3553
  148DOPC  C21517665   2.772   4.967   7.871  0.2797 -0.2703  0.0207
  148DOPC  H15R17666   2.688   4.952   7.800 -2.1682  0.3776  2.6138
  148DOPC  H15S17667   2.822   5.065   7.856 -1.8153  1.0698  1.2470
  148DOPC  C21617668   2.708   4.931   8.004 -0.6848 -0.1608 -0.0288
  148DOPC  H16R17669   2.791   4.970   8.067  0.2098  1.1636 -1.9217
  148DOPC  H16S17670   2.702   4.821   8.019  1.2722  0.0220  2.6622
  148DOPC  C21717671   2.588   5.022   8.019  0.4485  0.5952  0.2259
  148DOPC  H17R17672   2.515   5.034   7.937 -0.4045  1.6736  1.1040
  148DOPC  H17S17673   2.616   5.127   8.039 -0.6782  0.6761  1.5578
  148DOPC  C21817674   2.516   4.984   8.147  0.8400  0.3613 -0.1972
  148DOPC  H18R17675   2.582   4.954   8.231 -1.4757 -4.1328  0.2968
  148DOPC  H18S17676   2.464   4.889   8.123  2.1226 -0.1689 -0.9886
  148DOPC  H18T17677   2.450   5.068   8.179 -0.3321  0.4348 -2.5652
  148DOPC   C3317678   3.141   5.104   8.343 -0.1624  0.3662 -0.5667
  148DOPC   H3X17679   3.230   5.072   8.402  0.1925  1.3992 -0.5341
  148DOPC   H3Y17680   3.110   5.205   8.375 -0.7314  1.0278 -2.9808
  148DOPC   C3417681   3.190   5.117   8.198  0.0473  0.2680  0.1769
  148DOPC   H4X17682   3.233   5.020   8.167  3.1494  0.8076  2.2717
  148DOPC   H4Y17683   3.280   5.183   8.193 -1.1224  1.9033 -0.1493
  148DOPC   C3517684   3.080   5.164   8.094 -0.1921 -0.5815 -0.1579
  148DOPC   H5X17685   3.020   5.245   8.140 -2.1584 -1.7265 -0.5933
  148DOPC   H5Y17686   3.012   5.076   8.089  1.1925 -1.8130  1.4180
  148DOPC   C3617687   3.143   5.213   7.958  0.4236  0.1456  0.9398
  148DOPC   H6X17688   3.054   5.229   7.894  1.2482  0.4387 -0.1679
  148DOPC   H6Y17689   3.197   5.309   7.974  1.4505 -0.6648  2.6893
  148DOPC   C3717690   3.250   5.114   7.899 -0.6012  0.1717  0.7636
  148DOPC   H7X17691   3.356   5.131   7.925 -0.4652  0.3547  0.1125
  148DOPC   H7Y17692   3.231   5.008   7.924 -1.1799  0.5919  2.2354
  148DOPC   C3817693   3.243   5.118   7.745  0.0750  0.6186 -0.1224
  148DOPC   H8X17694   3.257   5.220   7.704  0.6403  0.4493 -0.3677
  148DOPC   H8Y17695   3.137   5.101   7.717 -0.3393  1.1329  1.0771
  148DOPC   C3917696   3.325   5.010   7.671  0.6382  0.3034 -0.2692
  148DOPC   H9X17697   3.295   4.909   7.705 -0.2588  1.1055  1.4904
  148DOPC  C31017698   3.421   5.031   7.585 -0.3317 -0.5727  0.3129
  148DOPC  H10X17699   3.471   4.941   7.547 -2.0351 -0.7969 -1.5803
  148DOPC  C31117700   3.469   5.168   7.540 -0.2755 -0.2184 -0.2038
  148DOPC  H11X17701   3.467   5.232   7.631  0.4039  0.4685 -0.6681
  148DOPC  H11Y17702   3.391   5.214   7.475 -1.1783  1.2085  1.7377
  148DOPC  C31217703   3.609   5.149   7.478  0.0407 -0.4639  0.3190
  148DOPC  H12X17704   3.607   5.079   7.392  0.1090 -0.0190 -0.0476
  148DOPC  H12Y17705   3.689   5.117   7.549  0.2330 -1.2956 -0.2552
  148DOPC  C31317706   3.668   5.282   7.414  0.1630  0.1419  0.3036
  148DOPC  H13X17707   3.686   5.365   7.485  1.3267  1.2842 -1.2523
  148DOPC  H13Y17708   3.763   5.256   7.363 -0.9619 -0.2398 -1.7265
  148DOPC  C31417709   3.587   5.339   7.299 -0.3296 -0.6841 -1.0456
  148DOPC  H14X17710   3.553   5.274   7.217 -0.5378 -1.0609 -0.6630
  148DOPC  H14Y17711   3.494   5.378   7.345 -0.2675  0.9683 -2.2407
  148DOPC  C31517712   3.658   5.464   7.230  0.0029  0.0734 -0.4292
  148DOPC  H15X17713   3.735   5.416   7.165 -1.3053 -1.3619 -0.9715
  148DOPC  H15Y17714   3.716   5.524   7.304  0.0258  1.1593 -1.2974
  148DOPC  C31617715   3.556   5.563   7.165 -0.4017  0.1124 -0.4763
  148DOPC  H16X17716   3.494   5.618   7.239  0.8173  0.7573  0.1061
  148DOPC  H16Y17717   3.610   5.642   7.108  1.6664 -0.1621  0.9584
  148DOPC  C31717718   3.450   5.491   7.081  0.2081  0.1974  0.5368
  148DOPC  H17X17719   3.498   5.446   6.992  1.9376  1.3415  0.8469
  148DOPC  H17Y17720   3.405   5.401   7.130  1.2062 -0.8571 -0.4409
  148DOPC  C31817721   3.339   5.579   7.035  0.3733 -0.3300  0.4132
  148DOPC  H18X17722   3.325   5.645   7.123  1.1206  0.0936  0.2217
  148DOPC  H18Y17723   3.374   5.648   6.955 -1.0573  2.0932  1.7785
  148DOPC  H18Z17724   3.247   5.528   7.002  0.0103  0.9378 -0.6004
  149DOPC     N17725   1.302   2.829   9.514  0.1308 -0.8433  0.1969
  149DOPC   C1217726   1.228   2.706   9.494 -0.1730 -0.3706  1.0246
  149DOPC  H12A17727   1.295   2.627   9.462 -0.8432 -1.6515  2.6036
  149DOPC  H12B17728   1.154   2.723   9.418  0.3075 -0.1262  0.6044
  149DOPC   C1317729   1.369   2.881   9.388 -0.0893  0.4471  0.2862
  149DOPC  H13A17730   1.297   2.896   9.309 -0.1058 -0.4104  0.1206
  149DOPC  H13B17731   1.419   2.974   9.406  1.4668 -0.0652 -1.1600
  149DOPC  H13C17732   1.438   2.805   9.354 -0.5877 -1.1772  2.6046
  149DOPC   C1417733   1.417   2.824   9.615 -0.4863  0.6091  0.0368
  149DOPC  H14A17734   1.501   2.772   9.572  0.2112  0.0961  1.8875
  149DOPC  H14B17735   1.453   2.925   9.626  1.7420 -0.1964  0.7894
  149DOPC  H14C17736   1.381   2.779   9.707 -0.5912  0.2031 -0.2003
  149DOPC   C1517737   1.202   2.937   9.550 -0.5172  0.0754 -0.2007
  149DOPC  H15A17738   1.145   2.909   9.638 -0.2742  3.4761  1.1973
  149DOPC  H15B17739   1.123   2.959   9.479 -0.3344  0.2403 -0.3536
  149DOPC  H15C17740   1.260   3.026   9.566 -0.0836  0.2226 -2.3841
  149DOPC   C1117741   1.154   2.638   9.606 -0.1114 -0.3164  0.0512
  149DOPC  H11A17742   1.069   2.704   9.635  1.9327  3.0049 -1.0431
  149DOPC  H11B17743   1.113   2.544   9.562  2.5412 -1.3867 -0.2922
  149DOPC     P17744   1.307   2.470   9.726 -0.3281  0.1222 -0.0803
  149DOPC   O1317745   1.207   2.376   9.791  0.6019 -0.0065  0.1296
  149DOPC   O1417746   1.438   2.492   9.787 -0.2653  0.3424 -0.2650
  149DOPC   O1217747   1.243   2.620   9.719  0.1261 -0.0838 -0.2818
  149DOPC   O1117748   1.322   2.440   9.574  0.1748  0.2193  0.1234
  149DOPC    C117749   1.367   2.306   9.536  0.6895  0.4615 -0.3526
  149DOPC    HA17750   1.290   2.228   9.550  2.7238 -1.6502 -0.2914
  149DOPC    HB17751   1.456   2.275   9.594  0.8190  0.9830 -0.2677
  149DOPC    C217752   1.391   2.283   9.380 -0.6524  0.1382 -0.7590
  149DOPC    HS17753   1.435   2.181   9.384  0.7937  0.6744 -1.9299
  149DOPC   O2117754   1.492   2.370   9.324  0.5307 -0.4558  0.0859
  149DOPC   C2117755   1.617   2.360   9.366 -0.0452 -0.2997  0.0192
  149DOPC   O2217756   1.663   2.259   9.424  0.2929 -0.4513  0.3214
  149DOPC   C2217757   1.691   2.484   9.329 -0.3990 -0.0870  0.8863
  149DOPC   H2R17758   1.791   2.504   9.373 -1.0392  0.6940  2.0596
  149DOPC   H2S17759   1.628   2.567   9.370  0.4664  0.8028  0.4596
  149DOPC    C317760   1.251   2.294   9.310 -0.5315 -0.5270 -0.4024
  149DOPC    HX17761   1.201   2.390   9.335 -2.5801 -1.5141 -0.5305
  149DOPC    HY17762   1.186   2.222   9.364 -1.0842  0.3792  0.1622
  149DOPC   O3117763   1.255   2.242   9.174 -0.3471 -0.0952 -0.2754
  149DOPC   C3117764   1.286   2.328   9.081 -0.0521  0.1897 -0.5102
  149DOPC   O3217765   1.298   2.450   9.100 -0.6158 -0.1607  0.1314
  149DOPC   C3217766   1.310   2.257   8.952  0.6342  0.2588 -0.0989
  149DOPC   H2X17767   1.389   2.180   8.971 -1.6266 -2.1996 -0.0750
  149DOPC   H2Y17768   1.220   2.199   8.921 -0.4063  1.9075 -0.2669
  149DOPC   C2317769   1.689   2.501   9.172 -0.4273 -0.4637 -0.4987
  149DOPC   H3R17770   1.732   2.602   9.158 -1.3753 -0.0244 -0.3432
  149DOPC   H3S17771   1.584   2.492   9.137 -1.3786 -0.4309  2.0908
  149DOPC   C2417772   1.773   2.403   9.094  0.1459  0.0329 -0.2908
  149DOPC   H4R17773   1.758   2.294   9.106  0.6595 -0.1848 -1.5013
  149DOPC   H4S17774   1.878   2.422   9.127  0.2683 -0.1677 -0.5641
  149DOPC   C2517775   1.758   2.425   8.945  0.5549 -0.9246  1.4620
  149DOPC   H5R17776   1.757   2.534   8.924  0.5602 -1.1683  0.1633
  149DOPC   H5S17777   1.659   2.390   8.910  1.1814 -0.9393 -0.3763
  149DOPC   C2617778   1.866   2.370   8.856  0.3323  0.6665 -0.0892
  149DOPC   H6R17779   1.898   2.266   8.879  1.8786  0.8128 -1.3532
  149DOPC   H6S17780   1.952   2.441   8.857  0.4932  0.4994  1.9263
  149DOPC   C2717781   1.813   2.369   8.710 -0.8563  0.0835  0.7810
  149DOPC   H7R17782   1.786   2.475   8.694 -0.1779  0.1420 -0.0896
  149DOPC   H7S17783   1.732   2.294   8.713 -1.3566  0.6535  3.0469
  149DOPC   C2817784   1.916   2.313   8.602  0.0875 -0.6137  0.1999
  149DOPC   H8R17785   1.962   2.223   8.650  2.0236  0.7551  1.0343
  149DOPC   H8S17786   1.992   2.391   8.580  0.6532 -0.2048  3.1648
  149DOPC   C2917787   1.858   2.273   8.471 -0.8886  0.3429  0.7161
  149DOPC   H9R17788   1.825   2.168   8.473 -0.3479  0.0916 -1.4220
  149DOPC  C21017789   1.836   2.351   8.363 -1.1670  0.1303 -0.5667
  149DOPC  H10R17790   1.805   2.294   8.274 -0.2261 -0.3786 -0.5740
  149DOPC  C21117791   1.856   2.500   8.357  0.4352 -1.0120  0.1351
  149DOPC  H11R17792   1.884   2.546   8.454 -1.7876  0.2559  0.2294
  149DOPC  H11S17793   1.757   2.547   8.346  1.4909  1.5975  1.0675
  149DOPC  C21217794   1.916   2.581   8.240 -0.7982 -0.3632  0.4673
  149DOPC  H12R17795   2.025   2.565   8.254 -0.3132 -0.5775 -2.8204
  149DOPC  H12S17796   1.883   2.687   8.246  0.7111  0.1480  0.0546
  149DOPC  C21317797   1.882   2.526   8.104  0.0814  0.0152  0.7855
  149DOPC  H13R17798   1.776   2.553   8.083  0.4125  0.4036 -0.4963
  149DOPC  H13S17799   1.890   2.416   8.104  2.7006  0.0570 -1.7072
  149DOPC  C21417800   1.960   2.592   7.989 -0.3842 -0.2214  0.1875
  149DOPC  H14R17801   2.060   2.596   8.037  0.5208 -1.6198 -1.4541
  149DOPC  H14S17802   1.922   2.694   7.968 -1.3481 -0.0728  2.3954
  149DOPC  C21517803   1.979   2.500   7.867  0.6696 -0.3387  0.7101
  149DOPC  H15R17804   2.017   2.399   7.895  1.8971  0.2929  1.3951
  149DOPC  H15S17805   2.056   2.543   7.800 -1.2149 -0.8831 -1.9395
  149DOPC  C21617806   1.851   2.483   7.790 -0.1121  0.0766 -0.6490
  149DOPC  H16R17807   1.775   2.428   7.850  0.7331  0.0114  0.3946
  149DOPC  H16S17808   1.872   2.417   7.703  1.0974 -1.8207  0.9982
  149DOPC  C21717809   1.785   2.619   7.757 -0.0529 -0.1339 -0.2742
  149DOPC  H17R17810   1.855   2.672   7.689 -0.2456  0.1940 -0.2189
  149DOPC  H17S17811   1.753   2.680   7.844 -1.5915  0.8502 -1.4601
  149DOPC  C21817812   1.654   2.596   7.685  0.6790 -0.7346 -0.6159
  149DOPC  H18R17813   1.601   2.693   7.671 -0.0369 -0.7871  1.4897
  149DOPC  H18S17814   1.589   2.527   7.743 -1.1498  0.9982 -0.4879
  149DOPC  H18T17815   1.675   2.553   7.584  1.2020 -1.9849  0.0059
  149DOPC   C3317816   1.355   2.360   8.845  0.0201 -0.3510  0.4532
  149DOPC   H3X17817   1.445   2.415   8.881 -1.0925  2.2359 -0.4435
  149DOPC   H3Y17818   1.268   2.427   8.831 -0.2874 -0.7761  0.3129
  149DOPC   C3417819   1.391   2.312   8.704 -0.5681 -0.8626 -0.0265
  149DOPC   H4X17820   1.310   2.262   8.646 -0.0364 -1.3776 -0.3316
  149DOPC   H4Y17821   1.469   2.234   8.720 -0.7104 -0.7544  1.2995
  149DOPC   C3517822   1.448   2.433   8.624 -0.2842 -0.2156 -0.2943
  149DOPC   H5X17823   1.534   2.471   8.684 -0.2403 -0.7070 -0.0454
  149DOPC   H5Y17824   1.377   2.518   8.622  2.5677  2.3591  0.1039
  149DOPC   C3617825   1.497   2.379   8.490 -0.0737 -0.7817 -0.5792
  149DOPC   H6X17826   1.568   2.454   8.450 -0.9633 -0.2026 -1.1048
  149DOPC   H6Y17827   1.566   2.297   8.518  0.8587  0.7372  1.8942
  149DOPC   C3717828   1.393   2.332   8.388  0.1175 -0.6071 -0.7062
  149DOPC   H7X17829   1.354   2.239   8.435 -0.2695 -0.0438  0.1199
  149DOPC   H7Y17830   1.316   2.410   8.376  0.6927 -0.3264 -2.9110
  149DOPC   C3817831   1.454   2.320   8.256  0.2773  0.4843  0.0072
  149DOPC   H8X17832   1.399   2.247   8.193 -0.7650 -0.3317  1.7795
  149DOPC   H8Y17833   1.550   2.267   8.268 -0.2299 -0.5521 -0.3669
  149DOPC   C3917834   1.487   2.452   8.194  0.1461 -1.1804  0.0842
  149DOPC   H9X17835   1.552   2.519   8.252 -0.5839 -0.7991  0.4763
  149DOPC  C31017836   1.459   2.493   8.072  0.0582  0.1705  0.4058
  149DOPC  H10X17837   1.488   2.597   8.049  0.7174 -0.1746 -0.4024
  149DOPC  C31117838   1.363   2.416   7.974 -0.1301 -0.7551 -0.3681
  149DOPC  H11X17839   1.305   2.339   8.030 -0.5801  2.1717  3.6573
  149DOPC  H11Y17840   1.426   2.361   7.901 -1.0147  0.3292 -2.0076
  149DOPC  C31217841   1.280   2.516   7.898 -0.1706 -0.1904  0.1934
  149DOPC  H12X17842   1.354   2.585   7.852 -0.7746  0.4739  0.1904
  149DOPC  H12Y17843   1.217   2.580   7.964 -0.6192 -1.3473  0.9135
  149DOPC  C31317844   1.181   2.460   7.800  0.5094  0.5474  0.4528
  149DOPC  H13X17845   1.242   2.431   7.711  0.1524  0.2300  0.3077
  149DOPC  H13Y17846   1.137   2.368   7.844  1.6479 -0.2916 -0.0882
  149DOPC  C31417847   1.061   2.550   7.770 -0.4587  0.5181  0.1261
  149DOPC  H14X17848   1.003   2.563   7.864  0.0820 -0.5033  0.6128
  149DOPC  H14Y17849   1.086   2.656   7.749  3.9146 -0.4761 -0.5446
  149DOPC  C31517850   0.959   2.489   7.664 -0.0827  0.6581  0.5299
  149DOPC  H15X17851   0.928   2.387   7.696 -0.3980  1.4627  3.0412
  149DOPC  H15Y17852   1.025   2.473   7.576 -0.6071 -1.2237  0.4465
  149DOPC  C31617853   0.843   2.577   7.621 -0.3942 -0.5498 -0.3476
  149DOPC  H16X17854   0.887   2.674   7.592  4.0893 -1.0318  3.5109
  149DOPC  H16Y17855   0.798   2.532   7.530  0.6242  1.4805 -1.9266
  149DOPC  C31717856   0.738   2.598   7.729  0.2679 -0.0323  0.0252
  149DOPC  H17X17857   0.700   2.498   7.758 -0.0604  0.1833  0.3566
  149DOPC  H17Y17858   0.787   2.646   7.817  0.6960 -0.4665  0.0297
  149DOPC  C31817859   0.625   2.690   7.681  0.1417  0.3199  0.1808
  149DOPC  H18X17860   0.565   2.644   7.600  1.4012 -1.1454  0.0340
  149DOPC  H18Y17861   0.558   2.715   7.766 -1.2830  4.2923 -1.8482
  149DOPC  H18Z17862   0.666   2.790   7.655  1.1157  0.6401  2.6920
  150DOPC     N17863   4.365   5.983  10.641  0.5785  0.2423 -0.1370
  150DOPC   C1217864   4.446   6.013  10.516 -0.0658 -0.1653  0.4925
  150DOPC  H12A17865   4.544   5.969  10.530 -0.7844 -1.9614  0.2101
  150DOPC  H12B17866   4.453   6.120  10.521 -1.1602  0.1052 -2.0977
  150DOPC   C1317867   4.235   6.062  10.646  0.0711  0.2835  0.0760
  150DOPC  H13A17868   4.206   6.060  10.750  0.4077  4.6105  0.4249
  150DOPC  H13B17869   4.263   6.163  10.620  2.2069 -0.6246 -1.4998
  150DOPC  H13C17870   4.163   6.026  10.575  1.6406 -0.6769 -1.0901
  150DOPC   C1417871   4.450   6.007  10.764  0.4062  0.7349 -0.2703
  150DOPC  H14A17872   4.385   5.992  10.849  0.0619  0.9742 -0.4869
  150DOPC  H14B17873   4.533   5.938  10.767  0.9420  1.1871 -2.6371
  150DOPC  H14C17874   4.496   6.104  10.778  0.7532  0.4499  0.6007
  150DOPC   C1517875   4.324   5.839  10.646 -0.4060 -0.0891  0.1731
  150DOPC  H15A17876   4.275   5.812  10.553  1.6479 -1.0507 -0.7091
  150DOPC  H15B17877   4.258   5.806  10.725 -0.0746 -0.7681  0.1770
  150DOPC  H15C17878   4.412   5.777  10.648 -0.3724 -0.0273  0.7459
  150DOPC   C1117879   4.384   5.976  10.377 -0.8422  0.3852  0.5360
  150DOPC  H11A17880   4.287   6.027  10.364 -1.2496 -0.1283  1.4728
  150DOPC  H11B17881   4.448   6.013  10.295 -2.0389  1.2271 -0.0361
  150DOPC     P17882   4.486   5.734  10.325  0.3736  0.2169  0.5820
  150DOPC   O1317883   4.440   5.601  10.364  0.1011 -0.1598  0.0445
  150DOPC   O1417884   4.612   5.773  10.387  1.1125 -0.6996  0.0760
  150DOPC   O1217885   4.371   5.836  10.360 -0.3559 -0.8609  0.3522
  150DOPC   O1117886   4.499   5.733  10.167 -0.3731  0.4123  0.3005
  150DOPC    C117887   4.393   5.782  10.081 -0.4752 -0.8024 -0.2282
  150DOPC    HA17888   4.406   5.888  10.050 -0.8470 -0.2585  1.3966
  150DOPC    HB17889   4.295   5.759  10.127 -0.2488  0.2870  0.8184
  150DOPC    C217890   4.402   5.707   9.939  0.9259  0.7733  0.0483
  150DOPC    HS17891   4.369   5.605   9.968  3.0484 -0.0395 -0.2412
  150DOPC   O2117892   4.536   5.705   9.889 -0.2280  0.0501 -0.3801
  150DOPC   C2117893   4.601   5.595   9.919 -0.3886  0.9177  0.1767
  150DOPC   O2217894   4.568   5.501   9.992 -0.2697  0.1008  0.4426
  150DOPC   C2217895   4.740   5.615   9.852 -0.3532 -0.2817 -0.1241
  150DOPC   H2R17896   4.807   5.613   9.941 -1.6991  0.6407  0.9333
  150DOPC   H2S17897   4.755   5.715   9.806  0.9218  0.0350  0.8960
  150DOPC    C317898   4.311   5.763   9.820  0.4707 -0.4530 -0.2963
  150DOPC    HX17899   4.345   5.855   9.769 -0.7409 -0.5070 -1.2600
  150DOPC    HY17900   4.217   5.779   9.877  0.8065 -1.8448  0.7018
  150DOPC   O3117901   4.300   5.661   9.721  0.2974  0.2828  0.4720
  150DOPC   C3117902   4.202   5.680   9.638  0.3317 -0.1726  0.2375
  150DOPC   O3217903   4.112   5.760   9.654  0.4436 -0.2615 -0.8243
  150DOPC   C3217904   4.214   5.589   9.509  0.0236 -0.5859 -0.4580
  150DOPC   H2X17905   4.302   5.521   9.513  0.5021  0.0928  1.4585
  150DOPC   H2Y17906   4.121   5.529   9.514 -1.4411  1.6853  2.0284
  150DOPC   C2317907   4.771   5.499   9.758  0.1264  0.2501 -0.9524
  150DOPC   H3R17908   4.751   5.401   9.806 -0.7608  0.7556 -0.2438
  150DOPC   H3S17909   4.881   5.496   9.744 -0.1615 -0.1524 -3.5031
  150DOPC   C2417910   4.695   5.525   9.625 -0.1494 -0.1540 -1.0364
  150DOPC   H4R17911   4.713   5.632   9.601 -0.0225  1.1253  3.7779
  150DOPC   H4S17912   4.587   5.519   9.651 -0.2109  0.8492 -1.0389
  150DOPC   C2517913   4.731   5.417   9.521  0.5967  0.3323 -0.5993
  150DOPC   H5R17914   4.675   5.330   9.561  0.6657  0.4193 -0.3146
  150DOPC   H5S17915   4.838   5.388   9.520  0.9177  1.4024  0.3341
  150DOPC   C2617916   4.674   5.453   9.388 -0.5137  0.1294  0.3664
  150DOPC   H6R17917   4.711   5.554   9.360 -0.0818  0.4517  2.0016
  150DOPC   H6S17918   4.566   5.475   9.404 -0.3802  1.4069 -0.3164
  150DOPC   C2717919   4.696   5.348   9.271  0.0277  0.3777 -0.2374
  150DOPC   H7R17920   4.649   5.257   9.315 -0.8310  0.7191 -0.4355
  150DOPC   H7S17921   4.804   5.324   9.283 -0.7590 -2.7672  1.7566
  150DOPC   C2817922   4.649   5.377   9.124  0.9652  0.5462 -0.2981
  150DOPC   H8R17923   4.542   5.407   9.127  1.5095  2.5660  0.5282
  150DOPC   H8S17924   4.643   5.278   9.074 -1.3259  0.5128 -0.0667
  150DOPC   C2917925   4.729   5.478   9.037 -0.7800  0.0956 -1.0625
  150DOPC   H9R17926   4.717   5.577   9.084 -1.0981 -1.6608  2.9722
  150DOPC  C21017927   4.807   5.463   8.928  0.3696  0.0812 -0.6217
  150DOPC  H10R17928   4.836   5.548   8.864 -2.6525  1.8995  0.2420
  150DOPC  C21117929   4.828   5.324   8.872  0.1284  1.2236  0.4866
  150DOPC  H11R17930   4.844   5.337   8.763 -2.5036  1.8566  0.0995
  150DOPC  H11S17931   4.738   5.261   8.884  0.3621  0.8118  0.1198
  150DOPC  C21217932   4.958   5.248   8.915  0.0541  0.3233 -0.3885
  150DOPC  H12R17933   5.048   5.313   8.914  1.1637 -1.0793  1.6065
  150DOPC  H12S17934   4.975   5.168   8.840  1.2588 -0.9554  1.1828
  150DOPC  C21317935   4.955   5.184   9.047  0.3891  0.1689 -0.3012
  150DOPC  H13R17936   4.871   5.112   9.056 -1.1026  1.7240 -1.0333
  150DOPC  H13S17937   4.929   5.259   9.126  0.2104  1.0557 -1.1797
  150DOPC  C21417938   5.083   5.132   9.105  0.0455 -0.7348 -1.1013
  150DOPC  H14R17939   5.152   5.217   9.125 -0.3382 -0.6764  0.0732
  150DOPC  H14S17940   5.139   5.064   9.038 -1.0777 -1.5173 -1.2759
  150DOPC  C21517941   5.066   5.061   9.237 -0.3654 -0.6527 -0.2332
  150DOPC  H15R17942   5.160   5.011   9.270 -1.5022 -2.6476  0.1588
  150DOPC  H15S17943   4.995   4.981   9.207  0.0275 -0.8690 -0.5907
  150DOPC  C21617944   5.021   5.142   9.356 -0.4116 -0.3409 -0.1055
  150DOPC  H16R17945   4.910   5.152   9.348 -0.3155 -0.1177 -1.4602
  150DOPC  H16S17946   5.066   5.243   9.360 -3.6230  1.2953 -1.3401
  150DOPC  C21717947   5.042   5.065   9.486 -0.9055 -0.2235  0.4965
  150DOPC  H17R17948   5.151   5.048   9.495 -0.9106 -0.7241 -0.3072
  150DOPC  H17S17949   4.996   4.965   9.471  0.6380 -0.7576 -0.9704
  150DOPC  C21817950   4.997   5.134   9.621  0.3631  0.1274 -0.5933
  150DOPC  H18R17951   5.048   5.230   9.645  0.8309  0.3406 -2.3302
  150DOPC  H18S17952   5.003   5.067   9.710 -0.4766  0.0891 -0.5608
  150DOPC  H18T17953   4.888   5.155   9.621  0.2931 -0.2256 -0.5124
  150DOPC   C3317954   4.236   5.678   9.391 -0.7913  0.4063  0.8885
  150DOPC   H3X17955   4.340   5.715   9.407 -0.4687 -1.2286  3.0391
  150DOPC   H3Y17956   4.162   5.761   9.383  0.9080  1.9670  0.8069
  150DOPC   C3417957   4.236   5.596   9.258  0.5508 -0.1101  0.4724
  150DOPC   H4X17958   4.148   5.528   9.259 -0.9441  1.7257 -0.9411
  150DOPC   H4Y17959   4.328   5.534   9.250  0.9247  0.5190 -0.1521
  150DOPC   C3517960   4.231   5.679   9.128 -0.7000 -0.6578  0.2048
  150DOPC   H5X17961   4.323   5.740   9.114  1.1022 -1.9111  4.7261
  150DOPC   H5Y17962   4.143   5.743   9.149 -0.2320  0.0683  0.0042
  150DOPC   C3617963   4.241   5.581   9.002 -0.1249  0.7745 -0.3017
  150DOPC   H6X17964   4.323   5.510   9.027 -1.1267 -0.1198  0.5095
  150DOPC   H6Y17965   4.144   5.527   9.002 -1.1727  2.5064 -2.3762
  150DOPC   C3717966   4.271   5.653   8.871 -0.0201  0.4367 -0.3432
  150DOPC   H7X17967   4.189   5.719   8.834  1.3312  0.7515 -3.1046
  150DOPC   H7Y17968   4.363   5.717   8.873  0.3462 -0.0363 -1.3378
  150DOPC   C3817969   4.297   5.546   8.760  0.0509  0.1284 -0.3182
  150DOPC   H8X17970   4.258   5.586   8.664  0.6791 -0.2691 -0.7397
  150DOPC   H8Y17971   4.232   5.460   8.790  1.1006 -0.6687 -0.2715
  150DOPC   C3917972   4.433   5.486   8.748 -0.1522 -0.1875 -0.1306
  150DOPC   H9X17973   4.459   5.421   8.834  1.5330  0.7373  0.1025
  150DOPC  C31017974   4.536   5.520   8.658 -0.5947 -0.5439  0.3203
  150DOPC  H10X17975   4.629   5.463   8.649  0.3794  0.6909  1.9677
  150DOPC  C31117976   4.532   5.615   8.536  0.6194 -0.6746 -0.7841
  150DOPC  H11X17977   4.427   5.644   8.513  0.6300  1.3134  1.2611
  150DOPC  H11Y17978   4.566   5.552   8.452 -0.1184 -0.2937 -1.3850
  150DOPC  C31217979   4.624   5.741   8.555 -0.1628 -0.0672 -0.1180
  150DOPC  H12X17980   4.730   5.709   8.563 -0.3138 -1.3410 -2.3745
  150DOPC  H12Y17981   4.597   5.789   8.651 -0.2432  0.0898 -0.2194
  150DOPC  C31317982   4.619   5.823   8.422  0.2577 -0.5846 -0.1318
  150DOPC  H13X17983   4.628   5.750   8.338 -1.3579  0.4332 -1.2467
  150DOPC  H13Y17984   4.517   5.868   8.414 -0.0101 -1.2809 -0.7291
  150DOPC  C31417985   4.734   5.922   8.408  0.1020  0.2199  0.0130
  150DOPC  H14X17986   4.705   6.024   8.374  0.1570  0.3731  0.4116
  150DOPC  H14Y17987   4.776   5.948   8.508  0.0030  0.1158  0.0816
  150DOPC  C31517988   4.848   5.872   8.328  0.3544 -0.6443 -0.9853
  150DOPC  H15X17989   4.800   5.825   8.240 -0.5589 -0.3164 -0.6717
  150DOPC  H15Y17990   4.904   5.790   8.378 -0.1357  0.0157  0.7084
  150DOPC  C31617991   4.942   5.984   8.276  0.3129 -0.0159 -0.1891
  150DOPC  H16X17992   4.888   6.023   8.188  1.5451  3.2173  0.3465
  150DOPC  H16Y17993   4.955   6.072   8.344  1.2451 -0.2011 -0.1194
  150DOPC  C31717994   5.078   5.943   8.230  0.2186 -0.0840  0.6023
  150DOPC  H17X17995   5.113   6.030   8.171 -1.8675  0.7795  0.5608
  150DOPC  H17Y17996   5.144   5.943   8.320  0.3365  0.2204  0.5165
  150DOPC  C31817997   5.098   5.822   8.144 -0.0257 -0.1269 -0.7606
  150DOPC  H18X17998   5.075   5.731   8.202  0.8073 -0.3034 -0.6972
  150DOPC  H18Y17999   5.028   5.814   8.058  0.7650  0.5443 -1.4955
  150DOPC  H18Z18000   5.205   5.828   8.112  0.5730 -0.3162  1.0997
  151DOPC     N18001   1.369   3.868   9.783  0.3134  0.3838  0.0122
  151DOPC   C1218002   1.226   3.887   9.740  0.0276 -0.1035 -0.1641
  151DOPC  H12A18003   1.211   3.994   9.730 -0.0402 -0.2194 -1.4514
  151DOPC  H12B18004   1.152   3.855   9.813 -0.5147 -0.8735 -1.0357
  151DOPC   C1318005   1.471   3.879   9.677  0.2391 -0.7511 -0.0176
  151DOPC  H13A18006   1.572   3.853   9.704  0.3591  0.8476  1.2034
  151DOPC  H13B18007   1.441   3.810   9.599  1.3833  0.2059 -1.3519
  151DOPC  H13C18008   1.472   3.982   9.644  3.4539 -1.0492 -1.1212
  151DOPC   C1418009   1.383   3.730   9.839 -0.7339  0.2864 -0.3476
  151DOPC  H14A18010   1.483   3.701   9.867 -1.0258  0.0398  0.4760
  151DOPC  H14B18011   1.309   3.704   9.913  0.3179  0.3295  0.7558
  151DOPC  H14C18012   1.353   3.661   9.762 -1.5318  0.4918 -0.2257
  151DOPC   C1518013   1.404   3.971   9.890 -0.4530  0.3782 -0.2359
  151DOPC  H15A18014   1.497   3.935   9.931 -1.3784 -2.5319 -0.4372
  151DOPC  H15B18015   1.322   3.970   9.961  0.2465  1.0201  0.6057
  151DOPC  H15C18016   1.421   4.070   9.851  0.4072 -0.4468 -2.0720
  151DOPC   C1118017   1.189   3.821   9.599 -0.4054 -0.0576  0.0023
  151DOPC  H11A18018   1.082   3.846   9.580  0.4494  2.1971 -2.3154
  151DOPC  H11B18019   1.250   3.866   9.518 -1.3375  1.1515 -0.0575
  151DOPC     P18020   1.259   3.604   9.474  0.1360  0.0002  0.2889
  151DOPC   O1318021   1.224   3.462   9.492 -0.0889 -0.3647  0.2165
  151DOPC   O1418022   1.400   3.647   9.448  0.3772 -0.1332  0.5827
  151DOPC   O1218023   1.207   3.678   9.601 -0.3223 -0.5294  0.6094
  151DOPC   O1118024   1.163   3.668   9.363 -0.3488  0.1762 -0.2930
  151DOPC    C118025   1.021   3.658   9.376  0.5020 -0.3301  0.2461
  151DOPC    HA18026   0.974   3.748   9.330  0.0852 -0.6115  0.1245
  151DOPC    HB18027   0.985   3.657   9.481  3.3448  0.5962  1.3334
  151DOPC    C218028   0.975   3.532   9.290 -0.1022  0.4035  0.2581
  151DOPC    HS18029   1.010   3.442   9.345 -1.3504  0.3261  0.9727
  151DOPC   O2118030   1.037   3.531   9.160 -0.3679  0.4001 -0.3083
  151DOPC   C2118031   1.078   3.420   9.115 -0.1238 -0.5681  0.1726
  151DOPC   O2218032   1.083   3.309   9.169  0.5963 -0.0999  0.2016
  151DOPC   C2218033   1.137   3.452   8.974 -0.3506 -0.0814 -0.5963
  151DOPC   H2R18034   1.166   3.559   8.966 -0.1891  0.0022  0.9079
  151DOPC   H2S18035   1.046   3.444   8.911 -0.8281 -0.1516  0.0980
  151DOPC    C318036   0.820   3.511   9.287  0.2050 -0.0574  0.6582
  151DOPC    HX18037   0.785   3.517   9.392  0.6814  0.4188  0.7925
  151DOPC    HY18038   0.793   3.407   9.257 -3.4715  1.0798 -0.4842
  151DOPC   O3118039   0.753   3.616   9.209  0.1283  0.1755  0.4808
  151DOPC   C3118040   0.731   3.583   9.080 -0.1869 -0.4514  0.3853
  151DOPC   O3218041   0.767   3.475   9.033  0.1120  0.3785  0.2194
  151DOPC   C3218042   0.653   3.695   9.008 -0.5965 -0.4737 -0.1371
  151DOPC   H2X18043   0.550   3.688   9.048 -0.3768  0.1296  0.5518
  151DOPC   H2Y18044   0.694   3.788   9.053  0.1716 -1.1931  0.6726
  151DOPC   C2318045   1.238   3.345   8.935  0.4852 -0.7645 -0.1274
  151DOPC   H3R18046   1.255   3.366   8.827 -2.2306 -1.7191 -0.8422
  151DOPC   H3S18047   1.194   3.244   8.952 -0.3535 -0.4727 -0.4646
  151DOPC   C2418048   1.375   3.381   8.999 -0.5292 -0.1397  0.3498
  151DOPC   H4R18049   1.363   3.384   9.110 -0.6448 -2.3611  0.4551
  151DOPC   H4S18050   1.413   3.480   8.966 -1.0382  0.0182  0.2248
  151DOPC   C2518051   1.504   3.291   8.976 -0.3479  0.3064  0.3726
  151DOPC   H5R18052   1.471   3.194   9.021 -3.8237  0.7040 -1.0150
  151DOPC   H5S18053   1.593   3.332   9.027 -1.5701  0.9789  2.0738
  151DOPC   C2618054   1.533   3.251   8.832  0.3656 -0.8499 -0.0264
  151DOPC   H6R18055   1.441   3.207   8.789 -1.0284  1.3251  0.6184
  151DOPC   H6S18056   1.617   3.178   8.828  0.5746 -0.8375  2.4546
  151DOPC   C2718057   1.598   3.361   8.736 -0.0450  0.1984 -0.2022
  151DOPC   H7R18058   1.525   3.443   8.716  2.5903  2.7181 -0.1411
  151DOPC   H7S18059   1.629   3.305   8.646 -0.1392 -0.5380  0.2191
  151DOPC   C2818060   1.715   3.439   8.793  0.6745  0.7152 -0.3239
  151DOPC   H8R18061   1.685   3.506   8.876 -1.1853  0.2164 -0.5613
  151DOPC   H8S18062   1.743   3.514   8.716  1.2584 -1.0424 -1.9119
  151DOPC   C2918063   1.830   3.345   8.812  0.5371  0.6604  0.4489
  151DOPC   H9R18064   1.811   3.287   8.903 -0.3170  1.2569  0.6564
  151DOPC  C21018065   1.939   3.324   8.739 -0.8746  0.1480  0.0620
  151DOPC  H10R18066   2.017   3.259   8.783  0.6282  2.9694  1.8651
  151DOPC  C21118067   1.980   3.398   8.607  0.5739  0.9499 -0.8043
  151DOPC  H11R18068   2.089   3.417   8.598  0.7150  0.2710 -0.5770
  151DOPC  H11S18069   1.927   3.495   8.617 -1.8718 -0.2662 -1.2622
  151DOPC  C21218070   1.913   3.334   8.477  0.3739 -0.3253 -0.1539
  151DOPC  H12R18071   1.807   3.321   8.506 -0.4006  2.7045 -1.3085
  151DOPC  H12S18072   1.973   3.244   8.450  0.7370 -0.2765  0.4771
  151DOPC  C21318073   1.921   3.429   8.360  0.1148 -0.0686 -0.2074
  151DOPC  H13R18074   2.027   3.462   8.350 -0.6071  2.4881  0.0410
  151DOPC  H13S18075   1.856   3.517   8.379 -0.9244 -0.8835  0.0864
  151DOPC  C21418076   1.853   3.362   8.239  0.3284  0.8858 -0.3410
  151DOPC  H14R18077   1.749   3.326   8.257 -0.2150  0.5594 -3.4511
  151DOPC  H14S18078   1.920   3.278   8.209  0.8600  1.7476 -1.6658
  151DOPC  C21518079   1.855   3.465   8.126  0.2207 -0.2238  0.2376
  151DOPC  H15R18080   1.959   3.484   8.093 -0.1064 -0.0813 -0.7711
  151DOPC  H15S18081   1.796   3.555   8.154  1.6023  0.5322  0.8284
  151DOPC  C21618082   1.791   3.418   7.995  0.2108  0.4621  0.4690
  151DOPC  H16R18083   1.768   3.503   7.928 -2.2283 -0.6741 -0.2726
  151DOPC  H16S18084   1.691   3.374   8.016 -0.1041  0.6169 -0.6378
  151DOPC  C21718085   1.879   3.321   7.908  0.4004 -0.2081  0.8526
  151DOPC  H17R18086   1.825   3.301   7.813  1.4654  0.1832  0.1457
  151DOPC  H17S18087   1.893   3.226   7.963 -0.9917 -0.8898  0.0606
  151DOPC  C21818088   2.009   3.382   7.851 -0.6524  1.0055 -0.2685
  151DOPC  H18R18089   2.002   3.493   7.849 -0.2961  1.0335 -0.0765
  151DOPC  H18S18090   2.037   3.337   7.753  0.5799 -0.5525  0.7490
  151DOPC  H18T18091   2.087   3.358   7.927 -0.8228 -0.3522 -0.5050
  151DOPC   C3318092   0.660   3.696   8.856  0.3636 -0.0732  0.8673
  151DOPC   H3X18093   0.765   3.674   8.829  0.4852 -0.0523  1.3190
  151DOPC   H3Y18094   0.638   3.799   8.819  0.6797 -0.6790 -1.1540
  151DOPC   C3418095   0.569   3.588   8.792  0.1649  0.0657  0.3607
  151DOPC   H4X18096   0.467   3.617   8.823 -1.1979 -2.2300 -1.5940
  151DOPC   H4Y18097   0.583   3.486   8.834 -0.8726  0.5011  1.8293
  151DOPC   C3518098   0.582   3.589   8.637 -0.4671 -0.0844 -0.9395
  151DOPC   H5X18099   0.683   3.566   8.597 -0.5161 -0.4179 -0.8760
  151DOPC   H5Y18100   0.550   3.693   8.614 -2.8105 -1.0436 -2.2695
  151DOPC   C3618101   0.490   3.480   8.577  0.7251 -0.6905  0.9005
  151DOPC   H6X18102   0.512   3.383   8.625  1.4798 -0.3752  1.2147
  151DOPC   H6Y18103   0.386   3.515   8.592  0.5887 -0.7202  0.0887
  151DOPC   C3718104   0.530   3.478   8.429  1.2321  0.2474  0.1802
  151DOPC   H7X18105   0.515   3.583   8.396 -0.5864  0.2499  0.9049
  151DOPC   H7Y18106   0.635   3.445   8.414  0.9804 -0.2108 -0.6150
  151DOPC   C3818107   0.444   3.385   8.343 -0.4130  0.9052  0.1152
  151DOPC   H8X18108   0.444   3.278   8.375  2.7795  0.9424  0.5578
  151DOPC   H8Y18109   0.493   3.374   8.244  0.5974 -0.3315  0.7260
  151DOPC   C3918110   0.310   3.450   8.323  0.8005  0.1944  0.2354
  151DOPC   H9X18111   0.258   3.462   8.419  0.2848  4.1930 -0.3872
  151DOPC  C31018112   0.261   3.510   8.207  0.3139 -0.7345 -0.0422
  151DOPC  H10X18113   0.167   3.568   8.211  0.6398  0.0135 -2.1134
  151DOPC  C31118114   0.329   3.533   8.074 -0.0505  0.0993  0.4071
  151DOPC  H11X18115   0.300   3.448   8.009  3.6332 -1.9041  1.1315
  151DOPC  H11Y18116   0.439   3.541   8.085 -0.2138 -0.1723  3.0111
  151DOPC  C31218117   0.286   3.665   8.007 -0.1721  0.1208  0.9776
  151DOPC  H12X18118   0.351   3.743   8.054  2.5450 -1.1761 -0.4177
  151DOPC  H12Y18119   0.178   3.683   8.025 -0.1305  0.5594  0.7926
  151DOPC  C31318120   0.302   3.666   7.851  0.0195 -0.7212  0.0770
  151DOPC  H13X18121   0.395   3.611   7.823 -0.5679 -1.3629 -0.6746
  151DOPC  H13Y18122   0.216   3.608   7.811 -0.4335 -1.4391  1.9522
  151DOPC  C31418123   0.305   3.811   7.791  0.0864  0.1346 -0.3647
  151DOPC  H14X18124   0.215   3.865   7.826 -0.0200  0.6882 -1.4555
  151DOPC  H14Y18125   0.399   3.864   7.819  0.4974 -0.7885  0.0633
  151DOPC  C31518126   0.295   3.801   7.638  0.1565 -0.6390  0.5879
  151DOPC  H15X18127   0.190   3.771   7.617  0.5032 -0.8440 -1.0002
  151DOPC  H15Y18128   0.351   3.717   7.591  1.7311  1.1449 -0.8922
  151DOPC  C31618129   0.339   3.928   7.567  0.0832  0.5920  0.2715
  151DOPC  H16X18130   0.450   3.939   7.563  0.2281 -0.5408  0.9233
  151DOPC  H16Y18131   0.305   3.914   7.462  1.0771 -0.4452  0.0766
  151DOPC  C31718132   0.289   4.065   7.608  0.4834 -0.1155  0.3737
  151DOPC  H17X18133   0.180   4.066   7.588  0.2392  2.8453  1.4101
  151DOPC  H17Y18134   0.317   4.091   7.713 -0.1459  1.5896  0.1494
  151DOPC  C31818135   0.349   4.177   7.529 -0.5006  0.8985  0.1030
  151DOPC  H18X18136   0.338   4.164   7.419  1.1361 -1.3142  0.1217
  151DOPC  H18Y18137   0.300   4.274   7.553  2.1341  2.0051  1.3746
  151DOPC  H18Z18138   0.458   4.185   7.552 -0.2484  1.3465 -1.1464
  152DOPC     N18139   3.852   2.251   9.865  0.4763  0.1015 -0.1291
  152DOPC   C1218140   3.729   2.254   9.777  0.0259  0.1068  0.4795
  152DOPC  H12A18141   3.758   2.287   9.678 -0.7890  0.7307  0.4370
  152DOPC  H12B18142   3.659   2.325   9.817 -0.3073  1.0309 -1.6077
  152DOPC   C1318143   3.814   2.181   9.990  0.2167  0.5664 -0.5836
  152DOPC  H13A18144   3.897   2.173  10.058 -0.5104 -0.0259  0.2538
  152DOPC  H13B18145   3.736   2.237  10.039 -0.7343 -1.5272  0.3973
  152DOPC  H13C18146   3.776   2.082   9.971 -0.7201  0.5454  1.1632
  152DOPC   C1418147   3.890   2.387   9.899  0.7235 -0.4607 -0.3424
  152DOPC  H14A18148   3.921   2.445   9.813 -2.1984  0.9106 -0.5746
  152DOPC  H14B18149   3.818   2.447   9.952  1.2310 -1.7656  1.9698
  152DOPC  H14C18150   3.979   2.382   9.959  0.8858  0.2950 -0.5083
  152DOPC   C1518151   3.965   2.170   9.804  0.1707 -0.2116 -0.0403
  152DOPC  H15A18152   4.040   2.159   9.881 -2.5223 -0.4957  2.7467
  152DOPC  H15B18153   3.991   2.205   9.705 -1.7752 -1.3106 -1.0081
  152DOPC  H15C18154   3.924   2.071   9.795  1.6783 -0.9900  1.1966
  152DOPC   C1118155   3.644   2.124   9.754  0.2150 -0.5173  0.4483
  152DOPC  H11A18156   3.575   2.138   9.668  2.7444  0.0237 -1.6239
  152DOPC  H11B18157   3.714   2.043   9.724  0.6305  0.1001 -0.3040
  152DOPC     P18158   3.534   1.976   9.942  0.3892  0.0300  0.4154
  152DOPC   O1318159   3.437   2.021  10.048 -0.4021 -0.1949 -0.0007
  152DOPC   O1418160   3.654   1.907   9.988  0.3942 -0.5331  0.1096
  152DOPC   O1218161   3.562   2.103   9.860  0.0059  0.7274 -0.5244
  152DOPC   O1118162   3.462   1.875   9.829 -0.0010  0.0844 -0.2026
  152DOPC    C118163   3.375   1.929   9.731  0.9018  0.8103 -0.0514
  152DOPC    HA18164   3.444   1.970   9.654  1.3314 -0.9450 -0.6489
  152DOPC    HB18165   3.304   2.004   9.772 -1.7596 -2.2141  1.3214
  152DOPC    C218166   3.296   1.811   9.670  0.3856 -0.7747  0.1558
  152DOPC    HS18167   3.263   1.748   9.756  1.7973  0.1082  1.4095
  152DOPC   O2118168   3.384   1.722   9.600  0.0856  0.3110  0.4056
  152DOPC   C2118169   3.331   1.612   9.552 -1.2357 -0.0596 -0.0865
  152DOPC   O2218170   3.219   1.572   9.569  0.5835  0.0403 -0.1094
  152DOPC   C2218171   3.418   1.537   9.445 -0.5341  0.1072  0.0507
  152DOPC   H2R18172   3.452   1.440   9.487  0.5862  1.0884  1.5038
  152DOPC   H2S18173   3.506   1.602   9.429 -1.3347  1.1655 -0.1261
  152DOPC    C318174   3.177   1.870   9.591 -0.2548 -0.3842 -0.3709
  152DOPC    HX18175   3.116   1.941   9.651  0.8571 -0.4163  0.8559
  152DOPC    HY18176   3.106   1.792   9.557  0.8741 -1.7295  0.2672
  152DOPC   O3118177   3.226   1.928   9.475 -0.0282 -0.3123 -0.2381
  152DOPC   C3118178   3.230   2.058   9.467  0.3460  0.7873 -0.2159
  152DOPC   O3218179   3.200   2.135   9.555  0.1167  0.0404  0.0026
  152DOPC   C3218180   3.284   2.103   9.326 -0.3064  0.1800 -0.4328
  152DOPC   H2X18181   3.244   2.205   9.306  3.0559  1.8630  0.6767
  152DOPC   H2Y18182   3.391   2.108   9.353 -0.5604  1.1036  0.4936
  152DOPC   C2318183   3.340   1.520   9.311 -1.0329 -0.1708  0.2363
  152DOPC   H3R18184   3.292   1.619   9.294  0.3705  0.2258 -1.7785
  152DOPC   H3S18185   3.254   1.449   9.321 -1.8173  1.0220  2.6470
  152DOPC   C2418186   3.429   1.495   9.181 -0.8268  0.2122 -0.4235
  152DOPC   H4R18187   3.503   1.416   9.205  1.4321  3.0692  2.9076
  152DOPC   H4S18188   3.486   1.588   9.158  0.3218  0.3505  2.6254
  152DOPC   C2518189   3.342   1.447   9.065 -0.2435 -0.2483 -0.7237
  152DOPC   H5R18190   3.278   1.369   9.110 -0.0146 -0.9454 -1.5734
  152DOPC   H5S18191   3.414   1.403   8.993  0.4311  0.3763 -0.4441
  152DOPC   C2618192   3.258   1.564   9.007  0.0066  0.3167 -0.1701
  152DOPC   H6R18193   3.325   1.626   8.943  0.6702 -2.0620 -1.9381
  152DOPC   H6S18194   3.215   1.618   9.094 -1.2226 -1.2347  0.2541
  152DOPC   C2718195   3.148   1.491   8.926  0.0803  0.2518  0.0566
  152DOPC   H7R18196   3.061   1.559   8.912 -0.3442 -0.2150  0.4066
  152DOPC   H7S18197   3.112   1.401   8.978 -0.3890  0.3694 -0.0620
  152DOPC   C2818198   3.194   1.438   8.785 -0.3927  0.6774  0.7708
  152DOPC   H8R18199   3.266   1.361   8.819 -1.0550 -0.0196  0.6307
  152DOPC   H8S18200   3.260   1.512   8.735 -1.7166  2.3063  1.3530
  152DOPC   C2918201   3.090   1.391   8.689  0.0136 -0.9651 -0.1964
  152DOPC   H9R18202   2.990   1.395   8.734 -0.7051 -2.2973 -1.6035
  152DOPC  C21018203   3.100   1.341   8.563  0.3929  0.4197  0.4296
  152DOPC  H10R18204   3.008   1.315   8.508  0.7028  0.5538 -0.1698
  152DOPC  C21118205   3.231   1.319   8.489  0.2081 -0.5220  0.5519
  152DOPC  H11R18206   3.252   1.211   8.479 -0.8784 -0.6466 -0.5429
  152DOPC  H11S18207   3.311   1.351   8.560  0.0278 -0.9823  0.9680
  152DOPC  C21218208   3.242   1.396   8.351  0.0623  0.3217  0.4797
  152DOPC  H12R18209   3.336   1.362   8.301  0.2057 -0.4453  1.2609
  152DOPC  H12S18210   3.247   1.506   8.365 -2.3838  0.3713  1.3936
  152DOPC  C21318211   3.125   1.354   8.265  0.6023  0.2342  0.5099
  152DOPC  H13R18212   3.038   1.402   8.316 -0.3368  0.4350 -1.1996
  152DOPC  H13S18213   3.108   1.245   8.264 -0.4628  0.3890 -0.0611
  152DOPC  C21418214   3.127   1.414   8.130 -0.0907 -0.5734 -0.2531
  152DOPC  H14R18215   3.227   1.386   8.089  0.0645 -0.9782  0.3949
  152DOPC  H14S18216   3.135   1.525   8.133  0.8170 -0.6012 -1.1088
  152DOPC  C21518217   3.024   1.363   8.029 -0.0214 -0.2124 -0.0384
  152DOPC  H15R18218   2.927   1.404   8.063  0.7073  0.3716  1.4617
  152DOPC  H15S18219   3.025   1.252   8.041  1.6997 -0.4107 -1.5522
  152DOPC  C21618220   3.036   1.401   7.880 -0.6204  0.0280  0.0570
  152DOPC  H16R18221   3.037   1.511   7.863  1.2402 -0.1524 -1.2214
  152DOPC  H16S18222   2.957   1.357   7.816  0.1283 -0.1259 -0.7866
  152DOPC  C21718223   3.165   1.356   7.819  0.5160 -0.1330 -0.0663
  152DOPC  H17R18224   3.171   1.248   7.844 -0.2544  0.0027  0.7579
  152DOPC  H17S18225   3.252   1.401   7.871  1.0316 -3.0307  1.7796
  152DOPC  C21818226   3.157   1.373   7.661  0.7488 -0.2383 -0.1635
  152DOPC  H18R18227   3.122   1.477   7.644  1.6413 -0.0946 -1.2225
  152DOPC  H18S18228   3.098   1.295   7.608  1.9846 -2.2540  1.2439
  152DOPC  H18T18229   3.257   1.371   7.613 -0.5368  0.6336 -3.0576
  152DOPC   C3318230   3.283   2.009   9.207 -0.1196 -0.0975  0.6883
  152DOPC   H3X18231   3.183   2.022   9.160 -0.8982  1.6998  2.6646
  152DOPC   H3Y18232   3.295   1.902   9.231  3.3585 -0.1405 -0.6831
  152DOPC   C3418233   3.404   2.019   9.115  0.4283 -0.1150  0.1411
  152DOPC   H4X18234   3.485   1.968   9.170  3.3990  0.3689 -3.4074
  152DOPC   H4Y18235   3.430   2.127   9.105  2.0068 -0.5708 -1.0233
  152DOPC   C3518236   3.384   1.959   8.974  0.5083  0.6622 -0.4216
  152DOPC   H5X18237   3.282   1.990   8.940  0.5337  1.2801  0.0509
  152DOPC   H5Y18238   3.377   1.848   8.981  2.1576  0.6151  0.9018
  152DOPC   C3618239   3.492   1.995   8.875 -1.0012 -0.4475 -0.2403
  152DOPC   H6X18240   3.516   2.103   8.885 -1.2243 -0.4247  0.0629
  152DOPC   H6Y18241   3.591   1.955   8.905 -0.7813  0.0902 -0.2427
  152DOPC   C3718242   3.452   1.970   8.731  0.5901 -0.2630 -0.5482
  152DOPC   H7X18243   3.360   2.030   8.721 -0.6426 -1.8565  0.7664
  152DOPC   H7Y18244   3.527   2.009   8.658  0.5404  0.8054 -0.0601
  152DOPC   C3818245   3.429   1.820   8.704 -0.3827  0.3453  0.0334
  152DOPC   H8X18246   3.344   1.778   8.762  0.1364 -0.9844 -0.1242
  152DOPC   H8Y18247   3.521   1.774   8.746  0.2575 -0.8714 -2.4545
  152DOPC   C3918248   3.418   1.804   8.553  0.2924  0.4705 -0.4549
  152DOPC   H9X18249   3.514   1.817   8.500  0.2112  1.1841 -0.4260
  152DOPC  C31018250   3.306   1.781   8.488 -0.1634  0.0421  0.1080
  152DOPC  H10X18251   3.318   1.771   8.379 -0.4341  2.4979 -0.2124
  152DOPC  C31118252   3.167   1.766   8.550  0.0973  0.1419  0.2814
  152DOPC  H11X18253   3.177   1.720   8.650  0.3783  0.4227  0.3844
  152DOPC  H11Y18254   3.110   1.692   8.489 -1.3675  0.8866  0.6820
  152DOPC  C31218255   3.095   1.900   8.558 -0.1953  0.0357  0.5183
  152DOPC  H12X18256   3.101   1.946   8.457 -0.2018 -1.1786 -0.0546
  152DOPC  H12Y18257   3.140   1.969   8.632 -0.3007 -0.0497  0.6626
  152DOPC  C31318258   2.953   1.890   8.607  0.6858 -0.0941 -0.0806
  152DOPC  H13X18259   2.901   1.988   8.608 -1.0808 -0.9942  0.4418
  152DOPC  H13Y18260   2.889   1.825   8.543  0.1955  0.3404 -0.0418
  152DOPC  C31418261   2.939   1.852   8.751 -0.7660 -0.0570  0.1703
  152DOPC  H14X18262   2.832   1.838   8.778 -0.6789  0.9690  1.0981
  152DOPC  H14Y18263   2.983   1.752   8.770 -1.3095 -0.4530 -0.6063
  152DOPC  C31518264   2.992   1.963   8.846  0.4451 -0.3403 -0.0035
  152DOPC  H15X18265   2.940   2.056   8.815  2.0047  0.4484 -0.3671
  152DOPC  H15Y18266   3.103   1.975   8.847  0.5674 -1.2583  1.4548
  152DOPC  C31618267   2.946   1.947   8.990  0.5484  0.3809  0.3834
  152DOPC  H16X18268   2.982   2.038   9.043 -1.5219  0.7694  1.2064
  152DOPC  H16Y18269   2.835   1.950   8.990  0.4471 -1.8892 -0.1426
  152DOPC  C31718270   3.005   1.829   9.065 -0.1599 -0.1457 -0.1851
  152DOPC  H17X18271   2.968   1.733   9.023 -1.5792 -0.1529  1.0193
  152DOPC  H17Y18272   3.115   1.840   9.058 -0.2603  2.3892  1.0716
  152DOPC  C31818273   2.967   1.838   9.215  0.3341  0.0963  0.0729
  152DOPC  H18X18274   2.861   1.803   9.215  0.6460 -0.8921  0.1963
  152DOPC  H18Y18275   3.025   1.764   9.275 -0.3208 -0.8146 -0.3924
  152DOPC  H18Z18276   2.981   1.936   9.264  0.0078  0.8923 -1.3718
  153DOPC     N18277   3.510   5.884  10.670 -0.0932  0.4575 -0.1604
  153DOPC   C1218278   3.605   5.808  10.577 -0.2075 -0.0825  0.2747
  153DOPC  H12A18279   3.556   5.726  10.526 -0.7384  0.1882  0.3467
  153DOPC  H12B18280   3.687   5.765  10.632  0.0590  1.1425  0.8569
  153DOPC   C1318281   3.592   5.976  10.754  0.1439 -0.2253 -0.5154
  153DOPC  H13A18282   3.528   6.022  10.827  0.6169  0.8541 -0.7491
  153DOPC  H13B18283   3.675   5.926  10.803  0.9629  1.1240 -0.4597
  153DOPC  H13C18284   3.634   6.056  10.694 -2.5940  1.5815 -0.1986
  153DOPC   C1418285   3.443   5.785  10.756  0.4243  1.0191 -0.3763
  153DOPC  H14A18286   3.385   5.836  10.831 -0.1642  0.4757 -0.4578
  153DOPC  H14B18287   3.370   5.730  10.699  0.6568  0.1309  0.1480
  153DOPC  H14C18288   3.520   5.727  10.806  2.3650  2.3668 -1.6551
  153DOPC   C1518289   3.405   5.962  10.595  0.6337  0.1576  0.0466
  153DOPC  H15A18290   3.448   6.027  10.521  2.2630 -0.8651  0.0416
  153DOPC  H15B18291   3.335   6.013  10.660 -0.2036 -0.8035 -0.0581
  153DOPC  H15C18292   3.341   5.897  10.536 -2.6158  1.2687  2.0301
  153DOPC   C1118293   3.663   5.908  10.468 -0.1510 -0.2336  0.1263
  153DOPC  H11A18294   3.706   6.000  10.514 -0.6643 -0.2002  0.5648
  153DOPC  H11B18295   3.750   5.854  10.426  1.4627  1.6731  0.8596
  153DOPC     P18296   3.588   6.065  10.267  0.2257 -0.0001 -0.3917
  153DOPC   O1318297   3.698   6.145  10.322  0.6292 -0.3611 -0.0585
  153DOPC   O1418298   3.454   6.132  10.262  0.2492 -0.1081  0.3153
  153DOPC   O1218299   3.569   5.938  10.366 -0.6097 -0.5769 -0.0543
  153DOPC   O1118300   3.625   5.986  10.131  0.8069 -0.3650  0.4570
  153DOPC    C118301   3.745   5.903  10.144 -0.3292  0.0612  0.7897
  153DOPC    HA18302   3.707   5.799  10.131 -3.3459  1.0565  0.7119
  153DOPC    HB18303   3.801   5.902  10.239 -0.2568  0.5010  0.7519
  153DOPC    C218304   3.857   5.942  10.040 -0.2043  0.2291  0.3590
  153DOPC    HS18305   3.899   6.037  10.080  1.4649 -0.8352  1.3106
  153DOPC   O2118306   3.802   5.948   9.908 -0.1671  0.0026  0.0792
  153DOPC   C2118307   3.776   6.064   9.859  0.1772 -0.4444  0.0291
  153DOPC   O2218308   3.785   6.173   9.908 -0.3707 -0.1458 -0.2670
  153DOPC   C2218309   3.748   6.047   9.710 -0.8632 -0.2819 -0.4335
  153DOPC   H2R18310   3.642   6.026   9.686 -1.1369  1.9742 -1.4996
  153DOPC   H2S18311   3.803   5.955   9.680 -0.1320 -0.8808  2.4599
  153DOPC    C318312   3.975   5.835  10.047  0.1724 -0.5162 -0.2901
  153DOPC    HX18313   4.008   5.843  10.153 -1.8515  1.1805  0.2843
  153DOPC    HY18314   4.054   5.871   9.978 -0.5775 -0.3750 -1.0905
  153DOPC   O3118315   3.927   5.705  10.012  0.4798 -0.0141  0.2734
  153DOPC   C3118316   3.997   5.599  10.057  0.4222  0.1569  0.5093
  153DOPC   O3218317   4.110   5.605  10.107 -0.5919  0.0864 -0.6115
  153DOPC   C3218318   3.927   5.470  10.039  0.8040  0.2688  0.0349
  153DOPC   H2X18319   3.968   5.390  10.103 -3.4960 -0.5964  2.0416
  153DOPC   H2Y18320   3.826   5.479  10.084  0.4130  1.4340 -1.0028
  153DOPC   C2318321   3.768   6.173   9.625 -0.2175 -0.2905  0.6911
  153DOPC   H3R18322   3.872   6.209   9.641  0.5152 -1.5677 -0.9076
  153DOPC   H3S18323   3.705   6.256   9.664 -1.6133 -0.7043 -0.6199
  153DOPC   C2418324   3.733   6.144   9.481 -1.0481  0.4814 -0.1008
  153DOPC   H4R18325   3.623   6.136   9.470 -0.8743 -0.2242 -1.5481
  153DOPC   H4S18326   3.780   6.047   9.455 -1.4176  1.1962 -4.0035
  153DOPC   C2518327   3.793   6.265   9.403 -0.3452  0.5568  0.2252
  153DOPC   H5R18328   3.882   6.299   9.460 -0.2795 -0.1164  0.5380
  153DOPC   H5S18329   3.725   6.352   9.414  0.6054  1.3763 -0.2622
  153DOPC   C2618330   3.817   6.227   9.256 -0.5655 -0.7878 -0.7053
  153DOPC   H6R18331   3.729   6.170   9.221 -0.2126 -1.4632 -0.5243
  153DOPC   H6S18332   3.900   6.153   9.244  1.2603  0.7926  1.3682
  153DOPC   C2718333   3.848   6.367   9.173 -0.2185 -0.1983 -0.5615
  153DOPC   H7R18334   3.936   6.408   9.227  0.5387 -1.4272 -0.8126
  153DOPC   H7S18335   3.760   6.432   9.189 -1.5988 -2.5628  2.5563
  153DOPC   C2818336   3.881   6.350   9.025  0.1530 -0.4557  0.3872
  153DOPC   H8R18337   3.970   6.283   9.022  0.5731 -0.0350  2.1045
  153DOPC   H8S18338   3.900   6.443   8.968 -1.7492 -0.9906 -1.2039
  153DOPC   C2918339   3.761   6.292   8.956  0.2725  0.6357 -0.2075
  153DOPC   H9R18340   3.674   6.300   9.023  0.6061 -0.2409  0.3540
  153DOPC  C21018341   3.765   6.202   8.854 -0.3770  0.2485 -0.1375
  153DOPC  H10R18342   3.666   6.170   8.819 -0.0955 -1.5791  0.6284
  153DOPC  C21118343   3.875   6.141   8.771 -0.2914  0.0746  0.1035
  153DOPC  H11R18344   3.876   6.030   8.786  0.2567  0.0895  0.2115
  153DOPC  H11S18345   3.976   6.169   8.808 -0.1347 -0.0702 -0.2057
  153DOPC  C21218346   3.878   6.162   8.622 -0.9659  0.0352  0.5952
  153DOPC  H12R18347   3.908   6.266   8.600 -0.6330  0.3091  2.2393
  153DOPC  H12S18348   3.777   6.142   8.581 -0.2945 -1.7872 -0.3004
  153DOPC  C21318349   3.970   6.065   8.537  0.1549  0.2251 -0.3085
  153DOPC  H13R18350   3.940   6.079   8.432 -0.4661 -1.4953 -0.3995
  153DOPC  H13S18351   3.951   5.960   8.568 -1.6704 -0.1526 -2.4871
  153DOPC  C21418352   4.118   6.081   8.549  0.0699  0.3440 -0.0183
  153DOPC  H14R18353   4.161   6.020   8.467  0.3986  0.2465  0.2226
  153DOPC  H14S18354   4.158   6.048   8.647 -0.1906  0.9331  0.2900
  153DOPC  C21518355   4.164   6.222   8.532 -0.0690 -0.2645  0.1157
  153DOPC  H15R18356   4.129   6.291   8.612  0.4796 -0.0283  0.1536
  153DOPC  H15S18357   4.110   6.269   8.447 -1.4573  0.3221  1.2642
  153DOPC  C21618358   4.314   6.232   8.505 -0.2100  0.1488 -1.2918
  153DOPC  H16R18359   4.335   6.336   8.471 -2.2101  0.8941 -0.3695
  153DOPC  H16S18360   4.355   6.163   8.428  0.7186 -0.2945 -0.4168
  153DOPC  C21718361   4.390   6.210   8.636 -0.2842 -0.5829 -0.2114
  153DOPC  H17R18362   4.342   6.131   8.697 -2.4303  0.3085 -0.6516
  153DOPC  H17S18363   4.405   6.300   8.700  0.4778 -1.9048  1.5401
  153DOPC  C21818364   4.542   6.176   8.608  0.8944 -0.6158  0.0494
  153DOPC  H18R18365   4.537   6.085   8.545  3.6158  0.6010 -2.1632
  153DOPC  H18S18366   4.598   6.143   8.699 -0.0167  0.8430  1.1724
  153DOPC  H18T18367   4.585   6.262   8.552 -2.8505  0.7037 -1.0781
  153DOPC   C3318368   3.908   5.407   9.897 -0.2357 -0.1005  0.1328
  153DOPC   H3X18369   3.840   5.467   9.832 -1.9357 -2.4391 -0.3931
  153DOPC   H3Y18370   3.844   5.317   9.904 -2.2568  1.2148 -0.4208
  153DOPC   C3418371   4.040   5.383   9.820 -0.2150 -0.2806 -0.2854
  153DOPC   H4X18372   4.082   5.485   9.803 -0.0753  0.2834  2.9413
  153DOPC   H4Y18373   4.017   5.338   9.721  1.7261  1.2325 -1.5028
  153DOPC   C3518374   4.144   5.306   9.906  0.4781  0.1511 -0.9980
  153DOPC   H5X18375   4.107   5.217   9.961 -1.0560  0.8585 -0.8240
  153DOPC   H5Y18376   4.175   5.376   9.986 -0.8083  0.4957 -0.7662
  153DOPC   C3618377   4.265   5.261   9.824 -0.0160 -0.2449 -0.1406
  153DOPC   H6X18378   4.292   5.346   9.758 -0.6021  0.7119  0.8070
  153DOPC   H6Y18379   4.357   5.237   9.881  1.1818 -0.3975 -2.0804
  153DOPC   C3718380   4.235   5.129   9.743 -0.3615 -0.4858  0.1390
  153DOPC   H7X18381   4.270   5.041   9.802  1.8120 -0.8954 -1.6147
  153DOPC   H7Y18382   4.126   5.124   9.722 -0.8553  2.0682  1.6452
  153DOPC   C3818383   4.313   5.129   9.617 -0.4081 -0.4781 -0.1420
  153DOPC   H8X18384   4.419   5.118   9.649  0.1253  1.6774 -0.9950
  153DOPC   H8Y18385   4.309   5.226   9.564 -0.4804  0.0814  0.8579
  153DOPC   C3918386   4.268   5.016   9.527 -0.4070 -0.4247  0.0055
  153DOPC   H9X18387   4.249   4.919   9.575 -1.9901  0.4067  1.1372
  153DOPC  C31018388   4.264   5.019   9.389 -0.3674  1.1048 -0.5851
  153DOPC  H10X18389   4.218   4.932   9.340  0.6378  0.1447  0.1275
  153DOPC  C31118390   4.284   5.138   9.303 -0.3630  1.2053 -0.1226
  153DOPC  H11X18391   4.324   5.226   9.359  0.3633  0.8763 -0.1094
  153DOPC  H11Y18392   4.186   5.153   9.254  0.0440  1.0761 -0.9863
  153DOPC  C31218393   4.393   5.112   9.199  0.1507 -0.2396  0.5353
  153DOPC  H12X18394   4.491   5.084   9.244  0.4134  0.2569  0.2780
  153DOPC  H12Y18395   4.407   5.216   9.161 -0.8182  0.4097  1.8498
  153DOPC  C31318396   4.352   5.026   9.080 -0.3011  0.3240 -0.6887
  153DOPC  H13X18397   4.371   4.920   9.107  1.7704  0.7457 -0.3460
  153DOPC  H13Y18398   4.258   5.048   9.025 -0.5902 -1.0533 -0.7816
  153DOPC  C31418399   4.440   5.047   8.955  0.6203 -0.1138 -0.0401
  153DOPC  H14X18400   4.408   5.144   8.911 -0.2606 -0.6208 -0.5626
  153DOPC  H14Y18401   4.548   5.051   8.980 -0.0530  1.1235  3.1738
  153DOPC  C31518402   4.422   4.939   8.846 -0.2005  0.5713  0.7136
  153DOPC  H15X18403   4.321   4.892   8.838  0.0225  0.2999 -0.7870
  153DOPC  H15Y18404   4.488   4.852   8.867 -0.7991 -0.3847 -1.1189
  153DOPC  C31618405   4.464   4.981   8.702  0.2419 -0.5481  0.2506
  153DOPC  H16X18406   4.445   4.903   8.624 -0.9046  0.4490 -0.5043
  153DOPC  H16Y18407   4.394   5.059   8.666  1.2067 -0.5352 -1.7466
  153DOPC  C31718408   4.610   5.020   8.699  0.9667  0.1151  0.2359
  153DOPC  H17X18409   4.634   5.087   8.784  1.5334 -1.1538  1.1087
  153DOPC  H17Y18410   4.659   4.922   8.721 -0.8371 -1.2566 -1.4163
  153DOPC  C31818411   4.658   5.066   8.564 -0.5650  0.9473  0.2501
  153DOPC  H18X18412   4.767   5.082   8.550 -0.8734  2.4614 -0.6793
  153DOPC  H18Y18413   4.627   5.004   8.478 -0.8427  1.9736 -0.4112
  153DOPC  H18Z18414   4.604   5.161   8.546 -1.1840  0.5588  0.0465
  154DOPC     N18415   6.252   3.721  10.307 -0.0280 -0.5432  0.0108
  154DOPC   C1218416   6.315   3.708  10.172 -0.2255 -0.9394  0.8702
  154DOPC  H12A18417   6.401   3.644  10.180  1.8284  1.7490  1.6286
  154DOPC  H12B18418   6.362   3.801  10.147 -0.3130 -1.1663 -0.1844
  154DOPC   C1318419   6.364   3.742  10.410  0.9480 -0.1766 -0.8190
  154DOPC  H13A18420   6.408   3.645  10.430 -3.1910 -1.9747  0.7348
  154DOPC  H13B18421   6.441   3.808  10.371  0.0121  0.9711 -0.7720
  154DOPC  H13C18422   6.306   3.785  10.491 -0.0365  0.9551 -2.0894
  154DOPC   C1418423   6.187   3.596  10.357 -0.2555 -0.3701  0.3800
  154DOPC  H14A18424   6.127   3.604  10.446 -1.2534  2.0010 -0.4313
  154DOPC  H14B18425   6.134   3.556  10.271  0.9794 -0.7115 -0.2547
  154DOPC  H14C18426   6.264   3.522  10.373  0.3318  0.2488  0.4527
  154DOPC   C1518427   6.156   3.831  10.310 -0.2919  0.2326  0.2171
  154DOPC  H15A18428   6.212   3.917  10.276  0.2445 -0.4946 -0.7942
  154DOPC  H15B18429   6.122   3.845  10.412 -1.5206  0.8786 -0.2578
  154DOPC  H15C18430   6.076   3.822  10.238 -0.5227  2.4547  0.1290
  154DOPC   C1118431   6.219   3.670  10.057 -0.0193  0.8027  0.4680
  154DOPC  H11A18432   6.127   3.733  10.050 -0.5094  0.1352  0.8187
  154DOPC  H11B18433   6.278   3.676   9.963 -0.2398  1.6046  0.3685
  154DOPC     P18434   6.258   3.406  10.080  0.0766 -0.1525  0.1863
  154DOPC   O1318435   6.200   3.305  10.170  0.2572  0.0009  0.1930
  154DOPC   O1418436   6.400   3.441  10.095  0.0415 -0.5337  0.4196
  154DOPC   O1218437   6.172   3.539  10.089  0.1854  0.2480  0.0087
  154DOPC   O1118438   6.226   3.365   9.940  0.4732  0.2655 -0.0069
  154DOPC    C118439   6.116   3.414   9.859  0.0534  0.6584  0.4042
  154DOPC    HA18440   6.137   3.520   9.835 -3.5320  1.2421 -0.7846
  154DOPC    HB18441   6.026   3.415   9.924 -0.2810  1.3809 -0.0622
  154DOPC    C218442   6.080   3.335   9.730 -0.3417  0.5044 -0.8234
  154DOPC    HS18443   6.050   3.233   9.761 -2.3197  1.4367  0.6281
  154DOPC   O2118444   6.186   3.341   9.638 -1.0163  1.4335 -0.3023
  154DOPC   C2118445   6.274   3.245   9.642 -0.0711 -0.2975 -0.4762
  154DOPC   O2218446   6.267   3.150   9.714 -1.0088 -0.6923 -0.1219
  154DOPC   C2218447   6.386   3.271   9.541  0.3684 -0.0427 -0.2068
  154DOPC   H2R18448   6.456   3.185   9.535 -0.7954 -1.0053 -0.4567
  154DOPC   H2S18449   6.438   3.366   9.563  1.6492 -0.8274  0.2872
  154DOPC    C318450   5.963   3.407   9.673  0.6353  0.8664 -0.1810
  154DOPC    HX18451   5.976   3.517   9.682 -1.7490  1.1468  0.7391
  154DOPC    HY18452   5.875   3.385   9.737  0.9576 -0.7596 -0.2466
  154DOPC   O3118453   5.931   3.344   9.546  0.0428  0.1295 -0.3417
  154DOPC   C3118454   5.965   3.416   9.441 -0.1405  0.4936  0.6191
  154DOPC   O3218455   6.008   3.524   9.443  0.6191 -0.2307  0.5818
  154DOPC   C3218456   5.949   3.325   9.314  0.4559 -0.6634  0.0681
  154DOPC   H2X18457   6.001   3.227   9.323 -2.2631 -2.1819  0.1449
  154DOPC   H2Y18458   5.839   3.318   9.304  0.3205 -0.2701  1.1920
  154DOPC   C2318459   6.324   3.313   9.409 -0.0055 -0.5447  0.2241
  154DOPC   H3R18460   6.276   3.414   9.413  0.8868  0.3392 -4.4335
  154DOPC   H3S18461   6.248   3.244   9.368  1.3946 -1.5906 -0.7139
  154DOPC   C2418462   6.433   3.336   9.302  0.3046 -0.5593  0.2934
  154DOPC   H4R18463   6.515   3.389   9.355 -0.5315  1.6363 -0.4845
  154DOPC   H4S18464   6.398   3.397   9.215  0.7913  0.0334  0.5044
  154DOPC   C2518465   6.467   3.202   9.240 -0.4992 -0.1735  0.7609
  154DOPC   H5R18466   6.387   3.128   9.262 -1.5993  1.3278  2.0535
  154DOPC   H5S18467   6.568   3.171   9.275 -1.0527 -0.8494  1.7977
  154DOPC   C2618468   6.490   3.210   9.086  0.5485  0.6015 -0.4250
  154DOPC   H6R18469   6.582   3.271   9.073 -1.1871  3.3767 -0.6522
  154DOPC   H6S18470   6.408   3.269   9.039  1.4271  1.6454 -0.6881
  154DOPC   C2718471   6.494   3.077   9.017 -0.0017  0.0053  0.6989
  154DOPC   H7R18472   6.401   3.017   9.029 -0.3366  0.0691 -1.2287
  154DOPC   H7S18473   6.574   3.007   9.049 -1.1137 -1.5932  0.1214
  154DOPC   C2818474   6.505   3.088   8.863 -0.3508 -0.4675  0.0156
  154DOPC   H8R18475   6.528   2.990   8.816 -0.1615 -0.0841 -0.6994
  154DOPC   H8S18476   6.606   3.133   8.851  0.4835 -1.1210  3.3456
  154DOPC   C2918477   6.402   3.169   8.791 -0.6055  0.1026  0.4458
  154DOPC   H9R18478   6.354   3.254   8.842 -1.2590  1.4453 -2.2038
  154DOPC  C21018479   6.339   3.138   8.680  0.9119 -0.2609 -0.3856
  154DOPC  H10R18480   6.257   3.204   8.648 -0.7608 -0.8924  2.2273
  154DOPC  C21118481   6.359   3.009   8.597  0.7785  0.6313  0.0512
  154DOPC  H11R18482   6.268   2.946   8.598  0.9598  0.1971 -2.5838
  154DOPC  H11S18483   6.421   2.936   8.652 -2.2421 -2.7449 -0.6708
  154DOPC  C21218484   6.425   3.036   8.460 -0.1094  0.2064 -0.5049
  154DOPC  H12R18485   6.429   2.935   8.414  0.4546  0.6862 -1.5286
  154DOPC  H12S18486   6.523   3.086   8.478  0.4633 -0.5756 -1.3748
  154DOPC  C21318487   6.336   3.132   8.391 -0.7338 -0.5095 -0.1713
  154DOPC  H13R18488   6.319   3.225   8.450  0.6298  0.1131 -0.6987
  154DOPC  H13S18489   6.235   3.088   8.386 -0.3382 -1.4204 -0.2437
  154DOPC  C21418490   6.379   3.160   8.246 -0.8325 -0.2314 -0.2743
  154DOPC  H14R18491   6.482   3.198   8.225 -0.3606  0.2253  2.5515
  154DOPC  H14S18492   6.309   3.242   8.217 -0.3959  1.3335  2.7302
  154DOPC  C21518493   6.371   3.040   8.158  0.6855  0.0610  0.2352
  154DOPC  H15R18494   6.267   2.999   8.160  0.8952 -0.4445  1.0061
  154DOPC  H15S18495   6.434   2.964   8.208  1.0311  0.9613  1.2072
  154DOPC  C21618496   6.408   3.066   8.010 -0.5013  0.2009  0.1815
  154DOPC  H16R18497   6.507   3.117   8.005  1.0189 -2.6216 -0.1441
  154DOPC  H16S18498   6.335   3.142   7.974  0.3865  0.9902 -0.0037
  154DOPC  C21718499   6.415   2.938   7.918 -0.4380 -0.4984 -0.4252
  154DOPC  H17R18500   6.322   2.877   7.916  0.4676 -1.9585  0.6710
  154DOPC  H17S18501   6.503   2.882   7.955  2.1154  3.1801 -0.3770
  154DOPC  C21818502   6.451   2.953   7.773 -0.1497 -0.1495  0.0752
  154DOPC  H18R18503   6.489   2.856   7.734  0.3420  0.5617 -1.2951
  154DOPC  H18S18504   6.523   3.037   7.761 -2.4552  1.8839 -0.4389
  154DOPC  H18T18505   6.361   2.974   7.711  1.3191  3.1635 -1.1750
  154DOPC   C3318506   6.001   3.403   9.191  0.1834  0.5780  0.6004
  154DOPC   H3X18507   6.110   3.415   9.204  0.6803 -1.8153 -0.8637
  154DOPC   H3Y18508   5.944   3.499   9.190 -1.4191 -0.2937  1.9454
  154DOPC   C3418509   5.982   3.319   9.062  0.1206  0.0777 -0.5378
  154DOPC   H4X18510   5.904   3.244   9.085  0.8668 -0.5184  0.1210
  154DOPC   H4Y18511   6.081   3.274   9.037 -0.5479 -1.1094 -1.1212
  154DOPC   C3518512   5.952   3.406   8.943  0.0327  0.0177  0.6676
  154DOPC   H5X18513   6.012   3.494   8.913  1.0192 -1.4964 -2.2606
  154DOPC   H5Y18514   5.845   3.432   8.955 -0.3003 -0.8978 -0.1577
  154DOPC   C3618515   5.974   3.313   8.814 -0.4523  0.0206 -0.0779
  154DOPC   H6X18516   6.073   3.263   8.814 -1.7206 -2.7480 -1.3903
  154DOPC   H6Y18517   5.897   3.233   8.814 -0.1011 -0.3225  0.8399
  154DOPC   C3718518   5.940   3.384   8.684  0.1814 -0.3627 -0.0743
  154DOPC   H7X18519   5.833   3.413   8.673  0.2570 -0.5470 -1.4883
  154DOPC   H7Y18520   6.008   3.471   8.684 -0.3079  0.1626  3.1997
  154DOPC   C3818521   5.975   3.286   8.564  1.1403 -0.0042  0.1077
  154DOPC   H8X18522   5.906   3.199   8.571 -1.7342  2.0109 -1.0404
  154DOPC   H8Y18523   6.080   3.254   8.578  0.4033 -1.6042  2.6670
  154DOPC   C3918524   5.931   3.348   8.434 -0.8026  0.2136 -0.2033
  154DOPC   H9X18525   5.890   3.449   8.448  0.7924  1.1463 -1.8063
  154DOPC  C31018526   5.942   3.292   8.311 -0.8395  0.7141  0.0137
  154DOPC  H10X18527   5.898   3.347   8.226 -3.7062  0.3561  1.1595
  154DOPC  C31118528   5.972   3.144   8.282 -0.8711 -0.0160  0.2596
  154DOPC  H11X18529   5.981   3.088   8.378  0.1223 -0.2558  0.0404
  154DOPC  H11Y18530   6.069   3.132   8.229 -1.6471 -0.2416 -1.1505
  154DOPC  C31218531   5.851   3.085   8.200  0.3177  0.2239 -0.4171
  154DOPC  H12X18532   5.755   3.094   8.255  0.1067  0.2744 -0.7847
  154DOPC  H12Y18533   5.867   2.975   8.193  0.3752  0.2386 -0.5222
  154DOPC  C31318534   5.831   3.143   8.055 -0.1444  0.0988 -0.4105
  154DOPC  H13X18535   5.783   3.240   8.078  1.6175  0.2289  3.5749
  154DOPC  H13Y18536   5.931   3.163   8.011  0.9109  0.0712  1.8391
  154DOPC  C31418537   5.734   3.060   7.956 -0.4596 -0.2350  0.5650
  154DOPC  H14X18538   5.787   2.971   7.915 -0.6745  0.9239 -2.4868
  154DOPC  H14Y18539   5.647   3.039   8.022  0.4731  0.0136  1.9323
  154DOPC  C31518540   5.678   3.122   7.826 -0.7678  0.2289 -0.2031
  154DOPC  H15X18541   5.750   3.198   7.790 -1.1920  0.4302 -0.6388
  154DOPC  H15Y18542   5.587   3.185   7.840 -0.4610  0.3166  1.5771
  154DOPC  C31618543   5.651   3.022   7.711  0.7301  0.2884  0.0744
  154DOPC  H16X18544   5.614   3.073   7.619  1.1355 -2.5015 -1.7712
  154DOPC  H16Y18545   5.758   3.003   7.687  1.0616  0.4939  1.3540
  154DOPC  C31718546   5.566   2.897   7.737 -0.0425 -0.0646  0.2293
  154DOPC  H17X18547   5.577   2.831   7.648  1.1096  2.0152 -1.2555
  154DOPC  H17Y18548   5.603   2.838   7.824 -3.2338 -2.2728  0.2481
  154DOPC  C31818549   5.428   2.945   7.766 -0.7655  0.2240  0.7642
  154DOPC  H18X18550   5.392   3.011   7.683  0.4785  0.3521  0.3015
  154DOPC  H18Y18551   5.356   2.861   7.771 -0.8245  0.1324 -0.8988
  154DOPC  H18Z18552   5.414   3.008   7.856 -1.8201  1.1759 -0.0272
  155DOPC     N18553   0.946   1.406  10.088  0.1826  0.2959 -0.0891
  155DOPC   C1218554   0.859   1.425   9.963  0.1472  0.4210  0.3012
  155DOPC  H12A18555   0.764   1.460  10.003  1.9682  4.3314  1.8306
  155DOPC  H12B18556   0.835   1.335   9.909 -1.5155  0.7677  0.3945
  155DOPC   C1318557   0.876   1.319  10.188 -0.2033  0.2280 -0.0041
  155DOPC  H13A18558   0.781   1.367  10.207 -0.6834 -0.3920 -0.7602
  155DOPC  H13B18559   0.854   1.220  10.151 -0.7295  0.7866 -1.2692
  155DOPC  H13C18560   0.941   1.326  10.274 -1.8628 -0.0930  1.3159
  155DOPC   C1418561   0.983   1.538  10.148  0.6532  0.1782  0.3531
  155DOPC  H14A18562   1.041   1.591  10.072  0.0023  1.0372  0.4354
  155DOPC  H14B18563   0.894   1.596  10.163  0.5125  1.2315 -3.4262
  155DOPC  H14C18564   1.042   1.526  10.238  1.0055 -1.2830 -0.0441
  155DOPC   C1518565   1.077   1.338  10.045  1.2085  0.2121 -0.5950
  155DOPC  H15A18566   1.138   1.410   9.992 -0.1102  1.3327 -0.6473
  155DOPC  H15B18567   1.056   1.247   9.992  0.5331 -1.0200  1.6647
  155DOPC  H15C18568   1.125   1.308  10.138 -1.5081 -1.6773  0.2954
  155DOPC   C1118569   0.900   1.528   9.857 -0.1922  0.3245  0.2785
  155DOPC  H11A18570   1.011   1.527   9.861 -0.1582 -1.7696 -0.3688
  155DOPC  H11B18571   0.875   1.490   9.756  1.6125 -0.8523  0.2239
  155DOPC     P18572   0.719   1.703   9.837 -0.0154  0.4110  0.0268
  155DOPC   O1318573   0.697   1.847   9.874 -0.0483 -0.0086  0.5742
  155DOPC   O1418574   0.613   1.608   9.883 -0.5407  0.0952 -0.5956
  155DOPC   O1218575   0.862   1.661   9.891 -1.0503 -1.1021  0.1240
  155DOPC   O1118576   0.735   1.694   9.677  0.1957  0.5916 -0.9644
  155DOPC    C118577   0.817   1.783   9.609 -0.3179  0.4874 -0.4723
  155DOPC    HA18578   0.924   1.768   9.635 -0.4315  0.2105 -0.1578
  155DOPC    HB18579   0.797   1.887   9.642  3.8466  1.2767  0.1714
  155DOPC    C218580   0.784   1.778   9.462 -0.3087 -0.5470  0.1857
  155DOPC    HS18581   0.834   1.691   9.413  1.3162 -0.7457  2.0985
  155DOPC   O2118582   0.813   1.896   9.393  0.2593  0.1687 -0.3288
  155DOPC   C2118583   0.940   1.897   9.347 -0.9719 -0.3506  0.2352
  155DOPC   O2218584   1.028   1.817   9.378  0.2092  0.1281  0.0847
  155DOPC   C2218585   0.955   2.022   9.256 -0.3142  0.5806 -0.5914
  155DOPC   H2R18586   1.062   2.045   9.234  0.1384 -0.9455 -0.1275
  155DOPC   H2S18587   0.919   2.112   9.312  1.7301  1.4031 -0.5153
  155DOPC    C318588   0.633   1.762   9.449 -0.0368  0.0001 -0.2072
  155DOPC    HX18589   0.570   1.841   9.493  1.3342  0.5910  0.7595
  155DOPC    HY18590   0.612   1.662   9.492 -0.4093  0.6923  1.2881
  155DOPC   O3118591   0.592   1.775   9.315  0.0889  0.3591  0.0542
  155DOPC   C3118592   0.625   1.673   9.234  0.2387 -0.5098 -0.3901
  155DOPC   O3218593   0.680   1.568   9.267  0.5629 -0.2066  0.1847
  155DOPC   C3218594   0.598   1.717   9.092 -0.1303  0.2635 -0.6319
  155DOPC   H2X18595   0.521   1.797   9.089 -1.6383 -1.0490  0.8724
  155DOPC   H2Y18596   0.698   1.744   9.051  0.3443 -0.2491  0.1426
  155DOPC   C2318597   0.881   1.992   9.125 -0.8637  0.1335 -0.6443
  155DOPC   H3R18598   0.859   2.092   9.082  1.4771  1.3909  0.8493
  155DOPC   H3S18599   0.789   1.934   9.146  0.1536 -1.6951 -1.0149
  155DOPC   C2418600   0.973   1.924   9.030 -0.2275 -0.2208 -0.3038
  155DOPC   H4R18601   1.014   1.826   9.064  1.8382  0.4886 -0.5733
  155DOPC   H4S18602   1.063   1.990   9.025 -0.5452  0.5834  2.8935
  155DOPC   C2518603   0.913   1.900   8.889 -0.0186  0.2183  0.1070
  155DOPC   H5R18604   0.870   1.989   8.839 -1.4355 -0.7030 -0.3691
  155DOPC   H5S18605   0.830   1.830   8.912  0.9450 -0.3139  2.2918
  155DOPC   C2618606   1.007   1.827   8.792 -0.1375  0.4290  0.3477
  155DOPC   H6R18607   0.945   1.810   8.702 -0.4012  0.6254  0.4908
  155DOPC   H6S18608   1.038   1.734   8.844  2.8983  1.7798  1.2152
  155DOPC   C2718609   1.123   1.910   8.745  1.2885 -0.5600  0.4517
  155DOPC   H7R18610   1.179   1.976   8.815  0.7642  0.4588 -0.0672
  155DOPC   H7S18611   1.077   1.983   8.675  1.8716 -0.6731 -0.0578
  155DOPC   C2818612   1.230   1.839   8.677 -0.5119 -0.5901  0.4606
  155DOPC   H8R18613   1.208   1.741   8.630  1.3678 -0.0974 -1.6062
  155DOPC   H8S18614   1.312   1.814   8.747  1.9602  0.3978 -1.9158
  155DOPC   C2918615   1.291   1.937   8.568  0.3859  0.9774  0.0060
  155DOPC   H9R18616   1.371   2.000   8.610 -0.1052  0.2471  2.1321
  155DOPC  C21018617   1.237   1.968   8.451 -0.4547  0.3254  0.4429
  155DOPC  H10R18618   1.298   2.030   8.383 -2.4340  0.0991 -1.6580
  155DOPC  C21118619   1.127   1.905   8.373 -0.4736 -0.3190 -0.2123
  155DOPC  H11R18620   1.079   1.975   8.301 -0.8448 -0.4156 -0.0630
  155DOPC  H11S18621   1.043   1.868   8.436 -0.9815 -0.4211 -0.9469
  155DOPC  C21218622   1.181   1.793   8.290 -0.7481  0.3974  0.3871
  155DOPC  H12R18623   1.093   1.729   8.265  0.3794 -1.0901  0.0931
  155DOPC  H12S18624   1.249   1.735   8.355 -0.9815 -0.7540 -0.3639
  155DOPC  C21318625   1.245   1.840   8.151  0.1995  0.2374 -0.3782
  155DOPC  H13R18626   1.265   1.749   8.090  1.0484  0.3216 -0.2400
  155DOPC  H13S18627   1.346   1.886   8.164 -0.2901  1.1776  0.1924
  155DOPC  C21418628   1.156   1.940   8.062  0.0643 -0.0819 -0.2521
  155DOPC  H14R18629   1.182   2.041   8.099  1.6387 -0.0630 -1.3355
  155DOPC  H14S18630   1.050   1.907   8.057  0.5856 -1.9616  0.0702
  155DOPC  C21518631   1.209   1.927   7.914 -0.3845 -0.2053 -0.7463
  155DOPC  H15R18632   1.174   1.825   7.890 -0.7958 -0.5532  1.1372
  155DOPC  H15S18633   1.320   1.936   7.912 -0.5512  2.6678 -2.3718
  155DOPC  C21618634   1.159   2.039   7.823  0.2240 -0.0265  0.2568
  155DOPC  H16R18635   1.189   2.138   7.864 -0.2733  0.3352 -0.2251
  155DOPC  H16S18636   1.048   2.035   7.818  0.0485  1.9307  1.5605
  155DOPC  C21718637   1.222   2.043   7.681  0.8813 -0.1858 -0.1346
  155DOPC  H17R18638   1.329   2.014   7.681  0.6378 -1.1474 -0.1804
  155DOPC  H17S18639   1.213   2.146   7.640  0.0935 -0.1806  0.0453
  155DOPC  C21818640   1.156   1.941   7.587  0.3449  0.9444 -0.2126
  155DOPC  H18R18641   1.218   1.944   7.495  0.9218  0.9505  0.1700
  155DOPC  H18S18642   1.053   1.970   7.557 -0.0211  1.5026  1.4855
  155DOPC  H18T18643   1.162   1.838   7.628  1.9805  1.0385 -0.1564
  155DOPC   C3318644   0.539   1.612   8.992 -0.6609  0.0610 -1.0235
  155DOPC   H3X18645   0.435   1.586   9.021  0.2508 -1.1578  1.4388
  155DOPC   H3Y18646   0.599   1.520   9.010  1.2879  0.5606 -4.1331
  155DOPC   C3418647   0.542   1.645   8.847 -0.6418 -0.2383  0.2613
  155DOPC   H4X18648   0.646   1.658   8.811 -1.2106  3.2510 -0.5744
  155DOPC   H4Y18649   0.481   1.737   8.827  0.3682  0.5562  0.7613
  155DOPC   C3518650   0.492   1.545   8.749 -0.2394  0.7486  0.1276
  155DOPC   H5X18651   0.386   1.527   8.778  0.0053  1.5711  1.6534
  155DOPC   H5Y18652   0.548   1.451   8.764 -1.3081 -0.1281 -1.1424
  155DOPC   C3618653   0.483   1.594   8.605  0.2073 -0.2107 -0.2209
  155DOPC   H6X18654   0.413   1.679   8.615 -0.4330 -0.7970  0.4010
  155DOPC   H6Y18655   0.589   1.616   8.578  1.3759 -2.3925  2.1349
  155DOPC   C3718656   0.423   1.489   8.518 -0.1168 -0.0745  0.0033
  155DOPC   H7X18657   0.505   1.415   8.503  0.5609  0.6953 -0.1600
  155DOPC   H7Y18658   0.333   1.446   8.567  0.8400 -0.6279  1.3257
  155DOPC   C3818659   0.378   1.536   8.383  0.0660  0.2164 -0.2044
  155DOPC   H8X18660   0.456   1.601   8.338 -0.7862  0.4048 -1.4716
  155DOPC   H8Y18661   0.290   1.601   8.399 -0.3878  0.2386 -2.4118
  155DOPC   C3918662   0.329   1.426   8.293  0.0917  0.0615 -0.1442
  155DOPC   H9X18663   0.284   1.342   8.348 -0.1764 -0.8069 -1.6565
  155DOPC  C31018664   0.353   1.418   8.157 -0.5226 -0.2066  0.0287
  155DOPC  H10X18665   0.290   1.344   8.104  0.7673 -0.8300 -0.6896
  155DOPC  C31118666   0.431   1.515   8.067  1.2272  0.5656 -0.9258
  155DOPC  H11X18667   0.517   1.464   8.020 -0.0643 -1.8800 -0.8152
  155DOPC  H11Y18668   0.471   1.598   8.130 -0.1155  0.6081 -0.0815
  155DOPC  C31218669   0.341   1.567   7.957  0.6031  0.0406 -0.4525
  155DOPC  H12X18670   0.376   1.657   7.901  0.1676  0.7572  0.4066
  155DOPC  H12Y18671   0.246   1.595   8.006  1.0381  0.4699  0.1700
  155DOPC  C31318672   0.304   1.454   7.858  0.0139  0.0076  0.2078
  155DOPC  H13X18673   0.275   1.362   7.912 -1.4738  1.5349  2.1883
  155DOPC  H13Y18674   0.221   1.485   7.791  2.0077  1.0060 -1.9425
  155DOPC  C31418675   0.423   1.433   7.766 -0.1749 -0.1331 -0.0643
  155DOPC  H14X18676   0.461   1.530   7.727 -1.5317 -0.5486 -2.6387
  155DOPC  H14Y18677   0.491   1.375   7.832 -0.4998  0.8292  1.1696
  155DOPC  C31518678   0.399   1.349   7.646 -0.9880  0.2390  0.1944
  155DOPC  H15X18679   0.339   1.405   7.571 -1.5915 -1.1859 -0.4236
  155DOPC  H15Y18680   0.330   1.263   7.666  0.5602 -2.0539 -3.3372
  155DOPC  C31618681   0.528   1.304   7.580  0.1577 -0.3878 -0.7936
  155DOPC  H16X18682   0.590   1.390   7.547 -1.1484 -0.4785 -3.8836
  155DOPC  H16Y18683   0.577   1.253   7.665 -0.1572 -1.7567 -1.4137
  155DOPC  C31718684   0.522   1.219   7.457  0.2475  0.7165 -0.1361
  155DOPC  H17X18685   0.474   1.128   7.498  0.4428  1.4842  1.8725
  155DOPC  H17Y18686   0.442   1.258   7.390 -1.2416 -1.1566  0.4671
  155DOPC  C31818687   0.654   1.185   7.396 -0.2244  0.3602 -0.1196
  155DOPC  H18X18688   0.648   1.108   7.316  0.0982 -0.6883  0.8398
  155DOPC  H18Y18689   0.707   1.274   7.357 -0.3990  0.4451 -0.1610
  155DOPC  H18Z18690   0.712   1.151   7.485 -0.1132  2.2586  0.5841
  156DOPC     N18691   5.865   5.099  10.482 -0.2145  0.1712 -0.3609
  156DOPC   C1218692   5.906   5.118  10.337  0.6175 -0.0145 -0.0557
  156DOPC  H12A18693   5.997   5.063  10.322  0.6066  0.0901 -0.5126
  156DOPC  H12B18694   5.937   5.221  10.325 -0.8129  0.5982  1.1203
  156DOPC   C1318695   5.846   4.956  10.525 -0.0242  0.1962  0.1924
  156DOPC  H13A18696   5.769   4.917  10.460  0.9048  1.4287 -1.7364
  156DOPC  H13B18697   5.935   4.899  10.506  0.6834  1.1074  0.7050
  156DOPC  H13C18698   5.815   4.947  10.628 -0.4358 -3.0081 -0.1231
  156DOPC   C1418699   5.733   5.164  10.515 -0.1460  0.1043 -0.6542
  156DOPC  H14A18700   5.717   5.154  10.621 -0.9981 -1.5018 -0.8989
  156DOPC  H14B18701   5.742   5.265  10.477 -2.1426 -0.0688 -1.7404
  156DOPC  H14C18702   5.647   5.113  10.473 -0.3462  0.5197 -0.7459
  156DOPC   C1518703   5.978   5.156  10.562  0.3288 -0.3243  0.1495
  156DOPC  H15A18704   6.064   5.092  10.555  1.8414  1.5524  0.6995
  156DOPC  H15B18705   5.957   5.157  10.668 -1.4048  0.4419 -0.1642
  156DOPC  H15C18706   6.010   5.253  10.526  2.4260 -1.3379 -0.8341
  156DOPC   C1118707   5.805   5.092  10.229 -0.6328 -0.9552  0.3715
  156DOPC  H11A18708   5.715   5.157  10.237 -1.3907 -1.6194 -1.8916
  156DOPC  H11B18709   5.842   5.125  10.129 -2.2217  1.2740  0.4526
  156DOPC     P18710   5.616   4.902  10.223 -0.1611  0.3189  0.1581
  156DOPC   O1318711   5.556   4.935  10.353 -0.0874  0.5310  0.2945
  156DOPC   O1418712   5.628   4.760  10.194  0.0452  0.7116 -0.2051
  156DOPC   O1218713   5.759   4.957  10.221 -0.4477 -0.2683  0.0207
  156DOPC   O1118714   5.549   4.977  10.092 -0.2278  0.0345 -0.5485
  156DOPC    C118715   5.602   4.923   9.965  0.2985 -0.8365 -0.6216
  156DOPC    HA18716   5.528   4.847   9.932 -1.3187 -0.0701  1.0387
  156DOPC    HB18717   5.700   4.874   9.980  0.9874  1.2240  2.4897
  156DOPC    C218718   5.590   5.036   9.861  0.1443  0.2967 -0.3550
  156DOPC    HS18719   5.487   5.077   9.865 -0.4710 -1.3096  2.6860
  156DOPC   O2118720   5.620   4.975   9.732  0.9217  0.4736 -0.2238
  156DOPC   C2118721   5.530   4.936   9.645 -0.4242  0.2687 -0.8552
  156DOPC   O2218722   5.405   4.930   9.664 -0.2717 -0.5186  0.1172
  156DOPC   C2218723   5.605   4.872   9.532  0.1499 -0.7334  0.7180
  156DOPC   H2R18724   5.635   4.768   9.555  0.1105 -0.8546  0.2373
  156DOPC   H2S18725   5.697   4.927   9.503 -0.7387  0.3583 -0.1306
  156DOPC    C318726   5.696   5.147   9.872  0.5180  0.8138 -0.5747
  156DOPC    HX18727   5.797   5.107   9.848  0.4685 -0.4547  1.2078
  156DOPC    HY18728   5.691   5.173   9.980 -1.1253  4.1332 -1.3072
  156DOPC   O3118729   5.676   5.265   9.793  0.3367 -0.1957 -0.7312
  156DOPC   C3118730   5.577   5.351   9.813  0.6395 -0.5540  0.4410
  156DOPC   O3218731   5.493   5.340   9.904 -0.3961 -0.1674  0.2045
  156DOPC   C3218732   5.583   5.477   9.719  0.7698  1.2197  0.3654
  156DOPC   H2X18733   5.636   5.564   9.762  0.7328  0.5821  1.7622
  156DOPC   H2Y18734   5.648   5.442   9.636  0.9198 -0.7174  1.2491
  156DOPC   C2318735   5.527   4.874   9.399  0.3545 -0.2135  0.4440
  156DOPC   H3R18736   5.480   4.968   9.365  1.2663 -0.4366 -1.5531
  156DOPC   H3S18737   5.446   4.800   9.415  1.4712 -1.1219  2.3536
  156DOPC   C2418738   5.617   4.826   9.289 -0.1004  0.6594  0.7883
  156DOPC   H4R18739   5.668   4.727   9.294 -0.4628  0.3845 -0.5177
  156DOPC   H4S18740   5.699   4.901   9.279  1.5023 -0.7058  2.7911
  156DOPC   C2518741   5.556   4.824   9.148  0.6419 -0.2431 -0.2851
  156DOPC   H5R18742   5.521   4.927   9.125  0.0886 -0.3807 -0.0698
  156DOPC   H5S18743   5.467   4.758   9.150  2.3612 -2.6486  0.5652
  156DOPC   C2618744   5.649   4.770   9.044 -0.4319 -0.0695  0.0001
  156DOPC   H6R18745   5.691   4.672   9.076  1.2963  0.7554  0.4054
  156DOPC   H6S18746   5.737   4.836   9.032 -0.7333  0.3648  0.1736
  156DOPC   C2718747   5.582   4.743   8.906 -0.0917  0.1610  0.7007
  156DOPC   H7R18748   5.498   4.675   8.932 -0.0261  0.1529  0.8907
  156DOPC   H7S18749   5.657   4.687   8.845 -1.1535  0.1085 -0.6052
  156DOPC   C2818750   5.536   4.866   8.823 -0.5420  0.0308 -1.0808
  156DOPC   H8R18751   5.614   4.940   8.793 -0.0315  0.0421  0.2032
  156DOPC   H8S18752   5.485   4.925   8.902  0.5580 -2.6600  1.8325
  156DOPC   C2918753   5.450   4.824   8.705  0.4212 -0.5081 -0.0046
  156DOPC   H9R18754   5.343   4.804   8.720  0.7464 -1.9236  0.5629
  156DOPC  C21018755   5.494   4.789   8.583 -0.0611  0.0646 -0.0505
  156DOPC  H10R18756   5.417   4.762   8.509 -0.4137  1.9695 -0.4056
  156DOPC  C21118757   5.641   4.794   8.537  0.1415 -0.5285  0.6747
  156DOPC  H11R18758   5.689   4.705   8.582 -1.4797 -1.1640  1.2157
  156DOPC  H11S18759   5.692   4.889   8.566 -0.1601  0.6291 -2.2193
  156DOPC  C21218760   5.641   4.784   8.383  0.5918  0.0537 -0.3325
  156DOPC  H12R18761   5.576   4.698   8.355 -1.3529  1.3152  0.1558
  156DOPC  H12S18762   5.748   4.760   8.361  1.1815  2.4226 -0.2571
  156DOPC  C21318763   5.582   4.896   8.297 -0.0310 -0.2807  0.4061
  156DOPC  H13R18764   5.625   4.995   8.325 -0.3666  0.0178 -0.1146
  156DOPC  H13S18765   5.473   4.902   8.318 -0.2130  0.9297 -0.7788
  156DOPC  C21418766   5.602   4.880   8.146  0.8491  0.1179 -1.0031
  156DOPC  H14R18767   5.578   4.979   8.102  0.7768  0.0886 -1.0286
  156DOPC  H14S18768   5.546   4.792   8.107 -1.2591 -0.9831  3.7333
  156DOPC  C21518769   5.752   4.858   8.108  0.5461 -0.4351  0.6150
  156DOPC  H15R18770   5.791   4.762   8.148 -0.7461 -1.7410 -1.0405
  156DOPC  H15S18771   5.816   4.937   8.152 -0.2747  0.3710  0.3893
  156DOPC  C21618772   5.778   4.848   7.954 -0.3288 -0.7803  0.3370
  156DOPC  H16R18773   5.883   4.865   7.924 -0.2394 -2.4209 -0.3650
  156DOPC  H16S18774   5.717   4.924   7.901  1.1786  1.0476  1.1155
  156DOPC  C21718775   5.752   4.715   7.890 -0.1357  0.1633  0.5165
  156DOPC  H17R18776   5.649   4.682   7.914 -0.8239 -0.5894 -2.9092
  156DOPC  H17S18777   5.827   4.649   7.938  0.3158  2.0570  2.5581
  156DOPC  C21818778   5.762   4.701   7.734  0.3387 -0.8468  0.6586
  156DOPC  H18R18779   5.689   4.764   7.679  0.4950 -0.0499  1.3444
  156DOPC  H18S18780   5.732   4.598   7.705 -0.1610 -0.6709  0.5469
  156DOPC  H18T18781   5.862   4.731   7.698 -0.1708  0.6252  0.4108
  156DOPC   C3318782   5.447   5.541   9.672 -0.4873 -0.2178  0.0847
  156DOPC   H3X18783   5.471   5.633   9.614 -1.2211 -0.4138 -0.5439
  156DOPC   H3Y18784   5.396   5.579   9.762 -0.2827 -1.9571  0.9855
  156DOPC   C3418785   5.364   5.443   9.591  0.1785 -0.0950  1.0986
  156DOPC   H4X18786   5.270   5.493   9.557 -0.4144 -2.1823 -0.5628
  156DOPC   H4Y18787   5.331   5.356   9.652 -0.7330 -0.9041 -0.4606
  156DOPC   C3518788   5.435   5.404   9.461 -0.0756  0.2873  0.0419
  156DOPC   H5X18789   5.528   5.352   9.491 -1.1283  0.1350  3.4143
  156DOPC   H5Y18790   5.456   5.494   9.399 -2.1871 -1.5367 -3.7148
  156DOPC   C3618791   5.351   5.313   9.376  0.0590 -0.1983  0.3920
  156DOPC   H6X18792   5.315   5.240   9.452 -1.3947  0.5751  0.4760
  156DOPC   H6Y18793   5.262   5.366   9.338 -0.2411 -2.0430 -1.7229
  156DOPC   C3718794   5.425   5.246   9.257 -0.2413  0.1918  0.1957
  156DOPC   H7X18795   5.526   5.214   9.290  1.2439  1.2234 -2.9098
  156DOPC   H7Y18796   5.363   5.156   9.237  0.8527 -1.1581  2.4902
  156DOPC   C3818797   5.445   5.334   9.128  0.2077  0.1807  0.0419
  156DOPC   H8X18798   5.497   5.427   9.159 -1.3799  2.4037 -3.4220
  156DOPC   H8Y18799   5.343   5.356   9.090  0.5285  0.0178 -0.9277
  156DOPC   C3918800   5.521   5.264   9.018 -0.0622  0.1676  0.1005
  156DOPC   H9X18801   5.609   5.206   9.051 -0.6636 -0.2317  1.0320
  156DOPC  C31018802   5.505   5.277   8.886  0.5572  0.4615 -0.1540
  156DOPC  H10X18803   5.569   5.221   8.816  0.1279 -2.9895  1.9492
  156DOPC  C31118804   5.400   5.355   8.819  0.1008  0.0348 -0.3457
  156DOPC  H11X18805   5.427   5.444   8.758  0.4125 -0.9805 -1.7513
  156DOPC  H11Y18806   5.335   5.398   8.897 -0.5430  1.5982 -1.6840
  156DOPC  C31218807   5.311   5.253   8.746  0.4120  0.5103  0.4125
  156DOPC  H12X18808   5.217   5.306   8.718  0.1842 -0.7030 -1.2658
  156DOPC  H12Y18809   5.294   5.159   8.802 -2.3767 -0.2567 -1.5349
  156DOPC  C31318810   5.372   5.215   8.612 -0.8636 -0.1570 -0.5576
  156DOPC  H13X18811   5.468   5.161   8.626 -0.9963 -0.3051 -0.1967
  156DOPC  H13Y18812   5.308   5.141   8.560 -1.0292  1.1161 -2.2818
  156DOPC  C31418813   5.414   5.329   8.517 -0.6339  0.1279  0.1915
  156DOPC  H14X18814   5.333   5.405   8.528 -1.3351 -0.6690  0.6696
  156DOPC  H14Y18815   5.504   5.383   8.553 -1.0992  0.5443  0.7625
  156DOPC  C31518816   5.434   5.282   8.377  0.0278 -0.1471 -0.1905
  156DOPC  H15X18817   5.352   5.209   8.357  0.8719 -1.5903  1.3347
  156DOPC  H15Y18818   5.533   5.233   8.368  0.0396 -0.9369  2.9367
  156DOPC  C31618819   5.427   5.390   8.278 -1.0945 -0.1064  0.4253
  156DOPC  H16X18820   5.324   5.432   8.288 -0.3287  1.3896  2.9163
  156DOPC  H16Y18821   5.510   5.461   8.298  0.3229 -0.6277 -3.0036
  156DOPC  C31718822   5.439   5.345   8.133 -0.3746 -0.1273  0.1110
  156DOPC  H17X18823   5.514   5.264   8.138  0.4566 -0.0397 -5.3157
  156DOPC  H17Y18824   5.343   5.299   8.101  0.5714 -0.1478 -3.0224
  156DOPC  C31818825   5.475   5.459   8.036  0.4417 -0.5633  0.2142
  156DOPC  H18X18826   5.507   5.419   7.937  1.2572  1.9609 -0.6020
  156DOPC  H18Y18827   5.389   5.530   8.031  0.6105 -0.2955  0.9625
  156DOPC  H18Z18828   5.549   5.528   8.081 -1.6260 -0.1928  3.3844
  157DOPC     N18829   5.369   1.216  10.368 -0.1595 -0.0331 -0.2198
  157DOPC   C1218830   5.229   1.270  10.342  0.3760 -0.0853  0.4898
  157DOPC  H12A18831   5.219   1.376  10.359 -1.5784 -0.3543  1.2786
  157DOPC  H12B18832   5.165   1.233  10.421 -0.4848  1.7360  0.6989
  157DOPC   C1318833   5.378   1.067  10.348  0.0646  0.5870 -0.3743
  157DOPC  H13A18834   5.465   1.013  10.380 -0.1141 -0.7581 -2.0202
  157DOPC  H13B18835   5.292   1.020  10.394 -0.5363  2.2110  0.2666
  157DOPC  H13C18836   5.367   1.053  10.241  2.1046  0.8635 -0.6577
  157DOPC   C1418837   5.405   1.245  10.508 -0.2186 -0.7208 -0.4182
  157DOPC  H14A18838   5.367   1.176  10.582  1.9268 -1.8445 -0.3089
  157DOPC  H14B18839   5.511   1.229  10.515 -0.0144  0.6298 -0.0734
  157DOPC  H14C18840   5.389   1.344  10.549 -0.1929 -1.3597  1.1828
  157DOPC   C1518841   5.476   1.283  10.280 -0.7095 -0.4892 -0.3779
  157DOPC  H15A18842   5.483   1.384  10.318 -1.2198 -1.0075  1.1502
  157DOPC  H15B18843   5.448   1.285  10.176 -1.0984  0.3745 -0.2646
  157DOPC  H15C18844   5.568   1.227  10.289 -0.5307 -0.4436 -1.7503
  157DOPC   C1118845   5.174   1.255  10.193 -0.7666 -0.8051 -0.1436
  157DOPC  H11A18846   5.192   1.147  10.170 -1.1302 -0.3158 -3.0637
  157DOPC  H11B18847   5.065   1.274  10.187 -0.4198  0.9620 -1.7718
  157DOPC     P18848   5.204   1.484  10.081  0.0404 -0.4546  0.0657
  157DOPC   O1318849   5.311   1.557  10.008  0.3663 -0.3583  0.1269
  157DOPC   O1418850   5.157   1.537  10.214  0.4020  0.5058  0.2258
  157DOPC   O1218851   5.252   1.334  10.102 -0.4786 -0.2406  0.3366
  157DOPC   O1118852   5.089   1.450   9.984  0.2609  0.4929  0.0093
  157DOPC    C118853   5.099   1.361   9.870 -0.3074 -0.0013  0.2833
  157DOPC    HA18854   5.000   1.330   9.829 -1.0068  0.4094  1.5926
  157DOPC    HB18855   5.146   1.264   9.898 -0.2077 -0.6680 -2.0480
  157DOPC    C218856   5.187   1.412   9.748 -0.2978 -0.3298 -0.0664
  157DOPC    HS18857   5.258   1.490   9.786 -0.0090 -1.6632  2.3616
  157DOPC   O2118858   5.092   1.476   9.656 -0.1076 -0.0724  0.2667
  157DOPC   C2118859   5.154   1.558   9.570  0.8236  0.4758 -0.3680
  157DOPC   O2218860   5.242   1.635   9.599 -0.2220  0.1984  0.9780
  157DOPC   C2218861   5.083   1.544   9.432 -0.2404 -0.0746  0.0878
  157DOPC   H2R18862   4.974   1.548   9.450  0.0498  0.1369  2.0928
  157DOPC   H2S18863   5.115   1.444   9.395 -1.1418 -0.6411  0.8205
  157DOPC    C318864   5.262   1.302   9.678  0.3440 -0.2671  0.5577
  157DOPC    HX18865   5.179   1.230   9.665  0.6596 -0.4053 -0.8951
  157DOPC    HY18866   5.342   1.263   9.744  3.1447  2.2179 -1.0819
  157DOPC   O3118867   5.309   1.337   9.548  0.1674  0.8055 -0.0859
  157DOPC   C3118868   5.433   1.385   9.549  0.5228 -0.2112  0.7088
  157DOPC   O3218869   5.497   1.409   9.645  0.1827 -0.6897 -0.0799
  157DOPC   C3218870   5.491   1.399   9.404 -0.1674  0.4930 -0.1002
  157DOPC   H2X18871   5.520   1.293   9.387 -2.2237 -0.0165 -0.7364
  157DOPC   H2Y18872   5.412   1.415   9.327 -0.5002  0.3799  0.2162
  157DOPC   C2318873   5.139   1.647   9.332  0.1892 -0.2496 -0.6071
  157DOPC   H3R18874   5.250   1.637   9.340  0.1537  0.7635  3.0294
  157DOPC   H3S18875   5.113   1.741   9.383 -1.0627 -0.2387 -1.2301
  157DOPC   C2418876   5.093   1.655   9.186  0.0768  0.5177 -0.2685
  157DOPC   H4R18877   5.087   1.761   9.153  0.8846  0.8466  0.5905
  157DOPC   H4S18878   4.988   1.622   9.188  0.5576 -1.0232  0.7232
  157DOPC   C2518879   5.162   1.577   9.081 -0.6201  0.2019 -0.6413
  157DOPC   H5R18880   5.128   1.471   9.078 -0.1536  0.0674 -1.6314
  157DOPC   H5S18881   5.272   1.577   9.098 -0.9285  0.4072  1.6566
  157DOPC   C2618882   5.143   1.636   8.944  0.1398  0.2977  0.0680
  157DOPC   H6R18883   5.204   1.582   8.869  1.6951  0.1441  1.3800
  157DOPC   H6S18884   5.185   1.739   8.946  2.1045 -0.4100  2.9871
  157DOPC   C2718885   4.994   1.643   8.902 -0.3658  0.0280 -0.2141
  157DOPC   H7R18886   4.978   1.745   8.862  1.6256  0.1479 -0.7782
  157DOPC   H7S18887   4.919   1.622   8.981  0.8176  1.6346  1.3895
  157DOPC   C2818888   4.963   1.542   8.785  0.0496  0.5650 -0.4966
  157DOPC   H8R18889   4.859   1.504   8.797  0.3212  0.0413  0.2483
  157DOPC   H8S18890   5.018   1.446   8.800  2.8838  1.9564 -1.2299
  157DOPC   C2918891   4.991   1.608   8.649  0.2736  0.1301  0.0175
  157DOPC   H9R18892   4.953   1.710   8.631  0.1226  0.2500  0.9594
  157DOPC  C21018893   5.015   1.550   8.528  0.1542  0.1855  0.2885
  157DOPC  H10R18894   5.024   1.619   8.443  0.4698  0.2163  0.3440
  157DOPC  C21118895   5.031   1.407   8.508  0.6821 -0.8229 -0.4040
  157DOPC  H11R18896   4.930   1.370   8.479 -0.2073 -0.2396  1.7051
  157DOPC  H11S18897   5.061   1.362   8.605  0.3224 -0.2365 -0.0168
  157DOPC  C21218898   5.126   1.355   8.394  0.4903 -0.8366 -0.6220
  157DOPC  H12R18899   5.117   1.244   8.386 -0.9884 -0.7006 -1.2186
  157DOPC  H12S18900   5.225   1.371   8.440 -1.3487  1.8627  2.8662
  157DOPC  C21318901   5.105   1.422   8.260 -0.1398 -0.0901  0.3762
  157DOPC  H13R18902   5.199   1.396   8.206 -0.6076  0.0206 -0.5206
  157DOPC  H13S18903   5.109   1.531   8.276 -0.9510 -0.1527  1.0910
  157DOPC  C21418904   4.977   1.398   8.183 -0.3812 -0.2156 -0.0009
  157DOPC  H14R18905   4.985   1.448   8.083 -0.1683 -0.1533  0.0480
  157DOPC  H14S18906   4.884   1.439   8.229 -1.8912 -0.8859 -2.2456
  157DOPC  C21518907   4.951   1.244   8.165  0.1230  0.1683  0.1233
  157DOPC  H15R18908   4.853   1.248   8.112  1.7773  1.6389 -3.1331
  157DOPC  H15S18909   4.950   1.208   8.270  0.0058 -1.3546 -0.3800
  157DOPC  C21618910   5.051   1.168   8.075 -0.5686  0.3902  0.4954
  157DOPC  H16R18911   5.156   1.189   8.106  1.0026 -0.2154 -3.7275
  157DOPC  H16S18912   5.043   1.217   7.976 -3.0625  1.0522  0.9607
  157DOPC  C21718913   5.008   1.020   8.064 -0.3158  0.0085 -0.0129
  157DOPC  H17R18914   5.085   0.976   7.998 -0.2741 -0.6989  0.4979
  157DOPC  H17S18915   4.902   1.025   8.029 -1.5383 -1.3337  3.0829
  157DOPC  C21818916   5.005   0.940   8.197  0.1832 -0.7682  0.7599
  157DOPC  H18R18917   4.931   0.984   8.267  1.5972  0.2833  1.6444
  157DOPC  H18S18918   5.107   0.945   8.241  0.4111 -1.0912  0.2728
  157DOPC  H18T18919   4.981   0.834   8.177  1.4895 -0.6977 -1.4904
  157DOPC   C3318920   5.600   1.509   9.379 -0.1544  0.2461 -0.8027
  157DOPC   H3X18921   5.672   1.489   9.462 -1.1325 -0.5202 -0.1137
  157DOPC   H3Y18922   5.558   1.611   9.389  0.2821  0.3277  0.3833
  157DOPC   C3418923   5.667   1.510   9.243  0.4758 -0.1667  1.1105
  157DOPC   H4X18924   5.709   1.411   9.217  1.3399  0.3103  0.6563
  157DOPC   H4Y18925   5.753   1.580   9.241 -0.0571  0.5545 -2.1661
  157DOPC   C3518926   5.563   1.550   9.132  0.3945 -0.5958 -0.1130
  157DOPC   H5X18927   5.518   1.648   9.159 -1.3196 -1.8071  1.7089
  157DOPC   H5Y18928   5.479   1.478   9.141 -0.0756 -0.0664 -0.2326
  157DOPC   C3618929   5.617   1.544   8.991  0.1280  0.6661  0.1440
  157DOPC   H6X18930   5.687   1.628   8.971  0.7890 -0.2591 -1.6990
  157DOPC   H6Y18931   5.672   1.449   8.975 -1.4781  0.0432 -2.3461
  157DOPC   C3718932   5.510   1.553   8.885 -0.4846  1.0478 -0.3462
  157DOPC   H7X18933   5.457   1.457   8.901  0.5496  0.7435  1.6230
  157DOPC   H7Y18934   5.443   1.641   8.900 -0.0854  1.3695 -0.4328
  157DOPC   C3818935   5.567   1.553   8.748  0.8413 -0.5527  0.4550
  157DOPC   H8X18936   5.622   1.458   8.733  1.4276  0.0871 -1.8584
  157DOPC   H8Y18937   5.648   1.628   8.741  0.5010 -0.1649  0.6221
  157DOPC   C3918938   5.465   1.582   8.634  0.1244  0.4409 -0.0627
  157DOPC   H9X18939   5.417   1.681   8.641  1.4923  1.1565 -0.4701
  157DOPC  C31018940   5.449   1.522   8.513 -0.6708 -0.3178  0.3782
  157DOPC  H10X18941   5.368   1.562   8.451 -1.4731  1.8101  2.6531
  157DOPC  C31118942   5.536   1.415   8.449  0.3723 -0.1545 -0.4090
  157DOPC  H11X18943   5.470   1.333   8.413 -1.0109  1.2330 -1.1435
  157DOPC  H11Y18944   5.601   1.378   8.531 -1.5160 -0.9150  0.8060
  157DOPC  C31218945   5.630   1.463   8.336  0.5750  0.4229  0.0300
  157DOPC  H12X18946   5.701   1.379   8.318  1.9481  1.4677  0.3814
  157DOPC  H12Y18947   5.701   1.542   8.365  0.8951 -0.3455  1.4232
  157DOPC  C31318948   5.550   1.496   8.215  0.2778  0.2908 -0.3743
  157DOPC  H13X18949   5.461   1.558   8.240  0.7072  0.4887  0.7140
  157DOPC  H13Y18950   5.623   1.545   8.147  0.2376  0.6922 -0.1317
  157DOPC  C31418951   5.506   1.363   8.139 -0.7750 -0.1478 -0.2384
  157DOPC  H14X18952   5.589   1.292   8.122 -0.2272  0.4210  0.0111
  157DOPC  H14Y18953   5.427   1.306   8.193 -2.1196  2.2824  0.5358
  157DOPC  C31518954   5.450   1.399   7.999 -0.0946  0.4703 -0.2013
  157DOPC  H15X18955   5.526   1.453   7.939  0.8829 -0.9294 -0.2652
  157DOPC  H15Y18956   5.355   1.457   7.995 -1.5051 -1.6802  0.3552
  157DOPC  C31618957   5.426   1.271   7.915 -0.8504 -0.3666 -0.2459
  157DOPC  H16X18958   5.524   1.222   7.897 -0.5104  0.5148 -0.8691
  157DOPC  H16Y18959   5.355   1.202   7.965 -0.5348 -0.5956 -0.1064
  157DOPC  C31718960   5.375   1.290   7.775  0.5989 -0.5977 -0.1224
  157DOPC  H17X18961   5.461   1.329   7.717  1.6952 -0.5532  1.4904
  157DOPC  H17Y18962   5.340   1.197   7.724 -5.1391  1.8750 -1.5064
  157DOPC  C31818963   5.246   1.371   7.754 -0.1826  0.0750 -0.1220
  157DOPC  H18X18964   5.175   1.351   7.837  0.4729 -1.7405  0.0441
  157DOPC  H18Y18965   5.260   1.481   7.744  0.2185  0.0129 -0.2646
  157DOPC  H18Z18966   5.195   1.335   7.663 -0.8349 -0.2013  0.3452
  158DOPC     N18967   3.006   0.153   9.787 -0.1177  0.1911 -0.1763
  158DOPC   C1218968   2.947   0.010   9.777 -0.2733 -0.2001 -0.0087
  158DOPC  H12A18969   2.843   0.028   9.755  0.1722  4.2123  0.5981
  158DOPC  H12B18970   2.944  -0.045   9.869 -1.0549  0.4123  0.3505
  158DOPC   C1318971   3.153   0.162   9.812  0.9438  0.4135  0.1403
  158DOPC  H13A18972   3.208   0.101   9.742  0.2055 -0.9860  0.7274
  158DOPC  H13B18973   3.186   0.262   9.836  1.7345 -0.5332  3.6632
  158DOPC  H13C18974   3.167   0.106   9.904 -1.8147 -2.4560 -0.9822
  158DOPC   C1418975   2.940   0.236   9.897 -0.6511 -0.5225  0.9234
  158DOPC  H14A18976   2.983   0.336   9.899  0.9614 -1.0555 -1.8252
  158DOPC  H14B18977   2.843   0.265   9.861 -0.9489  0.3507  2.3196
  158DOPC  H14C18978   2.914   0.176   9.983  1.8782 -2.3847  0.4991
  158DOPC   C1518979   2.995   0.228   9.658  0.4643  0.0376 -0.3261
  158DOPC  H15A18980   3.070   0.192   9.589  1.4784 -0.5285  1.0296
  158DOPC  H15B18981   3.011   0.334   9.668  1.0461 -0.1162  0.5013
  158DOPC  H15C18982   2.895   0.218   9.619 -0.1600  0.6632  1.0472
  158DOPC   C1118983   2.997  -0.093   9.674  0.4752  0.0723  0.6195
  158DOPC  H11A18984   3.005  -0.064   9.567 -2.1866 -2.0237 -0.2625
  158DOPC  H11B18985   3.100  -0.120   9.704  1.1920  0.6591 -1.1787
  158DOPC     P18986   2.762  -0.207   9.641 -0.7249  0.0664 -0.1942
  158DOPC   O1318987   2.720  -0.064   9.648  0.2535  0.1946 -0.6094
  158DOPC   O1418988   2.690  -0.306   9.727  0.4682 -0.5535 -0.0011
  158DOPC   O1218989   2.915  -0.211   9.682  0.2456  0.1559  0.7052
  158DOPC   O1118990   2.752  -0.255   9.490  0.1288 -0.1756  0.3611
  158DOPC    C118991   2.860  -0.292   9.409 -0.3149 -0.3653 -0.4169
  158DOPC    HA18992   2.822  -0.374   9.344 -1.0609 -0.2435 -0.1457
  158DOPC    HB18993   2.945  -0.336   9.464  0.9637  1.9282 -0.4269
  158DOPC    C218994   2.907  -0.180   9.305  0.2591  0.1435  0.3114
  158DOPC    HS18995   2.979  -0.114   9.358 -0.2869  1.0017  0.0061
  158DOPC   O2118996   2.789  -0.111   9.262 -0.4222  0.5426 -0.3491
  158DOPC   C2118997   2.802   0.015   9.228 -0.3276 -0.2195  0.7137
  158DOPC   O2218998   2.906   0.079   9.226 -0.1965 -0.0206  0.3720
  158DOPC   C2218999   2.671   0.065   9.176  0.5223 -0.0599  0.3777
  158DOPC   H2R19000   2.655   0.169   9.211  0.0477  0.4111 -1.1367
  158DOPC   H2S19001   2.584   0.007   9.212 -0.0373  0.4467 -0.1370
  158DOPC    C319002   2.982  -0.254   9.186  0.3434  1.0567 -0.1086
  158DOPC    HX19003   2.908  -0.322   9.139  0.9572  1.9980 -2.5764
  158DOPC    HY19004   3.065  -0.307   9.238 -0.1364  0.5649  0.1645
  158DOPC   O3119005   3.027  -0.160   9.087  0.4063  0.0249  0.3906
  158DOPC   C3119006   3.063  -0.230   8.973  0.5646 -0.6285 -0.2197
  158DOPC   O3219007   3.067  -0.351   8.964  0.7652  0.0530 -0.0109
  158DOPC   C3219008   3.082  -0.132   8.857  0.3401  0.0435  0.1248
  158DOPC   H2X19009   3.013  -0.046   8.872 -2.0714 -1.3293 -2.0826
  158DOPC   H2Y19010   3.187  -0.099   8.868  0.5075 -0.4064 -0.0857
  158DOPC   C2319011   2.670   0.086   9.027  0.4340 -0.4108 -0.3293
  158DOPC   H3R19012   2.566   0.081   8.987  1.3355  1.0149 -3.1287
  158DOPC   H3S19013   2.722   0.001   8.979  1.0845  0.8226 -1.9345
  158DOPC   C2419014   2.731   0.218   8.980  0.4586  0.7191  0.1727
  158DOPC   H4R19015   2.836   0.219   9.019  0.9739 -0.8503 -1.0728
  158DOPC   H4S19016   2.686   0.299   9.041  0.3313  2.5733 -2.2402
  158DOPC   C2519017   2.699   0.246   8.834 -0.5057 -0.1340 -0.4107
  158DOPC   H5R19018   2.728   0.350   8.809 -0.3259 -0.5296 -1.9240
  158DOPC   H5S19019   2.590   0.239   8.815 -0.0627  0.9211 -3.9129
  158DOPC   C2619020   2.784   0.153   8.734 -0.3674 -0.4041  0.3082
  158DOPC   H6R19021   2.745   0.049   8.740 -0.2207 -0.4528  0.4377
  158DOPC   H6S19022   2.890   0.153   8.765 -0.0778  0.4085 -0.6375
  158DOPC   C2719023   2.774   0.188   8.589 -0.3289  0.8100  0.5483
  158DOPC   H7R19024   2.858   0.144   8.530 -0.2836  2.6567 -0.8814
  158DOPC   H7S19025   2.789   0.297   8.575 -0.5142  0.7099 -0.5054
  158DOPC   C2819026   2.654   0.131   8.513 -0.4499  0.3447  0.8842
  158DOPC   H8R19027   2.568   0.155   8.578  0.4075 -0.7874  2.5055
  158DOPC   H8S19028   2.659   0.021   8.501  0.9240  0.5443 -0.9420
  158DOPC   C2919029   2.647   0.205   8.377  1.2137 -0.3560  0.9531
  158DOPC   H9R19030   2.589   0.298   8.385  0.8182 -0.6386  1.4167
  158DOPC  C21019031   2.716   0.184   8.260  0.6480  0.9549  0.0803
  158DOPC  H10R19032   2.705   0.264   8.185  0.3933  1.9303  1.1249
  158DOPC  C21119033   2.814   0.074   8.231 -0.3692 -0.3018  0.6523
  158DOPC  H11R19034   2.803  -0.016   8.295 -1.4194 -1.2270 -0.7707
  158DOPC  H11S19035   2.915   0.120   8.240 -0.0085 -0.9053 -0.2300
  158DOPC  C21219036   2.797   0.023   8.085 -0.2482  0.0882 -0.3838
  158DOPC  H12R19037   2.799   0.111   8.017 -3.0919  0.9610  0.5155
  158DOPC  H12S19038   2.703  -0.036   8.079 -0.0461 -0.6676  2.4356
  158DOPC  C21319039   2.903  -0.073   8.042  0.3084  1.0454 -0.1020
  158DOPC  H13R19040   2.913  -0.161   8.110 -0.0953  0.8390 -0.3108
  158DOPC  H13S19041   3.001  -0.020   8.036  0.8998  0.0942  0.7640
  158DOPC  C21419042   2.867  -0.142   7.901 -0.0995 -0.5603 -0.3194
  158DOPC  H14R19043   2.756  -0.147   7.904 -0.2585  2.0566  1.2032
  158DOPC  H14S19044   2.908  -0.245   7.900  3.1275  0.4900  3.0867
  158DOPC  C21519045   2.914  -0.055   7.778 -0.4223  0.1384  0.1104
  158DOPC  H15R19046   2.879   0.049   7.797 -0.3984  0.0582  0.6046
  158DOPC  H15S19047   2.863  -0.099   7.690 -0.8888 -0.7408  0.8080
  158DOPC  C21619048   3.070  -0.065   7.748 -0.1175  0.8912  0.7002
  158DOPC  H16R19049   3.128  -0.008   7.823 -0.3868  1.2533  0.6346
  158DOPC  H16S19050   3.088  -0.016   7.650 -1.1397  0.4921  0.2934
  158DOPC  C21719051   3.120  -0.217   7.730 -0.2112 -0.3118 -0.0558
  158DOPC  H17R19052   3.042  -0.251   7.658 -0.3135 -0.6750  0.2223
  158DOPC  H17S19053   3.112  -0.258   7.833  1.5389 -0.8364 -0.1072
  158DOPC  C21819054   3.256  -0.225   7.670 -0.6833 -0.2179 -0.0680
  158DOPC  H18R19055   3.292  -0.328   7.690  0.6494 -0.0185 -1.2867
  158DOPC  H18S19056   3.334  -0.158   7.714  1.1245 -2.3173  0.0610
  158DOPC  H18T19057   3.254  -0.200   7.562  2.1117  1.8304  0.2454
  158DOPC   C3319058   3.070  -0.192   8.722  0.0812  0.1344 -0.5215
  158DOPC   H3X19059   2.969  -0.236   8.708  0.5049 -0.2991 -2.6610
  158DOPC   H3Y19060   3.145  -0.275   8.718 -0.8016 -0.7567  0.5466
  158DOPC   C3419061   3.101  -0.094   8.612  0.4141 -0.9628 -0.1863
  158DOPC   H4X19062   3.193  -0.037   8.636 -1.1656  1.2321  0.9785
  158DOPC   H4Y19063   3.022  -0.017   8.605  0.3453 -0.8701  1.3212
  158DOPC   C3519064   3.109  -0.170   8.477  0.4377  0.1045 -0.1206
  158DOPC   H5X19065   3.007  -0.210   8.457  0.4762  0.2240 -0.5732
  158DOPC   H5Y19066   3.178  -0.255   8.497 -1.7169 -1.8729 -0.6141
  158DOPC   C3619067   3.157  -0.079   8.366 -0.3701 -0.6859  0.2576
  158DOPC   H6X19068   3.082  -0.000   8.342  0.9532  0.4938 -0.1747
  158DOPC   H6Y19069   3.247  -0.020   8.394  0.6619 -2.0321 -0.1406
  158DOPC   C3719070   3.184  -0.151   8.235  0.1521  0.0906  0.2805
  158DOPC   H7X19071   3.100  -0.214   8.200  0.9039 -1.5950  1.4124
  158DOPC   H7Y19072   3.206  -0.074   8.158  0.3231 -1.7373 -1.5715
  158DOPC   C3819073   3.303  -0.248   8.247 -0.0416 -0.3355 -0.0217
  158DOPC   H8X19074   3.289  -0.328   8.322  1.7077  1.3714  2.2954
  158DOPC   H8Y19075   3.384  -0.182   8.286  0.9281 -1.6472  0.2549
  158DOPC   C3919076   3.339  -0.310   8.115  0.4661  0.3340 -0.2228
  158DOPC   H9X19077   3.307  -0.255   8.026 -1.1422  0.4972  0.4169
  158DOPC  C31019078   3.405  -0.424   8.101 -0.3350 -0.0277 -0.0818
  158DOPC  H10X19079   3.440  -0.457   8.002 -0.5507  0.0493 -0.1830
  158DOPC  C31119080   3.460  -0.531   8.199 -0.4605 -0.2008  0.7837
  158DOPC  H11X19081   3.419  -0.629   8.167 -3.0206  1.4890 -1.5468
  158DOPC  H11Y19082   3.421  -0.510   8.301  0.0940  4.6858  0.2083
  158DOPC  C31219083   3.613  -0.545   8.212 -0.2403 -0.3187  0.3488
  158DOPC  H12X19084   3.645  -0.612   8.129 -1.2472  1.5975 -1.6931
  158DOPC  H12Y19085   3.656  -0.589   8.305  4.1973  0.7994 -0.8945
  158DOPC  C31319086   3.681  -0.410   8.198  0.1438  0.0500  0.0726
  158DOPC  H13X19087   3.674  -0.362   8.098  0.0664  0.9265  0.4859
  158DOPC  H13Y19088   3.623  -0.346   8.268 -1.0143 -1.9319  1.0158
  158DOPC  C31419089   3.832  -0.403   8.237 -0.0819  0.4811  0.1459
  158DOPC  H14X19090   3.850  -0.317   8.305  0.1147 -0.7816  1.7474
  158DOPC  H14Y19091   3.852  -0.491   8.302  0.3819  1.0531  0.8016
  158DOPC  C31519092   3.917  -0.409   8.109 -0.7096  0.4399  0.0243
  158DOPC  H15X19093   3.897  -0.328   8.035 -0.9205 -0.3710 -0.8223
  158DOPC  H15Y19094   3.905  -0.507   8.057  2.4726 -0.1619  0.2374
  158DOPC  C31619095   4.073  -0.396   8.142 -0.6793  0.9982  0.0867
  158DOPC  H16X19096   4.110  -0.304   8.192  3.7679  0.2430 -1.4208
  158DOPC  H16Y19097   4.088  -0.463   8.229  1.1215 -0.4612 -1.2780
  158DOPC  C31719098   4.154  -0.452   8.020 -0.5231 -0.3306 -0.6828
  158DOPC  H17X19099   4.105  -0.549   7.997  0.2227 -0.9469  0.2371
  158DOPC  H17Y19100   4.150  -0.381   7.935 -0.9671  2.8349  1.8080
  158DOPC  C31819101   4.304  -0.477   8.052 -0.4675  0.6042 -0.3096
  158DOPC  H18X19102   4.355  -0.524   7.964 -0.0919 -1.6799  1.0440
  158DOPC  H18Y19103   4.350  -0.377   8.068 -3.0725  1.7804  0.1969
  158DOPC  H18Z19104   4.313  -0.541   8.143  0.2319 -0.9565 -1.4179
  159DOPC     N19105   5.410   1.889  10.286  0.1588 -0.7125  0.4841
  159DOPC   C1219106   5.530   1.988  10.289 -0.1705 -0.0891 -0.2973
  159DOPC  H12A19107   5.557   2.007  10.392  0.9022  0.2634 -0.6323
  159DOPC  H12B19108   5.499   2.086  10.256 -1.0684 -0.0731  0.5126
  159DOPC   C1319109   5.326   1.926  10.406  0.4369  0.4114  0.1817
  159DOPC  H13A19110   5.380   1.907  10.497 -1.0274  0.6963  1.1518
  159DOPC  H13B19111   5.309   2.032  10.403 -0.5854  0.2515 -0.5069
  159DOPC  H13C19112   5.231   1.873  10.404  0.5229  0.0032  2.9687
  159DOPC   C1419113   5.461   1.748  10.297  0.6155 -0.7179 -0.0938
  159DOPC  H14A19114   5.518   1.727  10.386 -1.4621 -1.8067  1.0817
  159DOPC  H14B19115   5.384   1.672  10.303 -1.4141  1.3388  1.8268
  159DOPC  H14C19116   5.522   1.726  10.211 -0.6659 -2.2974 -0.6637
  159DOPC   C1519117   5.335   1.904  10.163 -0.1983  0.1771 -0.1629
  159DOPC  H15A19118   5.300   2.005  10.154 -0.6185  0.0669  0.1953
  159DOPC  H15B19119   5.249   1.838  10.165 -0.2056  0.1434  3.1437
  159DOPC  H15C19120   5.400   1.885  10.078  1.9481 -1.6698  1.7424
  159DOPC   C1119121   5.662   1.940  10.222 -0.2646  0.4665 -0.6292
  159DOPC  H11A19122   5.747   2.004  10.254 -0.4681  2.0845 -3.1135
  159DOPC  H11B19123   5.696   1.839  10.256 -1.6926 -0.3027 -1.4004
  159DOPC     P19124   5.652   2.076  10.000 -0.1037 -0.2590 -0.2657
  159DOPC   O1319125   5.770   2.158  10.044  0.0787  0.5171  0.0315
  159DOPC   O1419126   5.525   2.138  10.021 -0.4999 -0.2183 -0.7634
  159DOPC   O1219127   5.653   1.940  10.082  0.0595 -0.3047  0.0984
  159DOPC   O1119128   5.664   2.034   9.847 -0.3378  0.0561 -0.3587
  159DOPC    C119129   5.687   1.893   9.815  0.0762 -0.0562  0.2500
  159DOPC    HA19130   5.608   1.827   9.859 -2.2849  1.6358 -1.2446
  159DOPC    HB19131   5.778   1.861   9.869  1.3363  0.8344 -1.2838
  159DOPC    C219132   5.682   1.855   9.672  0.3463  0.3689 -0.3288
  159DOPC    HS19133   5.689   1.745   9.662 -1.1022  0.1925  0.3437
  159DOPC   O2119134   5.796   1.921   9.609  0.1492 -0.7452  0.1311
  159DOPC   C2119135   5.921   1.893   9.656  0.2653 -0.2475  0.1606
  159DOPC   O2219136   5.953   1.798   9.727 -0.0930  0.6905  0.7459
  159DOPC   C2219137   6.023   1.986   9.594 -0.8320 -0.1670  0.4828
  159DOPC   H2R19138   6.119   1.965   9.646  0.3974 -0.9838 -1.9670
  159DOPC   H2S19139   5.990   2.092   9.602 -0.1317  0.1601 -0.7486
  159DOPC    C319140   5.547   1.891   9.601  0.2441  0.1107  0.0329
  159DOPC    HX19141   5.532   1.997   9.633 -1.4730 -0.4094  1.1077
  159DOPC    HY19142   5.466   1.829   9.646  0.8879  0.8366  2.3831
  159DOPC   O3119143   5.549   1.873   9.461 -0.0714 -0.0564  0.1094
  159DOPC   C3119144   5.579   1.976   9.390 -0.2780  0.2325 -0.2661
  159DOPC   O3219145   5.609   2.087   9.436  0.5797 -0.1798  0.2833
  159DOPC   C3219146   5.576   1.947   9.239  0.0311  0.0055  0.2173
  159DOPC   H2X19147   5.663   1.997   9.192 -0.4957  2.2243  1.4643
  159DOPC   H2Y19148   5.580   1.836   9.229  2.1212 -0.0760  1.4175
  159DOPC   C2319149   6.060   1.965   9.441  0.0904 -0.0735 -0.0438
  159DOPC   H3R19150   6.065   1.857   9.414 -1.3820 -0.0902 -0.3240
  159DOPC   H3S19151   6.160   2.001   9.410 -0.1842 -0.2064 -1.1216
  159DOPC   C2419152   5.954   2.030   9.344  0.2948 -0.5184  0.5287
  159DOPC   H4R19153   5.957   2.130   9.392  1.7800 -0.8055  1.0850
  159DOPC   H4S19154   5.854   1.982   9.353  0.9530 -2.6339 -2.1996
  159DOPC   C2519155   6.001   2.027   9.194  0.5988 -0.3224 -0.5609
  159DOPC   H5R19156   6.101   2.075   9.183 -0.9310  3.5615  0.8726
  159DOPC   H5S19157   5.938   2.096   9.133 -0.1427  2.0757  2.6699
  159DOPC   C2619158   5.988   1.884   9.135  0.2887  0.0006 -0.7453
  159DOPC   H6R19159   5.879   1.865   9.144  0.4947 -0.5381  0.7930
  159DOPC   H6S19160   6.021   1.798   9.196 -0.8183 -1.2875 -1.9027
  159DOPC   C2719161   6.039   1.869   8.994  0.2429  0.9034 -0.3115
  159DOPC   H7R19162   6.043   1.761   8.969 -2.0845  0.5357  0.6658
  159DOPC   H7S19163   6.143   1.903   8.976  0.5834 -0.6390 -1.5637
  159DOPC   C2819164   5.968   1.941   8.881 -0.4740 -0.6153  0.4317
  159DOPC   H8R19165   6.017   1.916   8.785 -0.0322 -1.0410  0.7600
  159DOPC   H8S19166   5.990   2.046   8.909  2.9276 -0.6761 -1.4525
  159DOPC   C2919167   5.819   1.916   8.860 -0.5341 -0.4546 -0.5760
  159DOPC   H9R19168   5.755   1.929   8.948 -1.0500 -0.5491 -0.9325
  159DOPC  C21019169   5.758   1.887   8.746  0.3336 -0.5054  0.1785
  159DOPC  H10R19170   5.649   1.900   8.745  0.2895 -0.5815 -2.7025
  159DOPC  C21119171   5.825   1.874   8.610 -0.4511  0.6173 -0.4456
  159DOPC  H11R19172   5.885   1.781   8.611 -0.1659  0.7845  0.9258
  159DOPC  H11S19173   5.889   1.965   8.597  1.6613 -0.2598  2.6736
  159DOPC  C21219174   5.737   1.853   8.485 -0.4244 -0.5517 -0.3727
  159DOPC  H12R19175   5.663   1.935   8.485  1.1009  0.8884 -1.0076
  159DOPC  H12S19176   5.683   1.756   8.482 -1.2387 -0.1409  0.4311
  159DOPC  C21319177   5.814   1.877   8.357 -0.0933 -0.3627  0.8029
  159DOPC  H13R19178   5.906   1.815   8.358  0.9678  1.1495  0.8888
  159DOPC  H13S19179   5.850   1.982   8.348  0.6853 -0.7289 -0.6652
  159DOPC  C21419180   5.743   1.820   8.224  0.5153  0.1723 -0.6861
  159DOPC  H14R19181   5.645   1.869   8.206 -0.0059 -0.3478  0.6149
  159DOPC  H14S19182   5.717   1.713   8.238 -0.2801  0.5078  0.6042
  159DOPC  C21519183   5.825   1.819   8.092 -0.0776  0.2770  0.3098
  159DOPC  H15R19184   5.852   1.920   8.055  0.8148 -0.0958 -0.0765
  159DOPC  H15S19185   5.747   1.786   8.019 -0.4936  4.3369 -1.3692
  159DOPC  C21619186   5.932   1.717   8.094 -0.4360  0.1971  1.2551
  159DOPC  H16R19187   5.900   1.628   8.152 -2.9780  1.6574  2.2371
  159DOPC  H16S19188   6.030   1.746   8.139  1.3147 -0.8617 -1.5936
  159DOPC  C21719189   5.975   1.685   7.943  0.2024  0.4698 -0.6789
  159DOPC  H17R19190   5.880   1.646   7.901 -1.2573  1.0872  1.8255
  159DOPC  H17S19191   6.042   1.596   7.947 -0.3742  0.0685  0.5798
  159DOPC  C21819192   6.024   1.799   7.850 -0.3911 -0.1024  0.9065
  159DOPC  H18R19193   5.946   1.879   7.851 -0.5735 -0.2795  1.8569
  159DOPC  H18S19194   6.051   1.773   7.745  1.2103  0.7780  1.0714
  159DOPC  H18T19195   6.111   1.848   7.899  1.3568  0.6059 -2.5523
  159DOPC   C3319196   5.449   2.005   9.176 -0.8658  0.1207  0.4245
  159DOPC   H3X19197   5.434   2.111   9.207 -1.1101  0.6828 -1.4676
  159DOPC   H3Y19198   5.363   1.947   9.215 -1.7351 -0.5683 -2.2816
  159DOPC   C3419199   5.464   1.983   9.028  0.3475 -0.5252  0.2752
  159DOPC   H4X19200   5.490   1.877   9.007 -0.3441 -0.8353  0.9673
  159DOPC   H4Y19201   5.555   2.038   8.995 -0.3982  0.4800 -0.1654
  159DOPC   C3519202   5.336   2.016   8.946  0.6048  0.2137 -0.1153
  159DOPC   H5X19203   5.306   2.123   8.948  0.9384  0.3215 -0.6668
  159DOPC   H5Y19204   5.255   1.950   8.985 -0.5018  1.2763 -0.5417
  159DOPC   C3619205   5.359   1.981   8.790  1.6896 -0.8740 -0.6309
  159DOPC   H6X19206   5.432   2.055   8.752 -0.6296  1.8058 -0.2637
  159DOPC   H6Y19207   5.399   1.880   8.769 -2.7643 -2.5579 -2.0992
  159DOPC   C3719208   5.223   1.971   8.718 -0.1910 -0.0391  0.2292
  159DOPC   H7X19209   5.164   1.879   8.738 -0.3248  0.1182  0.5601
  159DOPC   H7Y19210   5.162   2.052   8.762  1.1407  1.1773 -0.0745
  159DOPC   C3819211   5.225   2.012   8.568 -0.5077 -0.1395  0.2170
  159DOPC   H8X19212   5.248   2.120   8.560 -1.6793  0.0598 -0.7508
  159DOPC   H8Y19213   5.122   1.993   8.531  0.4990 -1.7398 -2.0518
  159DOPC   C3919214   5.318   1.920   8.491 -0.1110 -0.2228  0.2440
  159DOPC   H9X19215   5.423   1.908   8.523  0.0592 -0.0910 -0.2519
  159DOPC  C31019216   5.280   1.857   8.377  0.3544  0.2706 -0.5113
  159DOPC  H10X19217   5.358   1.792   8.334 -0.6156 -0.1383 -1.7074
  159DOPC  C31119218   5.150   1.878   8.297 -0.1632  0.3975  0.4561
  159DOPC  H11X19219   5.098   1.974   8.320 -1.6214 -0.1911 -0.2813
  159DOPC  H11Y19220   5.082   1.795   8.323 -0.1847 -0.6788 -2.5936
  159DOPC  C31219221   5.160   1.879   8.140 -0.9768  0.4541  0.0776
  159DOPC  H12X19222   5.221   1.969   8.117  0.2335 -0.3310  0.1357
  159DOPC  H12Y19223   5.062   1.881   8.087 -1.8983  0.5947  1.7122
  159DOPC  C31319224   5.230   1.756   8.089  0.5418 -0.2184  0.6921
  159DOPC  H13X19225   5.339   1.750   8.108  0.2651 -2.0295  1.9047
  159DOPC  H13Y19226   5.178   1.667   8.130  0.8710 -1.5404 -1.6265
  159DOPC  C31419227   5.214   1.736   7.933 -0.6152 -0.0551  0.2617
  159DOPC  H14X19228   5.250   1.632   7.918  0.3431  0.4801 -1.4001
  159DOPC  H14Y19229   5.107   1.738   7.904 -0.6093 -1.5626  0.0540
  159DOPC  C31519230   5.296   1.834   7.846 -0.7448 -1.4107  0.0623
  159DOPC  H15X19231   5.257   1.936   7.867  0.1502 -1.3848  1.7368
  159DOPC  H15Y19232   5.265   1.816   7.741 -0.0477 -4.5113  0.3123
  159DOPC  C31619233   5.443   1.842   7.868 -0.3421  0.9296  0.0181
  159DOPC  H16X19234   5.465   1.899   7.961  1.1282  1.3599 -0.5667
  159DOPC  H16Y19235   5.488   1.741   7.882 -2.4120  0.0316  0.5509
  159DOPC  C31719236   5.515   1.904   7.746  0.1298  0.4092  0.2097
  159DOPC  H17X19237   5.444   1.975   7.698 -1.2221 -1.1646 -0.2221
  159DOPC  H17Y19238   5.596   1.972   7.779  1.2447  1.1598 -3.5442
  159DOPC  C31819239   5.572   1.816   7.633 -0.0086  0.7859  0.2853
  159DOPC  H18X19240   5.629   1.888   7.571  0.1175  0.4304 -0.0080
  159DOPC  H18Y19241   5.640   1.738   7.672 -0.2149 -0.6623 -2.0887
  159DOPC  H18Z19242   5.489   1.770   7.576  0.3764  0.5193 -0.0601
  160DOPC     N19243   2.283   6.783   9.776 -0.5523 -0.4191 -0.4014
  160DOPC   C1219244   2.161   6.755   9.695  0.6742 -0.2788  0.2919
  160DOPC  H12A19245   2.188   6.770   9.591  1.4885  2.1289  0.7899
  160DOPC  H12B19246   2.085   6.830   9.713 -0.0030 -0.6604 -0.8190
  160DOPC   C1319247   2.396   6.686   9.740  0.7760 -0.0490 -0.0270
  160DOPC  H13A19248   2.435   6.694   9.640 -0.4011 -0.1704 -0.5055
  160DOPC  H13B19249   2.466   6.686   9.823 -0.5826  0.6282  1.1476
  160DOPC  H13C19250   2.351   6.588   9.748  0.9062 -0.1920 -0.9739
  160DOPC   C1419251   2.272   6.783   9.922 -0.2823  0.3022  0.2898
  160DOPC  H14A19252   2.231   6.693   9.966 -1.0869  1.5649  2.2345
  160DOPC  H14B19253   2.365   6.808   9.970 -0.1936  0.4599  0.0397
  160DOPC  H14C19254   2.205   6.860   9.955 -0.7037 -0.6194  1.6585
  160DOPC   C1519255   2.332   6.920   9.733  0.9005  0.0344 -0.1066
  160DOPC  H15A19256   2.416   6.960   9.788  0.2749  0.7449  0.3629
  160DOPC  H15B19257   2.250   6.985   9.704  1.0551  0.5194  0.5196
  160DOPC  H15C19258   2.384   6.908   9.639 -0.0737 -0.8098 -0.5595
  160DOPC   C1119259   2.095   6.615   9.713  0.7685 -0.1768 -0.5062
  160DOPC  H11A19260   2.035   6.585   9.625 -0.0639 -0.1860  0.0551
  160DOPC  H11B19261   2.178   6.543   9.725 -0.2970 -1.0434  2.5911
  160DOPC     P19262   1.883   6.684   9.874  0.2279 -0.0352 -0.2822
  160DOPC   O1319263   1.912   6.821   9.922 -0.2731  0.0627 -0.2045
  160DOPC   O1419264   1.814   6.594   9.966  0.2077 -0.7189 -0.0022
  160DOPC   O1219265   2.024   6.623   9.837  0.0743 -0.5593  0.1340
  160DOPC   O1119266   1.803   6.694   9.738 -0.3244  0.0432 -0.3581
  160DOPC    C119267   1.738   6.578   9.698 -0.3303 -0.1058 -0.1185
  160DOPC    HA19268   1.655   6.547   9.765  0.0047 -1.6161 -0.3633
  160DOPC    HB19269   1.807   6.491   9.695 -0.2116 -0.0166  0.0112
  160DOPC    C219270   1.661   6.597   9.563 -0.3826  0.8284 -0.4961
  160DOPC    HS19271   1.612   6.499   9.547 -0.3897  0.8614 -0.6836
  160DOPC   O2119272   1.745   6.636   9.450 -0.3455  0.3959  0.1878
  160DOPC   C2119273   1.836   6.545   9.407 -0.2990  0.4115 -0.7566
  160DOPC   O2219274   1.831   6.426   9.435  0.1979 -0.4082 -0.3181
  160DOPC   C2219275   1.933   6.610   9.308  0.0300  0.3998 -0.0178
  160DOPC   H2R19276   1.994   6.673   9.377 -2.2733  1.1656  1.4463
  160DOPC   H2S19277   1.882   6.684   9.244  0.0160 -0.0261 -0.5038
  160DOPC    C319278   1.543   6.698   9.571  0.3986  0.7298  0.0377
  160DOPC    HX19279   1.584   6.800   9.590 -3.0798  2.2824 -0.0865
  160DOPC    HY19280   1.484   6.681   9.664  0.6446 -0.9141 -0.0726
  160DOPC   O3119281   1.447   6.690   9.462  0.5660 -0.0335 -0.0897
  160DOPC   C3119282   1.397   6.805   9.430  0.3447 -0.0609  0.7502
  160DOPC   O3219283   1.413   6.916   9.482 -0.2179  0.4127  0.3120
  160DOPC   C3219284   1.299   6.785   9.314  0.6731  0.2773  0.1195
  160DOPC   H2X19285   1.220   6.715   9.351  0.1942  0.0753 -1.2469
  160DOPC   H2Y19286   1.266   6.886   9.282 -1.5065 -0.2548  0.5158
  160DOPC   C2319287   2.005   6.505   9.215 -0.3222  0.5187 -0.3384
  160DOPC   H3R19288   2.061   6.436   9.281 -1.5762  0.3440  0.5764
  160DOPC   H3S19289   2.079   6.554   9.147 -0.0635 -1.6649 -1.7252
  160DOPC   C2419290   1.913   6.420   9.139  0.9765 -0.1257  0.0644
  160DOPC   H4R19291   1.836   6.374   9.205  2.7559 -0.4147  2.0433
  160DOPC   H4S19292   1.977   6.336   9.106 -0.0075 -1.0184  0.3761
  160DOPC   C2519293   1.837   6.481   9.020  1.1577  0.1560 -0.8723
  160DOPC   H5R19294   1.907   6.531   8.949 -0.4053  1.7065 -1.3804
  160DOPC   H5S19295   1.771   6.562   9.059  0.7357 -0.5731 -0.0232
  160DOPC   C2619296   1.770   6.386   8.934  0.0810  0.5383 -0.6120
  160DOPC   H6R19297   1.692   6.331   8.991  0.2966  0.6810 -0.1765
  160DOPC   H6S19298   1.844   6.309   8.903 -0.2969 -0.5664  1.0833
  160DOPC   C2719299   1.707   6.451   8.812 -0.4333  0.4795  0.8881
  160DOPC   H7R19300   1.795   6.491   8.757 -2.2545 -0.3937 -3.0013
  160DOPC   H7S19301   1.652   6.539   8.852 -0.7507  0.8323 -0.2844
  160DOPC   C2819302   1.633   6.358   8.710  0.5261  0.5161  0.3952
  160DOPC   H8R19303   1.537   6.327   8.756  0.7623 -1.3849 -0.3174
  160DOPC   H8S19304   1.698   6.270   8.693  0.3670  0.5477 -0.3806
  160DOPC   C2919305   1.597   6.436   8.590  0.3413  0.5429  0.2913
  160DOPC   H9R19306   1.546   6.530   8.616 -1.1507 -0.2138  0.2361
  160DOPC  C21019307   1.626   6.403   8.457  0.7563  0.0298 -0.1592
  160DOPC  H10R19308   1.573   6.461   8.380  1.1849 -4.2091 -4.1012
  160DOPC  C21119309   1.706   6.291   8.401 -0.6410 -0.1102  0.1048
  160DOPC  H11R19310   1.738   6.218   8.479 -1.5090 -0.3541  0.2475
  160DOPC  H11S19311   1.801   6.332   8.361 -2.2611  1.1949 -2.7203
  160DOPC  C21219312   1.635   6.222   8.283 -0.3421 -0.5214 -0.4823
  160DOPC  H12R19313   1.540   6.182   8.323 -1.8643  1.7622 -1.6210
  160DOPC  H12S19314   1.704   6.138   8.257 -0.8778 -1.0579 -0.2085
  160DOPC  C21319315   1.606   6.300   8.158  0.1436  0.3111 -0.0529
  160DOPC  H13R19316   1.698   6.359   8.136 -1.4931  3.0707 -0.0258
  160DOPC  H13S19317   1.523   6.372   8.176 -1.3288 -1.5618  1.1022
  160DOPC  C21419318   1.587   6.206   8.038 -0.0217  0.8267 -0.1369
  160DOPC  H14R19319   1.492   6.150   8.048  0.4315 -0.2326 -1.5206
  160DOPC  H14S19320   1.678   6.141   8.036  0.2677  1.2316 -1.9649
  160DOPC  C21519321   1.581   6.279   7.902  0.6934  0.2840 -0.0660
  160DOPC  H15R19322   1.599   6.199   7.827  1.0683  1.0424 -0.7860
  160DOPC  H15S19323   1.660   6.356   7.892  2.7775 -1.8386 -1.0348
  160DOPC  C21619324   1.445   6.329   7.860  0.3327  0.6508 -0.1809
  160DOPC  H16R19325   1.402   6.414   7.918  0.8557  1.1070 -0.4504
  160DOPC  H16S19326   1.376   6.243   7.871  1.3084 -0.1629 -0.3053
  160DOPC  C21719327   1.443   6.369   7.704 -0.1713  0.7815 -0.3617
  160DOPC  H17R19328   1.343   6.359   7.656 -0.2217 -0.4146 -0.0377
  160DOPC  H17S19329   1.519   6.311   7.648  0.5672 -1.1412  2.4209
  160DOPC  C21819330   1.484   6.514   7.680  0.3023 -0.5939 -0.1157
  160DOPC  H18R19331   1.572   6.534   7.745 -0.7854  0.6672  1.0253
  160DOPC  H18S19332   1.405   6.587   7.709  2.6566  1.6362  1.1743
  160DOPC  H18T19333   1.511   6.538   7.575  1.4851 -1.0333  0.0668
  160DOPC   C3319334   1.373   6.707   9.193  0.2576  0.0355 -0.1945
  160DOPC   H3X19335   1.292   6.688   9.119 -1.4001  3.2379  0.6202
  160DOPC   H3Y19336   1.418   6.614   9.233 -2.6836 -0.7773  1.5492
  160DOPC   C3419337   1.480   6.790   9.128 -0.2327 -0.2086  0.1575
  160DOPC   H4X19338   1.513   6.720   9.047 -1.5250 -0.9930  0.2821
  160DOPC   H4Y19339   1.561   6.810   9.201  1.1219  0.7628 -1.5414
  160DOPC   C3519340   1.438   6.926   9.064 -0.5710 -1.0090 -0.2533
  160DOPC   H5X19341   1.525   6.965   9.007 -0.0487 -1.3536  0.2947
  160DOPC   H5Y19342   1.408   7.000   9.141 -0.1827 -1.5286  0.4136
  160DOPC   C3619343   1.320   6.913   8.962 -0.2990  0.3079 -0.0476
  160DOPC   H6X19344   1.227   6.868   9.004  0.3834 -1.1928 -0.0868
  160DOPC   H6Y19345   1.277   7.002   8.912 -1.6982  0.5249  1.4377
  160DOPC   C3719346   1.367   6.821   8.848 -0.0120  0.9171  0.7879
  160DOPC   H7X19347   1.465   6.852   8.805  0.2484  0.0681  0.7328
  160DOPC   H7Y19348   1.379   6.718   8.888 -0.9741 -0.7202 -2.7567
  160DOPC   C3819349   1.262   6.817   8.733 -0.1651  1.1625 -0.3875
  160DOPC   H8X19350   1.229   6.920   8.707  1.7133  1.2775 -2.7464
  160DOPC   H8Y19351   1.166   6.769   8.763 -0.9455  2.3691 -0.8593
  160DOPC   C3919352   1.310   6.749   8.609  0.4704  0.3928 -0.2294
  160DOPC   H9X19353   1.364   6.654   8.619 -1.5821 -0.7189  0.9376
  160DOPC  C31019354   1.290   6.790   8.480  0.3674  0.0337 -0.0165
  160DOPC  H10X19355   1.318   6.729   8.393 -1.6804 -0.4037 -0.4366
  160DOPC  C31119356   1.209   6.908   8.436 -0.1164  0.3354 -0.5701
  160DOPC  H11X19357   1.268   7.001   8.420 -1.3340  1.2239 -0.0737
  160DOPC  H11Y19358   1.130   6.934   8.510  1.5009 -0.0694  1.4125
  160DOPC  C31219359   1.143   6.888   8.291 -0.0848  0.2182 -0.0145
  160DOPC  H12X19360   1.101   6.986   8.257  0.9542 -0.2027 -2.8140
  160DOPC  H12Y19361   1.057   6.819   8.303  0.2874  0.0085  1.6628
  160DOPC  C31319362   1.230   6.833   8.181 -1.1009 -0.5915  0.5549
  160DOPC  H13X19363   1.323   6.895   8.181  0.5156 -2.7707  3.1368
  160DOPC  H13Y19364   1.275   6.735   8.208  3.2386  1.2938  1.0177
  160DOPC  C31419365   1.173   6.838   8.040 -0.5059 -0.6042 -0.0869
  160DOPC  H14X19366   1.110   6.928   8.028  1.4109  0.7957 -0.0023
  160DOPC  H14Y19367   1.264   6.845   7.977 -1.7761 -2.6475 -2.2957
  160DOPC  C31519368   1.087   6.716   7.998  0.3843 -0.6464 -0.3741
  160DOPC  H15X19369   1.007   6.704   8.075 -1.7430  0.7319 -2.2336
  160DOPC  H15Y19370   1.141   6.619   7.995 -2.9032 -2.6383 -0.5029
  160DOPC  C31619371   1.008   6.747   7.865  0.1185  0.1131 -0.4825
  160DOPC  H16X19372   0.920   6.682   7.846 -0.4450  0.8293 -0.3667
  160DOPC  H16Y19373   0.972   6.852   7.864 -1.5062 -0.3202 -4.0196
  160DOPC  C31719374   1.095   6.740   7.736  0.2057 -0.1377  1.2806
  160DOPC  H17X19375   1.166   6.825   7.739 -0.1370  0.1290  2.2015
  160DOPC  H17Y19376   1.146   6.641   7.734 -0.7326 -0.6169  0.5061
  160DOPC  C31819377   1.018   6.754   7.602  0.4695  0.4480 -0.5265
  160DOPC  H18X19378   0.943   6.673   7.589  2.0572 -0.9079 -1.6472
  160DOPC  H18Y19379   0.969   6.854   7.602  0.7126  0.5735  0.1338
  160DOPC  H18Z19380   1.093   6.751   7.520 -0.0068 -0.1763 -0.9451
  161DOPC     N19381   2.852   1.090   9.930 -0.0566 -0.2967  0.0643
  161DOPC   C1219382   2.846   0.970   9.849 -0.2820  0.2778 -0.2439
  161DOPC  H12A19383   2.942   0.956   9.800 -0.6180 -0.5930 -0.6655
  161DOPC  H12B19384   2.776   0.971   9.768 -1.7397  1.9571  0.9660
  161DOPC   C1319385   2.880   1.196   9.824 -0.2871 -0.1032  0.1370
  161DOPC  H13A19386   2.967   1.175   9.764 -0.1061  1.1483 -0.0599
  161DOPC  H13B19387   2.790   1.203   9.764 -0.5452 -1.2867  0.3430
  161DOPC  H13C19388   2.881   1.292   9.873 -0.0291 -0.7071  1.3698
  161DOPC   C1419389   2.968   1.088  10.028  0.5349  0.0369  0.8927
  161DOPC  H14A19390   2.960   1.180  10.083  0.5360  2.0667 -2.2673
  161DOPC  H14B19391   2.954   1.011  10.103 -1.0830  0.7564  1.3679
  161DOPC  H14C19392   3.062   1.087   9.975  0.3236 -0.1093  0.5202
  161DOPC   C1519393   2.730   1.121  10.001  0.5081 -0.6791  0.4377
  161DOPC  H15A19394   2.639   1.132   9.943 -0.3919  0.3278  1.9572
  161DOPC  H15B19395   2.731   1.214  10.056  0.9479  0.2272 -1.0623
  161DOPC  H15C19396   2.707   1.041  10.070 -0.1387 -0.4111  0.5442
  161DOPC   C1119397   2.833   0.836   9.927 -0.4347 -0.3024 -0.3911
  161DOPC  H11A19398   2.869   0.751   9.866  1.7424 -0.9731  1.6795
  161DOPC  H11B19399   2.890   0.835  10.023  1.1952 -0.1974 -1.3212
  161DOPC     P19400   2.599   0.746   9.862 -0.0885  0.1650  0.3237
  161DOPC   O1319401   2.462   0.796   9.858 -0.1244 -0.0225  0.1240
  161DOPC   O1419402   2.623   0.605   9.894 -0.3218  0.5337 -0.7737
  161DOPC   O1219403   2.692   0.831   9.950  0.6619  0.0217 -0.1356
  161DOPC   O1119404   2.670   0.770   9.713  0.3586 -0.0891 -0.4967
  161DOPC    C119405   2.592   0.736   9.604 -0.3142 -0.1739  0.0082
  161DOPC    HA19406   2.490   0.780   9.609  0.5806  2.1943 -0.7447
  161DOPC    HB19407   2.581   0.626   9.606 -0.3945 -0.1532  1.2338
  161DOPC    C219408   2.647   0.779   9.460  0.1937  0.5507 -0.0786
  161DOPC    HS19409   2.585   0.862   9.419  0.0979  0.6564  0.2785
  161DOPC   O2119410   2.643   0.658   9.381 -0.5425 -0.2864  0.0741
  161DOPC   C2119411   2.532   0.636   9.315  0.2657 -0.9624  0.1870
  161DOPC   O2219412   2.433   0.707   9.320  0.1526  0.2772 -0.0638
  161DOPC   C2219413   2.562   0.527   9.206  0.0095 -0.0015 -0.9563
  161DOPC   H2R19414   2.551   0.429   9.259  0.6571 -1.1988 -2.9414
  161DOPC   H2S19415   2.668   0.536   9.173 -0.6316  1.0602 -2.8373
  161DOPC    C319416   2.795   0.818   9.453 -0.1037 -0.3184 -0.0693
  161DOPC    HX19417   2.853   0.748   9.517 -0.8832 -0.8239  0.0950
  161DOPC    HY19418   2.804   0.919   9.500 -0.6104  0.2142 -1.0774
  161DOPC   O3119419   2.831   0.827   9.311 -0.5599 -0.4752  0.0712
  161DOPC   C3119420   2.890   0.721   9.255  0.2534 -0.2816  0.2781
  161DOPC   O3219421   2.949   0.632   9.313  0.6643  0.2011  0.5899
  161DOPC   C3219422   2.887   0.750   9.105  0.1699  0.5556  0.1309
  161DOPC   H2X19423   2.785   0.781   9.072 -0.2875  0.1290  1.1008
  161DOPC   H2Y19424   2.952   0.837   9.083  0.0306  0.7678  0.5517
  161DOPC   C2319425   2.472   0.529   9.082  0.7908  0.1098 -0.1514
  161DOPC   H3R19426   2.366   0.547   9.110  0.0693 -2.6534 -0.7914
  161DOPC   H3S19427   2.468   0.429   9.034 -0.8457  1.3898 -2.9850
  161DOPC   C2419428   2.515   0.627   8.969  0.7726  0.2606  0.3402
  161DOPC   H4R19429   2.624   0.643   8.983  1.0525 -0.2216 -1.1352
  161DOPC   H4S19430   2.472   0.729   8.985  0.1891  0.2405 -0.9918
  161DOPC   C2519431   2.476   0.577   8.829 -0.8414  0.2551 -0.1656
  161DOPC   H5R19432   2.365   0.573   8.825 -0.8325  0.6466 -0.9969
  161DOPC   H5S19433   2.516   0.474   8.820 -1.4816  0.0923 -1.3381
  161DOPC   C2619434   2.530   0.662   8.715  0.4681  0.0769  0.7393
  161DOPC   H6R19435   2.622   0.709   8.755  0.9816 -0.4245  0.1794
  161DOPC   H6S19436   2.458   0.745   8.698 -0.2930 -0.6219  0.4512
  161DOPC   C2719437   2.551   0.577   8.584 -0.6020  0.2571 -0.0213
  161DOPC   H7R19438   2.451   0.548   8.546  0.2135 -0.1423 -1.9434
  161DOPC   H7S19439   2.605   0.481   8.598  0.0072  0.5565 -0.2729
  161DOPC   C2819440   2.613   0.663   8.479 -0.0857 -0.4404 -0.3374
  161DOPC   H8R19441   2.712   0.705   8.508  0.4181 -1.0171 -1.1913
  161DOPC   H8S19442   2.551   0.755   8.474  0.6269  0.3935  3.2269
  161DOPC   C2919443   2.635   0.593   8.347 -0.0510 -0.0445 -0.6053
  161DOPC   H9R19444   2.741   0.564   8.343  0.3903  1.4879 -0.5898
  161DOPC  C21019445   2.565   0.607   8.238 -0.3385  0.2217 -0.8110
  161DOPC  H10R19446   2.574   0.537   8.154 -3.6518  1.8179 -2.7156
  161DOPC  C21119447   2.440   0.695   8.220 -0.5333  0.0858 -0.4650
  161DOPC  H11R19448   2.422   0.749   8.315  3.8996 -3.1086  2.5895
  161DOPC  H11S19449   2.347   0.634   8.207 -1.0935  1.1782 -1.8255
  161DOPC  C21219450   2.445   0.816   8.117 -0.0378  0.0350 -0.5118
  161DOPC  H12R19451   2.342   0.858   8.117  0.5831  1.6546  0.5545
  161DOPC  H12S19452   2.451   0.785   8.011 -0.1241  2.0691 -1.1331
  161DOPC  C21319453   2.567   0.911   8.139 -0.4835  0.1664 -0.0089
  161DOPC  H13R19454   2.666   0.864   8.125  0.1836  1.2706  0.8598
  161DOPC  H13S19455   2.559   0.959   8.239  0.4823 -0.7544  0.5177
  161DOPC  C21419456   2.565   1.028   8.044  0.2449  0.1911 -0.4545
  161DOPC  H14R19457   2.462   1.069   8.051  0.3431  0.2328  1.0888
  161DOPC  H14S19458   2.569   0.984   7.942 -0.8940  1.9528 -1.3204
  161DOPC  C21519459   2.656   1.156   8.071 -0.4674  1.3227  0.3236
  161DOPC  H15R19460   2.763   1.132   8.054 -0.6455  1.6460 -1.4624
  161DOPC  H15S19461   2.629   1.188   8.174  0.0531 -1.2685  1.3485
  161DOPC  C21619462   2.637   1.278   7.974 -0.0502 -0.4941  0.1155
  161DOPC  H16R19463   2.707   1.361   7.995 -0.5679  0.1029 -0.4499
  161DOPC  H16S19464   2.536   1.324   7.984  0.3389  0.0532  1.8596
  161DOPC  C21719465   2.667   1.248   7.825 -0.4185  0.3891  0.5657
  161DOPC  H17R19466   2.602   1.162   7.795  0.6861 -0.0440 -0.7164
  161DOPC  H17S19467   2.774   1.221   7.813 -0.3697  0.9642 -0.3967
  161DOPC  C21819468   2.654   1.366   7.730 -0.4550  0.4038 -0.0229
  161DOPC  H18R19469   2.685   1.334   7.628  1.5751  3.0132 -0.3166
  161DOPC  H18S19470   2.723   1.442   7.772  0.8328 -0.0986 -1.1364
  161DOPC  H18T19471   2.550   1.405   7.728 -1.4346 -1.8904 -3.3541
  161DOPC   C3319472   2.936   0.625   9.020 -0.4229  0.7959  0.9827
  161DOPC   H3X19473   2.895   0.526   9.049  1.3622 -0.4596 -0.5478
  161DOPC   H3Y19474   3.046   0.620   9.037  0.0443  2.5621 -1.1065
  161DOPC   C3419475   2.917   0.654   8.875 -0.0159 -0.0096  0.3176
  161DOPC   H4X19476   2.951   0.757   8.850  0.6762 -0.4911 -0.8048
  161DOPC   H4Y19477   2.809   0.648   8.848 -0.0904 -0.4980  0.7282
  161DOPC   C3519478   2.988   0.549   8.785  0.5349 -0.6639 -0.0684
  161DOPC   H5X19479   2.948   0.448   8.807  2.3455 -1.5857 -0.7706
  161DOPC   H5Y19480   3.095   0.545   8.814  0.3214  1.0937  1.1003
  161DOPC   C3619481   2.990   0.578   8.636  0.5872 -0.4638  0.5156
  161DOPC   H6X19482   2.885   0.583   8.601  0.4940  2.6052  0.9744
  161DOPC   H6Y19483   3.040   0.677   8.624 -0.2317 -0.3010 -2.1205
  161DOPC   C3719484   3.053   0.469   8.551  0.7417  0.9139 -0.1643
  161DOPC   H7X19485   3.163   0.476   8.566  0.9661  0.4636 -1.4912
  161DOPC   H7Y19486   3.019   0.377   8.602 -0.3177  1.3686 -0.0354
  161DOPC   C3819487   3.030   0.486   8.395 -0.4216  0.1715 -0.2004
  161DOPC   H8X19488   3.069   0.587   8.369 -0.8329  0.0140 -1.5169
  161DOPC   H8Y19489   2.920   0.494   8.382 -0.1621  1.6414 -1.9446
  161DOPC   C3919490   3.087   0.374   8.312  0.4848 -0.7222  0.0451
  161DOPC   H9X19491   3.142   0.297   8.367 -0.3699  0.3978  2.6024
  161DOPC  C31019492   3.069   0.349   8.180  0.0250 -0.1568 -0.0612
  161DOPC  H10X19493   3.135   0.281   8.123 -0.1760 -0.0952 -0.3683
  161DOPC  C31119494   2.988   0.442   8.088  0.1959 -0.1616  0.1075
  161DOPC  H11X19495   2.990   0.545   8.130 -0.3115 -0.4496  0.8585
  161DOPC  H11Y19496   2.884   0.404   8.080  0.3244 -0.3572 -0.6909
  161DOPC  C31219497   3.049   0.451   7.949  0.1701 -0.1799 -0.9257
  161DOPC  H12X19498   3.157   0.478   7.951  0.4201 -1.1966  0.9012
  161DOPC  H12Y19499   2.996   0.537   7.901 -1.5982  0.2056  1.5460
  161DOPC  C31319500   3.032   0.325   7.862  0.2440  0.3311  0.1553
  161DOPC  H13X19501   3.062   0.236   7.921 -0.5385 -0.4646 -0.6262
  161DOPC  H13Y19502   2.927   0.297   7.839  0.1824 -0.0751  0.9008
  161DOPC  C31419503   3.096   0.342   7.729 -0.7488 -1.1344  0.2542
  161DOPC  H14X19504   3.056   0.264   7.660 -1.9243 -1.9282  1.7598
  161DOPC  H14Y19505   3.082   0.444   7.688 -0.7843 -0.9777  0.6581
  161DOPC  C31519506   3.247   0.327   7.736  0.0086  0.8608  0.5980
  161DOPC  H15X19507   3.278   0.248   7.808 -1.5360  0.4337  0.8195
  161DOPC  H15Y19508   3.287   0.423   7.776  0.5848  2.2121 -2.8546
  161DOPC  C31619509   3.307   0.316   7.595 -0.6732 -0.2312  0.2537
  161DOPC  H16X19510   3.263   0.225   7.550 -2.0974 -0.5279  2.1406
  161DOPC  H16Y19511   3.275   0.407   7.540 -0.5320 -1.7891 -2.6124
  161DOPC  C31719512   3.463   0.304   7.595  0.4384 -0.5594 -0.0980
  161DOPC  H17X19513   3.479   0.212   7.655 -0.7998 -1.3245 -0.8854
  161DOPC  H17Y19514   3.495   0.275   7.492 -2.0271  0.2377 -1.1825
  161DOPC  C31819515   3.540   0.424   7.655  0.5964  0.1343 -0.4349
  161DOPC  H18X19516   3.650   0.413   7.644  1.0041  3.3613 -0.6239
  161DOPC  H18Y19517   3.516   0.523   7.610 -0.1058  0.0686 -0.2254
  161DOPC  H18Z19518   3.521   0.424   7.765  1.2036  0.2887 -0.3259
  162DOPC     N19519   1.718   5.037   9.565  0.1440 -0.2889  0.6772
  162DOPC   C1219520   1.858   5.070   9.519  0.0091 -0.5839 -0.3502
  162DOPC  H12A19521   1.851   5.102   9.417 -1.2835  0.9177  0.1721
  162DOPC  H12B19522   1.923   4.985   9.533  0.3315 -0.2003  0.5359
  162DOPC   C1319523   1.626   5.149   9.546 -0.0752 -0.3335 -0.2976
  162DOPC  H13A19524   1.660   5.227   9.611  0.2479 -1.0690  0.4293
  162DOPC  H13B19525   1.647   5.181   9.445  0.9512  1.0129  0.3166
  162DOPC  H13C19526   1.524   5.122   9.572  0.2087 -1.7150 -0.5278
  162DOPC   C1419527   1.712   5.005   9.706 -0.0447  0.2496  0.1754
  162DOPC  H14A19528   1.743   5.091   9.763  1.1428  0.6740 -1.0836
  162DOPC  H14B19529   1.607   4.988   9.725 -0.4690  1.7545 -0.6507
  162DOPC  H14C19530   1.770   4.917   9.730 -0.4824  0.4648  2.2314
  162DOPC   C1519531   1.669   4.924   9.482 -0.7234 -0.8305 -0.0647
  162DOPC  H15A19532   1.738   4.841   9.480  0.2332 -0.0595 -2.5335
  162DOPC  H15B19533   1.650   4.963   9.383  1.8245  0.6200 -0.0831
  162DOPC  H15C19534   1.579   4.886   9.527 -1.5650  0.6470 -0.4106
  162DOPC   C1119535   1.935   5.188   9.596 -0.2964 -0.6473  0.5255
  162DOPC  H11A19536   1.924   5.170   9.705  0.6867 -0.4629  0.6645
  162DOPC  H11B19537   2.046   5.176   9.590 -0.2213  0.0249  0.5548
  162DOPC     P19538   1.934   5.395   9.426 -0.2451 -0.3256 -0.2973
  162DOPC   O1319539   1.971   5.296   9.328 -0.2817  0.8897 -0.3381
  162DOPC   O1419540   2.029   5.506   9.456  0.3129 -0.5483  0.2569
  162DOPC   O1219541   1.897   5.322   9.565 -0.0122  0.3587  0.1948
  162DOPC   O1119542   1.796   5.458   9.388  0.0937 -0.2681  0.1851
  162DOPC    C119543   1.728   5.554   9.475  0.5317  0.8582 -0.3127
  162DOPC    HA19544   1.805   5.627   9.508  3.0226 -1.3782 -0.7951
  162DOPC    HB19545   1.680   5.498   9.558 -1.8090  0.1630 -2.0174
  162DOPC    C219546   1.628   5.657   9.404  0.1429 -0.7001  0.6767
  162DOPC    HS19547   1.572   5.726   9.471 -0.8334  0.8159 -1.5503
  162DOPC   O2119548   1.531   5.591   9.316  0.7090  0.4074  0.2346
  162DOPC   C2119549   1.434   5.534   9.381 -0.3493 -0.4426  0.1333
  162DOPC   O2219550   1.424   5.528   9.502  0.3356  0.6167  0.5368
  162DOPC   C2219551   1.337   5.487   9.278  0.3355 -0.5584  0.2230
  162DOPC   H2R19552   1.393   5.452   9.188  1.2321 -0.5210  0.7514
  162DOPC   H2S19553   1.270   5.573   9.258  1.3670  0.5666  1.4618
  162DOPC    C319554   1.704   5.757   9.312 -0.0448  0.1684 -0.3468
  162DOPC    HX19555   1.771   5.691   9.253  1.0652  0.8523  0.1230
  162DOPC    HY19556   1.763   5.813   9.387 -0.5679 -0.5164  0.6009
  162DOPC   O3119557   1.603   5.824   9.237  0.4778 -0.0360 -0.0369
  162DOPC   C3119558   1.660   5.896   9.139 -0.1426 -0.2467  0.1424
  162DOPC   O3219559   1.780   5.917   9.123 -0.0625  0.1058  0.1657
  162DOPC   C3219560   1.537   5.945   9.047 -0.3457 -0.1621  0.0647
  162DOPC   H2X19561   1.485   5.856   9.006 -0.3105 -1.0783  1.9013
  162DOPC   H2Y19562   1.464   5.998   9.111  1.4032 -0.7588  2.7341
  162DOPC   C2319563   1.236   5.380   9.317  0.3309  0.3049  0.4212
  162DOPC   H3R19564   1.200   5.411   9.417 -0.7430 -0.8844  0.4205
  162DOPC   H3S19565   1.282   5.281   9.337  0.7073 -0.1209 -2.2204
  162DOPC   C2419566   1.129   5.348   9.210  0.3088 -0.3098  0.2308
  162DOPC   H4R19567   1.063   5.264   9.239  1.1190 -0.1975  2.6150
  162DOPC   H4S19568   1.179   5.317   9.116  0.7950 -2.9414  1.2699
  162DOPC   C2519569   1.034   5.469   9.175  0.3335 -0.0820 -0.3988
  162DOPC   H5R19570   1.100   5.550   9.138  0.1086  0.0369 -0.5429
  162DOPC   H5S19571   0.981   5.504   9.266  1.4588 -0.1126  0.2876
  162DOPC   C2619572   0.938   5.426   9.063 -0.0629 -0.3619  0.7607
  162DOPC   H6R19573   0.869   5.512   9.047  2.0547  0.8311 -3.2570
  162DOPC   H6S19574   0.874   5.339   9.090 -0.3578 -0.6878 -0.8836
  162DOPC   C2719575   1.012   5.400   8.928  0.0624  0.3523  0.1018
  162DOPC   H7R19576   1.041   5.293   8.936  0.7672  0.4650 -0.8224
  162DOPC   H7S19577   1.105   5.457   8.906  0.5483 -0.3472  0.3179
  162DOPC   C2819578   0.915   5.426   8.803  0.3386  0.2651  0.5098
  162DOPC   H8R19579   0.877   5.530   8.803  1.0129  0.5339 -1.0013
  162DOPC   H8S19580   0.831   5.354   8.815 -3.2093  4.0414  0.5049
  162DOPC   C2919581   0.981   5.407   8.667  0.0206  0.7216 -0.4709
  162DOPC   H9R19582   1.023   5.308   8.646 -0.9760  0.2593 -0.3363
  162DOPC  C21019583   0.970   5.485   8.559  0.1537 -0.1585  0.8858
  162DOPC  H10R19584   1.030   5.455   8.472  1.5966 -0.6050  1.9902
  162DOPC  C21119585   0.909   5.623   8.556 -0.0310  0.5758 -0.5637
  162DOPC  H11R19586   0.906   5.661   8.661  0.9976 -1.5344  0.2859
  162DOPC  H11S19587   0.802   5.619   8.525 -0.6280  1.3049  1.2706
  162DOPC  C21219588   0.977   5.733   8.467  0.3724  0.3925  0.5884
  162DOPC  H12R19589   1.087   5.733   8.484  0.4480 -0.3335  0.1391
  162DOPC  H12S19590   0.931   5.833   8.480  0.1689  0.7111 -2.0218
  162DOPC  C21319591   0.949   5.696   8.315  0.0031  0.2712  0.2222
  162DOPC  H13R19592   0.840   5.698   8.297  0.1953 -0.0731 -1.0394
  162DOPC  H13S19593   0.985   5.595   8.288  1.1909  0.3885  1.2441
  162DOPC  C21419594   1.027   5.794   8.214 -0.1990 -0.1525 -0.3672
  162DOPC  H14R19595   1.130   5.809   8.251  1.4531 -2.6497 -3.4359
  162DOPC  H14S19596   0.974   5.892   8.205  1.3304  0.7421  0.0335
  162DOPC  C21519597   1.035   5.739   8.066  0.2204 -0.1376 -0.7276
  162DOPC  H15R19598   0.935   5.745   8.017 -1.2539 -0.3172  2.0464
  162DOPC  H15S19599   1.069   5.633   8.061 -1.6214 -0.7205 -2.6532
  162DOPC  C21619600   1.130   5.819   7.977  0.0022 -1.1458 -0.0503
  162DOPC  H16R19601   1.116   5.769   7.878 -3.4053 -2.3950  0.9125
  162DOPC  H16S19602   1.238   5.813   8.003 -0.0038 -0.4492  0.1466
  162DOPC  C21719603   1.094   5.970   7.972 -0.1509  0.1904 -0.5935
  162DOPC  H17R19604   1.126   6.026   8.063  0.9967  0.8901 -1.3908
  162DOPC  H17S19605   0.986   5.979   7.948  0.1274  1.4927 -1.4715
  162DOPC  C21819606   1.168   6.049   7.861 -0.0243 -0.2726 -0.3247
  162DOPC  H18R19607   1.134   6.017   7.760 -1.1450 -1.8835  0.5026
  162DOPC  H18S19608   1.277   6.034   7.869 -0.2781 -2.8194 -0.8921
  162DOPC  H18T19609   1.152   6.158   7.873  1.1343  0.0553 -1.5870
  162DOPC   C3319610   1.598   6.030   8.936 -0.4419 -0.1571  0.0031
  162DOPC   H3X19611   1.706   6.051   8.951 -0.8378  2.4167 -0.1425
  162DOPC   H3Y19612   1.544   6.128   8.937  2.0929  1.3394  0.7250
  162DOPC   C3419613   1.590   5.961   8.799  0.1413  0.7806 -0.1988
  162DOPC   H4X19614   1.623   6.046   8.735 -0.9293  0.6973 -0.8758
  162DOPC   H4Y19615   1.490   5.918   8.778  1.2871 -2.6738  0.7371
  162DOPC   C3519616   1.704   5.857   8.777 -0.0903  0.6577  0.0857
  162DOPC   H5X19617   1.691   5.806   8.679  0.5602  0.4840  0.0871
  162DOPC   H5Y19618   1.699   5.770   8.846  1.7064  0.2712 -0.2166
  162DOPC   C3619619   1.844   5.914   8.777 -0.3803 -0.6724 -0.2710
  162DOPC   H6X19620   1.849   6.019   8.739 -0.9701 -0.8747 -0.9183
  162DOPC   H6Y19621   1.874   5.928   8.883  0.0464  0.0141 -0.4712
  162DOPC   C3719622   1.943   5.823   8.709 -0.4356  0.1799 -0.4720
  162DOPC   H7X19623   2.047   5.847   8.737 -1.0337  1.1970  0.9755
  162DOPC   H7Y19624   1.919   5.717   8.733 -0.2082 -0.2153 -1.9141
  162DOPC   C3819625   1.930   5.828   8.557 -0.3940 -0.1582  0.3770
  162DOPC   H8X19626   1.826   5.815   8.522  0.7434 -0.5920 -3.3651
  162DOPC   H8Y19627   1.981   5.739   8.511  0.4139 -0.4385  1.7666
  162DOPC   C3919628   1.990   5.950   8.492  0.2641  0.4494 -0.0178
  162DOPC   H9X19629   1.966   6.048   8.537  2.1941 -0.0379  2.2602
  162DOPC  C31019630   2.076   5.954   8.389 -0.0522 -0.3818 -0.4906
  162DOPC  H10X19631   2.111   6.052   8.354 -0.9325  0.5486  1.0991
  162DOPC  C31119632   2.134   5.849   8.308  0.0304  0.1666 -0.1233
  162DOPC  H11X19633   2.135   5.752   8.362  0.0677  0.0222 -0.3819
  162DOPC  H11Y19634   2.239   5.877   8.282 -0.0814  0.7694  0.0425
  162DOPC  C31219635   2.052   5.813   8.179  0.3276 -0.3177  0.4080
  162DOPC  H12X19636   1.946   5.794   8.208  0.2063  0.5696  0.5988
  162DOPC  H12Y19637   2.096   5.739   8.110  3.0831  1.2706  0.3125
  162DOPC  C31319638   2.041   5.949   8.096 -0.2630 -0.0079 -0.9716
  162DOPC  H13X19639   1.979   6.026   8.146  2.4616  0.8607  1.2842
  162DOPC  H13Y19640   2.146   5.983   8.090 -0.4718  1.5938  2.1992
  162DOPC  C31419641   1.978   5.925   7.954  0.1763 -0.8269  0.1455
  162DOPC  H14X19642   2.035   5.848   7.898  0.4439 -1.0935  0.7733
  162DOPC  H14Y19643   1.875   5.886   7.967 -0.5910  1.2110  0.5338
  162DOPC  C31519644   1.969   6.054   7.868  0.5743 -0.0804 -0.0994
  162DOPC  H15X19645   2.066   6.090   7.827 -0.2705  0.9542 -1.2863
  162DOPC  H15Y19646   1.917   6.135   7.924 -0.2366  0.7023 -1.8848
  162DOPC  C31619647   1.889   6.033   7.738 -0.3657 -0.6909  0.1496
  162DOPC  H16X19648   1.936   5.947   7.686 -0.4516 -0.7468  0.1643
  162DOPC  H16Y19649   1.785   5.997   7.754 -0.1291 -1.9521 -1.0405
  162DOPC  C31719650   1.898   6.156   7.651  0.5235  0.3648 -0.4439
  162DOPC  H17X19651   1.830   6.227   7.703  1.1146  0.1924  0.5953
  162DOPC  H17Y19652   2.000   6.200   7.647 -0.1251  2.2148  1.5336
  162DOPC  C31819653   1.847   6.128   7.514 -0.6607 -0.3368 -0.8828
  162DOPC  H18X19654   1.891   6.042   7.460  0.1999  0.8575 -2.1674
  162DOPC  H18Y19655   1.736   6.123   7.515 -0.8342  1.7412  1.7368
  162DOPC  H18Z19656   1.868   6.223   7.460 -2.0376 -0.0340 -0.9121
  163DOPC     N19657   6.194   2.919  10.052  0.6707 -0.5205  0.2391
  163DOPC   C1219658   6.287   3.018   9.993  0.1556  0.4668  0.0606
  163DOPC  H12A19659   6.245   3.115  10.015 -2.0061 -0.2347 -0.7278
  163DOPC  H12B19660   6.287   3.010   9.885  1.5987 -0.8619  0.1240
  163DOPC   C1319661   6.187   2.936  10.201 -0.4854  1.3059  0.5960
  163DOPC  H13A19662   6.287   2.917  10.239 -0.5096 -2.2432 -0.7709
  163DOPC  H13B19663   6.138   3.029  10.225  1.8060  3.1603 -1.3855
  163DOPC  H13C19664   6.133   2.852  10.243  1.7138 -2.0542 -2.7190
  163DOPC   C1419665   6.235   2.778  10.028 -0.3817  0.1225 -0.2147
  163DOPC  H14A19666   6.232   2.773   9.920  0.8897  1.7001 -0.3597
  163DOPC  H14B19667   6.336   2.755  10.057  0.1960  1.5121 -1.0196
  163DOPC  H14C19668   6.166   2.704  10.065 -0.9509  0.4270 -0.6485
  163DOPC   C1519669   6.055   2.946  10.002  0.4402  0.3392  0.5123
  163DOPC  H15A19670   6.017   3.043  10.033  0.5303  0.5140  0.0901
  163DOPC  H15B19671   5.988   2.877  10.052  1.4877 -1.5439 -0.5701
  163DOPC  H15C19672   6.036   2.929   9.897  1.0973 -1.5199  0.6717
  163DOPC   C1119673   6.440   3.026  10.039  0.2390 -1.0538 -0.3574
  163DOPC  H11A19674   6.499   3.089   9.970 -0.4719 -0.8785 -0.8231
  163DOPC  H11B19675   6.442   3.063  10.144  0.2362  1.4746 -1.1956
  163DOPC     P19676   6.583   2.828  10.129 -0.1861 -0.1246  0.2185
  163DOPC   O1319677   6.552   2.686  10.143  0.0128  0.2383  0.0798
  163DOPC   O1419678   6.583   2.909  10.250  0.0547 -0.0147  0.2114
  163DOPC   O1219679   6.492   2.894  10.021  0.6539  0.6639 -0.1053
  163DOPC   O1119680   6.725   2.838  10.070 -0.8802  0.6363  0.2328
  163DOPC    C119681   6.765   2.911   9.952  0.4520  0.7968 -0.8733
  163DOPC    HA19682   6.864   2.948   9.986  0.1368  0.2407  0.7244
  163DOPC    HB19683   6.692   2.993   9.934 -0.2115  0.4003 -0.0766
  163DOPC    C219684   6.778   2.811   9.833  0.0987 -0.7681 -0.0441
  163DOPC    HS19685   6.826   2.874   9.756 -3.5619  0.5400 -1.4907
  163DOPC   O2119686   6.650   2.761   9.790 -0.6483  0.2660  0.1932
  163DOPC   C2119687   6.575   2.847   9.724 -0.2720 -0.4385  0.8054
  163DOPC   O2219688   6.598   2.965   9.701 -0.2523  0.4604  0.5502
  163DOPC   C2219689   6.443   2.779   9.680  0.8277  0.6586 -0.6463
  163DOPC   H2R19690   6.377   2.774   9.769  1.1029  0.3238 -0.4604
  163DOPC   H2S19691   6.475   2.676   9.653  1.5302  1.1101 -1.5989
  163DOPC    C319692   6.886   2.698   9.875 -0.2670 -0.1376  0.2591
  163DOPC    HX19693   6.849   2.635   9.958 -1.1530  0.3895  0.2803
  163DOPC    HY19694   6.981   2.749   9.903 -0.3511  0.3357 -0.2871
  163DOPC   O3119695   6.917   2.611   9.766  0.2976 -0.5748 -0.0084
  163DOPC   C3119696   6.989   2.656   9.670 -0.4137 -0.8888  0.1482
  163DOPC   O3219697   7.005   2.774   9.637 -0.3784 -0.6409 -0.1499
  163DOPC   C3219698   7.033   2.541   9.577 -0.1763 -0.5636 -0.4430
  163DOPC   H2X19699   7.100   2.594   9.506 -0.7857  0.7765 -0.0445
  163DOPC   H2Y19700   7.080   2.458   9.634 -2.1432 -1.6333 -0.2876
  163DOPC   C2319701   6.369   2.840   9.567 -1.0185 -0.7712 -0.2251
  163DOPC   H3R19702   6.366   2.943   9.609  0.8131 -1.8195  2.7862
  163DOPC   H3S19703   6.268   2.799   9.547 -1.6555  0.9419 -0.7667
  163DOPC   C2419704   6.443   2.859   9.434  0.2218  0.6728 -1.7275
  163DOPC   H4R19705   6.538   2.910   9.462  0.8676 -1.6917  0.7960
  163DOPC   H4S19706   6.381   2.911   9.358  0.6499 -0.5101 -2.9132
  163DOPC   C2519707   6.481   2.724   9.372 -0.2354 -0.3500  0.3356
  163DOPC   H5R19708   6.380   2.687   9.349 -0.0141 -0.1176 -1.0751
  163DOPC   H5S19709   6.539   2.661   9.444  2.0385  0.8213 -0.3629
  163DOPC   C2619710   6.563   2.741   9.237 -0.0851 -0.6079  0.5969
  163DOPC   H6R19711   6.668   2.763   9.265 -0.1823 -1.4184  1.6205
  163DOPC   H6S19712   6.528   2.837   9.191 -0.1658 -1.3995 -1.0544
  163DOPC   C2719713   6.560   2.620   9.154  0.0674 -0.4636  0.5669
  163DOPC   H7R19714   6.559   2.534   9.224  2.5998 -1.9128 -1.0629
  163DOPC   H7S19715   6.662   2.605   9.112  0.1769 -0.5630  0.8651
  163DOPC   C2819716   6.447   2.615   9.051  0.5592  0.1308 -0.6026
  163DOPC   H8R19717   6.349   2.643   9.094  2.5974  1.8003  3.5354
  163DOPC   H8S19718   6.445   2.511   9.012 -0.4762 -1.1799  2.5962
  163DOPC   C2919719   6.457   2.724   8.943 -0.1375  0.7050 -0.3226
  163DOPC   H9R19720   6.457   2.828   8.978  0.6659  0.1561  1.4143
  163DOPC  C21019721   6.483   2.701   8.808  0.9442 -0.2898 -0.7817
  163DOPC  H10R19722   6.493   2.777   8.728  1.7516  0.4138 -0.0332
  163DOPC  C21119723   6.492   2.566   8.736  0.7448 -0.2168  0.1652
  163DOPC  H11R19724   6.470   2.480   8.804  2.3004 -0.1061  0.8554
  163DOPC  H11S19725   6.589   2.539   8.688  1.5810 -0.6557  2.0338
  163DOPC  C21219726   6.375   2.551   8.637  0.4083  0.7801 -0.1577
  163DOPC  H12R19727   6.278   2.595   8.667 -1.0450 -2.4245  0.2694
  163DOPC  H12S19728   6.358   2.441   8.634 -0.2194  0.8265  1.1252
  163DOPC  C21319729   6.404   2.614   8.505 -0.4995  0.2492  0.5496
  163DOPC  H13R19730   6.510   2.587   8.485 -0.4188  1.1803 -0.3951
  163DOPC  H13S19731   6.402   2.725   8.513 -0.3321  0.2603  0.4403
  163DOPC  C21419732   6.319   2.569   8.393 -0.0390 -0.3438  0.3638
  163DOPC  H14R19733   6.217   2.598   8.426  1.2346  4.2477  0.9280
  163DOPC  H14S19734   6.330   2.459   8.381  0.4569 -0.3071  0.4762
  163DOPC  C21519735   6.355   2.632   8.257  0.9602 -0.3638 -0.1112
  163DOPC  H15R19736   6.461   2.630   8.224  0.1065 -0.9159 -3.1121
  163DOPC  H15S19737   6.320   2.737   8.261  0.9310 -0.4011  0.8309
  163DOPC  C21619738   6.283   2.557   8.145 -0.6303  0.5594 -0.2264
  163DOPC  H16R19739   6.175   2.546   8.168 -0.1657 -3.2024  0.7922
  163DOPC  H16S19740   6.320   2.453   8.159 -0.7855  0.3718 -1.1755
  163DOPC  C21719741   6.310   2.608   8.009  0.4461 -0.1767  0.0124
  163DOPC  H17R19742   6.412   2.632   7.972  0.5921 -1.6236 -0.6053
  163DOPC  H17S19743   6.248   2.700   8.000 -1.2079 -1.2783 -0.3034
  163DOPC  C21819744   6.235   2.515   7.915  0.9558  0.0030 -0.1190
  163DOPC  H18R19745   6.242   2.550   7.811 -1.6856 -0.2619 -0.4620
  163DOPC  H18S19746   6.128   2.522   7.946  1.4010  1.5796  1.1723
  163DOPC  H18T19747   6.269   2.410   7.931 -0.9706 -0.2669  3.4365
  163DOPC   C3319748   6.918   2.489   9.492  0.2397 -0.2003  0.2851
  163DOPC   H3X19749   6.854   2.574   9.460 -1.7170 -0.7464  2.4797
  163DOPC   H3Y19750   6.857   2.417   9.551  1.1706 -0.8520  0.4939
  163DOPC   C3419751   6.972   2.398   9.379  0.3125  0.3534 -0.3971
  163DOPC   H4X19752   7.027   2.317   9.432  0.2056  1.0232  0.7869
  163DOPC   H4Y19753   7.039   2.466   9.322  2.1186 -1.9616 -1.2053
  163DOPC   C3519754   6.859   2.354   9.284 -0.0076 -0.6295  0.0011
  163DOPC   H5X19755   6.773   2.424   9.293  0.0253 -0.6206  0.2588
  163DOPC   H5Y19756   6.818   2.261   9.328 -1.7915  0.7273  1.4215
  163DOPC   C3619757   6.913   2.334   9.152 -0.0452  0.4953 -0.4600
  163DOPC   H6X19758   6.952   2.432   9.116 -1.3802  1.7317  1.2851
  163DOPC   H6Y19759   6.993   2.258   9.166 -0.0557  0.8855  2.1538
  163DOPC   C3719760   6.816   2.274   9.041  0.4053 -0.7006 -0.2423
  163DOPC   H7X19761   6.758   2.192   9.088 -0.3934  0.6752  1.2936
  163DOPC   H7Y19762   6.748   2.355   9.006  0.7584 -0.2415  0.1225
  163DOPC   C3819763   6.890   2.230   8.915 -0.2225  1.2371  0.1135
  163DOPC   H8X19764   6.823   2.171   8.849 -1.3599  1.1041  1.3537
  163DOPC   H8Y19765   6.966   2.157   8.949  1.2595  2.5911 -0.1629
  163DOPC   C3919766   6.963   2.319   8.827  0.2798 -0.0519  0.3517
  163DOPC   H9X19767   7.049   2.357   8.883  1.2391 -1.4127 -0.1393
  163DOPC  C31019768   6.931   2.348   8.700 -0.3377 -0.0929 -0.0454
  163DOPC  H10X19769   7.001   2.407   8.639  0.1818 -1.8000 -1.1589
  163DOPC  C31119770   6.816   2.302   8.616 -0.1493  0.8044 -0.4901
  163DOPC  H11X19771   6.726   2.297   8.682  1.4051  1.2127  1.7684
  163DOPC  H11Y19772   6.846   2.201   8.582 -0.9718  0.8402 -1.3621
  163DOPC  C31219773   6.791   2.394   8.496  0.0009 -0.3930 -0.3189
  163DOPC  H12X19774   6.885   2.434   8.455 -0.2483  0.7460  0.1913
  163DOPC  H12Y19775   6.724   2.475   8.533 -0.6489 -1.1382  0.1745
  163DOPC  C31319776   6.700   2.334   8.387  0.2148 -0.1602 -0.2034
  163DOPC  H13X19777   6.742   2.233   8.366  0.6941  0.0650 -0.3462
  163DOPC  H13Y19778   6.599   2.315   8.428  1.0111  3.0449  3.9082
  163DOPC  C31419779   6.693   2.416   8.256  1.0029  0.6052  0.0725
  163DOPC  H14X19780   6.616   2.495   8.260 -0.5462 -0.7545 -1.3546
  163DOPC  H14Y19781   6.788   2.470   8.237  0.7169 -0.0050 -3.8145
  163DOPC  C31519782   6.673   2.317   8.138  0.3124  0.1497  0.4346
  163DOPC  H15X19783   6.577   2.262   8.149  1.4062 -2.4076 -1.5644
  163DOPC  H15Y19784   6.757   2.244   8.127  0.7733  0.6510  0.5475
  163DOPC  C31619785   6.658   2.379   8.000  0.7128 -0.3773 -0.0719
  163DOPC  H16X19786   6.590   2.466   8.001 -0.9478 -1.5157 -2.7614
  163DOPC  H16Y19787   6.753   2.420   7.959  1.9825 -1.0989  2.0271
  163DOPC  C31719788   6.620   2.273   7.895  0.2187  0.1124  0.0422
  163DOPC  H17X19789   6.704   2.204   7.913 -0.0505 -0.5939 -1.2604
  163DOPC  H17Y19790   6.526   2.217   7.915  0.6720 -1.3906 -1.8073
  163DOPC  C31819791   6.613   2.320   7.748 -0.8127  0.5002 -0.0143
  163DOPC  H18X19792   6.582   2.235   7.683  0.1044  0.4205 -0.3520
  163DOPC  H18Y19793   6.535   2.399   7.755 -1.1422  0.3334 -1.4551
  163DOPC  H18Z19794   6.708   2.357   7.705  1.1602 -1.3900  2.3532
  164DOPC     N19795   0.753   0.748  10.078  0.3544  0.3486  0.1931
  164DOPC   C1219796   0.849   0.749   9.956 -0.0558 -0.0495  1.0863
  164DOPC  H12A19797   0.874   0.654   9.912  0.2438  1.2719 -1.8190
  164DOPC  H12B19798   0.945   0.795   9.977  0.0352  0.4476 -0.3034
  164DOPC   C1319799   0.709   0.885  10.114  0.7570 -0.0935  0.1851
  164DOPC  H13A19800   0.651   0.885  10.206 -3.0479  1.7537 -1.9831
  164DOPC  H13B19801   0.801   0.940  10.112  1.6759 -1.5835 -2.6184
  164DOPC  H13C19802   0.638   0.918  10.040 -0.9054 -3.4007  0.1300
  164DOPC   C1419803   0.833   0.686  10.193  0.2503  0.3396 -0.7490
  164DOPC  H14A19804   0.856   0.581  10.181  0.6858  0.1834  1.0864
  164DOPC  H14B19805   0.933   0.723  10.206  0.2973 -0.0481  0.0634
  164DOPC  H14C19806   0.776   0.698  10.284  0.6529 -0.9483 -0.3067
  164DOPC   C1519807   0.630   0.665  10.044 -0.1039 -0.4937 -0.6206
  164DOPC  H15A19808   0.558   0.706   9.975  0.7193  0.2670 -1.0442
  164DOPC  H15B19809   0.567   0.644  10.129 -0.3481 -2.1924 -1.1799
  164DOPC  H15C19810   0.650   0.565  10.007 -1.8206 -0.7688 -0.9200
  164DOPC   C1119811   0.788   0.835   9.843 -0.0497  0.2727  0.1127
  164DOPC  H11A19812   0.828   0.794   9.748 -0.4233 -1.3935  0.6334
  164DOPC  H11B19813   0.679   0.823   9.832 -0.0016  1.0388 -1.3511
  164DOPC     P19814   0.959   1.027   9.850 -0.2519 -0.0924  0.1643
  164DOPC   O1319815   1.009   0.991   9.980  0.4430  0.1374 -0.2955
  164DOPC   O1419816   0.957   1.172   9.803 -0.7729  0.8871  0.0966
  164DOPC   O1219817   0.816   0.975   9.843  0.8792 -0.0106  0.2954
  164DOPC   O1119818   1.035   0.941   9.741  0.6993 -0.5705 -0.4845
  164DOPC    C119819   1.088   0.994   9.616  0.3784  0.0124 -0.3263
  164DOPC    HA19820   1.172   0.933   9.577 -0.4694 -0.6816 -1.1152
  164DOPC    HB19821   1.122   1.100   9.621  0.1074  0.0430  1.9747
  164DOPC    C219822   0.993   0.982   9.498  0.7507  0.0326 -0.1949
  164DOPC    HS19823   1.044   1.040   9.418 -1.0626 -0.6968 -1.9763
  164DOPC   O2119824   0.856   1.029   9.520 -0.3854  0.3288  0.3175
  164DOPC   C2119825   0.839   1.165   9.523 -0.1386  0.2895 -0.4788
  164DOPC   O2219826   0.922   1.246   9.496 -0.0892 -0.2422 -0.0191
  164DOPC   C2219827   0.688   1.187   9.538  0.0957 -0.2012  0.0545
  164DOPC   H2R19828   0.681   1.214   9.646 -1.5536 -2.8103  0.6758
  164DOPC   H2S19829   0.631   1.094   9.520 -1.2194 -0.2134  3.5163
  164DOPC    C319830   0.981   0.839   9.445  0.0597  0.2791  0.4344
  164DOPC    HX19831   0.917   0.775   9.509  1.7657 -3.6438 -1.4016
  164DOPC    HY19832   1.076   0.781   9.445 -0.1068 -0.0470 -1.4283
  164DOPC   O3119833   0.922   0.829   9.320  0.0931  0.7016 -0.0917
  164DOPC   C3119834   0.995   0.851   9.215 -0.0614 -0.5038 -0.0088
  164DOPC   O3219835   1.116   0.851   9.215 -0.0297  0.7638 -0.2170
  164DOPC   C3219836   0.896   0.867   9.090 -0.7466  0.3268  0.5325
  164DOPC   H2X19837   0.840   0.772   9.096  1.5555 -1.1295  0.4683
  164DOPC   H2Y19838   0.836   0.958   9.110  0.2418  0.5709  2.6712
  164DOPC   C2319839   0.628   1.309   9.456 -0.0772 -0.0529  0.5032
  164DOPC   H3R19840   0.703   1.386   9.426 -1.0682  0.8828  0.3945
  164DOPC   H3S19841   0.555   1.356   9.525  0.4475  0.8377  0.4732
  164DOPC   C2419842   0.536   1.263   9.339  0.3205  0.1419  0.1363
  164DOPC   H4R19843   0.465   1.345   9.314 -2.9196 -2.3075  0.6576
  164DOPC   H4S19844   0.476   1.180   9.381 -0.8302  0.3768 -0.9751
  164DOPC   C2519845   0.611   1.227   9.217 -0.2648  0.1388  0.4666
  164DOPC   H5R19846   0.663   1.131   9.240 -0.5923  0.3044  2.0222
  164DOPC   H5S19847   0.683   1.309   9.199  0.2444 -0.5237 -0.6355
  164DOPC   C2619848   0.518   1.208   9.095 -0.4115  0.3999 -0.1369
  164DOPC   H6R19849   0.459   1.302   9.090 -0.6034  0.2805 -0.1301
  164DOPC   H6S19850   0.442   1.128   9.111 -0.1351 -0.0932 -1.1850
  164DOPC   C2719851   0.591   1.184   8.965  0.4404 -0.1410  0.1018
  164DOPC   H7R19852   0.632   1.081   8.972 -0.9612 -1.0024 -2.6354
  164DOPC   H7S19853   0.664   1.264   8.943  0.4891 -0.2523 -0.1442
  164DOPC   C2819854   0.502   1.189   8.847 -0.0669 -0.4445  0.6888
  164DOPC   H8R19855   0.555   1.218   8.754 -2.0488 -1.3973 -0.8295
  164DOPC   H8S19856   0.432   1.274   8.865 -0.5764 -0.6595 -0.1976
  164DOPC   C2919857   0.427   1.062   8.824  0.2470  0.0550  0.4110
  164DOPC   H9R19858   0.434   0.992   8.908  0.5237 -1.7264 -1.0418
  164DOPC  C21019859   0.381   1.011   8.706 -0.3061 -0.1959  0.4441
  164DOPC  H10R19860   0.335   0.911   8.713  1.0537 -0.9220 -0.5712
  164DOPC  C21119861   0.376   1.084   8.573 -0.2382 -0.4015 -0.0673
  164DOPC  H11R19862   0.455   1.163   8.566 -0.6116 -0.1368 -2.0569
  164DOPC  H11S19863   0.279   1.136   8.565  0.3981  0.6156 -1.8058
  164DOPC  C21219864   0.391   0.987   8.458  0.2925 -0.5272 -0.0319
  164DOPC  H12R19865   0.314   0.907   8.452  0.4668 -0.8778  1.9174
  164DOPC  H12S19866   0.485   0.929   8.465 -1.3485 -3.1613  2.2319
  164DOPC  C21319867   0.385   1.066   8.326 -0.4702  0.6084 -0.4261
  164DOPC  H13R19868   0.457   1.150   8.323 -0.0082  0.4705  2.9331
  164DOPC  H13S19869   0.288   1.121   8.316 -0.6827  0.2769 -0.1906
  164DOPC  C21419870   0.398   0.983   8.197 -0.5766  0.4757 -0.8003
  164DOPC  H14R19871   0.356   0.882   8.213  1.4716  0.0114  2.7498
  164DOPC  H14S19872   0.505   0.967   8.174 -0.0887 -0.3183  1.7498
  164DOPC  C21519873   0.333   1.046   8.075  0.7080  0.3223  0.0654
  164DOPC  H15R19874   0.390   1.135   8.042 -0.2866  0.9984  0.1291
  164DOPC  H15S19875   0.227   1.073   8.090  0.5487  0.3814 -1.0497
  164DOPC  C21619876   0.326   0.949   7.962  0.2129  0.2305  0.2142
  164DOPC  H16R19877   0.220   0.927   7.934  1.0295 -1.8975 -1.4889
  164DOPC  H16S19878   0.365   0.845   7.976  2.2039  0.5343 -2.3464
  164DOPC  C21719879   0.388   0.995   7.826  0.0599 -0.4671 -0.0178
  164DOPC  H17R19880   0.483   1.052   7.830 -0.4795  0.5815 -1.3132
  164DOPC  H17S19881   0.324   1.071   7.778  1.5073 -0.0601 -1.3875
  164DOPC  C21819882   0.398   0.879   7.731 -0.1088 -0.4049  0.1942
  164DOPC  H18R19883   0.421   0.920   7.630 -0.5148 -0.4290  0.0910
  164DOPC  H18S19884   0.306   0.818   7.720 -0.2586 -0.4332  1.5003
  164DOPC  H18T19885   0.471   0.808   7.776  1.0169  0.3097 -0.4495
  164DOPC   C3319886   0.970   0.870   8.954  0.3910 -0.1007 -0.3726
  164DOPC   H3X19887   1.043   0.786   8.949  1.6790  0.7758  2.0668
  164DOPC   H3Y19888   1.024   0.967   8.950 -0.4465  0.4434  1.0059
  164DOPC   C3419889   0.875   0.848   8.837  0.4106 -0.1160 -0.0361
  164DOPC   H4X19890   0.792   0.920   8.852 -1.4101 -2.3997  1.4806
  164DOPC   H4Y19891   0.823   0.751   8.850 -0.2350  0.0723 -1.0970
  164DOPC   C3519892   0.928   0.884   8.699 -0.5149 -0.5395 -0.1320
  164DOPC   H5X19893   1.029   0.838   8.709  0.3242  0.9446 -1.3045
  164DOPC   H5Y19894   0.941   0.994   8.695  0.1543 -0.6341 -0.6442
  164DOPC   C3619895   0.863   0.828   8.573  0.2141 -0.4713  0.1226
  164DOPC   H6X19896   0.815   0.731   8.598 -0.0433 -0.3958 -0.0690
  164DOPC   H6Y19897   0.780   0.896   8.543  1.1969  1.4510  1.5794
  164DOPC   C3719898   0.964   0.799   8.457 -0.3752  0.3999 -0.0598
  164DOPC   H7X19899   1.006   0.899   8.432 -3.0244  1.0648 -2.4328
  164DOPC   H7Y19900   1.042   0.725   8.486 -0.2639 -0.4922 -2.3990
  164DOPC   C3819901   0.900   0.753   8.326  0.1764  0.3185 -0.3772
  164DOPC   H8X19902   0.811   0.810   8.295 -0.8634 -0.4057  1.1672
  164DOPC   H8Y19903   0.857   0.651   8.336 -0.2524  0.2033 -2.8346
  164DOPC   C3919904   1.005   0.747   8.217 -0.1434 -0.2130 -0.4059
  164DOPC   H9X19905   1.058   0.842   8.198 -1.9275  0.9897  0.3214
  164DOPC  C31019906   1.039   0.639   8.136 -0.1103 -0.0856 -0.4047
  164DOPC  H10X19907   1.122   0.643   8.064  0.0059 -1.4781 -0.3840
  164DOPC  C31119908   0.976   0.504   8.138 -0.5504 -0.1871  0.2266
  164DOPC  H11X19909   0.882   0.487   8.195 -1.1992 -0.7840 -0.9908
  164DOPC  H11Y19910   1.052   0.437   8.186 -0.3486  0.4635  0.8375
  164DOPC  C31219911   0.963   0.446   7.996  0.4618 -0.1192 -0.0950
  164DOPC  H12X19912   0.908   0.520   7.934 -0.1033  0.4778  1.0869
  164DOPC  H12Y19913   0.908   0.350   8.006  0.7015 -0.2723 -0.2517
  164DOPC  C31319914   1.087   0.411   7.922  0.2558 -0.2385  0.2312
  164DOPC  H13X19915   1.172   0.467   7.968 -0.6145  0.3120  1.2360
  164DOPC  H13Y19916   1.112   0.303   7.917  0.9110 -0.0671 -0.4932
  164DOPC  C31419917   1.094   0.457   7.779  0.6799  0.0536  0.8877
  164DOPC  H14X19918   1.202   0.455   7.753  0.5871 -0.6506  0.5392
  164DOPC  H14Y19919   1.064   0.563   7.762  2.0782  0.2544 -0.6997
  164DOPC  C31519920   1.021   0.378   7.669  0.4805  0.2830 -0.0512
  164DOPC  H15X19921   0.912   0.396   7.683  0.8143  2.8877 -0.2396
  164DOPC  H15Y19922   1.040   0.270   7.685 -0.6256  0.0839  0.0526
  164DOPC  C31619923   1.070   0.409   7.527  0.3974 -0.2661 -0.0147
  164DOPC  H16X19924   1.028   0.511   7.510 -0.9669 -0.5895  1.2289
  164DOPC  H16Y19925   1.180   0.400   7.540  0.5338  2.6632  2.0449
  164DOPC  C31719926   1.019   0.298   7.429  0.5903 -0.4596  0.1958
  164DOPC  H17X19927   1.057   0.331   7.330  0.0220  0.0920  0.1587
  164DOPC  H17Y19928   1.068   0.202   7.457 -0.8134 -0.7125  1.9903
  164DOPC  C31819929   0.868   0.275   7.411  0.2700 -0.2803 -0.4667
  164DOPC  H18X19930   0.806   0.365   7.394  0.5601 -0.1210 -0.6874
  164DOPC  H18Y19931   0.856   0.211   7.320 -1.8080 -0.1762 -0.3051
  164DOPC  H18Z19932   0.831   0.228   7.505  0.8871 -2.5940 -1.2927
  165DOPC     N19933   4.890   1.200  10.677 -0.7247 -0.0739  0.5425
  165DOPC   C1219934   4.977   1.079  10.674  0.3165  0.6063  0.0739
  165DOPC  H12A19935   4.919   0.995  10.641  2.0478 -0.1828 -1.1139
  165DOPC  H12B19936   4.997   1.058  10.778  1.4946 -1.2938 -0.4949
  165DOPC   C1319937   4.776   1.183  10.769 -0.2467  0.0896 -0.2175
  165DOPC  H13A19938   4.796   1.134  10.864 -1.1526 -0.4802 -0.3032
  165DOPC  H13B19939   4.730   1.276  10.797 -2.6645 -1.1020  0.0784
  165DOPC  H13C19940   4.696   1.121  10.731 -1.6387  1.2518  0.7078
  165DOPC   C1419941   4.835   1.217  10.541 -0.0146  0.1177  0.0143
  165DOPC  H14A19942   4.795   1.119  10.519  1.2062 -0.1659 -1.0430
  165DOPC  H14B19943   4.762   1.297  10.534  0.8468  0.8775 -0.4545
  165DOPC  H14C19944   4.913   1.223  10.467  1.5826  1.7083  1.7160
  165DOPC   C1519945   4.975   1.315  10.726 -0.0228  0.4435 -0.1927
  165DOPC  H15A19946   5.054   1.341  10.657  1.5397  1.7470  1.9360
  165DOPC  H15B19947   5.037   1.283  10.809  1.6626 -1.8899 -2.1823
  165DOPC  H15C19948   4.917   1.404  10.742  0.6065  1.1014 -1.4246
  165DOPC   C1119949   5.106   1.066  10.590 -0.3876  0.3029 -0.2630
  165DOPC  H11A19950   5.174   1.147  10.625 -0.5080 -0.9554  3.3265
  165DOPC  H11B19951   5.158   0.976  10.629  1.0629  1.7686  1.3562
  165DOPC     P19952   5.008   0.933  10.385  0.3772  0.0843 -0.4934
  165DOPC   O1319953   4.861   0.952  10.398 -0.9595  0.6047  0.2537
  165DOPC   O1419954   5.051   0.806  10.450 -0.0438 -0.0822 -0.1986
  165DOPC   O1219955   5.081   1.056  10.453 -0.1422 -0.2347 -0.1865
  165DOPC   O1119956   5.056   0.941  10.240 -0.4489 -0.1627  0.0214
  165DOPC    C119957   5.160   0.845  10.208  0.0037  1.1694  0.3084
  165DOPC    HA19958   5.110   0.746  10.205 -0.2775  1.3207 -0.2028
  165DOPC    HB19959   5.244   0.854  10.280 -0.9585 -0.2721  1.6896
  165DOPC    C219960   5.225   0.860  10.073 -0.8980  0.4628  0.6110
  165DOPC    HS19961   5.272   0.961  10.065 -0.3626  0.2729  1.3011
  165DOPC   O2119962   5.115   0.848   9.984 -0.1260  1.0743  0.4998
  165DOPC   C2119963   5.122   0.924   9.878  0.5239 -0.3878  0.2508
  165DOPC   O2219964   5.208   1.007   9.855  0.0588 -0.1412  0.3456
  165DOPC   C2219965   5.001   0.897   9.784 -0.3020  0.0371 -0.9687
  165DOPC   H2R19966   4.936   0.987   9.795  0.3272  0.4398 -0.4458
  165DOPC   H2S19967   4.947   0.811   9.830  0.6813  0.9824  2.2613
  165DOPC    C319968   5.324   0.742  10.041 -0.4250  0.1512  0.7154
  165DOPC    HX19969   5.282   0.653  10.093  0.5581 -1.2067 -0.7306
  165DOPC    HY19970   5.421   0.770  10.086  1.0245 -0.9822 -1.5229
  165DOPC   O3119971   5.338   0.713   9.900  0.1837 -0.3445  0.2495
  165DOPC   C3119972   5.402   0.605   9.875 -0.2243  0.3767  0.0977
  165DOPC   O3219973   5.439   0.526   9.958 -0.0393 -0.6339  0.2854
  165DOPC   C3219974   5.415   0.578   9.724 -0.3852 -0.2186  0.0571
  165DOPC   H2X19975   5.338   0.504   9.693  1.7217 -1.8381 -1.6052
  165DOPC   H2Y19976   5.396   0.674   9.672 -0.2041  0.0366  0.4591
  165DOPC   C2319977   5.048   0.861   9.646  0.0755 -0.4738 -0.4008
  165DOPC   H3R19978   4.958   0.815   9.601 -0.3660  0.6310 -0.6747
  165DOPC   H3S19979   5.133   0.789   9.654  0.2979 -0.2233 -0.4988
  165DOPC   C2419980   5.086   0.986   9.558  0.2869  0.5123  0.0760
  165DOPC   H4R19981   5.156   1.047   9.619  1.3293 -0.8083  0.2669
  165DOPC   H4S19982   4.990   1.035   9.536 -1.0326 -1.2807  1.5132
  165DOPC   C2519983   5.156   0.953   9.423  0.7079  0.6967 -0.5328
  165DOPC   H5R19984   5.116   0.855   9.390  3.2735 -0.4498 -0.5271
  165DOPC   H5S19985   5.260   0.923   9.450  0.3118 -1.9263 -1.5789
  165DOPC   C2619986   5.145   1.056   9.309  0.8786 -0.0167  0.8074
  165DOPC   H6R19987   5.162   1.153   9.362 -0.5147 -0.1804  1.5987
  165DOPC   H6S19988   5.043   1.070   9.266  1.0820  1.7326  0.7919
  165DOPC   C2719989   5.254   1.042   9.212 -0.1145  0.1085  0.0775
  165DOPC   H7R19990   5.237   0.954   9.147 -0.4057  0.3828 -0.2251
  165DOPC   H7S19991   5.353   1.032   9.261 -0.4303 -2.4882  0.3270
  165DOPC   C2819992   5.260   1.171   9.128  0.3784  0.0295 -0.5335
  165DOPC   H8R19993   5.261   1.258   9.197 -3.2782  0.5080 -0.8693
  165DOPC   H8S19994   5.164   1.186   9.074  0.4777  1.1958 -0.3974
  165DOPC   C2919995   5.379   1.176   9.036 -0.1572 -0.3547  0.3285
  165DOPC   H9R19996   5.476   1.153   9.083 -0.8422 -3.2769  0.4694
  165DOPC  C21019997   5.358   1.208   8.908  0.1545  0.1359 -0.0059
  165DOPC  H10R19998   5.448   1.203   8.845  1.6694 -0.3642  2.0735
  165DOPC  C21119999   5.227   1.238   8.832 -0.4828 -0.0713 -1.0503
  165DOPC  H11R20000   5.267   1.273   8.733  1.3300 -0.6466 -0.5654
  165DOPC  H11S20001   5.171   1.314   8.891  0.5795 -0.8609  1.0536
  165DOPC  C21220002   5.133   1.115   8.803 -0.5387 -0.1134 -0.4341
  165DOPC  H12R20003   5.059   1.154   8.730  0.4594  0.9811 -0.8878
  165DOPC  H12S20004   5.085   1.082   8.898  0.3142 -1.0292 -0.3001
  165DOPC  C21320005   5.201   1.001   8.729 -0.7653  0.3355 -0.1666
  165DOPC  H13R20006   5.129   0.921   8.701 -1.5508  1.2639 -0.8919
  165DOPC  H13S20007   5.267   0.939   8.793  0.3290 -0.9370 -2.4209
  165DOPC  C21420008   5.308   1.035   8.615  0.4552  0.0033 -0.1865
  165DOPC  H14R20009   5.397   1.067   8.673  0.3516 -2.0548  1.2057
  165DOPC  H14S20010   5.261   1.117   8.558  0.7528  0.7031  0.5509
  165DOPC  C21520011   5.343   0.927   8.516  0.1570 -0.2459  0.0725
  165DOPC  H15R20012   5.246   0.903   8.467 -0.7465  0.5638  1.4188
  165DOPC  H15S20013   5.377   0.836   8.571  0.4866  0.4801  1.0936
  165DOPC  C21620014   5.456   0.961   8.432  0.1537 -0.2922  0.0914
  165DOPC  H16R20015   5.536   0.983   8.506  0.9307 -0.8937 -0.5485
  165DOPC  H16S20016   5.430   1.059   8.385  0.2880 -0.5007 -0.4193
  165DOPC  C21720017   5.524   0.866   8.329 -0.0547  0.2319 -0.0606
  165DOPC  H17R20018   5.586   0.915   8.251 -1.5594  2.4514  0.0645
  165DOPC  H17S20019   5.443   0.831   8.262 -0.6287 -0.8017  1.1170
  165DOPC  C21820020   5.590   0.749   8.396  0.2177 -0.6405  0.8913
  165DOPC  H18R20021   5.511   0.680   8.435  0.1487 -0.8958  0.3135
  165DOPC  H18S20022   5.653   0.778   8.482 -1.0315 -0.1327  1.6632
  165DOPC  H18T20023   5.642   0.685   8.321 -1.5563 -0.7156 -0.3517
  165DOPC   C3320024   5.558   0.534   9.679 -0.3591 -0.0216 -0.1368
  165DOPC   H3X20025   5.590   0.444   9.737  0.2018  0.7403  0.7668
  165DOPC   H3Y20026   5.627   0.619   9.700  0.1497 -0.4439 -0.0768
  165DOPC   C3420027   5.565   0.501   9.531 -0.2208  0.0896  0.7015
  165DOPC   H4X20028   5.547   0.392   9.517  0.4548  0.2387 -2.0655
  165DOPC   H4Y20029   5.672   0.511   9.504 -1.0949  1.1085 -3.0242
  165DOPC   C3520030   5.479   0.585   9.434  0.4275  0.7558 -0.6182
  165DOPC   H5X20031   5.517   0.688   9.451 -0.5328  0.8822  0.8737
  165DOPC   H5Y20032   5.371   0.585   9.459  1.0106  1.1793  2.1635
  165DOPC   C3620033   5.493   0.552   9.283  0.2963  0.4948  0.5114
  165DOPC   H6X20034   5.598   0.554   9.249  0.6002 -1.2603  1.1988
  165DOPC   H6Y20035   5.459   0.448   9.259  1.0697  0.1230  0.9869
  165DOPC   C3720036   5.415   0.657   9.203  0.0935 -0.2757  0.3757
  165DOPC   H7X20037   5.437   0.761   9.235 -0.4496  0.1999 -0.7388
  165DOPC   H7Y20038   5.305   0.639   9.209 -0.6590  3.0663 -1.2330
  165DOPC   C3820039   5.421   0.660   9.048  0.6567 -0.3000 -0.1128
  165DOPC   H8X20040   5.369   0.752   9.014 -0.1637 -0.0483  1.7524
  165DOPC   H8Y20041   5.363   0.573   9.011 -1.5012  1.0508 -0.0711
  165DOPC   C3920042   5.559   0.641   8.992  0.7840 -0.2720  0.1372
  165DOPC   H9X20043   5.601   0.540   9.002  1.9186  0.3006  1.6705
  165DOPC  C31020044   5.634   0.740   8.935  0.0652  0.2757  0.2505
  165DOPC  H10X20045   5.728   0.701   8.893  0.8027  1.4544  0.7597
  165DOPC  C31120046   5.607   0.881   8.912  0.1872  0.1671  0.4201
  165DOPC  H11X20047   5.499   0.907   8.912  0.1436  0.3540 -2.9767
  165DOPC  H11Y20048   5.627   0.893   8.804 -0.2790 -1.0925  0.1827
  165DOPC  C31220049   5.706   0.971   8.995  0.0234  0.2256 -0.3100
  165DOPC  H12X20050   5.685   1.077   8.968  0.1682  0.2083 -0.4950
  165DOPC  H12Y20051   5.807   0.944   8.958 -0.2650  1.1274 -1.8250
  165DOPC  C31320052   5.699   0.959   9.151  0.6453 -0.2465  0.1928
  165DOPC  H13X20053   5.591   0.965   9.178  0.4800  0.1367 -0.5269
  165DOPC  H13Y20054   5.746   0.864   9.184  0.3928 -0.0373  1.1735
  165DOPC  C31420055   5.781   1.064   9.221 -0.0563 -0.2960 -0.4735
  165DOPC  H14X20056   5.877   1.073   9.166 -1.0522  0.1051 -2.2621
  165DOPC  H14Y20057   5.724   1.160   9.213 -2.4996 -1.7516 -1.8986
  165DOPC  C31520058   5.811   1.028   9.364 -0.0823 -0.3314 -0.1152
  165DOPC  H15X20059   5.877   1.107   9.406 -0.8257  1.4942 -2.2325
  165DOPC  H15Y20060   5.866   0.931   9.366 -0.6524 -0.7029 -1.2847
  165DOPC  C31620061   5.677   1.011   9.444 -1.6774 -0.7253 -0.2609
  165DOPC  H16X20062   5.616   1.103   9.430  0.0949  0.3127 -1.4460
  165DOPC  H16Y20063   5.634   0.913   9.416 -0.2533 -1.7408  0.9431
  165DOPC  C31720064   5.700   0.989   9.596 -0.5080 -0.2529  0.5148
  165DOPC  H17X20065   5.778   0.910   9.603  1.0733  0.8980 -2.3226
  165DOPC  H17Y20066   5.745   1.081   9.641  3.3135 -1.9193  0.4872
  165DOPC  C31820067   5.569   0.958   9.674 -0.0386 -0.7049 -0.2553
  165DOPC  H18X20068   5.595   0.939   9.780  0.2925 -1.7394 -0.5022
  165DOPC  H18Y20069   5.503   1.047   9.675 -0.4022 -0.9724 -0.1204
  165DOPC  H18Z20070   5.507   0.875   9.632  1.0157 -1.2056 -0.8811
  166DOPC     N20071   6.809   2.458  10.700  0.1977 -0.5029 -0.1625
  166DOPC   C1220072   6.692   2.401  10.775  0.9243  0.0829  0.3978
  166DOPC  H12A20073   6.695   2.439  10.875  0.3354  0.4671  0.2791
  166DOPC  H12B20074   6.705   2.294  10.782 -2.9575 -0.5490  0.3380
  166DOPC   C1320075   6.799   2.415  10.557 -0.1365 -0.4206 -0.5602
  166DOPC  H13A20076   6.888   2.451  10.507  0.0138  2.8191  1.7928
  166DOPC  H13B20077   6.784   2.310  10.534 -1.3365 -0.9506  2.2407
  166DOPC  H13C20078   6.712   2.456  10.508 -1.9288 -2.6031  0.5986
  166DOPC   C1420079   6.942   2.423  10.754 -0.0230 -0.2397 -0.2389
  166DOPC  H14A20080   7.023   2.447  10.687 -0.9637  1.1147 -0.9449
  166DOPC  H14B20081   6.961   2.461  10.854 -1.0640  0.0435 -0.1373
  166DOPC  H14C20082   6.953   2.316  10.760 -0.3376 -0.1875  2.5067
  166DOPC   C1520083   6.809   2.605  10.693  0.3433 -0.4577 -0.0408
  166DOPC  H15A20084   6.716   2.632  10.646  0.3122  1.5147  1.0467
  166DOPC  H15B20085   6.887   2.633  10.624 -0.7188 -0.2401 -1.1813
  166DOPC  H15C20086   6.822   2.656  10.787 -0.5952 -0.8130  0.2888
  166DOPC   C1120087   6.549   2.424  10.718  0.1552 -0.1530  0.7021
  166DOPC  H11A20088   6.471   2.385  10.788  1.4089  0.5329  2.5749
  166DOPC  H11B20089   6.539   2.534  10.724  1.1536 -0.1100  2.4548
  166DOPC     P20090   6.397   2.301  10.544  0.3226  0.5675  0.0535
  166DOPC   O1320091   6.281   2.392  10.551 -0.1103  0.1732 -0.7511
  166DOPC   O1420092   6.399   2.175  10.622  0.4937  0.1480 -0.1459
  166DOPC   O1220093   6.530   2.374  10.584  0.0660  0.0803  0.5668
  166DOPC   O1120094   6.424   2.277  10.392  0.2610  0.5478  0.7661
  166DOPC    C120095   6.551   2.234  10.332 -0.2752 -0.7212  0.3731
  166DOPC    HA20096   6.599   2.157  10.396 -1.5575  0.1801  2.5368
  166DOPC    HB20097   6.617   2.323  10.330  0.6651 -1.4089 -0.8410
  166DOPC    C220098   6.525   2.182  10.191 -0.0451 -0.0129  0.2760
  166DOPC    HS20099   6.621   2.155  10.144 -0.4921 -0.7413 -0.2327
  166DOPC   O2120100   6.454   2.283  10.118  0.0780  0.0062  0.1290
  166DOPC   C2120101   6.527   2.376  10.047 -0.0551  0.0053  0.1290
  166DOPC   O2220102   6.649   2.388  10.060  0.5554  0.3168  0.3254
  166DOPC   C2220103   6.442   2.445   9.949  0.1687  0.2159  0.4682
  166DOPC   H2R20104   6.489   2.525   9.888  0.6254 -0.0447  0.4683
  166DOPC   H2S20105   6.359   2.496  10.002 -0.6031 -1.4312  0.9178
  166DOPC    C320106   6.436   2.046  10.195 -0.1150  0.4419  0.1677
  166DOPC    HX20107   6.348   2.066  10.260  1.0745  3.1587  1.1042
  166DOPC    HY20108   6.505   1.966  10.229 -1.0872 -2.3930 -3.8598
  166DOPC   O3120109   6.382   2.025  10.055 -0.1284  0.2820  0.0839
  166DOPC   C3120110   6.472   1.988   9.966  0.5195  0.1375 -0.1250
  166DOPC   O3220111   6.591   1.981   9.987  0.2051 -0.3288  0.0359
  166DOPC   C3220112   6.391   1.956   9.843 -0.3183 -0.5234 -0.3481
  166DOPC   H2X20113   6.307   1.896   9.884  0.7219 -0.5178  1.9309
  166DOPC   H2Y20114   6.355   2.054   9.807 -1.4820 -0.2846  1.3389
  166DOPC   C2320115   6.383   2.349   9.836  0.2205  0.3944 -0.0975
  166DOPC   H3R20116   6.277   2.377   9.819  0.1019  1.3172  1.9045
  166DOPC   H3S20117   6.370   2.246   9.875 -0.8362  0.1858 -0.9503
  166DOPC   C2420118   6.462   2.361   9.703  0.1216 -0.3035 -0.2518
  166DOPC   H4R20119   6.568   2.330   9.711 -0.2205 -2.6935 -3.3002
  166DOPC   H4S20120   6.452   2.467   9.671  0.1679 -0.5941 -1.2411
  166DOPC   C2520121   6.409   2.267   9.600 -0.1249 -0.0066 -0.0362
  166DOPC   H5R20122   6.298   2.263   9.612 -0.6253  0.5130 -3.5120
  166DOPC   H5S20123   6.461   2.171   9.620  1.5351  0.4692 -1.8245
  166DOPC   C2620124   6.447   2.299   9.454 -0.3461 -0.2130 -0.2875
  166DOPC   H6R20125   6.552   2.335   9.456 -0.3093 -0.3366  1.1367
  166DOPC   H6S20126   6.380   2.384   9.430  1.1473  0.9229 -0.6030
  166DOPC   C2720127   6.429   2.176   9.369 -0.5799  0.2903 -0.5217
  166DOPC   H7R20128   6.325   2.146   9.394 -0.0249 -1.4350 -0.1075
  166DOPC   H7S20129   6.505   2.108   9.414 -0.2057 -0.3644 -2.0874
  166DOPC   C2820130   6.448   2.192   9.218  0.1122  0.0556 -1.1742
  166DOPC   H8R20131   6.535   2.258   9.197 -1.0782  1.1657 -2.8416
  166DOPC   H8S20132   6.359   2.241   9.174 -0.8133 -2.6876 -2.6518
  166DOPC   C2920133   6.463   2.056   9.163  0.0056  0.8710  0.7590
  166DOPC   H9R20134   6.489   1.976   9.233 -1.3854 -1.6710 -1.4654
  166DOPC  C21020135   6.480   2.029   9.032 -0.2402  0.1941 -0.4792
  166DOPC  H10R20136   6.480   1.925   8.996 -1.3155 -0.0471  0.1653
  166DOPC  C21120137   6.463   2.124   8.907  0.4037 -0.1132 -0.1334
  166DOPC  H11R20138   6.541   2.202   8.894 -0.7549  1.1906  0.5783
  166DOPC  H11S20139   6.369   2.176   8.933  0.5191 -0.4019  0.9038
  166DOPC  C21220140   6.441   2.049   8.775 -0.3852 -0.4135 -0.2231
  166DOPC  H12R20141   6.354   1.983   8.797 -0.3506  0.0208  1.3040
  166DOPC  H12S20142   6.538   1.995   8.766  0.4438  1.2959 -2.1753
  166DOPC  C21320143   6.418   2.139   8.656  0.2791 -0.2613  0.6645
  166DOPC  H13R20144   6.513   2.195   8.647 -0.9949  1.9958  0.6147
  166DOPC  H13S20145   6.341   2.216   8.677 -1.3594 -1.2674 -1.3456
  166DOPC  C21420146   6.380   2.066   8.530 -0.1354  0.2952  0.1236
  166DOPC  H14R20147   6.324   2.136   8.465 -0.7070  0.1114  0.4114
  166DOPC  H14S20148   6.305   1.988   8.554 -0.7836  0.3836 -1.4561
  166DOPC  C21520149   6.484   2.002   8.432  0.4627  0.1320 -1.0518
  166DOPC  H15R20150   6.539   1.923   8.487 -1.1423 -0.7632 -0.6608
  166DOPC  H15S20151   6.556   2.077   8.394  1.2843  0.1792  0.5340
  166DOPC  C21620152   6.428   1.937   8.309 -0.1530  0.0947  0.1359
  166DOPC  H16R20153   6.335   1.876   8.316  0.6549 -0.9701  2.3659
  166DOPC  H16S20154   6.495   1.854   8.278  1.5981  1.2881  0.5859
  166DOPC  C21720155   6.427   2.034   8.193 -0.1198 -0.5981  0.3084
  166DOPC  H17R20156   6.527   2.077   8.169 -0.3599  0.5171  1.2562
  166DOPC  H17S20157   6.363   2.120   8.222  0.5643  0.4676 -1.1905
  166DOPC  C21820158   6.382   1.974   8.059 -0.0231 -0.4547 -0.0644
  166DOPC  H18R20159   6.458   1.904   8.017  0.1837 -0.7080  0.7132
  166DOPC  H18S20160   6.362   2.056   7.987  0.7625  1.1771  1.5060
  166DOPC  H18T20161   6.291   1.919   8.090  0.0312  0.6694  2.3266
  166DOPC   C3320162   6.475   1.898   9.739 -0.0458  0.7841  0.1087
  166DOPC   H3X20163   6.517   1.801   9.772  0.2233  1.1067  0.7232
  166DOPC   H3Y20164   6.565   1.962   9.726  2.0569 -1.9186  0.4216
  166DOPC   C3420165   6.403   1.869   9.612  0.3001 -0.3487 -0.4421
  166DOPC   H4X20166   6.373   1.968   9.570  1.7059  0.4215  0.2944
  166DOPC   H4Y20167   6.312   1.806   9.619  1.2289 -1.7071 -0.3707
  166DOPC   C3520168   6.485   1.795   9.504 -0.2629  0.0332  1.2049
  166DOPC   H5X20169   6.536   1.714   9.560 -1.4671 -1.0307  0.7839
  166DOPC   H5Y20170   6.558   1.864   9.456 -1.2181  0.3598  0.1983
  166DOPC   C3620171   6.409   1.732   9.384  0.3647 -0.7881 -0.4759
  166DOPC   H6X20172   6.335   1.655   9.415 -0.3685 -0.2839 -0.9265
  166DOPC   H6Y20173   6.345   1.804   9.328 -0.1720 -2.4934 -2.1684
  166DOPC   C3720174   6.504   1.679   9.280  0.3901 -0.4952  0.5888
  166DOPC   H7X20175   6.575   1.760   9.253  0.3215 -0.7663 -0.4629
  166DOPC   H7Y20176   6.566   1.604   9.335  1.6685  0.8372  1.0243
  166DOPC   C3820177   6.445   1.632   9.147 -0.7385  0.5165  0.3744
  166DOPC   H8X20178   6.394   1.718   9.100  1.0078  0.6890 -1.3391
  166DOPC   H8Y20179   6.365   1.555   9.159 -1.6078  1.5284  1.2126
  166DOPC   C3920180   6.553   1.577   9.047  0.4804  0.0264 -0.0840
  166DOPC   H9X20181   6.631   1.516   9.095  1.5320  0.2111 -1.4953
  166DOPC  C31020182   6.570   1.604   8.914 -0.3137 -0.0090 -0.2004
  166DOPC  H10X20183   6.657   1.558   8.865 -1.4315 -2.0659 -0.3649
  166DOPC  C31120184   6.475   1.688   8.824 -0.1408  0.9164  0.7728
  166DOPC  H11X20185   6.515   1.773   8.764 -3.7851  2.3060  0.0498
  166DOPC  H11Y20186   6.406   1.742   8.892 -0.6836  0.4812  0.5709
  166DOPC  C31220187   6.394   1.596   8.732 -0.5141 -0.6848 -0.1367
  166DOPC  H12X20188   6.318   1.540   8.790 -1.2579 -0.1863 -0.6201
  166DOPC  H12Y20189   6.458   1.519   8.683  0.2546 -0.7968  0.9866
  166DOPC  C31320190   6.320   1.676   8.621  0.2083  0.3055  0.0093
  166DOPC  H13X20191   6.276   1.768   8.665  0.6612  0.7577 -0.4733
  166DOPC  H13Y20192   6.395   1.706   8.545  0.0148 -0.9222 -0.6952
  166DOPC  C31420193   6.211   1.590   8.546  0.2790  0.0336  0.5880
  166DOPC  H14X20194   6.149   1.536   8.621 -0.6959 -1.0620 -0.9438
  166DOPC  H14Y20195   6.150   1.670   8.499  1.3102  1.4529  1.5682
  166DOPC  C31520196   6.266   1.492   8.446 -0.1795 -0.8545 -0.2591
  166DOPC  H15X20197   6.314   1.406   8.498 -3.2368 -1.5683  1.6463
  166DOPC  H15Y20198   6.344   1.543   8.387  2.9405 -4.2279  0.6013
  166DOPC  C31620199   6.160   1.437   8.340 -0.0917  0.2697  0.1510
  166DOPC  H16X20200   6.075   1.385   8.389 -0.5733  0.6163 -0.3094
  166DOPC  H16Y20201   6.117   1.523   8.284 -0.4642 -0.4081 -0.6316
  166DOPC  C31720202   6.218   1.335   8.248 -0.3940 -0.0348  0.9605
  166DOPC  H17X20203   6.299   1.376   8.185 -0.1964 -0.1044  1.1687
  166DOPC  H17Y20204   6.275   1.252   8.296  0.2743 -0.4927 -0.5684
  166DOPC  C31820205   6.110   1.281   8.153  0.4425  0.9418  0.2622
  166DOPC  H18X20206   6.153   1.217   8.073 -1.7977  0.2588 -0.4595
  166DOPC  H18Y20207   6.032   1.224   8.208  0.4177 -0.9121 -1.6006
  166DOPC  H18Z20208   6.069   1.370   8.101  1.6965  1.4763  0.1552
  167DOPC     N20209   5.516   0.394  10.560 -0.6121 -0.2063  0.1750
  167DOPC   C1220210   5.492   0.430  10.411  0.1437  0.3008 -0.0648
  167DOPC  H12A20211   5.403   0.490  10.402  0.4725  0.7281 -0.5764
  167DOPC  H12B20212   5.469   0.333  10.368  0.4708  0.3795 -0.4335
  167DOPC   C1320213   5.381   0.349  10.606 -0.1428  0.7964 -0.2037
  167DOPC  H13A20214   5.386   0.320  10.709 -1.5055 -1.6331 -0.7510
  167DOPC  H13B20215   5.304   0.422  10.584 -0.4514  0.7144  0.5970
  167DOPC  H13C20216   5.346   0.265  10.548 -0.2965 -0.6694  1.9260
  167DOPC   C1420217   5.565   0.510  10.641  0.2889  0.0371  0.6369
  167DOPC  H14A20218   5.496   0.591  10.657  0.9702  0.3973  1.8662
  167DOPC  H14B20219   5.602   0.483  10.739  1.5182 -1.2867 -0.1449
  167DOPC  H14C20220   5.641   0.557  10.581 -0.7088  2.0939  0.8939
  167DOPC   C1520221   5.612   0.280  10.567 -0.2287 -0.4847 -0.8381
  167DOPC  H15A20222   5.591   0.196  10.502  0.5454 -0.4069 -1.2032
  167DOPC  H15B20223   5.607   0.232  10.663 -0.1540  0.3690 -0.4007
  167DOPC  H15C20224   5.712   0.318  10.550 -0.3924  1.2882  1.6718
  167DOPC   C1120225   5.612   0.493  10.333  0.4721  0.2112 -0.3340
  167DOPC  H11A20226   5.702   0.428  10.331  0.0770 -0.3367 -0.2994
  167DOPC  H11B20227   5.575   0.505  10.229 -1.1220 -0.3453  0.1529
  167DOPC     P20228   5.589   0.745  10.352 -0.1090 -0.2463 -0.4393
  167DOPC   O1320229   5.633   0.857  10.442 -0.2883 -0.4272 -0.1635
  167DOPC   O1420230   5.443   0.738  10.331 -0.2992  0.3030  0.0688
  167DOPC   O1220231   5.656   0.614  10.394 -0.5592 -0.2329  0.0786
  167DOPC   O1120232   5.654   0.771  10.213 -0.3006  0.3282 -0.1329
  167DOPC    C120233   5.799   0.776  10.205 -0.4268 -0.3966 -0.1413
  167DOPC    HA20234   5.835   0.674  10.228  1.3911  0.0086 -1.0279
  167DOPC    HB20235   5.850   0.854  10.266  1.7892 -0.8415 -1.3061
  167DOPC    C220236   5.850   0.803  10.063  0.5797  0.0026 -0.5495
  167DOPC    HS20237   5.955   0.767  10.065  0.6884  0.0550  3.2419
  167DOPC   O2120238   5.850   0.945  10.037  1.0904  0.1386  0.0656
  167DOPC   C2120239   5.934   0.986   9.940 -0.2923 -0.6230 -0.1476
  167DOPC   O2220240   6.022   0.925   9.884  0.1594 -0.6834  0.1095
  167DOPC   C2220241   5.900   1.134   9.922 -0.0154  0.0161  0.0044
  167DOPC   H2R20242   5.941   1.182  10.013  2.6227  0.2422 -1.1972
  167DOPC   H2S20243   5.790   1.151   9.920  0.1710  1.3353 -0.2228
  167DOPC    C320244   5.772   0.718   9.962 -0.4219 -0.2850 -0.2243
  167DOPC    HX20245   5.667   0.752   9.974 -0.9528 -0.8317 -2.8173
  167DOPC    HY20246   5.765   0.616  10.005  2.4999 -0.4236  0.1530
  167DOPC   O3120247   5.818   0.728   9.826 -0.2815 -0.0511  0.0778
  167DOPC   C3120248   5.927   0.657   9.797  0.5053 -0.0546  1.0711
  167DOPC   O3220249   5.994   0.586   9.868  0.0139  0.0577 -0.5798
  167DOPC   C3220250   5.960   0.690   9.653  0.1471 -0.0213  0.6969
  167DOPC   H2X20251   5.873   0.666   9.589  1.6979 -1.6323 -0.9610
  167DOPC   H2Y20252   5.990   0.796   9.645 -1.5612  0.3784 -1.4093
  167DOPC   C2320253   5.969   1.204   9.805 -0.9041  0.2292  0.1518
  167DOPC   H3R20254   5.944   1.165   9.704 -1.4741  1.4997 -0.2181
  167DOPC   H3S20255   6.080   1.194   9.809 -0.7959 -0.8034 -2.6157
  167DOPC   C2420256   5.912   1.346   9.797  0.3139 -0.7701  0.7523
  167DOPC   H4R20257   5.944   1.405   9.885  1.9781 -0.3309 -0.1106
  167DOPC   H4S20258   5.802   1.333   9.812 -0.2600  1.8463 -0.6678
  167DOPC   C2520259   5.929   1.427   9.666  0.0016 -0.0585 -0.4177
  167DOPC   H5R20260   5.879   1.526   9.673 -0.0091 -0.1242  0.5382
  167DOPC   H5S20261   5.867   1.376   9.589 -0.5598 -2.1002  1.2823
  167DOPC   C2620262   6.073   1.443   9.617  0.1062  0.1007 -0.5862
  167DOPC   H6R20263   6.117   1.344   9.592 -1.2095 -0.1782 -1.9559
  167DOPC   H6S20264   6.133   1.483   9.701  1.9123  1.5377 -2.4775
  167DOPC   C2720265   6.088   1.544   9.503  0.2434 -0.2213  0.8308
  167DOPC   H7R20266   6.193   1.538   9.468 -0.4241 -0.4417 -1.3012
  167DOPC   H7S20267   6.080   1.651   9.534  1.3936  0.1021  0.0793
  167DOPC   C2820268   6.011   1.519   9.370  0.6732  0.0507 -0.4099
  167DOPC   H8R20269   6.012   1.611   9.308 -0.2757 -1.8019 -3.3880
  167DOPC   H8S20270   5.906   1.508   9.407  0.4737  1.5907 -0.4611
  167DOPC   C2920271   6.046   1.390   9.299 -0.0800  0.3059 -0.1158
  167DOPC   H9R20272   6.032   1.302   9.364  0.8600  1.1557  1.2870
  167DOPC  C21020273   6.066   1.367   9.168 -0.7676  0.2617  0.4895
  167DOPC  H10R20274   6.094   1.267   9.132 -0.7338  0.2783  0.4686
  167DOPC  C21120275   6.062   1.478   9.059  0.7886 -0.8004 -0.6601
  167DOPC  H11R20276   6.165   1.502   9.025  0.1718 -0.4883 -2.4084
  167DOPC  H11S20277   6.014   1.575   9.084  0.2427 -1.1619 -0.2926
  167DOPC  C21220278   5.982   1.430   8.929  0.3808  0.0780 -0.1269
  167DOPC  H12R20279   5.877   1.403   8.954 -0.4179  1.2399 -2.0305
  167DOPC  H12S20280   5.979   1.515   8.857 -0.1232 -0.1521 -0.3800
  167DOPC  C21320281   6.049   1.307   8.857  0.2127  0.1721 -0.9479
  167DOPC  H13R20282   6.060   1.225   8.931  1.6207  0.2208 -1.0596
  167DOPC  H13S20283   6.151   1.338   8.824  0.2534 -0.4885 -1.4851
  167DOPC  C21420284   5.957   1.264   8.741  0.0562 -0.0262 -0.1606
  167DOPC  H14R20285   6.010   1.299   8.649 -0.4062  0.7744 -0.1255
  167DOPC  H14S20286   5.857   1.304   8.766  0.6133  0.4678  1.4183
  167DOPC  C21520287   5.931   1.114   8.734 -0.7533  0.1571 -1.0050
  167DOPC  H15R20288   5.893   1.080   8.833 -0.7482  2.0433 -0.3196
  167DOPC  H15S20289   6.033   1.074   8.715  0.1635  2.2181 -0.7285
  167DOPC  C21620290   5.836   1.088   8.622  0.4599  0.3457 -0.0582
  167DOPC  H16R20291   5.741   1.142   8.642  0.4263  0.1608  0.2970
  167DOPC  H16S20292   5.815   0.979   8.630 -0.9261  0.5985  0.0357
  167DOPC  C21720293   5.882   1.126   8.477  0.0908 -0.0466 -0.2717
  167DOPC  H17R20294   5.987   1.093   8.459  1.3181  3.8183 -1.1166
  167DOPC  H17S20295   5.895   1.236   8.467  2.5979 -0.2615  0.1470
  167DOPC  C21820296   5.785   1.083   8.369 -0.4177 -0.1820  0.5182
  167DOPC  H18R20297   5.822   1.089   8.264  1.2185  1.4376  1.1281
  167DOPC  H18S20298   5.693   1.145   8.371 -0.6345 -0.5306  1.6315
  167DOPC  H18T20299   5.751   0.978   8.373 -3.2025  0.6131 -0.4408
  167DOPC   C3320300   6.080   0.614   9.605 -0.3529 -0.0119 -0.2316
  167DOPC   H3X20301   6.066   0.507   9.629  0.9842 -0.8791 -2.9500
  167DOPC   H3Y20302   6.164   0.656   9.664 -0.7837  1.9880 -0.9286
  167DOPC   C3420303   6.126   0.629   9.461 -0.1486  0.1961  0.4894
  167DOPC   H4X20304   6.202   0.552   9.437  1.5202  0.7606  3.4507
  167DOPC   H4Y20305   6.176   0.728   9.452  1.4943 -0.7185 -0.6841
  167DOPC   C3520306   6.008   0.612   9.361  0.0890 -0.0353  0.4262
  167DOPC   H5X20307   5.929   0.689   9.368 -1.6589 -1.8628  1.8841
  167DOPC   H5Y20308   5.950   0.519   9.374 -0.0202 -0.0148  0.1123
  167DOPC   C3620309   6.068   0.611   9.217  0.0704 -0.3141  0.6462
  167DOPC   H6X20310   6.130   0.702   9.199 -0.6272 -0.3151 -2.2586
  167DOPC   H6Y20311   6.129   0.521   9.195 -0.6383 -0.2929 -1.6231
  167DOPC   C3720312   5.954   0.600   9.115  0.7593  0.1847 -0.4636
  167DOPC   H7X20313   5.907   0.501   9.135 -0.8134  0.4746 -2.4387
  167DOPC   H7Y20314   5.869   0.667   9.139 -0.5554 -2.0072  1.4914
  167DOPC   C3820315   5.982   0.585   8.968 -0.3938  0.3133 -0.0794
  167DOPC   H8X20316   5.897   0.531   8.922 -0.6019  2.0521 -1.8816
  167DOPC   H8Y20317   6.075   0.530   8.943 -1.2117 -0.5743 -1.2783
  167DOPC   C3920318   6.007   0.718   8.897  0.5714  0.5195 -0.2754
  167DOPC   H9X20319   6.032   0.806   8.959 -1.7327  2.5155 -2.0011
  167DOPC  C31020320   6.019   0.734   8.767 -0.1165 -0.5880 -0.1685
  167DOPC  H10X20321   6.032   0.835   8.726 -0.9247  0.2722  1.5965
  167DOPC  C31120322   5.994   0.627   8.665  0.1589 -0.3626 -0.4047
  167DOPC  H11X20323   5.915   0.554   8.690 -0.8008  0.2329 -1.5717
  167DOPC  H11Y20324   6.079   0.556   8.669  0.0714 -0.4558 -0.1985
  167DOPC  C31220325   6.007   0.670   8.519 -0.5210  0.3371 -0.2078
  167DOPC  H12X20326   6.092   0.740   8.505 -2.5122  3.2167  1.2207
  167DOPC  H12Y20327   5.917   0.735   8.515 -0.1721  0.7822 -1.2231
  167DOPC  C31320328   6.020   0.547   8.423 -0.7106  0.1094 -0.7360
  167DOPC  H13X20329   6.103   0.482   8.457 -0.7375  0.3245 -0.2345
  167DOPC  H13Y20330   5.926   0.489   8.438 -0.2616 -0.1058  1.8436
  167DOPC  C31420331   6.054   0.581   8.281  0.4658 -0.0814 -0.7037
  167DOPC  H14X20332   5.988   0.664   8.247  1.6413  0.8761 -0.7558
  167DOPC  H14Y20333   6.156   0.624   8.293  0.6164 -0.4927 -0.4932
  167DOPC  C31520334   6.061   0.469   8.179 -0.6790  0.5492 -0.4404
  167DOPC  H15X20335   5.959   0.428   8.164 -0.2474 -0.0298 -1.9476
  167DOPC  H15Y20336   6.114   0.382   8.222  0.4061  0.4331 -1.9229
  167DOPC  C31620337   6.126   0.516   8.045  0.3417  0.3716 -0.2938
  167DOPC  H16X20338   6.071   0.604   8.005 -0.7246  0.1202  0.5834
  167DOPC  H16Y20339   6.226   0.552   8.078  0.2424 -0.1317  0.5601
  167DOPC  C31720340   6.137   0.415   7.924 -0.5486 -0.1197 -0.6194
  167DOPC  H17X20341   6.154   0.472   7.830  2.0047  3.8198  1.9391
  167DOPC  H17Y20342   6.229   0.358   7.946 -0.0718  0.7223 -0.3876
  167DOPC  C31820343   6.004   0.339   7.905 -0.4084  0.0964 -0.5855
  167DOPC  H18X20344   5.982   0.263   7.983  1.6046 -0.6116 -0.6306
  167DOPC  H18Y20345   5.926   0.417   7.897  1.4925  2.1254 -0.5753
  167DOPC  H18Z20346   5.997   0.282   7.810  1.7858 -1.4556  0.1028
  168DOPC     N20347   1.878   0.872   9.953  0.0442  0.0588 -0.5503
  168DOPC   C1220348   1.974   0.973   9.888  0.3353 -0.1392 -0.5544
  168DOPC  H12A20349   2.074   0.933   9.896  1.0796  1.2498 -2.2551
  168DOPC  H12B20350   1.980   1.063   9.946  0.9182 -0.6597  0.2013
  168DOPC   C1320351   1.922   0.862  10.105  0.4021  0.5250  0.2396
  168DOPC  H13A20352   2.005   0.792  10.107 -1.5846 -1.9445  0.3827
  168DOPC  H13B20353   1.948   0.960  10.141 -0.9935  0.2217  2.1945
  168DOPC  H13C20354   1.840   0.831  10.167  1.4665 -0.0309  1.3932
  168DOPC   C1420355   1.878   0.739   9.891 -0.2765  0.0980  0.4929
  168DOPC  H14A20356   1.840   0.665   9.961 -0.5462 -0.8072 -0.5805
  168DOPC  H14B20357   1.823   0.739   9.798  0.2481  0.3648  0.1779
  168DOPC  H14C20358   1.977   0.710   9.856 -0.8829 -0.1495 -1.1008
  168DOPC   C1520359   1.742   0.925   9.959 -0.1056 -0.4509  0.2246
  168DOPC  H15A20360   1.701   0.946   9.861  1.5274  3.1082  0.1518
  168DOPC  H15B20361   1.741   1.016  10.018 -0.2396 -0.7428  0.6815
  168DOPC  H15C20362   1.666   0.870  10.013 -0.0962  0.8531  1.6664
  168DOPC   C1120363   1.956   1.017   9.743 -0.2261 -0.0464  1.0410
  168DOPC  H11A20364   2.019   1.104   9.713  0.9240 -1.1817  0.0042
  168DOPC  H11B20365   1.986   0.934   9.676 -1.1807  1.0458 -0.8096
  168DOPC     P20366   1.731   0.993   9.599 -0.3990  0.2101  0.0500
  168DOPC   O1320367   1.668   1.106   9.521 -0.0876  0.5105 -0.0590
  168DOPC   O1420368   1.640   0.892   9.656 -0.4292 -0.1900  0.3641
  168DOPC   O1220369   1.825   1.061   9.712 -0.0762  0.6047 -0.2892
  168DOPC   O1120370   1.840   0.914   9.504  0.1314  0.1340  0.2094
  168DOPC    C120371   1.843   0.962   9.365  0.0650  0.3651 -0.3244
  168DOPC    HA20372   1.942   0.932   9.325  0.8038  2.1991  0.0055
  168DOPC    HB20373   1.853   1.073   9.358  0.1286  0.3780 -0.0440
  168DOPC    C220374   1.733   0.907   9.274 -0.1629  0.0764 -1.1175
  168DOPC    HS20375   1.640   0.933   9.330  0.8018  1.2717 -0.0116
  168DOPC   O2120376   1.756   0.764   9.255  0.1014 -0.0044  0.1374
  168DOPC   C2120377   1.650   0.689   9.289 -0.1115 -0.2218  0.1193
  168DOPC   O2220378   1.547   0.743   9.325  0.6172  0.5565  0.3154
  168DOPC   C2220379   1.669   0.533   9.276  0.6694 -0.1138  0.5849
  168DOPC   H2R20380   1.746   0.496   9.347  0.3776 -0.3223  0.7952
  168DOPC   H2S20381   1.712   0.522   9.174  0.2367  0.1179  0.3743
  168DOPC    C320382   1.716   0.971   9.138  0.0498 -0.6322 -0.1836
  168DOPC    HX20383   1.805   0.934   9.084  1.4075  0.2456  1.3587
  168DOPC    HY20384   1.712   1.082   9.144  2.4816 -0.5409  0.7602
  168DOPC   O3120385   1.599   0.915   9.072  0.6336  0.4673 -0.8108
  168DOPC   C3120386   1.481   0.980   9.065 -0.5413 -0.8084  0.1685
  168DOPC   O3220387   1.459   1.091   9.113  0.3807  0.2931  0.0615
  168DOPC   C3220388   1.382   0.892   8.993 -0.0999 -0.3684  0.2778
  168DOPC   H2X20389   1.435   0.806   8.948 -0.6756 -0.8891  0.5745
  168DOPC   H2Y20390   1.318   0.853   9.075 -1.0152  1.0127  0.2631
  168DOPC   C2320391   1.527   0.467   9.287 -0.3015  0.0655 -0.0987
  168DOPC   H3R20392   1.470   0.503   9.376 -0.4994 -0.9358  0.1963
  168DOPC   H3S20393   1.529   0.356   9.294 -2.1681  0.0488  1.0657
  168DOPC   C2420394   1.436   0.486   9.161 -0.7373 -1.0815  0.8969
  168DOPC   H4R20395   1.409   0.593   9.150  0.2081 -0.6525  2.3773
  168DOPC   H4S20396   1.346   0.421   9.172 -0.3340 -1.5225  1.7554
  168DOPC   C2520397   1.507   0.450   9.024 -0.2618 -0.5242 -1.0232
  168DOPC   H5R20398   1.557   0.356   9.055 -0.5978  0.2767  2.2813
  168DOPC   H5S20399   1.582   0.528   9.001 -1.3600  0.0766 -2.7452
  168DOPC   C2620400   1.415   0.430   8.907 -0.0537 -0.3015  0.3318
  168DOPC   H6R20401   1.364   0.527   8.888 -3.4694 -2.0789 -0.4239
  168DOPC   H6S20402   1.334   0.364   8.947 -0.5829  0.5253  0.6387
  168DOPC   C2720403   1.487   0.380   8.778 -0.1173 -0.1432 -0.2973
  168DOPC   H7R20404   1.569   0.309   8.804  0.1116  0.0992 -0.3559
  168DOPC   H7S20405   1.543   0.464   8.733 -1.9963  0.3663 -1.8446
  168DOPC   C2820406   1.391   0.326   8.671  0.5212 -0.1772 -0.0417
  168DOPC   H8R20407   1.328   0.250   8.723 -0.6752  0.5155 -0.4306
  168DOPC   H8S20408   1.457   0.288   8.590  1.9532 -0.7586  1.3443
  168DOPC   C2920409   1.298   0.438   8.616 -0.1539  0.9133 -0.7273
  168DOPC   H9R20410   1.215   0.465   8.684  0.6569  1.5346  0.0394
  168DOPC  C21020411   1.318   0.510   8.502  0.0043  0.3183 -0.5861
  168DOPC  H10R20412   1.262   0.604   8.492 -2.2920 -0.6421  1.8781
  168DOPC  C21120413   1.428   0.490   8.405  0.1740 -0.0909  0.9897
  168DOPC  H11R20414   1.523   0.453   8.449  1.3103 -2.1076 -2.7258
  168DOPC  H11S20415   1.462   0.588   8.364 -2.5685  0.7370  0.5031
  168DOPC  C21220416   1.395   0.401   8.281 -0.0166  0.4408  0.2857
  168DOPC  H12R20417   1.285   0.391   8.267  0.0183  0.2060  0.1601
  168DOPC  H12S20418   1.437   0.298   8.290 -2.1707 -0.9220 -3.0096
  168DOPC  C21320419   1.465   0.446   8.151 -0.3367 -0.0540  0.4442
  168DOPC  H13R20420   1.573   0.462   8.169  0.0325 -0.9234 -0.8216
  168DOPC  H13S20421   1.410   0.536   8.117 -0.7320  0.2734  1.9065
  168DOPC  C21420422   1.442   0.325   8.056  0.0803  0.2339 -0.0695
  168DOPC  H14R20423   1.337   0.293   8.072 -0.8766  2.3255 -1.6148
  168DOPC  H14S20424   1.520   0.252   8.085  2.6649  1.4832 -3.2630
  168DOPC  C21520425   1.469   0.344   7.909 -0.0078  0.2208 -0.1082
  168DOPC  H15R20426   1.572   0.386   7.903  0.1165  0.9162  4.0583
  168DOPC  H15S20427   1.391   0.409   7.863  2.7737  2.2022 -2.4937
  168DOPC  C21620428   1.469   0.208   7.830  0.1514 -0.5444 -0.2635
  168DOPC  H16R20429   1.375   0.155   7.858 -1.4013  2.2788  0.1647
  168DOPC  H16S20430   1.564   0.153   7.851 -0.4560 -1.4526  0.2063
  168DOPC  C21720431   1.455   0.223   7.681 -0.3838 -0.3392  0.0459
  168DOPC  H17R20432   1.547   0.267   7.637 -1.0622  0.0628 -0.9972
  168DOPC  H17S20433   1.378   0.295   7.646  1.3225  1.5694  0.0942
  168DOPC  C21820434   1.429   0.096   7.614 -0.0451 -0.0205 -0.2756
  168DOPC  H18R20435   1.509   0.026   7.647  0.7245  0.0433 -1.9083
  168DOPC  H18S20436   1.448   0.098   7.504  0.1913  0.4058 -0.2312
  168DOPC  H18T20437   1.329   0.052   7.632 -0.3523  0.6167 -0.3763
  168DOPC   C3320438   1.301   0.970   8.888  0.2248  0.5354 -0.4955
  168DOPC   H3X20439   1.256   1.058   8.938 -2.8573 -1.4142  0.4034
  168DOPC   H3Y20440   1.221   0.907   8.845  0.1670  1.4562 -1.7943
  168DOPC   C3420441   1.388   1.014   8.764  0.0769  0.3329 -0.5176
  168DOPC   H4X20442   1.447   0.924   8.738 -0.1595 -0.1697  0.6454
  168DOPC   H4Y20443   1.462   1.095   8.786  1.6852 -0.7081 -1.8276
  168DOPC   C3520444   1.298   1.056   8.647  1.4012  0.1049 -0.5427
  168DOPC   H5X20445   1.237   1.144   8.677 -2.1488 -1.0987 -3.4128
  168DOPC   H5Y20446   1.210   0.988   8.635  1.7511 -0.0199 -2.8979
  168DOPC   C3620447   1.362   1.067   8.516  0.1012  0.2055  0.1467
  168DOPC   H6X20448   1.299   1.134   8.454 -0.0612  1.2349  1.3949
  168DOPC   H6Y20449   1.463   1.113   8.525 -0.7226  1.9988  0.4731
  168DOPC   C3720450   1.369   0.930   8.437 -0.0043 -0.4384 -0.3414
  168DOPC   H7X20451   1.447   0.873   8.493  0.1124  1.6372  1.7855
  168DOPC   H7Y20452   1.271   0.876   8.444 -0.6201  0.8204  1.5733
  168DOPC   C3820453   1.420   0.939   8.289 -0.0229 -0.5641 -0.6800
  168DOPC   H8X20454   1.423   0.834   8.252  1.7269 -0.8476  0.1714
  168DOPC   H8Y20455   1.524   0.976   8.288 -0.3995  0.5180 -1.2356
  168DOPC   C3920456   1.328   1.027   8.206 -0.1040 -0.0531  0.2626
  168DOPC   H9X20457   1.275   1.116   8.243  0.2809  0.7783 -1.1224
  168DOPC  C31020458   1.293   1.001   8.082  0.3744  0.0927 -0.3883
  168DOPC  H10X20459   1.215   1.059   8.029  0.4257 -0.2907 -0.8872
  168DOPC  C31120460   1.328   0.873   8.010 -0.5553 -0.3003  0.6654
  168DOPC  H11X20461   1.228   0.843   7.972 -1.6143  2.4271  1.0573
  168DOPC  H11Y20462   1.363   0.798   8.084 -0.5536 -0.7672  0.1920
  168DOPC  C31220463   1.432   0.891   7.896 -0.5115  0.1375 -0.4986
  168DOPC  H12X20464   1.530   0.918   7.939 -0.4699  2.9852 -2.1691
  168DOPC  H12Y20465   1.402   0.969   7.824 -0.0184  0.9747  0.1918
  168DOPC  C31320466   1.466   0.749   7.830  0.6367  0.0056  0.2519
  168DOPC  H13X20467   1.442   0.671   7.906 -1.5615 -0.6184 -0.9969
  168DOPC  H13Y20468   1.402   0.740   7.740  1.3130  0.4736 -0.2908
  168DOPC  C31420469   1.608   0.724   7.786  0.0512  0.1092  0.4831
  168DOPC  H14X20470   1.631   0.823   7.743 -0.4038  0.3179  0.7073
  168DOPC  H14Y20471   1.675   0.709   7.873  1.1408 -0.4294 -0.4357
  168DOPC  C31520472   1.635   0.605   7.691  0.4776 -0.7565  0.6541
  168DOPC  H15X20473   1.608   0.638   7.588 -0.7244  2.4246  1.8745
  168DOPC  H15Y20474   1.579   0.516   7.726  0.4911 -0.2008  2.1445
  168DOPC  C31620475   1.782   0.558   7.705  0.3883 -0.0039 -0.5556
  168DOPC  H16X20476   1.852   0.639   7.734 -0.2339 -0.1158  1.3264
  168DOPC  H16Y20477   1.793   0.477   7.780 -1.4863 -0.1523 -0.3850
  168DOPC  C31720478   1.820   0.494   7.569 -0.0311  0.4780 -0.7093
  168DOPC  H17X20479   1.749   0.412   7.546 -0.5992  0.8563 -0.3216
  168DOPC  H17Y20480   1.813   0.574   7.492 -1.8150  0.9687 -0.0951
  168DOPC  C31820481   1.958   0.434   7.576 -0.1659 -0.4201  0.1604
  168DOPC  H18X20482   1.980   0.402   7.680 -0.2680  2.2209  1.0837
  168DOPC  H18Y20483   1.982   0.341   7.520 -0.5400 -0.6144  0.3206
  168DOPC  H18Z20484   2.035   0.513   7.557 -1.0948  0.3450 -0.5091
  169DOPC     N20485   0.169   0.489  10.551  0.5549  0.6139  0.2324
  169DOPC   C1220486   0.279   0.590  10.568  0.1737  0.2895  0.3079
  169DOPC  H12A20487   0.371   0.549  10.528  0.8130  0.9387  1.0556
  169DOPC  H12B20488   0.284   0.607  10.675  1.6623  1.1784  0.1350
  169DOPC   C1320489   0.191   0.350  10.604  0.0028  0.4139 -0.0716
  169DOPC  H13A20490   0.117   0.273  10.590  0.0410  0.2542  0.5606
  169DOPC  H13B20491   0.288   0.308  10.582 -1.6822 -3.9698 -0.1760
  169DOPC  H13C20492   0.193   0.366  10.711 -0.8200  1.3939 -0.1863
  169DOPC   C1420493   0.138   0.476  10.404 -0.4124 -0.2309  0.1099
  169DOPC  H14A20494   0.050   0.415  10.388 -0.4225 -0.2769  0.3444
  169DOPC  H14B20495   0.117   0.574  10.364 -1.6934 -0.3140  0.5375
  169DOPC  H14C20496   0.223   0.442  10.346 -0.2095  1.0968 -0.4025
  169DOPC   C1520497   0.043   0.539  10.610  0.7107  0.1196  0.1198
  169DOPC  H15A20498   0.034   0.643  10.582 -0.9406 -0.4313 -1.6228
  169DOPC  H15B20499   0.046   0.547  10.717  0.7656  1.7587  0.0285
  169DOPC  H15C20500  -0.041   0.481  10.575  1.9639 -1.9915  0.4011
  169DOPC   C1120501   0.254   0.728  10.514 -0.4716  0.0817 -1.0047
  169DOPC  H11A20502   0.155   0.767  10.545  1.1987  3.6759  0.3702
  169DOPC  H11B20503   0.317   0.808  10.558 -0.0250 -0.3512 -0.8497
  169DOPC     P20504   0.374   0.751  10.289 -0.2604  0.2395  0.1409
  169DOPC   O1320505   0.457   0.627  10.299 -0.2840  0.3729 -0.1613
  169DOPC   O1420506   0.438   0.879  10.327  0.5839  0.0717 -0.2695
  169DOPC   O1220507   0.245   0.727  10.371  0.4769 -0.1108  0.1105
  169DOPC   O1120508   0.329   0.746  10.141 -0.2229 -0.2179  0.5350
  169DOPC    C120509   0.222   0.665  10.090  0.0110 -0.9353 -0.9184
  169DOPC    HA20510   0.121   0.688  10.130  0.5848 -2.2637  1.5016
  169DOPC    HB20511   0.241   0.557  10.106  1.1565 -0.6453 -0.2572
  169DOPC    C220512   0.214   0.685   9.943  0.5366 -0.3693 -0.0359
  169DOPC    HS20513   0.298   0.629   9.898  0.8482  0.6216 -0.7165
  169DOPC   O2120514   0.210   0.826   9.906 -0.3751 -0.2382  0.0942
  169DOPC   C2120515   0.323   0.880   9.871 -0.1122 -0.1869  0.4583
  169DOPC   O2220516   0.421   0.819   9.845 -0.1364  0.6499  0.0611
  169DOPC   C2220517   0.317   1.031   9.854 -0.2200  0.2990 -0.2322
  169DOPC   H2R20518   0.416   1.070   9.823 -0.5064  1.4483  0.2341
  169DOPC   H2S20519   0.292   1.088   9.947 -1.9374 -0.9308  0.1132
  169DOPC    C320520   0.075   0.617   9.889 -0.1200 -0.6809 -0.9323
  169DOPC    HX20521  -0.018   0.669   9.919  0.1374 -0.0302 -1.2428
  169DOPC    HY20522   0.064   0.525   9.951 -0.6409 -0.3674 -0.5579
  169DOPC   O3120523   0.082   0.610   9.746 -0.2422  0.2123  0.3970
  169DOPC   C3120524   0.135   0.506   9.696  0.0104  0.0177  0.1181
  169DOPC   O3220525   0.184   0.414   9.755 -0.0338  0.2426 -0.1197
  169DOPC   C3220526   0.128   0.522   9.539 -0.3674 -0.2187 -0.3208
  169DOPC   H2X20527   0.021   0.496   9.524 -0.0483 -1.1277 -1.1124
  169DOPC   H2Y20528   0.155   0.626   9.509  2.6338 -0.8123  0.0404
  169DOPC   C2320529   0.212   1.077   9.743  0.4188 -0.1406  0.0265
  169DOPC   H3R20530   0.200   1.188   9.749  1.2887  0.0454 -1.3154
  169DOPC   H3S20531   0.111   1.031   9.753  0.0258  0.6452 -0.1858
  169DOPC   C2420532   0.261   1.045   9.604  0.4963  0.1886  0.3411
  169DOPC   H4R20533   0.280   0.936   9.596  0.8561  0.3220 -0.8962
  169DOPC   H4S20534   0.353   1.103   9.580  0.6847  0.5103  1.7637
  169DOPC   C2520535   0.148   1.079   9.498  0.1311  0.0876 -0.6782
  169DOPC   H5R20536   0.150   1.190   9.495  0.0856  0.0686 -1.3848
  169DOPC   H5S20537   0.052   1.044   9.542  0.2468 -0.2231 -0.6716
  169DOPC   C2620538   0.178   1.033   9.355 -0.0597  0.1440 -0.7337
  169DOPC   H6R20539   0.276   1.074   9.322  0.3435  0.3437  0.6633
  169DOPC   H6S20540   0.103   1.087   9.294 -0.7857 -1.6560 -1.4984
  169DOPC   C2720541   0.159   0.883   9.331 -0.8412  0.2810  0.6663
  169DOPC   H7R20542   0.103   0.840   9.417 -0.1662 -0.0551  0.9458
  169DOPC   H7S20543   0.260   0.837   9.336 -0.8055  0.4489  1.7139
  169DOPC   C2820544   0.089   0.854   9.197  0.0288  0.2779 -0.0165
  169DOPC   H8R20545  -0.018   0.884   9.191  0.3046  0.9786 -2.3898
  169DOPC   H8S20546   0.090   0.743   9.190  1.3039  0.2529  0.3185
  169DOPC   C2920547   0.158   0.908   9.073  0.8052 -0.5154 -0.4336
  169DOPC   H9R20548   0.256   0.950   9.098  0.6227  0.3378 -1.0878
  169DOPC  C21020549   0.105   0.919   8.951  0.3697 -0.6555  0.9964
  169DOPC  H10R20550   0.180   0.927   8.872 -2.1842 -3.1933 -1.9450
  169DOPC  C21120551  -0.029   0.874   8.897  0.5522  0.0573 -0.2832
  169DOPC  H11R20552  -0.104   0.950   8.866  0.1227  0.1768  0.9743
  169DOPC  H11S20553  -0.087   0.802   8.959  1.2047  1.6747  2.3776
  169DOPC  C21220554  -0.017   0.788   8.773 -0.4277 -0.1819  0.2542
  169DOPC  H12R20555  -0.111   0.729   8.768 -1.2037  0.8243  1.8976
  169DOPC  H12S20556   0.065   0.714   8.780 -0.1338  0.1627  0.5356
  169DOPC  C21320557  -0.002   0.876   8.648 -0.2182 -0.0305 -0.3736
  169DOPC  H13R20558   0.081   0.949   8.649 -1.1241  1.0234 -0.2463
  169DOPC  H13S20559  -0.091   0.942   8.637  1.0776  1.6779 -1.0043
  169DOPC  C21420560   0.021   0.792   8.523  0.2884  0.3636 -0.4546
  169DOPC  H14R20561  -0.058   0.715   8.507  0.5013  0.0835 -0.1574
  169DOPC  H14S20562   0.122   0.748   8.531  1.4674  3.0004  0.2347
  169DOPC  C21520563   0.023   0.873   8.396  0.4905  0.3338  0.6564
  169DOPC  H15R20564   0.110   0.941   8.404 -0.5747  1.8894 -0.4840
  169DOPC  H15S20565  -0.064   0.941   8.391  1.5134  1.7205  0.9402
  169DOPC  C21620566   0.033   0.775   8.280 -0.0092 -0.7877  0.1310
  169DOPC  H16R20567   0.119   0.706   8.289  1.4588  0.4621 -2.9803
  169DOPC  H16S20568   0.063   0.831   8.189  1.2500  1.4431  1.8085
  169DOPC  C21720569  -0.093   0.698   8.257  0.0125 -0.5522 -0.6098
  169DOPC  H17R20570  -0.184   0.758   8.240 -0.2135 -0.8669 -0.5191
  169DOPC  H17S20571  -0.108   0.625   8.339 -1.7531 -1.4309 -1.6545
  169DOPC  C21820572  -0.084   0.625   8.123 -0.4513 -0.4393 -0.3959
  169DOPC  H18R20573   0.001   0.554   8.129 -0.4869 -0.5166 -0.7786
  169DOPC  H18S20574  -0.076   0.709   8.050  3.1509 -0.4538 -0.1964
  169DOPC  H18T20575  -0.179   0.571   8.102 -0.3526 -0.3454 -1.1278
  169DOPC   C3320576   0.212   0.423   9.463 -0.1975  0.4631 -0.0970
  169DOPC   H3X20577   0.199   0.324   9.511  1.5793 -0.8674 -2.1836
  169DOPC   H3Y20578   0.320   0.446   9.475  0.0478  0.0748 -1.4167
  169DOPC   C3420579   0.194   0.405   9.316 -0.1656 -0.9525  0.0136
  169DOPC   H4X20580   0.223   0.501   9.268  0.8947 -0.3404  1.7835
  169DOPC   H4Y20581   0.093   0.374   9.283 -0.1064 -0.9068 -0.2121
  169DOPC   C3520582   0.289   0.298   9.270 -0.6179  0.1186  0.2900
  169DOPC   H5X20583   0.264   0.204   9.324  0.7328 -0.7317 -0.4983
  169DOPC   H5Y20584   0.390   0.332   9.304 -0.3941 -0.5523  0.3052
  169DOPC   C3620585   0.298   0.290   9.116 -0.0996  0.3921 -0.4469
  169DOPC   H6X20586   0.355   0.377   9.076 -0.3144  0.6095 -0.2904
  169DOPC   H6Y20587   0.353   0.196   9.099 -0.5057 -0.0752  0.7100
  169DOPC   C3720588   0.166   0.277   9.050  0.3712  0.3935  0.3351
  169DOPC   H7X20589   0.184   0.209   8.964  1.5303  0.8562  0.1841
  169DOPC   H7Y20590   0.094   0.233   9.121 -0.1757  0.3727 -0.2202
  169DOPC   C3820591   0.117   0.412   8.986 -0.0580  0.1563 -1.5077
  169DOPC   H8X20592   0.177   0.443   8.897 -1.2045  0.2951 -2.2511
  169DOPC   H8Y20593   0.119   0.493   9.062  2.1300 -1.1519 -0.0791
  169DOPC   C3920594  -0.027   0.387   8.944  0.1475  0.4038 -0.0215
  169DOPC   H9X20595  -0.095   0.349   9.022  0.9000  1.0515  0.9732
  169DOPC  C31020596  -0.083   0.374   8.825 -0.5782 -0.4185  0.0417
  169DOPC  H10X20597  -0.191   0.359   8.811 -0.8712  1.3757  0.1715
  169DOPC  C31120598  -0.005   0.398   8.691  0.0932  0.0954 -0.2522
  169DOPC  H11X20599   0.063   0.486   8.697  1.0155 -0.4801 -1.8813
  169DOPC  H11Y20600  -0.067   0.420   8.602 -0.3147  2.0761  0.4665
  169DOPC  C31220601   0.085   0.274   8.679  1.3440 -0.2013  0.7024
  169DOPC  H12X20602   0.020   0.184   8.673  0.0725  0.5599  2.3833
  169DOPC  H12Y20603   0.156   0.275   8.764  0.0076 -0.6315  1.8545
  169DOPC  C31320604   0.172   0.288   8.556  0.4540  0.4097  0.3103
  169DOPC  H13X20605   0.101   0.324   8.479  0.0119  0.2778  0.6583
  169DOPC  H13Y20606   0.246   0.367   8.581  0.2913  0.5086  0.4762
  169DOPC  C31420607   0.242   0.161   8.506  0.6589  0.0634  0.2016
  169DOPC  H14X20608   0.341   0.192   8.466  0.4042  0.2448 -0.2917
  169DOPC  H14Y20609   0.258   0.105   8.601  0.4335  1.4685  1.0877
  169DOPC  C31520610   0.155   0.069   8.421  0.6245 -0.3957 -0.3982
  169DOPC  H15X20611   0.069   0.040   8.485  2.7265 -0.8483  2.4124
  169DOPC  H15Y20612   0.213  -0.023   8.400 -2.7066 -3.2503  1.7774
  169DOPC  C31620613   0.101   0.120   8.287 -0.2940  0.4637  0.7553
  169DOPC  H16X20614   0.026   0.048   8.246  0.1837 -0.1858  1.0169
  169DOPC  H16Y20615   0.038   0.212   8.293 -1.6119 -0.0161 -2.8903
  169DOPC  C31720616   0.214   0.138   8.189 -0.1446  0.3206 -0.0137
  169DOPC  H17X20617   0.289   0.211   8.226  0.6567 -1.5050  2.1854
  169DOPC  H17Y20618   0.265   0.042   8.168  0.3696  0.3700  1.0025
  169DOPC  C31820619   0.160   0.183   8.044  0.0644 -0.0591  0.1587
  169DOPC  H18X20620   0.238   0.187   7.964  1.0010  1.0723  1.0911
  169DOPC  H18Y20621   0.068   0.124   8.026 -1.5822  2.1331  1.0262
  169DOPC  H18Z20622   0.120   0.284   8.066 -1.1099 -1.0614  3.1039
  170DOPC     N20623   5.857   6.550  11.098  0.5457  0.3187  0.8084
  170DOPC   C1220624   5.773   6.487  10.990  0.5272  0.0671 -0.1488
  170DOPC  H12A20625   5.667   6.504  11.005  0.1104  0.3182 -2.8074
  170DOPC  H12B20626   5.788   6.380  10.987  1.3247  0.0561  2.3751
  170DOPC   C1320627   5.989   6.504  11.109  0.2048 -0.1703  0.0779
  170DOPC  H13A20628   5.999   6.397  11.106 -0.4483 -0.3676  2.6510
  170DOPC  H13B20629   6.050   6.537  11.025 -0.1338  0.2914  0.0072
  170DOPC  H13C20630   6.030   6.523  11.207 -1.7998 -0.9518  1.1167
  170DOPC   C1420631   5.794   6.525  11.234  0.1607 -0.2018 -0.2051
  170DOPC  H14A20632   5.859   6.543  11.318 -1.0157  0.8696  0.5201
  170DOPC  H14B20633   5.705   6.587  11.238  0.6601  0.4956  0.4205
  170DOPC  H14C20634   5.752   6.426  11.241  1.3268 -0.5715  2.1580
  170DOPC   C1520635   5.858   6.695  11.082 -0.1316  0.3679 -0.3398
  170DOPC  H15A20636   5.928   6.734  11.154  2.8392 -2.9497 -1.1485
  170DOPC  H15B20637   5.767   6.750  11.102 -0.2653  0.5705 -1.4523
  170DOPC  H15C20638   5.890   6.716  10.981  2.2995 -1.3566 -0.0223
  170DOPC   C1120639   5.804   6.524  10.841 -0.5670  0.2049 -0.4553
  170DOPC  H11A20640   5.729   6.489  10.767 -1.2912  1.1928 -0.2051
  170DOPC  H11B20641   5.799   6.634  10.835  1.6488  0.4544  1.2701
  170DOPC     P20642   5.950   6.349  10.729 -0.2214 -0.1764 -0.1577
  170DOPC   O1320643   5.867   6.251  10.800 -0.1208  0.4151 -0.8968
  170DOPC   O1420644   6.092   6.307  10.694  0.2682  0.2556 -0.1184
  170DOPC   O1220645   5.944   6.483  10.807 -0.5074  0.3537 -0.3272
  170DOPC   O1120646   5.866   6.386  10.601  0.1853  0.0121 -0.0713
  170DOPC    C120647   5.934   6.433  10.482 -0.4303  0.1609  0.4610
  170DOPC    HA20648   5.973   6.348  10.421 -0.4548 -0.3703  1.1778
  170DOPC    HB20649   6.012   6.505  10.511 -0.2646  0.8869 -1.6269
  170DOPC    C220650   5.832   6.490  10.387 -0.1508  0.0686  0.1174
  170DOPC    HS20651   5.781   6.576  10.434 -0.2379  0.3653 -0.5129
  170DOPC   O2120652   5.733   6.396  10.338 -0.0854  0.2771  0.0389
  170DOPC   C2120653   5.628   6.445  10.279  0.0622 -0.4063  0.1456
  170DOPC   O2220654   5.603   6.568  10.269  0.3747 -0.2317 -0.2341
  170DOPC   C2220655   5.534   6.333  10.246 -0.2385 -0.0215  0.2596
  170DOPC   H2R20656   5.490   6.309  10.346 -2.2631 -1.6183 -0.9509
  170DOPC   H2S20657   5.587   6.248  10.199  4.0885  1.9477  1.0701
  170DOPC    C320658   5.913   6.543  10.259 -0.2824  0.3149 -0.1569
  170DOPC    HX20659   5.946   6.452  10.205 -0.2961 -0.4725  1.1256
  170DOPC    HY20660   5.995   6.611  10.291  0.2237  0.6064 -1.9724
  170DOPC   O3120661   5.834   6.627  10.173 -0.3422  0.3365 -0.1819
  170DOPC   C3120662   5.891   6.667  10.059 -0.4078 -0.0362 -0.2249
  170DOPC   O3220663   6.001   6.639  10.031 -0.0603  0.3008  0.4340
  170DOPC   C3220664   5.786   6.748   9.975 -0.1022  0.1408  0.0677
  170DOPC   H2X20665   5.695   6.685   9.968  2.5522 -3.8342 -2.8651
  170DOPC   H2Y20666   5.753   6.834  10.038  1.0517  0.7130 -0.0841
  170DOPC   C2320667   5.406   6.381  10.173 -0.6426  0.6708 -0.1537
  170DOPC   H3R20668   5.396   6.489  10.197 -0.2303  0.4483  1.1184
  170DOPC   H3S20669   5.307   6.333  10.191 -0.5755  0.4235 -0.4430
  170DOPC   C2420670   5.415   6.363  10.023 -0.6959  0.0434 -0.1171
  170DOPC   H4R20671   5.329   6.414   9.973  0.9966  0.9257 -2.2862
  170DOPC   H4S20672   5.436   6.261   9.986  1.0578  0.6524 -0.9096
  170DOPC   C2520673   5.541   6.434   9.965 -0.0210 -0.4004 -0.5639
  170DOPC   H5R20674   5.636   6.387   9.999 -1.2765 -1.2710  1.9408
  170DOPC   H5S20675   5.553   6.534  10.012 -0.5414  0.0939 -1.4537
  170DOPC   C2620676   5.531   6.451   9.816 -0.3899 -0.1654 -0.2516
  170DOPC   H6R20677   5.573   6.550   9.789  0.0498  0.1669  1.5592
  170DOPC   H6S20678   5.426   6.440   9.781 -1.6683  1.2668  2.8076
  170DOPC   C2720679   5.612   6.341   9.744 -0.2515  1.2128  0.1722
  170DOPC   H7R20680   5.591   6.238   9.779  0.4226  1.1058  0.2810
  170DOPC   H7S20681   5.716   6.372   9.770  0.3315  0.0739 -0.7190
  170DOPC   C2820682   5.601   6.333   9.591  0.1718 -0.2247  0.1423
  170DOPC   H8R20683   5.690   6.278   9.553 -0.3734  0.2305 -1.9246
  170DOPC   H8S20684   5.618   6.439   9.562 -1.0370 -0.4225 -1.4029
  170DOPC   C2920685   5.482   6.271   9.529  0.5326  0.3446 -0.5069
  170DOPC   H9R20686   5.406   6.343   9.497 -1.2235 -0.5695  1.3572
  170DOPC  C21020687   5.476   6.140   9.497 -0.0719 -0.2194 -0.6091
  170DOPC  H10R20688   5.388   6.104   9.441 -0.0703  0.4766 -1.0814
  170DOPC  C21120689   5.572   6.031   9.538  0.1827 -0.6703  1.2534
  170DOPC  H11R20690   5.659   6.074   9.593  0.5497  0.0462  0.1391
  170DOPC  H11S20691   5.613   5.990   9.443  1.1175  1.7006  0.5616
  170DOPC  C21220692   5.511   5.912   9.605 -0.2870  0.2790 -0.1684
  170DOPC  H12R20693   5.563   5.815   9.593 -2.4446 -0.8059 -1.3434
  170DOPC  H12S20694   5.411   5.888   9.563 -1.0077  2.2244  0.3068
  170DOPC  C21320695   5.495   5.942   9.758  0.1874  0.3285 -0.2869
  170DOPC  H13R20696   5.419   5.876   9.804  0.4209 -0.4568 -1.0020
  170DOPC  H13S20697   5.441   6.039   9.766 -1.1603 -0.2907 -1.3933
  170DOPC  C21420698   5.624   5.959   9.840  0.8043 -0.2067 -0.0059
  170DOPC  H14R20699   5.692   6.029   9.787  0.8310 -1.5407 -1.8021
  170DOPC  H14S20700   5.676   5.861   9.840  0.7374 -0.2600 -1.6353
  170DOPC  C21520701   5.606   5.980   9.998 -0.4567 -0.3128 -0.7813
  170DOPC  H15R20702   5.521   5.918  10.032 -0.8059 -0.2957 -1.6043
  170DOPC  H15S20703   5.581   6.085  10.025 -1.3900 -0.5479 -0.6813
  170DOPC  C21620704   5.737   5.946  10.074 -0.4855  0.2399  0.3522
  170DOPC  H16R20705   5.755   5.837  10.063 -0.5286  0.2619  0.0715
  170DOPC  H16S20706   5.714   5.957  10.182 -1.0302 -1.7436  0.4824
  170DOPC  C21720707   5.867   6.024  10.038  0.0151  0.2862 -1.0110
  170DOPC  H17R20708   5.899   6.019   9.932 -0.5282 -0.0745 -1.1669
  170DOPC  H17S20709   5.952   5.980  10.094 -1.6019  0.8308  2.0824
  170DOPC  C21820710   5.861   6.172  10.069  0.5499 -0.2960  0.6039
  170DOPC  H18R20711   5.838   6.185  10.177 -1.7136  0.5870  0.0768
  170DOPC  H18S20712   5.782   6.219  10.005 -0.1308 -1.3059  0.6825
  170DOPC  H18T20713   5.957   6.212  10.031  0.2515 -2.3161 -2.6984
  170DOPC   C3320714   5.841   6.775   9.831 -0.4986 -0.4717 -0.0933
  170DOPC   H3X20715   5.850   6.678   9.778  0.0019  0.3596 -1.6070
  170DOPC   H3Y20716   5.936   6.833   9.843 -0.7633  0.6365 -2.6612
  170DOPC   C3420717   5.756   6.878   9.754  0.5524 -0.2370  0.3166
  170DOPC   H4X20718   5.757   6.973   9.812  3.2313 -0.5756  0.9426
  170DOPC   H4Y20719   5.649   6.853   9.739 -0.1995  0.9477  3.0355
  170DOPC   C3520720   5.817   6.903   9.614  0.4220 -0.4380 -0.2725
  170DOPC   H5X20721   5.805   6.813   9.550 -0.5559  0.7225 -1.7871
  170DOPC   H5Y20722   5.927   6.911   9.627  0.5790 -2.4134 -0.1135
  170DOPC   C3620723   5.767   7.033   9.560 -0.5088 -0.2311 -0.0498
  170DOPC   H6X20724   5.657   7.017   9.558 -0.5189 -0.1666 -1.7389
  170DOPC   H6Y20725   5.793   7.111   9.634  0.0763 -2.0965  1.7712
  170DOPC   C3720726   5.834   7.072   9.430  1.1953  0.1043  0.5988
  170DOPC   H7X20727   5.782   7.162   9.391  1.1475  0.0053  0.4318
  170DOPC   H7Y20728   5.933   7.115   9.455  1.0000  1.5084 -0.8498
  170DOPC   C3820729   5.850   6.959   9.321 -0.0857  0.3571  0.0130
  170DOPC   H8X20730   5.747   6.927   9.294  0.5399 -1.7120 -0.1220
  170DOPC   H8Y20731   5.899   6.866   9.356 -0.2998 -0.5087 -1.8846
  170DOPC   C3920732   5.933   7.007   9.210  0.0067 -0.8921  0.2419
  170DOPC   H9X20733   6.042   7.010   9.225  0.0235  0.3326 -0.0404
  170DOPC  C31020734   5.888   7.046   9.090 -0.5013  0.1836  0.1238
  170DOPC  H10X20735   5.949   7.098   9.015  0.5039 -0.0345  0.7847
  170DOPC  C31120736   5.740   7.042   9.065 -0.2394 -0.6822 -0.0286
  170DOPC  H11X20737   5.694   7.099   9.149  1.3666 -0.3655  0.6922
  170DOPC  H11Y20738   5.690   6.943   9.066 -1.3150 -0.1708 -0.8167
  170DOPC  C31220739   5.696   7.128   8.941 -0.1795  0.0762 -0.1822
  170DOPC  H12X20740   5.733   7.232   8.938  1.3675 -0.3522  1.9013
  170DOPC  H12Y20741   5.585   7.121   8.944 -0.2491  1.2200  0.4745
  170DOPC  C31320742   5.734   7.055   8.806 -0.2102 -0.3311 -1.1863
  170DOPC  H13X20743   5.837   7.086   8.781 -0.3109  1.0940  0.0519
  170DOPC  H13Y20744   5.744   6.945   8.819 -0.0190 -0.3200 -1.2436
  170DOPC  C31420745   5.644   7.087   8.678 -0.3660 -0.2042  0.0164
  170DOPC  H14X20746   5.542   7.045   8.691  0.3341 -2.1583 -0.3162
  170DOPC  H14Y20747   5.645   7.198   8.681 -0.9430 -0.2075  0.8907
  170DOPC  C31520748   5.704   7.033   8.547  0.2570  0.3542  0.2925
  170DOPC  H15X20749   5.699   6.922   8.553 -0.1951  0.4308  1.8507
  170DOPC  H15Y20750   5.813   7.049   8.547  0.2274  0.5793 -0.0752
  170DOPC  C31620751   5.653   7.086   8.409  0.2442 -0.4774 -0.0740
  170DOPC  H16X20752   5.545   7.067   8.388  0.6597 -1.3994 -1.4735
  170DOPC  H16Y20753   5.666   7.195   8.393  1.1761 -0.4715  0.6659
  170DOPC  C31720754   5.742   7.024   8.306  0.4210  0.9239  0.1779
  170DOPC  H17X20755   5.837   7.081   8.303  0.2356  1.2103 -0.7109
  170DOPC  H17Y20756   5.771   6.921   8.337 -1.8677  0.7374  1.9535
  170DOPC  C31820757   5.681   7.034   8.165  0.2150 -0.2217 -0.1836
  170DOPC  H18X20758   5.616   7.123   8.154  0.2413 -0.0408  0.9527
  170DOPC  H18Y20759   5.750   7.020   8.080 -0.4546  1.3831 -1.0199
  170DOPC  H18Z20760   5.611   6.947   8.166 -1.0276  0.7483 -0.3497
  171DOPC     N20761   3.939   3.174   5.075  0.1832  0.7393 -0.0973
  171DOPC   C1220762   3.870   3.059   5.150  0.0362  0.1079  0.5373
  171DOPC  H12A20763   3.863   2.971   5.089  0.9446  0.2120  0.2679
  171DOPC  H12B20764   3.763   3.075   5.156 -0.5843 -3.0388 -0.2598
  171DOPC   C1320765   4.052   3.107   4.999 -0.1603  0.3984 -0.6369
  171DOPC  H13A20766   4.022   3.055   4.909 -1.2126 -0.1161  0.0007
  171DOPC  H13B20767   4.118   3.185   4.962  3.6753 -1.3084  2.0511
  171DOPC  H13C20768   4.112   3.045   5.063 -0.5427  0.9372  0.2553
  171DOPC   C1420769   3.985   3.276   5.164 -0.1349  0.2925  0.0455
  171DOPC  H14A20770   3.898   3.310   5.218  0.4024 -1.0438  1.8659
  171DOPC  H14B20771   4.052   3.238   5.239 -0.0690  0.6162  0.1539
  171DOPC  H14C20772   4.032   3.363   5.119  2.2953  0.2638  2.2916
  171DOPC   C1520773   3.843   3.231   4.971  0.1796  0.3899  0.4852
  171DOPC  H15A20774   3.810   3.155   4.901  2.3030  0.1770 -0.3826
  171DOPC  H15B20775   3.904   3.300   4.915  2.4658 -1.8632  0.0045
  171DOPC  H15C20776   3.757   3.278   5.016 -0.1112 -0.9543  1.4105
  171DOPC   C1120777   3.921   3.021   5.290 -0.4166  0.0655  0.1418
  171DOPC  H11A20778   3.904   3.107   5.359  0.5521  0.7875 -0.4974
  171DOPC  H11B20779   3.856   2.941   5.332 -1.0630  0.8984  0.7477
  171DOPC     P20780   4.113   2.838   5.285  0.2077 -0.2811 -0.5063
  171DOPC   O1320781   4.254   2.831   5.245 -0.3352  0.0216  0.9471
  171DOPC   O1420782   4.016   2.751   5.215 -0.1123  0.0575 -0.3675
  171DOPC   O1220783   4.064   2.989   5.283 -0.0725  0.0591 -0.1828
  171DOPC   O1120784   4.104   2.803   5.442  0.0135 -0.0953 -0.1490
  171DOPC    C120785   4.194   2.866   5.531 -0.6356  0.4537  0.0184
  171DOPC    HA20786   4.141   2.864   5.629  0.7398 -2.1997  0.7972
  171DOPC    HB20787   4.213   2.968   5.491 -0.7213  0.5428  0.2000
  171DOPC    C220788   4.326   2.790   5.561  0.0764  0.1324 -0.9743
  171DOPC    HS20789   4.385   2.790   5.467  1.4030  2.5579 -0.2351
  171DOPC   O2120790   4.291   2.664   5.616  0.5717  0.1217 -0.2566
  171DOPC   C2120791   4.395   2.580   5.623  0.1223  0.0087  0.4020
  171DOPC   O2220792   4.508   2.598   5.587 -0.1484 -0.4966  0.2311
  171DOPC   C2220793   4.345   2.452   5.703  0.5743 -0.4641 -0.1726
  171DOPC   H2R20794   4.435   2.397   5.738  0.3588 -1.3485 -0.9742
  171DOPC   H2S20795   4.297   2.392   5.623  0.3713 -0.0274 -0.3794
  171DOPC    C320796   4.413   2.874   5.667  0.0703 -0.0124  1.1418
  171DOPC    HX20797   4.431   2.972   5.617  1.7402 -0.3869  0.9321
  171DOPC    HY20798   4.512   2.823   5.676  0.8406  1.3926  0.9824
  171DOPC   O3120799   4.344   2.896   5.789  0.0699 -0.5748  0.9349
  171DOPC   C3120800   4.392   2.829   5.894 -0.0376  0.1327  0.2500
  171DOPC   O3220801   4.496   2.769   5.894 -0.4803 -0.0865  0.1131
  171DOPC   C3220802   4.291   2.829   6.008 -0.6723  0.3143 -0.0661
  171DOPC   H2X20803   4.268   2.934   6.037  0.2005  0.3824  0.4006
  171DOPC   H2Y20804   4.203   2.773   5.972 -0.6780 -0.4254  1.0670
  171DOPC   C2320805   4.254   2.471   5.824  0.6648  1.1136  0.6427
  171DOPC   H3R20806   4.150   2.488   5.788  0.4713  0.9945  1.1378
  171DOPC   H3S20807   4.276   2.567   5.875  0.7000  0.5835  1.6491
  171DOPC   C2420808   4.255   2.356   5.930 -0.4059 -0.0215  1.2231
  171DOPC   H4R20809   4.351   2.363   5.986 -1.4859  0.7190  3.0714
  171DOPC   H4S20810   4.253   2.257   5.879  2.0146 -0.4178  1.7487
  171DOPC   C2520811   4.146   2.361   6.033 -0.1938  0.1937  0.1047
  171DOPC   H5R20812   4.052   2.361   5.973 -1.1921 -2.1683  1.5125
  171DOPC   H5S20813   4.155   2.461   6.080  1.9673 -0.3173  0.8785
  171DOPC   C2620814   4.160   2.254   6.144 -0.4144  0.4313 -0.1369
  171DOPC   H6R20815   4.257   2.276   6.194 -1.0956  2.5024  0.4052
  171DOPC   H6S20816   4.156   2.153   6.100 -0.7431 -1.0189  2.9478
  171DOPC   C2720817   4.045   2.273   6.244  0.1459  0.1392 -0.3964
  171DOPC   H7R20818   3.949   2.274   6.187 -0.1355 -0.2060  0.0685
  171DOPC   H7S20819   4.074   2.360   6.306  0.8489 -0.7953  0.6354
  171DOPC   C2820820   4.048   2.151   6.342  0.1410 -0.0704  0.3276
  171DOPC   H8R20821   4.153   2.144   6.379  0.4263 -3.3737 -0.7915
  171DOPC   H8S20822   4.026   2.056   6.289 -0.4848  0.3492 -0.1733
  171DOPC   C2920823   3.947   2.163   6.450  0.3834  0.0566 -0.8007
  171DOPC   H9R20824   3.845   2.171   6.410 -0.3608  0.7388  1.1418
  171DOPC  C21020825   3.974   2.146   6.579 -0.0301 -0.1965 -0.6236
  171DOPC  H10R20826   3.896   2.144   6.657  1.9917 -0.2810  1.5031
  171DOPC  C21120827   4.113   2.128   6.637 -0.1890  0.8571 -0.0043
  171DOPC  H11R20828   4.190   2.203   6.608  0.0927  0.4260 -0.3724
  171DOPC  H11S20829   4.157   2.032   6.603 -1.6167  0.5763 -1.1716
  171DOPC  C21220830   4.116   2.111   6.798 -0.4269 -0.5653  0.8669
  171DOPC  H12R20831   4.068   2.200   6.845 -2.2112 -0.2205 -1.3847
  171DOPC  H12S20832   4.225   2.117   6.815 -0.1030 -0.9272 -0.8852
  171DOPC  C21320833   4.057   1.978   6.840  0.2411  0.3523  0.6858
  171DOPC  H13R20834   4.132   1.900   6.813 -0.0797  0.6602 -1.1515
  171DOPC  H13S20835   3.962   1.962   6.785  0.2881 -0.6135  0.8670
  171DOPC  C21420836   4.021   1.989   6.988 -0.0173  0.8039 -0.1898
  171DOPC  H14R20837   3.922   2.037   7.006  0.1753  1.5956 -1.1440
  171DOPC  H14S20838   4.097   2.049   7.041  0.2373 -0.7176  1.2233
  171DOPC  C21520839   4.016   1.853   7.056  0.4342  0.0262  0.3875
  171DOPC  H15R20840   4.115   1.805   7.041  0.7744  0.6447  0.6484
  171DOPC  H15S20841   3.940   1.792   7.003  1.5091 -1.4717  0.5017
  171DOPC  C21620842   3.974   1.861   7.197  0.3530 -0.7436  0.1194
  171DOPC  H16R20843   3.865   1.874   7.207  0.4140  0.9957 -0.9757
  171DOPC  H16S20844   4.015   1.947   7.254 -1.3156 -0.5757  1.1149
  171DOPC  C21720845   4.016   1.736   7.267  0.1935 -0.2836 -0.4942
  171DOPC  H17R20846   4.126   1.742   7.254  0.0118  1.6585 -1.3923
  171DOPC  H17S20847   3.977   1.653   7.204  1.4046 -0.0736 -1.5520
  171DOPC  C21820848   3.983   1.728   7.424 -0.1537 -0.4663  0.4927
  171DOPC  H18R20849   3.877   1.759   7.439 -0.2075  0.7505 -1.8626
  171DOPC  H18S20850   4.051   1.795   7.481 -2.8259  3.0528 -0.0955
  171DOPC  H18T20851   3.990   1.624   7.463 -0.7859 -0.5752  0.3330
  171DOPC   C3320852   4.356   2.757   6.137  0.0762 -0.8769 -0.7417
  171DOPC   H3X20853   4.445   2.807   6.180 -0.6995 -1.8682  2.2329
  171DOPC   H3Y20854   4.388   2.653   6.112 -0.0416 -1.2713  0.6560
  171DOPC   C3420855   4.248   2.727   6.247 -0.4478  0.6165  0.4218
  171DOPC   H4X20856   4.160   2.670   6.208 -0.3665 -1.4623  3.0178
  171DOPC   H4Y20857   4.207   2.824   6.282  2.0056  1.9942 -0.2583
  171DOPC   C3520858   4.307   2.646   6.363  0.0904 -0.2783 -0.0376
  171DOPC   H5X20859   4.413   2.667   6.388 -0.3100  1.9366  0.0038
  171DOPC   H5Y20860   4.299   2.537   6.342  1.7469 -0.0809 -2.0456
  171DOPC   C3620861   4.219   2.680   6.489  0.2165  0.1816  0.0742
  171DOPC   H6X20862   4.244   2.771   6.547  0.9764 -0.3330  0.5668
  171DOPC   H6Y20863   4.118   2.698   6.447  1.2995  2.3484 -1.8685
  171DOPC   C3720864   4.215   2.550   6.574 -0.1809  0.0542  0.9397
  171DOPC   H7X20865   4.162   2.467   6.523 -1.0546  0.3284  1.3829
  171DOPC   H7Y20866   4.320   2.526   6.600  0.1731 -2.2072 -2.0722
  171DOPC   C3820867   4.134   2.585   6.691 -0.0220  0.3570 -0.1073
  171DOPC   H8X20868   4.030   2.612   6.661  0.2046 -1.2498 -2.6831
  171DOPC   H8Y20869   4.165   2.675   6.748  0.5248 -0.7634  1.4208
  171DOPC   C3920870   4.142   2.477   6.799  0.0391  0.3439  0.0494
  171DOPC   H9X20871   4.225   2.407   6.783  0.3310  0.2546  1.8130
  171DOPC  C31020872   4.058   2.458   6.901 -0.6673  0.5984 -0.0461
  171DOPC  H10X20873   4.083   2.386   6.981 -0.0618  0.5501 -0.2751
  171DOPC  C31120874   3.938   2.548   6.932 -0.2495  0.9277  0.4302
  171DOPC  H11X20875   3.936   2.637   6.866  0.0304 -0.8315 -2.1072
  171DOPC  H11Y20876   3.944   2.576   7.040  0.7715 -2.7348  1.4927
  171DOPC  C31220877   3.806   2.471   6.913 -0.1314  0.5028 -0.0759
  171DOPC  H12X20878   3.803   2.429   6.810  0.6044 -1.0867  0.5113
  171DOPC  H12Y20879   3.720   2.536   6.941 -1.1056 -0.1513 -1.4179
  171DOPC  C31320880   3.786   2.349   7.001  0.5171 -0.0144 -0.0411
  171DOPC  H13X20881   3.856   2.270   6.968  0.8379  1.0268 -2.0386
  171DOPC  H13Y20882   3.798   2.367   7.110 -1.9171 -4.0404  1.1312
  171DOPC  C31420883   3.648   2.283   6.994  0.4894  0.7955 -0.1753
  171DOPC  H14X20884   3.568   2.353   7.025 -1.8991 -1.5965 -0.5166
  171DOPC  H14Y20885   3.624   2.246   6.892 -0.1329 -0.0002  0.2424
  171DOPC  C31520886   3.619   2.162   7.092 -0.3268  0.7114 -0.3716
  171DOPC  H15X20887   3.630   2.183   7.200  0.0335 -0.3206 -0.1952
  171DOPC  H15Y20888   3.686   2.077   7.066 -2.4844 -0.5987 -2.0101
  171DOPC  C31620889   3.468   2.130   7.069  0.0079  0.5977 -0.4914
  171DOPC  H16X20890   3.416   2.221   7.106  0.1797  1.7967 -3.0253
  171DOPC  H16Y20891   3.445   2.110   6.962  0.2968 -0.1184 -0.4258
  171DOPC  C31720892   3.414   2.012   7.154  0.5974  0.1634 -0.3762
  171DOPC  H17X20893   3.464   1.920   7.117 -1.1900 -0.7182 -0.7297
  171DOPC  H17Y20894   3.426   2.025   7.264  0.8626 -0.7090 -0.2964
  171DOPC  C31820895   3.258   1.979   7.123  0.3625 -0.2201  0.2945
  171DOPC  H18X20896   3.201   2.041   7.196  0.8331  1.8326 -0.9913
  171DOPC  H18Y20897   3.230   2.001   7.018 -1.7480 -2.1818  0.3747
  171DOPC  H18Z20898   3.241   1.871   7.140 -1.0320 -0.2001 -0.7937
  172DOPC     N20899   3.032   3.514   4.871  0.4299 -0.1721  0.3472
  172DOPC   C1220900   3.043   3.465   5.017  0.5404 -0.3449  0.2755
  172DOPC  H12A20901   3.105   3.377   5.016  0.0284 -0.7113 -0.9753
  172DOPC  H12B20902   2.945   3.440   5.055  0.4210 -1.8708 -0.9503
  172DOPC   C1320903   3.169   3.553   4.822  0.3487 -0.0164  0.2136
  172DOPC  H13A20904   3.162   3.560   4.714 -3.1237 -1.5171  0.2089
  172DOPC  H13B20905   3.197   3.646   4.868 -1.5227  0.4929  0.4221
  172DOPC  H13C20906   3.241   3.483   4.860  0.1460  0.6109  1.7983
  172DOPC   C1420907   2.919   3.611   4.853 -0.2316 -0.4924 -0.3628
  172DOPC  H14A20908   2.837   3.576   4.913 -0.5926 -2.3925 -1.8659
  172DOPC  H14B20909   2.958   3.710   4.876  0.7050 -0.9995  0.3325
  172DOPC  H14C20910   2.890   3.618   4.750  0.6140 -0.6564 -0.6260
  172DOPC   C1520911   2.992   3.396   4.785  0.2030  1.1735  0.0600
  172DOPC  H15A20912   2.890   3.362   4.797 -1.2728  3.9220 -3.0705
  172DOPC  H15B20913   3.053   3.309   4.803 -2.2618 -0.6101  0.2709
  172DOPC  H15C20914   3.010   3.416   4.680  1.7722 -1.8177 -0.3587
  172DOPC   C1120915   3.113   3.558   5.119 -0.2668  1.1660 -0.3543
  172DOPC  H11A20916   3.092   3.511   5.217 -1.2305 -0.1604 -1.1534
  172DOPC  H11B20917   3.221   3.555   5.094 -0.4959 -0.0526 -1.2892
  172DOPC     P20918   2.954   3.754   5.191 -0.1436 -0.0107 -0.4855
  172DOPC   O1320919   2.840   3.675   5.145  0.6116  0.5362 -0.4263
  172DOPC   O1420920   2.960   3.902   5.170  0.1832  0.0040 -0.1553
  172DOPC   O1220921   3.075   3.695   5.117 -0.1172  0.2155  0.1537
  172DOPC   O1120922   2.973   3.719   5.339  0.1909 -0.4786 -0.9295
  172DOPC    C120923   3.087   3.725   5.419 -0.4515  0.0805 -0.6171
  172DOPC    HA20924   3.159   3.806   5.394  1.7156 -1.0876  1.4420
  172DOPC    HB20925   3.151   3.635   5.410  2.0939  1.7114  0.0938
  172DOPC    C220926   3.047   3.754   5.573 -0.3148 -0.7422  0.4157
  172DOPC    HS20927   3.140   3.773   5.631  0.4565 -0.6762 -0.7893
  172DOPC   O2120928   2.975   3.640   5.615 -0.1024 -0.3542  0.6097
  172DOPC   C2120929   3.004   3.590   5.732  0.0708 -0.2449 -0.2391
  172DOPC   O2220930   3.078   3.634   5.819 -0.5922 -0.2717  0.8008
  172DOPC   C2220931   2.922   3.456   5.749  0.4833  0.1255 -0.0119
  172DOPC   H2R20932   2.961   3.383   5.675  3.0551 -3.2306  4.2711
  172DOPC   H2S20933   2.811   3.462   5.751  0.3155 -2.2536 -0.2121
  172DOPC    C320934   2.944   3.880   5.578 -0.1111  0.3010  0.1115
  172DOPC    HX20935   2.850   3.854   5.525  0.5847 -0.6103 -0.7211
  172DOPC    HY20936   2.998   3.956   5.517  0.8114  0.4096  1.0404
  172DOPC   O3120937   2.936   3.931   5.711 -0.0872 -0.2167 -0.8645
  172DOPC   C3120938   2.858   3.863   5.796  0.2790 -0.1680 -0.1942
  172DOPC   O3220939   2.786   3.770   5.764 -0.0385 -0.7006 -0.4866
  172DOPC   C3220940   2.870   3.925   5.934  0.4680  0.0725 -0.5408
  172DOPC   H2X20941   2.974   3.922   5.974  0.3446 -0.9314 -0.2686
  172DOPC   H2Y20942   2.842   4.033   5.930 -1.8087 -0.4435  0.1056
  172DOPC   C2320943   2.959   3.381   5.878  0.5060 -0.0499 -0.0787
  172DOPC   H3R20944   3.068   3.382   5.900  0.5708  3.1572 -0.0467
  172DOPC   H3S20945   2.926   3.275   5.871  2.6128 -0.7779  0.0792
  172DOPC   C2420946   2.884   3.442   5.993 -0.0987  0.5947  0.1175
  172DOPC   H4R20947   2.776   3.451   5.967  0.4711  2.4625 -1.9119
  172DOPC   H4S20948   2.908   3.550   6.001 -0.6986  0.6219  2.0259
  172DOPC   C2520949   2.905   3.351   6.121 -0.2236 -0.3289 -0.2371
  172DOPC   H5R20950   2.861   3.253   6.094 -0.1401 -0.6157  0.6246
  172DOPC   H5S20951   2.842   3.391   6.204  2.1310 -3.1938  3.2751
  172DOPC   C2620952   3.048   3.336   6.169  0.2975 -0.5505  1.4396
  172DOPC   H6R20953   3.098   3.434   6.182  1.0307  0.4141 -5.1307
  172DOPC   H6S20954   3.109   3.298   6.085 -0.3069  0.5569  0.4675
  172DOPC   C2720955   3.058   3.244   6.286 -0.0926  0.3243  0.6730
  172DOPC   H7R20956   3.032   3.142   6.251  0.3400  0.0189  1.2241
  172DOPC   H7S20957   2.990   3.276   6.368  0.2700  0.3314  0.9756
  172DOPC   C2820958   3.208   3.242   6.346 -0.3718 -0.9940 -0.4813
  172DOPC   H8R20959   3.282   3.223   6.265  0.7912  0.0684  0.2919
  172DOPC   H8S20960   3.213   3.156   6.415  2.6744 -2.3320 -2.1527
  172DOPC   C2920961   3.255   3.362   6.431  0.2794 -0.2594 -0.0850
  172DOPC   H9R20962   3.232   3.454   6.375 -0.3991 -0.0885  0.4635
  172DOPC  C21020963   3.302   3.376   6.556  0.4574 -0.6820 -0.1613
  172DOPC  H10R20964   3.311   3.478   6.596  0.0000 -0.6269 -0.1976
  172DOPC  C21120965   3.333   3.261   6.648 -0.1567  0.5923 -0.0842
  172DOPC  H11R20966   3.440   3.269   6.675 -0.1807 -2.9244  1.6690
  172DOPC  H11S20967   3.325   3.171   6.584 -3.5513  0.4250  0.3876
  172DOPC  C21220968   3.227   3.231   6.759 -0.1097  0.6860  0.2887
  172DOPC  H12R20969   3.122   3.236   6.720  0.2993  1.4875 -0.7573
  172DOPC  H12S20970   3.234   3.316   6.829 -3.1870  0.8421  0.5530
  172DOPC  C21320971   3.235   3.097   6.834 -0.3539 -0.4464  0.7007
  172DOPC  H13R20972   3.330   3.088   6.890  0.7120  2.2593 -0.4940
  172DOPC  H13S20973   3.214   3.010   6.768 -0.6623 -1.4344  2.0714
  172DOPC  C21420974   3.106   3.077   6.918  0.1168 -0.4929 -0.0627
  172DOPC  H14R20975   3.013   3.061   6.860 -0.9844  3.0670  0.5011
  172DOPC  H14S20976   3.097   3.171   6.977  3.0404 -0.0875 -0.0671
  172DOPC  C21520977   3.127   2.966   7.019 -0.4772 -0.2711  0.6511
  172DOPC  H15R20978   3.197   3.002   7.097  0.5017 -0.1400 -0.2597
  172DOPC  H15S20979   3.170   2.875   6.973 -2.7633 -0.5392 -1.1099
  172DOPC  C21620980   2.993   2.929   7.092  0.3833 -0.3726 -0.1081
  172DOPC  H16R20981   3.019   2.841   7.155  1.1245 -1.3880 -1.7812
  172DOPC  H16S20982   2.923   2.890   7.015 -2.1545  3.9026 -0.2594
  172DOPC  C21720983   2.927   3.037   7.180 -0.1412  0.4178  0.3425
  172DOPC  H17R20984   2.825   2.994   7.189 -0.5890  1.4728  0.5391
  172DOPC  H17S20985   2.934   3.132   7.123  2.1403 -0.4884 -1.0168
  172DOPC  C21820986   2.992   3.067   7.317  0.0261  0.2593  0.1129
  172DOPC  H18R20987   2.973   2.980   7.383  1.7572 -0.0603  0.2424
  172DOPC  H18S20988   2.951   3.161   7.359  0.7035  2.0316 -2.8974
  172DOPC  H18T20989   3.102   3.078   7.303  0.1609 -2.0952 -1.2330
  172DOPC   C3320990   2.793   3.855   6.048  0.5272  0.1152 -0.3118
  172DOPC   H3X20991   2.838   3.754   6.043 -0.0415 -0.0769 -2.8406
  172DOPC   H3Y20992   2.688   3.844   6.013  0.1016 -0.5077  1.0799
  172DOPC   C3420993   2.803   3.911   6.191  0.5537  0.7635 -0.1153
  172DOPC   H4X20994   2.776   4.019   6.197  0.8203  0.7465  3.0608
  172DOPC   H4Y20995   2.910   3.913   6.220  0.5403  1.0057 -0.0783
  172DOPC   C3520996   2.734   3.834   6.304 -0.6824 -0.3126  0.0826
  172DOPC   H5X20997   2.771   3.730   6.298  1.1511  0.3668 -1.2980
  172DOPC   H5Y20998   2.625   3.819   6.289 -0.7000 -0.8778  0.7294
  172DOPC   C3620999   2.759   3.897   6.439 -0.8868 -1.1390 -0.2838
  172DOPC   H6X21000   2.865   3.923   6.458 -1.4827 -0.4096  2.5283
  172DOPC   H6Y21001   2.713   3.997   6.448  1.2147 -0.2097  0.8026
  172DOPC   C3721002   2.710   3.810   6.551  0.1798  0.1258  0.3627
  172DOPC   H7X21003   2.600   3.803   6.537  0.3560  0.2547 -1.3460
  172DOPC   H7Y21004   2.755   3.709   6.542 -0.9001 -0.3080 -0.2856
  172DOPC   C3821005   2.737   3.880   6.689  0.1744 -0.6488 -0.6139
  172DOPC   H8X21006   2.845   3.898   6.708  0.4682 -1.0831 -1.7794
  172DOPC   H8Y21007   2.695   3.811   6.765 -0.1619  0.8494  0.6197
  172DOPC   C3921008   2.654   4.006   6.720  0.5978 -0.6325  0.4584
  172DOPC   H9X21009   2.683   4.099   6.669 -3.1630 -0.0917 -1.0706
  172DOPC  C31021010   2.547   4.017   6.800  0.0047  0.3274 -0.5595
  172DOPC  H10X21011   2.495   4.113   6.814 -2.4036 -1.2457  2.8372
  172DOPC  C31121012   2.483   3.907   6.880  0.2497  0.0612 -0.4468
  172DOPC  H11X21013   2.513   3.804   6.851  2.3007  0.3096  0.5544
  172DOPC  H11Y21014   2.373   3.918   6.877  0.3859  2.4225  0.8465
  172DOPC  C31221015   2.536   3.904   7.022 -1.1247  0.1456  0.4673
  172DOPC  H12X21016   2.479   3.977   7.084  0.0430  1.8037 -0.3321
  172DOPC  H12Y21017   2.643   3.923   7.046 -0.9392 -1.0390  0.6434
  172DOPC  C31321018   2.511   3.765   7.090 -0.6292 -0.9481 -0.0022
  172DOPC  H13X21019   2.415   3.728   7.051 -1.6680  1.0395  0.5089
  172DOPC  H13Y21020   2.586   3.689   7.059  0.3368 -0.2279  0.4878
  172DOPC  C31421021   2.518   3.767   7.242 -0.5115 -0.3826  0.4432
  172DOPC  H14X21022   2.620   3.729   7.263 -0.3309  0.9502  2.1197
  172DOPC  H14Y21023   2.504   3.874   7.268  1.3487  0.5021 -1.7289
  172DOPC  C31521024   2.404   3.674   7.290 -0.9521 -0.3305 -0.1943
  172DOPC  H15X21025   2.418   3.576   7.241  0.3992  0.0943 -0.7157
  172DOPC  H15Y21026   2.300   3.702   7.263 -1.9182 -1.3592  2.1650
  172DOPC  C31621027   2.396   3.648   7.438 -0.0120 -0.3226 -0.3419
  172DOPC  H16X21028   2.479   3.591   7.484  1.7651  1.4736 -1.1315
  172DOPC  H16Y21029   2.399   3.741   7.499  1.5082 -0.5755  0.0270
  172DOPC  C31721030   2.268   3.573   7.464  1.2089  0.1859 -0.3246
  172DOPC  H17X21031   2.246   3.582   7.572  0.5614  2.0333 -0.5699
  172DOPC  H17Y21032   2.186   3.634   7.419  1.3154 -0.4357 -1.4070
  172DOPC  C31821033   2.259   3.427   7.419 -0.1663 -0.3624  0.4445
  172DOPC  H18X21034   2.322   3.354   7.475  1.1227  0.5027  0.1671
  172DOPC  H18Y21035   2.157   3.388   7.436 -0.1869 -0.9675 -0.9443
  172DOPC  H18Z21036   2.265   3.412   7.310  0.7493 -0.7809  0.5381
  173DOPC     N21037   1.261   2.271   4.708  0.0457 -0.0329  0.3355
  173DOPC   C1221038   1.112   2.278   4.706  0.1661 -0.2444  0.3551
  173DOPC  H12A21039   1.080   2.308   4.805 -0.2391  1.4203 -0.2449
  173DOPC  H12B21040   1.088   2.173   4.695  1.6245 -0.5752  0.1864
  173DOPC   C1321041   1.307   2.196   4.831 -0.0565  0.7207  0.8607
  173DOPC  H13A21042   1.414   2.182   4.824  0.0926  0.8754  2.4633
  173DOPC  H13B21043   1.297   2.242   4.927 -2.7856 -3.6030  2.9771
  173DOPC  H13C21044   1.267   2.096   4.842  0.2524  0.4941  0.0663
  173DOPC   C1421045   1.323   2.409   4.717  0.1553  0.7005  0.4438
  173DOPC  H14A21046   1.290   2.468   4.633 -1.8406  0.4178  0.9834
  173DOPC  H14B21047   1.281   2.465   4.799  0.7408 -0.6960  1.7530
  173DOPC  H14C21048   1.429   2.398   4.734  0.4217 -1.0844 -1.9118
  173DOPC   C1521049   1.317   2.203   4.592 -0.0048  0.1926  0.4308
  173DOPC  H15A21050   1.412   2.155   4.613  0.1377  0.5103  0.5230
  173DOPC  H15B21051   1.338   2.271   4.512  1.4883  1.1086  1.5354
  173DOPC  H15C21052   1.247   2.127   4.561 -2.6773  1.4408  2.8919
  173DOPC   C1121053   1.048   2.366   4.602 -0.4667  0.0187  0.5145
  173DOPC  H11A21054   1.104   2.462   4.601  0.0856 -0.3072  0.2592
  173DOPC  H11B21055   1.069   2.316   4.506 -0.2612  1.2181 -0.0848
  173DOPC     P21056   0.871   2.474   4.756 -0.0084 -0.4463 -0.1704
  173DOPC   O1321057   0.780   2.399   4.841  1.0123 -0.7693  0.0944
  173DOPC   O1421058   0.825   2.607   4.705 -0.0796  0.0322 -0.1889
  173DOPC   O1221059   0.913   2.386   4.633 -0.0630 -0.2227 -0.8315
  173DOPC   O1121060   1.002   2.495   4.842  0.5482 -0.2101 -0.0008
  173DOPC    C121061   1.004   2.599   4.936  0.2185 -0.3151 -0.2238
  173DOPC    HA21062   0.910   2.624   4.989  1.0679  0.2834  1.0398
  173DOPC    HB21063   1.032   2.692   4.882  0.5200  0.2582  0.8948
  173DOPC    C221064   1.103   2.572   5.053  1.1461 -0.4144 -0.4224
  173DOPC    HS21065   1.205   2.549   5.016  1.9221  0.7309  0.9164
  173DOPC   O2121066   1.049   2.469   5.141  0.2805 -0.1601 -0.0834
  173DOPC   C2121067   1.121   2.351   5.144 -0.4751  0.0277 -0.2678
  173DOPC   O2221068   1.225   2.334   5.083 -0.0034  0.1220  0.7686
  173DOPC   C2221069   1.048   2.258   5.238 -0.0412 -0.7895  0.2590
  173DOPC   H2R21070   1.033   2.168   5.176  0.1497 -0.0425 -0.9118
  173DOPC   H2S21071   0.951   2.303   5.266  1.1154  0.8046  1.9988
  173DOPC    C321072   1.132   2.695   5.147  0.0223 -0.3879 -0.1467
  173DOPC    HX21073   1.154   2.787   5.090  1.7298 -0.8744 -0.3448
  173DOPC    HY21074   1.227   2.672   5.201  0.3914  1.8311  0.2262
  173DOPC   O3121075   1.016   2.718   5.225 -0.0385 -0.2707 -0.3370
  173DOPC   C3121076   1.032   2.703   5.356  0.5434  0.4679 -0.4923
  173DOPC   O3221077   1.138   2.682   5.412 -0.1142 -0.0563  0.0585
  173DOPC   C3221078   0.908   2.690   5.428  0.2718 -0.0209 -0.1334
  173DOPC   H2X21079   0.854   2.787   5.421  0.3340  0.0369  0.1772
  173DOPC   H2Y21080   0.837   2.621   5.377  0.9046 -1.6583  1.1203
  173DOPC   C2321081   1.128   2.234   5.367  0.4742 -0.1512  0.4758
  173DOPC   H3R21082   1.235   2.205   5.351  0.7974  0.0771  2.0456
  173DOPC   H3S21083   1.089   2.161   5.440 -0.0320 -1.3677 -0.9685
  173DOPC   C2421084   1.129   2.360   5.455 -0.2039  0.0758  0.3768
  173DOPC   H4R21085   1.030   2.407   5.476  0.1527  1.3064 -0.5389
  173DOPC   H4S21086   1.194   2.433   5.402 -1.5095  0.3536 -0.9319
  173DOPC   C2521087   1.211   2.337   5.587 -0.3178  0.1567  0.1106
  173DOPC   H5R21088   1.317   2.319   5.558 -0.9262 -1.3498 -1.4002
  173DOPC   H5S21089   1.172   2.249   5.643  0.7448  0.2772  1.1001
  173DOPC   C2621090   1.199   2.464   5.666 -0.1993  0.8077 -0.5560
  173DOPC   H6R21091   1.095   2.461   5.705  0.4262  0.9431  1.2054
  173DOPC   H6S21092   1.210   2.552   5.599 -0.2166 -0.1445 -1.8509
  173DOPC   C2721093   1.298   2.474   5.789  0.3006 -0.4198 -0.3868
  173DOPC   H7R21094   1.401   2.497   5.753  0.4271  0.5792  0.5769
  173DOPC   H7S21095   1.293   2.374   5.837 -1.2766 -0.0096  0.3707
  173DOPC   C2821096   1.267   2.589   5.887 -0.2508 -0.2723 -0.0789
  173DOPC   H8R21097   1.273   2.687   5.835 -0.4500 -1.1013 -1.7365
  173DOPC   H8S21098   1.346   2.584   5.966 -1.6767  1.9563  1.5911
  173DOPC   C2921099   1.130   2.580   5.945  0.0078 -0.3243 -0.6994
  173DOPC   H9R21100   1.080   2.483   5.929  0.7804 -0.9301  0.4618
  173DOPC  C21021101   1.052   2.679   6.002  0.5975  0.2155 -0.3368
  173DOPC  H10R21102   0.954   2.654   6.045 -0.7749  0.4725 -3.1074
  173DOPC  C21121103   1.094   2.815   6.033 -0.1750 -0.5518 -0.6392
  173DOPC  H11R21104   1.064   2.888   5.955 -2.0171  0.3986  0.8743
  173DOPC  H11S21105   1.205   2.820   6.037 -0.2661  1.1406  0.7422
  173DOPC  C21221106   1.039   2.855   6.173 -0.3822 -0.3356  0.3669
  173DOPC  H12R21107   0.928   2.849   6.176 -0.4513 -0.5434 -1.4887
  173DOPC  H12S21108   1.073   2.960   6.188 -0.9969  0.1333 -1.2690
  173DOPC  C21321109   1.090   2.759   6.292 -0.1949 -0.1450  0.7604
  173DOPC  H13R21110   1.201   2.767   6.296 -0.2792  0.8950  1.2539
  173DOPC  H13S21111   1.059   2.655   6.270  0.0989 -0.2604  0.8854
  173DOPC  C21421112   1.022   2.787   6.426  0.3722 -0.0091  0.3752
  173DOPC  H14R21113   0.918   2.752   6.411  0.2399  1.3639 -2.6343
  173DOPC  H14S21114   1.022   2.896   6.444 -1.4968  0.3299 -1.2965
  173DOPC  C21521115   1.079   2.707   6.540 -0.1034 -0.6623 -0.1250
  173DOPC  H15R21116   1.189   2.710   6.531  0.3135 -1.9771  3.0271
  173DOPC  H15S21117   1.050   2.600   6.532  1.1806 -1.2360  2.1363
  173DOPC  C21621118   1.037   2.773   6.673  0.3273  0.6608  0.1215
  173DOPC  H16R21119   0.929   2.789   6.691  0.1049 -0.2553 -0.3065
  173DOPC  H16S21120   1.093   2.868   6.680  1.0310  0.2161  0.6796
  173DOPC  C21721121   1.072   2.683   6.794 -0.2144 -0.0162  0.0506
  173DOPC  H17R21122   1.182   2.667   6.804  0.2329  2.2100 -0.6174
  173DOPC  H17S21123   1.016   2.588   6.783  0.4783 -0.5764  1.1254
  173DOPC  C21821124   1.031   2.740   6.932 -0.1208  1.0288 -0.7395
  173DOPC  H18R21125   0.925   2.773   6.927 -1.8082 -3.5656 -0.2435
  173DOPC  H18S21126   1.087   2.833   6.954 -0.5656  1.3501 -0.9421
  173DOPC  H18T21127   1.053   2.674   7.019  0.6691  0.4263 -1.3798
  173DOPC   C3321128   0.902   2.660   5.582  0.7604  0.5433 -0.1468
  173DOPC   H3X21129   0.982   2.713   5.639 -1.0631  2.8647  0.3823
  173DOPC   H3Y21130   0.906   2.553   5.613  0.6460  0.8383  0.9419
  173DOPC   C3421131   0.763   2.690   5.639  0.5895 -1.1069  0.1485
  173DOPC   H4X21132   0.679   2.661   5.571  0.5500  0.3895 -0.4665
  173DOPC   H4Y21133   0.759   2.800   5.648  0.7053 -1.2445  2.2993
  173DOPC   C3521134   0.738   2.625   5.777 -0.3451  0.4839 -0.2714
  173DOPC   H5X21135   0.827   2.649   5.840 -0.9265 -1.0584  1.1748
  173DOPC   H5Y21136   0.736   2.514   5.774  0.2947  0.3001  2.7956
  173DOPC   C3621137   0.614   2.680   5.849 -0.2666  0.1070 -0.2730
  173DOPC   H6X21138   0.615   2.787   5.879 -1.9917  0.1041 -0.1255
  173DOPC   H6Y21139   0.535   2.694   5.771  0.7608  0.7061 -1.2463
  173DOPC   C3721140   0.567   2.585   5.961 -0.0219  0.4098  0.2952
  173DOPC   H7X21141   0.466   2.600   6.004  0.4775  1.1983  1.2187
  173DOPC   H7Y21142   0.558   2.483   5.918 -0.3275  0.1124  1.0566
  173DOPC   C3821143   0.662   2.579   6.083 -0.1322 -0.3024 -0.5589
  173DOPC   H8X21144   0.766   2.555   6.052  1.3523  0.7657  3.0615
  173DOPC   H8Y21145   0.634   2.488   6.140  3.2822 -0.7360  0.6308
  173DOPC   C3921146   0.654   2.708   6.161  0.4003  0.0831 -0.4389
  173DOPC   H9X21147   0.688   2.791   6.097 -2.8791  1.5650 -0.4181
  173DOPC  C31021148   0.626   2.733   6.292 -0.3236 -0.1354 -0.2243
  173DOPC  H10X21149   0.617   2.840   6.315  1.7046  0.2703 -1.0958
  173DOPC  C31121150   0.608   2.627   6.401  0.7691  0.5105 -0.4909
  173DOPC  H11X21151   0.605   2.522   6.365 -0.8290  0.7769 -1.2658
  173DOPC  H11Y21152   0.500   2.643   6.423  0.5468 -1.7256  0.2860
  173DOPC  C31221153   0.680   2.632   6.538 -0.0049 -0.1596 -1.1662
  173DOPC  H12X21154   0.703   2.737   6.564 -1.5110  0.1188 -0.8717
  173DOPC  H12Y21155   0.772   2.570   6.534  1.1867  1.2375  1.5950
  173DOPC  C31321156   0.601   2.569   6.653 -0.2026  0.1795 -0.2406
  173DOPC  H13X21157   0.509   2.629   6.670  0.0344  0.6717 -0.6560
  173DOPC  H13Y21158   0.567   2.466   6.632  1.3365 -0.4152  0.0939
  173DOPC  C31421159   0.676   2.568   6.783  0.2783  0.0348  0.1400
  173DOPC  H14X21160   0.722   2.467   6.794 -0.3764 -0.3211 -0.3326
  173DOPC  H14Y21161   0.763   2.637   6.784 -0.4499  1.0423 -1.7759
  173DOPC  C31521162   0.586   2.593   6.906 -0.1699  0.6274  0.1405
  173DOPC  H15X21163   0.496   2.528   6.908  0.3500 -0.0854  1.1233
  173DOPC  H15Y21164   0.547   2.698   6.906  1.7360  1.3795  0.4873
  173DOPC  C31621165   0.655   2.558   7.042 -0.5731 -0.7243  0.2070
  173DOPC  H16X21166   0.683   2.450   7.042 -1.3129 -0.9441 -1.8022
  173DOPC  H16Y21167   0.746   2.621   7.052 -1.5146  0.7466 -0.2564
  173DOPC  C31721168   0.556   2.576   7.158  0.2519 -0.1759 -0.3008
  173DOPC  H17X21169   0.518   2.680   7.168 -0.5259 -0.3951 -0.8834
  173DOPC  H17Y21170   0.466   2.510   7.153  1.1021 -1.4309  0.3893
  173DOPC  C31821171   0.618   2.552   7.295  0.1893 -0.0191 -0.2652
  173DOPC  H18X21172   0.707   2.612   7.324 -0.0731 -0.4702  1.6542
  173DOPC  H18Y21173   0.545   2.575   7.377 -0.5096  2.1267 -1.4073
  173DOPC  H18Z21174   0.643   2.446   7.315  1.3435 -0.0463 -1.6992
  174DOPC     N21175   4.552   2.492   5.173 -0.7281  0.1662  0.9710
  174DOPC   C1221176   4.473   2.361   5.166  0.5783 -0.1922  0.1909
  174DOPC  H12A21177   4.416   2.336   5.078  0.7180 -2.4140  0.6884
  174DOPC  H12B21178   4.399   2.378   5.243 -1.2916 -1.6518 -1.2012
  174DOPC   C1321179   4.654   2.478   5.070 -0.2767  0.7166  0.5462
  174DOPC  H13A21180   4.709   2.385   5.069  1.5881  1.7799  0.0188
  174DOPC  H13B21181   4.614   2.493   4.971 -1.0373 -0.4676  0.6560
  174DOPC  H13C21182   4.728   2.555   5.084 -1.1967  1.7814 -0.2831
  174DOPC   C1421183   4.616   2.496   5.302 -0.5805  0.4285  0.0590
  174DOPC  H14A21184   4.675   2.406   5.317  0.1931  0.9617  0.2375
  174DOPC  H14B21185   4.677   2.582   5.324 -1.9362  1.6569 -0.7856
  174DOPC  H14C21186   4.548   2.496   5.386 -0.5289 -2.2693  0.1888
  174DOPC   C1521187   4.469   2.612   5.160  0.4187  0.4837  0.1042
  174DOPC  H15A21188   4.528   2.701   5.172 -0.8322  1.6970 -2.1333
  174DOPC  H15B21189   4.391   2.600   5.234  2.0434  1.1572  2.0031
  174DOPC  H15C21190   4.420   2.619   5.064  0.6583 -1.6878 -0.2433
  174DOPC   C1121191   4.537   2.221   5.199 -0.0410  0.0531  0.1415
  174DOPC  H11A21192   4.541   2.208   5.310  0.8072 -0.4734  0.0623
  174DOPC  H11B21193   4.483   2.135   5.154 -0.9197  0.3045  0.6923
  174DOPC     P21194   4.796   2.153   5.216 -0.1724 -0.2941  0.3513
  174DOPC   O1321195   4.908   2.165   5.124  0.3378 -0.6386 -0.4655
  174DOPC   O1421196   4.764   2.016   5.270  0.1921  0.2856 -0.0812
  174DOPC   O1221197   4.666   2.211   5.141 -0.8170  0.4403  0.4067
  174DOPC   O1121198   4.814   2.257   5.333  0.2451  0.3144 -0.2157
  174DOPC    C121199   4.922   2.243   5.425  0.6876 -1.0931 -1.1910
  174DOPC    HA21200   4.956   2.340   5.465  0.9260 -1.1007 -1.3747
  174DOPC    HB21201   5.010   2.187   5.387  3.1239  1.9862 -0.4495
  174DOPC    C221202   4.876   2.156   5.551  0.0967 -0.0460 -0.5699
  174DOPC    HS21203   4.788   2.093   5.524 -0.6702  0.7259  0.0716
  174DOPC   O2121204   4.848   2.249   5.654 -0.3121  0.5209  0.1302
  174DOPC   C2121205   4.729   2.312   5.656 -0.8454 -0.6961 -0.0792
  174DOPC   O2221206   4.646   2.306   5.572  0.5446  0.0589  0.3906
  174DOPC   C2221207   4.718   2.391   5.782  0.1595 -0.6581  0.0676
  174DOPC   H2R21208   4.612   2.416   5.801 -0.4309 -1.8741 -1.4168
  174DOPC   H2S21209   4.773   2.484   5.756  0.0633 -0.5833  0.1322
  174DOPC    C321210   4.998   2.063   5.604 -0.1828 -0.7391  0.2618
  174DOPC    HX21211   5.096   2.115   5.593 -0.7493  0.8395  2.0711
  174DOPC    HY21212   4.991   1.977   5.534 -2.0669  0.2079 -0.8215
  174DOPC   O3121213   4.988   2.019   5.747  0.2468 -0.2071 -0.2120
  174DOPC   C3121214   4.883   1.938   5.769  0.1808 -0.6222 -0.2648
  174DOPC   O3221215   4.803   1.894   5.688  0.5754 -0.8308 -0.8054
  174DOPC   C3221216   4.856   1.914   5.924  0.0915  0.8717 -0.5965
  174DOPC   H2X21217   4.747   1.931   5.932 -0.1964 -1.0463  0.1128
  174DOPC   H2Y21218   4.874   1.807   5.948 -0.7867  0.5280 -1.3831
  174DOPC   C2321219   4.774   2.325   5.912  0.3429 -0.1653 -0.0046
  174DOPC   H3R21220   4.878   2.294   5.886  0.2836  1.3833 -2.3464
  174DOPC   H3S21221   4.703   2.243   5.936  0.5525  0.5491  3.7172
  174DOPC   C2421222   4.784   2.414   6.029  0.9533 -0.0822 -0.7955
  174DOPC   H4R21223   4.835   2.509   6.003  0.7819  0.8621  1.9555
  174DOPC   H4S21224   4.845   2.357   6.102 -1.0534 -2.2488 -0.7160
  174DOPC   C2521225   4.644   2.431   6.086  0.0919  0.0349 -1.2792
  174DOPC   H5R21226   4.615   2.328   6.114  0.8109  0.6403  2.2731
  174DOPC   H5S21227   4.572   2.464   6.008 -1.7136 -0.7125  0.0042
  174DOPC   C2621228   4.628   2.517   6.215  0.5572  0.5182 -0.6201
  174DOPC   H6R21229   4.519   2.516   6.237  0.0626  0.0239 -2.8159
  174DOPC   H6S21230   4.659   2.623   6.201 -1.4307  1.7076  2.7830
  174DOPC   C2721231   4.710   2.469   6.334  0.6993  0.3052  0.5146
  174DOPC   H7R21232   4.708   2.544   6.416 -0.1188  2.1032 -1.0612
  174DOPC   H7S21233   4.815   2.463   6.297  0.0418  0.8957 -1.5645
  174DOPC   C2821234   4.673   2.328   6.392 -0.0000 -0.6255  0.0488
  174DOPC   H8R21235   4.671   2.239   6.325  0.6411 -0.9591  0.4703
  174DOPC   H8S21236   4.569   2.326   6.432 -0.8096  0.1767 -1.8663
  174DOPC   C2921237   4.777   2.305   6.506 -0.1741  0.5412 -0.0940
  174DOPC   H9R21238   4.880   2.301   6.467 -0.4001 -2.7923 -0.6249
  174DOPC  C21021239   4.756   2.293   6.636 -0.3157 -0.0164  0.1540
  174DOPC  H10R21240   4.837   2.259   6.703 -0.4286 -2.3861 -0.8038
  174DOPC  C21121241   4.623   2.309   6.706  0.4106 -0.2048  1.1002
  174DOPC  H11R21242   4.551   2.225   6.691  0.4624 -0.1232  0.3274
  174DOPC  H11S21243   4.556   2.388   6.666 -2.7427 -1.9405  2.6151
  174DOPC  C21221244   4.634   2.317   6.854 -0.4709 -0.0208  0.2138
  174DOPC  H12R21245   4.689   2.412   6.869 -0.9095  0.0562  1.3900
  174DOPC  H12S21246   4.686   2.234   6.906 -0.8772 -0.5825 -0.2550
  174DOPC  C21321247   4.505   2.339   6.932  0.7994 -0.5107 -0.1749
  174DOPC  H13R21248   4.442   2.247   6.930 -0.9426  0.6095  1.0474
  174DOPC  H13S21249   4.460   2.426   6.881 -0.3483 -1.1623 -0.3062
  174DOPC  C21421250   4.528   2.371   7.079 -0.3465 -0.4503 -0.0290
  174DOPC  H14R21251   4.580   2.469   7.080 -1.9283  0.4205  0.9566
  174DOPC  H14S21252   4.592   2.301   7.137 -0.8703 -2.1533 -1.3982
  174DOPC  C21521253   4.403   2.417   7.165 -0.3256  0.9065  0.3691
  174DOPC  H15R21254   4.361   2.513   7.127 -1.7011  0.3405  0.3974
  174DOPC  H15S21255   4.438   2.439   7.268 -0.1325 -0.0564  0.5144
  174DOPC  C21621256   4.287   2.319   7.164 -0.4709 -0.0030  0.4124
  174DOPC  H16R21257   4.315   2.217   7.196 -0.3298  0.1112  0.6507
  174DOPC  H16S21258   4.253   2.317   7.058  3.3997 -1.5049 -0.9662
  174DOPC  C21721259   4.172   2.351   7.260  0.3749 -0.0852 -0.2995
  174DOPC  H17R21260   4.145   2.457   7.244  1.8984  0.4806  0.6546
  174DOPC  H17S21261   4.210   2.328   7.362 -0.3080 -0.9987 -0.2385
  174DOPC  C21821262   4.049   2.265   7.242 -0.2112  0.1218  0.4249
  174DOPC  H18R21263   4.077   2.163   7.276 -0.0072  0.4987  1.4234
  174DOPC  H18S21264   4.009   2.252   7.140  0.0025 -2.0645  0.5828
  174DOPC  H18T21265   3.974   2.301   7.316 -2.5075 -1.8475 -0.8015
  174DOPC   C3321266   4.937   2.010   6.022  0.5716 -0.6477  0.1949
  174DOPC   H3X21267   4.914   2.112   5.984 -4.2265 -2.2717 -1.9761
  174DOPC   H3Y21268   5.046   1.995   6.005  0.3841 -1.1064 -0.6105
  174DOPC   C3421269   4.885   2.009   6.161  0.1582 -0.2300  0.9543
  174DOPC   H4X21270   4.858   1.907   6.197  1.3132 -0.4556  1.2166
  174DOPC   H4Y21271   4.795   2.072   6.173 -0.5101 -1.0111  0.1493
  174DOPC   C3521272   4.997   2.064   6.253  0.4701  0.2254 -0.3705
  174DOPC   H5X21273   5.008   2.174   6.244  0.1118  0.3706  0.8413
  174DOPC   H5Y21274   5.091   2.016   6.218  0.1425 -1.3049  0.7196
  174DOPC   C3621275   4.965   2.024   6.396 -0.0251 -0.7244 -0.4221
  174DOPC   H6X21276   4.869   2.070   6.429  0.7320  0.1465  0.6456
  174DOPC   H6Y21277   4.957   1.913   6.404 -0.0746 -0.9736 -3.0469
  174DOPC   C3721278   5.074   2.066   6.496 -0.1258 -0.0518  0.5596
  174DOPC   H7X21279   5.174   2.039   6.455 -1.9952 -2.0189 -3.2475
  174DOPC   H7Y21280   5.058   2.175   6.502 -1.4809 -0.0615 -1.6823
  174DOPC   C3821281   5.065   1.991   6.631 -0.4385  0.3144  0.6164
  174DOPC   H8X21282   5.120   2.054   6.705  1.6616  1.9747 -2.1497
  174DOPC   H8Y21283   5.113   1.892   6.636 -0.6158  0.2873  2.5866
  174DOPC   C3921284   4.926   1.985   6.692  0.6654  0.2982 -0.6598
  174DOPC   H9X21285   4.847   2.032   6.631 -1.5325 -0.5380  1.3701
  174DOPC  C31021286   4.897   1.931   6.813  0.2717  0.4881  0.2307
  174DOPC  H10X21287   4.790   1.924   6.839 -0.0555 -0.0096 -1.1848
  174DOPC  C31121288   4.987   1.875   6.918 -0.5428  0.1038 -0.0326
  174DOPC  H11X21289   5.088   1.855   6.876 -1.4854 -1.0051 -1.8999
  174DOPC  H11Y21290   4.944   1.777   6.943  0.4428 -0.0061  1.3616
  174DOPC  C31221291   5.000   1.964   7.045 -0.3195 -0.5117 -0.6861
  174DOPC  H12X21292   5.058   2.058   7.032 -0.5975 -0.2483 -0.0695
  174DOPC  H12Y21293   5.069   1.911   7.114  1.5605 -2.4990 -3.8512
  174DOPC  C31321294   4.878   1.985   7.133  0.2143 -0.0301  0.2083
  174DOPC  H13X21295   4.801   2.038   7.072  0.2270 -0.4124 -0.1455
  174DOPC  H13Y21296   4.830   1.886   7.148 -2.7808  1.1425 -0.8284
  174DOPC  C31421297   4.895   2.043   7.276 -0.3799  0.2299 -0.8067
  174DOPC  H14X21298   4.954   2.136   7.264 -0.9895  0.3740 -3.0086
  174DOPC  H14Y21299   4.795   2.076   7.310 -0.4690 -1.2072  0.4448
  174DOPC  C31521300   4.956   1.942   7.377 -0.3161 -0.4000  0.5339
  174DOPC  H15X21301   4.956   1.986   7.479 -2.8109 -1.1899  0.9453
  174DOPC  H15Y21302   5.063   1.932   7.352 -0.0618  0.0995  1.4007
  174DOPC  C31621303   4.893   1.799   7.387  0.3099  0.0974 -1.0458
  174DOPC  H16X21304   4.785   1.799   7.409 -0.5160 -0.7410 -4.5220
  174DOPC  H16Y21305   4.914   1.753   7.288  1.5346 -0.9085 -0.3575
  174DOPC  C31721306   4.966   1.726   7.502  0.0734 -0.1878  0.9094
  174DOPC  H17X21307   5.077   1.731   7.489 -0.0660  2.2535  0.1264
  174DOPC  H17Y21308   4.947   1.779   7.598 -0.8914 -1.1698  1.2752
  174DOPC  C31821309   4.913   1.582   7.522  0.3288  0.0285 -0.3101
  174DOPC  H18X21310   4.806   1.584   7.551  0.3136 -0.9042 -0.2778
  174DOPC  H18Y21311   4.925   1.513   7.437 -1.7373 -1.6704  0.6753
  174DOPC  H18Z21312   4.962   1.527   7.605 -1.8425 -1.7749 -0.1273
  175DOPC     N21313   2.477   5.819   4.240  0.0689  0.8005  0.2644
  175DOPC   C1221314   2.522   5.904   4.359  0.6373 -0.3213 -0.3653
  175DOPC  H12A21315   2.432   5.959   4.383 -0.4572 -1.9404 -0.5971
  175DOPC  H12B21316   2.603   5.967   4.324  1.4839 -0.9624  0.4132
  175DOPC   C1321317   2.354   5.738   4.276 -0.1108  0.0825  0.4828
  175DOPC  H13A21318   2.377   5.667   4.355  2.9511  0.0492 -0.3250
  175DOPC  H13B21319   2.263   5.795   4.286 -0.3728 -0.3419  0.5118
  175DOPC  H13C21320   2.338   5.671   4.193  0.1470  0.9083 -0.2505
  175DOPC   C1421321   2.579   5.726   4.203  0.6286  0.2276  0.3964
  175DOPC  H14A21322   2.664   5.779   4.164 -0.6852  1.6700 -0.6616
  175DOPC  H14B21323   2.605   5.668   4.290  1.3568 -0.3631 -0.1966
  175DOPC  H14C21324   2.538   5.658   4.129 -2.9851 -0.8018  3.0604
  175DOPC   C1521325   2.444   5.920   4.130 -0.1984  0.3672  0.2042
  175DOPC  H15A21326   2.409   5.875   4.038  0.6992 -2.6494  1.2102
  175DOPC  H15B21327   2.538   5.962   4.100 -0.0372 -1.7440 -2.6383
  175DOPC  H15C21328   2.370   5.990   4.164  0.4147  1.7021 -1.1044
  175DOPC   C1121329   2.571   5.834   4.489 -0.5374 -0.1836 -0.1486
  175DOPC  H11A21330   2.573   5.906   4.573 -0.5859 -1.7418  1.2425
  175DOPC  H11B21331   2.497   5.754   4.511 -0.0222 -0.8604 -0.8158
  175DOPC     P21332   2.741   5.638   4.508  0.4171  0.1053 -0.2009
  175DOPC   O1321333   2.886   5.614   4.497 -0.6247 -0.6733  0.3924
  175DOPC   O1421334   2.661   5.544   4.425  0.4924 -0.0030  0.5061
  175DOPC   O1221335   2.706   5.783   4.466  1.1364  0.1546  0.4403
  175DOPC   O1121336   2.702   5.625   4.657  0.5060 -0.6264  0.0446
  175DOPC    C121337   2.568   5.587   4.700 -0.2620 -0.0119  0.0076
  175DOPC    HA21338   2.512   5.533   4.621 -0.2660  1.9472 -1.4171
  175DOPC    HB21339   2.502   5.674   4.720 -1.9597 -1.5986  1.6847
  175DOPC    C221340   2.569   5.507   4.827 -0.1884  0.3578 -0.0213
  175DOPC    HS21341   2.462   5.493   4.855 -0.2935  0.2682 -0.4566
  175DOPC   O2121342   2.642   5.586   4.923 -0.6566  0.1283  0.2810
  175DOPC   C2121343   2.602   5.564   5.043 -1.5638 -0.4051  0.0615
  175DOPC   O2221344   2.506   5.505   5.081  0.3134 -0.1097  0.5601
  175DOPC   C2221345   2.705   5.632   5.138  0.8323  0.1591  0.5582
  175DOPC   H2R21346   2.737   5.735   5.115  0.6984  0.1433  0.3004
  175DOPC   H2S21347   2.794   5.567   5.150  0.8895  0.1106 -0.1106
  175DOPC    C321348   2.631   5.357   4.809 -0.0255  0.2970 -0.4736
  175DOPC    HX21349   2.731   5.366   4.760  1.1120 -3.4216  0.8552
  175DOPC    HY21350   2.570   5.302   4.735  2.0339 -0.5296 -1.6254
  175DOPC   O3121351   2.641   5.284   4.941 -0.0113 -0.8290 -0.5487
  175DOPC   C3121352   2.762   5.246   4.979 -0.2121 -0.0913 -0.4300
  175DOPC   O3221353   2.864   5.273   4.916  0.6599 -0.7447 -0.2327
  175DOPC   C3221354   2.755   5.167   5.106  0.9136 -0.1841 -0.4982
  175DOPC   H2X21355   2.709   5.222   5.191  0.7363 -1.1006  0.0240
  175DOPC   H2Y21356   2.688   5.080   5.089 -1.1987  0.8631  1.7449
  175DOPC   C2321357   2.646   5.640   5.287  0.7435  0.6254  0.3844
  175DOPC   H3R21358   2.609   5.538   5.310 -1.1253  1.3039  0.6161
  175DOPC   H3S21359   2.551   5.698   5.289 -1.1983 -2.3456  0.9269
  175DOPC   C2421360   2.740   5.697   5.392  0.9507 -0.3252  0.7393
  175DOPC   H4R21361   2.758   5.802   5.360 -0.2909  0.0160  1.1208
  175DOPC   H4S21362   2.838   5.645   5.388  1.1920  0.1124  0.9082
  175DOPC   C2521363   2.681   5.685   5.532  0.1111  1.0411  0.7434
  175DOPC   H5R21364   2.575   5.720   5.531 -0.1384  0.2945  0.6396
  175DOPC   H5S21365   2.743   5.750   5.598 -1.2801  1.4853  1.6746
  175DOPC   C2621366   2.691   5.541   5.584 -0.2957  0.8295  0.4253
  175DOPC   H6R21367   2.791   5.506   5.550 -0.4048  0.9626 -0.0419
  175DOPC   H6S21368   2.607   5.479   5.545 -1.9271  1.1052  3.2464
  175DOPC   C2721369   2.684   5.531   5.733 -0.3125 -0.0627 -0.0472
  175DOPC   H7R21370   2.579   5.558   5.759 -1.7836 -3.9887 -1.1875
  175DOPC   H7S21371   2.747   5.606   5.785 -0.6465 -1.3181  2.2966
  175DOPC   C2821372   2.718   5.388   5.791 -0.0485 -0.0018  0.2057
  175DOPC   H8R21373   2.828   5.377   5.796  0.0627  0.5141 -0.7447
  175DOPC   H8S21374   2.671   5.317   5.719 -0.4238  0.6826 -0.2386
  175DOPC   C2921375   2.644   5.370   5.922  0.0977 -0.2305  0.2487
  175DOPC   H9R21376   2.537   5.349   5.910 -0.2798  1.4064  0.4638
  175DOPC  C21021377   2.684   5.373   6.051 -0.6358 -0.0993  0.8635
  175DOPC  H10R21378   2.615   5.332   6.127 -1.5293  0.2559  0.2573
  175DOPC  C21121379   2.821   5.409   6.110  0.4895 -0.0475  0.2077
  175DOPC  H11R21380   2.832   5.520   6.115 -1.1213  0.1119  0.6814
  175DOPC  H11S21381   2.905   5.358   6.058  0.2011  0.7638 -1.1000
  175DOPC  C21221382   2.822   5.353   6.250 -0.7191 -0.0975 -0.3257
  175DOPC  H12R21383   2.924   5.348   6.293 -0.1833  1.9027 -1.2452
  175DOPC  H12S21384   2.781   5.250   6.242 -1.2099  0.1809 -1.5613
  175DOPC  C21321385   2.747   5.431   6.354  0.3217 -0.3985  0.7875
  175DOPC  H13R21386   2.638   5.409   6.354  0.1018  0.3745 -1.8147
  175DOPC  H13S21387   2.749   5.539   6.330 -1.3457 -0.3645  0.6540
  175DOPC  C21421388   2.812   5.426   6.494  0.7178 -0.9315  0.2380
  175DOPC  H14R21389   2.918   5.460   6.493  1.1258 -2.1612 -0.9953
  175DOPC  H14S21390   2.811   5.317   6.519 -0.3448 -0.3128  3.3571
  175DOPC  C21521391   2.732   5.509   6.588 -0.5246 -0.1882 -0.3568
  175DOPC  H15R21392   2.639   5.454   6.613 -0.2317 -0.2387  0.6671
  175DOPC  H15S21393   2.707   5.611   6.552 -0.5656  0.2453  0.8743
  175DOPC  C21621394   2.803   5.519   6.725  0.6701 -0.1359 -0.0625
  175DOPC  H16R21395   2.743   5.590   6.786 -1.4259 -2.6074  0.9518
  175DOPC  H16S21396   2.904   5.565   6.719  0.1947  1.4979  2.7019
  175DOPC  C21721397   2.822   5.378   6.796  0.1895 -0.4003 -0.7594
  175DOPC  H17R21398   2.897   5.314   6.746  0.3656  0.2134 -1.2897
  175DOPC  H17S21399   2.724   5.326   6.797 -0.0740  0.0935 -0.3306
  175DOPC  C21821400   2.877   5.380   6.943  0.0788  0.6640 -0.0645
  175DOPC  H18R21401   2.877   5.277   6.986  2.2147  1.2064  1.4195
  175DOPC  H18S21402   2.808   5.439   7.008 -0.5564 -0.4905  0.3530
  175DOPC  H18T21403   2.979   5.423   6.949  0.5014 -0.0157 -1.8010
  175DOPC   C3321404   2.891   5.124   5.157 -0.1594  0.3371 -0.0940
  175DOPC   H3X21405   2.964   5.097   5.077  0.5665  1.7682  0.0480
  175DOPC   H3Y21406   2.877   5.028   5.211  0.0090  0.2614 -0.1839
  175DOPC   C3421407   2.957   5.221   5.256 -0.7239  0.4449  0.8098
  175DOPC   H4X21408   3.002   5.309   5.204 -0.4649 -0.3556 -0.3662
  175DOPC   H4Y21409   3.035   5.164   5.311 -0.5374  2.4488  2.7466
  175DOPC   C3521410   2.885   5.277   5.381 -0.5511 -0.1057  0.4950
  175DOPC   H5X21411   2.823   5.193   5.418 -0.9115 -0.3105 -0.5299
  175DOPC   H5Y21412   2.817   5.363   5.364 -1.7665 -0.9317  1.0698
  175DOPC   C3621413   2.989   5.309   5.489  0.1890 -0.1814  0.0923
  175DOPC   H6X21414   2.942   5.323   5.589  3.1857 -0.5218  1.6524
  175DOPC   H6Y21415   3.060   5.227   5.513  0.1958 -0.9904 -2.3997
  175DOPC   C3721416   3.067   5.441   5.459 -0.0526  0.2013 -0.3103
  175DOPC   H7X21417   3.120   5.434   5.362  2.4372 -0.6954  1.0351
  175DOPC   H7Y21418   2.987   5.517   5.447 -1.6077 -1.3626 -0.3570
  175DOPC   C3821419   3.161   5.482   5.574 -0.8119  0.0515 -0.0916
  175DOPC   H8X21420   3.237   5.555   5.537 -0.8875  0.3543  0.3404
  175DOPC   H8Y21421   3.230   5.399   5.598  1.5795  0.7550 -3.5944
  175DOPC   C3921422   3.074   5.538   5.686  0.4974  0.1864  0.4809
  175DOPC   H9X21423   3.001   5.614   5.658  1.2681  0.4601 -0.8420
  175DOPC  C31021424   3.081   5.495   5.813 -0.2852 -0.4279 -0.2881
  175DOPC  H10X21425   3.010   5.537   5.885 -1.2038  0.6453 -1.7540
  175DOPC  C31121426   3.177   5.391   5.865  0.8175  0.0140  0.0483
  175DOPC  H11X21427   3.274   5.393   5.812  1.0806 -3.5815  0.1130
  175DOPC  H11Y21428   3.135   5.289   5.852  1.5094 -0.3558  0.6200
  175DOPC  C31221429   3.194   5.424   6.016  0.4966 -0.2574  0.2874
  175DOPC  H12X21430   3.098   5.443   6.068  0.1440  1.2838 -0.8459
  175DOPC  H12Y21431   3.256   5.516   6.016 -1.8603  1.4222 -0.2217
  175DOPC  C31321432   3.282   5.317   6.078 -0.1981 -0.3636 -0.2547
  175DOPC  H13X21433   3.218   5.226   6.077 -1.1248  0.2763 -0.5426
  175DOPC  H13Y21434   3.378   5.290   6.029  0.0877 -0.7142  0.4914
  175DOPC  C31421435   3.320   5.341   6.225 -0.8301  0.2599  0.2297
  175DOPC  H14X21436   3.402   5.274   6.259  0.8744  2.5216  0.8472
  175DOPC  H14Y21437   3.360   5.443   6.247  0.2899 -0.7548  3.6226
  175DOPC  C31521438   3.206   5.335   6.321  0.0533  0.5942 -1.0218
  175DOPC  H15X21439   3.142   5.250   6.290  0.3612  0.0945 -0.3169
  175DOPC  H15Y21440   3.144   5.425   6.298  2.8581  1.7310 -5.4315
  175DOPC  C31621441   3.241   5.328   6.467 -0.2786  0.0936 -0.4712
  175DOPC  H16X21442   3.160   5.287   6.531 -1.0215  1.6743 -0.3676
  175DOPC  H16Y21443   3.328   5.260   6.483  2.0099  2.8726 -0.4044
  175DOPC  C31721444   3.288   5.460   6.525  0.3139  0.2989  0.0183
  175DOPC  H17X21445   3.373   5.500   6.465  0.3852 -0.4428 -0.3851
  175DOPC  H17Y21446   3.205   5.531   6.502  0.7770  0.4207 -1.3821
  175DOPC  C31821447   3.323   5.451   6.671  0.4005 -0.2806  0.0691
  175DOPC  H18X21448   3.234   5.406   6.720 -0.7109 -0.3030 -1.8372
  175DOPC  H18Y21449   3.409   5.383   6.688  1.1899  0.4336 -0.9766
  175DOPC  H18Z21450   3.355   5.548   6.716  1.9726 -1.7341  2.2891
  176DOPC     N21451   2.982   2.341   4.594  0.1971  0.4149  0.3859
  176DOPC   C1221452   2.972   2.378   4.743 -0.4421  0.5351 -0.3691
  176DOPC  H12A21453   2.887   2.444   4.759 -1.1353 -0.5487  0.6044
  176DOPC  H12B21454   3.059   2.436   4.770 -0.2277 -0.4023  1.0060
  176DOPC   C1321455   2.975   2.458   4.506  0.8534 -0.7095  0.1568
  176DOPC  H13A21456   3.053   2.529   4.526  1.2598 -0.3970 -2.2088
  176DOPC  H13B21457   2.999   2.429   4.405  0.0546 -0.3331 -0.1542
  176DOPC  H13C21458   2.877   2.503   4.513  0.0999 -2.4247  1.3146
  176DOPC   C1421459   2.860   2.254   4.553 -0.5014  0.1505 -0.0249
  176DOPC  H14A21460   2.865   2.233   4.447  0.6287  3.3744 -0.7281
  176DOPC  H14B21461   2.861   2.157   4.602 -1.0940  0.5435  0.7890
  176DOPC  H14C21462   2.769   2.299   4.588  0.5110  2.7050 -0.4458
  176DOPC   C1521463   3.104   2.254   4.564  0.2220 -0.2008  1.0731
  176DOPC  H15A21464   3.117   2.259   4.457 -1.1135  0.1413  0.9050
  176DOPC  H15B21465   3.088   2.151   4.596  1.5635 -0.6571  0.3227
  176DOPC  H15C21466   3.191   2.290   4.616  2.7278 -4.6669  0.4534
  176DOPC   C1121467   2.969   2.264   4.845  0.2985 -0.3869 -0.3343
  176DOPC  H11A21468   3.073   2.231   4.862  0.8234  1.1771 -0.3527
  176DOPC  H11B21469   2.939   2.302   4.945  0.7460 -3.0981  0.9284
  176DOPC     P21470   2.919   2.008   4.825  0.0551 -0.1166 -0.4525
  176DOPC   O1321471   3.036   2.004   4.731  0.3198  0.6313  0.3322
  176DOPC   O1421472   2.800   1.926   4.792  0.1428 -0.2070  0.2231
  176DOPC   O1221473   2.868   2.162   4.825 -0.1759 -0.8687 -0.4725
  176DOPC   O1121474   2.957   1.976   4.974  0.8669  0.0182  0.2466
  176DOPC    C121475   2.898   2.033   5.089  0.1574 -0.5996 -0.1902
  176DOPC    HA21476   2.863   2.137   5.071 -1.3645 -0.6244  2.2296
  176DOPC    HB21477   2.980   2.040   5.163 -0.4198 -0.0847  0.4205
  176DOPC    C221478   2.788   1.949   5.155 -0.1619 -0.1000 -0.3282
  176DOPC    HS21479   2.701   1.941   5.086  1.0208 -1.7701 -1.7159
  176DOPC   O2121480   2.755   2.005   5.281  0.1581  0.4630 -0.2495
  176DOPC   C2121481   2.630   1.986   5.328  0.1268 -0.6301 -0.6672
  176DOPC   O2221482   2.545   1.930   5.266 -0.0966 -0.3561  0.3597
  176DOPC   C2221483   2.616   2.044   5.470  0.7566 -0.4629 -0.0577
  176DOPC   H2R21484   2.658   2.147   5.466 -1.3209  0.4185 -1.9273
  176DOPC   H2S21485   2.669   1.972   5.535 -1.1959  0.3525  2.6177
  176DOPC    C321486   2.837   1.803   5.196  0.1444  0.3525  1.7281
  176DOPC    HX21487   2.843   1.745   5.101  0.8056 -0.0633  2.0102
  176DOPC    HY21488   2.757   1.762   5.262 -0.1725 -0.0895  1.0770
  176DOPC   O3121489   2.967   1.802   5.249  0.2670  0.0609 -1.1386
  176DOPC   C3121490   2.982   1.783   5.386 -0.1095 -0.5499  0.2545
  176DOPC   O3221491   2.888   1.768   5.465  0.4380 -0.3450 -0.2144
  176DOPC   C3221492   3.127   1.777   5.420 -1.1840 -0.8389  0.1871
  176DOPC   H2X21493   3.184   1.727   5.339  0.7208  1.6335 -0.1064
  176DOPC   H2Y21494   3.174   1.875   5.442 -0.4863 -1.1262  0.0243
  176DOPC   C2321495   2.472   2.027   5.528  0.0169 -0.3249 -0.1788
  176DOPC   H3R21496   2.425   1.931   5.497 -0.3494 -0.1112 -0.2916
  176DOPC   H3S21497   2.416   2.101   5.466 -0.9938 -0.0248  1.0409
  176DOPC   C2421498   2.454   2.076   5.675 -0.5079  0.0823  0.1554
  176DOPC   H4R21499   2.507   2.171   5.699 -1.7883  1.5722 -2.4712
  176DOPC   H4S21500   2.500   1.993   5.734 -2.3040 -0.8817  0.2615
  176DOPC   C2521501   2.308   2.115   5.702  0.0023 -0.2238  0.7837
  176DOPC   H5R21502   2.241   2.031   5.676 -1.2761  0.7935  0.7022
  176DOPC   H5S21503   2.274   2.200   5.639 -1.6095 -0.5998  1.0974
  176DOPC   C2621504   2.298   2.152   5.848  0.3225 -0.6356  0.5747
  176DOPC   H6R21505   2.361   2.239   5.878 -1.8726  1.7630 -1.2902
  176DOPC   H6S21506   2.343   2.069   5.906 -0.3517 -1.6327 -0.2940
  176DOPC   C2721507   2.152   2.179   5.882  0.2630 -0.6789 -0.0994
  176DOPC   H7R21508   2.091   2.089   5.859  0.3944 -0.9213  0.4885
  176DOPC   H7S21509   2.111   2.269   5.833  0.5881  0.3115  1.3788
  176DOPC   C2821510   2.134   2.205   6.035 -0.5351  0.5200  0.7148
  176DOPC   H8R21511   2.176   2.123   6.097  1.6607 -0.3390 -1.7143
  176DOPC   H8S21512   2.026   2.202   6.061 -0.3333 -0.8926  1.4842
  176DOPC   C2921513   2.173   2.345   6.078  0.4061 -0.5003  0.1075
  176DOPC   H9R21514   2.191   2.420   5.999  3.8719  0.1134  1.2823
  176DOPC  C21021515   2.198   2.383   6.202 -1.2018  0.5522  0.5296
  176DOPC  H10R21516   2.225   2.489   6.215  0.2975  0.1672  0.7340
  176DOPC  C21121517   2.228   2.293   6.323 -0.0868  0.2793  1.1023
  176DOPC  H11R21518   2.304   2.352   6.379  1.4540  0.4633 -1.0780
  176DOPC  H11S21519   2.269   2.201   6.278 -2.1501  0.5000 -1.4896
  176DOPC  C21221520   2.093   2.260   6.398  0.4020  0.0406 -0.3375
  176DOPC  H12R21521   2.128   2.173   6.459  1.2116  0.6410  0.0661
  176DOPC  H12S21522   2.014   2.234   6.324  2.7815 -1.2180 -2.5597
  176DOPC  C21321523   2.047   2.377   6.495 -0.5180 -0.2580  0.4493
  176DOPC  H13R21524   2.007   2.452   6.425  0.6009  1.4285  1.5335
  176DOPC  H13S21525   2.141   2.423   6.532 -0.0755  1.9866 -3.0978
  176DOPC  C21421526   1.959   2.348   6.614  0.5144  0.2530  0.1557
  176DOPC  H14R21527   1.857   2.319   6.581  0.0997  0.8396  0.8905
  176DOPC  H14S21528   1.967   2.436   6.680  3.3114 -0.3933  0.7970
  176DOPC  C21521529   2.015   2.240   6.705  0.1060 -0.2271 -0.4659
  176DOPC  H15R21530   2.125   2.249   6.694  0.2956  0.8284  1.6715
  176DOPC  H15S21531   1.982   2.138   6.679  0.4620 -1.0481  1.9905
  176DOPC  C21621532   2.010   2.260   6.866 -0.2103  0.4886  0.4189
  176DOPC  H16R21533   2.044   2.362   6.896 -1.1788  1.0019 -0.1597
  176DOPC  H16S21534   2.077   2.184   6.911  0.0757  0.8368  0.5827
  176DOPC  C21721535   1.874   2.226   6.927 -0.0526 -0.0943 -0.0526
  176DOPC  H17R21536   1.802   2.302   6.891 -1.5034 -1.4345 -0.0647
  176DOPC  H17S21537   1.887   2.233   7.037 -0.2187 -3.1643  0.2525
  176DOPC  C21821538   1.807   2.094   6.887  0.0126  0.2678  0.7764
  176DOPC  H18R21539   1.815   2.085   6.777  2.0013 -0.1566  0.9199
  176DOPC  H18S21540   1.702   2.084   6.922 -1.4525  2.5611 -2.5159
  176DOPC  H18T21541   1.870   2.014   6.932 -0.0189  0.3572  0.9830
  176DOPC   C3321542   3.162   1.709   5.559  0.5105 -0.2765  0.2487
  176DOPC   H3X21543   3.105   1.762   5.638  1.0390 -0.2727  0.6332
  176DOPC   H3Y21544   3.269   1.716   5.589  0.2944 -0.0845  0.9803
  176DOPC   C3421545   3.124   1.560   5.566  0.1212 -0.1782  0.7482
  176DOPC   H4X21546   3.172   1.505   5.482  2.4100  3.1694 -0.3538
  176DOPC   H4Y21547   3.015   1.545   5.555 -0.0053  1.5572 -0.9832
  176DOPC   C3521548   3.160   1.503   5.706  0.1461  0.0033  0.4785
  176DOPC   H5X21549   3.084   1.533   5.782  0.1817 -2.2996  1.4952
  176DOPC   H5Y21550   3.261   1.538   5.734  0.2625 -0.7319  1.0061
  176DOPC   C3621551   3.183   1.349   5.717  0.7237  0.5152 -0.6706
  176DOPC   H6X21552   3.131   1.301   5.631  0.6902 -1.0227  0.1606
  176DOPC   H6Y21553   3.291   1.325   5.709  0.4961 -0.3185 -1.3763
  176DOPC   C3721554   3.120   1.269   5.841  0.5132 -0.3718  0.0055
  176DOPC   H7X21555   3.009   1.268   5.833  0.3090 -1.9099  2.1509
  176DOPC   H7Y21556   3.143   1.161   5.836 -0.3823 -0.5230 -1.8494
  176DOPC   C3821557   3.151   1.318   5.983  0.1138 -0.3023 -0.4554
  176DOPC   H8X21558   3.063   1.299   6.049 -1.6642  0.9960 -2.3103
  176DOPC   H8Y21559   3.148   1.428   5.965  0.6280 -0.2325 -0.1296
  176DOPC   C3921560   3.284   1.289   6.047  0.0126 -0.8827  0.4823
  176DOPC   H9X21561   3.368   1.319   5.983 -0.4899 -0.7826 -0.1426
  176DOPC  C31021562   3.312   1.256   6.177 -0.4371 -0.2505  0.6621
  176DOPC  H10X21563   3.419   1.261   6.202 -0.4710  1.6435  0.5314
  176DOPC  C31121564   3.220   1.229   6.284  0.2012  0.0241  0.0475
  176DOPC  H11X21565   3.115   1.228   6.249 -0.2787 -1.2113  1.4119
  176DOPC  H11Y21566   3.227   1.313   6.357  1.8614  1.8037 -2.0372
  176DOPC  C31221567   3.253   1.101   6.352 -0.0185 -0.0759  0.2124
  176DOPC  H12X21568   3.250   1.018   6.277 -1.7446 -0.1898  0.3814
  176DOPC  H12Y21569   3.172   1.073   6.422 -0.2622  0.9877  0.3724
  176DOPC  C31321570   3.376   1.090   6.441  0.0125 -0.5207 -0.6889
  176DOPC  H13X21571   3.465   1.121   6.382  1.7536 -2.2474  0.9239
  176DOPC  H13Y21572   3.345   1.162   6.520 -2.4459  1.0271 -2.9056
  176DOPC  C31421573   3.400   0.948   6.490  0.7212 -0.2792  0.5897
  176DOPC  H14X21574   3.316   0.885   6.527  1.6120 -3.0476 -1.7495
  176DOPC  H14Y21575   3.436   0.888   6.404  3.3152 -1.0506  2.1137
  176DOPC  C31521576   3.507   0.946   6.598 -0.1774  0.1632  0.1078
  176DOPC  H15X21577   3.460   0.972   6.695  0.5478 -2.3186  1.2063
  176DOPC  H15Y21578   3.595   1.009   6.569  0.5566 -0.4187  1.0093
  176DOPC  C31621579   3.577   0.808   6.609 -0.5829 -0.0019 -0.2622
  176DOPC  H16X21580   3.500   0.730   6.622  0.2420 -0.7194  0.4171
  176DOPC  H16Y21581   3.611   0.801   6.503 -3.6797  0.9555 -1.4371
  176DOPC  C31721582   3.695   0.818   6.711  0.0655 -0.4737 -0.6200
  176DOPC  H17X21583   3.656   0.870   6.801  1.5722 -1.8610  0.8874
  176DOPC  H17Y21584   3.731   0.715   6.732 -1.9683 -1.2628 -0.7192
  176DOPC  C31821585   3.820   0.899   6.667 -0.8191 -1.1321  0.0700
  176DOPC  H18X21586   3.857   0.855   6.572 -1.3983  0.7330 -1.0800
  176DOPC  H18Y21587   3.789   1.002   6.639  0.4562 -1.2698 -2.0025
  176DOPC  H18Z21588   3.898   0.896   6.746 -0.5758 -2.4774 -0.2000
  177DOPC     N21589   4.625   5.248   4.926  0.3613  0.1686  0.5264
  177DOPC   C1221590   4.660   5.158   5.042 -0.0780 -0.2475 -0.4461
  177DOPC  H12A21591   4.608   5.184   5.133 -0.2070 -2.0834  0.0309
  177DOPC  H12B21592   4.764   5.177   5.067  0.0953  0.0747 -1.3547
  177DOPC   C1321593   4.706   5.209   4.804 -0.8775 -0.0160 -0.4741
  177DOPC  H13A21594   4.808   5.242   4.813 -1.2157  0.9114  0.0564
  177DOPC  H13B21595   4.700   5.105   4.775  0.8823  0.4099 -2.6969
  177DOPC  H13C21596   4.667   5.257   4.715 -4.1576 -1.1424  0.2189
  177DOPC   C1421597   4.652   5.388   4.948 -0.8456  0.2679  0.2726
  177DOPC  H14A21598   4.756   5.413   4.962  0.0747 -1.8512 -2.0451
  177DOPC  H14B21599   4.617   5.447   4.865 -1.9061 -0.2566  0.3260
  177DOPC  H14C21600   4.594   5.428   5.029  2.0843  4.1270  0.7337
  177DOPC   C1521601   4.476   5.226   4.894  0.4834 -0.5313 -0.1983
  177DOPC  H15A21602   4.457   5.120   4.889 -2.0570 -0.2217  1.1835
  177DOPC  H15B21603   4.445   5.280   4.805 -2.0388  0.0817  0.9459
  177DOPC  H15C21604   4.414   5.262   4.975  0.2018  0.1573 -0.7089
  177DOPC   C1121605   4.640   5.007   5.035  0.2722 -1.2324 -0.0640
  177DOPC  H11A21606   4.676   4.971   4.937  0.7615 -0.9922  0.0249
  177DOPC  H11B21607   4.714   4.964   5.105  2.2023  2.0598  0.1631
  177DOPC     P21608   4.441   4.965   5.203 -0.2527  0.1438  0.0194
  177DOPC   O1321609   4.429   4.826   5.251 -0.2135 -0.2498 -0.3064
  177DOPC   O1421610   4.308   5.025   5.179  0.2192  0.3314  0.5857
  177DOPC   O1221611   4.508   4.962   5.059  0.0725  0.2998 -0.1350
  177DOPC   O1121612   4.531   5.056   5.299  0.5595 -0.2364  0.3959
  177DOPC    C121613   4.644   5.003   5.363 -0.2491  0.4255  0.1728
  177DOPC    HA21614   4.731   5.068   5.337 -0.5807  0.4497 -0.9385
  177DOPC    HB21615   4.671   4.898   5.338  0.3625  0.0577  2.1817
  177DOPC    C221616   4.618   5.005   5.524 -0.9222  0.1467  0.0561
  177DOPC    HS21617   4.515   4.969   5.544 -1.0415  0.9654  1.0076
  177DOPC   O2121618   4.647   5.135   5.594  0.4139  0.0963 -0.1659
  177DOPC   C2121619   4.540   5.219   5.610 -0.2923  0.1776 -0.4043
  177DOPC   O2221620   4.425   5.188   5.588 -0.2708  0.5329  0.2617
  177DOPC   C2221621   4.588   5.351   5.670  0.0972  0.0710  0.3170
  177DOPC   H2R21622   4.516   5.424   5.626  0.3974 -0.3400 -0.9097
  177DOPC   H2S21623   4.694   5.357   5.638  0.2489 -2.4613  0.0909
  177DOPC    C321624   4.715   4.909   5.597 -0.0830 -0.8574 -0.1856
  177DOPC    HX21625   4.820   4.938   5.578  0.0068 -1.0507  0.0242
  177DOPC    HY21626   4.680   4.813   5.552  0.2816 -0.1743 -2.0313
  177DOPC   O3121627   4.687   4.894   5.733  0.3011 -1.2723 -0.5776
  177DOPC   C3121628   4.760   4.971   5.818 -0.3391 -0.0252 -0.0738
  177DOPC   O3221629   4.850   5.048   5.784 -0.6466 -0.2657  0.3728
  177DOPC   C3221630   4.722   4.943   5.958 -0.7185  0.4610 -0.6701
  177DOPC   H2X21631   4.613   4.922   5.963 -0.5956 -0.5223 -1.7393
  177DOPC   H2Y21632   4.773   4.848   5.986  1.1553  1.2976 -1.0820
  177DOPC   C2321633   4.576   5.355   5.824  0.0861 -0.5640 -0.0848
  177DOPC   H3R21634   4.644   5.275   5.861  0.3377  0.4868  1.8467
  177DOPC   H3S21635   4.471   5.344   5.860 -0.7170  0.8414 -1.8410
  177DOPC   C2421636   4.623   5.485   5.880  0.7215 -0.2644  0.0532
  177DOPC   H4R21637   4.551   5.563   5.849  0.0067 -0.9704 -0.0980
  177DOPC   H4S21638   4.711   5.520   5.822 -0.5779  1.7621 -0.8224
  177DOPC   C2521639   4.622   5.489   6.032  0.3593  0.9748  1.0435
  177DOPC   H5R21640   4.699   5.421   6.075 -0.3278  0.7285  1.8873
  177DOPC   H5S21641   4.525   5.441   6.057 -0.0479  1.4387  0.3959
  177DOPC   C2621642   4.646   5.625   6.094 -0.2350 -0.2573 -0.2208
  177DOPC   H6R21643   4.565   5.695   6.064 -0.5731 -0.3087  0.5625
  177DOPC   H6S21644   4.748   5.653   6.059  0.5767 -0.4162  1.8979
  177DOPC   C2721645   4.650   5.628   6.245  0.1412 -0.3329  0.3948
  177DOPC   H7R21646   4.697   5.728   6.261 -0.9669  1.2036 -4.4008
  177DOPC   H7S21647   4.704   5.540   6.285  1.2301 -1.0526 -2.4220
  177DOPC   C2821648   4.509   5.641   6.322 -0.2766 -0.2678  0.4662
  177DOPC   H8R21649   4.457   5.552   6.283 -1.4425  0.3401  0.5886
  177DOPC   H8S21650   4.444   5.725   6.290 -0.3140  0.4877  2.3927
  177DOPC   C2921651   4.526   5.636   6.469 -0.5827 -0.6098  0.6161
  177DOPC   H9R21652   4.612   5.686   6.515 -1.0423 -0.6279  1.5205
  177DOPC  C21021653   4.432   5.587   6.552 -0.1038 -0.3301 -0.3150
  177DOPC  H10R21654   4.438   5.593   6.661 -1.0515 -0.4950 -0.2436
  177DOPC  C21121655   4.302   5.521   6.502  0.4630 -0.0170 -0.1494
  177DOPC  H11R21656   4.249   5.466   6.582 -0.4583  0.0675 -0.6905
  177DOPC  H11S21657   4.333   5.446   6.427  2.6674  0.6927 -0.0420
  177DOPC  C21221658   4.186   5.598   6.430  0.1189 -0.6639  0.1220
  177DOPC  H12R21659   4.236   5.643   6.342  2.4883  1.5090  2.4248
  177DOPC  H12S21660   4.152   5.684   6.493 -1.2158 -0.7094 -0.4999
  177DOPC  C21321661   4.065   5.510   6.388 -0.5722 -0.5267  0.1551
  177DOPC  H13R21662   3.991   5.531   6.469  0.2672 -0.4456  0.9135
  177DOPC  H13S21663   4.097   5.404   6.395  2.9874  0.4442  0.5621
  177DOPC  C21421664   4.016   5.553   6.252  0.5589 -0.2068  0.6068
  177DOPC  H14R21665   4.007   5.663   6.240 -2.5571 -0.0815  2.9641
  177DOPC  H14S21666   3.914   5.512   6.240  0.5469 -0.1556  0.5288
  177DOPC  C21521667   4.093   5.490   6.138  0.7474  0.6811  0.2695
  177DOPC  H15R21668   4.080   5.380   6.131 -2.6429  1.0363 -1.1091
  177DOPC  H15S21669   4.202   5.513   6.141  0.4970  1.9356  0.3924
  177DOPC  C21621670   4.038   5.549   6.007  0.5257  0.3110 -0.5177
  177DOPC  H16R21671   4.028   5.660   6.013  3.3771  0.6365 -0.0409
  177DOPC  H16S21672   3.943   5.494   5.999  2.3147 -3.2704  0.8046
  177DOPC  C21721673   4.129   5.530   5.890  0.2912  0.0710  0.2963
  177DOPC  H17R21674   4.202   5.613   5.897 -2.0891  2.3761 -0.5033
  177DOPC  H17S21675   4.064   5.553   5.803 -0.0037 -1.8760 -0.0549
  177DOPC  C21821676   4.186   5.396   5.864 -0.2054 -0.4142  0.3061
  177DOPC  H18R21677   4.249   5.357   5.947 -0.5737 -1.8113 -0.0551
  177DOPC  H18S21678   4.262   5.411   5.785  0.5971  0.5173  1.2116
  177DOPC  H18T21679   4.105   5.329   5.827  0.3600 -0.9372  0.0057
  177DOPC   C3321680   4.761   5.059   6.056  0.0424 -0.6544 -0.4378
  177DOPC   H3X21681   4.675   5.129   6.045  1.0880  1.0324  1.4477
  177DOPC   H3Y21682   4.855   5.108   6.023  0.3088 -1.5478 -1.0188
  177DOPC   C3421683   4.760   5.011   6.200 -0.5332  0.2938 -0.0833
  177DOPC   H4X21684   4.661   4.966   6.222 -1.7546  1.9086 -1.9270
  177DOPC   H4Y21685   4.778   5.097   6.270  0.2712  1.3865 -1.5715
  177DOPC   C3521686   4.883   4.919   6.222 -1.0161  0.2363 -0.0754
  177DOPC   H5X21687   4.975   4.980   6.237  0.2710 -1.7477  0.4939
  177DOPC   H5Y21688   4.898   4.846   6.140  0.5000 -0.6325  0.9271
  177DOPC   C3621689   4.871   4.834   6.353 -0.2562 -0.6099 -0.3908
  177DOPC   H6X21690   4.776   4.778   6.344 -0.7203  0.3210 -1.6635
  177DOPC   H6Y21691   4.958   4.767   6.373  1.5584  2.1749  1.8542
  177DOPC   C3721692   4.867   4.926   6.477  0.0285 -0.0747  0.2177
  177DOPC   H7X21693   4.918   5.019   6.445  0.7867 -0.3882  0.4950
  177DOPC   H7Y21694   4.768   4.973   6.493  1.0964  2.0358  1.0833
  177DOPC   C3821695   4.912   4.845   6.598  0.0290 -0.4797 -0.3006
  177DOPC   H8X21696   4.923   4.924   6.675  0.1168 -1.2911  0.5447
  177DOPC   H8Y21697   5.017   4.810   6.591  0.0614 -0.3788 -0.3036
  177DOPC   C3921698   4.814   4.738   6.641  0.2185 -0.1432  0.4564
  177DOPC   H9X21699   4.835   4.641   6.594 -0.2107  0.0656 -0.1836
  177DOPC  C31021700   4.714   4.752   6.727  0.2559 -0.2770  1.1454
  177DOPC  H10X21701   4.654   4.663   6.750  0.9739 -0.3279  3.0567
  177DOPC  C31121702   4.674   4.879   6.799 -0.0002 -0.3808 -0.3075
  177DOPC  H11X21703   4.564   4.881   6.790 -0.5530 -3.0665  3.4864
  177DOPC  H11Y21704   4.714   4.969   6.748 -1.4892  1.6341  1.9149
  177DOPC  C31221705   4.723   4.873   6.943 -0.0986 -0.4724 -0.5741
  177DOPC  H12X21706   4.677   4.961   6.993  1.2503  0.6790 -1.2740
  177DOPC  H12Y21707   4.834   4.882   6.946 -0.0613 -0.8509 -0.8413
  177DOPC  C31321708   4.674   4.747   7.023 -0.2633  0.2040  0.0107
  177DOPC  H13X21709   4.565   4.727   7.025  0.1094 -2.1265  0.2826
  177DOPC  H13Y21710   4.728   4.664   6.971  2.2300  1.2035  0.8665
  177DOPC  C31421711   4.717   4.749   7.173  0.2407 -0.1248 -0.1263
  177DOPC  H14X21712   4.825   4.775   7.171 -0.5613  3.7217 -0.5868
  177DOPC  H14Y21713   4.676   4.833   7.233  0.5427  0.0116 -0.1057
  177DOPC  C31521714   4.696   4.624   7.250 -0.8814  0.3745  0.4290
  177DOPC  H15X21715   4.759   4.614   7.341 -1.3955 -3.0247  0.5256
  177DOPC  H15Y21716   4.733   4.542   7.185  2.1907  0.0741  2.3508
  177DOPC  C31621717   4.551   4.591   7.284 -1.0548 -0.2267  0.0705
  177DOPC  H16X21718   4.505   4.684   7.322  0.0193  0.5565 -0.4993
  177DOPC  H16Y21719   4.494   4.559   7.194 -1.0712 -0.9486  0.3281
  177DOPC  C31721720   4.534   4.487   7.394 -1.5168  0.1482  0.2877
  177DOPC  H17X21721   4.553   4.384   7.357 -0.0932 -0.4282  2.4282
  177DOPC  H17Y21722   4.609   4.508   7.474  0.3001  1.8458 -1.7051
  177DOPC  C31821723   4.395   4.482   7.453  0.2380 -0.3400 -0.9364
  177DOPC  H18X21724   4.310   4.480   7.382 -2.9098  2.7349  2.2792
  177DOPC  H18Y21725   4.390   4.400   7.528  1.0803  1.6679  1.4599
  177DOPC  H18Z21726   4.387   4.577   7.510 -1.8487 -0.0776 -1.5815
  178DOPC     N21727   3.113   4.336   5.287 -0.4013  0.0471 -0.4882
  178DOPC   C1221728   2.975   4.362   5.350  0.3165 -0.6077 -0.2847
  178DOPC  H12A21729   2.983   4.325   5.452  1.2434 -0.1705 -0.1848
  178DOPC  H12B21730   2.903   4.300   5.300 -0.3094  1.0354 -1.5398
  178DOPC   C1321731   3.115   4.382   5.138 -0.2435 -0.5022  0.1213
  178DOPC  H13A21732   3.078   4.483   5.143  1.2570  0.0752 -0.1420
  178DOPC  H13B21733   3.214   4.378   5.095 -1.0741  0.2257 -1.9729
  178DOPC  H13C21734   3.049   4.318   5.080 -0.9566 -0.4404  0.8412
  178DOPC   C1421735   3.145   4.194   5.282 -0.4780 -0.4714 -0.0128
  178DOPC  H14A21736   3.058   4.130   5.275 -0.1764 -0.8212 -0.6257
  178DOPC  H14B21737   3.207   4.162   5.200 -0.3815 -0.7388  0.1636
  178DOPC  H14C21738   3.204   4.168   5.369  0.2323  0.9883 -0.0215
  178DOPC   C1521739   3.221   4.402   5.364  0.3924 -0.0733  0.6901
  178DOPC  H15A21740   3.233   4.509   5.351 -1.3127  0.5665  3.5035
  178DOPC  H15B21741   3.316   4.377   5.320 -0.5007 -1.4028 -0.5475
  178DOPC  H15C21742   3.230   4.379   5.469 -1.0330  0.5379  0.9727
  178DOPC   C1121743   2.921   4.504   5.371 -0.1125 -0.7058  0.2255
  178DOPC  H11A21744   2.829   4.505   5.433  0.8907  2.4110  1.8590
  178DOPC  H11B21745   2.994   4.560   5.433  0.0745 -0.2045 -0.4392
  178DOPC     P21746   2.784   4.570   5.160  0.2305 -0.1357 -0.3019
  178DOPC   O1321747   2.729   4.434   5.164 -0.5221 -0.4567 -0.6584
  178DOPC   O1421748   2.821   4.642   5.032 -0.5293 -0.2555 -0.0033
  178DOPC   O1221749   2.916   4.572   5.248  0.9115  0.1284 -0.1277
  178DOPC   O1121750   2.687   4.676   5.246  0.6076  0.2037  0.4772
  178DOPC    C121751   2.740   4.803   5.286 -0.8032  1.0177 -0.3549
  178DOPC    HA21752   2.668   4.883   5.259 -0.1862  1.8213  0.3255
  178DOPC    HB21753   2.842   4.816   5.243  0.2102  3.4570  2.4417
  178DOPC    C221754   2.758   4.801   5.440  0.1180  0.0125  0.6305
  178DOPC    HS21755   2.846   4.735   5.461 -0.8387 -1.7236 -0.5208
  178DOPC   O2121756   2.634   4.753   5.503  0.6275 -0.4128  0.3475
  178DOPC   C2121757   2.649   4.683   5.607 -0.3647  0.2531 -0.1539
  178DOPC   O2221758   2.753   4.662   5.676  1.0209 -0.1191  0.0960
  178DOPC   C2221759   2.514   4.620   5.637 -0.1811 -0.9044 -0.5636
  178DOPC   H2R21760   2.471   4.583   5.542  0.6479 -0.6602 -1.0397
  178DOPC   H2S21761   2.449   4.708   5.660 -1.0504 -2.0072  1.5176
  178DOPC    C321762   2.794   4.940   5.490  0.6261  1.0317 -0.3979
  178DOPC    HX21763   2.703   5.003   5.489  1.3087  2.0618 -0.1993
  178DOPC    HY21764   2.881   4.985   5.437  1.2917  0.3923  0.1275
  178DOPC   O3121765   2.840   4.941   5.631 -0.0303  0.6951  0.3930
  178DOPC   C3121766   2.962   4.902   5.664 -0.1604 -0.2144  0.6753
  178DOPC   O3221767   3.054   4.858   5.595 -0.2522  0.4560  0.0142
  178DOPC   C3221768   2.997   4.950   5.808  0.2530 -1.3944 -0.1515
  178DOPC   H2X21769   3.011   4.859   5.870  0.5331 -1.5665 -0.4644
  178DOPC   H2Y21770   3.089   5.010   5.798 -1.1951  0.6371 -2.3420
  178DOPC   C2321771   2.502   4.532   5.760 -0.7455 -0.3922  0.4124
  178DOPC   H3R21772   2.597   4.480   5.787 -1.0335 -0.2758  1.7005
  178DOPC   H3S21773   2.423   4.454   5.758  0.3376 -1.7748  3.7067
  178DOPC   C2421774   2.482   4.633   5.884  0.4114  0.1363 -0.0957
  178DOPC   H4R21775   2.385   4.683   5.861  1.3495  1.8206 -0.4949
  178DOPC   H4S21776   2.565   4.706   5.880  0.1665  0.4085 -0.2095
  178DOPC   C2521777   2.486   4.557   6.018  0.0400  0.4424  0.1417
  178DOPC   H5R21778   2.587   4.512   6.024 -0.8441 -2.1630 -2.3184
  178DOPC   H5S21779   2.408   4.478   6.022 -0.2163  0.5393 -1.9006
  178DOPC   C2621780   2.447   4.640   6.142  0.0582  0.4540  0.2850
  178DOPC   H6R21781   2.348   4.684   6.116 -1.0745 -2.2127 -0.2565
  178DOPC   H6S21782   2.527   4.716   6.158 -1.5064  2.7953 -2.0818
  178DOPC   C2721783   2.431   4.563   6.281  0.3652 -0.1452  0.0632
  178DOPC   H7R21784   2.345   4.495   6.270  0.4933 -0.0939 -1.4541
  178DOPC   H7S21785   2.411   4.627   6.370  1.1700 -0.2404  0.3260
  178DOPC   C2821786   2.560   4.478   6.314  0.5555 -0.7897  0.5990
  178DOPC   H8R21787   2.579   4.420   6.221  0.3640  0.1737 -0.0559
  178DOPC   H8S21788   2.536   4.407   6.396 -1.6185 -0.6397  0.1519
  178DOPC   C2921789   2.682   4.556   6.348  0.2598 -0.3905 -0.6943
  178DOPC   H9R21790   2.746   4.587   6.265 -0.2601  0.9980 -0.6053
  178DOPC  C21021791   2.728   4.588   6.475 -0.4370  1.1911  0.2057
  178DOPC  H10R21792   2.826   4.634   6.492 -0.2096  1.4714 -1.6691
  178DOPC  C21121793   2.656   4.546   6.598  0.3068 -0.8092 -0.5463
  178DOPC  H11R21794   2.661   4.437   6.615  1.3624 -0.4603  1.7796
  178DOPC  H11S21795   2.550   4.578   6.587  0.2148 -1.2308 -0.8861
  178DOPC  C21221796   2.710   4.625   6.721 -0.0432  0.2924 -0.1745
  178DOPC  H12R21797   2.683   4.731   6.705  1.4297  0.7827  0.4712
  178DOPC  H12S21798   2.821   4.618   6.728 -0.2130 -0.9076  3.6762
  178DOPC  C21321799   2.643   4.581   6.855  0.1284  0.3812 -0.2156
  178DOPC  H13R21800   2.536   4.582   6.827  0.4091 -2.5721 -1.7424
  178DOPC  H13S21801   2.681   4.654   6.930 -2.1490  1.3244  0.1053
  178DOPC  C21421802   2.682   4.436   6.895 -0.1253 -0.0671  0.1974
  178DOPC  H14R21803   2.781   4.412   6.851 -0.2462 -0.5024  0.1679
  178DOPC  H14S21804   2.603   4.378   6.841 -0.2308  1.0444 -0.9101
  178DOPC  C21521805   2.691   4.403   7.048  0.5574 -0.0898 -0.1711
  178DOPC  H15R21806   2.624   4.469   7.106  0.9267  0.5223 -0.4295
  178DOPC  H15S21807   2.797   4.424   7.073  0.4227 -0.0459  0.3725
  178DOPC  C21621808   2.669   4.250   7.079  1.0619 -0.0025 -0.5334
  178DOPC  H16R21809   2.749   4.186   7.036  0.5465 -0.9138 -0.1653
  178DOPC  H16S21810   2.576   4.216   7.028  0.6665  1.0761 -0.5502
  178DOPC  C21721811   2.671   4.220   7.229 -0.4872  0.3262 -0.2454
  178DOPC  H17R21812   2.753   4.271   7.283  0.6219  0.9104 -2.3693
  178DOPC  H17S21813   2.687   4.110   7.241  0.0884  0.6348  2.2371
  178DOPC  C21821814   2.538   4.251   7.300 -0.6275 -0.7175  0.1196
  178DOPC  H18R21815   2.461   4.191   7.247 -1.8380  0.8527 -0.0022
  178DOPC  H18S21816   2.495   4.354   7.296 -0.2271 -0.5654 -0.3796
  178DOPC  H18T21817   2.548   4.217   7.405 -1.5198 -0.0425  0.4420
  178DOPC   C3321818   2.884   5.035   5.882 -0.0596 -0.6104 -0.0043
  178DOPC   H3X21819   2.789   4.977   5.879 -0.7041  0.4236 -1.1412
  178DOPC   H3Y21820   2.864   5.134   5.835 -2.3810 -1.4302 -0.9166
  178DOPC   C3421821   2.908   5.061   6.037  0.0178 -0.9406 -0.2382
  178DOPC   H4X21822   2.827   5.122   6.083  1.7335  0.6750  0.7579
  178DOPC   H4Y21823   2.999   5.123   6.052 -0.4488  0.5264 -2.7341
  178DOPC   C3521824   2.919   4.936   6.123 -0.0163  0.7805 -0.4979
  178DOPC   H5X21825   3.009   4.874   6.100  1.1814  1.2653  2.3715
  178DOPC   H5Y21826   2.836   4.863   6.114 -0.1368  0.7464  0.7196
  178DOPC   C3621827   2.916   4.964   6.273 -0.8696  0.0987  0.1239
  178DOPC   H6X21828   2.989   5.045   6.296 -0.0742  0.4350 -3.0664
  178DOPC   H6Y21829   2.815   4.979   6.316 -0.8893 -1.0383  0.5004
  178DOPC   C3721830   2.977   4.851   6.362 -1.1494  0.3456 -0.3399
  178DOPC   H7X21831   2.922   4.757   6.347 -1.2828  0.4643 -0.5867
  178DOPC   H7Y21832   3.080   4.827   6.326 -0.2565 -0.1606  2.2970
  178DOPC   C3821833   2.983   4.896   6.519  0.0569  0.2159  0.0366
  178DOPC   H8X21834   2.880   4.908   6.559  0.5485  1.2083  1.0424
  178DOPC   H8Y21835   3.024   4.999   6.518 -1.9576  1.0905 -2.1344
  178DOPC   C3921836   3.062   4.808   6.607 -0.0667 -0.5785  0.0213
  178DOPC   H9X21837   3.056   4.702   6.577  0.3624  0.0925 -2.6934
  178DOPC  C31021838   3.117   4.846   6.725 -0.0329  0.3940 -0.0842
  178DOPC  H10X21839   3.184   4.764   6.756  0.4671  1.4659  1.7674
  178DOPC  C31121840   3.139   4.972   6.798  0.1200  0.0458  0.9745
  178DOPC  H11X21841   3.069   5.049   6.761 -0.0631 -1.1346 -1.3079
  178DOPC  H11Y21842   3.243   4.998   6.771  0.2941 -2.5548 -1.3153
  178DOPC  C31221843   3.137   4.960   6.951  0.0090  0.9734 -0.1415
  178DOPC  H12X21844   3.221   4.891   6.973 -1.4718 -0.8613  0.0397
  178DOPC  H12Y21845   3.046   4.903   6.982  1.2745 -0.9647  0.1712
  178DOPC  C31321846   3.141   5.094   7.024  0.1333  0.2830  0.1602
  178DOPC  H13X21847   3.234   5.147   6.997  0.2576 -0.4338 -0.8533
  178DOPC  H13Y21848   3.058   5.153   6.979 -1.3487 -1.7901 -0.0177
  178DOPC  C31421849   3.116   5.077   7.173 -0.1787 -0.0200 -0.4265
  178DOPC  H14X21850   3.018   5.028   7.185  0.0704 -0.1502  1.4121
  178DOPC  H14Y21851   3.197   5.016   7.219  0.0196  1.6801  1.6514
  178DOPC  C31521852   3.131   5.215   7.243  0.1251  0.5350  0.3422
  178DOPC  H15X21853   3.067   5.292   7.195  1.2637  0.9497 -0.5511
  178DOPC  H15Y21854   3.239   5.239   7.243  0.3383 -0.3966  0.4433
  178DOPC  C31621855   3.099   5.189   7.390 -0.1282 -0.4958  0.4222
  178DOPC  H16X21856   3.000   5.138   7.391  1.2226 -3.3491 -0.5836
  178DOPC  H16Y21857   3.168   5.119   7.442  2.3933 -0.0218 -2.0117
  178DOPC  C31721858   3.072   5.311   7.475 -0.2349 -0.5380 -0.3372
  178DOPC  H17X21859   3.034   5.274   7.572 -1.3666  1.3159 -0.0267
  178DOPC  H17Y21860   3.169   5.363   7.492 -0.0538 -0.6184 -1.0988
  178DOPC  C31821861   2.970   5.410   7.421 -0.2366  0.2699  0.0672
  178DOPC  H18X21862   3.005   5.465   7.331 -1.1861  0.3059 -0.2919
  178DOPC  H18Y21863   2.875   5.358   7.398  0.3675 -0.7550 -0.1664
  178DOPC  H18Z21864   2.952   5.481   7.505 -2.8200 -1.6077  1.2526
  179DOPC     N21865   6.200   4.567   4.961  0.3499 -0.3910  1.2674
  179DOPC   C1221866   6.068   4.600   4.886 -0.5672  0.0799 -0.1711
  179DOPC  H12A21867   6.039   4.513   4.829  1.0323 -0.9237  0.4857
  179DOPC  H12B21868   6.091   4.673   4.810  2.4219 -2.1046 -1.5853
  179DOPC   C1321869   6.177   4.462   5.061  0.1389  0.1038  0.4389
  179DOPC  H13A21870   6.273   4.447   5.108 -0.6878  0.2894  2.2651
  179DOPC  H13B21871   6.105   4.495   5.134 -0.2040 -2.2436  1.2140
  179DOPC  H13C21872   6.136   4.376   5.012 -1.2819  1.5550 -1.0654
  179DOPC   C1421873   6.258   4.690   5.036 -0.1946  0.2800 -0.2819
  179DOPC  H14A21874   6.186   4.711   5.113  0.8690  0.5735  0.6577
  179DOPC  H14B21875   6.347   4.665   5.092 -1.0168 -1.2209  0.4203
  179DOPC  H14C21876   6.268   4.772   4.967  0.2086  1.9270  1.6473
  179DOPC   C1521877   6.304   4.516   4.866  0.4615  0.8807 -0.2114
  179DOPC  H15A21878   6.399   4.495   4.913  2.0352  2.7827 -2.2937
  179DOPC  H15B21879   6.321   4.594   4.793 -1.4647  1.3515 -0.2232
  179DOPC  H15C21880   6.266   4.430   4.812  0.2257  0.8713 -0.0344
  179DOPC   C1121881   5.942   4.626   4.972 -0.5210  0.1402  1.1439
  179DOPC  H11A21882   5.849   4.631   4.910 -1.0350 -2.7743  1.5434
  179DOPC  H11B21883   5.936   4.541   5.043  0.6520 -0.4218  0.5802
  179DOPC     P21884   5.941   4.885   4.990  0.5971  0.1297 -0.3282
  179DOPC   O1321885   5.813   4.901   4.930  0.7273  0.0105  0.8131
  179DOPC   O1421886   6.055   4.908   4.907 -0.0599  0.3542  0.4016
  179DOPC   O1221887   5.958   4.743   5.051 -0.5354  0.8103  0.2204
  179DOPC   O1121888   5.943   4.977   5.119  0.2679 -0.1431  0.4103
  179DOPC    C121889   6.052   4.965   5.216  0.3606  0.2861  0.4333
  179DOPC    HA21890   6.103   5.063   5.228  0.8048  0.0577  0.4036
  179DOPC    HB21891   6.141   4.908   5.183 -0.0250  0.3864 -0.8414
  179DOPC    C221892   6.011   4.911   5.351  0.0595  0.0596 -0.0579
  179DOPC    HS21893   6.101   4.916   5.416  1.2258  4.1127 -1.6474
  179DOPC   O2121894   5.963   4.779   5.350 -0.4800 -0.2697 -0.4544
  179DOPC   C2121895   6.057   4.691   5.334 -0.1964  0.2127 -0.3971
  179DOPC   O2221896   6.178   4.703   5.337  0.4917  0.2151 -0.0741
  179DOPC   C2221897   5.982   4.558   5.328  0.2451  0.2004  0.6543
  179DOPC   H2R21898   6.061   4.480   5.320  1.3178  1.1844  1.2743
  179DOPC   H2S21899   5.902   4.557   5.252  0.6203 -0.4508  0.2543
  179DOPC    C321900   5.900   5.000   5.418 -0.1360 -0.6424  0.0747
  179DOPC    HX21901   5.809   5.022   5.358  0.0698  0.4068  0.1346
  179DOPC    HY21902   5.941   5.103   5.417  0.3046 -0.8102  0.7554
  179DOPC   O3121903   5.867   4.963   5.557 -0.2155 -0.2164  0.9343
  179DOPC   C3121904   5.757   4.887   5.562 -0.7548  0.4765  0.2915
  179DOPC   O3221905   5.688   4.861   5.469  0.0448  0.0161 -0.1031
  179DOPC   C3221906   5.740   4.836   5.707  0.4421  0.3818  0.2823
  179DOPC   H2X21907   5.834   4.820   5.763 -0.1144 -0.4157  1.0122
  179DOPC   H2Y21908   5.679   4.909   5.766 -0.6563  0.9931 -1.5326
  179DOPC   C2321909   5.899   4.524   5.450  0.0790  0.8071  0.1974
  179DOPC   H3R21910   5.850   4.425   5.442  0.9956  0.2758  0.9687
  179DOPC   H3S21911   5.815   4.596   5.445 -0.6561 -0.1226 -1.9042
  179DOPC   C2421912   5.984   4.532   5.579 -0.2838  0.2367 -0.2108
  179DOPC   H4R21913   5.915   4.537   5.667  1.0426  0.2398  0.8575
  179DOPC   H4S21914   6.042   4.626   5.576 -0.7950  0.5355 -1.9887
  179DOPC   C2521915   6.087   4.423   5.604 -0.1236 -0.2797  0.2200
  179DOPC   H5R21916   6.148   4.405   5.513  0.2566  1.5793  0.0849
  179DOPC   H5S21917   6.029   4.332   5.634  0.6547 -0.1329  2.3741
  179DOPC   C2621918   6.184   4.453   5.726  0.6967 -0.0543  0.4860
  179DOPC   H6R21919   6.250   4.538   5.696  1.2866 -0.8455 -0.5583
  179DOPC   H6S21920   6.253   4.365   5.726 -0.4073 -1.0811 -2.7527
  179DOPC   C2721921   6.120   4.470   5.861  0.6485  0.2450  0.7930
  179DOPC   H7R21922   6.051   4.388   5.891  0.1997 -0.2045 -1.2883
  179DOPC   H7S21923   6.047   4.551   5.839  0.4638  0.4492  2.0864
  179DOPC   C2821924   6.214   4.518   5.975 -0.4475  1.3893 -0.1441
  179DOPC   H8R21925   6.144   4.553   6.055  1.2710 -1.5455  2.8706
  179DOPC   H8S21926   6.275   4.609   5.954  1.8184  0.5221  2.2142
  179DOPC   C2921927   6.299   4.409   6.027 -0.3092  1.0478 -0.3457
  179DOPC   H9R21928   6.354   4.347   5.955  0.8096  2.0654 -0.4007
  179DOPC  C21021929   6.315   4.377   6.156 -1.1777 -0.5573  0.2077
  179DOPC  H10R21930   6.371   4.287   6.186 -0.5048 -0.4099 -0.5599
  179DOPC  C21121931   6.260   4.449   6.278 -0.2519  0.5548 -0.1745
  179DOPC  H11R21932   6.224   4.552   6.257 -0.6716  0.0926 -1.8043
  179DOPC  H11S21933   6.348   4.473   6.341  0.8817  2.5371 -2.3578
  179DOPC  C21221934   6.169   4.357   6.360 -0.1843 -0.4768  1.1058
  179DOPC  H12R21935   6.211   4.255   6.376  0.5517 -0.7917 -2.1440
  179DOPC  H12S21936   6.082   4.345   6.292  0.7253  0.8420 -0.3436
  179DOPC  C21321937   6.119   4.424   6.488 -0.3118 -0.7393  0.2851
  179DOPC  H13R21938   6.021   4.471   6.462 -0.5009 -0.7477  0.9572
  179DOPC  H13S21939   6.192   4.503   6.517 -2.1109  0.2013  2.6994
  179DOPC  C21421940   6.093   4.322   6.596  0.3458 -0.1065  0.1550
  179DOPC  H14R21941   6.185   4.264   6.619 -0.5717 -1.1845  1.2970
  179DOPC  H14S21942   6.012   4.251   6.570  0.3481 -1.2591  2.9486
  179DOPC  C21521943   6.057   4.383   6.730  0.3791 -0.2092  1.2705
  179DOPC  H15R21944   5.971   4.454   6.722  0.0570 -0.6169  1.0897
  179DOPC  H15S21945   6.147   4.436   6.767 -0.2352 -0.1618  2.8059
  179DOPC  C21621946   6.016   4.288   6.838  0.3163 -0.6000 -0.2949
  179DOPC  H16R21947   6.094   4.210   6.849  1.9364  0.9476 -0.3202
  179DOPC  H16S21948   5.916   4.247   6.812 -0.2731  0.5702  0.0500
  179DOPC  C21721949   6.005   4.344   6.980  0.7238  0.0134 -0.8783
  179DOPC  H17R21950   6.107   4.385   6.997 -0.2324  1.1962  3.1222
  179DOPC  H17S21951   5.983   4.269   7.058  0.3469 -0.9173 -1.8488
  179DOPC  C21821952   5.920   4.468   6.995 -0.5133 -0.2652  0.0881
  179DOPC  H18R21953   5.810   4.452   7.005 -0.4755 -0.7132 -0.2150
  179DOPC  H18S21954   5.943   4.540   6.913  1.4861  1.5843  2.1512
  179DOPC  H18T21955   5.947   4.508   7.095 -0.6545 -0.9387  0.3988
  179DOPC   C3321956   5.660   4.696   5.707 -0.8327 -0.4648 -0.2784
  179DOPC   H3X21957   5.713   4.623   5.642 -0.5997 -0.1315 -0.4747
  179DOPC   H3Y21958   5.568   4.718   5.648 -0.5210  0.6070 -0.3999
  179DOPC   C3421959   5.635   4.642   5.843  0.0655  0.2968  0.1716
  179DOPC   H4X21960   5.557   4.563   5.842  1.0900 -0.7457  0.2395
  179DOPC   H4Y21961   5.591   4.722   5.906 -1.0149 -0.4764  0.4359
  179DOPC   C3521962   5.764   4.587   5.915 -0.1916 -0.1782 -0.7375
  179DOPC   H5X21963   5.851   4.656   5.914  0.5885 -1.1394 -0.3850
  179DOPC   H5Y21964   5.799   4.498   5.859  1.4951  0.3678 -0.5993
  179DOPC   C3621965   5.752   4.565   6.067  0.1931  0.0477  0.4752
  179DOPC   H6X21966   5.850   4.555   6.119 -0.7175 -1.7215  1.9762
  179DOPC   H6Y21967   5.711   4.661   6.104 -0.2269  0.1555 -0.2465
  179DOPC   C3721968   5.673   4.442   6.115  0.2891  0.2464  1.3847
  179DOPC   H7X21969   5.569   4.451   6.078  0.6236 -4.4622 -1.5486
  179DOPC   H7Y21970   5.722   4.353   6.068  0.2112  0.5511  0.7251
  179DOPC   C3821971   5.677   4.416   6.269 -0.4658  0.1274 -0.0829
  179DOPC   H8X21972   5.784   4.419   6.300 -0.6010 -1.2808  0.5875
  179DOPC   H8Y21973   5.633   4.316   6.293 -2.2088  0.6603 -0.8619
  179DOPC   C3921974   5.602   4.519   6.346  0.6414 -0.2321  0.3788
  179DOPC   H9X21975   5.570   4.615   6.301 -1.3325 -0.6419  0.7935
  179DOPC  C31021976   5.576   4.513   6.476  0.2582 -0.3911  0.0282
  179DOPC  H10X21977   5.513   4.590   6.522 -0.1840 -0.3208 -0.6697
  179DOPC  C31121978   5.617   4.394   6.565  0.0545 -0.3323 -0.1654
  179DOPC  H11X21979   5.714   4.355   6.527  1.5575  2.2076  0.8441
  179DOPC  H11Y21980   5.545   4.310   6.570  1.3633 -1.5596 -1.0813
  179DOPC  C31221981   5.646   4.436   6.715 -0.2092 -0.1674  0.3045
  179DOPC  H12X21982   5.706   4.529   6.709 -3.8692  2.3417 -1.5173
  179DOPC  H12Y21983   5.701   4.359   6.772  1.7642  1.7704  1.1450
  179DOPC  C31321984   5.513   4.468   6.793  0.0965  0.2215  0.7294
  179DOPC  H13X21985   5.456   4.545   6.737 -0.4361  0.1592  1.1772
  179DOPC  H13Y21986   5.447   4.378   6.789  2.4899 -1.7719  2.6938
  179DOPC  C31421987   5.530   4.505   6.934  0.1051 -0.1777 -0.0124
  179DOPC  H14X21988   5.435   4.501   6.991  1.0474 -0.0699  1.6354
  179DOPC  H14Y21989   5.590   4.427   6.984  1.1511  1.2565  1.0474
  179DOPC  C31521990   5.590   4.643   6.959 -0.0281 -0.2080 -0.6005
  179DOPC  H15X21991   5.528   4.727   6.921  1.1081  2.2040  2.5185
  179DOPC  H15Y21992   5.687   4.662   6.908  1.5390  0.5369  2.4400
  179DOPC  C31621993   5.606   4.675   7.110  0.3242 -0.2513  0.3149
  179DOPC  H16X21994   5.515   4.720   7.157 -0.2843 -3.3642  2.3833
  179DOPC  H16Y21995   5.627   4.580   7.163 -0.5281  0.2563  1.6360
  179DOPC  C31721996   5.713   4.786   7.136 -0.1254 -0.2610  0.1269
  179DOPC  H17X21997   5.812   4.744   7.106 -0.5460 -1.6934  0.6558
  179DOPC  H17Y21998   5.696   4.880   7.079 -1.5940 -0.9324 -0.5924
  179DOPC  C31821999   5.716   4.818   7.285  0.4990 -0.4740  0.0659
  179DOPC  H18X22000   5.619   4.857   7.323  1.7849  1.5003  1.5002
  179DOPC  H18Y22001   5.734   4.727   7.346 -1.0427  1.1020  3.0397
  179DOPC  H18Z22002   5.786   4.903   7.301  0.5497 -0.7257  1.2330
  180DOPC     N22003   5.630   3.051   5.149 -0.0112  0.3358  0.8717
  180DOPC   C1222004   5.582   2.963   5.031  0.0293 -0.1657 -0.7054
  180DOPC  H12A22005   5.614   2.861   5.043  0.7309 -0.0765 -1.6578
  180DOPC  H12B22006   5.637   2.997   4.944  2.0721 -3.0689 -0.6733
  180DOPC   C1322007   5.772   3.028   5.177 -0.3532  0.0778  0.9647
  180DOPC  H13A22008   5.780   2.921   5.193 -3.5384 -0.3409  0.4897
  180DOPC  H13B22009   5.838   3.063   5.100  2.0197 -3.1536  1.3236
  180DOPC  H13C22010   5.797   3.079   5.269  1.7370 -0.3307  0.6710
  180DOPC   C1422011   5.552   3.012   5.269 -0.7255  0.2825  0.5404
  180DOPC  H14A22012   5.447   3.005   5.244 -0.4959 -0.7715 -0.2160
  180DOPC  H14B22013   5.568   2.909   5.296  3.3104  0.4456 -0.6538
  180DOPC  H14C22014   5.552   3.079   5.354 -0.4507 -0.9398  1.5344
  180DOPC   C1522015   5.610   3.192   5.132  0.2655 -0.5949 -0.4597
  180DOPC  H15A22016   5.643   3.232   5.037 -1.1580 -0.3611 -0.8738
  180DOPC  H15B22017   5.660   3.260   5.199  0.6037  1.0377 -2.2760
  180DOPC  H15C22018   5.507   3.223   5.134  0.7531  1.3039 -1.6855
  180DOPC   C1122019   5.426   2.952   5.014 -0.3280 -0.4135  0.3051
  180DOPC  H11A22020   5.383   3.055   5.011 -0.4896 -0.4898 -0.0948
  180DOPC  H11B22021   5.405   2.917   4.911 -0.5584  2.9844 -0.9363
  180DOPC     P22022   5.354   2.715   5.117  0.1308 -0.2073  0.0638
  180DOPC   O1322023   5.496   2.669   5.111 -0.0420 -0.4869 -0.1992
  180DOPC   O1422024   5.258   2.672   5.015  0.0934  0.1688  0.2506
  180DOPC   O1222025   5.362   2.871   5.116 -0.1737 -0.0971 -0.1496
  180DOPC   O1122026   5.298   2.688   5.266 -0.6084 -0.5807  0.6668
  180DOPC    C122027   5.344   2.771   5.374  0.0239  0.0992  0.3637
  180DOPC    HA22028   5.292   2.868   5.359  2.2323  1.1681 -0.9538
  180DOPC    HB22029   5.453   2.790   5.364  0.1198 -0.3145  0.6203
  180DOPC    C222030   5.314   2.714   5.513 -0.3780  0.5632  0.4684
  180DOPC    HS22031   5.206   2.689   5.513 -0.0516 -1.1176  2.3835
  180DOPC   O2122032   5.337   2.814   5.615 -0.7195 -0.2907 -0.0218
  180DOPC   C2122033   5.253   2.808   5.713  0.2496  0.3140 -0.7180
  180DOPC   O2222034   5.151   2.737   5.724 -0.9169  0.3460  0.0391
  180DOPC   C2222035   5.296   2.898   5.840  0.0593 -0.2436  0.1708
  180DOPC   H2R22036   5.228   2.985   5.830 -1.9110 -1.5995  1.0557
  180DOPC   H2S22037   5.398   2.939   5.826 -0.0130 -0.6784 -1.9900
  180DOPC    C322038   5.389   2.581   5.540  0.2093  0.0234  1.3218
  180DOPC    HX22039   5.499   2.597   5.550  0.3516  0.6574 -0.8197
  180DOPC    HY22040   5.367   2.529   5.445 -1.0053  1.6107  0.7028
  180DOPC   O3122041   5.344   2.508   5.658  0.0313  0.2543 -0.3067
  180DOPC   C3122042   5.230   2.437   5.652 -0.6702  0.8752 -0.3213
  180DOPC   O3222043   5.164   2.427   5.552 -0.0490  0.0210 -0.0108
  180DOPC   C3222044   5.175   2.378   5.789 -0.5242  0.6623 -0.2759
  180DOPC   H2X22045   5.068   2.406   5.794 -0.7081  0.0305 -0.6170
  180DOPC   H2Y22046   5.174   2.268   5.778  2.6349  0.2085  2.4603
  180DOPC   C2322047   5.290   2.821   5.973 -0.0750 -0.6587 -0.5956
  180DOPC   H3R22048   5.359   2.735   5.968  0.0278 -0.5699 -0.7191
  180DOPC   H3S22049   5.191   2.779   6.000 -0.9120  1.3479 -0.3881
  180DOPC   C2422050   5.343   2.907   6.091 -0.5779 -0.4941 -0.7418
  180DOPC   H4R22051   5.280   2.997   6.109 -0.3023 -0.5806  0.7179
  180DOPC   H4S22052   5.441   2.951   6.064 -1.3827  2.2026  0.3200
  180DOPC   C2522053   5.356   2.833   6.230  0.0856  0.2209  0.0942
  180DOPC   H5R22054   5.441   2.763   6.220  0.3261  0.3340  1.1917
  180DOPC   H5S22055   5.262   2.773   6.230 -0.1397  0.5429 -1.4476
  180DOPC   C2622056   5.375   2.928   6.353 -0.0203  1.0277 -0.8711
  180DOPC   H6R22057   5.279   2.985   6.352  0.1482  1.3219 -0.5802
  180DOPC   H6S22058   5.458   2.998   6.331  2.0403 -0.8647  0.4977
  180DOPC   C2722059   5.399   2.841   6.473  0.8084  0.2463  0.5034
  180DOPC   H7R22060   5.494   2.786   6.457  0.4364 -0.4279  0.5295
  180DOPC   H7S22061   5.324   2.760   6.486  3.0113 -2.0291 -0.1947
  180DOPC   C2822062   5.422   2.914   6.606  0.7008 -0.5262  0.2203
  180DOPC   H8R22063   5.508   2.981   6.587 -0.9749  1.5162 -0.5114
  180DOPC   H8S22064   5.460   2.848   6.686  0.6797 -0.2502  0.4606
  180DOPC   C2922065   5.295   2.991   6.652 -0.2823  0.2298  0.3847
  180DOPC   H9R22066   5.238   3.039   6.572 -3.4724 -1.3899  1.5176
  180DOPC  C21022067   5.231   2.980   6.773  0.0120  0.1597 -0.4951
  180DOPC  H10R22068   5.147   3.049   6.791 -0.5990 -0.9845  1.2530
  180DOPC  C21122069   5.277   2.897   6.887  0.2681 -0.0439 -0.7245
  180DOPC  H11R22070   5.334   2.808   6.855  0.1783  0.0100 -1.0410
  180DOPC  H11S22071   5.187   2.871   6.948  1.0795 -0.0633  0.4872
  180DOPC  C21222072   5.374   2.979   6.969  0.1522  0.3852  0.4823
  180DOPC  H12R22073   5.339   3.078   7.004  0.0536  0.8842 -0.9642
  180DOPC  H12S22074   5.468   3.003   6.915  0.6856  1.3297  1.7854
  180DOPC  C21322075   5.415   2.901   7.092 -0.1841 -0.1729  0.3652
  180DOPC  H13R22076   5.430   2.794   7.067 -0.6876  0.0756 -1.0887
  180DOPC  H13S22077   5.325   2.896   7.158 -0.3074  0.2048  0.2291
  180DOPC  C21422078   5.539   2.954   7.170 -0.5370  0.3385  0.3612
  180DOPC  H14R22079   5.513   3.045   7.228 -1.0797  1.6715 -1.8292
  180DOPC  H14S22080   5.618   2.984   7.098 -2.1575  0.2210 -1.5456
  180DOPC  C21522081   5.603   2.852   7.264 -0.5208 -0.5317 -0.2145
  180DOPC  H15R22082   5.642   2.784   7.186  3.1173 -0.2849  1.1791
  180DOPC  H15S22083   5.529   2.805   7.333  2.1361 -1.0984  2.4648
  180DOPC  C21622084   5.724   2.911   7.340  0.2095 -0.1037  0.4774
  180DOPC  H16R22085   5.693   2.989   7.413 -2.3720  1.3867 -1.9725
  180DOPC  H16S22086   5.792   2.961   7.268  1.4331 -1.8426  0.3727
  180DOPC  C21722087   5.805   2.798   7.403  0.4227 -0.1110 -0.5785
  180DOPC  H17R22088   5.851   2.732   7.327  0.6428 -0.9163  0.2354
  180DOPC  H17S22089   5.742   2.747   7.479 -1.2613  2.8161  0.1458
  180DOPC  C21822090   5.928   2.849   7.490 -0.4375  0.5022  0.7616
  180DOPC  H18R22091   5.958   2.757   7.543 -2.3711 -1.2247 -0.9757
  180DOPC  H18S22092   5.897   2.930   7.560 -0.9480 -1.7796  3.3330
  180DOPC  H18T22093   6.001   2.895   7.420 -2.0141 -1.0268 -2.0791
  180DOPC   C3322094   5.241   2.427   5.915  0.2090 -0.1752 -0.0454
  180DOPC   H3X22095   5.239   2.536   5.898  1.1716  0.0472  1.1210
  180DOPC   H3Y22096   5.350   2.404   5.922  0.2165 -0.2255 -0.3353
  180DOPC   C3422097   5.164   2.381   6.044 -0.5441  0.9628  0.3266
  180DOPC   H4X22098   5.213   2.290   6.085 -0.3019  1.1533  0.4629
  180DOPC   H4Y22099   5.058   2.356   6.021 -0.4285  0.0897  0.7058
  180DOPC   C3522100   5.173   2.482   6.160  0.8088  0.6856 -0.2856
  180DOPC   H5X22101   5.092   2.558   6.159 -1.5024 -1.6237 -0.1588
  180DOPC   H5Y22102   5.275   2.522   6.142  1.6673 -1.1528  0.3064
  180DOPC   C3622103   5.179   2.413   6.299  0.3016 -0.0853  0.8321
  180DOPC   H6X22104   5.077   2.371   6.317  0.5094 -0.3205  1.5053
  180DOPC   H6Y22105   5.259   2.337   6.295  2.7766  2.2920  1.9154
  180DOPC   C3722106   5.229   2.509   6.405  0.6624  0.5141 -0.0177
  180DOPC   H7X22107   5.320   2.550   6.356 -0.5266  3.7203  0.2226
  180DOPC   H7Y22108   5.163   2.598   6.418  2.6695  1.8980  1.1736
  180DOPC   C3822109   5.273   2.435   6.531 -0.6184  0.3210  0.5153
  180DOPC   H8X22110   5.370   2.386   6.510 -2.1820 -2.0767 -1.5694
  180DOPC   H8Y22111   5.192   2.361   6.546 -0.3997 -0.6900 -2.6762
  180DOPC   C3922112   5.285   2.529   6.645 -0.3529  0.3751 -0.3214
  180DOPC   H9X22113   5.299   2.637   6.631  0.9079  0.2532 -0.0868
  180DOPC  C31022114   5.281   2.476   6.771 -0.1275 -0.2566  0.1064
  180DOPC  H10X22115   5.266   2.550   6.851 -0.4667 -0.0869 -0.1115
  180DOPC  C31122116   5.255   2.337   6.804  0.4926  0.4515 -0.7805
  180DOPC  H11X22117   5.335   2.302   6.873  0.2625  0.7778 -0.3440
  180DOPC  H11Y22118   5.265   2.271   6.715 -1.5584 -0.5740 -0.3148
  180DOPC  C31222119   5.115   2.320   6.869  0.3130  0.0476  0.2131
  180DOPC  H12X22120   5.095   2.211   6.880  1.3934  0.0048  2.3373
  180DOPC  H12Y22121   5.055   2.362   6.786  0.3875 -2.3645 -1.1680
  180DOPC  C31322122   5.103   2.373   7.013 -0.0548  0.5346 -0.2269
  180DOPC  H13X22123   5.156   2.306   7.084  0.2526 -0.7291 -1.6048
  180DOPC  H13Y22124   5.147   2.474   7.024 -1.0596  1.2025 -1.9694
  180DOPC  C31422125   4.956   2.391   7.061 -1.0945  0.0272  0.2006
  180DOPC  H14X22126   4.911   2.471   6.999 -0.6599 -0.4206 -0.7116
  180DOPC  H14Y22127   4.898   2.298   7.044 -1.2236  0.4504 -1.8853
  180DOPC  C31522128   4.965   2.424   7.211  0.0451  0.0101  0.4431
  180DOPC  H15X22129   4.995   2.531   7.214 -0.4752  0.2021 -0.6925
  180DOPC  H15Y22130   5.041   2.360   7.262  0.9878 -1.4725 -2.5474
  180DOPC  C31622131   4.821   2.404   7.275 -0.1034 -0.4554  0.0414
  180DOPC  H16X22132   4.752   2.467   7.215  0.8928  1.5351  0.9126
  180DOPC  H16Y22133   4.784   2.299   7.270  1.6644 -1.1151 -0.1187
  180DOPC  C31722134   4.812   2.466   7.413  0.6318  0.1557  0.0986
  180DOPC  H17X22135   4.870   2.405   7.486 -0.3089  0.8821  1.4984
  180DOPC  H17Y22136   4.862   2.565   7.416  0.4758  0.2309  2.5301
  180DOPC  C31822137   4.668   2.485   7.462 -0.3971 -0.1177  0.2271
  180DOPC  H18X22138   4.674   2.546   7.554  0.5077  0.7419 -0.3825
  180DOPC  H18Y22139   4.604   2.549   7.398 -2.5159 -3.3764 -1.1712
  180DOPC  H18Z22140   4.623   2.383   7.467  0.5705 -0.6297 -0.9268
  181DOPC     N22141   0.249   2.927   4.740  0.5997 -0.0865  0.2230
  181DOPC   C1222142   0.291   3.013   4.863  0.1103  0.1697 -0.1976
  181DOPC  H12A22143   0.243   2.970   4.950 -0.2960  1.9145  0.4829
  181DOPC  H12B22144   0.244   3.110   4.852  0.4146  0.0956 -2.8390
  181DOPC   C1322145   0.323   2.981   4.619 -0.2148  0.1522 -0.8149
  181DOPC  H13A22146   0.300   2.927   4.528  2.7598 -0.8130 -1.1077
  181DOPC  H13B22147   0.301   3.085   4.602  2.5124  1.4418  2.5053
  181DOPC  H13C22148   0.428   2.959   4.626 -0.1292  0.3677 -1.3649
  181DOPC   C1422149   0.105   2.940   4.713  0.3236  0.6608  0.4090
  181DOPC  H14A22150   0.055   2.893   4.796 -0.0985  1.4870  0.6351
  181DOPC  H14B22151   0.066   3.040   4.709  0.2715  0.6287  0.1140
  181DOPC  H14C22152   0.087   2.892   4.618 -0.3155  0.4213  0.6456
  181DOPC   C1522153   0.280   2.786   4.753  0.0670  0.3087 -0.5629
  181DOPC  H15A22154   0.234   2.747   4.843  2.0554 -0.8848  0.0102
  181DOPC  H15B22155   0.383   2.757   4.769  0.5110  1.4445 -1.2170
  181DOPC  H15C22156   0.237   2.734   4.669 -1.0977  0.0173  0.1894
  181DOPC   C1122157   0.440   3.026   4.902  0.8169 -0.2321  0.3272
  181DOPC  H11A22158   0.440   3.067   5.005 -1.8724  0.3316  0.1662
  181DOPC  H11B22159   0.466   2.918   4.906 -1.0999 -0.7396  0.0914
  181DOPC     P22160   0.657   3.049   4.768  0.0829 -0.1259 -0.8179
  181DOPC   O1322161   0.740   3.166   4.732 -0.0506 -0.2690  0.0287
  181DOPC   O1422162   0.639   2.937   4.670  0.2946 -0.9112 -0.2173
  181DOPC   O1222163   0.513   3.102   4.804 -0.4490  0.0674  0.0114
  181DOPC   O1122164   0.707   2.987   4.909 -0.3917  0.5408 -0.0491
  181DOPC    C122165   0.832   3.027   4.980  0.2309 -0.2708 -0.2091
  181DOPC    HA22166   0.862   3.131   4.955  0.2701 -0.3407 -0.4531
  181DOPC    HB22167   0.919   2.962   4.953 -0.9151 -1.2483 -1.7193
  181DOPC    C222168   0.817   3.017   5.137 -0.5341 -0.3424  0.7220
  181DOPC    HS22169   0.835   2.909   5.151  0.0435 -0.4824 -0.9150
  181DOPC   O2122170   0.682   3.054   5.172 -0.1759 -0.7802  0.3815
  181DOPC   C2122171   0.613   2.976   5.254  0.0540  0.2958 -0.7912
  181DOPC   O2222172   0.655   2.878   5.312 -0.1256 -0.1788 -0.6160
  181DOPC   C2222173   0.469   3.036   5.283  0.4875  0.4473  0.2738
  181DOPC   H2R22174   0.404   2.947   5.278 -1.4783  1.8193  0.4370
  181DOPC   H2S22175   0.441   3.103   5.199  1.7234  1.1641  0.4009
  181DOPC    C322176   0.927   3.093   5.214  0.1457 -0.0993 -0.2069
  181DOPC    HX22177   0.922   3.199   5.182  2.3596  0.0837 -0.1059
  181DOPC    HY22178   1.020   3.043   5.180  1.6389  3.0750 -1.1238
  181DOPC   O3122179   0.907   3.063   5.355 -0.4749 -0.0269  0.2991
  181DOPC   C3122180   0.856   3.159   5.429  0.6244  0.5827 -0.6766
  181DOPC   O3222181   0.833   3.279   5.396  0.2667  0.5261  0.1181
  181DOPC   C3222182   0.815   3.095   5.565  0.4823  0.2069 -0.4188
  181DOPC   H2X22183   0.756   3.005   5.536  1.8060 -0.8113 -0.0609
  181DOPC   H2Y22184   0.907   3.040   5.595 -0.1822 -1.2421 -0.8986
  181DOPC   C2322185   0.450   3.115   5.416 -0.1937 -0.1724  0.4102
  181DOPC   H3R22186   0.353   3.168   5.427  0.0815  0.2149  1.0328
  181DOPC   H3S22187   0.533   3.189   5.428 -0.5522  0.6154 -1.6022
  181DOPC   C2422188   0.457   3.012   5.530 -0.9474 -0.5594  0.9961
  181DOPC   H4R22189   0.559   2.972   5.548  0.3665  3.1308  2.7592
  181DOPC   H4S22190   0.399   2.924   5.496 -0.1205 -0.1038 -1.8633
  181DOPC   C2522191   0.394   3.073   5.658  0.4736 -0.0430 -0.1347
  181DOPC   H5R22192   0.292   3.109   5.636  0.3120 -0.0317  0.6040
  181DOPC   H5S22193   0.444   3.167   5.690 -0.3449 -0.5193  2.8841
  181DOPC   C2622194   0.381   2.967   5.769 -0.7359 -0.3983  0.7914
  181DOPC   H6R22195   0.481   2.922   5.790 -0.7161 -0.5149  0.4482
  181DOPC   H6S22196   0.325   2.881   5.728 -0.3937 -1.7452  2.9924
  181DOPC   C2722197   0.320   3.013   5.899  0.2626  0.1978  0.7642
  181DOPC   H7R22198   0.213   3.038   5.881  0.3763  1.2789  1.4893
  181DOPC   H7S22199   0.371   3.110   5.920  0.5541  0.4571 -0.9572
  181DOPC   C2822200   0.331   2.919   6.026  0.6067 -0.6306 -0.2313
  181DOPC   H8R22201   0.334   2.983   6.117  0.0388 -0.0478 -0.6167
  181DOPC   H8S22202   0.432   2.873   6.021  1.4093  1.0112  0.1961
  181DOPC   C2922203   0.223   2.820   6.045  1.2123 -0.4000 -0.4166
  181DOPC   H9R22204   0.170   2.792   5.953  1.3544 -0.2881 -0.5325
  181DOPC  C21022205   0.178   2.774   6.159  0.8242 -0.3973  1.2142
  181DOPC  H10R22206   0.097   2.703   6.178 -0.0041  0.2946  0.3306
  181DOPC  C21122207   0.236   2.802   6.293  0.3558  0.3289  0.2552
  181DOPC  H11R22208   0.312   2.882   6.287  1.9215 -1.0243  1.3242
  181DOPC  H11S22209   0.295   2.715   6.329 -1.0633 -1.1006 -0.6969
  181DOPC  C21222210   0.135   2.843   6.406  0.0376  0.1987  0.1613
  181DOPC  H12R22211   0.080   2.932   6.370  2.5741  1.0591 -1.8671
  181DOPC  H12S22212   0.188   2.872   6.499 -3.0267  4.9139  0.7803
  181DOPC  C21322213   0.029   2.737   6.449  0.4724 -0.2219  0.0661
  181DOPC  H13R22214  -0.053   2.732   6.375  0.1298  1.2456  0.3217
  181DOPC  H13S22215  -0.026   2.775   6.537  0.5869  3.3437 -1.2247
  181DOPC  C21422216   0.081   2.595   6.488 -0.1637 -0.3071  0.1224
  181DOPC  H14R22217   0.141   2.565   6.399  0.1755  3.3276 -1.0201
  181DOPC  H14S22218  -0.004   2.525   6.503 -2.5628  1.9088 -2.1185
  181DOPC  C21522219   0.177   2.597   6.614  0.0124  0.0148  0.5377
  181DOPC  H15R22220   0.268   2.656   6.591  0.4197 -0.9973 -0.5551
  181DOPC  H15S22221   0.210   2.495   6.640 -1.2718  0.0954  2.7006
  181DOPC  C21622222   0.123   2.638   6.747  0.0556  0.3500 -0.3219
  181DOPC  H16R22223   0.085   2.743   6.745 -4.2888 -1.0083 -0.2112
  181DOPC  H16S22224   0.213   2.623   6.810  0.7254 -1.1894 -1.5671
  181DOPC  C21722225   0.006   2.546   6.798  0.1743  0.2865  0.1212
  181DOPC  H17R22226   0.051   2.447   6.774 -2.2453 -1.1650  1.1999
  181DOPC  H17S22227  -0.099   2.549   6.760 -0.2192  2.1164  1.2001
  181DOPC  C21822228  -0.017   2.561   6.950  0.6952  0.1550 -0.2814
  181DOPC  H18R22229  -0.042   2.660   6.993  3.3235  1.1220 -0.7951
  181DOPC  H18S22230   0.069   2.512   7.000 -0.2262 -1.9326 -0.6451
  181DOPC  H18T22231  -0.105   2.502   6.983 -0.5734  2.1743  0.1512
  181DOPC   C3322232   0.758   3.194   5.659 -0.5663 -0.3381  0.4297
  181DOPC   H3X22233   0.661   3.226   5.616 -0.0440 -1.0371 -1.3749
  181DOPC   H3Y22234   0.816   3.288   5.665 -2.3540  0.9888 -1.6085
  181DOPC   C3422235   0.749   3.124   5.790 -0.4311  0.6116 -0.5182
  181DOPC   H4X22236   0.850   3.089   5.818 -1.3570 -1.6168  0.3048
  181DOPC   H4Y22237   0.689   3.033   5.766 -0.6195  0.4472  0.5380
  181DOPC   C3522238   0.682   3.208   5.895 -0.3699  0.2228  0.5437
  181DOPC   H5X22239   0.582   3.241   5.860 -0.3035  1.1354  1.1603
  181DOPC   H5Y22240   0.749   3.296   5.911  1.0135 -1.0642  2.2440
  181DOPC   C3622241   0.678   3.129   6.026  0.1776 -0.1536 -0.0668
  181DOPC   H6X22242   0.607   3.044   6.013  0.6971 -1.5127  4.4469
  181DOPC   H6Y22243   0.781   3.096   6.050 -0.3419 -3.4351 -1.7700
  181DOPC   C3722244   0.620   3.207   6.153 -0.0427  0.2572  0.6527
  181DOPC   H7X22245   0.675   3.302   6.171  0.2592  0.3275 -0.5716
  181DOPC   H7Y22246   0.516   3.232   6.124 -0.0663 -1.1799 -0.6148
  181DOPC   C3822247   0.612   3.131   6.288 -0.0207  0.2875 -0.2376
  181DOPC   H8X22248   0.536   3.050   6.284 -2.0183  1.8680  2.3009
  181DOPC   H8Y22249   0.573   3.211   6.354  2.2394 -0.1484  1.7519
  181DOPC   C3922250   0.752   3.090   6.341  0.3493 -0.1125 -0.0685
  181DOPC   H9X22251   0.828   3.073   6.264 -0.2217 -0.7968 -0.4993
  181DOPC  C31022252   0.777   3.063   6.476 -0.0344 -0.5525  0.0419
  181DOPC  H10X22253   0.863   3.003   6.510  1.2920  0.5717 -1.1945
  181DOPC  C31122254   0.674   3.065   6.585 -0.5311  0.6146  0.3885
  181DOPC  H11X22255   0.697   2.983   6.656 -0.9197 -0.1466 -0.3437
  181DOPC  H11Y22256   0.576   3.026   6.550  0.2469 -1.4741  0.4114
  181DOPC  C31222257   0.649   3.195   6.664 -0.3220 -0.0607 -0.0123
  181DOPC  H12X22258   0.657   3.285   6.600  2.9723  2.4934  3.5383
  181DOPC  H12Y22259   0.742   3.206   6.724 -0.3623  0.4808 -0.0405
  181DOPC  C31322260   0.514   3.205   6.735 -0.5967  0.5696 -1.0471
  181DOPC  H13X22261   0.505   3.305   6.782 -0.7819  0.0536  0.0407
  181DOPC  H13Y22262   0.427   3.186   6.667 -1.5330 -1.4110  0.5693
  181DOPC  C31422263   0.496   3.092   6.839 -0.3075  0.4442 -0.5704
  181DOPC  H14X22264   0.478   2.995   6.787 -0.0269 -1.4092  2.5430
  181DOPC  H14Y22265   0.587   3.065   6.897  1.9251 -0.9816 -4.3420
  181DOPC  C31522266   0.371   3.112   6.931 -1.0738 -0.0532 -0.0081
  181DOPC  H15X22267   0.279   3.130   6.872 -0.2576  0.5671 -1.1194
  181DOPC  H15Y22268   0.389   3.202   6.994 -3.0015 -1.2437  2.4107
  181DOPC  C31622269   0.355   2.990   7.026  0.0107  0.0968 -0.5252
  181DOPC  H16X22270   0.358   2.897   6.965  0.1160 -0.3954  0.2103
  181DOPC  H16Y22271   0.431   2.967   7.104 -2.1532 -0.2128  1.6363
  181DOPC  C31722272   0.214   2.996   7.081 -0.4455  0.3118 -0.7316
  181DOPC  H17X22273   0.193   3.082   7.148  0.0882 -0.2203  0.1205
  181DOPC  H17Y22274   0.135   3.017   7.005 -1.9752 -1.4291  0.2958
  181DOPC  C31822275   0.180   2.875   7.159  0.0464  0.0247  0.0407
  181DOPC  H18X22276   0.098   2.899   7.230  0.2551  0.4224  0.1535
  181DOPC  H18Y22277   0.146   2.794   7.091 -3.3685  1.8143 -0.6086
  181DOPC  H18Z22278   0.268   2.839   7.217  1.1102  1.1497 -0.7953
  182DOPC     N22279   1.948   0.852   4.426  0.7842  0.5770  0.0815
  182DOPC   C1222280   1.910   0.874   4.568  0.2763  0.5104 -0.3255
  182DOPC  H12A22281   1.905   0.784   4.627  1.3977  1.0178  0.6035
  182DOPC  H12B22282   1.810   0.914   4.562 -0.1671 -0.7217 -1.5408
  182DOPC   C1322283   2.077   0.787   4.409 -0.9286  0.4623  0.9231
  182DOPC  H13A22284   2.089   0.768   4.303 -0.4789  1.7571  0.7211
  182DOPC  H13B22285   2.162   0.842   4.446  0.5476 -2.7081  2.7468
  182DOPC  H13C22286   2.077   0.697   4.469 -0.3255  0.8075  1.4584
  182DOPC   C1422287   1.955   0.982   4.359 -0.1848  0.3185  0.6082
  182DOPC  H14A22288   1.958   0.970   4.252  0.3938  1.4666  0.4844
  182DOPC  H14B22289   1.860   1.031   4.372 -0.2369  0.4829 -0.3271
  182DOPC  H14C22290   2.040   1.038   4.395  0.6769  0.2625 -1.2297
  182DOPC   C1522291   1.839   0.770   4.353 -0.1035 -0.4783  0.3182
  182DOPC  H15A22292   1.739   0.807   4.369 -0.3665 -0.4537 -1.1987
  182DOPC  H15B22293   1.835   0.666   4.385 -0.6375 -0.4848  0.2381
  182DOPC  H15C22294   1.853   0.784   4.247  2.7620 -0.2967  0.6526
  182DOPC   C1122295   2.000   0.960   4.661  0.0847  0.6420  0.0089
  182DOPC  H11A22296   1.993   1.061   4.614 -0.6064 -0.9217 -3.6079
  182DOPC  H11B22297   1.959   0.977   4.763 -0.1340  0.4393 -0.0428
  182DOPC     P22298   2.251   1.009   4.731  0.2946  0.1625 -0.0105
  182DOPC   O1322299   2.262   1.127   4.641  0.3601 -0.3973 -0.8134
  182DOPC   O1422300   2.375   0.936   4.746 -0.1852  0.6914 -0.1486
  182DOPC   O1222301   2.137   0.911   4.675  0.5426  0.0791  0.5616
  182DOPC   O1122302   2.195   1.048   4.869 -0.4258 -0.0792 -0.7165
  182DOPC    C122303   2.204   0.956   4.975 -0.0567 -0.5847 -0.1813
  182DOPC    HA22304   2.291   0.990   5.036  1.9001 -1.4385 -2.3481
  182DOPC    HB22305   2.207   0.847   4.955  1.4481 -0.5362 -0.3277
  182DOPC    C222306   2.094   0.977   5.080  0.1362 -0.1914  0.4808
  182DOPC    HS22307   2.034   1.067   5.056 -0.1435 -0.7643 -1.0933
  182DOPC   O2122308   2.156   0.975   5.211 -0.0538  0.4512 -0.1196
  182DOPC   C2122309   2.190   1.094   5.257 -0.5127 -0.3453  0.5976
  182DOPC   O2222310   2.178   1.197   5.189 -0.3770  0.1128 -0.2910
  182DOPC   C2222311   2.242   1.084   5.400  0.2274 -0.1072  0.1777
  182DOPC   H2R22312   2.319   1.004   5.403 -0.2729 -0.5850  0.7885
  182DOPC   H2S22313   2.158   1.057   5.468  0.3044  0.1306  0.3670
  182DOPC    C322314   1.987   0.865   5.071 -0.4716  0.0049 -0.0429
  182DOPC    HX22315   2.046   0.774   5.093  0.6101  1.0530  1.5943
  182DOPC    HY22316   1.944   0.861   4.968 -1.6299 -0.5950  0.4454
  182DOPC   O3122317   1.893   0.890   5.173 -0.8515 -0.1730 -0.1284
  182DOPC   C3122318   1.845   0.778   5.238  0.1759 -0.8482  0.0372
  182DOPC   O3222319   1.858   0.666   5.202  0.0805  0.8113 -0.5025
  182DOPC   C3222320   1.760   0.816   5.366 -0.1037 -0.6856  0.5658
  182DOPC   H2X22321   1.793   0.922   5.373 -1.3936 -0.0959 -1.2980
  182DOPC   H2Y22322   1.654   0.805   5.336 -0.1572  0.5029  0.2804
  182DOPC   C2322323   2.290   1.217   5.455 -0.1795 -0.1420 -0.9744
  182DOPC   H3R22324   2.211   1.294   5.440 -1.8019 -1.2836  1.0308
  182DOPC   H3S22325   2.378   1.251   5.397  1.7242  0.8984  2.2356
  182DOPC   C2422326   2.321   1.205   5.607  0.0924 -0.5851 -0.0650
  182DOPC   H4R22327   2.387   1.289   5.636  2.0746 -1.3084 -2.1909
  182DOPC   H4S22328   2.388   1.117   5.614  0.7017 -0.1584 -0.4494
  182DOPC   C2522329   2.210   1.180   5.703 -0.3723 -0.0331 -0.6329
  182DOPC   H5R22330   2.157   1.086   5.678 -3.3851  1.1456  0.7708
  182DOPC   H5S22331   2.133   1.257   5.727 -0.0446 -0.4367  1.9926
  182DOPC   C2622332   2.274   1.142   5.838  0.1557  0.3794  0.1910
  182DOPC   H6R22333   2.341   1.226   5.866 -1.7989  2.0496  0.1418
  182DOPC   H6S22334   2.327   1.045   5.836 -1.2290 -0.5198  2.4097
  182DOPC   C2722335   2.175   1.115   5.954  0.4578  0.5440  0.3912
  182DOPC   H7R22336   2.124   1.019   5.930  0.8486  0.6298 -0.8331
  182DOPC   H7S22337   2.092   1.189   5.957 -0.4991 -0.5269  2.2799
  182DOPC   C2822338   2.252   1.113   6.085 -0.0962  0.3272  0.1348
  182DOPC   H8R22339   2.354   1.077   6.061 -1.0525 -2.6519  0.1475
  182DOPC   H8S22340   2.206   1.034   6.147  0.4004  1.3177  1.8382
  182DOPC   C2922341   2.249   1.245   6.164  0.1181  0.1927 -0.2315
  182DOPC   H9R22342   2.205   1.333   6.114 -0.5405  0.3792  0.6558
  182DOPC  C21022343   2.305   1.268   6.277  0.4964 -0.4352 -0.4752
  182DOPC  H10R22344   2.291   1.366   6.324 -0.1872  0.8703 -3.1866
  182DOPC  C21122345   2.370   1.165   6.361 -0.1498  0.0107  0.0247
  182DOPC  H11R22346   2.479   1.187   6.362 -0.7060  3.3736  0.3676
  182DOPC  H11S22347   2.368   1.067   6.310  0.2963 -0.0234  0.0672
  182DOPC  C21222348   2.323   1.155   6.502 -0.0718 -0.0994  0.2181
  182DOPC  H12R22349   2.361   1.058   6.539  2.5787  1.4507  1.8916
  182DOPC  H12S22350   2.212   1.163   6.506 -0.4527 -2.0261 -2.9150
  182DOPC  C21322351   2.383   1.270   6.593  0.3199  0.6620 -0.1758
  182DOPC  H13R22352   2.383   1.363   6.533  1.3000  0.6540 -0.1987
  182DOPC  H13S22353   2.489   1.249   6.617 -0.0056  0.9069  1.6306
  182DOPC  C21422354   2.296   1.284   6.724  0.3866 -0.2503 -0.6397
  182DOPC  H14R22355   2.195   1.315   6.689  1.1167  0.0479 -2.6710
  182DOPC  H14S22356   2.329   1.371   6.785  1.5283 -2.0291  1.3630
  182DOPC  C21522357   2.285   1.161   6.809 -0.2805 -0.9979  0.3472
  182DOPC  H15R22358   2.260   1.072   6.748  0.0593 -0.9429  0.1238
  182DOPC  H15S22359   2.194   1.177   6.871 -0.8451 -0.3249 -0.6280
  182DOPC  C21622360   2.404   1.134   6.901 -0.3815 -0.6039  0.1421
  182DOPC  H16R22361   2.501   1.130   6.846 -0.3148 -1.9789  0.3183
  182DOPC  H16S22362   2.392   1.034   6.947  0.2369 -3.2932 -4.7837
  182DOPC  C21722363   2.426   1.233   7.017 -0.0067  0.1603  0.2791
  182DOPC  H17R22364   2.419   1.338   6.983 -0.4174 -0.1710 -0.7043
  182DOPC  H17S22365   2.529   1.216   7.056 -0.1083 -0.1958  0.3922
  182DOPC  C21822366   2.342   1.210   7.143  0.3253  0.3345  0.1146
  182DOPC  H18R22367   2.381   1.273   7.226 -1.4272 -0.7462  1.8321
  182DOPC  H18S22368   2.338   1.103   7.173 -2.4619  0.3545  0.0265
  182DOPC  H18T22369   2.235   1.221   7.118  0.7645  0.6014 -1.7475
  182DOPC   C3322370   1.806   0.730   5.489  0.6739 -0.0263 -0.7813
  182DOPC   H3X22371   1.891   0.670   5.452 -1.2632 -1.8883 -2.4953
  182DOPC   H3Y22372   1.723   0.660   5.511  2.6648 -2.6887 -1.3097
  182DOPC   C3422373   1.835   0.819   5.604  0.0448 -0.0699  0.0444
  182DOPC   H4X22374   1.745   0.873   5.639  0.8345 -0.3066  2.7393
  182DOPC   H4Y22375   1.909   0.895   5.571  0.5634  0.1070  1.5129
  182DOPC   C3522376   1.880   0.737   5.728 -0.4370  0.0356 -0.1525
  182DOPC   H5X22377   1.981   0.690   5.725 -1.5393 -2.6304  1.0762
  182DOPC   H5Y22378   1.803   0.665   5.763  0.9192 -0.0855  2.9162
  182DOPC   C3622379   1.893   0.832   5.853  0.2006  0.3757  0.3795
  182DOPC   H6X22380   1.996   0.875   5.852  0.5973 -0.4332 -2.1073
  182DOPC   H6Y22381   1.822   0.916   5.835  1.7161  1.6099 -0.1945
  182DOPC   C3722382   1.850   0.755   5.983 -0.2926 -0.2952  0.0541
  182DOPC   H7X22383   1.739   0.753   5.968 -0.2904  0.6761 -0.2057
  182DOPC   H7Y22384   1.894   0.655   5.997 -0.1324  0.0554  2.3558
  182DOPC   C3822385   1.880   0.848   6.101  0.2628 -0.4467 -0.5000
  182DOPC   H8X22386   1.860   0.954   6.073 -0.9962 -0.6218 -0.3268
  182DOPC   H8Y22387   1.989   0.835   6.117 -0.0732 -1.2286  1.3845
  182DOPC   C3922388   1.808   0.803   6.226  0.5063 -0.2452 -0.6047
  182DOPC   H9X22389   1.734   0.727   6.197 -0.7514  0.7214 -0.0203
  182DOPC  C31022390   1.811   0.859   6.347  0.1790  0.2182  0.2221
  182DOPC  H10X22391   1.745   0.823   6.427  1.5281  0.0160  1.2759
  182DOPC  C31122392   1.886   0.981   6.383 -0.8005  0.0042 -0.1093
  182DOPC  H11X22393   1.857   1.073   6.328  0.4459 -0.1989 -1.1777
  182DOPC  H11Y22394   1.989   0.949   6.354 -1.0048 -3.7648  2.5815
  182DOPC  C31222395   1.912   1.026   6.529  0.1415 -0.1631 -0.1750
  182DOPC  H12X22396   1.995   1.099   6.533 -1.0657  1.2151  0.8441
  182DOPC  H12Y22397   1.945   0.944   6.596 -1.0892 -0.9644 -0.5111
  182DOPC  C31322398   1.785   1.081   6.609 -0.2867 -0.5621 -0.4371
  182DOPC  H13X22399   1.731   1.162   6.557  0.5141  0.5854  0.4558
  182DOPC  H13Y22400   1.704   1.005   6.611 -1.5558  0.6138  3.8103
  182DOPC  C31422401   1.822   1.118   6.756 -0.3245 -0.2336  0.6585
  182DOPC  H14X22402   1.863   1.029   6.807 -0.8134 -1.2775 -0.7171
  182DOPC  H14Y22403   1.898   1.199   6.754 -1.1588  0.5969  1.2374
  182DOPC  C31522404   1.699   1.177   6.834 -0.4490  0.7018  0.4033
  182DOPC  H15X22405   1.633   1.090   6.856 -0.6690  0.9285  0.6497
  182DOPC  H15Y22406   1.650   1.255   6.771  0.3927  2.2848  1.6232
  182DOPC  C31622407   1.735   1.222   6.982 -0.0609  0.2883 -0.2466
  182DOPC  H16X22408   1.822   1.290   6.990  0.3971 -0.0602 -1.8533
  182DOPC  H16Y22409   1.642   1.275   7.013  0.8082 -0.2652  3.7546
  182DOPC  C31722410   1.743   1.115   7.086 -0.3769  0.2410  0.0475
  182DOPC  H17X22411   1.655   1.048   7.091  1.1700 -1.8972  0.0530
  182DOPC  H17Y22412   1.828   1.051   7.051 -0.6912 -0.3947  0.4274
  182DOPC  C31822413   1.784   1.158   7.224  0.1129 -0.3760 -0.1705
  182DOPC  H18X22414   1.766   1.077   7.297  0.3474  0.2116  0.5512
  182DOPC  H18Y22415   1.890   1.191   7.220 -0.5099  1.8038 -0.4603
  182DOPC  H18Z22416   1.725   1.244   7.264  1.1039 -0.0619  0.6518
  183DOPC     N22417   0.450   5.824   4.931  0.3134 -0.1410 -0.1234
  183DOPC   C1222418   0.336   5.728   4.974  0.9486 -0.6740 -0.3896
  183DOPC  H12A22419   0.361   5.626   4.949  0.4725 -1.5607  2.3964
  183DOPC  H12B22420   0.241   5.762   4.934  0.1515 -1.9704  0.3303
  183DOPC   C1322421   0.453   5.810   4.779  0.3925  0.1189 -0.7348
  183DOPC  H13A22422   0.520   5.876   4.726  0.4710  1.7851  1.2657
  183DOPC  H13B22423   0.484   5.709   4.758  1.1340  0.6080 -2.0694
  183DOPC  H13C22424   0.352   5.821   4.744 -0.0620 -1.1520  0.1000
  183DOPC   C1422425   0.581   5.782   4.986  0.3548  0.8930 -0.1369
  183DOPC  H14A22426   0.662   5.826   4.931 -1.0570  2.8795 -0.7546
  183DOPC  H14B22427   0.597   5.799   5.092  0.3153  0.1960 -0.0196
  183DOPC  H14C22428   0.595   5.675   4.982  0.2070  0.8163  0.9445
  183DOPC   C1522429   0.429   5.963   4.983 -0.2393  0.1626 -0.0949
  183DOPC  H15A22430   0.508   6.029   4.952 -0.2702  0.9090  1.3150
  183DOPC  H15B22431   0.422   5.963   5.091 -0.0537  0.0965 -0.0825
  183DOPC  H15C22432   0.330   5.995   4.951 -0.3669 -0.5128 -0.3871
  183DOPC   C1122433   0.298   5.709   5.133  0.1629 -0.2059  0.5649
  183DOPC  H11A22434   0.219   5.785   5.148  1.5442  1.1699  1.2321
  183DOPC  H11B22435   0.261   5.605   5.149  1.7140 -0.7825  0.5940
  183DOPC     P22436   0.390   5.805   5.355 -0.1428  0.0491 -0.0297
  183DOPC   O1322437   0.356   5.943   5.328 -0.5671  0.4672  0.2886
  183DOPC   O1422438   0.511   5.782   5.441  0.7844  0.7406 -0.4486
  183DOPC   O1222439   0.410   5.728   5.219 -0.0743 -0.9402  0.5225
  183DOPC   O1122440   0.269   5.732   5.423  0.6166  0.1337 -0.6328
  183DOPC    C122441   0.288   5.601   5.484 -0.3015 -0.1309 -0.2917
  183DOPC    HA22442   0.394   5.582   5.511 -0.1287  0.5099 -0.5223
  183DOPC    HB22443   0.255   5.523   5.412 -0.8515 -1.1035  0.9650
  183DOPC    C222444   0.211   5.579   5.617  0.0356  0.6070 -0.1676
  183DOPC    HS22445   0.266   5.507   5.683 -0.0256  1.8247  1.2705
  183DOPC   O2122446   0.079   5.526   5.592  0.3711 -0.1420 -0.3298
  183DOPC   C2122447   0.065   5.397   5.560 -0.5065 -0.3121  0.7595
  183DOPC   O2222448   0.160   5.325   5.553  0.0772  0.5097  0.2405
  183DOPC   C2222449  -0.073   5.351   5.543 -0.1692 -0.4949  0.1201
  183DOPC   H2R22450  -0.077   5.327   5.435 -2.8409 -0.2190  0.0920
  183DOPC   H2S22451  -0.150   5.429   5.563 -0.3233  0.0809 -2.3937
  183DOPC    C322452   0.197   5.706   5.708 -0.2581 -0.2285  0.1202
  183DOPC    HX22453   0.155   5.779   5.635  1.9105  0.2038 -0.7456
  183DOPC    HY22454   0.301   5.742   5.721 -0.6664  2.2654 -2.4531
  183DOPC   O3122455   0.123   5.681   5.831 -0.1139  0.2656  0.2415
  183DOPC   C3122456  -0.003   5.697   5.829  0.4850 -0.8002  0.5376
  183DOPC   O3222457  -0.071   5.757   5.743  0.3987 -0.1777  0.0038
  183DOPC   C3222458  -0.067   5.648   5.956 -0.6229 -0.7203  0.2856
  183DOPC   H2X22459  -0.071   5.538   5.937  0.9085 -0.5295 -1.4438
  183DOPC   H2Y22460  -0.008   5.670   6.047 -1.0304  0.4766  0.2802
  183DOPC   C2322461  -0.112   5.212   5.595  0.1492  0.1448 -0.2135
  183DOPC   H3R22462  -0.084   5.203   5.702 -1.3015  2.1563  0.3997
  183DOPC   H3S22463  -0.062   5.136   5.531  1.8315  1.0203 -0.0230
  183DOPC   C2422464  -0.270   5.191   5.597  0.0802 -0.5843  1.0411
  183DOPC   H4R22465  -0.299   5.179   5.490 -0.3406 -1.9506  1.2897
  183DOPC   H4S22466  -0.316   5.286   5.630 -0.9277 -0.5613 -0.3577
  183DOPC   C2522467  -0.330   5.074   5.674  0.4710  0.2595  0.3862
  183DOPC   H5R22468  -0.272   5.073   5.769 -1.5197  1.7991  1.6961
  183DOPC   H5S22469  -0.317   4.981   5.616 -1.3683  1.3743 -1.9611
  183DOPC   C2622470  -0.477   5.085   5.710  0.1027 -0.2088  0.3371
  183DOPC   H6R22471  -0.527   5.108   5.614 -0.6809 -0.1918  0.7402
  183DOPC   H6S22472  -0.493   5.169   5.781 -0.1582 -0.6906  0.8498
  183DOPC   C2722473  -0.539   4.957   5.761 -0.2500  0.0396  0.0191
  183DOPC   H7R22474  -0.500   4.936   5.863  0.3219 -0.6365 -0.3289
  183DOPC   H7S22475  -0.498   4.871   5.705  0.7637 -0.8137  1.9569
  183DOPC   C2822476  -0.690   4.974   5.765 -0.3701  0.3620  0.3305
  183DOPC   H8R22477  -0.718   4.871   5.797  0.2115  0.3286  0.7513
  183DOPC   H8S22478  -0.726   4.977   5.660 -0.5653 -1.5601  0.3019
  183DOPC   C2922479  -0.765   5.078   5.845 -0.2583  0.0692  0.5230
  183DOPC   H9R22480  -0.758   5.179   5.805 -2.9823 -0.5736 -1.8490
  183DOPC  C21022481  -0.858   5.049   5.946  0.2459  0.1778 -0.2442
  183DOPC  H10R22482  -0.895   5.137   6.000 -0.5414 -1.4967  2.0967
  183DOPC  C21122483  -0.881   4.905   6.006 -0.5166 -0.3072 -0.2599
  183DOPC  H11R22484  -0.883   4.825   5.930 -1.4957 -0.4984 -0.0515
  183DOPC  H11S22485  -0.978   4.906   6.061  0.7963 -0.0811  2.1817
  183DOPC  C21222486  -0.761   4.859   6.102  0.1689  0.7344  0.5525
  183DOPC  H12R22487  -0.665   4.857   6.047  0.6212 -0.9740  1.3335
  183DOPC  H12S22488  -0.779   4.755   6.137  0.6062  0.1976 -0.7635
  183DOPC  C21322489  -0.742   4.937   6.231  0.5906  0.3539 -0.2994
  183DOPC  H13R22490  -0.765   5.043   6.205  1.2966  0.3527 -1.0039
  183DOPC  H13S22491  -0.637   4.925   6.263  0.2239 -1.6278  0.2465
  183DOPC  C21422492  -0.827   4.872   6.343  0.2966 -0.3616  0.8361
  183DOPC  H14R22493  -0.808   4.763   6.354 -0.6471 -0.7905 -1.2197
  183DOPC  H14S22494  -0.931   4.889   6.307  0.3559 -1.0064  0.3285
  183DOPC  C21522495  -0.794   4.938   6.479 -0.1324 -0.3099 -0.1900
  183DOPC  H15R22496  -0.815   5.047   6.477 -0.4616 -0.3616  0.1596
  183DOPC  H15S22497  -0.683   4.934   6.483 -0.0519 -1.5298 -2.1776
  183DOPC  C21622498  -0.856   4.864   6.594  0.0879 -0.4188 -0.7167
  183DOPC  H16R22499  -0.833   4.755   6.594  1.0061 -0.2285 -0.8643
  183DOPC  H16S22500  -0.966   4.873   6.581  0.1116 -2.3045 -2.7568
  183DOPC  C21722501  -0.819   4.914   6.733 -0.0184 -0.9311 -0.5112
  183DOPC  H17R22502  -0.859   5.017   6.738  2.4019  0.0449 -0.1488
  183DOPC  H17S22503  -0.709   4.921   6.744 -0.0787  0.0347 -0.4692
  183DOPC  C21822504  -0.873   4.832   6.853 -0.0792 -0.0803  0.5666
  183DOPC  H18R22505  -0.823   4.734   6.869 -1.6010 -0.9373  0.3213
  183DOPC  H18S22506  -0.984   4.819   6.853 -0.4131  2.2288  0.7920
  183DOPC  H18T22507  -0.854   4.893   6.944 -2.2288 -0.2509  1.1930
  183DOPC   C3322508  -0.202   5.713   5.976 -0.1641 -0.2029 -0.9591
  183DOPC   H3X22509  -0.282   5.670   5.912  1.8339  0.0962 -3.8164
  183DOPC   H3Y22510  -0.200   5.821   5.951 -1.2132 -0.1272 -0.7656
  183DOPC   C3422511  -0.244   5.704   6.122  0.8602  0.1844 -0.1740
  183DOPC   H4X22512  -0.173   5.746   6.196 -2.1033  2.2118  1.7414
  183DOPC   H4Y22513  -0.256   5.599   6.156  0.4706  0.9580  2.2465
  183DOPC   C3522514  -0.376   5.789   6.135  0.2944 -0.2214 -0.0737
  183DOPC   H5X22515  -0.447   5.768   6.052 -0.1386 -0.3598  0.3330
  183DOPC   H5Y22516  -0.348   5.895   6.119 -0.9332 -0.0732 -1.4582
  183DOPC   C3622517  -0.432   5.774   6.273 -0.5646  0.1465  0.6505
  183DOPC   H6X22518  -0.476   5.675   6.297 -2.3827 -0.1048 -2.9870
  183DOPC   H6Y22519  -0.355   5.800   6.349 -0.0342  1.7540 -0.3761
  183DOPC   C3722520  -0.536   5.881   6.305 -0.4105  0.5762  0.0317
  183DOPC   H7X22521  -0.497   5.979   6.270 -2.8536  1.2244 -1.0870
  183DOPC   H7Y22522  -0.627   5.859   6.246 -0.2065 -0.1725 -0.0176
  183DOPC   C3822523  -0.574   5.892   6.450  0.5451 -0.1409 -0.3625
  183DOPC   H8X22524  -0.635   5.984   6.462 -1.5765 -1.7151  1.8033
  183DOPC   H8Y22525  -0.476   5.906   6.502 -0.0706  0.1154  0.7514
  183DOPC   C3922526  -0.667   5.787   6.503 -0.1610 -0.4396 -0.1755
  183DOPC   H9X22527  -0.738   5.770   6.420  0.3457  3.7121 -1.6870
  183DOPC  C31022528  -0.651   5.711   6.611 -0.2836 -0.0395  0.2520
  183DOPC  H10X22529  -0.720   5.630   6.639 -0.5517 -0.0857 -0.5150
  183DOPC  C31122530  -0.533   5.712   6.703  0.1974 -0.1218 -0.2501
  183DOPC  H11X22531  -0.466   5.800   6.693  1.5386 -1.2225 -1.4438
  183DOPC  H11Y22532  -0.467   5.624   6.685 -0.7566 -1.1998  1.2815
  183DOPC  C31222533  -0.579   5.711   6.849 -0.2111  0.4426  0.0768
  183DOPC  H12X22534  -0.625   5.612   6.870 -1.0775  0.3256 -2.1446
  183DOPC  H12Y22535  -0.657   5.787   6.869  1.0816  1.5740  1.0493
  183DOPC  C31322536  -0.464   5.730   6.948 -0.4597  0.3092 -0.0019
  183DOPC  H13X22537  -0.401   5.638   6.957 -0.0476  0.7317  1.8486
  183DOPC  H13Y22538  -0.401   5.809   6.903 -2.2778 -0.2564 -4.0496
  183DOPC  C31422539  -0.508   5.766   7.095 -0.2840  0.1231  0.5480
  183DOPC  H14X22540  -0.562   5.862   7.087  0.2815  0.4348  0.4458
  183DOPC  H14Y22541  -0.580   5.690   7.131 -1.1746  1.0314  0.7020
  183DOPC  C31522542  -0.387   5.798   7.184 -0.2988 -0.3108 -0.4362
  183DOPC  H15X22543  -0.324   5.875   7.134  0.5200 -0.3232  0.5329
  183DOPC  H15Y22544  -0.314   5.715   7.196 -0.4916 -0.1960  1.7991
  183DOPC  C31622545  -0.424   5.851   7.323  0.0242  0.6063 -0.9574
  183DOPC  H16X22546  -0.443   5.959   7.308  0.3681  0.7791 -0.1622
  183DOPC  H16Y22547  -0.515   5.796   7.355  0.8280 -0.1926  0.0340
  183DOPC  C31722548  -0.314   5.838   7.434 -0.1196  0.4867 -0.8155
  183DOPC  H17X22549  -0.280   5.732   7.427 -0.6596  0.0587  1.9251
  183DOPC  H17Y22550  -0.237   5.915   7.415  0.6788 -0.2550 -0.6242
  183DOPC  C31822551  -0.369   5.866   7.572  0.2073 -0.0300 -0.0911
  183DOPC  H18X22552  -0.298   5.832   7.651 -0.7592  0.5250  1.0476
  183DOPC  H18Y22553  -0.381   5.976   7.586 -0.7699 -0.3639  2.0194
  183DOPC  H18Z22554  -0.463   5.809   7.587  0.7612 -1.0055 -0.2778
  184DOPC     N22555   4.230   0.144   5.598  0.3290 -0.1880 -0.5601
  184DOPC   C1222556   4.293   0.195   5.725  0.0727  0.2843  0.1997
  184DOPC  H12A22557   4.394   0.216   5.691  0.1860 -2.1838 -1.2927
  184DOPC  H12B22558   4.294   0.117   5.800 -0.9615  0.9915  0.9670
  184DOPC   C1322559   4.302   0.026   5.551 -0.1434 -0.0577  0.2347
  184DOPC  H13A22560   4.303  -0.047   5.631 -1.3204  0.1710  0.4694
  184DOPC  H13B22561   4.253  -0.020   5.467  0.2345  1.4498 -0.8607
  184DOPC  H13C22562   4.403   0.052   5.523 -0.6709  0.7491 -1.0119
  184DOPC   C1422563   4.243   0.249   5.489 -0.1056 -0.2091 -0.0964
  184DOPC  H14A22564   4.205   0.344   5.524  0.5683  0.6654 -1.6577
  184DOPC  H14B22565   4.346   0.273   5.471  0.7979 -2.3306  1.7491
  184DOPC  H14C22566   4.192   0.219   5.399  1.7932 -0.4697 -1.1321
  184DOPC   C1522567   4.093   0.104   5.627  0.5032 -0.5231  0.5634
  184DOPC  H15A22568   4.094   0.033   5.709 -0.8227 -1.3981 -0.1571
  184DOPC  H15B22569   4.046   0.080   5.533  2.1038  3.6746 -1.5692
  184DOPC  H15C22570   4.040   0.191   5.663  0.2120 -0.3927 -0.1751
  184DOPC   C1122571   4.226   0.319   5.797 -0.2302 -0.3251 -0.4096
  184DOPC  H11A22572   4.115   0.308   5.787 -0.2295 -1.0603  0.2798
  184DOPC  H11B22573   4.252   0.330   5.905 -2.3375 -1.1740  0.2433
  184DOPC     P22574   4.419   0.484   5.737 -0.0093 -0.1810 -0.0480
  184DOPC   O1322575   4.420   0.631   5.703  0.4232  0.6653 -0.0185
  184DOPC   O1422576   4.507   0.397   5.658 -0.1577 -0.3006  0.1926
  184DOPC   O1222577   4.279   0.431   5.731  0.5626  0.6484  0.6160
  184DOPC   O1122578   4.453   0.478   5.890 -0.5260  0.7149 -0.4484
  184DOPC    C122579   4.375   0.529   5.995  0.6369 -0.9044 -0.3585
  184DOPC    HA22580   4.383   0.468   6.087  1.9667  0.2121  0.3045
  184DOPC    HB22581   4.266   0.520   5.973  0.1226  1.2238  1.0271
  184DOPC    C222582   4.411   0.680   6.016  0.1978  0.1752  0.0399
  184DOPC    HS22583   4.450   0.719   5.920 -0.0621 -0.7689 -0.4537
  184DOPC   O2122584   4.513   0.689   6.120 -0.8091  0.2355  0.6619
  184DOPC   C2122585   4.582   0.798   6.116 -0.3248 -0.9513  0.4230
  184DOPC   O2222586   4.590   0.878   6.021  0.1934  0.0997 -0.1156
  184DOPC   C2222587   4.658   0.817   6.248  0.7998 -0.1199 -0.7928
  184DOPC   H2R22588   4.706   0.917   6.251  0.6746 -0.0480 -1.2411
  184DOPC   H2S22589   4.749   0.753   6.249  0.9420  0.0844  0.0752
  184DOPC    C322590   4.290   0.770   6.057  0.0473 -0.6408 -0.1109
  184DOPC    HX22591   4.215   0.765   5.975 -0.6628 -0.3693  0.5025
  184DOPC    HY22592   4.318   0.877   6.047  0.5082 -0.8865 -1.8132
  184DOPC   O3122593   4.210   0.731   6.173  0.1569  0.3796 -0.5530
  184DOPC   C3122594   4.203   0.802   6.283  0.0384  0.0689 -0.0137
  184DOPC   O3222595   4.255   0.907   6.298 -0.2425 -0.2083 -0.1362
  184DOPC   C3222596   4.122   0.720   6.382 -0.8546  0.6920 -0.7149
  184DOPC   H2X22597   4.048   0.792   6.424 -0.1521  0.8727  0.2474
  184DOPC   H2Y22598   4.082   0.627   6.337 -1.4764  0.1238  0.9423
  184DOPC   C2322599   4.578   0.783   6.375  0.5025 -0.1064 -0.1311
  184DOPC   H3R22600   4.522   0.687   6.379 -4.5630  2.5092  0.9053
  184DOPC   H3S22601   4.489   0.850   6.380  0.2958 -0.4616  1.2359
  184DOPC   C2422602   4.659   0.791   6.500  0.3072 -0.4373  0.0084
  184DOPC   H4R22603   4.709   0.890   6.491 -0.0437 -0.2724 -0.1379
  184DOPC   H4S22604   4.739   0.715   6.510 -0.0263 -0.4816  5.0309
  184DOPC   C2522605   4.579   0.782   6.631 -0.1660 -1.0476 -0.2876
  184DOPC   H5R22606   4.556   0.674   6.643 -1.2233 -0.7196  0.7790
  184DOPC   H5S22607   4.480   0.830   6.643 -2.4753 -5.6563  1.3387
  184DOPC   C2622608   4.672   0.816   6.750 -0.4808  0.0053 -0.0247
  184DOPC   H6R22609   4.713   0.918   6.734 -0.3329  0.5292  2.9792
  184DOPC   H6S22610   4.760   0.748   6.748 -1.2857 -1.1713 -3.9885
  184DOPC   C2722611   4.588   0.813   6.876  0.2786 -0.4015  0.4720
  184DOPC   H7R22612   4.526   0.720   6.876  0.8494 -0.7895  0.2979
  184DOPC   H7S22613   4.511   0.893   6.870 -1.4955 -2.0886 -0.6325
  184DOPC   C2822614   4.665   0.828   7.004 -0.9180 -0.1696  0.1958
  184DOPC   H8R22615   4.723   0.922   7.009  0.1980 -0.8191 -0.1411
  184DOPC   H8S22616   4.746   0.753   7.005 -0.2874  0.4818 -0.6675
  184DOPC   C2922617   4.584   0.822   7.125  0.8899 -0.0698 -0.4199
  184DOPC   H9R22618   4.540   0.918   7.154 -0.6032 -0.8463 -0.0668
  184DOPC  C21022619   4.565   0.722   7.213 -0.6291 -0.6329  0.0586
  184DOPC  H10R22620   4.493   0.738   7.294  1.6327 -0.7300  2.1882
  184DOPC  C21122621   4.626   0.586   7.206 -0.8056  0.3311  0.7247
  184DOPC  H11R22622   4.699   0.574   7.122 -1.7898 -0.6704 -0.0109
  184DOPC  H11S22623   4.545   0.511   7.197  0.2583 -0.8594  0.8718
  184DOPC  C21222624   4.712   0.556   7.330 -0.0229 -0.9838  0.9584
  184DOPC  H12R22625   4.799   0.623   7.314 -2.8545  2.3188 -2.3152
  184DOPC  H12S22626   4.762   0.456   7.328  0.2421 -0.8807 -1.5868
  184DOPC  C21322627   4.633   0.573   7.465 -0.3716 -0.3615  0.5802
  184DOPC  H13R22628   4.546   0.504   7.468 -0.3661 -0.6796 -2.6833
  184DOPC  H13S22629   4.594   0.676   7.478  1.1852  0.1169  1.8612
  184DOPC  C21422630   4.736   0.539   7.575  0.2000  0.3385 -0.4558
  184DOPC  H14R22631   4.830   0.598   7.564  0.9840 -0.9622 -1.1482
  184DOPC  H14S22632   4.758   0.430   7.571 -2.0346 -0.1294 -1.9967
  184DOPC  C21522633   4.683   0.552   7.716  0.2523  0.3355  0.2430
  184DOPC  H15R22634   4.575   0.529   7.726 -0.1303  0.5270 -2.5236
  184DOPC  H15S22635   4.692   0.657   7.752 -1.9011  0.9587 -0.8742
  184DOPC  C21622636   4.744   0.459   7.819  0.0122  0.2786  0.2154
  184DOPC  H16R22637   4.720   0.351   7.809 -1.2434  0.5727 -0.0940
  184DOPC  H16S22638   4.709   0.490   7.919  0.4627 -0.4891  0.6179
  184DOPC  C21722639   4.902   0.465   7.832 -0.0364  0.1889  0.2740
  184DOPC  H17R22640   4.918   0.572   7.860 -1.8848  0.9616 -1.3603
  184DOPC  H17S22641   4.955   0.443   7.737 -1.8053  1.3432 -1.0515
  184DOPC  C21822642   4.955   0.359   7.929 -0.6111 -0.2453 -0.7952
  184DOPC  H18R22643   5.065   0.346   7.930 -0.6043 -0.2029 -0.9930
  184DOPC  H18S22644   4.911   0.264   7.892 -2.1232  1.1419 -2.8470
  184DOPC  H18T22645   4.925   0.366   8.036  0.7007 -0.5540 -0.4027
  184DOPC   C3322646   4.223   0.679   6.496 -0.4806  0.0727  1.0135
  184DOPC   H3X22647   4.279   0.770   6.525 -0.7753  0.8471 -0.7480
  184DOPC   H3Y22648   4.297   0.600   6.470 -1.4057 -0.7937  0.9667
  184DOPC   C3422649   4.146   0.627   6.620 -0.9221  0.5558 -0.1907
  184DOPC   H4X22650   4.078   0.543   6.596 -0.9033 -0.0477  1.6746
  184DOPC   H4Y22651   4.080   0.699   6.674 -0.9806  0.1018  0.3559
  184DOPC   C3522652   4.244   0.591   6.741  0.1174  0.1247  0.8635
  184DOPC   H5X22653   4.317   0.676   6.735 -0.1452  0.2926 -0.1875
  184DOPC   H5Y22654   4.295   0.494   6.723 -0.0707  0.1900 -0.0492
  184DOPC   C3622655   4.176   0.591   6.881  0.9668  0.9572 -0.3971
  184DOPC   H6X22656   4.141   0.695   6.896  2.6748  1.5360 -0.2635
  184DOPC   H6Y22657   4.083   0.530   6.876 -0.1994  2.4116  1.7375
  184DOPC   C3722658   4.246   0.534   6.993 -0.6230  0.1795  0.2824
  184DOPC   H7X22659   4.262   0.425   6.980 -0.4226  0.2793 -0.3554
  184DOPC   H7Y22660   4.344   0.584   7.009 -0.1808 -0.3236 -0.7363
  184DOPC   C3822661   4.171   0.556   7.126  0.1468  0.2090  0.0198
  184DOPC   H8X22662   4.066   0.518   7.121 -0.2203  1.2876 -0.8892
  184DOPC   H8Y22663   4.167   0.667   7.130 -0.0765  0.1705  1.3287
  184DOPC   C3922664   4.234   0.497   7.250  0.0868  0.1694  0.2269
  184DOPC   H9X22665   4.247   0.388   7.242 -1.0942 -0.2603  3.0308
  184DOPC  C31022666   4.268   0.553   7.367  0.1330 -0.4867 -0.2624
  184DOPC  H10X22667   4.312   0.498   7.451 -1.6435 -0.4001  0.7775
  184DOPC  C31122668   4.246   0.700   7.412  0.5571  0.8250  0.4046
  184DOPC  H11X22669   4.202   0.773   7.340  0.8802  1.6768  1.0634
  184DOPC  H11Y22670   4.347   0.734   7.442  0.1572  1.7598  0.7046
  184DOPC  C31222671   4.155   0.701   7.539 -0.3250 -0.4585  0.0633
  184DOPC  H12X22672   4.174   0.795   7.595  1.2340 -1.7346  1.7918
  184DOPC  H12Y22673   4.171   0.612   7.603  1.6010 -1.5037 -1.7310
  184DOPC  C31322674   4.006   0.714   7.504 -0.1858 -0.1450 -0.0892
  184DOPC  H13X22675   4.009   0.770   7.408 -1.5892 -1.5729 -1.0055
  184DOPC  H13Y22676   3.976   0.612   7.473 -2.6017  0.3030  0.5808
  184DOPC  C31422677   3.924   0.774   7.620 -0.1984  0.1392 -0.7682
  184DOPC  H14X22678   3.964   0.873   7.651 -0.7041 -0.1525  0.9312
  184DOPC  H14Y22679   3.824   0.803   7.581  0.4024  1.6034 -1.2802
  184DOPC  C31522680   3.909   0.683   7.742 -0.2211 -0.3087  0.4907
  184DOPC  H15X22681   4.004   0.670   7.798  0.0325 -0.8496 -0.0447
  184DOPC  H15Y22682   3.890   0.583   7.698  1.6128  0.7343 -3.0527
  184DOPC  C31622683   3.808   0.736   7.838  0.2617  0.6142 -0.2107
  184DOPC  H16X22684   3.710   0.743   7.785 -0.3912 -2.5263  0.4211
  184DOPC  H16Y22685   3.793   0.663   7.920  2.3146  2.1478  1.6601
  184DOPC  C31722686   3.846   0.874   7.905  0.5217  0.1762 -0.0724
  184DOPC  H17X22687   3.877   0.948   7.828 -0.9775  1.8207  0.8388
  184DOPC  H17Y22688   3.750   0.913   7.944  0.5704  0.9015 -0.6641
  184DOPC  C31822689   3.946   0.859   8.012 -0.0521  0.1895  0.0039
  184DOPC  H18X22690   3.988   0.962   8.019 -1.4784  0.7870  0.3376
  184DOPC  H18Y22691   3.925   0.813   8.111  0.4832  0.7113  0.3662
  184DOPC  H18Z22692   4.030   0.799   7.973 -0.4556 -1.4619  1.5112
  185DOPC     N22693   5.921   5.318   4.995  0.2732 -0.1731 -0.3584
  185DOPC   C1222694   5.823   5.258   5.098 -0.1968  0.5855  0.3389
  185DOPC  H12A22695   5.842   5.152   5.107  2.3486  0.9214 -0.2726
  185DOPC  H12B22696   5.722   5.270   5.061 -0.8176 -0.6591  1.5718
  185DOPC   C1322697   5.901   5.467   4.978  0.2237 -0.5201  0.3553
  185DOPC  H13A22698   5.947   5.518   5.061  0.3267 -0.3635  0.2041
  185DOPC  H13B22699   5.958   5.508   4.896  0.6798 -0.7713  0.5420
  185DOPC  H13C22700   5.797   5.495   4.967 -0.3121 -3.0283 -2.2099
  185DOPC   C1422701   5.893   5.244   4.872 -0.1262  0.0426  0.7923
  185DOPC  H14A22702   5.943   5.148   4.867  0.7165  0.5131 -0.1365
  185DOPC  H14B22703   5.786   5.236   4.859 -0.2240  1.1572  0.7996
  185DOPC  H14C22704   5.934   5.292   4.784  0.6084  0.1619  1.1958
  185DOPC   C1522705   6.060   5.283   5.023  0.2168  0.4373  0.5658
  185DOPC  H15A22706   6.071   5.178   5.046  1.1641 -0.1433 -2.1740
  185DOPC  H15B22707   6.091   5.343   5.108  0.6927  1.5798 -0.3915
  185DOPC  H15C22708   6.125   5.304   4.940  0.1416  0.3655  0.4891
  185DOPC   C1122709   5.823   5.318   5.241  0.3710  0.3652  0.3724
  185DOPC  H11A22710   5.782   5.422   5.236 -2.8638 -0.8371 -1.3918
  185DOPC  H11B22711   5.748   5.258   5.298  0.6207  0.0119  0.3278
  185DOPC     P22712   6.040   5.438   5.368 -0.2051 -0.1966 -0.2921
  185DOPC   O1322713   6.064   5.540   5.257  0.0486 -0.1758  0.5905
  185DOPC   O1422714   6.158   5.382   5.439  0.5381 -0.1161 -0.0171
  185DOPC   O1222715   5.958   5.314   5.312 -0.2889  0.3240  0.0998
  185DOPC   O1122716   5.935   5.497   5.467 -0.5498 -0.1250 -0.1789
  185DOPC    C122717   5.864   5.414   5.560  0.0970  0.2080  0.1189
  185DOPC    HA22718   5.882   5.306   5.547  1.0942  0.4414 -0.5659
  185DOPC    HB22719   5.757   5.426   5.535  0.1273 -0.7904 -0.5545
  185DOPC    C222720   5.882   5.442   5.706 -0.8442 -0.6479 -0.0802
  185DOPC    HS22721   5.860   5.549   5.729  1.1461 -0.6613  2.2979
  185DOPC   O2122722   6.021   5.415   5.753  0.0378  0.0618  0.0971
  185DOPC   C2122723   6.107   5.508   5.720 -0.4170 -0.2755 -0.1505
  185DOPC   O2222724   6.082   5.619   5.671 -0.2083  0.2376  0.5906
  185DOPC   C2222725   6.246   5.459   5.746 -0.0372 -0.0761 -0.0661
  185DOPC   H2R22726   6.309   5.501   5.665 -0.9766 -0.6442 -1.1255
  185DOPC   H2S22727   6.261   5.350   5.728  1.6970  0.1313 -0.0700
  185DOPC    C322728   5.783   5.360   5.799 -0.3699 -0.2625  0.3426
  185DOPC    HX22729   5.801   5.252   5.779  0.2472 -0.2014  0.5652
  185DOPC    HY22730   5.678   5.375   5.766 -0.0301 -0.4520 -0.8825
  185DOPC   O3122731   5.810   5.384   5.937  0.3954 -0.4974 -0.1472
  185DOPC   C3122732   5.746   5.490   5.998  0.3903  0.3974  0.2607
  185DOPC   O3222733   5.679   5.564   5.932  0.4602 -0.5600 -0.5233
  185DOPC   C3222734   5.768   5.490   6.148 -0.7560  0.5514  0.1936
  185DOPC   H2X22735   5.751   5.595   6.181  0.4003  0.1204  2.3676
  185DOPC   H2Y22736   5.686   5.432   6.197  0.7814 -0.2621  1.9522
  185DOPC   C2322737   6.298   5.505   5.881  0.5096  0.1056  0.1714
  185DOPC   H3R22738   6.273   5.612   5.899  0.6217  0.0900  0.4243
  185DOPC   H3S22739   6.409   5.506   5.871  0.5212 -2.9998 -0.8462
  185DOPC   C2422740   6.277   5.399   5.992 -0.2759 -0.2055 -0.0353
  185DOPC   H4R22741   6.297   5.297   5.952  0.1753 -0.6360  1.2581
  185DOPC   H4S22742   6.168   5.402   6.014  0.0237  0.5096  1.5118
  185DOPC   C2522743   6.365   5.423   6.108 -0.2362  0.1337 -0.5306
  185DOPC   H5R22744   6.361   5.530   6.136  0.5883  0.8798 -2.9718
  185DOPC   H5S22745   6.472   5.398   6.089 -0.1790 -0.4173  0.4160
  185DOPC   C2622746   6.312   5.344   6.239 -0.0818  0.0385 -0.2619
  185DOPC   H6R22747   6.291   5.239   6.207 -1.6339  0.9144 -2.3121
  185DOPC   H6S22748   6.212   5.385   6.266 -0.0359 -0.8461  1.3927
  185DOPC   C2722749   6.413   5.338   6.359  0.1608 -0.5328 -0.0207
  185DOPC   H7R22750   6.417   5.431   6.420  0.4485 -1.0665  0.7841
  185DOPC   H7S22751   6.509   5.325   6.304 -1.0237  2.5160 -3.2141
  185DOPC   C2822752   6.379   5.232   6.457 -0.2116  0.6245  0.2101
  185DOPC   H8R22753   6.462   5.233   6.531 -0.2284 -0.0763  0.2465
  185DOPC   H8S22754   6.382   5.134   6.405  0.6172  0.3368  0.7782
  185DOPC   C2922755   6.248   5.234   6.540  0.0964  0.2271 -0.5519
  185DOPC   H9R22756   6.163   5.238   6.471  0.2337 -2.5374 -0.9717
  185DOPC  C21022757   6.239   5.209   6.670  0.2520 -0.3930 -0.3890
  185DOPC  H10R22758   6.139   5.231   6.712  0.8335  2.1067 -0.1502
  185DOPC  C21122759   6.349   5.203   6.771 -0.6495  0.4327 -0.0826
  185DOPC  H11R22760   6.431   5.135   6.741  1.3487  3.0398 -0.9292
  185DOPC  H11S22761   6.310   5.169   6.869 -3.4698  2.7086 -0.2606
  185DOPC  C21222762   6.396   5.346   6.798 -0.2216 -0.4162 -0.1557
  185DOPC  H12R22763   6.313   5.410   6.834  0.0498 -1.1391  1.8460
  185DOPC  H12S22764   6.440   5.382   6.702  1.5923 -0.1435  0.7316
  185DOPC  C21322765   6.516   5.342   6.894  0.1132 -0.1653  0.1440
  185DOPC  H13R22766   6.543   5.446   6.922  2.4761 -1.2410  2.2112
  185DOPC  H13S22767   6.604   5.290   6.851  0.0936  0.7528 -1.0445
  185DOPC  C21422768   6.493   5.289   7.033  0.5839 -0.4326 -0.2439
  185DOPC  H14R22769   6.482   5.178   7.030 -2.3924 -0.2067 -2.7142
  185DOPC  H14S22770   6.396   5.330   7.068  0.3945 -0.2367 -0.9874
  185DOPC  C21522771   6.598   5.330   7.141 -0.3962  0.2108  0.2772
  185DOPC  H15R22772   6.602   5.441   7.137 -2.0886  0.2642 -3.1439
  185DOPC  H15S22773   6.698   5.291   7.112  0.6816 -0.5459  4.3166
  185DOPC  C21622774   6.560   5.289   7.287 -0.7789 -0.8796  0.6366
  185DOPC  H16R22775   6.652   5.296   7.349 -0.3585  0.0424 -0.0679
  185DOPC  H16S22776   6.547   5.179   7.281 -0.0214 -0.9610  0.4063
  185DOPC  C21722777   6.440   5.364   7.333 -0.8724 -0.1807  0.1450
  185DOPC  H17R22778   6.347   5.354   7.275  0.1819 -0.6531 -1.5315
  185DOPC  H17S22779   6.460   5.474   7.337  0.6432 -0.4447  0.6688
  185DOPC  C21822780   6.411   5.320   7.478  0.0795 -0.3487  0.6766
  185DOPC  H18R22781   6.344   5.232   7.482  0.1680 -0.5100 -0.7324
  185DOPC  H18S22782   6.348   5.396   7.529 -0.5661 -0.4417  0.0431
  185DOPC  H18T22783   6.509   5.293   7.523 -0.2329  0.9778  2.2426
  185DOPC   C3322784   5.908   5.442   6.196 -0.0913 -0.3859 -0.2106
  185DOPC   H3X22785   5.981   5.525   6.185 -1.1069  0.4363 -0.8189
  185DOPC   H3Y22786   5.937   5.358   6.129 -2.3234 -0.1116 -1.5963
  185DOPC   C3422787   5.919   5.373   6.333  0.3894 -0.3579  0.5670
  185DOPC   H4X22788   6.019   5.334   6.359  0.4672  0.9587  2.4601
  185DOPC   H4Y22789   5.859   5.280   6.340 -0.9799  0.3873 -0.4849
  185DOPC   C3522790   5.878   5.466   6.456 -0.1472  0.3731  0.3319
  185DOPC   H5X22791   5.771   5.494   6.448 -0.1049  0.6060  0.5764
  185DOPC   H5Y22792   5.941   5.557   6.448  0.1796  0.1682  0.5679
  185DOPC   C3622793   5.904   5.397   6.588 -0.5399  0.4425 -0.1787
  185DOPC   H6X22794   5.905   5.288   6.568 -4.1251  0.1770  0.3355
  185DOPC   H6Y22795   6.010   5.422   6.612  0.2850 -3.1435  0.4643
  185DOPC   C3722796   5.815   5.437   6.704 -0.0517 -0.1007 -0.8120
  185DOPC   H7X22797   5.822   5.548   6.709  1.8820 -0.1934 -0.8235
  185DOPC   H7Y22798   5.708   5.418   6.679 -0.1450  0.4053 -0.8082
  185DOPC   C3822799   5.831   5.376   6.842 -0.2035 -0.7191 -0.0675
  185DOPC   H8X22800   5.836   5.265   6.833  2.0233 -0.7754  1.0784
  185DOPC   H8Y22801   5.739   5.400   6.898 -0.7384 -0.2174 -1.1316
  185DOPC   C3922802   5.950   5.434   6.906 -0.7074  0.4328 -0.1033
  185DOPC   H9X22803   5.971   5.541   6.892  0.9920  0.1192 -0.1697
  185DOPC  C31022804   6.034   5.367   6.988 -0.7431  0.1507 -0.0065
  185DOPC  H10X22805   6.116   5.426   7.031  0.9705  0.2177 -3.0725
  185DOPC  C31122806   6.008   5.230   7.050 -0.1718 -1.0671 -0.0864
  185DOPC  H11X22807   6.052   5.145   6.993  2.3452 -0.6052  1.0218
  185DOPC  H11Y22808   5.898   5.215   7.054 -0.5590  1.4228  0.0788
  185DOPC  C31222809   6.058   5.236   7.195  0.2494 -0.0375  0.6697
  185DOPC  H12X22810   6.017   5.329   7.239  1.5855  0.6779  0.4243
  185DOPC  H12Y22811   6.168   5.223   7.186  0.0904 -0.5067 -0.9412
  185DOPC  C31322812   6.006   5.126   7.287  0.0208 -0.3275  0.8671
  185DOPC  H13X22813   6.021   5.167   7.389  1.6122 -1.2746  1.0363
  185DOPC  H13Y22814   5.896   5.119   7.270  0.0910 -0.3854  0.4236
  185DOPC  C31422815   6.071   4.993   7.275  0.1750 -0.6500  0.5077
  185DOPC  H14X22816   6.000   4.923   7.323 -0.6165 -0.4158 -0.2918
  185DOPC  H14Y22817   6.072   4.968   7.166 -0.0727  0.8960  0.1275
  185DOPC  C31522818   6.202   4.984   7.341 -0.1689 -0.8744  0.5597
  185DOPC  H15X22819   6.193   5.016   7.447 -0.2181  0.6363  0.1163
  185DOPC  H15Y22820   6.261   5.053   7.277 -0.4060 -2.1340 -1.0964
  185DOPC  C31622821   6.259   4.841   7.337  0.5240 -0.0381  0.0486
  185DOPC  H16X22822   6.180   4.769   7.368  1.9474 -1.8038 -0.3005
  185DOPC  H16Y22823   6.257   4.804   7.232 -2.0416  0.2541 -0.0734
  185DOPC  C31722824   6.391   4.827   7.413 -0.1768 -0.5724  0.6575
  185DOPC  H17X22825   6.421   4.721   7.399 -2.2851 -0.9829 -1.2831
  185DOPC  H17Y22826   6.475   4.884   7.368 -0.3735 -0.4486  0.4476
  185DOPC  C31822827   6.392   4.868   7.557 -1.0255  0.0900 -0.4809
  185DOPC  H18X22828   6.336   4.794   7.618 -0.5338  0.8116  0.8844
  185DOPC  H18Y22829   6.497   4.851   7.588 -0.8494  0.1333 -1.0525
  185DOPC  H18Z22830   6.357   4.971   7.577  0.5396  0.4907  0.2999
  186DOPC     N22831   0.587   2.541   5.126  0.0186 -0.2359  0.1951
  186DOPC   C1222832   0.531   2.563   5.266 -0.3503 -0.3965 -0.3932
  186DOPC  H12A22833   0.582   2.650   5.304 -0.8839 -1.1711  2.2692
  186DOPC  H12B22834   0.554   2.481   5.332  3.1371  0.6804 -0.0621
  186DOPC   C1322835   0.498   2.446   5.047  0.5579 -0.2867 -0.4442
  186DOPC  H13A22836   0.404   2.489   5.016  0.1283 -0.3579  0.7445
  186DOPC  H13B22837   0.548   2.412   4.957  0.3632  0.0435 -0.6813
  186DOPC  H13C22838   0.474   2.360   5.107  0.4688  0.6331  0.8775
  186DOPC   C1422839   0.721   2.480   5.141  0.2505 -0.3788  0.0454
  186DOPC  H14A22840   0.721   2.411   5.223 -0.5188 -2.4854 -1.6303
  186DOPC  H14B22841   0.739   2.429   5.047  1.3897  0.2605 -0.1107
  186DOPC  H14C22842   0.802   2.551   5.155  0.2518 -0.3068 -0.3144
  186DOPC   C1522843   0.593   2.672   5.046 -0.4619 -0.1281 -0.1950
  186DOPC  H15A22844   0.668   2.737   5.089  0.2363 -1.4542  0.6387
  186DOPC  H15B22845   0.500   2.726   5.035 -0.5578 -0.3075 -0.2699
  186DOPC  H15C22846   0.618   2.655   4.942 -2.1857 -0.9007 -0.5261
  186DOPC   C1122847   0.374   2.600   5.279  0.3950 -0.4218  1.2232
  186DOPC  H11A22848   0.311   2.512   5.254 -0.7398  0.0430  2.3208
  186DOPC  H11B22849   0.348   2.627   5.383 -0.3184  2.1642  0.4360
  186DOPC     P22850   0.204   2.753   5.154  0.2915 -0.1510  0.0285
  186DOPC   O1322851   0.169   2.661   5.040  0.5857 -0.2898  0.5011
  186DOPC   O1422852   0.201   2.895   5.126 -0.0210 -0.1244  0.2686
  186DOPC   O1222853   0.347   2.720   5.204  0.4304  0.0188  0.2822
  186DOPC   O1122854   0.115   2.709   5.279 -0.7423  0.3968 -0.7043
  186DOPC    C122855   0.045   2.800   5.362  0.8072  0.4732  0.3880
  186DOPC    HA22856  -0.043   2.838   5.306 -1.3093 -2.2264  1.6483
  186DOPC    HB22857   0.116   2.878   5.397  1.2493 -0.3269  1.3219
  186DOPC    C222858  -0.003   2.739   5.495 -0.2254  0.9863 -1.1237
  186DOPC    HS22859  -0.071   2.653   5.475  1.2733 -0.4125 -0.4330
  186DOPC   O2122860  -0.054   2.840   5.580  0.2906  0.1676 -0.3722
  186DOPC   C2122861  -0.160   2.808   5.647  0.6602  0.5359  0.6770
  186DOPC   O2222862  -0.241   2.718   5.616  0.6146  0.0392 -0.0619
  186DOPC   C2222863  -0.192   2.895   5.767  0.0044  0.0367 -0.5431
  186DOPC   H2R22864  -0.301   2.900   5.789 -0.3599 -0.5857 -2.0998
  186DOPC   H2S22865  -0.157   2.994   5.732 -0.0014 -0.0418 -0.7747
  186DOPC    C322866   0.126   2.679   5.562  0.5910  0.2587 -0.4905
  186DOPC    HX22867   0.218   2.741   5.567  1.4583 -1.0915  3.1732
  186DOPC    HY22868   0.159   2.586   5.511  0.6425 -0.1661  0.3007
  186DOPC   O3122869   0.107   2.649   5.705  0.4081  0.1559 -0.1167
  186DOPC   C3122870   0.058   2.538   5.745 -0.0465  0.1826  0.3780
  186DOPC   O3222871   0.012   2.449   5.673  0.5712 -0.1479 -0.0653
  186DOPC   C3222872   0.065   2.523   5.894 -0.2657  0.8262  0.4349
  186DOPC   H2X22873   0.174   2.532   5.917  0.5938 -4.6290 -0.1530
  186DOPC   H2Y22874   0.015   2.613   5.936  0.6444  1.6580 -0.1959
  186DOPC   C2322875  -0.112   2.878   5.899 -0.0083 -0.2886  0.5076
  186DOPC   H3R22876  -0.006   2.886   5.865 -0.8414  0.9765 -2.0233
  186DOPC   H3S22877  -0.135   2.780   5.945 -0.6259 -0.3921 -0.0077
  186DOPC   C2422878  -0.151   2.990   5.994 -0.5277  0.2198  0.1739
  186DOPC   H4R22879  -0.152   3.090   5.945 -1.2765 -0.1639 -0.6213
  186DOPC   H4S22880  -0.074   2.991   6.073  0.6214  0.2402 -0.9203
  186DOPC   C2522881  -0.287   2.970   6.065  0.9873 -0.2637  0.5150
  186DOPC   H5R22882  -0.294   2.870   6.111  1.9599 -0.1207  0.9951
  186DOPC   H5S22883  -0.372   2.972   5.994  2.6485 -0.5054 -1.5914
  186DOPC   C2622884  -0.302   3.059   6.194 -0.3228 -0.4618  0.6369
  186DOPC   H6R22885  -0.407   3.067   6.231  0.1416 -0.0321  1.9107
  186DOPC   H6S22886  -0.266   3.160   6.167  0.0659 -0.4793  1.0694
  186DOPC   C2722887  -0.212   3.009   6.311 -0.0899  0.3881  0.1676
  186DOPC   H7R22888  -0.117   3.066   6.305  0.6657 -0.4195  2.9316
  186DOPC   H7S22889  -0.197   2.898   6.315  2.5292  0.6983  2.8684
  186DOPC   C2822890  -0.269   3.043   6.453 -0.0280 -0.6095 -0.0148
  186DOPC   H8R22891  -0.342   2.964   6.478  1.6690 -1.3259  3.3382
  186DOPC   H8S22892  -0.311   3.146   6.450  0.8565 -0.1639  1.6371
  186DOPC   C2922893  -0.150   3.043   6.546 -0.0610  0.2776  0.4716
  186DOPC   H9R22894  -0.052   3.070   6.504 -0.7956  0.5918 -1.0830
  186DOPC  C21022895  -0.150   2.990   6.672 -0.5702  0.2634 -0.0950
  186DOPC  H10R22896  -0.059   2.995   6.733 -1.7625  2.3643  1.6722
  186DOPC  C21122897  -0.271   2.930   6.742  0.1116 -0.1587  0.0309
  186DOPC  H11R22898  -0.302   2.832   6.699 -2.8663  0.8660 -0.3556
  186DOPC  H11S22899  -0.366   2.987   6.743 -0.4519 -1.0606 -0.3494
  186DOPC  C21222900  -0.242   2.913   6.895  0.2860  0.2647  0.7783
  186DOPC  H12R22901  -0.151   2.852   6.915  0.5591  0.2067 -0.5278
  186DOPC  H12S22902  -0.323   2.848   6.936  0.1266 -0.8023 -1.1291
  186DOPC  C21322903  -0.240   3.043   6.968  0.1895 -0.3107 -0.1033
  186DOPC  H13R22904  -0.310   3.116   6.922 -3.3076 -3.1881  0.1977
  186DOPC  H13S22905  -0.139   3.087   6.959  0.2643 -0.5752 -0.6168
  186DOPC  C21422906  -0.285   3.027   7.113  0.3931 -0.3414  0.0325
  186DOPC  H14R22907  -0.220   2.945   7.150  0.3216 -1.4638 -2.1495
  186DOPC  H14S22908  -0.391   2.992   7.110  0.4990 -0.6559 -0.2278
  186DOPC  C21522909  -0.255   3.150   7.192  0.8342  0.2915  0.4003
  186DOPC  H15R22910  -0.261   3.246   7.136 -1.8636  0.1631  0.3543
  186DOPC  H15S22911  -0.145   3.151   7.207  1.0132 -0.6491 -0.7680
  186DOPC  C21622912  -0.342   3.170   7.316  0.2758  0.0313 -0.1269
  186DOPC  H16R22913  -0.305   3.097   7.391 -1.4704 -0.4139  0.3474
  186DOPC  H16S22914  -0.442   3.132   7.287  1.6718 -1.8850 -2.9484
  186DOPC  C21722915  -0.337   3.308   7.373  0.1375 -0.1777 -0.1932
  186DOPC  H17R22916  -0.400   3.372   7.309 -1.3333 -0.4609  0.9222
  186DOPC  H17S22917  -0.233   3.349   7.379  0.9560 -2.2419  0.8696
  186DOPC  C21822918  -0.402   3.312   7.508  0.7381  0.3244 -0.0698
  186DOPC  H18R22919  -0.399   3.413   7.553 -0.4189  1.9153 -3.2270
  186DOPC  H18S22920  -0.353   3.247   7.584 -2.8587  1.5850  3.6944
  186DOPC  H18T22921  -0.508   3.280   7.493  0.3527  1.0553  0.9724
  186DOPC   C3322922   0.022   2.388   5.950 -0.4394 -0.4651  0.5559
  186DOPC   H3X22923   0.069   2.308   5.889 -0.1965  0.7852 -0.9958
  186DOPC   H3Y22924  -0.089   2.382   5.940 -0.4945 -1.1664  1.5514
  186DOPC   C3422925   0.064   2.375   6.097 -0.4150  0.0905 -0.0454
  186DOPC   H4X22926   0.021   2.459   6.156 -2.2595  0.3670 -1.6765
  186DOPC   H4Y22927   0.172   2.385   6.118 -0.5105  0.4055  0.3197
  186DOPC   C3522928  -0.004   2.248   6.155  0.0438 -0.6622  0.0353
  186DOPC   H5X22929   0.045   2.169   6.095  1.1839  0.3167 -0.3557
  186DOPC   H5Y22930  -0.115   2.255   6.146 -0.1394 -1.6337  1.2318
  186DOPC   C3622931   0.023   2.234   6.305 -0.6873  0.7919  0.5509
  186DOPC   H6X22932   0.130   2.244   6.333  0.0385 -0.4474 -1.6061
  186DOPC   H6Y22933  -0.034   2.309   6.364 -0.7322  2.1724 -1.1677
  186DOPC   C3722934  -0.029   2.094   6.356 -0.0254 -0.7736  0.0096
  186DOPC   H7X22935  -0.139   2.102   6.364 -0.0472  0.8990 -1.3455
  186DOPC   H7Y22936  -0.002   2.019   6.278  0.9446 -2.6698  2.0653
  186DOPC   C3822937   0.028   2.037   6.485  0.8170 -0.1248  0.4770
  186DOPC   H8X22938   0.133   2.006   6.471  1.1975  0.6989  1.4641
  186DOPC   H8Y22939  -0.031   1.946   6.509 -0.3139  0.2709 -0.6680
  186DOPC   C3922940   0.029   2.142   6.595  0.5197  0.1261  0.2410
  186DOPC   H9X22941   0.099   2.226   6.587  0.5016  0.3902  2.3393
  186DOPC  C31022942  -0.042   2.130   6.710 -0.7232 -0.3406  0.2035
  186DOPC  H10X22943  -0.045   2.226   6.764 -2.5180  0.5223 -1.2858
  186DOPC  C31122944  -0.147   2.031   6.756  0.9415 -0.3129 -1.1719
  186DOPC  H11X22945  -0.163   1.949   6.682 -0.7132 -0.7494 -0.3780
  186DOPC  H11Y22946  -0.245   2.081   6.771  0.5519 -1.3051 -0.2463
  186DOPC  C31222947  -0.103   1.957   6.884 -0.5886 -0.1380  0.0834
  186DOPC  H12X22948   0.004   1.929   6.878  0.5794  3.4476  1.4870
  186DOPC  H12Y22949  -0.148   1.855   6.885  1.7097 -1.2162 -0.3442
  186DOPC  C31322950  -0.106   2.037   7.014 -0.0864  0.7076  0.5859
  186DOPC  H13X22951  -0.022   2.109   7.025  0.0526  0.2466  3.1202
  186DOPC  H13Y22952  -0.206   2.085   7.017  0.3015  1.6194 -0.4840
  186DOPC  C31422953  -0.109   1.941   7.130 -0.3910  0.2922 -0.0357
  186DOPC  H14X22954  -0.188   1.863   7.124  1.0481 -1.5280  2.5170
  186DOPC  H14Y22955  -0.015   1.882   7.134 -0.8853 -0.4393  1.2755
  186DOPC  C31522956  -0.139   2.005   7.263 -0.5404 -0.3890 -0.0052
  186DOPC  H15X22957  -0.239   2.054   7.260  0.1850  1.1651  0.3727
  186DOPC  H15Y22958  -0.067   2.087   7.282 -0.3664 -0.5824  0.1840
  186DOPC  C31622959  -0.125   1.904   7.382  0.4046 -0.3032  0.4325
  186DOPC  H16X22960  -0.187   1.813   7.366  0.6550 -0.4235  0.1531
  186DOPC  H16Y22961  -0.022   1.864   7.385  0.2115 -0.7711  2.8208
  186DOPC  C31722962  -0.156   1.961   7.519  0.3811 -0.2895 -0.7452
  186DOPC  H17X22963  -0.086   2.042   7.547 -0.0456 -0.3249  0.5011
  186DOPC  H17Y22964  -0.254   2.012   7.512  0.5068  0.1744  0.5535
  186DOPC  C31822965  -0.168   1.858   7.631  0.4482 -0.0037  0.0160
  186DOPC  H18X22966  -0.071   1.810   7.658 -0.4863 -2.9641 -1.5255
  186DOPC  H18Y22967  -0.211   1.903   7.723 -1.0931  1.7390 -1.4675
  186DOPC  H18Z22968  -0.246   1.782   7.613  0.4546 -0.3091  1.2054
  187DOPC     N22969   5.575   1.145   5.239 -0.6180  0.2652  0.7316
  187DOPC   C1222970   5.466   1.055   5.300  0.1628 -0.3185  0.6602
  187DOPC  H12A22971   5.424   0.993   5.223  0.4180  0.2407  0.0657
  187DOPC  H12B22972   5.380   1.118   5.318  0.0136 -0.5990  0.9386
  187DOPC   C1322973   5.690   1.062   5.186 -0.5559  0.0468  0.0211
  187DOPC  H13A22974   5.654   0.998   5.107 -1.1437  0.1918  0.1646
  187DOPC  H13B22975   5.764   1.129   5.145 -2.4493  2.0620 -0.3305
  187DOPC  H13C22976   5.740   1.007   5.264  0.4016  0.7263 -0.0960
  187DOPC   C1422977   5.635   1.230   5.350  0.0200  0.3102 -0.2977
  187DOPC  H14A22978   5.569   1.260   5.430 -0.8512  1.7837 -1.5059
  187DOPC  H14B22979   5.714   1.175   5.398  0.2047  2.1891  1.7337
  187DOPC  H14C22980   5.697   1.311   5.315  1.8157 -1.3440 -1.0820
  187DOPC   C1522981   5.524   1.229   5.127 -0.2990  0.5575 -0.5050
  187DOPC  H15A22982   5.494   1.172   5.040  0.1464 -0.3879 -0.0540
  187DOPC  H15B22983   5.598   1.300   5.093 -0.3378  0.3619 -1.0244
  187DOPC  H15C22984   5.439   1.280   5.168 -0.3789  0.5117 -0.6135
  187DOPC   C1122985   5.508   0.955   5.410  0.2217  0.3726 -0.2864
  187DOPC  H11A22986   5.556   1.004   5.497 -0.4895  0.1160  0.2630
  187DOPC  H11B22987   5.415   0.903   5.442  0.3728 -0.1917 -0.7492
  187DOPC     P22988   5.623   0.721   5.405 -0.2524 -0.3569 -0.2873
  187DOPC   O1322989   5.733   0.654   5.338  0.6641  0.2621 -0.3008
  187DOPC   O1422990   5.503   0.643   5.432  0.0062  0.5409  0.2118
  187DOPC   O1222991   5.592   0.860   5.344 -0.4504 -0.2326 -0.2119
  187DOPC   O1122992   5.671   0.775   5.546  0.2021  0.0998  0.7088
  187DOPC    C122993   5.781   0.860   5.565 -0.3276 -0.3676  0.5850
  187DOPC    HA22994   5.741   0.964   5.566 -0.9685 -0.5968 -0.0629
  187DOPC    HB22995   5.858   0.850   5.485  1.1158  2.3750  1.5012
  187DOPC    C222996   5.856   0.820   5.695 -0.1321  0.0407 -1.0986
  187DOPC    HS22997   5.905   0.724   5.671  2.8091  1.1299  0.1349
  187DOPC   O2122998   5.761   0.821   5.810  0.4403  0.4300 -0.2156
  187DOPC   C2122999   5.756   0.711   5.886 -0.0691 -0.5079  0.4019
  187DOPC   O2223000   5.839   0.622   5.895  0.5092 -0.0463  0.2777
  187DOPC   C2223001   5.635   0.727   5.978 -0.5115 -0.1139 -0.7145
  187DOPC   H2R23002   5.592   0.626   5.991  0.4088 -0.8085 -2.6037
  187DOPC   H2S23003   5.555   0.783   5.924 -1.6810 -2.4530 -1.5333
  187DOPC    C323004   5.976   0.917   5.732 -0.0579 -0.2154  0.3730
  187DOPC    HX23005   5.946   1.024   5.721 -1.7136 -0.7391 -0.5606
  187DOPC    HY23006   6.055   0.914   5.654 -2.3134  3.6694 -2.4225
  187DOPC   O3123007   6.018   0.903   5.863  0.3378  0.2539 -0.1551
  187DOPC   C3123008   6.091   0.805   5.895 -0.7214  0.4792  1.1415
  187DOPC   O3223009   6.146   0.729   5.812 -0.6170 -1.4361 -0.9116
  187DOPC   C3223010   6.105   0.798   6.045 -0.2203 -0.7888  0.2815
  187DOPC   H2X23011   6.006   0.812   6.094 -0.6605  2.9065 -1.3438
  187DOPC   H2Y23012   6.127   0.691   6.065 -1.9305 -0.8935  1.9345
  187DOPC   C2323013   5.679   0.795   6.116  0.0542 -0.2145  0.0746
  187DOPC   H3R23014   5.593   0.857   6.151  0.5083  1.2324 -1.2519
  187DOPC   H3S23015   5.754   0.875   6.099  1.6551 -1.6143  0.2772
  187DOPC   C2423016   5.739   0.693   6.214  1.0288  0.6005  0.0424
  187DOPC   H4R23017   5.833   0.649   6.174  0.2874 -1.7953  0.7559
  187DOPC   H4S23018   5.670   0.609   6.235  0.1370  1.5638  1.1031
  187DOPC   C2523019   5.783   0.758   6.347  0.4134 -0.2880  0.1308
  187DOPC   H5R23020   5.857   0.834   6.314 -0.9469  0.3512 -1.6326
  187DOPC   H5S23021   5.839   0.685   6.410  2.1017 -2.1422 -3.2433
  187DOPC   C2623022   5.654   0.801   6.422 -0.3788 -0.4979  0.3018
  187DOPC   H6R23023   5.573   0.726   6.410  0.8998 -2.0722  1.1155
  187DOPC   H6S23024   5.621   0.895   6.373 -1.0491 -0.7683  0.2202
  187DOPC   C2723025   5.666   0.836   6.573 -0.2421 -0.4724  0.4360
  187DOPC   H7R23026   5.584   0.902   6.610  0.3057 -0.7680  2.2891
  187DOPC   H7S23027   5.764   0.888   6.583  1.1719 -2.8233 -0.3796
  187DOPC   C2823028   5.675   0.707   6.649  0.0669 -0.2013 -0.0053
  187DOPC   H8R23029   5.761   0.641   6.624  0.5719  1.2041 -2.2333
  187DOPC   H8S23030   5.580   0.654   6.628 -0.2364  1.5814 -4.0247
  187DOPC   C2923031   5.687   0.746   6.790  0.3791 -0.0145 -0.4582
  187DOPC   H9R23032   5.649   0.846   6.816  0.0429 -0.2406 -0.0519
  187DOPC  C21023033   5.731   0.673   6.889 -0.0025 -0.0598 -0.7142
  187DOPC  H10R23034   5.739   0.714   6.991 -1.0980 -0.5259 -0.4139
  187DOPC  C21123035   5.799   0.542   6.866  0.1046  0.0696 -0.9141
  187DOPC  H11R23036   5.900   0.571   6.832  0.7785 -0.5088  0.5273
  187DOPC  H11S23037   5.757   0.473   6.790 -0.9065 -0.7703  0.3556
  187DOPC  C21223038   5.807   0.466   7.004  0.0620 -0.4758 -0.3284
  187DOPC  H12R23039   5.852   0.531   7.082  0.1574 -2.3850  1.2507
  187DOPC  H12S23040   5.885   0.388   6.989  1.2700  0.9478 -2.0581
  187DOPC  C21323041   5.675   0.401   7.037  0.0960 -0.2754 -0.1612
  187DOPC  H13R23042   5.645   0.327   6.960  2.2206 -0.7015 -0.6358
  187DOPC  H13S23043   5.594   0.477   7.029  1.3960  1.3928  1.6600
  187DOPC  C21423044   5.659   0.330   7.175 -0.1217 -0.1988  0.2236
  187DOPC  H14R23045   5.739   0.253   7.181 -0.3800 -0.5410 -0.5848
  187DOPC  H14S23046   5.565   0.271   7.175  1.5222 -3.1436 -2.3817
  187DOPC  C21523047   5.666   0.429   7.293  0.0322 -0.4710  0.1301
  187DOPC  H15R23048   5.590   0.508   7.282  0.1747 -0.1161  1.4348
  187DOPC  H15S23049   5.765   0.479   7.287  0.5571 -1.6541 -1.9808
  187DOPC  C21623050   5.631   0.368   7.426  0.3019 -0.0732 -0.1090
  187DOPC  H16R23051   5.712   0.294   7.442  0.1695  0.0778  1.4428
  187DOPC  H16S23052   5.537   0.309   7.418  0.0292  0.2753  0.4197
  187DOPC  C21723053   5.627   0.471   7.546 -0.2648  0.9198  0.0453
  187DOPC  H17R23054   5.540   0.536   7.523 -1.7105 -1.1551 -0.6723
  187DOPC  H17S23055   5.716   0.537   7.551 -0.5887  1.3711 -0.1043
  187DOPC  C21823056   5.612   0.398   7.682 -0.6487 -0.2855 -0.2368
  187DOPC  H18R23057   5.703   0.341   7.712 -0.3328  0.5349  0.3980
  187DOPC  H18S23058   5.519   0.337   7.678 -0.2604 -0.9078 -0.1025
  187DOPC  H18T23059   5.595   0.466   7.768  0.9794 -0.1615  0.0321
  187DOPC   C3323060   6.201   0.895   6.112 -0.2191  1.1085  0.0536
  187DOPC   H3X23061   6.178   0.998   6.079 -0.9731  1.1531  0.6803
  187DOPC   H3Y23062   6.304   0.876   6.076 -0.6753 -0.8334 -0.3032
  187DOPC   C3423063   6.199   0.887   6.264  0.2289 -0.4620 -0.0882
  187DOPC   H4X23064   6.092   0.910   6.280 -0.1682 -0.5184 -2.3105
  187DOPC   H4Y23065   6.269   0.963   6.304  1.4070 -1.2652 -0.5676
  187DOPC   C3523066   6.254   0.753   6.320  0.2371 -1.0354  0.3937
  187DOPC   H5X23067   6.349   0.745   6.264  0.1126 -0.1236  0.0297
  187DOPC   H5Y23068   6.187   0.668   6.293  0.4175 -2.1508  3.1346
  187DOPC   C3623069   6.275   0.769   6.473  0.0941 -0.3102 -0.2609
  187DOPC   H6X23070   6.374   0.817   6.486  0.5280 -1.5165  1.0902
  187DOPC   H6Y23071   6.192   0.831   6.514  0.5344  0.3354 -0.3393
  187DOPC   C3723072   6.291   0.636   6.539 -0.1186  0.4759 -0.0668
  187DOPC   H7X23073   6.202   0.570   6.529  0.2743  0.0678 -0.9971
  187DOPC   H7Y23074   6.368   0.587   6.476  1.5530  2.2777  0.4857
  187DOPC   C3823075   6.330   0.641   6.687  0.3582  0.0310 -0.7020
  187DOPC   H8X23076   6.423   0.701   6.695 -1.1987  2.2829  2.9555
  187DOPC   H8Y23077   6.356   0.537   6.716 -0.1637 -0.1873 -0.9897
  187DOPC   C3923078   6.230   0.699   6.775 -0.5934 -0.0667  0.2713
  187DOPC   H9X23079   6.180   0.794   6.747 -1.8841  0.0423  2.6398
  187DOPC  C31023080   6.222   0.656   6.909  0.3428 -0.0246  0.0195
  187DOPC  H10X23081   6.161   0.716   6.977  1.0049 -0.1903  0.7705
  187DOPC  C31123082   6.287   0.540   6.980  0.2496  0.1056 -0.3177
  187DOPC  H11X23083   6.348   0.479   6.911 -0.2438 -0.9583  0.1595
  187DOPC  H11Y23084   6.207   0.467   7.005 -0.4565  0.7277 -0.7134
  187DOPC  C31223085   6.357   0.576   7.107  0.3840 -0.1482 -0.7420
  187DOPC  H12X23086   6.284   0.638   7.164 -1.0891 -0.9428 -1.6986
  187DOPC  H12Y23087   6.445   0.641   7.090  0.0107  0.3365 -0.8797
  187DOPC  C31323088   6.407   0.456   7.187  0.2732 -0.4105 -0.8324
  187DOPC  H13X23089   6.321   0.386   7.187  0.5368 -0.7463 -0.2490
  187DOPC  H13Y23090   6.486   0.401   7.133 -0.2623  0.7914 -2.9819
  187DOPC  C31423091   6.447   0.477   7.333 -0.1056  0.1313  0.0523
  187DOPC  H14X23092   6.535   0.545   7.339  0.8944 -1.2752  3.2629
  187DOPC  H14Y23093   6.370   0.535   7.388  0.2873 -0.9544  1.8230
  187DOPC  C31523094   6.458   0.353   7.423 -0.4289 -0.0751 -0.0561
  187DOPC  H15X23095   6.517   0.268   7.382 -1.0831 -0.0549 -1.0842
  187DOPC  H15Y23096   6.352   0.326   7.439 -0.6930  0.0837 -1.3649
  187DOPC  C31623097   6.530   0.397   7.557  0.2143  0.8049 -0.0801
  187DOPC  H16X23098   6.572   0.305   7.605 -0.2339  0.4536 -0.3507
  187DOPC  H16Y23099   6.620   0.456   7.532  1.1372 -0.6629 -0.3652
  187DOPC  C31723100   6.458   0.488   7.651 -0.3162  0.3750 -0.0433
  187DOPC  H17X23101   6.435   0.585   7.604  1.8799 -0.7286 -3.7415
  187DOPC  H17Y23102   6.363   0.434   7.675 -0.9254 -0.0201 -2.9774
  187DOPC  C31823103   6.517   0.507   7.790  0.5009 -0.7618  0.4188
  187DOPC  H18X23104   6.568   0.421   7.840  3.4731 -0.3811 -1.7037
  187DOPC  H18Y23105   6.603   0.575   7.775  0.5339 -1.2495 -1.8988
  187DOPC  H18Z23106   6.439   0.549   7.856  0.7916  3.4689 -1.6328
  188DOPC     N23107   2.465   0.185   4.753  0.1502 -0.0802  0.0635
  188DOPC   C1223108   2.428   0.241   4.891 -0.6802 -0.5891 -0.3828
  188DOPC  H12A23109   2.467   0.341   4.898 -0.1388 -0.5532 -3.1054
  188DOPC  H12B23110   2.478   0.174   4.960  0.2892  0.8752  0.3830
  188DOPC   C1323111   2.392   0.253   4.638 -0.2954  0.7046  0.2690
  188DOPC  H13A23112   2.447   0.344   4.615  2.8138 -1.1561 -0.2988
  188DOPC  H13B23113   2.392   0.196   4.546  0.6521 -0.8063  1.1655
  188DOPC  H13C23114   2.289   0.269   4.666 -0.1515 -0.1524  1.3615
  188DOPC   C1423115   2.433   0.041   4.759  0.1741 -0.3843  0.1381
  188DOPC  H14A23116   2.478  -0.008   4.845 -1.9304 -0.7449  1.1041
  188DOPC  H14B23117   2.325   0.032   4.762 -0.1234  1.7166 -1.4648
  188DOPC  H14C23118   2.479  -0.006   4.674 -0.0450 -0.8513  0.2693
  188DOPC   C1523119   2.615   0.201   4.729  0.1913 -0.0086 -0.4355
  188DOPC  H15A23120   2.651   0.302   4.738  1.9053 -0.2759 -3.0422
  188DOPC  H15B23121   2.639   0.178   4.626 -1.0437 -0.2756 -0.6775
  188DOPC  H15C23122   2.668   0.129   4.790  0.0240  1.9603  2.2341
  188DOPC   C1123123   2.284   0.255   4.930  0.4553 -0.5098  0.6654
  188DOPC  H11A23124   2.217   0.171   4.902  0.6941  0.1960 -2.3861
  188DOPC  H11B23125   2.275   0.244   5.040 -3.5876  0.5795  0.6079
  188DOPC     P23126   2.269   0.514   4.961 -0.1716  0.2933 -0.0341
  188DOPC   O1323127   2.163   0.612   4.923  0.1200  0.6835 -0.0563
  188DOPC   O1423128   2.408   0.543   4.934 -0.5959  0.0915  0.8339
  188DOPC   O1223129   2.227   0.375   4.884  0.2263 -0.7111 -0.3339
  188DOPC   O1123130   2.241   0.480   5.117  0.5233  0.3027  0.0673
  188DOPC    C123131   2.348   0.466   5.207 -0.1141  0.0471 -0.4026
  188DOPC    HA23132   2.432   0.528   5.171 -1.0735  1.3388 -0.5007
  188DOPC    HB23133   2.376   0.359   5.219  2.5185  0.9292  2.9388
  188DOPC    C223134   2.308   0.524   5.346  0.6357 -0.2114 -0.5201
  188DOPC    HS23135   2.400   0.508   5.407 -0.2657 -1.7954  0.5180
  188DOPC   O2123136   2.189   0.462   5.396  0.2029  0.1870 -0.0739
  188DOPC   C2123137   2.205   0.405   5.515  0.7283 -0.0611 -0.3807
  188DOPC   O2223138   2.304   0.393   5.584  0.0824 -0.2487  0.6087
  188DOPC   C2223139   2.072   0.345   5.553  0.1536  0.1883  0.6010
  188DOPC   H2R23140   2.056   0.241   5.517 -2.9732  0.5140  0.7631
  188DOPC   H2S23141   1.994   0.400   5.497  3.0678  2.7459 -1.2153
  188DOPC    C323142   2.268   0.672   5.342  0.5202 -0.6098  0.1079
  188DOPC    HX23143   2.177   0.679   5.280  0.0723 -1.2225  0.6836
  188DOPC    HY23144   2.347   0.733   5.292  1.1887 -3.0188 -1.9734
  188DOPC   O3123145   2.246   0.720   5.474 -0.5337  0.0061  0.2780
  188DOPC   C3123146   2.343   0.753   5.547 -0.1088 -0.3246 -0.7880
  188DOPC   O3223147   2.460   0.770   5.513 -0.2150  0.2777  0.9957
  188DOPC   C3223148   2.291   0.773   5.684 -0.2409 -0.2396 -0.9109
  188DOPC   H2X23149   2.285   0.881   5.707  1.4978 -0.6766  2.1540
  188DOPC   H2Y23150   2.184   0.742   5.683 -0.3293  0.0311 -0.4871
  188DOPC   C2323151   2.045   0.347   5.704  0.3227 -0.2895 -0.2010
  188DOPC   H3R23152   2.052   0.449   5.749 -0.0830  0.0588 -0.9114
  188DOPC   H3S23153   2.106   0.271   5.757  0.3818  1.3934  2.3664
  188DOPC   C2423154   1.909   0.285   5.748  0.2161 -0.9152 -0.9359
  188DOPC   H4R23155   1.914   0.181   5.710  1.8095 -1.2645  0.1019
  188DOPC   H4S23156   1.825   0.346   5.709  0.4922  0.3246  0.3018
  188DOPC   C2523157   1.901   0.281   5.901  0.1972 -1.4260 -0.2980
  188DOPC   H5R23158   1.938   0.375   5.948  1.7197 -1.8857 -0.5425
  188DOPC   H5S23159   1.968   0.199   5.933  0.3773 -1.8481 -1.6886
  188DOPC   C2623160   1.760   0.245   5.947 -0.5241 -0.4927 -0.3585
  188DOPC   H6R23161   1.743   0.144   5.902  2.1825 -2.3713  2.3986
  188DOPC   H6S23162   1.683   0.318   5.915 -1.0516 -0.4046  1.0499
  188DOPC   C2723163   1.741   0.228   6.096  0.3545 -0.5351  0.1453
  188DOPC   H7R23164   1.648   0.171   6.120  0.1513  0.5163  2.0119
  188DOPC   H7S23165   1.737   0.329   6.141 -1.0463 -0.5233  0.0665
  188DOPC   C2823166   1.846   0.134   6.160  0.5388  0.6079 -0.0553
  188DOPC   H8R23167   1.951   0.168   6.148  0.3175  0.9555 -1.0874
  188DOPC   H8S23168   1.845   0.048   6.090 -0.7655  1.3659 -1.0200
  188DOPC   C2923169   1.809   0.101   6.304  0.1341 -0.2450 -0.2338
  188DOPC   H9R23170   1.728   0.031   6.328  0.2372 -0.0888  0.6080
  188DOPC  C21023171   1.861   0.166   6.406 -0.1485  0.3514  0.3824
  188DOPC  H10R23172   1.843   0.126   6.507 -0.4765 -1.2795 -0.2956
  188DOPC  C21123173   1.960   0.281   6.393  0.0798 -0.4471  0.1293
  188DOPC  H11R23174   1.996   0.298   6.290  0.9816 -1.2693  0.2874
  188DOPC  H11S23175   2.052   0.258   6.451 -1.4707 -0.6980  2.6633
  188DOPC  C21223176   1.889   0.406   6.449 -0.3101  0.1664 -0.5322
  188DOPC  H12R23177   1.815   0.437   6.372 -0.5108  2.2566  0.4494
  188DOPC  H12S23178   1.967   0.485   6.447 -0.0445  0.0097  1.5111
  188DOPC  C21323179   1.815   0.391   6.585 -0.0596  0.0438 -0.1276
  188DOPC  H13R23180   1.747   0.305   6.570  2.1221 -1.5073 -1.6301
  188DOPC  H13S23181   1.750   0.479   6.605 -1.4658 -1.4234  2.2178
  188DOPC  C21423182   1.911   0.383   6.706  0.1006  0.0622  0.6745
  188DOPC  H14R23183   1.987   0.463   6.700  0.0458  0.0426 -0.7565
  188DOPC  H14S23184   1.966   0.287   6.716  0.6652  0.2083 -0.7724
  188DOPC  C21523185   1.837   0.388   6.837 -0.2537 -0.4155  0.1265
  188DOPC  H15R23186   1.757   0.311   6.829  0.8938 -1.4704 -2.7971
  188DOPC  H15S23187   1.791   0.489   6.845  0.3893 -0.1010 -0.0565
  188DOPC  C21623188   1.909   0.339   6.962 -0.3578  0.3502 -0.2839
  188DOPC  H16R23189   2.000   0.401   6.975  1.7304 -1.6342 -3.8822
  188DOPC  H16S23190   1.925   0.230   6.945 -2.7420  0.1130 -1.4118
  188DOPC  C21723191   1.824   0.337   7.089  0.6490 -0.1753 -0.1693
  188DOPC  H17R23192   1.892   0.324   7.176  0.7327  1.8855  0.1289
  188DOPC  H17S23193   1.737   0.269   7.080  0.3920  0.2220 -0.7839
  188DOPC  C21823194   1.767   0.475   7.121 -0.1453 -0.8968  0.6830
  188DOPC  H18R23195   1.716   0.477   7.220 -1.5713 -0.2102 -0.0238
  188DOPC  H18S23196   1.688   0.497   7.046 -0.5586 -3.3219  0.3536
  188DOPC  H18T23197   1.847   0.553   7.118 -0.0183 -0.9672  1.9418
  188DOPC   C3323198   2.360   0.699   5.792  0.1068  0.1684 -0.8514
  188DOPC   H3X23199   2.468   0.721   5.798  0.5052 -1.2843 -2.1017
  188DOPC   H3Y23200   2.354   0.590   5.769 -0.7086  0.2257 -0.9717
  188DOPC   C3423201   2.288   0.718   5.928  0.5984  0.1761  0.5404
  188DOPC   H4X23202   2.182   0.746   5.913  0.5482 -0.5831 -0.6377
  188DOPC   H4Y23203   2.336   0.801   5.985  1.4157  0.1626 -0.1047
  188DOPC   C3523204   2.291   0.580   6.001  0.2953 -0.1361 -0.2718
  188DOPC   H5X23205   2.397   0.557   6.025  0.8664  1.2840 -1.2878
  188DOPC   H5Y23206   2.252   0.502   5.932 -0.3011  2.0589 -2.5671
  188DOPC   C3623207   2.209   0.578   6.123 -0.0385  0.0443 -0.1290
  188DOPC   H6X23208   2.101   0.590   6.103  0.1114  0.9624 -0.4451
  188DOPC   H6Y23209   2.246   0.480   6.162  1.8452  0.6628 -0.2379
  188DOPC   C3723210   2.257   0.683   6.224 -0.3942 -0.4156 -0.5269
  188DOPC   H7X23211   2.368   0.683   6.224 -0.3912 -0.2795 -0.8334
  188DOPC   H7Y23212   2.225   0.782   6.184  2.1404  1.2607  1.3081
  188DOPC   C3823213   2.192   0.672   6.359 -0.2085 -0.2673 -0.3783
  188DOPC   H8X23214   2.083   0.665   6.338 -0.3995  0.6730  0.2260
  188DOPC   H8Y23215   2.197   0.770   6.411  1.9282 -0.3902 -0.2395
  188DOPC   C3923216   2.254   0.560   6.440 -0.8019  0.6979  0.0429
  188DOPC   H9X23217   2.237   0.457   6.403 -0.2129  0.3859  0.6137
  188DOPC  C31023218   2.322   0.572   6.552 -0.2816 -0.3580 -0.6286
  188DOPC  H10X23219   2.355   0.474   6.588 -1.1404 -1.2499 -2.1295
  188DOPC  C31123220   2.349   0.710   6.624  0.2900  0.3964  0.2631
  188DOPC  H11X23221   2.329   0.805   6.569 -2.7305  1.6344  3.1656
  188DOPC  H11Y23222   2.460   0.718   6.634  0.3917  0.8363 -0.9576
  188DOPC  C31223223   2.284   0.716   6.760  0.5025 -1.4971 -0.4712
  188DOPC  H12X23224   2.334   0.792   6.823 -2.5446 -0.2193  0.5897
  188DOPC  H12Y23225   2.285   0.616   6.808  1.9086 -1.5055 -0.4695
  188DOPC  C31323226   2.144   0.763   6.734 -0.1986 -0.6734  1.0987
  188DOPC  H13X23227   2.141   0.864   6.688  0.7291 -0.2708  1.8825
  188DOPC  H13Y23228   2.101   0.685   6.668  2.2080  0.3085 -1.8593
  188DOPC  C31423229   2.052   0.769   6.863  0.7812  0.0074 -0.7463
  188DOPC  H14X23230   1.958   0.820   6.833 -0.9432 -0.3570  3.4122
  188DOPC  H14Y23231   2.033   0.662   6.888 -2.1316  0.7137  0.4408
  188DOPC  C31523232   2.102   0.839   6.983  1.2146  0.1608 -0.2358
  188DOPC  H15X23233   2.109   0.949   6.968  2.1644  0.7484  3.5627
  188DOPC  H15Y23234   2.198   0.802   7.027  0.7220 -2.0104 -0.8766
  188DOPC  C31623235   2.016   0.801   7.105  0.1682 -0.1382  1.0548
  188DOPC  H16X23236   1.909   0.812   7.077 -0.3440  0.3493  2.9939
  188DOPC  H16Y23237   2.022   0.692   7.126 -0.3996  0.0435  2.2769
  188DOPC  C31723238   2.050   0.888   7.228  0.2646  0.3238  0.4649
  188DOPC  H17X23239   2.156   0.868   7.254  0.0794 -0.4950  0.6052
  188DOPC  H17Y23240   2.016   0.994   7.215 -1.2382 -0.0653  0.9536
  188DOPC  C31823241   1.958   0.838   7.349 -1.3354 -0.4069  0.0536
  188DOPC  H18X23242   1.851   0.840   7.319 -1.2939 -0.0230 -0.0727
  188DOPC  H18Y23243   1.982   0.732   7.374 -2.1858 -1.2049 -2.2061
  188DOPC  H18Z23244   1.974   0.897   7.442 -1.1687  0.4918 -0.5331
  189DOPC     N23245   3.102   0.658   4.468  0.0125 -0.2130  0.3717
  189DOPC   C1223246   3.168   0.630   4.598  0.0115  0.0122 -0.8677
  189DOPC  H12A23247   3.269   0.597   4.580 -0.4061 -0.7812 -1.7921
  189DOPC  H12B23248   3.117   0.547   4.644 -1.8012  0.8620 -1.2711
  189DOPC   C1323249   2.954   0.677   4.484  0.2292  0.3422  0.2128
  189DOPC  H13A23250   2.905   0.690   4.389  0.4155  3.8672  0.4712
  189DOPC  H13B23251   2.923   0.589   4.537  1.0507  0.6184  1.1883
  189DOPC  H13C23252   2.926   0.762   4.545 -0.6723  0.4308 -0.3053
  189DOPC   C1423253   3.114   0.538   4.378  0.5333  0.0584  0.6516
  189DOPC  H14A23254   3.211   0.491   4.374 -0.5698 -2.2879 -0.1141
  189DOPC  H14B23255   3.050   0.457   4.412  0.4791 -1.3617 -2.5162
  189DOPC  H14C23256   3.092   0.565   4.276  0.1051  0.2900  0.8003
  189DOPC   C1523257   3.163   0.769   4.398  0.1377 -0.2263 -0.5288
  189DOPC  H15A23258   3.103   0.804   4.315 -0.6339  1.4757  0.6848
  189DOPC  H15B23259   3.267   0.760   4.372 -0.3528  0.5913 -3.0825
  189DOPC  H15C23260   3.156   0.861   4.455  0.5708 -0.1519 -0.5903
  189DOPC   C1123261   3.178   0.739   4.708  0.7821  0.0909 -0.1777
  189DOPC  H11A23262   3.230   0.704   4.799  1.7210 -0.8651 -1.0471
  189DOPC  H11B23263   3.238   0.823   4.668 -1.5369  1.2856 -1.3539
  189DOPC     P23264   2.977   0.727   4.868  0.1764  0.3767  0.0698
  189DOPC   O1323265   2.923   0.591   4.829 -0.4324  0.1936 -0.0583
  189DOPC   O1423266   2.880   0.831   4.915 -0.4505  0.0318 -0.0706
  189DOPC   O1223267   3.048   0.786   4.743 -0.0515 -0.0519 -0.2867
  189DOPC   O1123268   3.089   0.707   4.977  0.0258 -0.3012  0.1805
  189DOPC    C123269   3.136   0.583   5.025 -0.7471 -0.1184  0.2562
  189DOPC    HA23270   3.243   0.594   5.054 -0.1303 -2.6147 -0.7915
  189DOPC    HB23271   3.139   0.508   4.943 -0.2783 -0.4074  0.5227
  189DOPC    C223272   3.057   0.534   5.147  0.9428  0.1234 -0.1329
  189DOPC    HS23273   2.952   0.543   5.113  0.6905  3.0573  1.1597
  189DOPC   O2123274   3.101   0.621   5.254  0.3212  0.3770  0.1084
  189DOPC   C2123275   3.014   0.712   5.279 -0.1975 -0.8100  0.2335
  189DOPC   O2223276   2.913   0.737   5.213  0.8285 -0.6680 -0.1495
  189DOPC   C2223277   3.056   0.797   5.402  0.5321  0.4600 -1.0410
  189DOPC   H2R23278   3.013   0.899   5.395  0.3589  0.4565 -0.1698
  189DOPC   H2S23279   3.167   0.795   5.399  0.6012 -1.3883  0.4135
  189DOPC    C323280   3.093   0.385   5.173 -0.3068 -0.0073 -0.2831
  189DOPC    HX23281   3.203   0.382   5.192  0.1615 -1.9013 -2.8154
  189DOPC    HY23282   3.067   0.323   5.085 -1.7472  0.6132 -0.3218
  189DOPC   O3123283   3.026   0.333   5.292  0.1705 -0.2689 -0.0647
  189DOPC   C3123284   3.102   0.268   5.384  0.1093  0.0373 -0.1706
  189DOPC   O3223285   3.218   0.242   5.372  0.0783 -0.7498 -0.4700
  189DOPC   C3223286   3.017   0.235   5.501  0.0556  0.4858 -1.2542
  189DOPC   H2X23287   2.921   0.289   5.503 -1.0215 -1.3579 -0.8145
  189DOPC   H2Y23288   3.008   0.125   5.487  1.3077 -0.3796  3.1930
  189DOPC   C2323289   3.006   0.718   5.526  0.5103 -0.1930 -0.5612
  189DOPC   H3R23290   3.015   0.608   5.512  1.4486 -0.2532  0.3774
  189DOPC   H3S23291   2.901   0.746   5.552  0.9489  0.6522  0.3723
  189DOPC   C2423292   3.087   0.765   5.646 -0.3503 -0.4312  0.4465
  189DOPC   H4R23293   3.090   0.876   5.645  1.3493 -0.4467  0.8302
  189DOPC   H4S23294   3.190   0.723   5.646 -0.8269 -1.6950 -1.2258
  189DOPC   C2523295   3.020   0.728   5.777 -0.2691 -0.1112 -0.4973
  189DOPC   H5R23296   3.007   0.617   5.778  2.7812 -0.5541 -1.1257
  189DOPC   H5S23297   2.928   0.790   5.779 -0.2265 -0.0592 -0.1058
  189DOPC   C2623298   3.102   0.762   5.899  0.3558 -0.0312 -0.3348
  189DOPC   H6R23299   3.022   0.755   5.975 -0.4688 -0.6890 -1.2443
  189DOPC   H6S23300   3.135   0.868   5.901  1.2789 -0.3123  0.5781
  189DOPC   C2723301   3.215   0.666   5.934  0.2630  0.1870  0.6277
  189DOPC   H7R23302   3.287   0.679   5.850 -1.1183 -0.1712 -0.6520
  189DOPC   H7S23303   3.184   0.560   5.930 -1.3811  0.6857 -0.7360
  189DOPC   C2823304   3.286   0.719   6.064  0.8058  0.1707  0.3506
  189DOPC   H8R23305   3.201   0.720   6.135 -1.1573  2.6120 -1.7906
  189DOPC   H8S23306   3.327   0.820   6.042 -0.3432  0.4326 -0.6937
  189DOPC   C2923307   3.399   0.633   6.102  0.1818  0.6475 -0.5195
  189DOPC   H9R23308   3.483   0.646   6.032 -0.3287  1.6484 -0.9553
  189DOPC  C21023309   3.399   0.536   6.198  0.3195  0.2818 -0.3600
  189DOPC  H10R23310   3.484   0.466   6.195  1.7579  1.7929  1.8551
  189DOPC  C21123311   3.290   0.508   6.295 -0.2075  0.0681  0.3027
  189DOPC  H11R23312   3.277   0.398   6.303 -1.2205  0.2829  1.9379
  189DOPC  H11S23313   3.187   0.537   6.266 -0.8832 -0.6731  1.8492
  189DOPC  C21223314   3.327   0.555   6.430  0.0796 -0.0931 -0.7609
  189DOPC  H12R23315   3.329   0.666   6.432  0.5020 -0.0553  2.5205
  189DOPC  H12S23316   3.429   0.521   6.458 -0.7375 -1.2946  1.0102
  189DOPC  C21323317   3.218   0.520   6.539 -0.4376 -0.3521  0.0192
  189DOPC  H13R23318   3.238   0.415   6.571  1.7598  0.1420  0.4134
  189DOPC  H13S23319   3.123   0.525   6.482  0.1614  0.9151 -0.9194
  189DOPC  C21423320   3.212   0.616   6.661  0.1360 -0.4692  0.6138
  189DOPC  H14R23321   3.198   0.722   6.629  1.2075 -0.4749  0.0838
  189DOPC  H14S23322   3.314   0.635   6.702  0.8651  5.3194 -2.7608
  189DOPC  C21523323   3.113   0.559   6.761 -0.0878 -0.2920 -0.1475
  189DOPC  H15R23324   3.046   0.484   6.713  2.1581 -1.8901 -0.9207
  189DOPC  H15S23325   3.052   0.633   6.817 -2.2309 -1.3629 -0.9171
  189DOPC  C21623326   3.191   0.458   6.863 -1.0304  0.3007 -0.3405
  189DOPC  H16R23327   3.266   0.522   6.915 -1.0377  0.1485 -0.1409
  189DOPC  H16S23328   3.241   0.381   6.801 -0.9701 -1.8764  2.1871
  189DOPC  C21723329   3.098   0.403   6.968 -0.1109  0.5381 -0.5279
  189DOPC  H17R23330   3.040   0.319   6.925 -2.6108  1.2272  1.2282
  189DOPC  H17S23331   3.027   0.478   7.010  0.5054  0.3642  0.9039
  189DOPC  C21823332   3.169   0.340   7.082  0.1141 -0.1820 -0.3165
  189DOPC  H18R23333   3.216   0.419   7.146 -2.3553 -0.0244  1.4447
  189DOPC  H18S23334   3.248   0.269   7.049  1.2730  2.2713 -3.2921
  189DOPC  H18T23335   3.094   0.289   7.146 -0.7306  1.7606  0.3054
  189DOPC   C3323336   3.091   0.250   5.636 -0.1409 -0.0863  0.3064
  189DOPC   H3X23337   3.112   0.357   5.657  1.4495  0.0735 -1.7495
  189DOPC   H3Y23338   3.191   0.203   5.625 -0.1953 -0.4520  1.2919
  189DOPC   C3423339   3.007   0.189   5.746  0.0273  0.1209  0.1343
  189DOPC   H4X23340   3.028   0.080   5.751  1.1175  0.1824 -1.9284
  189DOPC   H4Y23341   2.897   0.198   5.732  0.1668  0.1487 -1.0074
  189DOPC   C3523342   3.057   0.245   5.884  0.2325 -0.5827 -0.6009
  189DOPC   H5X23343   3.023   0.349   5.904 -3.3477 -1.7770  0.1983
  189DOPC   H5Y23344   3.168   0.247   5.880  0.2377 -0.1464 -0.3620
  189DOPC   C3623345   3.024   0.161   6.008  0.2285 -0.3502  0.1240
  189DOPC   H6X23346   2.913   0.152   6.016  0.0562  0.3922 -1.1890
  189DOPC   H6Y23347   3.057   0.056   5.997 -1.0948 -0.7191 -0.5365
  189DOPC   C3723348   3.066   0.231   6.138 -0.2515  0.3181  0.2086
  189DOPC   H7X23349   3.171   0.268   6.141 -1.0723  2.7362  1.3664
  189DOPC   H7Y23350   3.004   0.320   6.159  1.1142  2.0642 -2.5525
  189DOPC   C3823351   3.059   0.137   6.262 -0.3630 -0.3307  0.0005
  189DOPC   H8X23352   3.144   0.066   6.255  0.3470  0.6064 -1.4539
  189DOPC   H8Y23353   2.968   0.074   6.253  0.7884 -1.9681 -0.6464
  189DOPC   C3923354   3.065   0.218   6.387 -0.6267  0.2882 -0.0999
  189DOPC   H9X23355   3.093   0.322   6.368 -1.9583  0.3462 -2.0807
  189DOPC  C31023356   3.043   0.174   6.515 -0.5435  0.0959 -0.7068
  189DOPC  H10X23357   3.047   0.238   6.605  1.0261 -0.0489 -0.6510
  189DOPC  C31123358   3.020   0.029   6.528 -0.3558 -0.3174  0.1655
  189DOPC  H11X23359   3.109  -0.037   6.516 -1.3880 -1.6701 -0.2401
  189DOPC  H11Y23360   2.940  -0.004   6.459  0.8097 -1.5203 -0.6594
  189DOPC  C31223361   2.957   0.000   6.667 -0.9106  0.2781  0.5051
  189DOPC  H12X23362   2.905  -0.098   6.661  0.7822 -0.5887 -0.8194
  189DOPC  H12Y23363   2.872   0.068   6.693 -0.6342  0.3851  1.1534
  189DOPC  C31323364   3.050   0.008   6.789  0.2543  0.8466 -0.3568
  189DOPC  H13X23365   3.128  -0.069   6.771  0.3756  0.8556  0.1110
  189DOPC  H13Y23366   3.092   0.110   6.800  0.6976  0.5830  0.5275
  189DOPC  C31423367   2.983  -0.038   6.918  0.6479  1.1883 -0.6223
  189DOPC  H14X23368   2.923   0.052   6.942  0.6669  0.9403  0.4145
  189DOPC  H14Y23369   2.910  -0.120   6.898  1.8666 -0.0658 -0.1369
  189DOPC  C31523370   3.078  -0.091   7.032 -0.3149  0.8579 -0.0622
  189DOPC  H15X23371   3.179  -0.046   7.039 -0.0743  0.0677  1.9980
  189DOPC  H15Y23372   3.107  -0.197   7.010  1.0235  0.7358  2.0723
  189DOPC  C31623373   3.008  -0.109   7.161 -0.1847  0.0825  0.1941
  189DOPC  H16X23374   2.947  -0.019   7.182  0.8949  1.3185 -1.6447
  189DOPC  H16Y23375   2.929  -0.184   7.143 -1.7234  2.1883 -2.5308
  189DOPC  C31723376   3.100  -0.151   7.273 -0.8028 -0.6254  0.3760
  189DOPC  H17X23377   3.033  -0.189   7.353 -1.5210 -0.6650 -0.2331
  189DOPC  H17Y23378   3.162  -0.238   7.241 -1.2282 -1.3778  1.5118
  189DOPC  C31823379   3.197  -0.045   7.325 -0.2603 -0.1162  0.0711
  189DOPC  H18X23380   3.143   0.024   7.393 -0.4607  0.8500 -1.0510
  189DOPC  H18Y23381   3.286  -0.081   7.382  1.2024  1.3947 -1.1540
  189DOPC  H18Z23382   3.225   0.024   7.243 -4.0152  1.8422  0.2349
  190DOPC     N23383   2.494   6.095   5.037 -0.4041  0.2863  0.3687
  190DOPC   C1223384   2.453   6.116   5.179  0.2599 -0.1836 -0.0453
  190DOPC  H12A23385   2.532   6.162   5.235 -1.5270  1.6894  1.0958
  190DOPC  H12B23386   2.440   6.018   5.221  0.3230  0.2938  1.1083
  190DOPC   C1323387   2.631   6.030   5.045  0.8563  0.0168  0.2599
  190DOPC  H13A23388   2.672   5.993   4.952 -0.3197  1.3352 -0.8262
  190DOPC  H13B23389   2.696   6.109   5.077 -1.6072  2.5753 -0.5918
  190DOPC  H13C23390   2.627   5.963   5.130  1.3053 -1.6907 -0.9987
  190DOPC   C1423391   2.517   6.230   4.976  0.7492  0.4256 -0.5104
  190DOPC  H14A23392   2.544   6.233   4.871 -0.0256 -0.5141 -0.7516
  190DOPC  H14B23393   2.426   6.288   4.972  0.0021 -0.7574 -1.9492
  190DOPC  H14C23394   2.585   6.290   5.034 -1.3389  1.3600  1.1067
  190DOPC   C1523395   2.382   6.022   4.957 -0.3155 -0.1401  0.1547
  190DOPC  H15A23396   2.414   5.991   4.859 -1.9270  2.0324 -1.1348
  190DOPC  H15B23397   2.290   6.078   4.953  0.3154  0.8985 -0.2547
  190DOPC  H15C23398   2.361   5.929   5.008  0.4643 -0.2487  0.2973
  190DOPC   C1123399   2.327   6.201   5.209 -0.1885  0.1166  0.3903
  190DOPC  H11A23400   2.246   6.163   5.143 -0.6424 -1.0435  1.5990
  190DOPC  H11B23401   2.303   6.172   5.313  1.1582 -1.7644  0.2305
  190DOPC     P23402   2.434   6.424   5.294  0.1955 -0.1311  0.2713
  190DOPC   O1323403   2.433   6.571   5.267  0.2164 -0.6176  0.3861
  190DOPC   O1423404   2.568   6.359   5.292  0.0880  0.2236  0.0822
  190DOPC   O1223405   2.350   6.344   5.186 -0.5973 -0.0624 -0.3345
  190DOPC   O1123406   2.356   6.392   5.426  0.1975  0.1040  0.6032
  190DOPC    C123407   2.232   6.452   5.450  0.4866 -0.7451 -0.0964
  190DOPC    HA23408   2.157   6.399   5.388  0.2443 -0.3651 -0.1341
  190DOPC    HB23409   2.230   6.561   5.427  0.2253 -0.0005  2.9929
  190DOPC    C223410   2.186   6.434   5.599 -0.0759 -0.2946  0.2772
  190DOPC    HS23411   2.077   6.454   5.605 -0.2719 -1.7101  2.2344
  190DOPC   O2123412   2.247   6.527   5.683 -0.0133 -0.8143  0.3104
  190DOPC   C2123413   2.206   6.653   5.671 -0.2359 -0.1483  0.1814
  190DOPC   O2223414   2.106   6.693   5.615 -0.0984 -0.5745  0.2736
  190DOPC   C2223415   2.305   6.745   5.742 -0.0137 -0.7226 -0.0423
  190DOPC   H2R23416   2.405   6.740   5.694 -0.4564 -1.4198 -0.9036
  190DOPC   H2S23417   2.307   6.705   5.846 -1.3168 -0.8049 -0.0326
  190DOPC    C323418   2.200   6.289   5.646  0.0995 -0.2978 -0.0791
  190DOPC    HX23419   2.304   6.252   5.634  0.4415  0.3801  0.6890
  190DOPC    HY23420   2.138   6.229   5.576  0.0749 -2.5382  1.7493
  190DOPC   O3123421   2.149   6.277   5.778 -0.3761 -0.0443 -0.0885
  190DOPC   C3123422   2.147   6.153   5.825 -0.3349 -0.1928  0.8201
  190DOPC   O3223423   2.188   6.058   5.756  0.5229 -0.2673  0.4826
  190DOPC   C3223424   2.083   6.157   5.963 -0.1870 -0.2851 -0.1253
  190DOPC   H2X23425   2.166   6.190   6.029  0.1152 -2.1644  0.4913
  190DOPC   H2Y23426   2.013   6.243   5.966 -0.9791 -0.9415  0.7467
  190DOPC   C2323427   2.262   6.897   5.749 -0.2192  0.4130  0.5820
  190DOPC   H3R23428   2.153   6.900   5.772 -0.4873 -0.0842 -0.5671
  190DOPC   H3S23429   2.280   6.947   5.651 -0.0300  1.2213  1.0220
  190DOPC   C2423430   2.336   6.988   5.846  0.6354 -1.0075  0.0873
  190DOPC   H4R23431   2.326   7.096   5.822  4.0324 -0.6091 -0.0399
  190DOPC   H4S23432   2.444   6.963   5.845  0.7317 -0.5761 -0.6328
  190DOPC   C2523433   2.313   6.972   5.999  0.1404 -0.3810 -0.8621
  190DOPC   H5R23434   2.336   6.865   6.022 -0.0216  0.2054  2.5664
  190DOPC   H5S23435   2.208   6.993   6.028  0.3697  2.1078 -1.6269
  190DOPC   C2623436   2.401   7.054   6.089 -0.4989 -0.5594  0.5637
  190DOPC   H6R23437   2.386   7.160   6.062 -1.8496 -0.7408  0.5098
  190DOPC   H6S23438   2.511   7.036   6.085 -0.6493 -1.2280 -1.2947
  190DOPC   C2723439   2.351   7.041   6.236 -0.2636 -0.0984 -0.6231
  190DOPC   H7R23440   2.339   6.934   6.263  1.1097 -0.7016 -2.2412
  190DOPC   H7S23441   2.259   7.103   6.244 -0.1176  0.4315 -2.6318
  190DOPC   C2823442   2.453   7.097   6.341  0.1133  0.9738 -0.0290
  190DOPC   H8R23443   2.399   7.131   6.432  0.9421 -1.1240  1.3090
  190DOPC   H8S23444   2.490   7.193   6.299 -0.1668  0.9851 -0.2562
  190DOPC   C2923445   2.566   7.003   6.372  0.3343 -0.0287  0.2355
  190DOPC   H9R23446   2.587   6.929   6.293 -1.2680 -0.5432  0.2451
  190DOPC  C21023447   2.637   7.010   6.485  0.3225  0.5577  0.3139
  190DOPC  H10R23448   2.712   6.932   6.504 -0.1892 -0.2641 -0.8530
  190DOPC  C21123449   2.624   7.104   6.601 -0.0369  0.1188 -1.0047
  190DOPC  H11R23450   2.578   7.205   6.587  2.1971  1.3876  0.2479
  190DOPC  H11S23451   2.723   7.138   6.640  0.1720 -0.7681 -0.7491
  190DOPC  C21223452   2.549   7.031   6.719 -0.6941  0.3764  0.7104
  190DOPC  H12R23453   2.617   6.953   6.762 -0.5756  0.3745  0.5194
  190DOPC  H12S23454   2.459   6.985   6.674 -1.0807  0.1035  1.7365
  190DOPC  C21323455   2.517   7.123   6.837  0.4359 -0.4438  0.4077
  190DOPC  H13R23456   2.453   7.205   6.797 -0.3142 -1.7923 -1.3251
  190DOPC  H13S23457   2.615   7.167   6.863  0.1507  1.6769 -1.7474
  190DOPC  C21423458   2.450   7.056   6.959 -0.4972 -0.9090  0.5219
  190DOPC  H14R23459   2.429   7.132   7.037 -2.4504 -2.3845  1.5278
  190DOPC  H14S23460   2.531   6.989   6.995  1.4129  0.2404 -1.3818
  190DOPC  C21523461   2.314   6.989   6.934  1.0904  0.2544 -1.0105
  190DOPC  H15R23462   2.334   6.885   6.899  0.1099 -0.0432 -0.7317
  190DOPC  H15S23463   2.264   7.039   6.848  0.5036  1.0911 -0.1975
  190DOPC  C21623464   2.212   7.006   7.047  0.2628 -0.4108  0.9353
  190DOPC  H16R23465   2.118   6.960   7.009  0.7425  0.7481 -1.9256
  190DOPC  H16S23466   2.180   7.112   7.057 -1.6360 -0.6687 -1.3841
  190DOPC  C21723467   2.245   6.936   7.178  0.2415  0.2081 -0.4216
  190DOPC  H17R23468   2.344   6.978   7.207  0.9912 -0.2511 -2.1974
  190DOPC  H17S23469   2.251   6.827   7.158  0.9055  0.2550 -0.4945
  190DOPC  C21823470   2.143   6.964   7.288  0.2596 -0.4125  0.0494
  190DOPC  H18R23471   2.183   6.966   7.392  0.5662  0.6854 -0.0792
  190DOPC  H18S23472   2.049   6.905   7.290  0.8959 -1.4974 -1.0259
  190DOPC  H18T23473   2.116   7.071   7.278 -2.2733 -0.6047  3.3290
  190DOPC   C3323474   2.006   6.033   6.008  0.0326 -0.7710  0.5162
  190DOPC   H3X23475   2.048   5.934   5.981 -1.2363 -1.5656  1.4014
  190DOPC   H3Y23476   1.914   6.029   5.945  0.1717 -0.3295  0.2754
  190DOPC   C3423477   1.983   6.024   6.162  0.2735 -0.3090 -0.2030
  190DOPC   H4X23478   1.930   5.930   6.190  0.6361 -0.8325 -1.2274
  190DOPC   H4Y23479   1.915   6.104   6.197  1.0265  0.5740 -0.7129
  190DOPC   C3523480   2.120   6.024   6.231 -0.2117  0.4959 -0.1485
  190DOPC   H5X23481   2.205   6.093   6.209  2.0533 -1.7064  1.1437
  190DOPC   H5Y23482   2.171   5.929   6.207  0.7217  1.4306 -2.0931
  190DOPC   C3623483   2.085   6.023   6.379 -0.5321 -1.1155 -0.1864
  190DOPC   H6X23484   2.065   6.129   6.403  4.8493 -0.0464  0.9911
  190DOPC   H6Y23485   1.992   5.965   6.394 -0.8983 -0.8803 -1.4126
  190DOPC   C3723486   2.196   5.984   6.487  0.0729  0.2772 -0.0828
  190DOPC   H7X23487   2.209   5.875   6.476  0.5822  0.3932 -0.6747
  190DOPC   H7Y23488   2.295   6.032   6.475 -0.1287  0.6603 -0.2571
  190DOPC   C3823489   2.160   5.998   6.635 -0.1068  0.2105  0.2155
  190DOPC   H8X23490   2.235   5.939   6.693  1.0988  0.2252 -1.2725
  190DOPC   H8Y23491   2.062   5.947   6.644  0.7402 -1.3481  1.2329
  190DOPC   C3923492   2.144   6.140   6.694 -0.3811 -0.2467 -0.0783
  190DOPC   H9X23493   2.146   6.220   6.617  2.4577  0.4946  0.6356
  190DOPC  C31023494   2.146   6.178   6.822  0.1938  0.1979 -0.0160
  190DOPC  H10X23495   2.127   6.284   6.842 -2.9081 -0.0777 -0.9499
  190DOPC  C31123496   2.156   6.088   6.944 -0.1521 -0.4931 -0.5516
  190DOPC  H11X23497   2.250   6.105   7.001  0.1877  0.5445 -1.3843
  190DOPC  H11Y23498   2.153   5.982   6.911 -0.4095 -0.2425 -1.3626
  190DOPC  C31223499   2.032   6.112   7.033  0.3079 -0.1562  0.1020
  190DOPC  H12X23500   1.935   6.112   6.979  0.1025 -0.2602  0.4718
  190DOPC  H12Y23501   2.044   6.209   7.085 -3.4350  0.2624  0.4580
  190DOPC  C31323502   2.011   5.996   7.132  0.6333  0.2894 -0.2054
  190DOPC  H13X23503   1.939   6.023   7.213  0.4092 -0.7970 -0.0239
  190DOPC  H13Y23504   1.980   5.902   7.081 -1.3063  1.4489 -1.3174
  190DOPC  C31423505   2.145   5.958   7.201 -0.1620  0.0494 -0.1343
  190DOPC  H14X23506   2.206   5.907   7.124  1.1132 -0.9987  1.4893
  190DOPC  H14Y23507   2.191   6.053   7.236 -0.7214 -1.2118  4.8377
  190DOPC  C31523508   2.128   5.864   7.328  0.3395  0.1253  0.3795
  190DOPC  H15X23509   2.086   5.768   7.290 -0.4504 -0.3501  2.2921
  190DOPC  H15Y23510   2.049   5.898   7.399 -0.8459 -0.0037 -0.8374
  190DOPC  C31623511   2.261   5.844   7.400 -0.5886  0.0599  0.0765
  190DOPC  H16X23512   2.320   5.802   7.316 -1.7791 -1.6494  0.0306
  190DOPC  H16Y23513   2.292   5.945   7.435 -2.0677  0.3867  0.5314
  190DOPC  C31723514   2.260   5.741   7.511  0.3413  0.8888  0.7424
  190DOPC  H17X23515   2.207   5.647   7.483  2.7727 -0.1060 -0.8327
  190DOPC  H17Y23516   2.361   5.699   7.530  0.3537 -0.1463 -1.2980
  190DOPC  C31823517   2.196   5.796   7.635  0.1441  0.3014  0.6213
  190DOPC  H18X23518   2.227   5.737   7.724  1.5026  0.6602  0.4055
  190DOPC  H18Y23519   2.230   5.898   7.664  1.1788  0.9125 -2.4252
  190DOPC  H18Z23520   2.088   5.793   7.611  0.1936  0.5492  0.3644
  191DOPC     N23521   3.898   6.676   5.114 -0.5133  0.3689 -0.1810
  191DOPC   C1223522   3.806   6.633   5.232  0.3288 -0.6610 -0.0597
  191DOPC  H12A23523   3.819   6.527   5.250  0.7833 -0.9336 -1.7474
  191DOPC  H12B23524   3.704   6.642   5.198 -0.0692 -0.4099  1.1524
  191DOPC   C1323525   3.930   6.558   5.027 -0.0712  0.0171 -0.1244
  191DOPC  H13A23526   3.961   6.473   5.086  2.8266  0.9269 -0.2012
  191DOPC  H13B23527   3.844   6.525   4.970  0.7401 -1.6170 -0.4476
  191DOPC  H13C23528   4.004   6.593   4.957 -2.9951  2.7246 -2.1842
  191DOPC   C1423529   4.034   6.722   5.177 -0.1040  0.4690  0.2509
  191DOPC  H14A23530   4.067   6.636   5.235 -0.5091  0.7252  0.8673
  191DOPC  H14B23531   4.109   6.759   5.108  0.5876  1.1117  1.3096
  191DOPC  H14C23532   4.022   6.799   5.251 -0.1445 -0.4949  1.2807
  191DOPC   C1523533   3.854   6.786   5.028 -0.2998 -0.1084  0.9847
  191DOPC  H15A23534   3.923   6.809   4.948  0.8245 -2.4844  1.1813
  191DOPC  H15B23535   3.853   6.879   5.083  0.3546 -0.1649  1.0985
  191DOPC  H15C23536   3.755   6.774   4.987  0.7264 -1.1435 -1.4133
  191DOPC   C1123537   3.795   6.718   5.358  0.0832 -0.2033  0.0111
  191DOPC  H11A23538   3.799   6.825   5.328 -0.6831 -0.2728 -0.3599
  191DOPC  H11B23539   3.706   6.694   5.419  1.0339 -0.2635  1.4229
  191DOPC     P23540   3.949   6.547   5.491  0.2026  0.1633  0.4614
  191DOPC   O1323541   4.087   6.510   5.449  0.5288 -0.4797 -0.1292
  191DOPC   O1423542   3.846   6.448   5.466  0.1264 -0.0522  0.1541
  191DOPC   O1223543   3.914   6.688   5.434  0.4470 -0.0441  0.0582
  191DOPC   O1123544   3.956   6.570   5.641  0.3151  0.1520 -0.1009
  191DOPC    C123545   3.869   6.661   5.709  0.4802 -0.4011  0.6346
  191DOPC    HA23546   3.775   6.602   5.710  0.4893 -0.4138  1.3883
  191DOPC    HB23547   3.862   6.755   5.650  1.3924  0.1023  1.3099
  191DOPC    C223548   3.922   6.705   5.848 -0.2804 -0.1472  0.1501
  191DOPC    HS23549   4.030   6.728   5.834 -0.1261 -1.0572 -0.2216
  191DOPC   O2123550   3.908   6.590   5.926 -0.2421  0.2389  0.0662
  191DOPC   C2123551   3.997   6.578   6.024  0.5386  0.1468 -0.3784
  191DOPC   O2223552   4.094   6.651   6.036 -0.5185  0.1439 -0.3086
  191DOPC   C2223553   3.956   6.459   6.113 -0.2216  0.3691 -0.4802
  191DOPC   H2R23554   3.972   6.364   6.058  0.4877  0.1501  0.0917
  191DOPC   H2S23555   3.845   6.466   6.113 -0.3123  1.0527 -4.2832
  191DOPC    C323556   3.833   6.821   5.901 -0.7183 -0.2675  0.2791
  191DOPC    HX23557   3.725   6.805   5.882 -0.6704  0.7643 -1.0323
  191DOPC    HY23558   3.831   6.918   5.847 -5.1712  0.0977  0.6784
  191DOPC   O3123559   3.867   6.837   6.038  0.1864  0.1443  0.2206
  191DOPC   C3123560   3.962   6.924   6.053 -1.2214  0.5559  0.3943
  191DOPC   O3223561   4.022   6.978   5.962 -0.1617 -0.2380 -0.0137
  191DOPC   C3223562   4.000   6.932   6.200 -0.2039  0.4869 -0.6408
  191DOPC   H2X23563   3.918   6.976   6.260  0.2397  0.2410  0.1598
  191DOPC   H2Y23564   4.015   6.830   6.241 -1.9534 -0.3801 -2.0138
  191DOPC   C2323565   4.034   6.455   6.248  0.0490  0.7933  0.4419
  191DOPC   H3R23566   4.133   6.503   6.233  0.1284  0.4775 -0.0754
  191DOPC   H3S23567   4.052   6.348   6.274  0.1542 -0.1093 -2.8856
  191DOPC   C2423568   3.966   6.536   6.364 -0.6559 -0.0410 -0.0563
  191DOPC   H4R23569   3.859   6.506   6.375 -0.4852 -0.4741  0.4366
  191DOPC   H4S23570   3.966   6.643   6.335 -0.3530  0.5970  2.1474
  191DOPC   C2523571   4.042   6.525   6.504 -0.0764 -0.8207  0.0893
  191DOPC   H5R23572   4.151   6.528   6.486 -0.0377 -0.0225  0.4195
  191DOPC   H5S23573   4.016   6.427   6.551 -1.0329 -0.2064  0.8965
  191DOPC   C2623574   4.017   6.645   6.593 -0.4657 -0.1128  0.6273
  191DOPC   H6R23575   3.908   6.668   6.584 -0.0923  2.2039  1.5237
  191DOPC   H6S23576   4.054   6.740   6.550  0.3015 -1.1486 -1.1255
  191DOPC   C2723577   4.074   6.619   6.730  0.2542 -0.1426 -0.1919
  191DOPC   H7R23578   4.185   6.626   6.728  0.2637 -0.4495 -1.1832
  191DOPC   H7S23579   4.044   6.516   6.758  1.8645 -0.3329  1.0236
  191DOPC   C2823580   4.010   6.717   6.833 -0.9637 -0.3505 -0.1076
  191DOPC   H8R23581   4.024   6.659   6.927 -1.9535 -1.1228 -0.4257
  191DOPC   H8S23582   3.902   6.738   6.822 -0.8641 -1.0791 -3.4200
  191DOPC   C2923583   4.086   6.848   6.816  0.3585  0.8644  0.6055
  191DOPC   H9R23584   4.080   6.891   6.715 -0.1733 -0.0076  0.2587
  191DOPC  C21023585   4.146   6.918   6.908 -0.0218 -0.1322  0.0086
  191DOPC  H10R23586   4.173   7.023   6.889 -1.0604  0.2332  0.4833
  191DOPC  C21123587   4.161   6.892   7.061  0.4755  0.5475  0.0559
  191DOPC  H11R23588   4.266   6.919   7.085  0.8415 -1.3073  0.7193
  191DOPC  H11S23589   4.162   6.786   7.096  0.1818  0.4859 -0.1162
  191DOPC  C21223590   4.069   6.976   7.151 -0.4158 -0.0844 -0.0902
  191DOPC  H12R23591   3.974   6.918   7.149  0.6082 -1.8021 -2.4487
  191DOPC  H12S23592   4.058   7.082   7.117 -1.0386  0.0879  0.6087
  191DOPC  C21323593   4.096   6.968   7.303  1.0836 -0.3286 -0.3526
  191DOPC  H13R23594   4.198   7.010   7.321 -0.2088  2.1260  1.9887
  191DOPC  H13S23595   4.099   6.861   7.333 -0.0839 -0.8803 -2.0783
  191DOPC  C21423596   4.000   7.041   7.394  0.2930 -0.1901 -0.4107
  191DOPC  H14R23597   3.909   6.977   7.404  0.9519 -1.1336 -0.2700
  191DOPC  H14S23598   3.982   7.145   7.360 -1.4181  0.1193  1.2551
  191DOPC  C21523599   4.055   7.050   7.542 -0.0736  0.3072  0.0523
  191DOPC  H15R23600   4.136   7.122   7.567 -0.9792  1.1717  0.6082
  191DOPC  H15S23601   4.104   6.951   7.557 -0.6619  0.1516  1.0415
  191DOPC  C21623602   3.947   7.059   7.644  0.8026 -0.5400 -0.1534
  191DOPC  H16R23603   3.925   6.956   7.678 -2.0777 -0.1473 -0.5251
  191DOPC  H16S23604   3.861   7.113   7.598  0.2116  1.5475  3.0739
  191DOPC  C21723605   3.980   7.146   7.766 -0.2369 -0.4133 -0.8873
  191DOPC  H17R23606   4.018   7.246   7.736  1.9559 -0.8765  0.1773
  191DOPC  H17S23607   4.064   7.104   7.826 -0.1107  1.7060  0.4957
  191DOPC  C21823608   3.865   7.160   7.870 -0.1623  0.3476  0.7684
  191DOPC  H18R23609   3.844   7.065   7.923  0.9768 -0.2526  0.1751
  191DOPC  H18S23610   3.773   7.202   7.822 -0.6183  0.9837  2.1587
  191DOPC  H18T23611   3.892   7.235   7.947  0.4959 -0.6168  1.4862
  191DOPC   C3323612   4.131   7.012   6.223  0.5772  1.0881 -0.5000
  191DOPC   H3X23613   4.135   7.114   6.179  0.8243  0.9152 -0.8768
  191DOPC   H3Y23614   4.216   6.952   6.184  1.8039  1.3614  1.5638
  191DOPC   C3423615   4.149   7.025   6.377 -0.4186  0.2244  0.1944
  191DOPC   H4X23616   4.163   6.927   6.426  0.4014  0.8195  1.1895
  191DOPC   H4Y23617   4.061   7.074   6.423 -1.2287 -0.9254 -0.0895
  191DOPC   C3523618   4.262   7.117   6.416 -0.7254 -0.1163  0.0003
  191DOPC   H5X23619   4.276   7.129   6.525  1.9916  0.1335 -0.3080
  191DOPC   H5Y23620   4.227   7.217   6.383  0.6409  0.4532  0.2324
  191DOPC   C3623621   4.402   7.095   6.341 -0.5110  0.4656  0.1717
  191DOPC   H6X23622   4.451   7.005   6.384  0.7789  1.1306  0.1424
  191DOPC   H6Y23623   4.392   7.076   6.232  1.9253 -2.7069  0.3582
  191DOPC   C3723624   4.497   7.215   6.364 -0.5044 -0.1521  0.0438
  191DOPC   H7X23625   4.585   7.193   6.299 -0.6405  1.1308 -0.6201
  191DOPC   H7Y23626   4.448   7.307   6.325  0.4432  2.0270  3.5023
  191DOPC   C3823627   4.537   7.248   6.510 -0.1294 -0.6348  0.1178
  191DOPC   H8X23628   4.451   7.282   6.571 -1.5020 -1.1844 -1.4537
  191DOPC   H8Y23629   4.611   7.331   6.506 -1.7698  0.9337  0.8677
  191DOPC   C3923630   4.607   7.133   6.573 -0.1044  0.0266 -0.4235
  191DOPC   H9X23631   4.674   7.075   6.509  0.1590 -3.0488  2.3450
  191DOPC  C31023632   4.607   7.099   6.699 -0.0523 -0.4482  0.6483
  191DOPC  H10X23633   4.659   7.006   6.727  0.5329 -0.5340 -0.6594
  191DOPC  C31123634   4.530   7.174   6.808 -0.5045  0.6513  0.0694
  191DOPC  H11X23635   4.429   7.131   6.820  0.2854 -1.5276 -0.5752
  191DOPC  H11Y23636   4.530   7.285   6.799  1.0979  0.9900  3.0583
  191DOPC  C31223637   4.591   7.174   6.949 -0.3082  0.7971  0.3373
  191DOPC  H12X23638   4.520   7.231   7.013 -2.9754  1.0967 -2.6479
  191DOPC  H12Y23639   4.685   7.233   6.940  1.0198 -1.3466 -0.4280
  191DOPC  C31323640   4.626   7.030   6.997  0.1905 -0.1657  0.1639
  191DOPC  H13X23641   4.544   6.960   6.972  1.7271 -1.5878 -1.1031
  191DOPC  H13Y23642   4.720   7.005   6.943  0.4452  0.3009  0.3746
  191DOPC  C31423643   4.661   7.025   7.145  0.0649 -0.1344 -0.0948
  191DOPC  H14X23644   4.721   6.933   7.155 -0.3157 -0.2694  1.1445
  191DOPC  H14Y23645   4.730   7.108   7.170 -1.2805  0.8987  0.3567
  191DOPC  C31523646   4.537   7.025   7.233  0.0696 -0.0631 -0.1617
  191DOPC  H15X23647   4.453   6.958   7.208  0.8947 -0.4356 -2.1867
  191DOPC  H15Y23648   4.495   7.127   7.221  0.4485 -0.0282 -1.3830
  191DOPC  C31623649   4.589   7.015   7.379 -0.2121 -0.1535 -0.4455
  191DOPC  H16X23650   4.660   6.929   7.380 -1.2116 -1.1136  2.8321
  191DOPC  H16Y23651   4.654   7.102   7.400  0.5571 -0.5489 -1.1002
  191DOPC  C31723652   4.481   7.007   7.482  0.4712  0.8619 -0.9704
  191DOPC  H17X23653   4.511   7.026   7.587 -1.9647  1.5416 -0.3335
  191DOPC  H17Y23654   4.397   7.080   7.475 -0.7180 -0.4685 -0.8375
  191DOPC  C31823655   4.410   6.868   7.485  0.2862  0.1298  0.0510
  191DOPC  H18X23656   4.342   6.863   7.572  0.2968  1.6852  0.1702
  191DOPC  H18Y23657   4.355   6.859   7.389  0.7464  2.0998 -0.4479
  191DOPC  H18Z23658   4.485   6.786   7.490  0.1640 -0.3309 -3.3348
  192DOPC     N23659   0.429   4.182   4.740  0.2926 -0.0784 -0.4040
  192DOPC   C1223660   0.357   4.251   4.858  0.1656  0.1072  0.7848
  192DOPC  H12A23661   0.349   4.177   4.937 -2.6805  1.2875  1.7518
  192DOPC  H12B23662   0.254   4.267   4.827  0.6418 -3.1880 -3.3415
  192DOPC   C1323663   0.570   4.145   4.768 -0.2321 -0.4862  0.0568
  192DOPC  H13A23664   0.625   4.102   4.686  0.0765 -0.8676  0.4586
  192DOPC  H13B23665   0.619   4.235   4.802  1.2812 -0.6917 -1.4487
  192DOPC  H13C23666   0.569   4.081   4.855 -2.3589  1.0009  1.2202
  192DOPC   C1423667   0.426   4.262   4.616  0.0937 -0.6031  0.1629
  192DOPC  H14A23668   0.471   4.359   4.625  0.8177 -1.0252  1.3011
  192DOPC  H14B23669   0.459   4.204   4.531 -0.6809 -0.8502  0.0187
  192DOPC  H14C23670   0.320   4.274   4.595  0.0363 -1.2440  0.0457
  192DOPC   C1523671   0.357   4.056   4.707  0.0847 -0.1463  0.4304
  192DOPC  H15A23672   0.249   4.049   4.701 -0.0224 -0.7000  2.3702
  192DOPC  H15B23673   0.384   3.978   4.777 -1.4429 -0.6549  0.4816
  192DOPC  H15C23674   0.404   4.020   4.617  1.2794  0.7712  0.6635
  192DOPC   C1123675   0.417   4.377   4.923 -0.4370 -0.1575 -0.4462
  192DOPC  H11A23676   0.425   4.455   4.845 -0.1634  0.1070 -0.1554
  192DOPC  H11B23677   0.349   4.422   4.999 -1.2963 -0.8653 -0.7734
  192DOPC     P23678   0.620   4.432   5.091 -0.0380  0.0702  0.0351
  192DOPC   O1323679   0.640   4.574   5.066  0.1599 -0.1320  0.6911
  192DOPC   O1423680   0.739   4.349   5.120 -0.6216 -0.5483 -0.2584
  192DOPC   O1223681   0.552   4.364   4.963 -0.2274  0.2337 -0.0003
  192DOPC   O1123682   0.508   4.424   5.202 -0.3849  0.4397  0.1591
  192DOPC    C123683   0.467   4.285   5.232  0.0058  0.4566 -0.3022
  192DOPC    HA23684   0.531   4.199   5.205 -2.3535 -1.7105  0.6000
  192DOPC    HB23685   0.376   4.255   5.175  0.0739  0.2180 -0.2861
  192DOPC    C223686   0.445   4.269   5.386  0.1033 -0.3551  0.1856
  192DOPC    HS23687   0.391   4.362   5.412 -0.5502 -1.1461  1.8002
  192DOPC   O2123688   0.575   4.261   5.449  0.0131 -0.1304 -0.5440
  192DOPC   C2123689   0.587   4.358   5.536 -0.7484 -0.6400 -0.0199
  192DOPC   O2223690   0.522   4.461   5.547  0.4621  0.2371  0.1433
  192DOPC   C2223691   0.702   4.315   5.627 -0.2851 -0.6856  0.2410
  192DOPC   H2R23692   0.794   4.302   5.566  1.5061  0.4795  2.5102
  192DOPC   H2S23693   0.672   4.215   5.665  1.7439 -0.4875  2.5957
  192DOPC    C323694   0.358   4.153   5.427  0.0558  0.0323  0.9306
  192DOPC    HX23695   0.409   4.061   5.390 -2.4111 -0.9681 -0.2448
  192DOPC    HY23696   0.258   4.165   5.381  0.6499  1.1458 -0.1053
  192DOPC   O3123697   0.344   4.134   5.565 -0.3411 -0.0496  0.3677
  192DOPC   C3123698   0.233   4.191   5.618  0.8821  0.3665 -0.2990
  192DOPC   O3223699   0.142   4.243   5.553 -0.2322  0.2249 -0.1326
  192DOPC   C3223700   0.245   4.191   5.772 -0.0920  0.0896  0.4186
  192DOPC   H2X23701   0.236   4.294   5.812  1.7808 -0.2084  1.7021
  192DOPC   H2Y23702   0.153   4.142   5.812 -0.4832  1.1372  0.8609
  192DOPC   C2323703   0.730   4.409   5.744  1.0194 -0.3164  0.3423
  192DOPC   H3R23704   0.749   4.515   5.716 -2.7905  0.7375  1.1862
  192DOPC   H3S23705   0.818   4.367   5.795 -0.7309 -1.8877  2.1966
  192DOPC   C2423706   0.611   4.416   5.835  0.6431 -0.1107 -0.3486
  192DOPC   H4R23707   0.597   4.320   5.888  1.2971  0.6771  1.3337
  192DOPC   H4S23708   0.522   4.450   5.779  1.0933 -1.0341 -1.6691
  192DOPC   C2523709   0.629   4.514   5.946  0.4667  0.3801  0.3194
  192DOPC   H5R23710   0.656   4.610   5.897 -2.0438 -0.2284 -2.5616
  192DOPC   H5S23711   0.717   4.480   6.006 -0.3503  0.2456  1.4878
  192DOPC   C2623712   0.499   4.544   6.023  0.3318 -0.0448  0.4736
  192DOPC   H6R23713   0.527   4.618   6.101 -3.7279  0.7762  1.3795
  192DOPC   H6S23714   0.466   4.449   6.072  1.8095 -2.4067 -2.7891
  192DOPC   C2723715   0.381   4.605   5.944  0.2606 -0.5825  0.3017
  192DOPC   H7R23716   0.357   4.538   5.858  1.1260 -0.2342 -0.2259
  192DOPC   H7S23717   0.415   4.702   5.902  1.6376 -1.6391 -1.1189
  192DOPC   C2823718   0.252   4.638   6.030  0.4769  0.0915  0.4588
  192DOPC   H8R23719   0.198   4.544   6.056  0.0168  0.2738  0.1664
  192DOPC   H8S23720   0.186   4.696   5.963 -0.6070 -1.9504 -0.3398
  192DOPC   C2923721   0.273   4.739   6.139  0.2088 -0.4691 -0.4409
  192DOPC   H9R23722   0.320   4.836   6.117 -0.8887  0.6009  1.5796
  192DOPC  C21023723   0.237   4.725   6.267  0.0937 -0.1278  0.7885
  192DOPC  H10R23724   0.267   4.804   6.337  1.5953 -0.4425  0.5290
  192DOPC  C21123725   0.174   4.601   6.328 -0.6469  0.1431 -0.1511
  192DOPC  H11R23726   0.223   4.509   6.290  1.0735  0.1632  1.8534
  192DOPC  H11S23727   0.069   4.602   6.291 -1.6031  0.0841  2.3403
  192DOPC  C21223728   0.172   4.598   6.482 -0.8024  0.1726 -0.0707
  192DOPC  H12R23729   0.267   4.591   6.539 -0.8034  0.9942  0.0324
  192DOPC  H12S23730   0.123   4.502   6.513  3.1616 -1.2613  2.5708
  192DOPC  C21323731   0.087   4.709   6.548  0.1374  0.7588 -0.2699
  192DOPC  H13R23732  -0.001   4.733   6.484  0.8399 -1.3159 -2.1504
  192DOPC  H13S23733   0.146   4.803   6.552  1.0545  0.2010 -0.4549
  192DOPC  C21423734   0.053   4.682   6.693  0.0400 -0.0172 -0.8224
  192DOPC  H14R23735   0.002   4.583   6.692  0.4153 -0.2188 -0.4539
  192DOPC  H14S23736  -0.016   4.758   6.734 -2.6332 -3.0931  0.8527
  192DOPC  C21523737   0.176   4.667   6.780  0.2341 -0.6091  0.0736
  192DOPC  H15R23738   0.232   4.762   6.775 -1.4309  0.3409 -1.8431
  192DOPC  H15S23739   0.231   4.579   6.741  1.1827 -0.0415  0.1041
  192DOPC  C21623740   0.149   4.651   6.930 -0.4523 -0.3809 -0.2703
  192DOPC  H16R23741   0.079   4.567   6.951 -1.6711  0.8447  0.7310
  192DOPC  H16S23742   0.100   4.745   6.964  1.9931  1.0861 -0.5361
  192DOPC  C21723743   0.284   4.628   6.999  0.3926  0.5819 -0.0148
  192DOPC  H17R23744   0.332   4.536   6.959  0.5421  1.7055 -2.6159
  192DOPC  H17S23745   0.247   4.591   7.097  0.2729  2.3933  0.6492
  192DOPC  C21823746   0.385   4.748   7.000  0.0713 -0.2275 -0.6721
  192DOPC  H18R23747   0.413   4.760   6.893 -0.5515 -3.5723 -1.3156
  192DOPC  H18S23748   0.465   4.716   7.070 -1.1947 -2.5426 -0.2163
  192DOPC  H18T23749   0.341   4.846   7.030 -1.5877 -1.4611  1.1431
  192DOPC   C3323750   0.374   4.137   5.816 -0.4559  0.0664 -0.2341
  192DOPC   H3X23751   0.447   4.190   5.751 -1.5938 -0.4744 -2.0354
  192DOPC   H3Y23752   0.395   4.036   5.775  3.9377  1.4295 -1.8666
  192DOPC   C3423753   0.406   4.160   5.965 -0.6419 -0.2414 -0.6733
  192DOPC   H4X23754   0.388   4.266   5.992 -0.2691 -0.1543 -0.7634
  192DOPC   H4Y23755   0.510   4.126   5.987 -1.2667 -1.5138  0.4154
  192DOPC   C3523756   0.323   4.080   6.071 -0.4999 -0.1188  0.0090
  192DOPC   H5X23757   0.365   3.977   6.072  0.7198  0.2807 -2.3257
  192DOPC   H5Y23758   0.217   4.076   6.038 -0.5869  0.0395  0.2677
  192DOPC   C3623759   0.328   4.135   6.211 -0.4910 -0.1794  0.0369
  192DOPC   H6X23760   0.438   4.137   6.229 -0.6391  0.3186  0.9908
  192DOPC   H6Y23761   0.286   4.237   6.225 -0.6244 -0.0676 -1.1401
  192DOPC   C3723762   0.270   4.043   6.320  0.0665  0.0546 -0.0808
  192DOPC   H7X23763   0.160   4.059   6.323 -0.2448 -1.1127 -2.7733
  192DOPC   H7Y23764   0.294   3.938   6.294 -0.2538  0.1205 -0.6444
  192DOPC   C3823765   0.328   4.067   6.454  0.8280 -0.4917  0.3058
  192DOPC   H8X23766   0.433   4.031   6.450  1.0553  0.1515  0.3477
  192DOPC   H8Y23767   0.292   3.992   6.528 -0.0968 -0.3745 -0.0049
  192DOPC   C3923768   0.323   4.205   6.505  0.2611  0.0361  0.3283
  192DOPC   H9X23769   0.366   4.291   6.452 -1.0529  1.7112  1.8596
  192DOPC  C31023770   0.277   4.236   6.630 -0.4979 -0.2004  0.0473
  192DOPC  H10X23771   0.291   4.339   6.665  1.1289  0.0568 -1.2487
  192DOPC  C31123772   0.219   4.144   6.736  0.4671  0.2572 -0.3491
  192DOPC  H11X23773   0.265   4.043   6.732  0.6134  0.1917  1.7093
  192DOPC  H11Y23774   0.108   4.139   6.732  0.4787 -1.8198  0.7348
  192DOPC  C31223775   0.257   4.192   6.879 -0.0846  0.1456 -0.3845
  192DOPC  H12X23776   0.211   4.119   6.949  1.1662  0.6926  1.0740
  192DOPC  H12Y23777   0.219   4.295   6.896  1.0056  0.3892  0.7200
  192DOPC  C31323778   0.402   4.176   6.915 -0.0326 -0.5161  0.2595
  192DOPC  H13X23779   0.442   4.086   6.863 -1.7607 -2.2304  1.6991
  192DOPC  H13Y23780   0.451   4.255   6.855 -2.8838  0.5287 -0.8200
  192DOPC  C31423781   0.432   4.185   7.066 -0.0857 -0.1809 -0.8733
  192DOPC  H14X23782   0.403   4.285   7.105  0.8042 -0.4207  0.4533
  192DOPC  H14Y23783   0.367   4.107   7.113  0.4236 -1.6006 -2.4091
  192DOPC  C31523784   0.568   4.147   7.121 -0.3779 -0.1706 -0.0490
  192DOPC  H15X23785   0.612   4.064   7.062 -0.7567 -0.9749  0.7718
  192DOPC  H15Y23786   0.560   4.122   7.229 -2.8802  0.2302 -0.0955
  192DOPC  C31623787   0.673   4.260   7.108  0.3097  0.2301 -0.3177
  192DOPC  H16X23788   0.659   4.292   7.003  0.6523  1.4266 -0.0148
  192DOPC  H16Y23789   0.640   4.339   7.179  0.0187  0.0647 -0.2689
  192DOPC  C31723790   0.818   4.220   7.133  0.0235 -0.3787  0.6606
  192DOPC  H17X23791   0.831   4.139   7.058  0.8179  1.6291 -1.5025
  192DOPC  H17Y23792   0.886   4.298   7.094  0.2954 -0.6601  0.5674
  192DOPC  C31823793   0.857   4.177   7.274  0.0453  0.6466  0.6373
  192DOPC  H18X23794   0.957   4.129   7.276 -0.0351  0.4860  0.8454
  192DOPC  H18Y23795   0.862   4.266   7.340 -3.5711  0.5344  1.2432
  192DOPC  H18Z23796   0.783   4.108   7.319  0.4317 -1.0677 -1.2095
  193DOPC     N23797   0.128   0.944   4.956 -0.0321  0.0290 -0.3072
  193DOPC   C1223798   0.252   0.937   5.044  0.3307  0.2185 -0.5678
  193DOPC  H12A23799   0.313   1.025   5.030  1.0844 -0.4893 -1.9434
  193DOPC  H12B23800   0.317   0.856   5.015 -0.6496 -0.9164  0.3065
  193DOPC   C1323801   0.173   0.991   4.823 -0.7680  1.2452 -0.5971
  193DOPC  H13A23802   0.228   0.915   4.770  0.5139  1.4442  0.3937
  193DOPC  H13B23803   0.101   1.028   4.752 -1.3971  2.1333  0.4827
  193DOPC  H13C23804   0.250   1.067   4.824  2.3460 -1.6418 -1.6532
  193DOPC   C1423805   0.022   1.036   5.007  0.0715  0.8612 -0.3057
  193DOPC  H14A23806  -0.075   1.008   4.970 -1.3781 -2.3665  4.9152
  193DOPC  H14B23807   0.013   1.023   5.114  1.8378  0.3929 -0.1799
  193DOPC  H14C23808   0.052   1.135   4.978  0.9578  0.3040 -1.4032
  193DOPC   C1523809   0.062   0.811   4.951 -0.4652  0.4986 -0.3943
  193DOPC  H15A23810   0.126   0.745   4.894 -1.4684 -0.6392 -0.2429
  193DOPC  H15B23811  -0.038   0.820   4.910 -1.0258  0.6524  0.9596
  193DOPC  H15C23812   0.045   0.774   5.051  1.0810  1.8818  0.4211
  193DOPC   C1123813   0.242   0.924   5.203  0.8761 -0.6544 -0.3472
  193DOPC  H11A23814   0.181   0.832   5.214  0.5430 -0.4966 -0.8414
  193DOPC  H11B23815   0.346   0.903   5.235  0.8832 -0.3080 -0.1376
  193DOPC     P23816   0.249   1.173   5.264  0.1667 -0.0000 -0.0882
  193DOPC   O1323817   0.151   1.272   5.203 -0.1230 -0.2494  0.2102
  193DOPC   O1423818   0.383   1.161   5.201 -0.0782  0.2904  0.1116
  193DOPC   O1223819   0.187   1.036   5.276 -0.0077 -0.2661  0.0691
  193DOPC   O1123820   0.281   1.209   5.412  0.2169 -0.1503  0.0719
  193DOPC    C123821   0.361   1.114   5.491  0.3135 -0.5082  0.2694
  193DOPC    HA23822   0.427   1.167   5.563 -0.7272 -0.7791  1.4637
  193DOPC    HB23823   0.425   1.050   5.426  0.0509 -0.4152 -0.0844
  193DOPC    C223824   0.270   1.026   5.579  0.1906  0.0445 -0.2839
  193DOPC    HS23825   0.186   0.982   5.521 -0.3579 -0.8104  1.1112
  193DOPC   O2123826   0.219   1.108   5.689  0.0480 -0.0090 -0.0687
  193DOPC   C2123827   0.102   1.078   5.724  0.2743  0.5043 -0.4087
  193DOPC   O2223828   0.032   0.985   5.676 -0.8447  0.0316 -0.2011
  193DOPC   C2223829   0.059   1.170   5.842  0.8628  0.7433  0.8511
  193DOPC   H2R23830  -0.046   1.140   5.863  0.0603 -0.0676 -3.2949
  193DOPC   H2S23831   0.042   1.275   5.809 -0.0539  0.9934  2.0663
  193DOPC    C323832   0.360   0.909   5.636  0.2284 -0.8396 -0.4083
  193DOPC    HX23833   0.396   0.843   5.555  2.3797 -0.9314  0.5592
  193DOPC    HY23834   0.308   0.840   5.706  0.3311  0.0641  0.5897
  193DOPC   O3123835   0.485   0.956   5.696 -0.2444  0.3502  0.4844
  193DOPC   C3123836   0.481   0.980   5.825  0.6349  0.8510  0.1763
  193DOPC   O3223837   0.387   0.955   5.902  0.3030 -0.1583  0.1956
  193DOPC   C3223838   0.603   1.042   5.872 -0.0130 -0.2405  0.0906
  193DOPC   H2X23839   0.697   0.990   5.844  1.7551  2.6076  0.3160
  193DOPC   H2Y23840   0.599   1.132   5.807  1.4505 -0.1737  0.0713
  193DOPC   C2323841   0.151   1.155   5.962  0.1699 -0.1920  0.0685
  193DOPC   H3R23842   0.253   1.191   5.936 -0.8509  2.1507 -0.9834
  193DOPC   H3S23843   0.156   1.046   5.984 -1.2113 -0.6396 -1.5514
  193DOPC   C2423844   0.085   1.214   6.088  0.7322  0.3074 -0.0275
  193DOPC   H4R23845  -0.004   1.158   6.124 -0.1019  1.5785 -0.0315
  193DOPC   H4S23846   0.044   1.310   6.050 -0.4984 -0.1893  0.0109
  193DOPC   C2523847   0.187   1.228   6.198 -0.0447  0.1657 -0.1110
  193DOPC   H5R23848   0.257   1.312   6.176  1.2289 -0.8035  0.1560
  193DOPC   H5S23849   0.255   1.141   6.202  2.0181  1.7105 -0.0995
  193DOPC   C2623850   0.133   1.243   6.339 -0.1575 -1.1612  0.1080
  193DOPC   H6R23851   0.073   1.152   6.361 -0.1368 -1.1147  0.3672
  193DOPC   H6S23852   0.053   1.321   6.342 -0.5627 -1.5637 -0.0406
  193DOPC   C2723853   0.246   1.255   6.446 -0.2018  0.6450 -0.7192
  193DOPC   H7R23854   0.313   1.343   6.444  0.3550  0.3916  2.3873
  193DOPC   H7S23855   0.323   1.175   6.440 -1.7289 -0.9110 -0.3827
  193DOPC   C2823856   0.181   1.249   6.581  0.0797  0.4221 -0.3073
  193DOPC   H8R23857   0.144   1.144   6.591  0.6373  0.2484 -0.0340
  193DOPC   H8S23858   0.097   1.322   6.580  1.1816  1.7727  1.4278
  193DOPC   C2923859   0.272   1.274   6.704 -0.4432  0.3474  0.2691
  193DOPC   H9R23860   0.357   1.338   6.677  1.3904 -1.9320  0.2543
  193DOPC  C21023861   0.256   1.252   6.837  0.5097 -0.1447  0.1580
  193DOPC  H10R23862   0.340   1.274   6.904 -0.0523 -3.1714  2.0408
  193DOPC  C21123863   0.141   1.177   6.903 -0.3360 -0.1063  0.4713
  193DOPC  H11R23864   0.065   1.137   6.833 -0.6010  0.4332  0.4406
  193DOPC  H11S23865   0.092   1.256   6.965 -2.6282  0.3231 -1.7254
  193DOPC  C21223866   0.186   1.067   7.001 -0.0500  0.4249  0.0881
  193DOPC  H12R23867   0.249   0.999   6.939 -0.5471  1.7399 -1.9489
  193DOPC  H12S23868   0.092   1.013   7.024 -0.2174  1.2476  1.4035
  193DOPC  C21323869   0.258   1.124   7.121  0.2862  0.4794  0.3894
  193DOPC  H13R23870   0.184   1.190   7.172  0.5379 -0.3294  1.8772
  193DOPC  H13S23871   0.343   1.189   7.093 -1.0916  1.6648 -1.1785
  193DOPC  C21423872   0.285   1.023   7.227 -0.6647  0.6662 -0.4923
  193DOPC  H14R23873   0.202   0.951   7.243 -0.0707  0.0969  0.0852
  193DOPC  H14S23874   0.306   1.079   7.321  0.7471 -0.5778 -0.0365
  193DOPC  C21523875   0.417   0.948   7.191  0.4309  0.6602  0.4394
  193DOPC  H15R23876   0.493   1.029   7.185  0.8800  0.1800 -0.6541
  193DOPC  H15S23877   0.401   0.897   7.093 -0.4663  0.8661  0.4670
  193DOPC  C21623878   0.449   0.853   7.302 -0.2944 -0.1968 -0.0108
  193DOPC  H16R23879   0.385   0.763   7.296 -1.4605  0.5855  0.3176
  193DOPC  H16S23880   0.431   0.902   7.400 -1.4367  0.7028 -0.6497
  193DOPC  C21723881   0.598   0.818   7.306 -0.4083 -0.5157 -0.2359
  193DOPC  H17R23882   0.668   0.904   7.311  2.0679 -2.3984 -0.6345
  193DOPC  H17S23883   0.626   0.757   7.217  1.4963 -1.7225  1.1000
  193DOPC  C21823884   0.637   0.737   7.431  0.0439 -0.4074 -0.8873
  193DOPC  H18R23885   0.616   0.798   7.522 -1.1066  1.2226 -2.1780
  193DOPC  H18S23886   0.746   0.716   7.432  0.0771 -0.3506  0.7443
  193DOPC  H18T23887   0.583   0.641   7.447  0.7117 -0.9475 -1.8171
  193DOPC   C3323888   0.600   1.092   6.015 -1.1976  0.4601 -0.2180
  193DOPC   H3X23889   0.576   1.003   6.078  0.9872 -0.1928 -0.2163
  193DOPC   H3Y23890   0.516   1.163   6.025 -1.2156  0.4311 -0.1588
  193DOPC   C3423891   0.726   1.161   6.058 -0.1239 -0.9481 -0.2993
  193DOPC   H4X23892   0.746   1.241   5.984 -1.8488 -1.3574 -1.2702
  193DOPC   H4Y23893   0.818   1.099   6.049 -0.9649 -2.4486  0.8737
  193DOPC   C3523894   0.717   1.215   6.200 -0.1681  0.0079  0.1680
  193DOPC   H5X23895   0.633   1.286   6.207  0.8705  1.1841  1.1123
  193DOPC   H5Y23896   0.818   1.260   6.212 -0.3181  0.5036 -0.3880
  193DOPC   C3623897   0.689   1.104   6.316 -0.2862  0.3991  0.1985
  193DOPC   H6X23898   0.586   1.062   6.321 -0.5835  1.0581 -0.1834
  193DOPC   H6Y23899   0.748   1.013   6.292  1.0864  0.4931  2.8209
  193DOPC   C3723900   0.737   1.147   6.458 -0.0789 -0.5691 -0.0727
  193DOPC   H7X23901   0.845   1.173   6.464 -0.5040  1.0671  1.9634
  193DOPC   H7Y23902   0.687   1.241   6.493  0.2566  1.2080 -3.9079
  193DOPC   C3823903   0.721   1.046   6.579  0.3250  0.5857  0.3694
  193DOPC   H8X23904   0.791   1.070   6.662  1.4068 -2.0436  0.3220
  193DOPC   H8Y23905   0.748   0.946   6.539  2.6950  0.8029  1.2359
  193DOPC   C3923906   0.583   1.034   6.629  0.4191 -0.7098 -0.0147
  193DOPC   H9X23907   0.511   0.998   6.554 -0.6736 -0.1341  0.7313
  193DOPC  C31023908   0.549   1.048   6.757  0.6568  0.4348  0.1646
  193DOPC  H10X23909   0.442   1.044   6.782  0.4132  0.1596 -0.8664
  193DOPC  C31123910   0.649   1.071   6.871 -0.1079 -0.4217  0.5815
  193DOPC  H11X23911   0.747   1.019   6.861 -0.3912 -1.1425  1.4904
  193DOPC  H11Y23912   0.607   1.038   6.968  2.8990 -0.1654  2.1003
  193DOPC  C31223913   0.677   1.221   6.897  0.1447 -0.4323  0.0940
  193DOPC  H12X23914   0.577   1.262   6.920  0.0436 -0.1253 -0.8481
  193DOPC  H12Y23915   0.707   1.275   6.804 -0.3962 -2.0691 -1.0728
  193DOPC  C31323916   0.759   1.236   7.025  0.4290  0.0542  0.5493
  193DOPC  H13X23917   0.745   1.331   7.080  1.1881  0.3936  0.1716
  193DOPC  H13Y23918   0.728   1.161   7.101  0.2527  2.0938  2.5798
  193DOPC  C31423919   0.910   1.230   7.009 -0.4372 -0.1423  0.1027
  193DOPC  H14X23920   0.946   1.137   6.961 -0.5623 -0.9727  1.5465
  193DOPC  H14Y23921   0.935   1.305   6.931 -0.0192 -0.3774  0.0105
  193DOPC  C31523922   0.991   1.253   7.136 -0.1234  0.0107  0.2088
  193DOPC  H15X23923   0.999   1.163   7.200  2.5972  0.0886  0.0895
  193DOPC  H15Y23924   0.947   1.340   7.189 -1.7648 -0.4708 -0.3031
  193DOPC  C31623925   1.140   1.277   7.096 -0.3365  0.3131  0.1765
  193DOPC  H16X23926   1.152   1.374   7.043 -1.4901 -0.0505 -0.8037
  193DOPC  H16Y23927   1.214   1.274   7.179  0.2358 -0.6691 -0.3484
  193DOPC  C31723928   1.208   1.168   7.006 -0.3329  0.2226 -0.8981
  193DOPC  H17X23929   1.205   1.083   7.078 -0.1505  2.5073  2.0117
  193DOPC  H17Y23930   1.157   1.141   6.911 -0.0228  0.5403 -1.1561
  193DOPC  C31823931   1.353   1.213   6.974  0.8184  0.4253 -0.0230
  193DOPC  H18X23932   1.400   1.151   6.895  1.4507 -0.1786  0.8169
  193DOPC  H18Y23933   1.345   1.321   6.947  0.4319  0.1492 -1.0924
  193DOPC  H18Z23934   1.411   1.196   7.067 -1.4305 -4.2813  0.7990
  194DOPC     N23935   1.812   6.097   4.931  0.0637 -0.3633 -0.0074
  194DOPC   C1223936   1.751   6.059   5.070  0.3683 -0.0508 -0.3237
  194DOPC  H12A23937   1.820   5.995   5.124  1.2990  1.0899 -0.1297
  194DOPC  H12B23938   1.674   5.985   5.053 -0.1136  0.4089 -0.1367
  194DOPC   C1323939   1.891   5.977   4.883 -0.2819  0.0420 -0.2370
  194DOPC  H13A23940   1.838   5.883   4.891 -0.2758 -0.0683 -1.3074
  194DOPC  H13B23941   1.937   6.001   4.788  0.4604 -0.3235  0.0232
  194DOPC  H13C23942   1.973   5.964   4.953 -1.2557  1.9962  1.3543
  194DOPC   C1423943   1.901   6.221   4.950  1.0035  0.2512 -0.8542
  194DOPC  H14A23944   1.835   6.306   4.959 -1.6978 -1.7834 -0.3620
  194DOPC  H14B23945   1.968   6.208   5.034  1.3085  1.7026 -0.8469
  194DOPC  H14C23946   1.960   6.225   4.859  1.6734 -0.3394 -0.4636
  194DOPC   C1523947   1.706   6.117   4.821  0.0340 -0.7648  0.1279
  194DOPC  H15A23948   1.633   6.039   4.804  0.5469 -1.6301  1.6698
  194DOPC  H15B23949   1.755   6.119   4.724 -0.2641 -0.0078 -0.0122
  194DOPC  H15C23950   1.659   6.214   4.829 -1.6973 -1.4770 -0.9863
  194DOPC   C1123951   1.706   6.172   5.163 -0.1739 -0.5304 -0.8851
  194DOPC  H11A23952   1.648   6.251   5.109  0.2169  0.1529 -0.3241
  194DOPC  H11B23953   1.632   6.140   5.240  0.8631  2.4157  1.5132
  194DOPC     P23954   1.832   6.337   5.323 -0.5240 -0.0096  0.0949
  194DOPC   O1323955   1.702   6.371   5.370  0.5031 -0.2049  0.5200
  194DOPC   O1423956   1.907   6.442   5.257 -0.2344 -0.1373 -0.7126
  194DOPC   O1223957   1.825   6.216   5.220  0.3819 -0.4199  0.5175
  194DOPC   O1123958   1.923   6.267   5.439  0.1473 -0.4247  0.0759
  194DOPC    C123959   1.854   6.155   5.510 -0.2194  0.8135 -0.3117
  194DOPC    HA23960   1.935   6.092   5.552 -1.2361  0.3669  1.0481
  194DOPC    HB23961   1.791   6.092   5.443  0.3516  1.4643 -1.5036
  194DOPC    C223962   1.762   6.198   5.628 -0.2833 -0.1079 -0.0322
  194DOPC    HS23963   1.670   6.220   5.570  1.1393 -0.5293 -2.6264
  194DOPC   O2123964   1.824   6.312   5.691 -0.6872  0.3934 -0.2464
  194DOPC   C2123965   1.733   6.387   5.749  0.5814 -0.1395  0.4973
  194DOPC   O2223966   1.616   6.371   5.739  0.1936  0.1733  0.1458
  194DOPC   C2223967   1.803   6.527   5.771  0.3685  0.7250 -0.0530
  194DOPC   H2R23968   1.734   6.607   5.736 -0.3740 -0.1660 -0.6776
  194DOPC   H2S23969   1.900   6.530   5.718  0.0408  1.9483 -0.6141
  194DOPC    C323970   1.727   6.077   5.722 -0.1644 -0.3528  0.1027
  194DOPC    HX23971   1.824   6.037   5.758  1.5225  0.9128 -2.7277
  194DOPC    HY23972   1.680   5.998   5.659 -0.6447 -1.9859  2.3744
  194DOPC   O3123973   1.639   6.104   5.836  0.0484 -0.6680 -0.5184
  194DOPC   C3123974   1.508   6.075   5.821 -0.2528 -0.6304 -0.3154
  194DOPC   O3223975   1.456   6.028   5.724  0.3774  0.0805 -0.2626
  194DOPC   C3223976   1.429   6.140   5.943 -0.0710  0.6515  0.5075
  194DOPC   H2X23977   1.462   6.106   6.043 -0.6102  2.4483  1.3345
  194DOPC   H2Y23978   1.449   6.250   5.941  2.5506  0.2549 -2.4659
  194DOPC   C2323979   1.827   6.559   5.924  0.1759  0.6417  0.2383
  194DOPC   H3R23980   1.765   6.490   5.985 -2.6563  2.5385 -0.2957
  194DOPC   H3S23981   1.792   6.661   5.952  1.2880  0.4749  2.4470
  194DOPC   C2423982   1.971   6.566   5.956  0.4262  0.0586  0.2689
  194DOPC   H4R23983   2.008   6.659   5.906  0.1655  1.1601  2.0415
  194DOPC   H4S23984   2.017   6.476   5.910 -0.7650 -1.2737  1.6222
  194DOPC   C2523985   2.004   6.578   6.101 -0.7757  0.2172  0.7365
  194DOPC   H5R23986   1.972   6.494   6.167  0.2284 -1.4409 -0.8033
  194DOPC   H5S23987   1.953   6.669   6.139 -0.3099 -0.1214  2.2637
  194DOPC   C2623988   2.158   6.601   6.115 -0.1743 -0.8852 -0.1816
  194DOPC   H6R23989   2.175   6.694   6.057  0.2278 -0.7744  0.1108
  194DOPC   H6S23990   2.218   6.517   6.073  0.8841 -0.7384  0.9996
  194DOPC   C2723991   2.202   6.633   6.261 -0.0152  0.3873  0.2635
  194DOPC   H7R23992   2.145   6.720   6.300 -1.1095  0.5931 -1.6649
  194DOPC   H7S23993   2.309   6.664   6.259  0.6732 -1.8611 -1.1029
  194DOPC   C2823994   2.200   6.518   6.364 -1.2939 -0.3871 -0.3273
  194DOPC   H8R23995   2.255   6.552   6.454  1.3760  1.3083 -2.4233
  194DOPC   H8S23996   2.251   6.427   6.323 -1.8863 -0.8755  0.0076
  194DOPC   C2923997   2.060   6.480   6.396  0.2878  0.7514 -0.2282
  194DOPC   H9R23998   2.012   6.402   6.335 -1.6982  0.5846  1.4238
  194DOPC  C21023999   2.001   6.525   6.507  0.3494 -0.6869 -1.0001
  194DOPC  H10R24000   1.893   6.508   6.514  0.0878  0.8228 -1.0806
  194DOPC  C21124001   2.042   6.626   6.610 -0.6173 -0.1638 -0.1104
  194DOPC  H11R24002   1.984   6.721   6.597 -0.8814  0.2370  3.0810
  194DOPC  H11S24003   2.150   6.649   6.602 -0.2380 -1.2432  1.4813
  194DOPC  C21224004   2.024   6.588   6.752  0.2159  0.1243 -0.5142
  194DOPC  H12R24005   2.078   6.494   6.774 -0.5277  0.1311  1.6455
  194DOPC  H12S24006   1.919   6.554   6.765  0.1723 -0.2623 -1.7807
  194DOPC  C21324007   2.072   6.694   6.861  0.2815  0.3891 -0.3497
  194DOPC  H13R24008   2.029   6.795   6.839  0.3363  0.4830 -0.0261
  194DOPC  H13S24009   2.182   6.709   6.853  0.8796 -0.8441  3.6381
  194DOPC  C21424010   2.044   6.667   7.010  0.3256 -0.4423  0.3938
  194DOPC  H14R24011   1.934   6.652   7.022  0.0800 -0.7711 -1.8962
  194DOPC  H14S24012   2.066   6.762   7.063  3.1042  1.0334 -3.0527
  194DOPC  C21524013   2.121   6.540   7.061  0.2676 -0.0206  0.2587
  194DOPC  H15R24014   2.227   6.540   7.029 -0.0919  2.6829 -1.2535
  194DOPC  H15S24015   2.074   6.448   7.019 -0.1275 -0.5920  1.9005
  194DOPC  C21624016   2.118   6.532   7.209  0.3698  0.6886  0.4403
  194DOPC  H16R24017   2.014   6.505   7.235 -0.7714  2.1851 -2.2612
  194DOPC  H16S24018   2.138   6.633   7.250 -1.8831  0.2676  2.7848
  194DOPC  C21724019   2.213   6.420   7.255  0.5623 -0.2202 -0.2905
  194DOPC  H17R24020   2.307   6.430   7.198  1.2369 -1.4019  0.5689
  194DOPC  H17S24021   2.179   6.317   7.230  2.3025 -1.1645  0.9989
  194DOPC  C21824022   2.249   6.435   7.402 -0.6680  0.4885  0.1629
  194DOPC  H18R24023   2.326   6.359   7.430 -0.0291  0.4213 -1.6341
  194DOPC  H18S24024   2.160   6.418   7.466 -0.0266 -1.9477  0.5049
  194DOPC  H18T24025   2.288   6.538   7.412  0.2633  0.0644  1.1397
  194DOPC   C3324026   1.273   6.107   5.940 -0.1239  0.4116 -0.2392
  194DOPC   H3X24027   1.260   5.998   5.925  0.4621  0.3921 -0.6238
  194DOPC   H3Y24028   1.239   6.153   5.845 -0.3495 -1.5410 -1.1464
  194DOPC   C3424029   1.188   6.158   6.061 -0.2824 -0.0558  0.3878
  194DOPC   H4X24030   1.080   6.138   6.042 -0.6000  1.1822  0.7691
  194DOPC   H4Y24031   1.190   6.269   6.065 -2.0138  0.0519 -0.5253
  194DOPC   C3524032   1.230   6.103   6.190  0.4220 -0.0476 -0.3559
  194DOPC   H5X24033   1.330   6.137   6.225  1.7764 -2.5609 -1.5398
  194DOPC   H5Y24034   1.241   5.993   6.177 -0.6451  0.0673 -2.9330
  194DOPC   C3624035   1.124   6.136   6.296 -0.1723  0.2269 -0.1042
  194DOPC   H6X24036   1.061   6.226   6.281  0.2324  1.1800  3.1274
  194DOPC   H6Y24037   1.061   6.047   6.314 -1.1421  0.6826 -1.1020
  194DOPC   C3724038   1.189   6.170   6.437  0.5565 -0.3559 -0.0107
  194DOPC   H7X24039   1.275   6.100   6.447  0.8807  0.0952  0.3953
  194DOPC   H7Y24040   1.213   6.277   6.420  0.8468 -0.3058  0.6760
  194DOPC   C3824041   1.094   6.149   6.556  0.8595  0.1944 -0.0173
  194DOPC   H8X24042   1.150   6.183   6.646  1.7209 -0.4166 -0.3068
  194DOPC   H8Y24043   1.072   6.041   6.570 -0.4581  0.5287  0.6226
  194DOPC   C3924044   0.965   6.233   6.547  0.0306  0.2455  0.2868
  194DOPC   H9X24045   0.955   6.291   6.454  2.0900  0.6872  0.2964
  194DOPC  C31024046   0.879   6.263   6.647  0.7547  0.1212 -0.7486
  194DOPC  H10X24047   0.797   6.336   6.639 -0.4730 -1.1102  0.1006
  194DOPC  C31124048   0.884   6.205   6.788 -0.0697  0.0287  0.4785
  194DOPC  H11X24049   0.958   6.123   6.778 -0.0047  0.3130 -2.0387
  194DOPC  H11Y24050   0.794   6.156   6.830 -0.6108  0.9770  0.4528
  194DOPC  C31224051   0.922   6.308   6.894  0.2053  0.2614  0.2783
  194DOPC  H12X24052   1.023   6.343   6.864  1.5932 -3.7817 -0.3369
  194DOPC  H12Y24053   0.944   6.257   6.990  1.6801 -1.3173 -0.8334
  194DOPC  C31324054   0.826   6.428   6.915 -0.7998  0.0962 -0.1674
  194DOPC  H13X24055   0.882   6.494   6.985 -0.7335 -1.4265  1.2910
  194DOPC  H13Y24056   0.800   6.481   6.821  1.1876  0.6785 -0.4392
  194DOPC  C31424057   0.695   6.381   6.980 -0.0046 -0.2098 -0.2185
  194DOPC  H14X24058   0.629   6.348   6.897 -0.6103  1.9011 -0.6380
  194DOPC  H14Y24059   0.713   6.291   7.043 -0.2763 -0.1456 -0.0484
  194DOPC  C31524060   0.614   6.491   7.046 -0.3228  0.2840  0.2088
  194DOPC  H15X24061   0.591   6.580   6.983  0.7296  1.3514  1.2930
  194DOPC  H15Y24062   0.670   6.521   7.136 -1.9018  0.3253  1.2174
  194DOPC  C31624063   0.479   6.425   7.101  0.0679 -0.5068  0.0364
  194DOPC  H16X24064   0.440   6.357   7.023 -2.9044  0.2912  0.7089
  194DOPC  H16Y24065   0.508   6.355   7.182 -2.3845 -1.3722  0.2513
  194DOPC  C31724066   0.374   6.524   7.135 -0.0883 -0.0380 -0.0499
  194DOPC  H17X24067   0.356   6.590   7.048  0.9472 -0.6943 -0.7795
  194DOPC  H17Y24068   0.284   6.463   7.158  1.5562 -2.2647  0.8168
  194DOPC  C31824069   0.401   6.600   7.265 -0.2677  0.4600 -0.2120
  194DOPC  H18X24070   0.306   6.653   7.288 -1.0825 -0.5696 -1.0590
  194DOPC  H18Y24071   0.439   6.536   7.347  0.1238 -0.6955 -1.2572
  194DOPC  H18Z24072   0.481   6.675   7.251  1.4485 -1.0129  1.1169
  195DOPC     N24073   4.610   6.597   5.702 -0.3261  0.2593  0.9045
  195DOPC   C1224074   4.678   6.466   5.687  0.3824 -0.2607 -0.5295
  195DOPC  H12A24075   4.642   6.414   5.600  1.8650 -1.6019 -0.3720
  195DOPC  H12B24076   4.666   6.399   5.771  2.7347 -1.9815 -1.4590
  195DOPC   C1324077   4.467   6.563   5.730 -0.4989 -0.3242 -0.5666
  195DOPC  H13A24078   4.463   6.496   5.814 -1.2291  1.1407  0.6216
  195DOPC  H13B24079   4.416   6.656   5.749 -0.5153  0.2184 -2.9837
  195DOPC  H13C24080   4.419   6.519   5.644 -1.1213  0.1451 -0.4607
  195DOPC   C1424081   4.615   6.671   5.568  0.1453 -0.6821 -0.3550
  195DOPC  H14A24082   4.568   6.615   5.489 -0.6583  0.8285 -1.0080
  195DOPC  H14B24083   4.566   6.767   5.580  1.8886  0.2017 -0.0139
  195DOPC  H14C24084   4.718   6.688   5.544  0.3561 -0.5308  0.6017
  195DOPC   C1524085   4.668   6.674   5.816  0.0780 -0.7907  0.4323
  195DOPC  H15A24086   4.640   6.638   5.914  0.0983 -0.2923  0.6292
  195DOPC  H15B24087   4.630   6.775   5.818  0.5757 -0.5872 -0.0950
  195DOPC  H15C24088   4.775   6.683   5.806  0.0185  0.3135  0.6095
  195DOPC   C1124089   4.833   6.460   5.665  0.2128 -0.4886 -0.1805
  195DOPC  H11A24090   4.882   6.479   5.762  0.9897  0.4873 -0.7409
  195DOPC  H11B24091   4.866   6.360   5.628  1.2958  0.0522 -0.7221
  195DOPC     P24092   4.989   6.665   5.594  0.2675  0.0137  0.5535
  195DOPC   O1324093   4.961   6.783   5.508  0.4744  0.0717 -0.8383
  195DOPC   O1424094   5.116   6.602   5.578  0.2869  0.1277 -0.2426
  195DOPC   O1224095   4.874   6.557   5.563 -0.1997  0.6968 -0.5603
  195DOPC   O1124096   4.967   6.690   5.748  0.3319 -0.1107  0.5267
  195DOPC    C124097   5.010   6.822   5.796  0.8532  0.0150  0.3812
  195DOPC    HA24098   4.928   6.896   5.803  1.3132  0.5532  0.0989
  195DOPC    HB24099   5.097   6.860   5.740  0.4881 -0.0769 -0.2666
  195DOPC    C224100   5.046   6.807   5.944  0.3882 -1.0070 -0.2315
  195DOPC    HS24101   5.154   6.787   5.958  0.8510  1.5073  0.3684
  195DOPC   O2124102   4.970   6.705   6.007 -0.2646 -0.7313 -0.5694
  195DOPC   C2124103   5.029   6.590   6.014 -0.4716  0.5409  0.4823
  195DOPC   O2224104   5.143   6.562   5.988 -0.4131 -0.1414  0.1251
  195DOPC   C2224105   4.929   6.486   6.068  0.7553  1.1001 -1.1263
  195DOPC   H2R24106   4.898   6.421   5.984 -1.1061  1.0297 -0.4514
  195DOPC   H2S24107   4.838   6.532   6.114 -0.4521 -1.5774 -0.6678
  195DOPC    C324108   5.018   6.937   6.025 -0.3035  0.2398 -0.4338
  195DOPC    HX24109   4.909   6.956   6.010 -0.6202 -2.3252 -2.1782
  195DOPC    HY24110   5.076   7.019   5.978  1.5859 -0.3794  0.7192
  195DOPC   O3124111   5.057   6.916   6.164 -0.1792 -0.7547 -0.3235
  195DOPC   C3124112   4.961   6.915   6.252  0.7670 -0.1359 -1.0461
  195DOPC   O3224113   4.849   6.959   6.235  0.4984  0.0311 -0.3612
  195DOPC   C3224114   5.005   6.849   6.382  0.2764 -0.2394 -0.1441
  195DOPC   H2X24115   4.942   6.759   6.400 -0.3862  0.4851  1.2833
  195DOPC   H2Y24116   5.103   6.800   6.362 -0.1713 -1.7888  1.2607
  195DOPC   C2324117   4.984   6.387   6.177 -0.1644 -0.3635  0.7430
  195DOPC   H3R24118   5.090   6.373   6.148 -0.7461 -0.5795 -1.4257
  195DOPC   H3S24119   4.935   6.288   6.169 -1.7381  0.4943 -1.3093
  195DOPC   C2424120   4.986   6.455   6.313 -0.1179 -0.2158  0.3934
  195DOPC   H4R24121   4.883   6.486   6.338 -0.0224  1.1353 -0.7216
  195DOPC   H4S24122   5.039   6.552   6.297  1.7965 -1.6093 -2.5885
  195DOPC   C2524123   5.033   6.357   6.414  0.3489 -0.9237  0.3658
  195DOPC   H5R24124   5.135   6.324   6.385  1.1218  0.8685  0.8993
  195DOPC   H5S24125   4.964   6.271   6.407  0.2550 -0.9395  1.3292
  195DOPC   C2624126   5.051   6.416   6.558  0.0739  0.0043  0.6440
  195DOPC   H6R24127   5.058   6.324   6.619 -1.5682 -0.6653 -0.0929
  195DOPC   H6S24128   4.967   6.481   6.592  0.8930 -0.2530  3.4176
  195DOPC   C2724129   5.183   6.502   6.576 -1.1061 -0.0526 -0.4180
  195DOPC   H7R24130   5.184   6.593   6.511 -0.9929  0.6111  0.4850
  195DOPC   H7S24131   5.270   6.438   6.549 -0.2938  0.5994  0.6053
  195DOPC   C2824132   5.199   6.533   6.727  0.1724  0.2368  0.6702
  195DOPC   H8R24133   5.120   6.607   6.752  0.4371  0.8521 -0.2815
  195DOPC   H8S24134   5.294   6.590   6.735  0.7132 -0.5090 -0.2167
  195DOPC   C2924135   5.207   6.409   6.812 -0.2164  0.7202  0.0564
  195DOPC   H9R24136   5.290   6.340   6.791 -0.3610  0.3054  0.8174
  195DOPC  C21024137   5.130   6.368   6.911  1.0059 -0.3573  0.1988
  195DOPC  H10R24138   5.168   6.282   6.969 -2.5562 -1.4455  1.1850
  195DOPC  C21124139   5.018   6.450   6.971 -0.1800  0.0668  0.2955
  195DOPC  H11R24140   4.952   6.386   7.033  1.0795 -1.3383  0.2361
  195DOPC  H11S24141   4.952   6.498   6.896  0.1078  1.6833  1.0258
  195DOPC  C21224142   5.070   6.565   7.061  0.0651  0.3165 -0.1352
  195DOPC  H12R24143   4.993   6.642   7.081  1.6188  2.3460 -1.5224
  195DOPC  H12S24144   5.158   6.621   7.022 -0.1111  0.6230 -0.0972
  195DOPC  C21324145   5.115   6.501   7.189  0.8915 -0.2755  0.3900
  195DOPC  H13R24146   5.211   6.447   7.176  0.1011 -1.9630  1.1642
  195DOPC  H13S24147   5.044   6.424   7.226 -0.4240  0.1692 -1.0716
  195DOPC  C21424148   5.145   6.597   7.303 -0.0672  0.1312 -1.3601
  195DOPC  H14R24149   5.054   6.649   7.341  1.4653  0.1319  2.8441
  195DOPC  H14S24150   5.209   6.679   7.264  0.2054  0.3484 -0.4902
  195DOPC  C21524151   5.213   6.537   7.427  0.0275  0.0562  0.2588
  195DOPC  H15R24152   5.239   6.614   7.502  1.3469  1.4396 -1.5206
  195DOPC  H15S24153   5.311   6.497   7.393 -0.1621 -0.1336 -0.0686
  195DOPC  C21624154   5.128   6.423   7.491 -0.0533 -0.5114  0.0777
  195DOPC  H16R24155   5.139   6.333   7.426  2.2707  0.3800 -0.8551
  195DOPC  H16S24156   5.024   6.457   7.506 -0.0283 -0.4657  0.1462
  195DOPC  C21724157   5.184   6.388   7.627 -0.4254  0.0992 -0.1473
  195DOPC  H17R24158   5.170   6.478   7.690 -1.4086 -0.3272  0.2792
  195DOPC  H17S24159   5.294   6.381   7.613 -0.6881 -0.0490 -2.4296
  195DOPC  C21824160   5.115   6.269   7.685 -0.3035  0.7238 -0.4613
  195DOPC  H18R24161   5.132   6.185   7.615 -0.6206  1.1296 -1.0345
  195DOPC  H18S24162   5.006   6.287   7.701  0.2244  2.5862  1.4672
  195DOPC  H18T24163   5.159   6.235   7.781 -0.0892  1.5213 -0.2722
  195DOPC   C3324164   5.002   6.954   6.497  0.0781 -0.1526 -0.1300
  195DOPC   H3X24165   4.900   6.997   6.493 -0.3877 -1.2893 -1.2124
  195DOPC   H3Y24166   5.069   7.036   6.466  1.2928 -1.3570 -0.8135
  195DOPC   C3424167   5.035   6.900   6.637  1.1192 -0.1022  0.3877
  195DOPC   H4X24168   5.128   6.839   6.633  0.6115 -0.8865  0.2575
  195DOPC   H4Y24169   4.957   6.828   6.670 -0.4536  0.2709 -2.2163
  195DOPC   C3524170   5.035   7.004   6.755  0.0697  0.0935 -0.3637
  195DOPC   H5X24171   4.941   7.061   6.738  1.3407  2.3696 -0.1432
  195DOPC   H5Y24172   5.121   7.073   6.751 -0.1252  0.3121 -0.8320
  195DOPC   C3624173   5.031   6.928   6.899  0.5860 -0.1138 -0.2295
  195DOPC   H6X24174   4.946   6.857   6.894  0.5387 -0.0885  0.1838
  195DOPC   H6Y24175   5.116   6.860   6.923 -1.1889 -1.6557  2.0897
  195DOPC   C3724176   5.026   7.024   7.023 -0.0985 -0.0963  0.4697
  195DOPC   H7X24177   5.098   7.107   7.006  0.5303 -0.4223  1.4676
  195DOPC   H7Y24178   4.929   7.078   7.029  1.1996  2.2874  1.0811
  195DOPC   C3824179   5.056   6.953   7.158  0.3263  0.3264 -0.5387
  195DOPC   H8X24180   5.163   6.927   7.168 -0.2429 -1.5761  1.6389
  195DOPC   H8Y24181   4.997   6.858   7.157  1.1801 -0.2114 -0.5202
  195DOPC   C3924182   5.018   7.041   7.274  0.5861 -1.2072 -0.0515
  195DOPC   H9X24183   4.913   7.070   7.281  1.3044  1.3217  1.4952
  195DOPC  C31024184   5.090   7.074   7.379 -0.3679 -0.1449  0.7302
  195DOPC  H10X24185   5.046   7.139   7.457 -1.6933 -1.0085  0.7431
  195DOPC  C31124186   5.231   7.036   7.417 -0.2372 -0.5217  0.4096
  195DOPC  H11X24187   5.311   7.111   7.399  0.1071  0.1551  3.9936
  195DOPC  H11Y24188   5.266   6.946   7.360 -0.8989  0.0405 -0.9314
  195DOPC  C31224189   5.245   6.990   7.559 -0.0062 -0.0998 -0.0923
  195DOPC  H12X24190   5.348   6.951   7.576  0.7191  1.6968 -0.0902
  195DOPC  H12Y24191   5.159   6.923   7.580 -0.0678 -0.2610 -0.8350
  195DOPC  C31324192   5.247   7.102   7.667  0.6466  0.0722 -0.9831
  195DOPC  H13X24193   5.316   7.181   7.630  0.7902 -0.1097 -1.0999
  195DOPC  H13Y24194   5.143   7.140   7.677  0.7685  0.2441 -0.2850
  195DOPC  C31424195   5.282   7.034   7.804  0.0185 -0.5049  0.1027
  195DOPC  H14X24196   5.391   7.014   7.805  0.4252  1.4869 -0.1507
  195DOPC  H14Y24197   5.268   7.111   7.883 -0.0616 -0.3891 -0.0241
  195DOPC  C31524198   5.214   6.911   7.846  0.0755 -0.5211  0.6082
  195DOPC  H15X24199   5.247   6.836   7.771 -2.7565 -0.3568 -0.9483
  195DOPC  H15Y24200   5.104   6.920   7.840  0.1872  0.7606 -4.8112
  195DOPC  C31624201   5.255   6.859   7.984 -0.4371  0.2604  0.3187
  195DOPC  H16X24202   5.357   6.815   7.979 -0.2893  0.7095 -1.0568
  195DOPC  H16Y24203   5.248   6.937   8.063 -1.4225 -2.0731  2.7169
  195DOPC  C31724204   5.154   6.759   8.041  0.0445 -0.1779 -0.0905
  195DOPC  H17X24205   5.173   6.751   8.150  2.2237  0.2731 -0.4041
  195DOPC  H17Y24206   5.050   6.798   8.033 -0.1168 -0.1803  1.7340
  195DOPC  C31824207   5.161   6.622   7.977 -0.5536  0.1610 -0.0697
  195DOPC  H18X24208   5.265   6.592   7.951  0.3999  1.4546  2.0449
  195DOPC  H18Y24209   5.120   6.543   8.044 -1.2180  0.8475  0.3574
  195DOPC  H18Z24210   5.104   6.624   7.882 -0.7300  2.3361  0.0312
  196DOPC     N24211   1.248   0.450   4.903  0.1672  0.4891  0.0943
  196DOPC   C1224212   1.252   0.558   5.010 -0.3091  0.0053  0.3231
  196DOPC  H12A24213   1.230   0.657   4.974 -0.1228  0.1927  0.7120
  196DOPC  H12B24214   1.350   0.557   5.056 -0.9211 -0.8477  1.6532
  196DOPC   C1324215   1.323   0.506   4.784  0.1013 -0.6757 -0.9560
  196DOPC  H13A24216   1.420   0.543   4.814 -0.7154  0.0102  0.9464
  196DOPC  H13B24217   1.345   0.429   4.711  1.0550 -1.1583 -0.1823
  196DOPC  H13C24218   1.270   0.592   4.748  2.0888  0.6345 -0.8966
  196DOPC   C1424219   1.107   0.438   4.855  0.5329 -0.1920  0.0411
  196DOPC  H14A24220   1.084   0.508   4.776 -1.9030 -1.2435 -0.2927
  196DOPC  H14B24221   1.087   0.345   4.805 -1.0888  0.5923 -0.8694
  196DOPC  H14C24222   1.033   0.455   4.932 -0.3419  4.4482 -1.4729
  196DOPC   C1524223   1.301   0.318   4.939  0.6903 -0.9058 -0.3866
  196DOPC  H15A24224   1.302   0.251   4.854 -0.0538  1.4641 -2.3752
  196DOPC  H15B24225   1.248   0.274   5.022  0.4302  2.6756  1.5233
  196DOPC  H15C24226   1.407   0.327   4.956  0.2648  0.2160  2.2112
  196DOPC   C1124227   1.168   0.539   5.137 -0.1180 -0.2893 -0.6566
  196DOPC  H11A24228   1.185   0.438   5.181 -0.5929 -0.0481  0.1063
  196DOPC  H11B24229   1.221   0.614   5.199 -0.2470 -0.2759 -0.5623
  196DOPC     P24230   0.960   0.676   5.188 -0.2249 -0.0978 -0.6697
  196DOPC   O1324231   0.820   0.688   5.138  0.2626 -0.3656 -0.2046
  196DOPC   O1424232   1.044   0.799   5.180 -0.1045 -0.2611 -0.0414
  196DOPC   O1224233   1.027   0.546   5.120  0.1711 -1.1257 -0.6259
  196DOPC   O1124234   0.941   0.626   5.344 -0.1843 -0.2135  0.2880
  196DOPC    C124235   0.869   0.498   5.368 -0.1698 -0.2424  0.8371
  196DOPC    HA24236   0.896   0.422   5.291  0.9408  1.1605 -0.2215
  196DOPC    HB24237   0.759   0.512   5.373 -0.3512 -0.6798 -1.1315
  196DOPC    C224238   0.913   0.429   5.507  0.1161  0.7011 -0.0051
  196DOPC    HS24239   0.841   0.348   5.533  0.9609 -0.2042 -0.4102
  196DOPC   O2124240   0.919   0.534   5.612  0.2869  0.6392  0.2298
  196DOPC   C2124241   0.801   0.588   5.654  0.4773  0.3051 -0.0283
  196DOPC   O2224242   0.692   0.543   5.622 -0.5049 -0.0974  0.7553
  196DOPC   C2224243   0.826   0.710   5.735 -0.5835  0.0877 -0.2269
  196DOPC   H2R24244   0.789   0.793   5.671  0.4992  0.8634  0.1199
  196DOPC   H2S24245   0.935   0.732   5.729 -0.8939  1.2916 -2.6392
  196DOPC    C324246   1.055   0.367   5.489 -0.1327 -0.0635  0.4452
  196DOPC    HX24247   1.119   0.437   5.431 -0.4787  1.3001  1.6521
  196DOPC    HY24248   1.057   0.273   5.429  0.7760  0.4496 -0.3565
  196DOPC   O3124249   1.103   0.332   5.626  0.0006 -0.3171 -0.0076
  196DOPC   C3124250   1.194   0.407   5.674  0.0616  0.0330  0.3337
  196DOPC   O3224251   1.249   0.499   5.618 -0.0417  0.1289 -0.1773
  196DOPC   C3224252   1.208   0.373   5.828  0.1275 -0.5899  1.0041
  196DOPC   H2X24253   1.119   0.417   5.877 -1.0356 -1.2682 -0.4126
  196DOPC   H2Y24254   1.201   0.263   5.835 -0.1283 -0.6847 -0.4838
  196DOPC   C2324255   0.773   0.711   5.882 -0.5029 -0.4452 -0.2820
  196DOPC   H3R24256   0.666   0.683   5.891 -0.1239 -2.3557 -1.2188
  196DOPC   H3S24257   0.785   0.812   5.925  0.7735 -0.2881 -0.9550
  196DOPC   C2424258   0.849   0.623   5.978 -0.5764  0.5198  0.1751
  196DOPC   H4R24259   0.959   0.632   5.967 -0.8381  0.8733 -3.0519
  196DOPC   H4S24260   0.830   0.515   5.962  0.0141  0.1136  2.0657
  196DOPC   C2524261   0.801   0.644   6.123 -0.2937  0.1708 -0.1204
  196DOPC   H5R24262   0.692   0.626   6.133 -0.2592  0.8584  2.1073
  196DOPC   H5S24263   0.808   0.753   6.146  3.2934  0.0051  0.1928
  196DOPC   C2624264   0.886   0.571   6.231  0.3212 -0.1522  0.1014
  196DOPC   H6R24265   0.987   0.613   6.250  0.6331 -0.2048 -1.2892
  196DOPC   H6S24266   0.895   0.464   6.201  2.5400 -0.1890  0.6926
  196DOPC   C2724267   0.811   0.573   6.367  0.0589  0.7216 -0.1743
  196DOPC   H7R24268   0.728   0.501   6.356 -1.3544  2.4437 -1.2960
  196DOPC   H7S24269   0.756   0.669   6.363 -0.0774  0.6058 -1.6166
  196DOPC   C2824270   0.905   0.552   6.487 -0.1783 -0.3593 -0.1861
  196DOPC   H8R24271   0.851   0.561   6.584  1.9789 -0.0108  1.0411
  196DOPC   H8S24272   0.984   0.629   6.493  0.0627 -0.5487 -0.8140
  196DOPC   C2924273   0.964   0.413   6.471  0.7030 -0.2876  0.0416
  196DOPC   H9R24274   1.000   0.390   6.370  0.4902 -0.2803 -0.0367
  196DOPC  C21024275   0.964   0.324   6.577  0.5138  0.5502  0.4829
  196DOPC  H10R24276   1.013   0.225   6.571 -0.0601  0.3033 -0.3317
  196DOPC  C21124277   0.904   0.352   6.711  0.1808  0.1055  0.5699
  196DOPC  H11R24278   0.797   0.380   6.704  0.5855  1.4689 -0.7482
  196DOPC  H11S24279   0.954   0.442   6.753  1.0915 -0.2944  0.3876
  196DOPC  C21224280   0.922   0.240   6.814 -0.5550 -0.1773  0.3150
  196DOPC  H12R24281   0.864   0.147   6.797 -0.9615 -0.7891  4.1565
  196DOPC  H12S24282   0.876   0.272   6.911  0.2582 -0.7370  0.8989
  196DOPC  C21324283   1.067   0.195   6.847  0.3533  0.1669  0.7793
  196DOPC  H13R24284   1.134   0.281   6.871  1.1227  0.1408 -1.0864
  196DOPC  H13S24285   1.116   0.154   6.757 -0.2165  0.9782  0.0792
  196DOPC  C21424286   1.089   0.087   6.947  0.1985 -0.4804  0.0189
  196DOPC  H14R24287   1.195   0.052   6.953  1.3257  2.2234 -1.9486
  196DOPC  H14S24288   1.027   0.003   6.910 -0.1152 -0.2687  0.0605
  196DOPC  C21524289   1.053   0.124   7.094  0.1418 -0.3773 -0.2878
  196DOPC  H15R24290   0.964   0.191   7.087  0.9975  0.7251 -1.1967
  196DOPC  H15S24291   1.132   0.192   7.134  0.4681  0.7010 -2.5807
  196DOPC  C21624292   1.032   0.000   7.179 -0.8988  0.1419 -0.7344
  196DOPC  H16R24293   0.936  -0.049   7.152 -2.1521  1.8156  0.4648
  196DOPC  H16S24294   1.014   0.037   7.282 -0.4115 -1.6795  0.0414
  196DOPC  C21724295   1.146  -0.105   7.191 -0.0904 -0.0871 -0.0178
  196DOPC  H17R24296   1.151  -0.156   7.092 -0.7020 -1.1950  0.4933
  196DOPC  H17S24297   1.114  -0.185   7.262  2.0072 -1.6870 -0.7624
  196DOPC  C21824298   1.280  -0.044   7.223 -0.2275 -0.1774  0.0554
  196DOPC  H18R24299   1.358  -0.123   7.228  0.0728  0.0539 -0.7561
  196DOPC  H18S24300   1.276   0.010   7.320  1.0536  0.3331 -0.1499
  196DOPC  H18T24301   1.312   0.021   7.139  1.6989 -1.0497  0.0574
  196DOPC   C3324302   1.344   0.415   5.886  0.2109 -0.2071 -0.4712
  196DOPC   H3X24303   1.430   0.388   5.820  0.4370  0.2354 -0.3654
  196DOPC   H3Y24304   1.351   0.361   5.983 -0.2980  0.8039  0.1452
  196DOPC   C3424305   1.360   0.566   5.923  0.0895 -0.6604 -0.7398
  196DOPC   H4X24306   1.275   0.598   5.986  1.5207 -0.1993  1.0390
  196DOPC   H4Y24307   1.337   0.621   5.829  0.3426  2.5771  0.9524
  196DOPC   C3524308   1.501   0.592   5.980  0.0732  0.1784 -0.9678
  196DOPC   H5X24309   1.508   0.702   5.987  1.4922  0.1434 -1.3722
  196DOPC   H5Y24310   1.583   0.566   5.909  0.3908 -1.1363 -0.1600
  196DOPC   C3624311   1.536   0.531   6.118  0.1717  0.2634  0.6774
  196DOPC   H6X24312   1.523   0.422   6.104 -1.4934  0.3031  1.7213
  196DOPC   H6Y24313   1.645   0.548   6.134  0.4091  1.1152 -1.4122
  196DOPC   C3724314   1.449   0.586   6.229 -0.2125  0.2365  0.4894
  196DOPC   H7X24315   1.446   0.697   6.218  0.8689  0.2957  0.6354
  196DOPC   H7Y24316   1.350   0.537   6.223  0.6686 -1.7755  1.3596
  196DOPC   C3824317   1.521   0.551   6.368  0.5266 -0.7131  0.3909
  196DOPC   H8X24318   1.594   0.635   6.376 -0.6063  0.2752  0.5431
  196DOPC   H8Y24319   1.574   0.453   6.373  1.7755 -0.0884  0.0480
  196DOPC   C3924320   1.428   0.566   6.480  0.1352 -0.5387 -0.3680
  196DOPC   H9X24321   1.339   0.502   6.471  1.1084 -1.8217 -1.2539
  196DOPC  C31024322   1.427   0.641   6.595  0.0807  0.3365  0.8475
  196DOPC  H10X24323   1.334   0.642   6.654 -0.6879 -1.8181 -0.2488
  196DOPC  C31124324   1.545   0.720   6.644 -0.1197 -0.4521  0.4199
  196DOPC  H11X24325   1.522   0.828   6.631  4.0052  0.5700  0.1618
  196DOPC  H11Y24326   1.637   0.694   6.588  0.1315 -1.0847  1.1276
  196DOPC  C31224327   1.563   0.699   6.786 -0.6820  0.1249  0.1886
  196DOPC  H12X24328   1.657   0.753   6.814 -1.2943  0.3073  1.9896
  196DOPC  H12Y24329   1.588   0.593   6.806 -2.6217 -0.6866 -1.3496
  196DOPC  C31324330   1.453   0.748   6.892 -0.1102  0.3310  0.1107
  196DOPC  H13X24331   1.411   0.842   6.850  1.9425  2.6906  2.9427
  196DOPC  H13Y24332   1.372   0.672   6.897 -1.7850  2.0127 -0.6414
  196DOPC  C31424333   1.515   0.777   7.022  0.0078 -0.0706 -0.3169
  196DOPC  H14X24334   1.541   0.681   7.072  1.6750  0.0677 -0.8535
  196DOPC  H14Y24335   1.605   0.839   7.002 -1.5823  1.9919 -1.4933
  196DOPC  C31524336   1.414   0.853   7.112  0.6845  0.7619  0.2908
  196DOPC  H15X24337   1.339   0.771   7.119  1.7175 -0.5263 -2.3519
  196DOPC  H15Y24338   1.381   0.949   7.066  2.3098  1.8912  1.3432
  196DOPC  C31624339   1.467   0.892   7.251 -0.2862 -0.3604  0.1223
  196DOPC  H16X24340   1.525   0.814   7.305  1.7602  0.2139 -1.0995
  196DOPC  H16Y24341   1.535   0.979   7.235 -0.4470 -0.4284 -1.0130
  196DOPC  C31724342   1.362   0.931   7.352 -0.3438 -0.8666 -0.6794
  196DOPC  H17X24343   1.415   0.962   7.445  0.1573 -1.4391 -0.7709
  196DOPC  H17Y24344   1.295   1.011   7.313 -1.4986 -0.7468  1.4043
  196DOPC  C31824345   1.272   0.813   7.388 -0.6285 -0.2991 -0.1385
  196DOPC  H18X24346   1.206   0.830   7.476 -0.3000 -1.8510  0.4467
  196DOPC  H18Y24347   1.213   0.771   7.305 -1.5113 -1.2238  0.9219
  196DOPC  H18Z24348   1.345   0.733   7.412 -0.6210  0.1303  1.3768
  197DOPC     N24349   1.501   5.565   5.003  0.5415  0.1384 -0.5156
  197DOPC   C1224350   1.557   5.529   5.136  0.2832 -0.2210 -0.2220
  197DOPC  H12A24351   1.628   5.604   5.166 -1.9503  1.6659  0.6911
  197DOPC  H12B24352   1.607   5.434   5.122 -1.6356 -1.0625 -1.8248
  197DOPC   C1324353   1.486   5.712   4.986 -0.0753  0.1873 -0.5076
  197DOPC  H13A24354   1.575   5.766   5.017 -0.8897  2.0246 -1.2291
  197DOPC  H13B24355   1.472   5.741   4.883 -0.5510 -2.1226 -1.1582
  197DOPC  H13C24356   1.398   5.743   5.040 -0.8241  1.2084 -2.2542
  197DOPC   C1424357   1.367   5.494   4.973 -0.0987 -0.1522  0.4440
  197DOPC  H14A24358   1.339   5.505   4.869 -0.9371 -3.7436  0.1533
  197DOPC  H14B24359   1.370   5.387   4.987 -0.3649 -0.1872  0.2370
  197DOPC  H14C24360   1.281   5.524   5.032 -0.7428  2.9962 -1.8795
  197DOPC   C1524361   1.593   5.519   4.897  1.0485  0.0994 -0.2232
  197DOPC  H15A24362   1.552   5.543   4.800 -0.3099 -0.6539  0.1436
  197DOPC  H15B24363   1.616   5.415   4.909  0.8908  0.1188  0.2551
  197DOPC  H15C24364   1.688   5.571   4.903  0.6955  0.8462 -0.9271
  197DOPC   C1124365   1.469   5.525   5.262  0.4822 -0.4236  0.2318
  197DOPC  H11A24366   1.406   5.434   5.275  2.5839 -1.6417  2.7861
  197DOPC  H11B24367   1.538   5.524   5.349  0.1279  2.3902  0.6447
  197DOPC     P24368   1.261   5.642   5.368  0.1833  0.1910  0.2473
  197DOPC   O1324369   1.161   5.532   5.354  0.2030  0.1817 -0.1748
  197DOPC   O1424370   1.204   5.776   5.368 -0.5886 -0.1311  0.6789
  197DOPC   O1224371   1.380   5.638   5.260  0.0614  0.2115 -0.5263
  197DOPC   O1124372   1.343   5.611   5.505 -0.4857  0.7834 -0.3488
  197DOPC    C124373   1.443   5.704   5.551 -0.6628  0.5353 -0.0972
  197DOPC    HA24374   1.405   5.809   5.547 -3.4432 -0.3955 -0.2189
  197DOPC    HB24375   1.533   5.694   5.487 -1.7731  2.3737 -2.0901
  197DOPC    C224376   1.464   5.681   5.705  0.5233 -0.5849 -0.2543
  197DOPC    HS24377   1.529   5.760   5.748  0.5972 -0.7189 -0.1171
  197DOPC   O2124378   1.520   5.551   5.731  0.0098  0.0739 -0.2869
  197DOPC   C2124379   1.639   5.522   5.682 -1.1458  0.2784 -0.2441
  197DOPC   O2224380   1.723   5.606   5.645  0.6372  0.0899 -0.0475
  197DOPC   C2224381   1.661   5.366   5.672  0.2654  0.0955  0.2574
  197DOPC   H2R24382   1.766   5.333   5.682  0.4050  0.3831 -0.2263
  197DOPC   H2S24383   1.620   5.325   5.577 -1.6188  0.7291  0.7394
  197DOPC    C324384   1.328   5.683   5.784 -0.2383  0.2543  0.1814
  197DOPC    HX24385   1.264   5.615   5.724 -0.7271  0.7208  0.1592
  197DOPC    HY24386   1.296   5.787   5.762 -1.0274 -0.3416 -1.7396
  197DOPC   O3124387   1.326   5.643   5.924 -0.1292 -0.3420 -0.2019
  197DOPC   C3124388   1.395   5.717   6.002 -0.2078 -0.5437 -0.6315
  197DOPC   O3224389   1.465   5.812   5.963  0.2113 -0.2621  0.1271
  197DOPC   C3224390   1.349   5.695   6.138 -0.5506 -0.5039 -0.2758
  197DOPC   H2X24391   1.239   5.715   6.140 -0.5390 -0.3977  1.4113
  197DOPC   H2Y24392   1.365   5.587   6.161  2.3913 -1.0788 -4.0773
  197DOPC   C2324393   1.595   5.287   5.794  0.1012 -0.0558  0.6934
  197DOPC   H3R24394   1.592   5.181   5.762  1.4477 -0.2075  0.9932
  197DOPC   H3S24395   1.494   5.331   5.808  0.6319  1.0798  1.1439
  197DOPC   C2424396   1.665   5.280   5.927 -0.4311  0.0059  0.6792
  197DOPC   H4R24397   1.750   5.209   5.917 -1.5421 -1.1401 -1.1981
  197DOPC   H4S24398   1.598   5.233   6.003  0.5874 -1.5455  0.6655
  197DOPC   C2524399   1.724   5.415   5.980  0.0093  1.1152  1.3055
  197DOPC   H5R24400   1.644   5.491   5.964  0.0490  1.3755  2.2487
  197DOPC   H5S24401   1.808   5.446   5.915  0.3795 -1.5506  0.3876
  197DOPC   C2624402   1.771   5.423   6.124 -0.4936 -0.6294  0.7282
  197DOPC   H6R24403   1.854   5.349   6.137  0.0533 -0.1519  0.0236
  197DOPC   H6S24404   1.691   5.378   6.187  0.1093 -4.8649 -1.1520
  197DOPC   C2724405   1.821   5.559   6.156  0.2300  0.9290  0.5140
  197DOPC   H7R24406   1.735   5.629   6.145 -0.5849 -0.2279 -0.9159
  197DOPC   H7S24407   1.904   5.589   6.088  0.1092 -0.1861 -0.1440
  197DOPC   C2824408   1.872   5.568   6.297 -0.2867 -0.2818  0.4466
  197DOPC   H8R24409   1.982   5.556   6.296 -0.3338 -1.1769  2.3990
  197DOPC   H8S24410   1.825   5.483   6.351  2.2013 -1.3797  1.0372
  197DOPC   C2924411   1.831   5.703   6.349  0.0413  0.1992 -0.3617
  197DOPC   H9R24412   1.756   5.761   6.294 -0.7452  0.3261  0.8134
  197DOPC  C21024413   1.863   5.735   6.476 -0.3984  0.4344  0.2826
  197DOPC  H10R24414   1.834   5.833   6.518 -1.1672 -0.1971  1.2877
  197DOPC  C21124415   1.932   5.654   6.584  0.0367  0.3590  0.5612
  197DOPC  H11R24416   2.025   5.708   6.612  1.6356 -0.4361 -2.8076
  197DOPC  H11S24417   1.941   5.551   6.546 -1.2446  1.3236 -2.6535
  197DOPC  C21224418   1.831   5.653   6.698 -0.3970  0.9329  0.2718
  197DOPC  H12R24419   1.733   5.623   6.656 -0.5408 -0.2202  1.3686
  197DOPC  H12S24420   1.817   5.757   6.735 -1.2183 -0.2083  3.4843
  197DOPC  C21324421   1.876   5.575   6.820 -0.1790 -0.5268 -0.4075
  197DOPC  H13R24422   1.987   5.582   6.822 -0.2853  2.2698 -0.6059
  197DOPC  H13S24423   1.845   5.468   6.808 -0.6841 -0.4290  0.0009
  197DOPC  C21424424   1.818   5.640   6.948 -0.2383  0.2970 -0.9983
  197DOPC  H14R24425   1.707   5.636   6.947 -0.3439  0.5713  1.6323
  197DOPC  H14S24426   1.863   5.741   6.954  1.1024 -0.3130 -0.1293
  197DOPC  C21524427   1.877   5.580   7.081 -0.4077 -0.0144  0.4718
  197DOPC  H15R24428   1.986   5.601   7.082 -0.6101  1.1161  1.5672
  197DOPC  H15S24429   1.856   5.471   7.089 -0.5917  0.0366  0.6951
  197DOPC  C21624430   1.809   5.654   7.198 -0.1411 -0.0782  0.2689
  197DOPC  H16R24431   1.700   5.655   7.179  0.1905  2.3835 -2.1234
  197DOPC  H16S24432   1.831   5.762   7.214  2.4979 -0.6419  0.9622
  197DOPC  C21724433   1.835   5.587   7.335 -0.0505 -0.3272 -0.7512
  197DOPC  H17R24434   1.944   5.585   7.354 -0.2801  1.4888  1.0885
  197DOPC  H17S24435   1.795   5.483   7.333 -0.4836 -0.1574 -1.0991
  197DOPC  C21824436   1.767   5.655   7.451 -0.6210 -0.7502  0.0694
  197DOPC  H18R24437   1.779   5.765   7.464 -0.2276 -0.5722 -1.5643
  197DOPC  H18S24438   1.805   5.616   7.548  2.3332 -0.0590 -0.6988
  197DOPC  H18T24439   1.661   5.624   7.439 -0.5582 -1.2288  0.7138
  197DOPC   C3324440   1.437   5.773   6.243 -0.1886  0.2489  0.2829
  197DOPC   H3X24441   1.409   5.881   6.239 -1.5454 -0.1145 -1.7340
  197DOPC   H3Y24442   1.545   5.754   6.228 -0.5769 -2.5309  0.5807
  197DOPC   C3424443   1.400   5.723   6.379 -0.1939 -0.4505 -0.7250
  197DOPC   H4X24444   1.438   5.619   6.382 -2.3796 -1.3281 -1.8954
  197DOPC   H4Y24445   1.292   5.735   6.403  0.4888  0.6349  2.2439
  197DOPC   C3524446   1.479   5.804   6.487  0.9110  0.0371  0.2587
  197DOPC   H5X24447   1.474   5.912   6.461  0.5958  0.5153  2.1369
  197DOPC   H5Y24448   1.584   5.770   6.478  0.1879 -2.0730 -1.0107
  197DOPC   C3624449   1.426   5.793   6.632  0.1212  0.3919 -0.1463
  197DOPC   H6X24450   1.315   5.792   6.627  0.1553  0.5381 -1.2643
  197DOPC   H6Y24451   1.464   5.696   6.669 -1.8697 -1.1314 -1.8243
  197DOPC   C3724452   1.473   5.902   6.734 -0.7661  0.0626  0.4095
  197DOPC   H7X24453   1.583   5.900   6.724 -0.5506  0.2390  2.4945
  197DOPC   H7Y24454   1.439   6.003   6.700 -1.6573 -0.3701 -0.0388
  197DOPC   C3824455   1.426   5.886   6.875  0.6194 -0.3243 -0.1493
  197DOPC   H8X24456   1.494   5.949   6.937 -0.8253 -0.6674  1.9035
  197DOPC   H8Y24457   1.438   5.783   6.916 -0.8608 -0.3114  0.3832
  197DOPC   C3924458   1.284   5.924   6.885  0.5301  1.0200 -0.1851
  197DOPC   H9X24459   1.213   5.854   6.838  0.7610  0.2995  0.5221
  197DOPC  C31024460   1.244   6.044   6.926 -0.4912 -0.1097  0.1911
  197DOPC  H10X24461   1.137   6.063   6.942 -0.7202 -0.9675 -0.2856
  197DOPC  C31124462   1.336   6.142   6.996 -0.8183 -0.3419 -0.4369
  197DOPC  H11X24463   1.394   6.191   6.915 -0.0808  2.6789  1.7497
  197DOPC  H11Y24464   1.405   6.094   7.068 -2.0010 -0.5836  0.5787
  197DOPC  C31224465   1.262   6.268   7.057  0.1770  0.5220 -0.8354
  197DOPC  H12X24466   1.191   6.301   6.978 -0.9575  0.6163  0.1995
  197DOPC  H12Y24467   1.339   6.343   7.085 -0.8740  0.5752  2.3030
  197DOPC  C31324468   1.188   6.240   7.181  0.3891  0.4916  0.7570
  197DOPC  H13X24469   1.097   6.180   7.160  0.5376  0.2668  0.7593
  197DOPC  H13Y24470   1.249   6.184   7.255 -0.0701 -1.1644 -0.0602
  197DOPC  C31424471   1.138   6.382   7.232  0.0631 -0.4679 -1.3657
  197DOPC  H14X24472   1.231   6.438   7.255  0.7723 -1.4040 -1.8531
  197DOPC  H14Y24473   1.080   6.440   7.158  0.2410 -0.3411 -1.4064
  197DOPC  C31524474   1.053   6.378   7.365  0.4393  0.2191 -0.0367
  197DOPC  H15X24475   1.054   6.473   7.423  1.1824 -0.1486  0.5661
  197DOPC  H15Y24476   1.092   6.302   7.436  1.9868 -1.0436 -2.1497
  197DOPC  C31624477   0.901   6.354   7.340  0.0034 -0.1484 -0.0416
  197DOPC  H16X24478   0.862   6.438   7.279 -2.6858  0.4591  2.2863
  197DOPC  H16Y24479   0.892   6.267   7.271  0.1968  0.1789 -0.4820
  197DOPC  C31724480   0.816   6.322   7.465 -0.5867 -0.3424  0.0301
  197DOPC  H17X24481   0.860   6.242   7.528 -1.4546 -2.3621 -1.8134
  197DOPC  H17Y24482   0.823   6.421   7.517  1.5210 -0.0576 -0.7263
  197DOPC  C31824483   0.662   6.305   7.435 -0.4958 -0.0119 -0.3116
  197DOPC  H18X24484   0.600   6.289   7.525 -0.2712  1.0168  0.0340
  197DOPC  H18Y24485   0.619   6.396   7.388 -0.2997  0.3908  0.2857
  197DOPC  H18Z24486   0.644   6.229   7.356  1.3258 -0.7235 -0.0853
  198DOPC     N24487   5.750   6.429   5.375  0.1674 -0.0898 -0.6821
  198DOPC   C1224488   5.901   6.429   5.416  0.5107 -0.0650 -0.4350
  198DOPC  H12A24489   5.911   6.400   5.519  1.8404  0.4367 -0.3979
  198DOPC  H12B24490   5.941   6.528   5.395  1.9174 -0.3029  0.9215
  198DOPC   C1324491   5.692   6.547   5.445  0.2194  0.6597 -0.5708
  198DOPC  H13A24492   5.712   6.643   5.399  1.0767  1.2429  0.9530
  198DOPC  H13B24493   5.584   6.541   5.452  0.3682 -0.1657  2.1847
  198DOPC  H13C24494   5.733   6.560   5.544  0.6367  0.5761 -0.7291
  198DOPC   C1424495   5.679   6.309   5.436  0.6374 -0.4290  0.5243
  198DOPC  H14A24496   5.582   6.289   5.392  0.3423  0.5426  0.7230
  198DOPC  H14B24497   5.734   6.216   5.432 -0.1820 -0.9735  1.5816
  198DOPC  H14C24498   5.656   6.326   5.540 -0.3231  0.6201  0.1607
  198DOPC   C1524499   5.724   6.440   5.229  0.3876  0.0277 -0.3590
  198DOPC  H15A24500   5.758   6.343   5.194 -0.0037 -0.6061  0.9415
  198DOPC  H15B24501   5.780   6.517   5.178  0.6548  0.8726  1.1487
  198DOPC  H15C24502   5.619   6.455   5.207 -0.4219 -2.4551  1.3254
  198DOPC   C1124503   5.997   6.331   5.350 -0.3611 -0.6894  0.3642
  198DOPC  H11A24504   6.003   6.357   5.243  2.6509 -0.9718  0.3822
  198DOPC  H11B24505   6.102   6.344   5.386 -0.4934  4.5769 -0.4734
  198DOPC     P24506   5.985   6.118   5.503  0.2508 -0.1742  0.3039
  198DOPC   O1324507   6.080   6.012   5.468  0.2646  0.1255  0.0385
  198DOPC   O1424508   5.850   6.078   5.556  0.0302  0.7509 -0.4102
  198DOPC   O1224509   5.962   6.197   5.364  0.0281  0.2085 -0.1467
  198DOPC   O1124510   6.071   6.224   5.589 -0.7042  0.3889 -0.5426
  198DOPC    C124511   6.027   6.262   5.718 -0.2329 -0.2233 -0.1676
  198DOPC    HA24512   5.916   6.258   5.731 -0.1569  0.2129  0.6639
  198DOPC    HB24513   6.054   6.368   5.736 -0.2252  0.0135 -1.4897
  198DOPC    C224514   6.095   6.180   5.833  0.0965  0.1854 -0.2336
  198DOPC    HS24515   6.204   6.183   5.808 -0.1087  1.5681 -1.0585
  198DOPC   O2124516   6.042   6.043   5.821 -0.0386  0.0483  0.3032
  198DOPC   C2124517   6.098   5.950   5.888  0.0780 -0.4180 -0.7457
  198DOPC   O2224518   6.207   5.964   5.951 -0.2895  0.0060 -0.4766
  198DOPC   C2224519   6.003   5.831   5.902 -0.4498 -0.0997 -0.0941
  198DOPC   H2R24520   6.060   5.743   5.938  1.6799  1.7111  1.2335
  198DOPC   H2S24521   5.952   5.815   5.805 -2.1687 -0.4437  0.8206
  198DOPC    C324522   6.066   6.228   5.973 -0.4481  0.0725 -0.2079
  198DOPC    HX24523   6.121   6.169   6.049  0.5459  2.0084  0.6500
  198DOPC    HY24524   5.957   6.217   5.995 -0.3220  1.0006  1.0303
  198DOPC   O3124525   6.106   6.368   5.989 -0.0829  0.4097  0.1892
  198DOPC   C3124526   6.016   6.458   6.009  0.1293 -0.5290 -0.4139
  198DOPC   O3224527   5.895   6.441   6.007 -0.2594 -0.0177  0.1701
  198DOPC   C3224528   6.077   6.598   6.023  0.0675 -0.1343  0.7017
  198DOPC   H2X24529   6.186   6.581   6.027  0.2414  0.6999 -0.2811
  198DOPC   H2Y24530   6.055   6.645   5.925 -1.2934 -2.0032  0.0307
  198DOPC   C2324531   5.889   5.872   6.010 -0.7800 -0.0163  0.4407
  198DOPC   H3R24532   5.808   5.797   6.018 -0.1367 -0.5671  2.2020
  198DOPC   H3S24533   5.829   5.961   5.981 -1.5425 -0.6664 -0.0250
  198DOPC   C2424534   5.948   5.892   6.154 -0.7562 -0.6196 -0.0158
  198DOPC   H4R24535   6.046   5.943   6.164 -1.5800  0.8686  0.7226
  198DOPC   H4S24536   5.972   5.787   6.182  2.5873  0.4594  1.6709
  198DOPC   C2524537   5.838   5.947   6.255 -0.0463  0.0018 -0.5144
  198DOPC   H5R24538   5.859   5.909   6.357 -0.8034 -0.5759 -0.5621
  198DOPC   H5S24539   5.737   5.909   6.230 -1.8260  2.5893  2.0635
  198DOPC   C2624540   5.817   6.093   6.270 -0.4333  0.0533 -0.2265
  198DOPC   H6R24541   5.708   6.114   6.276  0.0476  2.8377  0.1604
  198DOPC   H6S24542   5.851   6.141   6.176 -1.5192  1.0003 -0.1622
  198DOPC   C2724543   5.882   6.159   6.390 -0.7061 -0.5052  0.1551
  198DOPC   H7R24544   5.853   6.266   6.394 -1.0408 -0.6207  2.5784
  198DOPC   H7S24545   5.990   6.160   6.363 -1.0655  1.5224 -1.4549
  198DOPC   C2824546   5.868   6.104   6.532 -0.4449 -0.1535 -0.4728
  198DOPC   H8R24547   5.912   6.177   6.602  1.0036 -0.8404 -0.6309
  198DOPC   H8S24548   5.922   6.009   6.547  0.2873  0.4358  0.6956
  198DOPC   C2924549   5.725   6.065   6.555  0.2847 -0.6644  0.6534
  198DOPC   H9R24550   5.658   6.147   6.524  1.8746 -0.0175 -1.2991
  198DOPC  C21024551   5.671   5.956   6.609 -0.5540  0.1719 -0.2499
  198DOPC  H10R24552   5.563   5.954   6.629 -0.4651  0.4530  0.2699
  198DOPC  C21124553   5.752   5.838   6.659 -0.4406  0.0578  0.1837
  198DOPC  H11R24554   5.860   5.829   6.633  0.2288 -1.4467  3.0563
  198DOPC  H11S24555   5.704   5.747   6.617  1.0524 -0.3140 -0.8098
  198DOPC  C21224556   5.746   5.823   6.812  0.0821 -0.3558 -0.5917
  198DOPC  H12R24557   5.798   5.732   6.848  0.9012  1.2753  2.7336
  198DOPC  H12S24558   5.639   5.813   6.841 -0.0834  1.7825 -0.3203
  198DOPC  C21324559   5.805   5.943   6.890  0.6202 -0.2181 -0.8680
  198DOPC  H13R24560   5.741   6.034   6.889 -0.2904 -0.8419 -0.2350
  198DOPC  H13S24561   5.896   5.971   6.832  0.2625 -0.8032 -1.7326
  198DOPC  C21424562   5.821   5.917   7.039 -0.2598  0.3831  0.1264
  198DOPC  H14R24563   5.877   5.824   7.059  0.0863  0.4499 -0.5328
  198DOPC  H14S24564   5.725   5.902   7.093  0.0095  3.3600  1.6956
  198DOPC  C21524565   5.884   6.033   7.112  0.4387 -0.3762  0.3918
  198DOPC  H15R24566   5.806   6.106   7.140  0.9165  1.2180 -2.1039
  198DOPC  H15S24567   5.954   6.081   7.040  0.8467  1.4998  1.9639
  198DOPC  C21624568   5.958   6.003   7.243  0.2666  0.0491 -0.6347
  198DOPC  H16R24569   6.033   5.925   7.217 -0.6648 -2.0655  2.3958
  198DOPC  H16S24570   5.893   5.947   7.314 -0.0452 -1.1443 -1.8082
  198DOPC  C21724571   6.039   6.122   7.304 -0.2934  0.4827  0.0555
  198DOPC  H17R24572   5.972   6.201   7.345 -2.7849 -1.5206  0.0988
  198DOPC  H17S24573   6.098   6.178   7.229  1.1418 -1.0022  0.0317
  198DOPC  C21824574   6.143   6.088   7.408 -0.0145  0.3029 -0.3379
  198DOPC  H18R24575   6.196   5.993   7.387 -1.3311 -0.3747 -0.7181
  198DOPC  H18S24576   6.097   6.081   7.509  0.5907  3.1869  0.2166
  198DOPC  H18T24577   6.213   6.168   7.440  0.2123 -1.0986  3.1232
  198DOPC   C3324578   6.018   6.675   6.139 -0.1694 -0.1239  0.8067
  198DOPC   H3X24579   5.907   6.685   6.140 -0.0399  2.1111  3.1886
  198DOPC   H3Y24580   6.040   6.782   6.121 -1.3780  0.0889  0.5200
  198DOPC   C3424581   6.066   6.643   6.275 -0.0250  0.0037 -0.4761
  198DOPC   H4X24582   6.030   6.728   6.337  1.7878  0.6265 -0.2132
  198DOPC   H4Y24583   6.174   6.652   6.298 -0.1970 -0.6362  0.6196
  198DOPC   C3524584   5.997   6.522   6.345  0.6389  0.3089  0.4878
  198DOPC   H5X24585   6.018   6.420   6.305 -0.8420  0.9546 -2.2193
  198DOPC   H5Y24586   5.890   6.537   6.318  0.4299 -1.1823  0.3991
  198DOPC   C3624587   5.988   6.516   6.502 -0.2863 -0.1941 -0.7243
  198DOPC   H6X24588   5.918   6.590   6.547  0.6398 -0.5993  1.5297
  198DOPC   H6Y24589   5.944   6.420   6.533  1.6456 -1.1957 -0.9128
  198DOPC   C3724590   6.120   6.531   6.581  0.2980 -0.6739 -0.6329
  198DOPC   H7X24591   6.183   6.440   6.573  1.7147  0.2695 -0.5247
  198DOPC   H7Y24592   6.176   6.616   6.537 -1.2509 -0.4127 -2.2297
  198DOPC   C3824593   6.082   6.540   6.734 -0.0521  0.1527 -0.2464
  198DOPC   H8X24594   6.030   6.637   6.751 -0.1262  0.8455 -3.7238
  198DOPC   H8Y24595   6.175   6.558   6.792 -1.3637  0.1388  1.9773
  198DOPC   C3924596   6.030   6.411   6.793  0.3464  0.0518  0.4093
  198DOPC   H9X24597   6.031   6.317   6.735  1.0402  0.1333  0.2873
  198DOPC  C31024598   5.964   6.412   6.912 -0.0268 -0.5633  0.4756
  198DOPC  H10X24599   5.927   6.317   6.954 -1.7997 -0.3473 -0.4980
  198DOPC  C31124600   5.957   6.518   7.014 -0.0171 -0.1690 -0.3038
  198DOPC  H11X24601   5.853   6.515   7.055 -1.1419 -0.3966 -3.0041
  198DOPC  H11Y24602   5.975   6.623   6.985  2.8768 -0.2686  0.8212
  198DOPC  C31224603   6.053   6.490   7.131  0.3424 -0.2328  0.2515
  198DOPC  H12X24604   6.151   6.535   7.104 -0.6159  1.2753 -0.9316
  198DOPC  H12Y24605   6.068   6.382   7.151  0.1156  0.2469  3.4314
  198DOPC  C31324606   6.018   6.556   7.262  0.3494 -0.6128 -0.1263
  198DOPC  H13X24607   6.008   6.666   7.249  0.4475 -0.8492 -2.7137
  198DOPC  H13Y24608   5.916   6.520   7.289  0.0408 -0.0754 -0.5566
  198DOPC  C31424609   6.111   6.519   7.380  0.3152 -0.0181 -0.1962
  198DOPC  H14X24610   6.108   6.408   7.384  1.4874 -0.1048 -1.3292
  198DOPC  H14Y24611   6.219   6.539   7.368  0.4166  2.0262  2.8612
  198DOPC  C31524612   6.088   6.589   7.520 -0.3821 -0.1828  0.3253
  198DOPC  H15X24613   5.981   6.591   7.550 -0.0086  1.5551  1.7162
  198DOPC  H15Y24614   6.127   6.693   7.515 -0.5558 -0.1719 -2.0015
  198DOPC  C31624615   6.168   6.515   7.634 -0.2079  0.1908 -0.5618
  198DOPC  H16X24616   6.126   6.413   7.623 -2.7343  0.6500  3.1724
  198DOPC  H16Y24617   6.275   6.532   7.610 -0.5756  3.1948 -0.4585
  198DOPC  C31724618   6.138   6.567   7.782 -0.6594  0.3876  0.8132
  198DOPC  H17X24619   6.132   6.678   7.769 -0.3390  0.4606  1.2629
  198DOPC  H17Y24620   6.043   6.530   7.827 -0.6280  0.5046  0.9766
  198DOPC  C31824621   6.253   6.543   7.882 -0.2790 -0.3041  0.1409
  198DOPC  H18X24622   6.283   6.436   7.885 -2.8431 -1.0744  0.7450
  198DOPC  H18Y24623   6.337   6.602   7.839  0.0154 -1.6945 -1.2904
  198DOPC  H18Z24624   6.235   6.587   7.983 -0.8795  3.0675 -1.2875
  199DOPC     N24625   5.769   0.349   5.557 -0.6557  0.2124 -1.0179
  199DOPC   C1224626   5.726   0.218   5.623  0.6106  0.2503  0.0653
  199DOPC  H12A24627   5.628   0.241   5.662  2.0028  3.2417  2.2156
  199DOPC  H12B24628   5.779   0.216   5.717  2.7468  2.3108 -0.9858
  199DOPC   C1324629   5.702   0.363   5.422 -0.0067 -0.4252 -0.5278
  199DOPC  H13A24630   5.759   0.301   5.355  2.2097  0.9908 -0.0722
  199DOPC  H13B24631   5.600   0.331   5.414 -0.4460  0.5630  0.6881
  199DOPC  H13C24632   5.703   0.468   5.394  1.7644 -0.4343 -0.6199
  199DOPC   C1424633   5.920   0.354   5.546  0.1660 -0.7640  0.1994
  199DOPC  H14A24634   5.954   0.288   5.468  2.3567 -1.5798  1.7251
  199DOPC  H14B24635   5.941   0.454   5.511  0.5394 -0.8417  0.1946
  199DOPC  H14C24636   5.974   0.337   5.638  0.5697  0.1685  0.1474
  199DOPC   C1524637   5.726   0.463   5.645  0.0176  0.5727 -0.1593
  199DOPC  H15A24638   5.621   0.477   5.664  0.5215  0.5081  3.3511
  199DOPC  H15B24639   5.759   0.549   5.589  2.6307  0.1737  0.6274
  199DOPC  H15C24640   5.789   0.484   5.731  1.1302  1.6770 -1.2006
  199DOPC   C1124641   5.732   0.088   5.544  0.0988 -0.9050  0.0316
  199DOPC  H11A24642   5.835   0.069   5.506 -0.5214 -2.3531 -1.0139
  199DOPC  H11B24643   5.711   0.012   5.621 -0.8420 -1.7207 -1.0026
  199DOPC     P24644   5.485   0.059   5.451  0.1615 -0.2368  0.2874
  199DOPC   O1324645   5.459  -0.080   5.408  0.1863 -0.2983  0.6332
  199DOPC   O1424646   5.416   0.171   5.392  0.0770 -0.2640 -0.4249
  199DOPC   O1224647   5.640   0.081   5.436  0.4196 -0.4097 -0.1724
  199DOPC   O1124648   5.450   0.073   5.601  0.7622 -0.0343 -0.3745
  199DOPC    C124649   5.424  -0.020   5.701 -0.4402  0.5558 -0.8834
  199DOPC    HA24650   5.486  -0.112   5.692  1.1836  0.8829  3.7472
  199DOPC    HB24651   5.317  -0.042   5.720 -0.7066  0.9064 -1.9494
  199DOPC    C224652   5.454   0.052   5.837 -0.2308  0.2789 -0.2666
  199DOPC    HS24653   5.563   0.076   5.834 -0.0753 -0.4105 -0.3693
  199DOPC   O2124654   5.420  -0.025   5.946  0.2861  0.1305 -0.3124
  199DOPC   C2124655   5.500  -0.125   5.975  0.0914  0.0596  0.0920
  199DOPC   O2224656   5.604  -0.152   5.918  0.4977 -0.0611  0.2582
  199DOPC   C2224657   5.432  -0.212   6.085  0.6498 -0.8029  0.1720
  199DOPC   H2R24658   5.412  -0.318   6.059 -1.0415 -0.9945  1.9742
  199DOPC   H2S24659   5.334  -0.170   6.118 -0.4278 -4.0676  1.5226
  199DOPC    C324660   5.383   0.186   5.847 -0.4709 -0.4834  0.1596
  199DOPC    HX24661   5.279   0.171   5.812  0.3865 -2.5536 -1.7956
  199DOPC    HY24662   5.424   0.252   5.767 -0.3974 -2.2427 -1.3521
  199DOPC   O3124663   5.388   0.251   5.976  0.2286 -0.1771  0.1781
  199DOPC   C3124664   5.512   0.295   6.005  0.1704  0.0693 -0.9065
  199DOPC   O3224665   5.605   0.297   5.928  0.7971 -0.4678  0.0719
  199DOPC   C3224666   5.521   0.329   6.159 -0.0671  0.0540  0.6489
  199DOPC   H2X24667   5.626   0.359   6.179 -0.5022  0.9204  1.8095
  199DOPC   H2Y24668   5.460   0.421   6.175  2.1038  1.4639  1.2560
  199DOPC   C2324669   5.521  -0.205   6.212 -0.3604  0.8528  0.2050
  199DOPC   H3R24670   5.527  -0.109   6.267 -0.1092  0.1306  1.4841
  199DOPC   H3S24671   5.620  -0.234   6.171 -0.7940  0.2946 -0.4717
  199DOPC   C2424672   5.477  -0.311   6.324 -0.0003 -0.9984  1.3624
  199DOPC   H4R24673   5.453  -0.407   6.273  1.6852 -0.9438  0.3827
  199DOPC   H4S24674   5.375  -0.281   6.357 -0.6838  0.0943 -1.4285
  199DOPC   C2524675   5.593  -0.343   6.420  0.1166  0.0683 -0.0510
  199DOPC   H5R24676   5.664  -0.258   6.408 -1.5723  1.3533 -1.5178
  199DOPC   H5S24677   5.646  -0.428   6.373 -0.8230 -0.3924 -0.2964
  199DOPC   C2624678   5.542  -0.361   6.562  0.4693  0.2815 -0.0032
  199DOPC   H6R24679   5.482  -0.454   6.567 -1.0945  1.3031  2.0557
  199DOPC   H6S24680   5.475  -0.278   6.592 -0.8029 -0.3363 -1.0523
  199DOPC   C2724681   5.654  -0.358   6.676  0.3950  0.4224 -0.3033
  199DOPC   H7R24682   5.694  -0.254   6.670  1.6074  0.0041  0.0842
  199DOPC   H7S24683   5.738  -0.426   6.650 -0.2872 -0.1928 -0.9273
  199DOPC   C2824684   5.595  -0.377   6.818 -0.4023  0.1062 -0.1261
  199DOPC   H8R24685   5.503  -0.315   6.815  0.8805  2.1787  0.5851
  199DOPC   H8S24686   5.666  -0.347   6.899 -2.1346 -1.2353  2.0100
  199DOPC   C2924687   5.556  -0.525   6.848  0.1740  0.0546 -0.0951
  199DOPC   H9R24688   5.513  -0.571   6.758  2.1387  0.2249 -1.1835
  199DOPC  C21024689   5.557  -0.587   6.968  0.4703  0.3562  0.4226
  199DOPC  H10R24690   5.526  -0.693   6.962  0.4809  0.3580  0.3319
  199DOPC  C21124691   5.605  -0.534   7.100 -0.0303  0.8611  0.5330
  199DOPC  H11R24692   5.618  -0.424   7.103 -1.1633  1.0005  0.7649
  199DOPC  H11S24693   5.708  -0.571   7.121  0.0926  1.6093  1.2977
  199DOPC  C21224694   5.507  -0.575   7.215 -0.0136  0.2628 -0.5420
  199DOPC  H12R24695   5.500  -0.686   7.219 -1.6969  0.2499 -2.2978
  199DOPC  H12S24696   5.403  -0.541   7.196 -0.4034 -0.2803  0.6079
  199DOPC  C21324697   5.548  -0.529   7.359  0.8238 -0.6329  0.3136
  199DOPC  H13R24698   5.474  -0.586   7.419 -1.3956 -0.5007 -2.1144
  199DOPC  H13S24699   5.526  -0.420   7.362 -0.6930 -0.7795 -2.0452
  199DOPC  C21424700   5.686  -0.562   7.403 -0.4050  0.0872  0.0331
  199DOPC  H14R24701   5.759  -0.520   7.330  1.2976 -2.1313  0.3425
  199DOPC  H14S24702   5.704  -0.672   7.399  2.3304  0.3615  1.7420
  199DOPC  C21524703   5.725  -0.518   7.543  0.2008 -0.1374 -0.1413
  199DOPC  H15R24704   5.631  -0.501   7.600 -0.3531  0.9162 -1.3017
  199DOPC  H15S24705   5.788  -0.427   7.531  1.2532 -0.9237 -0.7435
  199DOPC  C21624706   5.803  -0.629   7.616 -0.2608  0.2501 -0.6520
  199DOPC  H16R24707   5.885  -0.656   7.546  1.8754  0.3525  1.6517
  199DOPC  H16S24708   5.732  -0.714   7.616 -0.3345  0.2750 -2.6398
  199DOPC  C21724709   5.872  -0.590   7.748 -0.5056 -0.1806 -0.1125
  199DOPC  H17R24710   5.799  -0.605   7.831 -0.7715  0.6642 -0.1786
  199DOPC  H17S24711   5.903  -0.484   7.742 -1.3295  0.2621  2.4430
  199DOPC  C21824712   5.998  -0.672   7.783  0.5205 -0.1157 -0.2454
  199DOPC  H18R24713   6.088  -0.633   7.731 -0.8124  0.1444 -2.4833
  199DOPC  H18S24714   5.984  -0.780   7.761 -0.3090  0.3232 -2.0973
  199DOPC  H18T24715   6.015  -0.663   7.893  1.6161  1.7028 -0.5256
  199DOPC   C3324716   5.488   0.212   6.258 -0.2850  0.2009 -0.1004
  199DOPC   H3X24717   5.557   0.128   6.237 -0.0870  0.4841 -0.5804
  199DOPC   H3Y24718   5.384   0.179   6.235  0.3878 -2.2130  0.0722
  199DOPC   C3424719   5.487   0.266   6.404 -0.3235  0.0178  0.6066
  199DOPC   H4X24720   5.398   0.332   6.395  0.2490  0.8328  0.8105
  199DOPC   H4Y24721   5.582   0.319   6.425 -1.2599  1.0318  2.4812
  199DOPC   C3524722   5.450   0.153   6.508 -0.0313 -0.6984 -0.2534
  199DOPC   H5X24723   5.531   0.078   6.497  1.2092  0.1587  2.2074
  199DOPC   H5Y24724   5.357   0.098   6.484 -0.2499 -0.2405 -0.4665
  199DOPC   C3624725   5.447   0.195   6.660 -0.1184 -0.3461  0.5998
  199DOPC   H6X24726   5.539   0.253   6.682 -0.1492  0.3778 -1.0232
  199DOPC   H6Y24727   5.365   0.267   6.684 -0.9339 -0.9506 -0.3123
  199DOPC   C3724728   5.422   0.066   6.738  0.0514 -0.3267  0.4103
  199DOPC   H7X24729   5.326   0.021   6.703 -0.0487  0.4786 -0.4022
  199DOPC   H7Y24730   5.508  -0.001   6.718  0.9027  1.1282 -1.1031
  199DOPC   C3824731   5.430   0.096   6.885  0.2929 -0.2583 -0.6189
  199DOPC   H8X24732   5.338   0.156   6.898  1.0243  0.7957 -0.1884
  199DOPC   H8Y24733   5.514   0.158   6.923  1.3537 -1.9803 -0.0323
  199DOPC   C3924734   5.408  -0.035   6.956 -0.1012  0.0977 -0.0589
  199DOPC   H9X24735   5.310  -0.083   6.944  0.5517 -0.7276 -2.9045
  199DOPC  C31024736   5.492  -0.096   7.038  0.0607  0.4905  0.3393
  199DOPC  H10X24737   5.464  -0.195   7.077 -0.8735  1.1662  1.4271
  199DOPC  C31124738   5.631  -0.049   7.070 -0.3555  0.9599 -0.5358
  199DOPC  H11X24739   5.662   0.032   7.000 -0.3211 -2.0527 -4.3304
  199DOPC  H11Y24740   5.689  -0.142   7.050 -2.5685 -0.0512 -2.9123
  199DOPC  C31224741   5.645  -0.002   7.219  0.4824  0.4539 -0.5136
  199DOPC  H12X24742   5.584   0.090   7.228  0.1004  0.4494 -2.5677
  199DOPC  H12Y24743   5.752   0.029   7.226  1.0043 -1.4047  0.1757
  199DOPC  C31324744   5.597  -0.111   7.317  0.4084 -0.3037  0.0060
  199DOPC  H13X24745   5.490  -0.138   7.304  0.0662  0.9232  0.1114
  199DOPC  H13Y24746   5.646  -0.207   7.289  0.4504 -0.2017 -0.2823
  199DOPC  C31424747   5.614  -0.063   7.466 -0.3247 -0.1167 -0.6642
  199DOPC  H14X24748   5.720  -0.033   7.482 -0.4411  1.9081 -3.0833
  199DOPC  H14Y24749   5.565   0.036   7.476 -1.0192 -0.3855 -1.2797
  199DOPC  C31524750   5.548  -0.158   7.565 -0.6337 -0.7567 -0.5980
  199DOPC  H15X24751   5.593  -0.259   7.556  1.6817  0.1517  0.0322
  199DOPC  H15Y24752   5.439  -0.144   7.547 -0.8184  3.6273  2.3963
  199DOPC  C31624753   5.573  -0.130   7.714 -0.2934 -0.0149  0.2620
  199DOPC  H16X24754   5.543  -0.031   7.753 -0.3987 -0.2523  0.7828
  199DOPC  H16Y24755   5.506  -0.200   7.768  2.2702 -1.7922  1.3879
  199DOPC  C31724756   5.719  -0.139   7.759 -0.0910 -0.1505 -0.5485
  199DOPC  H17X24757   5.754  -0.244   7.754 -0.3003 -0.6493  4.0469
  199DOPC  H17Y24758   5.774  -0.081   7.682  1.0644  1.0152  1.0705
  199DOPC  C31824759   5.737  -0.097   7.912 -0.3905 -0.4176  0.5309
  199DOPC  H18X24760   5.844  -0.102   7.942  0.9620  1.4018 -3.3706
  199DOPC  H18Y24761   5.709   0.008   7.933  0.0141 -0.1087 -0.4299
  199DOPC  H18Z24762   5.674  -0.163   7.976 -2.3542  0.2562 -0.6318
  200DOPC     N24763   0.839   6.456   5.084  0.1222 -0.6896 -0.2581
  200DOPC   C1224764   0.961   6.372   5.063  0.2956 -0.2745 -0.0218
  200DOPC  H12A24765   1.047   6.433   5.039 -1.0104  1.0395 -1.5819
  200DOPC  H12B24766   0.946   6.305   4.979  2.0047  0.5570 -1.0393
  200DOPC   C1324767   0.816   6.523   4.957  0.2678  0.8416  0.4569
  200DOPC  H13A24768   0.811   6.451   4.878 -1.1011  1.0774  0.2974
  200DOPC  H13B24769   0.718   6.569   4.954 -1.6486 -2.9408  0.0333
  200DOPC  H13C24770   0.888   6.593   4.919  2.5593 -1.8228 -0.4181
  200DOPC   C1424771   0.862   6.562   5.188  0.4572  0.1927 -0.5185
  200DOPC  H14A24772   0.864   6.523   5.289  0.1932 -1.1700 -1.0187
  200DOPC  H14B24773   0.948   6.625   5.173 -0.1669  0.6245 -2.6136
  200DOPC  H14C24774   0.780   6.632   5.186 -0.3439 -0.6841  0.3761
  200DOPC   C1524775   0.718   6.375   5.125  0.2779 -0.0749 -0.3187
  200DOPC  H15A24776   0.703   6.279   5.078  1.7223 -0.0484 -0.8723
  200DOPC  H15B24777   0.628   6.432   5.108  0.9238  0.6000 -1.5642
  200DOPC  H15C24778   0.711   6.341   5.228 -4.1715 -0.6009 -0.5979
  200DOPC   C1124779   1.003   6.290   5.193 -0.0764 -0.7188  1.3742
  200DOPC  H11A24780   0.911   6.264   5.250 -0.9444  1.2810  0.9826
  200DOPC  H11B24781   1.055   6.199   5.155  0.2006  0.0156 -0.0792
  200DOPC     P24782   1.239   6.331   5.295 -0.5087 -0.6281  0.2317
  200DOPC   O1324783   1.301   6.346   5.161  0.0738  0.5089 -0.4639
  200DOPC   O1424784   1.255   6.193   5.353 -0.4559  0.0524 -0.3598
  200DOPC   O1224785   1.083   6.370   5.285 -0.2937 -0.1706  0.0376
  200DOPC   O1124786   1.292   6.449   5.391 -0.6403  0.1442  0.2019
  200DOPC    C124787   1.211   6.568   5.384 -0.2891 -0.7604  0.1142
  200DOPC    HA24788   1.107   6.543   5.416 -0.7202 -0.4230 -0.9672
  200DOPC    HB24789   1.200   6.598   5.277 -2.5918 -2.0466 -0.0803
  200DOPC    C224790   1.256   6.690   5.478 -0.0395  0.4012 -0.1724
  200DOPC    HS24791   1.340   6.746   5.431 -0.3673 -0.0791 -1.3700
  200DOPC   O2124792   1.293   6.630   5.604 -0.0951  0.3676 -0.0378
  200DOPC   C2124793   1.342   6.712   5.695 -0.2514  0.7054 -0.3605
  200DOPC   O2224794   1.374   6.826   5.679  0.4850  0.1792 -0.4249
  200DOPC   C2224795   1.322   6.650   5.834  0.5197  0.4385 -0.0387
  200DOPC   H2R24796   1.348   6.542   5.836  0.1683  0.3401 -0.6590
  200DOPC   H2S24797   1.214   6.664   5.853  0.6204  0.3102  0.6382
  200DOPC    C324798   1.143   6.790   5.499 -0.0665 -0.0169  0.1330
  200DOPC    HX24799   1.097   6.795   5.398 -1.5669  0.7015  0.8132
  200DOPC    HY24800   1.184   6.891   5.520  0.8971  0.1727 -2.3493
  200DOPC   O3124801   1.045   6.743   5.596 -0.5071  0.2452  0.4541
  200DOPC   C3124802   0.941   6.821   5.596 -0.3570 -0.0070 -0.7142
  200DOPC   O3224803   0.918   6.912   5.516  0.2204  0.3397 -0.5022
  200DOPC   C3224804   0.845   6.786   5.706 -0.5976 -0.2092  0.1121
  200DOPC   H2X24805   0.737   6.791   5.681 -0.6459  1.2828  0.5663
  200DOPC   H2Y24806   0.857   6.678   5.729 -0.8714 -0.4530 -0.8323
  200DOPC   C2324807   1.404   6.739   5.935  0.5598  0.0822  0.4603
  200DOPC   H3R24808   1.364   6.843   5.930  0.7703  0.1179 -0.9484
  200DOPC   H3S24809   1.509   6.744   5.899  1.0051  3.2517  1.8581
  200DOPC   C2424810   1.394   6.692   6.078 -0.3965  0.1436 -0.7372
  200DOPC   H4R24811   1.288   6.686   6.113 -0.2595  1.5636 -0.0013
  200DOPC   H4S24812   1.439   6.764   6.150 -3.1584 -0.0547  1.3655
  200DOPC   C2524813   1.450   6.554   6.102 -0.2836 -0.0151  0.5101
  200DOPC   H5R24814   1.546   6.551   6.045 -1.0201  0.4064 -0.7810
  200DOPC   H5S24815   1.388   6.478   6.050  0.1015  0.0334 -0.0285
  200DOPC   C2624816   1.452   6.529   6.257  0.0709  0.0452  0.2217
  200DOPC   H6R24817   1.350   6.548   6.296  0.1342  0.1606  0.3289
  200DOPC   H6S24818   1.522   6.592   6.316 -0.8434 -0.8335  2.3229
  200DOPC   C2724819   1.484   6.383   6.301 -0.2740 -0.3955  0.5601
  200DOPC   H7R24820   1.412   6.320   6.245 -0.8196  2.1326 -1.8017
  200DOPC   H7S24821   1.457   6.374   6.408  0.0815  1.9582  0.9116
  200DOPC   C2824822   1.627   6.335   6.282  0.0024 -0.6308  1.1639
  200DOPC   H8R24823   1.685   6.381   6.365  0.0320 -0.3285  0.9789
  200DOPC   H8S24824   1.674   6.361   6.185 -1.1869  2.6243  1.3318
  200DOPC   C2924825   1.635   6.192   6.297 -0.0531  0.6216 -0.1299
  200DOPC   H9R24826   1.573   6.139   6.223  2.2747  0.4755 -2.0924
  200DOPC  C21024827   1.699   6.117   6.388  0.2263  0.4071  0.1191
  200DOPC  H10R24828   1.718   6.009   6.380  0.2522  0.3855  0.4364
  200DOPC  C21124829   1.774   6.181   6.507  0.4843  0.0268  0.1036
  200DOPC  H11R24830   1.817   6.281   6.486  0.5619  0.4289  2.0653
  200DOPC  H11S24831   1.857   6.111   6.533 -0.4316 -1.8738 -1.8032
  200DOPC  C21224832   1.681   6.217   6.626  1.0425  0.0904  0.7151
  200DOPC  H12R24833   1.647   6.122   6.673  0.6550 -0.7034 -1.0660
  200DOPC  H12S24834   1.594   6.275   6.587  1.4355  0.6464  0.6541
  200DOPC  C21324835   1.752   6.301   6.732  0.3943 -0.0356  0.0638
  200DOPC  H13R24836   1.759   6.407   6.699  2.2863 -0.3778 -0.7524
  200DOPC  H13S24837   1.849   6.253   6.756  0.5529  0.3401  0.1764
  200DOPC  C21424838   1.666   6.291   6.866 -0.4719  0.3017 -0.5186
  200DOPC  H14R24839   1.670   6.187   6.903 -0.4569  0.2601 -0.6346
  200DOPC  H14S24840   1.561   6.310   6.834 -0.5732  1.6592  0.5434
  200DOPC  C21524841   1.719   6.390   6.972 -0.3332 -0.9362  0.5489
  200DOPC  H15R24842   1.704   6.491   6.929 -0.2827 -1.6247 -1.1592
  200DOPC  H15S24843   1.828   6.372   6.981  0.4934  2.6296 -0.5520
  200DOPC  C21624844   1.649   6.387   7.113  1.1177 -0.1326 -0.6143
  200DOPC  H16R24845   1.633   6.283   7.148  2.6630  0.0991  0.8924
  200DOPC  H16S24846   1.545   6.424   7.097  0.3361 -0.3525  3.1864
  200DOPC  C21724847   1.712   6.447   7.231 -0.3964 -0.1637 -0.2910
  200DOPC  H17R24848   1.739   6.547   7.191 -1.4434 -0.9127 -3.0892
  200DOPC  H17S24849   1.806   6.397   7.262  0.8385  2.5057  0.5650
  200DOPC  C21824850   1.634   6.461   7.365 -0.1474 -0.3286  0.1765
  200DOPC  H18R24851   1.547   6.529   7.348 -0.6740 -0.7042  1.2803
  200DOPC  H18S24852   1.697   6.502   7.446  2.4133  0.2699 -1.9581
  200DOPC  H18T24853   1.595   6.365   7.404 -0.7107 -0.7867 -1.4026
  200DOPC   C3324854   0.872   6.872   5.830  0.3227  0.0987  1.1013
  200DOPC   H3X24855   0.792   6.843   5.902 -0.3758  0.2921  0.4148
  200DOPC   H3Y24856   0.854   6.980   5.808 -0.2490  0.3455  2.6344
  200DOPC   C3424857   1.010   6.859   5.894 -0.5745 -0.0592 -0.6341
  200DOPC   H4X24858   1.101   6.887   5.837  0.5649 -1.3420  0.4908
  200DOPC   H4Y24859   1.041   6.764   5.943 -1.0565  0.3715  0.5310
  200DOPC   C3524860   1.003   6.955   6.007  0.2197  0.4683  0.0328
  200DOPC   H5X24861   0.916   6.938   6.074  0.7146 -0.0712  0.5451
  200DOPC   H5Y24862   0.986   7.054   5.958 -2.3293 -1.0692 -2.5526
  200DOPC   C3624863   1.128   6.963   6.091  0.0866  0.7088 -0.1261
  200DOPC   H6X24864   1.160   6.859   6.113  3.9607  1.4640 -1.3310
  200DOPC   H6Y24865   1.214   6.999   6.030  0.4579 -0.4508 -0.3077
  200DOPC   C3724866   1.111   7.054   6.212  0.4474  0.4033  0.9256
  200DOPC   H7X24867   1.077   7.153   6.175  2.8298  0.2535 -2.0601
  200DOPC   H7Y24868   1.028   7.013   6.273  1.9982 -1.6757  1.7776
  200DOPC   C3824869   1.237   7.074   6.300 -0.5022 -0.1783  0.5570
  200DOPC   H8X24870   1.214   7.125   6.396 -1.9417 -0.1773  0.2349
  200DOPC   H8Y24871   1.307   7.143   6.248  0.2917 -0.7119  0.8915
  200DOPC   C3924872   1.301   6.948   6.330 -0.9537  0.8050 -0.2663
  200DOPC   H9X24873   1.309   6.882   6.242 -1.0377 -1.3088  1.2226
  200DOPC  C31024874   1.351   6.896   6.452  0.7336 -0.1931  0.1471
  200DOPC  H10X24875   1.396   6.796   6.451 -0.5966 -0.8030  0.3470
  200DOPC  C31124876   1.349   6.963   6.585 -0.0106 -0.2564 -0.1240
  200DOPC  H11X24877   1.319   6.893   6.665 -1.2775  0.2349 -0.1331
  200DOPC  H11Y24878   1.277   7.046   6.603  0.3721 -0.1482  0.9623
  200DOPC  C31224879   1.479   7.038   6.627 -0.3953  0.5702  0.0853
  200DOPC  H12X24880   1.516   7.090   6.537  3.2513 -2.0291 -0.1832
  200DOPC  H12Y24881   1.552   6.959   6.658 -0.6386  0.1720 -0.3463
  200DOPC  C31324882   1.469   7.143   6.731  0.0085  0.5032  0.3379
  200DOPC  H13X24883   1.547   7.221   6.720 -0.2382  0.6319 -0.4900
  200DOPC  H13Y24884   1.371   7.194   6.732 -0.2781 -0.0183  1.7822
  200DOPC  C31424885   1.459   7.086   6.873 -0.4431 -0.1493 -0.0498
  200DOPC  H14X24886   1.387   7.001   6.875 -3.1073  1.9022 -1.7461
  200DOPC  H14Y24887   1.556   7.056   6.917  1.0948  2.4852 -1.4037
  200DOPC  C31524888   1.418   7.199   6.977 -0.7256  0.0154  0.4397
  200DOPC  H15X24889   1.317   7.231   6.944 -1.0089 -1.0422  0.2483
  200DOPC  H15Y24890   1.495   7.278   6.966  1.2759 -1.6780  1.5210
  200DOPC  C31624891   1.422   7.173   7.127  0.9840  0.1030 -0.0025
  200DOPC  H16X24892   1.355   7.084   7.135 -0.6923  1.2109 -1.1720
  200DOPC  H16Y24893   1.518   7.134   7.169  0.6269  0.9267  1.6542
  200DOPC  C31724894   1.384   7.298   7.214 -0.0726 -0.2406 -0.1049
  200DOPC  H17X24895   1.449   7.379   7.175 -0.4290  0.0468 -0.1140
  200DOPC  H17Y24896   1.281   7.338   7.200  0.6247  1.9380  0.4784
  200DOPC  C31824897   1.420   7.272   7.363 -0.0831 -0.1774 -0.2675
  200DOPC  H18X24898   1.357   7.193   7.410 -1.3600  1.2358  0.5073
  200DOPC  H18Y24899   1.527   7.245   7.372  0.3011  1.1885 -0.4838
  200DOPC  H18Z24900   1.400   7.368   7.416  1.4569 -0.8388  1.6124
  201SOD    SOD24901   1.210   2.336  11.056 -0.4496  0.2662 -0.1092
  202SOD    SOD24902   3.153   1.183   2.472  0.1549  0.6135  0.4167
  203SOD    SOD24903   4.575   3.828  11.971 -0.3351  0.2675  0.0370
  204SOD    SOD24904   2.722   0.826   5.083 -1.0908 -0.2052 -0.0313
  205SOD    SOD24905   6.395   2.391  12.999 -0.2817  0.1503  0.4188
  206SOD    SOD24906   0.021   4.535   3.511 -0.4692  0.0470 -0.1123
  207SOD    SOD24907   6.096   4.460   4.420  0.0057 -0.0775 -0.3223
  208SOD    SOD24908   4.040   4.242  10.027  0.1834  0.2832 -0.0537
  209SOD    SOD24909   3.941   0.783   4.893 -0.0456 -0.3384 -0.1021
  210SOD    SOD24910   2.608   2.102  11.533 -0.0037 -0.3658 -0.2843
  211SOD    SOD24911   0.498   2.583  10.884  0.6669 -0.2299 -0.1632
  212SOD    SOD24912   1.606   1.686  10.149 -0.4681 -0.2116  0.9671
  213SOD    SOD24913   0.692   6.662   4.488  0.7307  0.4416 -0.0835
  214SOD    SOD24914   4.279   4.512  10.879 -0.1261  0.0139  0.5285
  215SOD    SOD24915   6.741   3.899   9.883 -0.1456 -0.2585  0.2135
  216SOD    SOD24916   4.031   4.621  12.638  0.1740  0.1235  0.4602
  217SOD    SOD24917   5.124   2.225   2.948 -0.0260  0.2089 -0.0318
  218SOD    SOD24918   1.839   2.223   9.881  0.1616  0.1787 -0.2175
  219SOD    SOD24919   2.233   5.272  10.122 -0.0850 -0.1221  0.3663
  220SOD    SOD24920   3.920   5.444   2.889 -0.0693 -0.0081 -0.0170
  221SOD    SOD24921   5.129   6.148   5.700 -0.1419  0.3379 -0.2386
  222SOD    SOD24922   5.228   6.799  11.691 -0.1437  0.1542  0.4823
  223SOD    SOD24923   1.465   3.156   4.461 -0.2307 -0.3554 -0.4663
  224SOD    SOD24924   3.156   3.893   5.029 -0.2333  0.3517  0.1267
  225SOD    SOD24925   2.158   4.827   3.128  0.3075  0.1354  0.0338
  226SOD    SOD24926   6.518   4.820  12.629 -0.3535  0.0219 -0.5724
  227CLA    CLA24927   1.634   4.817   4.232  0.0065 -0.2100  0.0144
  228CLA    CLA24928   2.817   0.849   3.564  0.5369  0.0092 -0.0853
  229CLA    CLA24929   1.457   5.573   2.706  0.2096  0.2982  0.2974
  230CLA    CLA24930   1.613   1.623  11.572 -0.6110 -0.0011  0.0075
  231CLA    CLA24931   4.639   0.143  10.766  0.2373 -0.3261  0.0757
  232CLA    CLA24932   5.969   3.987  10.603  0.4835  0.0485 -0.1518
  233CLA    CLA24933   6.020   6.417  12.060 -0.3623  0.0411 -0.0589
  234CLA    CLA24934   0.162   3.320  10.989  0.4856 -0.1190  0.1484
  235CLA    CLA24935   5.936   3.967   4.556 -0.0327  0.5691  0.1829
  236CLA    CLA24936   3.228   4.321  10.655  0.1529 -0.3939  0.2974
  237CLA    CLA24937   5.396   1.700  12.175  0.2683  0.1379  0.0580
  238CLA    CLA24938   2.246   3.201   4.210  0.2737 -0.3761 -0.9427
  239CLA    CLA24939   2.319   4.504   4.055 -0.1028  0.0577 -0.5127
  240CLA    CLA24940   3.543   1.440  12.318 -0.3794 -0.0551 -0.2253
  241CLA    CLA24941   3.681   4.225   4.623  0.4056  0.1583 -0.0151
  242CLA    CLA24942   1.731   4.192  11.677  0.2143  0.1722  0.0529
  243CLA    CLA24943   5.812   2.413   2.309 -0.0461  0.0977  0.2259
  244CLA    CLA24944   4.275   3.380   3.632  0.2549 -0.1098  0.0075
  245CLA    CLA24945   1.586   5.101   2.695 -0.0560  0.0485 -0.0209
  246CLA    CLA24946   1.764   2.189  10.665 -0.4096 -0.0150 -0.0229
  247CLA    CLA24947   3.144   2.269   2.530  0.3005 -0.1288  0.1346
  248CLA    CLA24948   4.270   5.703   3.418  0.1912  0.1435  0.4895
  249CLA    CLA24949   6.701   2.506   2.783 -0.0154 -0.0144  0.2340
  250CLA    CLA24950   6.488   2.133  12.722  0.1115  0.1978 -0.4249
  251CLA    CLA24951   2.446   5.190  11.568  0.2545 -0.1029  0.1376
  252CLA    CLA24952   4.923   5.649   4.462  0.3969 -0.4082  0.2190
  253TIP3   OH224953   5.662   6.054  13.172  0.7044  0.1351  0.4137
  253TIP3    H124954   5.688   6.006  13.251 -0.3937  1.4067  1.5717
  253TIP3    H224955   5.724   6.023  13.105  1.1436 -1.5810  1.5310
  254TIP3   OH224956   5.371   4.071  12.249 -0.3510  0.4297  0.1408
  254TIP3    H124957   5.431   4.072  12.324  1.0544  0.3281 -0.9359
  254TIP3    H224958   5.354   3.978  12.234 -1.4343  0.4922  0.9352
  255TIP3   OH224959   2.910   3.723  12.547  0.3644 -0.7830  0.9155
  255TIP3    H124960   2.963   3.795  12.515 -0.7126 -1.0814 -1.8135
  255TIP3    H224961   2.851   3.763  12.611  0.1241  0.6861 -0.1757
  256TIP3   OH224962   4.228   5.865  12.558  0.3012  0.5712  0.0255
  256TIP3    H124963   4.312   5.900  12.587  0.7397  0.1520 -0.7039
  256TIP3    H224964   4.250   5.782  12.515 -0.4596  0.5567 -0.3566
  257TIP3   OH224965   4.686   5.238  10.720  0.2364 -0.7001 -0.0266
  257TIP3    H124966   4.647   5.323  10.742 -0.0317 -0.7699 -0.2247
  257TIP3    H224967   4.768   5.236  10.768  1.3861  0.6489 -1.8081
  258TIP3   OH224968   6.141   3.883   9.852  0.1858  0.3142 -0.5862
  258TIP3    H124969   6.069   3.921   9.901 -0.0845  0.7924 -1.3460
  258TIP3    H224970   6.101   3.813   9.800  0.4805 -0.2223 -0.1133
  259TIP3   OH224971   0.202   0.298  10.109 -0.5753  0.2419 -0.3330
  259TIP3    H124972   0.290   0.300  10.148 -0.3541  0.6627 -0.8515
  259TIP3    H224973   0.207   0.229  10.043 -1.1952 -1.0592  0.9325
  260TIP3   OH224974   2.228   2.783  13.356  0.5141 -0.0146  0.3437
  260TIP3    H124975   2.271   2.860  13.319 -0.9330  0.6480 -0.0376
  260TIP3    H224976   2.279   2.709  13.323  0.1221  0.6323 -1.8537
  261TIP3   OH224977   3.005   3.409  12.634  0.3520 -0.4414 -0.2699
  261TIP3    H124978   3.035   3.452  12.554 -1.4901  0.0823 -0.7243
  261TIP3    H224979   3.073   3.428  12.698  0.4121  1.7446 -0.9103
  262TIP3   OH224980   2.338   5.840  10.872  0.1686 -0.0428 -0.3232
  262TIP3    H124981   2.257   5.805  10.835 -1.4858 -0.6820  3.4436
  262TIP3    H224982   2.392   5.764  10.889 -0.6516 -0.2268  1.7688
  263TIP3   OH224983   2.241   1.483  13.034 -0.3336 -0.3085 -0.5088
  263TIP3    H124984   2.146   1.479  13.032 -0.3052 -0.8217 -1.5347
  263TIP3    H224985   2.268   1.404  13.080 -0.3673 -1.3647 -2.2095
  264TIP3   OH224986   0.043   2.146  10.342 -0.1528  0.0487  0.2485
  264TIP3    H124987   0.088   2.140  10.258  1.0427 -1.0419  0.9327
  264TIP3    H224988   0.108   2.119  10.406 -1.4930 -0.5845  1.3915
  265TIP3   OH224989   1.236   4.585  10.437  0.2635 -0.4024  0.3156
  265TIP3    H124990   1.168   4.653  10.432  2.1361  1.5762  0.4549
  265TIP3    H224991   1.197   4.517  10.492 -1.6805  0.5294  0.2007
  266TIP3   OH224992   4.397   4.590  11.312  0.4239 -0.0779  0.3494
  266TIP3    H124993   4.393   4.677  11.351  0.6652  0.4241 -0.7068
  266TIP3    H224994   4.487   4.581  11.282  0.8410 -1.3541  1.8803
  267TIP3   OH224995   2.143   0.780  10.857  0.5137  0.5080  0.5907
  267TIP3    H124996   2.057   0.772  10.899  0.5583 -0.2321  0.5537
  267TIP3    H224997   2.203   0.736  10.917  0.4300 -1.4158 -0.6617
  268TIP3   OH224998   1.920   3.277  12.174  0.3037 -0.1708  0.1112
  268TIP3    H124999   1.960   3.348  12.224 -1.9042  3.5536 -2.8608
  268TIP3    H225000   1.863   3.233  12.237  0.0041  2.2375  1.6695
  269TIP3   OH225001   6.254   5.641  11.550 -0.6029 -0.4235 -0.2766
  269TIP3    H125002   6.163   5.664  11.570 -0.1013  0.8778  0.5864
  269TIP3    H225003   6.283   5.707  11.489 -0.4274 -1.2373 -1.0954
  270TIP3   OH225004   3.438   1.921  12.589  0.1187 -0.1098 -0.5031
  270TIP3    H125005   3.423   1.834  12.552 -1.3763  0.6640 -1.8296
  270TIP3    H225006   3.492   1.966  12.524 -2.2603  1.1543 -1.7582
  271TIP3   OH225007   4.193   3.731  10.285  0.0303 -0.1566  0.5181
  271TIP3    H125008   4.243   3.727  10.203 -0.4448 -1.1848  0.2635
  271TIP3    H225009   4.229   3.661  10.339  0.4581  0.6230  1.2770
  272TIP3   OH225010   0.066   0.690  13.290 -0.2232  0.0256 -0.5203
  272TIP3    H125011   0.083   0.784  13.288 -3.2265  0.7182  0.8565
  272TIP3    H225012   0.143   0.653  13.334  0.6871  1.9142 -0.4157
  273TIP3   OH225013   3.997   3.082  12.150 -0.1798  0.4747 -0.1230
  273TIP3    H125014   4.085   3.044  12.144  0.3718  1.5229  0.8991
  273TIP3    H225015   3.938   3.007  12.143  0.7648 -0.2086 -1.2452
  274TIP3   OH225016   0.394   3.176  12.548  0.0411 -0.0858  0.5273
  274TIP3    H125017   0.369   3.155  12.638  1.3606  1.6368  1.3659
  274TIP3    H225018   0.355   3.262  12.532 -1.9817 -1.2452 -1.3802
  275TIP3   OH225019   4.112   5.235  12.798  0.2108  0.0111 -0.1283
  275TIP3    H125020   4.149   5.320  12.775 -1.1308  0.3487 -1.1691
  275TIP3    H225021   4.188   5.180  12.816  1.1881  0.9427 -1.2131
  276TIP3   OH225022   5.624   1.893  11.851 -0.1971 -0.1303 -0.0843
  276TIP3    H125023   5.607   1.800  11.838 -0.6734 -0.1296  0.4954
  276TIP3    H225024   5.649   1.900  11.944  1.7247  0.0506 -0.5630
  277TIP3   OH225025   5.079   4.136  12.114  0.4364  0.4076  0.1892
  277TIP3    H125026   5.061   4.090  12.196 -1.4789  0.9405  0.1200
  277TIP3    H225027   5.153   4.089  12.076  1.0019 -0.2030  1.9350
  278TIP3   OH225028   0.678   0.589  10.481 -0.5273 -0.2136 -0.0424
  278TIP3    H125029   0.616   0.626  10.417 -1.3525  0.6050  1.1761
  278TIP3    H225030   0.725   0.664  10.515 -0.7924 -0.4972  1.0059
  279TIP3   OH225031   6.483   4.678  10.637 -0.0385  0.3020 -0.1987
  279TIP3    H125032   6.478   4.683  10.733 -1.9558 -0.4459 -0.2132
  279TIP3    H225033   6.523   4.761  10.611 -0.9412  1.2142  1.1694
  280TIP3   OH225034   5.709   3.980  11.798 -0.3189 -0.2523  0.5259
  280TIP3    H125035   5.731   3.964  11.890 -0.1143  0.1737  0.5545
  280TIP3    H225036   5.780   4.036  11.766 -2.1794  2.6213  1.0617
  281TIP3   OH225037   4.486   1.098  11.132 -0.8208 -0.1102  0.5221
  281TIP3    H125038   4.438   1.016  11.128  2.2190 -1.9840 -1.1869
  281TIP3    H225039   4.441   1.155  11.070 -2.2567 -0.8589  0.8248
  282TIP3   OH225040   0.683   0.780  12.112  0.1027 -0.4546  0.0711
  282TIP3    H125041   0.696   0.814  12.200  1.9579 -1.2830  0.1534
  282TIP3    H225042   0.731   0.840  12.055  1.2897 -1.4878 -0.0468
  283TIP3   OH225043   3.777   6.033  11.119  0.0609 -0.5734  0.0739
  283TIP3    H125044   3.686   6.050  11.142  0.3918  0.3594  0.7899
  283TIP3    H225045   3.782   5.939  11.106 -1.4467 -0.4208 -1.9978
  284TIP3   OH225046   1.472   5.219   4.333  0.2054 -0.3932  0.1611
  284TIP3    H125047   1.378   5.213   4.318  0.3443 -1.6384 -0.3415
  284TIP3    H225048   1.504   5.130   4.321  1.3666 -0.1118  0.9536
  285TIP3   OH225049   5.823   6.263   3.539  0.3868 -0.4461  0.3893
  285TIP3    H125050   5.850   6.310   3.460  0.6767  1.3631  1.5088
  285TIP3    H225051   5.731   6.242   3.523  0.2187  0.5944 -0.1383
  286TIP3   OH225052   1.686   6.096   3.553  0.4340 -0.0357  0.0220
  286TIP3    H125053   1.747   6.059   3.616  1.0864  0.7360 -0.1397
  286TIP3    H225054   1.739   6.117   3.477 -0.4600 -1.5638 -1.0736
  287TIP3   OH225055   6.258   2.863   5.153  0.6296  0.4531  0.0510
  287TIP3    H125056   6.310   2.806   5.210 -0.2967 -1.1670 -0.6416
  287TIP3    H225057   6.195   2.904   5.211  0.2307 -0.5450  0.3509
  288TIP3   OH225058   2.562   4.474   2.317 -0.3177 -0.3772 -0.0470
  288TIP3    H125059   2.640   4.435   2.278  0.2323 -0.0035  0.6423
  288TIP3    H225060   2.490   4.448   2.260  0.4479  0.0985 -1.2647
  289TIP3   OH225061   0.656   2.486   4.071 -0.1781 -0.6343  0.7741
  289TIP3    H125062   0.683   2.434   4.147 -2.8607 -2.5663  0.5430
  289TIP3    H225063   0.676   2.431   3.996  1.1609  0.6918  0.1003
  290TIP3   OH225064   0.795   1.097   3.682  0.4340  0.2498  0.8625
  290TIP3    H125065   0.718   1.152   3.695  0.7042  0.3746  2.0858
  290TIP3    H225066   0.818   1.066   3.770 -0.3273 -2.7133  0.1257
  291TIP3   OH225067   1.549   4.241   4.377  0.4011  0.5309  0.5608
  291TIP3    H125068   1.532   4.212   4.467  1.5913 -1.4422  0.2130
  291TIP3    H225069   1.641   4.216   4.361  0.5080  1.7365 -0.8798
  292TIP3   OH225070   0.686   0.356   3.130 -0.1981 -0.1953  0.3388
  292TIP3    H125071   0.767   0.389   3.090 -0.7046  0.8954  0.1538
  292TIP3    H225072   0.638   0.436   3.155 -1.3122 -0.8169  0.2392
  293TIP3   OH225073   4.186   4.435   4.496  0.1773  0.1128 -0.3924
  293TIP3    H125074   4.223   4.346   4.494  0.8101  0.3750 -0.5931
  293TIP3    H225075   4.261   4.492   4.481 -0.4471  0.6229 -1.7806
  294TIP3   OH225076   6.794   5.656   4.435 -0.0546  0.2117  0.0835
  294TIP3    H125077   6.788   5.685   4.525 -2.3939  2.9179 -0.8030
  294TIP3    H225078   6.709   5.615   4.417  0.1789  0.1586 -1.0046
  295TIP3   OH225079   0.536   5.483   2.772  0.0037 -0.4079 -0.2845
  295TIP3    H125080   0.581   5.423   2.712 -0.2705  0.7060 -1.6542
  295TIP3    H225081   0.606   5.530   2.817  0.3260 -3.1460  2.4539
  296TIP3   OH225082   0.823   3.553   2.530  0.3644 -0.3649 -0.2265
  296TIP3    H125083   0.774   3.474   2.507 -0.5867 -0.0616  0.6807
  296TIP3    H225084   0.813   3.610   2.453  0.2391 -0.7433 -0.4944
  297TIP3   OH225085   3.591   4.228   3.987  0.0539 -0.0205 -0.1009
  297TIP3    H125086   3.617   4.145   3.946 -2.9980 -1.6163  0.9560
  297TIP3    H225087   3.615   4.218   4.079  0.6277  0.7487 -0.1543
  298TIP3   OH225088   1.443   6.003   1.898 -0.0281 -0.8609 -0.8190
  298TIP3    H125089   1.498   5.927   1.920  0.7884 -0.0989 -0.1634
  298TIP3    H225090   1.358   5.983   1.938  0.3845 -1.1261 -0.0598
  299TIP3   OH225091   3.937   0.822   5.126 -0.5192 -0.1621 -0.0643
  299TIP3    H125092   3.994   0.815   5.202 -0.6877 -1.5705 -0.0499
  299TIP3    H225093   3.849   0.808   5.161 -0.6155 -0.6391 -0.4936
  300TIP3   OH225094   3.417   4.100   3.571  0.3360 -0.0714  0.2788
  300TIP3    H125095   3.437   4.193   3.555 -2.5754  0.5101 -0.5694
  300TIP3    H225096   3.345   4.102   3.634 -1.8403 -1.5313 -1.9766
  301TIP3   OH225097   1.864   4.160   2.218  0.3306  0.0054  0.6055
  301TIP3    H125098   1.808   4.094   2.259 -1.0014  1.4712  1.2079
  301TIP3    H225099   1.953   4.137   2.248 -0.4845  0.6786  3.9998
  302TIP3   OH225100   0.481   4.592   2.615  0.2292 -0.2212 -0.3498
  302TIP3    H125101   0.572   4.589   2.584  0.4593  1.4194  0.0615
  302TIP3    H225102   0.429   4.602   2.536  0.6449  1.6120 -0.4441
  303TIP3   OH225103   1.119   5.544   4.719 -0.1365 -0.4693  0.1430
  303TIP3    H125104   1.096   5.634   4.696 -0.1251 -0.1483  1.3240
  303TIP3    H225105   1.093   5.536   4.811  0.5140 -1.4457  0.2486
  304TIP3   OH225106   6.743   1.329   5.111 -0.3819  0.5823 -0.0218
  304TIP3    H125107   6.825   1.331   5.159  0.3266  3.9333 -1.1342
  304TIP3    H225108   6.768   1.304   5.022 -1.0225 -0.9762  0.1956
  305TIP3   OH225109   5.363   3.929   2.063 -0.1317  0.2076 -0.0311
  305TIP3    H125110   5.386   3.838   2.080 -0.3835  0.0860 -0.3196
  305TIP3    H225111   5.432   3.961   2.005  1.4151  0.9877  2.1204
  306TIP3   OH225112   1.055   6.364   2.939 -0.4668 -0.4516  0.2013
  306TIP3    H125113   1.147   6.378   2.962 -0.4729 -0.3300  0.1510
  306TIP3    H225114   1.032   6.438   2.883 -1.1340  0.5730  1.7627
  307TIP3   OH225115   4.313   1.910   3.650 -0.0041 -0.1524 -0.3270
  307TIP3    H125116   4.331   1.917   3.556  0.6925  0.5142 -0.1457
  307TIP3    H225117   4.399   1.904   3.691 -0.2571  0.6693  0.3540
  308TIP3   OH225118   6.186   0.221   2.201 -0.0455 -0.2101  0.2326
  308TIP3    H125119   6.152   0.219   2.112 -3.0920  2.5757  1.1249
  308TIP3    H225120   6.269   0.269   2.194  0.1571 -0.7064 -1.1234
  309TIP3   OH225121   3.132   5.785   1.894  0.4701 -0.1017  0.4427
  309TIP3    H125122   3.057   5.778   1.952  0.4318 -0.1803  0.3840
  309TIP3    H225123   3.136   5.701   1.848 -0.0041  0.2542 -0.2732
  310TIP3   OH225124   3.756   0.238   5.161  0.2872 -0.0958 -0.4140
  310TIP3    H125125   3.669   0.240   5.202  1.1489  2.3735  1.6375
  310TIP3    H225126   3.747   0.292   5.082 -0.0055  0.5137  0.0212
  311TIP3   OH225127   0.071   4.504   5.431 -0.1521  0.1685  0.5371
  311TIP3    H125128   0.126   4.487   5.507  0.6058  0.4781  0.0768
  311TIP3    H225129   0.009   4.432   5.429 -0.4742  0.4019  1.7027
  312TIP3   OH225130   4.476   5.103   4.060  0.4618  0.2346 -0.0618
  312TIP3    H125131   4.381   5.102   4.058  0.4334  1.7670 -1.0857
  312TIP3    H225132   4.502   5.015   4.035 -0.6691 -0.3054  0.5904
  313TIP3   OH225133   3.851   3.587   4.486  0.0387 -0.0473 -0.6141
  313TIP3    H125134   3.909   3.525   4.443  0.0737 -0.5361  0.1281
  313TIP3    H225135   3.821   3.645   4.416  1.6253  0.3813 -0.9682
  314TIP3   OH225136   5.010   1.078   2.257  0.0084  0.1674 -0.4328
  314TIP3    H125137   5.076   1.132   2.213 -0.8359  0.1458 -1.7984
  314TIP3    H225138   5.046   0.989   2.253 -0.0673  0.1595 -1.1441
  315TIP3   OH225139   3.344   1.208   2.573  0.2707  0.1958  0.2683
  315TIP3    H125140   3.410   1.140   2.590  0.7883  0.7937  0.6602
  315TIP3    H225141   3.394   1.289   2.566 -0.6288  1.2957  4.1601
  316TIP3   OH225142   2.815   1.727   2.718 -0.1493 -0.2411 -0.1690
  316TIP3    H125143   2.892   1.784   2.712 -0.4915  0.2296 -0.1042
  316TIP3    H225144   2.827   1.681   2.802  0.2272 -0.4208 -0.3160
  317TIP3   OH225145   5.646   6.493   3.607 -0.3655  0.6153  0.4874
  317TIP3    H125146   5.732   6.534   3.613 -0.8295  1.4547  2.0086
  317TIP3    H225147   5.660   6.403   3.635  0.0211  0.7542  0.7515
  318TIP3   OH225148   5.819   3.805   3.404 -0.2560 -0.2023  0.4814
  318TIP3    H125149   5.825   3.821   3.498 -0.2799 -0.8830  0.6083
  318TIP3    H225150   5.895   3.749   3.385 -0.5034 -0.4370  0.1849
  319TIP3   OH225151   0.512   6.127   5.197 -0.3331 -0.3000  0.2476
  319TIP3    H125152   0.460   6.088   5.266 -1.3365  0.2054 -0.2028
  319TIP3    H225153   0.594   6.077   5.196  0.0719  0.2369  2.3636
  320TIP3   OH225154   6.747   4.435   4.963 -0.0435 -0.0428  0.3647
  320TIP3    H125155   6.820   4.489   4.995  0.2548 -0.8662  1.1320
  320TIP3    H225156   6.695   4.416   5.041  0.5812 -1.9275  0.3740
  321TIP3   OH225157   4.488   6.335   3.830 -0.4175  0.3037  0.4946
  321TIP3    H125158   4.475   6.247   3.795  0.4207  0.5291 -0.4298
  321TIP3    H225159   4.421   6.388   3.786 -0.6816  0.2114  0.7761
  322TIP3   OH225160   2.180   4.420   4.651 -0.2098 -0.2059 -0.1432
  322TIP3    H125161   2.113   4.413   4.719  0.2569 -0.1077  0.3320
  322TIP3    H225162   2.186   4.514   4.632  0.1458 -0.1579  0.1813
  323TIP3   OH225163   1.666   4.110  10.037  0.1068 -0.2384  0.5607
  323TIP3    H125164   1.608   4.181  10.064  1.6358  0.8206  1.2115
  323TIP3    H225165   1.663   4.047  10.109  0.2864  0.1499  0.9138
  324TIP3   OH225166   3.677   1.222  12.691 -0.3828 -0.1099 -0.1588
  324TIP3    H125167   3.740   1.151  12.678 -0.7925 -0.7762  1.2785
  324TIP3    H225168   3.727   1.302  12.672  0.1973 -0.7471 -1.4038
  325TIP3   OH225169   2.886   1.025  10.354 -0.1113  0.4162 -0.1103
  325TIP3    H125170   2.951   1.077  10.401 -0.5358  1.8697 -1.0730
  325TIP3    H225171   2.810   1.082  10.345 -0.7382 -0.4892 -0.8996
  326TIP3   OH225172   4.964   1.928  11.361 -0.3980 -0.2475  0.1727
  326TIP3    H125173   4.926   1.992  11.300  0.5483  1.1589  1.0110
  326TIP3    H225174   5.003   1.981  11.430  0.5389 -1.7479  0.8351
  327TIP3   OH225175   5.555   6.240  11.251  0.3104  0.2167  0.1521
  327TIP3    H125176   5.505   6.306  11.204 -0.6374  0.3134  1.2598
  327TIP3    H225177   5.546   6.161  11.198 -2.8700 -0.3648  1.3617
  328TIP3   OH225178   6.713   5.989  11.084  0.7549  0.6529 -0.3332
  328TIP3    H125179   6.661   5.954  11.011  0.9448 -0.3339 -0.0095
  328TIP3    H225180   6.728   6.080  11.061  0.9353  0.3188 -1.5997
  329TIP3   OH225181   6.751   5.998  11.895  0.2285  0.2951 -0.1241
  329TIP3    H125182   6.683   6.064  11.880  2.1180  1.7787 -3.0182
  329TIP3    H225183   6.707   5.930  11.946 -3.0280  1.7494 -0.7182
  330TIP3   OH225184   6.260   6.621  10.155  0.5007 -0.1516  0.4791
  330TIP3    H125185   6.304   6.706  10.147  0.2941  0.1300  2.1102
  330TIP3    H225186   6.174   6.635  10.116  1.0218 -0.0950 -0.7194
  331TIP3   OH225187   3.837   1.311  12.307  0.1128  0.5025 -0.2531
  331TIP3    H125188   3.866   1.337  12.394  0.7237  0.5675 -0.4688
  331TIP3    H225189   3.759   1.364  12.291 -0.5845 -0.2187  0.6433
  332TIP3   OH225190   3.392   6.639  10.901  0.3196 -0.0943 -0.1691
  332TIP3    H125191   3.339   6.571  10.859 -0.5900  0.6867 -0.3326
  332TIP3    H225192   3.347   6.657  10.983  0.9415 -0.1621  0.1895
  333TIP3   OH225193   4.987   2.937  11.677  0.1725  0.3170 -0.4631
  333TIP3    H125194   5.007   2.851  11.640 -0.8378 -0.0461 -0.2030
  333TIP3    H225195   5.025   2.935  11.765 -3.1404 -1.4256  1.1312
  334TIP3   OH225196   5.685   5.226  12.449  0.3032  0.3390 -0.2297
  334TIP3    H125197   5.774   5.262  12.440  0.7911 -0.8140 -0.2274
  334TIP3    H225198   5.697   5.131  12.440 -1.2226  0.2877 -2.7382
  335TIP3   OH225199   1.217   0.041  12.855  0.6546 -0.0622  0.4398
  335TIP3    H125200   1.299   0.089  12.848  0.6276 -0.0399  0.2555
  335TIP3    H225201   1.158   0.100  12.901  0.5748  0.1474  0.0773
  336TIP3   OH225202   3.830   0.526  13.095  0.1101  0.4535  0.2109
  336TIP3    H125203   3.757   0.463  13.097  1.2506 -0.9627 -0.5976
  336TIP3    H225204   3.788   0.610  13.079 -1.3801 -0.2786  0.0801
  337TIP3   OH225205   0.080   2.005  13.359 -0.1887 -0.2387 -0.3504
  337TIP3    H125206   0.043   1.977  13.442 -0.0414 -1.8418 -0.7984
  337TIP3    H225207   0.003   2.017  13.302 -0.3768  1.9055  0.2696
  338TIP3   OH225208   6.427   6.393  10.380  0.3898  0.0980 -0.2138
  338TIP3    H125209   6.347   6.354  10.343  0.8606 -1.0687 -0.0474
  338TIP3    H225210   6.397   6.475  10.420 -0.1994  1.3229 -2.8925
  339TIP3   OH225211   3.547   0.483  11.021  0.3234  0.0115  0.0455
  339TIP3    H125212   3.486   0.430  11.073 -0.7212  1.1525  0.0148
  339TIP3    H225213   3.633   0.462  11.057  0.0425 -2.2045 -0.3949
  340TIP3   OH225214   1.066   0.992  10.551  0.1318  0.5881 -0.3125
  340TIP3    H125215   1.108   0.988  10.465 -2.2444  1.0512 -1.5843
  340TIP3    H225216   0.997   1.058  10.540 -0.2150  0.6802  1.9857
  341TIP3   OH225217   5.554   5.587  11.784 -0.2066 -0.2394  0.0856
  341TIP3    H125218   5.630   5.612  11.836 -0.2912  0.9463 -0.3474
  341TIP3    H225219   5.531   5.665  11.735 -0.5682 -1.1256 -1.2014
  342TIP3   OH225220   2.356   5.771  12.183  0.6778  0.1911 -0.6206
  342TIP3    H125221   2.437   5.815  12.209  0.2673  0.4384  0.2432
  342TIP3    H225222   2.340   5.803  12.094  2.2453 -0.8934 -1.3573
  343TIP3   OH225223   4.677   2.936  10.252  0.1003 -0.8765 -0.4163
  343TIP3    H125224   4.665   2.868  10.318  0.4686 -0.7594 -0.2239
  343TIP3    H225225   4.591   2.946  10.211 -0.6093  0.2398  1.1959
  344TIP3   OH225226   1.119   1.022  11.225 -0.1704  0.3502  0.1502
  344TIP3    H125227   1.212   1.035  11.208 -0.2036 -1.0987 -1.3329
  344TIP3    H225228   1.117   0.956  11.294 -0.1164  1.0906  0.8809
  345TIP3   OH225229   0.630   6.766  10.852  0.2977 -0.3730 -0.8228
  345TIP3    H125230   0.709   6.805  10.891 -0.5091  0.4221  0.0621
  345TIP3    H225231   0.586   6.838  10.808 -0.0262 -0.7768 -1.1734
  346TIP3   OH225232   2.268   3.980  11.127  0.1143 -0.2309 -0.4995
  346TIP3    H125233   2.181   3.976  11.169 -0.1355  0.5532 -0.9290
  346TIP3    H225234   2.328   4.001  11.199 -0.2383  0.5710 -0.4398
  347TIP3   OH225235   5.761   3.169  12.206 -0.1092 -0.3830  0.2525
  347TIP3    H125236   5.847   3.128  12.197  0.0543 -0.0402  0.2592
  347TIP3    H225237   5.760   3.204  12.295 -0.2750 -0.4316  0.2701
  348TIP3   OH225238   2.126   0.961  11.118 -0.4321 -0.1209 -0.3253
  348TIP3    H125239   2.050   0.961  11.059 -2.9559 -1.8513  2.6335
  348TIP3    H225240   2.145   0.868  11.132 -0.4791  0.1815  2.1410
  349TIP3   OH225241   0.858   0.494  11.130 -0.6216 -0.1828  0.8682
  349TIP3    H125242   0.833   0.411  11.091  0.0354 -0.3738  0.8448
  349TIP3    H225243   0.949   0.508  11.102 -0.9453  0.8861  0.2803
  350TIP3   OH225244   3.178   4.228  12.019  0.1832  0.3478  0.3982
  350TIP3    H125245   3.231   4.254  12.094 -0.3844  1.0576  0.5572
  350TIP3    H225246   3.220   4.147  11.988  1.1256  0.6831  0.7488
  351TIP3   OH225247   3.748   6.499  12.407  0.8521  0.0457  0.3396
  351TIP3    H125248   3.707   6.582  12.382  4.7297  2.0375 -0.1626
  351TIP3    H225249   3.723   6.438  12.338 -0.0468  1.4805 -0.6709
  352TIP3   OH225250   6.555   1.948  10.581 -0.2749 -0.3166 -0.3934
  352TIP3    H125251   6.505   2.029  10.583 -1.5419 -1.0589 -0.6390
  352TIP3    H225252   6.599   1.949  10.495 -0.6766 -0.1121 -0.5985
  353TIP3   OH225253   4.730   5.071  12.160 -0.3506  0.2652  0.0794
  353TIP3    H125254   4.655   5.026  12.198 -0.5964  0.4707 -0.1565
  353TIP3    H225255   4.701   5.161  12.149  0.3382  0.6237  1.0949
  354TIP3   OH225256   4.215   1.278  10.987 -0.0045  0.4522  0.2220
  354TIP3    H125257   4.208   1.366  11.023  0.1114  1.5058 -2.1503
  354TIP3    H225258   4.239   1.291  10.896  1.1103 -2.0904  0.0552
  355TIP3   OH225259   5.063   6.295  11.646 -0.2698  0.6402 -0.3638
  355TIP3    H125260   5.041   6.265  11.734 -0.0863  3.4915  0.7542
  355TIP3    H225261   5.022   6.231  11.588 -0.8334 -1.0376  1.7578
  356TIP3   OH225262   5.444   2.234  12.298 -0.3175 -0.1377 -0.5934
  356TIP3    H125263   5.440   2.323  12.334  0.1314 -1.1050  2.0667
  356TIP3    H225264   5.360   2.194  12.322  0.1806 -0.9728 -0.2007
  357TIP3   OH225265   3.750   6.473  11.804  0.5066 -0.3411 -0.1194
  357TIP3    H125266   3.761   6.436  11.892 -1.3746  0.2498  0.4127
  357TIP3    H225267   3.776   6.403  11.745  0.1489 -1.3596  0.8946
  358TIP3   OH225268   2.994   0.462  10.542 -0.2624  0.7211 -0.0538
  358TIP3    H125269   2.974   0.492  10.453  1.1233 -1.4715 -1.1929
  358TIP3    H225270   3.045   0.534  10.580 -0.2986  1.4299 -1.2821
  359TIP3   OH225271   6.383   6.191  12.338  0.8817 -0.1248  0.3741
  359TIP3    H125272   6.369   6.145  12.421  1.4757  0.8934  1.0471
  359TIP3    H225273   6.317   6.154  12.280 -0.9519  0.6296  1.8838
  360TIP3   OH225274   2.747   6.109  12.261 -0.3450 -0.3899  0.2085
  360TIP3    H125275   2.756   6.093  12.167  1.3362  0.6112  0.1658
  360TIP3    H225276   2.822   6.164  12.283 -1.6751  0.8689  1.8060
  361TIP3   OH225277   4.549   1.718  12.728 -0.0120 -0.2815  0.1955
  361TIP3    H125278   4.547   1.796  12.672  1.2401 -0.0927  0.3909
  361TIP3    H225279   4.629   1.672  12.702 -0.3202 -1.0901  0.6386
  362TIP3   OH225280   6.442   1.447  12.225  0.0887  0.4912  0.0497
  362TIP3    H125281   6.371   1.387  12.246  0.6089 -0.2494 -0.2198
  362TIP3    H225282   6.478   1.473  12.309  0.5233 -0.4262  0.1703
  363TIP3   OH225283   5.171   5.591  12.439  0.2798 -0.4004  1.1933
  363TIP3    H125284   5.166   5.573  12.533 -0.6432 -1.9487  0.8821
  363TIP3    H225285   5.080   5.610  12.413  0.4895 -0.2315  0.5631
  364TIP3   OH225286   2.936   4.548   9.743 -0.3380 -0.0635  0.7075
  364TIP3    H125287   2.948   4.627   9.691 -1.0851 -1.1012 -1.1369
  364TIP3    H225288   3.025   4.522   9.769  0.0000  0.7780  0.4205
  365TIP3   OH225289   3.434   0.442  11.710 -0.0123 -0.2147 -0.0368
  365TIP3    H125290   3.382   0.385  11.654  0.4034 -0.4342 -0.2048
  365TIP3    H225291   3.480   0.500  11.649 -0.7177  0.5524  0.1488
  366TIP3   OH225292   4.766   3.144  11.242 -0.1388 -0.0125 -0.1279
  366TIP3    H125293   4.838   3.095  11.282 -0.4648  0.0752  0.5735
  366TIP3    H225294   4.731   3.198  11.312  0.6218  1.7524 -1.0496
  367TIP3   OH225295   1.344   1.055  12.586  0.3328 -0.2769 -0.1757
  367TIP3    H125296   1.418   0.997  12.566  1.1056  1.2004 -1.8832
  367TIP3    H225297   1.267   1.002  12.565  0.8139 -1.9547  1.9270
  368TIP3   OH225298   3.134   3.499  12.407 -0.5389 -0.1300  0.2523
  368TIP3    H125299   3.210   3.508  12.351 -0.6916  3.1159  0.3620
  368TIP3    H225300   3.059   3.506  12.348 -0.7523 -1.1139  0.3915
  369TIP3   OH225301   3.927   0.449  12.140  0.0567 -0.0646  0.9593
  369TIP3    H125302   3.977   0.416  12.215  1.5576 -1.7497 -0.6731
  369TIP3    H225303   3.930   0.378  12.076 -1.1825  1.3007 -0.7139
  370TIP3   OH225304   6.740   4.965  11.117 -0.4320  0.3186  0.6795
  370TIP3    H125305   6.696   4.925  11.043 -1.0558  2.5852 -0.2567
  370TIP3    H225306   6.676   4.962  11.188  0.1621 -1.8407  1.2138
  371TIP3   OH225307   1.972   0.222  12.763  0.1359  0.2053  0.0789
  371TIP3    H125308   2.028   0.298  12.780  0.6833 -0.3006  0.6039
  371TIP3    H225309   1.926   0.207  12.846  1.1818 -0.9501  0.4974
  372TIP3   OH225310   0.985   2.732  12.291 -0.0843 -0.6331  0.2320
  372TIP3    H125311   1.049   2.661  12.297 -0.8638 -1.4218 -0.5932
  372TIP3    H225312   0.957   2.732  12.199 -1.0254 -0.0990  0.5057
  373TIP3   OH225313   4.765   2.831  10.005 -0.5120  0.3423  0.2552
  373TIP3    H125314   4.791   2.749   9.964 -0.9092  0.9044 -1.1778
  373TIP3    H225315   4.748   2.808  10.096 -1.9667 -1.4766 -0.4080
  374TIP3   OH225316   3.852   5.508  12.960 -0.1203 -0.1206 -0.1808
  374TIP3    H125317   3.814   5.496  12.873 -1.0514  0.3521  0.1470
  374TIP3    H225318   3.861   5.603  12.970 -0.4961 -0.1439  0.4340
  375TIP3   OH225319   3.191   6.043  13.097  0.0449  0.3302 -0.1900
  375TIP3    H125320   3.186   6.015  13.188  0.0384  0.5815 -0.1121
  375TIP3    H225321   3.114   6.004  13.055 -1.3092  2.1895  0.4516
  376TIP3   OH225322   2.105   1.173  12.941  0.4894  0.0631 -0.3811
  376TIP3    H125323   2.189   1.209  12.970  1.7778 -0.9985 -2.5226
  376TIP3    H225324   2.039   1.217  12.995  2.3380  1.6425  0.6909
  377TIP3   OH225325   4.880   2.697  12.096 -0.3563  0.0357 -0.5914
  377TIP3    H125326   4.857   2.609  12.125  1.4213 -0.2744  0.0529
  377TIP3    H225327   4.930   2.683  12.016 -1.4840  0.5970 -1.4183
  378TIP3   OH225328   1.143   6.536  13.064  0.1679  0.3023  0.2746
  378TIP3    H125329   1.229   6.525  13.022  0.8550  2.0742  1.0871
  378TIP3    H225330   1.114   6.447  13.083  2.5334 -0.3371  1.3172
  379TIP3   OH225331   3.740   3.751  10.370 -0.9812  0.2489 -0.0287
  379TIP3    H125332   3.761   3.723  10.281  0.4110 -0.8357  0.5985
  379TIP3    H225333   3.689   3.679  10.407 -0.6898  0.2368  0.3636
  380TIP3   OH225334   1.000   2.094   9.625  0.0123  0.4193 -0.5062
  380TIP3    H125335   0.999   2.185   9.655 -0.5386 -0.2544  1.7734
  380TIP3    H225336   0.908   2.067   9.629  0.4636 -1.1324  2.2054
  381TIP3   OH225337   3.317   0.458  12.553  0.3177 -0.6991 -0.0559
  381TIP3    H125338   3.400   0.463  12.602  0.2993  0.1086 -0.0864
  381TIP3    H225339   3.281   0.547  12.559 -0.5037 -1.0196 -0.1264
  382TIP3   OH225340   2.091   4.802  10.012 -0.2133  1.0354  0.2318
  382TIP3    H125341   2.014   4.779  10.064 -0.0508  0.8999  0.4115
  382TIP3    H225342   2.138   4.720   9.999 -0.2151  1.0794 -0.0725
  383TIP3   OH225343   2.486   3.515  12.535  0.0438 -0.7928 -0.1355
  383TIP3    H125344   2.576   3.485  12.547 -0.5049 -3.4300 -1.9291
  383TIP3    H225345   2.471   3.510  12.440 -1.7368  0.5141  0.0091
  384TIP3   OH225346   1.153   6.094  11.213 -0.5232 -0.2449 -0.3983
  384TIP3    H125347   1.065   6.061  11.234 -0.1600  0.3226  2.3112
  384TIP3    H225348   1.204   6.016  11.195 -0.8882 -0.8198  0.9595
  385TIP3   OH225349   5.741   3.321  11.950 -0.0577 -0.5632 -0.5878
  385TIP3    H125350   5.756   3.271  12.031 -2.4223 -2.3872 -1.1740
  385TIP3    H225351   5.802   3.283  11.887  1.3581  0.4492  0.1074
  386TIP3   OH225352   2.565   4.244   9.655 -0.0042  0.2940 -0.2449
  386TIP3    H125353   2.617   4.305   9.707 -0.6753  0.5995  0.0648
  386TIP3    H225354   2.506   4.299   9.605 -0.6718 -0.1025  0.0961
  387TIP3   OH225355   6.140   1.787  11.822 -0.5828 -0.0678 -0.3962
  387TIP3    H125356   6.120   1.870  11.778 -0.3562  0.4854  0.5074
  387TIP3    H225357   6.233   1.794  11.845 -0.3987 -0.8495 -0.8802
  388TIP3   OH225358   0.400   1.755  11.307 -0.1716  0.3153  0.7653
  388TIP3    H125359   0.477   1.805  11.282  1.2406 -2.2850 -0.4396
  388TIP3    H225360   0.349   1.746  11.226  0.4161 -1.4531  0.5444
  389TIP3   OH225361   1.727   3.332  12.746  0.3090 -0.0781 -0.0943
  389TIP3    H125362   1.723   3.272  12.671  1.0198 -1.7556  1.1300
  389TIP3    H225363   1.635   3.352  12.765 -0.0666 -1.8207  0.1886
  390TIP3   OH225364   3.992   4.958  12.300  0.5694 -0.0014 -0.3349
  390TIP3    H125365   4.011   5.035  12.247 -0.2126 -0.4376 -1.2821
  390TIP3    H225366   3.986   4.886  12.237  0.0779 -0.6185  0.3928
  391TIP3   OH225367   1.822   4.591  12.476  0.1494 -0.0962  0.3930
  391TIP3    H125368   1.806   4.506  12.434  1.7992 -1.2472  1.9102
  391TIP3    H225369   1.771   4.653  12.425  0.4982 -1.6809 -2.0574
  392TIP3   OH225370   6.032   4.837  11.718 -0.1052  0.2332  0.2537
  392TIP3    H125371   5.966   4.899  11.749  0.5962  0.9351  0.3855
  392TIP3    H225372   6.095   4.891  11.670 -0.1878 -0.5731 -0.7949
  393TIP3   OH225373   2.300   1.377  12.524  0.3913  0.1705 -0.4982
  393TIP3    H125374   2.249   1.309  12.566  0.2727 -0.8741 -2.2546
  393TIP3    H225375   2.238   1.447  12.507  0.1203 -0.0257 -0.3179
  394TIP3   OH225376   1.591   2.228   9.842  0.2721  0.0204 -0.0135
  394TIP3    H125377   1.551   2.315   9.838  0.9510  0.2888 -1.2651
  394TIP3    H225378   1.588   2.196   9.752 -2.8223 -2.5997  0.7936
  395TIP3   OH225379   4.192   3.601  10.858 -0.2078 -0.1662 -0.0676
  395TIP3    H125380   4.202   3.675  10.798 -0.1160  1.2099  1.5642
  395TIP3    H225381   4.130   3.633  10.923 -1.6473 -2.2341 -0.3342
  396TIP3   OH225382   2.653   3.338  11.368 -0.0771 -0.4243  0.5171
  396TIP3    H125383   2.738   3.369  11.398  0.1660 -0.3651 -0.2153
  396TIP3    H225384   2.638   3.385  11.286 -0.3790 -1.1371  0.1592
  397TIP3   OH225385   1.442   3.238  13.071  0.3231 -0.0512 -0.2502
  397TIP3    H125386   1.514   3.301  13.084  0.3332 -0.0230 -0.4338
  397TIP3    H225387   1.470   3.186  12.995  1.4437 -1.8710  1.3263
  398TIP3   OH225388   6.002   3.016  12.294  0.1510 -0.5016 -0.4278
  398TIP3    H125389   6.090   2.994  12.262  1.0701 -0.2152  1.7350
  398TIP3    H225390   6.014   3.032  12.388 -2.1466  0.0075 -0.1680
  399TIP3   OH225391   5.743   5.175  10.850  0.1520  0.5753  0.3437
  399TIP3    H125392   5.727   5.082  10.840  0.4543  0.5894 -0.3006
  399TIP3    H225393   5.736   5.191  10.944  0.2470 -0.1166  0.4677
  400TIP3   OH225394   3.826   6.707  12.169  0.4264 -0.1642 -0.3347
  400TIP3    H125395   3.786   6.787  12.203  1.7289  0.0044  0.8690
  400TIP3    H225396   3.761   6.672  12.107 -1.0966  0.6567  0.7402
  401TIP3   OH225397   3.474   0.270  13.341 -0.5370  0.1380 -0.0590
  401TIP3    H125398   3.384   0.238  13.340 -0.3777 -0.3732  0.8596
  401TIP3    H225399   3.527   0.193  13.364  0.0071  0.6977  0.6090
  402TIP3   OH225400   3.951   3.021  11.847 -0.0746  0.0788  0.1155
  402TIP3    H125401   3.903   2.951  11.802  0.1202  0.6775 -1.0745
  402TIP3    H225402   4.028   3.036  11.793 -0.2423  1.3790  0.2087
  403TIP3   OH225403   5.205   3.506  10.976  0.3844 -0.1093 -0.3479
  403TIP3    H125404   5.299   3.490  10.968  0.4186 -0.6608  0.8943
  403TIP3    H225405   5.167   3.469  10.897  1.3656  1.6813 -1.7266
  404TIP3   OH225406   2.354   2.106  13.209 -0.3106 -0.1112 -0.0739
  404TIP3    H125407   2.287   2.098  13.276  0.9151 -0.8823  1.1181
  404TIP3    H225408   2.367   2.200  13.200  1.7536  0.0945  3.2255
  405TIP3   OH225409   3.294   4.383  11.782  0.3849 -0.4787  0.2189
  405TIP3    H125410   3.368   4.426  11.825 -0.1165 -0.8484  1.4940
  405TIP3    H225411   3.268   4.314  11.842 -0.2226 -1.1582 -0.7866
  406TIP3   OH225412   3.198   0.745  12.490  0.1480  0.1018  0.4771
  406TIP3    H125413   3.105   0.727  12.504  0.2254  0.6857  1.9064
  406TIP3    H225414   3.209   0.744  12.395 -1.1781 -0.6485  0.3167
  407TIP3   OH225415   5.176   2.483  13.200  0.2635 -0.4151 -1.0595
  407TIP3    H125416   5.233   2.426  13.252 -0.5198  0.4015  0.7472
  407TIP3    H225417   5.110   2.424  13.164 -0.4094 -0.7262  0.6032
  408TIP3   OH225418   4.959   3.823  12.615  0.5264 -0.2204 -0.5765
  408TIP3    H125419   4.985   3.731  12.610  1.2295 -0.0860  0.2650
  408TIP3    H225420   5.041   3.871  12.627  0.0593  0.3703  0.5007
  409TIP3   OH225421   4.356   4.630  13.136 -0.2119 -0.2492  0.0474
  409TIP3    H125422   4.341   4.559  13.074  0.4524 -1.3557  1.0920
  409TIP3    H225423   4.313   4.600  13.216 -0.4252  0.8074  0.3413
  410TIP3   OH225424   1.989   6.639  10.917 -0.4997  0.3702 -0.2325
  410TIP3    H125425   1.907   6.595  10.896 -1.7644  2.3714  0.2078
  410TIP3    H225426   1.977   6.728  10.885  1.6783  0.6271 -0.4968
  411TIP3   OH225427   3.471   3.408  10.103 -0.0209  0.6282  0.1989
  411TIP3    H125428   3.503   3.497  10.091 -0.4491  0.6258 -1.0810
  411TIP3    H225429   3.375   3.416  10.098 -0.1598  0.3156  1.7418
  412TIP3   OH225430   5.789   0.667  13.224 -0.1742 -0.4035 -0.9831
  412TIP3    H125431   5.702   0.645  13.190 -1.2830  1.7179  0.2627
  412TIP3    H225432   5.790   0.762  13.228  0.8803 -0.4233  2.1939
  413TIP3   OH225433   5.939   6.193  11.254  0.5057  0.6349  0.3971
  413TIP3    H125434   5.912   6.159  11.169 -1.7761  0.0475  1.2806
  413TIP3    H225435   5.889   6.142  11.318  0.4368  2.5506  1.9948
  414TIP3   OH225436   2.308   2.521  10.967  0.4118  0.3526 -0.2599
  414TIP3    H125437   2.396   2.521  10.929  0.2115  0.1271 -0.7405
  414TIP3    H225438   2.305   2.601  11.020  0.7079  0.6669 -0.7038
  415TIP3   OH225439   0.068   1.344  12.963 -0.2740 -0.0037  0.3729
  415TIP3    H125440   0.040   1.259  12.995  0.9389  0.0906  1.7882
  415TIP3    H225441   0.112   1.326  12.881  0.8162 -0.8795  1.1316
  416TIP3   OH225442   6.724   2.536  10.278 -0.0430  0.4447 -0.6578
  416TIP3    H125443   6.809   2.518  10.238  0.1910  0.6419 -0.2578
  416TIP3    H225444   6.669   2.568  10.206  0.2645  0.4578 -0.8879
  417TIP3   OH225445   2.224   3.083  11.739  0.3265  0.1506  0.3917
  417TIP3    H125446   2.157   3.107  11.674  1.2317  2.1208  0.1131
  417TIP3    H225447   2.190   3.004  11.780 -1.9631  0.8206 -0.0635
  418TIP3   OH225448   3.576   2.151  10.254  0.5887 -0.1730  0.1099
  418TIP3    H125449   3.529   2.088  10.198  1.9164 -2.0171  0.9448
  418TIP3    H225450   3.576   2.232  10.204 -0.0864 -1.1779 -1.6341
  419TIP3   OH225451   5.079   3.872  12.010  0.2935 -0.0447  0.6875
  419TIP3    H125452   5.154   3.905  11.960 -0.6440 -0.5350 -1.1335
  419TIP3    H225453   5.003   3.909  11.966 -0.6351 -1.8179  0.7063
  420TIP3   OH225454   4.069   5.412  12.199 -0.0566 -1.0247  0.0438
  420TIP3    H125455   4.020   5.356  12.259 -0.5074 -0.4794  0.1964
  420TIP3    H225456   4.002   5.444  12.138  0.3627 -1.4249 -0.6404
  421TIP3   OH225457   1.546   1.306  11.278 -0.0667  0.3512  0.2884
  421TIP3    H125458   1.603   1.381  11.257 -0.6046  0.8125  0.4461
  421TIP3    H225459   1.464   1.346  11.305 -0.6457 -0.3098 -0.4455
  422TIP3   OH225460   0.213   1.804  12.483 -0.0239  0.1200  0.2047
  422TIP3    H125461   0.252   1.890  12.502 -1.2088  1.0651 -1.3413
  422TIP3    H225462   0.119   1.818  12.496 -0.1975 -1.0975  0.3575
  423TIP3   OH225463   0.263   2.820  10.474  0.4226 -0.2123  0.5396
  423TIP3    H125464   0.239   2.907  10.504  2.6442  1.6430 -2.4600
  423TIP3    H225465   0.195   2.797  10.410 -0.4400 -0.9568  1.6993
  424TIP3   OH225466   2.413   3.626  11.906  0.1051  0.7538 -0.2404
  424TIP3    H125467   2.372   3.650  11.823 -0.8681  0.2735  0.0886
  424TIP3    H225468   2.388   3.695  11.967 -0.2642  0.4267 -0.0211
  425TIP3   OH225469   2.606   2.145  12.243 -0.2422  0.3716 -0.4384
  425TIP3    H125470   2.514   2.169  12.231 -0.3629  1.3249  1.9402
  425TIP3    H225471   2.612   2.116  12.334  1.7343 -0.0941 -0.6708
  426TIP3   OH225472   4.614   0.168  12.233 -0.2077 -0.1820  0.3464
  426TIP3    H125473   4.554   0.234  12.199  0.4445  0.0846 -0.3203
  426TIP3    H225474   4.645   0.203  12.316 -1.5698 -0.6888  1.1083
  427TIP3   OH225475   5.305   2.378  11.574  0.8454  0.2372 -0.0505
  427TIP3    H125476   5.305   2.287  11.601 -1.6774  0.8875  2.6786
  427TIP3    H225477   5.213   2.397  11.553  1.0300  2.4561  0.8533
  428TIP3   OH225478   4.913   1.671  11.462  0.3311  0.2746  0.2969
  428TIP3    H125479   4.856   1.681  11.538  0.3908  1.2908  0.2247
  428TIP3    H225480   4.918   1.759  11.424  0.6272 -0.1359 -0.6483
  429TIP3   OH225481   2.443   1.934  12.802 -0.3682  0.2191 -1.2815
  429TIP3    H125482   2.373   1.869  12.806 -0.6754  0.5379 -1.4438
  429TIP3    H225483   2.503   1.900  12.736  1.0999 -1.4878  0.7615
  430TIP3   OH225484   3.209   1.986  13.064  0.2399 -0.2671  0.1697
  430TIP3    H125485   3.219   1.978  12.969  2.6964  0.9413  0.2460
  430TIP3    H225486   3.231   1.899  13.098  2.2927  0.0400 -0.2569
  431TIP3   OH225487   2.568   0.445  10.134 -0.0220 -0.3909  0.3198
  431TIP3    H125488   2.563   0.465  10.040 -1.8329  2.8450  0.9569
  431TIP3    H225489   2.485   0.402  10.154  0.6256 -1.6594  0.3893
  432TIP3   OH225490   2.790   4.042  11.601 -0.2773  0.0618 -0.1420
  432TIP3    H125491   2.782   4.097  11.680  0.1332 -0.2942  0.1501
  432TIP3    H225492   2.705   3.998  11.593 -0.5006  0.4955 -0.1987
  433TIP3   OH225493   6.566   4.703  12.403  0.0089 -0.3727 -0.4251
  433TIP3    H125494   6.595   4.618  12.371  0.5776 -0.2447 -0.2761
  433TIP3    H225495   6.505   4.735  12.337  0.5054 -0.4918 -0.9483
  434TIP3   OH225496   0.935   5.291  11.959 -0.7601 -0.1747 -0.0353
  434TIP3    H125497   0.910   5.239  12.035 -2.0591  0.3095 -0.1148
  434TIP3    H225498   0.869   5.271  11.893  0.5447 -0.8554 -1.1877
  435TIP3   OH225499   4.841   1.321  10.112  0.2988 -0.0528  0.2971
  435TIP3    H125500   4.901   1.380  10.067 -1.0714  0.0306 -1.5396
  435TIP3    H225501   4.848   1.238  10.064 -0.4402 -0.2858  0.5763
  436TIP3   OH225502   6.690   3.166  11.946 -0.3962  0.1895 -0.4575
  436TIP3    H125503   6.692   3.226  11.871 -0.7654 -1.5754 -1.9759
  436TIP3    H225504   6.748   3.095  11.920  0.1015 -0.0772  1.3215
  437TIP3   OH225505   2.635   4.456  11.654 -0.4583  0.0801 -0.3756
  437TIP3    H125506   2.723   4.487  11.634 -0.1621 -0.8772 -0.6072
  437TIP3    H225507   2.612   4.500  11.736  0.2984  0.2234 -0.2323
  438TIP3   OH225508   1.194   1.303  11.463  0.0911 -0.7462  0.3612
  438TIP3    H125509   1.115   1.332  11.508 -0.3542 -0.7688 -0.3998
  438TIP3    H225510   1.257   1.375  11.478 -0.3706 -0.2941  0.1634
  439TIP3   OH225511   1.294   1.273  11.816 -0.3526 -0.0001  0.3646
  439TIP3    H125512   1.255   1.191  11.785 -0.6314  0.5618 -0.8425
  439TIP3    H225513   1.387   1.264  11.797 -0.1773 -0.5094  1.3619
  440TIP3   OH225514   6.658   4.459  12.305  0.5510 -0.2311  0.6094
  440TIP3    H125515   6.642   4.365  12.306 -1.2394  0.0473  1.6067
  440TIP3    H225516   6.740   4.470  12.354  1.4631 -1.3343 -0.5950
  441TIP3   OH225517   2.502   2.405  13.291 -0.1121 -0.1531  0.2860
  441TIP3    H125518   2.541   2.358  13.364  0.3054  0.7235  0.6470
  441TIP3    H225519   2.575   2.453  13.252 -0.5816  0.4951  0.1822
  442TIP3   OH225520   3.811   4.193  13.082  0.5799  0.1517  0.2613
  442TIP3    H125521   3.848   4.254  13.146 -0.4412  2.3948 -1.1582
  442TIP3    H225522   3.885   4.168  13.028  1.0959 -0.2503  1.1313
  443TIP3   OH225523   0.660   3.909  11.113  0.1401 -0.3198 -0.1252
  443TIP3    H125524   0.696   3.822  11.099 -0.5097 -0.3369 -1.9432
  443TIP3    H225525   0.731   3.969  11.090  0.8377 -0.3177  1.8406
  444TIP3   OH225526   3.579   3.972  13.073  0.1871 -0.4398  0.1079
  444TIP3    H125527   3.610   3.882  13.061  0.6467 -0.1469 -0.9804
  444TIP3    H225528   3.648   4.014  13.124  0.7537 -0.2780 -0.7715
  445TIP3   OH225529   4.925   3.595   9.872  0.1980 -0.2657 -0.6407
  445TIP3    H125530   4.986   3.522   9.884  0.1561 -0.7453 -2.9218
  445TIP3    H225531   4.974   3.672   9.903  0.2026 -1.2005  1.8922
  446TIP3   OH225532   5.603   5.912  10.401  0.6355 -0.1074 -0.0926
  446TIP3    H125533   5.536   5.974  10.425 -0.2640 -0.9683 -0.3099
  446TIP3    H225534   5.561   5.854  10.337  1.0117 -1.7547  1.0861
  447TIP3   OH225535   1.179   2.545  12.551  0.1782 -0.1410  0.9506
  447TIP3    H125536   1.144   2.463  12.587 -0.3022  0.1610  1.1766
  447TIP3    H225537   1.248   2.517  12.492 -2.1524 -0.9549 -1.6148
  448TIP3   OH225538   4.863   4.538  11.450 -0.0884  0.1111  0.8747
  448TIP3    H125539   4.942   4.540  11.504  0.4377  0.3358  0.1180
  448TIP3    H225540   4.873   4.461  11.394  0.1363  0.7422  0.0141
  449TIP3   OH225541   4.971   5.315  11.902 -0.1687 -0.0519 -0.4611
  449TIP3    H125542   4.918   5.352  11.973  0.8734 -0.5901  0.6441
  449TIP3    H225543   4.924   5.235  11.877 -0.9596  0.5483 -0.9359
  450TIP3   OH225544   4.147   2.488  10.828  0.2637 -0.3013 -0.0965
  450TIP3    H125545   4.176   2.404  10.793 -0.1481 -0.1759 -0.7596
  450TIP3    H225546   4.083   2.520  10.764  2.2497  1.7254 -1.2165
  451TIP3   OH225547   0.994   1.329  11.698  0.5425 -0.0530 -0.4208
  451TIP3    H125548   1.041   1.263  11.749  0.2078  0.4987  0.6407
  451TIP3    H225549   1.003   1.410  11.750  0.1622  0.5182 -1.2310
  452TIP3   OH225550   1.243   1.833  12.591  0.1939 -0.0377  0.0680
  452TIP3    H125551   1.246   1.743  12.559  0.9711  0.8137 -2.5070
  452TIP3    H225552   1.331   1.867  12.575  0.2524  0.8623  2.0923
  453TIP3   OH225553   6.830   5.354  12.819  0.5625 -0.2698 -0.1889
  453TIP3    H125554   6.921   5.378  12.801  0.7011  1.4055  2.2323
  453TIP3    H225555   6.783   5.378  12.740  1.7524  2.0332 -0.2697
  454TIP3   OH225556   5.781   0.438  13.049 -0.5602 -0.4283 -0.2228
  454TIP3    H125557   5.790   0.460  12.956  0.5497  1.5841  0.2900
  454TIP3    H225558   5.823   0.511  13.095  1.6337 -2.7223  1.7935
  455TIP3   OH225559   2.534   2.976  13.154  0.1468  0.3539 -0.4946
  455TIP3    H125560   2.463   3.025  13.113  0.0867  0.4220 -0.3081
  455TIP3    H225561   2.511   2.884  13.138  0.6333  0.3881 -1.4821
  456TIP3   OH225562   0.880   6.710  12.315  0.4267 -0.0252  0.0030
  456TIP3    H125563   0.922   6.737  12.397 -3.1638 -1.0304  2.4326
  456TIP3    H225564   0.841   6.790  12.280 -0.6212 -0.0619  1.0255
  457TIP3   OH225565   6.594   5.826  12.059 -0.9480  0.2774 -0.2473
  457TIP3    H125566   6.536   5.787  11.994 -1.5811 -0.2812  0.6312
  457TIP3    H225567   6.536   5.875  12.117 -0.3257  1.2933 -0.4574
  458TIP3   OH225568   0.011   0.785  11.280  0.4314 -0.3749 -0.1192
  458TIP3    H125569   0.000   0.853  11.347  0.1240  0.9550 -1.4474
  458TIP3    H225570   0.095   0.805  11.239  2.7040 -3.6138  2.4182
  459TIP3   OH225571   0.127   4.786  12.505 -0.0406  0.2550  0.0031
  459TIP3    H125572   0.152   4.711  12.558  0.3706  0.1166 -0.3782
  459TIP3    H225573   0.124   4.752  12.415 -1.3079  0.3397 -0.0014
  460TIP3   OH225574   4.307   3.920  12.418 -0.2077  0.4846  0.0961
  460TIP3    H125575   4.280   3.857  12.485  0.7180 -1.2568 -1.0732
  460TIP3    H225576   4.402   3.923  12.426 -0.1140  0.5101 -0.8910
  461TIP3   OH225577   0.415   5.175  11.744 -0.2538 -0.3447 -0.0616
  461TIP3    H125578   0.376   5.206  11.825  1.1305 -2.4035  1.5294
  461TIP3    H225579   0.481   5.240  11.723 -1.1184  0.5816  0.0517
  462TIP3   OH225580   0.019   0.324  12.782  0.2386 -0.0885 -0.2156
  462TIP3    H125581   0.091   0.374  12.744 -0.6301  0.9052 -0.6114
  462TIP3    H225582  -0.018   0.276  12.708 -1.4438  1.8341 -0.7094
  463TIP3   OH225583   0.812   1.274  13.006 -0.4098 -0.3376  0.7149
  463TIP3    H125584   0.781   1.196  13.052  0.3073 -1.5348 -0.7475
  463TIP3    H225585   0.732   1.323  12.986 -0.9264 -1.0232  1.0598
  464TIP3   OH225586   1.212   3.113  10.887  0.5095 -0.4269 -0.1070
  464TIP3    H125587   1.267   3.094  10.963  0.1024 -0.7159  0.1246
  464TIP3    H225588   1.273   3.124  10.814  0.9357  0.3266  0.3564
  465TIP3   OH225589   4.473   0.912  10.839  0.1119  0.3590  0.3833
  465TIP3    H125590   4.515   0.866  10.911  0.1395  0.2030  0.2693
  465TIP3    H225591   4.476   0.850  10.766  1.3850  1.0388 -0.1798
  466TIP3   OH225592   3.585   1.018  10.245  0.0459 -0.3830 -0.4592
  466TIP3    H125593   3.659   1.054  10.293 -0.0252  1.9008 -1.9010
  466TIP3    H225594   3.535   0.969  10.311  3.8410 -3.9419  0.1458
  467TIP3   OH225595   2.473   2.837   9.304 -0.0313 -0.1723  0.2281
  467TIP3    H125596   2.399   2.865   9.251  0.1811 -1.8850 -1.0360
  467TIP3    H225597   2.480   2.904   9.373 -2.1554  0.4991 -0.1556
  468TIP3   OH225598   0.071   1.874  11.527 -0.1256 -0.2586 -0.3323
  468TIP3    H125599   0.140   1.928  11.566  1.8348 -1.9207 -1.2858
  468TIP3    H225600   0.064   1.798  11.585  0.1244 -0.9376 -1.1628
  469TIP3   OH225601   6.222   4.972  11.583  0.5909 -0.0068 -0.0200
  469TIP3    H125602   6.224   5.053  11.532 -0.2050 -1.2097 -2.1164
  469TIP3    H225603   6.314   4.949  11.594  0.9348  1.9766  2.1207
  470TIP3   OH225604   0.454   3.854  12.402 -0.1176  0.9809 -0.1179
  470TIP3    H125605   0.418   3.921  12.461  2.4297  2.2669  0.1175
  470TIP3    H225606   0.469   3.900  12.319 -1.5286 -0.2292 -1.0770
  471TIP3   OH225607   5.175   4.753  13.045  0.3651  0.5192 -0.0303
  471TIP3    H125608   5.127   4.764  12.963  0.5867 -2.4663 -0.7032
  471TIP3    H225609   5.110   4.768  13.114 -1.0519 -1.2873 -0.8845
  472TIP3   OH225610   3.271   1.378   9.830 -0.0227 -0.3373  0.4696
  472TIP3    H125611   3.203   1.428   9.785 -0.5560 -0.7671  0.7827
  472TIP3    H225612   3.323   1.443   9.875 -0.7518 -0.0598  0.9328
  473TIP3   OH225613   0.628   2.430  12.651 -0.6073 -0.2239  0.1681
  473TIP3    H125614   0.629   2.490  12.726 -0.2181  0.1787 -0.1520
  473TIP3    H225615   0.701   2.459  12.597 -0.6679 -0.7383 -0.1936
  474TIP3   OH225616   0.933   6.518  11.144  0.2676 -0.0671 -0.0136
  474TIP3    H125617   0.900   6.452  11.206  0.7775 -0.7971 -0.5018
  474TIP3    H225618   0.869   6.517  11.073  0.1287  0.1650  0.1078
  475TIP3   OH225619   6.183   3.025  11.570 -0.2352 -0.2779 -0.3587
  475TIP3    H125620   6.253   3.068  11.619 -1.5970  0.0073  1.4876
  475TIP3    H225621   6.135   3.097  11.529 -0.4162 -0.3218 -0.2270
  476TIP3   OH225622   0.316   1.104  10.921  0.3287  0.6239 -0.3179
  476TIP3    H125623   0.245   1.067  10.869 -0.4328  0.4070  0.8452
  476TIP3    H225624   0.323   1.195  10.890 -0.8352  0.8165 -0.0728
  477TIP3   OH225625   4.290   1.055  12.064 -0.4933 -0.1898  0.0528
  477TIP3    H125626   4.195   1.055  12.069 -0.5196 -1.2555 -0.2658
  477TIP3    H225627   4.318   1.007  12.142 -0.1991  0.4295  0.3361
  478TIP3   OH225628   3.168   5.693  13.471  0.3938 -0.2845 -0.2752
  478TIP3    H125629   3.250   5.645  13.479  0.0137 -0.6799  1.9199
  478TIP3    H225630   3.101   5.626  13.465 -0.0499 -0.0723  1.7164
  479TIP3   OH225631   1.538   0.827  13.044 -0.1050 -0.4302 -0.4306
  479TIP3    H125632   1.479   0.902  13.043 -0.3081 -0.5917 -0.6087
  479TIP3    H225633   1.569   0.822  13.135 -1.8142 -1.4722  0.1432
  480TIP3   OH225634   1.336   5.767  10.337  0.2611 -0.0449  0.8483
  480TIP3    H125635   1.405   5.740  10.398  0.7465  0.6722  0.6276
  480TIP3    H225636   1.381   5.822  10.273 -0.4492  0.1082  0.4723
  481TIP3   OH225637   5.613   0.489  12.644  0.1282 -0.0903  0.1563
  481TIP3    H125638   5.631   0.523  12.557 -1.0434 -0.7900 -0.3889
  481TIP3    H225639   5.648   0.555  12.704 -0.8098  1.3673 -0.8457
  482TIP3   OH225640   5.889   1.992  12.052  0.4896  0.0477  0.1066
  482TIP3    H125641   5.952   2.063  12.040 -0.0546  0.6541  0.7620
  482TIP3    H225642   5.810   2.022  12.007 -0.5619  0.9960  2.4268
  483TIP3   OH225643   3.066   1.049  10.856  0.3639  1.0830 -0.2216
  483TIP3    H125644   3.090   0.983  10.921 -3.3650 -2.6045 -2.1012
  483TIP3    H225645   2.999   1.103  10.898 -1.7002 -0.9990 -0.6416
  484TIP3   OH225646   2.896   2.357  10.917  0.2883 -0.4110  0.2707
  484TIP3    H125647   2.807   2.322  10.906  0.5545 -0.3836 -3.6052
  484TIP3    H225648   2.945   2.286  10.957 -1.0083 -1.2756  0.4049
  485TIP3   OH225649   3.943   4.288   9.817 -0.1246  0.2634 -0.1542
  485TIP3    H125650   3.982   4.330   9.740 -0.5567  2.7623  0.9120
  485TIP3    H225651   3.849   4.299   9.806 -0.2405 -0.2015  0.3000
  486TIP3   OH225652   3.216   3.474  13.018  0.0892 -0.2229 -0.6145
  486TIP3    H125653   3.168   3.556  13.009  1.0095  0.3855 -0.1933
  486TIP3    H225654   3.151   3.410  13.045 -0.7421  0.2496 -1.4811
  487TIP3   OH225655   6.404   1.502  11.804 -0.3864 -0.3186 -0.2393
  487TIP3    H125656   6.486   1.490  11.756 -0.8125  1.6860 -1.5709
  487TIP3    H225657   6.428   1.556  11.879 -0.1996 -1.1907  0.3385
  488TIP3   OH225658   2.235   4.471  12.393 -0.1072 -0.4857 -0.2107
  488TIP3    H125659   2.331   4.471  12.397  0.0226  0.1322 -2.0557
  488TIP3    H225660   2.212   4.381  12.371 -0.0972 -0.9992  1.6640
  489TIP3   OH225661   2.828   1.261  11.783 -0.5670  0.1611 -0.5260
  489TIP3    H125662   2.766   1.192  11.806 -0.1912  0.6249  2.2166
  489TIP3    H225663   2.788   1.342  11.814  0.6383  0.6924 -0.2848
  490TIP3   OH225664   0.367   0.257  11.215 -0.3884  0.1166 -0.1146
  490TIP3    H125665   0.317   0.175  11.219  1.8041 -1.2542  1.7911
  490TIP3    H225666   0.321   0.315  11.275 -0.5460 -0.5873  0.4610
  491TIP3   OH225667   0.860   3.544  10.438 -0.5616  0.2597  0.5082
  491TIP3    H125668   0.807   3.598  10.496 -0.5320 -1.0903  1.8545
  491TIP3    H225669   0.797   3.494  10.386 -0.6070  0.0725  0.7410
  492TIP3   OH225670   6.283   3.309  10.901  0.1396  0.0399 -0.2074
  492TIP3    H125671   6.378   3.307  10.914  0.6525  0.1844 -3.3083
  492TIP3    H225672   6.268   3.383  10.843 -1.9207  0.0556  0.2678
  493TIP3   OH225673   5.383   3.810  13.084  0.1293 -0.5025 -1.1234
  493TIP3    H125674   5.344   3.753  13.151 -0.1546 -0.2826 -1.1010
  493TIP3    H225675   5.308   3.851  13.041  0.2922  3.3117  1.7706
  494TIP3   OH225676   5.608   2.151  12.502  0.2925  0.4181  0.4559
  494TIP3    H125677   5.544   2.163  12.432 -0.1361 -0.1479  0.7339
  494TIP3    H225678   5.685   2.114  12.459  0.8044  2.0025 -0.0379
  495TIP3   OH225679   3.717   2.537  13.070 -0.0074  0.3004 -0.4152
  495TIP3    H125680   3.667   2.475  13.017 -0.3810  0.9100 -0.7978
  495TIP3    H225681   3.669   2.541  13.153 -1.0535  1.4325 -1.0379
  496TIP3   OH225682   5.661   6.835  12.035 -0.1150  0.6201 -0.0389
  496TIP3    H125683   5.675   6.927  12.056 -0.0433  0.5384  0.2770
  496TIP3    H225684   5.735   6.812  11.978 -0.6095  0.9862 -0.8377
  497TIP3   OH225685   4.482   1.529  11.097 -0.0841 -0.3855 -0.1246
  497TIP3    H125686   4.572   1.516  11.068 -0.4269 -1.0945 -0.9100
  497TIP3    H225687   4.463   1.452  11.151  0.0940  0.2557  0.8928
  498TIP3   OH225688   5.740   1.317  12.493  0.6061  0.1259  0.6767
  498TIP3    H125689   5.796   1.392  12.513  1.7007  0.1391 -1.9444
  498TIP3    H225690   5.655   1.355  12.471  0.8102  0.4954  0.5189
  499TIP3   OH225691   5.229   5.746  11.526  0.0335 -0.4608 -0.0150
  499TIP3    H125692   5.175   5.675  11.559 -0.1093 -0.3456  0.0006
  499TIP3    H225693   5.251   5.722  11.436  0.2472 -0.6750  0.0926
  500TIP3   OH225694   4.256   5.270  10.754 -0.4172 -0.0422  0.2388
  500TIP3    H125695   4.277   5.344  10.697  1.6671 -0.4728  0.3700
  500TIP3    H225696   4.217   5.205  10.696 -1.3436  0.7473 -0.0569
  501TIP3   OH225697   2.966   0.816  11.086 -0.2544  0.0787 -0.0317
  501TIP3    H125698   2.945   0.814  10.993  0.3738 -0.7285 -0.1659
  501TIP3    H225699   2.897   0.764  11.128  0.3653 -0.9286 -0.2430
  502TIP3   OH225700   6.010   1.633  11.052 -0.4385  0.3236  0.4120
  502TIP3    H125701   6.002   1.556  10.995 -0.8225  0.5932  0.0958
  502TIP3    H225702   5.978   1.603  11.137  0.0019 -0.0409  0.4575
  503TIP3   OH225703   4.393   2.228  12.467 -0.0240  0.1317  0.1487
  503TIP3    H125704   4.379   2.164  12.398  3.2983 -0.9076  0.2621
  503TIP3    H225705   4.371   2.182  12.548 -0.5887  0.1803  0.0242
  504TIP3   OH225706   0.202   4.445  10.753  0.4182 -0.3972 -0.5710
  504TIP3    H125707   0.220   4.429  10.846  0.5707 -0.2266 -0.5692
  504TIP3    H225708   0.278   4.495  10.723  0.6063 -0.8923 -0.9129
  505TIP3   OH225709   1.724   0.881  11.633  0.0856  0.6267 -0.0658
  505TIP3    H125710   1.814   0.847  11.628 -0.5692 -1.0267 -1.8101
  505TIP3    H225711   1.676   0.814  11.682 -0.3005  1.2724  0.4428
  506TIP3   OH225712   6.556   6.361  11.238  0.2202 -0.2931 -0.4996
  506TIP3    H125713   6.552   6.414  11.318  0.4388  1.9522 -1.8804
  506TIP3    H225714   6.465   6.346  11.215  0.1163  0.8734 -0.9196
  507TIP3   OH225715   4.888   4.242  12.432  0.1127 -0.2375  0.3529
  507TIP3    H125716   4.840   4.249  12.514  1.9355  0.6003  1.3984
  507TIP3    H225717   4.935   4.325  12.425 -0.5486  0.0086 -1.9176
  508TIP3   OH225718   4.427   1.328  12.741  0.0875 -0.6456  0.2042
  508TIP3    H125719   4.429   1.256  12.804  0.1875  0.0931  1.0639
  508TIP3    H225720   4.519   1.351  12.728  0.1302 -1.3847 -0.9227
  509TIP3   OH225721   1.684   5.268  13.120 -0.1963 -0.0620 -0.5345
  509TIP3    H125722   1.619   5.338  13.117 -1.0559 -0.7746  0.6462
  509TIP3    H225723   1.759   5.306  13.167 -0.8538 -0.0657  0.5506
  510TIP3   OH225724   1.688   2.914  13.027  0.3152  0.1149 -0.0919
  510TIP3    H125725   1.753   2.977  13.058  0.4548 -0.6652  1.2831
  510TIP3    H225726   1.694   2.840  13.088 -0.0290 -1.1314 -1.4913
  511TIP3   OH225727   3.108   4.563  12.238 -0.3599  0.1299  0.1710
  511TIP3    H125728   3.132   4.490  12.295 -0.4637  0.1982  0.3034
  511TIP3    H225729   3.013   4.552  12.224 -0.4308  0.4056  0.4264
  512TIP3   OH225730   2.837   6.685  13.052 -0.1993 -0.4688 -0.0215
  512TIP3    H125731   2.828   6.623  13.123 -0.8454 -1.1209 -0.6552
  512TIP3    H225732   2.805   6.639  12.975 -1.6407  0.9603 -0.3475
  513TIP3   OH225733   1.145   4.432  11.292  0.1917  0.2464  0.6625
  513TIP3    H125734   1.130   4.386  11.210 -0.4195  1.6290 -0.0256
  513TIP3    H225735   1.234   4.466  11.286 -0.1061  0.9734  0.2395
  514TIP3   OH225736   5.343   4.575   9.805 -0.1306 -0.2517  0.2193
  514TIP3    H125737   5.375   4.592   9.893 -0.8475 -0.5514  0.5450
  514TIP3    H225738   5.295   4.493   9.812 -0.8155  0.0897 -0.2898
  515TIP3   OH225739   1.186   4.934  12.167 -0.3681  0.2075 -0.1818
  515TIP3    H125740   1.252   5.001  12.151  0.2861 -0.3239  0.2226
  515TIP3    H225741   1.177   4.888  12.084 -0.4888  0.5012 -0.3329
  516TIP3   OH225742   3.606   0.777  10.759  0.1045  0.2848 -0.6155
  516TIP3    H125743   3.629   0.686  10.775 -2.8851 -0.6483 -0.8645
  516TIP3    H225744   3.635   0.794  10.669 -0.6147 -0.9421 -1.1069
  517TIP3   OH225745   2.712   0.581  10.711  0.4122 -0.2103  0.0206
  517TIP3    H125746   2.726   0.636  10.634 -0.5275  0.3888  0.2686
  517TIP3    H225747   2.788   0.597  10.767 -1.2185  3.2818  1.5334
  518TIP3   OH225748   0.519   2.095  12.121 -0.7133  0.3044 -0.2532
  518TIP3    H125749   0.465   2.034  12.171  0.0925 -0.3153 -0.1282
  518TIP3    H225750   0.566   2.041  12.058  0.5811  0.6714  0.3497
  519TIP3   OH225751   2.113   2.274  10.124 -0.1026 -0.2811  0.1214
  519TIP3    H125752   2.037   2.216  10.119  0.0791 -0.6267  1.1743
  519TIP3    H225753   2.151   2.271  10.036 -0.5463 -1.1408 -0.0536
  520TIP3   OH225754   2.886   0.220  10.646  0.2751 -0.0057 -0.5198
  520TIP3    H125755   2.802   0.242  10.686  0.4345 -0.1887 -0.0861
  520TIP3    H225756   2.915   0.302  10.605  1.4088  0.9814  2.0461
  521TIP3   OH225757   1.279   4.132  12.140  0.1690 -0.4820 -0.0443
  521TIP3    H125758   1.243   4.106  12.056 -0.5275  0.4090 -0.0460
  521TIP3    H225759   1.225   4.088  12.205 -0.5733  0.3867 -0.0540
  522TIP3   OH225760   3.515   6.549  13.148 -0.2390 -0.0186 -0.4093
  522TIP3    H125761   3.604   6.564  13.178 -0.7187 -1.4261  2.0073
  522TIP3    H225762   3.467   6.627  13.175 -0.2404 -0.4041  0.7674
  523TIP3   OH225763   0.087   4.407  11.576 -0.0464 -0.0636 -0.3980
  523TIP3    H125764   0.064   4.398  11.668  0.8274  0.1528 -0.1528
  523TIP3    H225765   0.043   4.334  11.533 -0.2751 -0.2928  0.2220
  524TIP3   OH225766   1.848   3.173   9.930 -0.1663 -0.0383 -0.5668
  524TIP3    H125767   1.918   3.235   9.948  0.7591 -0.9042 -1.0480
  524TIP3    H225768   1.843   3.170   9.834  1.9713 -2.9255 -0.7434
  525TIP3   OH225769   5.746   2.175  13.250 -0.0272  0.1753 -0.0687
  525TIP3    H125770   5.815   2.154  13.187 -0.7590 -1.4576 -0.3657
  525TIP3    H225771   5.679   2.219  13.198  0.2014  0.5649 -0.0389
  526TIP3   OH225772   1.936   0.548  11.781  0.5627 -0.0551 -0.1968
  526TIP3    H125773   1.921   0.636  11.747  0.3961  0.6128  1.4831
  526TIP3    H225774   1.850   0.517  11.809  0.5732 -0.8814 -1.0250
  527TIP3   OH225775   2.422   1.207  11.731  0.0636  0.1989  0.1184
  527TIP3    H125776   2.495   1.157  11.766  0.5832  0.8657  0.0147
  527TIP3    H225777   2.399   1.268  11.801  1.5907  2.0551 -0.8642
  528TIP3   OH225778   3.645   5.493  10.274 -0.4563  0.1104 -0.3902
  528TIP3    H125779   3.623   5.429  10.206  0.6636 -0.6394 -0.0728
  528TIP3    H225780   3.599   5.573  10.248  0.0900 -0.1078 -2.1465
  529TIP3   OH225781   3.665   0.510  10.725  0.1778  0.0877  0.1550
  529TIP3    H125782   3.726   0.446  10.762  0.1938 -0.3675 -0.6339
  529TIP3    H225783   3.697   0.525  10.636  0.3064  1.3752  0.3959
  530TIP3   OH225784   6.040   1.853  13.218 -0.0152 -0.2960  0.6296
  530TIP3    H125785   6.101   1.780  13.209  0.2340 -0.0094 -0.1216
  530TIP3    H225786   6.010   1.870  13.128  1.2024  1.5942  0.5177
  531TIP3   OH225787   3.590   2.112  11.657 -0.0334  0.0384 -0.3034
  531TIP3    H125788   3.588   2.107  11.752  1.1285  0.9518 -0.2084
  531TIP3    H225789   3.633   2.031  11.629  1.8632  0.8456  0.1196
  532TIP3   OH225790   5.506   6.249  12.215 -0.1973  0.0193 -0.4377
  532TIP3    H125791   5.436   6.298  12.257  0.6186  0.2993  0.6501
  532TIP3    H225792   5.562   6.315  12.176  0.9326  0.0032  1.0775
  533TIP3   OH225793   0.420   6.052   9.970 -0.1602  0.1520 -0.8705
  533TIP3    H125794   0.348   6.100  10.011  0.2725  0.8190 -0.8852
  533TIP3    H225795   0.497   6.106   9.985  0.2206 -0.2031 -1.4905
  534TIP3   OH225796   2.122   5.589  12.158 -0.3787  0.0258  0.2912
  534TIP3    H125797   2.180   5.659  12.186 -0.8453  0.4978  0.0948
  534TIP3    H225798   2.080   5.623  12.079  1.1915 -1.4206 -1.2374
  535TIP3   OH225799   4.085   2.124  12.756 -0.2159 -0.1704 -0.2331
  535TIP3    H125800   4.129   2.141  12.839 -1.5901 -0.8086  0.6532
  535TIP3    H225801   4.062   2.031  12.759 -2.5564  0.3474 -0.1565
  536TIP3   OH225802   6.486   6.391  12.884 -0.2982 -0.4549 -0.0769
  536TIP3    H125803   6.505   6.338  12.962 -1.6299 -1.4905 -0.4047
  536TIP3    H225804   6.408   6.441  12.907 -0.7400 -0.8128 -0.7378
  537TIP3   OH225805   1.063   5.068  11.783 -0.1057 -0.1363 -0.0316
  537TIP3    H125806   1.026   5.125  11.850 -0.4795 -0.5091  0.0830
  537TIP3    H225807   0.988   5.036  11.734  0.0971 -0.5692 -0.0629
  538TIP3   OH225808   2.729   3.300  12.246 -0.0085 -0.8375  0.4961
  538TIP3    H125809   2.743   3.391  12.274 -0.7326 -0.3642 -0.6096
  538TIP3    H225810   2.693   3.308  12.158  0.8819 -2.2450 -0.0123
  539TIP3   OH225811   3.159   2.951  10.185 -0.4970 -0.3486  0.7173
  539TIP3    H125812   3.196   2.903  10.111 -0.1292  0.3150  0.4658
  539TIP3    H225813   3.143   3.039  10.151 -1.1721 -0.2854  1.1716
  540TIP3   OH225814   0.856   6.440  10.722  0.0576 -0.1693 -0.6661
  540TIP3    H125815   0.875   6.532  10.740  1.5593 -0.5091 -0.3471
  540TIP3    H225816   0.833   6.439  10.629  1.5206  0.3615 -1.0746
  541TIP3   OH225817   5.693   1.358  12.094  0.2628  0.3749 -0.0830
  541TIP3    H125818   5.784   1.355  12.122 -0.5208 -2.4544  2.7978
  541TIP3    H225819   5.647   1.401  12.166 -1.0435 -1.3780  0.2226
  542TIP3   OH225820   1.070   0.255  12.936  0.3271 -0.1914  0.6750
  542TIP3    H125821   1.038   0.216  13.018 -0.2521  0.7658  0.9171
  542TIP3    H225822   1.148   0.304  12.962  0.2149  0.0084  0.6389
  543TIP3   OH225823   0.234   1.469  13.345 -0.3738  0.4534  0.6986
  543TIP3    H125824   0.316   1.503  13.382 -0.1001 -1.4643  2.0451
  543TIP3    H225825   0.257   1.442  13.256  0.0819  1.2008  0.5786
  544TIP3   OH225826   4.299   5.526  11.719  0.2140 -0.5082  0.0863
  544TIP3    H125827   4.374   5.540  11.777  0.9658  0.4196 -1.0770
  544TIP3    H225828   4.337   5.495  11.637 -0.8100 -1.5375 -0.0264
  545TIP3   OH225829   0.281   6.053  12.961 -1.2437  0.2333  0.1279
  545TIP3    H125830   0.295   6.142  12.930 -0.5896  0.4359  0.9884
  545TIP3    H225831   0.217   6.061  13.032 -0.4310  0.1491  0.8812
  546TIP3   OH225832   3.059   5.412  12.327 -0.3679  0.0836  0.0581
  546TIP3    H125833   3.052   5.504  12.301 -1.0878  0.1669  0.5327
  546TIP3    H225834   3.039   5.363  12.246 -0.8623  0.3461  0.0165
  547TIP3   OH225835   5.211   6.320  10.863  0.3153  0.3976  0.3004
  547TIP3    H125836   5.157   6.378  10.917 -1.1747  0.7636 -1.5024
  547TIP3    H225837   5.282   6.376  10.831 -0.7233  1.1011 -0.8581
  548TIP3   OH225838   3.671   4.679  12.582 -0.3279  0.3008  0.1342
  548TIP3    H125839   3.674   4.681  12.678  3.1328 -0.7228  0.2114
  548TIP3    H225840   3.644   4.589  12.561  2.3373 -0.6745  0.3714
  549TIP3   OH225841   5.954   3.224  11.815  0.7998  0.4052  0.2692
  549TIP3    H125842   5.953   3.129  11.804 -0.5562  0.5346 -1.0810
  549TIP3    H225843   6.034   3.253  11.771  1.3206 -0.1123  0.8631
  550TIP3   OH225844   0.909   2.403  11.916 -0.0997  0.1173 -0.2316
  550TIP3    H125845   0.976   2.389  11.984 -0.2613  1.0656  0.1433
  550TIP3    H225846   0.827   2.407  11.965 -0.4396 -0.9133 -0.6784
  551TIP3   OH225847   3.206   5.099  12.708  0.0397 -0.0880 -0.4833
  551TIP3    H125848   3.299   5.081  12.724 -0.0417 -1.4932 -1.3748
  551TIP3    H225849   3.206   5.166  12.640  0.3516  2.8267  2.1316
  552TIP3   OH225850   4.301   2.475  11.070  0.1188 -0.6230 -0.0470
  552TIP3    H125851   4.315   2.562  11.108  1.7314 -0.2737 -1.3569
  552TIP3    H225852   4.242   2.491  10.996 -0.8308 -0.9046  0.6264
  553TIP3   OH225853   6.655   3.292  12.903 -0.6193  0.8513  0.1260
  553TIP3    H125854   6.642   3.268  12.811  0.1866  0.2717  0.1544
  553TIP3    H225855   6.575   3.340  12.927 -1.7860 -0.8033 -0.2848
  554TIP3   OH225856   6.478   3.118  12.359  0.5828 -0.0458 -0.2043
  554TIP3    H125857   6.531   3.182  12.406  0.2015 -0.9176  1.5067
  554TIP3    H225858   6.390   3.127  12.398  0.5299 -1.5951  0.1137
  555TIP3   OH225859   2.474   0.436  12.223  0.5720  0.4197 -0.0768
  555TIP3    H125860   2.477   0.405  12.314 -0.7680  0.8940  0.1449
  555TIP3    H225861   2.441   0.525  12.229  0.5171  0.4731 -1.0401
  556TIP3   OH225862   2.391   2.405   9.981 -0.9352  0.4036  0.3990
  556TIP3    H125863   2.484   2.401   9.956 -1.0459  2.0336 -0.3799
  556TIP3    H225864   2.362   2.313   9.979  0.6220 -0.1295  0.5652
  557TIP3   OH225865   5.457   5.202  12.647  0.1383 -0.4880  0.5010
  557TIP3    H125866   5.549   5.185  12.627 -0.0413 -0.1044 -0.6837
  557TIP3    H225867   5.451   5.298  12.655 -0.1682 -0.5077  0.5298
  558TIP3   OH225868   5.144   3.023  12.508  0.2362 -0.3490  0.1732
  558TIP3    H125869   5.155   3.092  12.574  0.7910  1.2078 -1.4541
  558TIP3    H225870   5.231   2.982  12.502  0.3148 -0.1702  0.0810
  559TIP3   OH225871   2.668   5.424  11.638 -0.1244 -0.1966 -0.0185
  559TIP3    H125872   2.642   5.336  11.663 -0.4053 -0.4363 -1.0802
  559TIP3    H225873   2.599   5.453  11.577 -0.3358  0.9754  0.7429
  560TIP3   OH225874   2.608   3.810  11.148  0.1704 -0.1871  0.0681
  560TIP3    H125875   2.574   3.898  11.167 -2.2483 -0.9936 -0.1432
  560TIP3    H225876   2.566   3.754  11.213  0.3066 -1.4239 -0.8772
  561TIP3   OH225877   1.677   5.181  10.586  0.1895  0.1986  0.0994
  561TIP3    H125878   1.612   5.158  10.520 -1.4557  1.0567  1.3111
  561TIP3    H225879   1.684   5.277  10.580 -0.5150  0.3811  1.5465
  562TIP3   OH225880   2.817   4.071   9.591 -0.4817  0.5367  0.0758
  562TIP3    H125881   2.734   4.096   9.632 -1.3019  0.3463 -1.3873
  562TIP3    H225882   2.794   4.053   9.499  1.1908  0.5367 -0.3806
  563TIP3   OH225883   1.909   5.653  12.410  0.0677 -0.6975 -0.2698
  563TIP3    H125884   1.839   5.589  12.396  0.0797 -0.5903 -0.8283
  563TIP3    H225885   1.942   5.633  12.498 -1.5481  0.1174  0.5492
  564TIP3   OH225886   1.722   3.079  11.976 -0.0020 -0.2706 -0.2873
  564TIP3    H125887   1.787   3.008  11.982  0.8277  0.4115 -0.9398
  564TIP3    H225888   1.676   3.076  12.059  1.5659 -0.1253  0.6356
  565TIP3   OH225889   3.389   4.689  12.750  0.1590  0.0495  0.3460
  565TIP3    H125890   3.381   4.784  12.756 -3.7223 -0.1499  0.2212
  565TIP3    H225891   3.405   4.672  12.657 -1.5778  0.5363 -0.0768
  566TIP3   OH225892   2.092   3.561  11.522 -0.3882 -0.2340  0.5732
  566TIP3    H125893   2.188   3.557  11.518 -0.4164 -1.7260  0.7382
  566TIP3    H225894   2.066   3.604  11.441  0.3681 -1.1708 -0.1943
  567TIP3   OH225895   4.680   0.896  11.290 -0.4772  0.4788 -0.2842
  567TIP3    H125896   4.730   0.867  11.367 -0.2909 -1.0017 -0.9240
  567TIP3    H225897   4.696   0.990  11.285  0.0413  0.4858  1.1070
  568TIP3   OH225898   6.762   2.208  12.586  0.1897  0.7007 -0.0917
  568TIP3    H125899   6.685   2.204  12.641  0.3802 -0.1593  0.1219
  568TIP3    H225900   6.817   2.135  12.615 -0.1724 -0.4508 -2.0981
  569TIP3   OH225901   2.344   0.041  10.592  0.7848 -0.2009  0.0691
  569TIP3    H125902   2.286   0.099  10.642 -1.0000  0.3351 -2.4266
  569TIP3    H225903   2.316  -0.047  10.618 -0.8514  0.0582 -0.6724
  570TIP3   OH225904   1.149   6.369  11.993  0.6647 -0.3068 -0.1607
  570TIP3    H125905   1.236   6.359  12.031  0.5780 -0.0159  0.1168
  570TIP3    H225906   1.109   6.441  12.042  0.0614 -0.7946  0.0847
  571TIP3   OH225907   4.189   4.066  11.936  0.3296  0.2526 -0.2441
  571TIP3    H125908   4.200   4.074  11.842  0.2502 -1.9226 -0.5025
  571TIP3    H225909   4.135   4.141  11.962 -1.4011 -0.2247 -2.2603
  572TIP3   OH225910   4.967   4.933  10.970  0.3860  0.0905  0.1552
  572TIP3    H125911   4.912   4.858  10.995  3.5954 -2.7228 -0.4610
  572TIP3    H225912   4.952   4.944  10.877 -0.1648  0.3115  0.2644
  573TIP3   OH225913   1.062   3.152  11.827  0.0902 -0.1521  0.1934
  573TIP3    H125914   1.001   3.079  11.836 -0.2635  0.1012 -0.1259
  573TIP3    H225915   1.047   3.205  11.906 -0.4824  0.1854 -0.1300
  574TIP3   OH225916   0.022   0.635  13.026  0.5334  0.4734  0.3183
  574TIP3    H125917  -0.062   0.678  13.010  0.0901 -0.4003  0.2368
  574TIP3    H225918   0.039   0.649  13.119  1.0684  1.9889  0.0046
  575TIP3   OH225919   6.058   1.384  13.380  0.1092 -0.2667  0.2505
  575TIP3    H125920   6.108   1.316  13.335  0.3910 -0.2647  0.5627
  575TIP3    H225921   5.990   1.409  13.317 -1.8677 -2.9088  1.1564
  576TIP3   OH225922   1.098   1.671  11.628  0.0567 -0.3745  0.0064
  576TIP3    H125923   1.054   1.680  11.712  0.0113 -1.2548  0.0779
  576TIP3    H225924   1.041   1.614  11.576 -0.3405  0.8175 -0.9291
  577TIP3   OH225925   4.305   3.670  10.056  0.0190 -0.1516 -0.2359
  577TIP3    H125926   4.223   3.636  10.020 -1.7161  1.1732  2.1915
  577TIP3    H225927   4.357   3.592  10.074 -1.8400 -1.2647  0.6836
  578TIP3   OH225928   2.744   2.905  12.581  0.1824 -0.1433 -0.2255
  578TIP3    H125929   2.716   2.883  12.493 -2.0452 -1.0166  0.6316
  578TIP3    H225930   2.684   2.974  12.609  1.2552  0.5707  0.4249
  579TIP3   OH225931   2.160   4.067   9.791  0.3847 -0.4738  0.2843
  579TIP3    H125932   2.098   4.055   9.863 -0.1799  2.0571  0.3068
  579TIP3    H225933   2.105   4.076   9.713  0.7858  0.4783  0.1031
  580TIP3   OH225934   5.784   1.621  13.224 -0.3749  0.0862  0.2493
  580TIP3    H125935   5.706   1.677  13.221  0.8924  1.8810 -1.3837
  580TIP3    H225936   5.829   1.647  13.303  0.5109  1.9280 -0.7903
  581TIP3   OH225937   4.460   4.541  10.123  0.0444 -0.3381 -0.1177
  581TIP3    H125938   4.551   4.539  10.093  0.8326  1.6507  1.8473
  581TIP3    H225939   4.430   4.629  10.101 -1.7335 -1.2119 -1.4537
  582TIP3   OH225940   6.464   3.075  10.929  0.3066 -0.1238  0.3107
  582TIP3    H125941   6.390   3.069  10.869  0.6412  4.2903 -0.9028
  582TIP3    H225942   6.541   3.077  10.871  0.6896  3.3870  0.6988
  583TIP3   OH225943   0.181   1.541  10.928  0.1232 -0.8600 -0.3278
  583TIP3    H125944   0.115   1.486  10.886  0.8508 -2.9441  1.1131
  583TIP3    H225945   0.258   1.531  10.872  0.6432 -2.4343  0.6020
  584TIP3   OH225946   3.470   2.709  11.032  0.2849  0.4144 -0.2719
  584TIP3    H125947   3.556   2.715  10.991  0.6135 -1.6009  0.0061
  584TIP3    H225948   3.408   2.716  10.960  0.7760 -0.3927 -0.7851
  585TIP3   OH225949   3.695   4.779  12.113  0.0743 -0.1133 -0.0888
  585TIP3    H125950   3.619   4.816  12.157  1.3989 -0.1823  2.4156
  585TIP3    H225951   3.666   4.693  12.082 -1.3906  0.6505 -0.9288
  586TIP3   OH225952   5.939   2.109  13.421 -0.1571  0.1146  0.1367
  586TIP3    H125953   6.018   2.113  13.368  0.9098 -1.9177  1.4349
  586TIP3    H225954   5.871   2.149  13.367  1.6472  1.5527 -1.1651
  587TIP3   OH225955   6.108   6.698  10.788 -0.2169 -0.2234 -0.4540
  587TIP3    H125956   6.043   6.632  10.809 -0.0328 -0.4161 -0.4865
  587TIP3    H225957   6.062   6.761  10.732 -0.7208  0.2987  0.5123
  588TIP3   OH225958   0.120   6.392  10.652  0.0556 -0.2649 -0.2974
  588TIP3    H125959   0.197   6.420  10.603  0.2891 -1.0214 -0.3680
  588TIP3    H225960   0.053   6.377  10.584 -0.0926  0.1882 -0.2534
  589TIP3   OH225961   5.723   5.022  11.095  0.6211 -0.0533  0.3719
  589TIP3    H125962   5.635   4.984  11.089  1.0620 -1.0624  0.0226
  589TIP3    H225963   5.755   4.995  11.180  0.4938  0.5526  0.6141
  590TIP3   OH225964   6.825   0.931  12.278  0.4655  0.6618 -0.1536
  590TIP3    H125965   6.834   0.836  12.290 -2.2545  0.0609 -1.9104
  590TIP3    H225966   6.898   0.954  12.220  1.3723 -0.2757  0.5735
  591TIP3   OH225967   3.753   3.590  11.664 -0.4405  0.3778  0.3527
  591TIP3    H125968   3.738   3.576  11.757  1.1564  0.1958  0.5981
  591TIP3    H225969   3.841   3.626  11.658 -0.0027 -0.8129 -1.1784
  592TIP3   OH225970   4.414   5.856  11.717  0.3274 -0.3705 -0.5383
  592TIP3    H125971   4.319   5.844  11.713  0.4008 -1.5372  0.6024
  592TIP3    H225972   4.448   5.807  11.642  0.0949 -0.7840 -0.3738
  593TIP3   OH225973   2.524   6.718  11.642  0.1161  0.2772 -0.6309
  593TIP3    H125974   2.510   6.801  11.687 -1.5881  0.3739 -1.2507
  593TIP3    H225975   2.618   6.715  11.625  0.3565  1.5832  0.3216
  594TIP3   OH225976   2.302   2.959  10.012  0.0462  0.1893 -0.3509
  594TIP3    H125977   2.368   2.890  10.006 -0.8821 -0.8768  1.0157
  594TIP3    H225978   2.258   2.958   9.927  1.5079  0.6794 -1.1503
  595TIP3   OH225979   2.193   5.986   9.842  1.0060 -0.3830  0.1112
  595TIP3    H125980   2.173   5.896   9.819  2.1419 -0.5770 -0.1757
  595TIP3    H225981   2.206   5.985   9.937  1.5236 -0.6282  0.0407
  596TIP3   OH225982   2.708   4.126  12.607 -0.2016  0.2645  0.1072
  596TIP3    H125983   2.681   4.102  12.696  0.1278 -0.5457 -0.0070
  596TIP3    H225984   2.647   4.080  12.550  0.2215 -0.0313 -0.1078
  597TIP3   OH225985   5.271   1.932  12.992  0.0623 -0.3304 -0.2746
  597TIP3    H125986   5.359   1.948  12.957  0.2601 -0.0792  0.3186
  597TIP3    H225987   5.285   1.918  13.086 -0.9330  4.4901  0.8731
  598TIP3   OH225988   3.923   2.729  11.851 -0.0723 -0.2783  0.0625
  598TIP3    H125989   3.846   2.672  11.847  0.7033 -1.3004 -1.4318
  598TIP3    H225990   3.996   2.669  11.865  0.6360  0.4732 -0.3447
  599TIP3   OH225991   1.705   3.135  11.337  0.5378  0.2940  1.0283
  599TIP3    H125992   1.699   3.230  11.335 -2.4522  0.2052 -1.0715
  599TIP3    H225993   1.633   3.108  11.395 -0.8139 -0.6662 -0.9883
  600TIP3   OH225994   2.346   6.528  10.402  0.1453  0.0968  0.1279
  600TIP3    H125995   2.288   6.591  10.359 -0.0915 -0.5512 -0.5400
  600TIP3    H225996   2.321   6.444  10.364  0.3344 -0.4244  1.1298
  601TIP3   OH225997   5.749   0.814  12.914  0.6006  0.1222  0.0474
  601TIP3    H125998   5.708   0.855  12.838 -0.2937 -2.1078 -0.7606
  601TIP3    H225999   5.682   0.817  12.982  0.7933  0.5824  0.2260
  602TIP3   OH226000   6.767   3.879  11.562  0.0813 -0.2323 -0.4713
  602TIP3    H126001   6.843   3.828  11.533  0.5292  1.1097 -1.7815
  602TIP3    H226002   6.705   3.872  11.490  0.0384  0.8303 -0.5450
  603TIP3   OH226003   0.317   0.214  12.397  0.5013 -0.3367 -0.1699
  603TIP3    H126004   0.360   0.280  12.452  0.9322  0.8961 -1.8669
  603TIP3    H226005   0.387   0.152  12.376  0.9248  0.4157 -1.0788
  604TIP3   OH226006   2.328   2.731  11.147 -0.5899 -0.2415 -0.1973
  604TIP3    H126007   2.301   2.821  11.162 -0.8085 -0.3479  0.0632
  604TIP3    H226008   2.417   2.727  11.181 -0.3861  0.0078 -0.6910
  605TIP3   OH226009   6.816   1.791  10.996  1.1050  0.1733 -0.4571
  605TIP3    H126010   6.808   1.873  10.948 -0.0800  0.8751  0.8975
  605TIP3    H226011   6.859   1.815  11.079 -1.3872 -0.0914  0.9925
  606TIP3   OH226012   3.681   4.085  11.470  0.0312  0.3851  0.2699
  606TIP3    H126013   3.690   4.179  11.457 -0.8421  0.3194 -1.0324
  606TIP3    H226014   3.607   4.060  11.415  0.1794 -1.0525  0.6712
  607TIP3   OH226015   0.652   1.999  10.561 -0.7926  0.1669 -0.2908
  607TIP3    H126016   0.703   1.978  10.482  1.3167  2.3170  0.3727
  607TIP3    H226017   0.562   2.004  10.530 -0.2607 -0.8439 -2.1729
  608TIP3   OH226018   3.213   0.431  11.865  0.0757 -0.0000 -0.0973
  608TIP3    H126019   3.291   0.411  11.814 -0.4384 -3.1763  0.1505
  608TIP3    H226020   3.141   0.426  11.802 -0.0749  1.7144 -0.0938
  609TIP3   OH226021   1.339   3.630  11.915  0.2077 -0.0702 -0.1632
  609TIP3    H126022   1.338   3.652  11.822 -3.1577  1.4491  0.0622
  609TIP3    H226023   1.410   3.682  11.952 -0.1518  1.4678 -1.5282
  610TIP3   OH226024   4.187   2.593   9.175  0.8294  0.1528 -0.0875
  610TIP3    H126025   4.222   2.524   9.232  1.9386  1.3334  0.7408
  610TIP3    H226026   4.131   2.645   9.232  1.9583  1.3545 -0.0226
  611TIP3   OH226027   6.261   6.160  11.220  0.3129  0.7279  0.2507
  611TIP3    H126028   6.202   6.196  11.153  0.8690  0.2896 -0.4864
  611TIP3    H226029   6.218   6.182  11.303 -1.6419 -0.8223 -0.2711
  612TIP3   OH226030   4.421   0.332  12.889  0.0965 -0.5712  0.6101
  612TIP3    H126031   4.496   0.384  12.860 -0.5081  0.0680  0.1468
  612TIP3    H226032   4.374   0.389  12.949 -0.5107 -0.6186  0.1940
  613TIP3   OH226033   2.482   6.090  10.385 -0.3755 -0.1463 -0.2111
  613TIP3    H126034   2.571   6.121  10.403  0.2173 -2.4884  1.5076
  613TIP3    H226035   2.495   6.000  10.354 -2.1671 -0.7866  0.7927
  614TIP3   OH226036   2.462   5.214  12.327 -0.0190 -0.1117  0.4025
  614TIP3    H126037   2.482   5.186  12.237  1.5358 -0.2401  0.7629
  614TIP3    H226038   2.433   5.305  12.317  2.1882  0.5942 -0.0687
  615TIP3   OH226039   2.423   4.700  12.556  0.2273 -0.0936  0.0386
  615TIP3    H126040   2.437   4.778  12.609  1.4118  0.4378 -0.9997
  615TIP3    H226041   2.327   4.691  12.552  0.0659  1.2999  0.1893
  616TIP3   OH226042   2.947   4.476  10.554  0.3257 -1.0046  0.1820
  616TIP3    H126043   3.026   4.423  10.567  0.7301 -0.4974 -0.1551
  616TIP3    H226044   2.917   4.496  10.642  0.7110 -1.0076  0.3184
  617TIP3   OH226045   0.639   3.486  11.511  0.0251  0.6065 -0.3598
  617TIP3    H126046   0.644   3.554  11.578 -1.1544  1.1166 -0.7803
  617TIP3    H226047   0.596   3.413  11.555  0.4846  0.4401 -0.1741
  618TIP3   OH226048   3.925   3.894  10.521  0.0900 -0.0393 -0.3653
  618TIP3    H126049   3.904   3.838  10.596  1.3185 -1.4843 -1.0512
  618TIP3    H226050   3.885   3.850  10.446  2.4030 -0.9743 -1.1568
  619TIP3   OH226051   3.437   1.546  10.975  0.0052  0.0770  0.1099
  619TIP3    H126052   3.516   1.594  11.001  0.8452 -0.7845 -0.7494
  619TIP3    H226053   3.383   1.544  11.054  0.2494  1.8051  0.3578
  620TIP3   OH226054   2.455   5.025   9.800 -0.6133 -0.4451  0.0067
  620TIP3    H126055   2.489   5.001   9.714 -1.8997  1.7235 -1.2266
  620TIP3    H226056   2.532   5.044   9.853  0.2006  0.1953 -1.3582
  621TIP3   OH226057   5.319   3.418  11.210 -0.5441  0.4068  0.2738
  621TIP3    H126058   5.268   3.447  11.135 -3.1476 -0.4017  1.5834
  621TIP3    H226059   5.255   3.412  11.281  1.2875 -1.2991  1.9131
  622TIP3   OH226060   2.281   5.943  11.514 -0.1993  0.0001  0.5938
  622TIP3    H126061   2.280   6.034  11.486 -0.7635  0.0886  0.8862
  622TIP3    H226062   2.219   5.899  11.457 -0.8891  0.0590  1.2846
  623TIP3   OH226063   4.315   0.467   9.976 -0.0994 -0.1042 -0.5224
  623TIP3    H126064   4.289   0.397   9.916 -0.1130  0.9652 -1.8083
  623TIP3    H226065   4.399   0.438  10.012 -0.5373 -1.1863 -0.3319
  624TIP3   OH226066   6.077   3.705  11.365  0.3396 -0.7475  0.0939
  624TIP3    H126067   6.099   3.698  11.272 -1.5024 -0.7899 -0.3866
  624TIP3    H226068   5.983   3.687  11.369  0.4257 -1.0100  2.0146
  625TIP3   OH226069   4.673   3.913  11.755 -0.2286 -0.1336 -0.2189
  625TIP3    H126070   4.758   3.915  11.799  0.3929  1.1981 -1.3995
  625TIP3    H226071   4.685   3.968  11.678 -2.0086 -0.3899 -0.7151
  626TIP3   OH226072   2.719   2.841  11.872 -0.1997 -0.1848 -0.5375
  626TIP3    H126073   2.784   2.891  11.921 -0.5740  1.0880 -1.2795
  626TIP3    H226074   2.647   2.903  11.858 -0.3554 -0.6731 -2.1467
  627TIP3   OH226075   3.436   4.628  13.342 -0.3141 -0.3091 -0.4129
  627TIP3    H126076   3.366   4.580  13.386  0.4894  0.5160  1.8971
  627TIP3    H226077   3.411   4.720  13.349  0.9607 -0.0053  0.4115
  628TIP3   OH226078   1.333   2.692  12.227  0.6061 -0.0137  0.4746
  628TIP3    H126079   1.364   2.613  12.272  1.3573  0.4468  0.7607
  628TIP3    H226080   1.360   2.679  12.136 -1.5657 -1.3002 -0.0890
  629TIP3   OH226081   4.716   1.026  12.658  0.2417  0.2670  0.0331
  629TIP3    H126082   4.629   0.988  12.655  0.5564 -0.4263 -1.2344
  629TIP3    H226083   4.773   0.953  12.681  0.4917  0.7346  0.9491
  630TIP3   OH226084   0.730   4.665  12.412 -0.4781  0.3420  0.1210
  630TIP3    H126085   0.695   4.686  12.326 -2.0093  0.9372  0.8504
  630TIP3    H226086   0.699   4.736  12.469 -0.9300 -0.8768  1.4779
  631TIP3   OH226087   0.803   1.936  12.693  0.3366  0.0833 -0.0997
  631TIP3    H126088   0.774   2.003  12.754 -2.1315 -0.6746 -0.3297
  631TIP3    H226089   0.806   1.855  12.744 -1.2505 -0.4595 -0.8033
  632TIP3   OH226090   0.982   3.719  12.714  0.0358  0.5115  0.3811
  632TIP3    H126091   1.030   3.723  12.797  0.4624 -1.7823  0.3114
  632TIP3    H226092   0.914   3.652  12.729 -0.8769  1.1708 -0.6497
  633TIP3   OH226093   0.085   3.897  10.466 -0.1295 -0.9811  0.1548
  633TIP3    H126094   0.154   3.926  10.526 -0.4191 -1.1771  0.5871
  633TIP3    H226095   0.122   3.910  10.379  0.5822 -1.3825  0.3853
  634TIP3   OH226096   1.079   2.766  10.880  0.1040  0.5932  0.3925
  634TIP3    H126097   1.157   2.796  10.833  0.4295 -0.8999 -0.0600
  634TIP3    H226098   1.019   2.840  10.875  0.3603  0.7375 -1.8526
  635TIP3   OH226099   5.629   3.116  11.670 -0.4438 -0.3356  0.4076
  635TIP3    H126100   5.570   3.053  11.711 -0.3619  0.1349  1.2711
  635TIP3    H226101   5.656   3.173  11.742 -0.6851  0.8147 -0.4003
  636TIP3   OH226102   6.208   6.270  12.721 -0.6534  0.1983 -0.5650
  636TIP3    H126103   6.255   6.351  12.701 -0.4550  0.3293  0.3646
  636TIP3    H226104   6.213   6.218  12.641  0.3180  0.5806 -0.7600
  637TIP3   OH226105   0.846   5.052  12.422  0.2874 -0.1216 -0.1056
  637TIP3    H126106   0.795   5.005  12.488  2.4177 -0.9133  1.0955
  637TIP3    H226107   0.871   5.133  12.465  0.8903 -0.2083 -0.2822
  638TIP3   OH226108   0.748   6.537  10.960 -0.1787 -0.1449 -0.0434
  638TIP3    H126109   0.751   6.487  10.878 -0.6363  1.1887 -0.9125
  638TIP3    H226110   0.688   6.610  10.941 -1.6850 -0.7362  2.0212
  639TIP3   OH226111   6.728   5.504  10.641  0.6252 -0.3705  0.4987
  639TIP3    H126112   6.780   5.428  10.667  0.7389 -0.3968  0.2004
  639TIP3    H226113   6.730   5.502  10.545  0.3155 -0.2067  0.4887
  640TIP3   OH226114   0.348   4.890  12.227  0.3149  0.1921  0.1020
  640TIP3    H126115   0.327   4.934  12.309 -0.3939  0.4398 -0.2043
  640TIP3    H226116   0.319   4.950  12.159  2.6904  0.8823 -0.3873
  641TIP3   OH226117   2.105   4.701  12.340 -0.5516 -0.1525  0.0020
  641TIP3    H126118   2.014   4.711  12.366 -0.4289  1.6992 -0.1225
  641TIP3    H226119   2.131   4.615  12.372 -1.7571  0.1159  1.7899
  642TIP3   OH226120   4.238   3.115  10.771  0.2079  0.1164  0.0279
  642TIP3    H126121   4.249   3.208  10.750  1.9658  0.0881  0.6556
  642TIP3    H226122   4.249   3.110  10.866  0.0737 -0.7383  0.0096
  643TIP3   OH226123   6.314   6.463  11.471 -0.2554  0.1817  0.1889
  643TIP3    H126124   6.347   6.400  11.535  0.3148  2.1970  1.9847
  643TIP3    H226125   6.219   6.454  11.474 -0.1971 -0.2429  0.7831
  644TIP3   OH226126   2.256   6.322  12.321  0.8580  0.0381 -0.3614
  644TIP3    H126127   2.347   6.340  12.345  0.3125  0.7816  1.2850
  644TIP3    H226128   2.209   6.403  12.341 -0.7122 -1.3294  1.9508
  645TIP3   OH226129   2.755   3.663  12.083  0.4184 -0.1788  0.0974
  645TIP3    H126130   2.746   3.758  12.098 -0.2968 -0.5403  2.5621
  645TIP3    H226131   2.806   3.656  12.003  0.5829  2.2975 -0.1119
  646TIP3   OH226132   2.177   3.207  12.749 -0.4833  0.3402 -0.8474
  646TIP3    H126133   2.195   3.141  12.816 -0.9648  0.4280 -0.6263
  646TIP3    H226134   2.256   3.260  12.746  0.0340 -0.4423 -1.2609
  647TIP3   OH226135   3.514   1.336  10.834 -0.1196 -0.1172 -0.3432
  647TIP3    H126136   3.523   1.360  10.742  0.8607  0.3215 -0.1490
  647TIP3    H226137   3.483   1.416  10.877 -0.6018 -0.3287 -0.2878
  648TIP3   OH226138   3.115   4.508  13.171  0.1175  0.0496  0.4231
  648TIP3    H126139   3.033   4.457  13.174  0.4038 -0.4290  3.7245
  648TIP3    H226140   3.100   4.581  13.230  0.9186  2.0676 -1.7021
  649TIP3   OH226141   4.733   6.406  11.785  0.0365  0.2695  0.3995
  649TIP3    H126142   4.788   6.388  11.709  0.4200  2.0752  0.2055
  649TIP3    H226143   4.701   6.495  11.770 -1.0941  0.0871  1.6304
  650TIP3   OH226144   0.077   5.483  10.015 -0.8073 -0.1298  0.7640
  650TIP3    H126145   0.150   5.420  10.018  0.0436  0.7126 -0.9133
  650TIP3    H226146   0.008   5.441  10.066  0.7885 -1.0176  2.3300
  651TIP3   OH226147   0.355   2.680  10.702 -0.9018  0.3865  0.1318
  651TIP3    H126148   0.357   2.590  10.671 -0.5989  1.0025 -1.7855
  651TIP3    H226149   0.344   2.733  10.623 -1.1709  2.0381  1.2079
  652TIP3   OH226150   4.116   3.432  10.522 -0.1017 -0.1826 -0.1405
  652TIP3    H126151   4.078   3.351  10.487  0.6648 -0.6332  0.0529
  652TIP3    H226152   4.052   3.462  10.587 -0.7842 -0.1805 -0.7936
  653TIP3   OH226153   1.358   2.448  12.350 -0.4821  0.1661 -0.3053
  653TIP3    H126154   1.321   2.360  12.349 -2.0945  0.7941  0.3388
  653TIP3    H226155   1.446   2.437  12.384 -1.0384 -1.0811  0.8233
  654TIP3   OH226156   3.254   0.876  11.979 -0.2010 -0.3556 -0.0352
  654TIP3    H126157   3.336   0.921  11.958 -0.9904  0.4520 -1.4853
  654TIP3    H226158   3.229   0.831  11.898 -0.6754 -1.4566  0.6938
  655TIP3   OH226159   4.768   5.462  11.771 -0.5951 -0.3562  0.0996
  655TIP3    H126160   4.777   5.511  11.689  1.3065 -0.7169  0.0466
  655TIP3    H226161   4.858   5.443  11.798 -1.2157 -1.4879  1.5311
  656TIP3   OH226162   6.028   4.854  11.406  0.5284  0.2469  0.2981
  656TIP3    H126163   6.064   4.905  11.333 -1.6680  1.7119  0.1684
  656TIP3    H226164   6.068   4.893  11.484 -0.8725  2.0554  0.1785
  657TIP3   OH226165   5.844   1.155  12.309 -0.6460 -1.4012  0.3211
  657TIP3    H126166   5.794   1.201  12.375  2.5110 -0.6103  2.3715
  657TIP3    H226167   5.881   1.224  12.254 -0.5895 -1.8818 -0.2625
  658TIP3   OH226168   5.729   3.169   9.954 -0.2978 -0.5363  0.2661
  658TIP3    H126169   5.774   3.165  10.038 -0.0510  0.4272  0.1901
  658TIP3    H226170   5.723   3.078   9.925 -1.5214 -1.0224  1.9098
  659TIP3   OH226171   4.142   3.973  10.394  0.1880  0.4224  0.3023
  659TIP3    H126172   4.157   3.892  10.347 -0.5484 -0.8667  2.1802
  659TIP3    H226173   4.059   3.960  10.440 -0.8176  2.8746 -0.5941
  660TIP3   OH226174   2.110   1.586  11.307 -0.0819  0.1516  0.0905
  660TIP3    H126175   2.170   1.513  11.295 -0.9890 -0.5406 -0.2561
  660TIP3    H226176   2.067   1.568  11.390  1.1306  1.3499  1.0383
  661TIP3   OH226177   2.217   0.133  12.045  0.4588  0.1105  0.3059
  661TIP3    H126178   2.129   0.165  12.065 -0.3960 -1.4586 -0.6934
  661TIP3    H226179   2.205   0.079  11.967  1.9892 -1.5389  1.1266
  662TIP3   OH226180   2.800   4.804  10.718  0.1575 -0.2587  0.3978
  662TIP3    H126181   2.792   4.869  10.788 -2.3373 -1.0790  0.9838
  662TIP3    H226182   2.812   4.721  10.764  1.9243 -0.4264 -0.2998
  663TIP3   OH226183   4.421   4.097  11.090  0.1179  0.5078  0.4248
  663TIP3    H126184   4.365   4.079  11.015  1.5668  2.0038 -1.0874
  663TIP3    H226185   4.504   4.053  11.070  0.7473  1.4948  0.7891
  664TIP3   OH226186   2.279   4.892  10.529 -0.2343  0.3401  0.0738
  664TIP3    H126187   2.302   4.829  10.597  1.8483 -0.1447 -0.9817
  664TIP3    H226188   2.248   4.838  10.456 -1.9547  0.8225  0.3930
  665TIP3   OH226189   6.415   5.268  12.690  0.0277 -0.3711 -0.0411
  665TIP3    H126190   6.323   5.257  12.714 -0.2403 -0.4198 -1.0405
  665TIP3    H226191   6.440   5.352  12.727 -0.5619 -0.1301 -0.1815
  666TIP3   OH226192   3.834   0.302  11.758 -0.5192 -0.3906 -0.4416
  666TIP3    H126193   3.768   0.348  11.809  1.7725  2.5240  0.1629
  666TIP3    H226194   3.898   0.271  11.823  0.6472  0.2534 -1.2356
  667TIP3   OH226195   0.272   1.414   9.970  0.6553 -0.0462  0.3268
  667TIP3    H126196   0.184   1.384   9.993  0.7872 -0.4507  0.3001
  667TIP3    H226197   0.261   1.508   9.951  0.0799 -0.2698 -0.4890
  668TIP3   OH226198   0.030   6.148  13.090 -0.1196 -0.1637  0.0640
  668TIP3    H126199  -0.043   6.108  13.138  0.7374 -0.1424  1.4626
  668TIP3    H226200   0.030   6.240  13.118 -0.7790  0.3454 -1.5005
  669TIP3   OH226201   2.751   1.189  12.150  0.0175  0.9025  0.0148
  669TIP3    H126202   2.700   1.258  12.193  0.8788 -0.4998  3.6276
  669TIP3    H226203   2.839   1.224  12.144 -0.3097  1.5186 -1.8330
  670TIP3   OH226204   1.826   3.645  12.974 -0.3547  0.5300  0.0653
  670TIP3    H126205   1.886   3.718  12.960 -0.2763  1.1598  3.0903
  670TIP3    H226206   1.883   3.571  12.994 -0.5041  0.4623  0.2430
  671TIP3   OH226207   4.914   5.860  11.637  0.6533  0.3112  0.5708
  671TIP3    H126208   4.985   5.883  11.577  1.0396  1.6353  1.4818
  671TIP3    H226209   4.957   5.845  11.721  0.2168 -2.4019  0.3871
  672TIP3   OH226210   1.645   3.785  10.447  0.4671 -0.1269 -0.5701
  672TIP3    H126211   1.699   3.801  10.525  0.0868 -0.2496 -0.2786
  672TIP3    H226212   1.671   3.697  10.418  1.1301  0.2051 -1.0124
  673TIP3   OH226213   2.295   6.230   9.470 -0.5420 -0.7190 -0.2927
  673TIP3    H126214   2.386   6.235   9.498 -0.5022  3.3293 -0.5542
  673TIP3    H226215   2.299   6.199   9.380  0.6348 -0.4170 -0.3614
  674TIP3   OH226216   3.137   3.543  11.270  0.5507 -0.4351 -0.2041
  674TIP3    H126217   3.150   3.573  11.360  0.1118 -0.7180 -0.0423
  674TIP3    H226218   3.198   3.470  11.259  2.5796  1.2833 -1.0170
  675TIP3   OH226219   0.748   1.995  10.908  0.1734  0.5457 -0.3778
  675TIP3    H126220   0.841   2.015  10.897  0.6912 -0.8559  1.0367
  675TIP3    H226221   0.726   1.940  10.832  0.4876  0.8821 -0.7168
  676TIP3   OH226222   5.477   5.747  10.208 -0.0194  0.6381  0.2991
  676TIP3    H126223   5.499   5.695  10.131  0.4366  0.4670  0.5364
  676TIP3    H226224   5.386   5.726  10.226  0.5078 -1.1263  1.1644
  677TIP3   OH226225   4.223   5.058  12.479 -0.6167 -0.0269  0.1316
  677TIP3    H126226   4.250   5.035  12.389  1.3285  0.2667  0.5984
  677TIP3    H226227   4.137   5.017  12.489 -0.8674 -0.0945 -1.8503
  678TIP3   OH226228   3.139   4.754  11.912  0.3904  0.3538  0.5269
  678TIP3    H126229   3.222   4.793  11.886  0.0707  1.4191  1.0503
  678TIP3    H226230   3.150   4.734  12.005  0.2456 -0.0227  0.4663
  679TIP3   OH226231   0.401   3.901  10.428 -0.4452 -0.0442 -0.1935
  679TIP3    H126232   0.387   3.842  10.502 -0.5287  1.1369  0.7449
  679TIP3    H226233   0.398   3.989  10.465  2.0494  0.5416 -1.1360
  680TIP3   OH226234   6.511   5.474  10.171 -0.5985  0.7779  0.4629
  680TIP3    H126235   6.554   5.545  10.124  0.4316  0.0195  0.2143
  680TIP3    H226236   6.569   5.399  10.159 -0.6342  0.3948  2.4375
  681TIP3   OH226237   1.158   2.518  13.058 -0.4130  0.1887 -0.6757
  681TIP3    H126238   1.114   2.603  13.050 -0.0412  0.2743 -2.1240
  681TIP3    H226239   1.242   2.539  13.099 -1.1596  0.1959  0.9376
  682TIP3   OH226240   0.514   5.910  10.370  0.2732 -0.4077  0.1548
  682TIP3    H126241   0.428   5.876  10.396  1.0205 -0.9621  2.1030
  682TIP3    H226242   0.567   5.901  10.449  1.5951  1.7377 -0.4162
  683TIP3   OH226243   2.850   5.702  11.259 -0.6373 -0.1147 -0.0215
  683TIP3    H126244   2.822   5.695  11.167  1.0761 -1.2252 -0.5006
  683TIP3    H226245   2.775   5.669  11.309 -1.3477 -0.1201 -1.0539
  684TIP3   OH226246   1.852   5.422  10.654  0.5326  0.1355  0.0155
  684TIP3    H126247   1.767   5.436  10.611  0.1045 -3.2955 -0.5688
  684TIP3    H226248   1.915   5.421  10.582  0.4352 -1.2624 -0.0835
  685TIP3   OH226249   6.089   6.442  11.760 -0.1022 -0.2610  0.0222
  685TIP3    H126250   6.089   6.454  11.855  0.1139  3.0915 -0.2801
  685TIP3    H226251   5.998   6.457  11.734 -0.4179 -2.3405 -0.2861
  686TIP3   OH226252   6.568   6.633  12.414 -0.4032 -0.2728 -0.1751
  686TIP3    H126253   6.656   6.669  12.427 -0.0306 -1.1031 -0.3062
  686TIP3    H226254   6.583   6.550  12.368 -1.3223  0.0174 -1.0306
  687TIP3   OH226255   6.512   6.782  12.181  0.6567  0.5356  0.3291
  687TIP3    H126256   6.595   6.740  12.160  0.9357  0.5205  1.4193
  687TIP3    H226257   6.450   6.710  12.191  1.0688  0.3732  1.9062
  688TIP3   OH226258   0.960   0.428  10.534  0.4135 -0.0481  0.4324
  688TIP3    H126259   0.919   0.400  10.452  0.1861 -0.6643  0.7510
  688TIP3    H226260   1.008   0.508  10.511 -1.5073  1.0981  0.1713
  689TIP3   OH226261   2.456   5.482  12.257 -0.1263  0.4224 -0.0158
  689TIP3    H126262   2.435   5.575  12.273  0.2913  0.3517  1.0269
  689TIP3    H226263   2.422   5.465  12.170 -1.2631  1.2535  0.2362
  690TIP3   OH226264   4.078   4.208  10.270 -0.0569 -0.3203  0.2210
  690TIP3    H126265   4.147   4.268  10.298 -0.3411  0.0605  0.1314
  690TIP3    H226266   4.105   4.122  10.302 -0.0044 -0.0231  1.0066
  691TIP3   OH226267   3.728   3.779  10.690 -0.2595 -0.3613  0.2259
  691TIP3    H126268   3.694   3.746  10.607  1.2906 -0.3957 -0.4436
  691TIP3    H226269   3.683   3.728  10.757 -0.3127 -1.5386 -0.6730
  692TIP3   OH226270   5.353   0.169  12.200  0.1366  0.0920 -0.0634
  692TIP3    H126271   5.364   0.228  12.126  1.0031  1.2613  0.9518
  692TIP3    H226272   5.442   0.148  12.227 -0.1638 -0.1731  0.7426
  693TIP3   OH226273   2.314   6.299  13.138 -0.2810  0.2685 -0.4887
  693TIP3    H126274   2.395   6.316  13.187 -0.8277  1.0584  0.1850
  693TIP3    H226275   2.309   6.204  13.133 -0.9858  0.0365  2.4374
  694TIP3   OH226276   3.920   1.441  11.227 -0.4016 -0.2923  0.9287
  694TIP3    H126277   4.013   1.459  11.213 -0.3372 -0.3779  1.2414
  694TIP3    H226278   3.890   1.405  11.143 -0.4876  1.0490  0.3526
  695TIP3   OH226279   3.417   0.662  11.306  0.1753  0.6606 -0.0293
  695TIP3    H126280   3.509   0.663  11.279 -0.5735 -0.1787 -3.0284
  695TIP3    H226281   3.371   0.623  11.232 -2.4444 -0.4472  2.0192
  696TIP3   OH226282   0.508   0.540  11.516 -0.0401 -0.5451  0.2351
  696TIP3    H126283   0.578   0.583  11.467  1.2852 -1.1090  1.5642
  696TIP3    H226284   0.427   0.569  11.473  0.6920  3.4204  1.1352
  697TIP3   OH226285   1.130   5.752  12.950 -0.0520  0.3574  0.4002
  697TIP3    H126286   1.205   5.767  13.007  0.1923  0.2656  0.1023
  697TIP3    H226287   1.164   5.698  12.879 -0.4443  0.1518  0.3670
  698TIP3   OH226288   2.349   0.711  12.288 -0.1968  0.7377 -0.1113
  698TIP3    H126289   2.279   0.713  12.353 -0.0006  1.9697  0.0864
  698TIP3    H226290   2.428   0.688  12.338 -0.3013  0.2264 -0.1782
  699TIP3   OH226291   6.125   2.267  10.936  0.1137 -0.5160 -0.4664
  699TIP3    H126292   6.077   2.283  10.855  0.8849  1.7574 -0.5264
  699TIP3    H226293   6.125   2.351  10.982  0.3734 -1.5477  1.5426
  700TIP3   OH226294   2.777   1.990  11.671  0.4850  0.5807 -0.2202
  700TIP3    H126295   2.705   1.927  11.665 -0.8431  2.1087 -1.1923
  700TIP3    H226296   2.856   1.937  11.673 -0.5489 -1.1020 -1.7349
  701TIP3   OH226297   3.058   3.929  12.398 -0.6797  0.4639 -0.0609
  701TIP3    H126298   3.047   3.876  12.318  0.1213 -2.5508  1.6488
  701TIP3    H226299   3.153   3.935  12.409 -0.7815  1.3602  0.3881
  702TIP3   OH226300   0.951   1.540  11.913  0.1386 -0.1274 -0.0300
  702TIP3    H126301   0.900   1.547  11.993  0.1242 -0.2295 -0.0296
  702TIP3    H226302   0.891   1.570  11.844  0.4263  0.7675  0.0928
  703TIP3   OH226303   0.813   1.657  10.379 -0.2130  0.4101  0.3604
  703TIP3    H126304   0.852   1.744  10.367 -0.4434  0.3671 -0.8819
  703TIP3    H226305   0.731   1.661  10.329 -0.7277 -0.1947  1.1412
  704TIP3   OH226306   6.224   4.786  11.209 -0.3019  0.2596  0.2386
  704TIP3    H126307   6.244   4.764  11.300 -0.1463 -1.2392 -0.1351
  704TIP3    H226308   6.308   4.780  11.164 -0.2690  1.5878  0.0879
  705TIP3   OH226309   6.112   3.802  11.703 -0.6378 -0.5954 -0.2611
  705TIP3    H126310   6.035   3.754  11.673  0.4132 -2.7266  0.2845
  705TIP3    H226311   6.184   3.765  11.653 -0.0447  2.3011 -1.7657
  706TIP3   OH226312   0.986   6.524  12.574 -0.1899  0.0459 -0.0951
  706TIP3    H126313   1.060   6.497  12.628  0.8695  0.6740 -1.1721
  706TIP3    H226314   0.942   6.593  12.625  1.7963  1.8513 -0.6922
  707TIP3   OH226315   3.830   2.805  12.337  0.0935  0.5084  0.0057
  707TIP3    H126316   3.754   2.752  12.357  1.3750 -1.3461  0.2565
  707TIP3    H226317   3.827   2.816  12.242 -0.8013  0.9862  0.0830
  708TIP3   OH226318   5.900   4.040  11.368  0.4589 -0.5286 -0.2357
  708TIP3    H126319   5.869   3.958  11.407 -3.5767  1.3187  1.0371
  708TIP3    H226320   5.959   4.078  11.434  0.5139 -1.3616  0.2028
  709TIP3   OH226321   5.188   5.495  12.748  0.2242 -0.0971 -0.0916
  709TIP3    H126322   5.183   5.407  12.785 -1.1704  0.4096  1.0222
  709TIP3    H226323   5.253   5.540  12.802  0.1027 -0.1213  0.0760
  710TIP3   OH226324   2.238   0.308  13.161 -0.4794  0.6205 -0.0158
  710TIP3    H126325   2.333   0.304  13.168 -0.5778  0.3068  1.5601
  710TIP3    H226326   2.215   0.232  13.107  0.0410 -0.5172  1.3079
  711TIP3   OH226327   2.045   2.791  10.518  0.5164  0.0306 -0.2355
  711TIP3    H126328   2.042   2.885  10.539  2.5326 -0.0639  0.7155
  711TIP3    H226329   2.138   2.770  10.516  0.1136 -1.8872 -0.8549
  712TIP3   OH226330   3.795   5.762  11.122  0.2084 -0.5175 -0.4600
  712TIP3    H126331   3.874   5.708  11.123 -0.7920 -2.0364  0.7571
  712TIP3    H226332   3.753   5.741  11.039  0.6682 -0.2963 -0.7555
  713TIP3   OH226333   3.402   0.335  11.207 -0.1417  0.1681  0.5492
  713TIP3    H126334   3.330   0.280  11.240 -0.3825  0.8314  1.1527
  713TIP3    H226335   3.460   0.345  11.282  0.8780 -0.7911 -0.0675
  714TIP3   OH226336   3.944   1.453  12.963 -0.5346 -0.1213  0.1590
  714TIP3    H126337   3.968   1.529  13.016 -0.4366 -0.3343  0.4259
  714TIP3    H226338   3.868   1.482  12.912 -1.5417 -0.3496  1.4714
  715TIP3   OH226339   5.746   2.397  11.467 -0.6593 -0.1166  0.9052
  715TIP3    H126340   5.795   2.476  11.444 -0.3971 -0.2268  1.0771
  715TIP3    H226341   5.803   2.325  11.439 -1.1036 -0.2480  0.3051
  716TIP3   OH226342   1.008   3.850  11.432  0.4505 -0.0040 -0.5364
  716TIP3    H126343   1.049   3.798  11.502  0.7199  0.1236 -0.5978
  716TIP3    H226344   1.079   3.866  11.370  0.2073 -0.1241 -0.8458
  717TIP3   OH226345   0.146   6.295  11.179 -0.6280  1.0973  0.3436
  717TIP3    H126346   0.066   6.303  11.127 -0.3645  0.2855 -0.2206
  717TIP3    H226347   0.116   6.285  11.269 -1.1440  1.2673  0.1938
  718TIP3   OH226348   6.806   2.767  11.743  0.1799 -0.1589 -0.0518
  718TIP3    H126349   6.860   2.728  11.812 -1.2589 -0.4593  0.9341
  718TIP3    H226350   6.749   2.829  11.789 -1.0846 -0.6578 -0.8918
  719TIP3   OH226351   4.497   2.949  12.900  0.5061 -0.1388 -0.2654
  719TIP3    H126352   4.454   3.019  12.949  2.0359  0.4693  0.2778
  719TIP3    H226353   4.522   2.990  12.817 -0.4756 -0.6604 -0.8334
  720TIP3   OH226354   3.433   5.999  11.842 -0.3917  0.1018  0.0992
  720TIP3    H126355   3.352   6.039  11.811  0.1006  0.3801 -0.8774
  720TIP3    H226356   3.438   5.916  11.795  0.0956  0.2744 -0.1619
  721TIP3   OH226357   2.443   5.507  11.177  0.2944 -0.1999  0.3131
  721TIP3    H126358   2.413   5.501  11.087  1.2203  0.6716 -0.0726
  721TIP3    H226359   2.421   5.422  11.216  0.9526 -1.0391 -1.0706
  722TIP3   OH226360   2.234   6.816  13.468  0.0869 -0.4185 -0.2133
  722TIP3    H126361   2.180   6.790  13.394 -1.2312  0.9033  0.2144
  722TIP3    H226362   2.262   6.734  13.509  1.8969 -1.2320 -2.8146
  723TIP3   OH226363   2.762   0.043  12.224 -0.4090 -0.1813  0.1857
  723TIP3    H126364   2.701   0.057  12.152 -1.6957 -0.1228  1.2488
  723TIP3    H226365   2.709   0.055  12.303  0.9079 -0.4668  1.1452
  724TIP3   OH226366   6.638   0.774  10.840  0.1213  0.4605 -0.1386
  724TIP3    H126367   6.629   0.715  10.915 -1.4125 -0.4753 -1.0220
  724TIP3    H226368   6.549   0.806  10.824  0.7636  2.2584 -0.3141
  725TIP3   OH226369   2.330   4.471  11.840  0.2513 -0.1197  0.0733
  725TIP3    H126370   2.278   4.469  11.921  0.6599 -0.7742  0.3290
  725TIP3    H226371   2.418   4.495  11.869  0.5784 -1.1262 -0.0679
  726TIP3   OH226372   3.787   1.002  12.295 -0.0093  0.1009  0.0268
  726TIP3    H126373   3.773   1.096  12.297  0.4224  0.1654  0.1329
  726TIP3    H226374   3.700   0.965  12.276 -0.4729  0.4524  1.2997
  727TIP3   OH226375   1.159   2.058  11.396 -0.3973 -0.1246  0.0151
  727TIP3    H126376   1.080   2.104  11.426 -1.3278  0.3983 -2.9016
  727TIP3    H226377   1.206   2.123  11.345  0.9796 -0.9928  0.1417
  728TIP3   OH226378   5.722   0.705  11.171  0.0885 -0.2434 -0.0625
  728TIP3    H126379   5.681   0.711  11.257 -0.2834  0.8173 -0.3048
  728TIP3    H226380   5.814   0.727  11.187  0.1986 -0.8582  0.1866
  729TIP3   OH226381   5.803   1.485  10.289  0.2019  0.8674 -0.2527
  729TIP3    H126382   5.739   1.541  10.245  0.1557 -0.2029 -1.6272
  729TIP3    H226383   5.882   1.493  10.235  1.0748  1.7189  1.0986
  730TIP3   OH226384   2.332   3.062  10.891  0.0696  0.0398 -0.3756
  730TIP3    H126385   2.418   3.040  10.925  0.6588  0.1277 -1.7508
  730TIP3    H226386   2.271   3.017  10.950  1.0985 -1.3263 -0.2942
  731TIP3   OH226387   5.491   2.285  11.929  0.0368  0.2608  0.2038
  731TIP3    H126388   5.544   2.321  11.858 -0.9754  1.2193 -0.0936
  731TIP3    H226389   5.553   2.267  11.999  0.7934  1.1019 -0.2325
  732TIP3   OH226390   0.320   6.094  10.619  0.5546  0.0487 -0.1888
  732TIP3    H126391   0.386   6.027  10.599 -0.3359 -0.8695 -0.1560
  732TIP3    H226392   0.284   6.119  10.533 -0.9156 -1.4448 -0.0764
  733TIP3   OH226393   5.797   4.394  11.733  0.2276 -0.8032  0.0114
  733TIP3    H126394   5.882   4.410  11.773  1.1373 -1.2983 -1.6256
  733TIP3    H226395   5.792   4.457  11.662 -0.0625 -1.8127 -0.8862
  734TIP3   OH226396   0.082   5.873  12.702 -0.6707  0.2049 -0.0367
  734TIP3    H126397   0.135   5.944  12.738 -0.8038 -0.0766  0.7265
  734TIP3    H226398   0.068   5.897  12.610 -1.1104  1.3959  0.3292
  735TIP3   OH226399   2.846   5.799  11.657 -0.7329 -0.4281 -0.6922
  735TIP3    H126400   2.767   5.786  11.604 -1.2750  0.8543 -0.2222
  735TIP3    H226401   2.843   5.728  11.721 -2.0727  0.2059 -0.0180
  736TIP3   OH226402   1.236   0.519  12.649  0.3154 -0.6678 -0.2375
  736TIP3    H126403   1.315   0.572  12.641 -0.3784  0.5047  0.2843
  736TIP3    H226404   1.176   0.574  12.701 -1.1060 -1.1893 -1.2674
  737TIP3   OH226405   4.892   2.081  12.733 -0.0943 -0.8057  0.0362
  737TIP3    H126406   4.800   2.095  12.712 -0.2555  0.3070  1.3286
  737TIP3    H226407   4.926   2.168  12.755  1.5793 -1.0141 -1.5045
  738TIP3   OH226408   4.610   2.788  10.682  0.3531 -0.0024  0.7006
  738TIP3    H126409   4.662   2.802  10.604 -0.9190 -0.6734 -0.3038
  738TIP3    H226410   4.665   2.820  10.754  2.1298 -0.7064 -0.2931
  739TIP3   OH226411   5.504   5.741  11.560  0.0041 -1.0247 -0.3180
  739TIP3    H126412   5.410   5.753  11.548  0.0616  1.5108  0.9873
  739TIP3    H226413   5.538   5.725  11.472 -1.6281 -2.0236 -0.8009
  740TIP3   OH226414   6.572   6.262  12.641  0.1085 -0.0154 -0.1145
  740TIP3    H126415   6.633   6.219  12.699 -0.3677 -0.9856 -0.3068
  740TIP3    H226416   6.509   6.305  12.699 -1.4209 -2.4550  0.2009
  741TIP3   OH226417   0.555   4.265  12.008 -0.0549 -0.0186 -0.0261
  741TIP3    H126418   0.484   4.237  11.951 -0.3164  1.1704 -0.3250
  741TIP3    H226419   0.514   4.331  12.065  0.6396  0.1356  0.2976
  742TIP3   OH226420   2.479   6.037  11.978  0.3598 -0.1105 -0.3293
  742TIP3    H126421   2.425   5.964  11.946 -3.5904  2.2220  0.3891
  742TIP3    H226422   2.429   6.073  12.051  2.5665  2.7972 -0.1076
  743TIP3   OH226423   5.827   5.735  12.374 -0.0679  0.3758  0.2309
  743TIP3    H126424   5.796   5.807  12.428 -0.7987 -0.1364  0.4978
  743TIP3    H226425   5.768   5.734  12.298  0.5511  0.6796 -0.2659
  744TIP3   OH226426   5.622   6.293  10.577 -0.1441 -0.2559 -0.2344
  744TIP3    H126427   5.642   6.203  10.599  1.5333  0.4875  1.5708
  744TIP3    H226428   5.708   6.336  10.568 -0.8905  1.2167 -0.8455
  745TIP3   OH226429   5.448   4.632  11.181 -0.0760  0.6314  0.1552
  745TIP3    H126430   5.459   4.635  11.276  0.0935  1.8328  0.1154
  745TIP3    H226431   5.358   4.600  11.169 -0.2605  0.9055  0.7398
  746TIP3   OH226432   1.848   5.983  13.105  0.3583  0.0273  0.1837
  746TIP3    H126433   1.917   6.016  13.163 -0.3909 -0.4211  1.3780
  746TIP3    H226434   1.817   6.061  13.058  3.2944 -0.1210 -2.2519
  747TIP3   OH226435   3.368   5.514  10.452 -0.2361 -0.4626 -0.1387
  747TIP3    H126436   3.354   5.425  10.420  0.4091 -0.5122 -0.2871
  747TIP3    H226437   3.408   5.560  10.379  1.1847 -0.5578  0.5368
  748TIP3   OH226438   0.741   1.919  10.306  0.0918 -0.1183 -0.1336
  748TIP3    H126439   0.677   1.850  10.286 -1.9631  1.5565  0.2688
  748TIP3    H226440   0.763   1.957  10.221  0.9628 -1.0218 -0.3231
  749TIP3   OH226441   3.779   0.144  13.035  0.3049  0.1221 -0.5255
  749TIP3    H126442   3.779   0.164  12.942  0.0952  1.1721 -0.3116
  749TIP3    H226443   3.865   0.105  13.051 -0.2395 -1.5499 -1.4364
  750TIP3   OH226444   5.116   2.695  11.648  0.5097 -0.6676  0.1340
  750TIP3    H126445   5.157   2.662  11.569 -0.3369 -0.3306 -0.4600
  750TIP3    H226446   5.172   2.767  11.676  0.6824 -0.6368 -0.2887
  751TIP3   OH226447   3.249   0.855  12.255  0.0384 -0.0999  0.1892
  751TIP3    H126448   3.266   0.870  12.162 -0.1353  1.4324  0.3721
  751TIP3    H226449   3.167   0.902  12.272  0.2151 -0.1232  1.1644
  752TIP3   OH226450   2.359   3.509  11.524  0.2931 -0.2223  0.2211
  752TIP3    H126451   2.394   3.583  11.575  0.6255 -0.3058  0.1194
  752TIP3    H226452   2.383   3.432  11.574 -1.2793 -0.1953  1.0429
  753TIP3   OH226453   5.862   5.739  12.780  0.1414 -0.2448 -0.4428
  753TIP3    H126454   5.867   5.669  12.715  0.2764 -1.1800  0.5449
  753TIP3    H226455   5.951   5.775  12.784  0.0829 -0.0421 -0.9152
  754TIP3   OH226456   3.399   5.273  11.752 -0.1740  0.0459 -0.2019
  754TIP3    H126457   3.344   5.334  11.801 -1.3850 -0.1457 -1.2474
  754TIP3    H226458   3.368   5.280  11.662 -0.6861 -2.4005 -0.3043
  755TIP3   OH226459   4.091   4.518  12.844 -0.0707  0.2018  0.7025
  755TIP3    H126460   4.036   4.516  12.922 -1.5164 -0.5640 -0.2893
  755TIP3    H226461   4.177   4.491  12.874 -0.7432 -0.6771  1.9271
  756TIP3   OH226462   1.623   3.946  10.233 -0.1012  0.1715 -0.2599
  756TIP3    H126463   1.554   3.889  10.199 -0.0800 -0.9100  1.3992
  756TIP3    H226464   1.655   3.901  10.312  1.1434  1.6197  0.1116
  757TIP3   OH226465   2.541   5.761  11.236 -0.3711 -0.1697 -0.3195
  757TIP3    H126466   2.497   5.682  11.206 -0.7511 -0.0835  0.0021
  757TIP3    H226467   2.512   5.829  11.176  0.3103 -0.3526 -0.8778
  758TIP3   OH226468   2.347   0.729  11.061 -0.7009  0.3474  0.4331
  758TIP3    H126469   2.419   0.719  11.123 -1.1592 -0.1378  0.8907
  758TIP3    H226470   2.386   0.708  10.976 -0.4284 -0.4578  0.7469
  759TIP3   OH226471   0.653   1.266  10.434  0.0199  0.4244 -0.2269
  759TIP3    H126472   0.613   1.253  10.348  1.9325 -1.2805 -0.9280
  759TIP3    H226473   0.619   1.195  10.488  0.4387  0.2580 -0.1837
  760TIP3   OH226474   3.454   6.324  10.668  0.5974 -0.7025  0.4278
  760TIP3    H126475   3.397   6.298  10.596  1.0432  0.5601 -0.4192
  760TIP3    H226476   3.542   6.320  10.631  0.8388 -0.1190  0.9196
  761TIP3   OH226477   3.293   0.866  10.744 -0.0274 -0.4124 -0.3928
  761TIP3    H126478   3.363   0.930  10.758  0.2623 -1.2009  2.1945
  761TIP3    H226479   3.252   0.855  10.830 -2.2158 -1.2795 -1.4723
  762TIP3   OH226480   1.900   4.600  11.641 -0.5233  0.4002  0.0202
  762TIP3    H126481   1.886   4.555  11.725  1.5195  1.2007  0.8517
  762TIP3    H226482   1.982   4.648  11.653  0.6779 -0.6894 -2.9664
  763TIP3   OH226483   6.663   1.530  10.965  0.3245 -0.2688 -0.0469
  763TIP3    H126484   6.616   1.558  10.886 -0.2760  0.7338  0.6397
  763TIP3    H226485   6.718   1.605  10.987 -2.8333  1.4173  3.0167
  764TIP3   OH226486   1.294   0.445  11.951 -0.4371  0.0602  0.1323
  764TIP3    H126487   1.378   0.458  11.995 -1.4133 -0.4818  2.2706
  764TIP3    H226488   1.234   0.504  11.996 -1.2451  0.4741 -1.4019
  765TIP3   OH226489   5.211   6.574  10.464 -0.1103  0.5210  0.1331
  765TIP3    H126490   5.215   6.479  10.450 -0.6726  0.7137 -1.6315
  765TIP3    H226491   5.155   6.606  10.393 -0.0282  2.1703  0.7688
  766TIP3   OH226492   1.629   0.135  10.728  0.0190  0.0008  0.2163
  766TIP3    H126493   1.623   0.153  10.634  0.5750  0.4209  0.2608
  766TIP3    H226494   1.581   0.053  10.739  1.3201 -0.9243 -0.6949
  767TIP3   OH226495   5.708   3.439   9.940  0.3998  0.7318 -0.3254
  767TIP3    H126496   5.767   3.471  10.009 -0.6554  0.4847  0.7331
  767TIP3    H226497   5.706   3.344   9.952  1.0166  0.5674 -1.3931
  768TIP3   OH226498   1.812   1.996   9.880  0.4156  0.0866 -0.0631
  768TIP3    H126499   1.739   1.949   9.841  0.1720 -1.2194  1.8297
  768TIP3    H226500   1.885   1.934   9.879  0.6611  0.3479  0.6719
  769TIP3   OH226501   0.316   4.111  12.198  0.1004  0.3415 -0.3960
  769TIP3    H126502   0.371   4.139  12.270  0.9607  0.4518 -1.0827
  769TIP3    H226503   0.242   4.172  12.199 -0.0244  0.1911  0.5263
  770TIP3   OH226504   1.990   0.826  11.650 -0.7444  0.1823 -0.4116
  770TIP3    H126505   2.026   0.880  11.580 -3.9232  2.7317 -0.2937
  770TIP3    H226506   2.057   0.827  11.718  1.8902 -1.3340 -2.7683
  771TIP3   OH226507   2.953   1.552  10.546 -0.2870  0.0088 -0.3244
  771TIP3    H126508   2.932   1.583  10.458 -1.9411  0.0605  0.0508
  771TIP3    H226509   2.947   1.630  10.601 -0.6151 -0.2574  0.0297
  772TIP3   OH226510   5.714   4.589  10.853 -0.1857 -0.5501 -0.1965
  772TIP3    H126511   5.802   4.556  10.840 -0.3611 -1.8609  1.4865
  772TIP3    H226512   5.660   4.510  10.861 -1.1742  0.1796  0.6736
  773TIP3   OH226513   5.629   4.543  11.412  0.3335  0.2178  0.2774
  773TIP3    H126514   5.562   4.524  11.478  0.4532 -0.0206  0.3295
  773TIP3    H226515   5.700   4.481  11.431 -0.2745 -0.9217 -1.0431
  774TIP3   OH226516   5.121   0.418  11.010 -0.2352  0.3012  0.8044
  774TIP3    H126517   5.130   0.499  10.961 -0.6710  0.1454  0.4669
  774TIP3    H226518   5.031   0.419  11.043 -1.3576 -1.5055 -1.8515
  775TIP3   OH226519   3.827   2.973  12.590 -0.3994  0.1852  0.2532
  775TIP3    H126520   3.837   2.924  12.509  0.1039  0.5712  0.0716
  775TIP3    H226521   3.739   3.010  12.586 -0.2013  0.5976 -0.3439
  776TIP3   OH226522   6.069   0.423  10.044 -0.0265  0.3338  0.2708
  776TIP3    H126523   6.053   0.470   9.962  1.3537 -0.8679 -0.7244
  776TIP3    H226524   6.054   0.489  10.112 -1.2362  1.3424 -0.9150
  777TIP3   OH226525   0.182   3.723  12.428 -0.0601 -0.5965  0.0815
  777TIP3    H126526   0.263   3.765  12.455 -0.6292  0.4142  0.2774
  777TIP3    H226527   0.208   3.661  12.360  0.9942 -1.0233  0.8531
  778TIP3   OH226528   3.578   1.825  11.002  0.6139 -0.5270 -0.1500
  778TIP3    H126529   3.583   1.875  11.084  0.6854 -2.8794  1.3813
  778TIP3    H226530   3.668   1.794  10.988  0.3082 -1.3540 -0.2986
  779TIP3   OH226531   4.404   2.648  11.568 -0.1810 -0.1942 -0.1711
  779TIP3    H126532   4.404   2.603  11.653 -0.2894 -0.5227 -0.3451
  779TIP3    H226533   4.467   2.719  11.579 -1.3704  0.7854  0.7244
  780TIP3   OH226534   3.000   2.038  12.363  0.1408 -0.0045  0.3007
  780TIP3    H126535   3.040   1.962  12.322  1.2118  1.3316 -1.2820
  780TIP3    H226536   3.041   2.113  12.319 -2.2999  1.4803  0.3573
  781TIP3   OH226537   3.052   4.297  10.126 -0.2974 -0.9668  0.4632
  781TIP3    H126538   3.086   4.243  10.198  2.0828  0.5117  0.5594
  781TIP3    H226539   3.124   4.302  10.063 -1.3622  0.0207 -0.7334
  782TIP3   OH226540   1.419   3.264  11.226  0.2256  0.5495 -0.6526
  782TIP3    H126541   1.489   3.318  11.261  0.0316  0.3116  0.1169
  782TIP3    H226542   1.339   3.299  11.266  0.0181  0.1701 -0.7278
  783TIP3   OH226543   6.604   4.585  13.029  0.2335 -0.3472  0.0528
  783TIP3    H126544   6.667   4.652  13.003 -0.0855 -0.6923 -1.7260
  783TIP3    H226545   6.610   4.582  13.124  1.7262  0.7556  0.0218
  784TIP3   OH226546   5.830   0.159  11.764 -0.6381 -0.8228 -0.2485
  784TIP3    H126547   5.906   0.216  11.767 -0.0934 -1.4211 -1.7070
  784TIP3    H226548   5.862   0.077  11.726 -2.0404 -1.0130 -1.1319
  785TIP3   OH226549   4.247   1.315  10.711 -0.4938 -0.3784  0.2690
  785TIP3    H126550   4.233   1.384  10.647 -0.0299  0.7109  1.3060
  785TIP3    H226551   4.334   1.281  10.693 -0.6060 -0.4994 -0.0524
  786TIP3   OH226552   1.737   2.669  12.160  0.2946 -0.4572  0.0449
  786TIP3    H126553   1.693   2.596  12.116 -1.7713  1.6662 -1.6099
  786TIP3    H226554   1.669   2.710  12.213  1.6364 -0.1582  1.6441
  787TIP3   OH226555   4.568   2.200  10.122 -0.6513 -0.2404 -0.1134
  787TIP3    H126556   4.638   2.174  10.182 -0.9402 -2.2581 -0.5773
  787TIP3    H226557   4.542   2.119  10.078 -1.2727  0.9659 -2.1059
  788TIP3   OH226558   4.078   3.414  11.715 -0.5771  0.6468  0.2654
  788TIP3    H126559   3.993   3.375  11.735 -0.0426 -1.1068 -0.6587
  788TIP3    H226560   4.064   3.461  11.633 -0.4174 -0.6328 -0.5218
  789TIP3   OH226561   2.843   3.411  12.983  0.5303 -0.2656  0.2614
  789TIP3    H126562   2.766   3.377  13.028 -0.3722  0.5716 -0.5946
  789TIP3    H226563   2.917   3.372  13.028 -0.3802 -0.5094  1.5859
  790TIP3   OH226564   0.131   2.353  12.170  0.1391  0.1261  0.2424
  790TIP3    H126565   0.077   2.351  12.091  0.6284 -1.3535 -0.0760
  790TIP3    H226566   0.080   2.406  12.231  0.0059  1.7607 -1.2180
  791TIP3   OH226567   0.787   1.719  12.861 -0.5572 -0.7377 -0.1299
  791TIP3    H126568   0.829   1.751  12.940  0.1546 -2.0059  0.0440
  791TIP3    H226569   0.702   1.761  12.859 -0.0476  0.3462  0.5851
  792TIP3   OH226570   2.200   0.488  11.120 -0.6845  0.3394  0.7328
  792TIP3    H126571   2.222   0.581  11.118 -1.6593  0.5671  0.5544
  792TIP3    H226572   2.236   0.454  11.038 -1.9573  0.9383 -0.0990
  793TIP3   OH226573   2.919   3.641  10.847  0.0605 -0.1437 -0.4282
  793TIP3    H126574   2.918   3.545  10.854 -0.4223 -0.0871  0.5131
  793TIP3    H226575   2.916   3.658  10.753 -0.2920 -1.0508 -0.5966
  794TIP3   OH226576   0.412   4.893  11.707 -0.1305 -0.2462  0.2208
  794TIP3    H126577   0.404   4.988  11.718 -0.0961 -0.0394 -1.3333
  794TIP3    H226578   0.466   4.865  11.781  1.8042  1.2838 -0.5219
  795TIP3   OH226579   1.153   6.641  10.766 -0.0912 -0.5402 -0.6746
  795TIP3    H126580   1.228   6.628  10.708  0.2047  2.9863 -1.3038
  795TIP3    H226581   1.091   6.692  10.715 -1.3103 -0.1997  1.0414
  796TIP3   OH226582   4.621   4.525  11.128  0.5365  0.2384  0.4296
  796TIP3    H126583   4.695   4.521  11.067 -0.7978 -0.6016 -1.2106
  796TIP3    H226584   4.589   4.435  11.132 -0.4305  0.6036  1.0662
  797TIP3   OH226585   1.638   3.039  10.597  0.6102  0.2913  0.1158
  797TIP3    H126586   1.586   2.977  10.546  0.9777  0.9900 -1.1618
  797TIP3    H226587   1.663   2.990  10.676 -1.9473 -0.0561  0.7899
  798TIP3   OH226588   2.088   4.080  12.198  0.0664 -0.0878  0.3455
  798TIP3    H126589   2.002   4.116  12.177 -1.5168 -3.2733  0.8195
  798TIP3    H226590   2.131   4.071  12.113 -1.5450 -1.7547 -0.3555
  799TIP3   OH226591   3.511   0.392  12.775 -0.2116 -0.0059 -0.5649
  799TIP3    H126592   3.531   0.445  12.853 -0.5052 -0.4417 -0.1851
  799TIP3    H226593   3.459   0.319  12.809  0.3534 -0.6423 -1.0529
  800TIP3   OH226594   5.298   1.707  12.669  0.0329 -0.0168 -0.4807
  800TIP3    H126595   5.270   1.687  12.580 -0.4075 -1.2615 -0.0900
  800TIP3    H226596   5.218   1.737  12.713  0.3661  1.1350 -0.6423
  801TIP3   OH226597   2.147   5.142  13.023 -0.2200 -0.4281  0.4562
  801TIP3    H126598   2.086   5.163  13.094 -0.7033  0.0299 -0.0815
  801TIP3    H226599   2.103   5.073  12.973  0.0208 -0.5977  0.4777
  802TIP3   OH226600   0.466   3.821  12.995 -0.0914  0.6784 -0.5397
  802TIP3    H126601   0.523   3.813  12.918 -1.0279  0.7193 -1.2612
  802TIP3    H226602   0.503   3.894  13.045  0.5352  0.6465 -0.9438
  803TIP3   OH226603   1.420   4.783  12.953 -0.1754 -0.2132  0.4114
  803TIP3    H126604   1.479   4.750  13.020  0.3037  0.6248  0.4207
  803TIP3    H226605   1.383   4.863  12.992 -0.3312 -0.0366 -0.0913
  804TIP3   OH226606   4.586   1.914  12.525 -0.0530 -0.3717 -0.1876
  804TIP3    H126607   4.649   1.946  12.460  1.9942 -1.6625  1.0792
  804TIP3    H226608   4.600   1.970  12.601  0.5848 -1.5582  0.5867
  805TIP3   OH226609   1.409   4.660  10.696  0.1504  0.4374  0.1124
  805TIP3    H126610   1.336   4.680  10.638 -1.2465  0.2315  1.7198
  805TIP3    H226611   1.423   4.741  10.745 -0.1433 -0.0221  0.9793
  806TIP3   OH226612   5.671   2.251  12.972 -0.1700 -0.5116  0.2808
  806TIP3    H126613   5.679   2.300  12.890  1.0130  2.3825  1.9768
  806TIP3    H226614   5.759   2.215  12.987 -0.4881 -1.3737  0.0817
  807TIP3   OH226615   3.582   4.066  12.104  0.2244 -0.4007  0.2501
  807TIP3    H126616   3.636   3.991  12.126 -1.5009 -1.6153  0.5469
  807TIP3    H226617   3.492   4.037  12.119 -0.5047  1.7652  0.4939
  808TIP3   OH226618   2.605   1.650  10.569 -0.3617 -0.3082 -0.0059
  808TIP3    H126619   2.533   1.594  10.598 -0.0986 -0.0540  1.1711
  808TIP3    H226620   2.598   1.729  10.623  1.1849 -0.5562  0.6070
  809TIP3   OH226621   5.145   0.064  11.199  0.2335 -0.1556 -1.0394
  809TIP3    H126622   5.050   0.056  11.208  0.2715 -0.8661 -1.2760
  809TIP3    H226623   5.177   0.059  11.289 -0.0361  1.3747 -0.8263
  810TIP3   OH226624   0.429   3.963  10.997  0.1082 -0.4933 -0.1291
  810TIP3    H126625   0.456   4.041  11.044  0.7374 -0.5630 -0.3608
  810TIP3    H226626   0.494   3.896  11.022  0.4710 -0.5229 -1.1007
  811TIP3   OH226627   0.688   5.348  11.344 -0.2534 -0.0906 -0.0135
  811TIP3    H126628   0.698   5.266  11.295 -1.5156  0.1556 -0.7193
  811TIP3    H226629   0.756   5.405  11.309 -0.4560 -0.2765 -0.7187
  812TIP3   OH226630   1.118   3.874  12.516  0.4559  0.2433 -0.0291
  812TIP3    H126631   1.179   3.807  12.547 -0.4227  0.0439  1.3198
  812TIP3    H226632   1.032   3.833  12.523 -0.0880  1.4990  0.7887
  813TIP3   OH226633   0.910   3.324  12.495 -0.4175  0.3061 -0.3730
  813TIP3    H126634   0.992   3.366  12.469  0.1496  1.6309  3.0363
  813TIP3    H226635   0.927   3.230  12.488  0.5347  0.5626 -1.8977
  814TIP3   OH226636   5.122   4.553  11.575  0.6269 -0.2641 -0.8852
  814TIP3    H126637   5.192   4.556  11.641  2.3122  0.9992 -2.5970
  814TIP3    H226638   5.105   4.460  11.562  1.4845 -0.5829  0.1129
  815TIP3   OH226639   2.337   0.516  10.434  0.2860 -0.7888 -0.5764
  815TIP3    H126640   2.381   0.600  10.423 -0.3528  0.2066  3.0806
  815TIP3    H226641   2.408   0.453  10.446  0.9049  0.2627  2.0936
  816TIP3   OH226642   0.929   1.236  12.225 -0.0559 -0.4222 -0.0263
  816TIP3    H126643   0.902   1.179  12.297 -0.8339  1.2071  1.0405
  816TIP3    H226644   0.847   1.275  12.193  0.4880  0.4637 -0.3865
  817TIP3   OH226645   1.799   6.452  10.863  0.2238 -0.7064 -0.5035
  817TIP3    H126646   1.795   6.365  10.823 -0.4906 -1.2408  0.6937
  817TIP3    H226647   1.709   6.473  10.886  0.7344 -1.0755  2.1406
  818TIP3   OH226648   3.829   1.851  13.236  0.0935  0.3392 -0.3899
  818TIP3    H126649   3.839   1.905  13.158  0.3199 -0.0956 -0.6643
  818TIP3    H226650   3.750   1.885  13.278  0.0953  0.7220 -0.6879
  819TIP3   OH226651   6.366   5.760  10.778 -0.3575 -0.3874  0.2150
  819TIP3    H126652   6.294   5.738  10.836 -1.6076 -1.1039 -1.5389
  819TIP3    H226653   6.401   5.676  10.749 -0.1683 -0.0595 -0.5474
  820TIP3   OH226654   4.965   6.353  12.105 -0.1345  0.3492  0.8163
  820TIP3    H126655   4.869   6.359  12.105 -0.5040 -3.0325 -0.5422
  820TIP3    H226656   4.994   6.438  12.073 -2.7595  1.0742  0.0852
  821TIP3   OH226657   1.100   2.960  12.708 -0.6410  0.1722  0.3775
  821TIP3    H126658   1.051   2.880  12.729  0.0610 -0.3177  0.2022
  821TIP3    H226659   1.189   2.941  12.736 -0.1592  0.3552 -0.9487
  822TIP3   OH226660   5.921   5.133  12.077 -0.2976  0.3505 -0.0388
  822TIP3    H126661   5.929   5.140  11.982 -1.2255  0.5714 -0.1068
  822TIP3    H226662   5.847   5.189  12.099 -3.9098 -3.8814  0.1558
  823TIP3   OH226663   3.875   4.025  11.652  0.4937 -0.2584 -0.1818
  823TIP3    H126664   3.922   4.108  11.644 -1.9249  1.5178  2.2207
  823TIP3    H226665   3.794   4.039  11.602  0.5133 -1.6005 -0.6235
  824TIP3   OH226666   3.583   3.895   9.666  0.0697 -0.2733 -0.4180
  824TIP3    H126667   3.571   3.857   9.578 -3.1980 -0.2212 -0.1084
  824TIP3    H226668   3.565   3.988   9.654 -0.8433 -0.3394  0.3480
  825TIP3   OH226669   4.431   3.788  11.612  0.2203 -0.0073  0.2199
  825TIP3    H126670   4.340   3.805  11.635  0.4022  0.0507  0.9157
  825TIP3    H226671   4.480   3.859  11.654  0.6161 -0.2134  0.1112
  826TIP3   OH226672   3.414   5.496  12.736 -0.4076 -0.3506 -0.2974
  826TIP3    H126673   3.365   5.571  12.769  0.5857  0.4514 -0.6079
  826TIP3    H226674   3.405   5.502  12.641  1.9260  1.0076 -0.5069
  827TIP3   OH226675   3.172   4.988  10.566 -0.6310 -0.8483 -0.8132
  827TIP3    H126676   3.088   4.943  10.554  0.0487 -2.4827  0.2232
  827TIP3    H226677   3.152   5.080  10.550 -2.9806 -0.9755  0.8846
  828TIP3   OH226678   4.355   2.515  11.829  0.1687 -0.8925  0.5457
  828TIP3    H126679   4.415   2.531  11.902  2.1688  1.0100 -1.3715
  828TIP3    H226680   4.374   2.425  11.802  1.5557 -0.6317  0.5629
  829TIP3   OH226681   5.105   4.208  10.543 -0.0530  0.2982  0.0251
  829TIP3    H126682   5.192   4.242  10.564 -0.0920 -0.1941  1.0172
  829TIP3    H226683   5.121   4.118  10.516 -0.1990  0.3788 -0.3345
  830TIP3   OH226684   3.358   1.695  10.585  0.1617  0.4483 -0.0010
  830TIP3    H126685   3.278   1.743  10.562 -1.0412 -1.1749  0.6127
  830TIP3    H226686   3.345   1.671  10.677  1.7739  0.9197  0.3763
  831TIP3   OH226687   0.294   6.811  13.261  0.0351 -0.4784  0.3884
  831TIP3    H126688   0.329   6.899  13.278 -0.4019 -0.4200  0.9863
  831TIP3    H226689   0.347   6.779  13.187  0.4667  0.1261  0.4241
  832TIP3   OH226690   6.328   2.984  10.699  0.0363  0.3811  0.2651
  832TIP3    H126691   6.389   3.016  10.632 -0.3193  1.2539  0.3395
  832TIP3    H226692   6.249   2.960  10.651 -0.7352  2.3056  0.4554
  833TIP3   OH226693   3.258   6.159  12.549  0.0370 -0.2301  0.1387
  833TIP3    H126694   3.165   6.175  12.537  0.1611 -0.0047 -0.6477
  833TIP3    H226695   3.269   6.142  12.642 -0.9281 -1.1960  0.0931
  834TIP3   OH226696   3.055   1.116  11.921 -0.1306 -0.6449  0.4986
  834TIP3    H126697   3.136   1.166  11.934  0.2064 -0.5767 -1.5996
  834TIP3    H226698   3.022   1.144  11.836 -2.0732 -1.1176  1.0437
  835TIP3   OH226699   3.403   4.312   9.860  0.8535 -0.0584 -0.1502
  835TIP3    H126700   3.440   4.278   9.941  1.8985 -0.7888 -0.9059
  835TIP3    H226701   3.444   4.260   9.791  1.1315  1.5222 -1.2412
  836TIP3   OH226702   4.146   6.434  11.818 -0.4698 -0.1258  0.3182
  836TIP3    H126703   4.148   6.404  11.909  0.8068 -0.4780  0.1970
  836TIP3    H226704   4.086   6.509  11.819 -2.2172 -1.4495  1.0026
  837TIP3   OH226705   1.747   6.616  11.758 -0.0336 -0.8094 -0.0733
  837TIP3    H126706   1.760   6.555  11.686  0.1153 -0.4442 -0.3605
  837TIP3    H226707   1.662   6.656  11.739  1.5029  1.8515 -1.9992
  838TIP3   OH226708   6.475   2.845  12.503  0.4394 -0.0247 -0.1106
  838TIP3    H126709   6.555   2.884  12.467  0.3668  0.5189  0.3022
  838TIP3    H226710   6.484   2.854  12.598  0.5109 -1.2160  0.0132
  839TIP3   OH226711   2.709   6.827  11.406 -0.1825 -0.0762 -0.1943
  839TIP3    H126712   2.670   6.892  11.465  1.2793  0.6303  0.0463
  839TIP3    H226713   2.639   6.805  11.345 -1.5952 -0.4792  1.4963
  840TIP3   OH226714   2.399   1.014  10.010  0.4638  0.1170 -0.4362
  840TIP3    H126715   2.400   0.921   9.987  1.4778  0.1524 -0.5391
  840TIP3    H226716   2.420   1.059   9.928 -0.6799  0.4886 -0.5523
  841TIP3   OH226717   5.612   6.816  10.669 -0.6452  0.3214 -0.4246
  841TIP3    H126718   5.573   6.774  10.593 -1.7763  1.3437 -0.4279
  841TIP3    H226719   5.582   6.764  10.744  0.4005 -0.6335 -0.6458
  842TIP3   OH226720   1.960   1.612  10.467 -0.3679  0.5170 -0.8323
  842TIP3    H126721   1.957   1.702  10.499 -2.3781  0.2411 -0.1557
  842TIP3    H226722   1.902   1.612  10.391  0.0205 -0.1063 -1.1325
  843TIP3   OH226723   5.259   3.349  12.115 -0.0009 -0.1633  0.5672
  843TIP3    H126724   5.213   3.265  12.108 -0.4629  0.0902  0.4832
  843TIP3    H226725   5.333   3.341  12.056 -1.3130  0.2996 -1.2453
  844TIP3   OH226726   3.994   1.601  12.341  0.8003  0.4003 -0.2196
  844TIP3    H126727   4.064   1.647  12.294  1.1148 -0.8804 -1.0608
  844TIP3    H226728   3.921   1.599  12.279  1.0141 -0.7726 -0.4547
  845TIP3   OH226729   4.022   3.883  12.069  0.1035  0.2426  0.0462
  845TIP3    H126730   4.083   3.939  12.021 -0.5572  0.3044 -0.7280
  845TIP3    H226731   4.077   3.840  12.135  1.2795 -0.8664 -1.5960
  846TIP3   OH226732   3.402   1.230  11.277 -0.2890  0.0870  0.1187
  846TIP3    H126733   3.461   1.155  11.274  0.7075  0.8714 -1.6769
  846TIP3    H226734   3.382   1.249  11.186 -1.4491  1.3122  0.5844
  847TIP3   OH226735   0.677   5.205  11.099  0.1978 -0.4172 -0.5764
  847TIP3    H126736   0.725   5.180  11.020 -0.6185 -0.4935 -1.0498
  847TIP3    H226737   0.661   5.299  11.089  0.0347 -0.4398 -0.5249
  848TIP3   OH226738   2.445   4.538   9.927 -0.0075 -0.1985  0.0608
  848TIP3    H126739   2.517   4.521   9.866 -0.9856 -0.0827 -1.1715
  848TIP3    H226740   2.458   4.629   9.954 -0.2033  0.1226 -0.8841
  849TIP3   OH226741   3.981   4.193  12.824 -0.3298  0.1619  0.0582
  849TIP3    H126742   3.955   4.281  12.797  0.1895 -0.1069 -1.4172
  849TIP3    H226743   3.932   4.135  12.766  2.1104 -0.3963 -1.6065
  850TIP3   OH226744   2.814   4.594  12.240  0.2391  0.1846  0.3086
  850TIP3    H126745   2.826   4.606  12.145  0.8201 -0.9692  0.2242
  850TIP3    H226746   2.749   4.660  12.264  0.1600  0.5648 -0.8726
  851TIP3   OH226747   0.038   5.506  12.418 -0.3923  0.2615 -0.6845
  851TIP3    H126748  -0.002   5.591  12.436 -0.3870  0.4764 -1.6374
  851TIP3    H226749   0.114   5.503  12.476 -1.6372 -0.0714  1.0010
  852TIP3   OH226750   3.910   2.269  12.982  0.5997 -0.1920  0.0858
  852TIP3    H126751   3.876   2.333  13.044  0.4340 -0.5741  0.3965
  852TIP3    H226752   3.867   2.291  12.899 -0.6209 -0.8164  0.5283
  853TIP3   OH226753   4.482   3.446  13.139 -0.3187  0.2286  0.0459
  853TIP3    H126754   4.506   3.381  13.072 -1.7511 -0.6881  0.3983
  853TIP3    H226755   4.423   3.400  13.198 -3.1016  2.4001 -0.8532
  854TIP3   OH226756   5.980   5.711  11.608  0.3185  0.2046  0.4431
  854TIP3    H126757   5.939   5.627  11.589  0.2615  0.4202 -0.3870
  854TIP3    H226758   5.908   5.774  11.610  0.6973  0.8587 -2.5477
  855TIP3   OH226759   5.463   0.365  12.828  0.0150 -0.1467 -0.5336
  855TIP3    H126760   5.505   0.416  12.759 -0.9713  0.5677 -0.6421
  855TIP3    H226761   5.504   0.279  12.823  0.6713  0.1947 -1.3414
  856TIP3   OH226762   6.571   0.829  11.165 -0.2068  0.3151  0.2689
  856TIP3    H126763   6.638   0.889  11.133  0.1968 -0.9889 -1.5066
  856TIP3    H226764   6.602   0.742  11.139 -1.9494 -0.4463  0.5817
  857TIP3   OH226765   4.799   2.943   9.744 -0.2535 -0.3049  0.2955
  857TIP3    H126766   4.774   2.915   9.832 -0.0486 -3.2840 -0.5088
  857TIP3    H226767   4.717   2.948   9.696 -0.3273  0.9858  0.5042
  858TIP3   OH226768   0.423   3.334  10.233  0.2238  0.8245 -0.4057
  858TIP3    H126769   0.400   3.416  10.277  1.7980  0.6942  0.7880
  858TIP3    H226770   0.431   3.270  10.304  0.1664 -0.0795 -1.1888
  859TIP3   OH226771   4.806   1.693  12.302 -0.1311  0.0949  0.5173
  859TIP3    H126772   4.798   1.708  12.396  1.5668  1.1462  0.5282
  859TIP3    H226773   4.890   1.731  12.278 -0.6864  0.1736 -1.5107
  860TIP3   OH226774   5.895   3.051  11.297 -0.5352 -0.0177 -0.7696
  860TIP3    H126775   5.832   2.981  11.279 -1.0173 -0.0947  1.0260
  860TIP3    H226776   5.971   3.029  11.242 -1.1315 -1.2803 -1.1305
  861TIP3   OH226777   3.979   5.936  10.471  0.2921  0.0965  0.2307
  861TIP3    H126778   4.007   5.846  10.453 -1.0033 -0.3229  0.1849
  861TIP3    H226779   3.994   5.983  10.390 -0.5109 -0.4782 -0.2675
  862TIP3   OH226780   5.832   2.000  10.777 -0.2072  0.5540  0.4248
  862TIP3    H126781   5.773   2.045  10.838 -0.8850  0.0975  0.1095
  862TIP3    H226782   5.898   1.960  10.834 -1.6043 -1.0309  1.0111
  863TIP3   OH226783   2.650   1.049  11.750 -0.0751  0.1120 -0.6019
  863TIP3    H126784   2.620   0.969  11.792  0.4401  0.3678  0.2863
  863TIP3    H226785   2.698   1.020  11.672 -0.9358 -0.3740 -0.9613
  864TIP3   OH226786   5.145   1.157  11.927 -0.2645 -0.6166 -0.0798
  864TIP3    H126787   5.147   1.231  11.988  0.7631 -1.1507  0.5724
  864TIP3    H226788   5.133   1.197  11.841 -0.5360  0.2448  0.3436
  865TIP3   OH226789   3.174   4.109  11.632  0.8058  0.4005 -0.1936
  865TIP3    H126790   3.207   4.192  11.597  0.5624  0.1851 -0.9505
  865TIP3    H226791   3.237   4.084  11.699 -0.0074  2.0710  1.2744
  866TIP3   OH226792   4.828   2.010  12.384  0.1575  0.2204  0.0026
  866TIP3    H126793   4.837   2.105  12.381  1.9952  0.0493 -0.7258
  866TIP3    H226794   4.916   1.977  12.400 -0.5002 -1.3718  0.6456
  867TIP3   OH226795   0.622   1.483  12.321  0.7586 -0.3848  0.1345
  867TIP3    H126796   0.600   1.446  12.407 -2.4366 -0.7295 -0.6887
  867TIP3    H226797   0.600   1.576  12.328 -0.9080 -0.6827 -0.6495
  868TIP3   OH226798   2.137   1.349  10.793 -0.0049  0.4183 -0.2481
  868TIP3    H126799   2.209   1.289  10.814 -0.1792  0.8810  1.9174
  868TIP3    H226800   2.077   1.341  10.866 -2.2249  0.0532 -2.0029
  869TIP3   OH226801   1.179   2.100  11.046  0.3040  0.1579 -0.0954
  869TIP3    H126802   1.116   2.044  11.092  1.1501 -1.6027 -0.9832
  869TIP3    H226803   1.265   2.071  11.078  0.8398 -0.1991 -1.7456
  870TIP3   OH226804   3.001   2.172  11.368 -0.4247 -0.1764  0.1792
  870TIP3    H126805   3.071   2.107  11.364 -0.5858 -0.3012 -0.9398
  870TIP3    H226806   2.993   2.194  11.461  1.1871 -0.0535  0.3119
  871TIP3   OH226807   2.984   2.638   9.802 -0.0275  0.0409  0.1736
  871TIP3    H126808   2.935   2.558   9.782 -1.0518  1.2165 -2.4091
  871TIP3    H226809   3.006   2.675   9.717  0.6747  2.3868  1.2900
  872TIP3   OH226810   4.022   4.996  10.854  0.4962  0.4835  0.5415
  872TIP3    H126811   4.029   5.088  10.827  1.0200  0.0810 -0.7235
  872TIP3    H226812   4.109   4.975  10.888  0.4240  0.3995  0.6747
  873TIP3   OH226813   5.486   3.862  11.686  0.1948  0.2729 -0.3933
  873TIP3    H126814   5.566   3.913  11.697  0.9814 -0.8106 -0.9055
  873TIP3    H226815   5.517   3.772  11.680 -1.0788 -0.1582 -0.5896
  874TIP3   OH226816   0.920   3.699  11.825 -0.1615 -0.1778  0.3921
  874TIP3    H126817   0.876   3.777  11.860 -0.3805 -0.8648  1.7030
  874TIP3    H226818   0.943   3.648  11.902  0.3679 -1.2154 -0.4315
  875TIP3   OH226819   0.647   0.011  13.162 -0.1823 -0.6357  0.4253
  875TIP3    H126820   0.627   0.005  13.256 -1.4539 -1.3581  0.1265
  875TIP3    H226821   0.570  -0.025  13.119  0.8542 -1.3942 -0.8713
  876TIP3   OH226822   4.494   3.257  10.998  0.5422 -0.3863  0.0614
  876TIP3    H126823   4.444   3.339  11.003  0.0334 -0.6434 -0.6565
  876TIP3    H226824   4.429   3.188  11.012  0.7019 -0.7239 -0.7704
  877TIP3   OH226825   3.335   2.458  10.601  0.0679 -0.2681 -0.2310
  877TIP3    H126826   3.409   2.409  10.564  0.4083  0.7536 -0.9658
  877TIP3    H226827   3.364   2.550  10.599 -1.5670  0.2653 -1.4246
  878TIP3   OH226828   4.460   0.932  11.775  0.4402  0.2195 -0.5161
  878TIP3    H126829   4.516   0.929  11.697  0.4583 -0.7086 -0.4748
  878TIP3    H226830   4.505   0.878  11.839  1.0626  1.9533  0.6026
  879TIP3   OH226831   3.554   4.367  12.236 -0.2762  0.0036  0.3599
  879TIP3    H126832   3.500   4.289  12.221  0.7744 -0.9550  1.3648
  879TIP3    H226833   3.493   4.440  12.229 -1.2287 -0.8638 -0.9584
  880TIP3   OH226834   6.718   3.767  10.647 -0.1553  0.6580  0.2620
  880TIP3    H126835   6.658   3.841  10.655  1.0573  1.4977  2.0723
  880TIP3    H226836   6.778   3.793  10.577 -1.1639  0.2988 -0.7754
  881TIP3   OH226837   3.083   2.118  11.903 -0.1815 -0.1360 -0.2114
  881TIP3    H126838   3.152   2.053  11.889 -1.5654 -1.9254  0.8443
  881TIP3    H226839   3.036   2.087  11.980 -1.1974  1.9089  0.0552
  882TIP3   OH226840   4.594   3.512  12.514  0.1331 -0.1598  0.1616
  882TIP3    H126841   4.573   3.424  12.544  1.5884 -0.8939 -0.8688
  882TIP3    H226842   4.554   3.518  12.428 -0.0273  0.2257  0.2596
  883TIP3   OH226843   2.219   4.361  11.132  0.0826 -0.6278  0.3163
  883TIP3    H126844   2.286   4.401  11.076  0.6145  1.2895  2.1599
  883TIP3    H226845   2.142   4.352  11.076  0.5105  1.4225 -0.6956
  884TIP3   OH226846   1.129   6.484  10.981  0.1890 -0.8864 -0.8442
  884TIP3    H126847   1.059   6.516  11.038  0.1882 -0.7558 -0.9166
  884TIP3    H226848   1.115   6.532  10.898  1.4595  0.5335 -0.2800
  885TIP3   OH226849   6.163   2.079  13.252 -0.0815 -0.3180 -0.3920
  885TIP3    H126850   6.253   2.049  13.264 -0.3613 -0.5975  1.1325
  885TIP3    H226851   6.111   1.999  13.252 -0.5879 -0.0221  1.3776
  886TIP3   OH226852   0.628   3.347  12.345  0.1917 -0.3505 -0.1108
  886TIP3    H126853   0.693   3.353  12.415  1.3832  0.9850 -1.2743
  886TIP3    H226854   0.631   3.433  12.303  0.1928 -1.4019 -2.3787
  887TIP3   OH226855   1.821   3.679  11.879 -0.3938 -1.2176 -0.1454
  887TIP3    H126856   1.791   3.721  11.798  1.8122 -1.5672 -1.2191
  887TIP3    H226857   1.847   3.591  11.852  2.2172 -0.7227  0.4883
  888TIP3   OH226858   2.586   3.457  11.131  0.3719 -0.0212 -0.4083
  888TIP3    H126859   2.534   3.529  11.165  1.3759  0.6254 -0.2127
  888TIP3    H226860   2.533   3.419  11.061 -1.1140 -0.4836  0.9223
  889TIP3   OH226861   1.814   3.437  10.842 -0.0174  0.6834 -0.0871
  889TIP3    H126862   1.861   3.519  10.823  0.7404  0.4011  0.5202
  889TIP3    H226863   1.844   3.412  10.930 -1.0873  0.3327  0.2002
  890TIP3   OH226864   2.592   4.948   9.538 -0.5731  0.1054 -0.2640
  890TIP3    H126865   2.669   4.986   9.580 -2.2639  3.0655  0.4049
  890TIP3    H226866   2.629   4.892   9.469  2.1717  1.2752  0.0949
  891TIP3   OH226867   5.816   5.471  11.713 -0.6444  0.1176 -0.3505
  891TIP3    H126868   5.822   5.431  11.626  1.9708  1.2769 -0.8204
  891TIP3    H226869   5.722   5.473  11.733 -1.3163 -0.3220 -3.0832
  892TIP3   OH226870   0.932   2.456  12.888  0.0473  0.5038  0.4759
  892TIP3    H126871   0.845   2.469  12.925  0.0858  1.6368  0.2225
  892TIP3    H226872   0.992   2.470  12.961  0.0892  1.9746  0.2027
  893TIP3   OH226873   4.674   4.858  11.938  1.0464  0.5890 -0.0369
  893TIP3    H126874   4.717   4.883  12.020  1.3652 -0.3768  0.1071
  893TIP3    H226875   4.598   4.916  11.932  0.4044 -0.0259  1.4939
  894TIP3   OH226876   0.785   1.520  12.691 -0.1516  0.0036 -0.6143
  894TIP3    H126877   0.840   1.553  12.619  0.6506 -1.5095 -0.7409
  894TIP3    H226878   0.799   1.583  12.762 -0.2407  1.0226 -1.4831
  895TIP3   OH226879   0.669   3.781  12.050  0.4019  0.4646  0.1307
  895TIP3    H126880   0.602   3.849  12.063 -0.3716  0.4825 -3.1117
  895TIP3    H226881   0.737   3.825  11.998  2.1386 -0.0734  1.8310
  896TIP3   OH226882   0.223   4.100  11.640 -0.5044  0.1806 -0.8345
  896TIP3    H126883   0.136   4.061  11.649 -0.1698 -0.5849 -0.8940
  896TIP3    H226884   0.249   4.080  11.550  1.1350 -2.5604  0.1362
  897TIP3   OH226885   1.432   3.908  12.824  0.2527  0.3078 -0.1480
  897TIP3    H126886   1.351   3.945  12.790  0.9672  1.8302 -0.2945
  897TIP3    H226887   1.499   3.934  12.760  1.0590  0.2521  0.6452
  898TIP3   OH226888   2.372   3.302   9.833  0.6690 -0.2251  0.6100
  898TIP3    H126889   2.283   3.304   9.870  0.7352 -1.5755  0.9029
  898TIP3    H226890   2.369   3.234   9.767  1.0570  0.9138 -0.6251
  899TIP3   OH226891   1.852   6.104  11.745  0.2205  0.0278 -0.7208
  899TIP3    H126892   1.921   6.157  11.705  1.8749 -1.0411  0.5683
  899TIP3    H226893   1.866   6.016  11.710  1.3311 -0.7956  1.5875
  900TIP3   OH226894   6.137   5.703  11.132 -0.0780  0.3019  0.3266
  900TIP3    H126895   6.228   5.695  11.160  0.5463 -1.4777 -1.8469
  900TIP3    H226896   6.130   5.644  11.057 -2.8667  0.9080 -0.0148
  901TIP3   OH226897   1.748   2.304  11.290 -0.0873  0.1136 -0.3133
  901TIP3    H126898   1.705   2.221  11.268 -1.8789  0.6104  1.1258
  901TIP3    H226899   1.731   2.361  11.215 -1.0360 -0.0405 -0.2256
  902TIP3   OH226900   3.782   0.759  12.895 -0.4662  0.7405 -0.1801
  902TIP3    H126901   3.859   0.758  12.837  2.1376 -0.1028  2.9979
  902TIP3    H226902   3.799   0.831  12.956 -2.5788  0.9480  0.2362
  903TIP3   OH226903   2.751   6.143  10.375 -0.1626 -0.0751  0.7289
  903TIP3    H126904   2.739   6.230  10.337 -2.8212  0.0872  1.7393
  903TIP3    H226905   2.809   6.098  10.314  0.0770  1.8955 -0.6033
  904TIP3   OH226906   4.888   1.039  10.071 -0.3784 -0.3268 -0.0831
  904TIP3    H126907   4.834   0.960  10.068 -0.8908  0.0547 -1.3801
  904TIP3    H226908   4.969   1.010  10.112 -1.5062 -0.9323  1.8737
  905TIP3   OH226909   4.118   0.763  11.640  0.9751  0.1373  0.2903
  905TIP3    H126910   4.087   0.690  11.694  0.1331  0.9053  0.8704
  905TIP3    H226911   4.050   0.774  11.573  0.3806  1.2581  1.0368
  906TIP3   OH226912   2.408   3.769  10.935 -0.2009 -0.2572 -0.0360
  906TIP3    H126913   2.355   3.830  10.986  0.3582  1.6511 -1.6138
  906TIP3    H226914   2.498   3.800  10.946 -0.1493  0.8630 -2.8630
  907TIP3   OH226915   0.811   5.879  12.404  0.0434 -0.4280  0.5052
  907TIP3    H126916   0.766   5.940  12.462 -1.1813 -0.5186 -0.3241
  907TIP3    H226917   0.786   5.907  12.315 -1.1906 -2.5897  0.1185
  908TIP3   OH226918   0.649   2.643  10.015 -0.0329 -0.1879 -0.5187
  908TIP3    H126919   0.686   2.575   9.958 -0.0065  0.2926 -1.0754
  908TIP3    H226920   0.565   2.666   9.974  1.1429  2.0233 -1.8559
  909TIP3   OH226921   0.033   1.507  11.330  0.2691 -0.2800  0.6084
  909TIP3    H126922   0.047   1.585  11.277  2.2099  0.0379  1.5012
  909TIP3    H226923  -0.047   1.524  11.379 -1.0542 -0.2090 -1.4985
  910TIP3   OH226924   2.254   3.912  11.542 -0.2549  0.1109 -0.0381
  910TIP3    H126925   2.196   3.988  11.550 -1.6194 -0.6143 -1.9825
  910TIP3    H226926   2.209   3.856  11.479  1.6596 -1.4188 -0.1129
  911TIP3   OH226927   2.014   5.575  12.989  0.1564 -0.0109 -0.2078
  911TIP3    H126928   2.022   5.532  13.074  1.0042  0.0079 -0.2613
  911TIP3    H226929   2.056   5.514  12.927 -1.2806 -0.4538 -0.7761
  912TIP3   OH226930   0.899   5.074  11.470 -0.2813  0.0242 -0.0382
  912TIP3    H126931   0.919   5.167  11.481  2.4245 -0.3583 -0.7983
  912TIP3    H226932   0.808   5.065  11.496 -0.6998  2.9264 -0.2037
  913TIP3   OH226933   4.044   5.660  11.145  0.0821 -0.3323 -0.0921
  913TIP3    H126934   4.066   5.670  11.237 -0.3006  1.0930 -0.1349
  913TIP3    H226935   4.064   5.745  11.106 -0.9446 -0.5120 -1.0670
  914TIP3   OH226936   5.321   0.147  13.166  0.2521  0.3372  0.3816
  914TIP3    H126937   5.282   0.217  13.114 -0.6180 -0.3881  0.0333
  914TIP3    H226938   5.332   0.185  13.253  2.5612  1.8659 -0.4781
  915TIP3   OH226939   3.627   0.102  11.610  0.6276 -0.1910  0.0339
  915TIP3    H126940   3.601   0.123  11.699  0.9715 -0.9930  0.3304
  915TIP3    H226941   3.557   0.045  11.577  0.1707  0.6274 -0.4413
  916TIP3   OH226942   2.341   5.009  12.430 -0.7790  0.3956 -0.4629
  916TIP3    H126943   2.383   5.083  12.387 -1.2732  0.3822 -0.9756
  916TIP3    H226944   2.328   5.039  12.520 -1.8927  1.3226 -0.9123
  917TIP3   OH226945   2.632   2.604  11.985 -0.1069 -0.3199  0.3060
  917TIP3    H126946   2.671   2.689  11.964 -0.1833  0.2800  2.4385
  917TIP3    H226947   2.707   2.544  11.990  0.0836 -0.1032  0.0959
  918TIP3   OH226948   3.917   1.103  12.942 -0.6244  0.4876  0.0585
  918TIP3    H126949   3.957   1.024  12.906  1.0461  0.5098  1.6820
  918TIP3    H226950   3.917   1.165  12.869 -0.7734 -0.5935 -0.8882
  919TIP3   OH226951   6.749   0.805  10.510  0.0479 -0.3963  0.3683
  919TIP3    H126952   6.726   0.720  10.474 -0.8356 -0.4446  1.0137
  919TIP3    H226953   6.665   0.848  10.528  0.4648  0.8639 -0.4907
  920TIP3   OH226954   0.336   2.938  12.410 -0.2491 -0.0934 -0.2590
  920TIP3    H126955   0.388   3.015  12.435 -1.1130  0.4883 -0.2230
  920TIP3    H226956   0.304   2.959  12.322 -0.5048 -0.4090 -0.2408
  921TIP3   OH226957   3.873   2.291  10.414  0.0386  0.1415  0.0362
  921TIP3    H126958   3.824   2.212  10.434  0.6017 -0.1804  0.1547
  921TIP3    H226959   3.924   2.269  10.336  1.8923 -0.3667  1.3240
  922TIP3   OH226960   4.626   1.855  10.066  0.1252 -0.5590  0.1306
  922TIP3    H126961   4.562   1.916  10.031  0.5569 -1.0175 -1.5625
  922TIP3    H226962   4.706   1.874  10.017  0.9197 -0.8796  1.2711
  923TIP3   OH226963   1.245   3.118  10.057  0.2673 -0.3977  0.3608
  923TIP3    H126964   1.230   3.044  10.116  1.9164 -0.7009  0.4374
  923TIP3    H226965   1.188   3.100   9.982 -0.4074 -0.9992  0.9953
  924TIP3   OH226966   5.243   0.622  10.479  0.1326 -0.7260  0.1705
  924TIP3    H126967   5.317   0.657  10.429 -0.3278 -0.1011 -0.0812
  924TIP3    H226968   5.177   0.692  10.477  0.8485  0.1872  3.3888
  925TIP3   OH226969   2.470   0.953  11.487 -0.8181 -0.2457 -0.3944
  925TIP3    H126970   2.472   0.861  11.459 -0.6503  0.0752 -1.4837
  925TIP3    H226971   2.404   0.955  11.556 -2.1607 -0.8787 -1.6035
  926TIP3   OH226972   0.269   2.074  12.527  0.2968  0.5014  0.2180
  926TIP3    H126973   0.359   2.089  12.557  1.5770 -0.2239 -2.9006
  926TIP3    H226974   0.255   2.140  12.459 -0.8742 -0.5557 -0.6021
  927TIP3   OH226975   6.058   0.175  11.455  0.1888  0.0795  0.3247
  927TIP3    H126976   6.131   0.116  11.472  0.0154 -0.1961  0.1253
  927TIP3    H226977   6.043   0.220  11.538  0.2501 -0.2366  0.5075
  928TIP3   OH226978   5.331   1.431  12.834  0.6703  0.1349 -0.7166
  928TIP3    H126979   5.362   1.516  12.866  0.9067  0.0297 -0.6652
  928TIP3    H226980   5.297   1.387  12.911 -0.3664  0.5706 -0.9023
  929TIP3   OH226981   5.086   3.570  10.169 -0.1679 -0.1002  0.1386
  929TIP3    H126982   5.104   3.654  10.127 -0.5740 -0.1842 -0.2126
  929TIP3    H226983   5.077   3.508  10.097  0.4854 -0.5232  0.4085
  930TIP3   OH226984   0.078   0.241  11.440  0.1141 -0.0259 -0.2211
  930TIP3    H126985   0.108   0.332  11.441  0.2560 -0.0657  1.0139
  930TIP3    H226986  -0.008   0.244  11.482  0.6544 -0.6062  0.9912
  931TIP3   OH226987   4.830   1.577  10.360 -0.2771 -0.4681  0.2048
  931TIP3    H126988   4.803   1.559  10.451  2.3235 -1.9540  0.7770
  931TIP3    H226989   4.798   1.502  10.310 -1.5275  0.2495 -0.1081
  932TIP3   OH226990   4.668   1.569  11.962  0.3302  0.1426  0.6426
  932TIP3    H126991   4.645   1.653  12.001  1.3997  0.4891  0.5650
  932TIP3    H226992   4.620   1.504  12.014 -0.9173  0.8203  0.3700
  933TIP3   OH226993   3.923   6.777  11.317  1.0166  0.1755 -0.0081
  933TIP3    H126994   3.997   6.835  11.299  0.5487  0.4554 -1.1119
  933TIP3    H226995   3.846   6.826  11.289  0.5239 -0.5990 -0.0472
  934TIP3   OH226996   4.893   0.103  11.511  0.4234  0.1673 -0.7225
  934TIP3    H126997   4.813   0.115  11.460  0.1112 -1.6928 -0.7594
  934TIP3    H226998   4.865   0.109  11.602  0.3215  0.0343 -0.7435
  935TIP3   OH226999   1.002   3.945   9.965  0.4715  0.0963  0.0500
  935TIP3    H127000   0.945   3.902   9.901  0.7006 -0.2423  0.0730
  935TIP3    H227001   1.023   4.030   9.925 -0.3635  0.3929  0.2145
  936TIP3   OH227002   3.961   6.177  10.287  0.2542 -0.3384 -0.9821
  936TIP3    H127003   3.874   6.186  10.324  1.2245 -0.1858  1.4211
  936TIP3    H227004   3.981   6.264  10.252  0.8200  0.7576  1.8322
  937TIP3   OH227005   1.379   0.014  12.200 -0.4778 -0.3710  0.5572
  937TIP3    H127006   1.453   0.014  12.261  0.6814  1.1186 -0.7791
  937TIP3    H227007   1.370  -0.078  12.174  0.1506 -0.7499  1.5989
  938TIP3   OH227008   0.880   6.816  12.031 -0.3733 -0.3925  0.3546
  938TIP3    H127009   0.955   6.844  12.084 -0.5821 -0.0497  0.4720
  938TIP3    H227010   0.917   6.796  11.945  0.0751 -1.5461  0.7863
  939TIP3   OH227011   2.054   4.540  10.596 -0.3484 -0.3118 -0.3595
  939TIP3    H127012   2.054   4.453  10.635  0.1160 -0.4547 -0.6769
  939TIP3    H227013   2.010   4.595  10.662  0.5393 -0.5190  0.4286
  940TIP3   OH227014   5.509   2.820  12.870  0.0577  0.2435  0.5124
  940TIP3    H127015   5.480   2.888  12.809  0.2675 -0.5631 -0.5138
  940TIP3    H227016   5.429   2.770  12.889 -0.2703  1.2215  1.9076
  941TIP3   OH227017   1.692   2.953  11.076  0.1906  0.5441 -0.2240
  941TIP3    H127018   1.600   2.971  11.095  0.5124  2.2296 -0.0533
  941TIP3    H227019   1.738   2.983  11.154  0.7455 -3.1352  1.0728
  942TIP3   OH227020   6.084   4.414  12.268  0.6677  0.2657 -0.1384
  942TIP3    H127021   6.064   4.506  12.285 -1.0106 -0.4125  2.0604
  942TIP3    H227022   6.178   4.411  12.252  1.0625  2.1326  1.5947
  943TIP3   OH227023   0.417   4.315  12.870  0.1754 -0.3425 -0.1253
  943TIP3    H127024   0.476   4.315  12.794  3.3939  1.4560  2.1269
  943TIP3    H227025   0.374   4.400  12.867  0.1643 -0.3436  0.0019
  944TIP3   OH227026   1.379   1.470  10.573 -0.1964 -0.2715 -0.1431
  944TIP3    H127027   1.323   1.404  10.614 -0.7477  0.3518  0.1228
  944TIP3    H227028   1.393   1.536  10.641 -1.1616  0.8005 -0.9310
  945TIP3   OH227029   6.140   5.881  11.771 -0.2063  0.1155  0.5779
  945TIP3    H127030   6.068   5.933  11.806 -0.9506 -2.3979  3.2328
  945TIP3    H227031   6.098   5.805  11.730  0.8657 -0.4635  0.5161
  946TIP3   OH227032   3.911   6.825  10.837 -0.0753  0.2328  0.2685
  946TIP3    H127033   3.905   6.740  10.880 -0.4786  0.1167 -0.0093
  946TIP3    H227034   3.833   6.829  10.781 -1.3324  1.7282  1.9991
  947TIP3   OH227035   5.562   0.260  11.772  0.2411  0.5188  0.6880
  947TIP3    H127036   5.506   0.190  11.739 -1.8499  1.4803  2.0097
  947TIP3    H227037   5.651   0.223  11.769 -0.3875 -0.9987 -1.6189
  948TIP3   OH227038   6.564   6.619  10.847  0.1095  0.1741 -0.6855
  948TIP3    H127039   6.653   6.619  10.882 -0.0738 -3.0466  0.0892
  948TIP3    H227040   6.575   6.599  10.754  0.2186  0.2907 -0.6982
  949TIP3   OH227041   4.295   2.406  10.284 -0.4774  0.4706 -0.3941
  949TIP3    H127042   4.379   2.409  10.239  0.4280  1.4019  1.2809
  949TIP3    H227043   4.315   2.370  10.370 -2.3870 -2.6338 -1.0671
  950TIP3   OH227044   6.419   5.206  12.362 -0.0679 -0.2498  0.1867
  950TIP3    H127045   6.332   5.239  12.385 -0.7846 -1.7480 -0.2485
  950TIP3    H227046   6.455   5.272  12.302 -1.1057  0.1555 -0.0102
  951TIP3   OH227047   6.270   1.100  11.567  0.2809 -0.1064 -0.0589
  951TIP3    H127048   6.292   1.049  11.489  0.6135  1.0909 -0.7738
  951TIP3    H227049   6.257   1.034  11.635  0.8991 -1.1380 -0.8939
  952TIP3   OH227050   3.264   5.001  11.625  0.1848 -0.4939  0.5653
  952TIP3    H127051   3.262   5.020  11.719  0.3786 -0.2439  0.5199
  952TIP3    H227052   3.346   4.952  11.612 -1.0132 -2.7578  0.9385
  953TIP3   OH227053   3.997   5.276  10.840  0.4894  0.3335 -0.2177
  953TIP3    H127054   4.085   5.268  10.803  0.2873  0.8879 -0.8453
  953TIP3    H227055   3.995   5.365  10.876 -0.4118  1.0255 -1.8767
  954TIP3   OH227056   2.787   0.986  13.202  0.4498 -0.0087  0.2577
  954TIP3    H127057   2.873   1.019  13.226  0.3925  0.5192 -0.2441
  954TIP3    H227058   2.801   0.895  13.177  0.8442  0.0481  0.2728
  955TIP3   OH227059   5.086   1.907  12.352 -0.5500  0.5239  0.1367
  955TIP3    H127060   5.103   1.885  12.261  0.3054 -3.5347  1.0881
  955TIP3    H227061   5.172   1.930  12.388 -0.5582  0.2377  0.3408
  956TIP3   OH227062   4.855   5.526  11.019 -0.3546  0.1419 -0.4090
  956TIP3    H127063   4.918   5.545  11.088  0.0168 -0.1284 -0.6735
  956TIP3    H227064   4.874   5.436  10.993 -2.0230 -0.6168  0.7629
  957TIP3   OH227065   3.113   2.902  10.451  0.2078  0.0798  0.1435
  957TIP3    H127066   3.147   2.904  10.361  0.5656 -1.6184  0.2174
  957TIP3    H227067   3.035   2.848  10.446 -2.0391  3.0946  0.1854
  958TIP3   OH227068   3.317   6.657  12.206 -0.4302  0.2822  0.0146
  958TIP3    H127069   3.316   6.737  12.154 -0.1897  1.4523  1.7310
  958TIP3    H227070   3.235   6.659  12.257 -0.0691 -0.1578  0.6423
  959TIP3   OH227071   0.619   1.903  11.974  0.6272  0.5619 -0.7030
  959TIP3    H127072   0.626   1.807  11.979  0.5845  0.6061  1.6788
  959TIP3    H227073   0.673   1.927  11.899  0.8363 -1.3069 -1.2144
  960TIP3   OH227074   3.911   4.039  10.054  0.9232  0.3147  0.0007
  960TIP3    H127075   3.943   3.952  10.031  0.8325  0.6012 -1.2969
  960TIP3    H227076   3.816   4.028  10.063  0.7405  0.4922 -1.3988
  961TIP3   OH227077   1.117   2.487  12.120 -0.0160 -0.2663  0.2953
  961TIP3    H127078   1.137   2.396  12.139  0.5031 -0.2124  0.0260
  961TIP3    H227079   1.181   2.538  12.170  0.4269 -0.0881 -0.4326
  962TIP3   OH227080   0.589   1.361  12.589 -0.0549  0.2543 -0.6185
  962TIP3    H127081   0.636   1.283  12.559 -0.4940 -0.1830 -0.1680
  962TIP3    H227082   0.657   1.415  12.629  0.7488  1.2800 -3.1198
  963TIP3   OH227083   1.676   2.421  10.863 -0.7286 -0.1175 -0.1727
  963TIP3    H127084   1.670   2.500  10.809 -1.0472  0.1486  0.2517
  963TIP3    H227085   1.713   2.355  10.804  0.1734  0.5182 -0.3462
  964TIP3   OH227086   2.417   4.350  10.704 -0.3144 -0.3291 -0.4315
  964TIP3    H127087   2.475   4.390  10.640 -0.3007 -0.6077 -0.5921
  964TIP3    H227088   2.445   4.259  10.708 -1.6739 -0.8268 -1.5769
  965TIP3   OH227089   4.563   3.015  12.149  0.4486  0.0039 -0.0378
  965TIP3    H127090   4.542   2.926  12.176  0.5095  0.2272  0.7554
  965TIP3    H227091   4.643   3.006  12.097  1.6316 -0.1886  1.7378
  966TIP3   OH227092   3.065   5.763  11.903 -0.1175  0.1302  0.2262
  966TIP3    H127093   3.121   5.826  11.859  1.6250 -1.0026  0.7122
  966TIP3    H227094   2.992   5.815  11.937  0.7543  1.7087 -0.2315
  967TIP3   OH227095   2.592   3.912  12.468 -0.0252 -0.0370  0.0072
  967TIP3    H127096   2.569   3.849  12.537  0.6085 -1.5107 -1.0574
  967TIP3    H227097   2.577   3.864  12.387  0.1702  1.3307 -0.8613
  968TIP3   OH227098   3.249   2.822  10.864 -0.0455  0.6881 -0.1563
  968TIP3    H127099   3.189   2.764  10.817  0.1490  0.6261 -0.3266
  968TIP3    H227100   3.192   2.870  10.924 -0.4673  1.5451 -1.2021
  969TIP3   OH227101   0.949   0.718  12.377 -0.6637 -0.0262  0.4961
  969TIP3    H127102   0.928   0.625  12.384 -1.0410  0.0578  0.4869
  969TIP3    H227103   0.865   0.762  12.380 -0.5603  0.2620 -0.5881
  970TIP3   OH227104   1.724   6.398  12.762  0.1324  0.4464 -0.1599
  970TIP3    H127105   1.756   6.360  12.680 -0.3497 -0.0983 -0.1021
  970TIP3    H227106   1.760   6.486  12.763 -0.3257  0.6680 -1.2423
  971TIP3   OH227107   1.998   4.326  10.911 -0.4169  0.1910 -0.0576
  971TIP3    H127108   2.071   4.264  10.904 -0.7378 -0.7694  3.4047
  971TIP3    H227109   1.951   4.317  10.828  0.3461 -3.2158 -0.2723
  972TIP3   OH227110   2.562   0.796  11.802  0.3411  0.3405  0.8022
  972TIP3    H127111   2.556   0.707  11.836 -2.0637 -0.0680 -0.4745
  972TIP3    H227112   2.617   0.788  11.724 -3.0728 -0.9740 -1.7088
  973TIP3   OH227113   1.592   0.642   9.685 -0.4390  0.3473 -0.2199
  973TIP3    H127114   1.608   0.735   9.703 -2.3535  0.7890 -0.5039
  973TIP3    H227115   1.499   0.630   9.706  0.2627 -2.0347  1.8609
  974TIP3   OH227116   0.379   1.249  10.661  0.1269 -0.1718  0.1464
  974TIP3    H127117   0.463   1.265  10.704  0.9482  1.3924 -1.8461
  974TIP3    H227118   0.402   1.198  10.583 -0.3150  2.3199 -1.7363
  975TIP3   OH227119   0.911   0.338  11.800  0.2190  0.7711 -0.6582
  975TIP3    H127120   0.873   0.418  11.762 -1.6519 -0.1635 -0.8676
  975TIP3    H227121   0.911   0.353  11.894  2.3440  2.0162 -0.7863
  976TIP3   OH227122   3.236   3.974  12.721 -0.0752  0.4354  0.4531
  976TIP3    H127123   3.280   4.004  12.801 -2.3114  0.5483  1.7371
  976TIP3    H227124   3.230   3.879  12.732  0.5284  0.3338 -0.0857
  977TIP3   OH227125   5.904   0.237  10.866 -0.3146  0.0494 -0.5970
  977TIP3    H127126   5.864   0.299  10.927  1.0000  0.5896 -0.2437
  977TIP3    H227127   5.942   0.292  10.798  1.0895 -0.3241 -0.1417
  978TIP3   OH227128   4.910   5.678  12.380 -0.1748  0.4616  0.2550
  978TIP3    H127129   4.832   5.638  12.342  0.2734 -0.8733  0.6690
  978TIP3    H227130   4.892   5.682  12.474  1.4565 -3.0637  0.9103
  979TIP3   OH227131   5.696   1.654  10.083 -0.4278  0.1275 -0.1367
  979TIP3    H127132   5.659   1.602  10.012  0.8212  0.3776 -1.0045
  979TIP3    H227133   5.698   1.743  10.049  0.9702  0.1162 -0.1426
  980TIP3   OH227134   4.239   4.139  11.659  0.0190 -0.1999  0.0812
  980TIP3    H127135   4.205   4.197  11.591 -0.7014 -0.9580 -0.2250
  980TIP3    H227136   4.316   4.184  11.693  0.8291 -0.1163 -1.7371
  981TIP3   OH227137   0.407   0.826  12.055  0.2176  0.0524  0.1690
  981TIP3    H127138   0.502   0.814  12.044  0.1753  1.3725 -2.5663
  981TIP3    H227139   0.369   0.749  12.015  0.1495  0.5452 -0.7460
  982TIP3   OH227140   2.325   6.462  11.270 -0.3610 -0.1503  0.4167
  982TIP3    H127141   2.391   6.440  11.337  1.5829 -0.5694 -1.5284
  982TIP3    H227142   2.322   6.386  11.213 -1.3582  0.5186 -0.4619
  983TIP3   OH227143   3.864   4.991  10.391 -0.1188  0.0182 -0.3727
  983TIP3    H127144   3.832   5.066  10.441 -3.2513 -0.3315 -1.6236
  983TIP3    H227145   3.891   5.028  10.307 -0.1845 -0.0656 -0.4318
  984TIP3   OH227146   1.063   5.124  12.627  0.0297  0.4946  0.0062
  984TIP3    H127147   1.011   5.192  12.583 -1.0261  0.0554  0.5448
  984TIP3    H227148   1.002   5.084  12.689 -0.2057 -2.7475 -2.0741
  985TIP3   OH227149   3.063   3.231  13.110  0.1069  0.2048  0.3388
  985TIP3    H127150   3.119   3.205  13.183  0.5219 -1.1934 -0.4452
  985TIP3    H227151   2.993   3.165  13.108  0.5850 -0.2966 -1.0385
  986TIP3   OH227152   2.688   4.759  11.297 -0.1217  0.4926  0.0635
  986TIP3    H127153   2.638   4.683  11.328 -1.7927  1.2465 -0.6957
  986TIP3    H227154   2.692   4.818  11.372 -0.6802  0.5829  0.0215
  987TIP3   OH227155   5.002   6.772  12.230 -1.4086  0.0883 -0.1163
  987TIP3    H127156   5.038   6.824  12.303 -2.0840 -0.8160  0.8802
  987TIP3    H227157   4.937   6.830  12.189 -1.7645  0.2381  0.6444
  988TIP3   OH227158   6.346   1.919  12.126 -0.4436  0.2217  0.1348
  988TIP3    H127159   6.293   1.984  12.079  0.0399  1.6851  1.5120
  988TIP3    H227160   6.426   1.967  12.149 -0.6763 -0.4005  2.4513
  989TIP3   OH227161   2.073   1.903  10.382  0.7506  0.0536  0.2487
  989TIP3    H127162   2.138   1.833  10.395  1.7372  0.9624  0.3787
  989TIP3    H227163   2.035   1.916  10.469  0.5561 -0.3235  0.2230
  990TIP3   OH227164   3.349   6.388  12.981  0.3345  0.4356 -0.3486
  990TIP3    H127165   3.421   6.433  13.026 -0.4602  1.3883 -0.0022
  990TIP3    H227166   3.393   6.323  12.926  1.4054  0.2825  0.6457
  991TIP3   OH227167   3.150   0.497  12.135 -0.3397  0.1967 -0.0290
  991TIP3    H127168   3.085   0.437  12.168 -2.0325  1.8045 -0.2704
  991TIP3    H227169   3.153   0.480  12.040 -0.4668  0.1642 -0.0275
  992TIP3   OH227170   5.865   0.519  11.861  0.4636  0.1244 -0.2454
  992TIP3    H127171   5.907   0.439  11.829  0.5093  0.5966 -1.4071
  992TIP3    H227172   5.794   0.535  11.799 -1.3367 -0.5231  1.5425
  993TIP3   OH227173   2.176   6.108  12.474  0.1128 -0.2493 -0.2336
  993TIP3    H127174   2.183   6.191  12.427 -0.7302  0.6832  1.1836
  993TIP3    H227175   2.121   6.053  12.419 -0.4905  0.6491 -0.5545
  994TIP3   OH227176   4.241   3.569  12.463  0.3078 -0.4296  0.9010
  994TIP3    H127177   4.279   3.632  12.525 -1.8459  1.1946  0.6961
  994TIP3    H227178   4.282   3.590  12.380 -1.1571  1.5869  0.5936
  995TIP3   OH227179   4.708   5.118  12.953  0.0820  0.2411 -0.2907
  995TIP3    H127180   4.618   5.152  12.951 -0.0349 -0.0735 -0.6114
  995TIP3    H227181   4.719   5.076  12.868  0.5434  0.2973 -0.2614
  996TIP3   OH227182   6.763   1.029  11.094 -0.2241  0.1745  0.0291
  996TIP3    H127183   6.836   1.024  11.032 -0.8304  1.6241 -0.8484
  996TIP3    H227184   6.805   1.034  11.180  0.9632  4.2272 -0.5777
  997TIP3   OH227185   0.491   2.732  10.356  0.2806 -0.7756  0.3652
  997TIP3    H127186   0.404   2.759  10.385  0.5763  0.3186  0.2792
  997TIP3    H227187   0.487   2.636  10.352 -1.1335 -0.7071 -0.3357
  998TIP3   OH227188   0.666   1.280  12.163 -0.0578 -0.0643  0.3209
  998TIP3    H127189   0.650   1.354  12.221  0.8509  0.5429 -0.1879
  998TIP3    H227190   0.589   1.224  12.174 -0.8874  1.0851  0.5018
  999TIP3   OH227191   2.819   4.427   9.516  0.1485  0.0577  0.3009
  999TIP3    H127192   2.884   4.424   9.446  1.9606 -1.4509  1.9159
  999TIP3    H227193   2.868   4.458   9.593 -1.4058  0.3236  1.2269
 1000TIP3   OH227194   3.014   3.941  10.576  0.0663 -0.1150  0.0619
 1000TIP3    H127195   2.948   4.003  10.606 -1.3173 -1.3397 -0.3170
 1000TIP3    H227196   3.086   3.949  10.640  0.1846  2.1968 -0.2749
 1001TIP3   OH227197   4.618   1.507  12.413  0.2544 -0.3874 -0.5728
 1001TIP3    H127198   4.597   1.459  12.333 -2.0910 -0.3375 -0.0533
 1001TIP3    H227199   4.656   1.590  12.382 -1.2945 -0.0482 -1.7060
 1002TIP3   OH227200   4.603   2.118  12.710 -0.3646  0.0227  0.0077
 1002TIP3    H127201   4.532   2.078  12.760 -0.6573 -0.9098 -1.1208
 1002TIP3    H227202   4.579   2.211  12.704  1.1545  0.8929  4.0888
 1003TIP3   OH227203   2.182   1.133  12.644 -0.0460  0.0592 -0.3048
 1003TIP3    H127204   2.254   1.074  12.665  0.7537  0.6543 -1.2732
 1003TIP3    H227205   2.121   1.123  12.716  0.4653 -1.3181 -0.0383
 1004TIP3   OH227206   2.617   0.147  12.419  0.0164  0.1546 -0.2835
 1004TIP3    H127207   2.540   0.204  12.419  0.0208  0.1611 -0.4292
 1004TIP3    H227208   2.638   0.135  12.512  0.0721  0.4702 -0.2527
 1005TIP3   OH227209   3.794   1.597  12.802  0.8469 -0.0950 -0.5643
 1005TIP3    H127210   3.821   1.612  12.711 -1.4505  1.6073 -1.0600
 1005TIP3    H227211   3.721   1.657  12.815  1.1240 -0.2772  2.4585
 1006TIP3   OH227212   1.858   4.469  12.127 -0.0790  0.6641  0.2248
 1006TIP3    H127213   1.876   4.433  12.214 -0.7786 -0.1403  0.0497
 1006TIP3    H227214   1.788   4.414  12.092 -0.4531  1.5576 -0.4805
 1007TIP3   OH227215   6.500   0.340  12.681 -0.4523  0.7703  0.1993
 1007TIP3    H127216   6.521   0.319  12.772  1.9307 -1.6464 -0.7672
 1007TIP3    H227217   6.411   0.373  12.684 -1.4041 -1.5924  3.1413
 1008TIP3   OH227218   5.982   3.531  10.852  0.3566  0.2343  0.0963
 1008TIP3    H127219   5.982   3.582  10.771  0.3796  1.2178  0.6994
 1008TIP3    H227220   6.026   3.449  10.829  1.1609  0.8658 -0.6606
 1009TIP3   OH227221   0.602   6.333  12.612 -0.2960  0.4166  0.2234
 1009TIP3    H127222   0.641   6.351  12.698 -2.1496  0.9808  0.9981
 1009TIP3    H227223   0.641   6.397  12.554  2.0009 -0.8199  0.2886
 1010TIP3   OH227224   5.997   5.310  11.097  0.0248  0.2887 -0.5883
 1010TIP3    H127225   5.960   5.382  11.147  0.0926 -0.3322  0.3830
 1010TIP3    H227226   6.002   5.343  11.007  0.6948  1.7328 -0.0479
 1011TIP3   OH227227   6.809   4.382  11.822  0.5304 -0.0762  0.2655
 1011TIP3    H127228   6.763   4.302  11.795  1.7554 -0.8760  0.4795
 1011TIP3    H227229   6.785   4.394  11.914 -0.7697  0.6234 -0.1303
 1012TIP3   OH227230   2.044   5.595  12.639  0.2929  0.2716 -0.1005
 1012TIP3    H127231   2.046   5.539  12.716  1.1875  1.2463  0.5960
 1012TIP3    H227232   2.094   5.547  12.573  0.4215 -0.0765  0.2496
 1013TIP3   OH227233   2.303   6.037  13.077  0.4172 -0.5550  0.1209
 1013TIP3    H127234   2.319   5.946  13.102 -0.1162 -0.6225  0.2218
 1013TIP3    H227235   2.224   6.033  13.024 -0.3367  0.0051  1.1730
 1014TIP3   OH227236   3.570   4.024  11.749 -0.3764  0.4362  0.3429
 1014TIP3    H127237   3.576   3.928  11.750 -2.2565  0.2767  2.1618
 1014TIP3    H227238   3.600   4.049  11.662  0.3724 -1.7836 -0.0948
 1015TIP3   OH227239   6.695   1.420  11.755  0.4349 -0.6914 -0.2354
 1015TIP3    H127240   6.712   1.408  11.849  1.2828  0.1709 -0.2584
 1015TIP3    H227241   6.723   1.510  11.737  1.1795 -1.1497 -1.5161
 1016TIP3   OH227242   2.883   6.747  10.045  0.2266 -0.0107 -0.2105
 1016TIP3    H127243   2.843   6.760  10.131  1.6998  1.0977  0.3495
 1016TIP3    H227244   2.966   6.703  10.064 -0.3241 -1.5981 -1.2723
 1017TIP3   OH227245   4.230   4.462  11.895 -0.2077  0.1854 -0.2596
 1017TIP3    H127246   4.316   4.428  11.920  0.0654  0.1919 -1.1547
 1017TIP3    H227247   4.169   4.418  11.954  0.3725 -0.1098  0.1295
 1018TIP3   OH227248   5.057   3.223  11.657 -0.0630  0.3444 -0.2663
 1018TIP3    H127249   4.981   3.175  11.691  0.5549  0.1707  0.9214
 1018TIP3    H227250   5.133   3.170  11.684  0.4634 -0.0867 -2.4119
 1019TIP3   OH227251   6.634   3.590  12.599  0.0797  0.1515 -0.3101
 1019TIP3    H127252   6.727   3.603  12.617 -0.1608  1.2133  0.2390
 1019TIP3    H227253   6.604   3.675  12.567 -0.9144  0.1029  0.4690
 1020TIP3   OH227254   1.530   4.646   9.184 -0.4249  0.3548 -0.3926
 1020TIP3    H127255   1.585   4.694   9.122  0.5807 -1.1263 -0.6915
 1020TIP3    H227256   1.482   4.715   9.231 -0.3396  1.5588 -1.9860
 1021TIP3   OH227257   3.868   2.341  11.502  0.0305 -0.2161  0.4557
 1021TIP3    H127258   3.830   2.330  11.590 -0.9731 -0.8989 -0.0437
 1021TIP3    H227259   3.827   2.421  11.469 -0.6152 -0.6715  0.1189
 1022TIP3   OH227260   4.221   1.650  10.264 -0.1033  0.1757  0.0424
 1022TIP3    H127261   4.313   1.644  10.290  0.3545 -1.8436 -1.7792
 1022TIP3    H227262   4.215   1.732  10.216  0.2652  1.2516  1.7500
 1023TIP3   OH227263   6.194   0.994  10.545  0.2730  0.0490 -0.8951
 1023TIP3    H127264   6.176   1.087  10.531 -0.0518  0.0613 -0.4096
 1023TIP3    H227265   6.111   0.958  10.576  0.1645 -0.5672 -1.8335
 1024TIP3   OH227266   4.790   0.870  13.109  0.5799  0.1923  0.3503
 1024TIP3    H127267   4.757   0.786  13.139  0.8869  0.1935  0.7036
 1024TIP3    H227268   4.741   0.935  13.160 -1.6622  0.3642 -1.8589
 1025TIP3   OH227269   3.723   3.748  11.396  0.0819  0.4983  0.5564
 1025TIP3    H127270   3.672   3.741  11.477  0.0918  0.8881  0.5957
 1025TIP3    H227271   3.772   3.666  11.392 -0.7161  0.0135  0.4015
 1026TIP3   OH227272   0.464   1.036  12.676 -0.2053 -0.5432  0.3053
 1026TIP3    H127273   0.458   1.040  12.581 -0.8005 -2.2832  0.2226
 1026TIP3    H227274   0.374   1.029  12.706  0.0338 -2.0821  0.8148
 1027TIP3   OH227275   4.018   0.518  11.735 -0.2244  0.5628 -0.0006
 1027TIP3    H127276   3.948   0.460  11.706 -0.5484  0.1453  1.5332
 1027TIP3    H227277   4.097   0.465  11.728 -0.4571  0.0782  0.9552
 1028TIP3   OH227278   5.365   3.138  11.228  0.3255  0.2609 -0.0370
 1028TIP3    H127279   5.331   3.227  11.237  0.3138  0.2575 -0.0484
 1028TIP3    H227280   5.450   3.140  11.273 -0.0050  0.0893  0.6014
 1029TIP3   OH227281   3.000   1.299  12.643  0.2280  0.3461  0.0888
 1029TIP3    H127282   2.936   1.323  12.577 -1.8962 -0.9523  1.5542
 1029TIP3    H227283   3.071   1.258  12.594 -2.0712 -2.2178 -1.3686
 1030TIP3   OH227284   2.351   6.478  11.695  0.1465  0.1389  0.9215
 1030TIP3    H127285   2.402   6.556  11.716  1.8550 -0.8061  0.4767
 1030TIP3    H227286   2.361   6.422  11.772  1.9665 -1.1092 -0.1530
 1031TIP3   OH227287   5.399   0.795  10.700 -0.7805  0.2117  0.3066
 1031TIP3    H127288   5.350   0.815  10.779 -1.4521  1.9299 -0.4900
 1031TIP3    H227289   5.334   0.759  10.640 -0.4125 -0.4563  0.2993
 1032TIP3   OH227290   2.774   6.619  10.319  0.3082 -0.2690 -0.0478
 1032TIP3    H127291   2.760   6.673  10.397 -0.3601 -2.0721  1.1421
 1032TIP3    H227292   2.722   6.540  10.335  0.1169 -0.6856 -2.3514
 1033TIP3   OH227293   3.719   2.683  10.924  0.1562 -0.5627 -0.1608
 1033TIP3    H127294   3.777   2.673  10.848 -0.0738  0.9803 -0.5757
 1033TIP3    H227295   3.779   2.683  10.999  0.3945 -2.0108 -0.3119
 1034TIP3   OH227296   5.877   0.205  10.105 -0.0600 -0.4798 -0.1258
 1034TIP3    H127297   5.794   0.239  10.071 -0.6163 -1.7571 -0.1224
 1034TIP3    H227298   5.944   0.247  10.052 -0.4586  2.8092  1.6916
 1035TIP3   OH227299   6.528   2.530  13.127 -0.0886  0.0635 -0.1088
 1035TIP3    H127300   6.563   2.615  13.102 -2.2487  0.9288 -0.4459
 1035TIP3    H227301   6.543   2.525  13.222  0.6227  0.5359 -0.1956
 1036TIP3   OH227302   6.418   3.539  11.912  0.4289 -0.2178  0.4550
 1036TIP3    H127303   6.512   3.544  11.896  0.1342 -1.4562 -2.5018
 1036TIP3    H227304   6.398   3.446  11.904 -1.2972  0.2274 -1.4204
 1037TIP3   OH227305   2.133   4.339  11.427 -0.0789  0.8148 -0.1325
 1037TIP3    H127306   2.178   4.312  11.347 -0.6098  0.6065 -0.3670
 1037TIP3    H227307   2.189   4.408  11.464  1.3127 -0.5858  0.5031
 1038TIP3   OH227308   2.861   1.061  12.763  0.5943  0.0234 -0.4900
 1038TIP3    H127309   2.924   1.006  12.811  0.0651  0.2233  0.4672
 1038TIP3    H227310   2.909   1.142  12.746  0.5737  0.2311  0.3644
 1039TIP3   OH227311   2.055   0.750  12.979 -0.1428  0.1333  0.1618
 1039TIP3    H127312   2.038   0.670  13.028 -0.2537  0.1825  0.2017
 1039TIP3    H227313   2.112   0.802  13.036 -0.7246  0.4346  0.4716
 1040TIP3   OH227314   0.001   1.231  11.260 -0.1456 -0.3513 -0.0253
 1040TIP3    H127315  -0.085   1.219  11.300  0.0197 -1.5295  0.0107
 1040TIP3    H227316  -0.006   1.313  11.210 -0.8318  0.3246  1.1394
 1041TIP3   OH227317   0.531   4.254  10.920 -0.2552  0.0831 -0.0347
 1041TIP3    H127318   0.626   4.248  10.930 -0.4281 -2.9217  0.8202
 1041TIP3    H227319   0.509   4.187  10.855 -1.8924 -0.1806  0.7272
 1042TIP3   OH227320   3.497   4.874  11.681 -0.1780 -0.5947 -0.0547
 1042TIP3    H127321   3.499   4.947  11.744  0.1514 -2.0191  1.6536
 1042TIP3    H227322   3.590   4.858  11.661 -0.1390 -1.5349  0.8072
 1043TIP3   OH227323   0.776   6.433  10.457 -0.0802 -0.3562  0.2922
 1043TIP3    H127324   0.751   6.347  10.425  0.4494 -0.6226  0.5710
 1043TIP3    H227325   0.694   6.479  10.471 -0.4829 -1.5280  2.0835
 1044TIP3   OH227326   4.882   1.209  12.524 -0.1459 -0.7203 -0.0946
 1044TIP3    H127327   4.859   1.183  12.435 -0.5881  2.9896 -1.2177
 1044TIP3    H227328   4.824   1.158  12.580 -1.7787 -1.1831 -2.0935
 1045TIP3   OH227329   0.543   4.051  10.724  0.1439  0.6122 -0.1124
 1045TIP3    H127330   0.499   3.996  10.790  1.1529  0.5591  0.5387
 1045TIP3    H227331   0.619   4.000  10.697 -0.1365  0.7371 -1.1744
 1046TIP3   OH227332   0.585   5.736  10.773  0.0536  0.5966  0.6121
 1046TIP3    H127333   0.620   5.647  10.784 -0.4394  0.3572  0.2606
 1046TIP3    H227334   0.586   5.773  10.862  0.3305  0.2676  0.7501
 1047TIP3   OH227335   1.552   2.912  10.194  0.2813  0.0314 -0.1961
 1047TIP3    H127336   1.638   2.888  10.229  0.3779 -0.8355 -0.9651
 1047TIP3    H227337   1.542   3.005  10.213  1.4312  0.1584 -0.1709
 1048TIP3   OH227338   2.436   3.557  10.369  0.0281  0.4746  0.1636
 1048TIP3    H127339   2.349   3.598  10.364  0.3427  1.0472 -0.8984
 1048TIP3    H227340   2.494   3.620  10.326  0.8100 -0.3263  0.0365
 1049TIP3   OH227341   0.965   4.920  11.123 -0.4643  0.3394  0.1936
 1049TIP3    H127342   0.881   4.888  11.154 -0.4604  1.0476  0.9661
 1049TIP3    H227343   1.029   4.856  11.155 -0.7639 -0.6097 -1.0373
 1050TIP3   OH227344   6.263   2.013  11.262  0.2271  0.2309  0.1318
 1050TIP3    H127345   6.345   2.013  11.312  0.1530  1.3424  0.2735
 1050TIP3    H227346   6.256   1.923  11.228  1.6631  0.2031 -0.1574
 1051TIP3   OH227347   2.391   0.235  12.749 -1.1237 -0.9594  0.2406
 1051TIP3    H127348   2.484   0.219  12.764 -1.2467 -0.1825  2.1444
 1051TIP3    H227349   2.351   0.148  12.747 -0.3720 -1.3066 -0.7360
 1052TIP3   OH227350   1.227   5.481  11.251  0.6172 -0.0663  0.2863
 1052TIP3    H127351   1.189   5.400  11.217  1.4862 -0.1886 -0.4280
 1052TIP3    H227352   1.321   5.464  11.255  0.8452  0.9863 -0.1277
 1053TIP3   OH227353   3.830   1.699  12.551  0.5000 -0.0811  0.7238
 1053TIP3    H127354   3.800   1.789  12.534  1.0942  0.2827  1.5340
 1053TIP3    H227355   3.902   1.686  12.490 -1.8075 -1.2989 -1.9172
 1054TIP3   OH227356   0.588   0.427  12.185 -0.4027 -0.2148  0.4756
 1054TIP3    H127357   0.499   0.414  12.219 -1.1437  4.1291  0.7392
 1054TIP3    H227358   0.576   0.471  12.102  1.5730 -1.1328 -0.3607
 1055TIP3   OH227359   3.355   5.161  13.454 -0.2189  0.4537  0.0297
 1055TIP3    H127360   3.389   5.182  13.367 -1.0183  0.7394 -0.2243
 1055TIP3    H227361   3.262   5.142  13.440 -0.1953 -0.2159  0.7212
 1056TIP3   OH227362   1.407   2.748  11.313 -0.4221 -0.4757 -0.1890
 1056TIP3    H127363   1.381   2.832  11.275 -0.5538  0.6813  2.2515
 1056TIP3    H227364   1.497   2.761  11.341 -1.2524 -0.1293  2.6328
 1057TIP3   OH227365   5.220   1.652  12.417 -0.2679 -0.1404  0.0209
 1057TIP3    H127366   5.132   1.672  12.385  0.2329  1.1704 -0.6023
 1057TIP3    H227367   5.276   1.657  12.340  0.4547 -0.3422  0.5189
 1058TIP3   OH227368   3.696   4.057  10.631 -0.3589 -0.6756 -0.0458
 1058TIP3    H127369   3.703   3.966  10.659 -0.9860 -0.4273  1.0004
 1058TIP3    H227370   3.602   4.076  10.635 -0.2150  0.0790 -0.0240
 1059TIP3   OH227371   6.802   0.374  13.039 -0.1681  0.4168 -0.2496
 1059TIP3    H127372   6.844   0.347  12.957 -0.6594 -1.1252 -0.0202
 1059TIP3    H227373   6.829   0.465  13.050  0.5729  0.4101 -1.7006
 1060TIP3   OH227374   1.692   4.207  12.807  0.0834  0.1634  0.6733
 1060TIP3    H127375   1.609   4.245  12.781 -0.3209 -1.2499 -0.2319
 1060TIP3    H227376   1.687   4.200  12.902  0.1687  2.2649  0.8721
 1061TIP3   OH227377   6.380   2.521  11.074  0.6202 -0.3954  1.1758
 1061TIP3    H127378   6.371   2.427  11.089  1.4125 -0.7917 -0.6213
 1061TIP3    H227379   6.467   2.531  11.034  0.1847  0.9985  0.5275
 1062TIP3   OH227380   3.425   1.164   9.789 -0.6658  0.9822 -0.2211
 1062TIP3    H127381   3.377   1.247   9.791  0.8294  1.8888  0.3027
 1062TIP3    H227382   3.447   1.148   9.881 -2.1376 -0.7662 -0.1333
 1063TIP3   OH227383   6.774   4.632  11.755  1.1398 -0.4566  0.1746
 1063TIP3    H127384   6.764   4.549  11.801  1.9916 -0.2441  0.7849
 1063TIP3    H227385   6.869   4.639  11.741  0.9123 -0.4529 -1.5194
 1064TIP3   OH227386   3.413   2.617  11.667  0.2546  0.1203 -0.3826
 1064TIP3    H127387   3.429   2.604  11.761  1.1477 -0.1090 -0.5648
 1064TIP3    H227388   3.459   2.545  11.624 -1.7975 -0.9757 -0.9097
 1065TIP3   OH227389   1.004   4.518  12.098  0.3780 -0.1284  0.0385
 1065TIP3    H127390   1.091   4.487  12.125  0.4292  0.1502  0.2005
 1065TIP3    H227391   0.943   4.454  12.134  0.3796  0.6644  1.5501
 1066TIP3   OH227392   5.738   2.466  11.057 -0.0033  0.1968  0.1449
 1066TIP3    H127393   5.820   2.490  11.015 -1.8202  1.9398 -2.7090
 1066TIP3    H227394   5.723   2.534  11.123  1.2117 -0.6447  1.3378
 1067TIP3   OH227395   4.620   2.044  13.073  0.0979  0.0863  0.6650
 1067TIP3    H127396   4.554   2.058  13.141 -1.4993 -0.3617 -0.7239
 1067TIP3    H227397   4.653   2.131  13.052 -2.2232  0.7152 -0.6634
 1068TIP3   OH227398   0.393   2.741  11.875 -0.4979 -0.4106 -0.2732
 1068TIP3    H127399   0.335   2.795  11.928 -3.1470 -1.0883 -2.2837
 1068TIP3    H227400   0.415   2.796  11.800 -0.0078 -0.7910 -0.4141
 1069TIP3   OH227401   5.147   0.911  13.385  0.3936 -0.3226 -0.2775
 1069TIP3    H127402   5.069   0.966  13.395 -0.4876 -1.7196  1.1387
 1069TIP3    H227403   5.122   0.827  13.426  2.7397 -0.7177  0.4860
 1070TIP3   OH227404   2.144   5.176  11.684  0.1528 -0.0727 -0.3005
 1070TIP3    H127405   2.092   5.226  11.621 -0.2664  2.7602  2.1242
 1070TIP3    H227406   2.235   5.199  11.663 -0.0123  1.3387  0.4540
 1071TIP3   OH227407   1.250   4.413  12.112  0.5481 -0.1012  0.0305
 1071TIP3    H127408   1.243   4.319  12.124  0.0021 -0.1894 -0.8932
 1071TIP3    H227409   1.320   4.440  12.171 -0.4482 -0.8211  1.5966
 1072TIP3   OH227410   1.067   3.540  10.705  0.3528 -0.2391  0.1593
 1072TIP3    H127411   1.052   3.521  10.612  1.1566  1.7224 -0.4218
 1072TIP3    H227412   1.140   3.601  10.706  1.4768 -1.4909  2.2374
 1073TIP3   OH227413   6.749   1.743  13.066  0.0027 -0.1405  0.2704
 1073TIP3    H127414   6.750   1.694  12.984 -0.7197  1.0865 -0.4904
 1073TIP3    H227415   6.781   1.681  13.131  0.2923 -1.2292 -0.8807
 1074TIP3   OH227416   0.196   1.303  12.713 -0.1380 -0.4705  0.4856
 1074TIP3    H127417   0.215   1.281  12.622  1.1174  1.6414  0.1839
 1074TIP3    H227418   0.267   1.362  12.739 -1.3974  0.3193  2.3083
 1075TIP3   OH227419   5.622   6.669  11.663  0.3216 -0.3430  0.1837
 1075TIP3    H127420   5.616   6.633  11.752  0.9358 -0.7733  0.0547
 1075TIP3    H227421   5.715   6.686  11.650  0.2787 -0.6175 -0.5128
 1076TIP3   OH227422   3.505   2.244  10.554 -0.1260 -0.0249  0.3366
 1076TIP3    H127423   3.433   2.188  10.585 -0.6249 -0.4978 -1.5135
 1076TIP3    H227424   3.559   2.185  10.501  0.5963  0.7524  0.1954
 1077TIP3   OH227425   6.428   5.482   9.862 -0.6563  0.3476 -0.0508
 1077TIP3    H127426   6.450   5.575   9.864  1.5414 -0.1228  0.7626
 1077TIP3    H227427   6.512   5.438   9.873 -1.8531 -1.7272  1.3730
 1078TIP3   OH227428   3.273   0.932  11.027 -0.6879 -0.2252 -0.1078
 1078TIP3    H127429   3.356   0.904  11.066  0.3200  1.4454 -0.9550
 1078TIP3    H227430   3.264   1.024  11.051 -0.8110  0.4339 -2.3687
 1079TIP3   OH227431   5.126   5.503  11.618  0.1786  0.6878  0.3029
 1079TIP3    H127432   5.093   5.458  11.696 -1.9544 -2.2855 -2.0621
 1079TIP3    H227433   5.216   5.472  11.609  0.2388  0.5642  1.1970
 1080TIP3   OH227434   0.151   6.028  10.835 -0.0230 -1.0494  0.0063
 1080TIP3    H127435   0.079   6.081  10.800  0.9337  0.9866  0.9775
 1080TIP3    H227436   0.218   6.032  10.767  0.5412  0.0827  0.6179
 1081TIP3   OH227437   2.562   4.451  11.197 -0.0364 -0.0828  0.3163
 1081TIP3    H127438   2.519   4.480  11.278 -0.7450 -0.2595  0.0018
 1081TIP3    H227439   2.606   4.370  11.222 -0.0147  0.0098  0.5928
 1082TIP3   OH227440   5.140   1.168  12.699  0.3906 -0.1885  0.5877
 1082TIP3    H127441   5.147   1.243  12.641  0.3217  1.4494  2.5843
 1082TIP3    H227442   5.081   1.108  12.653  0.2373  1.0720 -0.9549
 1083TIP3   OH227443   1.752   5.309  12.375 -0.5421  0.0327 -0.5310
 1083TIP3    H127444   1.804   5.360  12.313  0.0608 -1.1755 -1.0609
 1083TIP3    H227445   1.768   5.218  12.350 -1.7730 -0.4199  0.2270
 1084TIP3   OH227446   3.843   3.770  11.017 -0.1945  0.4290  0.1050
 1084TIP3    H127447   3.751   3.761  11.041 -1.3112  0.8398 -3.3467
 1084TIP3    H227448   3.868   3.683  10.985 -0.3344  0.9883 -1.6173
 1085TIP3   OH227449   5.023   0.294  10.746  0.3738  0.3050 -0.1494
 1085TIP3    H127450   5.038   0.339  10.829  0.2121 -0.3509  0.2506
 1085TIP3    H227451   4.934   0.319  10.721  0.7679  1.2563 -0.6184
 1086TIP3   OH227452   0.277   3.304  12.928 -0.3099  0.1801  0.3371
 1086TIP3    H127453   0.353   3.343  12.972 -0.1291  0.1583  0.0420
 1086TIP3    H227454   0.223   3.378  12.903  1.0054  0.4199 -2.0600
 1087TIP3   OH227455   1.092   5.836  10.261 -0.0226  0.0083  0.3836
 1087TIP3    H127456   1.072   5.806  10.172  1.9081  0.0749 -0.1367
 1087TIP3    H227457   1.179   5.799  10.279  0.8819  2.3173  1.1279
 1088TIP3   OH227458   4.386   3.987  11.358  0.5585  0.1408  0.4315
 1088TIP3    H127459   4.402   3.993  11.264  0.7277  0.3009  0.4700
 1088TIP3    H227460   4.303   4.032  11.371  0.5520  0.1491  0.3619
 1089TIP3   OH227461   6.810   2.741  11.472 -0.8741  0.1149 -0.1485
 1089TIP3    H127462   6.722   2.730  11.437 -0.6489 -3.0882  0.0568
 1089TIP3    H227463   6.800   2.733  11.567 -0.3666 -0.1864 -0.1175
 1090TIP3   OH227464   3.593   5.508  10.634  0.7103  0.4879  0.7424
 1090TIP3    H127465   3.527   5.464  10.580  0.2896  0.3714  1.3488
 1090TIP3    H227466   3.556   5.508  10.722  1.8467 -0.2274  1.2310
 1091TIP3   OH227467   4.810   5.359  12.732  0.1946  0.3486  0.6498
 1091TIP3    H127468   4.751   5.340  12.659  0.5250  1.8941 -0.0540
 1091TIP3    H227469   4.752   5.370  12.808 -0.0805 -2.3836  0.9414
 1092TIP3   OH227470   1.525   4.743  10.243  0.1510 -0.0664 -0.1281
 1092TIP3    H127471   1.456   4.782  10.297 -0.7582 -0.2229 -1.1301
 1092TIP3    H227472   1.600   4.735  10.302 -0.1440  1.6794  0.5261
 1093TIP3   OH227473   2.743   6.250  12.665 -0.0392 -0.1132  0.1988
 1093TIP3    H127474   2.824   6.259  12.715  0.4575 -0.4053 -0.5420
 1093TIP3    H227475   2.729   6.336  12.626  0.7178 -0.4402 -0.8548
 1094TIP3   OH227476   6.777   0.314  10.220 -0.0080  0.1076  0.3479
 1094TIP3    H127477   6.730   0.374  10.162  0.1614 -1.3918 -1.4209
 1094TIP3    H227478   6.866   0.312  10.185 -0.1177 -1.4652  0.0857
 1095TIP3   OH227479   2.157   4.941  11.842 -0.4595 -0.0971  0.1054
 1095TIP3    H127480   2.145   4.887  11.764 -1.5596 -0.5456  0.5782
 1095TIP3    H227481   2.178   5.028  11.807  0.2521 -0.5636 -0.6669
 1096TIP3   OH227482   5.284   3.059  11.684  0.3566 -0.3362 -0.7530
 1096TIP3    H127483   5.278   2.965  11.664 -1.4363 -0.3847 -0.2130
 1096TIP3    H227484   5.340   3.064  11.761 -0.9949 -1.1750  0.3229
 1097TIP3   OH227485   0.589   4.725  12.173 -0.3089  0.5327 -0.0378
 1097TIP3    H127486   0.550   4.790  12.115  0.8569  0.6525 -0.7145
 1097TIP3    H227487   0.683   4.730  12.155  0.0065  0.0710  1.3485
 1098TIP3   OH227488   3.644   3.959  10.089 -0.2164  0.1735 -0.3373
 1098TIP3    H127489   3.651   3.910  10.007  0.3984  1.9068 -1.3722
 1098TIP3    H227490   3.570   3.919  10.135  1.2991 -2.8107 -0.3003
 1099TIP3   OH227491   5.809   3.259  10.784  0.2240 -0.5620  0.1626
 1099TIP3    H127492   5.847   3.187  10.834  1.5748  0.2544  0.3568
 1099TIP3    H227493   5.885   3.305  10.747 -0.6892 -0.6191 -1.9367
 1100TIP3   OH227494   1.880   0.094  13.315  0.2359 -0.4096 -0.5557
 1100TIP3    H127495   1.957   0.124  13.363 -1.4007 -0.2507  2.1805
 1100TIP3    H227496   1.916   0.042  13.243  2.9048  0.5312 -0.0266
 1101TIP3   OH227497   3.750   1.954  10.242  0.6390  0.3017  0.7366
 1101TIP3    H127498   3.705   2.034  10.270 -0.3492 -0.3795  1.1422
 1101TIP3    H227499   3.725   1.943  10.151  2.3594  1.4971  0.0578
 1102TIP3   OH227500   5.440   6.505  13.023 -0.0300  0.1520 -0.3930
 1102TIP3    H127501   5.453   6.598  13.043  0.3597  0.4409 -1.8556
 1102TIP3    H227502   5.447   6.500  12.927 -1.9286 -1.0827 -0.5241
 1103TIP3   OH227503   4.524   5.256  10.497 -0.3792  0.3076 -0.0144
 1103TIP3    H127504   4.577   5.206  10.559  0.3650 -0.7598 -1.4429
 1103TIP3    H227505   4.500   5.192  10.430 -0.8768  1.4979 -1.0038
 1104TIP3   OH227506   3.628   1.348  11.507  0.4420  0.1533  0.1553
 1104TIP3    H127507   3.710   1.318  11.467 -0.3838 -2.3436  0.1529
 1104TIP3    H227508   3.561   1.323  11.443 -0.5258 -0.0731  1.2373
 1105TIP3   OH227509   1.481   1.871  12.482  0.2300 -0.3539  0.4256
 1105TIP3    H127510   1.483   1.833  12.394 -0.7274 -1.0164  0.6836
 1105TIP3    H227511   1.552   1.935  12.481  1.0467 -1.2284 -0.4319
 1106TIP3   OH227512   3.739   6.121  12.927 -0.3158 -0.1578 -0.2602
 1106TIP3    H127513   3.761   6.028  12.930  0.3600 -0.0164 -0.5081
 1106TIP3    H227514   3.713   6.143  13.016  0.4155 -0.3818  0.0169
 1107TIP3   OH227515   2.203   4.874  13.221  0.4457  0.2267  0.0627
 1107TIP3    H127516   2.113   4.842  13.208  0.5223  0.0494 -0.0335
 1107TIP3    H227517   2.248   4.802  13.265  0.5911  0.2417 -0.0603
 1108TIP3   OH227518   4.924   3.029  12.786  0.2063 -0.0649 -0.2782
 1108TIP3    H127519   4.841   3.028  12.739  0.1408  3.5309 -0.5466
 1108TIP3    H227520   4.921   3.110  12.837  3.1425 -0.3450  0.5040
 1109TIP3   OH227521   2.828   2.368  13.303 -0.1549 -0.2487  0.0843
 1109TIP3    H127522   2.908   2.395  13.348 -0.0617 -1.0614  0.4172
 1109TIP3    H227523   2.790   2.301  13.360 -1.8293  1.1341  0.6535
 1110TIP3   OH227524   0.748   6.178  11.517  0.3555 -0.1104  0.3044
 1110TIP3    H127525   0.690   6.254  11.514 -0.6629 -0.9017 -1.5230
 1110TIP3    H227526   0.695   6.109  11.558 -0.0487 -0.8184 -1.3174
 1111TIP3   OH227527   1.210   6.771  12.603  0.0270  0.1516  0.0664
 1111TIP3    H127528   1.193   6.677  12.612 -1.0737  0.3806  0.4586
 1111TIP3    H227529   1.219   6.803  12.693  0.5690  0.3965 -0.0719
 1112TIP3   OH227530   2.518   4.233  11.983 -0.5309  0.3294 -0.0112
 1112TIP3    H127531   2.575   4.162  12.013  1.1394  1.0859 -1.2287
 1112TIP3    H227532   2.526   4.301  12.050  0.0318  0.4430 -0.1925
 1113TIP3   OH227533   6.570   3.769   9.790 -0.7688  0.0046  0.8295
 1113TIP3    H127534   6.474   3.777   9.793 -0.6702  0.9651  3.2060
 1113TIP3    H227535   6.590   3.698   9.850  0.0451  0.3334  0.9562
 1114TIP3   OH227536   5.060   6.601  12.009  0.1112  0.1570  0.1775
 1114TIP3    H127537   5.141   6.551  12.015  0.6453  1.0961  1.2540
 1114TIP3    H227538   5.051   6.644  12.094 -1.3119  0.3993 -0.0583
 1115TIP3   OH227539   0.908   3.406  11.335  0.6515 -0.2163 -0.0459
 1115TIP3    H127540   0.842   3.471  11.358  0.7818 -0.0939 -0.0159
 1115TIP3    H227541   0.887   3.330  11.388  1.7906  0.5402  1.5673
 1116TIP3   OH227542   5.925   1.616  11.349 -0.0439  0.6565 -0.1271
 1116TIP3    H127543   5.919   1.703  11.309 -0.0925  0.9972  0.5940
 1116TIP3    H227544   5.993   1.625  11.415  0.4882 -0.0768 -0.5661
 1117TIP3   OH227545   0.193   4.820  11.010  0.4397  0.5894 -0.1827
 1117TIP3    H127546   0.265   4.829  11.072  0.2127  0.3328  0.1214
 1117TIP3    H227547   0.120   4.867  11.050 -0.2933 -1.1956  0.6842
 1118TIP3   OH227548   0.894   5.511  10.609 -0.4693  0.0545  0.3876
 1118TIP3    H127549   0.933   5.597  10.626  0.3164 -0.3468  0.6603
 1118TIP3    H227550   0.817   5.507  10.666 -0.4192  0.5114  0.4882
 1119TIP3   OH227551   3.998   3.436  12.591 -0.0449 -0.4756 -0.2019
 1119TIP3    H127552   4.087   3.459  12.565 -0.0277  0.9536  0.9562
 1119TIP3    H227553   3.994   3.341  12.586  1.5232 -0.5482 -0.3486
 1120TIP3   OH227554   0.848   3.819  10.517  0.7336 -0.4810 -0.0422
 1120TIP3    H127555   0.940   3.802  10.536  1.4870  1.6941 -1.4661
 1120TIP3    H227556   0.811   3.845  10.601  1.5061 -0.8981  0.4464
 1121TIP3   OH227557   2.788   5.878  10.018  0.2127 -0.4551 -0.2950
 1121TIP3    H127558   2.705   5.926  10.020  0.7472  0.6200 -1.6098
 1121TIP3    H227559   2.802   5.860   9.925  2.6771  1.6893 -0.4586
 1122TIP3   OH227560   3.044   0.548   9.840  0.5052 -0.4886  0.1807
 1122TIP3    H127561   3.132   0.582   9.859  1.0554 -1.1848 -1.0024
 1122TIP3    H227562   3.038   0.549   9.744 -0.2765 -1.6448  0.1940
 1123TIP3   OH227563   2.446   3.823  12.902  0.0301  0.6457  0.3959
 1123TIP3    H127564   2.494   3.742  12.881  1.8484  1.5739  0.7828
 1123TIP3    H227565   2.392   3.799  12.977  1.7833  0.1688  1.5692
 1124TIP3   OH227566   6.103   1.263  12.787  0.0490  0.4312 -0.0486
 1124TIP3    H127567   6.045   1.195  12.821 -1.0066  1.1063 -0.4378
 1124TIP3    H227568   6.191   1.233  12.809 -0.2789 -1.7887 -1.4487
 1125TIP3   OH227569   2.988   4.485  12.759  0.3343 -0.5534  0.0515
 1125TIP3    H127570   3.050   4.412  12.768  0.1053 -1.3090 -3.2240
 1125TIP3    H227571   2.987   4.504  12.666 -2.1777  1.4493  0.3831
 1126TIP3   OH227572   6.606   4.617  12.737 -0.3976  0.0025  0.2681
 1126TIP3    H127573   6.611   4.654  12.825  0.8724  0.8086 -0.1152
 1126TIP3    H227574   6.697   4.614  12.707 -0.7521 -0.8628 -0.7753
 1127TIP3   OH227575   3.075   3.792  12.163 -0.0712  0.4178  0.5340
 1127TIP3    H127576   3.027   3.851  12.106  0.8185 -1.4374 -2.3565
 1127TIP3    H227577   3.053   3.704  12.131  2.1777 -0.6322  1.6371
 1128TIP3   OH227578   1.123   6.711  11.530 -0.4507 -0.1906  0.4827
 1128TIP3    H127579   1.200   6.743  11.576 -0.3992  0.6309 -0.1368
 1128TIP3    H227580   1.157   6.652  11.463 -0.3398  0.1877  0.1961
 1129TIP3   OH227581   0.447   4.491  11.701 -0.1192 -0.1227  0.1723
 1129TIP3    H127582   0.542   4.479  11.708  0.0307  1.3901  1.2566
 1129TIP3    H227583   0.411   4.442  11.775  0.0722  1.4167  1.3538
 1130TIP3   OH227584   3.151   4.675  11.597 -0.0052  0.2874  0.3129
 1130TIP3    H127585   3.245   4.676  11.578 -0.2205 -1.2912 -1.0602
 1130TIP3    H227586   3.140   4.738  11.669  2.0383  0.7393  0.2794
 1131TIP3   OH227587   2.933   6.638  12.655  0.2986  0.0921  0.3364
 1131TIP3    H127588   2.871   6.602  12.719  0.7113  0.7615  1.1212
 1131TIP3    H227589   2.924   6.733  12.664 -1.4813  0.2905 -2.3793
 1132TIP3   OH227590   5.277   0.765  11.772 -0.1757  0.1071  0.3931
 1132TIP3    H127591   5.271   0.675  11.802 -1.0738  0.0668  0.1107
 1132TIP3    H227592   5.272   0.818  11.852  2.0746 -0.1049  0.7508
 1133TIP3   OH227593   2.886   1.746   9.708 -0.4316 -0.2667  0.1145
 1133TIP3    H127594   2.876   1.835   9.675 -1.7387 -0.8572 -1.1754
 1133TIP3    H227595   2.854   1.750   9.798  1.2881  0.9298  0.7397
 1134TIP3   OH227596   3.566   1.783  12.789 -0.9676 -0.0510  0.2567
 1134TIP3    H127597   3.587   1.874  12.811 -1.2195  0.2620 -0.7884
 1134TIP3    H227598   3.522   1.788  12.705  0.9337 -1.3141 -0.8718
 1135TIP3   OH227599   4.349   2.303  11.547 -0.1360  0.1752 -0.4014
 1135TIP3    H127600   4.412   2.252  11.497  1.0075  0.5536  0.6024
 1135TIP3    H227601   4.311   2.363  11.484 -1.1272 -1.5272 -1.4975
 1136TIP3   OH227602   0.683   5.947  10.146 -0.6519  0.4231  0.2063
 1136TIP3    H127603   0.683   6.031  10.101 -3.3626 -0.1867 -1.1687
 1136TIP3    H227604   0.617   5.957  10.215  0.0420 -0.1414  0.9650
 1137TIP3   OH227605   6.798   4.227  11.419 -0.6012 -0.3450 -0.2775
 1137TIP3    H127606   6.783   4.167  11.346  0.9116 -0.9710 -0.1168
 1137TIP3    H227607   6.734   4.200  11.485 -1.0273 -0.7049 -0.8182
 1138TIP3   OH227608   0.728   0.211  12.016 -0.1379 -0.6557  0.1568
 1138TIP3    H127609   0.783   0.248  12.086  0.0798 -0.1034 -0.2969
 1138TIP3    H227610   0.749   0.118  12.016  1.1043 -0.3940 -0.2736
 1139TIP3   OH227611   6.015   3.364  10.603  0.8867 -0.0100  0.2807
 1139TIP3    H127612   6.000   3.441  10.549 -1.0920 -0.5486 -0.0338
 1139TIP3    H227613   6.090   3.320  10.563  1.7011  1.4502  0.1580
 1140TIP3   OH227614   1.233   6.770  10.008  0.4093  0.7255  0.4578
 1140TIP3    H127615   1.293   6.731   9.944  0.0296  0.0950  0.4857
 1140TIP3    H227616   1.162   6.806   9.955  0.8438  1.5523  0.4182
 1141TIP3   OH227617   5.415   5.505  11.279 -0.1877 -0.2120 -0.3487
 1141TIP3    H127618   5.431   5.418  11.314 -1.2667 -0.1368  0.4062
 1141TIP3    H227619   5.477   5.561  11.326 -0.4964 -0.3643  0.2558
 1142TIP3   OH227620   0.682   2.582  11.023  0.4956  0.0600  0.3418
 1142TIP3    H127621   0.764   2.632  11.029  1.0405 -0.8220  0.4945
 1142TIP3    H227622   0.668   2.551  11.113 -0.2299  0.5395  0.3996
 1143TIP3   OH227623   4.482   5.280  10.133 -0.5818  0.2045  0.2826
 1143TIP3    H127624   4.518   5.355  10.085  0.8959 -0.7814 -0.1896
 1143TIP3    H227625   4.390   5.303  10.147 -0.9455  0.7765 -2.5507
 1144TIP3   OH227626   0.833   6.817  12.703 -0.0836 -0.8743  0.1981
 1144TIP3    H127627   0.899   6.860  12.647  0.7641 -0.8797  1.1697
 1144TIP3    H227628   0.880   6.795  12.783 -1.2305 -1.0803  0.8314
 1145TIP3   OH227629   1.466   2.164  10.324  0.0391 -0.1029 -0.5816
 1145TIP3    H127630   1.384   2.144  10.370 -0.1865  0.1059 -0.8887
 1145TIP3    H227631   1.447   2.143  10.233  0.4623 -0.4472 -0.5914
 1146TIP3   OH227632   1.516   3.197   9.762 -0.1185 -0.0804  0.0533
 1146TIP3    H127633   1.558   3.119   9.797 -1.1155 -1.0541 -0.8555
 1146TIP3    H227634   1.571   3.223   9.688  0.8440  0.7802  1.0311
 1147TIP3   OH227635   3.297   1.238  11.950 -0.3739 -0.1417 -0.0481
 1147TIP3    H127636   3.343   1.312  11.910  0.3909 -1.6392 -2.0854
 1147TIP3    H227637   3.360   1.165  11.945 -0.6078 -0.7149  3.0503
 1148TIP3   OH227638   4.122   1.423  12.761 -0.6782  0.1047  0.3564
 1148TIP3    H127639   4.063   1.409  12.835  1.6832 -1.7717  2.0680
 1148TIP3    H227640   4.204   1.451  12.801 -0.3366  2.8378 -1.9252
 1149TIP3   OH227641   2.289   5.730  10.305 -0.1653  0.3394 -0.5195
 1149TIP3    H127642   2.305   5.714  10.398 -0.7110 -2.6296 -0.8157
 1149TIP3    H227643   2.286   5.825  10.296  0.7324  0.7151  2.3288
 1150TIP3   OH227644   0.288   3.494  13.281  0.2668  0.2596 -0.0942
 1150TIP3    H127645   0.211   3.448  13.249 -0.1776  1.5345 -0.9356
 1150TIP3    H227646   0.286   3.482  13.376 -0.9245  0.2318 -0.1148
 1151TIP3   OH227647   5.546   1.524  11.159 -0.1246 -0.5101  0.3954
 1151TIP3    H127648   5.595   1.529  11.241  0.4638  2.3745 -0.0229
 1151TIP3    H227649   5.557   1.433  11.130  2.4562 -0.7586  1.8545
 1152TIP3   OH227650   0.503   6.676  12.261  0.3804  0.4258 -0.2347
 1152TIP3    H127651   0.550   6.668  12.178  0.8140  0.4724  0.0062
 1152TIP3    H227652   0.510   6.768  12.284  0.7968  0.2935  0.1709
 1153TIP3   OH227653   4.860   3.556  12.590  0.5257  0.2355  0.1486
 1153TIP3    H127654   4.887   3.481  12.537 -0.1440 -0.6454  1.0243
 1153TIP3    H227655   4.773   3.578  12.559  0.7428  0.6935 -0.1427
 1154TIP3   OH227656   2.380   5.573   9.356  0.1746 -0.4989 -0.1277
 1154TIP3    H127657   2.323   5.599   9.284  0.8432  0.2639 -0.3919
 1154TIP3    H227658   2.453   5.634   9.352  1.4333 -1.9492 -0.2976
 1155TIP3   OH227659   6.838   5.039  12.848 -0.0465  0.3235  0.3403
 1155TIP3    H127660   6.896   5.114  12.834 -1.6855  1.1961 -2.7493
 1155TIP3    H227661   6.768   5.073  12.904  1.6230 -0.3739  2.9934
 1156TIP3   OH227662   0.244   5.696  11.828 -0.2320  0.1205  0.6782
 1156TIP3    H127663   0.211   5.613  11.863 -0.7978 -0.3364 -0.8490
 1156TIP3    H227664   0.175   5.728  11.770  0.8128  0.5927 -0.3659
 1157TIP3   OH227665   4.937   1.343  12.943 -0.4978  0.0614  0.1289
 1157TIP3    H127666   4.889   1.415  12.984  0.2211 -0.5041  2.0811
 1157TIP3    H227667   4.869   1.281  12.916 -1.1725  1.6016 -2.0511
 1158TIP3   OH227668   0.028   4.199  10.999 -0.3236 -0.1996 -0.6045
 1158TIP3    H127669  -0.002   4.218  11.088 -0.3303  1.1521 -0.8868
 1158TIP3    H227670  -0.047   4.218  10.943 -0.3811 -1.2239 -0.9049
 1159TIP3   OH227671   6.206   0.571  11.272  0.0306  0.4434  0.3210
 1159TIP3    H127672   6.214   0.660  11.237  0.0056 -0.0176 -0.8891
 1159TIP3    H227673   6.294   0.536  11.268  0.1752  0.6437  1.4743
 1160TIP3   OH227674   4.189   6.279  12.993 -0.7033 -0.8935 -0.0324
 1160TIP3    H127675   4.177   6.190  12.961 -0.1868 -0.4758 -1.4485
 1160TIP3    H227676   4.282   6.297  12.979 -0.1171 -1.1282  2.9446
 1161TIP3   OH227677   4.664   5.740  11.077 -0.4139  0.1899  0.5032
 1161TIP3    H127678   4.635   5.791  11.152 -0.9486 -1.2811  1.3367
 1161TIP3    H227679   4.760   5.750  11.078 -0.4174  0.2548  1.3396
 1162TIP3   OH227680   4.600   4.479  12.945  0.2614 -0.0635  0.6167
 1162TIP3    H127681   4.683   4.526  12.957  0.5152 -0.6691  1.3112
 1162TIP3    H227682   4.623   4.387  12.962 -0.4970 -0.2650  0.5518
 1163TIP3   OH227683   1.472   3.475  12.760 -0.3917 -0.4698  0.1297
 1163TIP3    H127684   1.377   3.466  12.755 -0.4833  0.2253  0.5098
 1163TIP3    H227685   1.488   3.529  12.837  0.4387 -2.3371  1.3386
 1164TIP3   OH227686   6.580   1.484  11.375 -0.2921  0.2835 -0.4445
 1164TIP3    H127687   6.561   1.392  11.398 -1.0135  0.7812  1.1019
 1164TIP3    H227688   6.542   1.534  11.447  2.7003  1.6579  0.3515
 1165TIP3   OH227689   2.976   6.474   9.892 -0.1624 -0.3847 -0.3555
 1165TIP3    H127690   3.017   6.528   9.959 -2.4374  0.8961  0.1002
 1165TIP3    H227691   2.962   6.533   9.818 -0.9310 -0.8258 -0.5779
 1166TIP3   OH227692   2.366   5.540  11.832 -0.2744  0.7308  0.0683
 1166TIP3    H127693   2.332   5.491  11.757  0.2799  2.3403 -1.3112
 1166TIP3    H227694   2.362   5.479  11.905 -1.2244 -0.7736 -1.1843
 1167TIP3   OH227695   2.267   3.895   9.208 -0.1880  0.3763  0.4579
 1167TIP3    H127696   2.252   3.828   9.141  2.5576 -0.6939  0.7879
 1167TIP3    H227697   2.182   3.939   9.217 -1.3429 -1.1696 -1.8009
 1168TIP3   OH227698   4.187   1.518  11.174 -0.0768  0.6710  0.3460
 1168TIP3    H127699   4.266   1.536  11.125 -0.6354  0.5275 -0.6317
 1168TIP3    H227700   4.203   1.556  11.261  0.0055  3.0864 -0.6629
 1169TIP3   OH227701   4.930   6.482  10.822  0.3303  0.5247  0.0494
 1169TIP3    H127702   4.890   6.417  10.764 -1.0413  1.9771 -0.7136
 1169TIP3    H227703   5.012   6.506  10.780  0.2146  0.2334 -0.3436
 1170TIP3   OH227704   4.568   5.900  11.258  0.0924 -1.2779 -0.6856
 1170TIP3    H127705   4.545   5.879  11.349 -1.0889 -0.2261 -0.7139
 1170TIP3    H227706   4.638   5.965  11.265 -0.5470 -0.5895 -0.4876
 1171TIP3   OH227707   6.319   1.222  11.824 -0.6409  0.4251 -0.6809
 1171TIP3    H127708   6.234   1.231  11.867 -0.2275 -0.6397  0.4414
 1171TIP3    H227709   6.298   1.205  11.732 -1.8022 -2.3656 -0.0163
 1172TIP3   OH227710   2.484   0.450  11.360  0.1228  0.1824 -0.0780
 1172TIP3    H127711   2.444   0.374  11.403  0.6710  0.5967  1.2071
 1172TIP3    H227712   2.428   0.524  11.384 -1.7141 -0.0536 -3.1417
 1173TIP3   OH227713   2.278   4.881   9.225 -0.4418  0.2549 -0.4997
 1173TIP3    H127714   2.341   4.890   9.153  0.1118  0.9486  0.0525
 1173TIP3    H227715   2.216   4.952   9.211  0.4386  1.2297  0.4514
 1174TIP3   OH227716   0.281   1.243  11.145 -0.0171 -0.0192 -0.0554
 1174TIP3    H127717   0.301   1.182  11.074 -0.1047 -2.3612  1.8165
 1174TIP3    H227718   0.187   1.233  11.160 -0.3293  1.6909 -0.6223
 1175TIP3   OH227719   3.937   2.540  12.458  0.1869  0.3021  0.3913
 1175TIP3    H127720   3.946   2.583  12.373  0.4400  0.7875  0.6581
 1175TIP3    H227721   3.900   2.607  12.515  0.6636  0.1966  0.8345
 1176TIP3   OH227722   3.234   1.280  11.516  0.2680  0.4158  0.3553
 1176TIP3    H127723   3.255   1.198  11.560 -0.0802  0.0825 -0.0992
 1176TIP3    H227724   3.269   1.270  11.428  0.7071  0.9730  0.4574
 1177TIP3   OH227725   4.212   5.636  12.075  0.4429  0.1233 -0.0417
 1177TIP3    H127726   4.243   5.670  12.159 -0.3762  0.5198  0.1143
 1177TIP3    H227727   4.167   5.554  12.098  0.1749  0.2571 -0.0833
 1178TIP3   OH227728   3.221   2.627  11.978  0.4471 -0.0734 -0.0123
 1178TIP3    H127729   3.199   2.596  12.066 -0.7086  0.8774  0.0576
 1178TIP3    H227730   3.204   2.552  11.921 -0.2835 -0.2262  0.3992
 1179TIP3   OH227731   1.641   0.270  10.458 -0.0747 -0.0093 -0.0872
 1179TIP3    H127732   1.685   0.304  10.380  0.5525 -1.3185 -0.3227
 1179TIP3    H227733   1.565   0.223  10.423  0.3746 -0.8526  0.0634
 1180TIP3   OH227734   6.009   1.392  10.883 -0.0586 -0.1109 -0.0809
 1180TIP3    H127735   5.943   1.338  10.841  1.0212 -1.2932 -0.3235
 1180TIP3    H227736   6.040   1.451  10.814 -1.4089  1.0263  0.2474
 1181TIP3   OH227737   3.292   2.251  12.880  0.2845 -0.2112  0.3567
 1181TIP3    H127738   3.277   2.157  12.869 -0.3157 -0.4519  2.6151
 1181TIP3    H227739   3.244   2.292  12.809  0.3030 -1.5923 -0.4900
 1182TIP3   OH227740   4.860   3.098  10.996 -0.3533 -0.5518 -0.0642
 1182TIP3    H127741   4.800   3.116  10.924  0.5154 -0.1309 -0.6935
 1182TIP3    H227742   4.812   3.125  11.075 -1.2972 -0.9982 -0.4801
 1183TIP3   OH227743   2.150   1.002  10.661  0.0641 -0.3918  0.8533
 1183TIP3    H127744   2.133   0.921  10.709 -3.8545 -0.6605 -0.6170
 1183TIP3    H227745   2.104   1.070  10.710 -0.8317 -0.0055 -0.4780
 1184TIP3   OH227746   2.132   6.206   9.686  0.2168  0.5116 -0.2517
 1184TIP3    H127747   2.165   6.139   9.745 -0.2756  0.0038 -0.5463
 1184TIP3    H227748   2.198   6.212   9.617 -0.2631 -0.4600 -0.8082
 1185TIP3   OH227749   0.250   3.426  11.908  0.7308 -0.2398 -0.4874
 1185TIP3    H127750   0.331   3.389  11.942  1.1995  0.4398 -0.8282
 1185TIP3    H227751   0.181   3.376  11.950  1.3286 -0.8238 -0.1845
 1186TIP3   OH227752   6.548   4.346  12.880  0.0131  0.4535  0.3824
 1186TIP3    H127753   6.614   4.358  12.812 -0.5446 -0.4518 -0.3394
 1186TIP3    H227754   6.551   4.428  12.930 -0.2342  1.5656 -1.3225
 1187TIP3   OH227755   2.480   4.496  12.155 -0.2779 -0.0689  0.3779
 1187TIP3    H127756   2.493   4.467  12.245  0.1619 -1.7433 -0.1912
 1187TIP3    H227757   2.435   4.580  12.163  1.9253  1.0319  2.2014
 1188TIP3   OH227758   1.316   1.038  11.529  0.0818 -0.2863 -0.2572
 1188TIP3    H127759   1.265   1.030  11.610 -1.5129  0.5950 -1.1238
 1188TIP3    H227760   1.292   1.124  11.494  0.9537 -0.5341 -1.5285
 1189TIP3   OH227761   6.077   6.615  13.227 -0.3619 -0.2112  0.2006
 1189TIP3    H127762   5.984   6.639  13.217 -0.2282  0.2247 -0.0462
 1189TIP3    H227763   6.123   6.699  13.225  0.0727 -0.4539 -0.0605
 1190TIP3   OH227764   6.012   4.277  12.743  0.3930  0.1512 -0.0881
 1190TIP3    H127765   6.094   4.326  12.752  0.0009  1.0407 -1.0748
 1190TIP3    H227766   6.016   4.239  12.655 -0.0893 -0.0899 -0.0087
 1191TIP3   OH227767   3.509   4.381  10.570 -0.0643 -0.6760  0.5457
 1191TIP3    H127768   3.467   4.368  10.485 -0.8567  0.2319  0.7679
 1191TIP3    H227769   3.440   4.360  10.634  0.0612  0.0244  0.9297
 1192TIP3   OH227770   0.401   5.815  12.924  0.4669  0.0883  0.2717
 1192TIP3    H127771   0.382   5.907  12.940 -1.0500  0.0127 -0.9141
 1192TIP3    H227772   0.494   5.814  12.899  0.2948  1.3995 -0.5025
 1193TIP3   OH227773   3.176   1.906  10.530  0.0081 -0.3685 -0.6079
 1193TIP3    H127774   3.180   1.975  10.597 -0.0641  0.5921 -1.5576
 1193TIP3    H227775   3.084   1.904  10.504  0.0281 -0.7720 -0.6450
 1194TIP3   OH227776   1.766   6.812  12.658 -0.6335 -0.0676 -0.4848
 1194TIP3    H127777   1.689   6.772  12.698 -1.9377  0.5949 -2.2352
 1194TIP3    H227778   1.815   6.848  12.732 -2.0618 -0.3887  0.6557
 1195TIP3   OH227779   0.710   3.833  10.793  0.0039 -0.7367 -0.0082
 1195TIP3    H127780   0.749   3.879  10.868  0.3319  1.4812 -1.4562
 1195TIP3    H227781   0.739   3.742  10.804 -0.0206 -0.5261  2.5615
 1196TIP3   OH227782   3.946   2.130  13.351  0.1726 -0.1066  0.2319
 1196TIP3    H127783   3.856   2.142  13.321  0.7929  2.5126 -0.8598
 1196TIP3    H227784   3.947   2.167  13.439 -0.1231 -1.5541  0.8673
 1197TIP3   OH227785   2.144   0.449  12.178 -0.3361 -0.7586  0.0899
 1197TIP3    H127786   2.108   0.536  12.193 -0.7514 -0.7721 -0.7511
 1197TIP3    H227787   2.177   0.421  12.263  0.5414  0.5464  0.2136
 1198TIP3   OH227788   0.189   3.087  10.126  0.1691  0.0533 -0.0935
 1198TIP3    H127789   0.189   3.160  10.064  1.0272  0.1317 -0.0186
 1198TIP3    H227790   0.259   3.029  10.095 -0.7340 -0.9361 -0.3624
 1199TIP3   OH227791   2.363   4.961  12.018  0.0386  0.5310 -0.0728
 1199TIP3    H127792   2.392   5.035  11.964 -1.3722 -0.4679 -2.4063
 1199TIP3    H227793   2.279   4.936  11.979 -0.0250 -1.6312  1.3089
 1200TIP3   OH227794   3.836   3.251  11.706 -0.1436  0.4781  0.3392
 1200TIP3    H127795   3.838   3.171  11.758 -0.1980  0.5666  0.4816
 1200TIP3    H227796   3.870   3.226  11.621 -2.2036 -0.2089 -0.3450
 1201TIP3   OH227797   4.370   3.483  11.101 -0.7275 -0.4551 -0.5955
 1201TIP3    H127798   4.460   3.515  11.103 -0.7383 -0.4343 -0.4700
 1201TIP3    H227799   4.349   3.461  11.192 -1.5661  1.5603 -0.2358
 1202TIP3   OH227800   0.535   4.109  13.000  0.1742  0.3111 -0.2805
 1202TIP3    H127801   0.557   4.158  13.079  0.2809  0.9573 -0.7072
 1202TIP3    H227802   0.501   4.175  12.939  0.7110 -0.0772 -1.0115
 1203TIP3   OH227803   4.885   0.534  11.371  0.0037  0.1173 -0.2328
 1203TIP3    H127804   4.824   0.486  11.427  0.0510  1.1194  0.7286
 1203TIP3    H227805   4.874   0.496  11.284  0.5880 -2.1392  0.5945
 1204TIP3   OH227806   5.570   2.739  12.494  0.2023 -0.5710  0.3395
 1204TIP3    H127807   5.635   2.780  12.438  1.1362 -1.8550  0.4431
 1204TIP3    H227808   5.518   2.812  12.528  1.0786  0.4087 -0.3708
 1205TIP3   OH227809   1.090   2.272  13.171  0.3470 -0.5951 -0.0266
 1205TIP3    H127810   1.112   2.358  13.136  1.1110 -1.3604 -1.4974
 1205TIP3    H227811   1.174   2.227  13.180 -0.0410 -1.1862  0.7533
 1206TIP3   OH227812   6.594   4.304  12.585  0.2880  0.0878  0.7766
 1206TIP3    H127813   6.519   4.267  12.538  1.1421 -1.0219  0.2371
 1206TIP3    H227814   6.572   4.397  12.597 -0.8360 -0.0576 -0.0277
 1207TIP3   OH227815   2.602   1.356  12.870  0.7132 -0.5208 -0.1921
 1207TIP3    H127816   2.587   1.397  12.785 -1.0672 -2.1130 -0.7166
 1207TIP3    H227817   2.567   1.419  12.933 -0.6874 -0.5626 -0.8828
 1208TIP3   OH227818   2.949   3.925  11.943 -0.2638  0.4392 -0.0105
 1208TIP3    H127819   3.016   3.969  11.891  1.1001 -0.4018  0.9502
 1208TIP3    H227820   2.925   3.848  11.892 -0.1978  0.5243 -0.1699
 1209TIP3   OH227821   1.786   2.506  13.005  0.1209 -0.2404  0.7093
 1209TIP3    H127822   1.875   2.541  13.008 -0.2053  0.6301  0.3857
 1209TIP3    H227823   1.752   2.534  12.920 -0.5248 -0.4205  0.9043
 1210TIP3   OH227824   5.089   4.491  10.979  0.1175 -0.0116  0.2489
 1210TIP3    H127825   5.156   4.424  10.962  1.0975  1.1413 -0.6992
 1210TIP3    H227826   5.112   4.562  10.919 -1.8132  0.5431  0.1232
 1211TIP3   OH227827   0.882   0.481  11.513  0.0691  0.1852 -0.3850
 1211TIP3    H127828   0.881   0.385  11.509 -0.0852  0.1373  0.5022
 1211TIP3    H227829   0.829   0.509  11.438 -0.2204 -0.4353 -0.4179
 1212TIP3   OH227830   1.010   2.203  10.259 -0.0146 -0.9011  0.3306
 1212TIP3    H127831   1.054   2.121  10.237  0.8163  0.1421 -2.3109
 1212TIP3    H227832   1.070   2.245  10.321  0.0511 -1.8324  0.9173
 1213TIP3   OH227833   3.920   5.094  13.171 -0.0790  0.6821  0.9433
 1213TIP3    H127834   3.873   5.143  13.239 -1.0401  1.1969 -0.0682
 1213TIP3    H227835   3.979   5.159  13.132 -0.8466  0.8862  0.0771
 1214TIP3   OH227836   3.564   6.732  12.342  0.4761 -0.1779 -0.0727
 1214TIP3    H127837   3.549   6.826  12.331 -0.5676 -0.4476 -1.1039
 1214TIP3    H227838   3.507   6.690  12.278  1.5135 -1.5037 -0.1900
 1215TIP3   OH227839   4.870   0.156  12.159 -0.2421 -0.3229  0.2149
 1215TIP3    H127840   4.871   0.251  12.147  1.5434 -0.3052  0.0983
 1215TIP3    H227841   4.779   0.131  12.146 -0.9305  1.4663  1.1230
 1216TIP3   OH227842   2.270   1.765  10.475 -0.2322  0.3646  0.1408
 1216TIP3    H127843   2.314   1.844  10.505  1.6806 -1.1662  1.6927
 1216TIP3    H227844   2.284   1.701  10.546 -1.2358 -1.5193 -1.2545
 1217TIP3   OH227845   3.422   1.669  12.532  0.9064 -0.0592  0.4842
 1217TIP3    H127846   3.425   1.643  12.440 -1.8956  1.1654 -0.0714
 1217TIP3    H227847   3.353   1.614  12.570 -0.9952  2.2878  0.6933
 1218TIP3   OH227848   6.342   5.230  10.172 -0.4289 -0.3995 -0.1313
 1218TIP3    H127849   6.367   5.306  10.119 -0.7422 -0.2111 -0.0114
 1218TIP3    H227850   6.424   5.201  10.211 -0.2467 -0.3487 -0.4742
 1219TIP3   OH227851   3.173   3.913  10.798  0.3339  0.0980 -0.5281
 1219TIP3    H127852   3.213   3.828  10.812 -0.1558  0.2395  2.4511
 1219TIP3    H227853   3.101   3.916  10.862 -1.4109  1.6883 -2.4282
 1220TIP3   OH227854   1.135   6.767  13.211 -0.2189  0.1007 -0.9095
 1220TIP3    H127855   1.054   6.809  13.182  0.0495  0.8837 -0.5562
 1220TIP3    H227856   1.131   6.678  13.175  0.1561  1.0424 -3.4630
 1221TIP3   OH227857   1.239   6.114  12.769 -0.2603 -0.0328 -0.1449
 1221TIP3    H127858   1.277   6.201  12.760  0.7019 -0.4746 -0.5398
 1221TIP3    H227859   1.182   6.103  12.693  1.8765 -0.8307 -1.7156
 1222TIP3   OH227860   1.037   0.380  12.128  0.2189  0.3033 -0.0315
 1222TIP3    H127861   1.104   0.397  12.194  0.5205  0.8060 -0.4602
 1222TIP3    H227862   1.029   0.463  12.080  0.3976 -0.2105 -0.9762
 1223TIP3   OH227863   0.130   5.694  10.215 -0.6558 -0.5142 -0.0599
 1223TIP3    H127864   0.089   5.756  10.154  0.5658 -0.0904 -0.4871
 1223TIP3    H227865   0.093   5.609  10.191  0.1590 -0.4287 -1.7600
 1224TIP3   OH227866   2.365   5.255  11.276 -0.2832 -0.1859  0.5667
 1224TIP3    H127867   2.411   5.201  11.211 -1.3771  0.6906 -0.9768
 1224TIP3    H227868   2.407   5.232  11.359  1.4715 -1.0022 -0.4866
 1225TIP3   OH227869   4.450   4.255  12.421 -1.1092 -0.6816  0.2873
 1225TIP3    H127870   4.384   4.288  12.360 -0.3893 -0.5691 -0.4660
 1225TIP3    H227871   4.513   4.209  12.365  1.3690  2.2438  0.4080
 1226TIP3   OH227872   2.992   3.517  12.144  0.1211 -0.1365 -0.2696
 1226TIP3    H127873   2.905   3.549  12.165  0.4631 -0.0713  1.2111
 1226TIP3    H227874   2.983   3.421  12.141 -0.2241 -0.0781 -1.3028
 1227TIP3   OH227875   0.935   5.737  11.892  0.5939  0.4187 -0.2838
 1227TIP3    H127876   0.866   5.686  11.849 -0.0706  1.9942 -1.2025
 1227TIP3    H227877   0.986   5.673  11.941  0.1801 -1.2065 -1.8728
 1228TIP3   OH227878   2.152   5.411  12.841  0.1670  0.2468 -0.3530
 1228TIP3    H127879   2.246   5.403  12.856  0.0685  0.2093  0.2721
 1228TIP3    H227880   2.123   5.322  12.823  0.5672  0.5015 -2.5986
 1229TIP3   OH227881   6.253   6.611  10.431 -0.2981 -0.1641 -0.1478
 1229TIP3    H127882   6.269   6.627  10.338  1.2772 -0.4898  0.0245
 1229TIP3    H227883   6.188   6.676  10.457 -0.7771 -0.0906 -1.4735
 1230TIP3   OH227884   5.605   4.050  12.437  0.7884  0.2076  0.5518
 1230TIP3    H127885   5.659   3.971  12.432  2.0910  1.1058 -0.3887
 1230TIP3    H227886   5.666   4.121  12.416 -0.6566  1.3215 -0.0383
 1231TIP3   OH227887   5.333   0.130  10.830  0.1083 -0.6325  0.0128
 1231TIP3    H127888   5.314   0.105  10.740  2.7174 -0.8961 -0.5275
 1231TIP3    H227889   5.283   0.067  10.883 -1.1363 -0.7253 -1.2197
 1232TIP3   OH227890   0.168   4.208   9.750 -0.3816  0.0227 -0.1718
 1232TIP3    H127891   0.216   4.283   9.784  1.1413 -1.7096  1.7974
 1232TIP3    H227892   0.236   4.144   9.727 -1.6130 -2.1933  1.8779
 1233TIP3   OH227893   0.957   3.241  12.049 -0.3536 -0.4265  0.2419
 1233TIP3    H127894   0.877   3.216  12.097  0.1374  1.7575  2.4204
 1233TIP3    H227895   1.028   3.209  12.104  0.2430  0.6773  0.1308
 1234TIP3   OH227896   2.013   3.238  12.512 -0.3244  0.1705  0.3767
 1234TIP3    H127897   2.057   3.308  12.560  0.3218  1.6642 -2.2219
 1234TIP3    H227898   2.054   3.157  12.543  1.7355  1.2627  0.6025
 1235TIP3   OH227899   3.807   5.326  11.105  0.5902  0.0084  0.3487
 1235TIP3    H127900   3.846   5.240  11.090  1.5092  0.6280 -0.9787
 1235TIP3    H227901   3.716   5.316  11.075  0.6769 -0.5096  0.2479
 1236TIP3   OH227902   5.662   1.644  10.921  0.0872  0.1514 -0.1828
 1236TIP3    H127903   5.608   1.578  10.965 -0.6781  0.1502 -1.1182
 1236TIP3    H227904   5.723   1.593  10.868  2.2479  0.0707  2.1732
 1237TIP3   OH227905   4.802   3.567  12.248  0.0882  0.6796 -0.5357
 1237TIP3    H127906   4.850   3.562  12.165 -0.2538  0.6027 -0.7316
 1237TIP3    H227907   4.795   3.476  12.278  0.4705  0.7376 -0.2740
 1238TIP3   OH227908   4.669   0.185  10.293  0.0883 -0.3674  0.4530
 1238TIP3    H127909   4.661   0.090  10.289  1.1849 -0.5469  1.7513
 1238TIP3    H227910   4.721   0.208  10.216  0.1929 -0.8773  0.3694
 1239TIP3   OH227911   3.763   2.093  10.517  0.2642 -0.3636 -0.1555
 1239TIP3    H127912   3.712   2.050  10.586 -0.9998 -1.0898 -1.4950
 1239TIP3    H227913   3.825   2.026  10.489 -0.0877 -0.5095 -0.5935
 1240TIP3   OH227914   3.305   6.213  11.150 -0.3682  0.0132 -0.1572
 1240TIP3    H127915   3.324   6.248  11.237 -0.7514  0.2399 -0.1605
 1240TIP3    H227916   3.216   6.177  11.158 -0.8276  0.9889 -0.7370
 1241TIP3   OH227917   6.068   0.555  10.285 -0.3780  0.5672  0.0894
 1241TIP3    H127918   6.021   0.552  10.369 -0.0895 -1.3469  0.2103
 1241TIP3    H227919   6.144   0.611  10.304 -0.6651  0.7060  0.9086
 1242TIP3   OH227920   3.110   2.552  10.423 -0.4890  0.4169 -0.5721
 1242TIP3    H127921   3.121   2.525  10.514  0.4219  0.8826 -0.5329
 1242TIP3    H227922   3.136   2.475  10.372 -0.6926  0.2637 -0.4486
 1243TIP3   OH227923   6.296   1.304  10.839 -0.2914 -0.1317 -0.0391
 1243TIP3    H127924   6.210   1.310  10.881 -0.5163 -1.0726 -0.3445
 1243TIP3    H227925   6.322   1.212  10.851  0.0804 -0.1735 -1.0916
 1244TIP3   OH227926   6.329   2.677  11.328 -0.8334 -0.0717 -0.1581
 1244TIP3    H127927   6.335   2.707  11.237  0.8917 -0.6917 -0.2808
 1244TIP3    H227928   6.408   2.711  11.369 -0.6458 -1.4099  0.6274
 1245TIP3   OH227929   2.370   2.085  11.484  0.5693  0.4820 -0.2075
 1245TIP3    H127930   2.314   2.020  11.443  2.3606 -2.3240  1.4635
 1245TIP3    H227931   2.314   2.127  11.550 -0.4286  0.2005 -0.8529
 1246TIP3   OH227932   0.222   0.745  12.844 -0.6055 -0.3846 -0.3795
 1246TIP3    H127933   0.261   0.670  12.799  0.3286 -0.5501  0.6757
 1246TIP3    H227934   0.162   0.707  12.908 -0.5706 -0.2208 -0.2466
 1247TIP3   OH227935   3.015   4.408  11.879 -0.3943 -0.1304 -0.2000
 1247TIP3    H127936   3.071   4.358  11.939  0.1688 -0.0047 -0.6104
 1247TIP3    H227937   3.075   4.469  11.837 -1.1835  1.4117  0.8277
 1248TIP3   OH227938   2.242   0.152  11.755 -0.1646  0.1419 -0.2623
 1248TIP3    H127939   2.170   0.206  11.788  0.9379  1.4231  0.0837
 1248TIP3    H227940   2.200   0.095  11.689 -1.3296  1.4629 -0.7090
 1249TIP3   OH227941   2.565   3.078  11.023 -0.3733 -0.1747 -0.1435
 1249TIP3    H127942   2.652   3.053  10.992  0.4757  1.8270  0.4224
 1249TIP3    H227943   2.571   3.071  11.118 -0.9664 -0.4314 -0.1252
 1250TIP3   OH227944   5.721   2.309  12.693 -0.1239 -0.4282  0.1984
 1250TIP3    H127945   5.708   2.283  12.602 -0.0225 -0.8474  0.3035
 1250TIP3    H227946   5.658   2.380  12.707  1.2425  1.0618 -0.7967
 1251TIP3   OH227947   2.508   6.134  12.898  0.3508 -0.3300  0.4721
 1251TIP3    H127948   2.456   6.087  12.963  0.6275  1.2241  1.8814
 1251TIP3    H227949   2.446   6.156  12.829 -0.1595 -1.2085  0.6314
 1252TIP3   OH227950   5.099   2.341  11.046  0.3661 -0.0664 -0.0428
 1252TIP3    H127951   5.135   2.269  11.099 -1.0688  0.1314  1.3023
 1252TIP3    H227952   5.166   2.409  11.048  0.6780 -0.3840  0.8769
 1253TIP3   OH227953   3.771   2.311  11.769 -0.1008 -0.5595  0.4810
 1253TIP3    H127954   3.861   2.278  11.777 -0.1637 -0.8920 -0.0750
 1253TIP3    H227955   3.716   2.234  11.784 -0.3380 -0.1239  1.9829
 1254TIP3   OH227956   3.264   1.268  12.910 -0.3662 -0.3507 -0.1236
 1254TIP3    H127957   3.264   1.364  12.909  0.8815 -0.3404 -0.9751
 1254TIP3    H227958   3.353   1.244  12.887 -0.3721 -1.7310  1.1298
 1255TIP3   OH227959   2.249   3.370  11.880 -0.2834 -0.2705 -0.3461
 1255TIP3    H127960   2.285   3.349  11.794 -0.1849 -0.7657 -0.1897
 1255TIP3    H227961   2.293   3.450  11.906 -2.0264  1.2705 -1.7874
 1256TIP3   OH227962   4.274   4.117  10.617  0.2604  0.1497 -0.2150
 1256TIP3    H127963   4.277   4.051  10.547 -1.1014 -0.9357  0.7085
 1256TIP3    H227964   4.195   4.096  10.666  1.8016  0.1040  2.3982
 1257TIP3   OH227965   2.288   3.520  11.047  0.4821 -0.6462  0.0253
 1257TIP3    H127966   2.226   3.478  10.987 -0.2368  0.4850 -0.0528
 1257TIP3    H227967   2.318   3.598  11.001  3.3229 -2.0152 -0.6433
 1258TIP3   OH227968   1.874   2.211  11.839  0.1752  0.1619  0.6363
 1258TIP3    H127969   1.964   2.234  11.860  1.1064 -2.3247 -0.2971
 1258TIP3    H227970   1.876   2.183  11.748 -1.6138  0.3525  0.4889
 1259TIP3   OH227971   3.227   6.284  13.355  0.4317 -0.1146 -0.0373
 1259TIP3    H127972   3.314   6.249  13.338  1.5154  1.6999  1.4441
 1259TIP3    H227973   3.224   6.296  13.450 -1.9678 -1.3860  0.1241
 1260TIP3   OH227974   2.127   3.313  10.895  0.2208  0.4504 -0.1997
 1260TIP3    H127975   2.187   3.242  10.920 -0.1190  0.1479 -0.2289
 1260TIP3    H227976   2.040   3.281  10.921  0.2326  1.5402  1.3013
 1261TIP3   OH227977   6.273   0.698  12.562 -0.4043 -0.0396  0.4508
 1261TIP3    H127978   6.231   0.778  12.593 -1.6386  0.3231 -1.9581
 1261TIP3    H227979   6.367   0.719  12.561 -0.7877  1.8800 -1.3461
 1262TIP3   OH227980   3.732   6.303  10.887 -0.2287  0.1312  0.3174
 1262TIP3    H127981   3.643   6.299  10.922 -0.4679  1.5181 -0.0660
 1262TIP3    H227982   3.727   6.260  10.802 -0.1451 -1.2483  0.9763
 1263TIP3   OH227983   6.541   2.206  13.007  0.0541  0.9100 -0.0862
 1263TIP3    H127984   6.637   2.206  13.008  0.0526  1.0302  0.4191
 1263TIP3    H227985   6.518   2.152  12.931  0.5279 -0.7309  0.8737
 1264TIP3   OH227986   2.308   2.495  12.484 -0.1275 -0.4497 -0.0018
 1264TIP3    H127987   2.255   2.562  12.440 -0.9694 -1.4273 -0.5113
 1264TIP3    H227988   2.396   2.506  12.447 -0.4636 -0.2222 -0.7479
 1265TIP3   OH227989   4.834   6.537  11.569  0.5462  0.2283  0.1903
 1265TIP3    H127990   4.923   6.545  11.534  0.7186 -2.1017 -0.0239
 1265TIP3    H227991   4.778   6.529  11.492  0.5493 -1.5162  0.3310
 1266TIP3   OH227992   2.976   1.477  12.844  0.4948 -0.5467 -0.6356
 1266TIP3    H127993   2.943   1.412  12.905 -2.6287 -0.6213 -2.2009
 1266TIP3    H227994   3.019   1.426  12.775  2.0634 -0.5870  0.3217
 1267TIP3   OH227995   6.595   6.385  11.747  0.0500 -0.1193 -0.1843
 1267TIP3    H127996   6.499   6.377  11.745  0.1217 -1.0798 -0.0886
 1267TIP3    H227997   6.625   6.333  11.672  0.4994  0.2135 -0.2394
 1268TIP3   OH227998   5.488   2.000  10.657  0.3947  0.5602 -0.0840
 1268TIP3    H127999   5.481   2.094  10.639 -0.7794  0.3239 -0.9548
 1268TIP3    H228000   5.482   1.994  10.752 -0.6836  1.2931 -0.0843
 1269TIP3   OH228001   1.449   6.321  12.679 -0.5283  0.3328  0.2166
 1269TIP3    H128002   1.473   6.277  12.597 -4.3891  2.1135 -2.1201
 1269TIP3    H228003   1.529   6.366  12.707  1.1914 -1.1975 -1.9453
 1270TIP3   OH228004   3.828   2.838  12.063  0.6374  0.2288  0.1521
 1270TIP3    H128005   3.889   2.828  11.990 -0.1041  1.2412 -0.6284
 1270TIP3    H228006   3.742   2.843  12.022 -0.1588 -2.3453  1.2842
 1271TIP3   OH228007   1.918   0.481  10.056  0.4271  0.1046 -0.4261
 1271TIP3    H128008   2.004   0.493  10.096  0.8702  1.8500 -1.7862
 1271TIP3    H228009   1.930   0.408   9.994  0.9291  0.3512 -0.6201
 1272TIP3   OH228010   3.907   6.409  10.628 -0.0026  0.4310 -0.1959
 1272TIP3    H128011   3.988   6.451  10.599  0.7512 -0.4078  0.6514
 1272TIP3    H228012   3.928   6.371  10.713 -0.8415 -1.1273 -0.6426
 1273TIP3   OH228013   0.411   4.778  11.200  0.0832  0.5948 -0.1743
 1273TIP3    H128014   0.369   4.777  11.285 -1.5375  0.2382 -0.9429
 1273TIP3    H228015   0.416   4.686  11.174  0.6655  0.6895 -0.4272
 1274TIP3   OH228016   2.244   5.349  10.371 -0.3219 -0.0436 -0.5354
 1274TIP3    H128017   2.319   5.398  10.405 -0.5433  1.1037 -1.6148
 1274TIP3    H228018   2.170   5.382  10.421 -0.1193 -1.3313  0.6821
 1275TIP3   OH228019   4.468   3.768  10.551 -0.1486 -0.8494 -0.1147
 1275TIP3    H128020   4.534   3.703  10.528  0.1792 -0.3688 -0.5536
 1275TIP3    H228021   4.509   3.852  10.530  0.0473 -0.3817  1.8990
 1276TIP3   OH228022   2.699   1.210  12.549  0.8095 -0.4485  0.2524
 1276TIP3    H128023   2.731   1.195  12.637 -2.8498 -3.7317  1.3135
 1276TIP3    H228024   2.616   1.257  12.561 -0.5132 -2.2611 -1.1937
 1277TIP3   OH228025   2.473   6.424  10.109  0.1879 -0.1977 -0.5553
 1277TIP3    H128026   2.542   6.491  10.102 -1.8995  2.0632 -0.9829
 1277TIP3    H228027   2.470   6.402  10.202 -0.2187  1.6912 -0.0748
 1278TIP3   OH228028   2.402   1.260  10.824  0.0089  0.1575  0.3023
 1278TIP3    H128029   2.417   1.238  10.732 -1.7091  1.0527 -0.2457
 1278TIP3    H228030   2.380   1.176  10.865 -0.7571 -0.0299 -0.4664
 1279TIP3   OH228031   6.188   0.030  13.256  0.0014  0.1690 -0.3233
 1279TIP3    H128032   6.123   0.094  13.285 -0.2962 -0.4550  0.4295
 1279TIP3    H228033   6.219   0.063  13.172 -1.2386  0.5125 -0.6622
 1280TIP3   OH228034   6.150   3.994  11.876  0.6829 -0.1444 -0.3828
 1280TIP3    H128035   6.245   3.984  11.881  0.6709 -1.0710 -1.5458
 1280TIP3    H228036   6.124   3.939  11.802 -0.6015  1.2351 -0.9957
 1281TIP3   OH228037   0.640   6.679  12.013 -0.1483  0.2440  0.3795
 1281TIP3    H128038   0.622   6.712  11.925 -1.3425  0.9750  0.8777
 1281TIP3    H228039   0.723   6.720  12.038  0.1345  0.1305 -0.3419
 1282TIP3   OH228040   0.216   2.630  11.587  0.4048  0.1049 -0.3670
 1282TIP3    H128041   0.157   2.671  11.524  0.1585 -0.0242 -0.2213
 1282TIP3    H228042   0.265   2.703  11.625  1.7895  0.0459 -1.9388
 1283TIP3   OH228043   4.335   4.048  12.738 -0.0771 -0.0338 -0.0968
 1283TIP3    H128044   4.348   4.125  12.683  0.2816 -1.1863 -1.7101
 1283TIP3    H228045   4.282   4.079  12.811 -1.6046  1.3206 -1.6989
 1284TIP3   OH228046   0.087   2.548  13.089  0.4863  0.7583  0.1507
 1284TIP3    H128047   0.064   2.477  13.149 -0.2570  0.0990 -0.8679
 1284TIP3    H228048   0.045   2.524  13.006  0.7034  2.1019 -0.3842
 1285TIP3   OH228049   5.324   2.544  11.293  0.1080 -0.0010 -0.7128
 1285TIP3    H128050   5.331   2.451  11.316 -1.2465  0.1490  0.4941
 1285TIP3    H228051   5.339   2.547  11.198  0.9130 -1.3377 -0.6490
 1286TIP3   OH228052   6.541   4.536  11.587  0.0773 -0.2764 -0.0726
 1286TIP3    H128053   6.515   4.472  11.654  0.5217  0.8857  1.2534
 1286TIP3    H228054   6.602   4.594  11.632  1.4202 -0.2101 -1.8493
 1287TIP3   OH228055   5.172   2.011  11.594  0.3902  0.8306  0.5478
 1287TIP3    H128056   5.251   2.002  11.648  1.0976 -2.4316 -0.7723
 1287TIP3    H228057   5.120   1.933  11.615  0.9454 -0.9500 -3.6314
 1288TIP3   OH228058   1.751   0.186   9.878 -0.0415  0.2528  0.3835
 1288TIP3    H128059   1.802   0.258   9.841  0.1628 -0.1094 -0.0448
 1288TIP3    H228060   1.814   0.116   9.893 -0.6597 -0.9980 -2.1486
 1289TIP3   OH228061   5.095   3.417  12.339  0.3634 -0.1331  0.4809
 1289TIP3    H128062   5.141   3.379  12.263 -0.0569  0.9900 -0.3641
 1289TIP3    H228063   5.140   3.500  12.355  0.3824 -0.3180  1.4180
 1290TIP3   OH228064   0.008   3.121  12.644 -0.1404 -0.2494 -0.2622
 1290TIP3    H128065   0.063   3.198  12.630  0.4149 -0.3360  1.2653
 1290TIP3    H228066   0.069   3.047  12.642 -0.3564 -0.4496  0.3439
 1291TIP3   OH228067   5.122   3.314  11.366 -0.0100  0.1265 -0.4607
 1291TIP3    H128068   5.123   3.221  11.341  0.0572 -0.0344  0.1249
 1291TIP3    H228069   5.106   3.313  11.460  0.5593  0.6857 -0.3483
 1292TIP3   OH228070   4.296   4.883  11.701  0.4796  0.0049 -0.2736
 1292TIP3    H128071   4.274   4.792  11.678  0.9323  0.2575 -1.8126
 1292TIP3    H228072   4.225   4.911  11.759  0.9265 -1.6860  1.1744
 1293TIP3   OH228073   3.478   2.535  12.029 -0.6324  0.5492  0.2827
 1293TIP3    H128074   3.417   2.497  12.093 -1.3370 -0.8026 -1.1238
 1293TIP3    H228075   3.473   2.629  12.044 -0.5021  0.2512  2.4476
 1294TIP3   OH228076   1.848   6.752  12.053 -0.2450  0.4237 -0.0452
 1294TIP3    H128077   1.909   6.717  11.988  0.1521 -0.4896  0.7922
 1294TIP3    H228078   1.895   6.827  12.091 -0.3677  0.7939 -0.6067
 1295TIP3   OH228079   1.580   2.817  12.388  0.0963 -0.4345  0.6525
 1295TIP3    H128080   1.490   2.843  12.410  0.6823  2.1607  0.3582
 1295TIP3    H228081   1.613   2.774  12.467 -0.9620 -0.1470  1.2712
 1296TIP3   OH228082   5.092   5.975  11.406 -0.0741 -0.3451 -0.5444
 1296TIP3    H128083   5.142   5.896  11.427 -1.0312 -1.2134 -1.4471
 1296TIP3    H228084   5.159   6.044  11.398  0.9171 -1.3319 -1.0498
 1297TIP3   OH228085   1.927   1.162  11.989  0.2062 -0.4774  0.3909
 1297TIP3    H128086   2.013   1.128  11.962 -0.9930 -2.6038 -1.0469
 1297TIP3    H228087   1.884   1.184  11.907 -0.1452  2.0486  1.1625
 1298TIP3   OH228088   0.142   0.436  11.056  0.0218 -0.5898 -0.4108
 1298TIP3    H128089   0.087   0.381  11.001  2.5770 -3.6811 -0.1246
 1298TIP3    H228090   0.231   0.421  11.025  1.1547  0.8846  1.8431
 1299TIP3   OH228091   4.757   0.815  12.177  0.4902  0.4074  0.3836
 1299TIP3    H128092   4.828   0.779  12.229 -0.2690 -0.7869  0.6359
 1299TIP3    H228093   4.694   0.849  12.241  0.6925  1.2254  0.1688
 1300TIP3   OH228094   0.479   0.728  11.089  0.2286 -0.6004  0.0121
 1300TIP3    H128095   0.496   0.672  11.165  1.2470  1.1044  1.1020
 1300TIP3    H228096   0.542   0.699  11.024 -1.0946 -2.5333 -0.5144
 1301TIP3   OH228097   2.660   6.649  10.610 -0.3957  0.9388  0.3893
 1301TIP3    H128098   2.612   6.584  10.661  0.3549  0.6457  0.7358
 1301TIP3    H228099   2.642   6.732  10.653 -0.3746  0.7931  0.6771
 1302TIP3   OH228100   1.347   3.278   9.328 -0.6744  0.0193 -0.0952
 1302TIP3    H128101   1.318   3.369   9.328  1.0852  0.6434 -1.5738
 1302TIP3    H228102   1.273   3.229   9.363 -1.4638  2.0536  1.2763
 1303TIP3   OH228103   2.815   1.701  10.377  0.4571 -0.0195 -0.1947
 1303TIP3    H128104   2.779   1.678  10.291  0.3293  0.0107 -0.1503
 1303TIP3    H228105   2.739   1.696  10.436  1.1179 -3.5781  0.6025
 1304TIP3   OH228106   2.569   4.785   9.999  0.1870 -0.3488 -0.4397
 1304TIP3    H128107   2.656   4.785   9.960  0.5081 -0.4921  0.2564
 1304TIP3    H228108   2.550   4.877  10.018  1.4363 -0.5285  2.0734
 1305TIP3   OH228109   5.195   3.946  10.474 -0.5061 -0.4252  0.8196
 1305TIP3    H128110   5.185   3.852  10.458 -0.1338 -0.8982  3.0330
 1305TIP3    H228111   5.219   3.952  10.567  1.1052  1.7471  0.3493
 1306TIP3   OH228112   3.745   0.676  12.186 -0.2420 -0.0988 -0.2019
 1306TIP3    H128113   3.691   0.697  12.262 -2.9126 -1.0669 -1.6967
 1306TIP3    H228114   3.802   0.605  12.216  3.1400  3.3179  2.4991
 1307TIP3   OH228115   5.655   5.460  10.966 -0.7831  0.3138 -0.0158
 1307TIP3    H128116   5.570   5.459  10.922 -0.8681 -0.8383  0.1367
 1307TIP3    H228117   5.684   5.369  10.963 -0.0978  0.4846  0.9819
 1308TIP3   OH228118   3.851   6.266  12.502  0.6999  0.3118 -0.3107
 1308TIP3    H128119   3.923   6.234  12.448 -1.1979 -0.6432 -2.4130
 1308TIP3    H228120   3.839   6.357  12.475  0.4179  0.1418 -0.7669
 1309TIP3   OH228121   2.534   3.566  10.677 -0.3016 -0.6412 -0.2901
 1309TIP3    H128122   2.568   3.535  10.594 -2.1079 -0.1514 -1.2845
 1309TIP3    H228123   2.538   3.490  10.735 -2.4807 -2.1628 -1.9724
 1310TIP3   OH228124   2.584   2.068  12.526 -0.3878 -0.5372 -0.5902
 1310TIP3    H128125   2.611   2.131  12.593  0.6160  1.2527 -2.5561
 1310TIP3    H228126   2.489   2.079  12.521 -0.3056  0.3436 -0.4144
 1311TIP3   OH228127   3.597   2.214  11.000  0.2895  0.4671 -0.1440
 1311TIP3    H128128   3.687   2.244  11.008 -0.4656  2.9131 -0.0040
 1311TIP3    H228129   3.567   2.249  10.916 -0.8268  0.5351  0.2679
 1312TIP3   OH228130   2.887   4.775  10.222 -0.6581  0.2361  0.2292
 1312TIP3    H128131   2.906   4.861  10.186  1.6826 -0.6413 -0.8417
 1312TIP3    H228132   2.856   4.724  10.147  0.0778 -0.4345  0.3708
 1313TIP3   OH228133   1.440   0.967   9.842  0.6290  0.1187 -0.4588
 1313TIP3    H128134   1.403   1.055   9.838  0.8357  0.1497 -2.2639
 1313TIP3    H228135   1.484   0.955   9.758  0.5415 -1.7314 -0.2834
 1314TIP3   OH228136   1.201   5.238  12.016  0.3105 -0.0204 -0.1197
 1314TIP3    H128137   1.107   5.231  11.996  0.3110  0.5193 -0.3313
 1314TIP3    H228138   1.237   5.286  11.942  0.7539 -0.2061 -0.0251
 1315TIP3   OH228139   6.773   0.532  11.781  0.1295 -0.1993  0.2664
 1315TIP3    H128140   6.860   0.493  11.782  0.7132  0.9163 -2.0253
 1315TIP3    H228141   6.737   0.511  11.695 -0.5316  2.0911 -0.1002
 1316TIP3   OH228142   2.124   6.570  12.396 -0.1545  0.3682  0.0540
 1316TIP3    H128143   2.036   6.571  12.433 -0.4681  0.3375 -0.6647
 1316TIP3    H228144   2.135   6.658  12.359 -0.0244  0.2601 -0.1671
 1317TIP3   OH228145   5.688   5.133  12.910  0.2303 -0.2226 -0.6439
 1317TIP3    H128146   5.610   5.079  12.924 -0.8729  0.8293 -2.3824
 1317TIP3    H228147   5.680   5.204  12.974 -0.1208 -0.2323 -0.6760
 1318TIP3   OH228148   5.056   2.836  10.807  0.1857 -0.1532  0.3610
 1318TIP3    H128149   5.103   2.895  10.748  0.6991 -0.2005  0.7164
 1318TIP3    H228150   5.110   2.757  10.811  0.5950  0.1562  1.5298
 1319TIP3   OH228151   6.710   4.006  12.807  0.2144  1.2132  0.0153
 1319TIP3    H128152   6.647   4.020  12.878  0.0267  0.8498 -0.0781
 1319TIP3    H228153   6.781   3.957  12.847 -0.6436 -0.4671 -0.4036
 1320TIP3   OH228154   3.782   3.242  12.971  0.4481 -0.0382  0.1550
 1320TIP3    H128155   3.802   3.309  13.036 -1.9354  0.5143  0.3925
 1320TIP3    H228156   3.794   3.159  13.018 -1.3079  0.3500  1.3977
 1321TIP3   OH228157   4.665   5.683  12.891  0.5622 -0.0790 -0.3552
 1321TIP3    H128158   4.755   5.681  12.924  0.5316 -0.2224 -0.2804
 1321TIP3    H228159   4.611   5.671  12.969  0.5011 -0.9136 -0.5193
 1322TIP3   OH228160   5.929   3.608  10.090 -0.0345  0.1902  0.0145
 1322TIP3    H128161   5.931   3.653  10.006  2.2857  0.7570  0.3034
 1322TIP3    H228162   6.016   3.570  10.099 -0.9413 -1.8024  1.1762
 1323TIP3   OH228163   4.042   4.425   9.584 -0.2482  0.1995  0.1421
 1323TIP3    H128164   4.079   4.406   9.498  0.8156 -2.0244  1.0134
 1323TIP3    H228165   3.998   4.509   9.573  1.5575  0.9589 -2.0305
 1324TIP3   OH228166   1.728   6.071  11.999 -0.1668 -0.6550  0.5519
 1324TIP3    H128167   1.750   6.093  11.909 -0.2196  0.7604  0.8650
 1324TIP3    H228168   1.790   6.002  12.023 -1.3739 -2.4403 -1.1491
 1325TIP3   OH228169   6.726   4.069  11.207 -0.5405  0.3413  0.2836
 1325TIP3    H128170   6.785   3.996  11.226  0.2040  0.8616 -0.0010
 1325TIP3    H228171   6.711   4.064  11.113  1.0887  1.6922 -0.0999
 1326TIP3   OH228172   5.749   0.834  12.274  0.5450  0.4228 -0.6934
 1326TIP3    H128173   5.821   0.842  12.211  0.5183  1.7212 -0.5765
 1326TIP3    H228174   5.688   0.904  12.249 -0.2475 -0.0893 -0.2252
 1327TIP3   OH228175   2.975   0.006  11.256  0.0211 -0.3297 -0.2182
 1327TIP3    H128176   2.900   0.017  11.315  0.9426  2.8165  0.5693
 1327TIP3    H228177   2.946  -0.059  11.193 -2.6507 -0.6292  1.1541
 1328TIP3   OH228178   4.386   2.752  11.126 -0.3581 -0.0427  0.4005
 1328TIP3    H128179   4.458   2.800  11.167  1.9994 -2.1056 -1.0465
 1328TIP3    H228180   4.389   2.778  11.034 -1.2465 -0.3913  0.2672
 1329TIP3   OH228181   2.514   1.746  11.852  0.1021 -0.3642 -0.0011
 1329TIP3    H128182   2.550   1.830  11.879  1.9597 -0.5691 -1.6246
 1329TIP3    H228183   2.525   1.744  11.757  1.7911 -3.1117  0.1347
 1330TIP3   OH228184   6.195   2.618  10.656 -0.1858 -0.4220  0.3082
 1330TIP3    H128185   6.231   2.543  10.609  0.2752 -1.2908  1.9577
 1330TIP3    H228186   6.100   2.611  10.644 -0.3992 -2.8150  2.4999
 1331TIP3   OH228187   3.537   1.631  11.263  0.5361 -0.4819 -0.3713
 1331TIP3    H128188   3.530   1.696  11.333 -1.8366  1.7838 -2.5000
 1331TIP3    H228189   3.630   1.613  11.255  1.2198  2.1514  0.8162
 1332TIP3   OH228190   0.732   2.659  11.641  0.0983 -0.4055 -0.4705
 1332TIP3    H128191   0.804   2.597  11.633 -0.8732 -1.4660 -1.3354
 1332TIP3    H228192   0.658   2.615  11.599 -0.8273  1.0176 -0.3860
 1333TIP3   OH228193   1.600   2.154  11.950  0.3129 -0.1658  0.0089
 1333TIP3    H128194   1.624   2.142  12.042 -1.5667 -0.7832  0.4734
 1333TIP3    H228195   1.683   2.151  11.903  1.7975  3.6875  1.9295
 1334TIP3   OH228196   4.461   5.050  11.881  0.3886  0.1079  0.1318
 1334TIP3    H128197   4.368   5.058  11.902  0.1183 -2.0182 -0.0216
 1334TIP3    H228198   4.488   5.138  11.856 -1.1403  1.1313  1.9072
 1335TIP3   OH228199   1.104   4.848  11.531 -0.2075  0.2548  0.0459
 1335TIP3    H128200   1.109   4.812  11.443 -0.2143 -0.5953  0.3745
 1335TIP3    H228201   1.085   4.941  11.519  1.5784  0.5459 -0.8962
 1336TIP3   OH228202   5.669   5.086  11.921  0.8591 -0.1200  0.1993
 1336TIP3    H128203   5.630   5.173  11.913  2.1533  0.5357  0.7834
 1336TIP3    H228204   5.609   5.039  11.980 -1.0964 -0.4360 -1.9124
 1337TIP3   OH228205   3.296   5.286  12.937 -0.6889 -0.3990 -0.2971
 1337TIP3    H128206   3.299   5.215  12.872  0.7241  0.8614 -1.7034
 1337TIP3    H228207   3.233   5.349  12.901 -0.3087  0.0529 -0.1839
 1338TIP3   OH228208   2.354   2.200  12.179  0.2538 -0.4590 -0.0679
 1338TIP3    H128209   2.269   2.245  12.179 -0.0110 -0.9339 -1.0691
 1338TIP3    H228210   2.364   2.168  12.090  0.7449 -1.8102  0.4522
 1339TIP3   OH228211   2.419   0.992  12.544 -0.7028 -0.2532  0.1683
 1339TIP3    H128212   2.498   0.997  12.598 -0.1031  0.9622 -0.7712
 1339TIP3    H228213   2.452   0.975  12.456 -1.5168  0.0841 -0.2021
 1340TIP3   OH228214   3.086   5.389  12.695 -0.1598 -0.5886 -0.2089
 1340TIP3    H128215   3.115   5.480  12.688  1.2225 -1.0084 -0.0841
 1340TIP3    H228216   2.993   5.392  12.670  0.1465  0.6734 -1.3028
 1341TIP3   OH228217   2.355   0.876  12.065  0.7402 -0.0919  0.2551
 1341TIP3    H128218   2.347   0.834  12.151  1.8962 -3.1833 -0.9980
 1341TIP3    H228219   2.446   0.905  12.061  0.5022  0.6665  0.3301
 1342TIP3   OH228220   2.502   5.718  10.117 -0.2268 -0.0545  0.4031
 1342TIP3    H128221   2.427   5.727  10.177  0.4115 -0.8873  1.3624
 1342TIP3    H228222   2.578   5.729  10.174  0.4009 -1.1614 -0.2010
 1343TIP3   OH228223   6.533   5.106  10.784  0.4718 -0.2530  0.6231
 1343TIP3    H128224   6.485   5.159  10.848 -1.3404  0.6311 -1.3527
 1343TIP3    H228225   6.597   5.166  10.746 -0.7988  0.2676 -0.7898
 1344TIP3   OH228226   1.980   2.246  12.601  0.0775  0.2191 -0.6782
 1344TIP3    H128227   1.912   2.312  12.614  0.7147  0.4770  2.0051
 1344TIP3    H228228   2.058   2.296  12.577 -0.0907  0.1621 -1.3510
 1345TIP3   OH228229   2.242   5.317   9.652 -0.4710 -0.2112  0.6040
 1345TIP3    H128230   2.208   5.395   9.609 -2.3820 -0.7671  1.0243
 1345TIP3    H228231   2.293   5.272   9.585  1.0704  1.5715  0.4774
 1346TIP3   OH228232   5.399   5.408  11.632  0.3035 -0.5234  0.3580
 1346TIP3    H128233   5.446   5.473  11.685 -1.9822 -0.0949  2.0094
 1346TIP3    H228234   5.467   5.344  11.608  1.8349  0.2766  2.2245
 1347TIP3   OH228235   3.213   6.294   9.924 -0.0401  0.0672 -0.1617
 1347TIP3    H128236   3.131   6.337   9.901 -0.1662  1.3089  2.2914
 1347TIP3    H228237   3.271   6.365   9.951  1.5976 -0.8695 -1.0115
 1348TIP3   OH228238   1.070   1.938  12.025 -0.2191 -0.1995 -0.4772
 1348TIP3    H128239   0.993   1.933  12.082  1.9083  0.4823  2.6849
 1348TIP3    H228240   1.114   1.854  12.036  1.6925  0.9329  1.3170
 1349TIP3   OH228241   0.943   3.522  12.055  0.2098  0.1169 -0.1052
 1349TIP3    H128242   0.905   3.438  12.029  0.0035  0.6050 -1.4627
 1349TIP3    H228243   1.037   3.510  12.046  0.1420  0.3179 -1.3149
 1350TIP3   OH228244   4.153   1.263  13.035 -0.1166 -0.0970 -0.4083
 1350TIP3    H128245   4.194   1.309  13.109 -0.3121 -0.5877  0.0166
 1350TIP3    H228246   4.082   1.321  13.008 -0.0088  0.1144 -0.2459
 1351TIP3   OH228247   2.631   6.494  12.549  0.3785  0.6177 -0.0296
 1351TIP3    H128248   2.634   6.498  12.454  0.2837  0.6419 -0.0315
 1351TIP3    H228249   2.539   6.506  12.571  0.1657 -0.8791  0.0025
 1352TIP3   OH228250   0.649   1.187   9.935  0.3026  0.2558 -0.4929
 1352TIP3    H128251   0.611   1.225   9.856  0.6772  1.0615 -0.2915
 1352TIP3    H228252   0.714   1.125   9.902  1.1928  1.3453 -0.8191
 1353TIP3   OH228253   1.382   1.989  12.177 -0.0773 -0.3592  0.3334
 1353TIP3    H128254   1.327   1.910  12.182 -0.3220 -0.4413 -2.4202
 1353TIP3    H228255   1.406   1.996  12.085  2.3278  1.2189  0.9852
 1354TIP3   OH228256   0.020   1.082  12.972 -0.3786  0.0667  0.2528
 1354TIP3    H128257   0.069   1.016  13.022 -1.4798 -1.3011 -0.4244
 1354TIP3    H228258   0.027   1.053  12.881 -4.1051 -1.4037  0.2731
 1355TIP3   OH228259   5.496   3.393  11.997  0.0649  0.0850 -0.3550
 1355TIP3    H128260   5.481   3.484  12.019 -1.2704 -0.5014  1.3918
 1355TIP3    H228261   5.586   3.390  11.967  0.1472  1.9519 -0.4094
 1356TIP3   OH228262   5.418   5.153  10.393 -0.1416  0.0805 -0.4105
 1356TIP3    H128263   5.440   5.060  10.385  1.0427  0.2854  0.2515
 1356TIP3    H228264   5.424   5.187  10.304  1.1824 -0.1155 -0.4064
 1357TIP3   OH228265   1.329   6.348  11.558  0.2407  0.4894  0.1121
 1357TIP3    H128266   1.363   6.427  11.516  2.0439 -0.5417 -0.4984
 1357TIP3    H228267   1.388   6.333  11.632  0.9247 -1.1196 -0.7054
 1358TIP3   OH228268   3.064   5.101  13.347 -0.2470  0.5485  0.0139
 1358TIP3    H128269   2.992   5.161  13.326  1.1227  1.2859 -3.3653
 1358TIP3    H228270   3.067   5.041  13.272  2.3920  0.3618  0.1640
 1359TIP3   OH228271   6.125   2.774  11.488 -0.9600  0.5008 -0.3876
 1359TIP3    H128272   6.201   2.734  11.446 -1.2300 -1.0110  0.4834
 1359TIP3    H228273   6.157   2.859  11.519 -0.2064  0.7563 -1.7864
 1360TIP3   OH228274   1.260   3.465  11.604  0.1573 -0.1452 -0.0781
 1360TIP3    H128275   1.300   3.397  11.658 -0.0149 -0.2296 -0.0569
 1360TIP3    H228276   1.309   3.544  11.626  0.6946 -0.3574 -0.4737
 1361TIP3   OH228277   3.670   3.402  11.873  0.0709  0.4782 -0.2895
 1361TIP3    H128278   3.743   3.396  11.936 -0.2209  0.7649  0.0811
 1361TIP3    H228279   3.706   3.369  11.791  0.2987 -0.4527  0.1668
 1362TIP3   OH228280   1.486   0.260  12.096 -0.0340  0.3106 -0.1481
 1362TIP3    H128281   1.473   0.172  12.131  2.6132 -0.2144 -0.2506
 1362TIP3    H228282   1.505   0.246  12.003 -0.4884  1.0852 -0.3670
 1363TIP3   OH228283   4.737   6.074  12.125  0.3983 -0.3885 -0.2543
 1363TIP3    H128284   4.718   6.137  12.193  3.5763  1.2592 -0.6943
 1363TIP3    H228285   4.652   6.055  12.085 -0.8842  2.5868  0.7771
 1364TIP3   OH228286   6.486   3.911  10.698  0.3434  0.2336  0.2478
 1364TIP3    H128287   6.425   3.942  10.631 -0.1987 -1.2384  0.0060
 1364TIP3    H228288   6.435   3.910  10.779 -0.1778 -1.4832 -0.0486
 1365TIP3   OH228289   0.537   3.603   9.999  0.2039  0.5235 -0.3906
 1365TIP3    H128290   0.560   3.590   9.907  0.7806  3.0310 -0.6937
 1365TIP3    H228291   0.604   3.664  10.032 -0.5350  0.4235  1.4256
 1366TIP3   OH228292   4.783   3.718  11.101 -0.1629  0.0577 -0.2096
 1366TIP3    H128293   4.851   3.672  11.149  0.5916  0.7631 -0.5754
 1366TIP3    H228294   4.717   3.651  11.081  1.0992 -0.9484 -1.1178
 1367TIP3   OH228295   0.332   6.486  10.498  0.3576  0.0546  0.3993
 1367TIP3    H128296   0.349   6.402  10.456  1.5992 -0.0813  1.1345
 1367TIP3    H228297   0.265   6.527  10.443 -0.9750 -1.7959  0.5669
 1368TIP3   OH228298   5.426   0.114  10.419  0.3424 -0.0990  0.1148
 1368TIP3    H128299   5.388   0.047  10.475 -1.0084 -0.0089 -0.6504
 1368TIP3    H228300   5.510   0.078  10.391  0.6384 -0.5074  1.4746
 1369TIP3   OH228301   1.389   5.652  11.523 -0.0952 -0.3120 -0.5004
 1369TIP3    H128302   1.295   5.656  11.505 -0.4109 -2.0789  0.4796
 1369TIP3    H228303   1.424   5.596  11.453  0.4500  1.2356 -1.5086
 1370TIP3   OH228304   3.901   4.039  12.315  0.0395 -0.0555  0.2996
 1370TIP3    H128305   3.992   4.064  12.330  0.1307 -0.0377 -0.2524
 1370TIP3    H228306   3.906   3.958  12.264 -0.2571 -0.9861  1.7053
 1371TIP3   OH228307   4.274   6.803  12.757 -0.9207  0.0911 -0.2638
 1371TIP3    H128308   4.346   6.745  12.733 -0.1183  0.7121  0.5447
 1371TIP3    H228309   4.240   6.835  12.674  1.5887  1.9778 -0.6991
 1372TIP3   OH228310   2.924   5.980  10.241  0.0384 -0.0385  0.1206
 1372TIP3    H128311   2.868   5.947  10.170 -0.1436  0.8667 -0.1746
 1372TIP3    H228312   3.008   5.999  10.198  0.7094 -1.7099  0.6273
 1373TIP3   OH228313   2.397   5.791  13.180  0.6493  0.0742 -0.0715
 1373TIP3    H128314   2.489   5.798  13.205  1.4434  0.5079 -2.7243
 1373TIP3    H228315   2.385   5.699  13.158  0.9007  0.2890 -1.1551
 1374TIP3   OH228316   3.573   3.469  12.560 -0.3671  0.4484  0.1702
 1374TIP3    H128317   3.615   3.439  12.479  0.7986  0.0627  0.8997
 1374TIP3    H228318   3.570   3.391  12.616 -0.3855  0.8992  0.8117
 1375TIP3   OH228319   2.051   2.620  11.547  0.4420 -0.0549 -0.4009
 1375TIP3    H128320   1.997   2.552  11.506  0.7894  0.1251 -1.1707
 1375TIP3    H228321   2.010   2.703  11.521  1.0891  0.0841 -1.0039
 1376TIP3   OH228322   0.427   4.565  10.408  0.1157  0.7340 -0.8884
 1376TIP3    H128323   0.357   4.629  10.397  0.4960  1.2628 -0.3004
 1376TIP3    H228324   0.485   4.604  10.472  0.5484 -0.0468 -0.7930
 1377TIP3   OH228325   3.934   6.049  11.370 -0.7057  0.1799 -0.1494
 1377TIP3    H128326   3.886   6.041  11.288  0.1147  2.3873 -0.9165
 1377TIP3    H228327   3.949   6.143  11.380  0.2011 -0.1280  1.9690
 1378TIP3   OH228328   0.100   2.006  10.588  0.3069 -0.1475 -0.1446
 1378TIP3    H128329   0.159   2.026  10.661  2.0911  0.6865 -1.7226
 1378TIP3    H228330   0.086   1.911  10.594 -1.6633  0.2020  2.6857
 1379TIP3   OH228331   2.246   0.432  10.854 -0.4844  0.5232  0.2266
 1379TIP3    H128332   2.220   0.389  10.773  0.9040  0.4766 -0.2207
 1379TIP3    H228333   2.315   0.493  10.828  0.2677  0.2198  1.4198
 1380TIP3   OH228334   6.428   1.826  11.816 -0.1551  0.0944 -0.3398
 1380TIP3    H128335   6.437   1.766  11.890 -0.8031 -0.2535 -0.5409
 1380TIP3    H228336   6.460   1.910  11.850  0.0442 -0.1812  0.1714
 1381TIP3   OH228337   5.391   2.808  11.658  0.4476 -0.0643  0.2417
 1381TIP3    H128338   5.430   2.739  11.713  0.1130 -1.2779 -1.0053
 1381TIP3    H228339   5.447   2.811  11.581 -0.0227  0.5052 -0.0797
 1382TIP3   OH228340   3.924   6.303  11.171  1.0444  0.5061 -0.0064
 1382TIP3    H128341   4.008   6.346  11.157 -0.6490  3.4084 -2.2940
 1382TIP3    H228342   3.914   6.246  11.095  0.9245  0.1447  0.2760
 1383TIP3   OH228343   2.278   3.981  10.558 -0.1905  0.0341  0.8342
 1383TIP3    H128344   2.355   4.014  10.511 -0.9224  1.2641  0.4303
 1383TIP3    H228345   2.215   3.960  10.488  0.1392 -2.0286  1.0991
 1384TIP3   OH228346   2.233   6.614  11.475  0.6591  0.3291  0.3872
 1384TIP3    H128347   2.238   6.568  11.391  0.1406  0.4239  0.2995
 1384TIP3    H228348   2.271   6.553  11.539 -0.8414 -0.6054  0.4298
 1385TIP3   OH228349   3.262   3.953  10.001  0.2578 -0.0652  0.3544
 1385TIP3    H128350   3.310   3.904  10.068 -1.0116 -1.0467  0.5702
 1385TIP3    H228351   3.178   3.975  10.042  0.2146  1.0110 -0.2581
 1386TIP3   OH228352   3.498   5.370  11.168 -0.2224  0.2991  0.4521
 1386TIP3    H128353   3.444   5.330  11.236 -0.1264  0.0700  0.3918
 1386TIP3    H228354   3.567   5.416  11.217 -0.2271  0.2409  0.5133
 1387TIP3   OH228355   0.250   4.094  12.868  0.4286  0.5743  0.0335
 1387TIP3    H128356   0.275   4.185  12.885  1.2678  0.6327 -1.3398
 1387TIP3    H228357   0.321   4.042  12.905  1.3865  0.6289 -1.6446
 1388TIP3   OH228358   3.601   1.826  11.683 -0.9149 -0.1970 -0.7269
 1388TIP3    H128359   3.685   1.830  11.638 -0.9782 -0.8524 -0.9255
 1388TIP3    H228360   3.563   1.742  11.655 -1.0165 -0.5609  0.4277
 1389TIP3   OH228361   0.062   5.913  11.305 -0.3264 -0.2550  0.0730
 1389TIP3    H128362   0.097   5.967  11.234 -0.8675  2.4409  1.6859
 1389TIP3    H228363  -0.029   5.899  11.281 -1.1662  2.6114  1.1407
 1390TIP3   OH228364   5.767   4.279  12.500 -0.1459  0.1026  0.5614
 1390TIP3    H128365   5.763   4.342  12.428 -0.3256  1.1422  1.4529
 1390TIP3    H228366   5.859   4.251  12.502  0.1873  1.1688  0.8240
 1391TIP3   OH228367   4.268   3.134  11.049 -0.0384 -0.2007 -0.3284
 1391TIP3    H128368   4.228   3.051  11.075  0.5856 -0.2266  0.5924
 1391TIP3    H228369   4.215   3.201  11.091 -1.1412 -0.0614 -1.8717
 1392TIP3   OH228370   4.140   0.246  13.018  0.4708 -0.1943  0.3834
 1392TIP3    H128371   4.086   0.173  13.048  0.5273 -0.6705 -0.6259
 1392TIP3    H228372   4.188   0.211  12.943  2.7725 -0.0229  1.6814
 1393TIP3   OH228373   2.058   3.577   9.943 -0.3595 -0.0196  0.1187
 1393TIP3    H128374   2.119   3.633   9.991 -0.5522  0.2547  0.0421
 1393TIP3    H228375   1.972   3.614   9.959 -0.6135 -0.9252  0.9412
 1394TIP3   OH228376   4.829   5.847  10.065  0.2898 -0.4731  0.0577
 1394TIP3    H128377   4.746   5.894  10.055  0.6924  0.6388  1.4511
 1394TIP3    H228378   4.874   5.860   9.982 -1.0280 -1.3578 -0.8409
 1395TIP3   OH228379   3.660   2.085  11.963 -0.2815  0.1383 -0.2059
 1395TIP3    H128380   3.753   2.063  11.956  0.3486  2.2588  0.7110
 1395TIP3    H228381   3.620   2.008  12.003  1.2061 -0.5421  0.0238
 1396TIP3   OH228382   5.324   0.241  11.116  0.0236  0.6888  0.1654
 1396TIP3    H128383   5.265   0.169  11.140  1.0039 -0.2254 -0.0567
 1396TIP3    H228384   5.307   0.255  11.023 -0.2583  0.8259  0.2377
 1397TIP3   OH228385   0.539   4.443  12.410  0.3640  0.6443  0.0059
 1397TIP3    H128386   0.489   4.453  12.329  0.1242 -2.1617 -0.2770
 1397TIP3    H228387   0.603   4.514  12.407 -1.6791  2.5727 -1.0298
 1398TIP3   OH228388   5.920   0.206  12.546  0.4630  0.2558  0.1049
 1398TIP3    H128389   5.836   0.241  12.514  0.0467 -0.6246  0.2176
 1398TIP3    H228390   5.964   0.282  12.584 -0.0698  0.8310 -0.4038
 1399TIP3   OH228391   2.887   2.563  12.246  0.0066  0.4735 -0.3879
 1399TIP3    H128392   2.971   2.527  12.272 -0.4137 -0.8987 -0.8300
 1399TIP3    H228393   2.909   2.644  12.199  1.0374  0.3310 -0.1731
 1400TIP3   OH228394   1.663   1.180  11.059 -0.4540  0.4238 -0.2570
 1400TIP3    H128395   1.722   1.122  11.106  1.6487  1.7994 -1.0512
 1400TIP3    H228396   1.594   1.200  11.122  1.4526  1.0193  1.7848
 1401TIP3   OH228397   3.634   1.166  11.026 -0.0229 -0.2178 -0.8589
 1401TIP3    H128398   3.631   1.074  11.001  0.4347 -0.2318 -0.8547
 1401TIP3    H228399   3.572   1.208  10.966 -3.0434 -1.0362  1.4271
 1402TIP3   OH228400   2.485   4.771  11.741 -0.7049 -0.7961 -0.3402
 1402TIP3    H128401   2.519   4.835  11.803  0.0070  0.1802 -1.6743
 1402TIP3    H228402   2.466   4.694  11.794 -1.3323  0.4072  1.2772
 1403TIP3   OH228403   5.156   2.534   9.908  0.1017 -0.3788 -0.4738
 1403TIP3    H128404   5.063   2.548   9.924  0.1981 -0.0852 -0.1628
 1403TIP3    H228405   5.177   2.454   9.956  0.2181  0.0764  0.2547
 1404TIP3   OH228406   1.973   0.384  11.975 -0.1597 -0.1260  0.2313
 1404TIP3    H128407   2.030   0.406  12.048 -0.1337 -1.5261  0.6666
 1404TIP3    H228408   1.992   0.451  11.909  0.3154  0.7567  1.2268
 1405TIP3   OH228409   1.107   6.044   9.978  0.0051 -0.0895  0.0080
 1405TIP3    H128410   1.016   6.039   9.950 -0.2156  0.7927  0.5332
 1405TIP3    H228411   1.141   5.955   9.967 -0.3380  0.0014 -2.1016
 1406TIP3   OH228412   0.220   2.474  10.415  0.1652  0.4119  0.8444
 1406TIP3    H128413   0.241   2.446  10.326  0.4793  0.4822  0.8955
 1406TIP3    H228414   0.297   2.450  10.467  0.6464  1.7750  0.8058
 1407TIP3   OH228415   1.683   5.773  13.136 -0.8219  0.4785 -0.3062
 1407TIP3    H128416   1.738   5.851  13.124 -0.1040  0.0294 -0.0209
 1407TIP3    H228417   1.706   5.716  13.062 -1.2719  0.4978 -0.4612
 1408TIP3   OH228418   1.313   5.300  11.585  0.1642  0.1302 -0.3353
 1408TIP3    H128419   1.227   5.294  11.543  0.5205  0.6555 -1.1711
 1408TIP3    H228420   1.358   5.369  11.537  1.0230 -0.0672  0.1645
 1409TIP3   OH228421   4.811   2.108  13.365  0.3999 -0.1917 -0.5434
 1409TIP3    H128422   4.766   2.188  13.340  0.6408  0.4021  0.8186
 1409TIP3    H228423   4.741   2.046  13.386  0.0719  1.0226  2.5067
 1410TIP3   OH228424   2.886   6.637  12.210 -0.0368 -0.2471  0.4092
 1410TIP3    H128425   2.842   6.722  12.203 -0.2090 -0.3855 -0.2740
 1410TIP3    H228426   2.816   6.572  12.199  0.1204 -0.4813  0.7587
 1411TIP3   OH228427   2.396   1.552  12.196 -0.8341  0.8847 -0.1075
 1411TIP3    H128428   2.432   1.628  12.242 -0.1566  0.6836 -0.2911
 1411TIP3    H228429   2.365   1.587  12.112  0.9943  0.7127 -0.9107
 1412TIP3   OH228430   3.097   0.256  12.541  0.0672  0.7759 -0.3697
 1412TIP3    H128431   3.132   0.192  12.480  0.2022  0.5124 -0.0208
 1412TIP3    H228432   3.172   0.310  12.566  0.6892 -0.9368  1.8034
 1413TIP3   OH228433   0.568   6.798  11.708 -0.0176  0.6940  0.3180
 1413TIP3    H128434   0.477   6.825  11.722 -0.8256 -0.0508 -2.8673
 1413TIP3    H228435   0.619   6.879  11.720 -1.2120  1.3732  0.9783
 1414TIP3   OH228436   5.389   5.292  12.344 -0.4720  0.2170 -0.1775
 1414TIP3    H128437   5.396   5.368  12.401 -1.0902  0.4630 -0.4200
 1414TIP3    H228438   5.470   5.243  12.359  0.3858  1.4013 -0.7218
 1415TIP3   OH228439   1.387   1.052  13.023  0.0286  0.1774 -0.1215
 1415TIP3    H128440   1.409   1.104  12.946  2.6891  1.1415  1.1495
 1415TIP3    H228441   1.351   1.115  13.085 -2.3387 -0.6360 -0.5502
 1416TIP3   OH228442   4.199   2.926  13.028  0.0616  0.5378  0.2544
 1416TIP3    H128443   4.117   2.927  12.979 -0.4635 -0.1991  1.0966
 1416TIP3    H228444   4.204   3.013  13.068 -0.4683  0.4778  0.4594
 1417TIP3   OH228445   3.456   1.587   9.866  0.3810  0.5575  1.0512
 1417TIP3    H128446   3.451   1.667   9.814  1.5166 -1.2866 -2.1931
 1417TIP3    H228447   3.542   1.592   9.908  1.9743 -0.2750 -1.8136
 1418TIP3   OH228448   4.562   2.105  11.426 -0.6031 -0.1362  0.1923
 1418TIP3    H128449   4.578   2.111  11.520 -1.6005 -0.1787  0.3780
 1418TIP3    H228450   4.609   2.179  11.389 -3.1770  2.1808  1.1730
 1419TIP3   OH228451   3.525   3.053  11.668 -0.3206 -0.0948 -0.2092
 1419TIP3    H128452   3.570   2.988  11.614  0.1345  0.5801 -0.6402
 1419TIP3    H228453   3.561   3.137  11.641  1.2358  0.1642  2.3532
 1420TIP3   OH228454   0.647   2.556  10.700 -0.3693 -0.3028 -0.0537
 1420TIP3    H128455   0.732   2.516  10.719 -1.0668 -2.7573 -1.5754
 1420TIP3    H228456   0.668   2.643  10.667  1.5135 -0.6286  0.1939
 1421TIP3   OH228457   1.225   1.759  11.401  0.1570 -0.0842 -0.1563
 1421TIP3    H128458   1.184   1.715  11.476  0.4990  1.4406  0.9776
 1421TIP3    H228459   1.196   1.850  11.408  1.2793  0.3713 -1.1041
 1422TIP3   OH228460   3.908   1.998  13.032 -0.0693 -0.5689  0.9468
 1422TIP3    H128461   3.909   2.090  13.006 -2.0345 -0.9022 -0.5681
 1422TIP3    H228462   3.943   1.951  12.956  0.1250 -1.1346  1.3809
 1423TIP3   OH228463   5.318   5.398  12.099 -0.4090 -0.2334  0.1493
 1423TIP3    H128464   5.310   5.490  12.122 -4.4345 -0.7153  1.5515
 1423TIP3    H228465   5.353   5.356  12.178  0.1516 -0.0865 -0.0183
 1424TIP3   OH228466   1.131   0.732   9.838  0.1969 -0.3669  0.5670
 1424TIP3    H128467   1.091   0.808   9.794  3.6201  1.3010 -0.0438
 1424TIP3    H228468   1.161   0.766   9.922  1.1218 -1.2306  0.6062
 1425TIP3   OH228469   4.692   5.040  12.686 -0.2724 -0.4158 -1.0850
 1425TIP3    H128470   4.618   5.027  12.627  0.1079 -0.7419 -1.4877
 1425TIP3    H228471   4.761   5.076  12.631 -0.4543  0.8711 -0.5043
 1426TIP3   OH228472   4.218   2.879   9.696 -0.4567 -0.3896  0.4551
 1426TIP3    H128473   4.161   2.824   9.750 -0.5274  0.3446  1.1552
 1426TIP3    H228474   4.171   2.889   9.613  0.2408 -2.5999 -0.2780
 1427TIP3   OH228475   1.010   0.068  12.458  0.1452  0.6069  0.0155
 1427TIP3    H128476   1.074   0.004  12.488 -0.0831  0.4634  0.2070
 1427TIP3    H228477   1.052   0.153  12.472 -0.1911  0.5795  1.3644
 1428TIP3   OH228478   6.697   4.508  12.045 -0.1727  0.3917 -0.2214
 1428TIP3    H128479   6.681   4.507  12.140  0.5662 -0.3648 -0.0958
 1428TIP3    H228480   6.609   4.515  12.007 -0.6029 -0.7575  0.4961
 1429TIP3   OH228481   4.983   3.715  11.376  0.2309  0.0961  0.0305
 1429TIP3    H128482   5.011   3.657  11.305 -0.5373 -0.2028 -0.0364
 1429TIP3    H228483   5.026   3.680  11.454 -0.3784 -0.6891  0.0235
 1430TIP3   OH228484   2.072   2.913  11.876  0.1272  0.1792 -0.2510
 1430TIP3    H128485   1.999   2.854  11.891  1.4838 -0.8236  3.5685
 1430TIP3    H228486   2.035   3.001  11.887 -0.6160 -0.3073  1.4722
 1431TIP3   OH228487   0.870   2.275  10.528 -0.1327  0.1095  0.7886
 1431TIP3    H128488   0.917   2.358  10.542  0.4481  0.1571 -1.1751
 1431TIP3    H228489   0.918   2.232  10.457 -3.9420  0.9704 -2.6622
 1432TIP3   OH228490   1.977   3.461  11.772 -0.5717  0.1809 -0.1933
 1432TIP3    H128491   2.014   3.504  11.695 -0.1070  1.5406  0.7521
 1432TIP3    H228492   2.045   3.399  11.800  1.1126  2.6137  1.4956
 1433TIP3   OH228493   1.575   1.450  10.079 -0.3626 -0.8205  0.3273
 1433TIP3    H128494   1.598   1.436   9.987 -2.4557 -1.2560 -0.1860
 1433TIP3    H228495   1.611   1.374  10.124  1.4982 -0.1502  0.0811
 1434TIP3   OH228496   6.413   1.373  11.125 -0.2427  0.3573 -0.3056
 1434TIP3    H128497   6.430   1.289  11.082 -0.3002 -0.3749  1.0272
 1434TIP3    H228498   6.495   1.395  11.169 -0.1372  1.1606 -0.8815
 1435TIP3   OH228499   1.204   3.779   9.126  0.0308  0.3754 -0.1002
 1435TIP3    H128500   1.177   3.728   9.203  0.6823  1.1779  0.6696
 1435TIP3    H228501   1.225   3.866   9.160  2.1338  0.2276 -0.8774
 1436TIP3   OH228502   5.265   5.020  12.655  0.3000  0.1105  0.4468
 1436TIP3    H128503   5.328   5.083  12.620 -1.0916  1.4845  0.2917
 1436TIP3    H228504   5.207   5.000  12.582 -0.9366  0.8210  1.2022
 1437TIP3   OH228505   4.730   3.642  11.904  0.4568  0.1341 -0.7540
 1437TIP3    H128506   4.768   3.679  11.824  0.5376 -0.5453 -1.0398
 1437TIP3    H228507   4.804   3.598  11.946  0.5265  0.9204 -0.0412
 1438TIP3   OH228508   3.075   3.301   9.426 -0.0636 -0.6501  0.2074
 1438TIP3    H128509   3.102   3.264   9.342  0.7563  0.5295 -0.0812
 1438TIP3    H228510   3.017   3.374   9.403  0.2676 -0.2366  0.6633
 1439TIP3   OH228511   3.185   0.114  10.216  0.7773  0.5301 -0.2634
 1439TIP3    H128512   3.195   0.202  10.180 -1.8625  0.5507 -1.1207
 1439TIP3    H228513   3.249   0.061  10.167  0.7373  1.5213 -1.4433
 1440TIP3   OH228514   1.618   1.673  10.651  0.3287  0.2167 -0.4475
 1440TIP3    H128515   1.564   1.737  10.698 -0.0916  0.4063 -1.1811
 1440TIP3    H228516   1.706   1.685  10.688  0.0164  0.3867  0.2638
 1441TIP3   OH228517   2.519   5.947   9.955  0.4126  0.2339  0.1134
 1441TIP3    H128518   2.492   5.870  10.004 -0.0009 -0.0877 -0.6148
 1441TIP3    H228519   2.453   6.013   9.977 -0.0798 -0.0718 -0.4171
 1442TIP3   OH228520   4.552   5.513  12.684  0.7632  0.2689  0.3155
 1442TIP3    H128521   4.551   5.567  12.605  0.0130  0.2638  0.3192
 1442TIP3    H228522   4.607   5.562  12.745  2.8898 -0.5952 -0.7931
 1443TIP3   OH228523   5.923   4.602  11.549 -0.8310  0.5377  0.3655
 1443TIP3    H128524   5.925   4.575  11.458  0.8307 -2.2526  1.1160
 1443TIP3    H228525   5.939   4.696  11.547 -1.1269  0.5911 -2.2038
 1444TIP3   OH228526   2.945   5.613  10.027 -0.0467 -0.1355  0.1961
 1444TIP3    H128527   2.912   5.702  10.039 -0.8338 -0.5721  1.5531
 1444TIP3    H228528   2.885   5.558  10.078  0.6209 -1.4071 -0.3345
 1445TIP3   OH228529   2.666   0.862  10.215 -0.0938  0.0441  0.2608
 1445TIP3    H128530   2.750   0.889  10.251 -0.2125  0.7980 -0.0229
 1445TIP3    H228531   2.687   0.827  10.128 -0.2709  1.9195 -0.5712
 1446TIP3   OH228532   6.615   1.673  10.642  0.0144 -0.1936 -0.4552
 1446TIP3    H128533   6.710   1.679  10.648 -0.0683  0.7396  0.3689
 1446TIP3    H228534   6.589   1.758  10.605 -0.4734 -0.6286 -1.1282
 1447TIP3   OH228535   5.734   4.261  11.374 -0.3485 -0.2436 -0.4545
 1447TIP3    H128536   5.801   4.194  11.389 -0.8479 -0.3344  1.7307
 1447TIP3    H228537   5.731   4.272  11.279 -0.8134 -3.9109 -1.0066
 1448TIP3   OH228538   5.740   3.569  12.645  0.5965  0.2373  0.4032
 1448TIP3    H128539   5.680   3.589  12.573  0.6905 -0.1515  0.2160
 1448TIP3    H228540   5.717   3.632  12.714  0.4336  0.5359  0.0756
 1449TIP3   OH228541   6.520   1.296  12.023 -0.2407 -0.7329  0.2670
 1449TIP3    H128542   6.489   1.362  12.086 -1.7898 -2.6652  1.6411
 1449TIP3    H228543   6.466   1.308  11.946  0.4005  0.4283 -0.0350
 1450TIP3   OH228544   6.120   2.709  12.376  0.2271 -0.6683  0.4112
 1450TIP3    H128545   6.091   2.733  12.288  0.0392  1.8372  1.0699
 1450TIP3    H228546   6.130   2.614  12.373 -0.9627 -0.7993 -1.9437
 1451TIP3   OH228547   0.760   3.493  12.674  0.0516 -0.4283 -0.2468
 1451TIP3    H128548   0.726   3.569  12.628 -2.2408 -0.6293  0.9543
 1451TIP3    H228549   0.808   3.443  12.607  0.7748  1.5383 -1.2599
 1452TIP3   OH228550   4.976   1.051  11.114  0.0253 -0.2717 -0.1535
 1452TIP3    H128551   5.015   0.997  11.183  0.3125  0.5546  0.3524
 1452TIP3    H228552   4.895   1.085  11.154 -0.4001 -0.7031 -0.6358
 1453TIP3   OH228553   3.905   3.301  11.995  0.0006  0.0101 -0.2766
 1453TIP3    H128554   3.906   3.239  12.068 -1.2103  0.1597 -0.1116
 1453TIP3    H228555   3.973   3.269  11.935  0.7401 -0.3333  0.7274
 1454TIP3   OH228556   4.788   1.387  11.633 -0.0428 -0.0139 -0.4888
 1454TIP3    H128557   4.742   1.408  11.551  1.5486 -0.0225 -1.4374
 1454TIP3    H228558   4.726   1.335  11.683 -2.1876  2.4206 -0.3760
 1455TIP3   OH228559   0.067   0.961  10.853 -0.2311 -0.3193 -0.3120
 1455TIP3    H128560   0.009   0.886  10.867 -0.9404  0.3623  0.5699
 1455TIP3    H228561   0.026   1.010  10.781  0.3060 -0.8341 -0.9800
 1456TIP3   OH228562   1.220   1.775  10.350  0.1941  0.1526  0.5822
 1456TIP3    H128563   1.151   1.821  10.303 -0.0010 -1.2761 -0.5905
 1456TIP3    H228564   1.282   1.748  10.282  0.9738 -0.1628  1.3905
 1457TIP3   OH228565   0.280   6.497  13.261  0.1148 -0.2429  0.2805
 1457TIP3    H128566   0.318   6.530  13.343 -0.8640 -1.1753  1.1340
 1457TIP3    H228567   0.188   6.523  13.266 -0.4493 -2.1464  0.5084
 1458TIP3   OH228568   2.641   4.789  13.342  0.1557  0.5062  0.9494
 1458TIP3    H128569   2.564   4.844  13.357  0.5556  1.1806  0.5710
 1458TIP3    H228570   2.612   4.726  13.276 -0.3091  0.2511  1.3931
 1459TIP3   OH228571   5.014   0.180  12.470  0.4687 -0.2691 -0.2156
 1459TIP3    H128572   4.996   0.164  12.562  0.5088 -0.0933 -0.1764
 1459TIP3    H228573   4.928   0.204  12.433  0.2160 -1.5165 -0.4822
 1460TIP3   OH228574   3.801   4.913  11.868 -0.0734  0.1741 -0.1176
 1460TIP3    H128575   3.781   5.003  11.894 -2.8615  0.0355 -1.4179
 1460TIP3    H228576   3.759   4.859  11.935  2.8739 -0.3248  1.5455
 1461TIP3   OH228577   4.576   0.939  12.376 -0.2378  0.1510  0.0358
 1461TIP3    H128578   4.586   0.964  12.468 -0.8400 -1.6664  0.6338
 1461TIP3    H228579   4.482   0.940  12.360 -0.1264  0.6965 -0.6507
 1462TIP3   OH228580   1.478   4.233  13.002 -0.2274 -0.4380  0.6815
 1462TIP3    H128581   1.467   4.281  12.920  1.8146 -0.5644  0.2979
 1462TIP3    H228582   1.388   4.218  13.032 -1.0516 -0.5133 -1.5858
 1463TIP3   OH228583   4.719   0.181  11.126 -0.1831 -0.1769  0.1376
 1463TIP3    H128584   4.778   0.115  11.090 -0.7362  0.1771 -1.5106
 1463TIP3    H228585   4.658   0.199  11.055 -1.1840  0.7647  1.1969
 1464TIP3   OH228586   5.836   4.916  12.842 -0.0476 -0.4181  0.0617
 1464TIP3    H128587   5.795   4.992  12.885 -2.3913 -1.0825 -0.8493
 1464TIP3    H228588   5.825   4.933  12.749  0.9007 -1.1318 -0.1908
 1465TIP3   OH228589   3.045   5.249  10.569  0.2714  0.6694  0.1771
 1465TIP3    H128590   3.067   5.295  10.650  4.0086  0.6014 -0.6511
 1465TIP3    H228591   3.073   5.307  10.499 -1.6790  0.1567 -1.1387
 1466TIP3   OH228592   4.522   4.635  11.940  0.0778  0.5713  0.2462
 1466TIP3    H128593   4.582   4.710  11.931 -0.7294  1.4240  1.5895
 1466TIP3    H228594   4.530   4.588  11.857 -0.5808  3.0313 -1.3164
 1467TIP3   OH228595   4.178   3.835  11.188 -0.0876 -0.0404  0.5431
 1467TIP3    H128596   4.160   3.901  11.255 -1.0750 -1.1729  1.4338
 1467TIP3    H228597   4.177   3.884  11.105 -0.5754  1.0966  1.2017
 1468TIP3   OH228598   5.844   6.292  12.815 -0.3631 -0.1488  0.1022
 1468TIP3    H128599   5.834   6.342  12.896 -0.3569 -2.0667  1.3600
 1468TIP3    H228600   5.937   6.267  12.813 -0.3691 -0.1391 -0.4847
 1469TIP3   OH228601   5.430   5.250  10.142  0.3677  0.0527 -0.2855
 1469TIP3    H128602   5.381   5.327  10.168 -1.3120 -1.0344 -0.0814
 1469TIP3    H228603   5.472   5.274  10.060 -0.7440  0.9361 -0.6092
 1470TIP3   OH228604   5.827   0.102  13.292  0.1906  0.3293  0.1743
 1470TIP3    H128605   5.816   0.026  13.235 -2.3234  0.0768  0.8566
 1470TIP3    H228606   5.801   0.176  13.238  0.0266  0.3721  0.3120
 1471TIP3   OH228607   0.744   3.896  11.516  0.5427  0.6124 -0.1394
 1471TIP3    H128608   0.730   3.819  11.571  0.0983 -0.0919 -1.2114
 1471TIP3    H228609   0.837   3.892  11.493  0.8611  1.2110  0.9721
 1472TIP3   OH228610   2.037   1.824  13.158 -0.4358 -0.4800 -0.3315
 1472TIP3    H128611   2.021   1.912  13.192 -1.9843 -0.6843 -0.4631
 1472TIP3    H228612   2.049   1.836  13.064 -1.4774 -0.4752 -0.4770
 1473TIP3   OH228613   0.005   0.125  11.850 -0.2997 -0.6830 -0.5141
 1473TIP3    H128614   0.080   0.129  11.791 -0.1743 -0.0533 -0.3186
 1473TIP3    H228615  -0.009   0.031  11.864  1.6023 -0.8448  0.8669
 1474TIP3   OH228616   4.134   5.771  11.670 -0.3263  0.5222  0.2698
 1474TIP3    H128617   4.143   5.698  11.731  2.3058  1.2835  0.9238
 1474TIP3    H228618   4.166   5.737  11.586 -0.7517  0.4368  0.1404
 1475TIP3   OH228619   0.894   6.375  11.367  0.3703 -0.4952  0.0139
 1475TIP3    H128620   0.861   6.286  11.379  0.1327 -0.5462 -0.9582
 1475TIP3    H228621   0.921   6.402  11.455  0.4706 -1.5317  0.3159
 1476TIP3   OH228622   5.874   5.446  11.434  0.2874  0.1647 -0.2709
 1476TIP3    H128623   5.836   5.471  11.350 -2.3848  1.3946  1.1660
 1476TIP3    H228624   5.915   5.361  11.418 -0.0998  0.3793 -2.7899
 1477TIP3   OH228625   1.604   5.967  10.625  0.0816 -0.3040  0.3811
 1477TIP3    H128626   1.563   6.049  10.598 -1.2823 -1.5330 -1.6282
 1477TIP3    H228627   1.660   5.990  10.699 -2.7167  1.8617  2.0132
 1478TIP3   OH228628   2.883   3.934  10.002  0.0235  0.1523  0.1014
 1478TIP3    H128629   2.822   4.007  10.010 -1.2841 -0.8360 -0.6573
 1478TIP3    H228630   2.949   3.951  10.070  0.0201  2.2625 -0.3354
 1479TIP3   OH228631   6.510   5.931  10.558 -0.1477 -0.0305  0.1930
 1479TIP3    H128632   6.497   5.884  10.640  1.5936  1.0491  1.1418
 1479TIP3    H228633   6.486   6.022  10.578 -0.0567  0.1787 -0.5923
 1480TIP3   OH228634   3.763   0.137  12.272  0.0240  0.1603  0.0234
 1480TIP3    H128635   3.761   0.164  12.180  0.5664 -0.9452 -0.3246
 1480TIP3    H228636   3.677   0.162  12.306 -0.3759  0.1057 -0.9197
 1481TIP3   OH228637   1.308   0.214  11.347 -0.0769 -0.3920 -0.7136
 1481TIP3    H128638   1.370   0.168  11.291 -0.5078 -2.0978  0.1548
 1481TIP3    H228639   1.230   0.159  11.347  0.3231 -1.1576  2.5319
 1482TIP3   OH228640   4.261   1.213  11.559 -0.4549  0.2701  0.3217
 1482TIP3    H128641   4.343   1.248  11.593  0.0239 -0.3260 -0.1911
 1482TIP3    H228642   4.221   1.287  11.513  0.0846  0.4076  0.0672
 1483TIP3   OH228643   6.314   1.740  10.092 -0.1733 -0.4660  0.5827
 1483TIP3    H128644   6.379   1.696  10.038  0.3033  3.2620 -2.2357
 1483TIP3    H228645   6.231   1.723  10.048 -0.2686 -0.1790  0.6535
 1484TIP3   OH228646   4.813   2.561  11.500 -0.1406 -0.2583 -0.1557
 1484TIP3    H128647   4.904   2.575  11.526  0.4291 -1.6036 -1.2926
 1484TIP3    H228648   4.762   2.578  11.579  1.1867 -0.5278  0.7766
 1485TIP3   OH228649   0.220   3.542  12.222  0.2902 -0.4166 -0.4509
 1485TIP3    H128650   0.291   3.555  12.159  0.3532 -1.8204 -0.7031
 1485TIP3    H228651   0.260   3.490  12.292  0.1232  0.8177  0.5987
 1486TIP3   OH228652   5.352   1.199  12.275  0.2462 -0.3031 -0.6131
 1486TIP3    H128653   5.279   1.147  12.307 -0.3760  0.7276 -0.3096
 1486TIP3    H228654   5.312   1.275  12.233  1.1417  0.7857  0.4284
 1487TIP3   OH228655   3.058   5.347  12.042 -0.2219  0.1799  0.4156
 1487TIP3    H128656   3.040   5.270  11.988 -0.4272 -0.0697  0.8342
 1487TIP3    H228657   2.980   5.402  12.030 -0.4355 -0.0458  0.7481
 1488TIP3   OH228658   6.477   0.177  11.533  0.6826 -0.0160 -0.1713
 1488TIP3    H128659   6.493   0.142  11.620 -2.3325 -0.4419  0.3091
 1488TIP3    H228660   6.500   0.106  11.473 -1.6247 -1.4887  0.5856
 1489TIP3   OH228661   2.862   3.836   9.753 -0.2961  0.0487  0.3293
 1489TIP3    H128662   2.884   3.873   9.838  0.8158  2.0704 -0.7510
 1489TIP3    H228663   2.800   3.899   9.715 -0.9189 -0.9093 -0.3084
 1490TIP3   OH228664   1.773   2.446   9.933 -0.6408 -0.8087  0.2542
 1490TIP3    H128665   1.841   2.513   9.938 -1.2141 -0.1442 -0.5775
 1490TIP3    H228666   1.737   2.441  10.021 -0.2250 -0.4127  0.4460
 1491TIP3   OH228667   5.025   5.993  12.123 -0.0665  0.0752  0.3760
 1491TIP3    H128668   4.930   6.006  12.114 -0.5178 -2.4080  0.9275
 1491TIP3    H228669   5.054   6.066  12.178 -1.4013  1.6142 -0.8665
 1492TIP3   OH228670   6.489   4.444  10.469 -0.4801 -0.9999  0.3060
 1492TIP3    H128671   6.457   4.379  10.532  1.9998 -0.8602  1.8687
 1492TIP3    H228672   6.514   4.519  10.523  2.2214 -1.0676 -0.6870
 1493TIP3   OH228673   1.867   4.857  13.242 -0.8830 -0.1906 -0.1611
 1493TIP3    H128674   1.803   4.911  13.197 -0.0109  0.5954 -0.4683
 1493TIP3    H228675   1.889   4.906  13.322  0.2929  0.1898 -0.6915
 1494TIP3   OH228676   2.628   4.391  10.532 -0.4639 -0.5946 -0.1126
 1494TIP3    H128677   2.692   4.460  10.546  1.3154 -1.7935 -1.8110
 1494TIP3    H228678   2.553   4.435  10.492  0.0335  0.5765  0.2113
 1495TIP3   OH228679   5.003   2.971  12.264  0.1462 -0.1004  0.1297
 1495TIP3    H128680   5.048   3.007  12.340 -0.8549  1.5768  0.0078
 1495TIP3    H228681   4.921   2.935  12.299  0.3662 -0.6983  0.0313
 1496TIP3   OH228682   3.678   2.998  10.844 -0.2385  0.1145  0.2298
 1496TIP3    H128683   3.745   2.978  10.779 -1.0195  0.0722 -0.5935
 1496TIP3    H228684   3.714   2.966  10.926  0.4706 -0.5077 -0.3055
 1497TIP3   OH228685   0.554   5.118  12.135  0.1875 -0.2825  0.4964
 1497TIP3    H128686   0.516   5.085  12.217  1.0436 -1.6594  0.3726
 1497TIP3    H228687   0.644   5.140  12.158  0.7317 -1.5823 -0.2487
 1498TIP3   OH228688   3.518   5.789  13.249 -0.0455  0.0470  0.3065
 1498TIP3    H128689   3.433   5.832  13.251  0.9805  2.3086 -0.8363
 1498TIP3    H228690   3.498   5.697  13.231 -2.2257  0.5131  0.0575
 1499TIP3   OH228691   1.950   4.603  12.766 -0.6278 -0.4652 -0.4956
 1499TIP3    H128692   1.892   4.631  12.837 -2.4941  0.5678 -2.3427
 1499TIP3    H228693   1.897   4.610  12.687  2.0980  0.8178 -2.3608
 1500TIP3   OH228694   0.832   6.358  12.149 -0.3740  0.4606 -0.1478
 1500TIP3    H128695   0.905   6.420  12.155  0.0678 -0.0240 -0.4084
 1500TIP3    H228696   0.839   6.323  12.060 -1.1668  0.7018 -0.3083
 1501TIP3   OH228697   5.447   6.650  10.846 -0.4872 -0.1569  0.6504
 1501TIP3    H128698   5.352   6.659  10.837 -0.4439  0.0212  0.3319
 1501TIP3    H228699   5.463   6.555  10.840 -0.5404 -0.1113 -0.5124
 1502TIP3   OH228700   2.255   3.603  10.658  0.6595 -0.5806 -0.0135
 1502TIP3    H128701   2.348   3.588  10.642  0.6306  0.8989 -1.8601
 1502TIP3    H228702   2.248   3.698  10.669 -0.7565 -0.5455 -0.9432
 1503TIP3   OH228703   6.040   0.324  11.716 -0.2870  0.2182  0.0168
 1503TIP3    H128704   6.087   0.399  11.679 -0.3759 -0.3611 -1.3268
 1503TIP3    H228705   6.108   0.271  11.757  0.1889 -0.3289 -1.4200
 1504TIP3   OH228706   0.469   5.102  12.382 -0.2173 -0.1053 -0.5240
 1504TIP3    H128707   0.374   5.111  12.385 -0.4881 -2.4764  0.0051
 1504TIP3    H228708   0.497   5.117  12.472 -0.4514 -2.0282 -0.0771
 1505TIP3   OH228709   0.521   0.514  11.810  0.4831 -0.3441  0.1291
 1505TIP3    H128710   0.575   0.591  11.827  1.1326 -0.8022  0.2147
 1505TIP3    H228711   0.527   0.501  11.715  0.4542 -0.3393  0.1267
 1506TIP3   OH228712   6.249   1.557  11.419 -0.0026  0.4172  0.1127
 1506TIP3    H128713   6.291   1.630  11.465 -1.8923  1.4136  0.3545
 1506TIP3    H228714   6.234   1.491  11.486 -1.5066  1.3036  0.6866
 1507TIP3   OH228715   0.074   0.144  10.434  0.1793  0.2055 -0.0874
 1507TIP3    H128716  -0.001   0.181  10.387 -0.6377  0.9536  1.6873
 1507TIP3    H228717   0.039   0.065  10.476  0.1043  0.9804  1.4009
 1508TIP3   OH228718   3.492   0.132  12.609  0.1698  0.0584 -0.1111
 1508TIP3    H128719   3.542   0.089  12.678  2.1727  0.6747 -1.1004
 1508TIP3    H228720   3.407   0.089  12.610  0.6886 -1.0008  1.6855
 1509TIP3   OH228721   1.700   2.660  10.702  0.0540  0.3679  0.2562
 1509TIP3    H128722   1.792   2.636  10.695  0.3987  1.7961 -0.4289
 1509TIP3    H228723   1.698   2.731  10.766 -0.5396  0.4778  0.1256
 1510TIP3   OH228724   4.284   2.213  12.992 -0.1550 -0.4605  0.4607
 1510TIP3    H128725   4.376   2.236  12.985 -0.1751 -0.0020  1.4815
 1510TIP3    H228726   4.237   2.294  12.976 -0.3677 -0.6163  0.2877
 1511TIP3   OH228727   1.540   1.860  11.967  0.4702 -0.9452 -0.2246
 1511TIP3    H128728   1.479   1.830  11.899 -0.2976 -0.6721  0.3301
 1511TIP3    H228729   1.583   1.937  11.928  0.0672 -0.8140 -0.4178
 1512TIP3   OH228730   0.201   3.761  11.532 -0.5630 -0.2753  0.2537
 1512TIP3    H128731   0.207   3.786  11.440  2.7694  0.3120  0.5202
 1512TIP3    H228732   0.187   3.667  11.531  0.1466 -0.3812 -0.8753
 1513TIP3   OH228733   4.165   3.528  13.117  0.2461 -0.0124 -0.6878
 1513TIP3    H128734   4.094   3.591  13.106  1.0259  0.9892 -0.1974
 1513TIP3    H228735   4.238   3.565  13.067  1.1500  0.2345  0.7431
 1514TIP3   OH228736   6.013   0.417  12.693 -0.4667  0.0867 -0.2211
 1514TIP3    H128737   5.995   0.362  12.769  1.5387 -0.5871 -0.1672
 1514TIP3    H228738   5.978   0.503  12.715  0.5734  0.0637  1.7310
 1515TIP3   OH228739   1.742   2.929  10.815  0.4274  0.5003  0.0304
 1515TIP3    H128740   1.825   2.882  10.812 -0.5443 -1.2877 -0.3122
 1515TIP3    H228741   1.725   2.942  10.908  0.2504 -0.7249  0.1826
 1516TIP3   OH228742   4.952   4.371  12.149 -0.6025  0.2213  0.2501
 1516TIP3    H128743   4.891   4.387  12.077  0.6469  1.1196 -0.6307
 1516TIP3    H228744   4.968   4.276  12.146 -0.9920  0.1688 -0.2861
 1517TIP3   OH228745   4.250   2.495  12.966  0.2218  0.0327  0.9524
 1517TIP3    H128746   4.173   2.533  13.008  1.0163  3.8688 -0.6140
 1517TIP3    H228747   4.324   2.537  13.009  1.1448  1.1756 -1.5649
 1518TIP3   OH228748   3.082   5.767   9.523  0.3272 -0.6367  0.4473
 1518TIP3    H128749   3.089   5.672   9.530 -1.4288 -0.7064  2.5649
 1518TIP3    H228750   2.991   5.782   9.497  0.8371  0.4719 -0.8010
 1519TIP3   OH228751   6.474   4.893  11.838  0.3547  0.8000  0.2313
 1519TIP3    H128752   6.450   4.960  11.901 -1.6409 -1.4014  2.0325
 1519TIP3    H228753   6.394   4.841  11.827  1.7045 -1.1050 -1.2713
 1520TIP3   OH228754   2.570   2.680  10.248  0.6836  0.2162  0.0619
 1520TIP3    H128755   2.520   2.610  10.289  0.3160 -0.1971 -1.0420
 1520TIP3    H228756   2.654   2.679  10.293  0.6693 -0.9214  0.0895
 1521TIP3   OH228757   2.097   5.850  11.338  0.0057 -0.2159  0.6769
 1521TIP3    H128758   2.095   5.754  11.334 -1.2078 -0.1550 -2.0781
 1521TIP3    H228759   2.010   5.877  11.310  1.0305  1.6915 -0.9250
 1522TIP3   OH228760   3.785   3.549  13.202 -0.1699 -0.5984 -0.0481
 1522TIP3    H128761   3.854   3.603  13.239 -0.4068 -0.1571 -0.2469
 1522TIP3    H228762   3.812   3.459  13.221 -0.4322 -0.3774  1.4247
 1523TIP3   OH228763   5.143   3.118  10.987  0.0966 -0.2799  0.3568
 1523TIP3    H128764   5.155   3.050  10.921  2.0056  1.2295 -0.9650
 1523TIP3    H228765   5.053   3.148  10.975  0.4186 -0.0055 -1.6395
 1524TIP3   OH228766   2.979   6.300  12.326  0.9720 -0.6025  0.3893
 1524TIP3    H128767   3.072   6.304  12.302  1.2076 -1.5121  1.0811
 1524TIP3    H228768   2.970   6.365  12.396  1.2770 -1.0586  0.8633
 1525TIP3   OH228769   0.673   1.255  11.878  0.1098 -0.0534 -0.0068
 1525TIP3    H128770   0.718   1.320  11.824 -0.1500 -0.4385 -0.7015
 1525TIP3    H228771   0.726   1.249  11.957  1.9792 -1.3457 -1.2602
 1526TIP3   OH228772   1.394   3.184  10.703 -0.0031  0.2516 -0.1511
 1526TIP3    H128773   1.478   3.138  10.698 -0.1039  0.0659 -4.8948
 1526TIP3    H228774   1.417   3.277  10.701  0.1337  0.2027 -1.2429
 1527TIP3   OH228775   2.899   1.369  12.411 -0.2990 -0.4093 -0.0855
 1527TIP3    H128776   2.822   1.314  12.426  0.2321 -1.1215  0.0848
 1527TIP3    H228777   2.944   1.329  12.336  0.3489 -0.5020  0.3393
 1528TIP3   OH228778   4.279   2.703  12.285  0.5222 -0.4529  0.0227
 1528TIP3    H128779   4.227   2.656  12.219  0.4950  0.3102 -0.5098
 1528TIP3    H228780   4.295   2.638  12.353  0.4220 -1.2164 -0.6673
 1529TIP3   OH228781   2.932   0.537  10.894 -0.1767 -0.1259  0.2348
 1529TIP3    H128782   2.908   0.594  10.967  2.9099  0.0005  1.2815
 1529TIP3    H228783   2.910   0.448  10.924 -1.5470  0.1438  0.1020
 1530TIP3   OH228784   6.726   1.931  10.331 -0.4538  0.0372  0.5805
 1530TIP3    H128785   6.756   1.890  10.250 -3.8279  2.0104 -1.9065
 1530TIP3    H228786   6.786   2.004  10.345 -0.6760  0.5397 -1.0017
 1531TIP3   OH228787   4.430   6.126  12.952 -0.1463  0.3549  0.3696
 1531TIP3    H128788   4.414   6.032  12.948 -0.6273  0.4677 -1.9640
 1531TIP3    H228789   4.524   6.133  12.970  0.1078 -0.6245 -0.4328
 1532TIP3   OH228790   4.001   1.866  12.822  0.7270  0.0052 -0.2422
 1532TIP3    H128791   4.049   1.793  12.862 -0.7389 -0.6155  0.4691
 1532TIP3    H228792   3.945   1.825  12.756 -0.1755  0.4393  0.2233
 1533TIP3   OH228793   5.231   0.581  13.458 -0.6162 -0.4963  1.0968
 1533TIP3    H128794   5.308   0.633  13.438 -0.4665 -1.0310  0.2430
 1533TIP3    H228795   5.248   0.546  13.546  0.6124 -1.4604  0.5168
 1534TIP3   OH228796   5.098   4.090  11.373 -0.1158 -0.5465  0.3731
 1534TIP3    H128797   5.184   4.047  11.371  0.0529 -0.3565  1.8346
 1534TIP3    H228798   5.090   4.132  11.288  1.3861 -0.3244  0.3100
 1535TIP3   OH228799   4.383   5.094  11.530 -0.0271  0.6907 -0.0593
 1535TIP3    H128800   4.311   5.153  11.553  0.1656  0.1084  2.3013
 1535TIP3    H228801   4.364   5.013  11.578  1.0853 -0.2548 -1.1313
 1536TIP3   OH228802   6.310   3.401  11.178  0.1733  0.0383 -0.1358
 1536TIP3    H128803   6.336   3.490  11.156 -0.0645  0.4329  1.0954
 1536TIP3    H228804   6.310   3.354  11.094  0.1220  1.2322 -0.8201
 1537TIP3   OH228805   3.619   5.812  11.322 -0.0911  0.2506 -0.5763
 1537TIP3    H128806   3.671   5.778  11.249 -2.2568 -1.4346 -1.4550
 1537TIP3    H228807   3.628   5.747  11.391 -1.8441 -0.6309 -1.1419
 1538TIP3   OH228808   0.380   5.422  10.799  0.0350 -0.5547  0.0435
 1538TIP3    H128809   0.448   5.364  10.765 -0.0322 -0.4193 -0.3312
 1538TIP3    H228810   0.376   5.403  10.893  1.3239  0.1841  0.2746
 1539TIP3   OH228811   1.238   0.819  11.377 -0.3341  0.2122  0.1189
 1539TIP3    H128812   1.285   0.885  11.427 -0.1096  0.0363  0.1417
 1539TIP3    H228813   1.306   0.772  11.330 -0.7049  2.8961 -3.5407
 1540TIP3   OH228814   4.803   6.748  11.996  0.1064 -0.1008  0.2285
 1540TIP3    H128815   4.736   6.815  11.982  0.1067 -0.2020 -0.2887
 1540TIP3    H228816   4.824   6.717  11.908  2.3788  1.4283  0.1521
 1541TIP3   OH228817   3.215   2.564  11.258 -0.3541 -0.3454  0.3075
 1541TIP3    H128818   3.198   2.491  11.317  0.6449 -0.3210  0.6354
 1541TIP3    H228819   3.296   2.603  11.289 -1.7929  2.0981  1.2928
 1542TIP3   OH228820   5.498   6.786  13.057 -0.2852  0.3801 -0.1094
 1542TIP3    H128821   5.423   6.826  13.102 -0.4827  1.8214 -1.6031
 1542TIP3    H228822   5.574   6.835  13.088 -0.3216  0.8191 -0.7003
 1543TIP3   OH228823   2.088   0.351  11.672 -0.0548  0.3862  0.5422
 1543TIP3    H128824   2.075   0.366  11.579 -0.6426 -2.2993  0.1035
 1543TIP3    H228825   2.041   0.423  11.715 -1.4096  0.6211 -1.2278
 1544TIP3   OH228826   0.993   4.742  12.619  0.1698 -0.1685  0.3183
 1544TIP3    H128827   1.075   4.706  12.651  0.7601  2.5426  2.2245
 1544TIP3    H228828   1.015   4.783  12.535  0.9391  1.0334  1.0862
 1545TIP3   OH228829   5.593   0.074  12.310  0.0187 -0.2012 -0.6276
 1545TIP3    H128830   5.546   0.001  12.351  0.7856 -0.0447  0.5942
 1545TIP3    H228831   5.667   0.032  12.266 -0.2337 -0.2646 -1.0035
 1546TIP3   OH228832   6.457   1.968  13.166 -0.5527  0.4816 -0.3138
 1546TIP3    H128833   6.469   2.049  13.117 -0.9232  0.3766 -0.5894
 1546TIP3    H228834   6.401   1.914  13.109  0.0496 -0.1376 -0.3413
 1547TIP3   OH228835   0.804   4.090  12.387 -0.0002  0.0172  0.0488
 1547TIP3    H128836   0.798   4.005  12.343 -0.5288  0.3065 -0.4468
 1547TIP3    H228837   0.813   4.069  12.480 -0.4709 -0.5750 -0.0376
 1548TIP3   OH228838   3.031   1.518   9.756 -0.4268  0.0368 -0.0480
 1548TIP3    H128839   2.972   1.591   9.742  1.6007  1.5568 -1.1202
 1548TIP3    H228840   3.080   1.509   9.674  0.4537 -1.5305  0.5881
 1549TIP3   OH228841   0.764   1.993  11.405  0.2498  0.0617 -0.3422
 1549TIP3    H128842   0.694   2.012  11.467 -0.5983  1.4040 -1.6621
 1549TIP3    H228843   0.720   1.960  11.327  0.9865  1.6053 -1.4657
 1550TIP3   OH228844   2.726   5.143  12.138 -0.3529  0.1931 -0.1035
 1550TIP3    H128845   2.706   5.227  12.180 -1.9266 -0.5749  0.7763
 1550TIP3    H228846   2.727   5.163  12.044  1.1046  1.5285  0.1574
 1551TIP3   OH228847   1.607   3.976  11.471  0.1157 -0.2716  0.0652
 1551TIP3    H128848   1.637   4.054  11.519 -2.2233  0.8177 -0.1117
 1551TIP3    H228849   1.512   3.975  11.482 -0.1121 -2.1126 -1.4391
 1552TIP3   OH228850   6.247   6.057  12.532 -0.4313 -0.0140  0.4231
 1552TIP3    H128851   6.282   5.969  12.538 -0.7729 -0.1524  0.3842
 1552TIP3    H228852   6.152   6.046  12.523 -0.3410  0.2682 -1.5470
 1553TIP3   OH228853   5.265   0.066  11.912 -0.0051 -0.7761  0.4477
 1553TIP3    H128854   5.275   0.030  12.001  0.3681 -0.1245  0.6757
 1553TIP3    H228855   5.187   0.122  11.918  0.4959 -0.0763  0.5932
 1554TIP3   OH228856   4.853   6.756  12.922 -0.2591 -0.2094 -0.1167
 1554TIP3    H128857   4.778   6.698  12.909  0.3936 -0.9242 -0.7926
 1554TIP3    H228858   4.901   6.718  12.995  0.1105 -0.4784 -0.4912
 1555TIP3   OH228859   4.194   6.600  11.022  0.0980  0.1467 -0.0786
 1555TIP3    H128860   4.213   6.567  11.110  1.2298 -0.7025 -0.6231
 1555TIP3    H228861   4.171   6.523  10.971  0.6537  0.4585 -0.8258
 1556TIP3   OH228862   1.452   2.516  10.071 -0.1214  0.2340 -0.3131
 1556TIP3    H128863   1.460   2.508   9.976 -0.1164  0.2106 -0.3105
 1556TIP3    H228864   1.405   2.598  10.085 -0.5802 -0.0207 -0.3510
 1557TIP3   OH228865   0.183   0.501  11.326 -0.3136 -0.5189  0.6280
 1557TIP3    H128866   0.097   0.535  11.352 -0.2673 -0.0919  0.2219
 1557TIP3    H228867   0.167   0.452  11.246 -0.2113 -0.6166  0.6658
 1558TIP3   OH228868   3.891   5.396  11.587 -0.3011 -0.0239 -0.4037
 1558TIP3    H128869   3.811   5.408  11.639 -0.8974 -0.2613 -1.2418
 1558TIP3    H228870   3.901   5.477  11.538  0.3957  0.2944  0.2481
 1559TIP3   OH228871   3.742   4.686  11.134  0.1955  0.0084  0.1626
 1559TIP3    H128872   3.739   4.659  11.042  0.1450 -2.6890  0.8948
 1559TIP3    H228873   3.835   4.705  11.150  0.9819 -3.4903  0.5105
 1560TIP3   OH228874   3.395   0.287  12.019  1.0349  0.1697  0.0427
 1560TIP3    H128875   3.335   0.352  11.983  0.9421  0.9440  1.5190
 1560TIP3    H228876   3.428   0.327  12.099  0.0861 -2.0428  1.6467
 1561TIP3   OH228877   3.820   4.632  11.386  0.2413  0.7306  0.0453
 1561TIP3    H128878   3.781   4.707  11.431 -2.9736 -1.6314  1.6428
 1561TIP3    H228879   3.770   4.623  11.305 -0.0766 -0.1690  0.3208
 1562TIP3   OH228880   2.102   5.634  11.629 -0.1316  0.4309  0.3241
 1562TIP3    H128881   2.058   5.617  11.545 -0.8331  0.3338  0.7093
 1562TIP3    H228882   2.167   5.564  11.636 -0.6941 -0.1012  0.2922
 1563TIP3   OH228883   3.958   2.244  12.412 -0.0053  0.1352 -0.4073
 1563TIP3    H128884   4.000   2.210  12.333  0.9147  0.1038  0.0751
 1563TIP3    H228885   3.969   2.339  12.406  0.0475  0.1343 -0.3283
 1564TIP3   OH228886   3.176   1.771  11.459 -0.7945  0.3346  0.3489
 1564TIP3    H128887   3.148   1.834  11.526 -0.9754 -0.3372  0.9231
 1564TIP3    H228888   3.109   1.703  11.461 -1.0437  0.5293 -0.8529
 1565TIP3   OH228889   4.819   1.243  11.989 -0.8183 -0.7613 -0.3870
 1565TIP3    H128890   4.811   1.312  12.055 -0.5268 -0.6658 -0.4482
 1565TIP3    H228891   4.861   1.170  12.035 -2.0749 -1.2844 -0.0506
 1566TIP3   OH228892   4.845   2.870  10.609  0.3672 -0.1747 -0.8562
 1566TIP3    H128893   4.905   2.798  10.593  1.2076  0.3494 -0.1389
 1566TIP3    H228894   4.883   2.917  10.684 -0.0996  1.0746 -1.3775
 1567TIP3   OH228895   1.512   3.541  10.123  0.4588 -0.0328 -0.0177
 1567TIP3    H128896   1.453   3.494  10.064 -0.0059 -0.8545  1.0544
 1567TIP3    H228897   1.599   3.508  10.102  0.0398 -2.2975  1.4596
 1568TIP3   OH228898   2.573   6.104  11.540  0.3026 -0.5910  0.2816
 1568TIP3    H128899   2.552   6.193  11.515  0.9768 -0.9109 -1.5584
 1568TIP3    H228900   2.497   6.052  11.514  0.4006 -0.7175  0.2418
 1569TIP3   OH228901   2.841   4.724   9.934  0.5996  0.0149 -0.3788
 1569TIP3    H128902   2.912   4.788   9.943  2.9843 -2.5335  0.2785
 1569TIP3    H228903   2.868   4.669   9.860  0.3190 -2.1567  1.0659
 1570TIP3   OH228904   3.056   2.388  13.481 -0.3374 -0.2006 -0.0114
 1570TIP3    H128905   3.066   2.470  13.528  1.3076 -1.1714  1.4497
 1570TIP3    H228906   3.137   2.339  13.499 -1.6452 -2.5375  0.0040
 1571TIP3   OH228907   0.295   3.719  11.249 -0.4665  0.2524 -0.1876
 1571TIP3    H128908   0.354   3.678  11.186 -0.4029 -1.9191  1.1857
 1571TIP3    H228909   0.353   3.762  11.312 -0.5148  1.7240 -1.0929
 1572TIP3   OH228910   5.406   3.487  10.296 -0.0529  0.1783  0.3284
 1572TIP3    H128911   5.440   3.496  10.385 -1.2402  0.0022  0.8069
 1572TIP3    H228912   5.349   3.410  10.299  0.2861 -0.1329 -0.7095
 1573TIP3   OH228913   0.406   5.872  11.954  0.5183 -0.0973  0.2618
 1573TIP3    H128914   0.389   5.785  11.918  3.1293 -0.3342 -0.6011
 1573TIP3    H228915   0.408   5.929  11.877  0.4830  0.4374  0.6520
 1574TIP3   OH228916   5.544   3.536   9.733 -0.1740  0.4293  0.3375
 1574TIP3    H128917   5.609   3.511   9.799  1.7642 -0.5034 -1.7665
 1574TIP3    H228918   5.572   3.623   9.705 -0.4601  0.4577  0.1434
 1575TIP3   OH228919   3.713   0.387  10.060 -0.3339  0.2350 -0.4001
 1575TIP3    H128920   3.633   0.402  10.010 -0.9684  0.1967  0.5713
 1575TIP3    H228921   3.765   0.466  10.047 -2.0432  1.8236  1.7093
 1576TIP3   OH228922   3.326   2.190  11.711 -0.1809  0.0311  0.0088
 1576TIP3    H128923   3.388   2.167  11.642  0.0173 -0.6556  0.4028
 1576TIP3    H228924   3.380   2.222  11.783 -0.4180  1.1778 -0.3054
 1577TIP3   OH228925   1.588   5.158  11.471  0.4702  0.1057 -0.3994
 1577TIP3    H128926   1.550   5.113  11.396 -2.0721 -1.1256  1.4622
 1577TIP3    H228927   1.638   5.091  11.517  0.7337  0.4425 -0.1931
 1578TIP3   OH228928   3.173   5.141  10.264 -0.1389 -0.0387  0.3007
 1578TIP3    H128929   3.258   5.164  10.302 -0.2829 -0.7455  1.0829
 1578TIP3    H228930   3.173   5.182  10.178  0.8205  0.3265  0.4638
 1579TIP3   OH228931   1.338   2.948  11.866  0.4323  0.4180 -0.2194
 1579TIP3    H128932   1.412   2.954  11.806  0.4621  1.1174 -0.1127
 1579TIP3    H228933   1.331   3.035  11.905 -0.0885  0.1944  0.1974
 1580TIP3   OH228934   6.717   5.420  12.223 -0.1708  0.2252 -0.1821
 1580TIP3    H128935   6.783   5.393  12.159 -0.2679  1.5311 -0.8707
 1580TIP3    H228936   6.764   5.479  12.282 -0.5037  0.4622 -0.1508
 1581TIP3   OH228937   1.539   0.130  11.168 -0.0124  0.0501  0.3359
 1581TIP3    H128938   1.537   0.037  11.188  0.1701  0.2069  1.1233
 1581TIP3    H228939   1.626   0.159  11.197  0.5248  0.1643 -1.3152
 1582TIP3   OH228940   6.524   1.135  11.051  0.1106  0.0559 -0.0991
 1582TIP3    H128941   6.615   1.116  11.072  0.1513  0.4506  0.0909
 1582TIP3    H228942   6.499   1.066  10.990  0.9176  0.6639 -1.1580
 1583TIP3   OH228943   3.950   1.207  13.217 -0.3135 -0.0777 -0.0525
 1583TIP3    H128944   3.896   1.280  13.185  1.1175  1.1414  0.1936
 1583TIP3    H228945   3.998   1.178  13.140 -0.5313 -0.4558 -0.0475
 1584TIP3   OH228946   3.991   4.109  10.667  0.1178  0.3761  0.1001
 1584TIP3    H128947   3.943   4.094  10.748 -0.4232  0.4868 -0.1962
 1584TIP3    H228948   3.955   4.045  10.605 -0.7779  1.4857 -0.5860
 1585TIP3   OH228949   4.176   2.008   9.589 -0.8261  0.1692  0.1427
 1585TIP3    H128950   4.099   1.955   9.613 -2.3726  1.5015 -1.5354
 1585TIP3    H228951   4.150   2.098   9.609  1.6450  0.4302  2.6632
 1586TIP3   OH228952   1.002   6.721  12.918  0.3694  0.6105  0.0423
 1586TIP3    H128953   1.090   6.741  12.885  0.5020 -0.0673 -0.0214
 1586TIP3    H228954   1.017   6.656  12.987 -0.0683  0.6354  0.1626
 1587TIP3   OH228955   3.275   6.732  10.585 -0.3144 -0.0561  0.2529
 1587TIP3    H128956   3.346   6.788  10.618 -0.1801 -0.2850  0.3593
 1587TIP3    H228957   3.263   6.667  10.654  1.4383 -1.8575 -1.0279
 1588TIP3   OH228958   5.262   1.597  10.896 -0.2827  0.1218 -0.5761
 1588TIP3    H128959   5.348   1.623  10.863  0.3700 -0.1129  0.8621
 1588TIP3    H228960   5.202   1.662  10.860  0.4348  0.0769 -1.8982
 1589TIP3   OH228961   4.421   1.225  11.883 -0.6966 -0.1553 -0.5108
 1589TIP3    H128962   4.491   1.185  11.832  0.2660 -1.1880  1.5230
 1589TIP3    H228963   4.385   1.154  11.936 -1.0470  1.0096  0.8989
 1590TIP3   OH228964   6.609   2.747  11.306 -0.1379  0.2763 -0.2110
 1590TIP3    H128965   6.598   2.663  11.261 -0.8534  0.3791 -0.2399
 1590TIP3    H228966   6.619   2.811  11.235 -1.4524  0.4646 -0.2528
 1591TIP3   OH228967   4.527   1.567  11.544  0.0143  0.3343 -0.2978
 1591TIP3    H128968   4.508   1.657  11.570 -0.3301  0.3096 -0.4586
 1591TIP3    H228969   4.496   1.514  11.617 -1.6909  0.2088 -1.0618
 1592TIP3   OH228970   3.227   3.165  11.518 -0.5296  0.2267  0.4579
 1592TIP3    H128971   3.186   3.078  11.521 -1.5226  0.5511 -1.5954
 1592TIP3    H228972   3.298   3.155  11.455 -1.7263  1.2579 -1.1405
 1593TIP3   OH228973   0.430   2.394   9.812 -0.4979 -0.1570 -0.4567
 1593TIP3    H128974   0.438   2.373   9.718  1.5749  1.7781 -0.7989
 1593TIP3    H228975   0.502   2.345   9.853  0.3026  1.0709 -0.3277
 1594TIP3   OH228976   2.556   6.460   9.373  0.2940 -0.0938 -0.2231
 1594TIP3    H128977   2.638   6.506   9.390  0.0223  1.4586 -2.7047
 1594TIP3    H228978   2.493   6.501   9.432  0.5467  1.2167 -0.8442
 1595TIP3   OH228979   3.019   0.967  12.369 -0.0041 -0.4556 -0.2744
 1595TIP3    H128980   3.060   1.021  12.437  0.0535 -1.5060  0.5547
 1595TIP3    H228981   2.929   0.955  12.400 -0.8241  1.2899 -1.7578
 1596TIP3   OH228982   2.456   5.533  13.114  0.2646 -0.4023  0.0403
 1596TIP3    H128983   2.400   5.466  13.075  1.4548 -1.2587 -0.2304
 1596TIP3    H228984   2.481   5.498  13.200  2.2488 -1.1099 -0.7760
 1597TIP3   OH228985   1.041   6.334  11.733 -0.8589 -0.6343 -0.2737
 1597TIP3    H128986   1.110   6.315  11.669 -0.8510 -0.8527 -0.1988
 1597TIP3    H228987   1.088   6.355  11.814 -0.7870  1.5118 -0.8076
 1598TIP3   OH228988   6.129   2.062  12.334  0.0307 -0.0873  0.4274
 1598TIP3    H128989   6.170   1.983  12.298 -0.3609 -0.0465 -0.1194
 1598TIP3    H228990   6.200   2.106  12.381  0.2388 -0.7967  0.8048
 1599TIP3   OH228991   6.741   0.637  11.082  0.1374  0.4049 -0.5050
 1599TIP3    H128992   6.800   0.678  11.145 -0.0621 -2.0214  1.4002
 1599TIP3    H228993   6.797   0.579  11.031 -0.2881 -0.6433  0.1819
 1600TIP3   OH228994   0.326   0.708  11.411 -0.3190  0.2031  0.1466
 1600TIP3    H128995   0.268   0.723  11.485  1.8002  0.8374  1.7684
 1600TIP3    H228996   0.280   0.644  11.356 -2.4346  0.5748  1.4218
 1601TIP3   OH228997   1.807   3.745  11.516  0.2203  0.2945 -0.3132
 1601TIP3    H128998   1.891   3.778  11.549  0.5509  1.1015 -1.8341
 1601TIP3    H228999   1.746   3.817  11.529 -0.1464 -0.1283  0.3753
 1602TIP3   OH229000   2.529   3.834   9.973  0.4528  0.1143  1.0170
 1602TIP3    H129001   2.488   3.917   9.949  0.9330  0.4096  1.2098
 1602TIP3    H229002   2.511   3.776   9.899  1.9091  1.0064 -0.1057
 1603TIP3   OH229003   5.838   2.589  11.854 -0.0869 -0.5815  0.1827
 1603TIP3    H129004   5.840   2.496  11.830  2.0673 -0.8053  1.0208
 1603TIP3    H229005   5.861   2.591  11.947  0.4572  0.8323  0.0416
 1604TIP3   OH229006   4.895   6.006  12.678 -0.2019 -0.2986  0.0868
 1604TIP3    H129007   4.904   5.997  12.583  0.6584 -1.5910  0.2679
 1604TIP3    H229008   4.957   5.943  12.715 -0.2630  0.4272  1.5180
 1605TIP3   OH229009   1.891   6.620  12.525 -0.1468  0.1468  0.0094
 1605TIP3    H129010   1.863   6.706  12.558 -2.2766  0.3345 -2.0501
 1605TIP3    H229011   1.813   6.584  12.484  1.6400 -1.1887 -2.4358
 1606TIP3   OH229012   0.384   4.444  11.422 -0.2131 -0.3323  0.0854
 1606TIP3    H129013   0.416   4.466  11.509 -1.4963 -0.8683  0.7207
 1606TIP3    H229014   0.290   4.430  11.434 -0.5152  0.1462 -1.4953
 1607TIP3   OH229015   6.830   3.970  12.113  0.3338  0.6067 -0.0655
 1607TIP3    H129016   6.761   3.923  12.067  0.5402 -0.7645  0.9838
 1607TIP3    H229017   6.885   4.006  12.043  1.7773 -3.0616 -1.0791
 1608TIP3   OH229018   2.524   4.222  11.653 -0.1148  0.1488  0.7793
 1608TIP3    H129019   2.489   4.198  11.739  1.9526 -0.7035  1.4423
 1608TIP3    H229020   2.585   4.293  11.670 -0.7957  1.0013 -0.2186
 1609TIP3   OH229021   1.932   5.069  10.017 -0.3254  0.4961  0.4414
 1609TIP3    H129022   1.891   4.989  10.050 -1.9556  0.4934 -1.3978
 1609TIP3    H229023   2.020   5.042   9.991 -1.1876 -1.0179 -1.1150
 1610TIP3   OH229024   2.247   0.939  13.078 -0.1687 -0.1003  0.3368
 1610TIP3    H129025   2.338   0.968  13.084  0.1552 -0.5678 -1.6844
 1610TIP3    H229026   2.199   1.019  13.054  0.1524 -0.3571 -1.3120
 1611TIP3   OH229027   5.289   2.647  12.995 -0.1249 -0.1533 -0.0809
 1611TIP3    H129028   5.260   2.604  13.076 -1.3193 -1.2096 -1.0130
 1611TIP3    H229029   5.334   2.578  12.946 -1.1548 -0.1033 -1.1504
 1612TIP3   OH229030   4.306   0.988  11.430  0.2925  0.3470 -0.3729
 1612TIP3    H129031   4.294   1.054  11.498  0.5025  0.1037 -0.0986
 1612TIP3    H229032   4.246   1.014  11.360 -0.1389  0.4278  0.0278
 1613TIP3   OH229033   0.063   6.075  12.500  0.1278 -0.6860  1.0342
 1613TIP3    H129034   0.056   6.171  12.495 -2.1305 -0.8459 -0.1352
 1613TIP3    H229035   0.153   6.056  12.475  0.5572  1.1172  1.0832
 1614TIP3   OH229036   3.357   2.121  11.158  0.1399 -0.1339 -0.1007
 1614TIP3    H129037   3.427   2.110  11.093  0.3075 -1.2371  0.2490
 1614TIP3    H229038   3.319   2.207  11.138  0.6534 -0.1458 -1.2042
 1615TIP3   OH229039   3.876   4.454  12.672 -0.3743  0.5005  0.2184
 1615TIP3    H129040   3.827   4.428  12.750 -0.7301  0.1391 -0.1177
 1615TIP3    H229041   3.816   4.437  12.600  0.3867 -0.3325 -0.2392
 1616TIP3   OH229042   6.101   6.112  12.943 -0.4330  0.2291  0.0274
 1616TIP3    H129043   6.135   6.145  13.026  0.2351  0.8430 -0.4768
 1616TIP3    H229044   6.140   6.169  12.877  0.5624 -1.4041 -0.8590
 1617TIP3   OH229045   2.941   0.073  12.714  0.3035 -0.0230  0.0362
 1617TIP3    H129046   3.005   0.029  12.770  0.9719  1.1609  0.2334
 1617TIP3    H229047   2.991   0.141  12.670 -0.8115  0.9117  0.1721
 1618TIP3   OH229048   1.899   4.203  11.174 -0.3020  0.1887  0.0633
 1618TIP3    H129049   1.934   4.272  11.118 -0.0731 -0.4114 -0.5436
 1618TIP3    H229050   1.903   4.240  11.263  0.5537  0.6569 -0.1563
 1619TIP3   OH229051   0.414   2.202  10.407  0.3391 -0.5258  0.0176
 1619TIP3    H129052   0.481   2.170  10.346 -0.4263  1.2874 -1.8915
 1619TIP3    H229053   0.333   2.161  10.377  0.3311 -1.6771  1.5033
 1620TIP3   OH229054   1.949   2.592  12.502  0.0958  0.0825 -0.0071
 1620TIP3    H129055   1.946   2.669  12.559  1.2339  0.6752 -0.7013
 1620TIP3    H229056   1.887   2.530  12.541 -0.9516  1.4002  0.4875
 1621TIP3   OH229057   1.102   1.757  12.885 -0.3241 -0.4664  0.3926
 1621TIP3    H129058   1.173   1.693  12.878 -1.5798 -1.8190 -0.4792
 1621TIP3    H229059   1.065   1.762  12.797 -0.1050  1.7130  0.3544
 1622TIP3   OH229060   3.777   0.226  12.762 -0.1924  0.4988 -0.6398
 1622TIP3    H129061   3.830   0.306  12.757  0.5934  0.1111  0.8544
 1622TIP3    H229062   3.710   0.237  12.695 -0.5354  2.7325 -0.0030
 1623TIP3   OH229063   1.470   4.316  12.719  0.1737 -0.0966 -0.2683
 1623TIP3    H129064   1.430   4.400  12.693 -1.8133 -0.6114  0.9065
 1623TIP3    H229065   1.418   4.250  12.674  0.8434 -0.7625 -0.0847
 1624TIP3   OH229066   6.412   6.034  11.041 -0.7611  0.0570 -0.2875
 1624TIP3    H129067   6.430   6.122  11.008  0.3896 -0.2093 -0.4130
 1624TIP3    H229068   6.366   6.048  11.124  1.2420  0.8324  0.7450
 1625TIP3   OH229069   0.603   3.958   9.913  0.0334 -0.3630  0.6049
 1625TIP3    H129070   0.560   4.043   9.907  1.3646  0.2542 -1.2345
 1625TIP3    H229071   0.542   3.897   9.872  0.1654  0.2052 -0.4695
 1626TIP3   OH229072   6.235   2.065  11.909 -0.1740 -0.2158  0.2404
 1626TIP3    H129073   6.330   2.082  11.907 -0.2320 -0.0006 -1.4740
 1626TIP3    H229074   6.206   2.075  11.819 -1.5478 -2.0337  0.4182
 1627TIP3   OH229075   1.880   0.873  11.961 -0.4081 -0.4043 -0.1890
 1627TIP3    H129076   1.909   0.941  11.900 -0.4225  1.0093  1.2934
 1627TIP3    H229077   1.961   0.834  11.994 -0.1512  1.4613  1.6656
 1628TIP3   OH229078   2.186   4.611  10.355 -0.2730 -0.0189 -0.7511
 1628TIP3    H129079   2.168   4.582  10.444 -2.3326  0.8664 -0.8195
 1628TIP3    H229080   2.137   4.550  10.300 -1.8574  1.4535 -1.0550
 1629TIP3   OH229081   1.006   2.505  10.504  0.0637 -0.5767  0.2956
 1629TIP3    H129082   0.957   2.562  10.445 -0.9679  1.5733  3.0532
 1629TIP3    H229083   1.098   2.523  10.484 -0.2348 -0.4332 -1.0737
 1630TIP3   OH229084   0.646   3.692  12.520  0.4627  0.4514  0.3766
 1630TIP3    H129085   0.577   3.747  12.482 -0.5489 -1.4231 -0.6454
 1630TIP3    H229086   0.695   3.659  12.444 -0.3387 -1.7534  0.7391
 1631TIP3   OH229087   3.390   5.236  10.391 -0.5653 -0.0235  0.2258
 1631TIP3    H129088   3.419   5.196  10.473 -1.2461 -2.8770 -0.8016
 1631TIP3    H229089   3.443   5.194  10.323  0.3103  2.6052 -0.8554
 1632TIP3   OH229090   5.314   4.441  11.874 -0.1024  0.2795  0.4556
 1632TIP3    H129091   5.378   4.400  11.932 -1.1077  0.4165  1.7263
 1632TIP3    H229092   5.286   4.520  11.921  1.4178  2.2464 -1.6993
 1633TIP3   OH229093   2.619   4.739  11.021 -0.1791 -0.1165  0.4646
 1633TIP3    H129094   2.604   4.648  10.994 -1.1290 -0.7659  2.8998
 1633TIP3    H229095   2.647   4.732  11.112  1.3422  1.9891  0.2181
 1634TIP3   OH229096   4.214   4.530  11.109  0.3823  0.2639 -0.1177
 1634TIP3    H129097   4.277   4.574  11.165 -0.0978 -0.8426  1.3594
 1634TIP3    H229098   4.202   4.443  11.148 -0.5479 -0.2912 -1.5032
 1635TIP3   OH229099   4.347   2.299  12.134  0.3928 -0.4498  0.2377
 1635TIP3    H129100   4.382   2.295  12.045  0.7202  0.6628  0.2963
 1635TIP3    H229101   4.424   2.318  12.189  0.2817 -1.6174  0.8373
 1636TIP3   OH229102   4.759   3.352  10.823 -0.2208  0.0515  0.3510
 1636TIP3    H129103   4.685   3.359  10.762 -1.2140  0.0748  1.5141
 1636TIP3    H229104   4.834   3.385  10.773 -0.9382 -0.1840 -0.9418
 1637TIP3   OH229105   3.571   1.848  10.719  0.2815 -0.0040  0.4357
 1637TIP3    H129106   3.551   1.789  10.792  0.0695 -2.4635 -1.4879
 1637TIP3    H229107   3.536   1.804  10.642  0.4734  2.5062 -1.2063
 1638TIP3   OH229108   3.233   1.750  10.912 -0.3218  0.2063  0.5390
 1638TIP3    H129109   3.311   1.710  10.951  0.6990  1.0594 -0.5576
 1638TIP3    H229110   3.207   1.818  10.974  0.7085  0.9043  0.2415
 1639TIP3   OH229111   6.674   2.676  10.981  0.2401 -0.1665 -0.0821
 1639TIP3    H129112   6.640   2.727  10.907 -0.2232 -0.2102  0.0980
 1639TIP3    H229113   6.758   2.716  11.001  0.2023  0.0763 -0.4001
 1640TIP3   OH229114   6.167   5.394  11.655 -0.3740  0.1098  0.2362
 1640TIP3    H129115   6.212   5.468  11.614  0.0643  0.2003  0.8554
 1640TIP3    H229116   6.140   5.428  11.741  0.7881 -0.7714  0.9706
 1641TIP3   OH229117   2.253   4.930  13.502 -0.0664  0.6292 -0.0297
 1641TIP3    H129118   2.255   4.838  13.475  1.2401  0.5967  0.0841
 1641TIP3    H229119   2.308   4.933  13.580  1.7084  1.8450 -1.2441
 1642TIP3   OH229120   2.628   2.416  10.650 -0.0935  0.3439 -0.2311
 1642TIP3    H129121   2.614   2.389  10.559  1.7103 -0.4151 -0.3073
 1642TIP3    H229122   2.573   2.494  10.659 -1.6663 -0.5540 -1.4368
 1643TIP3   OH229123   0.300   5.579  12.522 -0.0484 -0.4669 -0.1919
 1643TIP3    H129124   0.390   5.604  12.501  0.0133 -0.3363  0.2138
 1643TIP3    H229125   0.246   5.636  12.466  0.1000  0.3748  0.4975
 1644TIP3   OH229126   2.835   6.667  11.116  0.4257 -0.1460 -0.0501
 1644TIP3    H129127   2.759   6.641  11.064  1.8250 -0.4064 -2.1035
 1644TIP3    H229128   2.843   6.600  11.183 -1.9422  0.6485  1.1344
 1645TIP3   OH229129   4.227   2.838  10.209  0.5489 -0.3525 -0.0163
 1645TIP3    H129130   4.224   2.910  10.145  0.6672 -0.2060  0.1415
 1645TIP3    H229131   4.182   2.766  10.166 -0.4640  0.1273  0.2149
 1646TIP3   OH229132   4.791   1.387  10.999 -0.0126  0.1986 -0.5257
 1646TIP3    H129133   4.782   1.483  10.995  1.1260  0.2891 -1.4537
 1646TIP3    H229134   4.845   1.372  11.077  1.2453  0.4571 -1.3171
 1647TIP3   OH229135   1.528   6.521  10.897  0.1165  0.1785 -0.2076
 1647TIP3    H129136   1.459   6.503  10.960  0.3866 -2.0069 -0.4741
 1647TIP3    H229137   1.503   6.604  10.856 -1.8358 -0.1021  0.3595
 1648TIP3   OH229138   3.133   3.104  12.031 -0.4422  0.1407 -0.1740
 1648TIP3    H129139   3.132   3.178  12.092  0.3901 -0.7528  0.9648
 1648TIP3    H229140   3.214   3.114  11.982  0.7873 -1.1440  1.4831
 1649TIP3   OH229141   1.104   4.077  11.618 -0.5586  0.2501  0.2133
 1649TIP3    H129142   1.059   4.024  11.553 -0.2120  2.6650 -2.2028
 1649TIP3    H229143   1.053   4.158  11.623  0.0971  0.5984  2.0937
 1650TIP3   OH229144   5.080   6.508  11.057 -0.1888 -0.0654  0.6453
 1650TIP3    H129145   5.059   6.567  11.129  1.3714 -0.8739  1.8219
 1650TIP3    H229146   4.999   6.503  11.005  0.0772  4.4666 -0.5995
 1651TIP3   OH229147   5.948   0.865  11.212  0.2465  0.1849 -0.0313
 1651TIP3    H129148   5.953   0.959  11.232  0.9450  0.2074 -0.2821
 1651TIP3    H229149   6.039   0.838  11.201  0.1108 -0.7493  1.0392
 1652TIP3   OH229150   0.066   5.551  11.043  0.0153 -0.1055 -0.0096
 1652TIP3    H129151   0.114   5.467  11.043  2.4775  1.1909  0.9871
 1652TIP3    H229152   0.121   5.609  10.991  0.6324  1.9660  2.7220
 1653TIP3   OH229153   1.971   2.568  10.673 -0.1150 -0.0339  0.2043
 1653TIP3    H129154   1.991   2.610  10.589 -0.6866  0.8017  0.4711
 1653TIP3    H229155   1.992   2.476  10.659  2.7831  0.5282  0.0819
 1654TIP3   OH229156   2.647   1.802   9.445 -0.7841  0.2028 -0.2699
 1654TIP3    H129157   2.694   1.864   9.501  1.8110 -1.1286 -0.8204
 1654TIP3    H229158   2.658   1.837   9.356  2.3029 -1.7859 -0.8247
 1655TIP3   OH229159   4.995   4.743  12.615 -0.2943  0.0068 -0.0389
 1655TIP3    H129160   4.904   4.740  12.644 -0.1242 -2.9398  0.4382
 1655TIP3    H229161   5.013   4.656  12.579  2.3200  0.5200 -0.2245
 1656TIP3   OH229162   4.283   1.613  13.381 -0.4440 -0.2231  0.4262
 1656TIP3    H129163   4.255   1.693  13.426 -1.4164  0.5008 -1.3375
 1656TIP3    H229164   4.355   1.642  13.325 -2.1597 -0.0162 -1.8230
 1657TIP3   OH229165   0.405   1.483  12.741 -0.0179  0.3861  0.1982
 1657TIP3    H129166   0.465   1.457  12.672 -0.1025  0.1990  0.1946
 1657TIP3    H229167   0.442   1.564  12.775 -0.3229  0.8292 -0.5026
 1658TIP3   OH229168   0.561   4.659  12.657  0.3234 -0.5051  0.0298
 1658TIP3    H129169   0.650   4.647  12.690  0.6985  0.8889 -0.4003
 1658TIP3    H229170   0.551   4.754  12.650 -0.6295 -0.6844 -1.4593
 1659TIP3   OH229171   0.102   2.778  10.952  0.0693 -0.2540  0.3293
 1659TIP3    H129172   0.117   2.804  11.043 -0.2880  0.8120  0.1000
 1659TIP3    H229173   0.095   2.861  10.905 -1.0488 -0.7735 -0.4535
 1660TIP3   OH229174   4.053   3.534  12.165 -0.3347 -0.0155  0.0654
 1660TIP3    H129175   4.136   3.580  12.178  0.7788 -1.2385 -2.2194
 1660TIP3    H229176   4.060   3.456  12.221  0.5371 -0.6349 -0.8693
 1661TIP3   OH229177   2.377   1.674  11.421 -0.2957  0.0214  0.4090
 1661TIP3    H129178   2.321   1.689  11.345  0.7508  2.7898  0.0625
 1661TIP3    H229179   2.329   1.710  11.495 -0.6930 -1.3772  0.8735
 1662TIP3   OH229180   6.014   0.535  11.082 -0.0312  0.1263  0.2742
 1662TIP3    H129181   6.038   0.562  11.171 -0.3253  0.0436  0.3806
 1662TIP3    H229182   5.943   0.472  11.094  0.4981 -0.5246  0.0150
 1663TIP3   OH229183   5.496   4.966  12.084 -0.1027 -1.1623 -0.2739
 1663TIP3    H129184   5.420   5.015  12.055 -0.2753 -1.4516 -0.3064
 1663TIP3    H229185   5.465   4.913  12.158 -0.5170 -3.0389 -1.7219
 1664TIP3   OH229186   0.947   6.037  11.627  0.9421 -0.1324  0.5129
 1664TIP3    H129187   0.876   6.093  11.596  0.9004 -0.7424 -0.5324
 1664TIP3    H229188   1.024   6.064  11.576  0.8829 -1.1171 -0.1338
 1665TIP3   OH229189   4.059   1.362  12.509 -0.0380 -0.4030  0.4419
 1665TIP3    H129190   4.076   1.396  12.597  0.4464  1.8640 -0.4790
 1665TIP3    H229191   4.056   1.439  12.453 -0.9813 -1.7375 -1.4635
 1666TIP3   OH229192   3.803   3.620  12.038 -0.2998  0.1554  0.6756
 1666TIP3    H129193   3.845   3.675  11.972 -1.0792 -0.0838 -0.0334
 1666TIP3    H229194   3.876   3.578  12.084  0.2760 -1.2247 -1.3460
 1667TIP3   OH229195   2.807   4.007  10.340  0.3547 -0.0159  0.3996
 1667TIP3    H129196   2.815   4.052  10.424  1.1331  0.4850  0.0708
 1667TIP3    H229197   2.712   4.002  10.324  0.2298  0.8145  0.8138
 1668TIP3   OH229198   3.853   2.135  11.302  0.0110 -0.2355  0.1824
 1668TIP3    H129199   3.897   2.132  11.218 -0.7322  0.7472 -0.2702
 1668TIP3    H229200   3.875   2.221  11.338 -0.1965 -0.3889  0.7004
 1669TIP3   OH229201   5.315   1.844  13.247 -0.4429 -0.2789 -0.3580
 1669TIP3    H129202   5.395   1.841  13.300 -0.8524  3.3812  0.7462
 1669TIP3    H229203   5.269   1.762  13.268  1.9818 -1.4739  0.6136
 1670TIP3   OH229204   2.503   4.466  12.431  0.5231 -0.0652 -0.7988
 1670TIP3    H129205   2.596   4.467  12.452  0.4455  0.4999 -0.4569
 1670TIP3    H229206   2.467   4.542  12.478 -0.6426 -1.9067  1.5222
 1671TIP3   OH229207   5.701   0.155  13.046 -0.0766 -0.0699  0.1920
 1671TIP3    H129208   5.756   0.162  12.968  1.5666  0.2414  1.3214
 1671TIP3    H229209   5.697   0.245  13.080 -1.9359  0.0522 -0.2582
 1672TIP3   OH229210   0.114   6.186  11.960  0.0427 -0.0052 -0.1488
 1672TIP3    H129211   0.055   6.112  11.944 -0.3786 -0.0461  1.4245
 1672TIP3    H229212   0.193   6.147  11.996  0.6777  0.1398 -1.3447
 1673TIP3   OH229213   0.527   2.175  12.595  0.0085 -0.0671  0.1676
 1673TIP3    H129214   0.518   2.269  12.583 -2.3269 -0.3582 -0.8695
 1673TIP3    H229215   0.608   2.153  12.548  0.8170  1.4451  0.7803
 1674TIP3   OH229216   2.363   1.061  10.296  0.2343  0.0326  0.1216
 1674TIP3    H129217   2.443   1.110  10.317  0.4149  1.6430 -3.5865
 1674TIP3    H229218   2.366   1.050  10.201 -3.0049 -1.6762  0.0887
 1675TIP3   OH229219   6.190   1.287  10.109 -0.1572  0.3223 -0.1166
 1675TIP3    H129220   6.182   1.200  10.149  0.6293  0.3159  0.0382
 1675TIP3    H229221   6.281   1.292  10.080 -0.1926  1.1023 -0.1156
 1676TIP3   OH229222   1.684   5.055  11.846  0.4973  0.6456  0.5046
 1676TIP3    H129223   1.712   4.964  11.847 -0.0958  0.4113 -0.9641
 1676TIP3    H229224   1.605   5.057  11.900 -0.9162 -0.2716 -1.3864
 1677TIP3   OH229225   6.071   4.283  10.592 -0.1900 -0.2082 -0.5233
 1677TIP3    H129226   6.079   4.297  10.498  2.5619 -2.4996 -0.7768
 1677TIP3    H229227   6.025   4.200  10.601 -2.2919  0.9698  0.3129
 1678TIP3   OH229228   4.944   3.680  10.619  0.3639  0.1110  0.4272
 1678TIP3    H129229   4.868   3.718  10.573  1.1415  1.9218  0.5382
 1678TIP3    H229230   4.969   3.747  10.682  0.8251 -1.3277  1.8215
 1679TIP3   OH229231   0.885   6.720  10.637 -0.0454 -0.5043  0.2096
 1679TIP3    H129232   0.806   6.706  10.585 -1.7296  0.4232  2.3744
 1679TIP3    H229233   0.886   6.814  10.655  0.6646 -0.7354  1.5060
 1680TIP3   OH229234   1.646   1.903  10.227 -0.6203  0.2547  0.3136
 1680TIP3    H129235   1.655   1.918  10.321 -1.5825  1.5185  0.2167
 1680TIP3    H229236   1.601   1.980  10.194 -0.1962 -0.1181 -1.2165
 1681TIP3   OH229237   2.161   5.971  10.362 -0.6406 -0.1927  0.2446
 1681TIP3    H129238   2.146   5.923  10.443 -1.4679 -0.3954 -0.0188
 1681TIP3    H229239   2.116   6.055  10.374  0.1390  0.2173  0.3993
 1682TIP3   OH229240   3.376   5.171  10.004  0.4125  0.8222  0.4177
 1682TIP3    H129241   3.379   5.085   9.961 -1.3585  1.0978 -0.3191
 1682TIP3    H229242   3.286   5.201   9.992  0.7031  2.3012  1.6474
 1683TIP3   OH229243   3.988   6.000  11.749  0.4376 -0.2479  0.2930
 1683TIP3    H129244   4.053   5.930  11.754  3.0037  1.8718 -0.7986
 1683TIP3    H229245   3.993   6.044  11.834  1.0682  0.3811 -0.0531
 1684TIP3   OH229246   4.346   0.817  13.143 -0.5647 -0.5496 -0.1239
 1684TIP3    H129247   4.259   0.805  13.182 -0.3857 -1.9100 -0.0863
 1684TIP3    H229248   4.384   0.890  13.191 -1.5231 -0.2013  0.1409
 1685TIP3   OH229249   1.889   1.635  13.013  0.1511 -0.8225 -0.0649
 1685TIP3    H129250   1.817   1.684  12.973 -0.8580 -1.4512  0.9147
 1685TIP3    H229251   1.924   1.693  13.079 -1.6589 -1.6542  1.7567
 1686TIP3   OH229252   3.081   1.114  13.067  0.2663  0.3573 -0.5677
 1686TIP3    H129253   3.003   1.170  13.061  0.8811  1.2117 -0.8488
 1686TIP3    H229254   3.149   1.164  13.023  1.0984 -0.1697  0.0995
 1687TIP3   OH229255   1.169   5.419  12.946 -0.1108 -0.0925  0.0700
 1687TIP3    H129256   1.117   5.478  12.890  0.3072 -0.5249 -0.7825
 1687TIP3    H229257   1.241   5.390  12.890 -0.6243 -1.8843  0.2747
 1688TIP3   OH229258   3.167   2.503  13.032  0.0136 -0.1012  0.1477
 1688TIP3    H129259   3.079   2.534  13.053  0.7103  1.7613  0.4794
 1688TIP3    H229260   3.161   2.475  12.941 -1.2665 -1.4578  0.6051
 1689TIP3   OH229261   6.224   2.524  12.939  0.1429 -0.2393 -0.0383
 1689TIP3    H129262   6.159   2.527  12.869 -0.3653 -0.6465  0.4080
 1689TIP3    H229263   6.174   2.502  13.017  0.9759 -1.6639  0.1171
 1690TIP3   OH229264   1.652   4.982  12.799  0.0241  0.3223 -0.1201
 1690TIP3    H129265   1.605   4.903  12.827 -0.9883  0.8899 -0.1675
 1690TIP3    H229266   1.641   4.984  12.704  2.5305 -1.0130 -0.5104
 1691TIP3   OH229267   5.523   2.834  11.380  0.4843  0.5834 -0.7127
 1691TIP3    H129268   5.522   2.741  11.356  0.1107 -0.2399  2.1590
 1691TIP3    H229269   5.606   2.846  11.425  0.5949  1.7177 -1.1947
 1692TIP3   OH229270   0.646   1.892  13.027  0.2549  0.0548  0.2373
 1692TIP3    H129271   0.689   1.921  13.107  2.9728  1.4566 -1.5820
 1692TIP3    H229272   0.616   1.972  12.985  2.1552 -0.2003 -1.8219
 1693TIP3   OH229273   2.906   3.422  11.453  0.0615  0.0098 -0.2226
 1693TIP3    H129274   2.994   3.442  11.421  0.6853  0.6045  1.6847
 1693TIP3    H229275   2.921   3.369  11.532 -1.3398 -0.7817 -0.4496
 1694TIP3   OH229276   1.837   2.454  11.489  0.1485 -0.0951  0.2623
 1694TIP3    H129277   1.800   2.402  11.417  0.8156 -0.7291  0.3669
 1694TIP3    H229278   1.762   2.481  11.541 -0.1358 -2.0355  0.9265
 1695TIP3   OH229279   4.086   4.951  11.858  0.8884  0.1421 -0.2723
 1695TIP3    H129280   3.990   4.944  11.860  0.9494 -1.1085 -0.9593
 1695TIP3    H229281   4.108   4.993  11.941 -0.1277 -1.3453  0.8188
 1696TIP3   OH229282   5.246   5.039  10.078  0.2571 -0.3169 -0.0722
 1696TIP3    H129283   5.270   4.982  10.005  0.6571 -0.4095  0.1294
 1696TIP3    H229284   5.324   5.091  10.095  0.3348 -0.6341  0.6042
 1697TIP3   OH229285   0.697   0.646  10.945  0.5516  0.0813  0.0966
 1697TIP3    H129286   0.761   0.614  11.008  1.3490  1.8950  0.2642
 1697TIP3    H229287   0.745   0.708  10.890 -1.1453  2.0593  0.6824
 1698TIP3   OH229288   4.146   2.091  11.504  0.6431  0.1239 -0.0231
 1698TIP3    H129289   4.076   2.030  11.478  1.5273 -1.3604  0.9201
 1698TIP3    H229290   4.220   2.034  11.525  1.4737  1.5414  1.0174
 1699TIP3   OH229291   1.920   3.590  11.301 -0.0934 -0.5729  0.6434
 1699TIP3    H129292   1.853   3.532  11.264 -0.4671  0.0550  0.3128
 1699TIP3    H229293   1.872   3.646  11.362  0.1008 -0.0355  0.3135
 1700TIP3   OH229294   1.732   1.029  12.159 -0.4030 -0.1346  0.0375
 1700TIP3    H129295   1.687   0.992  12.083 -2.3052  1.2280  0.4451
 1700TIP3    H229296   1.817   1.057  12.124  0.5813 -3.3838 -0.5971
 1701TIP3   OH229297   5.984   0.368  10.629  0.1997  0.1243  0.2814
 1701TIP3    H129298   5.991   0.298  10.564  1.6385  0.7718 -0.2882
 1701TIP3    H229299   5.954   0.444  10.579  1.7405  0.7449  0.2664
 1702TIP3   OH229300   0.632   3.049  11.923  0.1373 -0.0926 -0.2698
 1702TIP3    H129301   0.707   3.003  11.885  0.3209 -1.2764  1.3888
 1702TIP3    H229302   0.660   3.072  12.012 -1.3587 -0.3628  0.3182
 1703TIP3   OH229303   0.225   5.837  10.431 -0.1544  0.2639  0.0754
 1703TIP3    H129304   0.205   5.814  10.522 -1.0336  0.9073  0.0585
 1703TIP3    H229305   0.187   5.766  10.379 -0.6598  0.4699  0.1564
 1704TIP3   OH229306   6.747   4.891  12.627 -0.3347 -0.2057  0.1414
 1704TIP3    H129307   6.771   4.946  12.702 -0.5498  0.0365  0.0340
 1704TIP3    H229308   6.830   4.867  12.587 -0.2589  0.5839 -0.1973
 1705TIP3   OH229309   1.287   3.661  11.190  0.4650 -0.2386 -0.1950
 1705TIP3    H129310   1.259   3.569  11.184  0.0963 -0.1104 -0.5283
 1705TIP3    H229311   1.275   3.695  11.101 -1.3041  0.6662  0.3406
 1706TIP3   OH229312   0.451   6.683  12.723  0.0977 -0.1955  0.2974
 1706TIP3    H129313   0.360   6.686  12.694  0.1796 -0.7293 -0.0028
 1706TIP3    H229314   0.464   6.767  12.767 -0.2654  0.2719 -0.4689
 1707TIP3   OH229315   1.362   6.296  12.163  0.0171  0.1205  0.2610
 1707TIP3    H129316   1.405   6.211  12.151 -1.8248 -0.6675 -1.1727
 1707TIP3    H229317   1.430   6.360  12.138  0.9137 -0.9908 -0.2415
 1708TIP3   OH229318   6.394   3.084  11.355 -0.2658  0.7075 -0.8516
 1708TIP3    H129319   6.414   3.030  11.279  0.4696  1.4715 -1.2193
 1708TIP3    H229320   6.306   3.119  11.338 -0.3871  0.3162 -1.0200
 1709TIP3   OH229321   0.666   5.653  10.452  0.1630 -0.1598 -0.0667
 1709TIP3    H129322   0.693   5.672  10.362  0.2360 -1.2590 -0.2944
 1709TIP3    H229323   0.743   5.674  10.505  0.2969  0.0110 -0.3278
 1710TIP3   OH229324   1.046   3.544  12.921 -0.7547  0.4611 -0.2798
 1710TIP3    H129325   0.956   3.517  12.942 -0.3212 -1.5468 -0.8000
 1710TIP3    H229326   1.101   3.480  12.966  0.3906  1.0067 -0.8750
 1711TIP3   OH229327   5.684   1.804  10.609 -0.3301  0.3700  0.3767
 1711TIP3    H129328   5.739   1.836  10.680 -0.4192  1.5262 -0.0556
 1711TIP3    H229329   5.602   1.853  10.618  0.9834  3.6325 -2.8221
 1712TIP3   OH229330   1.345   6.074  11.710 -0.3396  0.1464 -0.0203
 1712TIP3    H129331   1.296   6.100  11.631  0.7424 -0.5113 -0.9299
 1712TIP3    H229332   1.326   5.981  11.721  0.6294 -0.0974 -0.3394
 1713TIP3   OH229333   4.525   0.538  11.100  0.4886  0.2029 -0.2477
 1713TIP3    H129334   4.569   0.495  11.026  0.4944  1.2643 -0.8748
 1713TIP3    H229335   4.432   0.523  11.084  0.5400 -1.2966  0.6226
 1714TIP3   OH229336   2.802   2.670  11.054 -0.6133  0.3115  0.2154
 1714TIP3    H129337   2.759   2.734  10.997 -1.3273 -0.8622 -0.6089
 1714TIP3    H229338   2.887   2.656  11.014 -0.7607  0.1567 -0.0396
 1715TIP3   OH229339   2.155   6.652  11.155  0.4768 -0.5450  0.2154
 1715TIP3    H129340   2.082   6.617  11.105  0.9311 -1.5269  0.2141
 1715TIP3    H229341   2.206   6.575  11.180  0.9582  0.0380  1.0866
 1716TIP3   OH229342   2.845   4.348  11.049  0.0768 -0.0873  0.2320
 1716TIP3    H129343   2.808   4.260  11.052  2.4081 -1.1266  0.7112
 1716TIP3    H229344   2.861   4.370  11.141  0.3664  0.4369  0.0587
 1717TIP3   OH229345   5.484   1.837  12.468 -0.2796  0.4049  0.6255
 1717TIP3    H129346   5.442   1.811  12.386  1.6979 -0.8965 -0.0403
 1717TIP3    H229347   5.413   1.836  12.532 -1.6320  0.2115 -0.7940
 1718TIP3   OH229348   2.952   3.387  10.751 -0.2604  0.2854  0.2496
 1718TIP3    H129349   2.877   3.337  10.720  0.7832  0.3749 -2.8153
 1718TIP3    H229350   2.986   3.337  10.824 -1.2115 -1.7001 -0.6021
 1719TIP3   OH229351   4.218   1.756  12.674 -0.1420  0.1587  0.4948
 1719TIP3    H129352   4.270   1.705  12.736 -0.8539 -0.8557  0.2758
 1719TIP3    H229353   4.201   1.696  12.602 -2.2758  0.1893  0.9224
 1720TIP3   OH229354   6.435   0.134  11.989 -0.9848 -0.3516 -0.1086
 1720TIP3    H129355   6.463   0.082  12.064  1.5583 -1.4611 -1.6831
 1720TIP3    H229356   6.499   0.206  11.986 -1.8044  0.3693 -0.5149
 1721TIP3   OH229357   0.945   6.718  11.739  0.1935 -0.2152 -1.1226
 1721TIP3    H129358   1.002   6.716  11.662 -0.3650  0.8025 -1.5851
 1721TIP3    H229359   0.882   6.648  11.724 -0.8458  0.9403 -2.3556
 1722TIP3   OH229360   1.183   3.428  11.986 -0.1404  0.1428 -0.0022
 1722TIP3    H129361   1.219   3.512  11.958 -0.2521  0.0669 -0.3826
 1722TIP3    H229362   1.257   3.383  12.027 -0.8116  1.7189  3.3059
 1723TIP3   OH229363   4.600   6.505  10.972 -0.4216  0.1915  0.0745
 1723TIP3    H129364   4.577   6.438  10.908  2.6740 -0.5026 -0.4878
 1723TIP3    H229365   4.623   6.455  11.051 -0.4885  0.7585  0.4532
 1724TIP3   OH229366   3.800   5.002  12.904 -0.3191 -0.6090 -0.0704
 1724TIP3    H129367   3.814   5.017  12.997 -0.9295 -1.5552  0.1843
 1724TIP3    H229368   3.781   5.089  12.868 -0.9517 -0.3632  0.8359
 1725TIP3   OH229369   6.661   6.190  11.536 -0.1088  0.0915  0.3068
 1725TIP3    H129370   6.596   6.144  11.482 -2.0582  2.2263  0.6778
 1725TIP3    H229371   6.689   6.264  11.482  0.1515  0.5777  1.0895
 1726TIP3   OH229372   3.358   2.703  10.375 -0.3125 -0.2179  0.4704
 1726TIP3    H129373   3.273   2.659  10.371  0.3615 -1.5237 -0.5071
 1726TIP3    H229374   3.352   2.762  10.450 -1.9371 -0.5771  0.6495
 1727TIP3   OH229375   1.080   2.885  10.186 -0.5065 -0.7389 -0.3400
 1727TIP3    H129376   0.996   2.869  10.144 -0.0968 -1.3071 -0.9575
 1727TIP3    H229377   1.136   2.812  10.158  0.1431 -0.4617  0.1960
 1728TIP3   OH229378   3.777   5.088  10.047  0.7360  0.0173 -0.1707
 1728TIP3    H129379   3.719   5.160  10.023 -0.5197 -0.6177  0.8929
 1728TIP3    H229380   3.780   5.033   9.968  1.7520  1.2141 -1.0127
 1729TIP3   OH229381   3.144   0.229  12.919 -0.1144 -0.4170 -0.1021
 1729TIP3    H129382   3.135   0.149  12.868  0.3386  0.6322 -1.9583
 1729TIP3    H229383   3.236   0.232  12.945 -0.4237 -1.1309  1.1490
 1730TIP3   OH229384   6.820   5.816  10.629  0.1494  0.3941  0.4115
 1730TIP3    H129385   6.789   5.726  10.633  1.6132 -0.1224  0.8515
 1730TIP3    H229386   6.806   5.851  10.717  0.7151  0.1923  0.5831
 1731TIP3   OH229387   6.501   3.356  12.131  0.2226 -0.2558 -0.2630
 1731TIP3    H129388   6.519   3.346  12.224 -1.3530  2.1274  0.4078
 1731TIP3    H229389   6.456   3.441  12.124  0.1695 -0.4029 -3.1802
 1732TIP3   OH229390   6.224   2.695  11.812 -0.2291  0.0728 -0.4965
 1732TIP3    H129391   6.153   2.753  11.783  0.1997 -0.0928 -2.0028
 1732TIP3    H229392   6.273   2.747  11.875 -1.8540  0.0762  0.8298
 1733TIP3   OH229393   2.925   2.025  13.159  0.4207 -0.5017  0.1173
 1733TIP3    H129394   2.993   2.004  13.095  0.1278 -1.2326  0.0396
 1733TIP3    H229395   2.862   1.954  13.151 -0.0067 -0.1912  0.6809
 1734TIP3   OH229396   5.527   0.748  13.138  0.3275 -0.2720  0.3000
 1734TIP3    H129397   5.442   0.712  13.112  0.5053 -0.3683 -0.1545
 1734TIP3    H229398   5.518   0.842  13.124  0.7205 -0.4049 -1.0219
 1735TIP3   OH229399   4.698   0.612  13.113 -0.3414 -0.3309 -0.1908
 1735TIP3    H129400   4.632   0.544  13.105  0.1346 -0.9347  0.8003
 1735TIP3    H229401   4.781   0.568  13.094 -0.1312  0.2286 -0.6136
 1736TIP3   OH229402   2.153   5.742  10.036 -0.2267  0.4179  0.0935
 1736TIP3    H129403   2.068   5.785  10.039 -1.4781 -1.8644  3.3367
 1736TIP3    H229404   2.214   5.807  10.071 -0.8511  1.6433 -1.0299
 1737TIP3   OH229405   0.242   1.255  12.448  0.0518  0.0736  0.1952
 1737TIP3    H129406   0.322   1.215  12.416 -0.2409 -0.1121 -0.3206
 1737TIP3    H229407   0.244   1.344  12.413  0.0246  0.0623  0.1649
 1738TIP3   OH229408   3.556   4.230  10.086 -0.0139  0.2618  0.1640
 1738TIP3    H129409   3.629   4.291  10.094  0.3120 -0.0921 -0.0916
 1738TIP3    H229410   3.596   4.144  10.087 -0.5755 -0.0149  1.8047
 1739TIP3   OH229411   0.592   4.289  10.599  0.0283  0.3447  0.3214
 1739TIP3    H129412   0.572   4.203  10.635  0.0473  0.7484  1.3550
 1739TIP3    H229413   0.515   4.313  10.548  0.2960 -0.5542 -0.5226
 1740TIP3   OH229414   2.408   0.913  10.686 -0.5527  0.3901 -0.1292
 1740TIP3    H129415   2.324   0.959  10.692 -0.7488 -0.0609  0.7715
 1740TIP3    H229416   2.472   0.982  10.668 -1.0809  0.7686 -0.5904
 1741TIP3   OH229417   2.817   1.993   9.607  0.1060  0.3821  0.1301
 1741TIP3    H129418   2.805   2.049   9.684 -1.7261  0.6766 -0.3290
 1741TIP3    H229419   2.836   2.055   9.536  0.9554  0.1743  0.1657
 1742TIP3   OH229420   1.378   4.547  12.574  0.1089  0.2293  0.3070
 1742TIP3    H129421   1.326   4.628  12.580 -1.3178 -0.4325 -1.9087
 1742TIP3    H229422   1.399   4.539  12.481 -1.2698 -2.7731  0.1300
 1743TIP3   OH229423   6.611   6.222  11.990 -0.1462 -0.0967  0.0925
 1743TIP3    H129424   6.648   6.220  12.078 -1.4321  1.2191  0.7068
 1743TIP3    H229425   6.653   6.296  11.948 -0.1750 -0.1928 -0.1067
 1744TIP3   OH229426   3.459   1.229  12.522  0.2426 -0.1133 -0.1575
 1744TIP3    H129427   3.512   1.248  12.600 -1.5401  1.1909  0.8116
 1744TIP3    H229428   3.499   1.281  12.453  0.2333  0.9164  0.5767
 1745TIP3   OH229429   5.415   1.137   9.969  0.0023 -0.6990 -0.4873
 1745TIP3    H129430   5.348   1.078   9.933 -0.5154 -0.0945 -0.5263
 1745TIP3    H229431   5.366   1.195  10.027  0.6827 -1.0380  0.4526
 1746TIP3   OH229432   3.323   3.265  12.494  0.0241  0.0161  0.3062
 1746TIP3    H129433   3.297   3.357  12.489  0.1169  0.0031 -0.7791
 1746TIP3    H229434   3.334   3.248  12.587  0.7627  1.3233  0.4852
 1747TIP3   OH229435   0.353   4.765  10.778 -0.2660 -0.1209 -0.1026
 1747TIP3    H129436   0.309   4.772  10.862  1.4918  0.8570  0.7875
 1747TIP3    H229437   0.405   4.685  10.785  1.1424  0.7984  0.4175
 1748TIP3   OH229438   5.318   6.537  12.753 -0.6523 -0.5154 -0.3836
 1748TIP3    H129439   5.243   6.517  12.809 -0.7005 -2.0482 -0.9515
 1748TIP3    H229440   5.283   6.535  12.664 -0.0070 -0.9597 -0.6376
 1749TIP3   OH229441   2.583   1.810  11.555  0.0014  0.3517 -0.0585
 1749TIP3    H129442   2.516   1.780  11.494 -0.1109  1.6950 -0.6223
 1749TIP3    H229443   2.665   1.806  11.506  0.2475 -0.5604  0.3918
 1750TIP3   OH229444   4.740   1.152  12.924 -0.5697  0.3306  0.5349
 1750TIP3    H129445   4.702   1.145  12.837 -0.6125  1.7157  0.4155
 1750TIP3    H229446   4.754   1.061  12.952  0.8547 -0.1603 -1.5141
 1751TIP3   OH229447   5.333   2.572  10.531  0.0853  0.0369 -0.0852
 1751TIP3    H129448   5.349   2.517  10.454 -0.8491 -1.9751  1.0713
 1751TIP3    H229449   5.388   2.649  10.517  1.0757 -0.9348 -2.0450
 1752TIP3   OH229450   0.273   2.741  13.080  0.3486  0.8224  0.6606
 1752TIP3    H129451   0.235   2.656  13.098 -0.3028  1.5265  2.9110
 1752TIP3    H229452   0.249   2.759  12.989  1.9337 -2.0486 -0.4419
 1753TIP3   OH229453   0.928   2.688  11.098 -0.4057  0.4851  0.7777
 1753TIP3    H129454   0.919   2.762  11.158  2.0376  1.2910  0.3042
 1753TIP3    H229455   0.994   2.717  11.035 -1.2578 -1.1720 -0.9751
 1754TIP3   OH229456   0.636   3.383  11.254  0.0239  0.1049 -0.3600
 1754TIP3    H129457   0.635   3.435  11.334 -0.4575 -2.2009  1.2526
 1754TIP3    H229458   0.678   3.301  11.280 -0.1803 -0.7143 -2.4705
 1755TIP3   OH229459   2.652   5.323  12.542  0.4984  0.1759 -0.5095
 1755TIP3    H129460   2.644   5.413  12.575  3.3140  0.8249 -1.3426
 1755TIP3    H229461   2.562   5.298  12.520 -0.5679  2.2005  1.1548
 1756TIP3   OH229462   4.539   6.330  12.520  0.4165 -0.2231  0.5526
 1756TIP3    H129463   4.452   6.370  12.509  0.9167  0.4912 -0.9115
 1756TIP3    H229464   4.565   6.356  12.608 -0.6763 -0.1119  0.8668
 1757TIP3   OH229465   4.890   2.191  11.154 -0.2121 -0.1416 -0.2594
 1757TIP3    H129466   4.936   2.265  11.115  0.2314 -0.0008  0.5085
 1757TIP3    H229467   4.839   2.230  11.225 -0.2678 -0.5228 -0.0920
 1758TIP3   OH229468   2.933   4.594   9.057 -0.1396  0.2357 -0.6513
 1758TIP3    H129469   2.981   4.601   8.974  1.6871  1.9588  0.4677
 1758TIP3    H229470   2.919   4.684   9.084  1.4936 -0.2318  2.0863
 1759TIP3   OH229471   6.642   0.285  11.875 -0.7462  0.0960  0.0502
 1759TIP3    H129472   6.662   0.357  11.815 -1.4683 -0.3588 -0.7608
 1759TIP3    H229473   6.715   0.224  11.864  0.0512  0.8367  1.0015
 1760TIP3   OH229474   1.900   1.397  10.616  0.5987 -0.4364  0.1313
 1760TIP3    H129475   1.916   1.465  10.551  0.7050 -0.5805  0.0066
 1760TIP3    H229476   1.969   1.408  10.681  0.8723 -0.6981 -0.1122
 1761TIP3   OH229477   3.298   3.895   9.728 -0.1204 -0.4094 -0.0254
 1761TIP3    H129478   3.290   3.911   9.822 -1.1874 -0.8903 -0.0274
 1761TIP3    H229479   3.393   3.888   9.714  0.0641 -0.1784  0.9783
 1762TIP3   OH229480   2.845   0.524  10.019  0.2127  0.4536 -0.1669
 1762TIP3    H129481   2.914   0.529   9.952 -0.9260  1.7320 -1.3173
 1762TIP3    H229482   2.767   0.560   9.976 -0.4007  2.0035  2.0618
 1763TIP3   OH229483   1.727   0.046  10.294  0.6376 -0.1532  0.0730
 1763TIP3    H129484   1.727   0.044  10.390  1.4793  1.7772  0.1547
 1763TIP3    H229485   1.814   0.015  10.269  0.2030 -1.2728 -0.1275
 1764TIP3   OH229486   4.862   0.878  10.925  0.1594 -0.4814  0.2825
 1764TIP3    H129487   4.913   0.928  10.989 -0.4736 -1.5832  1.6883
 1764TIP3    H229488   4.783   0.851  10.972 -1.9657  1.3954 -1.8734
 1765TIP3   OH229489   6.085   3.880  12.114  0.2475  0.0255  0.3732
 1765TIP3    H129490   6.123   3.801  12.076 -1.4648 -0.8178  0.3037
 1765TIP3    H229491   6.074   3.940  12.040  0.8811  0.0622  0.3030
 1766TIP3   OH229492   0.281   1.750  11.070  0.8399 -0.3711 -0.6535
 1766TIP3    H129493   0.267   1.658  11.047 -0.5162 -0.1794 -0.6851
 1766TIP3    H229494   0.196   1.781  11.100  1.4800  0.6526  0.2029
 1767TIP3   OH229495   6.102   4.125  11.593  0.2650 -0.3839  0.2129
 1767TIP3    H129496   6.106   4.217  11.564  0.5100 -1.2027 -2.6447
 1767TIP3    H229497   6.042   4.126  11.668 -2.5288  1.6730 -1.8403
 1768TIP3   OH229498   3.357   3.344  11.223  0.0379 -0.2325 -0.4209
 1768TIP3    H129499   3.334   3.321  11.133 -0.7451 -3.2227  0.4106
 1768TIP3    H229500   3.378   3.260  11.264  1.7908  1.1945  1.8348
 1769TIP3   OH229501   0.695   1.388  13.223  0.5525 -0.0380  0.0944
 1769TIP3    H129502   0.759   1.362  13.156 -0.7055  1.9260 -2.0378
 1769TIP3    H229503   0.745   1.446  13.281  1.0819  0.3082 -0.6810
 1770TIP3   OH229504   1.867   0.645  10.905  0.1173  0.7849  0.0220
 1770TIP3    H129505   1.811   0.707  10.859 -1.9608  0.6158  2.0908
 1770TIP3    H229506   1.873   0.570  10.847 -4.4849 -0.4640  0.7713
 1771TIP3   OH229507   0.951   3.000  10.835  0.4046 -0.0601 -0.3675
 1771TIP3    H129508   0.870   3.051  10.835  1.5044  1.7625  0.5592
 1771TIP3    H229509   1.020   3.064  10.849  2.2302 -1.2945 -2.9364
 1772TIP3   OH229510   1.373   1.908  11.152  0.9203 -0.1821 -0.0564
 1772TIP3    H129511   1.441   1.921  11.218 -0.4742  1.1390  1.1954
 1772TIP3    H229512   1.348   1.816  11.161  1.1537 -0.1631  0.8768
 1773TIP3   OH229513   2.024   3.948  11.293 -0.2545  0.4596  0.4155
 1773TIP3    H129514   1.950   3.992  11.253  0.0250 -0.5569 -1.3704
 1773TIP3    H229515   2.021   3.972  11.385 -1.0342  2.8293 -0.1745
 1774TIP3   OH229516   1.682   2.713  11.681 -0.2231  0.4763 -0.0038
 1774TIP3    H129517   1.673   2.736  11.588 -1.1794  1.3213  0.2787
 1774TIP3    H229518   1.610   2.652  11.697  0.3244 -0.1732  0.0442
 1775TIP3   OH229519   2.764   1.321  10.611  0.3103 -0.0826 -0.8808
 1775TIP3    H129520   2.801   1.403  10.580 -0.2425  0.7733  0.6141
 1775TIP3    H229521   2.721   1.344  10.693 -1.3665 -1.5262 -1.3051
 1776TIP3   OH229522   0.286   6.525  12.100  0.4442  0.3175 -0.1685
 1776TIP3    H129523   0.284   6.455  12.166  1.3655  0.4224 -0.0171
 1776TIP3    H229524   0.379   6.537  12.081  0.2285  0.8072 -0.9433
 1777TIP3   OH229525   5.917   1.894  12.588  0.1639  0.0217 -0.4632
 1777TIP3    H129526   5.990   1.953  12.568 -0.4033  0.7611 -0.4241
 1777TIP3    H229527   5.862   1.945  12.647 -1.4371  0.2478 -2.0868
 1778TIP3   OH229528   1.120   5.897  11.776  0.1741  0.1836  0.0962
 1778TIP3    H129529   1.064   5.962  11.734  0.3233  1.2751  1.5122
 1778TIP3    H229530   1.061   5.847  11.832  0.0671 -0.9188 -0.9554
 1779TIP3   OH229531   5.456   4.805  12.728  0.6299  0.7923  0.6842
 1779TIP3    H129532   5.460   4.820  12.822 -0.5052 -0.3994  0.9554
 1779TIP3    H229533   5.396   4.871  12.695 -0.1344  0.2997  1.0468
 1780TIP3   OH229534   4.402   1.117  13.203  0.3497  0.4816  0.1826
 1780TIP3    H129535   4.307   1.120  13.220  0.1215 -1.1898 -0.5798
 1780TIP3    H229536   4.433   1.204  13.225 -0.8245  0.1860  3.4668
 1781TIP3   OH229537   3.018   1.155  12.177 -0.7007 -0.2770  0.5281
 1781TIP3    H129538   3.029   1.086  12.243 -0.5284  0.5967  1.4488
 1781TIP3    H229539   3.039   1.113  12.094  0.0362 -1.1647  1.1453
 1782TIP3   OH229540   5.572   6.326  11.577 -0.7885 -0.0018 -0.3850
 1782TIP3    H129541   5.591   6.232  11.569  0.3071  0.0170  1.3833
 1782TIP3    H229542   5.496   6.330  11.635  0.8003  0.2026  1.8234
 1783TIP3   OH229543   4.272   2.897  10.477 -0.2435 -0.1847 -0.2808
 1783TIP3    H129544   4.247   2.883  10.386 -2.2210 -0.8622  0.3181
 1783TIP3    H229545   4.246   2.817  10.522  0.6983  0.1407  0.9079
 1784TIP3   OH229546   1.461   6.681  11.176 -0.1057  0.0753  0.2772
 1784TIP3    H129547   1.541   6.693  11.124 -0.4132 -1.4872 -0.6346
 1784TIP3    H229548   1.391   6.717  11.122 -0.3307 -0.9029 -0.1110
 1785TIP3   OH229549   5.054   0.693  11.622  0.1422 -0.5858 -0.2007
 1785TIP3    H129550   4.988   0.735  11.567  1.6201 -1.2740 -2.6357
 1785TIP3    H229551   5.130   0.750  11.617 -0.1428  0.1949  2.5735
 1786TIP3   OH229552   6.764   3.482  10.572 -0.1561 -0.1038 -0.4340
 1786TIP3    H129553   6.816   3.514  10.498  1.8413 -0.2060  0.8553
 1786TIP3    H229554   6.724   3.561  10.608  0.9512  0.3270 -0.0989
 1787TIP3   OH229555   2.752   4.926  12.699 -0.7820  0.0970  0.1073
 1787TIP3    H129556   2.839   4.888  12.708 -0.3094  0.2087 -2.8070
 1787TIP3    H229557   2.744   4.988  12.771  0.7372 -1.3264  1.5790
 1788TIP3   OH229558   4.464   1.460  11.781 -0.2273  0.1129 -0.5000
 1788TIP3    H129559   4.430   1.377  11.815 -1.0950 -0.7587 -3.2223
 1788TIP3    H229560   4.545   1.474  11.830 -0.5403 -1.8573  0.6952
 1789TIP3   OH229561   5.788   4.634  12.053 -0.0541 -0.5467 -0.5750
 1789TIP3    H129562   5.822   4.707  12.105 -1.9155  0.6375 -0.8936
 1789TIP3    H229563   5.734   4.584  12.114 -0.1112 -0.6940 -0.7441
 1790TIP3   OH229564   5.555   4.419  10.519  0.2590 -0.1830 -0.2639
 1790TIP3    H129565   5.541   4.490  10.457 -1.2080 -0.0039  0.2427
 1790TIP3    H229566   5.648   4.397  10.509  0.6585  1.5380 -0.6934
 1791TIP3   OH229567   1.686   4.507  10.980 -0.1778  0.4529 -0.8413
 1791TIP3    H129568   1.680   4.440  11.048  0.5252  0.3414 -0.8832
 1791TIP3    H229569   1.748   4.572  11.016 -0.2255  0.6664 -1.1431
 1792TIP3   OH229570   2.252   2.260  10.384  0.0773  0.0762 -0.1978
 1792TIP3    H129571   2.173   2.230  10.429 -0.3288  1.1749 -0.1647
 1792TIP3    H229572   2.223   2.285  10.297  0.9044 -2.2803 -1.2550
 1793TIP3   OH229573   5.494   3.027  10.426  0.1324  0.0415  0.1163
 1793TIP3    H129574   5.567   3.051  10.484  0.6539 -2.0394  0.4084
 1793TIP3    H229575   5.505   3.084  10.350  1.0790  0.9124  0.8573
 1794TIP3   OH229576   5.559   4.631  12.410 -0.4658  0.4328  0.6471
 1794TIP3    H129577   5.625   4.619  12.478  0.4434  1.3195 -0.0520
 1794TIP3    H229578   5.513   4.547  12.405 -0.5157  0.3436  2.3040
 1795TIP3   OH229579   2.790   4.520  10.336  0.4301 -0.1527 -0.1481
 1795TIP3    H129580   2.860   4.521  10.400 -0.2024  1.0993  0.5670
 1795TIP3    H229581   2.740   4.441  10.355  1.6239 -1.0622 -0.6762
 1796TIP3   OH229582   1.020   5.483  10.988  0.0165 -0.0403 -0.6524
 1796TIP3    H129583   1.018   5.418  10.918 -0.8398  0.9801 -1.6082
 1796TIP3    H229584   1.075   5.554  10.954 -0.0454  0.2718 -0.1106
 1797TIP3   OH229585   0.114   0.664  12.238 -0.6644  0.3463  0.0932
 1797TIP3    H129586   0.084   0.668  12.148  1.2416  0.9669 -0.5690
 1797TIP3    H229587   0.163   0.582  12.243  0.9670  1.2681 -0.0628
 1798TIP3   OH229588   5.325   1.008  11.692  0.0970 -0.2385 -0.2714
 1798TIP3    H129589   5.362   1.029  11.778  1.3589  0.5602 -0.9755
 1798TIP3    H229590   5.309   0.914  11.696  0.9983 -0.3783  0.5465
 1799TIP3   OH229591   2.652   1.969  10.512  0.2089  0.5478 -0.3160
 1799TIP3    H129592   2.564   2.007  10.514  0.4728  1.1651  0.4600
 1799TIP3    H229593   2.659   1.922  10.595  0.4947  0.2177 -0.5242
 1800TIP3   OH229594   5.176   2.347  12.529  0.1809 -0.2201  0.7089
 1800TIP3    H129595   5.184   2.302  12.613 -0.7109 -1.1542  0.3087
 1800TIP3    H229596   5.228   2.427  12.540 -0.2592 -0.1158  2.2904
 1801TIP3   OH229597   1.083   3.869  10.764  0.0715 -0.1504 -0.0916
 1801TIP3    H129598   1.123   3.827  10.687  2.1622 -0.6075  1.1803
 1801TIP3    H229599   1.115   3.959  10.761  2.7223 -0.9213  1.8135
 1802TIP3   OH229600   1.603   3.470  13.127 -0.0302 -0.0517  0.2885
 1802TIP3    H129601   1.636   3.557  13.105 -1.0173  0.1644 -0.4095
 1802TIP3    H229602   1.516   3.485  13.162  0.3393 -0.6620  1.5312
 1803TIP3   OH229603   4.249   1.456  10.461 -0.7094  0.0794 -0.1151
 1803TIP3    H129604   4.329   1.506  10.474 -0.4158 -0.7526  1.5742
 1803TIP3    H229605   4.246   1.438  10.367  0.8992  0.4216 -0.2494
 1804TIP3   OH229606   5.013   6.336  12.555 -0.1495 -0.3758  0.5066
 1804TIP3    H129607   5.034   6.341  12.462 -0.0444 -1.3635  0.4671
 1804TIP3    H229608   5.046   6.251  12.582 -1.2823 -0.6188  1.1736
 1805TIP3   OH229609   4.487   1.168  10.428  0.0150 -0.5932 -0.1989
 1805TIP3    H129610   4.545   1.096  10.401  0.9628 -0.6775  1.9208
 1805TIP3    H229611   4.515   1.242  10.374  2.5953 -0.4559  1.1579
 1806TIP3   OH229612   3.771   1.456  11.915 -0.0980  0.4851 -0.2886
 1806TIP3    H129613   3.860   1.425  11.930 -0.1566  0.5162  0.1353
 1806TIP3    H229614   3.781   1.546  11.882  0.0061  0.8480  0.6876
 1807TIP3   OH229615   2.702   3.359  10.222  0.0248 -0.0157 -0.0613
 1807TIP3    H129616   2.632   3.379  10.161 -0.6980 -1.4966  0.2456
 1807TIP3    H229617   2.658   3.325  10.299  1.0660 -1.2517  0.0256
 1808TIP3   OH229618   0.519   5.061  11.279 -0.1477 -0.1060 -0.5057
 1808TIP3    H129619   0.550   5.074  11.369  0.2479 -1.2815 -0.4563
 1808TIP3    H229620   0.587   5.101  11.225 -0.6996  1.1870 -0.2905
 1809TIP3   OH229621   2.679   0.560  12.619  0.8048  0.5597 -0.7997
 1809TIP3    H129622   2.712   0.575  12.707 -0.3446  0.9106 -0.4155
 1809TIP3    H229623   2.749   0.512  12.575  0.6197 -1.3621  0.8874
 1810TIP3   OH229624   3.742   6.602  12.813  0.0948 -0.2035 -0.3974
 1810TIP3    H129625   3.821   6.654  12.797 -1.2348  1.9861 -0.3121
 1810TIP3    H229626   3.755   6.566  12.900 -0.2169  2.7112  0.9881
 1811TIP3   OH229627   5.344   3.226  12.957  0.1710 -0.4264 -0.1755
 1811TIP3    H129628   5.401   3.159  12.995  0.7697  0.3400  0.3125
 1811TIP3    H229629   5.305   3.184  12.881 -0.2046 -1.6432  0.6639
 1812TIP3   OH229630   2.351   1.245  13.129 -0.0775  0.7093  0.2222
 1812TIP3    H129631   2.395   1.223  13.211 -0.2214  0.4346  0.2251
 1812TIP3    H229632   2.421   1.250  13.065  0.0320  0.8923  0.3549
 1813TIP3   OH229633   0.334   1.684  12.045  0.0733 -0.6925 -0.1867
 1813TIP3    H129634   0.279   1.619  12.089 -0.3078 -1.8004 -2.1896
 1813TIP3    H229635   0.344   1.650  11.956  2.0476  0.7005 -0.5404
 1814TIP3   OH229636   3.442   4.458  12.899  0.0871 -0.3417 -0.2562
 1814TIP3    H129637   3.531   4.438  12.870  0.8019  1.1081  0.8083
 1814TIP3    H229638   3.421   4.541  12.856 -0.2306  0.0008  0.5386
 1815TIP3   OH229639   2.692   6.539  10.006  0.2100  0.2139  0.2769
 1815TIP3    H129640   2.670   6.522   9.914 -1.2195  1.2205  0.3901
 1815TIP3    H229641   2.769   6.596  10.002  1.0807 -0.9682 -0.2427
 1816TIP3   OH229642   1.719   5.462  12.728 -0.2661 -0.1637  0.4566
 1816TIP3    H129643   1.675   5.446  12.645  0.6890 -0.5763  0.0099
 1816TIP3    H229644   1.730   5.375  12.766  1.2592 -0.2236 -0.0384
 1817TIP3   OH229645   1.869   1.912  11.294  0.0300 -0.5246 -0.3103
 1817TIP3    H129646   1.925   1.939  11.367 -0.6914 -0.5696  0.2670
 1817TIP3    H229647   1.930   1.899  11.221  0.7184 -0.1245  0.1779
 1818TIP3   OH229648   5.560   6.599  11.907  0.0825  0.0660  0.1385
 1818TIP3    H129649   5.574   6.661  11.978  0.0738 -0.8068  0.9304
 1818TIP3    H229650   5.619   6.526  11.927 -1.7806 -1.3733  0.7307
 1819TIP3   OH229651   0.931   1.071  12.469  0.0856  0.3793  0.1986
 1819TIP3    H129652   1.000   1.011  12.495 -0.7890 -0.7167  0.0682
 1819TIP3    H229653   0.870   1.071  12.544  0.0484  1.0706  0.1778
 1820TIP3   OH229654   5.535   6.545  11.412 -0.1864 -0.2036  0.0260
 1820TIP3    H129655   5.551   6.463  11.460  1.4668  0.4312  0.5955
 1820TIP3    H229656   5.573   6.613  11.466  1.4612  0.5902 -1.9995
 1821TIP3   OH229657   0.747   5.595  12.070 -0.0363  0.3753 -0.1146
 1821TIP3    H129658   0.735   5.671  12.127 -0.2273 -0.6222  1.2136
 1821TIP3    H229659   0.662   5.551  12.070 -0.3874  0.9432 -2.1048
 1822TIP3   OH229660   4.970   0.424  11.859 -0.3591 -0.4693  0.1182
 1822TIP3    H129661   4.993   0.332  11.870  0.5415 -0.1518  1.0786
 1822TIP3    H229662   5.054   0.470  11.860 -0.6407  0.2232 -2.1828
 1823TIP3   OH229663   3.479   0.280  10.773  0.3842 -0.5240  0.2057
 1823TIP3    H129664   3.441   0.273  10.860 -0.3979  0.2673 -0.0512
 1823TIP3    H229665   3.529   0.362  10.775  0.1002 -0.3356 -0.1731
 1824TIP3   OH229666   2.807   4.538  10.802  0.3675  0.1989  0.1037
 1824TIP3    H129667   2.733   4.541  10.864  1.2654 -0.3274  1.2475
 1824TIP3    H229668   2.872   4.482  10.846  1.6649  1.0923 -0.6266
 1825TIP3   OH229669   5.019   0.555  12.742  0.1974  0.1263 -0.6145
 1825TIP3    H129670   5.018   0.508  12.825 -1.4211  2.5550  0.8639
 1825TIP3    H229671   5.104   0.599  12.740  0.1211  0.3065 -0.0557
 1826TIP3   OH229672   6.596   2.703  10.489 -0.3161  0.1734  0.4293
 1826TIP3    H129673   6.641   2.630  10.447 -1.5113 -0.8285  0.8141
 1826TIP3    H229674   6.527   2.727  10.428 -0.5297  0.3371  0.7350
 1827TIP3   OH229675   3.644   2.005  11.207  1.0384 -0.3554 -0.3199
 1827TIP3    H129676   3.707   2.060  11.254 -0.0311 -0.5592  1.4673
 1827TIP3    H229677   3.610   2.062  11.137 -0.1242  1.3830  1.5368
 1828TIP3   OH229678   3.255   3.857  10.443 -0.0146  0.0181 -0.1698
 1828TIP3    H129679   3.174   3.907  10.441 -0.0351 -0.0200 -0.2798
 1828TIP3    H229680   3.314   3.908  10.499 -0.2801 -0.2040  0.3208
 1829TIP3   OH229681   4.467   5.697  10.900  0.4072 -0.3935  0.4080
 1829TIP3    H129682   4.525   5.725  10.971 -0.3115  0.8929  0.5118
 1829TIP3    H229683   4.388   5.668  10.945  0.8909 -2.0616  0.2603
 1830TIP3   OH229684   1.382   1.523  11.401 -0.6619  0.1423  0.2741
 1830TIP3    H129685   1.455   1.554  11.454 -0.2927 -1.1438  0.5575
 1830TIP3    H229686   1.331   1.602  11.383  1.1066  1.1969 -0.4557
 1831TIP3   OH229687   0.195   3.087  10.543  0.0527 -0.2731  0.1142
 1831TIP3    H129688   0.138   3.082  10.466  1.2685  0.8969 -0.9173
 1831TIP3    H229689   0.145   3.139  10.606 -0.5585 -0.3891 -0.2680
 1832TIP3   OH229690   4.932   2.208  11.585 -0.0914  0.1229 -0.0708
 1832TIP3    H129691   4.966   2.235  11.671 -0.7203 -0.4454  0.3682
 1832TIP3    H229692   4.995   2.143  11.554  0.9685  1.4315 -0.7526
 1833TIP3   OH229693   0.663   2.159  11.849 -0.1318 -0.0104  0.2450
 1833TIP3    H129694   0.717   2.205  11.784  0.0281 -0.1928  0.2490
 1833TIP3    H229695   0.650   2.222  11.919  0.8569 -0.2696  0.6775
 1834TIP3   OH229696   1.289   0.648  11.756  0.3987 -0.0722 -0.0406
 1834TIP3    H129697   1.247   0.585  11.698  2.7706 -1.5160 -0.3040
 1834TIP3    H229698   1.260   0.624  11.844 -0.0151 -0.4796 -0.2883
 1835TIP3   OH229699   0.836   1.462  11.079 -0.1714 -0.2390  0.2957
 1835TIP3    H129700   0.851   1.469  10.984 -0.8733  1.8483  0.2926
 1835TIP3    H229701   0.924   1.459  11.117  0.1287 -0.0633 -0.3658
 1836TIP3   OH229702   6.149   2.452  12.456  0.1341  0.1782 -0.4350
 1836TIP3    H129703   6.163   2.424  12.365 -0.1001 -4.1646  0.6270
 1836TIP3    H229704   6.231   2.492  12.482  0.6106  0.4678 -2.2330
 1837TIP3   OH229705   4.668   3.838  12.666 -0.3915  1.2764 -0.5470
 1837TIP3    H129706   4.652   3.829  12.572 -1.2456 -3.7362 -0.1635
 1837TIP3    H229707   4.763   3.831  12.675 -0.3236  1.5594 -1.0093
 1838TIP3   OH229708   0.072   4.431  12.367 -0.2269  0.2286 -0.6209
 1838TIP3    H129709   0.128   4.358  12.392  0.7557  0.7340 -1.3046
 1838TIP3    H229710   0.132   4.504  12.350 -1.0830  0.8119 -1.2806
 1839TIP3   OH229711   5.860   0.617  12.765  0.6840 -0.3279  0.3423
 1839TIP3    H129712   5.820   0.672  12.832  1.8343  0.5773  0.3252
 1839TIP3    H229713   5.827   0.652  12.682  1.3601  0.3122  0.3352
 1840TIP3   OH229714   2.192   4.837  12.682 -0.2519 -0.0988 -0.1945
 1840TIP3    H129715   2.251   4.899  12.725 -0.1841 -0.8122  0.7750
 1840TIP3    H229716   2.166   4.777  12.752  0.5458 -1.8238 -1.3305
 1841TIP3   OH229717   1.608   5.562  12.403 -0.1567  0.0392 -0.5354
 1841TIP3    H129718   1.574   5.567  12.314  0.1996  1.2681 -0.6180
 1841TIP3    H229719   1.645   5.474  12.410 -0.7036 -0.2701 -1.4007
 1842TIP3   OH229720   5.417   3.316  11.642  0.0856  0.0032  0.3501
 1842TIP3    H129721   5.359   3.244  11.618 -0.6422  0.2444  1.3195
 1842TIP3    H229722   5.500   3.296  11.598 -0.2613 -1.1658  0.2027
 1843TIP3   OH229723   5.957   4.901  11.004  0.0890 -0.1420  0.4692
 1843TIP3    H129724   5.987   4.816  11.037  0.6213 -0.6540 -1.2059
 1843TIP3    H229725   5.865   4.887  10.982  0.5583 -0.8206 -1.2830
 1844TIP3   OH229726   0.424   1.374  13.168  0.8758  0.0707 -0.3530
 1844TIP3    H129727   0.516   1.384  13.194  0.8573  0.4128 -0.4165
 1844TIP3    H229728   0.428   1.332  13.082  0.9464 -0.7543  0.0485
 1845TIP3   OH229729   2.343   5.368  12.558 -0.6615 -0.3541  0.1421
 1845TIP3    H129730   2.258   5.366  12.514 -0.0652 -1.2528 -1.0264
 1845TIP3    H229731   2.367   5.460  12.559 -2.1098  0.0634  1.4789
 1846TIP3   OH229732   1.599   1.304  10.566 -0.3816  0.2029  0.0560
 1846TIP3    H129733   1.682   1.335  10.603 -0.9649 -0.2284  1.7876
 1846TIP3    H229734   1.533   1.363  10.601 -1.1882 -1.3802  1.3599
 1847TIP3   OH229735   1.638   0.818  11.073 -0.1293  0.3268 -0.3981
 1847TIP3    H129736   1.660   0.725  11.067 -0.7458  0.1748 -0.3700
 1847TIP3    H229737   1.547   0.823  11.042  0.3231  1.1066 -1.7009
 1848TIP3   OH229738   4.195   3.398  12.831 -0.4849  0.5006 -0.0616
 1848TIP3    H129739   4.149   3.474  12.794  0.0647  0.3101 -1.1920
 1848TIP3    H229740   4.287   3.415  12.813 -0.3559 -0.4348 -0.3317
 1849TIP3   OH229741   6.597   2.073  11.101  0.0975  0.0693  0.3988
 1849TIP3    H129742   6.646   2.052  11.181  0.5664 -0.1959  0.0545
 1849TIP3    H229743   6.548   1.993  11.082  1.4221 -0.5637 -0.5849
 1850TIP3   OH229744   2.394   6.680  13.088 -0.0654  0.3505  0.2048
 1850TIP3    H129745   2.458   6.747  13.063  0.8258 -0.7077 -0.4645
 1850TIP3    H229746   2.425   6.601  13.044 -1.7477 -0.2405  0.0457
 1851TIP3   OH229747   3.980   2.146  11.065 -0.1663 -0.1981  0.4871
 1851TIP3    H129748   4.048   2.080  11.048 -1.1801 -0.8918 -1.1067
 1851TIP3    H229749   3.951   2.173  10.978  0.6346  2.8507  1.0588
 1852TIP3   OH229750   1.979   5.704  11.969  0.1071 -0.2947 -0.0233
 1852TIP3    H129751   1.907   5.699  12.032  0.8728 -1.8108  0.7902
 1852TIP3    H229752   1.944   5.756  11.897 -0.7493  1.6588  1.6954
 1853TIP3   OH229753   0.615   2.453  11.272  0.1470  0.4662 -0.2866
 1853TIP3    H129754   0.531   2.409  11.272 -0.2451  1.1360  1.5340
 1853TIP3    H229755   0.672   2.397  11.325 -0.3230  1.9717  1.9504
 1854TIP3   OH229756   2.229   2.461  13.267  0.1867  0.8906  0.1220
 1854TIP3    H129757   2.320   2.449  13.294  0.1876 -1.4417 -0.7310
 1854TIP3    H229758   2.233   2.471  13.172 -0.4823  0.3554  0.0336
 1855TIP3   OH229759   3.473   3.732  11.591  0.6205  0.1744  0.0389
 1855TIP3    H129760   3.480   3.645  11.553 -1.0269 -0.0710  0.2507
 1855TIP3    H229761   3.492   3.720  11.684 -1.1782 -0.2660  0.3769
 1856TIP3   OH229762   2.151   3.089  10.193 -0.2460 -0.2313  0.3261
 1856TIP3    H129763   2.128   3.174  10.157 -0.3818  0.0078  0.9773
 1856TIP3    H229764   2.217   3.054  10.132 -0.3324  0.2478 -0.0445
 1857TIP3   OH229765   1.020   1.486  10.454  0.1623 -0.7764 -0.2272
 1857TIP3    H129766   0.936   1.532  10.449  0.6273  0.4367  2.0385
 1857TIP3    H229767   1.061   1.518  10.534  2.2450 -2.3102 -0.5860
 1858TIP3   OH229768   4.172   6.087  12.100 -0.0435 -0.2226  0.1015
 1858TIP3    H129769   4.206   6.022  12.038 -2.9840 -1.2841 -0.5933
 1858TIP3    H229770   4.151   6.036  12.178 -0.1084  0.3596  0.4704
 1859TIP3   OH229771   3.286   1.234  11.013  0.2951  0.1251  0.3020
 1859TIP3    H129772   3.224   1.304  10.989  1.4228  0.9762 -0.2370
 1859TIP3    H229773   3.323   1.205  10.929  1.0560  0.0562  0.6547
 1860TIP3   OH229774   1.788   4.737  12.963  1.0715 -0.3288  0.2216
 1860TIP3    H129775   1.707   4.692  12.989  0.8736 -0.3969 -0.4668
 1860TIP3    H229776   1.832   4.758  13.045  0.9456 -1.3801  0.5814
 1861TIP3   OH229777   1.667   2.664  10.424 -0.0589  0.0609 -0.6521
 1861TIP3    H129778   1.673   2.672  10.519  2.3447 -4.3757 -0.1394
 1861TIP3    H229779   1.751   2.698  10.392  0.1033 -0.5791 -0.9208
 1862TIP3   OH229780   5.260   1.767   9.844 -0.0873  0.4544 -0.2552
 1862TIP3    H129781   5.268   1.696   9.908 -1.6965 -0.2141 -0.7455
 1862TIP3    H229782   5.256   1.722   9.759  0.2456  1.2159 -0.6821
 1863TIP3   OH229783   1.878   1.119  10.692  0.6299 -0.4897  0.1084
 1863TIP3    H129784   1.812   1.074  10.639  0.2853  0.7128 -0.5305
 1863TIP3    H229785   1.878   1.209  10.658  2.5873 -0.4448  0.1097
 1864TIP3   OH229786   3.521   3.460  11.546  0.2585  0.5938  0.2306
 1864TIP3    H129787   3.562   3.421  11.469  1.4199  1.3712  0.4293
 1864TIP3    H229788   3.593   3.477  11.606 -0.6870 -0.5269  1.7544
 1865TIP3   OH229789   0.501   6.583  10.239 -0.0464  0.1382  0.5906
 1865TIP3    H129790   0.566   6.641  10.198 -1.0626  0.5019 -0.5534
 1865TIP3    H229791   0.536   6.495  10.225  0.9493  0.3816  1.3541
 1866TIP3   OH229792   4.932   2.629  11.837  0.2079 -0.4733 -0.0935
 1866TIP3    H129793   5.002   2.657  11.778 -0.1960  0.2616 -0.2361
 1866TIP3    H229794   4.857   2.615  11.779 -0.8743  2.4924  0.4233
 1867TIP3   OH229795   2.988   0.423  12.997  0.0748  0.1489  0.2450
 1867TIP3    H129796   2.981   0.481  12.921  1.1404 -0.4685 -0.3546
 1867TIP3    H229797   3.041   0.350  12.966 -1.2872 -1.1952  0.9607
 1868TIP3   OH229798   0.582   2.096  11.573 -0.4363  0.5564 -0.2131
 1868TIP3    H129799   0.567   2.136  11.659  1.7131  0.8509  0.0590
 1868TIP3    H229800   0.542   2.157  11.511  1.7622  2.6117  0.2757
 1869TIP3   OH229801   0.478   1.694  12.946 -0.2827 -0.0189  0.2943
 1869TIP3    H129802   0.531   1.767  12.978  1.6509 -0.4338 -1.7034
 1869TIP3    H229803   0.409   1.684  13.012  1.0959  1.7012  2.1375
 1870TIP3   OH229804   3.978   0.077  11.691  0.0543  0.1288 -0.4434
 1870TIP3    H129805   4.033   0.115  11.623 -0.4139 -0.3019 -1.0664
 1870TIP3    H229806   3.893   0.121  11.681  0.1715  0.5341  0.2830
 1871TIP3   OH229807   2.988   6.344  12.893 -0.4320  0.6526  0.1762
 1871TIP3    H129808   3.016   6.378  12.978  3.6044  2.3078 -1.5374
 1871TIP3    H229809   3.020   6.254  12.891  0.5231  0.9793  0.0620
 1872TIP3   OH229810   5.228   3.835  11.260  0.5377 -0.0655 -0.2588
 1872TIP3    H129811   5.296   3.871  11.316  0.2067  0.1425  0.0096
 1872TIP3    H229812   5.166   3.793  11.320  0.6697 -0.6691 -0.5315
 1873TIP3   OH229813   2.612   0.395   9.721 -0.6915 -0.2538 -0.2798
 1873TIP3    H129814   2.607   0.316   9.775  1.2717  0.2365  0.7450
 1873TIP3    H229815   2.611   0.467   9.785  2.1884  0.3306 -0.7606
 1874TIP3   OH229816   1.139   0.357  10.747  0.0447 -0.3343  0.0416
 1874TIP3    H129817   1.085   0.394  10.677  0.0291  2.0271  1.2121
 1874TIP3    H229818   1.223   0.403  10.740  0.2185 -0.4305  1.2406
 1875TIP3   OH229819   2.130   3.904  10.763  0.6008  0.1640 -0.0579
 1875TIP3    H129820   2.186   3.930  10.690 -2.5353  2.4439 -1.8733
 1875TIP3    H229821   2.110   3.986  10.808 -1.0348 -0.5937  0.6639
 1876TIP3   OH229822   3.085   6.081  10.544 -0.0567 -0.2454  0.2530
 1876TIP3    H129823   3.118   6.055  10.631  0.5788  1.6580  0.6193
 1876TIP3    H229824   3.050   6.169  10.557  1.9063  0.9515 -1.8297
 1877TIP3   OH229825   2.636   3.266   9.574  0.1755  0.6061 -0.0980
 1877TIP3    H129826   2.729   3.270   9.598 -0.2358  0.5040  1.6567
 1877TIP3    H229827   2.604   3.355   9.587 -0.4969  0.1336  1.7318
 1878TIP3   OH229828   4.782   1.585  10.645 -0.3150  0.4675  0.4685
 1878TIP3    H129829   4.693   1.567  10.675 -0.0654  0.8346  1.4746
 1878TIP3    H229830   4.819   1.642  10.712  1.1362 -0.7767  0.7910
 1879TIP3   OH229831   4.083   5.575  12.500 -0.5813  0.7122 -0.0018
 1879TIP3    H129832   4.044   5.508  12.444  0.1610  1.0111 -0.9044
 1879TIP3    H229833   4.016   5.643  12.506 -0.6251  0.7289 -0.6330
 1880TIP3   OH229834   5.766   0.194  11.195 -0.1768 -0.4166 -0.2063
 1880TIP3    H129835   5.695   0.220  11.136  1.7701  0.0073 -2.5304
 1880TIP3    H229836   5.778   0.270  11.252 -0.4206  0.2170 -0.9761
 1881TIP3   OH229837   0.212   0.998  12.762  0.0392 -0.0929  0.2908
 1881TIP3    H129838   0.218   0.914  12.807 -1.9971  0.0227  0.8813
 1881TIP3    H229839   0.141   0.986  12.698 -0.4606  1.2474  0.5687
 1882TIP3   OH229840   2.851   1.301  13.016  0.2751  0.0338  0.7305
 1882TIP3    H129841   2.822   1.354  13.091  1.0366 -1.4421  2.1201
 1882TIP3    H229842   2.770   1.274  12.974 -0.1738  0.8074  1.0693
 1883TIP3   OH229843   4.115   5.204  11.641 -0.1654 -0.9576  0.6456
 1883TIP3    H129844   4.040   5.257  11.616  1.9906  1.4032 -1.3980
 1883TIP3    H229845   4.160   5.256  11.708  0.9663 -1.0608 -0.0070
 1884TIP3   OH229846   6.038   2.361  10.669 -0.2887 -0.6271 -0.3045
 1884TIP3    H129847   6.131   2.365  10.648  0.0090 -0.5477  0.9595
 1884TIP3    H229848   6.004   2.445  10.640 -0.0832 -0.8394 -1.2155
 1885TIP3   OH229849   6.238   2.344  13.203  0.4931  0.4162 -0.2656
 1885TIP3    H129850   6.271   2.350  13.293  1.7034 -0.1932 -0.6431
 1885TIP3    H229851   6.186   2.263  13.202  0.8562  0.1785 -0.2179
 1886TIP3   OH229852   4.461   0.757  11.375  0.1335 -0.0656 -0.1536
 1886TIP3    H129853   4.544   0.766  11.328  0.1857  0.0944 -0.0325
 1886TIP3    H229854   4.430   0.847  11.388  0.0326 -0.1152 -0.0391
 1887TIP3   OH229855   2.622   0.445  11.626  0.1339 -0.1773 -0.2919
 1887TIP3    H129856   2.711   0.451  11.659  0.8039  1.6267 -2.1852
 1887TIP3    H229857   2.603   0.351  11.625  1.5226 -0.5214  1.2693
 1888TIP3   OH229858   0.092   6.721  11.008  0.4160  0.0809  0.4266
 1888TIP3    H129859   0.053   6.646  10.963  0.5194 -0.2001  0.7982
 1888TIP3    H229860   0.161   6.751  10.948  1.1866 -0.8769  0.7923
 1889TIP3   OH229861   3.692   0.121  11.991  0.0761  0.1228 -0.4577
 1889TIP3    H129862   3.609   0.166  11.976  0.4381  1.0334  0.2143
 1889TIP3    H229863   3.670   0.028  11.983 -1.0454  0.3434 -0.0970
 1890TIP3   OH229864   4.687   2.606  11.742  0.1506 -0.4121 -0.6678
 1890TIP3    H129865   4.654   2.695  11.737  0.7141 -0.1735 -0.2422
 1890TIP3    H229866   4.647   2.570  11.821  2.6624  0.6481  1.2148
 1891TIP3   OH229867   3.432   0.635  11.977  0.1379  0.0016 -0.1592
 1891TIP3    H129868   3.368   0.614  11.908 -0.1115  0.8346 -0.1878
 1891TIP3    H229869   3.394   0.597  12.056 -0.3110  0.3452 -0.2088
 1892TIP3   OH229870   0.151   3.232  11.346 -0.3807  0.0973  0.4130
 1892TIP3    H129871   0.209   3.306  11.366 -0.7360  0.5008 -0.0451
 1892TIP3    H229872   0.170   3.211  11.254 -1.3155  0.5574  0.1065
 1893TIP3   OH229873   3.847   5.050  11.053 -0.4786  0.0058  0.4414
 1893TIP3    H129874   3.891   5.027  11.134 -0.7329  0.9211  0.8500
 1893TIP3    H229875   3.905   5.016  10.984  0.8841  1.1550  0.9639
 1894TIP3   OH229876   6.569   3.673  12.318  0.4360 -0.9738  0.0923
 1894TIP3    H129877   6.658   3.641  12.301  0.9216  0.0481  0.6565
 1894TIP3    H229878   6.581   3.762  12.350 -0.9131  0.0256 -1.9744
 1895TIP3   OH229879   1.790   1.480  11.854 -0.1832 -0.6539  0.0858
 1895TIP3    H129880   1.741   1.542  11.801  0.7025  0.5785  0.6532
 1895TIP3    H229881   1.725   1.418  11.886 -1.0016 -0.3418 -0.9440
 1896TIP3   OH229882   5.043   1.332  11.300 -0.7805  0.5774 -0.1514
 1896TIP3    H129883   5.117   1.271  11.298 -0.3944  1.0392 -0.1526
 1896TIP3    H229884   5.056   1.387  11.223  0.3728  2.3986  1.2787
 1897TIP3   OH229885   4.483   0.630  12.132  0.0917  0.0694  0.0826
 1897TIP3    H129886   4.563   0.609  12.084 -1.2601 -1.5205 -1.6010
 1897TIP3    H229887   4.422   0.662  12.065 -1.6363 -1.5252  0.8060
 1898TIP3   OH229888   3.922   6.175  11.949  0.0100 -0.3463  0.0649
 1898TIP3    H129889   3.864   6.233  11.999  0.6057  1.5660 -1.3119
 1898TIP3    H229890   4.009   6.192  11.985 -0.0377 -2.0861  1.1145
 1899TIP3   OH229891   3.300   2.072  12.284 -0.3741  0.4539 -0.6282
 1899TIP3    H129892   3.374   2.026  12.322 -0.2065  3.7196  3.7671
 1899TIP3    H229893   3.225   2.013  12.297  0.6178 -0.7707 -0.2948
 1900TIP3   OH229894   2.110   4.800  11.607  0.1000 -0.1342 -0.4900
 1900TIP3    H129895   2.029   4.848  11.590 -0.0067 -0.3688 -0.6458
 1900TIP3    H229896   2.177   4.846  11.557 -0.2900 -1.0906 -1.9353
 1901TIP3   OH229897   3.064   2.877  13.071  0.3350 -0.4791  0.0602
 1901TIP3    H129898   2.973   2.903  13.087  0.2404 -0.8842  0.1696
 1901TIP3    H229899   3.109   2.894  13.154  0.7144  1.2494 -0.4628
 1902TIP3   OH229900   6.367   4.449  10.871 -0.0357 -0.1978  0.6433
 1902TIP3    H129901   6.314   4.406  10.937 -0.2010 -0.3148  0.4371
 1902TIP3    H229902   6.434   4.497  10.920  1.1208 -1.9196  0.8495
 1903TIP3   OH229903   2.309   2.552  10.193 -0.3352 -0.1995  0.2991
 1903TIP3    H129904   2.366   2.537  10.118  0.1265  1.0001  0.3949
 1903TIP3    H229905   2.223   2.519  10.165  0.3829 -2.1550  0.2140
 1904TIP3   OH229906   6.327   2.058  10.848 -0.0994  0.4542 -0.1272
 1904TIP3    H129907   6.326   2.128  10.914  0.9317 -0.3733  0.8260
 1904TIP3    H229908   6.335   2.103  10.765 -2.0326  1.5701  0.2297
 1905TIP3   OH229909   3.011   2.194  11.629 -0.4754 -0.7883  0.0082
 1905TIP3    H129910   2.929   2.157  11.660  0.1135 -2.0847  0.0772
 1905TIP3    H229911   3.073   2.177  11.699  0.0077 -0.4221 -0.3255
 1906TIP3   OH229912   0.616   4.895  12.537  0.4071 -0.1296 -0.0069
 1906TIP3    H129913   0.593   4.960  12.603  0.5601 -1.2874  1.2240
 1906TIP3    H229914   0.562   4.918  12.461  0.4579  1.4112  0.3875
 1907TIP3   OH229915   5.612   1.060  10.143  0.5165 -0.1115 -0.7048
 1907TIP3    H129916   5.560   1.090  10.069  1.0550 -0.8733 -1.4091
 1907TIP3    H229917   5.611   0.965  10.136  2.2217 -0.1503 -0.9142
 1908TIP3   OH229918   4.982   0.871  12.645 -0.1910  0.3974 -0.1498
 1908TIP3    H129919   4.938   0.860  12.729  0.6978  0.6839  0.3733
 1908TIP3    H229920   5.072   0.844  12.661  0.0947  0.8539 -0.8957
 1909TIP3   OH229921   2.857   3.437  11.111  0.2613  0.4161 -0.1109
 1909TIP3    H129922   2.765   3.413  11.123 -0.2415  2.5192  0.6173
 1909TIP3    H229923   2.856   3.531  11.092  2.1399  0.1261 -2.1272
 1910TIP3   OH229924   1.503   0.038   9.821 -0.2299  0.0288  0.5019
 1910TIP3    H129925   1.507   0.033   9.917  0.6440 -1.3093  0.4235
 1910TIP3    H229926   1.587   0.078   9.797  0.6965 -1.9596  0.2079
 1911TIP3   OH229927   0.365   2.319  12.865  0.2926 -0.1896 -0.1961
 1911TIP3    H129928   0.373   2.413  12.879  1.4833 -0.0283 -1.7089
 1911TIP3    H229929   0.324   2.311  12.779  2.8127 -0.9847 -1.4076
 1912TIP3   OH229930   5.097   1.905  12.782  0.1434 -0.5158  0.5730
 1912TIP3    H129931   5.018   1.959  12.784  1.0773  0.8866  1.4060
 1912TIP3    H229932   5.150   1.938  12.855  0.6363 -2.7841  1.3145
 1913TIP3   OH229933   3.368   4.763  11.245  0.0505 -0.6473  0.5930
 1913TIP3    H129934   3.371   4.747  11.339  1.1203  0.8232  0.8549
 1913TIP3    H229935   3.450   4.809  11.226 -0.1810 -0.8458 -1.0481
 1914TIP3   OH229936   1.759   5.733  10.887 -0.7890 -0.5689 -0.4403
 1914TIP3    H129937   1.765   5.825  10.912 -0.0395 -0.6736 -0.1956
 1914TIP3    H229938   1.779   5.732  10.794  0.8770 -0.6432 -0.1164
 1915TIP3   OH229939   5.356   3.827  12.561 -0.0427  0.1432 -0.6366
 1915TIP3    H129940   5.334   3.907  12.610  0.2586 -0.0839 -0.1236
 1915TIP3    H229941   5.442   3.801  12.596 -1.0980 -1.6344  0.7954
 1916TIP3   OH229942   1.029   2.762  13.019  0.2744  0.0469 -0.6038
 1916TIP3    H129943   1.068   2.845  12.993  1.6064  0.1547  1.5384
 1916TIP3    H229944   0.957   2.786  13.077  1.2116 -0.2748  0.7272
 1917TIP3   OH229945   2.105   2.295  12.159  0.1054  0.1339  0.6309
 1917TIP3    H129946   2.063   2.373  12.194 -0.1491  0.6209 -0.6838
 1917TIP3    H229947   2.041   2.225  12.170  0.5752 -0.0501  2.3900
 1918TIP3   OH229948   4.542   0.375  10.130  0.0470 -0.2329  0.1108
 1918TIP3    H129949   4.631   0.396  10.102  1.6757 -0.9052  4.1518
 1918TIP3    H229950   4.553   0.316  10.204 -3.8298 -0.7137  0.5158
 1919TIP3   OH229951   2.640   3.400  12.010  0.8414 -0.0944  0.3392
 1919TIP3    H129952   2.677   3.371  11.927 -1.0804 -0.5626 -0.3917
 1919TIP3    H229953   2.617   3.492  11.996  0.6734 -0.1252  0.4043
 1920TIP3   OH229954   4.096   3.895  12.684  0.1982  0.2866 -0.2129
 1920TIP3    H129955   4.141   3.967  12.639 -0.5698  0.1095 -1.3112
 1920TIP3    H229956   4.029   3.937  12.737  1.4437  0.5335  1.2214
 1921TIP3   OH229957   1.770   0.584  12.663 -0.6296 -0.3800  0.2648
 1921TIP3    H129958   1.833   0.641  12.708 -1.2463  0.2402  0.3505
 1921TIP3    H229959   1.786   0.599  12.570 -1.5928  0.8550  0.2760
 1922TIP3   OH229960   0.623   2.414  11.981 -0.6037 -0.2592  0.0097
 1922TIP3    H129961   0.603   2.506  11.967 -1.7795 -0.3005  1.2561
 1922TIP3    H229962   0.539   2.373  12.000  0.1574 -1.1395  1.7497
 1923TIP3   OH229963   3.925   2.049  11.906  0.0961  0.0506  0.2608
 1923TIP3    H129964   4.008   2.096  11.904  0.0436  0.1507  0.4263
 1923TIP3    H229965   3.948   1.957  11.892  0.2061  0.1146  0.0118
 1924TIP3   OH229966   4.717   0.975  11.600  0.9178 -0.4127 -0.3511
 1924TIP3    H129967   4.751   1.058  11.568  0.6096 -0.8787 -1.9970
 1924TIP3    H229968   4.783   0.911  11.576  0.3659 -0.8719 -0.6704
 1925TIP3   OH229969   0.660   5.921   9.825  0.7074  0.0582 -0.0069
 1925TIP3    H129970   0.674   5.831   9.795  0.3740 -0.3745  1.0745
 1925TIP3    H229971   0.620   5.911   9.911  0.5219  1.2528  0.0587
 1926TIP3   OH229972   0.375   3.725  10.638 -0.2258  0.2413 -0.1103
 1926TIP3    H129973   0.427   3.646  10.622  1.0575  1.0174  0.0449
 1926TIP3    H229974   0.326   3.705  10.718 -1.0772 -0.9412 -0.9044
 1927TIP3   OH229975   3.443   4.993  12.732  0.1090 -0.2227 -0.0654
 1927TIP3    H129976   3.490   4.950  12.661  1.0443 -1.1151  1.0666
 1927TIP3    H229977   3.487   5.077  12.744  0.1852 -0.2316 -0.2910
 1928TIP3   OH229978   6.548   2.910  12.787  0.5716 -0.0215 -0.0543
 1928TIP3    H129979   6.630   2.870  12.818 -0.5578 -0.5399  2.4949
 1928TIP3    H229980   6.480   2.849  12.815 -0.7596  0.6632 -1.6626
 1929TIP3   OH229981   2.072   5.750   9.736  0.2011 -0.0194  0.0151
 1929TIP3    H129982   2.083   5.657   9.755  0.6939  0.0636  0.1549
 1929TIP3    H229983   1.992   5.775   9.782  1.0413  0.0398  1.5070
 1930TIP3   OH229984   4.603   1.793  12.994  0.0579  1.0379 -0.4592
 1930TIP3    H129985   4.600   1.827  12.905  0.6449  1.0064 -0.4956
 1930TIP3    H229986   4.613   1.870  13.049  1.4861  0.9499 -0.5463
 1931TIP3   OH229987   3.121   2.968  11.075 -0.1154 -0.3963 -0.0311
 1931TIP3    H129988   3.101   3.055  11.039 -1.5592 -0.5877  0.2313
 1931TIP3    H229989   3.071   2.964  11.156  0.1769 -1.3721  0.1147
 1932TIP3   OH229990   5.496   2.012  12.722  0.0946  0.3552 -0.5840
 1932TIP3    H129991   5.404   2.003  12.697  0.1468  1.0540 -1.0543
 1932TIP3    H229992   5.543   2.019  12.639  0.6479 -0.6067 -0.3656
 1933TIP3   OH229993   4.944   0.458  13.021  1.1028  0.6659 -0.1624
 1933TIP3    H129994   4.994   0.461  13.103 -0.1432  1.1590  0.6037
 1933TIP3    H229995   4.886   0.383  13.032 -0.2013  1.6758  0.1201
 1934TIP3   OH229996   6.271   1.969  10.466 -0.7075 -0.0484 -0.2240
 1934TIP3    H129997   6.181   1.980  10.495 -0.3473  0.4864  0.7211
 1934TIP3    H229998   6.323   2.019  10.529  0.3732 -1.4358  0.0228
 1935TIP3   OH229999   4.235   2.168  10.739  0.4798 -0.0758  0.0325
 1935TIP3    H130000   4.291   2.154  10.815  1.7986 -0.4768 -0.9623
 1935TIP3    H230001   4.193   2.084  10.723  1.2723 -0.3915 -0.4730
 1936TIP3   OH230002   4.193   5.318  11.244 -0.0824 -0.3098  0.4751
 1936TIP3    H130003   4.099   5.301  11.241 -0.1355  0.1273 -1.1199
 1936TIP3    H230004   4.232   5.235  11.269 -0.8280 -0.8175 -0.0163
 1937TIP3   OH230005   0.558   3.948  12.694 -0.5801 -0.3842  0.1134
 1937TIP3    H130006   0.646   3.935  12.658 -0.4688 -0.0809  0.2768
 1937TIP3    H230007   0.549   4.043  12.701 -0.2583 -0.4560  1.7496
 1938TIP3   OH230008   3.736   0.525  12.617  0.0652 -0.2069  0.6700
 1938TIP3    H130009   3.821   0.526  12.662  0.0300 -1.4818  0.8217
 1938TIP3    H230010   3.684   0.462  12.667 -0.0989 -1.3904 -0.9201
 1939TIP3   OH230011   1.710   5.812  10.149  0.1581 -0.3705  0.1864
 1939TIP3    H130012   1.650   5.882  10.175  0.9076 -0.1556  1.4586
 1939TIP3    H230013   1.715   5.755  10.226  3.8142  1.1968  1.3565
 1940TIP3   OH230014   3.063   2.018  10.827 -0.0960  0.3572  0.0896
 1940TIP3    H130015   3.044   2.072  10.904  0.2850  0.4843  0.0975
 1940TIP3    H230016   3.083   2.081  10.758  1.4877  0.2292  0.3957
 1941TIP3   OH230017   2.943   1.555  11.485 -0.2878 -0.0313 -0.1595
 1941TIP3    H130018   2.924   1.482  11.426  1.0958 -0.1536 -0.4970
 1941TIP3    H230019   2.967   1.513  11.568 -0.3245  0.0673 -0.0991
 1942TIP3   OH230020   1.161   4.337  11.017  0.0908 -1.0288 -0.0437
 1942TIP3    H130021   1.078   4.374  10.987  0.9678  1.9288  0.8189
 1942TIP3    H230022   1.226   4.368  10.953  0.8733 -1.1328  0.6808
 1943TIP3   OH230023   6.371   4.142  11.588 -0.4250 -0.1338 -0.1358
 1943TIP3    H130024   6.377   4.152  11.493 -1.7181  1.7159 -0.0933
 1943TIP3    H230025   6.278   4.123  11.604 -0.0700 -1.2807  0.7226
 1944TIP3   OH230026   1.840   3.843  12.125 -0.3966 -0.9865  0.4052
 1944TIP3    H130027   1.849   3.777  12.056 -3.1787 -0.6079 -0.4789
 1944TIP3    H230028   1.820   3.793  12.204  2.2672 -1.3879  0.9237
 1945TIP3   OH230029   2.599   1.398  12.267 -0.5091  0.2688 -0.2420
 1945TIP3    H130030   2.640   1.464  12.323 -2.7934  0.7659  0.9447
 1945TIP3    H230031   2.518   1.439  12.237 -0.7585 -1.0938 -1.5489
 1946TIP3   OH230032   6.649   6.601  12.993  0.1779 -0.0244  0.1864
 1946TIP3    H130033   6.577   6.544  13.018  2.0609 -3.0381 -0.7769
 1946TIP3    H230034   6.663   6.583  12.900  1.9874  0.6493  0.2911
 1947TIP3   OH230035   0.284   5.844  11.506 -0.3379 -0.3203 -0.3956
 1947TIP3    H130036   0.193   5.866  11.523  0.2217  0.7804  1.4761
 1947TIP3    H230037   0.300   5.872  11.416 -2.1191 -1.6049 -1.1702
 1948TIP3   OH230038   6.389   6.047  12.020  0.2290  0.4288 -0.0995
 1948TIP3    H130039   6.452   6.119  12.029 -1.0261  1.6400 -0.5731
 1948TIP3    H230040   6.306   6.085  12.047 -0.4110 -0.9711 -0.0199
 1949TIP3   OH230041   4.634   2.524  10.181  0.0311  0.4325 -0.4542
 1949TIP3    H130042   4.709   2.476  10.216  0.5305  1.4718 -0.0603
 1949TIP3    H230043   4.628   2.494  10.090  0.5573 -0.1017 -0.3232
 1950TIP3   OH230044   6.026   4.803  10.724  0.0420 -0.1284  0.6047
 1950TIP3    H130045   5.952   4.792  10.783  0.6706 -0.7235  1.3113
 1950TIP3    H230046   6.074   4.879  10.758  0.9362 -1.0543  1.4628
 1951TIP3   OH230047   2.965   2.178  10.266  0.3320  0.1429 -0.6051
 1951TIP3    H130048   2.963   2.248  10.331  0.7999  0.5517 -1.0183
 1951TIP3    H230049   2.965   2.098  10.318 -1.0860  0.4165 -0.1461
 1952TIP3   OH230050   2.078   5.042  11.301  0.4206 -0.1939  0.5044
 1952TIP3    H130051   2.172   5.037  11.318  0.1454 -2.0159  1.8044
 1952TIP3    H230052   2.038   5.018  11.384 -1.2563  1.7203  0.3295
 1953TIP3   OH230053   2.679   5.768  12.542 -0.7202 -0.5440  0.1595
 1953TIP3    H130054   2.656   5.740  12.453 -0.5086  0.5262 -0.2510
 1953TIP3    H230055   2.639   5.854  12.551 -0.2678 -0.4046  0.8964
 1954TIP3   OH230056   3.127   1.742  12.701 -0.3538 -0.2466  0.5854
 1954TIP3    H130057   3.059   1.714  12.763  0.0120 -1.3914  0.4950
 1954TIP3    H230058   3.109   1.692  12.622 -0.6051  0.9581 -0.1337
 1955TIP3   OH230059   0.953   5.951  11.326 -0.6017  0.3936  0.7152
 1955TIP3    H130060   0.943   5.892  11.401  0.6242 -0.9174 -0.0953
 1955TIP3    H230061   0.885   5.923  11.264 -0.3247  0.1377  0.5249
 1956TIP3   OH230062   2.737   4.957  10.931 -0.0404  0.2851 -0.2276
 1956TIP3    H130063   2.698   4.872  10.948 -0.1917  0.2487 -0.7278
 1956TIP3    H230064   2.663   5.017  10.921  0.0803  0.6956  1.1677
 1957TIP3   OH230065   3.919   3.307  10.315 -0.0710 -0.0948 -0.3731
 1957TIP3    H130066   3.976   3.338  10.245 -0.6004 -0.9813 -1.2281
 1957TIP3    H230067   3.964   3.230  10.351 -1.2935 -1.6601 -1.9829
 1958TIP3   OH230068   1.363   0.366  12.295  0.1506  0.6343 -0.4694
 1958TIP3    H130069   1.409   0.343  12.214  1.4742  0.2703  0.3486
 1958TIP3    H230070   1.384   0.458  12.309 -2.9597  1.7511 -2.3329
 1959TIP3   OH230071   2.736   1.819  13.116 -0.3455  0.6361 -0.4192
 1959TIP3    H130072   2.703   1.736  13.080 -0.0231 -0.4474  1.6086
 1959TIP3    H230073   2.667   1.882  13.100 -1.7042 -0.6377  0.1844
 1960TIP3   OH230074   2.372   6.201   9.995  0.0091  1.3083 -0.2400
 1960TIP3    H130075   2.306   6.252   9.949  0.0243  1.9721  0.4629
 1960TIP3    H230076   2.439   6.264  10.020 -0.0001  0.9692  0.6902
 1961TIP3   OH230077   0.576   6.586  10.547 -0.2150  0.0297 -0.3361
 1961TIP3    H130078   0.488   6.564  10.519  0.0950 -1.2206 -0.4111
 1961TIP3    H230079   0.566   6.610  10.640 -0.5021 -1.1692 -0.0372
 1962TIP3   OH230080   0.778   1.608  12.125 -0.6478 -0.1623 -0.3232
 1962TIP3    H130081   0.816   1.668  12.189 -0.0730 -0.5891 -0.2506
 1962TIP3    H230082   0.710   1.561  12.173  1.3418 -2.1856  0.7355
 1963TIP3   OH230083   2.565   3.776   9.700 -0.5413  0.6789 -0.0768
 1963TIP3    H130084   2.527   3.863   9.712 -1.7395  0.3938 -1.4568
 1963TIP3    H230085   2.564   3.762   9.605  1.8858  0.1141 -0.0813
 1964TIP3   OH230086   4.660   4.246  12.618 -0.1374  0.5117 -0.3486
 1964TIP3    H130087   4.609   4.270  12.696 -0.1655  1.5269 -0.6747
 1964TIP3    H230088   4.594   4.218  12.555 -0.2238  1.0156 -0.4813
 1965TIP3   OH230089   2.214   2.712  12.101 -0.0583  0.1301  0.3332
 1965TIP3    H130090   2.146   2.652  12.132  0.2173 -0.6957 -0.6258
 1965TIP3    H230091   2.296   2.665  12.115  0.1187  0.0076 -1.0038
 1966TIP3   OH230092   5.730   1.087  10.376 -0.4708  0.1006 -0.7065
 1966TIP3    H130093   5.702   1.005  10.416 -0.2100  0.8462  1.0922
 1966TIP3    H230094   5.705   1.078  10.284 -3.0585 -0.8303  0.0063
 1967TIP3   OH230095   6.778   3.873  12.374 -0.0217  0.0951  0.3282
 1967TIP3    H130096   6.788   3.917  12.290 -0.0529  0.1280  0.3417
 1967TIP3    H230097   6.856   3.819  12.382  0.1576  0.3668  0.4421
 1968TIP3   OH230098   6.493   5.635  11.867  0.3755  0.2161 -0.5822
 1968TIP3    H130099   6.509   5.546  11.896 -1.4055  0.4907  1.5418
 1968TIP3    H230100   6.507   5.633  11.773  0.7502 -2.2025 -0.5341
 1969TIP3   OH230101   3.535   4.256  11.915  0.3113  0.2504  0.3901
 1969TIP3    H130102   3.538   4.203  11.994  0.8020 -0.1909  0.0843
 1969TIP3    H230103   3.558   4.195  11.845  1.2338  0.9361  0.0750
 1970TIP3   OH230104   0.017   6.539  12.247 -0.2711  0.1102 -0.4019
 1970TIP3    H130105   0.103   6.549  12.205 -0.8010  1.3288 -1.2394
 1970TIP3    H230106   0.016   6.607  12.315 -0.2384 -0.4975  0.2229
 1971TIP3   OH230107   4.550   5.360  12.912 -0.0680  0.4825  0.3723
 1971TIP3    H130108   4.545   5.405  12.828  0.6678  0.2818  0.2137
 1971TIP3    H230109   4.464   5.320  12.923 -1.0916  2.7081  0.9678
 1972TIP3   OH230110   6.747   5.249  11.055  0.3417  0.8733 -0.1322
 1972TIP3    H130111   6.677   5.264  11.118 -2.2812  0.4116 -2.7252
 1972TIP3    H230112   6.779   5.161  11.074 -0.9973  0.4116  0.0944
 1973TIP3   OH230113   6.665   0.047  13.278 -0.5179 -0.2105  0.0219
 1973TIP3    H130114   6.576   0.015  13.291 -1.3563  1.8561 -0.3418
 1973TIP3    H230115   6.658   0.142  13.287  1.2529  0.1970 -2.1481
 1974TIP3   OH230116   2.460   0.661  10.822 -0.4460 -0.3196 -0.2613
 1974TIP3    H130117   2.545   0.634  10.787 -1.1132 -2.0747 -0.6422
 1974TIP3    H230118   2.419   0.711  10.751  0.5614  1.2895  0.2297
 1975TIP3   OH230119   6.707   0.836  10.191 -0.0624 -0.1554 -1.0382
 1975TIP3    H130120   6.783   0.888  10.166 -0.4584  1.4070  0.7912
 1975TIP3    H230121   6.633   0.898  10.187 -0.6671 -0.7419  0.4741
 1976TIP3   OH230122   1.611   0.952  12.582 -0.2695  0.2431 -0.3239
 1976TIP3    H130123   1.655   0.964  12.667 -1.3032  0.4354  0.2015
 1976TIP3    H230124   1.632   1.031  12.533 -0.1935  0.4221 -0.0047
 1977TIP3   OH230125   0.960   3.478  11.643 -0.0810 -0.2217  0.0601
 1977TIP3    H130126   0.936   3.570  11.656 -0.6665 -0.1047 -1.5565
 1977TIP3    H230127   1.055   3.478  11.646 -0.0925  0.0407  2.2250
 1978TIP3   OH230128   4.629   2.875  11.229 -0.3703 -0.2112  0.3075
 1978TIP3    H130129   4.638   2.970  11.220 -0.3822 -0.2648 -0.3348
 1978TIP3    H230130   4.661   2.857  11.317 -1.7032  0.5507  0.9723
 1979TIP3   OH230131   5.086   5.831  11.055 -0.1418  0.1227 -0.1713
 1979TIP3    H130132   5.093   5.830  10.959 -0.9980 -1.1082 -0.2496
 1979TIP3    H230133   5.103   5.922  11.080  1.7199  0.1607 -1.3476
 1980TIP3   OH230134   3.382   5.549  13.091  0.6234  0.1077 -0.1929
 1980TIP3    H130135   3.448   5.480  13.094 -0.6891 -1.1391  0.8850
 1980TIP3    H230136   3.300   5.504  13.075 -0.2963  1.3830  0.7310
 1981TIP3   OH230137   1.198   3.283  11.408  0.0819  0.4313 -0.8510
 1981TIP3    H130138   1.147   3.347  11.358 -1.5219 -0.7162 -0.7390
 1981TIP3    H230139   1.214   3.326  11.492  0.6642  1.3959 -1.4286
 1982TIP3   OH230140   6.579   3.355  10.913  0.5746  0.3578 -0.1822
 1982TIP3    H130141   6.649   3.411  10.947  2.1467 -0.7536 -1.4104
 1982TIP3    H230142   6.585   3.275  10.964 -1.5007  1.1009  1.3915
 1983TIP3   OH230143   5.558   1.256  11.078 -0.1840  0.1081  0.5854
 1983TIP3    H130144   5.614   1.222  11.148 -0.4448 -0.1167  0.6862
 1983TIP3    H230145   5.489   1.190  11.068 -0.5023  0.4431  0.5465
 1984TIP3   OH230146   3.102   0.924  12.835 -0.8433 -0.0758  0.1473
 1984TIP3    H130147   3.158   0.957  12.905 -3.0003 -0.2562  2.0864
 1984TIP3    H230148   3.156   0.929  12.756  1.1248  1.7409  1.5059
 1985TIP3   OH230149   1.579   5.601  11.856 -0.2764  0.2297  0.0206
 1985TIP3    H130150   1.602   5.517  11.817  0.4393 -0.8116  2.5236
 1985TIP3    H230151   1.483   5.603  11.852 -0.3104 -0.7379 -0.0092
 1986TIP3   OH230152   0.101   4.229  10.187 -0.4561  0.2248  0.0930
 1986TIP3    H130153   0.175   4.280  10.220  1.6852 -2.3882 -0.4206
 1986TIP3    H230154   0.024   4.278  10.217  1.4064  1.9610  2.4248
 1987TIP3   OH230155   5.250   0.795  12.666  0.0506  0.1041 -0.2241
 1987TIP3    H130156   5.304   0.837  12.599  1.7902 -0.5029  0.7509
 1987TIP3    H230157   5.270   0.702  12.658 -0.5579 -0.0877  0.4329
 1988TIP3   OH230158   3.493   5.034  11.891  0.1239  0.0219 -0.2442
 1988TIP3    H130159   3.496   5.128  11.872  1.6532  0.2418  0.8322
 1988TIP3    H230160   3.490   5.030  11.987  1.7633 -0.9972 -0.1972
 1989TIP3   OH230161   6.558   2.908  11.840 -0.4512 -0.0558 -0.7283
 1989TIP3    H130162   6.574   3.002  11.849  0.8930 -0.3982  1.3223
 1989TIP3    H230163   6.469   2.902  11.807 -1.8535  1.9896  2.1864
 1990TIP3   OH230164   3.858   3.539  11.307 -0.0040 -0.2903 -0.2860
 1990TIP3    H130165   3.777   3.503  11.273 -0.2339  0.6785 -0.8022
 1990TIP3    H230166   3.923   3.523  11.238  0.3690 -1.4679  0.3119
 1991TIP3   OH230167   4.307   5.889  11.996  0.1900 -0.7317 -0.0502
 1991TIP3    H130168   4.255   5.812  12.019 -0.4684 -0.3806 -0.3411
 1991TIP3    H230169   4.360   5.861  11.922  0.1242 -0.9798 -0.0046
 1992TIP3   OH230170   6.395   5.960  11.738 -0.6278  0.0558  0.0404
 1992TIP3    H130171   6.303   5.957  11.764  0.0532  1.1489  3.0362
 1992TIP3    H230172   6.443   5.939  11.818  1.7537  1.6429 -0.8525
 1993TIP3   OH230173   4.384   3.189  13.039  0.2212  0.7304 -0.0770
 1993TIP3    H130174   4.470   3.159  13.069 -0.4385 -2.9958 -1.2888
 1993TIP3    H230175   4.403   3.245  12.963  1.7107 -2.0943 -1.9769
 1994TIP3   OH230176   3.716   4.334  10.765 -0.0830  0.0240 -0.2127
 1994TIP3    H130177   3.753   4.265  10.711  0.1423  0.0415 -0.0797
 1994TIP3    H230178   3.651   4.376  10.708  0.2772  0.1586 -0.5304
 1995TIP3   OH230179   4.166   3.885  11.659  0.5571  0.0393  0.2186
 1995TIP3    H130180   4.094   3.882  11.596  0.6948  1.0753  0.0059
 1995TIP3    H230181   4.185   3.978  11.671  0.7536 -0.1543  1.5588
 1996TIP3   OH230182   5.158   3.674  11.584  0.1694  0.0590 -0.5248
 1996TIP3    H130183   5.181   3.761  11.617 -0.8671 -0.0862  0.6542
 1996TIP3    H230184   5.198   3.613  11.645 -1.9019 -0.2105  0.6765
 1997TIP3   OH230185   4.647   4.205  12.952  0.3605 -0.5407  0.1889
 1997TIP3    H130186   4.595   4.131  12.980  1.1431 -1.0033  0.4580
 1997TIP3    H230187   4.738   4.174  12.955  0.6907  0.3608  0.1319
 1998TIP3   OH230188   3.471   5.705  10.211 -0.1368  0.3252 -0.2289
 1998TIP3    H130189   3.483   5.753  10.130  2.7069 -1.5840 -1.0988
 1998TIP3    H230190   3.516   5.757  10.278 -1.8688  1.5361  0.0693
 1999TIP3   OH230191   0.798   3.928  11.876  0.0761 -0.4545  0.7380
 1999TIP3    H130192   0.837   4.008  11.912  0.7682 -0.5552  0.2286
 1999TIP3    H230193   0.764   3.955  11.791 -0.8145 -0.4125  1.0965
 2000TIP3   OH230194   1.999   6.499  10.641  0.9164  0.0107 -0.3184
 2000TIP3    H130195   1.939   6.431  10.672 -0.8726  1.4182 -0.5299
 2000TIP3    H230196   2.005   6.483  10.547  1.6306 -0.6769 -0.1692
 2001TIP3   OH230197   6.133   1.082  12.103  0.2782 -0.1307 -0.5308
 2001TIP3    H130198   6.160   1.172  12.119 -0.4354  0.2590 -1.4518
 2001TIP3    H230199   6.108   1.049  12.190  0.7768  0.4664 -0.1495
 2002TIP3   OH230200   1.355   5.222   9.856 -0.1625  0.4837 -0.3408
 2002TIP3    H130201   1.417   5.288   9.826  2.1394 -0.3863  2.1134
 2002TIP3    H230202   1.346   5.161   9.783  1.0393  1.2086 -1.1157
 2003TIP3   OH230203   4.889   6.759  10.695 -0.8245 -0.9781 -0.0381
 2003TIP3    H130204   4.830   6.833  10.710  1.2943  0.3361  2.4071
 2003TIP3    H230205   4.867   6.696  10.763 -1.6199 -2.0329 -1.2154
 2004TIP3   OH230206   6.411   0.693  11.464 -0.5926  0.4062  0.3254
 2004TIP3    H130207   6.395   0.600  11.444  1.6528  0.2337 -1.0175
 2004TIP3    H230208   6.398   0.700  11.558 -2.2873 -0.9016  0.2529
 2005TIP3   OH230209   0.851   3.806   9.766 -0.2265 -0.9141 -0.3480
 2005TIP3    H130210   0.881   3.717   9.745 -2.6831 -1.9990  0.3045
 2005TIP3    H230211   0.760   3.807   9.736 -0.8092  0.7606  1.3196
 2006TIP3   OH230212   2.228   4.440   9.231 -0.4622 -0.3959 -0.3081
 2006TIP3    H130213   2.163   4.509   9.225 -1.0230 -0.9935 -1.2915
 2006TIP3    H230214   2.183   4.366   9.272 -0.3499 -0.7330 -0.7763
 2007TIP3   OH230215   4.083   4.566  10.241  0.3503 -0.1061  0.3829
 2007TIP3    H130216   4.077   4.635  10.306 -0.0036  0.6539 -0.4360
 2007TIP3    H230217   4.161   4.516  10.266  1.8152  1.7844 -0.1420
 2008TIP3   OH230218   0.446   5.331  11.966 -0.4646  0.1719 -0.0930
 2008TIP3    H130219   0.425   5.410  12.016  0.0964 -0.0323  0.4702
 2008TIP3    H230220   0.482   5.270  12.030  0.0786 -0.1666 -0.7047
 2009TIP3   OH230221   5.366   4.578  12.611  0.5624  0.2446 -0.4906
 2009TIP3    H130222   5.410   4.651  12.654  0.2491  0.4629 -0.5460
 2009TIP3    H230223   5.307   4.618  12.548  1.0913 -0.0714 -1.2049
 2010TIP3   OH230224   0.249   0.483  12.705 -0.3054  0.2139  0.3883
 2010TIP3    H130225   0.334   0.439  12.700  1.7647  3.9301 -1.8687
 2010TIP3    H230226   0.224   0.497  12.614 -2.1423  1.3495  1.0210
 2011TIP3   OH230227   4.462   0.443  11.847  0.7363  0.9778 -0.0656
 2011TIP3    H130228   4.556   0.430  11.855  0.6211 -0.1860 -0.3867
 2011TIP3    H230229   4.451   0.501  11.772  1.1096 -0.8403 -1.5935
 2012TIP3   OH230230   5.322   1.480  13.157  0.6260  0.3996 -0.3365
 2012TIP3    H130231   5.308   1.402  13.103  0.4225 -0.6045  1.1136
 2012TIP3    H230232   5.417   1.489  13.163  0.7269 -1.0773  1.2569
 2013TIP3   OH230233   6.349   3.806  12.646  0.1576 -0.0217  0.0350
 2013TIP3    H130234   6.439   3.799  12.614 -0.3099  1.3651 -1.7144
 2013TIP3    H230235   6.337   3.727  12.700  1.6907 -1.4015 -1.5001
 2014TIP3   OH230236   6.062   1.673   9.948 -0.6941 -0.1727 -0.3904
 2014TIP3    H130237   6.006   1.737   9.993 -1.1049 -1.6230  1.2786
 2014TIP3    H230238   6.027   1.671   9.859 -1.1986  1.3050 -0.2697
 2015TIP3   OH230239   5.446   4.439  12.850 -0.3518  0.2695  0.1314
 2015TIP3    H130240   5.435   4.490  12.770  0.7097  1.0144  0.4383
 2015TIP3    H230241   5.528   4.391  12.838 -0.0363  0.6025  0.8769
 2016TIP3   OH230242   6.587   0.705  12.434  0.2013 -0.0302  0.6101
 2016TIP3    H130243   6.640   0.632  12.466 -1.4241 -0.8911  1.5152
 2016TIP3    H230244   6.591   0.770  12.504  0.5181  0.1451  0.4286
 2017TIP3   OH230245   3.968   5.272  12.441 -0.2867  0.1047  0.9705
 2017TIP3    H130246   3.942   5.191  12.484  0.3236  0.2036  1.5416
 2017TIP3    H230247   3.897   5.333  12.458 -1.7402 -0.8569 -1.1690
 2018TIP3   OH230248   5.987   4.823  10.234  0.0508  0.2333 -0.0516
 2018TIP3    H130249   5.899   4.861  10.222 -0.1615  0.1142  1.0323
 2018TIP3    H230250   6.046   4.892  10.205 -0.3792  0.7710  0.3210
 2019TIP3   OH230251   6.017   6.118  11.529 -0.0068  0.1898  0.3166
 2019TIP3    H130252   6.009   6.129  11.624  1.2335  0.5954  0.3892
 2019TIP3    H230253   5.936   6.074  11.503 -0.0959 -0.4647  1.6474
 2020TIP3   OH230254   5.398   2.211  12.944 -0.2408  0.4402  0.2386
 2020TIP3    H130255   5.493   2.206  12.955 -0.2536  0.1944  0.2559
 2020TIP3    H230256   5.363   2.181  13.028 -0.3438 -1.3582 -0.4030
 2021TIP3   OH230257   6.511   1.596   9.994  0.3631 -0.4824  0.2041
 2021TIP3    H130258   6.606   1.613   9.995  0.2150  0.4018  0.8712
 2021TIP3    H230259   6.504   1.501   9.988  1.3235 -0.6516  1.2744
 2022TIP3   OH230260   1.922   2.112  12.192  0.6315 -0.1098  0.1521
 2022TIP3    H130261   1.925   2.032  12.140 -1.7223 -0.3266  0.2357
 2022TIP3    H230262   1.830   2.122  12.215  1.3688  0.7000  3.1772
 2023TIP3   OH230263   5.569   3.456  10.981 -0.3396 -0.4952  0.0769
 2023TIP3    H130264   5.529   3.434  11.065  1.1555 -1.5434  0.5447
 2023TIP3    H230265   5.633   3.524  11.002 -0.7252  0.0384 -0.4212
 2024TIP3   OH230266   0.803   0.237  11.106  0.0594 -0.6544 -0.2318
 2024TIP3    H130267   0.849   0.156  11.129  1.2700  0.0750  0.0089
 2024TIP3    H230268   0.738   0.248  11.175  1.3954 -0.2600  0.9925
 2025TIP3   OH230269   0.746   6.507  12.452 -0.3856 -0.6330 -0.1903
 2025TIP3    H130270   0.841   6.504  12.461 -0.3074 -0.8601 -1.0564
 2025TIP3    H230271   0.729   6.588  12.403 -0.5755 -1.0328 -0.7885
 2026TIP3   OH230272   1.619   1.003  10.534 -1.1120  0.3379 -0.1230
 2026TIP3    H130273   1.594   1.009  10.626 -1.4386  0.7466 -0.2356
 2026TIP3    H230274   1.585   1.083  10.494 -1.0023  0.1507 -0.6065
 2027TIP3   OH230275   2.635   0.030  10.755  0.4764 -0.2012 -0.0947
 2027TIP3    H130276   2.554   0.005  10.800  1.2816 -1.2306  0.8150
 2027TIP3    H230277   2.630   0.126  10.748  0.6414  0.1190  2.8604
 2028TIP3   OH230278   5.402   0.970  12.493  0.1719  0.1335  0.1067
 2028TIP3    H130279   5.319   0.990  12.449 -0.9838 -1.7592  1.3168
 2028TIP3    H230280   5.438   1.056  12.517 -2.3691  0.9573  1.2441
 2029TIP3   OH230281   1.052   2.332  12.679  0.0387 -0.0096  0.1700
 2029TIP3    H130282   1.020   2.369  12.761 -0.7775  1.0354 -0.5988
 2029TIP3    H230283   1.111   2.262  12.706 -1.7884 -1.0794  1.6679
 2030TIP3   OH230284   2.979   2.777  12.517  0.1328 -0.1378 -0.5486
 2030TIP3    H130285   2.892   2.798  12.550  0.3550 -2.1080  1.5264
 2030TIP3    H230286   3.013   2.860  12.484 -2.0984  0.8931 -0.3918
 2031TIP3   OH230287   1.166   6.146  11.478  0.4581  0.3671  0.4662
 2031TIP3    H130288   1.143   6.127  11.387 -0.8524  0.0119  0.8501
 2031TIP3    H230289   1.219   6.225  11.473 -0.7061  1.1258 -0.5194
 2032TIP3   OH230290   5.490   6.512  11.141  0.3542 -0.1522  0.1883
 2032TIP3    H130291   5.509   6.524  11.233  0.0855  0.1389  0.2074
 2032TIP3    H230292   5.482   6.600  11.106  2.6841 -0.1978 -0.6025
 2033TIP3   OH230293   1.927   5.978   9.569  0.4766  0.1040 -0.1405
 2033TIP3    H130294   1.926   6.050   9.633 -2.2969 -1.0483  1.3027
 2033TIP3    H230295   1.917   6.021   9.485  2.7740  1.5890  0.2665
 2034TIP3   OH230296   1.816   2.221  12.999 -0.3027  0.1785  0.3658
 2034TIP3    H130297   1.745   2.184  13.053 -3.3368  1.4435 -2.3852
 2034TIP3    H230298   1.816   2.314  13.021  1.3692  0.0223  1.1318
 2035TIP3   OH230299   3.169   5.223   9.780  0.5081 -0.3682  0.2742
 2035TIP3    H130300   3.093   5.182   9.821 -0.7588  0.3097 -1.2778
 2035TIP3    H230301   3.167   5.192   9.689  2.3750 -0.7082  0.3096
 2036TIP3   OH230302   1.798   3.985   9.596  0.3638  0.5217  0.3991
 2036TIP3    H130303   1.888   4.006   9.570  0.4023  0.1452  0.2215
 2036TIP3    H230304   1.757   3.954   9.515  0.6115 -1.1253  0.8698
 2037TIP3   OH230305   5.799   2.244  10.624  0.5621  0.0733 -0.6243
 2037TIP3    H130306   5.795   2.155  10.658  1.1196  0.2950  0.0249
 2037TIP3    H230307   5.885   2.277  10.650 -0.3212  1.4336  0.7364
 2038TIP3   OH230308   3.770   6.579  13.195 -0.2461 -0.1650 -0.0457
 2038TIP3    H130309   3.818   6.593  13.114  0.5283  0.2164  0.4756
 2038TIP3    H230310   3.794   6.490  13.223 -1.2585 -0.6780 -0.7152
 2039TIP3   OH230311   5.469   4.622  10.372 -0.2660 -0.2264  0.0257
 2039TIP3    H130312   5.498   4.712  10.352 -0.0212 -0.4247 -0.5321
 2039TIP3    H230313   5.376   4.631  10.393  0.2146  0.4723  2.1352
 2040TIP3   OH230314   1.703   3.340  11.683  0.1453  0.6736  0.9310
 2040TIP3    H130315   1.660   3.255  11.686  1.0625  0.2058  1.1303
 2040TIP3    H230316   1.674   3.384  11.762 -0.8451  0.8158  0.5081
 2041TIP3   OH230317   0.891   4.445  10.968  0.5909  0.4173  0.3269
 2041TIP3    H130318   0.840   4.436  11.048  0.8969  0.1567  0.4938
 2041TIP3    H230319   0.866   4.370  10.914 -0.1986  1.0127 -0.1531
 2042TIP3   OH230320   0.134   6.340  12.493  0.2948  0.3529 -0.3219
 2042TIP3    H130321   0.159   6.411  12.435 -0.3145 -1.2343 -2.6727
 2042TIP3    H230322   0.212   6.324  12.547  0.4307  2.7243  0.3114
 2043TIP3   OH230323   5.135   3.266  12.666  0.7457 -0.0819 -0.3082
 2043TIP3    H130324   5.076   3.283  12.593  1.1982 -1.0974 -0.9249
 2043TIP3    H230325   5.077   3.253  12.741  0.2967  1.6239 -0.3088
 2044TIP3   OH230326   4.041   4.783  13.165  0.2317 -0.2934 -0.0365
 2044TIP3    H130327   4.128   4.792  13.125  0.7089  0.9550  1.1712
 2044TIP3    H230328   4.014   4.873  13.182 -0.4617 -0.7330  1.3250
 2045TIP3   OH230329   0.889   4.999  12.012  0.1148  0.1088 -0.0344
 2045TIP3    H130330   0.850   4.997  12.099 -1.6808  0.1375 -0.7961
 2045TIP3    H230331   0.951   4.926  12.012 -0.6802 -0.5995  0.9153
 2046TIP3   OH230332   0.035   3.336  13.217 -0.2780 -0.4590  0.3021
 2046TIP3    H130333  -0.048   3.377  13.191  0.1722  0.4768  0.2826
 2046TIP3    H230334   0.023   3.243  13.200 -1.0797 -0.2413 -0.3495
 2047TIP3   OH230335   5.966   4.537  11.274 -0.0041  0.2361 -0.0906
 2047TIP3    H130336   6.023   4.606  11.240 -0.5005  1.1413  0.8708
 2047TIP3    H230337   5.886   4.545  11.222 -1.2111  2.3729  1.9041
 2048TIP3   OH230338   2.049   5.551  11.334  1.0142 -0.3050  0.1248
 2048TIP3    H130339   1.974   5.588  11.288  1.0944  0.7645  0.8174
 2048TIP3    H230340   2.076   5.476  11.280 -0.7723 -0.9531  0.0698
 2049TIP3   OH230341   1.795   6.559  13.109 -0.0701  0.2399 -0.3132
 2049TIP3    H130342   1.890   6.574  13.107  0.2095 -0.4257  2.7594
 2049TIP3    H230343   1.782   6.479  13.058  1.0080  0.3042 -0.7211
 2050TIP3   OH230344   3.759   1.603  12.191  0.0518 -0.2480  0.1284
 2050TIP3    H130345   3.691   1.542  12.219  0.4471 -0.5854  0.3637
 2050TIP3    H230346   3.783   1.573  12.104  0.7401 -0.8593  0.5249
 2051TIP3   OH230347   2.397   3.279  11.678  0.2173 -0.0530 -0.5245
 2051TIP3    H130348   2.481   3.234  11.680 -0.0944 -0.6316 -0.0839
 2051TIP3    H230349   2.332   3.210  11.691 -0.2223  0.6649  1.5155
 2052TIP3   OH230350   4.751   0.133  11.788  0.4720  0.0473  0.5219
 2052TIP3    H130351   4.714   0.209  11.743  0.2028  0.2492  1.0743
 2052TIP3    H230352   4.681   0.104  11.848  0.1759 -1.2634 -0.4022
 2053TIP3   OH230353   0.772   0.756  11.711 -0.5199  0.7124 -0.2494
 2053TIP3    H130354   0.847   0.756  11.652 -0.6810  1.7011 -0.4718
 2053TIP3    H230355   0.733   0.843  11.700  0.0955  1.3639  2.1413
 2054TIP3   OH230356   1.380   0.899  10.994 -0.4110 -0.4131 -0.3857
 2054TIP3    H130357   1.383   0.962  11.066  1.7358  0.0477 -0.8207
 2054TIP3    H230358   1.309   0.930  10.938 -0.3643  0.7583  0.1762
 2055TIP3   OH230359   4.908   0.095  12.706  0.3181  0.2950 -0.2407
 2055TIP3    H130360   4.925   0.056  12.791  0.2479  0.8960  0.0502
 2055TIP3    H230361   4.813   0.100  12.700  0.2822 -0.6806 -0.7890
 2056TIP3   OH230362   1.507   6.467  12.007 -0.1759 -0.7277  0.0875
 2056TIP3    H130363   1.504   6.434  11.917 -0.3550  0.1200 -0.2211
 2056TIP3    H230364   1.452   6.545  12.006 -1.4740 -1.5729  1.2989
 2057TIP3   OH230365   2.354   5.440  10.912  0.0736  0.1626 -0.0914
 2057TIP3    H130366   2.414   5.393  10.854  0.0408  2.1830 -1.8676
 2057TIP3    H230367   2.269   5.397  10.899  1.0138 -3.3115  3.0961
 2058TIP3   OH230368   3.040   0.741  12.083 -0.2666 -0.3400 -0.1648
 2058TIP3    H130369   3.115   0.798  12.063  0.3676 -0.8165  0.8169
 2058TIP3    H230370   3.075   0.674  12.141 -1.6997  0.1081  1.3073
 2059TIP3   OH230371   3.323   5.484  10.788 -0.1905 -0.3861  0.9041
 2059TIP3    H130372   3.264   5.541  10.738 -0.1527 -0.8068  0.3688
 2059TIP3    H230373   3.267   5.412  10.818 -0.0382 -0.5757  0.7402
 2060TIP3   OH230374   4.161   2.988  11.428  0.1280 -0.3630 -0.0729
 2060TIP3    H130375   4.239   3.036  11.400 -0.2725 -0.1173 -0.7868
 2060TIP3    H230376   4.124   2.953  11.347  0.4267 -1.9156  0.4263
 2061TIP3   OH230377   1.214   1.263  10.692 -0.0142 -0.0741 -0.0618
 2061TIP3    H130378   1.228   1.184  10.744  0.1501 -0.6923 -1.0405
 2061TIP3    H230379   1.132   1.247  10.645  0.7532 -0.2905 -1.3784
 2062TIP3   OH230380   6.037   2.084  11.117  0.5217  0.4311 -0.6122
 2062TIP3    H130381   6.079   2.150  11.062  3.3220 -0.9774 -0.3444
 2062TIP3    H230382   6.040   2.004  11.065 -0.5350 -0.0504  0.0274
 2063TIP3   OH230383   0.004   0.083  10.766  0.0374  0.5571 -0.4709
 2063TIP3    H130384   0.072   0.017  10.754  1.4770  2.1385 -1.4372
 2063TIP3    H230385  -0.063   0.061  10.702  0.6748  0.2488 -1.0412
 2064TIP3   OH230386   2.417   4.720  12.927 -0.6258  0.2222 -0.7794
 2064TIP3    H130387   2.429   4.637  12.881 -0.0760  0.4826 -1.1172
 2064TIP3    H230388   2.448   4.787  12.865 -0.2504  0.6091 -0.1838
 2065TIP3   OH230389   2.943   4.854  10.487  0.8085 -0.0745  0.6474
 2065TIP3    H130390   2.885   4.811  10.549  0.8453  0.0992  0.8007
 2065TIP3    H230391   2.922   4.813  10.403  0.3477  0.1053  0.6728
 2066TIP3   OH230392   3.082   5.657  12.184  0.4258 -0.2366  0.5332
 2066TIP3    H130393   3.155   5.695  12.135  0.3600 -1.3490 -0.4786
 2066TIP3    H230394   3.025   5.620  12.117 -0.6246 -0.1677  1.3602
 2067TIP3   OH230395   1.135   3.137  12.233  0.2407 -0.3207  0.2747
 2067TIP3    H130396   1.149   3.044  12.248  1.7504 -0.0219  0.8643
 2067TIP3    H230397   1.152   3.178  12.318 -0.3808  0.5025  0.0182
 2068TIP3   OH230398   6.559   3.506   9.866 -0.0535  0.0922  0.0459
 2068TIP3    H130399   6.510   3.487   9.947 -0.9676  2.5142  0.1436
 2068TIP3    H230400   6.639   3.454   9.875 -0.9673 -1.1805  1.5961
 2069TIP3   OH230401   3.640   3.265  10.899 -0.1847  0.2928  0.3248
 2069TIP3    H130402   3.566   3.300  10.850  0.2286  0.8458  0.0772
 2069TIP3    H230403   3.648   3.175  10.869 -0.1037  0.5469 -0.4466
 2070TIP3   OH230404   4.506   3.040  10.547  0.0130  0.2619  0.4927
 2070TIP3    H130405   4.549   2.991  10.617 -2.0940  1.4675  2.7740
 2070TIP3    H230406   4.433   2.984  10.521 -0.5046  0.7867  0.8173
 2071TIP3   OH230407   1.215   2.146  10.470 -0.1748 -0.3558 -1.0982
 2071TIP3    H130408   1.159   2.069  10.476  0.1378 -0.6561 -1.8658
 2071TIP3    H230409   1.269   2.143  10.549 -2.2020  0.7538  0.4158
 2072TIP3   OH230410   1.810   1.376  10.944  0.9144  0.1496 -0.1917
 2072TIP3    H130411   1.898   1.348  10.971  1.1163 -0.6499 -1.5891
 2072TIP3    H230412   1.751   1.313  10.986  1.0627  0.1894  0.0803
 2073TIP3   OH230413   5.617   5.493  12.783  0.2593  0.1829  0.2154
 2073TIP3    H130414   5.689   5.514  12.724  0.9141  1.6381  1.4655
 2073TIP3    H230415   5.539   5.498  12.728  0.7929  2.0299 -0.4612
 2074TIP3   OH230416   1.707   5.632  12.110  0.4416  0.8537 -0.3473
 2074TIP3    H130417   1.721   5.537  12.114  1.1510  0.8148 -2.4493
 2074TIP3    H230418   1.634   5.643  12.049 -1.0363  1.6230  1.4581
 2075TIP3   OH230419   4.196   4.407  10.014  0.4834  0.4888  0.2332
 2075TIP3    H130420   4.146   4.487  10.029  1.6237  1.2233  0.2205
 2075TIP3    H230421   4.285   4.437   9.995  0.7743 -0.7464 -0.5085
 2076TIP3   OH230422   1.324   4.650  11.134  0.0598 -0.3643  0.2028
 2076TIP3    H130423   1.356   4.582  11.075  1.2188 -1.5010  2.0270
 2076TIP3    H230424   1.385   4.648  11.208 -1.7344  0.4439  1.7928
 2077TIP3   OH230425   5.357   4.759  11.428 -0.1331  0.1178 -0.4468
 2077TIP3    H130426   5.385   4.687  11.484  0.1888  0.0204 -0.7323
 2077TIP3    H230427   5.320   4.824  11.488  0.9253  0.3601 -0.0427
 2078TIP3   OH230428   3.692   0.980  11.323 -0.5780  0.5065 -0.2516
 2078TIP3    H130429   3.653   0.977  11.236 -0.9647 -0.7570 -0.0660
 2078TIP3    H230430   3.739   1.062  11.326 -0.2876  0.4178 -1.7735
 2079TIP3   OH230431   2.405   5.043  13.307  0.2901 -0.3750 -0.5422
 2079TIP3    H130432   2.337   5.010  13.366  1.4844 -3.0922 -0.5727
 2079TIP3    H230433   2.375   5.018  13.219  0.2242  0.5474 -0.7988
 2080TIP3   OH230434   5.294   0.918  12.002  0.4304  0.7655  0.1419
 2080TIP3    H130435   5.387   0.919  12.027  0.6871  1.2167 -0.7763
 2080TIP3    H230436   5.273   1.009  11.983 -0.0710  0.5982 -0.1255
 2081TIP3   OH230437   1.800   3.211   9.639 -0.0464  0.9404 -0.0961
 2081TIP3    H130438   1.879   3.158   9.643 -0.0714  0.8765 -0.4427
 2081TIP3    H230439   1.795   3.241   9.548 -1.7332 -1.0733 -0.7552
 2082TIP3   OH230440   3.442   4.498  10.802 -0.1079 -0.4264  0.0023
 2082TIP3    H130441   3.358   4.479  10.759  0.2602  0.2486 -1.0537
 2082TIP3    H230442   3.484   4.561  10.745  1.1922 -0.8591  0.4488
 2083TIP3   OH230443   0.115   6.216  11.432 -0.1947 -0.6129  0.2451
 2083TIP3    H130444   0.069   6.132  11.432 -1.0517 -0.1618 -0.6370
 2083TIP3    H230445   0.068   6.269  11.497 -1.1753 -0.0402 -0.8937
 2084TIP3   OH230446   3.362   2.335  10.845 -0.0611 -0.1780 -0.2360
 2084TIP3    H130447   3.439   2.356  10.793 -1.4100  0.4633 -2.0489
 2084TIP3    H230448   3.288   2.355  10.789 -1.5748 -2.1465  0.9077
 2085TIP3   OH230449   1.459   0.533  10.347 -0.3833 -0.0660  0.2804
 2085TIP3    H130450   1.510   0.503  10.422 -1.0863  0.7621  1.1072
 2085TIP3    H230451   1.525   0.556  10.281  0.3003  0.4678  1.1333
 2086TIP3   OH230452   0.718   0.368  10.703  0.9480 -0.4076  0.4201
 2086TIP3    H130453   0.804   0.368  10.661  0.6275  0.0268 -0.2426
 2086TIP3    H230454   0.671   0.440  10.662  0.5515 -0.0954  1.3889
 2087TIP3   OH230455   6.776   5.489  10.376  0.5374  0.8787  0.6493
 2087TIP3    H130456   6.780   5.440  10.294 -2.1926 -0.0218  0.9508
 2087TIP3    H230457   6.865   5.485  10.411  0.6658 -3.5157  0.3859
 2088TIP3   OH230458   0.191   6.213   9.762  0.1438  0.2834  0.4879
 2088TIP3    H130459   0.122   6.148   9.769 -1.0350  1.6304  1.9069
 2088TIP3    H230460   0.263   6.166   9.718 -1.1006 -1.5708  0.3083
 2089TIP3   OH230461   6.101   6.249  11.005  0.0761  0.0507 -0.0556
 2089TIP3    H130462   6.019   6.263  10.958  0.0166 -1.4204 -0.4405
 2089TIP3    H230463   6.123   6.157  10.988  1.7327  0.3819  0.1616
 2090TIP3   OH230464   6.424   1.486  10.536  0.5480 -0.1467 -0.6117
 2090TIP3    H130465   6.389   1.548  10.473 -1.3151 -0.6881 -0.1698
 2090TIP3    H230466   6.460   1.540  10.606 -3.3403  0.6291  1.0561
 2091TIP3   OH230467   4.798   3.863  12.161 -0.3762 -0.3675 -0.8833
 2091TIP3    H130468   4.827   3.773  12.179 -1.7470 -1.0861 -2.0669
 2091TIP3    H230469   4.873   3.917  12.183  0.3195 -1.7467  0.3600
 2092TIP3   OH230470   1.569   4.606   9.464  0.2001 -0.0995 -0.2850
 2092TIP3    H130471   1.661   4.627   9.447  0.2303  0.0145  0.0044
 2092TIP3    H230472   1.530   4.597   9.377  0.8224 -1.7203 -0.4219
 2093TIP3   OH230473   0.655   0.989  11.210 -0.2285  0.6021  0.6539
 2093TIP3    H130474   0.586   0.927  11.189 -0.0998 -0.0076  1.9384
 2093TIP3    H230475   0.724   0.937  11.251  0.4907  1.3724  0.4631
 2094TIP3   OH230476   1.087   5.938  12.342  0.5114  0.0927  0.4660
 2094TIP3    H130477   0.995   5.922  12.364  0.1316  0.0975 -1.0099
 2094TIP3    H230478   1.101   6.030  12.363 -0.0053  0.2553  0.1238
 2095TIP3   OH230479   4.864   4.262  10.710  0.4474 -0.4350  0.3419
 2095TIP3    H130480   4.949   4.243  10.671  0.9056 -2.1158  2.0147
 2095TIP3    H230481   4.828   4.332  10.656  1.8874 -1.2510 -1.8051
 2096TIP3   OH230482   5.120   0.447  11.539 -0.1868 -0.0277  0.0354
 2096TIP3    H130483   5.040   0.470  11.491 -1.2830 -2.0203  0.7732
 2096TIP3    H230484   5.102   0.472  11.629 -0.3379 -1.2037  0.3505
 2097TIP3   OH230485   0.444   3.151   9.396 -0.5983 -0.1373 -0.0530
 2097TIP3    H130486   0.439   3.055   9.395  1.1753 -0.3288 -3.4487
 2097TIP3    H230487   0.356   3.179   9.373 -1.1024 -0.9334  0.8267
 2098TIP3   OH230488   6.789   4.476  11.125 -0.3112 -0.3718  0.0803
 2098TIP3    H130489   6.881   4.476  11.097 -0.7883 -0.5538 -1.5457
 2098TIP3    H230490   6.739   4.466  11.045 -1.7552 -1.0969  1.0323
 2099TIP3   OH230491   1.934   2.634  11.147  0.3938 -0.7053 -0.5366
 2099TIP3    H130492   1.970   2.714  11.184  0.4162 -0.4310 -1.1272
 2099TIP3    H230493   1.984   2.564  11.188  0.4274 -0.4116 -0.0737
 2100TIP3   OH230494   4.876   3.974  11.464  0.2821  0.6724 -0.0600
 2100TIP3    H130495   4.900   3.882  11.452 -0.3850  0.4454  0.2772
 2100TIP3    H230496   4.958   4.022  11.451  0.7285  0.0007  0.1951
 2101TIP3   OH230497   5.546   2.275  10.649  0.7333 -0.0173 -0.7393
 2101TIP3    H130498   5.639   2.287  10.628  0.4894  2.0855 -0.7982
 2101TIP3    H230499   5.529   2.336  10.720 -0.5975 -0.4351 -0.6750
 2102TIP3   OH230500   3.661   2.398  10.703  0.3390 -0.4428 -0.5697
 2102TIP3    H130501   3.615   2.326  10.660 -0.0403  0.1608 -1.1898
 2102TIP3    H230502   3.680   2.460  10.632  0.2732  0.2698  0.0294
 2103TIP3   OH230503   2.807   3.107  10.904 -0.3193  0.2643 -0.2788
 2103TIP3    H130504   2.899   3.131  10.918 -0.4529 -0.2762  1.7524
 2103TIP3    H230505   2.775   3.173  10.843  1.3530  0.5789 -0.8946
 2104TIP3   OH230506   1.453   5.898  12.784  0.8468  0.4827  0.0100
 2104TIP3    H130507   1.508   5.889  12.706  0.9659 -0.0544  0.1502
 2104TIP3    H230508   1.370   5.934  12.751 -0.3320 -2.7226 -0.9396
 2105TIP3   OH230509   2.763   5.853  13.127  0.4970 -0.6390 -0.2669
 2105TIP3    H130510   2.777   5.866  13.220 -0.4799  0.4911 -0.2504
 2105TIP3    H230511   2.801   5.931  13.086  0.3008 -0.7991 -0.7597
 2106TIP3   OH230512   1.741   3.222  10.230  0.3417  0.0222  0.3651
 2106TIP3    H130513   1.654   3.214  10.270 -0.3204  1.0437 -0.8194
 2106TIP3    H230514   1.733   3.174  10.148  0.7576  0.5028  0.0419
 2107TIP3   OH230515   5.052   4.989  11.437 -0.1624  0.0844  0.4039
 2107TIP3    H130516   5.012   5.075  11.429 -0.7995 -0.3248 -1.1106
 2107TIP3    H230517   5.139   5.000  11.398 -0.7984 -0.2973 -1.1731
 2108TIP3   OH230518   2.489   1.580  13.014  0.0038 -0.4091  0.3857
 2108TIP3    H130519   2.502   1.658  13.068  1.0065  0.0651 -0.5137
 2108TIP3    H230520   2.399   1.554  13.032 -1.1176  2.2110 -0.9279
 2109TIP3   OH230521   0.530   5.374  12.641  0.2739 -0.1654  0.4980
 2109TIP3    H130522   0.604   5.425  12.673  0.0684 -0.1481  0.9542
 2109TIP3    H230523   0.462   5.386  12.707  0.1845 -0.9333  0.5593
 2110TIP3   OH230524   1.618   5.423  10.131  0.0062 -0.5054  0.0253
 2110TIP3    H130525   1.539   5.456  10.176  0.9591 -0.2649  1.6066
 2110TIP3    H230526   1.621   5.330  10.153  2.1654  0.1537  3.3671
 2111TIP3   OH230527   4.999   0.635  10.620 -0.0866  0.1190  0.3015
 2111TIP3    H130528   5.014   0.698  10.550 -0.6203 -1.2173 -1.0561
 2111TIP3    H230529   4.915   0.660  10.658 -0.6425 -0.1749 -0.7005
 2112TIP3   OH230530   2.527   6.257  12.313 -0.6027  0.1100 -0.2989
 2112TIP3    H130531   2.549   6.350  12.309 -0.8268  0.1267 -1.3343
 2112TIP3    H230532   2.604   6.213  12.277 -1.2423  0.0294 -1.6569
 2113TIP3   OH230533   1.452   0.597  12.928 -0.6192 -0.5430 -0.5778
 2113TIP3    H130534   1.479   0.682  12.963  1.6385 -1.5904  0.4402
 2113TIP3    H230535   1.414   0.617  12.843 -1.9597  1.6496  0.4346
 2114TIP3   OH230536   4.354   3.822  11.922 -0.3934 -0.6863  0.5667
 2114TIP3    H130537   4.290   3.893  11.919 -0.0511 -0.3788  0.5161
 2114TIP3    H230538   4.310   3.749  11.879  0.5332  0.5334 -2.7802
 2115TIP3   OH230539   1.319   2.749  10.135  0.0040  0.0162  0.0456
 2115TIP3    H130540   1.385   2.816  10.151  1.1445 -0.3519 -2.5779
 2115TIP3    H230541   1.299   2.757  10.042 -2.9332 -0.5815  0.5194
 2116TIP3   OH230542   1.825   5.766  10.557 -0.0080  0.2327  0.2105
 2116TIP3    H130543   1.778   5.698  10.510 -0.6529  0.3494  0.6751
 2116TIP3    H230544   1.764   5.840  10.561  0.5185  0.6788  0.0985
 2117TIP3   OH230545   6.287   2.809  12.857 -0.2564 -0.2984  0.2233
 2117TIP3    H130546   6.246   2.832  12.940  0.2248  0.1202  0.3491
 2117TIP3    H230547   6.267   2.716  12.846  0.4690 -0.5960  1.2722
 2118TIP3   OH230548   2.965   3.253  10.202 -0.1792  0.3079  0.8494
 2118TIP3    H130549   2.885   3.300  10.225  0.1307  0.4763  1.6376
 2118TIP3    H230550   3.026   3.321  10.172 -0.4422  0.1379 -0.0874
 2119TIP3   OH230551   4.702   5.276  12.485 -0.3785  0.3833 -0.1438
 2119TIP3    H130552   4.782   5.230  12.458 -0.2961  1.0169 -1.0375
 2119TIP3    H230553   4.647   5.275  12.407  0.0735  2.7154 -0.5774
 2120TIP3   OH230554   3.477   0.051  10.636 -0.2489 -0.3497  0.1709
 2120TIP3    H130555   3.557   0.038  10.686 -0.7936  0.7819  1.3887
 2120TIP3    H230556   3.434   0.125  10.678 -1.7754 -0.7167 -0.6642
 2121TIP3   OH230557   6.439   3.451  12.936  0.5820  0.1092  0.0476
 2121TIP3    H130558   6.365   3.391  12.922 -1.1350  2.1129 -0.0070
 2121TIP3    H230559   6.427   3.519  12.869  0.9041  1.9025  1.7254
 2122TIP3   OH230560   6.188   1.263  10.525 -0.4061  0.5618  0.5711
 2122TIP3    H130561   6.218   1.281  10.614  2.2943 -0.3565 -0.0472
 2122TIP3    H230562   6.182   1.349  10.483  0.8297  0.8564  0.9530
 2123TIP3   OH230563   1.952   2.384  10.368  0.0770 -0.1480  0.5696
 2123TIP3    H130564   1.927   2.311  10.312  0.2401 -1.1872  1.8065
 2123TIP3    H230565   1.982   2.343  10.449 -1.4234  1.3203  1.9494
 2124TIP3   OH230566   6.504   1.023  10.179 -0.1279  0.0053  0.2811
 2124TIP3    H130567   6.479   1.095  10.236 -0.0613  0.3896 -0.1679
 2124TIP3    H230568   6.425   1.004  10.128  0.1184  0.3806 -0.2485
 2125TIP3   OH230569   5.727   6.150  12.335  0.0649  0.2027 -0.5200
 2125TIP3    H130570   5.784   6.225  12.316 -0.4331  0.6073 -0.4385
 2125TIP3    H230571   5.640   6.178  12.307 -0.3812  0.1949  0.7974
 2126TIP3   OH230572   1.717   4.124  10.752 -0.1601  0.4819  0.2269
 2126TIP3    H130573   1.747   4.086  10.670  0.4642  1.3983  0.0201
 2126TIP3    H230574   1.668   4.053  10.795  0.9958 -0.5577 -0.1342
 2127TIP3   OH230575   0.131   4.798  10.139  0.2556 -0.6909 -0.0587
 2127TIP3    H130576   0.157   4.869  10.081  0.6799  0.8006  1.8369
 2127TIP3    H230577   0.036   4.809  10.150  0.4145  0.0423  0.7369
 2128TIP3   OH230578   1.730   5.657  13.379  0.1645 -0.2528 -0.2799
 2128TIP3    H130579   1.651   5.699  13.412 -0.0351 -1.1002  0.3623
 2128TIP3    H230580   1.739   5.689  13.290 -1.5787 -1.0732 -0.7898
 2129TIP3   OH230581   6.407   0.485  11.735 -0.5737  0.0798 -0.1998
 2129TIP3    H130582   6.464   0.412  11.756 -2.0202 -1.0563 -0.0595
 2129TIP3    H230583   6.440   0.557  11.789  1.1934 -0.2791 -0.7228
 2130TIP3   OH230584   2.878   3.750  11.584 -0.7816  0.1223  0.1498
 2130TIP3    H130585   2.912   3.838  11.566  1.9465 -0.3614  2.1682
 2130TIP3    H230586   2.913   3.697  11.512  0.5648  0.1218  0.7724
 2131TIP3   OH230587   0.047   3.890   9.687 -0.2705  0.8434  0.2334
 2131TIP3    H130588   0.108   3.947   9.641 -1.4410  0.8648 -1.3756
 2131TIP3    H230589   0.099   3.813   9.712  0.5935  1.2303 -0.3525
 2132TIP3   OH230590   5.888   5.844  10.930 -0.1094  0.1575 -0.1775
 2132TIP3    H130591   5.822   5.870  10.866 -2.0462 -0.2819  1.5269
 2132TIP3    H230592   5.900   5.750  10.916  0.6149  0.3355 -0.8448
 2133TIP3   OH230593   1.940   5.059  10.412  0.6363  0.0773 -0.3774
 2133TIP3    H130594   1.954   4.964  10.412  0.9289  0.1022  0.9414
 2133TIP3    H230595   1.899   5.077  10.497 -0.0961  1.0424 -0.9120
 2134TIP3   OH230596   4.600   4.042  12.038  0.1146  0.3420  0.0892
 2134TIP3    H130597   4.642   4.075  12.118 -0.7028  1.3076  0.1367
 2134TIP3    H230598   4.551   4.117  12.004 -1.8901 -0.8481  0.2576
 2135TIP3   OH230599   0.922   0.080  13.101 -0.0579  0.3191 -0.1743
 2135TIP3    H130600   0.932   0.025  13.024 -0.8743 -0.7954  0.4738
 2135TIP3    H230601   0.845   0.044  13.146 -0.9216  2.3081  0.0306
 2136TIP3   OH230602   4.884   1.140  11.473  0.0039 -0.3954  0.2620
 2136TIP3    H130603   4.970   1.174  11.499  0.7119 -1.4323 -0.6219
 2136TIP3    H230604   4.864   1.185  11.391  1.6868 -3.0813 -1.7838
 2137TIP3   OH230605   0.431   4.497  12.140  0.0985 -0.1251 -0.2600
 2137TIP3    H130606   0.348   4.545  12.144  0.1377 -0.0859  2.8887
 2137TIP3    H230607   0.498   4.564  12.142  0.1938 -0.2079 -0.6298
 2138TIP3   OH230608   6.628   6.024  12.519  0.2591 -0.2852  0.0239
 2138TIP3    H130609   6.720   6.044  12.533  0.5493 -1.8869  0.5368
 2138TIP3    H230610   6.581   6.091  12.569  1.0630  1.5190 -1.5267
 2139TIP3   OH230611   5.620   1.576  12.642  0.1321 -0.3044  0.6854
 2139TIP3    H130612   5.592   1.572  12.551  0.6871  1.4810  0.3933
 2139TIP3    H230613   5.590   1.661  12.673  2.0096  0.1457  1.4415
 2140TIP3   OH230614   2.956   5.145  11.264  0.2171  0.5008 -0.1393
 2140TIP3    H130615   2.864   5.140  11.290  0.7888 -2.9975  1.7527
 2140TIP3    H230616   2.954   5.142  11.169 -1.6220  0.5546 -0.1411
 2141TIP3   OH230617   1.701   0.734  10.698 -0.0002 -0.0837 -1.0654
 2141TIP3    H130618   1.634   0.788  10.656 -0.4148 -0.1806 -0.5432
 2141TIP3    H230619   1.703   0.653  10.646 -0.0439  0.0588 -1.2889
 2142TIP3   OH230620   0.391   0.651  12.419 -0.0271 -0.0383 -0.2148
 2142TIP3    H130621   0.475   0.604  12.422  0.8578  1.4946  1.3371
 2142TIP3    H230622   0.333   0.595  12.368  1.9720 -1.0965 -1.4436
 2143TIP3   OH230623   2.870   1.374  11.054  0.1294  0.1893 -0.3545
 2143TIP3    H130624   2.784   1.386  11.015 -0.1619 -1.1705 -0.1754
 2143TIP3    H230625   2.865   1.289  11.098  1.7014 -0.1311 -0.7368
 2144TIP3   OH230626   0.556   2.153  11.039 -0.1769 -0.7467  0.2561
 2144TIP3    H130627   0.641   2.143  10.995  0.8383 -1.2221  2.2235
 2144TIP3    H230628   0.526   2.063  11.052 -0.6411 -0.5993  0.2012
 2145TIP3   OH230629   3.246   2.034  10.278  0.1369 -0.4412 -0.5645
 2145TIP3    H130630   3.244   1.970  10.349 -1.7930 -2.4672 -2.3057
 2145TIP3    H230631   3.325   2.014  10.229  1.2294  0.6664  0.6639
 2146TIP3   OH230632   0.658   1.096  13.156 -0.5726 -0.0323 -0.0870
 2146TIP3    H130633   0.668   1.183  13.194  0.9845  0.4177 -1.4011
 2146TIP3    H230634   0.587   1.055  13.206 -0.3979  1.4716  1.4684
 2147TIP3   OH230635   6.044   1.152  11.855 -0.6568  0.5053  0.1915
 2147TIP3    H130636   5.970   1.097  11.828  0.7310 -0.4514 -1.8714
 2147TIP3    H230637   6.048   1.142  11.950 -0.9334 -2.4134 -0.0266
 2148TIP3   OH230638   3.001   3.974  11.000  0.5878 -0.1390  0.4933
 2148TIP3    H130639   3.025   4.019  11.081 -0.9109  0.3400  0.6965
 2148TIP3    H230640   2.955   3.895  11.029 -1.1704  0.7204  0.1306
 2149TIP3   OH230641   3.550   6.826  12.818  0.2210  0.2559 -0.6705
 2149TIP3    H130642   3.498   6.756  12.858  0.1678  0.6456 -0.0421
 2149TIP3    H230643   3.633   6.784  12.796  0.7371  0.3042  1.0179
 2150TIP3   OH230644   1.150   5.775   9.953  0.2207 -0.2968  0.1879
 2150TIP3    H130645   1.221   5.711   9.950  1.2935  0.5683  3.2468
 2150TIP3    H230646   1.075   5.729   9.915  1.3403 -2.8199  0.7772
 2151TIP3   OH230647   2.557   3.052  11.305  0.0797 -0.6998  0.2504
 2151TIP3    H130648   2.616   2.988  11.346  2.7622  0.5595 -1.3723
 2151TIP3    H230649   2.583   3.136  11.341 -1.2178 -0.1500 -0.0204
 2152TIP3   OH230650   2.251   3.383  10.195  0.1486 -0.1210  0.1036
 2152TIP3    H130651   2.228   3.375  10.287 -0.4845 -0.7939 -0.1012
 2152TIP3    H230652   2.346   3.396  10.195 -0.1316  2.3103  0.9396
 2153TIP3   OH230653   4.555   2.957   9.612 -0.1924  0.6349  0.4738
 2153TIP3    H130654   4.523   2.904   9.539 -0.4132 -0.9809  1.6939
 2153TIP3    H230655   4.485   3.021   9.629 -1.5202 -0.9489  1.1989
 2154TIP3   OH230656   3.731   4.717  10.869  0.3917 -0.6831  0.2065
 2154TIP3    H130657   3.680   4.789  10.830 -1.4389 -1.4710  1.0543
 2154TIP3    H230658   3.795   4.695  10.801 -0.9709 -0.2470 -1.3002
 2155TIP3   OH230659   3.725   5.682  10.886  0.1702  0.0829 -0.0991
 2155TIP3    H130660   3.661   5.613  10.902 -0.0311  0.8508  3.1179
 2155TIP3    H230661   3.802   5.636  10.854 -0.6491 -1.3419 -0.1145
 2156TIP3   OH230662   1.221   5.627  10.840  0.3657 -0.8563  0.1855
 2156TIP3    H130663   1.182   5.697  10.787 -0.8067 -0.6989  1.2188
 2156TIP3    H230664   1.262   5.569  10.776 -2.3042 -1.5003 -1.0825
 2157TIP3   OH230665   6.183   0.998  10.119  0.4495 -0.0240  0.0355
 2157TIP3    H130666   6.175   0.922  10.175 -0.1758 -0.2750 -0.3817
 2157TIP3    H230667   6.158   0.967  10.032 -2.8269  1.2981  0.3645
 2158TIP3   OH230668   5.137   1.491  11.512 -0.3911  0.0216  0.3955
 2158TIP3    H130669   5.096   1.447  11.438 -0.8003 -0.2189  0.7596
 2158TIP3    H230670   5.096   1.577  11.516  0.8271  0.6845 -0.6772
 2159TIP3   OH230671   6.250   3.285  10.432 -0.4075 -0.6842 -0.2406
 2159TIP3    H130672   6.318   3.220  10.451  1.8285  1.5167 -0.2440
 2159TIP3    H230673   6.234   3.277  10.338  2.1152  0.7276 -0.8678
 2160TIP3   OH230674   3.313   6.293  10.441 -0.8341  0.5645 -0.3981
 2160TIP3    H130675   3.342   6.220  10.385  1.3059  1.9923 -1.2901
 2160TIP3    H230676   3.219   6.298  10.427 -0.6220 -0.2466 -2.5310
 2161TIP3   OH230677   4.497   1.827  11.656 -0.5319 -0.6485  0.2346
 2161TIP3    H130678   4.446   1.836  11.737 -0.2924  1.9455  0.1987
 2161TIP3    H230679   4.586   1.849  11.681 -0.4887  0.3845 -0.7217
 2162TIP3   OH230680   3.546   1.856  12.089  0.8883 -0.0929  0.6894
 2162TIP3    H130681   3.483   1.785  12.099  1.2033 -0.9532 -2.3731
 2162TIP3    H230682   3.618   1.833  12.147  1.0844 -2.4687 -0.3829
 2163TIP3   OH230683   5.241   0.013  12.384  0.1280 -0.1889 -0.2279
 2163TIP3    H130684   5.278   0.063  12.311 -0.2755  0.2151 -0.1639
 2163TIP3    H230685   5.194   0.078  12.436  0.0700 -0.5443  0.1701
 2164TIP3   OH230686   0.555   6.501  11.183 -0.1463 -0.0471  0.1477
 2164TIP3    H130687   0.472   6.542  11.159  0.0436 -0.2845 -0.9735
 2164TIP3    H230688   0.603   6.495  11.101  0.9785  0.0709  0.7774
 2165TIP3   OH230689   1.757   5.032  12.222 -0.2125  0.1815 -0.0367
 2165TIP3    H130690   1.746   5.062  12.131 -1.0412  1.5836  0.4783
 2165TIP3    H230691   1.796   4.946  12.215  0.8916  0.7720 -1.7014
 2166TIP3   OH230692   5.925   4.371  10.841  0.9018 -0.1095 -0.2619
 2166TIP3    H130693   5.994   4.407  10.786  0.9684 -2.2338 -1.6970
 2166TIP3    H230694   5.965   4.295  10.883 -0.1460 -0.5354 -0.0009
 2167TIP3   OH230695   5.435   0.627  10.949 -0.2277 -0.0344 -0.2758
 2167TIP3    H130696   5.341   0.636  10.933  0.0421  0.6244 -1.6536
 2167TIP3    H230697   5.443   0.549  11.004 -1.5152 -0.7012 -0.9804
 2168TIP3   OH230698   3.943   2.900  12.895  1.1452 -0.1159  0.4518
 2168TIP3    H130699   3.867   2.848  12.920 -0.2842  1.8053  0.3164
 2168TIP3    H230700   3.930   2.919  12.802  0.7016  1.8584  0.8649
 2169TIP3   OH230701   1.184   0.133  10.479  0.3493  0.2681 -0.4707
 2169TIP3    H130702   1.139   0.165  10.400 -2.2004 -2.2243 -0.2237
 2169TIP3    H230703   1.122   0.149  10.550  0.2358 -2.1949  0.0944
 2170TIP3   OH230704   3.350   2.052  10.719  0.2492 -0.6532 -0.3028
 2170TIP3    H130705   3.295   2.033  10.795  0.7425 -1.3594 -0.1126
 2170TIP3    H230706   3.422   1.989  10.725  0.3880 -0.6008 -1.2582
 2171TIP3   OH230707   3.770   5.575  12.702 -0.4277  0.0280 -0.2142
 2171TIP3    H130708   3.745   5.503  12.644 -0.3563 -0.7068  0.6500
 2171TIP3    H230709   3.819   5.635  12.645 -0.2698 -0.7259 -0.8918
 2172TIP3   OH230710   2.591   2.501  10.905 -0.2141  0.4841 -0.2651
 2172TIP3    H130711   2.618   2.475  10.817 -0.7512 -0.5040 -0.1487
 2172TIP3    H230712   2.672   2.533  10.946  0.0001  1.1573 -1.1708
 2173TIP3   OH230713   1.582   4.862   9.993 -0.1864 -0.0646  0.0336
 2173TIP3    H130714   1.547   4.812  10.067  0.2830  0.9297  0.9647
 2173TIP3    H230715   1.523   4.843   9.920  0.2918 -2.3969  0.1743
 2174TIP3   OH230716   0.510   0.913  10.858  0.8023  0.2003  0.7288
 2174TIP3    H130717   0.458   0.990  10.881  1.0985  0.8746 -0.7321
 2174TIP3    H230718   0.468   0.841  10.905 -0.7427  0.9143  0.5158
 2175TIP3   OH230719   6.151   5.150  12.230  0.0769 -0.5684 -0.3849
 2175TIP3    H130720   6.156   5.245  12.246  1.3264 -0.2479 -2.3608
 2175TIP3    H230721   6.070   5.138  12.181 -0.2135 -0.5680  0.0907
 2176TIP3   OH230722   6.339   2.856  12.008 -0.0032  0.1687  0.0351
 2176TIP3    H130723   6.433   2.870  12.016  0.2883 -1.4677 -0.0189
 2176TIP3    H230724   6.306   2.866  12.097  0.2780  0.3965  0.1163
 2177TIP3   OH230725   2.677   0.129  12.761  0.6074  0.3230 -0.6025
 2177TIP3    H130726   2.658   0.062  12.827 -0.0379  0.3970 -0.7110
 2177TIP3    H230727   2.769   0.113  12.738  0.1459 -1.3022 -1.4987
 2178TIP3   OH230728   4.665   3.201  13.115 -0.5154 -0.1194  0.1984
 2178TIP3    H130729   4.757   3.195  13.090 -0.1753  2.8506  0.4849
 2178TIP3    H230730   4.667   3.213  13.210 -1.3110 -1.1769  0.3725
 2179TIP3   OH230731   0.391   2.275  11.752  0.2447  0.0098 -0.0776
 2179TIP3    H130732   0.384   2.183  11.726 -0.1876  0.3396 -1.1755
 2179TIP3    H230733   0.355   2.277  11.841 -0.8093 -0.6938 -0.4649
 2180TIP3   OH230734   3.173   4.711  12.948  0.0047  0.0016  0.0854
 2180TIP3    H130735   3.252   4.701  12.895  0.1650 -0.7251  0.4533
 2180TIP3    H230736   3.151   4.622  12.976 -1.2768  0.1149 -0.4698
 2181TIP3   OH230737   4.296   0.930  11.054 -0.1603  0.0076  0.2981
 2181TIP3    H130738   4.341   0.929  10.969 -0.2831 -0.4384  0.2350
 2181TIP3    H230739   4.274   0.839  11.070  3.2342 -0.5684  2.6337
 2182TIP3   OH230740   1.117   4.530   9.902  0.1686 -0.0909 -0.5658
 2182TIP3    H130741   1.085   4.441   9.887  0.2531  0.0950 -1.9861
 2182TIP3    H230742   1.037   4.581   9.918  0.0653 -0.3029 -0.4003
 2183TIP3   OH230743   2.676   5.105  13.334  0.1555 -0.1906 -0.1607
 2183TIP3    H130744   2.588   5.075  13.354  0.9560 -0.9330  2.8330
 2183TIP3    H230745   2.707   5.046  13.266 -0.5657 -2.0707  1.0680
 2184TIP3   OH230746   1.418   1.271  12.830  0.6211  0.0889 -1.0452
 2184TIP3    H130747   1.333   1.285  12.786 -0.2120  0.8893  0.7251
 2184TIP3    H230748   1.483   1.303  12.767 -0.6301  2.9191 -1.0533
 2185TIP3   OH230749   2.095   6.815  11.590  0.4321  0.4856 -0.2136
 2185TIP3    H130750   2.130   6.731  11.562  1.4325  0.7440  0.2008
 2185TIP3    H230751   2.096   6.869  11.510 -1.7099 -0.3433 -0.8479
 2186TIP3   OH230752   1.934   5.191  13.184 -0.6306  0.2968 -0.1838
 2186TIP3    H130753   1.930   5.144  13.268 -0.0118 -0.1298 -0.3922
 2186TIP3    H230754   1.937   5.284  13.209  1.2960  0.1218  0.3332
 2187TIP3   OH230755   2.016   1.578  12.783  0.6525 -0.3653 -0.1176
 2187TIP3    H130756   1.989   1.606  12.871 -2.3951 -1.5411 -0.5620
 2187TIP3    H230757   1.945   1.521  12.753  2.5151 -1.5588 -2.6208
 2188TIP3   OH230758   3.595   4.908  11.189  0.4774  0.1359  0.0978
 2188TIP3    H130759   3.647   4.835  11.155  0.3406  0.6767 -1.3442
 2188TIP3    H230760   3.565   4.954  11.111 -2.2879 -0.2069  0.8512
 2189TIP3   OH230761   3.880   1.059  12.580  0.3652 -0.2145 -0.2099
 2189TIP3    H130762   3.968   1.066  12.541  0.8785 -0.2618  0.9094
 2189TIP3    H230763   3.833   1.000  12.521  1.6212 -1.5396  0.0582
 2190TIP3   OH230764   3.523   2.399  11.562  0.0070  0.1639 -0.1693
 2190TIP3    H130765   3.560   2.328  11.614  0.1979  1.5259  1.7017
 2190TIP3    H230766   3.593   2.425  11.502  0.8252  0.3336  0.8246
 2191TIP3   OH230767   6.601   3.369  12.394  0.1058 -0.2018 -0.1805
 2191TIP3    H130768   6.534   3.433  12.369 -0.8436 -0.9413  0.3722
 2191TIP3    H230769   6.638   3.403  12.475  1.9079  1.2713 -1.5446
 2192TIP3   OH230770   5.569   4.243  11.800  0.0755  0.0785 -0.3017
 2192TIP3    H130771   5.587   4.157  11.836  1.6497  0.4952 -0.0063
 2192TIP3    H230772   5.656   4.279  11.780 -0.4532  2.0874  0.7776
 2193TIP3   OH230773   4.022   6.088  10.957 -0.5522  0.1235 -0.5760
 2193TIP3    H130774   3.946   6.082  11.014 -0.8423 -0.8460 -1.0508
 2193TIP3    H230775   3.988   6.118  10.873 -0.4363 -0.4546 -0.8330
 2194TIP3   OH230776   0.017   2.966  10.310 -0.1093  0.7728  0.0203
 2194TIP3    H130777   0.064   2.990  10.230  0.4461 -0.3880 -0.0194
 2194TIP3    H230778  -0.062   2.921  10.279  0.9269 -1.1886  0.1013
 2195TIP3   OH230779   5.594   3.429  11.308 -0.4355 -0.4943  0.6747
 2195TIP3    H130780   5.613   3.350  11.360 -0.0735  0.6204  2.3119
 2195TIP3    H230781   5.499   3.439  11.313 -0.5447 -1.0973  0.0124
 2196TIP3   OH230782   1.096   3.279  10.229  0.1097  0.1316 -0.3371
 2196TIP3    H130783   1.159   3.206  10.224  0.7865  0.6359  0.5045
 2196TIP3    H230784   1.013   3.237  10.249  0.7012 -0.3675  1.3075
 2197TIP3   OH230785   4.537   0.033  11.967  0.2553  0.1530  0.2478
 2197TIP3    H130786   4.461   0.092  11.972  0.3293  0.2865 -0.1138
 2197TIP3    H230787   4.559   0.013  12.058 -0.0969  0.2662  0.3588
 2198TIP3   OH230788   5.370   2.075  11.801  0.5033  0.6161 -0.2638
 2198TIP3    H130789   5.440   2.010  11.802 -0.7431 -0.8350 -1.6690
 2198TIP3    H230790   5.411   2.155  11.836  2.8279 -0.1712 -0.9675
 2199TIP3   OH230791   2.395   2.123  10.940  0.1301 -0.6592 -0.1532
 2199TIP3    H130792   2.320   2.183  10.936  0.8047  0.1917 -3.7160
 2199TIP3    H230793   2.418   2.121  11.032 -2.2271  1.6691  0.6429
 2200TIP3   OH230794   3.264   1.964  12.804  0.1215  0.1378 -0.0501
 2200TIP3    H130795   3.196   1.905  12.772 -1.2249  1.5477  0.1080
 2200TIP3    H230796   3.335   1.954  12.740 -0.6385 -0.6030 -0.8098
 2201TIP3   OH230797   6.686   2.732  12.105  0.1811  0.2921 -0.0434
 2201TIP3    H130798   6.652   2.815  12.137 -1.4939  0.4050 -1.9473
 2201TIP3    H230799   6.775   2.753  12.075 -0.1136  1.3320 -0.2286
 2202TIP3   OH230800   1.957   6.155  10.444  0.3693 -0.4313 -0.1085
 2202TIP3    H130801   1.965   6.249  10.429  0.0215 -0.5740 -1.3311
 2202TIP3    H230802   1.915   6.122  10.365 -1.4447 -1.3365  1.1826
 2203TIP3   OH230803   6.546   4.925  12.865  0.2739 -0.4493  0.0530
 2203TIP3    H130804   6.570   5.017  12.874  0.0950 -0.4086  0.1353
 2203TIP3    H230805   6.570   4.885  12.949 -3.3711  0.3808  1.6969
 2204TIP3   OH230806   2.622   5.822  11.492 -0.0969  0.5860  0.1206
 2204TIP3    H130807   2.574   5.875  11.556 -0.2197  1.2884 -0.5446
 2204TIP3    H230808   2.578   5.838  11.409  1.1604  1.1166 -0.4703
 2205TIP3   OH230809   6.229   1.636  13.174  0.4044 -0.1910 -0.3649
 2205TIP3    H130810   6.202   1.585  13.098  1.1847  0.2638 -0.9683
 2205TIP3    H230811   6.289   1.578  13.222 -0.1893 -0.5249 -0.0196
 2206TIP3   OH230812   4.334   3.331  11.708 -0.3768  0.1737  0.7480
 2206TIP3    H130813   4.381   3.414  11.708 -0.9219  0.4825  1.0761
 2206TIP3    H230814   4.242   3.355  11.705 -0.5310 -0.4252  0.5663
 2207TIP3   OH230815   0.807   4.202  10.868  0.2772  0.0313  0.0293
 2207TIP3    H130816   0.863   4.223  10.793  0.7222  0.2085  0.4039
 2207TIP3    H230817   0.828   4.111  10.887  0.8475  0.2568  0.5078
 2208TIP3   OH230818   2.573   4.992  10.682  0.2977 -0.8371  0.1533
 2208TIP3    H130819   2.662   4.960  10.666  0.2678 -1.3978  1.0527
 2208TIP3    H230820   2.528   4.978  10.599  0.9748 -0.7852 -0.2331
 2209TIP3   OH230821   3.397   6.818  11.543 -0.1175 -0.1401 -0.8674
 2209TIP3    H130822   3.399   6.725  11.563  0.3175 -0.1963 -1.1521
 2209TIP3    H230823   3.304   6.842  11.548 -0.1057 -0.3183  0.3900
 2210TIP3   OH230824   1.910   3.249  11.065  0.4365  0.0749 -0.3038
 2210TIP3    H130825   1.935   3.212  11.149  0.3326  0.2430 -0.1999
 2210TIP3    H230826   1.848   3.186  11.028 -1.7584  1.3747  1.0028
 2211TIP3   OH230827   2.021   6.765  11.845 -0.4056 -0.3781 -0.7176
 2211TIP3    H130828   2.090   6.787  11.783 -0.9976  3.8731 -0.1614
 2211TIP3    H230829   1.939   6.771  11.795 -0.7159  0.2524 -0.1461
 2212TIP3   OH230830   1.559   1.767  12.229 -0.1005  0.1506 -0.2602
 2212TIP3    H130831   1.604   1.686  12.204 -0.4735  0.0828 -0.7159
 2212TIP3    H230832   1.550   1.816  12.147  1.1880  1.2025  0.1916
 2213TIP3   OH230833   6.217   5.211  11.459 -0.2562 -0.2180 -0.3070
 2213TIP3    H130834   6.182   5.257  11.383  2.5275  0.8165 -1.0881
 2213TIP3    H230835   6.195   5.267  11.534 -1.0943 -0.1200 -0.6182
 2214TIP3   OH230836   0.268   2.592  10.992 -0.0573 -0.1264 -0.5229
 2214TIP3    H130837   0.238   2.557  11.076 -0.0276 -0.6991 -0.7483
 2214TIP3    H230838   0.209   2.666  10.975 -0.3366 -0.2699 -0.2022
 2215TIP3   OH230839   5.381   4.438  10.913  0.2885  0.2729  0.0972
 2215TIP3    H130840   5.364   4.519  10.865 -1.1177 -0.0059  0.0909
 2215TIP3    H230841   5.449   4.393  10.861 -1.4032 -0.1842 -1.8840
 2216TIP3   OH230842   1.123   1.348   9.704  0.1334  0.5408  0.2035
 2216TIP3    H130843   1.054   1.290   9.736  0.3715  0.7014  1.0351
 2216TIP3    H230844   1.080   1.403   9.638 -0.2993  0.0099  0.0360
 2217TIP3   OH230845   2.946   1.891  12.008 -0.4928  0.3334  1.1268
 2217TIP3    H130846   3.027   1.867  12.053  0.0824 -0.9115 -0.4608
 2217TIP3    H230847   2.892   1.811  12.011 -1.4731  0.9892  1.7166
 2218TIP3   OH230848   6.784   1.715  12.098  0.3503 -0.2038  0.3530
 2218TIP3    H130849   6.837   1.648  12.054 -0.3043 -1.3729  1.2887
 2218TIP3    H230850   6.786   1.790  12.038  1.0179 -1.0851 -0.7748
 2219TIP3   OH230851   1.204   0.890  10.307 -0.5988  0.4556  0.5176
 2219TIP3    H130852   1.182   0.809  10.353 -0.3133 -0.7358 -1.3460
 2219TIP3    H230853   1.299   0.899  10.319 -0.2063 -0.8573 -1.2965
 2220TIP3   OH230854   4.455   5.421  11.502  0.4960  0.3547  0.0839
 2220TIP3    H130855   4.535   5.382  11.467 -1.0674 -1.7394 -1.3965
 2220TIP3    H230856   4.408   5.454  11.425 -0.3607  1.0199  0.8532
 2221TIP3   OH230857   2.584   0.195  11.049  0.5658 -0.3773  0.6137
 2221TIP3    H130858   2.625   0.229  11.128  0.5719 -1.3666  1.0458
 2221TIP3    H230859   2.560   0.105  11.071  0.0818 -0.4897 -0.3323
 2222TIP3   OH230860   2.782   2.060  13.415  0.3667  0.0754 -0.5302
 2222TIP3    H130861   2.854   2.043  13.354 -1.3086  0.3432 -2.6898
 2222TIP3    H230862   2.742   1.974  13.429  0.7757  0.0060  0.2827
 2223TIP3   OH230863   3.516   4.455  11.334 -0.6875 -1.0987 -0.3534
 2223TIP3    H130864   3.503   4.507  11.254 -0.5719 -1.0169 -0.3188
 2223TIP3    H230865   3.512   4.364  11.304 -0.1713 -1.0665 -0.5284
 2224TIP3   OH230866   0.457   6.416  13.059 -0.5665  0.1304  0.4256
 2224TIP3    H130867   0.400   6.441  13.132 -0.8553 -1.7143  0.8843
 2224TIP3    H230868   0.398   6.373  12.997  0.1154 -0.6119  0.2888
 2225TIP3   OH230869   6.528   6.057  11.337 -0.8646  0.3195 -0.1979
 2225TIP3    H130870   6.578   6.015  11.267 -0.9406  0.8079 -0.5477
 2225TIP3    H230871   6.438   6.061  11.303 -0.9406  0.3774  0.0096
 2226TIP3   OH230872   0.563   5.379  11.583 -0.0502  0.2243 -0.6620
 2226TIP3    H130873   0.540   5.472  11.576 -0.1489  0.2370 -0.1796
 2226TIP3    H230874   0.622   5.364  11.510  1.0415  0.9941  0.0300
 2227TIP3   OH230875   5.575   6.201  10.926  0.1053 -0.1530  0.1829
 2227TIP3    H130876   5.670   6.194  10.919  0.0392 -1.7865  0.3181
 2227TIP3    H230877   5.548   6.118  10.967 -1.5252 -0.5627 -1.5280
 2228TIP3   OH230878   2.687   4.423   9.811  0.2270  0.5152 -0.0694
 2228TIP3    H130879   2.766   4.454   9.766  1.6227 -0.4685  1.5493
 2228TIP3    H230880   2.716   4.408   9.902 -1.0644 -2.5353 -0.0415
 2229TIP3   OH230881   2.085   4.417   9.706 -0.3301 -0.0040  0.0623
 2229TIP3    H130882   2.094   4.480   9.778 -0.9946 -0.6079  0.6980
 2229TIP3    H230883   2.015   4.358   9.735  2.0785 -2.7650  0.7997
 2230TIP3   OH230884   4.933   2.654  12.631 -0.2283  0.1620  0.8602
 2230TIP3    H130885   5.012   2.651  12.577 -1.0436 -2.4141 -0.3549
 2230TIP3    H230886   4.965   2.638  12.720  0.7056 -0.1942  0.4821
 2231TIP3   OH230887   3.896   4.547  13.056 -1.1438 -0.0264  0.2713
 2231TIP3    H130888   3.957   4.607  13.099 -1.2545  1.0455 -0.9878
 2231TIP3    H230889   3.811   4.590  13.064 -1.1911  0.1185 -0.8116
 2232TIP3   OH230890   2.746   4.363  12.097 -0.2376  0.2093 -0.0130
 2232TIP3    H130891   2.815   4.309  12.135  0.9809  0.1157 -2.2111
 2232TIP3    H230892   2.733   4.433  12.162 -0.1538 -1.3392  1.7647
 2233TIP3   OH230893   1.407   5.422  12.782 -0.1494 -0.2021 -0.5643
 2233TIP3    H130894   1.375   5.475  12.709  0.3828  0.3440 -0.4079
 2233TIP3    H230895   1.480   5.371  12.746  0.9259  0.9772 -0.1395
 2234TIP3   OH230896   5.904   5.384  12.343 -0.4381  0.2588  0.3480
 2234TIP3    H130897   5.865   5.382  12.256  0.2621 -0.1424  0.0356
 2234TIP3    H230898   5.989   5.427  12.331  1.2340 -2.8390  0.1455
 2235TIP3   OH230899   0.557   1.162  11.394  0.3359  0.6560  0.5667
 2235TIP3    H130900   0.613   1.111  11.334  0.7782 -0.1138  1.5957
 2235TIP3    H230901   0.494   1.098  11.426  0.1387  1.0519  0.9638
 2236TIP3   OH230902   1.607   3.413  11.385  0.6761  0.0898 -0.0294
 2236TIP3    H130903   1.588   3.505  11.371  1.0234  0.4219  1.5101
 2236TIP3    H230904   1.608   3.402  11.480 -0.3281 -1.7078 -0.1648
 2237TIP3   OH230905   2.978   5.093  10.985  0.4608  0.3939  0.6401
 2237TIP3    H130906   2.909   5.059  10.929  2.1753  1.1367 -2.0879
 2237TIP3    H230907   3.009   5.016  11.034 -0.2529 -0.5597 -0.3514
 2238TIP3   OH230908   4.523   1.485  10.681  0.0891 -0.0329 -0.0540
 2238TIP3    H130909   4.535   1.392  10.697 -2.0062 -1.0215 -3.2478
 2238TIP3    H230910   4.442   1.507  10.726  0.3650  0.1647  0.3526
 2239TIP3   OH230911   5.410   2.965  12.556 -0.3054 -0.3248 -0.0364
 2239TIP3    H130912   5.458   3.046  12.539  0.3344 -0.7068 -0.0653
 2239TIP3    H230913   5.390   2.930  12.469 -2.0090  0.6135 -0.0687
 2240TIP3   OH230914   1.322   6.601  10.547 -0.3060 -0.4203  0.0751
 2240TIP3    H130915   1.292   6.633  10.462  1.5919  1.7801  0.1273
 2240TIP3    H230916   1.346   6.510  10.531  0.5776  0.1107 -1.9510
 2241TIP3   OH230917   5.897   2.110  13.032 -0.3216 -0.3664 -0.1396
 2241TIP3    H130918   5.972   2.150  12.988 -1.8291  1.0060 -1.5698
 2241TIP3    H230919   5.901   2.018  13.007  1.2626 -0.4630  0.3849
 2242TIP3   OH230920   0.692   4.825  11.169 -0.4491 -0.0716 -0.1491
 2242TIP3    H130921   0.600   4.844  11.152 -0.2241  0.4404 -0.8406
 2242TIP3    H230922   0.691   4.768  11.246 -1.3233  0.1838  0.0382
 2243TIP3   OH230923   1.732   0.351  10.212  0.6596  0.0130 -0.5267
 2243TIP3    H130924   1.765   0.278  10.159  1.4290  0.0125 -0.0646
 2243TIP3    H230925   1.754   0.429  10.161 -0.8611 -0.1021 -1.3915
 2244TIP3   OH230926   2.459   4.968  10.256 -0.1398  0.5435  1.0158
 2244TIP3    H130927   2.509   4.901  10.303 -1.1711 -0.1570  1.1431
 2244TIP3    H230928   2.525   5.023  10.215  0.7283 -0.8974  0.4296
 2245TIP3   OH230929   0.446   3.142  12.229 -0.3708  0.0687  0.0014
 2245TIP3    H130930   0.369   3.186  12.195 -0.4645  0.0380  0.1700
 2245TIP3    H230931   0.495   3.211  12.275 -0.3101  0.0831 -0.0845
 2246TIP3   OH230932   1.452   4.374  11.259 -0.0016  0.7972  0.5020
 2246TIP3    H130933   1.547   4.362  11.257  0.0583  0.9108  1.8769
 2246TIP3    H230934   1.437   4.440  11.326 -1.1864 -0.8496  1.9731
 2247TIP3   OH230935   2.711   2.060  11.334  0.1845 -0.5358  0.0952
 2247TIP3    H130936   2.801   2.033  11.353  0.2793 -0.8433 -0.7601
 2247TIP3    H230937   2.692   2.023  11.248 -1.4656 -2.2443  1.1095
 2248TIP3   OH230938   4.738   1.143  11.209 -0.1837 -0.4047  1.4071
 2248TIP3    H130939   4.731   1.237  11.227  1.3529 -0.0405  0.3269
 2248TIP3    H230940   4.656   1.121  11.163  0.3147  0.9176 -0.2369
 2249TIP3   OH230941   3.163   1.210  10.338 -0.0342  0.2348  0.2986
 2249TIP3    H130942   3.257   1.193  10.348 -0.3539 -2.0891 -0.0717
 2249TIP3    H230943   3.130   1.218  10.428  0.5528  1.4415  0.4225
 2250TIP3   OH230944   1.775   5.686  12.883  0.3223  0.1020 -0.1437
 2250TIP3    H130945   1.745   5.621  12.820  0.1560  0.6288 -0.6182
 2250TIP3    H230946   1.863   5.658  12.907  0.9303  0.6018 -1.6329
 2251TIP3   OH230947   4.624   0.781  11.025  0.5034 -0.4957 -0.7389
 2251TIP3    H130948   4.643   0.814  11.113 -0.2905  0.4737 -0.9070
 2251TIP3    H230949   4.605   0.688  11.037 -3.1940  0.2616  0.7198
 2252TIP3   OH230950   6.265   0.821  11.167  0.4024  0.0836 -0.0113
 2252TIP3    H130951   6.312   0.815  11.083 -0.1457  0.1538 -0.3272
 2252TIP3    H230952   6.331   0.851  11.229  0.7059  0.4748 -0.5137
 2253TIP3   OH230953   3.255   3.357  12.778  0.5347 -0.1129 -0.2489
 2253TIP3    H130954   3.250   3.409  12.859  0.5720 -0.0347 -0.2975
 2253TIP3    H230955   3.296   3.274  12.806 -0.6973 -0.6318  0.0924
 2254TIP3   OH230956   0.356   3.770  12.715 -0.1305 -0.2640 -0.1542
 2254TIP3    H130957   0.394   3.857  12.702  0.0207 -0.1688  0.8205
 2254TIP3    H230958   0.427   3.719  12.754 -0.0755 -0.9646 -1.1493
 2255TIP3   OH230959   5.167   4.585  11.232 -0.1109 -0.0983  0.7390
 2255TIP3    H130960   5.126   4.669  11.256  1.3455  0.1807  2.4278
 2255TIP3    H230961   5.117   4.556  11.155  0.3896  3.1304 -1.0009
 2256TIP3   OH230962   5.822   5.168  11.369  0.4233 -0.4313 -0.2533
 2256TIP3    H130963   5.813   5.164  11.274  0.0938 -4.5031 -0.2619
 2256TIP3    H230964   5.906   5.124  11.387 -0.1966 -1.0628  1.3365
 2257TIP3   OH230965   0.665   4.762  10.332 -0.3487 -0.3421  0.2966
 2257TIP3    H130966   0.686   4.693  10.269  0.3172  0.3792 -0.2847
 2257TIP3    H230967   0.741   4.768  10.389 -0.3299  0.0337  0.2346
 2258TIP3   OH230968   0.972   1.184  12.765 -0.2753  0.2740 -0.3232
 2258TIP3    H130969   0.895   1.146  12.723  0.5881  0.3666 -2.0394
 2258TIP3    H230970   0.936   1.250  12.826 -1.5287  1.8963 -2.6597
 2259TIP3   OH230971   4.753   4.953  11.161  0.0366  0.0763  0.1882
 2259TIP3    H130972   4.769   4.879  11.220  0.9576  0.4473  0.4206
 2259TIP3    H230973   4.835   4.964  11.114 -1.3646 -1.7835 -3.0402
 2260TIP3   OH230974   4.878   4.854  12.991  0.6173  0.1276  0.1779
 2260TIP3    H130975   4.833   4.930  13.027  0.1675 -0.5307  1.0557
 2260TIP3    H230976   4.947   4.890  12.935 -0.1142  1.1628 -0.0750
 2261TIP3   OH230977   5.693   1.045  11.300  0.0962 -0.1629  0.3885
 2261TIP3    H130978   5.698   0.968  11.244  1.1750  1.0554 -1.2684
 2261TIP3    H230979   5.782   1.080  11.302 -0.4867  1.4280  0.5413
 2262TIP3   OH230980   4.674   5.093  10.252  0.2024  0.6112  0.1406
 2262TIP3    H130981   4.641   5.113  10.164  0.5311 -1.5332 -0.5301
 2262TIP3    H230982   4.595   5.077  10.304  0.0376 -0.9566 -0.5373
 2263TIP3   OH230983   0.911   6.812  10.315 -0.1087  0.5420  0.1845
 2263TIP3    H130984   0.851   6.850  10.379  0.2830  1.7232 -0.1262
 2263TIP3    H230985   0.964   6.885  10.285  0.8903 -0.3136 -0.2130
 2264TIP3   OH230986   0.175   3.938  10.929  0.1489 -0.2241  0.4737
 2264TIP3    H130987   0.126   3.883  10.991 -0.8469  0.2766  0.1556
 2264TIP3    H230988   0.267   3.917  10.946 -0.0411  0.4583  2.6438
 2265TIP3   OH230989   0.840   3.946  12.629  0.0503  0.0291 -0.5410
 2265TIP3    H130990   0.882   3.863  12.652 -1.1814 -0.3979  0.2720
 2265TIP3    H230991   0.878   4.010  12.689  1.7993  0.3116 -1.8830
 2266TIP3   OH230992   4.511   3.749  11.299 -0.1123 -0.2313  0.2106
 2266TIP3    H130993   4.482   3.839  11.316  2.0318  0.3902  1.0027
 2266TIP3    H230994   4.521   3.744  11.204 -0.1899  0.3991  0.1626
 2267TIP3   OH230995   0.870   2.470  12.534  0.6603 -0.4244  0.5283
 2267TIP3    H130996   0.903   2.384  12.560 -0.4314 -1.1811 -0.4660
 2267TIP3    H230997   0.948   2.526  12.532  1.4094 -1.4115  1.0612
 2268TIP3   OH230998   5.222   1.110  11.427 -0.1458 -0.2893  0.3357
 2268TIP3    H130999   5.317   1.111  11.416 -0.2252  0.5495 -0.4255
 2268TIP3    H231000   5.209   1.093  11.520  0.8018  1.1163  0.7729
 2269TIP3   OH231001   4.305   1.578  10.818 -0.2877  0.8230 -0.1520
 2269TIP3    H131002   4.249   1.614  10.750 -0.0344  1.2380 -0.1452
 2269TIP3    H231003   4.301   1.642  10.889  0.4055  0.9968 -0.2599
 2270TIP3   OH231004   1.630   0.476  11.731 -0.3816  0.2204  0.1242
 2270TIP3    H131005   1.548   0.525  11.739  0.7259  2.2682 -0.1783
 2270TIP3    H231006   1.650   0.478  11.638  0.9476  1.4706  0.4013
 2271TIP3   OH231007   3.672   5.366  11.745 -0.0132  0.4833  0.2685
 2271TIP3    H131008   3.584   5.334  11.724  0.6659 -0.9840 -0.5594
 2271TIP3    H231009   3.660   5.421  11.822 -1.7678  0.9838 -0.3134
 2272TIP3   OH231010   3.675   3.766   9.881  0.6236  0.2559  0.3609
 2272TIP3    H131011   3.649   3.818   9.805 -1.2602 -2.8637 -1.3325
 2272TIP3    H231012   3.770   3.770   9.881  0.6297  1.3974 -1.3610
 2273TIP3   OH231013   3.468   0.061  10.985  0.1226 -0.1837  0.2080
 2273TIP3    H131014   3.470  -0.015  10.925  0.9267  0.2538 -0.3514
 2273TIP3    H231015   3.422   0.029  11.062 -1.0220 -0.7509 -0.6647
 2274TIP3   OH231016   6.230   1.766  10.773  0.0851  0.1196 -0.1436
 2274TIP3    H131017   6.282   1.698  10.815 -0.6528 -0.6524 -0.4501
 2274TIP3    H231018   6.294   1.831  10.745  0.7075  0.0421  1.0294
 2275TIP3   OH231019   5.566   1.522  12.368 -0.0101 -0.5190 -0.0630
 2275TIP3    H131020   5.649   1.538  12.325 -0.0841 -1.1579 -0.4509
 2275TIP3    H231021   5.505   1.583  12.326  0.2925  0.0678  0.3387
 2276TIP3   OH231022   3.204   0.483  13.133 -0.3970  0.3196  0.8488
 2276TIP3    H131023   3.222   0.573  13.161  0.2851  0.4532  0.0140
 2276TIP3    H231024   3.133   0.492  13.069  0.7453  0.4426 -0.4224
 2277TIP3   OH231025   3.554   3.065  12.049  0.1147  0.0437 -0.0771
 2277TIP3    H131026   3.536   3.093  12.139  1.2827 -0.1078  0.2215
 2277TIP3    H231027   3.616   3.130  12.015  0.5074 -0.4847 -0.4014
 2278TIP3   OH231028   4.018   4.744  11.145  0.4013 -0.2324 -0.2283
 2278TIP3    H131029   4.060   4.760  11.229  0.0454  0.8937 -0.2481
 2278TIP3    H231030   4.067   4.670  11.107  2.9904  1.5669 -0.6662
 2279TIP3   OH231031   0.443   6.162  11.971  0.1263 -0.4412  0.0515
 2279TIP3    H131032   0.489   6.246  11.977 -0.2933 -0.2781  1.0977
 2279TIP3    H231033   0.513   6.098  11.956  0.4203  0.1140 -1.0746
 2280TIP3   OH231034   1.546   3.692  12.973  0.0195 -0.0292  0.2001
 2280TIP3    H131035   1.633   3.696  12.933  0.0815  0.9757  0.4029
 2280TIP3    H231036   1.505   3.775  12.949 -1.0265 -0.6410 -0.1902
 2281TIP3   OH231037   5.735   0.944  11.546  0.4210  0.0035  0.3847
 2281TIP3    H131038   5.710   1.003  11.475  1.3097 -0.0318  0.0249
 2281TIP3    H231039   5.740   1.000  11.624  1.1172  0.3788  0.0749
 2282TIP3   OH231040   2.335   2.219  12.473  0.9241  0.3616 -0.4274
 2282TIP3    H131041   2.322   2.190  12.383  0.8065 -0.6542 -0.0940
 2282TIP3    H231042   2.340   2.314  12.467 -0.3143  0.3952 -1.3590
 2283TIP3   OH231043   3.717   4.371  12.887  0.0653 -0.5070 -0.7039
 2283TIP3    H131044   3.757   4.441  12.939  0.6291  0.6746 -2.6212
 2283TIP3    H231045   3.697   4.303  12.951 -0.4912  1.3679  1.2523
 2284TIP3   OH231046   5.202   1.892  10.671  0.5585  0.4852 -0.0176
 2284TIP3    H131047   5.114   1.888  10.635  0.6633  1.5387 -0.4081
 2284TIP3    H231048   5.247   1.817  10.632 -0.0861  0.0783 -0.0013
 2285TIP3   OH231049   0.540   0.066  10.269 -0.7090 -0.3603  0.0547
 2285TIP3    H131050   0.468   0.023  10.315 -0.6412 -1.0368 -0.4622
 2285TIP3    H231051   0.498   0.126  10.208 -0.8007  0.5501  0.9855
 2286TIP3   OH231052   0.280   1.527  12.406  0.1087 -0.0585  0.4995
 2286TIP3    H131053   0.237   1.604  12.444  0.1381  0.1566  0.0929
 2286TIP3    H231054   0.372   1.553  12.397  0.5814 -0.8788  2.3641
 2287TIP3   OH231055   3.716   0.809  11.652 -0.2894 -0.4266 -0.7181
 2287TIP3    H131056   3.725   0.793  11.746  2.5031 -0.6461 -0.9311
 2287TIP3    H231057   3.682   0.898  11.646 -1.5324 -0.7846  0.4539
 2288TIP3   OH231058   2.795   2.935  11.498  0.0743  0.2663 -0.0633
 2288TIP3    H131059   2.763   2.867  11.558 -2.4686  0.2885 -1.2706
 2288TIP3    H231060   2.888   2.915  11.487 -0.3015 -2.2412  0.6218
 2289TIP3   OH231061   4.596   4.706  10.416 -0.5638  0.5530  0.0557
 2289TIP3    H131062   4.616   4.797  10.438 -1.7607  0.9184 -0.2921
 2289TIP3    H231063   4.591   4.704  10.321 -0.7475  0.1597  0.0718
 2290TIP3   OH231064   4.446   3.281  12.802  0.4222  0.1341  0.0314
 2290TIP3    H131065   4.406   3.245  12.723 -0.4642 -0.1195  0.5830
 2290TIP3    H231066   4.538   3.291  12.780  0.0725  0.7342 -1.2809
 2291TIP3   OH231067   0.655   2.217  10.708 -1.0490  0.2980 -0.2406
 2291TIP3    H131068   0.649   2.123  10.690 -1.1205  0.2747 -0.0967
 2291TIP3    H231069   0.717   2.250  10.644  0.3971 -0.1611  0.8687
 2292TIP3   OH231070   0.519   4.998   9.698 -0.1071 -0.1820  0.2384
 2292TIP3    H131071   0.483   4.910   9.710  1.4950 -0.7844  0.8564
 2292TIP3    H231072   0.613   4.987   9.708  0.0427  1.7877  1.5283
 2293TIP3   OH231073   1.628   2.084  11.199 -0.1229 -0.2454  0.3061
 2293TIP3    H131074   1.651   2.005  11.248  0.4205 -0.9343 -1.0028
 2293TIP3    H231075   1.635   2.058  11.107 -0.1408  1.2720 -0.1557
 2294TIP3   OH231076   5.678   2.927   9.832 -0.1499  0.2959 -0.4815
 2294TIP3    H131077   5.614   2.988   9.796 -1.7431 -1.0571 -0.0576
 2294TIP3    H231078   5.642   2.840   9.814  1.7647 -0.5364 -0.5546
 2295TIP3   OH231079   5.381   4.229  10.604 -0.0745 -0.7211  0.5017
 2295TIP3    H131080   5.420   4.149  10.568  1.3364  0.5148 -0.9109
 2295TIP3    H231081   5.444   4.298  10.581 -1.0353  0.7422  2.0384
 2296TIP3   OH231082   6.420   3.941  11.807 -0.3453  0.0978  0.2153
 2296TIP3    H131083   6.438   4.008  11.741  1.3598 -0.3862  0.1406
 2296TIP3    H231084   6.444   3.859  11.765 -0.7984 -0.3814  0.8826
 2297TIP3   OH231085   5.160   1.623  13.317 -0.0447 -0.2267 -0.1965
 2297TIP3    H131086   5.101   1.563  13.362 -1.7959 -0.0585 -2.1629
 2297TIP3    H231087   5.210   1.567  13.257 -1.2759  0.1343 -1.6153
 2298TIP3   OH231088   1.865   3.963  12.477  0.0416 -0.3199  0.5781
 2298TIP3    H131089   1.865   3.936  12.569 -0.1091 -1.0694  0.3634
 2298TIP3    H231090   1.873   4.058  12.480 -0.8848 -0.2569  1.3907
 2299TIP3   OH231091   6.697   1.214  11.572 -0.0892 -0.1069  0.6875
 2299TIP3    H131092   6.793   1.217  11.566  0.0335 -1.0834  1.6749
 2299TIP3    H231093   6.676   1.279  11.638 -0.1020  0.1157  0.4625
 2300TIP3   OH231094   2.008   2.652  13.425 -0.7658  0.1911  0.3386
 2300TIP3    H131095   2.040   2.562  13.430 -2.9238 -0.9900 -3.1036
 2300TIP3    H231096   2.087   2.705  13.411  0.4378 -1.3203  1.1681
 2301TIP3   OH231097   6.689   4.187  12.215  0.1470  0.4865 -0.8590
 2301TIP3    H131098   6.750   4.120  12.183  0.8419  0.0671  1.1298
 2301TIP3    H231099   6.651   4.148  12.294  0.4789  2.3743  0.2881
 2302TIP3   OH231100   4.425   6.648  12.599  0.4375 -0.1017 -0.0728
 2302TIP3    H131101   4.444   6.704  12.523  1.1386  1.1370  0.9588
 2302TIP3    H231102   4.359   6.586  12.568  0.6610  0.4111 -1.6664
 2303TIP3   OH231103   3.487   5.076  12.169  0.1949  0.8247  0.1434
 2303TIP3    H131104   3.569   5.063  12.217 -0.0638 -2.8945 -0.1123
 2303TIP3    H231105   3.418   5.062  12.233 -0.2857  2.4918  0.0368
 2304TIP3   OH231106   0.766   1.184  11.039  0.2361 -0.2311 -0.2137
 2304TIP3    H131107   0.733   1.135  11.115  0.5729 -1.7896 -1.0314
 2304TIP3    H231108   0.761   1.275  11.066  2.7021 -0.8031  2.6971
 2305TIP3   OH231109   1.260   5.682  11.879 -0.1502  0.5387  0.0774
 2305TIP3    H131110   1.207   5.736  11.821  0.7863  1.0791 -0.2931
 2305TIP3    H231111   1.284   5.740  11.951  0.3111  0.4288  0.0144
 2306TIP3   OH231112   2.501   3.416  10.029  0.2469  0.0417 -0.1186
 2306TIP3    H131113   2.454   3.376   9.956 -2.6621  0.6220  1.2842
 2306TIP3    H231114   2.572   3.466   9.988 -0.0623 -1.2211 -2.3453
 2307TIP3   OH231115   1.660   4.232  11.031 -0.4370 -0.1289  0.0021
 2307TIP3    H131116   1.729   4.213  11.095 -0.8016 -1.8128 -0.0683
 2307TIP3    H231117   1.701   4.217  10.946 -0.7258 -0.5900 -0.0588
 2308TIP3   OH231118   3.988   4.764  12.079  0.1517 -0.1636  0.4829
 2308TIP3    H131119   4.020   4.806  12.000  0.7172  0.1326  0.8631
 2308TIP3    H231120   3.897   4.742  12.059 -0.0783  1.0067  0.1796
 2309TIP3   OH231121   1.816   2.807  11.916 -0.1857 -0.1037  0.5580
 2309TIP3    H131122   1.806   2.735  11.853 -0.5677 -0.2232  0.7533
 2309TIP3    H231123   1.782   2.772  11.998 -0.4303  0.3147  0.6410
 2310TIP3   OH231124   5.297   5.462  13.228  0.0136  0.0887 -0.2461
 2310TIP3    H131125   5.380   5.416  13.211  0.1130 -0.4604  1.5113
 2310TIP3    H231126   5.324   5.546  13.265 -0.1769 -0.6897  1.7647
 2311TIP3   OH231127   2.415   4.831  10.835 -0.2816 -0.4008 -0.1702
 2311TIP3    H131128   2.458   4.903  10.789 -1.9152  1.3170  0.8422
 2311TIP3    H231129   2.479   4.802  10.900  1.0007 -0.9927 -1.6533
 2312TIP3   OH231130   6.425   2.282  11.645  0.0057 -0.2256  0.3999
 2312TIP3    H131131   6.495   2.343  11.625  0.3281 -0.4722  0.7596
 2312TIP3    H231132   6.362   2.333  11.696 -0.6499  0.3100 -0.9244
 2313TIP3   OH231133   5.482   3.028  11.886 -0.0247  0.1830  0.1697
 2313TIP3    H131134   5.478   2.940  11.924  0.5202 -0.3293 -0.9109
 2313TIP3    H231135   5.453   3.086  11.956 -3.6781 -1.1011 -0.0821
 2314TIP3   OH231136   2.916   3.665  11.836 -0.0400 -0.2919  0.1697
 2314TIP3    H131137   3.005   3.632  11.824 -0.1938 -0.0438 -2.0915
 2314TIP3    H231138   2.888   3.690  11.748 -2.8852 -1.6630  0.5851
 2315TIP3   OH231139   2.777   4.236  11.843 -0.1218  0.5479 -0.2523
 2315TIP3    H131140   2.865   4.267  11.823 -0.1127  0.7881  0.1633
 2315TIP3    H231141   2.750   4.287  11.919 -0.2624 -0.1752  0.1871
 2316TIP3   OH231142   5.244   4.976  10.970  0.5672  0.3229  0.4613
 2316TIP3    H131143   5.272   4.928  10.892  2.0879  1.5648  0.2108
 2316TIP3    H231144   5.150   4.957  10.976  0.6450 -0.7409 -0.9833
 2317TIP3   OH231145   0.576   5.667  11.287  0.1866 -0.1595  0.1572
 2317TIP3    H131146   0.516   5.593  11.299  1.0255 -1.2506 -1.8709
 2317TIP3    H231147   0.637   5.660  11.361 -0.6363 -0.5795  0.8123
 2318TIP3   OH231148   1.234   4.093  12.692 -0.1737  0.1363  0.5115
 2318TIP3    H131149   1.205   4.018  12.640 -2.4467  0.3517  1.3582
 2318TIP3    H231150   1.218   4.169  12.636  0.7655  0.1116  0.1987
 2319TIP3   OH231151   2.400   6.459   9.131 -0.2868 -0.4527 -0.4056
 2319TIP3    H131152   2.482   6.469   9.179  0.5214  1.2016 -1.9809
 2319TIP3    H231153   2.363   6.376   9.162  2.5249 -1.8241 -0.4258
 2320TIP3   OH231154   5.454   2.534  11.721 -0.3140  0.4698  0.8733
 2320TIP3    H131155   5.394   2.495  11.657 -2.0217 -2.1949  3.8024
 2320TIP3    H231156   5.532   2.479  11.718 -0.1914  0.6520  0.7290
 2321TIP3   OH231157   3.124   3.240  12.256  0.2633 -0.5968  0.0692
 2321TIP3    H131158   3.134   3.305  12.326 -0.4529 -0.0139 -0.3596
 2321TIP3    H231159   3.055   3.182  12.287 -0.4807  0.0180 -0.4051
 2322TIP3   OH231160   2.823   1.765   9.963  0.0062 -0.3345  0.0400
 2322TIP3    H131161   2.789   1.724  10.042  0.1793  1.1580  0.9294
 2322TIP3    H231162   2.844   1.855   9.990 -0.3714  0.3546 -1.8204
 2323TIP3   OH231163   2.198   6.271  10.669  0.1090  0.2736  0.2106
 2323TIP3    H131164   2.173   6.327  10.742 -0.1429 -1.1075  1.2180
 2323TIP3    H231165   2.158   6.186  10.689  0.1570 -0.1813 -1.4635
 2324TIP3   OH231166   5.118   4.037  12.659  0.1883  0.2294  0.2890
 2324TIP3    H131167   5.199   4.043  12.710 -0.2674  0.7228  0.9635
 2324TIP3    H231168   5.123   4.111  12.598  0.8865 -0.5499 -0.6357
 2325TIP3   OH231169   0.020   4.039  11.848  0.2928 -0.1712 -0.0805
 2325TIP3    H131170   0.008   3.979  11.775 -0.8294 -1.1404  0.8737
 2325TIP3    H231171  -0.065   4.081  11.859  1.1450  1.9030 -0.9543
 2326TIP3   OH231172   4.243   2.071  11.996  0.4209  0.7545  0.0008
 2326TIP3    H131173   4.277   2.121  12.070 -0.1875  1.1155  0.0465
 2326TIP3    H231174   4.275   2.118  11.919  0.7840  0.5667  0.0378
 2327TIP3   OH231175   6.620   4.194  10.693  0.4776 -0.0297  0.0775
 2327TIP3    H131176   6.595   4.161  10.606  1.8003 -1.4914  0.2108
 2327TIP3    H231177   6.707   4.157  10.709 -0.0360 -0.4142  2.3392
 2328TIP3   OH231178   5.459   6.799  12.527 -0.2103  0.2248 -0.7351
 2328TIP3    H131179   5.440   6.776  12.618  0.1577 -0.1991 -0.7602
 2328TIP3    H231180   5.373   6.806  12.486 -0.3677  0.0739 -0.4398
 2329TIP3   OH231181   3.365   5.301  12.053  0.2389 -0.2432 -0.1198
 2329TIP3    H131182   3.375   5.213  12.088 -0.3317 -0.1341  0.3293
 2329TIP3    H231183   3.271   5.313  12.044  0.3418  0.0490 -0.8954
 2330TIP3   OH231184   0.106   1.883  11.241  0.5248  0.3412 -0.3873
 2330TIP3    H131185   0.197   1.862  11.265  0.7121  0.1177 -1.2391
 2330TIP3    H231186   0.055   1.858  11.318  1.2140  0.7675  0.2280
 2331TIP3   OH231187   2.842   2.471  11.816 -0.3497  0.1996  0.7934
 2331TIP3    H131188   2.818   2.410  11.887  0.0758  0.5579  1.2498
 2331TIP3    H231189   2.933   2.450  11.797 -1.4591 -2.6786 -2.4481
 2332TIP3   OH231190   0.215   5.150  12.669  0.0839 -0.4689  0.4344
 2332TIP3    H131191   0.211   5.244  12.685 -0.8186 -0.5630  0.8245
 2332TIP3    H231192   0.203   5.142  12.574 -1.9780 -0.2794  0.6399
 2333TIP3   OH231193   6.437   1.875  11.036 -0.4005 -1.0030 -0.1609
 2333TIP3    H131194   6.375   1.819  11.083 -0.0749 -1.5147 -0.3229
 2333TIP3    H231195   6.388   1.908  10.961 -0.7811 -0.5664  0.2772
 2334TIP3   OH231196   0.781   3.364  11.013 -0.4205 -0.0400  0.4500
 2334TIP3    H131197   0.873   3.364  11.038  0.0421  0.4052 -1.1370
 2334TIP3    H231198   0.734   3.382  11.094  0.9223  0.2293  1.1931
 2335TIP3   OH231199   2.774   3.349  11.780  0.0671  0.2691  0.1738
 2335TIP3    H131200   2.869   3.358  11.769 -0.0034 -0.7391 -1.7385
 2335TIP3    H231201   2.746   3.296  11.705 -1.9850  0.3353  0.8236
 2336TIP3   OH231202   6.252   0.283  12.330 -0.8092  0.2413  0.1835
 2336TIP3    H131203   6.240   0.335  12.410 -0.5441 -0.5092  0.7179
 2336TIP3    H231204   6.337   0.241  12.341 -0.5367  0.5205 -0.7317
 2337TIP3   OH231205   0.451   5.813  12.649  0.2031 -0.4627 -0.8630
 2337TIP3    H131206   0.398   5.788  12.724 -0.8147  1.2406 -0.9673
 2337TIP3    H231207   0.534   5.843  12.688 -1.3471  3.3180  0.0129
 2338TIP3   OH231208   1.977   1.881  10.139 -0.0307 -0.3796  0.8365
 2338TIP3    H131209   2.048   1.840  10.089  1.1040  1.1136  1.1475
 2338TIP3    H231210   2.015   1.895  10.226 -0.2391  1.5509  0.6663
 2339TIP3   OH231211   1.960   2.766  10.882 -0.2966 -0.3123 -0.2789
 2339TIP3    H131212   1.997   2.709  10.813  1.1036 -0.5429  0.6154
 2339TIP3    H231213   1.962   2.712  10.961  0.1438  0.6461  0.3833
 2340TIP3   OH231214   4.731   4.947  11.493  0.4752  0.1042  0.0680
 2340TIP3    H131215   4.821   4.915  11.497  1.0546  1.3620 -1.5139
 2340TIP3    H231216   4.687   4.886  11.434  0.3461 -0.3472  0.6197
 2341TIP3   OH231217   2.157   4.502  13.221 -0.6705 -0.3642 -0.3912
 2341TIP3    H131218   2.167   4.533  13.131 -0.0416  0.4227 -0.0612
 2341TIP3    H231219   2.146   4.407  13.213  0.2668 -0.4174 -1.2481
 2342TIP3   OH231220   3.864   0.482  10.551 -0.6802 -0.7716  0.1147
 2342TIP3    H131221   3.932   0.545  10.572 -2.0603  0.0091  2.6224
 2342TIP3    H231222   3.836   0.505  10.462  0.5660  0.5003  0.0249
 2343TIP3   OH231223   4.425   5.260  12.639 -0.1952 -0.3810 -0.1419
 2343TIP3    H131224   4.513   5.293  12.618  0.7098 -2.1856  0.5800
 2343TIP3    H231225   4.375   5.271  12.558  0.8326  0.2233 -0.7173
 2344TIP3   OH231226   1.052   6.571  12.151  0.1477  0.6732 -0.3131
 2344TIP3    H131227   1.098   6.646  12.114  0.6998  1.4819  1.8092
 2344TIP3    H231228   0.996   6.609  12.219 -1.7124 -0.5771 -1.0818
 2345TIP3   OH231229   1.449   4.134  11.799 -0.2832 -0.3486 -0.6019
 2345TIP3    H131230   1.536   4.165  11.773 -0.9303  1.2067 -1.0155
 2345TIP3    H231231   1.464   4.087  11.882  0.9355 -0.0901 -0.6598
 2346TIP3   OH231232   5.517   5.309  11.931  0.3469 -0.1346 -0.1709
 2346TIP3    H131233   5.513   5.359  11.849 -0.2100 -0.2861 -0.2376
 2346TIP3    H231234   5.440   5.336  11.980 -0.2017 -1.2208 -0.3894
 2347TIP3   OH231235   2.474   6.244  10.616 -0.1453  0.2669 -0.6324
 2347TIP3    H131236   2.499   6.152  10.622  0.8139  0.5680  0.7580
 2347TIP3    H231237   2.379   6.243  10.613 -0.2247 -0.7615  0.7575
 2348TIP3   OH231238   1.617   6.627  10.492  0.0221  0.4462 -0.2257
 2348TIP3    H131239   1.563   6.547  10.492  0.0960  0.3545  1.2806
 2348TIP3    H231240   1.553   6.699  10.488 -0.4211  0.3782  2.8472
 2349TIP3   OH231241   3.800   2.391  12.072  0.1261  0.9897 -0.0933
 2349TIP3    H131242   3.889   2.389  12.107 -0.1235  3.9822  1.0588
 2349TIP3    H231243   3.810   2.363  11.981  2.0807  0.3601  0.2688
 2350TIP3   OH231244   3.193   0.616  11.075 -0.2149  0.1715  0.0239
 2350TIP3    H131245   3.152   0.702  11.064  1.2946  1.2778  2.3089
 2350TIP3    H231246   3.250   0.608  10.999  0.1871  1.5712  0.1353
 2351TIP3   OH231247   4.674   1.171  11.782  0.4427 -0.3646 -0.2685
 2351TIP3    H131248   4.735   1.177  11.856  0.4684 -0.2931 -0.2952
 2351TIP3    H231249   4.665   1.077  11.766  0.9573 -0.3638 -0.5985
 2352TIP3   OH231250   5.934   2.611  11.404 -0.1367 -0.0528  0.6040
 2352TIP3    H131251   6.004   2.669  11.434 -0.2706  0.4744 -0.0622
 2352TIP3    H231252   5.978   2.528  11.384  0.0267 -0.2480  1.7367
 2353TIP3   OH231253   0.500   5.098  12.661 -0.3597 -0.3575  0.1294
 2353TIP3    H131254   0.408   5.092  12.689 -0.5069  0.0662 -0.2639
 2353TIP3    H231255   0.519   5.192  12.661 -0.6295 -0.2555 -2.0465
 2354TIP3   OH231256   3.838   0.627   9.992  0.2985  0.0255 -0.1073
 2354TIP3    H131257   3.818   0.658   9.904  0.6946  0.1544 -0.1563
 2354TIP3    H231258   3.800   0.692  10.050  1.0497  0.5754 -0.2078
 2355TIP3   OH231259   0.351   6.096  11.396 -0.2884 -0.4709  0.2808
 2355TIP3    H131260   0.273   6.152  11.391  0.5875  0.8253  0.4447
 2355TIP3    H231261   0.422   6.157  11.415  0.6191 -1.7464  1.1765
 2356TIP3   OH231262   2.669   0.956  12.393 -0.5400  0.4082 -0.4384
 2356TIP3    H131263   2.688   0.945  12.300 -1.7057 -0.0879 -0.6474
 2356TIP3    H231264   2.662   1.050  12.406  1.7574  0.6272 -0.3590
 2357TIP3   OH231265   3.136   6.493  11.096 -0.1995 -0.0064  0.2116
 2357TIP3    H131266   3.051   6.466  11.062  0.1146 -0.8339  0.0484
 2357TIP3    H231267   3.155   6.575  11.050 -0.9570  0.2462  0.3432
 2358TIP3   OH231268   5.043   2.494  12.896 -0.3717  0.7757  0.2242
 2358TIP3    H131269   5.123   2.541  12.919 -0.3088  1.0771 -0.5858
 2358TIP3    H231270   5.015   2.452  12.978  0.1851  1.3019  0.6889
 2359TIP3   OH231271   3.948   2.762  10.451  0.0837  0.3960 -0.1969
 2359TIP3    H131272   4.031   2.719  10.469 -1.1524 -1.4388  1.4457
 2359TIP3    H231273   3.950   2.778  10.356  1.7508 -0.7857 -0.4099
 2360TIP3   OH231274   6.073   5.704  12.491 -0.4115  0.0286  0.2526
 2360TIP3    H131275   5.992   5.723  12.443 -0.0475  2.6496  0.5009
 2360TIP3    H231276   6.143   5.733  12.431  0.2567 -0.7117  0.6666
 2361TIP3   OH231277   2.111   0.460  12.817 -0.2013  0.8288 -0.7046
 2361TIP3    H131278   2.205   0.445  12.807 -0.2781 -1.4160  0.9629
 2361TIP3    H231279   2.104   0.534  12.877  0.5414  0.6928 -0.4431
 2362TIP3   OH231280   5.133   3.083  10.690 -0.3098  0.2156 -0.6395
 2362TIP3    H131281   5.194   3.030  10.639  0.1026 -0.1249  0.1754
 2362TIP3    H231282   5.130   3.167  10.645  0.7936  0.2481 -0.6757
 2363TIP3   OH231283   2.781   2.364  12.072  0.3585 -0.1407  0.6572
 2363TIP3    H131284   2.756   2.409  12.152 -0.5818  1.2626 -0.3922
 2363TIP3    H231285   2.738   2.279  12.078  0.0640  0.0613  1.4913
 2364TIP3   OH231286   1.467   0.644  11.308  0.8508  1.0277  0.1426
 2364TIP3    H131287   1.555   0.672  11.335  1.3066  0.5231 -0.7946
 2364TIP3    H231288   1.446   0.571  11.367  0.1159  2.5297  1.8524
 2365TIP3   OH231289   2.322   0.622  11.579  0.2059 -0.2142 -0.1461
 2365TIP3    H131290   2.386   0.571  11.630 -0.2048  0.1685  0.7734
 2365TIP3    H231291   2.238   0.603  11.620 -0.0938  0.3561 -0.4871
 2366TIP3   OH231292   4.317   3.131   9.688 -0.2502 -0.2801 -0.0835
 2366TIP3    H131293   4.287   3.041   9.703  1.7873 -1.1173 -0.7432
 2366TIP3    H231294   4.288   3.179   9.766 -0.3553 -1.7748  0.8340
 2367TIP3   OH231295   2.604   6.521  11.040  0.3812  0.2946  0.0618
 2367TIP3    H131296   2.590   6.429  11.063  0.5176  0.3253  0.2681
 2367TIP3    H231297   2.582   6.526  10.947  0.0789  0.1162  0.1229
 2368TIP3   OH231298   3.147   4.813  12.174 -0.4167 -0.3042  0.1038
 2368TIP3    H131299   3.145   4.729  12.219  0.3918  0.4993  1.7190
 2368TIP3    H231300   3.066   4.857  12.202  0.7464  0.7613  2.0201
 2369TIP3   OH231301   0.166   5.304  11.109 -0.4824 -0.4784  0.9523
 2369TIP3    H131302   0.074   5.281  11.100 -0.7694 -0.3569  3.1611
 2369TIP3    H231303   0.200   5.242  11.174  1.3510 -1.3622 -0.7252
 2370TIP3   OH231304   3.041   3.029  11.766  0.0610  0.1297  0.2073
 2370TIP3    H131305   3.072   2.955  11.714 -0.4983 -0.0033  0.0551
 2370TIP3    H231306   3.081   3.016  11.852 -0.5398 -0.7235  0.3800
 2371TIP3   OH231307   2.337   3.980  10.146  0.2106 -0.4459 -0.2004
 2371TIP3    H131308   2.381   3.919  10.087 -0.7038 -1.3530  0.0153
 2371TIP3    H231309   2.311   4.053  10.090  0.2889 -0.8010 -0.7060
 2372TIP3   OH231310   1.976   4.940  12.869 -0.0330 -0.0891 -0.5849
 2372TIP3    H131311   1.899   4.996  12.860 -0.8987 -1.1489  0.0677
 2372TIP3    H231312   1.941   4.854  12.893  1.3897 -0.4088  0.4791
 2373TIP3   OH231313   2.679   4.887  11.553  0.7500 -0.2650  0.6129
 2373TIP3    H131314   2.597   4.849  11.582  0.4396  1.1833  1.7972
 2373TIP3    H231315   2.725   4.911  11.634  2.2591 -0.8667 -0.0225
 2374TIP3   OH231316   2.040   5.849  12.976 -0.1603  0.0522 -0.4363
 2374TIP3    H131317   1.959   5.860  13.026 -0.0676  0.6226 -0.4041
 2374TIP3    H231318   2.049   5.755  12.965  0.1153 -0.1365  1.1258
 2375TIP3   OH231319   3.321   4.834  10.738  0.0480 -0.6299  0.0778
 2375TIP3    H131320   3.263   4.774  10.785 -1.5669  1.1697  0.5099
 2375TIP3    H231321   3.263   4.884  10.681  1.3529  0.4515 -0.3568
 2376TIP3   OH231322   1.831   2.913   9.741 -0.2912 -0.2146  0.6235
 2376TIP3    H131323   1.912   2.961   9.757 -0.0721  0.6784 -2.4328
 2376TIP3    H231324   1.768   2.953   9.801  0.6104  1.9348  0.2583
 2377TIP3   OH231325   1.254   0.566  10.614  0.0313  0.0042 -0.4707
 2377TIP3    H131326   1.296   0.652  10.611 -0.0177  0.0115 -1.1464
 2377TIP3    H231327   1.326   0.504  10.620  0.0810  0.0815 -0.2808
 2378TIP3   OH231328   1.470   5.730  10.584  0.5216  0.0872  0.3000
 2378TIP3    H131329   1.527   5.653  10.595  3.0352  1.8403  0.4320
 2378TIP3    H231330   1.527   5.805  10.602 -1.5738  2.0525 -0.7054
 2379TIP3   OH231331   0.176   0.406  11.754 -0.2782 -0.3952  0.3631
 2379TIP3    H131332   0.194   0.391  11.846  1.3132 -0.9693 -0.0113
 2379TIP3    H231333   0.245   0.358  11.708  0.1001  1.4274 -1.0775
 2380TIP3   OH231334   5.903   6.675  11.920  0.3090  0.6785  0.4939
 2380TIP3    H131335   5.959   6.747  11.949 -0.7159  0.8121  2.2598
 2380TIP3    H231336   5.931   6.600  11.972 -0.8987  0.6653  1.1569
 2381TIP3   OH231337   1.247   3.742  10.938  0.7125 -0.0500 -0.7502
 2381TIP3    H131338   1.303   3.690  10.880 -0.4984 -1.6252 -0.5981
 2381TIP3    H231339   1.184   3.784  10.880  1.8795  1.5894 -0.9046
 2382TIP3   OH231340   4.129   1.115  11.244  0.3103 -0.0523  0.3999
 2382TIP3    H131341   4.037   1.100  11.222  0.8041 -3.0091 -0.0957
 2382TIP3    H231342   4.171   1.134  11.160  0.6148 -1.8469  0.1059
 2383TIP3   OH231343   6.166   4.389  11.882  0.0405  0.0609 -0.0254
 2383TIP3    H131344   6.113   4.351  11.951  0.0804  0.4384  0.2143
 2383TIP3    H231345   6.121   4.470  11.858  0.0758 -0.0198 -0.3748
 2384TIP3   OH231346   5.933   3.675  10.594 -0.2283 -0.1921 -0.0917
 2384TIP3    H131347   5.948   3.764  10.563 -0.2794  0.0580  0.5767
 2384TIP3    H231348   5.843   3.655  10.567  0.0015 -0.2838 -0.8004
 2385TIP3   OH231349   1.298   1.083  12.068  0.1635 -0.0585  0.3760
 2385TIP3    H131350   1.276   0.992  12.086  0.2191 -0.6229 -2.0252
 2385TIP3    H231351   1.351   1.110  12.143  0.7201 -2.2111  0.8414
 2386TIP3   OH231352   0.411   4.768   9.830 -0.4536  0.6448 -0.1166
 2386TIP3    H131353   0.346   4.698   9.829 -0.0928  0.2749  0.8854
 2386TIP3    H231354   0.472   4.743   9.899  0.2970  1.3991 -0.4893
 2387TIP3   OH231355   6.527   5.909  10.119 -0.4699 -0.2000 -0.6207
 2387TIP3    H131356   6.545   5.873  10.205 -0.5018 -0.7576 -0.8396
 2387TIP3    H231357   6.610   5.946  10.090 -0.0012 -1.5018 -1.0368
 2388TIP3   OH231358   3.195   1.151  12.509  0.0078 -0.2822 -0.5897
 2388TIP3    H131359   3.261   1.093  12.548  1.4293  2.1221  0.8570
 2388TIP3    H231360   3.238   1.188  12.432 -0.4452 -0.2785 -0.8408
 2389TIP3   OH231361   0.409   1.877  12.232 -0.0310  0.1771 -0.0185
 2389TIP3    H131362   0.399   1.821  12.156 -0.8657  1.4392 -0.8753
 2389TIP3    H231363   0.321   1.909  12.251  0.6092  2.5594 -0.6632
 2390TIP3   OH231364   1.530   0.682  10.067 -0.2796  0.2893  0.6248
 2390TIP3    H131365   1.448   0.727  10.048  0.1176  0.8618  0.1969
 2390TIP3    H231366   1.575   0.740  10.129 -0.0776  0.1265  0.6317
 2391TIP3   OH231367   5.193   6.789  10.969 -0.6384 -0.4199 -0.4495
 2391TIP3    H131368   5.149   6.704  10.968 -0.3582 -0.6530  2.0030
 2391TIP3    H231369   5.154   6.836  11.042 -1.6687  2.1423 -2.4768
 2392TIP3   OH231370   1.254   2.126   9.872 -0.8679 -0.4808 -0.3195
 2392TIP3    H131371   1.245   2.063   9.800 -0.3394  0.2147 -1.0162
 2392TIP3    H231372   1.247   2.212   9.830  2.9455  0.0744 -0.1917
 2393TIP3   OH231373   5.591   1.181  13.274  0.5332  0.6626  0.2297
 2393TIP3    H131374   5.601   1.273  13.251  0.2835  0.2306 -1.7573
 2393TIP3    H231375   5.589   1.135  13.191  1.4367 -1.2465  1.1815
 2394TIP3   OH231376   0.459   2.593  12.855 -0.2499 -0.4558  0.2523
 2394TIP3    H131377   0.378   2.643  12.847  0.1590  0.2758  0.6327
 2394TIP3    H231378   0.518   2.632  12.790  0.4319  0.2919  1.2958
 2395TIP3   OH231379   0.383   3.522  10.865  0.1782 -0.6643 -0.1519
 2395TIP3    H131380   0.317   3.471  10.912  0.4645 -0.1810  0.7963
 2395TIP3    H231381   0.429   3.457  10.811 -1.0137 -1.0099 -0.7825
 2396TIP3   OH231382   3.365   2.358  12.217 -0.4379 -0.5442  0.5694
 2396TIP3    H131383   3.416   2.359  12.298  1.8937 -0.7413 -0.8295
 2396TIP3    H231384   3.300   2.289  12.231 -0.6079 -0.0656  2.5250
 2397TIP3   OH231385   1.047   3.528  12.321  0.3747 -0.2919 -0.1208
 2397TIP3    H131386   1.006   3.462  12.265 -1.2212 -0.4240  1.1076
 2397TIP3    H231387   1.006   3.611  12.293 -1.1190 -0.4724  1.3599
 2398TIP3   OH231388   3.183   0.236  10.557 -0.1567 -0.2481 -0.1812
 2398TIP3    H131389   3.182   0.174  10.631  0.0971  0.2469  0.2437
 2398TIP3    H231390   3.117   0.301  10.581 -0.3416 -0.2903 -0.5760
 2399TIP3   OH231391   6.802   1.273  12.090 -0.1155  0.3847  0.0736
 2399TIP3    H131392   6.708   1.259  12.107 -0.0423 -1.4425 -0.7787
 2399TIP3    H231393   6.840   1.287  12.177 -0.8435 -1.2694  0.6921
 2400TIP3   OH231394   3.689   6.282  10.556  0.2190  0.0459  0.1338
 2400TIP3    H131395   3.766   6.339  10.558 -1.4663  2.4342  1.3675
 2400TIP3    H231396   3.689   6.245  10.468  2.9690 -0.3799  0.2221
 2401TIP3   OH231397   2.392   1.322  12.005  0.2706 -0.2954  0.0766
 2401TIP3    H131398   2.320   1.264  12.029 -1.7083  2.3931  1.1586
 2401TIP3    H231399   2.403   1.379  12.081 -1.1446  3.7239 -2.4360
 2402TIP3   OH231400   5.202   3.078  12.082  0.2275 -0.4618 -0.5498
 2402TIP3    H131401   5.157   3.034  12.154  0.5893 -0.0280 -0.0473
 2402TIP3    H231402   5.293   3.084  12.110  0.0811  1.1682 -0.3000
 2403TIP3   OH231403   0.874   4.291  12.209  0.4057 -0.2524  0.1688
 2403TIP3    H131404   0.843   4.227  12.273 -2.1029  0.4040 -0.2599
 2403TIP3    H231405   0.861   4.247  12.124  1.8261 -0.3837  0.0065
 2404TIP3   OH231406   1.923   5.851   9.967 -0.5476  0.2025 -0.1267
 2404TIP3    H131407   1.907   5.941   9.939 -1.8516 -0.3599 -1.3045
 2404TIP3    H231408   1.862   5.837  10.039  0.3559  0.5352  0.7410
 2405TIP3   OH231409   0.613   0.118  12.773 -0.2656  0.1822  0.2247
 2405TIP3    H131410   0.692   0.086  12.728 -0.1030  1.6575 -0.6005
 2405TIP3    H231411   0.643   0.196  12.820 -1.1262  0.4480  0.3407
 2406TIP3   OH231412   2.295   5.465  11.580 -0.1922 -0.3825 -0.0328
 2406TIP3    H131413   2.335   5.381  11.555 -0.5038 -1.5298  2.9129
 2406TIP3    H231414   2.344   5.530  11.529  1.6392 -2.1606 -0.7147
 2407TIP3   OH231415   5.368   2.930  11.029  0.3206 -0.2986  0.6498
 2407TIP3    H131416   5.333   3.001  11.083 -1.3303 -1.0430  0.6076
 2407TIP3    H231417   5.342   2.850  11.074  1.8303 -0.8990  0.4897
 2408TIP3   OH231418   1.428   4.627  11.396  0.5003 -0.3999  0.0371
 2408TIP3    H131419   1.508   4.596  11.437  0.7571 -0.8294 -0.7664
 2408TIP3    H231420   1.401   4.702  11.450  1.0434 -0.6882  0.7280
 2409TIP3   OH231421   3.711   2.787  12.944 -1.0024  0.0620 -0.4753
 2409TIP3    H131422   3.641   2.802  12.881 -1.6948 -0.4627  0.1495
 2409TIP3    H231423   3.690   2.704  12.985  0.1255 -0.2213 -0.4327
 2410TIP3   OH231424   6.080   1.914  12.896  0.2549  0.5100 -0.0662
 2410TIP3    H131425   6.100   1.937  12.805 -0.1126  2.3156  0.2820
 2410TIP3    H231426   5.989   1.883  12.892  1.2057 -2.5461 -0.7732
 2411TIP3   OH231427   2.231   2.396  11.487  0.2743  0.2226 -0.1140
 2411TIP3    H131428   2.309   2.427  11.442  0.3213  1.3769  0.7136
 2411TIP3    H231429   2.179   2.474  11.501 -1.1045 -0.5481 -0.7466
 2412TIP3   OH231430   1.074   1.960  10.183 -0.8696  0.4048 -0.2664
 2412TIP3    H131431   1.129   1.957  10.105 -1.0156  1.1674 -0.4095
 2412TIP3    H231432   0.989   1.991  10.151 -1.2803 -0.4067  0.0104
 2413TIP3   OH231433   6.785   6.009  10.425 -0.2127  0.1282  0.1132
 2413TIP3    H131434   6.785   5.954  10.503  1.1053 -0.4671 -0.2867
 2413TIP3    H231435   6.867   5.990  10.381 -1.0868  0.1552 -1.6475
 2414TIP3   OH231436   0.356   4.769  11.461  0.2598 -0.0749  0.3641
 2414TIP3    H131437   0.262   4.751  11.459  0.3549 -0.5096 -0.1153
 2414TIP3    H231438   0.371   4.806  11.548 -0.1527 -1.1063  0.8914
 2415TIP3   OH231439   3.326   1.014  11.610 -0.1745 -0.0565  0.2759
 2415TIP3    H131440   3.289   0.938  11.654 -0.8384  0.5428  0.7788
 2415TIP3    H231441   3.420   1.008  11.628  0.0892 -1.8617 -1.4487
 2416TIP3   OH231442   6.764   1.802  10.088  0.1920 -0.3998  0.3465
 2416TIP3    H131443   6.708   1.871  10.055  1.2179 -0.0015 -0.6405
 2416TIP3    H231444   6.756   1.731  10.024 -1.6938 -1.6732  1.9119
 2417TIP3   OH231445   0.188   0.707  10.828  0.0212  0.0367 -0.3129
 2417TIP3    H131446   0.270   0.677  10.868  0.1708  0.2091 -0.4908
 2417TIP3    H231447   0.188   0.801  10.841  0.4523  0.2001 -1.4245
 2418TIP3   OH231448   5.136   0.760  12.158  0.1032  0.3629  0.0345
 2418TIP3    H131449   5.211   0.816  12.139  0.7213  0.1271  1.6059
 2418TIP3    H231450   5.173   0.672  12.168 -0.3497  0.2450  0.8174
 2419TIP3   OH231451   5.449   3.712  10.767  0.1131 -0.0454  0.0754
 2419TIP3    H131452   5.521   3.756  10.811 -0.6865  2.3495 -0.8630
 2419TIP3    H231453   5.370   3.749  10.807 -0.5964 -0.1227 -1.1831
 2420TIP3   OH231454   1.241   6.757  11.032  0.0323  0.4677 -0.6593
 2420TIP3    H131455   1.210   6.844  11.006 -1.3292 -0.0861 -0.9661
 2420TIP3    H231456   1.211   6.700  10.962  0.2569 -0.3689 -0.0818
 2421TIP3   OH231457   6.433   3.018  10.434  0.7688 -0.0211  0.3881
 2421TIP3    H131458   6.513   3.010  10.383  0.6581 -0.5306  0.2824
 2421TIP3    H231459   6.377   2.947  10.401  0.5377 -0.0891  0.9193
 2422TIP3   OH231460   1.709   3.688  12.329 -0.4755  0.0791 -0.2934
 2422TIP3    H131461   1.693   3.756  12.394  1.2833  0.8749 -0.6461
 2422TIP3    H231462   1.665   3.611  12.363 -2.2645  1.2946  0.2643
 2423TIP3   OH231463   5.595   3.533  12.399  0.4768 -0.2697  0.3544
 2423TIP3    H131464   5.615   3.578  12.317  0.7155 -2.2737 -0.7722
 2423TIP3    H231465   5.500   3.518  12.395  0.7504 -2.0706 -0.5613
 2424TIP3   OH231466   5.734   0.037  11.422 -0.1602  0.2186 -0.2322
 2424TIP3    H131467   5.800   0.041  11.490 -1.3836  0.3424  0.9987
 2424TIP3    H231468   5.778   0.069  11.343  1.0435  0.9025  0.6910
 2425TIP3   OH231469   4.016   4.764  10.410 -0.2377  0.0229  0.3234
 2425TIP3    H131470   4.088   4.820  10.438  0.3393 -0.1985 -0.6785
 2425TIP3    H231471   3.946   4.825  10.386  0.3511  0.3262 -0.6665
 2426TIP3   OH231472   5.821   4.356  10.465  0.3048  0.5260  0.4483
 2426TIP3    H131473   5.896   4.317  10.421  0.2349 -0.2572  0.9900
 2426TIP3    H231474   5.814   4.307  10.548 -2.3871 -1.2849 -0.7058
 2427TIP3   OH231475   4.069   6.481  12.698  0.0221  0.6868  0.2919
 2427TIP3    H131476   4.098   6.513  12.784  0.9798 -0.4979  0.4368
 2427TIP3    H231477   4.008   6.411  12.719  0.8265 -0.1094  0.0347
 2428TIP3   OH231478   6.786   1.607  12.378  0.2283  0.4702  0.1974
 2428TIP3    H131479   6.790   1.658  12.298  0.9432  1.4591  0.8339
 2428TIP3    H231480   6.863   1.549  12.374  0.8282  1.2212  0.6069
 2429TIP3   OH231481   1.410   6.495  12.963 -0.0648  0.0362  0.3991
 2429TIP3    H131482   1.425   6.402  12.982  1.5621  0.3521  0.8257
 2429TIP3    H231483   1.444   6.541  13.040  1.6210  1.0882 -0.9004
 2430TIP3   OH231484   0.670   3.047  10.961 -0.2085  0.2072 -0.1346
 2430TIP3    H131485   0.598   3.108  10.977 -0.5731 -0.1408 -0.4585
 2430TIP3    H231486   0.715   3.041  11.045 -1.1771 -0.3861  0.3593
 2431TIP3   OH231487   4.746   2.881  12.366 -0.3959 -0.3354  0.1768
 2431TIP3    H131488   4.710   2.826  12.435  2.7302 -1.6968  0.8945
 2431TIP3    H231489   4.735   2.831  12.285  0.1561 -0.8918  0.4422
 2432TIP3   OH231490   3.846   5.711  12.174 -0.2481 -0.1353 -0.3416
 2432TIP3    H131491   3.775   5.776  12.179  0.2835  0.5576 -1.4125
 2432TIP3    H231492   3.821   5.644  12.237 -2.0290 -0.0731 -0.9270
 2433TIP3   OH231493   0.212   2.669  12.803 -0.1524  0.4224 -0.1919
 2433TIP3    H131494   0.209   2.729  12.728 -0.4547  0.5112 -0.1086
 2433TIP3    H231495   0.124   2.632  12.808 -0.3249  0.8967  0.5093
 2434TIP3   OH231496   1.545   3.135  11.553 -0.6326 -0.2686 -0.8006
 2434TIP3    H131497   1.558   3.067  11.619  1.6499 -0.6512 -1.5467
 2434TIP3    H231498   1.451   3.138  11.539 -1.0068 -1.3854  1.1946
 2435TIP3   OH231499   1.708   3.618  12.726 -0.1277  0.2642  0.6655
 2435TIP3    H131500   1.648   3.547  12.752  1.3856 -1.7973 -1.1221
 2435TIP3    H231501   1.771   3.623  12.797  0.2326 -0.8214  0.4513
 2436TIP3   OH231502   5.417   2.245  10.424 -1.0312 -0.5388  0.1210
 2436TIP3    H131503   5.462   2.266  10.506  1.4881 -2.0672 -0.7820
 2436TIP3    H231504   5.436   2.319  10.366 -0.3477 -0.7937  0.0123
 2437TIP3   OH231505   3.328   2.582  13.273 -0.3396 -0.7397 -0.3490
 2437TIP3    H131506   3.294   2.549  13.190 -2.0834  0.7497 -0.2918
 2437TIP3    H231507   3.332   2.505  13.330 -1.4599 -1.3800 -1.0925
 2438TIP3   OH231508   5.234   1.414  12.109 -0.9101  0.0457  0.1019
 2438TIP3    H131509   5.258   1.505  12.129  0.0357 -0.1347 -0.1358
 2438TIP3    H231510   5.275   1.398  12.024 -0.0567 -0.9737  0.6890
 2439TIP3   OH231511   1.732   3.549  10.389  0.0876 -0.2874 -0.2131
 2439TIP3    H131512   1.808   3.502  10.354  0.5775 -0.9444  1.5993
 2439TIP3    H231513   1.675   3.480  10.423 -0.7379  0.2703 -0.4436
 2440TIP3   OH231514   5.945   1.729  12.050  0.3247  0.2789 -0.4503
 2440TIP3    H131515   5.928   1.823  12.057 -1.0055  0.0834 -0.7635
 2440TIP3    H231516   5.994   1.720  11.968  1.1950  0.7796  0.0094
 2441TIP3   OH231517   4.679   1.060  10.262 -0.0581 -0.3514 -0.1556
 2441TIP3    H131518   4.734   1.110  10.201  1.5607  0.2520  1.6763
 2441TIP3    H231519   4.742   1.007  10.312 -1.3158 -0.8022  0.9986
 2442TIP3   OH231520   6.507   1.198  12.617 -0.8426 -0.0893  0.0477
 2442TIP3    H131521   6.599   1.213  12.595 -0.9910 -0.0370 -0.5568
 2442TIP3    H231522   6.458   1.254  12.556 -1.3749 -2.0583 -1.4436
 2443TIP3   OH231523   6.611   2.998  12.155  0.0404 -0.2962  0.1757
 2443TIP3    H131524   6.625   3.070  12.093  0.4377 -0.7813 -0.3058
 2443TIP3    H231525   6.561   3.038  12.226  0.5156  0.5302  0.0619
 2444TIP3   OH231526   2.585   0.764  11.172 -0.0618  0.3762 -0.0396
 2444TIP3    H131527   2.656   0.700  11.174 -1.1175 -0.8148  0.1257
 2444TIP3    H231528   2.579   0.796  11.263  0.2090  0.4394 -0.0420
 2445TIP3   OH231529   0.369   4.216  10.454 -0.1774 -0.0539  0.2185
 2445TIP3    H131530   0.275   4.205  10.468 -0.3861 -2.8348 -2.4507
 2445TIP3    H231531   0.377   4.236  10.361  1.8789  1.1775  0.6024
 2446TIP3   OH231532   1.853   6.548  10.224 -0.0049 -0.1356 -0.0074
 2446TIP3    H131533   1.873   6.577  10.134  0.6536  1.1108  0.5127
 2446TIP3    H231534   1.758   6.560  10.232 -0.2128 -1.0932 -0.8027
 2447TIP3   OH231535   5.136   3.939  12.976 -0.0380  0.1795 -0.2989
 2447TIP3    H131536   5.048   3.975  12.963  0.4937  1.9713  0.6458
 2447TIP3    H231537   5.194   4.016  12.975  1.7044 -1.0353 -2.0421
 2448TIP3   OH231538   2.949   4.826  11.122  0.6472  0.6043 -0.4422
 2448TIP3    H131539   2.854   4.816  11.123  0.7970 -1.1804  0.4120
 2448TIP3    H231540   2.980   4.769  11.192  2.3719  0.8659 -0.9425
 2449TIP3   OH231541   6.231   4.695  11.843 -0.4118 -0.3364  0.3604
 2449TIP3    H131542   6.186   4.639  11.906  0.0357 -0.0758  0.9163
 2449TIP3    H231543   6.160   4.737  11.793 -0.7505 -1.4017 -0.0789
 2450TIP3   OH231544   6.314   6.460  10.694  0.1684  0.0791  0.2328
 2450TIP3    H131545   6.232   6.412  10.680  0.0030  0.4437 -0.0841
 2450TIP3    H231546   6.321   6.518  10.618 -0.5359  1.8131  1.4151
 2451TIP3   OH231547   0.956   2.253  11.141 -0.1219 -0.3629 -0.0334
 2451TIP3    H131548   0.916   2.264  11.055  1.3182  2.0974 -0.4986
 2451TIP3    H231549   0.885   2.271  11.203 -0.5760  0.4500 -0.7664
 2452TIP3   OH231550   2.984   0.348  10.282  0.4843  0.1013 -0.0003
 2452TIP3    H131551   3.053   0.401  10.241 -0.2991 -0.9260 -2.9294
 2452TIP3    H231552   3.026   0.263  10.299  0.4242  0.0386 -0.1558
 2453TIP3   OH231553   4.297   0.803  12.848  0.1931 -0.0090 -0.0024
 2453TIP3    H131554   4.306   0.820  12.942  1.8104 -1.3329  0.1269
 2453TIP3    H231555   4.325   0.712  12.838  1.2447  0.4857 -1.9303
 2454TIP3   OH231556   5.060   2.472  11.459 -0.2088  0.0854 -0.5861
 2454TIP3    H131557   5.083   2.498  11.370 -0.5312  2.6508  0.0190
 2454TIP3    H231558   4.977   2.425  11.450  0.9050 -1.7972 -1.8307
 2455TIP3   OH231559   2.220   5.025  10.135 -0.1166  0.5582 -0.5689
 2455TIP3    H131560   2.182   4.945  10.101  0.1804  0.7362 -1.3347
 2455TIP3    H231561   2.290   4.996  10.194 -0.8620  0.2478  0.1875
 2456TIP3   OH231562   4.300   5.369  13.149  0.3975 -0.2079 -0.1980
 2456TIP3    H131563   4.253   5.439  13.104 -1.6906  0.8072  3.1995
 2456TIP3    H231564   4.249   5.290  13.130  1.1414 -0.3644 -1.7326
 2457TIP3   OH231565   2.099   0.142  12.465 -0.0915 -0.5274  0.4480
 2457TIP3    H131566   2.116   0.236  12.456  2.6060 -0.9776  0.0129
 2457TIP3    H231567   2.072   0.132  12.556  1.1377  0.5179  0.9655
 2458TIP3   OH231568   2.825   6.423  11.242 -0.2630 -0.0399 -0.3863
 2458TIP3    H131569   2.768   6.399  11.169 -0.7021 -0.7080  0.1519
 2458TIP3    H231570   2.896   6.359  11.239 -0.3743 -0.1779 -0.1306
 2459TIP3   OH231571   1.836   2.740  13.226 -1.0199  0.1507 -0.1710
 2459TIP3    H131572   1.910   2.784  13.184 -0.4249 -0.3628  0.3258
 2459TIP3    H231573   1.875   2.691  13.299 -1.8498 -0.1089  0.1095
 2460TIP3   OH231574   2.185   2.827  12.631 -0.1936  0.1279 -0.3862
 2460TIP3    H131575   2.271   2.791  12.654 -0.8010  0.0987  2.0925
 2460TIP3    H231576   2.202   2.880  12.553  1.9420 -0.3762 -0.3441
 2461TIP3   OH231577   3.184   5.539  11.764 -0.4321  0.0559 -0.1066
 2461TIP3    H131578   3.131   5.594  11.821 -1.5423  0.2980 -1.3383
 2461TIP3    H231579   3.125   5.468  11.736  0.5574 -0.9646  0.3033
 2462TIP3   OH231580   4.793   4.395  10.931  0.0801  0.0888  0.6025
 2462TIP3    H131581   4.862   4.439  10.981 -0.4509  1.9235 -0.1623
 2462TIP3    H231582   4.839   4.349  10.861  0.5617  1.8414 -0.3044
 2463TIP3   OH231583   2.271   4.518  10.880  0.1327 -0.2052  0.3031
 2463TIP3    H131584   2.340   4.585  10.888  0.8475 -1.0903  1.9014
 2463TIP3    H231585   2.298   4.466  10.804  0.3189  0.4546 -0.0994
 2464TIP3   OH231586   2.782   4.159  10.583 -0.8295 -0.0819 -0.1732
 2464TIP3    H131587   2.729   4.238  10.569  1.8062  1.9547  0.5386
 2464TIP3    H231588   2.827   4.175  10.666  0.2780 -2.0585 -0.3258
 2465TIP3   OH231589   2.141   5.397  12.382 -0.5348 -0.7739  0.0455
 2465TIP3    H131590   2.167   5.461  12.316 -1.0589  0.7711  1.2862
 2465TIP3    H231591   2.083   5.337  12.336 -0.0646 -0.3345 -1.1420
 2466TIP3   OH231592   1.463   4.211  10.706 -0.1172  0.4673 -0.1695
 2466TIP3    H131593   1.554   4.190  10.730 -0.5530 -1.8591 -0.3179
 2466TIP3    H231594   1.469   4.240  10.615  0.4088 -0.4414 -0.4389
 2467TIP3   OH231595   6.420   4.324  11.775  0.4971 -0.5722 -0.1305
 2467TIP3    H131596   6.326   4.327  11.792  0.6186 -0.3046  0.4867
 2467TIP3    H231597   6.430   4.252  11.712 -0.3874  0.8067 -1.9332
 2468TIP3   OH231598   1.602   2.354  11.592  0.3587 -0.5236  0.1138
 2468TIP3    H131599   1.566   2.367  11.505  0.6171 -0.7058 -0.0196
 2468TIP3    H231600   1.589   2.261  11.610 -0.1597 -0.3871  0.4789
 2469TIP3   OH231601   4.562   6.111  11.728  0.0136  0.1434 -0.0646
 2469TIP3    H131602   4.512   6.030  11.727  0.6583 -0.2614  0.0782
 2469TIP3    H231603   4.628   6.100  11.659  0.7008  0.1597  0.5754
 2470TIP3   OH231604   2.727   6.317  10.739 -0.7692 -0.2709 -0.1475
 2470TIP3    H131605   2.712   6.252  10.808 -1.9152 -0.7392 -0.8097
 2470TIP3    H231606   2.654   6.305  10.679 -0.8235  1.4495 -0.4536
 2471TIP3   OH231607   0.330   6.279  12.652 -0.2433 -0.1345 -0.6812
 2471TIP3    H131608   0.324   6.186  12.632  0.6404 -0.8375  1.9238
 2471TIP3    H231609   0.424   6.298  12.655 -0.3874  0.5702 -0.1858
 2472TIP3   OH231610   1.198   4.281  12.459 -0.5464 -0.1023  0.1178
 2472TIP3    H131611   1.164   4.214  12.399  2.0220  1.6323 -3.6793
 2472TIP3    H231612   1.151   4.361  12.435 -0.0868  0.4773  1.0717
 2473TIP3   OH231613   4.868   1.437  12.183 -0.1742  0.0051  0.3634
 2473TIP3    H131614   4.940   1.394  12.229  0.0296 -0.3461 -0.2724
 2473TIP3    H231615   4.830   1.496  12.248  0.1552 -0.4259  0.9579
 2474TIP3   OH231616   0.058   5.801  12.119  0.2471 -0.1540  0.9062
 2474TIP3    H131617  -0.032   5.833  12.119  0.6277  1.0848 -0.6654
 2474TIP3    H231618   0.110   5.879  12.139  0.9896 -0.8215  1.6172
 2475TIP3   OH231619   5.131   5.183  10.284  0.1839 -0.1548 -0.4023
 2475TIP3    H131620   5.197   5.247  10.257 -1.4694  0.8748 -2.2948
 2475TIP3    H231621   5.145   5.107  10.226 -0.2177  0.0488 -0.7783
 2476TIP3   OH231622   4.902   0.804  11.429  0.2791 -0.4671 -0.3488
 2476TIP3    H131623   4.916   0.717  11.391  0.9630 -0.2628 -0.5722
 2476TIP3    H231624   4.970   0.859  11.390 -0.1023  0.1568 -0.1578
 2477TIP3   OH231625   0.412   3.850   9.736  0.2836  0.0428  0.3770
 2477TIP3    H131626   0.333   3.797   9.748  1.0299 -1.0436  0.6249
 2477TIP3    H231627   0.476   3.789   9.698  0.8109  1.0666 -0.4130
 2478TIP3   OH231628   3.013   0.089  12.154  0.2070 -0.6767 -0.7029
 2478TIP3    H131629   3.035   0.035  12.078 -1.0562  0.1777 -1.6980
 2478TIP3    H231630   2.928   0.055  12.184  1.7026 -2.5916  1.8544
 2479TIP3   OH231631   4.928   4.614  10.283 -0.0896 -0.1317  0.1283
 2479TIP3    H131632   4.894   4.525  10.283  1.1739 -0.6403  1.3124
 2479TIP3    H231633   4.850   4.670  10.277 -0.8473 -1.2828 -1.9457
 2480TIP3   OH231634   3.401   3.043  10.865 -0.8167 -0.2072 -0.5886
 2480TIP3    H131635   3.359   2.959  10.884 -1.6333  0.2675 -0.2374
 2480TIP3    H231636   3.495   3.026  10.873 -1.0001 -0.9500  0.0672
 2481TIP3   OH231637   5.906   0.769  12.006  0.8011  0.3807 -0.0161
 2481TIP3    H131638   5.898   0.681  11.972 -2.9591  0.0869  1.2115
 2481TIP3    H231639   5.909   0.825  11.928 -0.7537 -0.6553 -0.8783
 2482TIP3   OH231640   0.593   0.700  12.901 -0.6529 -0.0146  0.0699
 2482TIP3    H131641   0.659   0.769  12.904 -0.5236 -0.1561  0.8456
 2482TIP3    H231642   0.643   0.620  12.885 -0.9332  0.2091 -2.1627
 2483TIP3   OH231643   6.811   2.385  11.966  0.3230  0.2038 -0.1795
 2483TIP3    H131644   6.869   2.408  11.894 -0.1895 -0.4071 -0.8089
 2483TIP3    H231645   6.725   2.418  11.939 -0.1111 -1.0438 -0.4053
 2484TIP3   OH231646   5.755   2.890  11.489 -0.1236 -0.0246  0.7355
 2484TIP3    H131647   5.819   2.957  11.464 -1.3070  0.8499 -0.0347
 2484TIP3    H231648   5.781   2.865  11.577  1.6282 -0.1216  0.2398
 2485TIP3   OH231649   2.763   3.646  10.019 -0.0990  0.1672 -0.3659
 2485TIP3    H131650   2.804   3.586   9.956 -0.9590  0.0485 -0.8199
 2485TIP3    H231651   2.730   3.718   9.965  0.5617  0.8608  0.1326
 2486TIP3   OH231652   0.240   2.104  12.977 -0.3346 -0.3449  0.0853
 2486TIP3    H131653   0.278   2.078  13.061  0.2902 -3.1452 -0.9706
 2486TIP3    H231654   0.309   2.153  12.933 -0.2801  0.1853  0.7440
 2487TIP3   OH231655   0.342   5.649  10.649 -0.2435 -0.7811 -0.4943
 2487TIP3    H131656   0.355   5.577  10.711  0.3844  0.7381  1.2304
 2487TIP3    H231657   0.423   5.699  10.652 -1.8180  1.9407  1.0429
 2488TIP3   OH231658   5.187   6.301  10.433  0.1267  0.6809 -0.2072
 2488TIP3    H131659   5.154   6.241  10.500  0.4328 -0.5526 -1.1232
 2488TIP3    H231660   5.161   6.262  10.350  2.4251  0.4966 -0.9216
 2489TIP3   OH231661   1.196   3.237  13.186 -0.0380  0.5931 -0.0753
 2489TIP3    H131662   1.284   3.227  13.150  0.6407  1.1166  1.3379
 2489TIP3    H231663   1.202   3.201  13.275 -1.3847  0.1803 -0.1299
 2490TIP3   OH231664   0.520   3.440  13.032 -0.3458 -0.2636 -0.7134
 2490TIP3    H131665   0.613   3.430  13.011  0.1512  0.0447  1.1929
 2490TIP3    H231666   0.519   3.493  13.111 -2.1268 -0.7523 -0.3741
 2491TIP3   OH231667   5.923   2.239  11.317 -0.0083 -0.3200  0.2897
 2491TIP3    H131668   5.959   2.182  11.248  0.0575 -0.0516  0.1009
 2491TIP3    H231669   6.000   2.274  11.362 -0.0279  0.2692 -0.1252
 2492TIP3   OH231670   3.917   0.562  12.409  0.0079  0.3377  0.0049
 2492TIP3    H131671   3.846   0.544  12.471  0.8324  0.9461  1.1494
 2492TIP3    H231672   3.967   0.480  12.406 -1.4239 -0.5701 -1.8256
 2493TIP3   OH231673   5.990   4.275  12.057  0.4406 -0.0651  0.3083
 2493TIP3    H131674   5.900   4.308  12.058  0.0966 -0.8778  2.5431
 2493TIP3    H231675   6.028   4.306  12.140  1.5565 -1.3796  0.3237
 2494TIP3   OH231676   5.509   0.433  11.128  0.0324  0.1670  0.4448
 2494TIP3    H131677   5.514   0.462  11.219 -1.3159  0.0434  0.5785
 2494TIP3    H231678   5.435   0.373  11.126  1.2949 -1.4562 -0.3323
 2495TIP3   OH231679   3.871   2.683  11.155  0.1216  0.3303  0.0364
 2495TIP3    H131680   3.886   2.627  11.231  0.0996  0.4043  0.0956
 2495TIP3    H231681   3.943   2.663  11.095 -0.7170 -0.8955 -0.6191
 2496TIP3   OH231682   5.865   1.914  11.583  0.2090  0.0781 -0.1748
 2496TIP3    H131683   5.883   1.896  11.490  1.2805 -1.2318  0.2515
 2496TIP3    H231684   5.783   1.867  11.600  0.6474 -0.7051 -0.1758
 2497TIP3   OH231685   6.016   0.650  11.457  0.0976 -0.1770 -0.4347
 2497TIP3    H131686   6.063   0.663  11.540 -1.1643 -0.3916  0.3493
 2497TIP3    H231687   6.063   0.579  11.413  0.5611 -0.3168  0.2671
 2498TIP3   OH231688   1.111   6.199  12.273  0.3664  0.0779 -0.0871
 2498TIP3    H131689   1.193   6.230  12.235 -0.4079  1.5569 -0.6204
 2498TIP3    H231690   1.075   6.139  12.208  1.3476 -1.1546  0.4696
 2499TIP3   OH231691   4.111   5.950  12.318 -0.1291  0.1775 -0.5366
 2499TIP3    H131692   4.149   5.910  12.397  0.7556  1.1589 -0.4407
 2499TIP3    H231693   4.018   5.960  12.339  0.4209  2.3739  1.2882
 2500TIP3   OH231694   5.931   0.865  11.730  0.3838  0.2858 -0.2015
 2500TIP3    H131695   5.994   0.796  11.708 -0.1228 -0.3056  0.1470
 2500TIP3    H231696   5.880   0.877  11.650 -0.0184 -0.2907 -0.0382
 2501TIP3   OH231697   3.377   4.272  10.977 -0.1952 -0.3271  0.1969
 2501TIP3    H131698   3.387   4.336  10.906  2.8069  0.4152  1.1745
 2501TIP3    H231699   3.344   4.323  11.050 -2.5408 -0.9482 -0.3432
 2502TIP3   OH231700   0.161   5.112  10.841  0.5027 -0.2710  0.1426
 2502TIP3    H131701   0.245   5.100  10.885  0.5075 -0.5687  0.0569
 2502TIP3    H231702   0.107   5.040  10.874  0.7303 -0.9184 -0.8607
 2503TIP3   OH231703   1.021   5.341  10.449 -0.2564  0.7515  0.5513
 2503TIP3    H131704   0.996   5.405  10.516  0.4194 -0.1210  1.6803
 2503TIP3    H231705   1.032   5.393  10.369  3.0851  2.6444  2.0188
 2504TIP3   OH231706   6.659   0.610  10.338  0.1999 -0.0682 -0.0279
 2504TIP3    H131707   6.681   0.684  10.281 -3.0320 -0.1490 -1.5835
 2504TIP3    H231708   6.661   0.534  10.280  1.7752 -1.0034  1.1762
 2505TIP3   OH231709   6.042   2.401  11.577  0.7977  0.0423  0.2256
 2505TIP3    H131710   6.138   2.395  11.576  0.7112 -2.5450  0.2844
 2505TIP3    H231711   6.022   2.451  11.655  2.0911 -0.1999  0.7427
 2506TIP3   OH231712   2.894   3.559  10.251  0.0771 -0.2481 -0.2866
 2506TIP3    H131713   2.821   3.502  10.275 -0.3173 -0.1111 -1.1478
 2506TIP3    H231714   2.862   3.611  10.178  1.3394 -0.8806 -1.3295
 2507TIP3   OH231715   1.630   2.066   9.635 -0.5729  0.0790 -0.2467
 2507TIP3    H131716   1.589   1.997   9.688 -0.6495  0.5007  0.2415
 2507TIP3    H231717   1.642   2.025   9.549  1.8140 -1.4420  0.7249
 2508TIP3   OH231718   1.152   1.054  11.747  0.4545  0.0281 -0.4380
 2508TIP3    H131719   1.081   1.015  11.695 -1.1886  1.8065  0.3529
 2508TIP3    H231720   1.130   1.034  11.837 -0.5456  2.7815  0.0162
 2509TIP3   OH231721   5.909   1.115  12.618 -0.4178  0.0147  0.0654
 2509TIP3    H131722   5.962   1.168  12.678 -2.2811  0.7993  1.1075
 2509TIP3    H231723   5.857   1.178  12.569 -0.9241 -0.7547 -0.4082
 2510TIP3   OH231724   1.155   5.735  11.379  0.1714 -0.5870  0.3683
 2510TIP3    H131725   1.178   5.665  11.317  0.4381  0.4495 -0.7517
 2510TIP3    H231726   1.196   5.814  11.341 -1.1089  0.3860  0.9664
 2511TIP3   OH231727   3.520   6.048  11.143 -0.3844  0.1802 -0.2712
 2511TIP3    H131728   3.473   6.124  11.108  0.5259  0.6212 -0.5596
 2511TIP3    H231729   3.451   5.983  11.158 -1.4366  1.5881  1.5025
 2512TIP3   OH231730   2.056   5.933  11.681 -0.2685 -0.0576  0.1207
 2512TIP3    H131731   2.014   5.849  11.702 -2.2950 -0.4566 -4.4650
 2512TIP3    H231732   2.140   5.909  11.643  0.0211  0.1636  0.6085
 2513TIP3   OH231733   3.850   4.347  10.151 -0.3388 -0.4911  0.3731
 2513TIP3    H131734   3.821   4.394  10.230 -2.1672 -1.0492  0.0802
 2513TIP3    H231735   3.871   4.259  10.182  0.2427 -0.3355  0.4369
 2514TIP3   OH231736   1.109   0.046  11.321 -0.0031 -0.1775  0.2809
 2514TIP3    H131737   1.061   0.002  11.251 -0.2112 -0.0291  0.3291
 2514TIP3    H231738   1.122  -0.023  11.387 -0.9330 -0.0104  0.6603
 2515TIP3   OH231739   0.845   5.185  12.193  0.6890 -0.0785 -0.0677
 2515TIP3    H131740   0.856   5.124  12.266 -3.4464 -0.2212  0.6570
 2515TIP3    H231741   0.794   5.257  12.228 -1.4594 -0.1385 -2.6838
 2516TIP3   OH231742   1.348   0.765   9.514 -0.0962  0.9090  0.1225
 2516TIP3    H131743   1.436   0.766   9.477 -0.5713  1.2901 -1.0449
 2516TIP3    H231744   1.343   0.683   9.563  0.1338 -0.2689 -1.7438
 2517TIP3   OH231745   3.595   2.396  10.097 -0.2235  0.0211 -0.0389
 2517TIP3    H131746   3.579   2.446  10.178  1.0528  0.0368  0.2294
 2517TIP3    H231747   3.546   2.443  10.030 -1.9311 -0.4312  0.8478
 2518TIP3   OH231748   0.002   4.234  12.672  0.1360 -0.8376  0.3804
 2518TIP3    H131749  -0.008   4.150  12.716 -2.0657  0.1336  1.9114
 2518TIP3    H231750  -0.085   4.255  12.639  0.2173  1.5713  1.4777
 2519TIP3   OH231751   2.723   5.431  12.260  0.0352 -0.0373 -0.3143
 2519TIP3    H131752   2.628   5.436  12.254 -0.0333  1.6370  1.1046
 2519TIP3    H231753   2.741   5.420  12.354  1.2297 -0.8972 -0.6199
 2520TIP3   OH231754   0.796   0.193  12.347  0.2997 -0.0213 -0.6654
 2520TIP3    H131755   0.886   0.167  12.364  0.1290 -0.9450 -1.0636
 2520TIP3    H231756   0.773   0.253  12.417  0.5525 -1.4139  0.6526
 2521TIP3   OH231757   3.551   2.388  12.895 -0.2993  0.2300 -0.0871
 2521TIP3    H131758   3.456   2.382  12.903 -0.3726 -0.3739 -1.2030
 2521TIP3    H231759   3.569   2.367  12.803  0.9446 -0.0617  0.2005
 2522TIP3   OH231760   3.618   2.051  12.855 -0.0771 -0.6327  0.1374
 2522TIP3    H131761   3.580   2.113  12.792  0.0589  0.4616  1.0845
 2522TIP3    H231762   3.632   2.104  12.933  1.2052 -1.5885  0.5744
 2523TIP3   OH231763   3.115   1.451  10.945 -0.1542 -0.2130  0.2436
 2523TIP3    H131764   3.032   1.432  10.989 -1.2626  1.4963 -1.0018
 2523TIP3    H231765   3.166   1.499  11.010 -0.4934 -0.4606  0.7013
 2524TIP3   OH231766   4.346   0.569  13.037  0.3787  0.3027  0.0551
 2524TIP3    H131767   4.364   0.657  13.070 -0.4954  0.5238 -0.0390
 2524TIP3    H231768   4.259   0.548  13.071  0.9298 -0.8795  0.8022
 2525TIP3   OH231769   3.990   1.626  13.176 -0.0552 -0.2985 -0.0712
 2525TIP3    H131770   4.068   1.663  13.135 -0.6476 -0.0925 -1.0488
 2525TIP3    H231771   3.939   1.703  13.203 -0.1909 -0.4264  0.0357
 2526TIP3   OH231772   1.928   3.350  10.596 -0.0577 -0.3583  0.3350
 2526TIP3    H131773   1.886   3.377  10.678 -0.4918 -0.2794  0.0899
 2526TIP3    H231774   1.855   3.327  10.538  0.2914 -1.9170  0.4740
 2527TIP3   OH231775   0.568   2.300  13.161 -0.0687  0.2349 -0.6061
 2527TIP3    H131776   0.604   2.222  13.204  0.6214 -0.5353 -2.5036
 2527TIP3    H231777   0.476   2.301  13.188  0.3125 -0.2505  0.8162
 2528TIP3   OH231778   1.859   5.444  13.281  0.1557 -0.1969  0.3158
 2528TIP3    H131779   1.791   5.504  13.313 -0.5369 -0.1679 -1.1338
 2528TIP3    H231780   1.941   5.481  13.312 -0.3495  0.8624  0.4170
 2529TIP3   OH231781   6.641   3.165  11.647  0.0710  0.6239 -0.4167
 2529TIP3    H131782   6.703   3.113  11.596  1.2384  1.3530  0.2032
 2529TIP3    H231783   6.652   3.254  11.614 -0.4065  0.8140 -0.0752
 2530TIP3   OH231784   2.753   1.011  11.477  0.7002 -0.0466  0.6804
 2530TIP3    H131785   2.754   1.102  11.447  3.7603 -0.7433 -1.7561
 2530TIP3    H231786   2.662   0.984  11.465  0.2022  2.0032 -0.8482
 2531TIP3   OH231787   4.009   0.097  12.424 -0.0707 -0.6430  0.2574
 2531TIP3    H131788   3.994   0.005  12.445  0.6383 -1.4254 -2.2567
 2531TIP3    H231789   3.922   0.133  12.410 -0.3732 -0.8175  1.6007
 2532TIP3   OH231790   0.257   1.430  12.125 -0.6152 -0.0372 -0.1344
 2532TIP3    H131791   0.318   1.440  12.198 -0.5860 -0.1592 -0.1427
 2532TIP3    H231792   0.299   1.367  12.067 -0.1907  0.7847 -0.7319
 2533TIP3   OH231793   0.701   6.574  12.794 -0.2138  0.4708  0.3279
 2533TIP3    H131794   0.749   6.651  12.763 -0.4421 -0.5794 -3.0250
 2533TIP3    H231795   0.611   6.588  12.766 -0.6708 -0.2204  1.3510
 2534TIP3   OH231796   6.013   5.602  11.863 -0.4172 -0.2682  0.2234
 2534TIP3    H131797   5.930   5.557  11.882 -0.3646 -0.8741 -0.8761
 2534TIP3    H231798   6.007   5.623  11.770  0.7252 -0.4394  0.0984
 2535TIP3   OH231799   3.594   4.439  12.528 -0.5628 -0.1603 -0.5432
 2535TIP3    H131800   3.597   4.417  12.435 -0.7149 -2.0898 -0.1315
 2535TIP3    H231801   3.595   4.354  12.573 -1.8979  0.6685  1.1810
 2536TIP3   OH231802   0.323   3.548  10.350 -0.5556 -0.0026  0.2110
 2536TIP3    H131803   0.302   3.640  10.333  0.5940  0.6125  1.8425
 2536TIP3    H231804   0.371   3.549  10.433  1.2026 -1.8677 -0.6874
 2537TIP3   OH231805   3.012   6.360  12.601  0.2395 -0.2232 -0.3738
 2537TIP3    H131806   3.027   6.352  12.696  1.1060 -1.9434 -0.6146
 2537TIP3    H231807   2.953   6.435  12.593  2.4138  1.8080  1.2920
 2538TIP3   OH231808   1.843   2.866  10.324  0.0027 -0.3907 -0.5589
 2538TIP3    H131809   1.899   2.877  10.247  0.1823 -2.9110 -0.8641
 2538TIP3    H231810   1.903   2.840  10.394 -0.0193  2.7014  0.7867
 2539TIP3   OH231811   2.039   3.153  11.302 -0.0068  0.4727 -0.2997
 2539TIP3    H131812   2.103   3.214  11.266  2.2221 -1.1120  0.7120
 2539TIP3    H231813   2.001   3.198  11.377  1.1115  0.8907  0.0321
 2540TIP3   OH231814   3.029   6.774  11.922  0.3562 -0.6387  1.0171
 2540TIP3    H131815   2.944   6.729  11.923  1.3638 -2.6542  0.9609
 2540TIP3    H231816   3.093   6.704  11.914  2.0471  0.8481  0.9239
 2541TIP3   OH231817   4.058   2.264  10.215 -0.4524  0.3177 -0.1247
 2541TIP3    H131818   4.133   2.319  10.234 -0.6786  0.5980 -0.0312
 2541TIP3    H231819   4.095   2.181  10.186 -0.1071  0.7016 -0.8100
 2542TIP3   OH231820   5.458   6.701  10.474 -0.1249 -0.0006 -0.4160
 2542TIP3    H131821   5.372   6.661  10.487 -0.7213  0.9091 -1.4617
 2542TIP3    H231822   5.497   6.651  10.402  0.5408 -0.8775  0.5241
 2543TIP3   OH231823   5.189   5.620  13.024 -0.2892 -0.1761 -0.4573
 2543TIP3    H131824   5.280   5.647  13.005 -0.4165  0.4626 -0.2014
 2543TIP3    H231825   5.196   5.565  13.102 -0.2591  1.0422  0.4325
 2544TIP3   OH231826   2.548   3.934  10.421  0.4024  0.3978 -0.0054
 2544TIP3    H131827   2.597   3.899  10.496 -1.0379 -0.7488  0.4405
 2544TIP3    H231828   2.558   3.867  10.353  0.0850  0.5245 -0.1779
 2545TIP3   OH231829   2.553   6.526  12.284 -0.2754  0.2958 -0.0638
 2545TIP3    H131830   2.477   6.582  12.273 -0.2641 -0.1288 -3.3686
 2545TIP3    H231831   2.572   6.494  12.196  2.0048 -1.9032  1.0949
 2546TIP3   OH231832   6.278   6.526  10.993  0.1758 -0.0934  0.1614
 2546TIP3    H131833   6.369   6.543  10.970  0.3430 -0.7960  0.2767
 2546TIP3    H231834   6.229   6.541  10.912  0.3373  0.6841  0.2038
 2547TIP3   OH231835   4.650   6.662  11.391 -0.1763 -0.1338  0.1415
 2547TIP3    H131836   4.573   6.621  11.429  1.2115 -0.6840  2.5918
 2547TIP3    H231837   4.620   6.748  11.362 -2.4217 -1.5941 -2.2551
 2548TIP3   OH231838   1.619   1.552  11.062 -0.6248 -0.1328 -0.3100
 2548TIP3    H131839   1.680   1.505  11.005  2.0642  2.4893  0.1647
 2548TIP3    H231840   1.672   1.576  11.138 -2.4942  1.6136  0.5203
 2549TIP3   OH231841   5.556   1.625  11.926 -0.5899 -0.0046  0.0727
 2549TIP3    H131842   5.500   1.664  11.994  0.0224  0.0167  0.5762
 2549TIP3    H231843   5.618   1.571  11.975 -1.0587 -1.1675 -0.5724
 2550TIP3   OH231844   1.143   3.491  10.399 -0.5676  0.1332 -0.4750
 2550TIP3    H131845   1.157   3.424  10.332  0.2030 -0.3888  0.1774
 2550TIP3    H231846   1.052   3.519  10.387 -0.4697 -0.0206 -1.6564
 2551TIP3   OH231847   4.456   6.365  12.166  0.0711  0.3584 -0.2374
 2551TIP3    H131848   4.534   6.358  12.221 -0.2785  0.4441  0.2766
 2551TIP3    H231849   4.486   6.338  12.079  0.6783  0.4154 -0.0525
 2552TIP3   OH231850   2.612   6.387  10.376 -0.6621 -0.0219  0.0344
 2552TIP3    H131851   2.599   6.317  10.440 -2.9343  0.8473  0.6305
 2552TIP3    H231852   2.537   6.445  10.388  0.3678  1.7457 -1.4530
 2553TIP3   OH231853   2.459   6.477  10.773 -0.1997 -0.1248 -0.0177
 2553TIP3    H131854   2.377   6.526  10.783 -0.2649 -0.3578  0.6510
 2553TIP3    H231855   2.434   6.401  10.719  0.2418  1.3566 -2.4413
 2554TIP3   OH231856   3.755   2.921  11.154 -0.3979 -0.5097 -0.4587
 2554TIP3    H131857   3.815   2.848  11.145  0.1306 -0.2281  0.6444
 2554TIP3    H231858   3.728   2.919  11.246 -0.1879  0.8218 -0.3538
 2555TIP3   OH231859   4.738   3.327  12.731 -0.2924 -0.0713 -0.4099
 2555TIP3    H131860   4.759   3.372  12.813  0.8660 -2.3286  0.6014
 2555TIP3    H231861   4.801   3.362  12.668  0.6826 -0.3462  0.3891
 2556TIP3   OH231862   1.558   2.202  12.833  0.1315  0.1596  0.0913
 2556TIP3    H131863   1.466   2.193  12.860 -0.6382  1.2512 -1.9031
 2556TIP3    H231864   1.601   2.244  12.907 -0.9751 -0.3933  1.0802
 2557TIP3   OH231865   1.393   4.804  11.633 -0.1305 -1.2994  0.0106
 2557TIP3    H131866   1.313   4.754  11.650  0.3837 -1.6708  1.4812
 2557TIP3    H231867   1.373   4.891  11.666  0.1426 -1.4567  0.6025
 2558TIP3   OH231868   5.772   1.424  11.672  0.3530  0.2727  0.4682
 2558TIP3    H131869   5.849   1.379  11.638 -1.2980 -1.3186 -1.4665
 2558TIP3    H231870   5.805   1.505  11.709  2.8940 -0.2012 -0.5737
 2559TIP3   OH231871   4.056   4.522  11.467 -0.0684  0.2415  0.9104
 2559TIP3    H131872   4.115   4.585  11.426 -0.1317 -1.1740 -1.4854
 2559TIP3    H231873   3.969   4.548  11.437 -0.0363 -1.3018 -0.6008
 2560TIP3   OH231874   4.135   5.842  10.981  0.1449  0.1292  0.3595
 2560TIP3    H131875   4.230   5.855  10.983  0.2327 -0.5088  0.5516
 2560TIP3    H231876   4.098   5.931  10.980  0.7726  0.4137 -1.2524
 2561TIP3   OH231877   3.102   2.648  12.736 -0.2391 -0.6612 -0.0789
 2561TIP3    H131878   3.085   2.718  12.673 -0.3274 -0.5438  0.0760
 2561TIP3    H231879   3.144   2.579  12.684 -1.2813 -1.0021 -0.4924
 2562TIP3   OH231880   6.178   0.834  10.812  0.1642 -0.4460 -0.0968
 2562TIP3    H131881   6.095   0.807  10.852  0.9087 -1.9562  0.4959
 2562TIP3    H231882   6.242   0.770  10.843  1.5810  0.7070 -0.5056
 2563TIP3   OH231883   6.277   2.931  12.265  0.6900  0.3732 -0.1064
 2563TIP3    H131884   6.352   2.974  12.306  0.0156  1.3143  0.1577
 2563TIP3    H231885   6.240   2.876  12.334 -0.6423  2.2034  0.7168
 2564TIP3   OH231886   2.278   1.386  11.298  0.0228  0.6303 -0.1939
 2564TIP3    H131887   2.341   1.412  11.365 -1.1132 -0.3342  1.2978
 2564TIP3    H231888   2.264   1.293  11.313 -1.7427  0.8162 -0.4907
 2565TIP3   OH231889   2.921   0.346  12.221 -0.2376 -0.3243 -0.6023
 2565TIP3    H131890   2.938   0.258  12.187 -0.3341  0.5453 -3.0561
 2565TIP3    H231891   2.862   0.385  12.158 -2.8274  0.4735  2.1134
 2566TIP3   OH231892   6.480   0.087  12.586 -0.3132 -0.6254 -0.1527
 2566TIP3    H131893   6.449   0.103  12.497  1.6863  0.0803 -0.7623
 2566TIP3    H231894   6.507   0.173  12.618  1.1047 -1.2173  0.2936
 2567TIP3   OH231895   5.710   4.331  12.101  0.2025  0.4796 -0.4202
 2567TIP3    H131896   5.618   4.354  12.092  0.1346 -0.3809 -2.4653
 2567TIP3    H231897   5.715   4.238  12.077  1.6232  0.5763 -0.6235
 2568TIP3   OH231898   2.958   4.725  13.325 -0.0567 -0.0001  0.2497
 2568TIP3    H131899   2.999   4.756  13.406 -1.7275 -2.2773  2.1077
 2568TIP3    H231900   2.880   4.780  13.317  0.4972  0.7263 -0.2631
 2569TIP3   OH231901   2.488   4.902  12.727 -0.1834 -0.5219  0.2170
 2569TIP3    H131902   2.572   4.934  12.693 -0.3673 -1.3421 -1.0483
 2569TIP3    H231903   2.442   4.981  12.755  0.8882 -0.0344  0.6826
 2570TIP3   OH231904   0.068   1.532  11.948  0.0037 -0.0044 -0.0369
 2570TIP3    H131905   0.100   1.464  12.008 -0.2714  0.7785  1.0161
 2570TIP3    H231906   0.106   1.508  11.863 -1.3936 -2.4191 -0.0715
 2571TIP3   OH231907   3.227   5.942  13.356  0.4807 -0.9128 -0.3959
 2571TIP3    H131908   3.222   5.851  13.385  0.5446 -1.0985 -0.9596
 2571TIP3    H231909   3.144   5.981  13.385  0.3818 -1.1903 -0.3074
 2572TIP3   OH231910   6.206   4.078  12.318 -0.3353  0.7827  0.5541
 2572TIP3    H131911   6.214   3.986  12.292 -2.6151  0.2332  1.5726
 2572TIP3    H231912   6.225   4.127  12.238  0.0895 -0.5893 -0.2201
 2573TIP3   OH231913   0.439   4.170  11.176  0.1505  0.2861  0.9611
 2573TIP3    H131914   0.445   4.237  11.107 -1.6929  0.7106  1.1811
 2573TIP3    H231915   0.517   4.185  11.230  0.5296  1.3053  0.1700
 2574TIP3   OH231916   0.635   5.857  12.137 -0.3454 -0.5459  0.6530
 2574TIP3    H131917   0.691   5.912  12.082 -0.6321 -1.0217 -0.1463
 2574TIP3    H231918   0.546   5.872  12.103 -0.5594 -0.6530  1.1625
 2575TIP3   OH231919   6.603   3.256  11.360  0.1998 -0.3942 -0.0344
 2575TIP3    H131920   6.530   3.194  11.365  0.1275 -0.2542  0.7912
 2575TIP3    H231921   6.663   3.218  11.295  0.0676 -1.2297  0.3270
 2576TIP3   OH231922   1.262   0.408  13.053 -0.2418 -0.3482  0.6977
 2576TIP3    H131923   1.336   0.467  13.042  0.5033 -1.1070  1.4380
 2576TIP3    H231924   1.300   0.329  13.090 -1.2854 -1.1252  0.1758
 2577TIP3   OH231925   1.220   6.508  12.740  0.4527 -0.1441 -0.5872
 2577TIP3    H131926   1.241   6.560  12.818 -2.5833 -2.0847  1.7855
 2577TIP3    H231927   1.300   6.458  12.723  1.5126  1.0033  0.7291
 2578TIP3   OH231928   2.180   0.155  10.946  0.4161  0.1609  0.1866
 2578TIP3    H131929   2.179   0.223  10.879  0.1428 -1.3730 -1.4424
 2578TIP3    H231930   2.094   0.113  10.939  0.6719 -0.5299  0.9630
 2579TIP3   OH231931   1.988   5.075  11.054 -0.4168 -0.0821  0.2679
 2579TIP3    H131932   2.064   5.031  11.015 -1.0712 -2.1462  1.1931
 2579TIP3    H231933   2.004   5.070  11.149 -0.8590  1.1076  0.4214
 2580TIP3   OH231934   2.665   5.078  10.157 -0.3766  0.1607  0.5473
 2580TIP3    H131935   2.754   5.043  10.154 -0.6558 -0.4841 -1.5294
 2580TIP3    H231936   2.647   5.107  10.068 -1.2261  3.0271  1.5610
 2581TIP3   OH231937   1.649   2.232   7.975 -0.6255 -0.1876  0.1520
 2581TIP3    H131938   1.624   2.315   8.015 -1.2032  0.4102 -1.3823
 2581TIP3    H231939   1.573   2.175   7.988 -0.7737 -0.0263 -0.0041
 2582TIP3   OH231940   0.186   1.893  11.938 -0.5031  0.6087  0.9852
 2582TIP3    H131941   0.184   1.946  12.018 -0.5651 -0.3618  1.6489
 2582TIP3    H231942   0.227   1.811  11.965 -0.2900  0.3574 -0.0516
 2583TIP3   OH231943   3.026   1.608  12.442  0.2597 -0.1065  0.0042
 2583TIP3    H131944   3.110   1.563  12.434  0.4766  0.6230 -2.8042
 2583TIP3    H231945   2.961   1.540  12.422  0.3219 -0.1368 -0.0952
 2584TIP3   OH231946   0.011   4.088   9.954  0.6117 -0.0429  0.2865
 2584TIP3    H131947  -0.009   4.143  10.030 -0.3575  0.7367 -0.4945
 2584TIP3    H231948   0.084   4.132   9.911  0.3750  0.1974  0.1207
 2585TIP3   OH231949   0.071   3.696  12.651  0.0681 -0.3412  0.4958
 2585TIP3    H131950   0.120   3.703  12.570 -0.1965 -1.4768  0.2174
 2585TIP3    H231951   0.126   3.739  12.717  0.9350 -0.6477 -0.0123
 2586TIP3   OH231952   1.692   4.940   9.133 -0.2059  0.2227 -0.1273
 2586TIP3    H131953   1.707   5.028   9.167  0.1470  0.2238 -0.2866
 2586TIP3    H231954   1.769   4.890   9.160 -1.5486 -0.7406  2.2599
 2587TIP3   OH231955   6.595   6.657  10.559  0.3741  0.3714  0.7691
 2587TIP3    H131956   6.643   6.618  10.487 -0.6330  0.6540 -0.0722
 2587TIP3    H231957   6.601   6.752  10.543 -0.5554  0.4065  0.5783
 2588TIP3   OH231958   6.360   1.544  10.894  0.0031  0.0270  0.3217
 2588TIP3    H131959   6.329   1.461  10.858 -0.0248 -0.1605  0.7743
 2588TIP3    H231960   6.380   1.525  10.986  0.2083  0.4649  0.3725
 2589TIP3   OH231961   3.159   6.811  12.843 -0.7814  0.2451  0.6531
 2589TIP3    H131962   3.230   6.779  12.788 -0.4470  1.4420  0.3640
 2589TIP3    H231963   3.141   6.739  12.904 -0.3226 -0.6189 -0.2147
 2590TIP3   OH231964   0.675   2.734  12.697 -0.2828  0.0377 -0.0818
 2590TIP3    H131965   0.678   2.804  12.632 -0.9414 -0.3860 -0.5824
 2590TIP3    H231966   0.752   2.749  12.752  0.1996  0.4952 -0.8613
 2591TIP3   OH231967   0.077   3.439  12.697 -0.6739  0.4098 -0.3912
 2591TIP3    H131968   0.051   3.529  12.678 -0.8598  0.2356 -0.9831
 2591TIP3    H231969   0.097   3.440  12.791  1.4094  1.5529 -0.7941
 2592TIP3   OH231970   5.761   5.393  12.113  0.2396  0.9404  0.5505
 2592TIP3    H131971   5.673   5.356  12.120  0.1042  1.3370  1.0120
 2592TIP3    H231972   5.749   5.477  12.070  0.6556  0.0892 -1.3322
 2593TIP3   OH231973   1.811   5.549  11.570 -0.0752 -0.3580 -0.8519
 2593TIP3    H131974   1.838   5.466  11.531  1.3705 -0.6732  0.7117
 2593TIP3    H231975   1.753   5.524  11.641 -0.2448  0.0302 -0.8492
 2594TIP3   OH231976   0.550   6.350  11.425 -0.1059 -0.0062  0.0255
 2594TIP3    H131977   0.493   6.421  11.455 -0.0478 -0.3875  1.0697
 2594TIP3    H231978   0.578   6.378  11.337 -2.8611 -0.3760 -1.0765
 2595TIP3   OH231979   4.704   5.519  12.331 -0.7660 -0.6279  0.2391
 2595TIP3    H131980   4.644   5.584  12.367  0.2302  0.1589  0.5364
 2595TIP3    H231981   4.725   5.462  12.404 -1.1657 -0.9125  0.1303
 2596TIP3   OH231982   3.617   2.052  13.200 -0.0832  0.1674  0.6772
 2596TIP3    H131983   3.552   2.122  13.210 -0.9090 -0.6866  1.5029
 2596TIP3    H231984   3.568   1.978  13.166  0.4208 -0.5583  1.5037
 2597TIP3   OH231985   1.701   3.351  11.969 -0.7793 -0.2266 -0.6555
 2597TIP3    H131986   1.780   3.353  12.023  0.4978 -0.8723 -2.4095
 2597TIP3    H231987   1.676   3.258  11.967 -1.5457 -0.0378 -0.1866
 2598TIP3   OH231988   3.208   4.961  11.182 -0.8006 -0.2333 -0.0743
 2598TIP3    H131989   3.266   4.885  11.188 -1.6273 -0.9816 -1.1909
 2598TIP3    H231990   3.127   4.933  11.223 -0.8664  0.3252  0.1919
 2599TIP3   OH231991   6.457   0.938  10.601  0.0422  0.0438  0.2153
 2599TIP3    H131992   6.367   0.954  10.573 -0.2871 -0.1860  1.1038
 2599TIP3    H231993   6.482   0.858  10.555 -0.3256 -0.0754  0.2202
 2600TIP3   OH231994   1.767   4.156  10.330  0.0243  0.6918 -0.1368
 2600TIP3    H131995   1.831   4.108  10.383 -0.9045  0.9843  1.3305
 2600TIP3    H231996   1.711   4.088  10.293 -0.1578  0.5340  0.4118
 2601TIP3   OH231997   2.704   4.247  13.090  0.0760 -0.1595 -0.2383
 2601TIP3    H131998   2.728   4.304  13.163 -0.4064  0.5689 -0.6336
 2601TIP3    H231999   2.780   4.250  13.031 -0.7865  1.9604 -1.3774
 2602TIP3   OH232000   6.545   5.585  11.565 -0.5603 -0.0217 -0.5499
 2602TIP3    H132001   6.588   5.670  11.562 -1.9361  0.6844 -0.9232
 2602TIP3    H232002   6.452   5.604  11.553 -0.9108 -1.5692 -0.5424
 2603TIP3   OH232003   6.422   2.006  11.508 -0.3988  0.3103  0.1274
 2603TIP3    H132004   6.515   2.009  11.484 -0.0841  0.6185  1.2773
 2603TIP3    H232005   6.406   2.091  11.550 -0.9482 -0.1055  0.7769
 2604TIP3   OH232006   0.281   4.562  12.632  0.2886 -0.4386 -1.3031
 2604TIP3    H132007   0.366   4.598  12.657  0.2616 -0.9704 -0.4234
 2604TIP3    H232008   0.302   4.489  12.574  0.5196 -1.6079  0.2031
 2605TIP3   OH232009   4.686   1.428  11.369 -0.4143  0.0518 -0.0254
 2605TIP3    H132010   4.613   1.458  11.424  0.4328  1.1532  0.5372
 2605TIP3    H232011   4.706   1.503  11.313 -0.6952 -0.7660 -1.2678
 2606TIP3   OH232012   4.161   4.644  11.698  0.4009  0.0821 -0.0635
 2606TIP3    H132013   4.186   4.588  11.771  0.0954  0.7976  0.6019
 2606TIP3    H232014   4.123   4.585  11.634 -1.9870 -0.2577  1.5298
 2607TIP3   OH232015   5.040   3.035   9.826 -0.0002 -0.5024 -0.0107
 2607TIP3    H132016   5.108   3.015   9.760  0.6481  1.7265 -0.0873
 2607TIP3    H232017   4.960   3.000   9.788  0.8526 -1.9752 -0.5560
 2608TIP3   OH232018   3.562   4.194  12.640  0.4459 -0.2785 -0.1002
 2608TIP3    H132019   3.600   4.136  12.574  1.9341 -1.3482  1.6115
 2608TIP3    H232020   3.512   4.136  12.697  0.2217  0.4306  0.4395
 2609TIP3   OH232021   5.976   1.646  11.627 -0.5280  0.0845 -0.2816
 2609TIP3    H132022   5.949   1.735  11.652 -1.7929 -0.1529 -0.7014
 2609TIP3    H232023   6.066   1.639  11.657  0.1912  2.1053 -1.7285
 2610TIP3   OH232024   0.377   2.938   9.972  0.3819 -0.4719  0.1157
 2610TIP3    H132025   0.361   2.970   9.883  2.4923  0.2351 -0.0658
 2610TIP3    H232026   0.392   2.844   9.961  0.4962 -0.4130 -0.2472
 2611TIP3   OH232027   0.216   1.868  12.845 -0.8819  0.5277  0.3483
 2611TIP3    H132028   0.221   1.805  12.916  2.2615 -0.2832 -0.4561
 2611TIP3    H232029   0.228   1.953  12.888  2.2072 -0.0271  0.8030
 2612TIP3   OH232030   1.619   1.998  10.945 -0.1477 -0.4197 -0.3375
 2612TIP3    H132031   1.542   1.946  10.919 -0.3639 -1.3613  1.9418
 2612TIP3    H232032   1.687   1.972  10.883 -0.5178 -2.7694  0.1551
 2613TIP3   OH232033   5.901   0.580  10.490 -0.0881  0.1316 -0.1007
 2613TIP3    H132034   5.934   0.664  10.524 -0.5814  0.7363 -1.0892
 2613TIP3    H232035   5.821   0.603  10.444  0.2769 -0.7580 -1.2017
 2614TIP3   OH232036   4.584   4.523  11.575 -0.7689 -0.2349  0.3290
 2614TIP3    H132037   4.546   4.610  11.587 -0.3242  0.1356 -0.7793
 2614TIP3    H232038   4.678   4.539  11.566 -0.5060 -0.9839  1.5118
 2615TIP3   OH232039   1.280   1.574  12.525  0.4441 -0.4853  0.4034
 2615TIP3    H132040   1.298   1.522  12.446 -2.1067  0.7847 -1.1679
 2615TIP3    H232041   1.200   1.535  12.561  0.0361  0.6333  0.7361
 2616TIP3   OH232042   1.234   1.709   9.718 -0.4504 -0.1509 -0.3306
 2616TIP3    H132043   1.321   1.673   9.734  0.2863  1.9077  0.6213
 2616TIP3    H232044   1.191   1.644   9.663  2.4634 -0.2327 -2.7540
 2617TIP3   OH232045   0.655   5.834  12.818 -0.8879 -0.2271  0.2761
 2617TIP3    H132046   0.726   5.785  12.860 -1.2682  0.3237  1.6316
 2617TIP3    H232047   0.682   5.926  12.825 -1.5023 -0.0473  0.3520
 2618TIP3   OH232048   5.430   2.376  10.068  0.3885  0.5104 -0.3914
 2618TIP3    H132049   5.475   2.296  10.041  0.7328  0.2252  0.9531
 2618TIP3    H232050   5.337   2.356  10.056  0.5356  0.7980 -2.3691
 2619TIP3   OH232051   0.004   6.763  11.496 -0.1760 -0.3184 -0.3207
 2619TIP3    H132052   0.070   6.812  11.546  0.1546 -1.6993  0.6319
 2619TIP3    H232053   0.053   6.693  11.454 -1.0535 -1.4812  0.5544
 2620TIP3   OH232054   5.295   5.744  11.253 -0.2530  0.1125  0.1925
 2620TIP3    H132055   5.232   5.777  11.188  0.8042  1.7120 -0.0826
 2620TIP3    H232056   5.345   5.677  11.206 -1.0580 -0.4457  0.1093
 2621TIP3   OH232057   5.681   3.614  10.478 -0.1532 -0.0250  0.7329
 2621TIP3    H132058   5.601   3.666  10.485  1.2401  2.3362  0.2393
 2621TIP3    H232059   5.685   3.566  10.561 -3.4753 -2.5197 -0.3329
 2622TIP3   OH232060   0.301   4.448   9.839 -0.0383  0.4851  0.2626
 2622TIP3    H132061   0.268   4.498   9.764 -0.1174  0.4959  0.3042
 2622TIP3    H232062   0.244   4.473   9.911 -0.7225 -0.4107  0.0617
 2623TIP3   OH232063   3.140   0.201   9.310 -0.1050  0.3232  0.5607
 2623TIP3    H132064   3.064   0.154   9.275  1.4840 -0.3743 -2.2330
 2623TIP3    H232065   3.184   0.136   9.366  0.4220 -0.5527 -0.8304
 2624TIP3   OH232066   4.062   4.554  12.220  0.0955 -0.2957 -0.4989
 2624TIP3    H132067   3.986   4.495  12.215  1.2006 -1.6783 -1.7205
 2624TIP3    H232068   4.037   4.629  12.167 -1.3043  0.3897  1.0114
 2625TIP3   OH232069   3.062   5.538  11.020  0.0868  0.2567  0.4145
 2625TIP3    H132070   3.049   5.526  11.114 -0.5343  0.5060  0.3605
 2625TIP3    H232071   3.081   5.631  11.011  0.5274  0.1631  0.3299
 2626TIP3   OH232072   5.423   5.207  11.327  0.8967 -0.0193 -0.0828
 2626TIP3    H132073   5.437   5.121  11.287 -0.2955 -0.6897  0.8828
 2626TIP3    H232074   5.463   5.201  11.413  1.0777  0.5040 -0.1267
 2627TIP3   OH232075   5.420   3.845  12.103  0.4278  0.4369 -0.3669
 2627TIP3    H132076   5.390   3.755  12.089  0.5713  0.4352 -0.6637
 2627TIP3    H232077   5.377   3.896  12.034 -1.2484  0.9525  0.9946
 2628TIP3   OH232078   2.943   2.453  10.659 -0.1408 -0.3028  0.0419
 2628TIP3    H132079   2.952   2.445  10.754  0.7881 -1.1456 -0.1047
 2628TIP3    H232080   2.851   2.434  10.642 -0.3431 -0.0305  0.7750
 2629TIP3   OH232081   2.198   0.083  12.962 -0.1866  0.1322 -0.8387
 2629TIP3    H132082   2.161   0.135  12.890 -0.6306 -1.0089 -1.4536
 2629TIP3    H232083   2.275   0.042  12.925  0.0245  0.1456 -0.4216
 2630TIP3   OH232084   5.553   1.538   9.881 -0.1111  0.1506  0.0988
 2630TIP3    H132085   5.550   1.499   9.794 -0.1816 -0.4057  0.3458
 2630TIP3    H232086   5.463   1.534   9.913 -0.0094 -0.0489  0.3668
 2631TIP3   OH232087   2.648   2.358  11.158  0.1881  0.1787 -0.1579
 2631TIP3    H132088   2.626   2.406  11.078 -1.8236 -2.5485 -1.4309
 2631TIP3    H232089   2.673   2.270  11.128  2.1645 -0.1594  2.1005
 2632TIP3   OH232090   2.294   6.161  11.233 -0.2170  0.4610  0.1135
 2632TIP3    H132091   2.298   6.159  11.329 -1.4547 -1.4950  0.1857
 2632TIP3    H232092   2.202   6.178  11.213 -0.1000  0.1888 -0.7050
 2633TIP3   OH232093   6.657   3.520  13.127 -0.3959 -0.1250 -0.4820
 2633TIP3    H132094   6.577   3.505  13.076 -1.7083 -2.6742  1.9892
 2633TIP3    H232095   6.638   3.597  13.180 -1.4215 -0.9096  0.3349
 2634TIP3   OH232096   3.736   1.716  11.939  0.4465  0.4091  0.2532
 2634TIP3    H132097   3.706   1.754  11.857 -3.3172 -1.2737  0.6375
 2634TIP3    H232098   3.693   1.768  12.007  2.4770  0.9756  1.1690
 2635TIP3   OH232099   3.406   0.888  10.395 -0.0031  0.0733  0.5554
 2635TIP3    H132100   3.380   0.960  10.453 -2.2181 -0.1398 -0.0599
 2635TIP3    H232101   3.325   0.864  10.350  1.1914 -1.2393 -1.0004
 2636TIP3   OH232102   6.601   6.039  13.066  0.6878  0.0660  0.1088
 2636TIP3    H132103   6.600   5.944  13.082  0.4118 -0.1730 -1.2141
 2636TIP3    H232104   6.510   6.066  13.078  0.8030  0.2069  0.6884
 2637TIP3   OH232105   2.665   6.419  12.048 -0.1528  0.0289 -0.3697
 2637TIP3    H132106   2.590   6.418  11.988 -0.3131  0.4165 -0.1792
 2637TIP3    H232107   2.694   6.328  12.052 -0.5158 -0.0973 -0.5690
 2638TIP3   OH232108   2.409   3.153  12.166  0.3243  0.0566 -0.6450
 2638TIP3    H132109   2.371   3.241  12.163  0.0998 -0.0296 -0.4369
 2638TIP3    H232110   2.333   3.095  12.171  0.4876 -0.1055  0.0669
 2639TIP3   OH232111   4.621   6.651  12.790 -0.5851  0.0126  0.0267
 2639TIP3    H132112   4.617   6.556  12.801 -1.2739 -0.0560 -0.7277
 2639TIP3    H232113   4.560   6.669  12.718  2.2541  0.6122 -2.4379
 2640TIP3   OH232114   1.954   2.011  12.456 -0.2384 -0.5581 -0.3028
 2640TIP3    H132115   1.971   2.098  12.494  1.5801 -0.9576 -0.0919
 2640TIP3    H232116   1.947   2.027  12.362  1.0769 -0.2720 -0.3746
 2641TIP3   OH232117   6.098   1.356  12.518  0.2727  1.0083 -0.1370
 2641TIP3    H132118   6.107   1.337  12.611 -0.8790 -0.7522 -0.3373
 2641TIP3    H232119   6.039   1.431  12.514 -1.2772 -0.1300  0.5253
 2642TIP3   OH232120   4.166   0.278  12.721 -0.2177  0.1689 -0.5703
 2642TIP3    H132121   4.196   0.275  12.630  1.4887 -1.4130 -0.0052
 2642TIP3    H232122   4.246   0.281  12.773 -1.1717  1.9351  0.9187
 2643TIP3   OH232123   5.178   4.188  11.787  0.1742 -0.6962  0.0204
 2643TIP3    H132124   5.156   4.215  11.698  3.0522 -2.3855 -1.3248
 2643TIP3    H232125   5.201   4.270  11.832  0.4535  0.0042 -1.3516
 2644TIP3   OH232126   4.077   2.504  11.871  0.1834 -0.5867 -0.1411
 2644TIP3    H132127   4.051   2.423  11.827  0.5831 -0.2541 -1.0135
 2644TIP3    H232128   4.168   2.517  11.844  0.0074  0.3381 -0.3002
 2645TIP3   OH232129   3.517   6.227  12.809  0.1168  0.0468 -0.1730
 2645TIP3    H132130   3.576   6.152  12.817  1.3132  0.9909  0.2422
 2645TIP3    H232131   3.558   6.282  12.742 -0.1347  0.8458  0.3174
 2646TIP3   OH232132   0.785   0.377  13.054  0.2494 -0.5896 -0.4430
 2646TIP3    H132133   0.729   0.419  13.119 -3.4030 -2.3187 -2.1902
 2646TIP3    H232134   0.821   0.301  13.099  0.9196  0.3088  0.5879
 2647TIP3   OH232135   4.124   0.605  10.119  0.3208  0.3142  0.2554
 2647TIP3    H132136   4.187   0.565  10.058 -0.4482  0.4962 -0.6800
 2647TIP3    H232137   4.041   0.601  10.073 -0.5195 -0.6019  1.7873
 2648TIP3   OH232138   6.620   1.230  12.901 -0.1805  0.2500 -0.3090
 2648TIP3    H132139   6.674   1.152  12.910 -1.6427 -0.7949 -0.2284
 2648TIP3    H232140   6.644   1.266  12.816  0.5720 -0.2426 -0.3141
 2649TIP3   OH232141   4.714   5.521  10.227 -0.2567  0.1900 -0.6449
 2649TIP3    H132142   4.634   5.540  10.178 -0.1934  0.8660 -0.4982
 2649TIP3    H232143   4.688   5.530  10.319 -0.0339  0.3017 -0.5934
 2650TIP3   OH232144   5.609   5.706  11.312  0.1531 -0.6599  0.1375
 2650TIP3    H132145   5.703   5.695  11.326  0.7249  0.6670 -2.0740
 2650TIP3    H232146   5.598   5.693  11.218 -1.7103  0.2527  0.1911
 2651TIP3   OH232147   4.988   4.469  10.552 -0.4858 -0.2206 -0.1964
 2651TIP3    H132148   4.912   4.458  10.495 -0.9140 -0.2615  0.3742
 2651TIP3    H232149   5.051   4.403  10.520 -0.8025 -0.3909 -0.4806
 2652TIP3   OH232150   4.123   2.574  10.134 -0.2311  0.5992 -0.5809
 2652TIP3    H132151   4.149   2.561  10.042 -0.1337 -1.0522 -0.3511
 2652TIP3    H232152   4.169   2.504  10.181 -1.0825  0.8118  0.5858
 2653TIP3   OH232153   1.339   6.521  12.347 -0.1671  0.1810 -0.7010
 2653TIP3    H132154   1.248   6.544  12.365 -0.1883 -0.3553 -0.0626
 2653TIP3    H232155   1.333   6.439  12.296 -0.0380 -1.4209  1.6949
 2654TIP3   OH232156   5.311   6.480  11.998  0.1402 -0.3463  0.2929
 2654TIP3    H132157   5.305   6.390  11.966  0.1853  0.2160 -1.3698
 2654TIP3    H232158   5.371   6.523  11.938 -1.1055  1.2019  0.0925
 2655TIP3   OH232159   0.339   0.033  11.906 -0.4746  0.0556  0.3705
 2655TIP3    H132160   0.363   0.124  11.921  0.0522 -0.1394  0.7154
 2655TIP3    H232161   0.263   0.019  11.962 -0.3710  0.1940  0.5466
 2656TIP3   OH232162   5.778   5.381  10.101  0.7062 -0.4997  0.0546
 2656TIP3    H132163   5.772   5.381  10.196  0.2719 -0.6751  0.0286
 2656TIP3    H232164   5.863   5.342  10.083  0.4610 -1.1937  0.3588
 2657TIP3   OH232165   0.799   0.959  11.945  0.0991 -0.0647 -0.2390
 2657TIP3    H132166   0.727   0.990  11.890 -2.1488  1.6590  3.2785
 2657TIP3    H232167   0.866   1.027  11.937  0.5463 -0.6693 -2.0039
 2658TIP3   OH232168   5.712   3.990  12.077 -0.0910 -0.2743  0.4004
 2658TIP3    H132169   5.752   3.942  12.150  1.3957  0.9926  0.4473
 2658TIP3    H232170   5.621   4.003  12.105  0.3457 -0.1748  1.8523
 2659TIP3   OH232171   3.372   5.708  12.140 -0.6751  0.4405  0.3114
 2659TIP3    H132172   3.385   5.671  12.227  0.2791 -0.0736 -0.0272
 2659TIP3    H232173   3.445   5.673  12.088 -2.7350 -1.6204 -1.4563
 2660TIP3   OH232174   0.708   3.391  10.694  0.0820  0.5065 -0.0083
 2660TIP3    H132175   0.739   3.326  10.631 -0.1898  0.3367  0.0314
 2660TIP3    H232176   0.736   3.356  10.779 -0.0967  0.4202  0.0159
 2661TIP3   OH232177   4.342   2.316  10.011 -0.0914  0.0447  0.0938
 2661TIP3    H132178   4.423   2.286  10.052  0.5316  0.5908 -0.7085
 2661TIP3    H232179   4.276   2.252  10.038  0.3670  0.1749  1.6232
 2662TIP3   OH232180   5.671   1.527  11.430  0.4743  0.4691  0.4908
 2662TIP3    H132181   5.743   1.568  11.381  0.7941  0.3369  0.8397
 2662TIP3    H232182   5.709   1.508  11.516 -0.0489  0.6110  0.7592
 2663TIP3   OH232183   1.967   3.980  11.570  0.0016  0.1344  0.0692
 2663TIP3    H132184   1.878   3.992  11.602  0.0930  1.2458 -0.0704
 2663TIP3    H232185   2.017   4.051  11.609  0.2775  1.0978 -1.9083
 2664TIP3   OH232186   2.926   4.979  12.261  0.5448  0.0168  0.0769
 2664TIP3    H132187   2.913   5.001  12.353 -1.7780 -1.6643  0.2508
 2664TIP3    H232188   2.852   5.020  12.216  1.6296  0.7885 -1.0937
 2665TIP3   OH232189   0.192   1.129  11.575  0.0927  0.1199  0.0102
 2665TIP3    H132190   0.208   1.209  11.525 -1.4762  0.1721 -0.4696
 2665TIP3    H232191   0.198   1.156  11.666 -1.4552  1.0518 -0.1317
 2666TIP3   OH232192   1.444   0.173  12.789  0.0493 -0.2920 -0.1781
 2666TIP3    H132193   1.515   0.234  12.811  0.0881 -0.1800 -0.6032
 2666TIP3    H232194   1.463   0.146  12.699 -0.9787  0.4757 -0.6479
 2667TIP3   OH232195   0.575   6.285  12.339  0.6960  0.1507  0.1470
 2667TIP3    H132196   0.496   6.340  12.341 -1.5670 -2.7962  3.1454
 2667TIP3    H232197   0.647   6.346  12.359 -0.7251  2.8956 -2.3735
 2668TIP3   OH232198   1.339   1.558  11.086  0.3143  0.1409  0.1370
 2668TIP3    H132199   1.311   1.627  11.024  1.6947 -1.2781 -2.2266
 2668TIP3    H232200   1.429   1.539  11.061  0.6285 -1.1440  2.0817
 2669TIP3   OH232201   3.552   4.885  12.487 -0.1352 -0.7304 -0.1503
 2669TIP3    H132202   3.610   4.960  12.473  0.8649 -1.1373  1.5333
 2669TIP3    H232203   3.612   4.811  12.501 -1.0985 -1.7129 -1.0049
 2670TIP3   OH232204   4.268   4.955  10.958  0.7476 -0.2603  0.5578
 2670TIP3    H132205   4.333   5.010  10.915  0.2376 -0.5735 -0.6435
 2670TIP3    H232206   4.319   4.883  10.996  1.1499 -0.2848 -0.0144
 2671TIP3   OH232207   1.564   0.494  10.613 -0.0675 -0.6088  0.5586
 2671TIP3    H132208   1.606   0.409  10.604 -0.5245 -0.7715 -0.1336
 2671TIP3    H232209   1.508   0.484  10.691  0.1924 -0.8047  0.7239
 2672TIP3   OH232210   1.389   2.429  10.690  0.2000  0.5156 -0.7059
 2672TIP3    H132211   1.420   2.395  10.606  1.0517 -0.2557 -0.0990
 2672TIP3    H232212   1.457   2.491  10.717  0.7737 -0.4691  0.1795
 2673TIP3   OH232213   6.185   5.425  12.282  0.5461  0.4093  0.4846
 2673TIP3    H132214   6.165   5.490  12.350  1.7513  1.1062  0.1939
 2673TIP3    H232215   6.272   5.448  12.251  1.1083 -1.4960  0.5164
 2674TIP3   OH232216   2.487   6.374  11.496  0.3932 -0.0561 -0.1510
 2674TIP3    H132217   2.563   6.425  11.466  0.9649 -0.7146  0.1608
 2674TIP3    H232218   2.468   6.408  11.583 -0.3834  0.8822 -0.6690
 2675TIP3   OH232219   0.375   4.992  10.002  0.7254 -0.4937  0.1908
 2675TIP3    H132220   0.380   4.944   9.919  0.9101 -0.3588  0.1243
 2675TIP3    H232221   0.460   5.034  10.010  0.6873 -0.4632  0.4242
 2676TIP3   OH232222   0.326   1.077  10.177 -0.5989  0.0076 -0.0370
 2676TIP3    H132223   0.374   1.156  10.198 -0.8631  0.4010 -0.8661
 2676TIP3    H232224   0.367   1.009  10.230  1.6986  0.0793 -1.5981
 2677TIP3   OH232225   5.900   0.015  10.713 -0.1506  0.1402 -0.1774
 2677TIP3    H132226   5.912   0.091  10.770 -1.2906 -0.6898  1.2567
 2677TIP3    H232227   5.805   0.004  10.708 -0.1234  0.3902 -2.6024
 2678TIP3   OH232228   2.188   1.498  10.354  0.6270 -0.3653  0.3315
 2678TIP3    H132229   2.111   1.475  10.406  0.1829 -0.4261 -0.3387
 2678TIP3    H232230   2.200   1.591  10.370  1.6045 -0.7385  1.9755
 2679TIP3   OH232231   3.452   5.611  11.800  0.3864 -0.8181  0.0009
 2679TIP3    H132232   3.474   5.681  11.738  1.2051 -0.3176  0.8290
 2679TIP3    H232233   3.365   5.581  11.773  0.2785  0.1172 -0.7275
 2680TIP3   OH232234   4.787   6.094  11.522  0.2467 -0.3134 -0.3554
 2680TIP3    H132235   4.838   6.018  11.549 -0.6573 -1.5420 -1.9566
 2680TIP3    H232236   4.836   6.130  11.447 -0.6750 -0.8892 -1.2503
 2681TIP3   OH232237   4.984   4.993  12.185 -0.0623 -0.0757  0.7262
 2681TIP3    H132238   4.914   5.048  12.151  1.4321  0.7520 -1.1634
 2681TIP3    H232239   4.958   4.904  12.163 -0.1546  0.2875 -0.7039
 2682TIP3   OH232240   3.717   3.203  11.158  0.3723 -0.7376 -1.0979
 2682TIP3    H132241   3.685   3.249  11.081  2.2502 -0.4565 -1.7670
 2682TIP3    H232242   3.730   3.113  11.127 -0.5148 -1.0416 -0.6085
 2683TIP3   OH232243   0.808   3.275  11.747 -0.3032 -0.2072  0.5358
 2683TIP3    H132244   0.853   3.346  11.702 -1.0100  1.3436  2.1313
 2683TIP3    H232245   0.877   3.210  11.765  0.8756  1.1174  1.0134
 2684TIP3   OH232246   1.257   1.960   9.659 -0.3474 -0.2371  0.5676
 2684TIP3    H132247   1.220   1.873   9.672  0.4351 -0.8682 -1.1541
 2684TIP3    H232248   1.184   2.012   9.624 -0.5578 -0.4715  0.6515
 2685TIP3   OH232249   1.344   2.568  12.825 -0.0760  0.0004  0.0609
 2685TIP3    H132250   1.290   2.635  12.783 -0.1264  1.3170  2.0818
 2685TIP3    H232251   1.295   2.487  12.811 -2.0696  0.9928  0.8942
 2686TIP3   OH232252   1.272   0.843  10.053  0.2249  0.4695  0.2709
 2686TIP3    H132253   1.239   0.901  10.122 -0.0709  0.7681 -0.1127
 2686TIP3    H232254   1.312   0.902   9.990  0.7658  0.1700  0.3333
 2687TIP3   OH232255   5.278   5.977  11.687 -0.5064 -0.3902 -0.3882
 2687TIP3    H132256   5.224   5.960  11.764 -2.1464 -0.2184 -1.4618
 2687TIP3    H232257   5.263   5.901  11.629 -0.1885  0.0279 -1.0351
 2688TIP3   OH232258   5.276   1.387  10.726  0.5127  0.1640  0.0687
 2688TIP3    H132259   5.253   1.463  10.780 -0.2801  0.1859 -0.2906
 2688TIP3    H232260   5.365   1.364  10.754  1.2095  1.8826 -0.5814
 2689TIP3   OH232261   4.682   3.978  11.041 -0.0453 -0.1058 -0.4355
 2689TIP3    H132262   4.748   4.011  10.980  0.7870 -0.5558  0.1910
 2689TIP3    H232263   4.722   3.898  11.077 -0.6639 -0.0246  0.4427
 2690TIP3   OH232264   3.861   6.543  10.931  0.1388 -0.4228  0.5174
 2690TIP3    H132265   3.806   6.465  10.926 -1.4065  0.7006 -1.6179
 2690TIP3    H232266   3.951   6.510  10.928 -0.4684 -2.1095 -0.2524
 2691TIP3   OH232267   2.030   0.491  13.135 -0.0116  0.5699  0.4488
 2691TIP3    H132268   2.108   0.439  13.155 -0.9985 -0.7010  1.1187
 2691TIP3    H232269   1.964   0.460  13.197 -1.1963  1.2875 -0.4227
 2692TIP3   OH232270   4.459   3.682  13.019  0.4705  0.0837  0.2795
 2692TIP3    H132271   4.478   3.622  13.091  0.2227 -1.5178 -0.9362
 2692TIP3    H232272   4.468   3.629  12.940 -0.2152  1.5418 -0.8361
 2693TIP3   OH232273   2.888   2.311  12.989 -0.2377  0.1591  0.0121
 2693TIP3    H132274   2.839   2.344  13.064 -0.4332  1.3547 -0.6253
 2693TIP3    H232275   2.937   2.236  13.024  0.5814  1.3790  1.6245
 2694TIP3   OH232276   1.959   4.786   9.767 -0.0597 -0.2695 -0.6102
 2694TIP3    H132277   2.009   4.792   9.848 -1.5604  1.3534  0.2813
 2694TIP3    H232278   1.999   4.852   9.710  0.5200 -0.8883 -0.9329
 2695TIP3   OH232279   0.498   5.421  10.415  0.2023  0.1546 -0.3053
 2695TIP3    H132280   0.533   5.505  10.446 -0.5767  1.1531 -1.9911
 2695TIP3    H232281   0.540   5.407  10.331  1.6469 -2.0865  0.7106
 2696TIP3   OH232282   1.579   2.979  11.790 -0.4347 -0.1203 -0.0736
 2696TIP3    H132283   1.616   2.892  11.776 -0.2339  0.0876 -0.9290
 2696TIP3    H232284   1.639   3.021  11.852  0.5448  0.0548 -1.1008
 2697TIP3   OH232285   4.927   3.530  12.856 -0.0175  0.4557 -0.7904
 2697TIP3    H132286   4.909   3.540  12.763  1.1769  1.8765 -0.9059
 2697TIP3    H232287   4.916   3.618  12.892 -1.1149 -0.1960  0.5478
 2698TIP3   OH232288   0.614   5.965  10.610 -0.3935 -0.6139  0.3133
 2698TIP3    H132289   0.629   5.886  10.662 -0.8878 -0.9090  0.0220
 2698TIP3    H232290   0.655   6.035  10.660 -0.4486 -0.9662  0.8636
 2699TIP3   OH232291   5.397   1.401  11.854 -0.0746 -0.2381 -0.5227
 2699TIP3    H132292   5.428   1.389  11.764 -0.4816  1.5956 -0.9527
 2699TIP3    H232293   5.452   1.471  11.889 -0.8145 -0.0097  0.1995
 2700TIP3   OH232294   1.142   5.253   9.622  0.0578 -0.7684  0.1895
 2700TIP3    H132295   1.064   5.200   9.604  0.4319 -2.4595  3.0169
 2700TIP3    H232296   1.215   5.190   9.620  0.8847  0.1439  0.9497
 2701TIP3   OH232297   5.169   1.133  10.932 -0.2272 -0.2667  0.0736
 2701TIP3    H132298   5.102   1.091  10.987  0.1220  0.4686  1.0885
 2701TIP3    H232299   5.161   1.226  10.953  0.2124 -0.0276 -0.8122
 2702TIP3   OH232300   2.705   2.358  10.168  0.8089  0.1458 -0.4521
 2702TIP3    H132301   2.688   2.378  10.075 -0.7444 -0.7889 -0.4021
 2702TIP3    H232302   2.747   2.437  10.202  0.1611  1.0294 -1.6354
 2703TIP3   OH232303   0.639   3.685  11.707 -0.3720 -0.3407 -0.2669
 2703TIP3    H132304   0.691   3.720  11.779  0.8821 -2.4065 -0.0943
 2703TIP3    H232305   0.550   3.716  11.724 -0.1011 -0.7191  2.1144
 2704TIP3   OH232306   2.391   5.897  12.523  0.0365  0.2938 -0.3952
 2704TIP3    H132307   2.326   5.950  12.478 -1.2888 -0.6574  0.3177
 2704TIP3    H232308   2.453   5.961  12.560 -1.3451  1.3262  0.2063
 2705TIP3   OH232309   5.227   6.142  12.588 -0.0380  0.0262 -0.2422
 2705TIP3    H132310   5.197   6.070  12.533  2.3306 -0.3580 -1.1480
 2705TIP3    H232311   5.270   6.099  12.662  0.0023  0.5326  0.0364
 2706TIP3   OH232312   4.737   0.667  11.699  0.1379 -0.6478  0.2213
 2706TIP3    H132313   4.696   0.747  11.731 -0.4163 -0.1313 -1.6417
 2706TIP3    H232314   4.829   0.691  11.685  0.3046 -0.7788  1.0422
 2707TIP3   OH232315   2.151   4.632  11.213  0.1155  0.5247  0.1508
 2707TIP3    H132316   2.064   4.627  11.251  0.6492  2.1113  1.7838
 2707TIP3    H232317   2.165   4.547  11.171 -1.7693 -0.1488  0.7862
 2708TIP3   OH232318   1.908   0.519  11.162  0.4415  0.4670 -0.2426
 2708TIP3    H132319   1.978   0.468  11.122 -1.4311 -1.0505 -1.8034
 2708TIP3    H232320   1.876   0.574  11.090 -0.3089  0.7375  0.2969
 2709TIP3   OH232321   1.322   0.171  13.213  0.2070  0.1879  0.0833
 2709TIP3    H132322   1.305   0.077  13.215 -0.1889  0.2670  1.5129
 2709TIP3    H232323   1.403   0.182  13.263 -0.4317  0.7307  1.0192
 2710TIP3   OH232324   3.098   0.054  11.652 -0.6399  0.1782  0.1098
 2710TIP3    H132325   3.029   0.009  11.603 -0.8859  0.6084  0.0540
 2710TIP3    H232326   3.077   0.036  11.743  0.0650 -0.9829  0.0504
 2711TIP3   OH232327   2.520   3.741  12.262  0.2371  0.1697  0.1422
 2711TIP3    H132328   2.482   3.786  12.187  1.8666  0.4730 -0.5442
 2711TIP3    H232329   2.502   3.648  12.246 -0.1504  0.3015 -0.1979
 2712TIP3   OH232330   6.203   0.267  11.941 -0.4270 -0.7485  0.2847
 2712TIP3    H132331   6.222   0.343  11.997 -2.0798  0.3001 -0.4977
 2712TIP3    H232332   6.285   0.218  11.940 -0.1410 -0.5293  3.1260
 2713TIP3   OH232333   6.259   3.580  12.751  0.3452  0.1876  0.5278
 2713TIP3    H132334   6.168   3.576  12.722  0.9659  0.2933 -1.6000
 2713TIP3    H232335   6.301   3.504  12.711  1.3850  0.6356  0.7328
 2714TIP3   OH232336   2.904   2.097  12.627  0.3806 -0.4793 -0.4303
 2714TIP3    H132337   2.944   2.060  12.548 -0.9242 -3.2216  0.0565
 2714TIP3    H232338   2.879   2.020  12.679 -1.8753  1.1636  1.1069
 2715TIP3   OH232339   5.935   1.731  13.432  0.0780  0.2840 -0.1080
 2715TIP3    H132340   5.850   1.768  13.455  0.5105  0.5018  1.2267
 2715TIP3    H232341   5.976   1.799  13.378 -0.4178  0.3688 -0.3821
 2716TIP3   OH232342   5.060   6.552  11.406 -0.0797  0.2035 -0.2542
 2716TIP3    H132343   5.128   6.516  11.462 -0.9829 -2.1596 -0.5710
 2716TIP3    H232344   5.104   6.621  11.356  1.2396  0.9689  1.8172
 2717TIP3   OH232345   4.153   5.363  11.861 -0.2705 -0.0826 -0.6034
 2717TIP3    H132346   4.227   5.408  11.819  0.9663 -0.7813  0.7128
 2717TIP3    H232347   4.102   5.433  11.901  0.2440  0.3483 -0.6849
 2718TIP3   OH232348   3.495   3.246  10.472  0.2213 -0.8357  0.4529
 2718TIP3    H132349   3.556   3.301  10.422  1.1557 -1.5946  0.7263
 2718TIP3    H232350   3.411   3.258  10.428  0.3471  0.9473  0.6073
 2719TIP3   OH232351   3.323   6.154  10.882  0.1825 -0.3498  0.2649
 2719TIP3    H132352   3.376   6.222  10.840  0.1946 -0.0340  0.7786
 2719TIP3    H232353   3.314   6.183  10.973 -1.6632  0.0700 -0.0182
 2720TIP3   OH232354   3.530   0.238  12.352 -0.3788  0.1456  0.4295
 2720TIP3    H132355   3.501   0.215  12.440  0.0500 -1.1978  0.2397
 2720TIP3    H232356   3.512   0.332  12.345 -0.2354  0.3195  2.0108
 2721TIP3   OH232357   1.703   6.724  11.014 -0.0877  0.4177  0.3707
 2721TIP3    H132358   1.780   6.752  10.966  0.6577 -0.5445  0.9736
 2721TIP3    H232359   1.675   6.644  10.970  0.2742 -0.1680  1.1850
 2722TIP3   OH232360   5.813   4.998  11.713 -0.3776  0.1700 -1.1003
 2722TIP3    H132361   5.753   4.975  11.641  0.8856 -1.8675 -1.5746
 2722TIP3    H232362   5.756   5.005  11.789 -1.4696  0.1530 -1.8842
 2723TIP3   OH232363   2.197   2.106  11.732  0.9372  0.5939 -0.1420
 2723TIP3    H132364   2.176   2.190  11.771 -0.8189 -0.2162  0.8047
 2723TIP3    H232365   2.241   2.057  11.801  2.4212  0.8877 -0.8503
 2724TIP3   OH232366   0.385   1.971  11.770 -0.1646 -0.8180  0.1557
 2724TIP3    H132367   0.305   1.932  11.808 -0.1940 -0.7992  0.1135
 2724TIP3    H232368   0.456   1.936  11.823 -0.1319 -1.4775 -0.3082
 2725TIP3   OH232369   2.214   0.730  10.232 -0.1018  0.1324  0.0600
 2725TIP3    H132370   2.148   0.744  10.300 -1.3035  0.7665 -1.1924
 2725TIP3    H232371   2.296   0.754  10.273 -0.7446  0.1115  1.4109
 2726TIP3   OH232372   1.874   4.812  10.626 -0.1108 -0.1453 -0.5133
 2726TIP3    H132373   1.943   4.780  10.684 -1.6911 -0.0771  1.5183
 2726TIP3    H232374   1.863   4.904  10.650 -1.6351 -0.4355  0.0211
 2727TIP3   OH232375   2.422   4.013   9.762 -0.4836 -0.0741 -0.4466
 2727TIP3    H132376   2.471   4.073   9.707 -0.5376  0.3130 -0.0780
 2727TIP3    H232377   2.333   4.049   9.765 -0.1301  0.7573  1.0938
 2728TIP3   OH232378   6.506   0.908  12.604 -0.1753  0.1071  0.0391
 2728TIP3    H132379   6.545   0.993  12.624 -0.0444 -0.2995  1.7172
 2728TIP3    H232380   6.449   0.890  12.678 -0.1849 -1.2687 -0.2706
 2729TIP3   OH232381   4.131   2.910  11.154 -0.2369 -0.3893 -0.1181
 2729TIP3    H132382   4.073   2.868  11.090 -0.8319  0.0584  0.1145
 2729TIP3    H232383   4.208   2.854  11.157 -1.1070 -1.5872  0.3617
 2730TIP3   OH232384   1.233   2.382  10.245  0.0380  0.0377  0.2296
 2730TIP3    H132385   1.315   2.406  10.203 -0.0426  0.7687  0.4810
 2730TIP3    H232386   1.239   2.417  10.334 -0.6427  0.3198  0.1745
 2731TIP3   OH232387   4.952   6.182  11.886  0.1676 -0.0994 -0.3977
 2731TIP3    H132388   4.870   6.141  11.860 -0.2891  1.1543 -1.0067
 2731TIP3    H232389   4.926   6.248  11.950  0.8309 -0.3608  0.1592
 2732TIP3   OH232390   2.055   6.475  11.785 -0.2978  0.5648 -0.0369
 2732TIP3    H132391   1.995   6.549  11.799  0.7854  1.7367 -1.3084
 2732TIP3    H232392   2.134   6.499  11.833  0.6857  1.1003 -1.8237
 2733TIP3   OH232393   5.755   4.608  12.594 -0.5095  0.4127 -0.1138
 2733TIP3    H132394   5.775   4.530  12.647 -2.2860  0.9089  1.4163
 2733TIP3    H232395   5.804   4.679  12.636 -0.2222  0.4237 -0.4669
 2734TIP3   OH232396   1.562   0.296  10.932  0.2885  0.0058 -0.2416
 2734TIP3    H132397   1.532   0.232  10.997  0.2961 -0.8847 -1.0943
 2734TIP3    H232398   1.577   0.245  10.852 -0.1307  1.1364 -1.0777
 2735TIP3   OH232399   2.117   2.324  11.889 -0.4011  0.1623  0.1929
 2735TIP3    H132400   2.138   2.411  11.857  0.9394  0.0673  0.7637
 2735TIP3    H232401   2.116   2.333  11.985 -1.0734 -0.2763  0.2362
 2736TIP3   OH232402   1.969   1.773   9.783 -0.0217  0.4460 -0.0551
 2736TIP3    H132403   1.997   1.683   9.768  1.2982  0.6046  1.1828
 2736TIP3    H232404   2.051   1.823   9.789 -0.7394  1.9612 -1.8768
 2737TIP3   OH232405   1.321   3.966   9.293  0.1733  0.0264  0.0349
 2737TIP3    H132406   1.324   4.036   9.358  1.5541  0.6091 -0.6343
 2737TIP3    H232407   1.398   3.913   9.312  0.8896  0.5024 -1.4352
 2738TIP3   OH232408   0.675   4.137  11.584  0.1536  0.1703  0.1176
 2738TIP3    H132409   0.594   4.138  11.635 -1.7464  0.3420 -2.6953
 2738TIP3    H232410   0.687   4.046  11.559  1.1102  0.0720  0.8864
 2739TIP3   OH232411   6.380   5.042  12.030  0.2611 -0.4059 -0.3868
 2739TIP3    H132412   6.323   5.119  12.037 -0.3962 -0.7290 -1.8133
 2739TIP3    H232413   6.437   5.048  12.106 -0.1443  1.1904 -0.1622
 2740TIP3   OH232414   6.581   4.815  11.294  0.9167 -0.3516 -0.1124
 2740TIP3    H132415   6.569   4.862  11.377  1.6758  0.7593 -0.5962
 2740TIP3    H232416   6.598   4.724  11.320 -1.1968 -0.5372  0.8259
 2741TIP3   OH232417   1.866   6.735  10.557  0.1396 -0.2604  0.7182
 2741TIP3    H132418   1.789   6.685  10.531 -0.9043  1.7380 -0.2408
 2741TIP3    H232419   1.929   6.669  10.585 -0.7494 -2.1946 -1.4999
 2742TIP3   OH232420   4.294   4.274  11.403  0.2715 -0.1790 -0.2315
 2742TIP3    H132421   4.254   4.277  11.316 -1.8152  0.6374  0.6811
 2742TIP3    H232422   4.367   4.336  11.398  1.0617 -1.1852 -1.7705
 2743TIP3   OH232423   4.893   0.731  12.424  0.7060  0.2665  0.0343
 2743TIP3    H132424   4.928   0.766  12.505 -0.1578 -0.2197  0.6373
 2743TIP3    H232425   4.969   0.701  12.375  1.5325  3.3069 -0.6930
 2744TIP3   OH232426   0.556   6.427  12.004  0.1670  0.1617  0.1380
 2744TIP3    H132427   0.583   6.397  12.091  1.1812 -0.3911 -0.3489
 2744TIP3    H232428   0.598   6.513  11.995  0.9619 -0.2562 -0.2218
 2745TIP3   OH232429   1.499   4.345  10.465  0.0148 -0.1343 -0.1321
 2745TIP3    H132430   1.450   4.426  10.452 -0.5919 -0.5985 -0.8130
 2745TIP3    H232431   1.591   4.370  10.451 -0.2822  0.1740 -1.6803
 2746TIP3   OH232432   3.252   1.448  12.523 -0.0097 -0.7742 -0.6084
 2746TIP3    H132433   3.267   1.397  12.603 -0.9384 -2.7343 -1.5952
 2746TIP3    H232434   3.303   1.403  12.456 -1.1273 -0.6414 -1.5863
 2747TIP3   OH232435   6.416   6.776  12.792  0.3675 -0.2424 -0.5531
 2747TIP3    H132436   6.417   6.850  12.731  1.7145  2.1891  2.1675
 2747TIP3    H232437   6.484   6.717  12.759 -0.4071 -0.0738 -2.5407
 2748TIP3   OH232438   4.477   4.837  11.106 -0.1530 -0.0674  0.5684
 2748TIP3    H132439   4.444   4.837  11.196 -1.3704 -0.1600  0.1305
 2748TIP3    H232440   4.566   4.873  11.114 -0.5198  0.6488  1.7086
 2749TIP3   OH232441   2.173   3.695  11.265  0.3796  0.4683  0.0066
 2749TIP3    H132442   2.107   3.762  11.281 -0.9589 -0.9154  0.4343
 2749TIP3    H232443   2.133   3.635  11.202  1.6029  0.1135 -0.4799
 2750TIP3   OH232444   1.853   1.834  11.720 -0.7247  0.2043  0.4696
 2750TIP3    H132445   1.896   1.882  11.649 -2.0169  1.4732  0.4927
 2750TIP3    H232446   1.792   1.775  11.676 -0.7788  0.2429  0.4924
 2751TIP3   OH232447   1.992   2.914  10.037  0.0768  0.5093  0.2882
 2751TIP3    H132448   2.059   2.949  10.095 -1.1676  0.3001  1.9445
 2751TIP3    H232449   1.937   2.989  10.015 -0.7021  0.2341  1.1936
 2752TIP3   OH232450   1.425   2.240  10.933 -0.0326  0.1108 -0.2404
 2752TIP3    H132451   1.476   2.164  10.908  0.5786 -0.2227  1.8029
 2752TIP3    H232452   1.483   2.314  10.919  0.5845 -0.1449  0.8767
 2753TIP3   OH232453   1.019   0.779  11.570  0.2905 -0.4520  0.3987
 2753TIP3    H132454   1.095   0.792  11.513  0.1740 -2.1470 -0.2035
 2753TIP3    H232455   1.054   0.730  11.645  0.2814  1.0674  1.4343
 2754TIP3   OH232456   4.971   2.853  11.074 -0.4925  0.4149  0.5344
 2754TIP3    H132457   4.986   2.825  10.984 -0.4422 -0.1958  0.7343
 2754TIP3    H232458   4.904   2.921  11.066  1.0537  1.9501 -0.1887
 2755TIP3   OH232459   3.005   1.154  10.573  0.2633  0.7464 -0.6030
 2755TIP3    H132460   2.933   1.215  10.592  0.6971  1.2684 -0.6308
 2755TIP3    H232461   3.034   1.124  10.659  0.5769  1.1959 -0.5490
 2756TIP3   OH232462   1.692   5.204   9.939 -0.1560 -0.2398 -0.2382
 2756TIP3    H132463   1.727   5.292   9.951  0.6744 -0.6893  0.7676
 2756TIP3    H232464   1.769   5.147   9.943 -1.0035 -1.3207  2.6401
 2757TIP3   OH232465   3.920   2.637  10.727  0.2834 -0.0833  0.3383
 2757TIP3    H132466   3.860   2.615  10.656  1.5851 -0.4535 -0.6940
 2757TIP3    H232467   3.949   2.726  10.706  0.3973 -0.0555  0.6157
 2758TIP3   OH232468   3.705   5.982  11.934  0.5811 -0.4385 -0.3347
 2758TIP3    H132469   3.620   6.021  11.912  1.1820  0.9841 -0.2615
 2758TIP3    H232470   3.767   6.053  11.920  1.7932 -1.5173 -0.5781
 2759TIP3   OH232471   5.495   1.138  11.450 -0.0632  0.1985 -0.4173
 2759TIP3    H132472   5.573   1.103  11.408 -0.7374 -0.6663 -0.9788
 2759TIP3    H232473   5.496   1.099  11.538 -0.5360 -0.8696 -0.8639
 2760TIP3   OH232474   5.062   3.335  10.500 -0.3800 -0.2411 -0.1150
 2760TIP3    H132475   5.006   3.404  10.465  0.7733  0.2819 -0.9917
 2760TIP3    H232476   5.072   3.273  10.428  2.8982  1.3849 -1.2623
 2761TIP3   OH232477   5.754   1.932  13.502 -0.2503 -0.0239 -0.6080
 2761TIP3    H132478   5.833   1.987  13.509  1.5475 -2.5923  2.1514
 2761TIP3    H232479   5.691   1.974  13.561  0.9683 -0.5676  1.1851
 2762TIP3   OH232480   3.205   0.778  13.164  0.5575  0.1777  0.4957
 2762TIP3    H132481   3.278   0.812  13.113 -0.8667  1.7573 -0.5792
 2762TIP3    H232482   3.174   0.852  13.216  1.2410 -1.0978  2.9176
 2763TIP3   OH232483   2.821   0.170  11.619 -0.1525 -0.1882 -0.1952
 2763TIP3    H132484   2.811   0.076  11.607 -2.4894  0.1357 -1.3921
 2763TIP3    H232485   2.745   0.195  11.672  0.3774  1.0490  0.0103
 2764TIP3   OH232486   4.652   0.964  10.569  0.2382  0.4800  0.0812
 2764TIP3    H132487   4.600   0.900  10.616  0.6336  1.3701  1.8201
 2764TIP3    H232488   4.722   0.913  10.528 -1.0081 -0.5033 -0.9142
 2765TIP3   OH232489   1.880   1.278  12.253 -0.0756 -0.4279 -0.5147
 2765TIP3    H132490   1.870   1.258  12.160  1.1098  1.1417 -1.0346
 2765TIP3    H232491   1.952   1.222  12.282  0.9250  0.4970 -1.0983
 2766TIP3   OH232492   6.245   0.817  10.330 -0.1488 -0.2561  0.0803
 2766TIP3    H132493   6.242   0.889  10.393  1.3486  1.2827 -1.5235
 2766TIP3    H232494   6.329   0.775  10.345  0.4408  0.4296 -1.1687
 2767TIP3   OH232495   3.330   5.362  11.510  0.4843 -0.1274  0.2416
 2767TIP3    H132496   3.314   5.455  11.490  0.9904 -0.2486 -0.7984
 2767TIP3    H232497   3.294   5.316  11.434 -0.9935 -0.8893  1.3572
 2768TIP3   OH232498   4.880   4.064  11.889 -0.2483  0.5307 -0.4323
 2768TIP3    H132499   4.807   4.095  11.942 -0.5464 -0.0751 -0.4830
 2768TIP3    H232500   4.951   4.125  11.908 -0.7047  1.0018 -0.2260
 2769TIP3   OH232501   2.302   3.652  10.104  0.4903 -0.0915 -0.3525
 2769TIP3    H132502   2.354   3.602  10.042  1.6087  0.4971  0.0872
 2769TIP3    H232503   2.264   3.587  10.163  1.2832 -0.4753 -0.2654
 2770TIP3   OH232504   5.461   4.716  12.996 -0.4353  0.0973 -0.2975
 2770TIP3    H132505   5.474   4.622  12.981  1.8991 -0.1357  2.4345
 2770TIP3    H232506   5.372   4.723  13.030 -0.9407 -0.9747 -1.3270
 2771TIP3   OH232507   4.349   5.467  10.575  0.3059 -0.5073  0.7308
 2771TIP3    H132508   4.348   5.515  10.493 -1.3332 -2.4951 -0.5200
 2771TIP3    H232509   4.413   5.397  10.561  1.3962  0.2236  1.8770
 2772TIP3   OH232510   0.212   1.644  13.054 -0.1055  0.5243 -0.1246
 2772TIP3    H132511   0.203   1.565  13.000 -0.9991  0.0421  0.6867
 2772TIP3    H232512   0.138   1.639  13.115  1.7579  0.1303  2.2641
 2773TIP3   OH232513   3.400   6.823  13.165  0.0386  0.0968  0.3429
 2773TIP3    H132514   3.478   6.868  13.196 -0.4891  1.9715 -0.8678
 2773TIP3    H232515   3.328   6.881  13.191 -0.9475 -1.4255  1.1346
 2774TIP3   OH232516   4.591   2.706  10.389  0.3055 -0.7324 -0.0374
 2774TIP3    H132517   4.597   2.652  10.310 -0.2192  1.6079 -1.8001
 2774TIP3    H232518   4.502   2.692  10.421 -0.2258 -0.0611 -1.1687
 2775TIP3   OH232519   4.071   2.715   9.368 -0.5121 -0.6293  0.0617
 2775TIP3    H132520   4.047   2.800   9.404  1.9113  0.2819 -0.3184
 2775TIP3    H232521   4.080   2.658   9.444 -0.4933 -0.1054  0.4522
 2776TIP3   OH232522   1.316   0.997   9.366  0.7069  0.8024 -0.1773
 2776TIP3    H132523   1.300   0.934   9.296  3.0001 -0.9132  0.7305
 2776TIP3    H232524   1.313   0.945   9.446 -2.2529  2.7710  1.1587
 2777TIP3   OH232525   1.837   1.450  12.536 -0.0675 -0.5394 -0.2819
 2777TIP3    H132526   1.917   1.436  12.485 -0.4452  0.2134 -1.1227
 2777TIP3    H232527   1.814   1.542  12.519 -0.0436 -0.1783  1.5075
 2778TIP3   OH232528   4.207   5.607  12.993  0.3217  0.2896 -0.3663
 2778TIP3    H132529   4.146   5.678  12.969 -0.3228 -0.1521 -0.0715
 2778TIP3    H232530   4.240   5.574  12.910  1.2256  1.4319 -0.4945
 2779TIP3   OH232531   3.437   4.271  10.332 -0.3944 -0.9167  0.4542
 2779TIP3    H132532   3.449   4.279  10.238 -0.1902 -1.8172  0.3897
 2779TIP3    H232533   3.512   4.219  10.361 -0.2762 -0.3695  1.1671
 2780TIP3   OH232534   2.429   0.780  10.385 -0.7957  0.3497  0.2755
 2780TIP3    H132535   2.501   0.798  10.324 -0.3168 -1.1991  0.3192
 2780TIP3    H232536   2.418   0.861  10.434  0.5483  0.8131 -0.1295
 2781TIP3   OH232537   3.310   2.100  11.432  0.7538 -0.2782  0.3884
 2781TIP3    H132538   3.326   2.099  11.338  1.4106 -0.2230  0.4960
 2781TIP3    H232539   3.359   2.026  11.467 -0.3979 -0.9934  0.5607
 2782TIP3   OH232540   3.230   4.300  11.292  0.3424 -0.6104  0.4041
 2782TIP3    H132541   3.229   4.290  11.387 -0.6451 -2.6960  0.2130
 2782TIP3    H232542   3.244   4.394  11.278  0.4320 -0.2588  2.5928
 2783TIP3   OH232543   1.918   0.163  10.583 -0.1178  0.3372 -0.1600
 2783TIP3    H132544   1.892   0.073  10.563  0.6013 -0.2930  1.5820
 2783TIP3    H232545   1.906   0.210  10.500 -5.1887 -0.1834 -0.0281
 2784TIP3   OH232546   1.304   5.276  12.290 -0.2688  0.4198 -0.0679
 2784TIP3    H132547   1.243   5.276  12.217  0.6366  4.1868 -1.0310
 2784TIP3    H232548   1.390   5.289  12.249  0.8312 -1.3000  1.4943
 2785TIP3   OH232549   6.430   5.840  12.602  0.1379  0.1220  0.5874
 2785TIP3    H132550   6.498   5.899  12.567 -0.3460  0.4083  0.1129
 2785TIP3    H232551   6.472   5.755  12.606  0.4501  0.2421  0.0282
 2786TIP3   OH232552   4.840   4.698  10.989  0.1373  0.1660  0.1935
 2786TIP3    H132553   4.922   4.666  10.952 -0.4671 -0.6903 -0.4505
 2786TIP3    H232554   4.776   4.686  10.919 -0.6773  0.1832  0.9183
 2787TIP3   OH232555   3.659   6.672  11.949 -0.2512  0.3230 -0.0704
 2787TIP3    H132556   3.575   6.627  11.962 -0.2306 -0.2306 -1.6479
 2787TIP3    H232557   3.706   6.617  11.887  1.0114  1.0009  0.2593
 2788TIP3   OH232558   5.921   2.949  11.921 -0.2010  0.2702 -0.6123
 2788TIP3    H132559   5.839   2.972  11.966 -0.6322 -0.0031 -1.2458
 2788TIP3    H232560   5.894   2.888  11.852  0.7742 -1.3263  0.3492
 2789TIP3   OH232561   4.877   6.145  10.894  0.0886  0.0389 -0.7180
 2789TIP3    H132562   4.864   6.054  10.867  1.6100 -0.4038 -0.0297
 2789TIP3    H232563   4.867   6.195  10.813  0.7140 -0.9011 -1.4032
 2790TIP3   OH232564   6.302   0.173  11.235  0.6493 -0.1392  0.1376
 2790TIP3    H132565   6.225   0.219  11.201  1.2380  0.4709 -0.4235
 2790TIP3    H232566   6.267   0.099  11.284 -0.3238  0.8471  0.9673
 2791TIP3   OH232567   0.016   4.078  10.747 -0.0714 -0.4882 -0.0719
 2791TIP3    H132568  -0.001   3.993  10.788  1.3966 -0.4040  0.7961
 2791TIP3    H232569   0.094   4.111  10.792  0.3861  0.5540 -1.5438
 2792TIP3   OH232570   5.343   2.260  11.243  0.0233 -0.6206 -0.6633
 2792TIP3    H132571   5.321   2.196  11.311  1.2040  0.6965  1.0678
 2792TIP3    H232572   5.439   2.254  11.235  0.2173  1.2078 -0.1010
 2793TIP3   OH232573   5.433   5.817  10.755 -0.7853  0.4115  0.0865
 2793TIP3    H132574   5.397   5.879  10.692 -1.8891  0.2542  0.5268
 2793TIP3    H232575   5.445   5.736  10.706  1.9351  1.2659 -0.8380
 2794TIP3   OH232576   4.671   6.375  12.775 -0.1604 -0.8785 -0.3932
 2794TIP3    H132577   4.719   6.348  12.697 -1.0774 -1.6767 -0.6950
 2794TIP3    H232578   4.688   6.306  12.839 -0.1527 -0.6862 -0.1837
 2795TIP3   OH232579   1.583   2.000  10.512  0.6676 -0.0421 -0.0587
 2795TIP3    H132580   1.643   2.047  10.570  1.4496  0.1899 -1.0262
 2795TIP3    H232581   1.535   2.068  10.466 -0.3001 -0.2305  0.6490
 2796TIP3   OH232582   2.440   3.195  12.458  0.3012  0.2885  0.3653
 2796TIP3    H132583   2.370   3.130  12.461 -0.5195  1.1732  1.1435
 2796TIP3    H232584   2.485   3.178  12.375 -1.8867  0.7514 -1.0006
 2797TIP3   OH232585   1.346   2.266  12.619  0.2467  0.2912 -0.2620
 2797TIP3    H132586   1.277   2.200  12.631 -0.5892  1.3525  0.9538
 2797TIP3    H232587   1.424   2.226  12.657 -0.5188  0.4200  1.5225
 2798TIP3   OH232588   0.227   2.678  12.401 -0.1709  0.3379 -0.4606
 2798TIP3    H132589   0.246   2.740  12.471  0.6864  1.0981 -1.3471
 2798TIP3    H232590   0.311   2.636  12.383 -0.7180 -1.0091  0.0411
 2799TIP3   OH232591   1.144   0.864  12.518  0.0893  0.0928 -0.6692
 2799TIP3    H132592   1.127   0.820  12.602 -0.8970 -1.4187 -1.6167
 2799TIP3    H232593   1.098   0.811  12.453  4.2435 -1.3705 -2.8191
 2800TIP3   OH232594   1.990   0.382  10.387 -0.4988  0.2380 -0.2219
 2800TIP3    H132595   2.043   0.383  10.307 -1.4033  1.4062 -0.8298
 2800TIP3    H232596   1.912   0.432  10.364 -2.1103 -1.8271  0.5097
 2801TIP3   OH232597   2.922   5.019  10.114  0.0681  0.0079 -0.4840
 2801TIP3    H132598   2.921   5.042  10.021 -3.3726  1.0575 -0.3177
 2801TIP3    H232599   2.986   5.079  10.153  0.0652  0.9605 -1.8578
 2802TIP3   OH232600   6.251   1.621  12.760  0.1016 -0.1519 -0.2797
 2802TIP3    H132601   6.316   1.581  12.818  0.2383 -1.6038 -1.3585
 2802TIP3    H232602   6.296   1.629  12.676 -1.1164 -1.3490 -1.0963
 2803TIP3   OH232603   3.166   3.582  11.854  0.0166  0.0035 -0.5061
 2803TIP3    H132604   3.170   3.543  11.942 -1.8082  0.2713 -0.2602
 2803TIP3    H232605   3.236   3.539  11.805  1.0311 -0.1928  1.0564
 2804TIP3   OH232606   2.935   3.193  12.419  1.1241  0.0631 -1.1062
 2804TIP3    H132607   2.860   3.205  12.360  1.3417 -0.5729 -1.5168
 2804TIP3    H232608   2.919   3.255  12.490 -0.7298 -1.3002 -0.2418
 2805TIP3   OH232609   2.771   5.368  11.251  0.2861  0.5657 -0.0876
 2805TIP3    H132610   2.720   5.291  11.276  0.5942  0.6265  0.7720
 2805TIP3    H232611   2.845   5.368  11.312  0.8115  0.9992 -0.7140
 2806TIP3   OH232612   4.171   2.613  10.513 -0.2021  0.1929  0.0657
 2806TIP3    H132613   4.180   2.539  10.453  0.5419 -0.6806  1.2172
 2806TIP3    H232614   4.245   2.605  10.573  0.1349  2.1240 -0.0313
 2807TIP3   OH232615   3.502   5.397  13.509  0.1579 -0.0280  0.7789
 2807TIP3    H132616   3.490   5.436  13.596 -1.5534  1.6253 -0.1160
 2807TIP3    H232617   3.444   5.321  13.509 -0.0854  0.1564  0.9758
 2808TIP3   OH232618   6.730   1.535  12.879  0.2605 -0.7244  0.0211
 2808TIP3    H132619   6.788   1.568  12.810  0.0238 -0.6414 -0.1370
 2808TIP3    H232620   6.783   1.468  12.924  0.5302 -0.5458 -0.0294
 2809TIP3   OH232621   3.949   5.544  11.987 -0.1003  0.2384  0.2024
 2809TIP3    H132622   3.870   5.550  11.934 -0.4501  0.5872  0.7464
 2809TIP3    H232623   3.950   5.625  12.037  0.4253  0.0869  0.4436
 2810TIP3   OH232624   6.432   4.688  11.010  0.3866 -0.5355 -0.5573
 2810TIP3    H132625   6.486   4.622  11.055  2.4639  0.9880 -0.6524
 2810TIP3    H232626   6.496   4.742  10.963 -1.2280  1.5338 -0.4909
 2811TIP3   OH232627   0.343   2.887  12.125  0.3444 -0.1545  0.1991
 2811TIP3    H132628   0.401   2.813  12.140  0.2509 -0.1255  0.7168
 2811TIP3    H232629   0.383   2.959  12.173 -2.0952 -1.0467  3.9698
 2812TIP3   OH232630   2.483   2.732  10.006 -0.1296  0.8906 -0.2261
 2812TIP3    H132631   2.560   2.704   9.957  0.4789  3.4792 -0.9074
 2812TIP3    H232632   2.513   2.738  10.097  0.0202  0.4521 -0.2423
 2813TIP3   OH232633   2.340   4.671  13.346  0.1402 -0.1744 -0.8383
 2813TIP3    H132634   2.277   4.605  13.317 -0.0285  0.3010 -1.5755
 2813TIP3    H232635   2.425   4.633  13.328  0.0758 -0.8528  0.2323
 2814TIP3   OH232636   4.675   1.764  11.307  0.2401 -0.2203  0.0123
 2814TIP3    H132637   4.593   1.783  11.262  0.0599 -0.7010  0.1312
 2814TIP3    H232638   4.694   1.843  11.356  0.4215  0.3055 -0.8743
 2815TIP3   OH232639   3.175   5.795   9.817  0.5663 -0.0266  0.1176
 2815TIP3    H132640   3.176   5.701   9.835 -1.8644  0.0320  1.0261
 2815TIP3    H232641   3.191   5.802   9.723 -1.3631 -1.5606 -0.3941
 2816TIP3   OH232642   2.857   1.121  11.178 -0.2877  0.6839  0.2706
 2816TIP3    H132643   2.918   1.047  11.184  0.9888  1.5728 -1.1366
 2816TIP3    H232644   2.777   1.083  11.144  0.0734 -0.1954  0.3752
 2817TIP3   OH232645   2.357   5.318  13.006 -0.2125  0.0698  0.1248
 2817TIP3    H132646   2.431   5.266  12.975  0.2026  0.2590  0.7808
 2817TIP3    H232647   2.285   5.254  13.014 -0.1753 -0.0808 -0.6692
 2818TIP3   OH232648   5.675   0.021  10.279 -0.2992  0.1613 -0.3366
 2818TIP3    H132649   5.733   0.065  10.217 -0.2912 -0.1464 -0.5501
 2818TIP3    H232650   5.665  -0.067  10.244 -0.7362  0.1525 -0.1891
 2819TIP3   OH232651   1.094   1.470  11.189  0.1739 -0.4226 -0.3777
 2819TIP3    H132652   1.174   1.514  11.158 -0.4762  1.1633  0.0763
 2819TIP3    H232653   1.108   1.460  11.284 -0.2437  0.0324 -0.2683
 2820TIP3   OH232654   1.846   4.833  10.132  0.6527 -0.8950 -0.0291
 2820TIP3    H132655   1.760   4.844  10.094  0.9365 -0.5976 -0.5980
 2820TIP3    H232656   1.831   4.833  10.227  0.2325  1.0642 -0.0590
 2821TIP3   OH232657   6.348   1.813  12.973 -0.1278  0.1481  0.5219
 2821TIP3    H132658   6.333   1.743  13.037 -2.4260  0.9171  0.8881
 2821TIP3    H232659   6.264   1.824  12.929  1.1323  0.2980 -2.0421
 2822TIP3   OH232660   6.770   3.529  11.002  0.0130 -0.1941 -0.0365
 2822TIP3    H132661   6.742   3.528  11.094  0.1217  1.0260  0.0321
 2822TIP3    H232662   6.841   3.465  10.998  1.4407  1.1899  1.2611
 2823TIP3   OH232663   6.799   1.584   9.902  0.1528 -0.2627  0.1990
 2823TIP3    H132664   6.824   1.498   9.937  0.1668  0.5972  2.4829
 2823TIP3    H232665   6.876   1.615   9.855  0.5482 -0.9929  0.3533
 2824TIP3   OH232666   0.681   1.395  11.545  0.3936  0.5266 -0.2475
 2824TIP3    H132667   0.777   1.389  11.543  0.2826 -2.5922 -0.7443
 2824TIP3    H232668   0.652   1.334  11.477 -1.9408 -0.6307  1.6423
 2825TIP3   OH232669   6.497   4.110  12.401 -0.4105  1.0080  0.0798
 2825TIP3    H132670   6.467   4.048  12.468 -0.9435  1.3457  0.1588
 2825TIP3    H232671   6.420   4.126  12.347 -0.0886  1.0584 -0.3685
 2826TIP3   OH232672   3.827   2.924  10.620 -0.0597  0.3593 -0.1436
 2826TIP3    H132673   3.736   2.947  10.600 -0.4615  0.6493  1.8223
 2826TIP3    H232674   3.854   2.868  10.547 -2.3496 -1.0586 -0.0057
 2827TIP3   OH232675   4.467   6.057  12.136  0.1371  0.1700 -0.6872
 2827TIP3    H132676   4.401   5.996  12.104 -0.5005  0.7639 -0.5300
 2827TIP3    H232677   4.422   6.141  12.140  0.5063  0.3254  0.7587
 2828TIP3   OH232678   2.871   4.437  11.292  0.0713  0.4838  0.2664
 2828TIP3    H132679   2.829   4.464  11.373  0.5509  1.6891  0.1322
 2828TIP3    H232680   2.959   4.473  11.297  0.6749 -0.8876 -0.0476
 2829TIP3   OH232681   4.834   5.638  12.656  0.0511  0.3861 -0.3729
 2829TIP3    H132682   4.827   5.551  12.694  0.2635  0.3445 -0.4289
 2829TIP3    H232683   4.892   5.686  12.716  0.0565  0.4425 -0.4228
 2830TIP3   OH232684   5.142   2.673  12.197  0.5437  0.0375  0.4857
 2830TIP3    H132685   5.077   2.742  12.179 -0.8186 -0.7318  2.1430
 2830TIP3    H232686   5.130   2.610  12.126  0.2450  0.4379  0.1726
 2831TIP3   OH232687   2.177   2.288  10.865  0.2040 -0.0173 -0.0017
 2831TIP3    H132688   2.230   2.352  10.912  1.0819 -1.2869  0.8003
 2831TIP3    H232689   2.087   2.313  10.884  0.4925  1.5786 -0.5672
 2832TIP3   OH232690   3.189   6.760  11.038 -0.2148  0.7477  0.3446
 2832TIP3    H132691   3.158   6.841  10.996 -1.4548  0.0398 -0.1699
 2832TIP3    H232692   3.184   6.778  11.132 -0.0049  1.4326  0.2289
 2833TIP3   OH232693   0.264   0.055  10.002  0.2805  0.3257  0.1403
 2833TIP3    H132694   0.277   0.021  10.091  1.1717 -0.1099 -0.1475
 2833TIP3    H232695   0.260  -0.024   9.947 -1.8223  0.4997 -0.0445
 2834TIP3   OH232696   2.896   3.263   9.645  0.0782  0.2844 -0.1913
 2834TIP3    H132697   2.961   3.261   9.576  1.3290 -1.8492  0.9483
 2834TIP3    H232698   2.936   3.214   9.718 -2.9799 -1.6979  0.3572
 2835TIP3   OH232699   4.425   4.845  11.415 -0.2838 -0.2849 -0.1582
 2835TIP3    H132700   4.476   4.817  11.491 -0.4450 -2.0288 -0.6388
 2835TIP3    H232701   4.424   4.940  11.420 -0.7492 -0.3718  2.3020
 2836TIP3   OH232702   0.944   2.880  10.573  0.7405 -0.2998 -0.7400
 2836TIP3    H132703   0.933   2.924  10.657  0.3689 -2.1769  0.2481
 2836TIP3    H232704   0.906   2.940  10.509  0.7978  1.0543  0.4497
 2837TIP3   OH232705   1.312   3.707  12.600 -0.2411 -0.1315 -0.5252
 2837TIP3    H132706   1.270   3.625  12.626 -0.9842  0.4271  0.1041
 2837TIP3    H232707   1.406   3.692  12.613 -0.3584 -0.9251 -0.5650
 2838TIP3   OH232708   2.204   1.898  12.099  1.0229 -0.6379 -0.1235
 2838TIP3    H132709   2.208   1.802  12.103 -2.9206 -0.9452 -0.1669
 2838TIP3    H232710   2.202   1.925  12.191  0.8045 -0.6968 -0.1106
 2839TIP3   OH232711   4.249   5.500  12.737  0.9652 -0.4244 -0.1691
 2839TIP3    H132712   4.331   5.460  12.710  1.2040 -0.7732  1.0148
 2839TIP3    H232713   4.206   5.524  12.655  1.2579 -2.2238 -0.9077
 2840TIP3   OH232714   5.601   1.072  12.206  0.1686 -0.0114 -0.0714
 2840TIP3    H132715   5.521   1.113  12.240  0.2018 -0.1835  0.2143
 2840TIP3    H232716   5.669   1.139  12.217  0.7823 -0.9604  2.7138
 2841TIP3   OH232717   0.335   6.029  12.523 -0.1584  0.0663 -0.0290
 2841TIP3    H132718   0.394   6.016  12.449 -0.7531  0.2466 -0.5470
 2841TIP3    H232719   0.358   5.959  12.585  0.9034  0.4184 -0.0100
 2842TIP3   OH232720   3.886   4.234  11.257  0.0262  0.1244 -0.2043
 2842TIP3    H132721   3.871   4.288  11.180  1.5304 -0.1514 -0.7362
 2842TIP3    H232722   3.841   4.152  11.239  0.5662 -0.0252 -0.9241
 2843TIP3   OH232723   1.746   1.685   9.939 -0.7934 -0.0673 -0.1252
 2843TIP3    H132724   1.699   1.617   9.892 -0.5421 -0.5155  0.2730
 2843TIP3    H232725   1.827   1.697   9.889 -0.0177 -1.3169  0.7862
 2844TIP3   OH232726   0.467   4.507  10.763 -0.0023  0.1147 -0.0940
 2844TIP3    H132727   0.549   4.538  10.724  0.2412  1.3398  1.3150
 2844TIP3    H232728   0.491   4.426  10.808  0.1477 -0.2171 -0.7580
 2845TIP3   OH232729   5.985   1.279  11.605  0.0983 -0.4410 -0.4508
 2845TIP3    H132730   6.002   1.231  11.686 -1.1093  1.3444  0.9768
 2845TIP3    H232731   6.056   1.343  11.600 -0.9818  0.9275  0.5101
 2846TIP3   OH232732   4.721   3.923  10.433 -0.1604 -0.4503 -0.7262
 2846TIP3    H132733   4.796   3.957  10.384 -0.0624 -1.5539 -1.3695
 2846TIP3    H232734   4.740   3.944  10.524 -0.1773  1.3329 -1.0924
 2847TIP3   OH232735   2.806   6.151  13.018 -0.9509  0.4880  0.6995
 2847TIP3    H132736   2.860   6.152  12.939  0.3451  0.0904  1.5584
 2847TIP3    H232737   2.716   6.149  12.985 -0.4431  0.6167 -0.7600
 2848TIP3   OH232738   2.547   0.057  10.087 -0.1083 -0.5963 -0.1192
 2848TIP3    H132739   2.489   0.047  10.163 -2.1250  2.8862 -0.9799
 2848TIP3    H232740   2.629   0.088  10.124 -0.8375  0.3965  0.7302
 2849TIP3   OH232741   6.002   2.887  10.785 -0.4774  0.0537 -0.4030
 2849TIP3    H132742   5.960   2.957  10.834 -0.6752  0.2667 -0.8683
 2849TIP3    H232743   5.935   2.858  10.723 -0.7560 -1.2499  0.4693
 2850TIP3   OH232744   3.045   3.985  10.219 -0.5027 -0.0495 -0.1059
 2850TIP3    H132745   2.965   3.987  10.270 -0.3866  1.8371  0.0475
 2850TIP3    H232746   3.105   4.046  10.263 -0.4680  1.8110 -2.5109
 2851TIP3   OH232747   6.359   1.160  12.853 -0.8460 -0.4736  0.1171
 2851TIP3    H132748   6.418   1.198  12.919 -1.2228 -1.1138  0.8340
 2851TIP3    H232749   6.406   1.171  12.770  0.2836 -0.9422  0.6716
 2852TIP3   OH232750   0.359   3.839  10.062  0.7058  0.7029 -0.8771
 2852TIP3    H132751   0.392   3.755  10.029  2.3207  0.9857 -0.0677
 2852TIP3    H232752   0.437   3.891  10.077 -0.2680  2.3458 -1.2559
 2853TIP3   OH232753   2.267   1.660  11.975 -0.4347 -0.2241  0.4465
 2853TIP3    H132754   2.342   1.680  11.918 -0.3651  2.2868  1.2717
 2853TIP3    H232755   2.193   1.651  11.915  0.1400 -0.4857 -0.2327
 2854TIP3   OH232756   4.408   2.249  11.809  0.1773  0.0421  0.0169
 2854TIP3    H132757   4.494   2.211  11.793  0.6230  0.7809  0.6306
 2854TIP3    H232758   4.371   2.260  11.721  0.4225 -0.8885 -0.2194
 2855TIP3   OH232759   5.658   2.312  11.713 -0.3087 -0.3454  0.6567
 2855TIP3    H132760   5.674   2.327  11.619  1.1971 -0.1988  0.9167
 2855TIP3    H232761   5.727   2.252  11.740 -0.9774 -0.7114  1.6079
 2856TIP3   OH232762   2.622   2.332  11.555  0.0986 -0.1623  0.0125
 2856TIP3    H132763   2.665   2.407  11.514 -0.2593  1.2144  1.9937
 2856TIP3    H232764   2.576   2.369  11.631 -0.6518 -2.2961  0.6829
 2857TIP3   OH232765   0.849   3.611  10.895  0.3343  0.4566  0.0902
 2857TIP3    H132766   0.927   3.580  10.849  1.0831  0.5116  1.2731
 2857TIP3    H232767   0.800   3.532  10.915 -0.1597  0.4529 -1.0337
 2858TIP3   OH232768   3.654   0.050  13.291  0.2901 -0.4275  0.3530
 2858TIP3    H132769   3.724   0.005  13.339 -0.0199  0.6972  1.9416
 2858TIP3    H232770   3.691   0.067  13.205  1.6981 -0.5481  0.9037
 2859TIP3   OH232771   5.478   0.999  13.463  0.0257 -0.0157 -0.0568
 2859TIP3    H132772   5.384   1.011  13.473 -0.5547 -1.8884 -2.4302
 2859TIP3    H232773   5.507   1.076  13.414 -0.2542  0.5519  0.6543
 2860TIP3   OH232774   1.512   5.405  12.104  1.0013 -0.2003  0.2602
 2860TIP3    H132775   1.437   5.463  12.114  0.1341 -1.3747  0.8567
 2860TIP3    H232776   1.505   5.370  12.016  0.4414 -0.8278  0.5453
 2861TIP3   OH232777   2.037   1.265  11.578 -0.0808 -0.1279  0.1861
 2861TIP3    H132778   2.010   1.337  11.522 -0.4331  0.3077  0.9075
 2861TIP3    H232779   1.955   1.223  11.605  0.1331 -1.0175 -0.5038
 2862TIP3   OH232780   5.379   0.757  11.300 -0.2566  1.1748  0.4729
 2862TIP3    H132781   5.342   0.670  11.293  1.4692  0.4237  0.2604
 2862TIP3    H232782   5.436   0.754  11.377 -0.1089  2.0785  0.4209
 2863TIP3   OH232783   0.556   4.344  12.653  0.1910  0.0906  0.0581
 2863TIP3    H132784   0.521   4.380  12.572 -3.5407 -0.5141  1.2296
 2863TIP3    H232785   0.616   4.411  12.685  0.4812  1.0569 -2.3450
 2864TIP3   OH232786   2.719   6.145  11.971  0.2144 -0.5866  0.3214
 2864TIP3    H132787   2.746   6.134  11.880  0.9131  1.3276  0.2466
 2864TIP3    H232788   2.626   6.121  11.972 -0.2079  0.7813 -1.2542
 2865TIP3   OH232789   6.180   0.618  11.674 -0.2589  0.3094  0.7298
 2865TIP3    H132790   6.229   0.692  11.708 -1.2568  1.6665 -0.6584
 2865TIP3    H232791   6.232   0.541  11.697  0.9690  1.4628  1.9002
 2866TIP3   OH232792   0.168   5.650  12.861 -0.4832  0.1863  0.6713
 2866TIP3    H132793   0.168   5.728  12.807 -1.1386 -0.6098 -0.5182
 2866TIP3    H232794   0.249   5.656  12.912  0.6923  0.4691 -1.1417
 2867TIP3   OH232795   4.683   2.771  12.606  0.4715  0.0411  0.2932
 2867TIP3    H132796   4.666   2.843  12.667 -0.0732 -0.3296  0.5872
 2867TIP3    H232797   4.756   2.723  12.646  0.3829  0.0356  0.4510
 2868TIP3   OH232798   1.218   5.501   9.718  0.0081  0.2381 -0.0856
 2868TIP3    H132799   1.286   5.533   9.658 -1.3345  0.5859 -1.4805
 2868TIP3    H232800   1.198   5.413   9.686  1.7550 -1.0798  2.0837
 2869TIP3   OH232801   2.700   0.283   9.493 -0.2455 -0.7103  0.9579
 2869TIP3    H132802   2.675   0.354   9.552  0.7147 -1.8322  2.8055
 2869TIP3    H232803   2.763   0.322   9.433 -1.5479  0.5579  0.3435
 2870TIP3   OH232804   4.064   3.274  12.324 -0.0681  0.5784 -0.5775
 2870TIP3    H132805   4.047   3.202  12.264 -0.9571  1.1465 -1.0432
 2870TIP3    H232806   4.058   3.234  12.411 -1.2146  0.1918 -0.8052
 2871TIP3   OH232807   6.779   3.616  12.172  0.3523 -0.0064 -0.0972
 2871TIP3    H132808   6.734   3.681  12.119  0.8133  0.6144  0.2550
 2871TIP3    H232809   6.867   3.613  12.137 -0.1053 -1.6872 -1.1973
 2872TIP3   OH232810   5.760   4.861  11.305  0.0984  0.3596  0.2126
 2872TIP3    H132811   5.831   4.818  11.353 -1.1047 -0.5859  1.2003
 2872TIP3    H232812   5.738   4.800  11.234  0.7229  0.9795 -0.5374
 2873TIP3   OH232813   0.293   3.982  11.963  0.3663 -0.1647 -0.2335
 2873TIP3    H132814   0.277   4.005  12.054  0.0086  3.0966 -1.0022
 2873TIP3    H232815   0.227   4.031  11.914  2.7731  1.0713 -2.4675
 2874TIP3   OH232816   0.365   2.862  11.615 -0.3160 -0.2360 -0.4307
 2874TIP3    H132817   0.340   2.876  11.523  0.0052 -0.5616 -0.5704
 2874TIP3    H232818   0.422   2.935  11.636  0.7421 -0.9073 -0.9242
 2875TIP3   OH232819   4.806   2.955  12.049 -0.1974 -0.2348 -0.1383
 2875TIP3    H132820   4.877   3.006  12.088 -1.5686  0.0031  2.2312
 2875TIP3    H232821   4.838   2.865  12.052  1.1616  0.1193 -1.9047
 2876TIP3   OH232822   6.072   5.889  12.101  0.1772  0.6493 -0.2286
 2876TIP3    H132823   6.089   5.870  12.193  0.5719  0.7531 -0.2795
 2876TIP3    H232824   6.124   5.824  12.053 -1.3808 -0.5575 -0.3771
 2877TIP3   OH232825   1.183   3.534  10.023 -0.4186  0.2333 -0.4668
 2877TIP3    H132826   1.246   3.464  10.008 -0.1721  0.4604 -0.5005
 2877TIP3    H232827   1.107   3.491  10.062 -0.1572 -0.0096 -0.2292
 2878TIP3   OH232828   6.594   2.458  11.258  0.7431  0.4079  0.2846
 2878TIP3    H132829   6.547   2.376  11.240  2.3912 -0.4532 -0.3044
 2878TIP3    H232830   6.666   2.458  11.195  1.0556  2.0929  0.6119
 2879TIP3   OH232831   0.359   0.942  12.439 -0.4543 -0.2922  0.0658
 2879TIP3    H132832   0.299   0.946  12.365  2.1689 -1.1351 -2.2409
 2879TIP3    H232833   0.372   0.848  12.454  0.9757 -0.1340 -0.0936
 2880TIP3   OH232834   1.535   1.016  11.901 -0.0795  0.0175 -0.2232
 2880TIP3    H132835   1.544   0.936  11.850 -1.0609  0.0093 -0.4131
 2880TIP3    H232836   1.445   1.046  11.883  0.4431  1.4475 -0.5963
 2881TIP3   OH232837   2.997   3.276  11.660  0.1899 -0.4103  0.4177
 2881TIP3    H132838   3.091   3.288  11.651 -0.0586  1.8387  0.3373
 2881TIP3    H232839   2.987   3.186  11.691  2.2596 -1.1880 -0.9857
 2882TIP3   OH232840   4.442   3.265  12.524  0.2451  0.2103 -0.1907
 2882TIP3    H132841   4.477   3.221  12.447 -0.2739 -3.1499  1.3146
 2882TIP3    H232842   4.354   3.293  12.498 -0.0550 -1.1825 -0.7483
 2883TIP3   OH232843   4.102   6.353  10.849 -0.3294 -1.0103 -0.7710
 2883TIP3    H132844   4.126   6.266  10.881 -0.0052 -1.2488 -1.6272
 2883TIP3    H232845   4.163   6.369  10.777  0.7656  0.6645  0.4683
 2884TIP3   OH232846   1.678   6.323  11.301  0.4434 -0.2996 -0.8409
 2884TIP3    H132847   1.685   6.270  11.381 -0.8645 -0.0413 -0.5183
 2884TIP3    H232848   1.613   6.390  11.324  1.7470  1.1878 -1.3850
 2885TIP3   OH232849   2.596   4.852  12.314  0.0315  0.7405 -0.3008
 2885TIP3    H132850   2.514   4.847  12.363 -1.4663  0.8200 -2.6471
 2885TIP3    H232851   2.642   4.927  12.352 -1.2602  1.0740  0.6705
 2886TIP3   OH232852   5.268   2.009  12.565  0.3255  0.1642  0.4477
 2886TIP3    H132853   5.274   2.091  12.615 -0.6496 -0.4428  1.6213
 2886TIP3    H232854   5.200   1.959  12.610  0.7357 -1.1960 -0.3976
 2887TIP3   OH232855   3.779   5.682  11.814  0.4272  0.0958  0.4609
 2887TIP3    H132856   3.737   5.751  11.866 -0.3748  0.0185 -0.0589
 2887TIP3    H232857   3.793   5.722  11.728  0.3428 -0.2491  0.2831
 2888TIP3   OH232858   0.722   3.606  12.261  0.5388  0.1273  0.4679
 2888TIP3    H132859   0.763   3.555  12.191  0.3568  0.9141 -0.2390
 2888TIP3    H232860   0.683   3.681  12.215 -0.1877  0.2901  1.3379
 2889TIP3   OH232861   6.517   2.428  12.749 -0.2197  0.4326  0.4891
 2889TIP3    H132862   6.488   2.468  12.668 -1.0058  1.0340  1.0534
 2889TIP3    H232863   6.504   2.334  12.735 -0.2840  0.5272 -0.1019
 2890TIP3   OH232864   6.282   2.759  10.423  0.2286 -0.2745  0.4421
 2890TIP3    H132865   6.259   2.732  10.511  0.9767 -1.4314  0.3193
 2890TIP3    H232866   6.295   2.676  10.375  1.6874  0.2895 -0.2255
 2891TIP3   OH232867   6.414   1.735  11.538  0.2704  0.2251 -0.3704
 2891TIP3    H132868   6.446   1.817  11.500  1.8017  0.1855  0.7540
 2891TIP3    H232869   6.403   1.754  11.631  0.9563 -0.9352 -0.0403
 2892TIP3   OH232870   5.326   6.374  12.461 -0.2482  0.0006 -0.2187
 2892TIP3    H132871   5.283   6.301  12.506 -0.9583 -0.2391 -1.2435
 2892TIP3    H232872   5.415   6.375  12.497 -0.3754 -1.0444  0.1769
 2893TIP3   OH232873   2.781   3.306  12.743 -0.8306 -0.0597 -0.4262
 2893TIP3    H132874   2.844   3.345  12.683  1.1854 -1.1280  0.9086
 2893TIP3    H232875   2.822   3.313  12.829 -2.4687 -0.9515  0.4695
 2894TIP3   OH232876   1.736   1.801  12.829  0.2976 -0.2523  0.3921
 2894TIP3    H132877   1.771   1.871  12.774 -0.0338 -0.5174 -0.1741
 2894TIP3    H232878   1.711   1.732  12.766  0.3730 -0.7627  0.9179
 2895TIP3   OH232879   4.962   6.257  11.376 -0.0355  0.5359 -0.1215
 2895TIP3    H132880   4.919   6.281  11.294  0.3892  1.4779 -0.0844
 2895TIP3    H232881   4.991   6.341  11.413 -1.1325  0.2405  1.5040
 2896TIP3   OH232882   6.688   3.044  10.774  0.1723  0.7755  0.4118
 2896TIP3    H132883   6.766   3.100  10.766  0.8218 -0.0090  1.0293
 2896TIP3    H232884   6.685   2.993  10.693 -0.7489  2.0708 -0.4096
 2897TIP3   OH232885   0.593   4.703  10.612  0.2749 -0.1068 -0.0813
 2897TIP3    H132886   0.667   4.752  10.576  0.4850 -0.6586 -0.4132
 2897TIP3    H232887   0.518   4.762  10.599  0.8136  0.9342  1.3022
 2898TIP3   OH232888   2.916   6.060   9.503 -0.8001  0.0324 -0.2901
 2898TIP3    H132889   2.917   6.083   9.596 -3.7853  1.3372 -0.4993
 2898TIP3    H232890   2.871   5.976   9.500  0.0839 -0.4512 -0.5366
 2899TIP3   OH232891   6.071   0.035  12.363  0.1265  0.0285  0.0170
 2899TIP3    H132892   6.091   0.122  12.396  0.2568 -0.5652  1.5749
 2899TIP3    H232893   6.150  -0.016  12.382 -0.0546 -0.4991 -0.6281
 2900TIP3   OH232894   2.669   2.031  12.008  0.5561 -0.1933 -0.0677
 2900TIP3    H132895   2.762   2.047  12.026  0.6554  1.7312 -1.8362
 2900TIP3    H232896   2.624   2.068  12.085  1.1932  1.1116 -0.2861
 2901TIP3   OH232897   5.332   0.161  10.159 -0.5869  0.0756  0.2266
 2901TIP3    H132898   5.242   0.182  10.183 -0.3471 -0.2342  1.4689
 2901TIP3    H232899   5.374   0.137  10.242  1.0908  1.7673 -0.0613
 2902TIP3   OH232900   4.666   2.823  10.938 -0.3144 -0.8379 -0.2805
 2902TIP3    H132901   4.644   2.914  10.922  1.9196 -0.1184  0.3462
 2902TIP3    H232902   4.644   2.809  11.031  0.0756 -0.6870 -0.1632
 2903TIP3   OH232903   1.597   6.201  11.041 -0.5697 -0.0323  0.0303
 2903TIP3    H132904   1.528   6.267  11.032  0.4110  0.9022 -0.9289
 2903TIP3    H232905   1.648   6.230  11.117 -0.6647 -0.1855  0.1527
 2904TIP3   OH232906   2.079   3.622  10.359  0.0410  0.2730  0.5313
 2904TIP3    H132907   2.019   3.571  10.304 -0.1815  0.7571  0.3241
 2904TIP3    H232908   2.087   3.571  10.439  0.4688 -0.5106  0.0058
 2905TIP3   OH232909   1.071   0.749  12.743  0.2689  0.1698 -0.3672
 2905TIP3    H132910   1.076   0.820  12.806  3.3586 -0.3440  0.1322
 2905TIP3    H232911   1.021   0.681  12.787  0.0007  0.8515  0.3940
 2906TIP3   OH232912   1.046   6.085  11.995 -0.1968 -0.3392 -0.0599
 2906TIP3    H132913   1.079   6.038  11.918  1.1439 -0.3910  0.5050
 2906TIP3    H232914   1.067   6.177  11.977  1.3454 -0.4947  0.7876
 2907TIP3   OH232915   0.005   4.614  11.396 -0.1094  0.2185  0.2896
 2907TIP3    H132916   0.013   4.586  11.305  0.4172 -0.7083  0.6138
 2907TIP3    H232917   0.024   4.536  11.448  0.5118  0.9524  1.2076
 2908TIP3   OH232918   0.398   5.053  10.974  0.6013  0.2438 -0.0641
 2908TIP3    H132919   0.490   5.053  10.950  1.1422  0.3320  1.8475
 2908TIP3    H232920   0.396   5.016  11.062 -1.3866 -1.3277 -0.6781
 2909TIP3   OH232921   5.262   2.908  11.323  0.6354 -0.4316  0.0022
 2909TIP3    H132922   5.351   2.877  11.333  0.9260  0.2382 -0.4424
 2909TIP3    H232923   5.271   3.001  11.301 -0.1583 -0.4160 -0.2940
 2910TIP3   OH232924   5.921   1.104  13.218  0.1705 -0.1904  0.5011
 2910TIP3    H132925   5.851   1.043  13.241 -1.1088 -0.0971 -2.6445
 2910TIP3    H232926   5.875   1.186  13.197  1.3637  0.3495 -0.0756
 2911TIP3   OH232927   5.828   6.430  11.703  0.3270 -0.1510 -0.3052
 2911TIP3    H132928   5.746   6.426  11.653  0.0650  1.5378 -0.0753
 2911TIP3    H232929   5.801   6.422  11.794  0.3746  0.6693 -0.2121
 2912TIP3   OH232930   4.357   2.214  10.976  1.0142 -0.6093 -0.3992
 2912TIP3    H132931   4.364   2.144  11.040  1.7117  0.0779  0.3000
 2912TIP3    H232932   4.319   2.287  11.025  1.5031 -0.0932 -0.7756
 2913TIP3   OH232933   6.026   5.066  11.205  0.0519  0.2948 -0.3963
 2913TIP3    H132934   6.003   5.002  11.138 -2.3737 -0.9274  1.4223
 2913TIP3    H232935   6.017   5.151  11.161 -1.7164 -0.4503 -1.6113
 2914TIP3   OH232936   1.421   5.516  10.267  0.5360 -0.2591 -0.2932
 2914TIP3    H132937   1.345   5.475  10.227  1.4070 -0.2713 -2.0598
 2914TIP3    H232938   1.396   5.608  10.279  0.4125 -0.1290 -1.4135
 2915TIP3   OH232939   6.569   4.466  11.324 -0.3381  0.1232 -0.5922
 2915TIP3    H132940   6.656   4.442  11.293 -0.1161  1.9085 -1.4428
 2915TIP3    H232941   6.580   4.478  11.419  0.4243  0.6504 -0.7353
 2916TIP3   OH232942   0.540   2.755  11.252  0.2786  0.4694  0.0592
 2916TIP3    H132943   0.592   2.686  11.210 -1.0448  0.5358 -1.8291
 2916TIP3    H232944   0.483   2.787  11.182 -3.0582 -0.2968  2.2164
 2917TIP3   OH232945   6.820   4.587  10.689 -0.4743  0.0160 -0.4943
 2917TIP3    H132946   6.840   4.637  10.609  0.0531  0.6268  0.0005
 2917TIP3    H232947   6.890   4.523  10.695 -1.0436 -0.6655 -1.0247
 2918TIP3   OH232948   3.105   5.409  13.097 -0.2378  0.5769  0.3645
 2918TIP3    H132949   3.129   5.319  13.072  1.6049  1.5955 -1.8931
 2918TIP3    H232950   3.017   5.421  13.062  0.3878  0.3483 -1.3438
 2919TIP3   OH232951   1.194   2.183  11.995 -0.2689 -0.1794  0.3473
 2919TIP3    H132952   1.128   2.115  12.009 -0.3281 -0.1497  0.2167
 2919TIP3    H232953   1.243   2.154  11.919  0.2946 -0.5251  0.8321
 2920TIP3   OH232954   6.563   3.861  11.380 -1.1560  0.5499 -0.1150
 2920TIP3    H132955   6.486   3.827  11.425  0.9240 -1.6746  2.0085
 2920TIP3    H232956   6.541   3.854  11.287 -3.0813 -1.0905  0.3940
 2921TIP3   OH232957   2.171   0.452  10.150  0.5110  0.9981 -0.0009
 2921TIP3    H132958   2.242   0.393  10.175 -0.4672  0.0440  0.6168
 2921TIP3    H232959   2.190   0.535  10.194  0.4351  0.2733  1.4163
 2922TIP3   OH232960   0.093   0.482  12.470  0.3692 -0.4856 -0.0958
 2922TIP3    H132961   0.017   0.429  12.494  1.8470 -3.2124 -1.0167
 2922TIP3    H232962   0.060   0.544  12.405 -1.1151 -1.4639 -0.3179
 2923TIP3   OH232963   5.611   4.956  11.531  0.3023  0.2353 -0.2442
 2923TIP3    H132964   5.519   4.930  11.527 -0.3623  2.0719  1.3803
 2923TIP3    H232965   5.644   4.942  11.442 -1.2591 -1.3513 -0.6300
 2924TIP3   OH232966   5.426   5.479  12.561 -0.2817 -0.0774 -0.6272
 2924TIP3    H132967   5.480   5.556  12.544  0.3328 -0.2487  0.4609
 2924TIP3    H232968   5.337   5.513  12.565  0.1223  0.8767  1.3841
 2925TIP3   OH232969   2.595   0.323  10.794 -0.6122  0.5562  0.2681
 2925TIP3    H132970   2.624   0.414  10.805 -0.7926  0.6095  0.3054
 2925TIP3    H232971   2.581   0.291  10.882 -2.3936  1.0951  0.2235
 2926TIP3   OH232972   2.244   5.097   8.892  0.4505 -0.0073  0.2554
 2926TIP3    H132973   2.203   5.183   8.880  0.2752  0.0000  0.8522
 2926TIP3    H232974   2.181   5.048   8.945  0.0705 -0.8740 -0.9654
 2927TIP3   OH232975   3.378   6.568  11.698 -0.2826  0.2829 -0.6189
 2927TIP3    H132976   3.376   6.587  11.792  0.0159  0.5211 -0.6599
 2927TIP3    H232977   3.419   6.482  11.692  0.8869  0.8344 -0.6167
 2928TIP3   OH232978   5.918   2.802  11.714 -0.8518  0.3872 -0.3152
 2928TIP3    H132979   5.874   2.725  11.750  1.4614  0.2467  2.6846
 2928TIP3    H232980   5.964   2.771  11.636 -2.1675 -0.5492 -0.7359
 2929TIP3   OH232981   6.248   1.253  12.293 -0.2949 -0.0731  0.4682
 2929TIP3    H132982   6.274   1.165  12.322 -1.0994 -0.4405  0.0942
 2929TIP3    H232983   6.207   1.291  12.371 -1.3219 -0.5985  0.1982
 2930TIP3   OH232984   1.710   4.451  11.273  0.3427 -0.2382  0.0620
 2930TIP3    H132985   1.751   4.537  11.268 -0.3289  0.0190 -1.9169
 2930TIP3    H232986   1.771   4.398  11.326  1.1108  1.2306  0.6948
 2931TIP3   OH232987   5.457   5.581  10.619  0.6048  0.4088 -0.1325
 2931TIP3    H132988   5.527   5.566  10.554  0.5799  0.9603 -0.2982
 2931TIP3    H232989   5.387   5.521  10.593  1.8353 -1.8166  1.3652
 2932TIP3   OH232990   3.196   0.777  11.744 -0.3712 -0.1369 -0.2811
 2932TIP3    H132991   3.214   0.694  11.700 -0.6042 -1.6062  2.1992
 2932TIP3    H232992   3.127   0.818  11.691  0.6110 -0.8810 -2.2407
 2933TIP3   OH232993   5.718   2.220   9.661 -0.0470 -0.5497  0.4016
 2933TIP3    H132994   5.676   2.191   9.580 -1.7110  0.7738  0.7555
 2933TIP3    H232995   5.698   2.152   9.725 -2.3889  0.4090  0.7625
 2934TIP3   OH232996   3.316   4.036  11.889 -0.1578  0.2799 -0.0525
 2934TIP3    H132997   3.401   4.029  11.844 -0.2837  0.1318 -0.2692
 2934TIP3    H232998   3.316   3.963  11.951  0.8156  1.5729  1.5559
 2935TIP3   OH232999   4.680   0.427  12.842 -0.2349 -0.4098 -0.3971
 2935TIP3    H133000   4.743   0.495  12.866  0.5717 -1.5552  0.9382
 2935TIP3    H233001   4.697   0.411  12.749  2.0830 -1.2522  0.0950
 2936TIP3   OH233002   6.073   4.630  10.998 -0.2424  0.3648  0.1716
 2936TIP3    H133003   6.075   4.650  10.904  0.3065 -0.2768  0.0379
 2936TIP3    H233004   6.160   4.651  11.029  0.3363 -1.6085  0.0458
 2937TIP3   OH233005   6.141   4.840  12.153  0.0265  0.6563  0.7345
 2937TIP3    H133006   6.131   4.889  12.071  0.9436 -1.0630 -0.4808
 2937TIP3    H233007   6.056   4.845  12.195 -1.1569 -0.2038 -1.4028
 2938TIP3   OH233008   3.980   4.258  11.509  0.0978  0.0958 -0.2874
 2938TIP3    H133009   4.039   4.329  11.486 -0.2374  0.5674  0.2868
 2938TIP3    H233010   3.926   4.245  11.430  0.2267  0.4037 -0.4269
 2939TIP3   OH233011   1.736   6.517  12.129 -0.5499  0.5227  0.0859
 2939TIP3    H133012   1.749   6.607  12.101 -2.0945  0.7950  0.1520
 2939TIP3    H233013   1.670   6.482  12.069  1.4866 -1.2633 -1.2764
 2940TIP3   OH233014   0.996   1.979  10.570 -0.2262 -0.3696 -0.4004
 2940TIP3    H133015   1.059   1.993  10.641 -0.4134 -1.4734  0.0114
 2940TIP3    H233016   0.922   2.036  10.593 -1.2465 -2.2961  1.5675
 2941TIP3   OH233017   0.763   3.010  13.013  0.1050 -0.4194  0.3043
 2941TIP3    H133018   0.685   3.014  13.069  0.0571  1.6244  0.1886
 2941TIP3    H233019   0.832   3.052  13.066  0.1380  1.2613 -1.0090
 2942TIP3   OH233020   6.508   0.491  11.112  0.0796  0.1029 -0.2402
 2942TIP3    H133021   6.602   0.511  11.105 -0.1995  1.8310  0.4837
 2942TIP3    H233022   6.505   0.409  11.162  1.2058  0.1100 -0.1303
 2943TIP3   OH233023   5.224   0.505  11.864 -0.0263  0.5704  0.4475
 2943TIP3    H133024   5.226   0.517  11.959  0.5124  0.0256  0.5088
 2943TIP3    H233025   5.314   0.485  11.841 -0.6957 -2.6459  0.2641
 2944TIP3   OH233026   0.018   6.427  13.085  0.1741 -0.7539 -0.3934
 2944TIP3    H133027   0.035   6.499  13.145  0.4559 -0.9830 -0.1919
 2944TIP3    H233028  -0.013   6.469  13.005 -0.5156 -0.4648  0.0140
 2945TIP3   OH233029   4.000   3.719  13.024  0.6096  0.2444 -0.1010
 2945TIP3    H133030   3.912   3.757  13.029  0.0997 -0.9450  0.2416
 2945TIP3    H233031   4.002   3.672  12.941  0.6476 -0.3755  0.2461
 2946TIP3   OH233032   1.464   0.233  11.705  0.4799  0.0340 -0.2260
 2946TIP3    H133033   1.386   0.250  11.758  0.7211 -0.8633  0.4481
 2946TIP3    H233034   1.492   0.319  11.675  0.4888  0.6153  1.3460
 2947TIP3   OH233035   3.239   3.295  10.215 -0.0346  0.3723 -0.4727
 2947TIP3    H133036   3.179   3.237  10.263 -2.2003  1.1902 -2.0175
 2947TIP3    H233037   3.237   3.261  10.126 -0.7678  2.3198 -1.2462
 2948TIP3   OH233038   6.287   6.424  12.517  0.4388  0.0822 -0.4980
 2948TIP3    H133039   6.278   6.519  12.508  1.2373  0.3401  0.9994
 2948TIP3    H233040   6.318   6.395  12.431  2.7643  1.5705 -0.2697
 2949TIP3   OH233041   4.474   4.377  10.901 -0.1434  0.5267 -0.1698
 2949TIP3    H133042   4.551   4.431  10.884  1.1733 -0.8699  1.0386
 2949TIP3    H233043   4.508   4.288  10.908 -1.8286 -0.1042  0.6785
 2950TIP3   OH233044   0.184   2.453  11.237 -0.0757 -0.5564  0.8045
 2950TIP3    H133045   0.222   2.450  11.324 -3.1073 -1.2139  2.2342
 2950TIP3    H233046   0.178   2.361  11.211 -0.3677 -0.4426  0.4652
 2951TIP3   OH233047   6.703   3.575  11.848  0.0718  0.1039  0.2172
 2951TIP3    H133048   6.791   3.609  11.864  0.1730 -0.3829  0.7586
 2951TIP3    H233049   6.708   3.536  11.761  0.4298 -0.0161  0.2883
 2952TIP3   OH233050   2.531   4.604  13.165  0.5727  0.5664 -0.0537
 2952TIP3    H133051   2.486   4.646  13.092 -0.0506 -0.3053 -0.1871
 2952TIP3    H233052   2.512   4.511  13.154 -0.6497  0.5386  1.9862
 2953TIP3   OH233053   2.473   6.432  12.941  0.0271  0.2889  0.3407
 2953TIP3    H133054   2.385   6.442  12.904  0.5513  0.7232 -0.8392
 2953TIP3    H233055   2.474   6.343  12.978 -0.7845  0.1529  0.0471
 2954TIP3   OH233056   1.691   4.981  12.509 -0.5161  0.7597  0.1479
 2954TIP3    H133057   1.781   4.992  12.540 -1.0512  4.6067  0.8730
 2954TIP3    H233058   1.694   5.003  12.416 -0.2970 -2.4522 -0.7250
 2955TIP3   OH233059   5.756   2.033  12.778 -0.3516  0.0141 -0.2312
 2955TIP3    H133060   5.765   2.126  12.754  0.1466 -0.1122 -0.5641
 2955TIP3    H233061   5.663   2.015  12.772 -0.5057  0.6108  0.2717
 2956TIP3   OH233062   0.816   4.174  11.960 -0.0167 -0.3245  0.0463
 2956TIP3    H133063   0.857   4.204  11.878  0.8839  2.7590  1.4651
 2956TIP3    H233064   0.726   4.206  11.954 -0.0284 -0.3406  0.1338
 2957TIP3   OH233065   2.989   6.086  12.813  0.2668  0.3604  0.4178
 2957TIP3    H133066   3.077   6.062  12.840  1.1085  0.7566 -1.7902
 2957TIP3    H233067   2.948   6.003  12.789  0.6243  0.3600 -0.1862
 2958TIP3   OH233068   3.501   6.820  11.261 -0.2147 -0.4721 -0.4071
 2958TIP3    H133069   3.465   6.783  11.341  0.5158 -1.3492 -0.4737
 2958TIP3    H233070   3.533   6.907  11.287 -3.1860  0.7912 -0.5585
 2959TIP3   OH233071   4.792   1.556  13.009 -0.2497  0.1942 -0.3002
 2959TIP3    H133072   4.741   1.596  12.938 -0.1244  0.6842 -0.1182
 2959TIP3    H233073   4.840   1.629  13.048 -1.2877  0.1521  1.1176
 2960TIP3   OH233074   5.727   0.269  12.073 -0.1803  0.5280 -0.2770
 2960TIP3    H133075   5.644   0.307  12.045 -0.1605  0.8839  0.1392
 2960TIP3    H233076   5.794   0.316  12.023 -0.1933  0.6583 -0.1727
 2961TIP3   OH233077   0.134   3.928  10.185 -0.6480 -0.1228  0.7920
 2961TIP3    H133078   0.127   4.023  10.178  1.3622  0.0158  0.0311
 2961TIP3    H233079   0.218   3.907  10.144  0.5116 -1.8949  3.7395
 2962TIP3   OH233080   2.724   6.269   9.905  0.2188 -0.1629 -0.2624
 2962TIP3    H133081   2.635   6.303   9.911  0.4814  0.3943  0.6027
 2962TIP3    H233082   2.779   6.346   9.889  0.5216 -0.5395 -1.1078
 2963TIP3   OH233083   4.140   2.575   9.830 -0.6907  0.4337  0.4725
 2963TIP3    H133084   4.123   2.557   9.738 -1.5911  0.4676  0.6264
 2963TIP3    H233085   4.094   2.657   9.848 -0.0822  0.7120  0.8250
 2964TIP3   OH233086   4.984   4.783  11.622 -0.3733 -0.0618 -0.1502
 2964TIP3    H133087   5.011   4.854  11.563  0.1058 -0.1517 -0.0390
 2964TIP3    H233088   5.031   4.706  11.590  0.9997  0.1847  1.2078
 2965TIP3   OH233089   5.109   6.212  12.281  0.2027 -0.2712 -0.3144
 2965TIP3    H133090   5.065   6.292  12.251  0.7471 -0.1238 -0.7381
 2965TIP3    H233091   5.184   6.244  12.331 -0.1658 -0.5222  0.4186
 2966TIP3   OH233092   4.594   0.137  12.743 -0.3509 -0.1824 -0.0679
 2966TIP3    H133093   4.546   0.211  12.780  0.7027  0.0046  0.9803
 2966TIP3    H233094   4.594   0.072  12.813  0.8110 -0.2242 -0.1032
 2967TIP3   OH233095   3.850   0.367  10.848 -0.2240 -0.4910 -0.0872
 2967TIP3    H133096   3.873   0.348  10.939 -3.2202 -3.0340  0.3343
 2967TIP3    H233097   3.814   0.284  10.815 -0.3298  0.6713 -3.2248
 2968TIP3   OH233098   5.458   5.725  13.017  0.3590 -0.3375 -0.3310
 2968TIP3    H133099   5.497   5.759  12.937  0.5535 -0.4984 -0.3061
 2968TIP3    H233100   5.439   5.802  13.070  1.4709 -0.2925  0.0372
 2969TIP3   OH233101   5.626   0.296  13.441  0.4191  0.1051 -0.1601
 2969TIP3    H133102   5.686   0.222  13.440  2.0216  1.3319 -1.7491
 2969TIP3    H233103   5.609   0.313  13.348  0.1582  1.7821  0.1747
 2970TIP3   OH233104   2.951   4.213  12.205  0.4421 -0.2885  0.1795
 2970TIP3    H133105   3.022   4.206  12.141  0.7022 -1.5151  0.5871
 2970TIP3    H233106   2.926   4.123  12.223  0.2411  0.0480  1.6785
 2971TIP3   OH233107   3.274   0.600  11.522 -0.0323  0.4178  0.3508
 2971TIP3    H133108   3.288   0.508  11.547 -1.8889 -0.1645 -0.5352
 2971TIP3    H233109   3.344   0.618  11.459 -1.1375 -1.3000 -1.4998
 2972TIP3   OH233110   5.430   1.675  11.661  0.1633 -0.0850 -0.1425
 2972TIP3    H133111   5.390   1.600  11.616 -0.9559  0.2583  0.2446
 2972TIP3    H233112   5.469   1.637  11.740 -1.1855 -0.1519  0.5148
 2973TIP3   OH233113   4.492   1.592  10.433 -0.1471  0.0068 -0.0478
 2973TIP3    H133114   4.524   1.568  10.520  1.2572  2.0417  0.0494
 2973TIP3    H233115   4.542   1.537  10.373 -1.0754 -1.3606  0.3740
 2974TIP3   OH233116   3.444   3.102  11.327 -0.0833  0.1336  0.2666
 2974TIP3    H133117   3.457   3.018  11.283  0.0445  0.0688  0.4286
 2974TIP3    H233118   3.531   3.127  11.356  0.4775  1.8384 -2.5133
 2975TIP3   OH233119   5.867   3.036  10.979  0.0364 -0.1870 -0.3516
 2975TIP3    H133120   5.949   3.082  10.999 -1.4008  2.9478 -1.0488
 2975TIP3    H233121   5.809   3.057  11.052 -0.6577 -1.0241 -0.6398
 2976TIP3   OH233122   6.738   5.137  11.967  0.7183  0.7088  0.1876
 2976TIP3    H133123   6.692   5.095  12.039  1.5745  0.9930  0.9267
 2976TIP3    H233124   6.790   5.067  11.927 -0.0544  0.4687 -0.4099
 2977TIP3   OH233125   6.704   0.148  11.113  0.5057  0.1705 -0.7241
 2977TIP3    H133126   6.714   0.232  11.068  0.8239  0.0588 -0.8626
 2977TIP3    H233127   6.747   0.085  11.056  2.0582  0.2112  0.3358
 2978TIP3   OH233128   1.173   2.799   9.897 -0.1809  0.0999  0.1970
 2978TIP3    H133129   1.149   2.891   9.887  1.3361  0.5958  0.9085
 2978TIP3    H233130   1.201   2.772   9.810  4.1628  1.7937  0.8371
 2979TIP3   OH233131   2.772   5.539  11.027  0.5452 -0.1278 -0.3550
 2979TIP3    H133132   2.866   5.533  11.007  0.7560 -2.4558  0.9198
 2979TIP3    H233133   2.761   5.484  11.105 -1.7593  0.8130  0.0734
 2980TIP3   OH233134   3.289   6.068  12.829 -0.0958 -0.5331 -0.4641
 2980TIP3    H133135   3.278   6.051  12.922 -0.2045 -1.0629 -0.5718
 2980TIP3    H233136   3.363   6.129  12.824 -0.0085 -0.6071 -0.0438
 2981TIP3   OH233137   2.619   2.743  10.566  0.6501 -0.0184 -0.0960
 2981TIP3    H133138   2.563   2.803  10.518  1.4732 -0.5067 -1.7474
 2981TIP3    H233139   2.560   2.700  10.628 -0.4617  0.6300 -0.6681
 2982TIP3   OH233140   1.126   2.839  11.765 -0.2422 -0.1889  0.1917
 2982TIP3    H133141   1.196   2.871  11.822  0.0204 -0.9968  0.3318
 2982TIP3    H233142   1.168   2.828  11.680 -0.4584  0.3285  0.0150
 2983TIP3   OH233143   4.050   5.849  12.988 -0.7303  0.2457  0.1828
 2983TIP3    H133144   4.081   5.905  12.917  0.7081 -0.1266  0.4829
 2983TIP3    H233145   3.981   5.900  13.031  0.1449  1.5405  0.0845
 2984TIP3   OH233146   3.693   2.566  11.834  0.7278 -0.1225 -0.8128
 2984TIP3    H133147   3.705   2.482  11.790  3.5420 -0.4026  0.3135
 2984TIP3    H233148   3.636   2.546  11.908  0.4154 -0.7658 -1.2141
 2985TIP3   OH233149   5.794   0.533  13.471  0.6209  0.1027  0.1133
 2985TIP3    H133150   5.731   0.469  13.503  0.2897  0.3650 -0.0075
 2985TIP3    H233151   5.775   0.541  13.377 -0.7976  1.9594  0.4859
 2986TIP3   OH233152   1.618   6.813  11.881  0.7253  0.1647  0.0282
 2986TIP3    H133153   1.689   6.752  11.898  0.7968 -0.3442 -1.9243
 2986TIP3    H233154   1.660   6.900  11.884  0.8507  0.0780  1.6210
 2987TIP3   OH233155   5.410   6.781  12.815 -0.6090 -0.2050 -0.4948
 2987TIP3    H133156   5.442   6.780  12.906 -0.0828  0.0083 -0.6701
 2987TIP3    H233157   5.376   6.693  12.801  0.5547 -0.6763 -0.5126
 2988TIP3   OH233158   1.315   3.219   9.603  0.8497 -0.2725 -0.4886
 2988TIP3    H133159   1.400   3.213   9.648 -0.0974  0.0070  1.4170
 2988TIP3    H233160   1.304   3.312   9.585 -0.4732  0.1970  2.2710
 2989TIP3   OH233161   1.643   1.305  11.537 -0.3262  0.1310 -0.1307
 2989TIP3    H133162   1.628   1.398  11.554  0.7940  0.6159 -1.5763
 2989TIP3    H233163   1.654   1.300  11.442 -0.5161 -1.5170 -0.0943
 2990TIP3   OH233164   0.606   4.936  11.934  0.1458 -0.1584 -0.4623
 2990TIP3    H133165   0.590   4.996  12.006 -0.4271 -2.1257  1.1541
 2990TIP3    H233166   0.701   4.941  11.918  0.4015 -0.1927  0.9416
 2991TIP3   OH233167   0.135   6.713  10.642  0.2783 -0.1769  0.1600
 2991TIP3    H133168   0.124   6.680  10.553 -2.4273  1.7637 -0.3770
 2991TIP3    H233169   0.196   6.652  10.683  1.0283 -1.5997 -2.7492
 2992TIP3   OH233170   5.746   0.443  11.016 -0.0644  0.2010  0.5736
 2992TIP3    H133171   5.748   0.515  11.079 -0.1667  0.7111  0.0000
 2992TIP3    H233172   5.653   0.418  11.011 -0.4462  1.7581 -1.1436
 2993TIP3   OH233173   1.554   2.999  12.790  0.1396  0.0603  0.2510
 2993TIP3    H133174   1.472   2.950  12.786  0.2381 -0.0783 -0.2144
 2993TIP3    H233175   1.584   2.989  12.880  0.5602 -1.4257 -0.0156
 2994TIP3   OH233176   0.378   3.108  11.836 -0.3025  0.0920  0.1593
 2994TIP3    H133177   0.321   3.113  11.912 -0.1038  0.5426  0.2810
 2994TIP3    H233178   0.464   3.085  11.872 -0.0603  0.9301  0.1550
 2995TIP3   OH233179   0.239   5.114  12.072 -0.6941  0.4737  0.3116
 2995TIP3    H133180   0.200   5.128  11.986  0.8343  0.2532 -0.4426
 2995TIP3    H233181   0.213   5.191  12.122 -2.3386  0.1894 -0.0331
 2996TIP3   OH233182   0.792   1.638  11.733  0.2808  0.1105  0.3014
 2996TIP3    H133183   0.776   1.732  11.725  0.8201  0.2469  0.8357
 2996TIP3    H233184   0.722   1.598  11.681 -1.6775  0.6932  2.3360
 2997TIP3   OH233185   1.557   3.711  12.059  0.1572  0.4234  0.4343
 2997TIP3    H133186   1.579   3.762  12.138  0.6545  0.4675  0.2673
 2997TIP3    H233187   1.636   3.713  12.006 -0.0139 -0.0358  0.1579
 2998TIP3   OH233188   6.568   6.374  12.326  0.7925 -0.6283 -0.0843
 2998TIP3    H133189   6.494   6.315  12.340  1.3157 -0.9795  1.4039
 2998TIP3    H233190   6.645   6.316  12.327  1.0807 -0.4133 -2.5882
 2999TIP3   OH233191   0.442   6.699  13.047  0.1629  0.3845 -0.0630
 2999TIP3    H133192   0.469   6.608  13.052 -1.9292 -0.2274  1.4714
 2999TIP3    H233193   0.377   6.702  12.976 -0.1680  0.5456  0.2396
 3000TIP3   OH233194   5.239   1.249  13.016 -0.6703  0.0323  0.4738
 3000TIP3    H133195   5.272   1.164  12.986 -0.7341  0.0976  0.2186
 3000TIP3    H233196   5.150   1.255  12.981  0.5523  1.8150 -2.8089
 3001TIP3   OH233197   2.485   5.213   8.778 -0.0774  0.0600  0.0048
 3001TIP3    H133198   2.408   5.159   8.795 -0.4004  0.4095 -0.3338
 3001TIP3    H233199   2.548   5.153   8.739 -0.2178 -0.2034  0.1798
 3002TIP3   OH233200   2.571   0.185  11.721  0.6404  0.1317 -0.1580
 3002TIP3    H133201   2.566   0.184  11.817  1.0213  0.1097 -0.1391
 3002TIP3    H233202   2.480   0.199  11.693  0.4809 -0.1565  0.2000
 3003TIP3   OH233203   5.463   3.761  10.477  0.1708  0.1570  0.1387
 3003TIP3    H133204   5.396   3.712  10.429  0.5340 -0.1056 -0.1014
 3003TIP3    H233205   5.440   3.749  10.569 -1.2050  1.5968  0.0385
 3004TIP3   OH233206   6.623   3.868  12.587  0.3157  0.3332 -0.2917
 3004TIP3    H133207   6.647   3.922  12.662 -1.2866 -0.2126  0.6601
 3004TIP3    H233208   6.685   3.893  12.519  1.1360  1.6140  0.8714
 3005TIP3   OH233209   2.604   0.943  12.766 -0.3027  0.0254  0.3998
 3005TIP3    H133210   2.687   0.991  12.770 -0.3555  0.0648  1.2784
 3005TIP3    H233211   2.626   0.859  12.726 -0.1250  0.5924 -0.7514
 3006TIP3   OH233212   5.986   3.568  11.637  0.7094  0.5169  0.0095
 3006TIP3    H133213   5.981   3.517  11.555  0.5302  0.9900 -0.2760
 3006TIP3    H233214   6.009   3.503  11.704 -1.1942 -0.2654 -0.0441
 3007TIP3   OH233215   4.417   4.965  10.292  0.3120  0.8571  0.3462
 3007TIP3    H133216   4.359   5.041  10.278 -0.4296  0.1593 -0.5459
 3007TIP3    H233217   4.375   4.894  10.243  0.8022 -0.2278  1.4528
 3008TIP3   OH233218   2.168   2.974  12.148 -0.1491  0.2697 -0.0264
 3008TIP3    H133219   2.183   2.887  12.110  1.6539  0.8110 -0.6561
 3008TIP3    H233220   2.105   3.015  12.088  0.6386  0.1591 -0.9518
 3009TIP3   OH233221   5.881   0.753  12.509 -0.3404 -0.1537  0.2439
 3009TIP3    H133222   5.922   0.671  12.481 -0.6670 -0.8266  1.6796
 3009TIP3    H233223   5.836   0.785  12.431  0.5091 -0.8792 -0.5693
 3010TIP3   OH233224   3.228   2.372  11.079  0.2689  0.5357  0.3088
 3010TIP3    H133225   3.285   2.382  11.002  1.2856  1.6449  1.1775
 3010TIP3    H233226   3.240   2.452  11.129  0.2398 -0.4868  2.0488
 3011TIP3   OH233227   4.634   5.761  10.676  0.0845 -0.0463  0.2885
 3011TIP3    H133228   4.644   5.707  10.598 -0.5586  0.1164  0.0879
 3011TIP3    H233229   4.584   5.706  10.737  0.6953 -0.2235  0.6430
 3012TIP3   OH233230   3.426   4.097  10.718 -0.0298  0.0014 -0.2101
 3012TIP3    H133231   3.369   4.173  10.729 -1.3885 -0.7361 -1.8547
 3012TIP3    H233232   3.370   4.022  10.734  1.1032 -0.7048  0.5743
 3013TIP3   OH233233   6.697   6.310  11.012 -0.0167  0.3914 -0.1573
 3013TIP3    H133234   6.626   6.282  10.954 -0.5500  0.5189  0.4249
 3013TIP3    H233235   6.653   6.333  11.094  0.8336 -0.8343  0.6659
 3014TIP3   OH233236   2.992   1.824  11.674  0.9810  0.5410 -0.0482
 3014TIP3    H133237   3.047   1.868  11.739 -1.4621  0.7841  2.0341
 3014TIP3    H233238   2.967   1.742  11.716  1.5451 -0.6392 -1.8949
 3015TIP3   OH233239   4.960   4.557  13.042  0.2524 -0.1667 -0.1856
 3015TIP3    H133240   5.047   4.587  13.071  0.4459 -1.1043  0.2543
 3015TIP3    H233241   4.912   4.637  13.024  1.4013  0.3622 -1.0154
 3016TIP3   OH233242   2.981   4.194  12.501 -0.0385 -0.2732 -0.8445
 3016TIP3    H133243   2.996   4.133  12.428  0.3770 -0.9279 -0.2297
 3016TIP3    H233244   2.893   4.171  12.533 -0.2808  0.1115 -1.2211
 3017TIP3   OH233245   0.260   2.390  11.489 -0.3768  0.1882  0.2870
 3017TIP3    H133246   0.259   2.484  11.510  0.9263  0.2500  0.1624
 3017TIP3    H233247   0.301   2.349  11.564  2.4752  0.1845 -1.1204
 3018TIP3   OH233248   3.579   3.733  11.872  0.5473  0.4527  0.5378
 3018TIP3    H133249   3.616   3.660  11.922  0.0830  2.0100  3.3659
 3018TIP3    H233250   3.638   3.806  11.888 -0.8631  1.5987  0.7060
 3019TIP3   OH233251   0.037   5.436  11.547  0.2453 -0.5263 -0.3714
 3019TIP3    H133252  -0.027   5.426  11.476 -1.7601  3.2800  0.6365
 3019TIP3    H233253   0.099   5.501  11.513  0.2465  0.0474  0.6942
 3020TIP3   OH233254   3.027   3.677  12.881  0.1598  0.4991 -0.7783
 3020TIP3    H133255   2.995   3.767  12.869  1.5694  0.9467 -1.3329
 3020TIP3    H233256   2.950   3.622  12.862 -1.3224  1.5948  1.6014
 3021TIP3   OH233257   3.861   1.290  11.005  0.0439 -0.3910  0.5931
 3021TIP3    H133258   3.782   1.236  11.016  0.2054 -0.6689  0.3985
 3021TIP3    H233259   3.854   1.323  10.916 -0.4912  0.6195  0.9922
 3022TIP3   OH233260   3.272   4.958   9.701 -0.0653 -0.3808  0.1382
 3022TIP3    H133261   3.298   5.025   9.638 -0.7366  0.0124  0.2722
 3022TIP3    H233262   3.347   4.951   9.761 -0.0644  0.3986  0.2438
 3023TIP3   OH233263   3.457   5.622  11.011  0.5507 -0.0289  0.2466
 3023TIP3    H133264   3.400   5.589  10.942  4.1055 -1.3470 -2.4094
 3023TIP3    H233265   3.471   5.547  11.069  0.5602 -0.0986  0.1541
 3024TIP3   OH233266   2.574   4.492  10.920  0.1845  0.7247 -0.0488
 3024TIP3    H133267   2.575   4.460  11.010 -1.0029  1.4911  0.2561
 3024TIP3    H233268   2.542   4.418  10.868  1.2281  0.1583  0.0885
 3025TIP3   OH233269   3.278   5.242  11.261 -0.2424 -0.3524  0.4262
 3025TIP3    H133270   3.266   5.151  11.235  1.7191 -0.3356 -0.8124
 3025TIP3    H233271   3.199   5.286  11.231 -0.7511 -1.4733  0.0752
 3026TIP3   OH233272   1.854   5.683  11.151 -0.2835 -0.8340 -0.0788
 3026TIP3    H133273   1.842   5.766  11.197 -0.2188 -0.8402 -0.0506
 3026TIP3    H233274   1.855   5.708  11.058 -0.8342 -0.8736 -0.0995
 3027TIP3   OH233275   4.226   3.675  11.390 -0.0611 -0.1568 -0.2850
 3027TIP3    H133276   4.311   3.707  11.421  0.1260 -1.7718  1.0026
 3027TIP3    H233277   4.203   3.734  11.319  2.8707 -0.5443 -1.7095
 3028TIP3   OH233278   2.329   2.515  12.976 -0.3573  0.1157 -0.2919
 3028TIP3    H133279   2.421   2.492  12.964  0.4654  2.5842  0.6313
 3028TIP3    H233280   2.281   2.448  12.927  1.8932 -1.2987 -0.7225
 3029TIP3   OH233281   5.552   1.025  13.008  0.4541  0.0470  0.5601
 3029TIP3    H133282   5.608   1.038  12.931  2.8163  0.7568  2.2688
 3029TIP3    H233283   5.465   1.010  12.972  1.7150 -1.2391 -2.3016
 3030TIP3   OH233284   0.560   1.612  11.087  0.3868  0.4077  0.9421
 3030TIP3    H133285   0.495   1.571  11.144  0.8662 -0.8389  0.6347
 3030TIP3    H233286   0.632   1.548  11.083  0.2391  0.3064 -1.2969
 3031TIP3   OH233287   6.399   4.738  12.193 -0.2524 -0.7886 -0.1583
 3031TIP3    H133288   6.325   4.791  12.163  0.1247 -0.3803 -0.3849
 3031TIP3    H233289   6.400   4.663  12.134 -0.4848 -0.7946 -0.1566
 3032TIP3   OH233290   0.759   6.090  12.850 -0.2694  0.4382 -0.7294
 3032TIP3    H133291   0.839   6.082  12.902 -1.2135  0.4287  0.8115
 3032TIP3    H233292   0.715   6.167  12.886 -1.6859 -0.4592 -0.4195
 3033TIP3   OH233293   3.088   4.853   9.908  0.3503  0.3275  0.3769
 3033TIP3    H133294   3.157   4.793   9.936  0.8438  1.1283  0.9049
 3033TIP3    H233295   3.122   4.892   9.827  0.7709  1.1273  0.9269
 3034TIP3   OH233296   6.590   4.963  12.169  0.7583 -0.4425 -0.3766
 3034TIP3    H133297   6.668   4.965  12.225  0.2694 -0.2704  0.3093
 3034TIP3    H233298   6.549   4.878  12.188  1.2794 -0.9518 -1.4459
 3035TIP3   OH233299   1.313   3.489  12.345 -0.7409  0.0786 -0.5537
 3035TIP3    H133300   1.220   3.512  12.352 -0.4463  1.4740 -0.8553
 3035TIP3    H233301   1.331   3.489  12.251 -0.4599 -0.2894 -0.5006
 3036TIP3   OH233302   6.730   4.845  13.038  0.0743 -0.2349 -0.4624
 3036TIP3    H133303   6.788   4.869  12.966 -1.9088  0.7370 -1.8656
 3036TIP3    H233304   6.748   4.910  13.106 -0.6028  1.2580 -1.6297
 3037TIP3   OH233305   2.583   3.061  10.314  0.0597 -0.6643 -0.2436
 3037TIP3    H133306   2.647   3.078  10.383 -0.4938 -1.0025  0.3678
 3037TIP3    H233307   2.536   2.983  10.344  1.4460 -2.3623 -2.1883
 3038TIP3   OH233308   3.150   2.444  11.778  0.1001 -0.1016  0.0807
 3038TIP3    H133309   3.186   2.355  11.787  0.7397  0.2012  0.6396
 3038TIP3    H233310   3.153   2.462  11.684 -2.0639 -1.4728 -0.3396
 3039TIP3   OH233311   1.757   0.252  11.845 -0.3700 -0.0483 -0.6247
 3039TIP3    H133312   1.705   0.329  11.824 -1.4697 -0.3963  0.6867
 3039TIP3    H233313   1.833   0.286  11.892  0.0522  0.3721 -1.6004
 3040TIP3   OH233314   0.457   0.941  11.513 -0.1139 -0.2848  0.1746
 3040TIP3    H133315   0.420   0.859  11.480 -0.7623 -0.1430  0.5191
 3040TIP3    H233316   0.418   0.951  11.600  1.1286 -0.3653  0.7609
 3041TIP3   OH233317   5.594   5.559  10.023  0.7762  0.6612 -0.0225
 3041TIP3    H133318   5.680   5.522  10.042  1.9890  0.3083 -4.8623
 3041TIP3    H233319   5.536   5.483  10.014  1.1798  0.5078 -1.4888
 3042TIP3   OH233320   2.713   6.532  11.453  0.0242 -0.6650 -0.0175
 3042TIP3    H133321   2.762   6.496  11.379 -1.2579 -2.7187  0.0663
 3042TIP3    H233322   2.705   6.626  11.434  1.1209 -0.8734 -1.6361
 3043TIP3   OH233323   3.287   2.852  13.250 -0.4336  0.5015  0.3638
 3043TIP3    H133324   3.291   2.758  13.233 -1.4784  0.3759  0.6834
 3043TIP3    H233325   3.341   2.864  13.328  1.1586  0.4602 -0.7116
 3044TIP3   OH233326   1.760   4.808  11.001  0.3483 -0.1280  0.5818
 3044TIP3    H133327   1.785   4.866  11.074 -0.1006  1.8823 -0.7754
 3044TIP3    H233328   1.830   4.820  10.937 -1.1891  1.2763 -0.9433
 3045TIP3   OH233329   5.586   4.197  12.707 -0.2405 -0.0162  0.5257
 3045TIP3    H133330   5.632   4.205  12.623 -0.3141 -2.8406  0.1158
 3045TIP3    H233331   5.641   4.244  12.769  1.7148 -0.8388 -0.4850
 3046TIP3   OH233332   4.488   1.162  10.710 -0.2149 -0.5327 -0.5631
 3046TIP3    H133333   4.495   1.135  10.618 -2.1914  0.7348 -1.1432
 3046TIP3    H233334   4.489   1.080  10.759  1.6301 -1.1964 -1.6175
 3047TIP3   OH233335   4.009   0.894  12.794  0.1068 -0.1876  0.2331
 3047TIP3    H133336   4.102   0.908  12.811 -0.0009 -1.0884  1.7423
 3047TIP3    H233337   3.989   0.952  12.720  1.2616  2.1178  1.6150
 3048TIP3   OH233338   1.793   5.219  12.861  0.1656 -0.1731 -0.4102
 3048TIP3    H133339   1.779   5.234  12.955  2.3707 -0.3620 -0.0150
 3048TIP3    H233340   1.733   5.147  12.840 -0.1575 -0.3232  0.9083
 3049TIP3   OH233341   1.527   3.696  11.353  0.0151  0.3430  0.5004
 3049TIP3    H133342   1.445   3.694  11.302  0.3467  1.2412 -0.0984
 3049TIP3    H233343   1.581   3.760  11.307  0.9939 -0.1164  0.9970
 3050TIP3   OH233344   6.459   0.692  10.497  0.3457 -0.1484  0.4223
 3050TIP3    H133345   6.411   0.614  10.528 -0.2877  0.5409  1.2242
 3050TIP3    H233346   6.540   0.657  10.462  0.1131 -1.1787  0.8569
 3051TIP3   OH233347   3.355   0.612  10.868  0.3871 -0.4737  0.3439
 3051TIP3    H133348   3.383   0.693  10.826  0.5702 -0.9121 -0.3953
 3051TIP3    H233349   3.436   0.573  10.902  0.7170 -1.6151 -1.5714
 3052TIP3   OH233350   4.778   5.248  11.203  0.2129 -0.1986 -0.6845
 3052TIP3    H133351   4.740   5.160  11.193 -0.7047 -0.3073  2.5067
 3052TIP3    H233352   4.839   5.239  11.277  1.3449  1.5191 -1.3530
 3053TIP3   OH233353   1.083   6.254  13.093  0.4027  0.1661 -0.3010
 3053TIP3    H133354   1.141   6.230  13.166 -0.7135 -0.3636  0.4604
 3053TIP3    H233355   1.074   6.173  13.043 -1.6535 -0.5346  1.0448
 3054TIP3   OH233356   6.660   5.721  11.201 -0.2510 -0.3229 -0.1864
 3054TIP3    H133357   6.690   5.631  11.214 -1.5070 -0.9006 -1.1271
 3054TIP3    H233358   6.700   5.749  11.119 -0.7994 -0.4458 -0.4988
 3055TIP3   OH233359   6.353   0.927  12.044  0.0313  0.5204  0.4258
 3055TIP3    H133360   6.426   0.958  12.097  0.6720  1.0449 -0.7455
 3055TIP3    H233361   6.288   0.997  12.049  0.5663  1.0853 -0.4090
 3056TIP3   OH233362   3.764   2.526  10.485 -0.2140 -0.0514 -0.1469
 3056TIP3    H133363   3.803   2.440  10.466 -0.2488  0.2339 -1.5462
 3056TIP3    H233364   3.830   2.589  10.459  0.1510  0.3803  1.6520
 3057TIP3   OH233365   6.128   4.115  11.087  0.1771  0.0638 -0.2027
 3057TIP3    H133366   6.199   4.077  11.139  1.0739  0.4696 -1.0774
 3057TIP3    H233367   6.147   4.209  11.086 -0.8933  0.2928  0.2953
 3058TIP3   OH233368   2.197   0.774   9.933 -0.9017 -0.6044  0.1502
 3058TIP3    H133369   2.286   0.743   9.916 -1.1975 -2.9386  2.2011
 3058TIP3    H233370   2.186   0.766  10.028 -2.9149  0.7850  0.1095
 3059TIP3   OH233371   4.308   3.245   9.944  0.6508 -0.0898 -0.2355
 3059TIP3    H133372   4.352   3.316   9.991 -1.1391  0.9000  0.0073
 3059TIP3    H233373   4.216   3.268   9.946  0.0865 -2.1265 -0.7176
 3060TIP3   OH233374   3.811   2.378  10.930 -0.5800  0.3622  0.1695
 3060TIP3    H133375   3.859   2.334  10.860 -0.6490  1.6470 -0.7164
 3060TIP3    H233376   3.751   2.436  10.885 -0.3386  1.5297  1.2936
 3061TIP3   OH233377   2.197   3.453  12.550 -0.0618  0.4749 -0.6376
 3061TIP3    H133378   2.124   3.515  12.551 -0.4571  0.0125 -0.4219
 3061TIP3    H233379   2.275   3.508  12.554 -0.4093  0.9565 -0.3212
 3062TIP3   OH233380   1.556   3.510  12.473 -0.0617 -0.7878 -0.3768
 3062TIP3    H133381   1.468   3.523  12.436 -0.0152 -0.9758 -0.5560
 3062TIP3    H233382   1.541   3.461  12.554 -0.1447 -0.5886 -0.2717
 3063TIP3   OH233383   1.688   3.696   9.486  0.2120  0.0672 -0.3436
 3063TIP3    H133384   1.737   3.652   9.416  0.1333  0.0404 -0.3823
 3063TIP3    H233385   1.597   3.670   9.472 -0.1327  1.7606 -1.5206
 3064TIP3   OH233386   2.970   4.182  10.794 -0.1064  0.1282 -0.4818
 3064TIP3    H133387   3.057   4.205  10.761 -0.6131  2.5090 -0.3075
 3064TIP3    H233388   2.981   4.095  10.832  1.5856 -0.7186 -2.6952
 3065TIP3   OH233389   3.849   2.650  12.708 -0.0612 -0.1671  0.0775
 3065TIP3    H133390   3.770   2.657  12.653 -1.7205  3.2677  2.5248
 3065TIP3    H233391   3.837   2.567  12.755 -1.7922 -0.1625 -0.2641
 3066TIP3   OH233392   2.640   0.561  13.102 -0.5425  0.3002  0.3880
 3066TIP3    H133393   2.604   0.483  13.145 -0.0670  0.2097  0.6289
 3066TIP3    H233394   2.710   0.590  13.160 -0.6468  0.8463  0.2428
 3067TIP3   OH233395   4.167   4.785  11.399  0.0087 -0.4546  0.2482
 3067TIP3    H133396   4.107   4.815  11.467  0.2619  0.1963  0.1873
 3067TIP3    H233397   4.251   4.823  11.423  0.1859 -0.5457 -0.2197
 3068TIP3   OH233398   4.708   0.242  12.483 -0.3993  0.2946  0.2750
 3068TIP3    H133399   4.661   0.198  12.555 -1.3206  0.3773 -0.2629
 3068TIP3    H233400   4.744   0.320  12.524 -1.9666  0.9993  0.4119
 3069TIP3   OH233401   3.570   3.819  11.132 -0.2173 -0.1243 -0.1174
 3069TIP3    H133402   3.576   3.837  11.226  1.8826  3.6618 -0.7907
 3069TIP3    H233403   3.486   3.857  11.106 -0.8111 -1.1955  0.1429
 3070TIP3   OH233404   2.361   0.276  10.170 -0.2976  0.5221 -0.4193
 3070TIP3    H133405   2.314   0.227  10.103 -1.6073  1.2880 -0.0979
 3070TIP3    H233406   2.375   0.212  10.240  0.4988 -0.1074 -1.1346
 3071TIP3   OH233407   4.540   6.317  10.773  0.4601 -0.0337 -0.0114
 3071TIP3    H133408   4.577   6.283  10.692 -0.8567 -1.5909  0.0129
 3071TIP3    H233409   4.458   6.359  10.747  0.2743 -0.1087  0.4454
 3072TIP3   OH233410   3.934   0.826  11.477 -0.0341 -0.9121  0.4044
 3072TIP3    H133411   3.856   0.794  11.523 -0.2441 -0.9114  0.0609
 3072TIP3    H233412   3.947   0.914  11.510  0.4954 -1.3115  1.2945
 3073TIP3   OH233413   4.544   2.539  11.349 -0.0556 -0.0760  0.7192
 3073TIP3    H133414   4.496   2.548  11.431 -1.3611 -2.1034  0.2723
 3073TIP3    H233415   4.524   2.618  11.300 -0.2662  0.5959  1.8675
 3074TIP3   OH233416   5.738   3.106  10.565 -0.1557 -0.0269 -0.0867
 3074TIP3    H133417   5.749   3.179  10.627 -0.3778 -1.1449  1.3190
 3074TIP3    H233418   5.821   3.103  10.517  0.1254  0.6942  0.3399
 3075TIP3   OH233419   5.185   5.916  10.616  0.3600 -0.1598  0.2003
 3075TIP3    H133420   5.153   5.858  10.685  1.5076 -0.6960  0.2993
 3075TIP3    H233421   5.164   6.004  10.648  0.4517 -0.4220  1.0177
 3076TIP3   OH233422   0.856   4.615  11.359  0.1976  0.1840 -0.4175
 3076TIP3    H133423   0.779   4.643  11.409 -0.5753 -1.8616 -0.3673
 3076TIP3    H233424   0.909   4.567  11.422 -0.2571 -1.4765 -1.2364
 3077TIP3   OH233425   0.137   5.218  11.724  0.0930 -0.3025  0.3409
 3077TIP3    H133426   0.202   5.158  11.687 -0.2760 -1.6530  1.7894
 3077TIP3    H233427   0.098   5.261  11.647  2.6573  0.5673 -0.5684
 3078TIP3   OH233428   5.978   3.949  10.928 -0.4924  0.0670  0.3623
 3078TIP3    H133429   6.010   4.025  10.977 -1.1333  0.2253  0.5492
 3078TIP3    H233430   5.982   3.975  10.837  1.9397 -0.6886  0.1856
 3079TIP3   OH233431   1.409   4.164  11.085  0.2779  0.3467 -0.5212
 3079TIP3    H133432   1.404   4.245  11.136  2.0553  0.2563 -0.1209
 3079TIP3    H233433   1.483   4.179  11.026  1.2379 -1.3034  0.1934
 3080TIP3   OH233434   2.809   3.986  12.292  0.3913 -0.8879  0.2795
 3080TIP3    H133435   2.867   3.966  12.366  0.5564  1.1356  0.7576
 3080TIP3    H233436   2.720   3.972  12.327  0.4492  0.4447  1.0406
 3081TIP3   OH233437   6.203   6.796  11.564 -0.5300  0.0654 -0.0185
 3081TIP3    H133438   6.264   6.827  11.630 -1.0035 -1.0752  1.0052
 3081TIP3    H233439   6.259   6.755  11.497 -0.0452  1.2914 -0.3928
 3082TIP3   OH233440   4.747   5.433  13.061 -0.3949 -0.1479  0.1089
 3082TIP3    H133441   4.741   5.438  13.156 -1.6012  0.7630  0.0104
 3082TIP3    H233442   4.660   5.407  13.032 -0.7674  1.8987 -0.8429
 3083TIP3   OH233443   5.133   5.157  10.777  0.0779 -0.3701 -0.2043
 3083TIP3    H133444   5.213   5.201  10.748 -0.5289  1.8761  1.2647
 3083TIP3    H233445   5.149   5.064  10.761  3.4329 -0.1238  1.0332
 3084TIP3   OH233446   0.960   2.843  11.326 -0.8782  0.3799 -0.4104
 3084TIP3    H133447   0.896   2.811  11.389  0.1954 -1.3539 -0.1259
 3084TIP3    H233448   1.040   2.855  11.378 -0.7893  1.9270 -0.8682
 3085TIP3   OH233449   5.284   6.063  12.881 -0.1284  0.0679  0.1195
 3085TIP3    H133450   5.210   6.067  12.942  1.6058  0.6309  2.3308
 3085TIP3    H233451   5.350   6.120  12.920  1.6394 -0.7426 -1.5364
 3086TIP3   OH233452   2.810   0.754  11.669  0.5983 -0.6384  0.0493
 3086TIP3    H133453   2.873   0.797  11.611  0.0361  0.0270 -0.0786
 3086TIP3    H233454   2.829   0.789  11.756 -1.2444  1.5909 -0.3526
 3087TIP3   OH233455   0.990   1.674  10.665 -0.6116 -0.3709  0.1739
 3087TIP3    H133456   1.056   1.711  10.607  0.1034 -2.8333 -0.6959
 3087TIP3    H233457   0.908   1.712  10.635  0.0872  0.6217 -0.5346
 3088TIP3   OH233458   2.011   1.956  11.535  0.0918  0.7318  0.6778
 3088TIP3    H133459   2.101   1.925  11.545  0.3669  1.5094  0.6940
 3088TIP3    H233460   2.013   2.047  11.566 -1.0278  0.3154  2.0640
 3089TIP3   OH233461   4.588   5.443  11.139  0.2930  0.2749 -0.3857
 3089TIP3    H133462   4.661   5.385  11.159 -0.3343 -1.2981 -2.3780
 3089TIP3    H233463   4.629   5.518  11.095  0.6708 -0.9860 -2.2626
 3090TIP3   OH233464   0.943   3.132   9.521  0.3221  0.0535  0.0494
 3090TIP3    H133465   0.864   3.174   9.488  0.0120 -0.8683 -0.4065
 3090TIP3    H233466   0.911   3.063   9.579  0.8081  0.0874  0.3624
 3091TIP3   OH233467   3.583   0.317  11.411  0.1135  0.5312  0.3107
 3091TIP3    H133468   3.582   0.250  11.479  3.5442 -0.1322 -0.1223
 3091TIP3    H233469   3.606   0.398  11.457 -0.3555  0.6571  0.3247
 3092TIP3   OH233470   4.214   3.063  11.720 -0.1829 -0.0129  0.2689
 3092TIP3    H133471   4.274   3.133  11.749  0.7070 -0.5828 -0.1452
 3092TIP3    H233472   4.211   3.072  11.625  0.8249 -1.2062  0.0955
 3093TIP3   OH233473   6.639   0.788  13.086  0.2997 -0.2477 -0.3519
 3093TIP3    H133474   6.700   0.829  13.148 -0.1387  0.7316 -0.5503
 3093TIP3    H233475   6.553   0.820  13.113 -0.2728 -2.2876  0.4628
 3094TIP3   OH233476   6.435   4.573  11.963  0.2719 -0.7908 -0.1261
 3094TIP3    H133477   6.420   4.508  11.894 -2.7086 -0.9963  0.5692
 3094TIP3    H233478   6.376   4.645  11.941  1.5180  0.4909  0.5950
 3095TIP3   OH233479   6.737   1.687  11.668  0.4321  0.3004  0.1383
 3095TIP3    H133480   6.685   1.729  11.599  0.1398 -1.7037 -0.9314
 3095TIP3    H233481   6.719   1.739  11.746 -0.8356  1.4222 -0.8346
 3096TIP3   OH233482   5.047   6.624  13.154  0.2262  0.2872  0.0008
 3096TIP3    H133483   5.058   6.682  13.229  0.7886 -0.0330  0.1735
 3096TIP3    H233484   5.090   6.543  13.180 -0.0152  0.0007 -0.4753
 3097TIP3   OH233485   5.689   0.961  10.682  0.8311  0.6136 -0.0848
 3097TIP3    H133486   5.665   0.887  10.738  0.2383  0.9100  0.0601
 3097TIP3    H233487   5.678   0.929  10.593  0.9868  0.3927 -0.0240
 3098TIP3   OH233488   5.461   4.366  12.470 -0.7063  0.5925  0.7697
 3098TIP3    H133489   5.458   4.438  12.533  1.0890  0.6308  0.8746
 3098TIP3    H233490   5.481   4.289  12.524  1.8381  0.7811  0.2210
 3099TIP3   OH233491   4.976   1.028  12.097  0.2209  0.5494  0.4842
 3099TIP3    H133492   5.058   1.042  12.049 -1.0020 -0.7983 -2.1703
 3099TIP3    H233493   4.987   0.943  12.139 -0.6681 -0.8948 -2.0130
 3100TIP3   OH233494   3.426   1.795  10.277 -0.5157  0.2993 -0.0514
 3100TIP3    H133495   3.402   1.795  10.370  1.4750 -0.8690  0.4995
 3100TIP3    H233496   3.511   1.752  10.274 -1.2202 -1.0793 -2.6128
 3101TIP3   OH233497   5.875   1.379  13.135 -0.1289 -0.3804  0.4405
 3101TIP3    H133498   5.879   1.473  13.153  1.0896 -0.6309  1.7215
 3101TIP3    H233499   5.929   1.367  13.057 -1.2685  0.1051 -0.4514
 3102TIP3   OH233500   0.905   3.950  10.974  0.4269 -0.5887  0.1801
 3102TIP3    H133501   0.952   3.927  10.893 -0.8503  0.6220 -0.9672
 3102TIP3    H233502   0.972   3.991  11.029  0.9284  0.3423 -1.0642
 3103TIP3   OH233503   0.639   5.511  11.059  0.2749 -0.4055 -0.2278
 3103TIP3    H133504   0.630   5.544  11.149 -3.4316  1.0110 -0.9237
 3103TIP3    H233505   0.549   5.492  11.032  1.1038  0.2697 -4.0311
 3104TIP3   OH233506   1.312   4.145  10.361  0.0965 -0.2970 -0.1281
 3104TIP3    H133507   1.299   4.170  10.269 -0.9069  0.0401  0.0878
 3104TIP3    H233508   1.384   4.199  10.392 -1.3397  1.6256  0.0354
 3105TIP3   OH233509   1.380   2.541  11.085  0.6974  0.7560 -0.3739
 3105TIP3    H133510   1.443   2.581  11.145  0.6250  0.5062 -0.1289
 3105TIP3    H233511   1.295   2.572  11.115  0.7637  2.0090 -1.3965
 3106TIP3   OH233512   0.510   4.165  12.383  0.3955  0.0122  0.0176
 3106TIP3    H133513   0.524   4.254  12.416 -0.9221  0.6322 -0.9682
 3106TIP3    H233514   0.596   4.135  12.356  1.1097  0.4096  1.6882
 3107TIP3   OH233515   4.323   0.723  11.922  0.0865 -0.2506  0.2191
 3107TIP3    H133516   4.335   0.808  11.880  1.8151 -0.8935 -0.6341
 3107TIP3    H233517   4.327   0.660  11.851 -0.3195 -1.1211  0.9534
 3108TIP3   OH233518   2.887   0.876  11.918 -0.4866  0.3282 -0.1431
 3108TIP3    H133519   2.941   0.952  11.895  0.4832 -0.9457 -2.3575
 3108TIP3    H233520   2.944   0.822  11.972  0.0750 -0.4170 -1.4362
 3109TIP3   OH233521   4.104   5.131  10.583 -0.4895 -0.5662  0.1727
 3109TIP3    H133522   4.021   5.178  10.569 -1.5745 -2.4664 -0.0425
 3109TIP3    H233523   4.144   5.127  10.496 -1.4786 -1.9565 -0.2400
 3110TIP3   OH233524   2.735   0.335  11.253 -0.2768  1.0078 -0.2308
 3110TIP3    H133525   2.798   0.317  11.322  0.9063  1.3635 -1.1962
 3110TIP3    H233526   2.655   0.359  11.300 -0.2688 -1.1797  1.0338
 3111TIP3   OH233527   5.031   2.717  10.485  0.1201  0.0788  0.4892
 3111TIP3    H133528   5.012   2.723  10.392  0.0132 -0.6406  0.4585
 3111TIP3    H233529   5.100   2.781  10.500  0.3837 -0.0472 -0.1510
 3112TIP3   OH233530   0.849   5.713  12.958 -0.0594 -0.3758 -0.3990
 3112TIP3    H133531   0.824   5.743  13.046  0.5195 -3.3202  0.8955
 3112TIP3    H233532   0.942   5.733  12.952 -0.1677  0.1167 -0.4946
 3113TIP3   OH233533   5.295   1.485  11.263  0.7028 -0.1365  0.5252
 3113TIP3    H133534   5.278   1.471  11.356 -0.9487 -0.7868  0.1586
 3113TIP3    H233535   5.388   1.509  11.259  0.0921  3.2638  2.6934
 3114TIP3   OH233536   2.669   2.657   9.837  0.1751  0.1985 -0.7859
 3114TIP3    H133537   2.687   2.566   9.859  2.6980  0.9615  0.7552
 3114TIP3    H233538   2.727   2.676   9.764  1.1367  1.0587  0.1717
 3115TIP3   OH233539   3.592   3.559  12.243 -0.6167  0.0657  0.4183
 3115TIP3    H133540   3.638   3.531  12.164 -0.5455  1.4230 -0.0501
 3115TIP3    H233541   3.656   3.550  12.313 -0.0857  0.5792  0.0096
 3116TIP3   OH233542   3.381   3.754  10.903  0.1659 -0.5812 -0.1941
 3116TIP3    H133543   3.461   3.704  10.919 -0.1436 -0.5809  1.6315
 3116TIP3    H233544   3.315   3.712  10.959 -1.1445 -0.6126 -1.6868
 3117TIP3   OH233545   6.372   2.242  11.144  0.2092  0.5285  0.2506
 3117TIP3    H133546   6.305   2.188  11.186  0.2977  0.0769 -0.1731
 3117TIP3    H233547   6.437   2.179  11.113  0.9629  0.9840  0.8865
 3118TIP3   OH233548   2.950   6.440  11.784 -0.5967  0.4371  0.6253
 3118TIP3    H133549   3.005   6.505  11.740 -1.6276  0.4587 -0.6976
 3118TIP3    H233550   3.004   6.360  11.785 -0.3736  0.5618 -0.2932
 3119TIP3   OH233551   0.107   5.352  10.764 -0.2777  0.1270 -0.3004
 3119TIP3    H133552   0.192   5.394  10.781 -0.3201  0.4137 -0.7582
 3119TIP3    H233553   0.119   5.262  10.793 -0.0825  0.3720  0.4142
 3120TIP3   OH233554   3.719   5.338  12.543  0.2785 -0.2960 -0.7130
 3120TIP3    H133555   3.668   5.319  12.622  0.8671 -0.0152 -0.2598
 3120TIP3    H233556   3.658   5.320  12.471  0.1775 -1.9355 -0.2607
 3121TIP3   OH233557   0.117   1.625  12.746  0.1033  0.4412  0.1512
 3121TIP3    H133558   0.150   1.711  12.771 -0.0166  0.5129  0.0610
 3121TIP3    H233559   0.194   1.567  12.752  0.2877  0.6435 -0.2409
 3122TIP3   OH233560   6.513   0.174  12.333 -0.1933 -0.5902  0.1488
 3122TIP3    H133561   6.527   0.242  12.266  1.4239 -1.1971 -0.1744
 3122TIP3    H233562   6.518   0.092  12.285 -0.7558 -0.9960  0.7641
 3123TIP3   OH233563   0.813   6.273  11.862 -0.3242  0.1073  0.2262
 3123TIP3    H133564   0.890   6.288  11.807 -0.4014  0.6762  0.2729
 3123TIP3    H233565   0.777   6.360  11.877  0.1151  0.0436  1.7897
 3124TIP3   OH233566   4.727   4.750  12.759  0.3475  0.5971  0.3305
 3124TIP3    H133567   4.721   4.840  12.727  0.3380  0.9914  1.4154
 3124TIP3    H233568   4.769   4.757  12.844  2.1346 -0.6223 -0.3846
 3125TIP3   OH233569   1.934   1.906  11.964  0.6075  0.0437 -0.0793
 3125TIP3    H133570   2.027   1.887  11.973  0.6976  0.2527 -0.5364
 3125TIP3    H233571   1.916   1.896  11.871  0.4999  1.4628 -0.2319
 3126TIP3   OH233572   3.883   4.037   9.669  0.1929  0.2504 -0.2117
 3126TIP3    H133573   3.902   4.105   9.734 -2.5684  0.3548  0.6308
 3126TIP3    H233574   3.837   4.083   9.599 -0.1528 -0.4557 -0.4574
 3127TIP3   OH233575   2.244   0.792  11.395  0.1567  0.7317 -0.2103
 3127TIP3    H133576   2.150   0.794  11.416 -0.0177  0.1302 -0.9326
 3127TIP3    H233577   2.283   0.738  11.464 -0.3404 -0.7846 -1.0787
 3128TIP3   OH233578   6.151   3.342  11.650  0.1184 -0.3936 -0.5593
 3128TIP3    H133579   6.225   3.283  11.667  0.4836  0.5656  1.6405
 3128TIP3    H233580   6.184   3.405  11.586  1.8495  0.9643  1.5306
 3129TIP3   OH233581   1.421   6.206  13.003  0.3192  0.3478 -0.5221
 3129TIP3    H133582   1.356   6.177  13.066  1.0631  0.7876  0.4903
 3129TIP3    H233583   1.410   6.149  12.927 -0.2812 -0.5043  0.1964
 3130TIP3   OH233584   1.353   1.173  10.090  0.3863  0.5436  0.0201
 3130TIP3    H133585   1.364   1.185   9.996 -1.6118  0.7728 -0.2325
 3130TIP3    H233586   1.316   1.257  10.120 -2.7824 -0.7997  0.2611
 3131TIP3   OH233587   1.772   3.929   9.859 -0.0244 -0.5739 -0.0741
 3131TIP3    H133588   1.788   3.945   9.765  2.1386 -0.6599  0.2218
 3131TIP3    H233589   1.729   4.008   9.889 -0.0302 -0.2046 -0.9986
 3132TIP3   OH233590   3.079   0.575  11.323 -0.1437 -0.8906 -0.5344
 3132TIP3    H133591   3.119   0.585  11.237 -0.7294  0.7371 -0.6486
 3132TIP3    H233592   3.147   0.604  11.385 -0.2768 -0.5280 -0.5580
 3133TIP3   OH233593   0.447   1.171  12.277 -0.0724  0.2229 -0.0166
 3133TIP3    H133594   0.461   1.085  12.317 -3.9283 -0.9423 -0.7196
 3133TIP3    H233595   0.364   1.162  12.229 -0.4010  4.2074 -0.5584
 3134TIP3   OH233596   0.919   0.727  10.748 -0.3385 -0.4460  0.3619
 3134TIP3    H133597   0.883   0.799  10.696 -0.4125 -1.1681 -0.5990
 3134TIP3    H233598   1.006   0.712  10.712 -0.5837 -1.2790  0.1130
 3135TIP3   OH233599   5.862   6.397  12.333 -0.1936  0.3333 -0.0061
 3135TIP3    H133600   5.903   6.402  12.247 -2.4332  0.8926 -1.1264
 3135TIP3    H233601   5.934   6.380  12.393  1.1975 -2.9965 -2.2679
 3136TIP3   OH233602   2.308   3.019  12.952 -0.3342  0.2332 -0.0813
 3136TIP3    H133603   2.246   2.952  12.980  1.2083 -0.5215  1.8412
 3136TIP3    H233604   2.363   2.976  12.886 -0.5000  0.2042 -0.1993
 3137TIP3   OH233605   3.140   1.967  10.004  0.1602 -0.2150  0.2153
 3137TIP3    H133606   3.230   2.000  10.001 -0.5562  2.2336  2.0843
 3137TIP3    H233607   3.113   1.980  10.095 -1.6439 -2.2708  0.0406
 3138TIP3   OH233608   2.665   5.587  11.850  0.1208  0.1636 -0.7086
 3138TIP3    H133609   2.654   5.528  11.776 -1.0385  0.4264 -0.7576
 3138TIP3    H233610   2.577   5.595  11.888  0.6386  0.2487  0.5283
 3139TIP3   OH233611   0.642   3.894  10.307  0.2276  0.2359  0.0679
 3139TIP3    H133612   0.555   3.891  10.347  0.5857 -0.9012  0.8088
 3139TIP3    H233613   0.696   3.837  10.362  1.3301  0.5468 -0.6569
 3140TIP3   OH233614   2.046   6.283  12.067 -0.0167  0.5001  0.6937
 3140TIP3    H133615   2.047   6.188  12.067  1.9492  0.4117 -1.6047
 3140TIP3    H233616   2.000   6.307  11.986  2.0134  1.3337 -0.2988
 3141TIP3   OH233617   6.245   3.506  11.456 -0.0447 -0.3533 -0.3040
 3141TIP3    H133618   6.188   3.573  11.417  0.5706  1.0377  1.0688
 3141TIP3    H233619   6.282   3.460  11.381 -0.7420  0.6514 -1.2996
 3142TIP3   OH233620   6.096   4.773  12.532  0.3951  0.0110 -0.2331
 3142TIP3    H133621   6.092   4.801  12.624  1.5107  0.6353 -0.3546
 3142TIP3    H233622   6.182   4.732  12.523 -0.7968 -2.6740 -0.3222
 3143TIP3   OH233623   6.460   5.470  11.041 -0.4353 -0.2826  0.1810
 3143TIP3    H133624   6.470   5.509  11.128 -0.1127  0.0695 -0.0086
 3143TIP3    H233625   6.528   5.513  10.988 -0.7693 -0.3428 -0.2973
 3144TIP3   OH233626   3.654   1.633  13.140  0.0221  0.6153 -0.2475
 3144TIP3    H133627   3.641   1.567  13.072  0.1742  0.2445  0.0761
 3144TIP3    H233628   3.749   1.632  13.156 -0.2248 -0.8565  1.4790
 3145TIP3   OH233629   4.523   5.381  12.021  0.1606  0.4575  0.1720
 3145TIP3    H133630   4.510   5.464  11.976  1.8660  1.3135  1.1458
 3145TIP3    H233631   4.533   5.317  11.951 -1.9266  0.8860 -0.5935
 3146TIP3   OH233632   0.572   2.715  12.172 -0.2472  0.4459  0.2512
 3146TIP3    H133633   0.610   2.640  12.218 -1.8510  0.3127  1.4497
 3146TIP3    H233634   0.630   2.729  12.097 -0.5125 -2.7255 -0.6898
 3147TIP3   OH233635   6.416   3.396  12.629 -0.3861 -0.2493  0.1821
 3147TIP3    H133636   6.455   3.309  12.642 -1.0590 -0.4634  0.8120
 3147TIP3    H233637   6.490   3.455  12.623  0.0546 -0.4399  2.7662
 3148TIP3   OH233638   6.650   1.032  13.328 -0.0851 -0.2190 -0.2949
 3148TIP3    H133639   6.595   1.075  13.263 -0.4585 -1.0124 -0.5180
 3148TIP3    H233640   6.589   0.985  13.384  0.3783 -1.8136 -1.0538
 3149TIP3   OH233641   4.369   2.672  12.687 -0.0713 -0.1956 -0.6997
 3149TIP3    H133642   4.280   2.638  12.696 -0.0652 -0.1890 -0.6213
 3149TIP3    H233643   4.359   2.754  12.640 -0.0573 -0.4612 -1.1761
 3150TIP3   OH233644   1.171   0.324  12.472  0.0787 -0.4936 -0.8838
 3150TIP3    H133645   1.233   0.338  12.400  1.8003 -0.9107  0.4296
 3150TIP3    H233646   1.203   0.380  12.542 -0.4253 -1.4872  0.1813
 3151TIP3   OH233647   2.881   2.525  12.551 -0.0518  0.4903  0.2246
 3151TIP3    H133648   2.935   2.597  12.518  1.8237 -0.7173  0.5096
 3151TIP3    H233649   2.941   2.472  12.603 -1.8021 -0.3397  1.5045
 3152TIP3   OH233650   0.078   3.873  11.281 -0.0891 -0.0905 -0.0282
 3152TIP3    H133651   0.144   3.810  11.254  0.0804  0.4057 -0.8160
 3152TIP3    H233652   0.126   3.938  11.332  0.0603  0.3040 -0.6542
 3153TIP3   OH233653   5.327   6.610  11.745  0.3040  0.0503 -0.3143
 3153TIP3    H133654   5.413   6.630  11.781  0.9934  1.2004 -2.4077
 3153TIP3    H233655   5.328   6.515  11.730  2.0715  0.2952 -2.2110
 3154TIP3   OH233656   5.260   2.671  10.780 -0.0780  0.0808  0.1006
 3154TIP3    H133657   5.264   2.623  10.697  0.3201 -0.3162  0.3459
 3154TIP3    H233658   5.344   2.718  10.785 -0.6911  1.2871 -0.4129
 3155TIP3   OH233659   4.497   4.911  10.611 -0.3133  0.0333 -0.2605
 3155TIP3    H133660   4.416   4.895  10.561 -0.6726 -1.4131  0.7211
 3155TIP3    H233661   4.467   4.923  10.701  0.5695 -0.8263  0.1638
 3156TIP3   OH233662   5.944   2.798  12.602  0.0055  0.2591 -0.8353
 3156TIP3    H133663   6.018   2.841  12.646 -1.0980  0.5919  0.7853
 3156TIP3    H233664   5.983   2.755  12.527  2.3780 -1.9042  1.4200
 3157TIP3   OH233665   5.243   0.510  12.139 -0.4105  0.6927  0.0532
 3157TIP3    H133666   5.322   0.456  12.138 -1.8146 -1.4574 -1.5444
 3157TIP3    H233667   5.190   0.474  12.210 -1.1591  0.2153 -0.7279
 3158TIP3   OH233668   6.292   0.516  12.824 -0.2321  0.1309 -0.2039
 3158TIP3    H133669   6.238   0.548  12.896 -1.5315 -0.4225 -0.9113
 3158TIP3    H233670   6.276   0.577  12.752  0.4730  0.2419 -0.2758
 3159TIP3   OH233671   5.059   1.485  12.717 -0.2953  0.5662 -0.2067
 3159TIP3    H133672   5.006   1.421  12.765  0.0302 -1.1973 -2.0566
 3159TIP3    H233673   5.149   1.457  12.731 -0.1996  0.0049 -1.8023
 3160TIP3   OH233674   5.245   0.872  10.914  0.4275 -0.1180 -0.5277
 3160TIP3    H133675   5.227   0.965  10.902  1.2906  0.4963  2.2109
 3160TIP3    H233676   5.320   0.869  10.974  0.3750 -2.5882 -0.4683
 3161TIP3   OH233677   4.706   0.613  11.984  0.1579 -0.5918 -0.0161
 3161TIP3    H133678   4.725   0.689  12.038  1.2576 -0.6112 -0.3618
 3161TIP3    H233679   4.749   0.630  11.901  1.7250 -2.2352  0.3882
 3162TIP3   OH233680   3.549   2.746  12.715 -0.1812 -0.1349  1.3319
 3162TIP3    H133681   3.504   2.708  12.790 -2.6742 -2.2515 -1.0211
 3162TIP3    H233682   3.482   2.798  12.670  0.9089  0.2014  0.0100
 3163TIP3   OH233683   1.035   6.175  12.558  0.1856  0.4459 -0.0259
 3163TIP3    H133684   1.061   6.231  12.485 -0.4994 -0.0815 -0.6837
 3163TIP3    H233685   0.946   6.202  12.580 -0.2269 -0.5036 -0.4805
 3164TIP3   OH233686   3.656   2.296  12.653  0.0768 -0.8348 -0.5995
 3164TIP3    H133687   3.660   2.381  12.610  1.9800 -0.5978 -0.0629
 3164TIP3    H233688   3.742   2.287  12.696 -1.2081 -1.6389  2.0099
 3165TIP3   OH233689   4.510   4.602  12.714  0.0183  0.0374  0.9223
 3165TIP3    H133690   4.522   4.572  12.804 -1.0174  2.8401  2.1168
 3165TIP3    H233691   4.584   4.660  12.698  0.4635 -0.8253 -0.2565
 3166TIP3   OH233692   1.388   2.483  11.400 -0.0569  0.4191  0.2854
 3166TIP3    H133693   1.353   2.495  11.489  0.5796  1.8882  0.3752
 3166TIP3    H233694   1.405   2.572  11.369 -1.2712  0.0036 -1.7414
 3167TIP3   OH233695   4.615   0.109  11.364  0.2763  0.3689 -0.6838
 3167TIP3    H133696   4.613   0.202  11.383  1.6320  0.4149 -0.6596
 3167TIP3    H233697   4.630   0.104  11.269  0.7431  0.1917 -0.6058
 3168TIP3   OH233698   0.014   2.225  11.570  0.6638 -0.1364 -0.0945
 3168TIP3    H133699  -0.063   2.282  11.570  0.2033 -0.6596  2.4980
 3168TIP3    H233700   0.084   2.280  11.536 -0.3080  1.1734 -0.0465
 3169TIP3   OH233701   2.232   3.321  12.298 -0.4333 -0.2306 -0.0751
 3169TIP3    H133702   2.199   3.400  12.254 -2.4579 -1.8787 -1.7468
 3169TIP3    H233703   2.243   3.348  12.389  1.1627  2.5586 -0.9545
 3170TIP3   OH233704   1.843   3.126  13.101 -0.4293 -0.0765  0.2180
 3170TIP3    H133705   1.901   3.192  13.062  1.1361 -0.8944  1.0778
 3170TIP3    H233706   1.802   3.171  13.175 -0.3009  0.2840  0.0720
 3171TIP3   OH233707   0.750   0.948  10.682 -0.8517  1.0284  0.0414
 3171TIP3    H133708   0.669   0.920  10.724 -0.8441  1.5325  0.3995
 3171TIP3    H233709   0.771   1.032  10.723  1.0339 -0.1089  1.5576
 3172TIP3   OH233710   3.916   2.328  12.724 -0.6312 -0.0022  0.7938
 3172TIP3    H133711   3.973   2.253  12.735 -2.7772 -1.7387  0.7445
 3172TIP3    H233712   3.923   2.352  12.632  0.5533  0.3045  0.9556
 3173TIP3   OH233713   2.776   6.064  10.825  0.3444 -0.6045 -0.0467
 3173TIP3    H133714   2.814   5.979  10.849  1.2382  0.3968  2.4822
 3173TIP3    H233715   2.719   6.045  10.751  0.8549 -3.3281  0.1581
 3174TIP3   OH233716   2.605   0.001  13.011  0.0783 -0.4149 -0.0688
 3174TIP3    H133717   2.690  -0.036  13.034 -0.3387  0.3174  3.1924
 3174TIP3    H233718   2.599   0.081  13.063 -1.9034  0.4717 -1.5469
 3175TIP3   OH233719   3.223   4.325  12.725  0.0200 -0.5094 -0.2172
 3175TIP3    H133720   3.246   4.236  12.697  2.1724  0.0610 -0.4484
 3175TIP3    H233721   3.288   4.347  12.791 -1.5843  0.2811  1.1849
 3176TIP3   OH233722   1.514   3.409  10.745 -0.2407 -0.8449 -0.3696
 3176TIP3    H133723   1.606   3.430  10.763  0.9277 -4.4628 -1.1663
 3176TIP3    H233724   1.477   3.391  10.831 -0.3475  0.9150 -0.0128
 3177TIP3   OH233725   3.728   5.515  11.297  0.0885 -0.0663 -0.0238
 3177TIP3    H133726   3.786   5.563  11.356 -0.5446  1.3748 -0.5248
 3177TIP3    H233727   3.786   5.458  11.246  0.8515  0.0828  0.6671
 3178TIP3   OH233728   0.368   3.074  12.815 -0.2106 -0.5131  0.4268
 3178TIP3    H133729   0.339   3.159  12.848 -0.7068 -1.0085  1.3294
 3178TIP3    H233730   0.443   3.051  12.871  0.9920  0.0589 -0.8891
 3179TIP3   OH233731   0.752   1.027  12.683 -0.4344  0.1655 -0.4698
 3179TIP3    H133732   0.662   1.050  12.663 -0.4496  0.6160  0.0875
 3179TIP3    H233733   0.746   0.972  12.762 -0.2752 -0.4449 -0.8709
 3180TIP3   OH233734   4.276   4.643  12.572 -0.0454 -0.1586  0.1306
 3180TIP3    H133735   4.309   4.668  12.486 -0.7616  0.1816 -0.0603
 3180TIP3    H233736   4.353   4.638  12.628  0.4857 -0.8715 -0.6433
 3181TIP3   OH233737   6.487   1.517  13.016 -0.2078 -0.7986  0.1644
 3181TIP3    H133738   6.520   1.481  13.098  0.6416  0.5243  0.4305
 3181TIP3    H233739   6.566   1.537  12.965 -0.4775  2.2464  0.7271
 3182TIP3   OH233740   2.991   4.172  12.891 -0.1219  0.2411  0.5237
 3182TIP3    H133741   3.073   4.185  12.843 -0.3348 -0.1648  0.0317
 3182TIP3    H233742   3.018   4.149  12.979  0.3410 -1.2542  0.0238
 3183TIP3   OH233743   2.196   3.050  12.422  0.2241  0.6277  0.1576
 3183TIP3    H133744   2.186   3.006  12.337  3.2790 -0.0307 -0.0007
 3183TIP3    H233745   2.172   3.141  12.405 -0.8978  0.1471 -0.9538
 3184TIP3   OH233746   3.077   5.333  10.079  0.0016  0.0258  0.2342
 3184TIP3    H133747   3.107   5.423  10.063  0.0490 -0.4199 -2.5736
 3184TIP3    H233748   3.001   5.322  10.021 -0.4689 -1.5227  1.0911
 3185TIP3   OH233749   0.866   6.098   9.862  0.0474  0.4729  0.8070
 3185TIP3    H133750   0.790   6.045   9.839 -0.0236  0.5617  0.8371
 3185TIP3    H233751   0.830   6.177   9.902  0.1685  0.2690  1.3269
 3186TIP3   OH233752   4.899   4.908  10.256  0.3606  0.3914 -0.2309
 3186TIP3    H133753   4.835   4.871  10.196  1.6198  0.6103 -1.7626
 3186TIP3    H233754   4.854   4.981  10.298 -1.0847 -0.8097  0.4029
 3187TIP3   OH233755   3.713   3.261  12.396 -0.0310 -0.3006 -0.4830
 3187TIP3    H133756   3.630   3.238  12.354 -0.4284 -2.2982  1.2244
 3187TIP3    H233757   3.755   3.177  12.415  2.2722  0.6470 -0.9941
 3188TIP3   OH233758   2.183   1.910  11.313 -0.3174 -0.2415 -0.2961
 3188TIP3    H133759   2.115   1.846  11.292 -0.2186  0.5676 -3.6858
 3188TIP3    H233760   2.145   1.995  11.288  0.9540  0.5586  0.3672
 3189TIP3   OH233761   3.116   4.438  10.911  1.1714  0.2796  0.3717
 3189TIP3    H133762   3.069   4.373  10.962 -0.1107  0.6164 -0.3190
 3189TIP3    H233763   3.153   4.389  10.837 -1.4661  0.5377 -1.2599
 3190TIP3   OH233764   3.096   0.882  11.321  0.7071  0.1918  0.0032
 3190TIP3    H133765   3.185   0.886  11.284  0.8696  1.3643  0.4582
 3190TIP3    H233766   3.040   0.861  11.247  1.1736  1.2430 -0.6699
 3191TIP3   OH233767   2.741   5.049  12.467 -0.3147  0.1962 -0.0819
 3191TIP3    H133768   2.737   4.980  12.533 -0.2992  1.1061  0.8932
 3191TIP3    H233769   2.750   5.130  12.517 -1.7137  1.0538 -1.1420
 3192TIP3   OH233770   5.598   1.430  13.077  0.1142  0.3073  0.2131
 3192TIP3    H133771   5.677   1.425  13.130  1.0123 -0.9472 -1.1458
 3192TIP3    H233772   5.626   1.402  12.989 -1.4907  1.3971 -0.7019
 3193TIP3   OH233773   1.845   0.539  12.394 -0.0692  0.3902  0.2007
 3193TIP3    H133774   1.792   0.484  12.337 -0.0744  0.7365 -0.1346
 3193TIP3    H233775   1.845   0.625  12.351 -0.1705  0.6853  0.7843
 3194TIP3   OH233776   5.224   2.592  12.469  0.2935  0.1070  0.4217
 3194TIP3    H133777   5.176   2.580  12.387 -0.0318 -0.5177  0.6976
 3194TIP3    H233778   5.244   2.685  12.471  0.2505  0.1421 -0.3375
 3195TIP3   OH233779   6.645   4.116  11.640 -0.4193 -0.2136 -0.2351
 3195TIP3    H133780   6.567   4.117  11.585 -1.0430 -1.2882  0.5936
 3195TIP3    H233781   6.680   4.027  11.630 -0.2163 -0.2416  0.6567
 3196TIP3   OH233782   5.883   2.197  12.344  0.0753  0.2346 -0.0168
 3196TIP3    H133783   5.931   2.245  12.412  0.7570  0.1314 -0.4081
 3196TIP3    H233784   5.931   2.115  12.335  0.6466  0.6841 -1.3635
 3197TIP3   OH233785   2.647   3.830  10.653  0.6836 -0.1253 -0.2144
 3197TIP3    H133786   2.738   3.809  10.632  1.2802  0.1028  1.9930
 3197TIP3    H233787   2.609   3.746  10.680 -0.5575 -0.7701 -3.4626
 3198TIP3   OH233788   0.805   4.543  12.685  0.1402 -0.5180 -0.3340
 3198TIP3    H133789   0.838   4.459  12.652  0.7059 -0.7187  0.7081
 3198TIP3    H233790   0.855   4.609  12.637 -1.1423 -0.7025 -2.0571
 3199TIP3   OH233791   2.243   1.394  10.100 -0.0502  0.2707 -0.3076
 3199TIP3    H133792   2.197   1.409  10.183  1.7258 -0.4511  0.8581
 3199TIP3    H233793   2.313   1.459  10.099  1.5006 -1.3204  0.0069
 3200TIP3   OH233794   4.410   2.619  10.648 -0.1894 -0.1701  0.4409
 3200TIP3    H133795   4.449   2.532  10.659  0.1414 -0.2506 -1.1458
 3200TIP3    H233796   4.480   2.680  10.671  0.7045 -0.3210 -1.7156
 3201TIP3   OH233797   2.326   4.704  12.169  0.1677 -0.1891  0.4215
 3201TIP3    H133798   2.246   4.704  12.221 -0.5965  2.7529 -0.5965
 3201TIP3    H233799   2.325   4.787  12.121  4.6155  0.8106  1.5621
 3202TIP3   OH233800   6.376   5.526  12.797 -0.7931 -0.3088 -0.1841
 3202TIP3    H133801   6.373   5.621  12.811 -1.9592 -0.3510 -0.0604
 3202TIP3    H233802   6.300   5.507  12.743 -0.8294 -1.2294  0.1690
 3203TIP3   OH233803   0.832   2.809  10.119  0.1365 -0.4636  0.2451
 3203TIP3    H133804   0.831   2.892  10.071 -0.5042  0.0811  1.1628
 3203TIP3    H233805   0.778   2.750  10.066 -1.3768  0.4165  0.7601
 3204TIP3   OH233806   3.174   2.565  12.240 -0.4669  0.0042  0.1116
 3204TIP3    H133807   3.180   2.632  12.307 -0.3680 -0.6307  0.7431
 3204TIP3    H233808   3.253   2.512  12.250 -0.7824 -0.5084 -0.0521
 3205TIP3   OH233809   5.882   0.142  12.824  0.8020  0.2950  0.4449
 3205TIP3    H133810   5.797   0.169  12.791 -0.9216 -3.5137  1.2316
 3205TIP3    H233811   5.916   0.082  12.757  2.1260  0.4522  0.9345
 3206TIP3   OH233812   2.386   0.453   9.544  0.2882 -0.2005 -0.4942
 3206TIP3    H133813   2.317   0.397   9.579  0.5864 -0.0044  0.4088
 3206TIP3    H233814   2.465   0.427   9.591  1.3387 -1.8967 -2.9595
 3207TIP3   OH233815   1.460   4.226  12.424 -0.4383  0.7898  0.0621
 3207TIP3    H133816   1.490   4.263  12.341  0.1896  2.1455  0.8628
 3207TIP3    H233817   1.368   4.250  12.429 -0.4567  0.7776 -0.2016
 3208TIP3   OH233818   3.097   5.480   9.542  0.4581 -0.1662 -0.8415
 3208TIP3    H133819   3.123   5.473   9.633  2.8837  0.4721 -1.4148
 3208TIP3    H233820   3.077   5.390   9.515  0.9793 -0.5369 -0.0183
 3209TIP3   OH233821   2.515   3.019  11.937  0.5675 -0.0444  0.0708
 3209TIP3    H133822   2.439   3.053  11.888  0.8245  0.4405  0.0030
 3209TIP3    H233823   2.501   3.050  12.027  0.7192  0.1086  0.0430
 3210TIP3   OH233824   6.723   6.470  11.465  0.0876  0.3998 -0.2183
 3210TIP3    H133825   6.791   6.529  11.433  1.5905 -0.2678  1.5771
 3210TIP3    H233826   6.704   6.501  11.554 -2.1268  0.6671 -0.7239
 3211TIP3   OH233827   0.883   0.832  11.256 -0.0646  0.7306 -0.1355
 3211TIP3    H133828   0.957   0.810  11.200  0.2790  1.1800  0.1304
 3211TIP3    H233829   0.922   0.845  11.343 -0.6214 -0.2167  0.2721
 3212TIP3   OH233830   6.662   0.342  13.329  0.0264  0.1804  0.1003
 3212TIP3    H133831   6.731   0.396  13.369  1.4647 -2.0498  0.8430
 3212TIP3    H233832   6.683   0.343  13.236 -0.7196  1.8617 -0.0806
 3213TIP3   OH233833   3.825   5.970  12.376 -0.4429 -0.2144 -0.2182
 3213TIP3    H133834   3.799   6.061  12.393 -1.0920 -0.0547 -1.9101
 3213TIP3    H233835   3.770   5.942  12.302  2.3497 -0.6773 -2.3034
 3214TIP3   OH233836   5.415   4.820  12.283 -0.2170  0.1488  0.0688
 3214TIP3    H133837   5.472   4.756  12.326 -0.8516  0.7009  1.8399
 3214TIP3    H233838   5.336   4.771  12.262  0.1905 -0.1834 -0.7067
 3215TIP3   OH233839   0.853   3.712  11.219 -0.4321  0.0308  0.3351
 3215TIP3    H133840   0.906   3.702  11.140 -0.6379  0.2811  0.1624
 3215TIP3    H233841   0.910   3.756  11.281 -0.6290  0.8755 -0.0620
 3216TIP3   OH233842   2.107   5.320  11.203 -0.1711 -0.0500  0.2614
 3216TIP3    H133843   2.082   5.270  11.126  0.3139  0.8545 -0.5013
 3216TIP3    H233844   2.185   5.276  11.237  1.0973  0.9442 -1.2158
 3217TIP3   OH233845   0.367   5.497  11.076 -0.1193 -0.0277  0.3092
 3217TIP3    H133846   0.345   5.582  11.114  1.3417  0.4532  0.1599
 3217TIP3    H233847   0.286   5.446  11.082 -1.7342  2.1088 -1.7404
 3218TIP3   OH233848   2.835   1.703  10.985  0.5661 -0.2238 -0.0051
 3218TIP3    H133849   2.861   1.630  11.041 -0.8862 -1.5497 -0.9677
 3218TIP3    H233850   2.877   1.683  10.901  0.8629  0.5190 -0.0345
 3219TIP3   OH233851   2.845   6.453  13.191  0.2436 -0.5787  0.0670
 3219TIP3    H133852   2.817   6.373  13.147 -1.2993 -0.2782  0.4170
 3219TIP3    H233853   2.939   6.458  13.175  0.0252 -1.3503 -1.7352
 3220TIP3   OH233854   2.032   6.230  13.217  0.2004  0.1925  0.4819
 3220TIP3    H133855   2.124   6.256  13.224  0.3619  0.4414 -1.8539
 3220TIP3    H233856   1.986   6.311  13.195  0.0833 -0.6113 -2.5967
 3221TIP3   OH233857   1.191   3.112  12.958  0.1729 -0.1009  0.4475
 3221TIP3    H133858   1.140   3.144  12.884  1.0811  0.4201  0.0271
 3221TIP3    H233859   1.152   3.154  13.035  0.1043  0.4623  0.1117
 3222TIP3   OH233860   1.594   3.823  12.552  0.7819 -0.1746 -0.2338
 3222TIP3    H133861   1.623   3.749  12.604  0.8428 -0.6225 -0.8922
 3222TIP3    H233862   1.658   3.892  12.570  0.3267 -0.0301  0.9277
 3223TIP3   OH233863   4.664   4.510  10.596  0.3733  0.1310 -0.0265
 3223TIP3    H133864   4.631   4.571  10.530 -1.7620 -0.3079  0.5367
 3223TIP3    H233865   4.611   4.431  10.583  1.9558 -1.0391  0.3202
 3224TIP3   OH233866   4.970   2.632  10.202 -0.3685 -0.6527 -0.0179
 3224TIP3    H133867   4.979   2.608  10.109 -1.4705 -0.6973 -0.1207
 3224TIP3    H233868   4.923   2.559  10.241  0.5671 -0.8814  0.7060
 3225TIP3   OH233869   5.520   0.599  11.919 -0.6291  0.8890  0.1614
 3225TIP3    H133870   5.520   0.694  11.935 -1.2125  1.0147 -0.5291
 3225TIP3    H233871   5.562   0.590  11.833  0.5505  0.4104  0.7682
 3226TIP3   OH233872   6.535   1.057  11.839  1.1437 -0.4214 -0.1801
 3226TIP3    H133873   6.446   1.091  11.827  0.9546 -0.9903 -0.4138
 3226TIP3    H233874   6.588   1.106  11.776  1.4743  1.6815  1.6077
 3227TIP3   OH233875   4.199   3.903  13.017 -0.5847 -0.1262 -0.2716
 3227TIP3    H133876   4.131   3.836  13.005 -1.8871  0.7870  1.5147
 3227TIP3    H233877   4.274   3.854  13.052 -0.7279 -0.9610 -1.0806
 3228TIP3   OH233878   2.933   1.905  11.246  0.1185 -0.1244 -0.1735
 3228TIP3    H133879   2.941   1.933  11.155 -1.2459 -0.4809 -0.4281
 3228TIP3    H233880   3.009   1.848  11.260  0.1556 -0.3515 -1.2071
 3229TIP3   OH233881   1.631   6.141  11.505 -0.2303  0.1660  0.6020
 3229TIP3    H133882   1.710   6.123  11.555 -0.3137 -1.0120  0.3507
 3229TIP3    H233883   1.561   6.141  11.570  0.1337  3.1652  1.1377
 3230TIP3   OH233884   2.607   0.666  12.380 -0.4505 -0.1400 -0.6309
 3230TIP3    H133885   2.628   0.634  12.467 -0.9311 -0.9619 -0.8038
 3230TIP3    H233886   2.625   0.760  12.383  0.2996 -0.3039  0.1061
 3231TIP3   OH233887   1.702   5.565   9.905  0.7512 -0.7391  0.2620
 3231TIP3    H133888   1.723   5.658   9.915  0.8124 -0.7375  0.1260
 3231TIP3    H233889   1.709   5.529   9.993  1.9524 -0.8662  0.1317
 3232TIP3   OH233890   5.219   4.481  12.157 -0.1266 -0.1385 -0.0661
 3232TIP3    H133891   5.220   4.564  12.205  0.5114 -0.9262  1.3545
 3232TIP3    H233892   5.126   4.456  12.155 -0.0762 -0.6310  1.8064
 3233TIP3   OH233893   6.682   0.619  11.422 -0.3310  0.2695  0.1387
 3233TIP3    H133894   6.598   0.663  11.429 -0.1011  0.7485 -0.0603
 3233TIP3    H233895   6.732   0.672  11.360  0.0521 -0.1132  0.1117
 3234TIP3   OH233896   0.992   6.100  10.260  0.0395 -0.2356  0.1228
 3234TIP3    H133897   1.042   6.018  10.250  0.2083 -0.1949  0.5779
 3234TIP3    H233898   0.979   6.131  10.171  0.6870 -0.3372 -0.0143
 3235TIP3   OH233899   0.088   0.145  12.244  0.0787 -0.1727 -0.5927
 3235TIP3    H133900   0.172   0.163  12.285 -0.9428 -0.0095  1.5498
 3235TIP3    H233901   0.103   0.064  12.194  2.0111  0.9702 -2.0230
 3236TIP3   OH233902   6.342   4.456  12.272  0.3776 -0.4255  0.1038
 3236TIP3    H133903   6.309   4.493  12.354  1.3614 -0.9130  0.7496
 3236TIP3    H233904   6.433   4.486  12.268 -0.2245  1.4166 -1.9336
 3237TIP3   OH233905   2.396   0.716  13.024 -0.0432  0.0844 -0.1710
 3237TIP3    H133906   2.471   0.688  13.076  0.2349  1.0732 -0.0163
 3237TIP3    H233907   2.352   0.781  13.078  0.2556  1.1337 -1.1409
 3238TIP3   OH233908   2.346   4.351   9.513 -0.0049  0.0213 -0.1363
 3238TIP3    H133909   2.298   4.301   9.447  1.1227  1.0342 -1.7947
 3238TIP3    H233910   2.283   4.363   9.584 -1.2046 -1.2734 -0.9306
 3239TIP3   OH233911   3.747   3.532  10.938  0.1846  0.1937 -0.2654
 3239TIP3    H133912   3.730   3.440  10.916 -1.9184  0.3179  0.6648
 3239TIP3    H233913   3.690   3.550  11.012 -0.3624  2.5953 -1.1888
 3240TIP3   OH233914   3.048   4.110  11.245  0.2888  0.3496 -0.3302
 3240TIP3    H133915   3.125   4.080  11.292  1.0834 -0.3019 -1.9680
 3240TIP3    H233916   3.064   4.204  11.230  0.5575  0.3111 -0.2892
 3241TIP3   OH233917   2.164   4.190  13.031  0.2648  0.0410  0.0960
 3241TIP3    H133918   2.155   4.200  12.937  0.1723 -0.1298  0.0866
 3241TIP3    H233919   2.241   4.243  13.053 -0.0647  0.5541  0.0133
 3242TIP3   OH233920   1.480   0.630  12.028 -0.0530  0.0137 -0.8829
 3242TIP3    H133921   1.564   0.585  12.039 -1.2364 -1.9680  0.5855
 3242TIP3    H233922   1.461   0.667  12.114 -2.2910 -2.6352 -0.0960
 3243TIP3   OH233923   0.988   4.231  10.665 -0.0630  0.2125  0.6324
 3243TIP3    H133924   0.996   4.204  10.574  0.1394  3.0657 -0.3243
 3243TIP3    H233925   1.069   4.202  10.706 -0.1948 -1.1858 -0.0560
 3244TIP3   OH233926   6.428   6.731  13.355 -0.2484  0.2615 -0.0725
 3244TIP3    H133927   6.355   6.765  13.304  0.7211  1.1624 -0.9324
 3244TIP3    H233928   6.401   6.738  13.446 -1.0881  0.9097 -0.3668
 3245TIP3   OH233929   2.306   5.128  12.704  0.5985  0.0159  0.1073
 3245TIP3    H133930   2.340   5.205  12.657  0.9629  0.8324  1.6552
 3245TIP3    H233931   2.212   5.143  12.711  0.7556  0.6577  0.9701
 3246TIP3   OH233932   1.598   2.966   9.879  0.1132 -0.5871 -0.1435
 3246TIP3    H133933   1.553   2.985   9.962 -0.3168 -0.8366 -0.3184
 3246TIP3    H233934   1.595   2.870   9.871 -0.3752 -0.5286 -0.7388
 3247TIP3   OH233935   0.238   3.494  11.653  0.2215 -0.5183 -0.5241
 3247TIP3    H133936   0.229   3.511  11.747 -0.6655  1.7123 -0.9629
 3247TIP3    H233937   0.173   3.426  11.634  0.4199 -0.9992  0.4579
 3248TIP3   OH233938   6.395   0.432  11.458  0.3074  0.0186 -0.0442
 3248TIP3    H133939   6.369   0.426  11.550 -0.0231 -1.1488 -0.1948
 3248TIP3    H233940   6.405   0.341  11.430 -1.2079  0.2893 -1.6197
 3249TIP3   OH233941   4.993   2.047  10.928 -0.2904 -0.0949 -0.1391
 3249TIP3    H133942   5.048   1.972  10.950 -1.7346 -1.3190 -0.5191
 3249TIP3    H233943   4.957   2.076  11.012 -2.2344 -1.8990 -0.2718
 3250TIP3   OH233944   2.126   0.226   9.982 -0.2307 -0.3320 -0.6139
 3250TIP3    H133945   2.125   0.305  10.035  0.2207 -0.5192 -0.3251
 3250TIP3    H233946   2.095   0.254   9.896 -2.9567 -0.3870  0.2363
 3251TIP3   OH233947   5.600   3.609  11.713  0.2111  0.3677 -0.2050
 3251TIP3    H133948   5.671   3.641  11.768  0.3517 -0.3799  0.0529
 3251TIP3    H233949   5.638   3.536  11.664 -0.6925 -0.8327  0.8302
 3252TIP3   OH233950   2.712   6.535  12.813 -0.5736  0.2525  0.7215
 3252TIP3    H133951   2.679   6.509  12.727 -2.9525 -0.5074  1.7586
 3252TIP3    H233952   2.654   6.490  12.875 -0.5841  2.7823  2.6929
 3253TIP3   OH233953   3.917   2.395  13.214  0.3504 -0.3009  0.1880
 3253TIP3    H133954   3.949   2.317  13.259  0.3518  0.1374  0.9662
 3253TIP3    H233955   3.980   2.410  13.144  0.4510 -0.8825  0.1472
 3254TIP3   OH233956   4.249   2.098  11.205 -0.9515  0.0921 -0.0412
 3254TIP3    H133957   4.173   2.150  11.180 -1.8115 -0.7956  0.6309
 3254TIP3    H233958   4.234   2.076  11.297  0.2844  0.1588  0.1993
 3255TIP3   OH233959   2.156   1.974  12.952 -0.0202  0.3608 -0.2277
 3255TIP3    H133960   2.209   2.038  12.905 -1.9763  2.1226 -0.1598
 3255TIP3    H233961   2.169   1.892  12.903  1.0890  1.2211 -1.4366
 3256TIP3   OH233962   0.875   3.165  11.483 -0.4364 -0.8033  0.3437
 3256TIP3    H133963   0.831   3.198  11.562  0.7889  0.4968  0.5116
 3256TIP3    H233964   0.959   3.132  11.514 -0.8611 -2.3741 -0.1155
 3257TIP3   OH233965   1.606   3.886  11.762 -0.7840  0.2142  0.1489
 3257TIP3    H133966   1.619   3.922  11.850  1.2383  0.5524 -0.2502
 3257TIP3    H233967   1.604   3.963  11.705 -0.1018 -0.1093 -0.3132
 3258TIP3   OH233968   0.543   2.808  10.932 -0.2006 -0.0309 -0.3575
 3258TIP3    H133969   0.601   2.884  10.933 -1.2658  0.8227  1.3097
 3258TIP3    H233970   0.459   2.841  10.964 -0.4339 -2.0899  1.3982
 3259TIP3   OH233971   1.072   4.095  11.128  0.1379  0.1686 -0.1808
 3259TIP3    H133972   1.091   4.181  11.090 -0.3261  0.1430 -0.4861
 3259TIP3    H233973   1.150   4.073  11.180  0.1430  0.8933  0.1226
 3260TIP3   OH233974   1.720   0.509  12.058  0.4577  0.6974 -0.0021
 3260TIP3    H133975   1.714   0.436  12.120 -0.0656 -0.6551 -1.5706
 3260TIP3    H233976   1.808   0.504  12.022 -0.0454 -0.1595 -1.2095
 3261TIP3   OH233977   2.118   1.190  12.352 -0.5699 -0.0710 -0.4683
 3261TIP3    H133978   2.135   1.155  12.440  0.5640  0.0829 -0.6194
 3261TIP3    H233979   2.202   1.223  12.322 -0.7139 -1.0018 -2.0142
 3262TIP3   OH233980   4.428   0.894  10.230 -0.4357  0.1689  0.1359
 3262TIP3    H133981   4.446   0.824  10.293 -1.1914 -1.5063 -1.4165
 3262TIP3    H233982   4.494   0.961  10.248  0.9933 -1.4048  1.0028
 3263TIP3   OH233983   3.173   1.386  10.678  0.6244  0.3189 -0.5286
 3263TIP3    H133984   3.106   1.430  10.626  1.5092  2.8088  0.3031
 3263TIP3    H233985   3.156   1.414  10.768  1.6734 -0.5036 -0.0472
 3264TIP3   OH233986   3.697   3.764  12.513 -0.2011  0.0723 -0.6515
 3264TIP3    H133987   3.623   3.720  12.556 -0.0841  0.1584 -0.3607
 3264TIP3    H233988   3.764   3.696  12.504  0.5895  0.5386  1.2232
 3265TIP3   OH233989   1.551   5.154  10.842  0.9996 -0.1914 -0.4672
 3265TIP3    H133990   1.612   5.168  10.915  1.4759 -4.1327  0.0682
 3265TIP3    H233991   1.604   5.167  10.763  1.2244  1.1797 -0.1241
 3266TIP3   OH233992   1.269   2.909  12.391 -0.1907 -0.1838  0.0186
 3266TIP3    H133993   1.246   2.839  12.330 -0.5516  0.1503 -0.2321
 3266TIP3    H233994   1.196   2.912  12.453  0.4095 -0.8642  0.7824
 3267TIP3   OH233995   2.151   3.907  10.331 -0.4525 -0.2760 -0.7763
 3267TIP3    H133996   2.225   3.919  10.272  1.0554 -0.3331  1.0182
 3267TIP3    H233997   2.134   3.812  10.330  1.9907 -0.8681  1.5336
 3268TIP3   OH233998   4.194   6.024  11.436 -0.6181 -0.4962  0.2884
 3268TIP3    H133999   4.100   6.016  11.421 -0.1901 -0.6584 -3.0031
 3268TIP3    H234000   4.201   6.049  11.528 -3.9718  1.4845  0.1949
 3269TIP3   OH234001   1.316   3.229  11.748  0.1432 -0.2222  1.0617
 3269TIP3    H134002   1.374   3.235  11.824  0.3787  2.0786  0.7685
 3269TIP3    H234003   1.228   3.239  11.784  0.2388  0.6181  1.0767
 3270TIP3   OH234004   0.709   0.623  11.311 -0.2553 -0.2711  0.0693
 3270TIP3    H134005   0.757   0.559  11.258  0.9579  0.7854 -0.1407
 3270TIP3    H234006   0.744   0.708  11.284 -2.8195  0.6520 -0.6927
 3271TIP3   OH234007   4.394   0.025  11.211 -0.3552  0.0057  0.9580
 3271TIP3    H134008   4.419  -0.046  11.153 -1.8940  0.5008 -0.3871
 3271TIP3    H234009   4.446   0.100  11.181 -0.5863  0.0677  0.7068
 3272TIP3   OH234010   1.019   2.495  11.443 -1.3335 -1.2931  0.2324
 3272TIP3    H134011   1.040   2.493  11.537 -1.3320  2.3488  0.4401
 3272TIP3    H234012   0.941   2.440  11.435 -3.1521  0.5920  3.0221
 3273TIP3   OH234013   1.586   4.732  13.156  0.1053 -0.0393 -0.0498
 3273TIP3    H134014   1.600   4.670  13.228 -0.2815 -0.6684 -0.5067
 3273TIP3    H234015   1.620   4.815  13.189 -0.0228 -0.3298  0.8399
 3274TIP3   OH234016   1.474   3.181  10.266  0.2484  0.5404 -0.6468
 3274TIP3    H134017   1.472   3.261  10.318 -2.8269  0.2694 -0.1607
 3274TIP3    H234018   1.399   3.131  10.296  1.0670 -1.7671 -2.1635
 3275TIP3   OH234019   6.712   5.440  11.305  0.4049 -0.1431  0.2710
 3275TIP3    H134020   6.656   5.365  11.284 -0.9982  1.1931 -0.9541
 3275TIP3    H234021   6.682   5.469  11.391 -1.7130  1.2957 -0.8730
 3276TIP3   OH234022   4.743   6.737  10.959  0.4437  0.6595  0.2718
 3276TIP3    H134023   4.700   6.652  10.947  0.2504  0.8417 -0.4183
 3276TIP3    H234024   4.699   6.794  10.895  1.0532  1.0909  0.2362
 3277TIP3   OH234025   0.278   5.973  12.167 -0.1371 -0.4640  0.2893
 3277TIP3    H134026   0.322   5.944  12.088  0.8413  2.6957 -0.4644
 3277TIP3    H234027   0.349   5.994  12.228 -0.5831  2.1256  0.0299
 3278TIP3   OH234028   6.582   0.345  12.115 -0.0676  0.0847  0.3383
 3278TIP3    H134029   6.613   0.320  12.027 -1.4381  0.4470 -0.2666
 3278TIP3    H234030   6.579   0.440  12.113 -0.2496  0.0879  0.7287
 3279TIP3   OH234031   1.911   4.088  11.894  0.3291 -0.2036  0.0075
 3279TIP3    H134032   1.863   4.128  11.966  2.1894  2.0829  0.1179
 3279TIP3    H234033   1.851   4.092  11.820 -0.4134  0.5822  0.6273
 3280TIP3   OH234034   2.374   1.874  11.101  0.4508  0.1383  0.2049
 3280TIP3    H134035   2.328   1.831  11.028  1.5456  0.6801 -0.8393
 3280TIP3    H234036   2.306   1.926  11.145  0.0425  0.9964 -1.3657
 3281TIP3   OH234037   1.680   3.065  12.263  0.5222  0.0423  0.1948
 3281TIP3    H134038   1.686   2.976  12.299  0.6619  0.6434  1.7351
 3281TIP3    H234039   1.585   3.081  12.257  0.4481 -0.8824 -1.9308
 3282TIP3   OH234040   6.824   6.500  10.868  0.1564 -0.1572 -0.0912
 3282TIP3    H134041   6.782   6.422  10.905  3.1666 -1.0092  1.8705
 3282TIP3    H234042   6.878   6.466  10.797 -0.6298  0.6051 -1.0887
 3283TIP3   OH234043   5.219   1.908  10.948 -0.2339 -0.2422 -0.4508
 3283TIP3    H134044   5.195   1.945  10.863 -1.1874 -0.5659 -0.3386
 3283TIP3    H234045   5.313   1.893  10.942  0.1979  2.1754 -0.4856
 3284TIP3   OH234046   1.112   0.994  12.897  0.2783 -0.0117 -0.9768
 3284TIP3    H134047   1.201   1.002  12.930  0.0148  0.9457 -0.4723
 3284TIP3    H234048   1.093   1.079  12.857 -0.5595 -0.0546 -0.6917
 3285TIP3   OH234049   5.337   2.854  12.325 -0.2693  0.5541 -0.1009
 3285TIP3    H134050   5.386   2.874  12.245  0.3871  0.0257  0.1607
 3285TIP3    H234051   5.258   2.811  12.294 -0.0341  0.3813 -0.4697
 3286TIP3   OH234052   4.384   3.415  11.390 -0.5824 -0.1003  0.4425
 3286TIP3    H134053   4.472   3.448  11.410 -0.5046 -0.2936  0.4255
 3286TIP3    H234054   4.324   3.481  11.427 -0.4602 -0.7706  1.8885
 3287TIP3   OH234055   2.777   0.597  12.129 -1.0303  0.0499  0.6357
 3287TIP3    H134056   2.747   0.580  12.219  0.7826  0.2216  1.3071
 3287TIP3    H234057   2.800   0.690  12.128 -0.9548  0.0292  0.0021
 3288TIP3   OH234058   6.328   0.863  12.807  0.0548 -0.7282 -0.5847
 3288TIP3    H134059   6.235   0.853  12.784  0.0952 -0.0337 -1.1214
 3288TIP3    H234060   6.336   0.956  12.831  0.6200 -0.7662 -0.6186
 3289TIP3   OH234061   5.703   3.390  11.590  0.0596 -0.1186 -0.4185
 3289TIP3    H134062   5.693   3.295  11.603  1.1188 -0.2929 -0.7998
 3289TIP3    H234063   5.777   3.399  11.530  0.5432  0.9802  0.3049
 3290TIP3   OH234064   2.746   0.639  12.862 -0.1353  0.0357  0.0465
 3290TIP3    H134065   2.815   0.663  12.924  0.0884  0.1388 -0.2391
 3290TIP3    H234066   2.680   0.594  12.915  0.5350 -0.8171  0.1781
 3291TIP3   OH234067   2.749   3.570   9.614 -0.2820 -0.6957  0.4123
 3291TIP3    H134068   2.758   3.665   9.607 -0.0710 -0.7202  0.3284
 3291TIP3    H234069   2.668   3.550   9.568  0.4101 -0.7092 -0.8490
 3292TIP3   OH234070   5.789   2.873  12.399 -0.4940 -0.4987 -0.5857
 3292TIP3    H134071   5.856   2.930  12.362 -1.1663  2.9550  2.8508
 3292TIP3    H234072   5.830   2.837  12.478 -2.1059  0.5604  0.8132
 3293TIP3   OH234073   4.156   1.755  13.036 -0.8317  0.3294 -0.3244
 3293TIP3    H134074   4.213   1.693  12.990 -1.3856  0.3679 -1.0918
 3293TIP3    H234075   4.212   1.832  13.051 -0.5233  0.1600 -0.5788
 3294TIP3   OH234076   2.277   1.943  10.759  0.1535 -0.2664  0.2354
 3294TIP3    H134077   2.285   2.019  10.816  1.7293 -0.6071  0.4995
 3294TIP3    H234078   2.227   1.880  10.811 -0.0796  0.1262  0.4909
 3295TIP3   OH234079   2.454   0.373  12.490  0.8741  0.1966  0.2630
 3295TIP3    H134080   2.397   0.324  12.549  1.6813 -1.0552  0.0433
 3295TIP3    H234081   2.476   0.453  12.538  0.3809 -0.1401  1.0595
 3296TIP3   OH234082   1.775   2.407  12.621  0.3138 -1.1569  0.0381
 3296TIP3    H134083   1.702   2.380  12.565 -0.8048  0.2724  0.7706
 3296TIP3    H234084   1.738   2.472  12.680  2.5125  0.7699 -0.5726
 3297TIP3   OH234085   5.562   1.351  10.817  0.2740 -0.0811  0.6475
 3297TIP3    H134086   5.646   1.378  10.779 -0.4643  0.3608 -0.7334
 3297TIP3    H234087   5.587   1.293  10.890  1.7674 -1.2819 -0.7219
 3298TIP3   OH234088   3.054   0.031  10.722 -0.7733  0.6341 -0.6245
 3298TIP3    H134089   3.088   0.053  10.809 -1.2670  1.3015 -0.6013
 3298TIP3    H234090   2.989   0.098  10.703 -2.6087 -0.9698 -0.3793
 3299TIP3   OH234091   2.189   5.161   9.244 -0.4253  0.5837 -0.2263
 3299TIP3    H134092   2.124   5.205   9.298 -0.7496 -0.1054 -0.0369
 3299TIP3    H234093   2.152   5.161   9.156  0.3492  2.1986 -0.5929
 3300TIP3   OH234094   1.616   3.936   9.365 -0.4953 -0.1864 -0.4223
 3300TIP3    H134095   1.660   3.935   9.280 -0.2482  1.5904 -0.3477
 3300TIP3    H234096   1.612   3.844   9.391  0.8225 -0.6207 -1.6384
 3301TIP3   OH234097   0.384   4.106   9.612 -0.0896  0.1569 -0.2640
 3301TIP3    H134098   0.386   4.011   9.619  1.6671  0.1831 -0.1501
 3301TIP3    H234099   0.433   4.125   9.532 -2.0457  0.9126 -1.3661
 3302TIP3   OH234100   5.223   6.135  13.243 -0.3773  0.0262 -0.2559
 3302TIP3    H134101   5.201   6.218  13.202 -0.9375  0.5617  1.0637
 3302TIP3    H234102   5.211   6.151  13.337  0.1286 -1.3563  0.0653
 3303TIP3   OH234103   4.566   6.266  11.946  0.1278 -0.0658  0.4144
 3303TIP3    H134104   4.633   6.326  11.912  1.4973 -1.4357  0.5585
 3303TIP3    H234105   4.543   6.211  11.872  0.0573 -0.3803  0.6694
 3304TIP3   OH234106   5.205   5.189  11.782 -0.1542  0.1333  0.4092
 3304TIP3    H134107   5.287   5.234  11.763 -0.5236  0.4427 -0.5319
 3304TIP3    H234108   5.140   5.258  11.793 -0.3085 -0.1098  1.0636
 3305TIP3   OH234109   0.610   3.089  10.708  0.4276  0.7531 -0.9134
 3305TIP3    H134110   0.667   3.058  10.779 -1.0475  2.3655  1.0994
 3305TIP3    H234111   0.573   3.009  10.672 -0.0549 -0.1068  1.2882
 3306TIP3   OH234112   5.905   3.416  11.119  0.1521 -0.3121 -0.3985
 3306TIP3    H134113   5.816   3.443  11.143  0.1878 -1.0800  0.6883
 3306TIP3    H234114   5.909   3.428  11.025 -1.3408 -0.9184 -0.5693
 3307TIP3   OH234115   2.387   2.029  10.529 -0.8910 -0.1166  0.5100
 3307TIP3    H134116   2.353   2.012  10.617  1.8729  0.1938  1.7646
 3307TIP3    H234117   2.355   2.117  10.508 -0.2491  0.5362  2.0207
 3308TIP3   OH234118   4.856   6.303  11.119  0.1118  0.4061 -0.8709
 3308TIP3    H134119   4.841   6.272  11.031 -1.7909 -0.4936 -0.2704
 3308TIP3    H234120   4.781   6.359  11.139  0.3646  0.3853  0.2617
 3309TIP3   OH234121   6.208   5.286  11.926 -0.5140 -0.6118 -0.1412
 3309TIP3    H134122   6.172   5.318  12.008  0.1903 -0.4782  0.1258
 3309TIP3    H234123   6.132   5.263  11.873 -0.9646 -0.9605  0.6509
 3310TIP3   OH234124   5.371   6.032  10.473 -0.3270 -0.0468  0.2159
 3310TIP3    H134125   5.334   6.120  10.470 -1.8069 -0.6174  0.6097
 3310TIP3    H234126   5.297   5.976  10.498  0.5376 -1.4207 -0.1882
 3311TIP3   OH234127   0.742   6.002  11.864 -0.2684  0.1380  0.1444
 3311TIP3    H134128   0.804   5.935  11.893  1.1348 -0.2757 -3.3493
 3311TIP3    H234129   0.790   6.084  11.872  0.1696  0.0082 -1.0019
 3312TIP3   OH234130   6.272   2.413  11.825  0.4142 -0.0036 -0.1380
 3312TIP3    H134131   6.275   2.509  11.819  0.4681 -0.0769 -1.4165
 3312TIP3    H234132   6.190   2.395  11.871  0.9425  0.6761  1.1393
 3313TIP3   OH234133   2.222   2.839  10.285 -0.1877  0.2581 -0.0720
 3313TIP3    H134134   2.172   2.919  10.272 -0.5885 -0.1722 -1.2317
 3313TIP3    H234135   2.252   2.813  10.198  0.2472 -0.6606  0.3274
 3314TIP3   OH234136   3.408   4.517  11.084 -0.2702  0.0297 -0.0104
 3314TIP3    H134137   3.388   4.611  11.080 -0.5724 -0.0639 -1.3277
 3314TIP3    H234138   3.436   4.495  10.995 -0.1024 -1.1152  0.3107
 3315TIP3   OH234139   4.255   5.347  12.377  0.3741  0.4071 -0.1500
 3315TIP3    H134140   4.199   5.375  12.304 -0.7714 -1.2212  0.0600
 3315TIP3    H234141   4.202   5.285  12.426  1.9877 -0.3486  0.7249
 3316TIP3   OH234142   2.896   5.716  10.744 -0.1299  0.1957  0.2290
 3316TIP3    H134143   2.868   5.790  10.691 -0.6723  0.2977  0.6492
 3316TIP3    H234144   2.987   5.700  10.718 -0.8698 -0.8225 -1.9379
 3317TIP3   OH234145   0.067   3.020  12.251 -0.3994 -0.1534  0.3908
 3317TIP3    H134146  -0.021   3.030  12.215  0.2096 -0.0227 -1.1337
 3317TIP3    H234147   0.054   3.017  12.346 -1.9074  1.2986  0.2734
 3318TIP3   OH234148   5.276   6.177  11.388  0.1268 -0.4100  0.1510
 3318TIP3    H134149   5.285   6.223  11.304  0.9532  1.2456  1.1055
 3318TIP3    H234150   5.276   6.246  11.454 -1.5517 -1.6081  1.4809
 3319TIP3   OH234151   2.340   2.185  11.211 -0.0030 -0.5255  0.1960
 3319TIP3    H134152   2.378   2.129  11.278  0.8784 -0.2062 -0.0189
 3319TIP3    H234153   2.321   2.268  11.255 -0.9977 -0.8673  0.4352
 3320TIP3   OH234154   1.830   5.840  12.200 -0.4052  0.0751 -0.2712
 3320TIP3    H134155   1.770   5.774  12.166 -3.0631  2.5724 -0.7719
 3320TIP3    H234156   1.811   5.843  12.294  0.6165 -0.6503 -0.0140
 3321TIP3   OH234157   4.018   6.666  11.777  0.0004  0.3019  0.0598
 3321TIP3    H134158   3.997   6.613  11.700 -2.2274 -1.5956  1.8098
 3321TIP3    H234159   3.977   6.751  11.760 -1.0366 -0.3060 -0.6222
 3322TIP3   OH234160   2.539   1.757  12.598 -0.1964  0.3004 -0.5010
 3322TIP3    H134161   2.524   1.770  12.504  0.9400  1.3561 -0.5563
 3322TIP3    H234162   2.630   1.730  12.604 -0.9310 -2.2813  0.1282
 3323TIP3   OH234163   3.018   4.884  12.789  0.4107  0.0115  0.4935
 3323TIP3    H134164   3.068   4.809  12.823 -0.6042 -1.0974 -0.3766
 3323TIP3    H234165   3.084   4.942  12.752  1.1813 -0.6565  0.7841
 3324TIP3   OH234166   2.239   2.430  12.746  0.0195 -0.0328 -0.2130
 3324TIP3    H134167   2.254   2.335  12.756 -3.2953 -0.9538 -2.6209
 3324TIP3    H234168   2.277   2.451  12.661  0.3821  0.7771  0.1382
 3325TIP3   OH234169   1.207   1.302  12.647 -1.0942  0.2751  0.1003
 3325TIP3    H134170   1.115   1.277  12.657 -1.5505  1.2834 -1.2546
 3325TIP3    H234171   1.251   1.223  12.615 -1.4692 -0.2307  0.8160
 3326TIP3   OH234172   1.359   1.238   9.782  0.2066 -0.4980 -0.6340
 3326TIP3    H134173   1.424   1.285   9.731 -0.4935  0.1165 -0.9799
 3326TIP3    H234174   1.278   1.287   9.769  0.5481  1.6043  3.5472
 3327TIP3   OH234175   0.191   2.356  12.654 -0.1583  0.0530 -0.1825
 3327TIP3    H134176   0.233   2.391  12.575  0.4320  0.8508  0.4581
 3327TIP3    H234177   0.113   2.311  12.622  0.8889 -1.0060 -1.3641
 3328TIP3   OH234178   2.503   1.138   9.774 -0.3350  0.0932  0.5496
 3328TIP3    H134179   2.561   1.192   9.722  1.7329 -1.0244  1.5802
 3328TIP3    H234180   2.429   1.119   9.716  0.4100  1.3775 -0.8773
 3329TIP3   OH234181   6.353   0.656  10.954 -0.3227  0.2674  0.0096
 3329TIP3    H134182   6.400   0.610  11.023  0.3355 -1.7857 -1.7090
 3329TIP3    H234183   6.293   0.591  10.919 -0.2927  1.1068 -1.6734
 3330TIP3   OH234184   4.297   3.372  10.716 -0.6663 -0.1374  0.5845
 3330TIP3    H134185   4.235   3.400  10.648  0.9855  0.1743 -0.8592
 3330TIP3    H234186   4.300   3.445  10.777  1.0280  1.5324 -1.3414
 3331TIP3   OH234187   1.316   2.861  12.855 -0.7169 -0.3126  0.3806
 3331TIP3    H134188   1.264   2.932  12.891  0.8257  1.7019 -1.1296
 3331TIP3    H234189   1.324   2.798  12.926 -4.5749 -0.4581  0.8989
 3332TIP3   OH234190   2.591   1.145  13.348  0.3108 -0.2412 -0.4486
 3332TIP3    H134191   2.575   1.058  13.386  0.4220 -0.2365 -0.3911
 3332TIP3    H234192   2.663   1.131  13.287 -0.4737 -0.4411 -1.3599
 3333TIP3   OH234193   4.884   2.773  12.920  0.1891 -0.5392 -0.1741
 3333TIP3    H134194   4.885   2.861  12.882  1.3157 -0.8591 -0.9605
 3333TIP3    H234195   4.948   2.777  12.991  0.7039 -0.8862 -0.6170
 3334TIP3   OH234196   0.122   5.629  11.351 -0.3543 -0.1938 -0.1403
 3334TIP3    H134197   0.170   5.708  11.325  1.2571 -1.2227 -0.4663
 3334TIP3    H234198   0.067   5.608  11.276 -0.3934  0.3315 -0.2605
 3335TIP3   OH234199   0.279   0.911  11.776  0.0172  0.0630  0.2429
 3335TIP3    H134200   0.302   0.839  11.835 -1.1815  1.3709  2.4789
 3335TIP3    H234201   0.223   0.871  11.710 -0.8880 -1.0318  1.6103
 3336TIP3   OH234202   4.319   3.514  10.356 -0.5031  0.1964 -0.3549
 3336TIP3    H134203   4.401   3.520  10.404 -0.5896 -0.3889 -0.1189
 3336TIP3    H234204   4.257   3.479  10.420 -0.6909 -0.3095 -0.8094
 3337TIP3   OH234205   3.212   2.793  11.738 -0.1220  0.1915 -0.4422
 3337TIP3    H134206   3.292   2.749  11.710  0.7063  0.4309  1.3687
 3337TIP3    H234207   3.179   2.739  11.810 -1.7941 -0.0752 -1.3627
 3338TIP3   OH234208   0.383   5.044  10.655  0.2804  0.0441 -0.1360
 3338TIP3    H134209   0.394   4.985  10.581  1.1398  0.1545 -0.1023
 3338TIP3    H234210   0.366   4.986  10.729  1.3664 -0.1954 -0.0553
 3339TIP3   OH234211   5.620   1.928  12.141  0.7897  0.2047  0.0067
 3339TIP3    H134212   5.676   1.962  12.211 -1.4219  1.4613  1.2710
 3339TIP3    H234213   5.592   1.842  12.172  0.2847  0.5088  0.4028
 3340TIP3   OH234214   6.082   3.197  11.047 -0.2574  0.2128 -0.0889
 3340TIP3    H134215   6.055   3.269  11.105 -0.5467  0.1075 -0.0884
 3340TIP3    H234216   6.153   3.233  10.995  0.2544  0.1947  0.5846
 3341TIP3   OH234217   3.789   6.467  10.029 -0.9839 -0.3394 -0.1958
 3341TIP3    H134218   3.881   6.494  10.037 -1.4346  1.3749 -0.5085
 3341TIP3    H234219   3.794   6.376   9.998  0.5977 -0.3771  0.0593
 3342TIP3   OH234220   1.140   5.608  12.707 -0.3698  0.1833  0.1223
 3342TIP3    H134221   1.165   5.683  12.652 -2.5761  0.1718 -1.0286
 3342TIP3    H234222   1.155   5.532  12.652 -0.0955 -0.0579  0.5288
 3343TIP3   OH234223   1.666   0.394   9.574  0.1538 -0.2037 -0.2468
 3343TIP3    H134224   1.759   0.388   9.595  0.0524 -0.0768  0.2622
 3343TIP3    H234225   1.640   0.481   9.603 -0.6718 -1.1201  1.9740
 3344TIP3   OH234226   0.909   0.185  11.450  0.3253 -0.5514 -1.3972
 3344TIP3    H134227   0.847   0.139  11.393 -1.3111 -0.4250  0.1702
 3344TIP3    H234228   0.986   0.129  11.452  0.1394 -0.9439 -3.0709
 3345TIP3   OH234229   1.232   3.914  11.306  0.0162  0.3622 -0.1287
 3345TIP3    H134230   1.232   3.835  11.251  0.8917  0.2357  0.0331
 3345TIP3    H234231   1.323   3.924  11.332  0.1147  2.0243 -0.9864
 3346TIP3   OH234232   2.295   0.538  11.839  0.2420 -0.0019 -0.0761
 3346TIP3    H134233   2.284   0.445  11.861  0.3856  0.7752  4.1596
 3346TIP3    H234234   2.373   0.565  11.887 -0.9393  2.7152  0.5161
 3347TIP3   OH234235   1.568   3.413   9.554 -0.6455 -0.2641  0.4372
 3347TIP3    H134236   1.500   3.416   9.488  0.1655  0.2446 -0.4058
 3347TIP3    H234237   1.649   3.398   9.505  0.1989  1.6831  1.1121
 3348TIP3   OH234238   3.704   2.238  12.297  0.1641 -0.0181 -0.1728
 3348TIP3    H134239   3.719   2.313  12.240 -0.8671  0.8135  0.6065
 3348TIP3    H234240   3.791   2.204  12.316  0.9642  2.7998  1.8076
 3349TIP3   OH234241   3.504   5.297  12.398 -0.5091  0.1718  0.0292
 3349TIP3    H134242   3.487   5.272  12.308 -1.3255  0.6450  0.0440
 3349TIP3    H234243   3.433   5.258  12.448 -0.1756  0.0830  0.4475
 3350TIP3   OH234244   4.487   1.400  12.090  0.0360 -0.0496  0.0390
 3350TIP3    H134245   4.476   1.330  12.026 -2.1882  1.0813 -0.9277
 3350TIP3    H234246   4.430   1.376  12.163 -1.1754  0.9359 -0.5323
 3351TIP3   OH234247   6.312   6.144  10.717  0.1644 -0.1014 -0.4708
 3351TIP3    H134248   6.232   6.187  10.688  1.0202  0.8527 -1.5261
 3351TIP3    H234249   6.284   6.082  10.784 -1.3324  0.8911 -0.1394
 3352TIP3   OH234250   1.469   3.421  12.095  0.1404  0.1926  0.3976
 3352TIP3    H134251   1.462   3.510  12.061  1.5252 -0.0659 -0.6141
 3352TIP3    H234252   1.563   3.406  12.105 -0.0367 -1.4330 -0.1805
 3353TIP3   OH234253   2.954   0.044  13.191  0.7073  0.5356  0.2545
 3353TIP3    H134254   3.012  -0.020  13.231  0.2313 -0.0560  0.0096
 3353TIP3    H234255   2.930   0.006  13.107  0.7825  1.2433 -0.0921
 3354TIP3   OH234256   2.762   1.875  12.406 -0.2968 -0.2031  0.3121
 3354TIP3    H134257   2.698   1.922  12.460 -0.5438 -1.5723  1.2409
 3354TIP3    H234258   2.825   1.943  12.380 -1.7033  1.0236 -0.0190
 3355TIP3   OH234259   1.336   1.560  12.799  0.0516 -0.2839  0.0196
 3355TIP3    H134260   1.393   1.486  12.819 -1.4763 -1.5365 -0.0948
 3355TIP3    H234261   1.311   1.547  12.708  0.1402  0.6490 -0.1503
 3356TIP3   OH234262   2.861   5.498   9.403 -0.5547 -0.0687  0.0992
 3356TIP3    H134263   2.839   5.586   9.370 -0.1939 -0.0351 -0.0539
 3356TIP3    H234264   2.941   5.511   9.453 -0.7059 -0.2503  0.3881
 3357TIP3   OH234265   5.733   6.377  11.956 -0.3292  0.1390 -0.2568
 3357TIP3    H134266   5.700   6.404  12.042  0.7785  1.7492 -0.2825
 3357TIP3    H234267   5.826   6.363  11.969 -0.4197 -1.1643 -0.8719
 3358TIP3   OH234268   6.833   3.368  12.052 -0.0880  0.5895 -0.0071
 3358TIP3    H134269   6.797   3.441  12.103  1.0945  0.0526  1.6894
 3358TIP3    H234270   6.758   3.310  12.037 -0.3764  0.4720  1.6776
 3359TIP3   OH234271   1.406   3.678  11.650 -0.3226 -0.0659  0.5024
 3359TIP3    H134272   1.458   3.742  11.698  1.3038 -1.0639  0.1442
 3359TIP3    H234273   1.462   3.653  11.576 -0.9158 -1.8943  0.6362
 3360TIP3   OH234274   0.020   1.351  10.829  0.0096 -0.5049 -0.9243
 3360TIP3    H134275  -0.060   1.386  10.867 -0.2898 -1.0403 -1.0502
 3360TIP3    H234276  -0.010   1.288  10.764  0.4943  0.5733 -2.2464
 3361TIP3   OH234277   4.824   0.190  13.031  0.0114 -0.0021  0.0864
 3361TIP3    H134278   4.728   0.184  13.034 -0.0359  0.8047  0.6972
 3361TIP3    H234279   4.853   0.103  13.005 -0.8386 -0.6950  1.3269
 3362TIP3   OH234280   1.887   6.074   9.310  0.5053  0.3953 -0.3117
 3362TIP3    H134281   1.845   6.159   9.299  0.4049  0.6228  1.5670
 3362TIP3    H234282   1.886   6.035   9.222 -1.4894  1.3768 -0.7787
 3363TIP3   OH234283   5.437   1.406  11.590  0.4364  0.2437  0.4592
 3363TIP3    H134284   5.441   1.312  11.573  0.8684  0.4036 -0.3330
 3363TIP3    H234285   5.497   1.445  11.527  1.4880  0.9213  1.8179
 3364TIP3   OH234286   5.714   5.404  13.013 -0.4341 -0.1432  0.4756
 3364TIP3    H134287   5.667   5.420  12.931 -0.2986  1.0797  0.6275
 3364TIP3    H234288   5.718   5.489  13.056  0.2143 -0.6136  1.3781
 3365TIP3   OH234289   3.530   2.909  12.409  0.0043 -0.4289 -0.4025
 3365TIP3    H134290   3.467   2.926  12.478 -0.1163 -0.3581 -0.5305
 3365TIP3    H234291   3.477   2.879  12.334  0.0047  0.7712 -0.9032
 3366TIP3   OH234292   3.452   1.455  12.808  0.0361 -0.4792 -0.3313
 3366TIP3    H134293   3.474   1.542  12.843 -0.0288 -1.3367  2.0522
 3366TIP3    H234294   3.528   1.430  12.756 -0.2080  1.2338 -1.5878
 3367TIP3   OH234295   1.657   5.375  11.724 -0.1094 -0.0538  0.6130
 3367TIP3    H134296   1.601   5.334  11.658 -1.8902  1.5315  1.0550
 3367TIP3    H234297   1.690   5.302  11.776 -0.1125 -1.1811 -0.9107
 3368TIP3   OH234298   3.518   1.034  11.910  0.0131 -0.3526  0.0262
 3368TIP3    H134299   3.538   0.941  11.916  0.2483 -0.3069 -0.0661
 3368TIP3    H234300   3.596   1.078  11.944  0.3290 -0.1565 -0.9360
 3369TIP3   OH234301   1.181   4.827  11.886 -0.1904  0.0107 -0.0384
 3369TIP3    H134302   1.142   4.749  11.846 -1.0532  0.6993 -0.5846
 3369TIP3    H234303   1.146   4.900  11.835  1.0204  0.7298  0.1324
 3370TIP3   OH234304   5.402   2.350  13.333 -0.0936 -0.4193  0.4582
 3370TIP3    H134305   5.471   2.361  13.268  0.6755  0.1512  1.3551
 3370TIP3    H234306   5.378   2.258  13.328  1.3939 -0.8369  0.7844
 3371TIP3   OH234307   3.150   3.024  12.476  0.2945  0.5153  0.0267
 3371TIP3    H134308   3.222   3.088  12.478  1.0200 -0.2730  1.9002
 3371TIP3    H234309   3.071   3.077  12.480  0.8185  1.3679 -0.6019
 3372TIP3   OH234310   3.912   3.512  10.680  0.3302 -0.2709 -0.1005
 3372TIP3    H134311   3.884   3.540  10.767  0.0590  0.0394 -0.2851
 3372TIP3    H234312   3.831   3.509  10.629  0.5649  0.1149 -0.4958
 3373TIP3   OH234313   5.794   1.495  10.727  0.3146  0.2499  0.2075
 3373TIP3    H134314   5.788   1.443  10.646 -1.1033 -0.2250  0.5753
 3373TIP3    H234315   5.876   1.543  10.719 -0.3036  1.0740 -2.0366
 3374TIP3   OH234316   5.642   6.483  12.170 -0.4652 -0.2586 -0.2891
 3374TIP3    H134317   5.681   6.464  12.255 -0.1006 -0.1926 -0.4401
 3374TIP3    H234318   5.581   6.555  12.187 -0.5917 -0.4268 -0.0328
 3375TIP3   OH234319   4.455   6.813  12.375 -0.0135  0.9630 -0.0508
 3375TIP3    H134320   4.366   6.848  12.370 -0.3138  1.1327  3.6245
 3375TIP3    H234321   4.509   6.878  12.329 -1.7364  0.7865 -2.4478
 3376TIP3   OH234322   4.492   4.292  10.554 -0.0601  0.0022  0.4081
 3376TIP3    H134323   4.531   4.223  10.499  0.1326 -1.3035  2.1124
 3376TIP3    H234324   4.425   4.248  10.605  0.1283  1.0536  1.6225
 3377TIP3   OH234325   1.215   1.721  12.153 -0.2574 -0.0493  0.6003
 3377TIP3    H134326   1.247   1.646  12.104 -1.4258  0.6264 -1.2780
 3377TIP3    H234327   1.135   1.689  12.196 -0.0919 -0.2050  0.7956
 3378TIP3   OH234328   1.658   4.471  11.558 -0.6236  0.1594  0.7696
 3378TIP3    H134329   1.664   4.379  11.581 -0.9051  0.1845  0.9495
 3378TIP3    H234330   1.747   4.505  11.567 -0.3740 -0.2600 -0.0069
 3379TIP3   OH234331   4.895   4.312  11.285  0.4486 -0.2296 -0.1651
 3379TIP3    H134332   4.825   4.284  11.225  0.6370 -1.1284  0.0254
 3379TIP3    H234333   4.975   4.274  11.248  0.7922  0.5167 -0.1982
 3380TIP3   OH234334   3.991   3.607  11.532 -0.0336  0.1490 -0.7908
 3380TIP3    H134335   4.075   3.641  11.499 -0.0586 -0.3323 -1.3667
 3380TIP3    H234336   3.947   3.572  11.454  0.2435 -1.7373 -0.1591
 3381TIP3   OH234337   3.724   5.073  12.326  0.1378 -0.1444  0.0267
 3381TIP3    H134338   3.810   5.031  12.326  0.8565  1.2946 -0.2820
 3381TIP3    H234339   3.732   5.145  12.264 -0.6360  1.2969  1.5461
 3382TIP3   OH234340   6.234   2.216  12.902  0.3523 -0.2526  0.4627
 3382TIP3    H134341   6.221   2.122  12.912 -1.1255 -0.2607 -1.0587
 3382TIP3    H234342   6.296   2.224  12.829 -1.3306 -0.0718 -1.0108
 3383TIP3   OH234343   2.762   4.604  12.896 -0.1138 -0.1687 -0.1224
 3383TIP3    H134344   2.851   4.602  12.861 -0.6384  2.3081 -1.8804
 3383TIP3    H234345   2.726   4.518  12.874  1.8855 -1.3484  0.9127
 3384TIP3   OH234346   3.882   4.017  10.893  0.1983 -0.2701  0.6582
 3384TIP3    H134347   3.843   3.941  10.935 -2.9690  0.7061 -0.2800
 3384TIP3    H234348   3.856   4.092  10.948  1.9543  0.3489  0.7254
 3385TIP3   OH234349   3.288   5.884  11.476 -0.0346 -0.1228  0.0291
 3385TIP3    H134350   3.282   5.864  11.383  0.8822  1.1289 -0.3301
 3385TIP3    H234351   3.224   5.953  11.490  1.1205  1.0255 -0.1127
 3386TIP3   OH234352   0.653   0.413  12.823  0.0466  0.3290  0.1390
 3386TIP3    H134353   0.562   0.412  12.852  0.2357 -0.4659  0.7304
 3386TIP3    H234354   0.703   0.394  12.902  0.5765 -2.0541 -0.6998
 3387TIP3   OH234355   6.560   1.474  12.485  0.1332  0.1182  0.0038
 3387TIP3    H134356   6.630   1.523  12.442  1.7261 -1.0317  1.1799
 3387TIP3    H234357   6.550   1.515  12.570  0.9300 -1.0339  0.6891
 3388TIP3   OH234358   4.492   5.637  13.106 -0.2603  0.0993 -0.2145
 3388TIP3    H134359   4.497   5.569  13.174 -0.1848 -1.2968 -1.5537
 3388TIP3    H234360   4.401   5.667  13.109 -0.0299  0.7345  1.1047
 3389TIP3   OH234361   6.733   6.077  10.770 -0.3675  0.0648  0.7383
 3389TIP3    H134362   6.685   5.997  10.793  0.4447 -0.8990 -0.7293
 3389TIP3    H234363   6.678   6.120  10.705  0.3235 -0.6204 -0.3343
 3390TIP3   OH234364   5.941   2.593  10.567 -0.3545  0.1926  0.1302
 3390TIP3    H134365   5.910   2.614  10.479 -0.8951  0.4050  0.3611
 3390TIP3    H234366   5.866   2.614  10.624  0.5703  1.7099  0.8278
 3391TIP3   OH234367   6.576   4.002  10.013 -0.0381  0.4104  0.3664
 3391TIP3    H134368   6.483   4.011  10.032 -0.2395 -1.9177  0.7717
 3391TIP3    H234369   6.610   4.092  10.017 -1.9402  1.1397  1.8140
 3392TIP3   OH234370   1.885   5.069  10.694 -0.0136  0.7750  0.1858
 3392TIP3    H134371   1.872   5.076  10.788 -3.0964 -0.1759 -0.0479
 3392TIP3    H234372   1.810   5.115  10.656 -0.7069 -1.6893 -1.6943
 3393TIP3   OH234373   4.530   3.683  12.133 -0.4979  0.7386 -0.4245
 3393TIP3    H134374   4.461   3.632  12.174 -0.6483  1.0018 -0.3463
 3393TIP3    H234375   4.611   3.648  12.169 -0.6724  2.2135  1.5934
 3394TIP3   OH234376   0.341   1.517  10.710  0.0236 -0.1076  0.6296
 3394TIP3    H134377   0.368   1.431  10.678 -1.2372  0.0011 -0.8769
 3394TIP3    H234378   0.416   1.574  10.694 -0.7682  0.1385 -3.1909
 3395TIP3   OH234379   2.313   2.727  11.837  0.2729  0.2587 -0.0951
 3395TIP3    H134380   2.320   2.807  11.784 -2.1888  0.9491  0.5213
 3395TIP3    H234381   2.282   2.758  11.922 -2.4912 -1.4747 -0.3680
 3396TIP3   OH234382   3.761   1.153  11.955 -0.9492  0.1068  0.0193
 3396TIP3    H134383   3.849   1.115  11.953 -1.1367 -0.3070 -1.7920
 3396TIP3    H234384   3.774   1.243  11.985  0.6163  1.2140 -3.4652
 3397TIP3   OH234385   1.276   3.094   9.159 -0.8784  0.8729  0.2730
 3397TIP3    H134386   1.185   3.123   9.147 -1.0073  0.4160  0.1056
 3397TIP3    H234387   1.318   3.165   9.207 -1.6656  0.5407  1.5171
 3398TIP3   OH234388   5.151   2.236  12.819 -0.1914 -0.0284 -0.1201
 3398TIP3    H134389   5.232   2.216  12.868  0.4612 -1.0769 -1.5416
 3398TIP3    H234390   5.133   2.328  12.839  0.5727 -0.1625  1.3291
 3399TIP3   OH234391   0.318   5.778  11.160 -0.7609 -0.0483  0.0176
 3399TIP3    H134392   0.282   5.859  11.124 -0.6921 -0.0536 -0.0610
 3399TIP3    H234393   0.404   5.803  11.194  0.1871 -0.5284 -1.8891
 3400TIP3   OH234394   0.816   0.844  10.438 -0.3895 -0.1684  0.3246
 3400TIP3    H134395   0.780   0.897  10.509  0.1713  1.7215 -0.7492
 3400TIP3    H234396   0.879   0.901  10.395  0.8641 -2.0025 -0.3956
 3401TIP3   OH234397   6.785   1.250  12.662  0.4122  0.0702 -0.0792
 3401TIP3    H134398   6.867   1.294  12.683 -0.7570  1.9072  0.8479
 3401TIP3    H234399   6.812   1.169  12.619  2.6996  0.5434  0.3453
 3402TIP3   OH234400   4.410   0.328  10.694 -0.6218 -0.4298  0.1944
 3402TIP3    H134401   4.432   0.400  10.634 -1.7924 -1.7589 -1.9446
 3402TIP3    H234402   4.495   0.297  10.725 -0.0092  0.7269 -0.2287
 3403TIP3   OH234403   6.752   2.290  11.064 -0.0039 -0.2021  0.3553
 3403TIP3    H134404   6.838   2.259  11.036 -0.0723  0.4944 -0.6676
 3403TIP3    H234405   6.696   2.213  11.061  0.9730 -1.1181  2.8994
 3404TIP3   OH234406   2.914   6.069   9.790 -0.4300 -0.2778  0.4984
 3404TIP3    H134407   2.851   6.121   9.840 -0.6449 -1.6548  1.7436
 3404TIP3    H234408   2.983   6.048   9.852 -0.5010 -1.7063  0.1294
 3405TIP3   OH234409   6.573   5.244  10.532 -0.0450  0.4246  0.1753
 3405TIP3    H134410   6.615   5.240  10.446 -0.1604 -0.3799  0.1502
 3405TIP3    H234411   6.502   5.307  10.521 -1.2612 -1.0587 -0.8603
 3406TIP3   OH234412   3.332   4.899  13.371 -0.2262 -0.4593  0.4006
 3406TIP3    H134413   3.256   4.938  13.328 -0.8594 -1.3544  0.6912
 3406TIP3    H234414   3.355   4.963  13.439 -0.4747 -0.0033  0.0666
 3407TIP3   OH234415   4.625   2.309  12.349  0.1061 -0.0189 -0.0124
 3407TIP3    H134416   4.543   2.278  12.386  0.3033 -0.4835  0.0406
 3407TIP3    H234417   4.646   2.387  12.400 -0.8271  0.7022 -0.7055
 3408TIP3   OH234418   2.195   4.139  10.920  0.2125 -0.2282  0.0818
 3408TIP3    H134419   2.279   4.113  10.883  1.5673  2.6682  0.8571
 3408TIP3    H234420   2.202   4.113  11.013  0.1461 -0.1812  0.0991
 3409TIP3   OH234421   3.875   2.718  10.160  0.4090  0.4772 -0.1662
 3409TIP3    H134422   3.849   2.703  10.069  0.5982 -0.4059 -0.0842
 3409TIP3    H234423   3.936   2.647  10.180  2.0207  1.8617  0.0099
 3410TIP3   OH234424   6.103   4.943  12.826  0.0999  0.6227 -0.2984
 3410TIP3    H134425   6.018   4.953  12.868  0.2271  0.1582  0.0807
 3410TIP3    H234426   6.135   5.033  12.816 -1.2991  0.9491 -2.2906
 3411TIP3   OH234427   2.876   2.772  10.534 -0.1986  0.3798  0.3461
 3411TIP3    H134428   2.804   2.836  10.530 -0.0021  0.6199  0.7039
 3411TIP3    H234429   2.832   2.688  10.522 -0.7593  0.3812  2.1698
 3412TIP3   OH234430   0.289   4.041  11.373  0.3958  0.2632 -0.1260
 3412TIP3    H134431   0.373   3.998  11.386  0.8570  0.1997 -2.7270
 3412TIP3    H234432   0.297   4.084  11.288 -1.2951  2.5498  0.7725
 3413TIP3   OH234433   4.999   0.146  11.885  0.0512 -0.1073  0.0219
 3413TIP3    H134434   4.980   0.119  11.974  0.1730  1.9124  0.7080
 3413TIP3    H234435   4.917   0.132  11.838 -0.0726 -0.9865  0.4753
 3414TIP3   OH234436   1.272   6.766   9.729  0.1414  0.0668 -0.1380
 3414TIP3    H134437   1.355   6.799   9.762 -0.4949 -0.4203  2.0829
 3414TIP3    H234438   1.234   6.841   9.682  0.8271  1.0213  0.7756
 3415TIP3   OH234439   4.313   4.872  13.009  0.1550 -0.2721  0.5084
 3415TIP3    H134440   4.359   4.800  13.054 -0.3718 -0.2045  1.1685
 3415TIP3    H234441   4.378   4.942  13.006  1.2693 -1.3073 -1.6732
 3416TIP3   OH234442   1.146   3.422  11.176  0.3159 -0.8152  0.1477
 3416TIP3    H134443   1.058   3.416  11.214  0.6897 -0.4336  1.0954
 3416TIP3    H234444   1.133   3.399  11.084 -0.7187 -1.1114  0.3485
 3417TIP3   OH234445   3.117   4.707  10.868  0.2283 -0.2784  0.0715
 3417TIP3    H134446   3.121   4.612  10.878  0.6322 -0.1192  1.7042
 3417TIP3    H234447   3.092   4.740  10.955 -2.1624  0.9955 -1.0259
 3418TIP3   OH234448   6.770   3.203  11.166  0.0967 -0.0102  0.7917
 3418TIP3    H134449   6.824   3.227  11.241  2.2255 -0.6179 -0.4616
 3418TIP3    H234450   6.820   3.234  11.090 -1.9288  0.4964 -0.4038
 3419TIP3   OH234451   1.123   0.083  12.126 -0.4072 -0.3780 -0.3702
 3419TIP3    H134452   1.213   0.071  12.157 -0.0859 -0.1396 -1.1816
 3419TIP3    H234453   1.114   0.178  12.116 -1.3399 -0.2388  1.3702
 3420TIP3   OH234454   4.798   4.658  11.783  0.2447 -0.2367  0.4339
 3420TIP3    H134455   4.867   4.683  11.721 -0.7744  1.3529 -0.1128
 3420TIP3    H234456   4.767   4.741  11.820 -2.0608 -0.7999 -0.0804
 3421TIP3   OH234457   4.904   5.230  10.926 -0.4708 -0.2200 -0.0480
 3421TIP3    H134458   4.985   5.193  10.891  0.5061  1.9612 -0.2571
 3421TIP3    H234459   4.912   5.221  11.021 -0.7942 -1.5267 -0.1235
 3422TIP3   OH234460   0.460   0.962  13.311 -0.0923 -0.5887  0.2235
 3422TIP3    H134461   0.392   1.027  13.295 -0.4928  0.0629  3.6906
 3422TIP3    H234462   0.428   0.883  13.268 -2.2503  0.1242  0.3836
 3423TIP3   OH234463   5.496   4.190  11.498  0.2506  0.3666  0.0896
 3423TIP3    H134464   5.531   4.213  11.584  0.3300 -0.9278  0.4273
 3423TIP3    H234465   5.566   4.210  11.437  0.0877  1.5829  0.2683
 3424TIP3   OH234466   2.601   4.578  11.923 -0.3908  0.0225 -0.2063
 3424TIP3    H134467   2.671   4.636  11.951  0.7685 -1.0292 -0.8125
 3424TIP3    H234468   2.576   4.531  12.003  0.3461 -0.3564 -0.1940
 3425TIP3   OH234469   3.577   6.091  11.444  0.2644  0.2747  0.2379
 3425TIP3    H134470   3.586   6.015  11.387  0.4223  0.5013 -0.0444
 3425TIP3    H234471   3.631   6.159  11.402  0.4773  0.4060  0.7189
 3426TIP3   OH234472   2.286   6.421  12.022 -0.0553  0.2399  0.1315
 3426TIP3    H134473   2.217   6.366  12.058  0.4769  0.7869  2.1440
 3426TIP3    H234474   2.353   6.359  11.992 -0.3177 -0.2541  0.5520
 3427TIP3   OH234475   4.103   3.569  11.132 -0.9301 -0.3357 -0.8488
 3427TIP3    H134476   4.191   3.546  11.101  0.7160  1.9100  1.7807
 3427TIP3    H234477   4.104   3.664  11.140 -2.6194 -0.4488  1.9512
 3428TIP3   OH234478   5.141   0.096  10.620  0.3570 -0.3249 -0.0442
 3428TIP3    H134479   5.123   0.179  10.664  0.9458  0.0518 -0.4893
 3428TIP3    H234480   5.056   0.053  10.613 -0.4407  1.3906 -2.1293
 3429TIP3   OH234481   4.385   1.844   9.537  0.0404  0.2588 -0.6479
 3429TIP3    H134482   4.299   1.886   9.544 -0.0031  0.1908 -0.7634
 3429TIP3    H234483   4.395   1.828   9.443  0.3960  0.7254 -0.6924
 3430TIP3   OH234484   5.573   4.351  11.163  0.0807  0.4070 -0.2793
 3430TIP3    H134485   5.536   4.365  11.075 -0.7946 -1.0725 -0.1848
 3430TIP3    H234486   5.522   4.407  11.220 -1.0307 -0.4520 -0.3884
 3431TIP3   OH234487   4.106   1.933  10.697 -0.2320  0.0272  0.3212
 3431TIP3    H134488   4.108   1.916  10.791  2.0773  0.6708  0.4471
 3431TIP3    H234489   4.062   1.857  10.660 -1.4710 -0.0984  1.9283
 3432TIP3   OH234490   3.951   0.732  11.950 -0.3440 -0.1325  0.0597
 3432TIP3    H134491   3.927   0.701  12.038 -0.4519 -0.1230  0.0341
 3432TIP3    H234492   3.975   0.652  11.903  2.7046  0.1099  0.9849
 3433TIP3   OH234493   2.147   3.577  12.879 -0.5100  0.5201 -0.3676
 3433TIP3    H134494   2.224   3.534  12.841  0.8315  1.5426  1.0841
 3433TIP3    H234495   2.077   3.512  12.871  0.0115  0.1851 -3.2579
 3434TIP3   OH234496   5.584   3.171  10.938  0.1363 -0.3384 -0.0310
 3434TIP3    H134497   5.497   3.197  10.910  0.8738  0.8552 -1.3573
 3434TIP3    H234498   5.643   3.235  10.896  1.6635 -1.2835  0.5847
 3435TIP3   OH234499   5.931   1.195  11.032 -0.0926 -0.4171 -0.3629
 3435TIP3    H134500   5.904   1.143  10.956 -0.1244 -0.9813  0.0245
 3435TIP3    H234501   5.967   1.275  10.995 -1.5290 -0.0030 -0.9158
 3436TIP3   OH234502   2.654   5.845  10.301  0.2608 -0.0185 -0.2449
 3436TIP3    H134503   2.699   5.765  10.329 -0.3506 -0.0055  0.8178
 3436TIP3    H234504   2.722   5.895  10.254  1.5160  0.2038  1.6963
 3437TIP3   OH234505   5.363   5.925  13.175 -0.0044 -0.2383 -0.3170
 3437TIP3    H134506   5.444   5.971  13.197  0.5213 -0.7399 -1.1384
 3437TIP3    H234507   5.294   5.988  13.196  0.6075  0.3057  0.1236
 3438TIP3   OH234508   0.981   1.663  12.554 -0.0678  0.2000 -0.2458
 3438TIP3    H134509   0.996   1.634  12.464 -1.4894  0.2899 -0.5250
 3438TIP3    H234510   0.978   1.759  12.547 -0.4126  0.1953 -0.1300
 3439TIP3   OH234511   6.061   1.807  10.320 -0.3059 -0.1158  0.1552
 3439TIP3    H134512   6.011   1.732  10.287 -0.6826  0.2779 -0.1820
 3439TIP3    H234513   6.078   1.860  10.242 -0.6028  0.4755  0.4847
 3440TIP3   OH234514   6.087   0.263  13.007  0.2069  0.0767  0.4296
 3440TIP3    H134515   6.014   0.242  12.949 -0.1736  1.5463  0.3330
 3440TIP3    H234516   6.159   0.209  12.976  0.2753  1.4334 -2.0191
 3441TIP3   OH234517   3.147   6.038  12.030  0.1211 -0.3860  0.4087
 3441TIP3    H134518   3.158   6.106  12.096 -2.3366  1.6924 -1.1315
 3441TIP3    H234519   3.172   5.957  12.074 -0.3460  1.0281  3.5206
 3442TIP3   OH234520   0.185   6.789  12.985  0.5989 -0.5573  0.4636
 3442TIP3    H134521   0.100   6.833  12.984  1.6984  1.7411  1.4925
 3442TIP3    H234522   0.217   6.801  13.074  1.7266 -2.0445  0.3040
 3443TIP3   OH234523   2.861   5.603  10.387 -0.3842 -0.3477 -0.3360
 3443TIP3    H134524   2.908   5.685  10.403 -0.6760 -0.2688  0.1547
 3443TIP3    H234525   2.930   5.537  10.382 -0.0901  0.0211 -1.4615
 3444TIP3   OH234526   4.460   2.141  13.273 -0.6246 -0.3867 -0.0005
 3444TIP3    H134527   4.373   2.104  13.257 -1.1739  0.1983  1.4689
 3444TIP3    H234528   4.445   2.236  13.278 -0.1432 -0.3734  1.5904
 3445TIP3   OH234529   1.901   6.370  12.279  0.3518  0.1401  0.3538
 3445TIP3    H134530   1.982   6.349  12.233 -0.7164 -2.8933 -0.3304
 3445TIP3    H234531   1.868   6.448  12.235  0.3903 -1.4943 -2.7891
 3446TIP3   OH234532   1.236   4.251  10.132  0.3133  0.4356  0.4602
 3446TIP3    H134533   1.195   4.214  10.054  0.7303 -0.1546  0.5131
 3446TIP3    H234534   1.238   4.345  10.116  3.6975  0.1575 -1.9303
 3447TIP3   OH234535   4.084   0.512  13.040  0.3465 -0.5456 -0.0180
 3447TIP3    H134536   3.992   0.512  13.065  0.2035 -1.7770 -0.4803
 3447TIP3    H234537   4.109   0.419  13.039  1.3640 -0.2840 -0.7068
 3448TIP3   OH234538   0.086   4.877  11.471  0.1152  0.3121 -0.6475
 3448TIP3    H134539   0.040   4.796  11.447  0.3685 -0.0453  0.0214
 3448TIP3    H234540   0.021   4.929  11.517  0.2354  0.0189 -0.1358
 3449TIP3   OH234541   5.481   4.582  10.041 -0.4022  0.2492 -0.2046
 3449TIP3    H134542   5.475   4.500  10.090  0.7409  0.6903  0.6848
 3449TIP3    H234543   5.518   4.645  10.102 -1.7683  1.6053 -0.6971
 3450TIP3   OH234544   0.677   6.340  12.926  0.4173 -0.4150  0.0677
 3450TIP3    H134545   0.600   6.347  12.982  0.9312 -0.6411  0.8306
 3450TIP3    H234546   0.682   6.425  12.881  0.2222 -0.0748  0.6759
 3451TIP3   OH234547   1.391   1.058  11.216  0.2913  0.0926 -0.1888
 3451TIP3    H134548   1.430   1.001  11.283 -1.7551  0.3227  1.3077
 3451TIP3    H234549   1.443   1.139  11.221  1.0782 -0.4180  0.0946
 3452TIP3   OH234550   2.284   0.081  10.333 -0.6330  0.1566  0.4843
 3452TIP3    H134551   2.214   0.017  10.330 -0.6602  0.2120 -0.2842
 3452TIP3    H234552   2.316   0.078  10.423 -1.1672 -0.3517  0.6601
 3453TIP3   OH234553   4.847   6.045  11.238  0.5075 -0.0070 -0.4247
 3453TIP3    H134554   4.853   6.097  11.158  2.4844 -2.1617 -1.7858
 3453TIP3    H234555   4.929   6.062  11.284  0.4738 -0.6726 -0.1025
 3454TIP3   OH234556   2.937   5.342  11.665  0.2071  0.0522  0.0404
 3454TIP3    H134557   2.857   5.370  11.622  0.2835 -0.6067 -0.5555
 3454TIP3    H234558   2.959   5.259  11.623  1.1034  0.1342  0.3224
 3455TIP3   OH234559   5.972   4.582  11.874  0.0420  0.3014 -0.1282
 3455TIP3    H134560   5.903   4.602  11.937  0.3591  0.4678  0.1698
 3455TIP3    H234561   5.966   4.653  11.809  0.6990  0.9893  0.5401
 3456TIP3   OH234562   0.244   1.006  12.157  0.1628 -0.2733 -0.1633
 3456TIP3    H134563   0.301   0.948  12.107 -1.4665 -1.2217 -1.0084
 3456TIP3    H234564   0.210   1.068  12.093  0.8111  0.7651  0.4766
 3457TIP3   OH234565   1.581   1.414  12.633 -0.6590  0.2340 -0.8515
 3457TIP3    H134566   1.672   1.396  12.612 -0.7074  0.0252 -0.8801
 3457TIP3    H234567   1.576   1.510  12.637 -0.1498  0.2337  0.4093
 3458TIP3   OH234568   1.067   0.779  11.022 -0.5277  0.0470 -0.3892
 3458TIP3    H134569   1.024   0.861  10.997  1.4067  1.1961 -0.1286
 3458TIP3    H234570   1.084   0.735  10.939 -0.8221  0.3133 -0.5933
 3459TIP3   OH234571   1.809   4.583   9.674  0.0143  0.1380 -0.4064
 3459TIP3    H134572   1.809   4.610   9.582 -1.2674  0.7496 -0.2547
 3459TIP3    H234573   1.869   4.644   9.717 -2.9820  3.1377 -0.0254
 3460TIP3   OH234574   5.325   4.377  11.342  0.0814  0.5076  0.2223
 3460TIP3    H134575   5.290   4.450  11.392  1.4748  0.8036  0.8075
 3460TIP3    H234576   5.364   4.319  11.408 -0.8678 -0.7113 -0.2439
 3461TIP3   OH234577   3.691   0.692  11.307  0.0751 -0.2924  0.4343
 3461TIP3    H134578   3.726   0.694  11.218  1.2906 -0.2097  0.8890
 3461TIP3    H234579   3.724   0.773  11.347  0.4313 -0.8401  1.2749
 3462TIP3   OH234580   4.505   4.747  12.397 -0.3565  0.1976 -0.0061
 3462TIP3    H134581   4.472   4.744  12.307 -0.0062 -0.8234 -0.1162
 3462TIP3    H234582   4.541   4.660  12.412 -0.0868  0.4702  1.0089
 3463TIP3   OH234583   5.688   1.120  11.762 -0.4747  0.1765  0.2058
 3463TIP3    H134584   5.619   1.125  11.829 -0.3717  0.4864  0.2868
 3463TIP3    H234585   5.715   1.210  11.748  1.1087 -0.0508  1.4252
 3464TIP3   OH234586   0.115   4.622  12.032 -0.3759  0.2847  0.3625
 3464TIP3    H134587   0.128   4.669  11.950 -0.2338 -0.0780  0.1763
 3464TIP3    H234588   0.027   4.584  12.024 -0.0639 -0.3940  0.0497
 3465TIP3   OH234589   2.855   3.058  12.041 -0.0752  0.7275  0.4629
 3465TIP3    H134590   2.803   3.112  11.981 -1.3974 -0.4245  0.5194
 3465TIP3    H234591   2.946   3.077  12.018 -0.5152  2.1502 -0.2361
 3466TIP3   OH234592   6.791   0.963  11.882 -0.5867  0.3383  0.7789
 3466TIP3    H134593   6.705   0.996  11.909 -0.3835 -0.1805  2.1665
 3466TIP3    H234594   6.794   0.873  11.915  0.9085  0.7179  1.8024
 3467TIP3   OH234595   6.369   3.177  11.685  0.1474  0.3500 -0.2114
 3467TIP3    H134596   6.347   3.201  11.775 -1.4890 -1.3040 -0.1126
 3467TIP3    H234597   6.464   3.172  11.684  0.2784  1.9206  0.9958
 3468TIP3   OH234598   2.988   2.695  10.068 -0.0409  1.2772  0.1664
 3468TIP3    H134599   3.082   2.704  10.082  0.7439 -3.3449 -0.4385
 3468TIP3    H234600   2.979   2.676   9.974 -1.4650  1.0743  0.3179
 3469TIP3   OH234601   2.161   5.484  13.285  0.1576 -0.0147 -0.1176
 3469TIP3    H134602   2.229   5.431  13.326 -0.0597  0.3559  0.7480
 3469TIP3    H234603   2.204   5.523  13.208  0.7007 -0.3682 -0.0003
 3470TIP3   OH234604   3.660   6.284  11.281  0.4492 -0.4025 -0.7988
 3470TIP3    H134605   3.738   6.298  11.228  1.2682 -0.0778  0.4384
 3470TIP3    H234606   3.626   6.371  11.299  1.1940 -0.3683  0.6241
 3471TIP3   OH234607   2.221   6.820  12.276  0.2767  0.0286  0.4773
 3471TIP3    H134608   2.208   6.865  12.360 -2.5966 -0.4439  0.4025
 3471TIP3    H234609   2.227   6.891  12.212 -1.6701  0.4340  0.6613
 3472TIP3   OH234610   6.793   6.787  12.401 -0.0977  0.7418 -0.4127
 3472TIP3    H134611   6.781   6.833  12.483  3.7741  2.0738 -0.3744
 3472TIP3    H234612   6.825   6.854  12.340  3.0795 -1.1952 -1.1373
 3473TIP3   OH234613   6.337   6.204  13.102 -0.3345  0.5115 -0.0898
 3473TIP3    H134614   6.330   6.242  13.190  1.3527 -0.4642  0.5113
 3473TIP3    H234615   6.296   6.269  13.045 -1.2360  1.2842  1.3744
 3474TIP3   OH234616   3.254   0.050   9.491  0.2859  0.2770  0.3011
 3474TIP3    H134617   3.246  -0.045   9.499  1.6070  0.1498  0.4418
 3474TIP3    H234618   3.331   0.072   9.544  0.6928  1.2778 -0.6638
 3475TIP3   OH234619   4.121   5.720  10.414 -0.5181 -0.4987  0.0108
 3475TIP3    H134620   4.208   5.742  10.380  0.4790 -3.0213  0.6799
 3475TIP3    H234621   4.083   5.663  10.347 -0.6497 -1.3702  0.8174
 3476TIP3   OH234622   1.967   3.073  10.513  0.5000 -0.1344  0.9738
 3476TIP3    H134623   2.002   3.153  10.474  1.3647 -0.6982  0.5684
 3476TIP3    H234624   1.896   3.103  10.569  0.7991  0.9182  0.8090
 3477TIP3   OH234625   2.001   0.969  11.405 -0.2681 -0.4597 -0.1170
 3477TIP3    H134626   2.070   0.982  11.340  0.1135  0.9068  0.5195
 3477TIP3    H234627   1.921   0.992  11.359  0.1976  2.7156  0.4096
 3478TIP3   OH234628   4.693   3.160  12.361 -0.3546 -0.0618  0.1005
 3478TIP3    H134629   4.724   3.070  12.357  2.4573  0.8620 -1.3889
 3478TIP3    H234630   4.625   3.166  12.294 -0.9776 -1.1516  0.6022
 3479TIP3   OH234631   1.903   4.357  12.360  0.8305  0.6255  0.3479
 3479TIP3    H134632   1.992   4.326  12.381  0.6510  0.2987  0.6366
 3479TIP3    H234633   1.846   4.303  12.414  0.5366  1.9054  1.3659
 3480TIP3   OH234634   6.418   0.682  11.916 -0.4310 -0.3570 -0.1159
 3480TIP3    H134635   6.364   0.757  11.937 -0.0830 -0.0859 -0.1803
 3480TIP3    H234636   6.407   0.623  11.990 -0.7554 -0.2709 -0.0970
 3481TIP3   OH234637   6.249   5.709  12.258  0.0654 -0.8440 -0.6109
 3481TIP3    H134638   6.339   5.717  12.290 -0.2158  1.5918 -0.3051
 3481TIP3    H234639   6.257   5.716  12.163 -0.0165  3.3076 -0.4748
 3482TIP3   OH234640   0.593   5.957  10.969 -0.0947 -0.3016  0.4004
 3482TIP3    H134641   0.518   6.010  10.996  1.0050  1.6742 -0.2031
 3482TIP3    H234642   0.620   5.995  10.886  0.6104 -2.0170 -0.1942
 3483TIP3   OH234643   2.069   6.474  13.092 -0.4723 -0.0164  0.0824
 3483TIP3    H134644   2.146   6.420  13.073 -0.1684 -0.8087  3.0169
 3483TIP3    H234645   2.105   6.561  13.108 -0.1182 -0.4002  1.5150
 3484TIP3   OH234646   1.951   2.756  12.719  0.4121 -0.9556 -0.5880
 3484TIP3    H134647   1.962   2.675  12.769 -2.3611 -0.8630  0.3736
 3484TIP3    H234648   2.039   2.793  12.713  1.3889 -2.7782  1.1232
 3485TIP3   OH234649   3.424   2.267  12.486 -0.1406  0.4419 -0.8400
 3485TIP3    H134650   3.515   2.294  12.500 -0.7487  1.2220  2.4848
 3485TIP3    H234651   3.425   2.172  12.499  0.3455  0.2634 -2.0445
 3486TIP3   OH234652   4.099   1.844  13.392  0.0647 -0.8613  0.2609
 3486TIP3    H134653   4.088   1.909  13.322  1.0068 -0.7103  0.2413
 3486TIP3    H234654   4.011   1.809  13.407 -0.5363  0.7343  0.5827
 3487TIP3   OH234655   1.408   3.805  10.183 -0.1865 -0.3936  0.1319
 3487TIP3    H134656   1.427   3.713  10.167  3.0776 -0.0713  1.2946
 3487TIP3    H234657   1.316   3.807  10.208 -0.7105 -3.1127 -1.2175
 3488TIP3   OH234658   0.629   1.504  10.596 -0.2189 -0.2181 -0.1794
 3488TIP3    H134659   0.691   1.572  10.570 -0.8986  0.6451  0.3981
 3488TIP3    H234660   0.641   1.435  10.530 -0.5663  1.0839 -1.6865
 3489TIP3   OH234661   3.483   6.365  11.000  0.2232  0.6167 -0.0819
 3489TIP3    H134662   3.554   6.409  11.046 -0.3471  2.0499 -0.5233
 3489TIP3    H234663   3.409   6.369  11.060  0.4976 -0.9672  0.4228
 3490TIP3   OH234664   1.563   0.323  13.089 -0.9696  0.5213 -0.4512
 3490TIP3    H134665   1.579   0.343  12.997  0.3442  1.1500 -0.1177
 3490TIP3    H234666   1.563   0.409  13.132 -1.5372  0.2313  0.1376
 3491TIP3   OH234667   5.636   1.653  12.923  0.0541  0.3672  0.2323
 3491TIP3    H134668   5.619   1.591  12.993  0.8401  0.5404  0.5847
 3491TIP3    H234669   5.611   1.607  12.843  0.5359 -0.3613  0.4976
 3492TIP3   OH234670   4.606   2.141  10.753 -0.1752 -0.3345  0.1184
 3492TIP3    H134671   4.597   2.236  10.751  0.4909 -0.2229  1.2544
 3492TIP3    H234672   4.608   2.119  10.846  1.1125 -1.2951 -0.1038
 3493TIP3   OH234673   1.529   3.939  11.216 -0.2500 -0.2099 -0.5448
 3493TIP3    H134674   1.480   4.014  11.182  2.6018  0.8050 -2.8249
 3493TIP3    H234675   1.571   3.971  11.295 -0.6678 -0.0597 -0.3807
 3494TIP3   OH234676   0.198   0.126  11.674  0.1063 -0.0243  0.1667
 3494TIP3    H134677   0.291   0.148  11.675  0.3270 -0.7758 -1.0732
 3494TIP3    H234678   0.170   0.144  11.584 -0.8019 -0.3498  0.3719
 3495TIP3   OH234679   0.434   3.211  11.122  0.2073  0.0353  0.0874
 3495TIP3    H134680   0.465   3.282  11.179  1.0686 -0.2978  0.0534
 3495TIP3    H234681   0.370   3.252  11.065  0.3083  0.6715  0.4248
 3496TIP3   OH234682   4.620   0.405  11.367 -0.4426  0.0896 -0.4256
 3496TIP3    H134683   4.556   0.432  11.433  0.2090  1.4936 -0.3315
 3496TIP3    H234684   4.585   0.439  11.285  0.3339  1.1692 -0.3239
 3497TIP3   OH234685   4.023   4.379  10.537  0.2903 -0.4037  0.6031
 3497TIP3    H134686   4.014   4.284  10.538 -0.1313 -0.3607  2.1252
 3497TIP3    H234687   4.118   4.394  10.530  0.4115 -0.9397  1.0521
 3498TIP3   OH234688   0.633   4.682  11.508  0.7019 -0.3157 -0.2296
 3498TIP3    H134689   0.547   4.710  11.476  0.8188 -0.3730 -0.6062
 3498TIP3    H234690   0.629   4.694  11.603 -0.0342 -1.1912 -0.1446
 3499TIP3   OH234691   0.386   3.767  11.773 -0.1187  0.3305 -0.2156
 3499TIP3    H134692   0.321   3.738  11.709 -0.7706 -1.0509  1.0044
 3499TIP3    H234693   0.342   3.838  11.820 -0.7990 -0.6029  0.6103
 3500TIP3   OH234694   2.829   2.407  11.353 -0.5473  0.1296  0.3342
 3500TIP3    H134695   2.763   2.408  11.284  0.1853  2.1878 -0.4226
 3500TIP3    H234696   2.865   2.318  11.351 -0.4481  0.1688 -2.0618
 3501TIP3   OH234697   4.109   3.542   9.910 -0.6214 -0.5510  0.1980
 3501TIP3    H134698   4.162   3.564   9.834 -1.1717  0.5339  0.1067
 3501TIP3    H234699   4.066   3.460   9.887 -0.4648 -0.4450 -0.4859
 3502TIP3   OH234700   2.618   0.708  11.444 -0.0166  0.1943  0.0624
 3502TIP3    H134701   2.688   0.713  11.509 -0.3610 -0.1150  0.4646
 3502TIP3    H234702   2.598   0.615  11.437 -0.3383  0.2725 -0.1021
 3503TIP3   OH234703   0.469   1.624  11.558  0.2941 -0.1014 -0.0753
 3503TIP3    H134704   0.463   1.651  11.467  0.7005  0.3102  0.0145
 3503TIP3    H234705   0.528   1.549  11.558 -0.3224 -0.5964 -0.2436
 3504TIP3   OH234706   3.112   2.225  10.647 -0.1837  0.3915  0.4157
 3504TIP3    H134707   3.193   2.269  10.619  0.0889 -0.4753 -0.2077
 3504TIP3    H234708   3.043   2.287  10.625  0.2223  0.6509 -0.1754
 3505TIP3   OH234709   3.244   1.853  11.204  0.3399 -0.6110  0.8482
 3505TIP3    H134710   3.310   1.921  11.193 -0.6564  0.4809  1.2930
 3505TIP3    H234711   3.240   1.839  11.299 -1.2055  0.5920  1.0189
 3506TIP3   OH234712   6.594   1.946  12.499  0.1248 -0.1763  0.3873
 3506TIP3    H134713   6.547   1.998  12.564 -3.9398 -1.0298 -1.5667
 3506TIP3    H234714   6.646   1.884  12.551  1.0592  2.3637  2.7024
 3507TIP3   OH234715   4.707   2.171  12.114  0.0425 -0.5652 -0.1945
 3507TIP3    H134716   4.752   2.087  12.118 -0.2766 -0.6930  0.9188
 3507TIP3    H234717   4.703   2.201  12.205  4.3436  2.8953 -0.7470
 3508TIP3   OH234718   5.083   2.216  11.851  0.2824  0.0560  0.0985
 3508TIP3    H134719   5.050   2.150  11.912 -0.6289  1.1319  0.8293
 3508TIP3    H234720   5.175   2.193  11.837 -0.2882 -2.0119 -0.5841
 3509TIP3   OH234721   3.412   1.143  10.054 -0.8504  0.2803 -0.5620
 3509TIP3    H134722   3.391   1.226  10.096 -1.1972 -0.3145  0.4836
 3509TIP3    H234723   3.460   1.094  10.121  0.2546  0.0214 -1.5174
 3510TIP3   OH234724   2.231   1.319   9.843 -0.0802 -0.6073 -0.0090
 3510TIP3    H134725   2.233   1.324   9.939 -0.2523 -0.1663 -0.0243
 3510TIP3    H234726   2.308   1.267   9.820  0.4121 -0.0366  0.3313
 3511TIP3   OH234727   1.064   5.500  12.157 -0.2592  0.6905 -0.6437
 3511TIP3    H134728   0.997   5.524  12.220  1.3097 -0.1812  1.4584
 3511TIP3    H234729   1.017   5.449  12.091 -2.0663  2.2468 -0.6294
 3512TIP3   OH234730   0.660   5.003   9.944  0.0498  0.2612 -0.2036
 3512TIP3    H134731   0.712   5.022   9.866 -2.2706  0.5068 -1.7807
 3512TIP3    H234732   0.657   4.908   9.949 -2.6329  0.0897 -2.5769
 3513TIP3   OH234733   1.697   2.493  10.195 -0.1796  0.2345 -0.0176
 3513TIP3    H134734   1.707   2.535  10.280 -0.3064  0.1112  0.0585
 3513TIP3    H234735   1.602   2.495  10.179 -0.3344 -1.2046  0.5851
 3514TIP3   OH234736   5.896   3.303  11.415  0.7581  0.1031 -0.5416
 3514TIP3    H134737   5.880   3.212  11.388  2.4822 -0.1798 -0.7003
 3514TIP3    H234738   5.886   3.353  11.334  1.7499 -0.2106 -0.8720
 3515TIP3   OH234739   5.190   3.662  10.410 -0.3349  0.5188  0.3334
 3515TIP3    H134740   5.139   3.608  10.471  0.5240 -0.5301  0.1473
 3515TIP3    H234741   5.172   3.624  10.324 -3.1243  3.1812 -0.4542
 3516TIP3   OH234742   4.625   2.151  11.687 -0.5737  0.0025  0.0052
 3516TIP3    H134743   4.684   2.215  11.729 -1.1845  0.8328 -0.3792
 3516TIP3    H234744   4.666   2.067  11.704  0.9476  0.5805 -0.5728
 3517TIP3   OH234745   0.032   2.886  13.118 -0.1317 -0.3809 -0.3236
 3517TIP3    H134746   0.117   2.874  13.161 -0.3569 -0.8568  0.0056
 3517TIP3    H234747   0.029   2.979  13.095 -0.6904  0.3016  2.2142
 3518TIP3   OH234748   1.568   1.997  13.025 -0.3499 -0.3865 -0.0960
 3518TIP3    H134749   1.615   2.036  12.951  2.9437 -0.1000  1.9352
 3518TIP3    H234750   1.593   1.905  13.024  1.2186 -0.0418  1.5623
 3519TIP3   OH234751   1.507   5.451  13.022  0.6483 -0.1120 -0.1196
 3519TIP3    H134752   1.474   5.427  12.936  0.2235 -1.7999  0.4827
 3519TIP3    H234753   1.474   5.539  13.036  0.7512  0.2127 -1.6774
 3520TIP3   OH234754   5.339   3.296  10.806 -0.2047 -0.3510 -0.6169
 3520TIP3    H134755   5.345   3.239  10.730  0.8619 -2.5658  1.0137
 3520TIP3    H234756   5.273   3.255  10.862  0.7083 -0.1089  0.6794
 3521TIP3   OH234757   1.316   0.577   9.708 -1.0721  0.0958 -0.4541
 3521TIP3    H134758   1.281   0.491   9.682 -2.0591 -0.2029  1.6805
 3521TIP3    H234759   1.239   0.625   9.740 -0.2990  1.2848 -0.3209
 3522TIP3   OH234760   4.470   0.474  12.553  0.0626 -0.3489  0.5056
 3522TIP3    H134761   4.491   0.551  12.500 -1.4311  0.7464  1.4280
 3522TIP3    H234762   4.500   0.496  12.641 -0.9774 -0.5049  0.9219
 3523TIP3   OH234763   4.544   2.747  12.217  0.1504 -0.5809 -0.4708
 3523TIP3    H134764   4.455   2.719  12.200  0.2846 -2.0514  0.9999
 3523TIP3    H234765   4.557   2.731  12.311  1.6413  0.5172 -0.4489
 3524TIP3   OH234766   0.318   4.385  10.219  0.6382  0.4011 -0.2695
 3524TIP3    H134767   0.287   4.450  10.156  0.0415  1.4559  1.0522
 3524TIP3    H234768   0.363   4.437  10.286  0.5267 -0.5876  0.5995
 3525TIP3   OH234769   4.647   3.575  10.437 -0.1818  0.0521 -0.0765
 3525TIP3    H134770   4.629   3.577  10.344 -0.3493  1.6754 -0.0331
 3525TIP3    H234771   4.739   3.548  10.443 -0.2436 -0.3121 -0.6813
 3526TIP3   OH234772   5.389   5.296  10.709  0.1991  0.4600 -0.3697
 3526TIP3    H134773   5.397   5.367  10.773  0.5910 -1.3502  1.6980
 3526TIP3    H234774   5.338   5.334  10.638 -0.0766  2.6394  0.8990
 3527TIP3   OH234775   1.715   1.538  12.166  0.1421  0.2616  0.3801
 3527TIP3    H134776   1.673   1.489  12.096  1.0272 -0.9454  0.6494
 3527TIP3    H234777   1.755   1.470  12.222  1.3956  1.2790  0.7772
 3528TIP3   OH234778   4.816   4.336  10.343 -0.3155 -0.2729  1.0899
 3528TIP3    H134779   4.853   4.252  10.371 -0.1415 -1.0885 -1.3934
 3528TIP3    H234780   4.774   4.318  10.260 -0.3371  2.1053  0.5089
 3529TIP3   OH234781   2.061   4.702  10.808  0.0254 -0.3326 -0.0784
 3529TIP3    H134782   2.123   4.632  10.828 -0.8887 -1.3421 -0.6666
 3529TIP3    H234783   2.075   4.767  10.876 -0.7037 -2.1368  1.9188
 3530TIP3   OH234784   5.293   6.703  11.457 -0.1303 -0.2800  0.3810
 3530TIP3    H134785   5.307   6.797  11.449 -1.3623 -0.1450 -0.5110
 3530TIP3    H234786   5.345   6.665  11.385  0.7037 -0.3349  0.9976
 3531TIP3   OH234787   0.956   4.848  10.784  0.2356 -0.5399 -0.1133
 3531TIP3    H134788   0.998   4.777  10.832  1.7710 -0.3166 -1.0495
 3531TIP3    H234789   0.949   4.919  10.848  0.9955 -0.7048  0.1676
 3532TIP3   OH234790   6.795   4.736  10.469  0.2780 -0.3184 -0.0774
 3532TIP3    H134791   6.782   4.715  10.377  0.2568  1.3390 -0.4739
 3532TIP3    H234792   6.723   4.794  10.491  0.2022 -0.8031  1.0413
 3533TIP3   OH234793   5.639   4.948  12.399 -0.2843  0.8368  0.3846
 3533TIP3    H134794   5.599   4.893  12.466  0.8081 -1.6071 -0.8348
 3533TIP3    H234795   5.570   4.963  12.335 -0.9420  2.0173  1.3313
 3534TIP3   OH234796   1.326   3.009  11.233  0.0180  0.6834  0.1909
 3534TIP3    H134797   1.238   3.033  11.264  0.0912 -0.3156  1.2124
 3534TIP3    H234798   1.373   3.092  11.229 -1.7871  1.7538 -3.2831
 3535TIP3   OH234799   5.936   5.366  10.846  0.1829 -0.0172 -0.1116
 3535TIP3    H134800   5.869   5.298  10.834  0.2160  0.2577 -2.2031
 3535TIP3    H234801   6.001   5.348  10.778  0.9054  1.2786  0.2006
 3536TIP3   OH234802   3.899   4.662  11.804  0.0596 -0.1376  0.4159
 3536TIP3    H134803   3.874   4.731  11.743  0.3243  0.7702  1.3166
 3536TIP3    H234804   3.992   4.648  11.788  0.3954  0.8847  1.3444
 3537TIP3   OH234805   3.539   2.803  11.992  0.2123  0.3810  0.3293
 3537TIP3    H134806   3.518   2.789  11.900 -0.6889 -0.5518  0.6436
 3537TIP3    H234807   3.543   2.898  12.002  0.2069  0.4937 -0.6418
 3538TIP3   OH234808   2.600   4.268  11.389  0.6274 -0.4970 -0.1566
 3538TIP3    H134809   2.564   4.251  11.476 -0.0398  2.0668  0.1530
 3538TIP3    H234810   2.683   4.220  11.388  0.4898 -0.8618  1.7694
 3539TIP3   OH234811   2.023   2.185  11.238  0.2972  0.3594 -0.0281
 3539TIP3    H134812   2.075   2.261  11.211  2.5906 -0.4646  1.7050
 3539TIP3    H234813   1.971   2.217  11.311  2.9034 -0.0753  2.2051
 3540TIP3   OH234814   1.008   2.076  10.834  0.2278  0.2612  0.2686
 3540TIP3    H134815   0.981   2.168  10.841  1.6456  0.6176  1.6445
 3540TIP3    H234816   1.077   2.067  10.899  2.4798 -0.9147 -2.0973
 3541TIP3   OH234817   1.546   5.819  12.517  0.1399 -0.0345 -0.3155
 3541TIP3    H134818   1.621   5.877  12.505  0.8574 -1.0485 -0.7826
 3541TIP3    H234819   1.581   5.731  12.506 -0.9458 -0.5668  0.3606
 3542TIP3   OH234820   3.381   6.050   9.783  0.5822  0.1434 -0.1461
 3542TIP3    H134821   3.297   6.041   9.737  0.9382 -2.5349 -0.4249
 3542TIP3    H234822   3.369   6.125   9.841 -1.9558 -0.0818 -0.2854
 3543TIP3   OH234823   0.938   2.531  10.763  0.6121 -0.0751  0.4769
 3543TIP3    H134824   0.976   2.543  10.676  1.2013  2.0279  0.9523
 3543TIP3    H234825   0.961   2.611  10.810 -0.6899 -0.6502  2.2078
 3544TIP3   OH234826   3.282   2.804   9.956 -0.9272  0.5303 -0.8927
 3544TIP3    H134827   3.268   2.843   9.870 -1.2226 -2.4080 -2.2782
 3544TIP3    H234828   3.377   2.789   9.961 -1.0631 -0.4802 -1.2696
 3545TIP3   OH234829   2.673   2.179  10.946 -0.2470  0.3580 -0.5955
 3545TIP3    H134830   2.658   2.109  11.009 -0.2155  1.5654  0.8050
 3545TIP3    H234831   2.590   2.188  10.900  0.0099 -1.1575 -1.4275
 3546TIP3   OH234832   0.929   5.784  10.488  0.4659 -0.7297 -0.0522
 3546TIP3    H134833   0.960   5.841  10.418  1.5212 -0.6952  0.4140
 3546TIP3    H234834   0.973   5.700  10.473 -0.7683 -1.3271 -0.5048
 3547TIP3   OH234835   2.617   4.034  12.833  0.7780  0.4335  0.5127
 3547TIP3    H134836   2.587   4.111  12.882 -1.2908  1.5641 -2.2739
 3547TIP3    H234837   2.545   3.971  12.841  1.1359 -0.0110  0.2756
 3548TIP3   OH234838   4.420   0.942  12.647 -0.1879 -0.4050 -0.4960
 3548TIP3    H134839   4.378   1.025  12.669 -1.2374 -1.0073 -0.1758
 3548TIP3    H234840   4.388   0.881  12.712  1.0768 -0.9320 -0.3469
 3549TIP3   OH234841   5.140   4.256  11.158 -0.0563 -0.1525  0.8605
 3549TIP3    H134842   5.212   4.294  11.208 -0.7394  0.8385  1.1127
 3549TIP3    H234843   5.176   4.242  11.071  0.5517 -0.0308  1.0907
 3550TIP3   OH234844   6.223   4.672  10.558  1.0187 -0.2557 -0.1119
 3550TIP3    H134845   6.159   4.722  10.608 -0.4045 -0.7442 -1.3821
 3550TIP3    H234846   6.304   4.677  10.610  0.9101  3.1619 -0.0860
 3551TIP3   OH234847   0.205   3.185  12.070 -0.0387 -0.7343  0.1500
 3551TIP3    H134848   0.170   3.114  12.123  0.9038 -0.8380  0.6595
 3551TIP3    H234849   0.141   3.255  12.078 -0.9996 -1.5297 -0.3882
 3552TIP3   OH234850   5.616   1.866  13.250 -0.3784  0.1630 -0.5156
 3552TIP3    H134851   5.638   1.909  13.333  0.6425  0.1122 -0.7427
 3552TIP3    H234852   5.667   1.914  13.184  0.0252 -0.7792 -0.8983
 3553TIP3   OH234853   2.040   2.540  12.896  0.5046  0.4338  0.4081
 3553TIP3    H134854   2.100   2.491  12.840  0.3194  1.5564 -0.8295
 3553TIP3    H234855   2.097   2.591  12.953  0.7157  0.1832  0.4230
 3554TIP3   OH234856   2.410   2.461  11.289  0.1320  0.0226 -0.3147
 3554TIP3    H134857   2.445   2.546  11.316  0.1933  0.0162 -0.3755
 3554TIP3    H234858   2.469   2.431  11.220 -0.7951  0.6617 -1.4191
 3555TIP3   OH234859   4.486   1.929  11.171  0.6700 -0.1618  0.0843
 3555TIP3    H134860   4.558   1.987  11.149  0.4385  0.4926  0.9998
 3555TIP3    H234861   4.412   1.987  11.187  0.0948 -0.7874 -0.2584
 3556TIP3   OH234862   4.564   2.844  11.640  0.5518  0.2949 -0.4196
 3556TIP3    H134863   4.657   2.850  11.618  1.0339  1.4003  1.7390
 3556TIP3    H234864   4.538   2.933  11.662 -0.9966 -0.0379 -0.7686
 3557TIP3   OH234865   5.596   0.329  10.058 -0.1473  0.6067  0.2439
 3557TIP3    H134866   5.520   0.271  10.050  0.3180  0.0741 -0.3838
 3557TIP3    H234867   5.562   0.416  10.038 -0.3357  0.1914 -1.3812
 3558TIP3   OH234868   0.296   2.314  12.380 -0.1522  0.3166  0.1178
 3558TIP3    H134869   0.350   2.386  12.412 -0.3156  0.5913 -0.2131
 3558TIP3    H234870   0.267   2.343  12.294 -0.6541  0.0795  0.2064
 3559TIP3   OH234871   0.815   5.488  12.704 -0.0148  0.0395 -0.0145
 3559TIP3    H134872   0.886   5.538  12.664 -0.5150  0.3581 -0.5164
 3559TIP3    H234873   0.819   5.511  12.797  0.6160 -0.0498 -0.0129
 3560TIP3   OH234874   3.157   3.624  10.995 -0.1423 -0.4812 -0.2350
 3560TIP3    H134875   3.156   3.598  11.087 -1.6757 -0.4258 -0.2175
 3560TIP3    H234876   3.067   3.651  10.977  0.2751  0.0539 -1.5995
 3561TIP3   OH234877   2.836   0.589  11.173 -0.2699 -0.0786  0.6714
 3561TIP3    H134878   2.911   0.589  11.233 -0.2111 -0.7808  0.6052
 3561TIP3    H234879   2.792   0.506  11.190 -0.4994 -0.0872  0.0432
 3562TIP3   OH234880   6.555   0.634  12.173  1.0774  0.6694 -0.2274
 3562TIP3    H134881   6.557   0.647  12.268  0.3678  1.9458 -0.3534
 3562TIP3    H234882   6.512   0.713  12.140 -1.1896 -0.9448 -1.4035
 3563TIP3   OH234883   1.001   4.524   9.638 -0.1122 -0.5170  0.9118
 3563TIP3    H134884   1.067   4.478   9.587 -0.2294  1.3587 -1.0315
 3563TIP3    H234885   1.051   4.568   9.707  0.8542  1.4039 -0.9062
 3564TIP3   OH234886   0.938   1.532  11.414 -0.0144  0.7537 -0.0794
 3564TIP3    H134887   0.937   1.585  11.335 -1.9683 -0.3811 -0.8779
 3564TIP3    H234888   0.891   1.453  11.391  3.1396 -1.6492  0.9180
 3565TIP3   OH234889   0.800   5.757  11.569  0.5032  0.1180  0.7719
 3565TIP3    H134890   0.830   5.847  11.586 -0.7713  0.9505 -1.0148
 3565TIP3    H234891   0.710   5.755  11.602  0.8022 -0.7790  1.5594
 3566TIP3   OH234892   5.314   0.963  12.920  0.2586 -0.5441 -0.2666
 3566TIP3    H134893   5.300   0.919  12.836 -1.6629 -1.6210  0.5402
 3566TIP3    H234894   5.226   0.975  12.955  1.0060 -0.0935  1.5780
 3567TIP3   OH234895   2.788   5.940  10.565  0.1033  0.1029  0.1206
 3567TIP3    H134896   2.775   6.028  10.529  0.9425  0.4836  0.7097
 3567TIP3    H234897   2.732   5.884  10.511  0.2928  0.8521 -0.8978
 3568TIP3   OH234898   6.539   2.105  12.202  0.1919 -0.3634 -0.1102
 3568TIP3    H134899   6.488   2.163  12.259 -0.7373 -3.5989  2.6889
 3568TIP3    H234900   6.622   2.093  12.247  0.6083 -0.7267 -0.9515
 3569TIP3   OH234901   3.374   2.735  12.924 -0.1930  0.1940 -0.1421
 3569TIP3    H134902   3.296   2.702  12.881  0.3331 -1.9025  0.4060
 3569TIP3    H234903   3.341   2.778  13.004 -0.7799 -0.9142  0.2292
 3570TIP3   OH234904   1.773   4.735  10.390  0.7999  0.3280  0.2176
 3570TIP3    H134905   1.800   4.764  10.477 -0.9291 -1.2884  1.3825
 3570TIP3    H234906   1.747   4.644  10.402 -0.3567  0.3182 -1.8181
 3571TIP3   OH234907   4.420   6.698  10.843  0.0982 -0.3024 -0.6704
 3571TIP3    H134908   4.338   6.673  10.886 -0.0286  2.9580  1.3870
 3571TIP3    H234909   4.488   6.653  10.893 -0.2720  0.6110  0.7231
 3572TIP3   OH234910   2.893   0.546  13.232 -0.0286  0.6493 -0.6081
 3572TIP3    H134911   2.967   0.557  13.292 -1.3602  1.1456  1.0295
 3572TIP3    H234912   2.931   0.506  13.154  1.8209  0.1773  0.4700
 3573TIP3   OH234913   2.183   4.561   9.934  0.3981 -0.2164  0.0350
 3573TIP3    H134914   2.163   4.519  10.018  1.3423 -0.4037  0.1846
 3573TIP3    H234915   2.275   4.538   9.918  0.3242  0.1127 -0.8799
 3574TIP3   OH234916   3.775   1.872  12.235 -0.5003  0.3490  0.0482
 3574TIP3    H134917   3.866   1.897  12.216 -0.4547  1.4514  1.5812
 3574TIP3    H234918   3.773   1.777  12.220  0.6744  0.4356 -0.8121
 3575TIP3   OH234919   0.876   1.089  11.613  0.9689  0.5139  0.0331
 3575TIP3    H134920   0.802   1.051  11.661 -0.0424  0.9473 -1.1216
 3575TIP3    H234921   0.885   1.177  11.650 -0.0262  0.9707 -0.7635
 3576TIP3   OH234922   3.812   4.024  12.678  0.0491 -0.1725 -0.9240
 3576TIP3    H134923   3.805   3.956  12.610  2.5496 -0.6267 -0.8361
 3576TIP3    H234924   3.736   4.010  12.734  0.3509 -2.7995 -1.0391
 3577TIP3   OH234925   3.204   6.011  10.261  0.1275 -0.1802 -0.1453
 3577TIP3    H134926   3.176   6.078  10.324 -1.3614 -1.2691  0.4028
 3577TIP3    H234927   3.295   6.034  10.241  0.2767  0.8635  1.5263
 3578TIP3   OH234928   0.556   5.641  12.421 -0.3726  0.1274  0.4655
 3578TIP3    H134929   0.559   5.727  12.463  1.7365  0.1472  0.3346
 3578TIP3    H234930   0.616   5.587  12.472 -1.0897 -1.0718  0.0764
 3579TIP3   OH234931   4.039   0.805  12.295  0.2871 -0.2398 -0.3624
 3579TIP3    H134932   3.968   0.861  12.263  0.1911 -0.5015 -0.6149
 3579TIP3    H234933   3.998   0.721  12.312  0.3198 -0.0756  0.5686
 3580TIP3   OH234934   5.461   0.722  13.466 -0.2748  1.0259  0.4194
 3580TIP3    H134935   5.438   0.808  13.430  2.0614  1.2262 -0.7948
 3580TIP3    H234936   5.557   0.723  13.469 -0.2087  0.0754  4.5184
 3581TIP3   OH234937   3.083   2.930  12.796  0.4899 -0.0301  0.1583
 3581TIP3    H134938   2.993   2.924  12.764  0.4527 -0.3941  0.3297
 3581TIP3    H234939   3.075   2.936  12.891  0.6060  0.9741  0.1184
 3582TIP3   OH234940   3.515   6.325  11.610 -0.1796  0.4059  0.3460
 3582TIP3    H134941   3.604   6.361  11.611 -0.0595  0.1249  1.3483
 3582TIP3    H234942   3.528   6.230  11.619 -0.5746  0.3654  0.4960
 3583TIP3   OH234943   0.463   1.400  11.279  0.1589 -0.1145  0.1316
 3583TIP3    H134944   0.519   1.322  11.289 -0.8209 -0.7402  1.0042
 3583TIP3    H234945   0.380   1.365  11.245 -0.7615  0.3221  1.8207
 3584TIP3   OH234946   3.007   1.748  10.731 -0.3394 -0.0680 -0.8267
 3584TIP3    H134947   3.099   1.738  10.756 -0.1605  0.2999 -1.3356
 3584TIP3    H234948   2.990   1.842  10.738 -1.4879 -0.3780  2.0978
 3585TIP3   OH234949   5.623   5.537  10.396 -0.0202  0.0263 -0.0686
 3585TIP3    H134950   5.713   5.504  10.392 -0.9021 -2.7295  0.5765
 3585TIP3    H234951   5.624   5.616  10.342  2.6536 -0.2237 -0.5165
 3586TIP3   OH234952   3.893   5.672  11.434  0.3787  1.1908  0.2733
 3586TIP3    H134953   3.983   5.703  11.436  0.4753  1.0628 -1.0847
 3586TIP3    H234954   3.840   5.752  11.436  0.6055  1.4675 -1.8770
 3587TIP3   OH234955   0.172   0.071  11.242  0.5084  0.6280  0.0183
 3587TIP3    H134956   0.112   0.107  11.307 -0.1805 -2.2666  1.1236
 3587TIP3    H234957   0.118   0.012  11.189  1.5982  0.9598 -1.5469
 3588TIP3   OH234958   3.758   0.544  10.306  0.3205 -0.0587  0.4454
 3588TIP3    H134959   3.735   0.619  10.251  2.9384  0.3313 -0.2739
 3588TIP3    H234960   3.731   0.468  10.254  0.9782  0.3535 -0.5486
 3589TIP3   OH234961   2.198   5.483  10.040 -0.2118 -0.3977 -0.2384
 3589TIP3    H134962   2.172   5.471   9.949  0.6304 -0.6633 -0.4532
 3589TIP3    H234963   2.203   5.578  10.051 -0.9608 -0.3501 -0.2749
 3590TIP3   OH234964   0.712   0.043  10.497 -0.2340  0.4523 -0.1673
 3590TIP3    H134965   0.638  -0.013  10.474 -0.0705  0.4083 -0.5875
 3590TIP3    H234966   0.679   0.132  10.483 -0.4463  0.4585  0.3597
 3591TIP3   OH234967   6.603   4.929  10.524 -0.2635  0.0659 -0.3992
 3591TIP3    H134968   6.538   4.933  10.454 -2.3881 -0.4858  1.4320
 3591TIP3    H234969   6.615   5.020  10.551  0.4423  0.2627 -1.3304
 3592TIP3   OH234970   2.052   4.994   9.072 -0.3809 -0.4751  0.7388
 3592TIP3    H134971   1.984   5.011   9.006 -1.0137  0.4042  1.5830
 3592TIP3    H234972   2.007   4.948   9.142  0.5797 -2.5966  0.0296
 3593TIP3   OH234973   1.032   1.527  12.323 -0.2987 -0.1191  0.5280
 3593TIP3    H134974   0.987   1.457  12.276  0.7116 -1.8972  2.0611
 3593TIP3    H234975   1.125   1.505  12.315  0.0527  1.0734  1.0552
 3594TIP3   OH234976   0.174   2.897  12.640 -0.5065  0.1848  0.4829
 3594TIP3    H134977   0.232   2.898  12.565 -0.3896 -0.4735  0.5617
 3594TIP3    H234978   0.224   2.939  12.710 -1.1473  2.1519 -0.1705
 3595TIP3   OH234979   1.119   0.142  10.957 -0.2524 -0.3878  0.0740
 3595TIP3    H134980   1.111   0.192  10.876 -1.1854 -0.2732  0.2318
 3595TIP3    H234981   1.111   0.207  11.027  0.3866 -0.5095  0.2698
 3596TIP3   OH234982   2.569   2.457  12.397 -0.2702  0.2454 -0.3037
 3596TIP3    H134983   2.632   2.386  12.410 -0.4301 -0.3974 -2.6137
 3596TIP3    H234984   2.610   2.533  12.437 -0.6079 -1.2543  3.3723
 3597TIP3   OH234985   4.801   5.051  10.542  0.6033 -0.3384 -0.0827
 3597TIP3    H134986   4.730   4.987  10.538 -0.4902  0.9095 -1.7842
 3597TIP3    H234987   4.766   5.122  10.595  0.1685  0.6968 -1.6938
 3598TIP3   OH234988   3.769   5.135  10.725 -0.0146  0.0083 -0.1932
 3598TIP3    H134989   3.739   5.060  10.776 -1.6777  0.2928 -0.6971
 3598TIP3    H234990   3.850   5.163  10.769  0.3134 -1.6910  0.3421
 3599TIP3   OH234991   1.678   2.543  11.141 -0.0008 -0.5562  0.4413
 3599TIP3    H134992   1.643   2.527  11.053  1.1920  2.1545 -0.6421
 3599TIP3    H234993   1.769   2.569  11.127  0.3178 -0.3834  2.5087
 3600TIP3   OH234994   4.266   2.485  12.439  0.4022  0.3246 -0.0065
 3600TIP3    H134995   4.208   2.489  12.514  0.4846  2.3867  0.0008
 3600TIP3    H234996   4.317   2.405  12.452 -0.9580 -0.4122  1.0582
 3601TIP3   OH234997   3.346   6.250  11.409  0.3464  0.2646 -0.0340
 3601TIP3    H134998   3.392   6.308  11.470  0.5086  0.6854 -0.5459
 3601TIP3    H234999   3.406   6.177  11.395 -0.0119 -0.2308  0.9023
 3602TIP3   OH235000   5.657   0.522  11.667  0.7370  0.0772  0.6468
 3602TIP3    H135001   5.623   0.432  11.671  1.1804 -0.0646  2.1411
 3602TIP3    H235002   5.663   0.542  11.574 -1.6883 -0.5464  0.3018
 3603TIP3   OH235003   3.277   3.548   9.914  0.7353 -0.0075 -0.3922
 3603TIP3    H135004   3.259   3.465   9.869  1.6995 -0.5342  0.1457
 3603TIP3    H235005   3.204   3.557   9.976  1.2523 -1.1245  0.4300
 3604TIP3   OH235006   1.721   4.971  11.239  0.5309  0.3769  0.5508
 3604TIP3    H135007   1.715   5.060  11.205 -0.0865  0.3296  0.5270
 3604TIP3    H235008   1.630   4.945  11.254  0.6412 -0.5541 -0.2501
 3605TIP3   OH235009   1.081   4.209   9.902 -0.1700  0.4448  0.3723
 3605TIP3    H135010   1.006   4.221   9.843  0.3779 -0.3044 -0.5080
 3605TIP3    H235011   1.157   4.202   9.843  0.8431  2.7177  1.2851
 3606TIP3   OH235012   1.776   0.048  11.292 -0.6563  0.4821 -0.4354
 3606TIP3    H135013   1.861   0.011  11.266 -0.6014 -0.9521  1.5296
 3606TIP3    H235014   1.794   0.093  11.374 -1.8797 -0.2724  0.2712
 3607TIP3   OH235015   2.475   5.314  13.309 -0.4501  0.0367 -0.0909
 3607TIP3    H135016   2.438   5.227  13.292  0.6721 -0.1811 -1.7287
 3607TIP3    H235017   2.554   5.297  13.361 -0.3899  0.0963 -0.1622
 3608TIP3   OH235018   3.473   1.895  11.407 -0.1662 -0.3865 -0.2680
 3608TIP3    H135019   3.524   1.943  11.342  1.4448 -1.4885  0.1304
 3608TIP3    H235020   3.535   1.873  11.476 -1.4030 -0.9396  0.7216
 3609TIP3   OH235021   2.428   2.571  12.165  0.7998 -0.0127  0.7135
 3609TIP3    H135022   2.487   2.593  12.093  0.2619 -1.4381 -0.1859
 3609TIP3    H235023   2.483   2.523  12.227  0.6858 -1.0232  0.0459
 3610TIP3   OH235024   3.096   2.911  11.507 -0.1010 -0.1516 -0.2763
 3610TIP3    H135025   3.058   2.843  11.452 -0.4721 -0.3558  0.2305
 3610TIP3    H235026   3.170   2.868  11.551 -0.5613 -0.3401  0.3280
 3611TIP3   OH235027   1.051   1.898  11.186 -0.4565  0.3449  0.0682
 3611TIP3    H135028   0.964   1.916  11.220 -1.0829 -1.0376 -0.7117
 3611TIP3    H235029   1.110   1.918  11.258 -1.2267  2.9214  0.0992
 3612TIP3   OH235030   3.281   1.285  12.259  0.1202 -0.1390 -0.0099
 3612TIP3    H135031   3.242   1.310  12.175 -0.2778 -0.8586 -0.0493
 3612TIP3    H235032   3.372   1.316  12.253 -0.1651  0.6667 -0.3194
 3613TIP3   OH235033   4.748   2.554  12.849 -0.7401 -0.5056 -0.0271
 3613TIP3    H135034   4.676   2.611  12.878 -0.6935 -0.0967 -0.6770
 3613TIP3    H235035   4.827   2.594  12.886 -0.8044 -0.7375  0.3683
 3614TIP3   OH235036   1.813   2.466  11.927  0.3085  0.6543  0.5158
 3614TIP3    H135037   1.893   2.510  11.897  0.2949  0.5673  0.3505
 3614TIP3    H235038   1.823   2.375  11.896  0.1055  0.6654  0.4209
 3615TIP3   OH235039   0.342   2.932  11.090 -0.9745 -0.1271 -0.3607
 3615TIP3    H135040   0.288   2.958  11.016 -0.9573  0.0679 -0.3083
 3615TIP3    H235041   0.395   3.010  11.109 -0.9284 -0.1990 -0.1905
 3616TIP3   OH235042   3.374   5.811  11.196  1.0991 -0.1805  0.0074
 3616TIP3    H135043   3.452   5.821  11.250  0.0222 -2.0728  2.0390
 3616TIP3    H235044   3.401   5.752  11.125  0.7740 -4.0449  2.7653
 3617TIP3   OH235045   0.304   2.611  10.137 -0.2460  0.3352  0.5430
 3617TIP3    H135046   0.230   2.554  10.157  0.0810 -1.0902 -1.9146
 3617TIP3    H235047   0.380   2.563  10.171  0.0116 -0.7072 -1.3797
 3618TIP3   OH235048   6.415   1.230  10.343 -0.5993 -0.5309 -0.1857
 3618TIP3    H135049   6.328   1.254  10.375 -0.7772 -1.8142  0.3524
 3618TIP3    H235050   6.466   1.216  10.423 -1.0035 -3.6217 -0.3347
 3619TIP3   OH235051   1.839   4.769  12.188  0.5284  0.0998  0.6017
 3619TIP3    H135052   1.755   4.729  12.213  0.6743 -0.1751  0.6653
 3619TIP3    H235053   1.899   4.694  12.181  0.9080  0.3474  1.1247
 3620TIP3   OH235054   5.437   2.818  12.053 -0.5344 -0.4679  0.0236
 3620TIP3    H135055   5.527   2.793  12.073 -0.7657 -0.9274  0.4977
 3620TIP3    H235056   5.396   2.738  12.022 -1.0751 -0.5159  0.8429
 3621TIP3   OH235057   5.016   3.041  11.299  0.5574  0.1311  0.3430
 3621TIP3    H135058   5.023   3.049  11.203 -2.0441 -0.8802 -0.0239
 3621TIP3    H235059   5.061   2.959  11.319  0.9029  0.2193 -0.0484
 3622TIP3   OH235060   4.564   3.287  10.644  0.8948  0.3142  0.2583
 3622TIP3    H135061   4.532   3.198  10.628  0.2851  0.5245  0.2767
 3622TIP3    H235062   4.491   3.332  10.686  1.0970  0.9054 -0.0054
 3623TIP3   OH235063   3.929   5.506  10.947 -0.1706  0.4061  0.2456
 3623TIP3    H135064   3.874   5.445  10.995 -0.7343  0.8018  0.1092
 3623TIP3    H235065   3.964   5.564  11.015 -0.2961  0.4432  0.2794
 3624TIP3   OH235066   3.664   4.503  12.039 -1.0963  0.2225  0.1769
 3624TIP3    H135067   3.583   4.464  12.069 -0.7205 -0.7988 -0.0860
 3624TIP3    H235068   3.710   4.432  11.993  0.4238  0.4704  1.2283
 3625TIP3   OH235069   6.175   5.398  11.274  0.0607  0.0840 -0.4197
 3625TIP3    H135070   6.139   5.367  11.191  0.5807  0.1610 -0.6760
 3625TIP3    H235071   6.192   5.491  11.260  1.2726 -0.1596 -0.6260
 3626TIP3   OH235072   5.761   0.340  12.366 -0.4242  0.3312  0.8202
 3626TIP3    H135073   5.831   0.395  12.331 -0.5900 -0.3069 -0.5587
 3626TIP3    H235074   5.730   0.289  12.291 -1.4766 -0.3543  1.6899
 3627TIP3   OH235075   5.873   3.790  12.535  0.1829  0.2802 -0.4461
 3627TIP3    H135076   5.876   3.711  12.590 -1.2462  0.6850  0.2524
 3627TIP3    H235077   5.834   3.857  12.592  2.2424  1.7855 -0.7028
 3628TIP3   OH235078   6.133   2.730  10.933  0.5635 -0.5333 -0.5798
 3628TIP3    H135079   6.182   2.673  10.874  0.0407  0.0807 -1.6468
 3628TIP3    H235080   6.093   2.795  10.875  0.1197  0.1560  0.4743
 3629TIP3   OH235081   1.551   4.380   9.152  0.1450 -0.1044  0.4260
 3629TIP3    H135082   1.548   4.476   9.155 -1.6550 -0.1272  0.2866
 3629TIP3    H235083   1.484   4.356   9.088  0.6376 -1.4640  0.3834
 3630TIP3   OH235084   5.506   1.157  11.936 -0.7198  0.6479 -0.1099
 3630TIP3    H135085   5.574   1.175  12.001  0.6895 -0.7910 -1.1237
 3630TIP3    H235086   5.475   1.244  11.910  0.3496  1.3205  0.7748
 3631TIP3   OH235087   5.801   2.103  11.765 -0.4040 -0.0550 -0.1003
 3631TIP3    H135088   5.838   2.046  11.698  0.1227  0.3763 -0.1811
 3631TIP3    H235089   5.730   2.052  11.804 -2.2944  0.5428 -2.5431
 3632TIP3   OH235090   2.179   4.872  10.986 -0.2726 -0.0704 -0.4207
 3632TIP3    H135091   2.194   4.835  11.073  0.2214  1.2591  0.0877
 3632TIP3    H235092   2.262   4.860  10.941 -0.2951 -0.1123 -0.4503
 3633TIP3   OH235093   4.255   0.436  12.038  0.3610 -0.1173 -0.2080
 3633TIP3    H135094   4.292   0.473  11.957 -1.3107  0.7592 -0.6069
 3633TIP3    H235095   4.184   0.496  12.061 -0.1556 -1.1969  1.1003
 3634TIP3   OH235096   5.100   6.508  12.324 -0.4323  0.7256  0.4794
 3634TIP3    H135097   5.174   6.483  12.379  0.5022  0.4629 -0.8369
 3634TIP3    H235098   5.094   6.603  12.333 -0.7527  0.6138  1.5635
 3635TIP3   OH235099   0.053   3.485  12.960  0.1432 -0.1385 -0.2747
 3635TIP3    H135100   0.071   3.552  13.026  1.8211  0.2276 -1.0701
 3635TIP3    H235101  -0.030   3.445  12.989 -0.3379  1.5349  0.7951
 3636TIP3   OH235102   1.793   6.256  10.674 -0.1287  0.2521 -0.2179
 3636TIP3    H135103   1.860   6.226  10.612 -0.6832 -0.6524 -0.3996
 3636TIP3    H235104   1.710   6.232  10.633 -0.5746  1.4471 -0.0359
 3637TIP3   OH235105   6.230   6.234  10.223 -0.5940 -0.1597 -0.4418
 3637TIP3    H135106   6.241   6.141  10.206 -0.5468 -0.0977 -0.7479
 3637TIP3    H235107   6.276   6.278  10.152 -0.5785  0.0978 -0.2759
 3638TIP3   OH235108   6.173   1.346  11.253  0.5014  0.3424  0.1435
 3638TIP3    H135109   6.192   1.433  11.290  2.4020  0.6483 -1.3330
 3638TIP3    H235110   6.253   1.323  11.206 -0.9612 -0.9660 -1.8747
 3639TIP3   OH235111   4.958   3.562  12.023 -0.3040 -0.0230  0.4020
 3639TIP3    H135112   4.972   3.523  11.937 -2.0995 -0.7641  0.4131
 3639TIP3    H235113   5.044   3.597  12.047  0.4682 -0.6741 -1.2414
 3640TIP3   OH235114   3.238   2.452  12.583 -0.2863  0.4695 -0.5585
 3640TIP3    H135115   3.164   2.396  12.605  0.2761 -0.1452 -0.2009
 3640TIP3    H235116   3.311   2.392  12.569  1.0490  1.1742  2.5254
 3641TIP3   OH235117   2.640   2.988  12.276  0.4168  0.3727  0.4421
 3641TIP3    H135118   2.565   3.043  12.256  0.3014  0.0463 -0.0233
 3641TIP3    H235119   2.706   3.012  12.210 -0.3501 -1.4887 -1.0999
 3642TIP3   OH235120   5.582   0.156  10.959 -0.3364  0.2061  0.1085
 3642TIP3    H135121   5.530   0.121  10.887 -0.0219 -1.0300  0.4613
 3642TIP3    H235122   5.525   0.222  10.999 -1.5253 -0.8833  0.2864
 3643TIP3   OH235123   5.428   6.628  12.222 -0.1344  0.3746 -0.1982
 3643TIP3    H135124   5.391   6.574  12.152 -0.4802  0.0483  0.2348
 3643TIP3    H235125   5.352   6.658  12.272  0.2175 -1.8242  1.8328
 3644TIP3   OH235126   1.832   0.231  12.527  1.0984 -0.1734 -0.6667
 3644TIP3    H135127   1.791   0.152  12.563  1.3233  0.0767  0.1676
 3644TIP3    H235128   1.906   0.248  12.586  0.3462  1.3451 -0.1156
 3645TIP3   OH235129   4.893   4.053  12.890 -0.6131  0.1927  0.3152
 3645TIP3    H135130   4.850   3.969  12.905 -1.7795  0.5916 -0.6696
 3645TIP3    H235131   4.928   4.047  12.801  2.5153 -0.5703  1.4749
 3646TIP3   OH235132   0.701   6.040  12.587 -0.1601 -0.5458  0.4853
 3646TIP3    H135133   0.651   6.119  12.567  0.4632 -0.1471  0.4819
 3646TIP3    H235134   0.736   6.055  12.675  0.6763 -0.4360  0.1432
 3647TIP3   OH235135   6.037   2.264  12.617 -0.2300  0.1599  0.1471
 3647TIP3    H135136   6.078   2.327  12.558 -2.3795  0.2182 -1.4197
 3647TIP3    H235137   6.109   2.207  12.645  0.8198 -0.5680 -3.4367
 3648TIP3   OH235138   3.948   1.608  10.350  0.3482  0.1760  0.9055
 3648TIP3    H135139   4.026   1.612  10.294 -1.0220  0.4006 -1.1170
 3648TIP3    H235140   3.915   1.519  10.337 -2.4619  1.4427 -2.4468
 3649TIP3   OH235141   1.927   3.417  10.234  0.4745 -0.3140  0.6677
 3649TIP3    H135142   1.904   3.324  10.242  0.4133 -0.2829  0.8661
 3649TIP3    H235143   1.887   3.445  10.152  1.0315 -0.6226  0.2800
 3650TIP3   OH235144   0.207   5.453  10.454  0.0118 -0.2157 -0.4641
 3650TIP3    H135145   0.216   5.515  10.526  0.8368 -0.0307 -0.7150
 3650TIP3    H235146   0.285   5.467  10.401 -0.7092 -0.1425 -1.5483
 3651TIP3   OH235147   6.291   3.255  11.941  0.2223  0.9315 -0.2006
 3651TIP3    H135148   6.259   3.166  11.948  1.1555  0.4948 -1.0764
 3651TIP3    H235149   6.331   3.274  12.026  0.4695  0.3235 -0.1777
 3652TIP3   OH235150   4.360   0.505  11.409  0.3812 -0.3641 -0.3055
 3652TIP3    H135151   4.411   0.586  11.409 -0.9802  0.5229  0.2688
 3652TIP3    H235152   4.276   0.529  11.370 -0.3598 -1.2920  0.6606
 3653TIP3   OH235153   3.051   4.046   9.466  0.4111  0.3533  0.2529
 3653TIP3    H135154   2.962   4.073   9.489 -0.6612 -3.2366  0.8014
 3653TIP3    H235155   3.044   4.011   9.377  0.9959 -0.9882  0.7057
 3654TIP3   OH235156   0.752   0.915  12.940 -0.0812 -0.3106  0.1732
 3654TIP3    H135157   0.712   0.969  13.007  0.3216  0.8750 -0.5178
 3654TIP3    H235158   0.846   0.924  12.955  0.0279 -3.1036  1.8233
 3655TIP3   OH235159   2.382   0.657  12.752  0.2185 -0.1916  0.6140
 3655TIP3    H135160   2.369   0.709  12.832  0.0637 -0.0102  0.4709
 3655TIP3    H235161   2.464   0.610  12.767  0.0629 -0.3468  0.9835
 3656TIP3   OH235162   5.769   1.787  11.115  0.1731  0.1996 -0.7877
 3656TIP3    H135163   5.681   1.803  11.150  1.2802  1.5019  1.5710
 3656TIP3    H235164   5.753   1.744  11.030 -2.7348  1.2867 -0.8947
 3657TIP3   OH235165   1.321   4.510  11.856  0.2598 -0.4349  1.0257
 3657TIP3    H135166   1.265   4.477  11.926 -1.0438 -0.5320 -0.0182
 3657TIP3    H235167   1.333   4.435  11.798 -0.6113  0.2169 -0.0385
 3658TIP3   OH235168   0.864   5.542  11.266 -0.1256  0.1106  0.1136
 3658TIP3    H135169   0.871   5.587  11.182  1.3515 -1.1973 -0.5046
 3658TIP3    H235170   0.934   5.579  11.319 -1.7452  1.7611  1.2584
 3659TIP3   OH235171   1.966   3.713  12.532 -0.4898  0.1766 -0.3621
 3659TIP3    H135172   1.940   3.770  12.459 -0.4188  0.6215 -0.0408
 3659TIP3    H235173   1.888   3.706  12.586 -0.5541 -0.1873 -0.4971
 3660TIP3   OH235174   5.393   4.759  11.831  0.0126  0.5882 -0.1754
 3660TIP3    H135175   5.452   4.687  11.850 -0.5043  0.1023 -0.3828
 3660TIP3    H235176   5.425   4.832  11.885  0.2267  0.0514  0.4365
 3661TIP3   OH235177   3.991   2.606  13.043 -0.4306 -0.3636  0.1872
 3661TIP3    H135178   4.023   2.678  12.988  0.4855 -0.9375 -0.0574
 3661TIP3    H235179   3.906   2.635  13.074  0.2250  1.1406  0.6630
 3662TIP3   OH235180   5.084   4.593  10.057  0.3434 -0.3289 -0.0142
 3662TIP3    H135181   5.033   4.633  10.127  0.6957  0.0286  0.0409
 3662TIP3    H235182   5.126   4.667  10.013  0.3565 -0.5744 -0.4219
 3663TIP3   OH235183   6.504   0.514  13.086 -0.3106  0.5187  0.2478
 3663TIP3    H135184   6.489   0.495  13.178 -1.0970  1.3630  0.3080
 3663TIP3    H235185   6.551   0.597  13.086 -0.1890  0.4514 -0.1091
 3664TIP3   OH235186   5.094   0.365  10.440  0.2634  0.7934 -0.1228
 3664TIP3    H135187   5.118   0.444  10.488  2.2067 -0.4423  1.0827
 3664TIP3    H235188   5.020   0.328  10.490 -0.6687  1.8068 -0.7057
 3665TIP3   OH235189   1.622   6.800  12.305 -0.0521  0.1931 -0.4150
 3665TIP3    H135190   1.708   6.832  12.277  1.2016  0.2358  2.9171
 3665TIP3    H235191   1.636   6.707  12.322 -1.5614 -0.5031 -2.6353
 3666TIP3   OH235192   1.897   3.349  11.478 -0.0137 -0.0630  0.0797
 3666TIP3    H135193   1.941   3.433  11.462  0.6468 -0.4020  0.1102
 3666TIP3    H235194   1.834   3.368  11.548 -1.1893  0.8515 -1.1495
 3667TIP3   OH235195   3.671   5.382  13.277  0.4840 -0.0774  0.7514
 3667TIP3    H135196   3.710   5.469  13.276 -0.2839  0.3062 -1.0969
 3667TIP3    H235197   3.621   5.378  13.358  0.5030  1.2279  0.8429
 3668TIP3   OH235198   1.870   6.313  12.555  0.1793 -0.0085  0.2126
 3668TIP3    H135199   1.879   6.218  12.562  2.6483  0.2364  2.1300
 3668TIP3    H235200   1.891   6.333  12.464  0.0850 -1.2510 -0.1023
 3669TIP3   OH235201   5.748   0.688  11.434 -0.1068 -0.3513 -0.2274
 3669TIP3    H135202   5.722   0.764  11.485 -0.4731 -0.7238  0.1571
 3669TIP3    H235203   5.843   0.685  11.440 -0.1380 -0.3406  0.3736
 3670TIP3   OH235204   6.674   2.752  13.000 -0.3043 -0.0744 -0.5253
 3670TIP3    H135205   6.729   2.676  12.978  1.2684  0.4984  1.1906
 3670TIP3    H235206   6.732   2.809  13.050 -1.9803  1.4487 -0.2479
 3671TIP3   OH235207   4.632   6.424  11.219  0.3087  0.1489  0.1717
 3671TIP3    H135208   4.621   6.491  11.286 -2.0595  0.1559 -0.1529
 3671TIP3    H235209   4.636   6.342  11.268  0.2783  0.2938  0.4179
 3672TIP3   OH235210   1.041   3.213  12.747  0.4225 -0.4258 -0.2035
 3672TIP3    H135211   0.950   3.215  12.716  0.9006 -1.0483 -1.7275
 3672TIP3    H235212   1.079   3.136  12.704  2.1825  0.8854 -1.1120
 3673TIP3   OH235213   3.308   4.331  11.535  0.1451 -0.2592  0.4853
 3673TIP3    H135214   3.294   4.365  11.623 -2.4630  2.0261 -0.6157
 3673TIP3    H235215   3.397   4.358  11.512 -0.0587  1.4694  1.5261
 3674TIP3   OH235216   2.324   3.183  10.604  0.3775 -0.2007 -0.0856
 3674TIP3    H135217   2.273   3.243  10.549 -0.2695  0.2506  0.9829
 3674TIP3    H235218   2.278   3.182  10.688  1.1858 -1.1050  0.3683
 3675TIP3   OH235219   5.218   3.728  12.815  0.0394 -0.1801 -0.2184
 3675TIP3    H135220   5.267   3.751  12.737  0.7541  0.4549  0.3962
 3675TIP3    H235221   5.180   3.811  12.845 -0.6713 -0.5056 -0.1777
 3676TIP3   OH235222   2.857   5.420  12.985 -0.8437  0.6905 -0.2552
 3676TIP3    H135223   2.787   5.481  13.009 -0.0384  1.2442  0.7346
 3676TIP3    H235224   2.860   5.424  12.889 -1.2671  1.6778 -0.2380
 3677TIP3   OH235225   3.639   0.810  11.945 -0.0062  0.1995 -0.1380
 3677TIP3    H135226   3.567   0.755  11.977 -1.2119  2.0636  0.5275
 3677TIP3    H235227   3.713   0.785  12.000 -0.2940 -1.2506 -0.3472
 3678TIP3   OH235228   5.671   2.036  11.007 -0.5340 -0.5978 -0.0795
 3678TIP3    H135229   5.616   2.093  11.060 -0.3755 -0.4862 -0.0339
 3678TIP3    H235230   5.740   2.007  11.066 -0.0652 -0.0679 -0.3522
 3679TIP3   OH235231   5.000   4.922  10.696  0.8521 -0.4720  0.6319
 3679TIP3    H135232   4.935   4.982  10.659  0.9461 -0.1140  1.0431
 3679TIP3    H235233   5.042   4.883  10.619  1.9730  1.2483  0.3231
 3680TIP3   OH235234   0.242   6.323  12.906  0.1555 -0.0308  0.4638
 3680TIP3    H135235   0.151   6.344  12.927 -0.6374 -1.7080 -1.1215
 3680TIP3    H235236   0.248   6.332  12.811  1.4692 -0.6672  0.4637
 3681TIP3   OH235237   2.683   4.106  11.082  0.3241  0.1107  0.5664
 3681TIP3    H135238   2.691   4.080  11.174 -1.0709  0.3036  0.7606
 3681TIP3    H235239   2.702   4.026  11.033 -0.9670 -0.5515  1.0887
 3682TIP3   OH235240   1.988   0.028  10.158 -0.2687  0.8230  0.7030
 3682TIP3    H135241   1.946  -0.001  10.077 -0.6848  1.8617  0.5262
 3682TIP3    H235242   2.042   0.103  10.131 -1.3511  1.9430  1.5594
 3683TIP3   OH235243   0.908   2.788  12.031 -0.4662 -0.0281 -0.0059
 3683TIP3    H135244   0.958   2.834  11.963 -0.8561  0.8176  0.2611
 3683TIP3    H235245   0.818   2.787  11.998 -0.8159  1.1146  0.8275
 3684TIP3   OH235246   4.224   0.047  11.414 -0.2577 -0.5632  0.2568
 3684TIP3    H135247   4.296   0.053  11.352 -0.5165  1.0885  0.0518
 3684TIP3    H235248   4.220   0.134  11.454 -2.5660 -0.3323 -0.2851
 3685TIP3   OH235249   0.337   3.444  11.385  0.0980  0.1714 -0.5311
 3685TIP3    H135250   0.321   3.460  11.478  1.5857 -0.7290 -0.0843
 3685TIP3    H235251   0.379   3.524  11.354  3.6554 -1.0482  0.6854
 3686TIP3   OH235252   6.552   3.439  11.589  0.1102 -0.4980 -0.2379
 3686TIP3    H135253   6.467   3.400  11.571 -0.0534 -0.1771 -0.1706
 3686TIP3    H235254   6.598   3.435  11.505  0.0250 -0.6585 -0.2781
 3687TIP3   OH235255   0.748   6.168  10.412 -0.6992  0.5875 -0.2431
 3687TIP3    H135256   0.727   6.078  10.436  0.0303  1.0734  2.5084
 3687TIP3    H235257   0.828   6.160  10.361 -2.7995 -0.5636 -3.7098
 3688TIP3   OH235258   0.413   0.353  10.956 -0.1057 -0.1687 -0.0553
 3688TIP3    H135259   0.409   0.287  10.887  0.4618  0.0827 -0.3346
 3688TIP3    H235260   0.420   0.303  11.037  4.0335 -0.5548 -0.4329
 3689TIP3   OH235261   1.677   5.760  11.481 -0.0283  0.1851  0.0142
 3689TIP3    H135262   1.589   5.726  11.498  0.1545 -0.1436  0.3079
 3689TIP3    H235263   1.736   5.697  11.523  0.3099  0.9681  0.7524
 3690TIP3   OH235264   2.527   0.340  13.180 -0.8521  0.3415 -0.4489
 3690TIP3    H135265   2.611   0.325  13.137  0.8271  1.8432  2.0474
 3690TIP3    H235266   2.524   0.275  13.250 -1.7724  0.3156 -0.5029
 3691TIP3   OH235267   0.538   0.122  12.280  0.5841 -0.0006 -0.7223
 3691TIP3    H135268   0.626   0.150  12.307 -1.2301  2.4181  3.9207
 3691TIP3    H235269   0.514   0.184  12.211  1.4249  1.6005  0.3338
 3692TIP3   OH235270   1.470   4.896  10.857  0.1051  0.1432  0.3656
 3692TIP3    H135271   1.496   4.986  10.839  2.3852 -0.3399  0.8800
 3692TIP3    H235272   1.522   4.872  10.934 -1.6222 -1.1264  1.1799
 3693TIP3   OH235273   3.411   4.682  11.511  0.1541  0.2056  0.1567
 3693TIP3    H135274   3.468   4.613  11.478  1.4123  1.0383  0.5036
 3693TIP3    H235275   3.461   4.722  11.582 -0.9147  0.9055  0.5403
 3694TIP3   OH235276   2.105   6.378  10.908 -0.1978 -0.3713  0.6554
 3694TIP3    H135277   2.049   6.332  10.969 -0.4468  0.9635  1.4662
 3694TIP3    H235278   2.065   6.464  10.898  0.2713 -0.2930 -0.7907
 3695TIP3   OH235279   4.550   3.123  11.620 -0.0482 -0.2566  0.8542
 3695TIP3    H135280   4.625   3.176  11.595 -0.5493  0.9502  1.8315
 3695TIP3    H235281   4.497   3.180  11.675 -1.7414 -1.0533  0.1131
 3696TIP3   OH235282   1.847   2.703   9.559  0.5760 -0.5991  0.6099
 3696TIP3    H135283   1.793   2.635   9.599 -0.0499 -0.0121  0.7815
 3696TIP3    H235284   1.828   2.782   9.610 -3.7248  1.4116 -3.3290
 3697TIP3   OH235285   5.008   1.722  13.072  0.0755 -0.6939  0.3033
 3697TIP3    H135286   5.073   1.668  13.117  0.1306  0.2750  1.4320
 3697TIP3    H235287   5.059   1.777  13.012  0.0848 -1.3804 -0.3299
 3698TIP3   OH235288   1.324   5.602  12.175 -0.6455 -0.4094  0.4712
 3698TIP3    H135289   1.316   5.697  12.162  1.3062 -0.4379 -1.4923
 3698TIP3    H235290   1.234   5.570  12.171 -1.2873  1.2650  0.4588
 3699TIP3   OH235291   2.751   0.591  10.306 -0.2041  0.3098 -0.2115
 3699TIP3    H135292   2.671   0.555  10.267 -0.3674 -0.1217  0.5063
 3699TIP3    H235293   2.819   0.528  10.285 -0.4245 -0.2799  0.7544
 3700TIP3   OH235294   6.571   3.157  12.636 -0.5993 -0.2760  0.3168
 3700TIP3    H135295   6.663   3.148  12.611 -1.3104 -0.2439 -2.6399
 3700TIP3    H235296   6.552   3.078  12.687  0.9484 -0.4730  0.6288
 3701TIP3   OH235297   3.227   3.865  11.250  0.0263 -0.9383 -0.4551
 3701TIP3    H135298   3.144   3.825  11.222 -1.7737  2.3687 -0.4526
 3701TIP3    H235299   3.252   3.920  11.176  0.3533  0.6575  0.7864
 3702TIP3   OH235300   4.195   4.258  11.147 -0.0867  0.1060  0.6527
 3702TIP3    H135301   4.142   4.188  11.110 -1.0579  0.6892  0.9260
 3702TIP3    H235302   4.283   4.241  11.113 -0.2947 -1.2465  0.7231
 3703TIP3   OH235303   2.813   4.513  13.164  0.3009  1.3258 -0.2955
 3703TIP3    H135304   2.793   4.552  13.079  1.2714  0.4007 -0.9679
 3703TIP3    H235305   2.843   4.587  13.217  0.6253  1.7561 -1.0610
 3704TIP3   OH235306   1.073   4.074  10.465 -0.1722 -0.2900  0.0228
 3704TIP3    H135307   1.143   4.101  10.405 -0.2478 -0.0247  0.0534
 3704TIP3    H235308   1.083   3.979  10.471  1.8162 -0.0304  2.0346
 3705TIP3   OH235309   2.683   6.417  11.706 -0.2245  0.1555  0.2046
 3705TIP3    H135310   2.681   6.465  11.623  0.0326 -0.9432 -0.4510
 3705TIP3    H235311   2.774   6.421  11.734 -0.3827  0.8454  0.6290
 3706TIP3   OH235312   1.383   3.893  10.478  0.1376 -0.6907 -0.1775
 3706TIP3    H135313   1.371   3.964  10.415  0.9288 -0.7939 -0.4485
 3706TIP3    H235314   1.456   3.842  10.444 -0.9755 -2.1790 -0.4864
 3707TIP3   OH235315   5.710   4.876  10.793 -0.0525 -0.2882 -0.1811
 3707TIP3    H135316   5.633   4.903  10.743 -1.3164 -0.0622  1.8168
 3707TIP3    H235317   5.695   4.784  10.814  0.2030 -0.2346  0.2551
 3708TIP3   OH235318   5.627   2.517  12.100  0.2189 -0.7450 -0.7193
 3708TIP3    H135319   5.533   2.502  12.096  0.0049  0.4743 -0.6053
 3708TIP3    H235320   5.662   2.439  12.142 -0.9197 -0.6074  0.5608
 3709TIP3   OH235321   2.864   5.516  12.038  0.8863  0.4916  0.2877
 3709TIP3    H135322   2.811   5.498  12.115  0.1077  1.8429  0.0987
 3709TIP3    H235323   2.800   5.522  11.966  1.5088  0.1288 -0.3054
 3710TIP3   OH235324   4.182   2.061  13.195  0.0152 -0.1408 -0.2735
 3710TIP3    H135325   4.204   2.106  13.114  0.5085  0.0020 -0.0597
 3710TIP3    H235326   4.090   2.083  13.210  0.0984  0.3445 -0.4613
 3711TIP3   OH235327   2.632   3.266  13.091 -0.2566 -0.5633 -0.4435
 3711TIP3    H135328   2.541   3.288  13.072  0.1721 -0.5741 -2.7422
 3711TIP3    H235329   2.632   3.171  13.101 -0.6341 -0.4697  0.5860
 3712TIP3   OH235330   5.637   3.013  11.166  0.1690 -0.0458  0.0542
 3712TIP3    H135331   5.571   2.944  11.159  2.5299 -2.5845  0.9963
 3712TIP3    H235332   5.631   3.060  11.083 -0.9064 -2.0031 -1.0555
 3713TIP3   OH235333   2.166   4.473  12.660 -0.2806 -0.2485  0.3458
 3713TIP3    H135334   2.097   4.535  12.683  0.0252 -0.4398  1.9431
 3713TIP3    H235335   2.154   4.456  12.567 -0.9590  1.4567  0.0914
 3714TIP3   OH235336   0.948   0.530  12.863  0.0490 -0.0202  0.3740
 3714TIP3    H135337   0.865   0.521  12.909  1.0540  1.8498  2.7426
 3714TIP3    H235338   1.001   0.457  12.894  0.3695  0.6475  1.4416
 3715TIP3   OH235339   2.931   2.640  12.966 -0.4306  0.4318  0.2462
 3715TIP3    H135340   2.976   2.722  12.988  2.2973 -1.2651  1.5812
 3715TIP3    H235341   2.965   2.617  12.880 -1.8037  1.0219 -0.4894
 3716TIP3   OH235342   5.818   3.675  11.882 -0.1846 -0.2117  0.3045
 3716TIP3    H135343   5.893   3.727  11.912  0.3569 -0.7054 -0.1698
 3716TIP3    H235344   5.839   3.585  11.909 -1.2576 -0.1593  1.3932
 3717TIP3   OH235345   1.861   1.777  12.501  0.2137 -0.0571 -0.5489
 3717TIP3    H135346   1.895   1.866  12.502 -0.6230  0.2825 -1.2166
 3717TIP3    H235347   1.867   1.750  12.409 -0.7601 -0.1945 -0.5838
 3718TIP3   OH235348   1.584   2.690   9.888  0.0153  0.3524  0.0992
 3718TIP3    H135349   1.544   2.626   9.830 -0.6105 -0.0465  0.9426
 3718TIP3    H235350   1.649   2.640   9.938 -1.3601  0.0442  1.6642
 3719TIP3   OH235351   2.624   4.879  12.028  0.4239  0.5563 -0.2344
 3719TIP3    H135352   2.644   4.877  12.122  1.8334  2.3371 -0.4486
 3719TIP3    H235353   2.533   4.910  12.024  0.5148  0.9535  0.5392
 3720TIP3   OH235354   2.665   3.608  12.871  0.4965  0.1111  0.4011
 3720TIP3    H135355   2.686   3.516  12.883 -2.0857 -1.0028 -2.3963
 3720TIP3    H235356   2.745   3.654  12.897  2.3511 -2.9443  0.6417
 3721TIP3   OH235357   6.065   0.005  10.478 -0.3329  0.4007  0.6374
 3721TIP3    H135358   6.062   0.083  10.423 -1.7903  0.2739  0.4832
 3721TIP3    H235359   5.995   0.018  10.542  0.6978  0.0955  1.8625
 3722TIP3   OH235360   1.471   5.165  10.390  0.3614  0.0130 -0.2333
 3722TIP3    H135361   1.394   5.216  10.416 -1.2954 -2.6572  0.4964
 3722TIP3    H235362   1.467   5.164  10.294 -0.1680  0.4270 -0.2223
 3723TIP3   OH235363   1.423   2.676  11.953 -0.1777  0.0111 -0.3451
 3723TIP3    H135364   1.406   2.627  11.873 -0.8084  1.6396 -1.2198
 3723TIP3    H235365   1.403   2.767  11.932 -0.2964  0.4895  1.6426
 3724TIP3   OH235366   6.025   6.819  12.655  0.1265 -0.2987  0.0927
 3724TIP3    H135367   6.006   6.896  12.602  1.9101  0.1335  0.0258
 3724TIP3    H235368   6.054   6.753  12.592  0.1457 -0.4979  0.3105
 3725TIP3   OH235369   3.591   4.572  11.741  0.0510  0.2946  0.1515
 3725TIP3    H135370   3.616   4.554  11.831  0.5510  2.6219  0.5262
 3725TIP3    H235371   3.651   4.519  11.688 -0.2592 -1.1048  1.1384
 3726TIP3   OH235372   0.462   4.492  11.170 -0.0832  0.3102  0.0520
 3726TIP3    H135373   0.447   4.471  11.262 -1.3165  0.9263  0.0098
 3726TIP3    H235374   0.547   4.452  11.150 -0.1133 -0.4133  1.2637
 3727TIP3   OH235375   4.365   1.642  12.925 -0.1765  0.0419  0.6704
 3727TIP3    H135376   4.431   1.673  12.863 -1.3974 -1.3970 -1.4761
 3727TIP3    H235377   4.416   1.603  12.997  1.2836  1.0156  0.2067
 3728TIP3   OH235378   3.349   1.672  12.163  0.6429  0.0395 -0.0246
 3728TIP3    H135379   3.402   1.595  12.184  0.1612 -0.5542 -0.9123
 3728TIP3    H235380   3.284   1.640  12.100 -1.0157  0.6522  1.2885
 3729TIP3   OH235381   6.258   5.921  11.473  0.5530  0.1393 -0.2391
 3729TIP3    H135382   6.171   5.957  11.452  0.8818  0.6404 -0.7671
 3729TIP3    H235383   6.298   5.987  11.530  1.0047  0.4228 -0.8820
 3730TIP3   OH235384   0.486   2.448  10.282 -0.1525  0.1487 -0.3758
 3730TIP3    H135385   0.551   2.408  10.226  0.6769  0.5614  0.2652
 3730TIP3    H235386   0.452   2.377  10.336  0.7180  0.1540  0.1896
 3731TIP3   OH235387   6.088   1.499  12.937 -0.6726 -0.1372  0.0069
 3731TIP3    H135388   6.083   1.417  12.889  1.0770 -0.4888  0.3440
 3731TIP3    H235389   6.131   1.560  12.878 -0.0921 -0.0748  0.4767
 3732TIP3   OH235390   3.319   4.519  12.077 -0.2524 -1.0174  0.1575
 3732TIP3    H135391   3.351   4.601  12.039 -1.4074 -2.3714 -4.3100
 3732TIP3    H235392   3.257   4.547  12.145  0.5939  1.7232 -0.0766
 3733TIP3   OH235393   5.546   1.789  11.249 -0.2732 -0.1034 -0.1917
 3733TIP3    H135394   5.514   1.700  11.235  1.3942 -0.9952  1.3138
 3733TIP3    H235395   5.467   1.842  11.258 -1.2988 -1.2716 -1.8836
 3734TIP3   OH235396   1.649   2.839   9.369  0.3305 -0.1029 -0.5123
 3734TIP3    H135397   1.728   2.811   9.416 -1.9144 -0.0782  3.8312
 3734TIP3    H235398   1.657   2.934   9.363  1.1836 -0.2134 -1.3561
 3735TIP3   OH235399   5.924   3.037  10.374 -0.7722  0.0173  0.2351
 3735TIP3    H135400   5.860   3.084  10.320 -0.9625  1.2484  1.4807
 3735TIP3    H235401   5.929   2.951  10.334 -0.2399  1.1302 -2.2695
 3736TIP3   OH235402   0.069   3.896  12.954  0.5380  0.1597  0.0867
 3736TIP3    H135403   0.137   3.962  12.973 -0.0283  1.3980 -1.9113
 3736TIP3    H235404   0.099   3.818  12.999  1.9278  1.4100  1.4659
 3737TIP3   OH235405   0.807   5.188  10.859 -0.3689  0.1985  0.1470
 3737TIP3    H135406   0.741   5.118  10.859 -0.0985 -0.0883 -1.3825
 3737TIP3    H235407   0.801   5.227  10.771  0.2893  1.3394  0.5808
 3738TIP3   OH235408   4.751   3.273  11.479 -0.0362  0.1122  0.0176
 3738TIP3    H135409   4.752   3.368  11.476 -0.4599  0.1056 -0.4128
 3738TIP3    H235410   4.842   3.249  11.497 -0.0864  0.6156  1.0265
 3739TIP3   OH235411   1.434   6.769  11.635  0.4051  0.4018  0.4180
 3739TIP3    H135412   1.459   6.861  11.634  1.2806  0.1715  0.5278
 3739TIP3    H235413   1.382   6.760  11.715  2.0876  0.3665  1.5561
 3740TIP3   OH235414   0.290   0.663  11.894 -0.1861 -0.0984  0.2225
 3740TIP3    H135415   0.325   0.613  11.821 -0.7247 -1.1555  0.6799
 3740TIP3    H235416   0.200   0.633  11.904  0.4690 -1.5476  2.6419
 3741TIP3   OH235417   3.052   1.407  11.671 -0.4914  0.2954 -0.5542
 3741TIP3    H135418   3.105   1.356  11.609 -1.5436 -1.5407 -0.0146
 3741TIP3    H235419   2.982   1.347  11.697 -1.3781  1.8107  0.6793
 3742TIP3   OH235420   6.772   2.880  12.487 -0.0566  0.3156  0.2216
 3742TIP3    H135421   6.836   2.808  12.478  0.1886  0.2819  1.9132
 3742TIP3    H235422   6.787   2.914  12.575 -1.8647  0.8240  0.3700
 3743TIP3   OH235423   0.831   2.016  10.039 -0.7029 -0.3827  0.6566
 3743TIP3    H135424   0.861   2.077   9.972  1.9685 -1.9220  0.3186
 3743TIP3    H235425   0.777   1.953   9.991 -0.9444 -0.0228  0.4491
 3744TIP3   OH235426   2.381   1.027  10.967 -0.5047 -0.1879 -0.2254
 3744TIP3    H135427   2.330   0.966  10.913  0.8063 -0.3556 -1.3271
 3744TIP3    H235428   2.357   1.004  11.057 -1.1736 -1.3128 -0.6604
 3745TIP3   OH235429   0.038   4.836  10.793  0.2239 -0.1277 -0.3689
 3745TIP3    H135430   0.105   4.840  10.861  1.6430  0.1004 -1.7470
 3745TIP3    H235431   0.037   4.745  10.765 -1.3291 -0.5358  0.8398
 3746TIP3   OH235432   5.957   3.955  10.062 -0.0425 -0.7511 -0.0352
 3746TIP3    H135433   5.884   3.946  10.124 -1.2859  0.1430 -1.2916
 3746TIP3    H235434   6.018   4.014  10.106  0.0381 -1.6787  1.1319
 3747TIP3   OH235435   4.221   1.537  11.928  0.0819 -0.0221  0.2327
 3747TIP3    H135436   4.274   1.516  11.851  1.4832  2.0569  0.5439
 3747TIP3    H235437   4.285   1.554  11.997 -1.0588  0.7545  1.1243
 3748TIP3   OH235438   1.112   3.793  10.177  0.2268 -0.7747 -0.4493
 3748TIP3    H135439   1.065   3.711  10.169 -0.5687 -0.2426 -1.4635
 3748TIP3    H235440   1.083   3.845  10.102 -0.6223  1.1045  1.1050
 3749TIP3   OH235441   6.039   6.390  11.444  0.6351  0.1316  0.2690
 3749TIP3    H135442   6.023   6.363  11.535 -2.2119  0.3573 -0.0884
 3749TIP3    H235443   5.998   6.321  11.391  0.3899  1.0673 -0.7917
 3750TIP3   OH235444   5.955   5.223  11.816 -0.1559 -0.1843 -0.5401
 3750TIP3    H135445   5.911   5.306  11.801  0.2219  0.1103 -0.0181
 3750TIP3    H235446   5.897   5.158  11.776 -0.3701  0.3406 -1.0974
 3751TIP3   OH235447   1.615   1.305  12.020 -0.8636 -0.5629  0.1311
 3751TIP3    H135448   1.596   1.232  11.961 -2.2495 -1.3884  1.5282
 3751TIP3    H235449   1.562   1.287  12.098 -1.1800  1.8851  0.5618
 3752TIP3   OH235450   2.880   4.649  11.971 -0.0069  0.0472 -0.1345
 3752TIP3    H135451   2.881   4.561  11.933  0.1399  0.5582 -1.3273
 3752TIP3    H235452   2.955   4.693  11.931 -0.3113  0.8442  0.1653
 3753TIP3   OH235453   1.196   4.938  10.935  0.0825 -0.0493  0.4805
 3753TIP3    H135454   1.289   4.919  10.928 -0.3842 -2.5746  0.1694
 3753TIP3    H235455   1.153   4.853  10.928 -2.3374  1.1580 -0.7379
 3754TIP3   OH235456   1.378   4.909  10.428  0.3615 -0.1912 -0.4204
 3754TIP3    H135457   1.311   4.896  10.495 -1.3297  0.2720 -1.9316
 3754TIP3    H235458   1.420   4.991  10.453  0.3752 -0.4812  0.5520
 3755TIP3   OH235459   5.575   5.736  12.206  0.4330 -0.4545  0.3985
 3755TIP3    H135460   5.483   5.708  12.206  0.3803 -0.2822  0.3701
 3755TIP3    H235461   5.576   5.816  12.259  0.0517  1.1884 -1.9102
 3756TIP3   OH235462   4.312   4.291  12.195 -1.0279 -0.3688 -0.1281
 3756TIP3    H135463   4.377   4.299  12.126 -0.6718 -1.8309  0.0080
 3756TIP3    H235464   4.239   4.345  12.166  0.0588  0.9680 -0.4782
 3757TIP3   OH235465   0.269   2.914  11.351 -0.0920  0.0118  0.3626
 3757TIP3    H135466   0.346   2.946  11.304  0.2723 -1.1424  0.1640
 3757TIP3    H235467   0.225   2.855  11.290 -0.4867 -0.2704  0.9103
 3758TIP3   OH235468   5.844   4.878  12.198  0.0694  0.1760  0.4273
 3758TIP3    H135469   5.870   4.961  12.158 -1.1269  0.5220  0.3419
 3758TIP3    H235470   5.788   4.903  12.271  2.5341 -0.4165  2.6651
 3759TIP3   OH235471   0.238   0.858  11.142  0.0917 -0.4365  0.0097
 3759TIP3    H135472   0.271   0.936  11.097  0.3176 -0.9645 -0.7698
 3759TIP3    H235473   0.316   0.806  11.162 -0.1454 -1.1112 -0.7426
 3760TIP3   OH235474   0.657   5.106  10.200 -0.3325 -0.7296 -0.0874
 3760TIP3    H135475   0.657   5.050  10.122 -0.8840 -1.5842  0.5045
 3760TIP3    H235476   0.597   5.177  10.179  1.6544  0.6660 -1.5145
 3761TIP3   OH235477   1.893   1.706  12.247 -0.0492  0.4399  0.0138
 3761TIP3    H135478   1.955   1.667  12.186 -0.6136 -0.8497  0.2273
 3761TIP3    H235479   1.808   1.675  12.218 -0.5602  1.7390  0.0542
 3762TIP3   OH235480   3.518   0.104   9.983 -0.5134 -0.2322 -0.3841
 3762TIP3    H135481   3.489   0.196   9.988  0.9502  0.2285  4.2260
 3762TIP3    H235482   3.441   0.054  10.009 -0.3550  0.0366  0.6456
 3763TIP3   OH235483   2.726   3.247  10.672  0.0114  0.2402 -0.0980
 3763TIP3    H135484   2.643   3.270  10.714  0.5883  2.1763  0.0789
 3763TIP3    H235485   2.708   3.255  10.578 -0.2535 -0.3146 -0.0985
 3764TIP3   OH235486   2.420   3.360  12.770  0.1313  0.2930  0.2553
 3764TIP3    H135487   2.510   3.345  12.798  0.2102 -0.8138 -0.4975
 3764TIP3    H235488   2.429   3.406  12.686  0.1866 -2.8267 -1.6193
 3765TIP3   OH235489   4.437   0.369  12.252 -1.0901  0.1870  0.0268
 3765TIP3    H135490   4.472   0.432  12.315  0.4701 -1.2921  0.6965
 3765TIP3    H235491   4.379   0.422  12.197 -0.1983  2.1243  0.8181
 3766TIP3   OH235492   5.264   2.118  13.271 -0.1036  0.2642  0.1190
 3766TIP3    H135493   5.277   2.029  13.303  1.6416  0.7588  0.9293
 3766TIP3    H235494   5.174   2.119  13.238 -0.0817 -1.8431 -0.1312
 3767TIP3   OH235495   2.983   4.380   9.256 -0.6163  0.0949 -0.4008
 3767TIP3    H135496   2.988   4.448   9.189  2.4798 -0.4675 -0.8910
 3767TIP3    H235497   2.998   4.299   9.209  0.5669 -0.4177  0.7728
 3768TIP3   OH235498   2.030   1.504   9.764  0.1082  0.3659 -0.2569
 3768TIP3    H135499   1.971   1.432   9.742  0.1795  0.2084  0.0540
 3768TIP3    H235500   2.101   1.462   9.813  0.0761  0.6684  0.0492
 3769TIP3   OH235501   5.145   5.455  10.772  0.3583 -0.7239 -0.2595
 3769TIP3    H135502   5.091   5.378  10.792  0.9899 -1.0027  0.4379
 3769TIP3    H235503   5.098   5.500  10.702 -0.1130 -1.6482 -0.5493
 3770TIP3   OH235504   0.698   3.442  10.251  0.1452 -0.9440  0.1159
 3770TIP3    H135505   0.637   3.479  10.187 -0.1359  0.8440  1.3574
 3770TIP3    H235506   0.690   3.347  10.239  0.2592 -0.6934 -2.6056
 3771TIP3   OH235507   6.769   6.135  12.802  0.0929  0.8317 -0.2231
 3771TIP3    H135508   6.756   6.118  12.895  0.8623  1.2261 -0.0416
 3771TIP3    H235509   6.854   6.096  12.781 -0.2872  0.3248 -0.8720
 3772TIP3   OH235510   1.169   0.183   9.653  0.1507 -0.6949  0.1440
 3772TIP3    H135511   1.136   0.273   9.655  1.0602 -0.3710  1.5232
 3772TIP3    H235512   1.255   0.190   9.612 -0.6045 -1.2664 -1.6449
 3773TIP3   OH235513   4.587   6.189  11.364  0.0068  0.1518 -0.5408
 3773TIP3    H135514   4.651   6.143  11.417  0.1406 -0.0314 -0.8558
 3773TIP3    H235515   4.536   6.241  11.426  0.9300  0.8619 -0.3677
 3774TIP3   OH235516   5.151   5.938  12.421  0.2363  0.5978  0.2047
 3774TIP3    H135517   5.150   5.843  12.429  1.9996  0.5792  0.4976
 3774TIP3    H235518   5.070   5.959  12.375 -0.3545 -1.0018  0.4547
 3775TIP3   OH235519   6.373   1.041  10.842 -0.0899 -0.1761 -0.0333
 3775TIP3    H135520   6.288   0.999  10.833 -0.5969  1.0358 -1.4413
 3775TIP3    H235521   6.422   1.014  10.765 -0.0930  1.0076 -0.4784
 3776TIP3   OH235522   4.485   5.069  10.833  0.1167 -0.0736 -0.6422
 3776TIP3    H135523   4.532   5.125  10.771 -2.9652  0.8310 -2.3911
 3776TIP3    H235524   4.480   5.121  10.913 -2.1233  2.0840 -2.0332
 3777TIP3   OH235525   2.275   6.219  11.524  0.5415 -0.0455  0.5559
 3777TIP3    H135526   2.195   6.272  11.532  1.2777  1.0232  1.1321
 3777TIP3    H235527   2.344   6.283  11.511  1.0980 -1.0549 -1.8341
 3778TIP3   OH235528   2.147   1.105  10.138  0.8215  0.5586 -0.2980
 3778TIP3    H135529   2.224   1.088  10.084  0.8897 -1.9346  0.4406
 3778TIP3    H235530   2.182   1.146  10.217  1.0634  1.6219 -0.9392
 3779TIP3   OH235531   2.870   3.736  11.089  0.7522 -0.9544  0.5360
 3779TIP3    H135532   2.784   3.770  11.112  1.0334  0.8530 -0.8227
 3779TIP3    H235533   2.865   3.719  10.995  1.9834 -0.3606  0.3365
 3780TIP3   OH235534   2.075   1.599  11.769  0.1552 -0.0356 -0.5703
 3780TIP3    H135535   2.005   1.550  11.812 -1.2986  0.2241 -2.5049
 3780TIP3    H235536   2.143   1.533  11.751 -1.4831 -1.3318 -2.5388
 3781TIP3   OH235537   2.045   6.095  12.856 -0.3994  0.0888 -0.2937
 3781TIP3    H135538   2.025   6.004  12.875  2.2750 -0.4843  0.2236
 3781TIP3    H235539   2.006   6.112  12.770 -0.2181 -1.8097 -0.7839
 3782TIP3   OH235540   2.181   1.054  11.912  0.4987 -0.1305 -0.0100
 3782TIP3    H135541   2.181   1.049  11.816  0.0087 -0.7362  0.0140
 3782TIP3    H235542   2.259   1.007  11.939  0.1712 -0.7286 -0.0874
 3783TIP3   OH235543   2.165   0.772  11.857  0.1729 -0.1291 -0.0141
 3783TIP3    H135544   2.225   0.797  11.927 -0.9246  0.5896  0.6913
 3783TIP3    H235545   2.181   0.678  11.845  1.7666  0.1246 -0.1898
 3784TIP3   OH235546   4.966   4.005  10.340  0.6756  0.2104  0.1809
 3784TIP3    H135547   4.996   3.994  10.250 -0.2380  1.0029 -0.2360
 3784TIP3    H235548   5.043   3.984  10.394  1.4401  0.4331 -0.7945
 3785TIP3   OH235549   2.270   3.347   9.454 -0.1271 -0.5140 -0.0462
 3785TIP3    H135550   2.272   3.290   9.531  0.3017  0.8358  0.9690
 3785TIP3    H235551   2.179   3.348   9.427 -0.4948 -0.1152  1.1417
 3786TIP3   OH235552   6.079   1.558  10.692 -1.1408 -0.1243  0.2193
 3786TIP3    H135553   6.117   1.641  10.720  0.1649 -0.9341  0.9204
 3786TIP3    H235554   6.106   1.549  10.601 -1.9733  0.5838 -0.1136
 3787TIP3   OH235555   2.587   2.422  12.911  0.2998 -0.2055  0.6137
 3787TIP3    H135556   2.667   2.416  12.964 -0.2223 -0.6973  1.3727
 3787TIP3    H235557   2.599   2.356  12.843  0.5645 -0.2443  0.6967
 3788TIP3   OH235558   1.538   4.311  10.131 -0.1417 -0.7513 -0.8883
 3788TIP3    H135559   1.455   4.358  10.140 -1.1537 -2.6761  0.4136
 3788TIP3    H235560   1.604   4.372  10.164 -1.5321 -0.5236  1.7606
 3789TIP3   OH235561   1.564   5.300  12.582  0.1595  0.0269  0.2458
 3789TIP3    H135562   1.623   5.304  12.507 -0.3131  0.5447 -0.1009
 3789TIP3    H235563   1.502   5.231  12.559 -0.8223  1.1107 -0.4694
 3790TIP3   OH235564   6.342   5.226  10.942 -0.7193 -0.3687  0.0789
 3790TIP3    H135565   6.323   5.189  11.028  0.3610  0.0743  0.5282
 3790TIP3    H235566   6.377   5.313  10.960 -0.0775 -0.4297 -0.7804
 3791TIP3   OH235567   1.613   6.541  12.400  0.2160 -0.2359 -0.0673
 3791TIP3    H135568   1.518   6.532  12.407 -0.1445  1.4452 -1.8608
 3791TIP3    H235569   1.643   6.455  12.370 -0.6773 -0.8790  0.8306
 3792TIP3   OH235570   4.608   6.672  11.780  0.0103 -0.3725 -0.0953
 3792TIP3    H135571   4.591   6.707  11.693  0.7259  0.4774  0.0974
 3792TIP3    H235572   4.558   6.729  11.839  0.8355  0.0870  0.1816
 3793TIP3   OH235573   1.088   4.073  12.322  0.1920  0.5134  0.1910
 3793TIP3    H135574   0.997   4.065  12.292 -0.5004  0.4419  2.1274
 3793TIP3    H235575   1.108   3.987  12.359  0.9486  0.6279  0.0578
 3794TIP3   OH235576   2.769   1.675  12.833 -0.4050  0.2882  0.2876
 3794TIP3    H135577   2.712   1.614  12.880 -1.6556  0.8648 -0.4185
 3794TIP3    H235578   2.842   1.622  12.803 -1.0817 -0.7056  0.3565
 3795TIP3   OH235579   4.154   3.181  10.414 -0.2941 -0.5229  0.1522
 3795TIP3    H135580   4.187   3.109  10.468  0.8551 -0.7304 -0.7862
 3795TIP3    H235581   4.219   3.190  10.343  0.4992  2.4728  1.0791
 3796TIP3   OH235582   2.240   3.861  12.522 -0.1794  0.0519  0.0948
 3796TIP3    H135583   2.158   3.812  12.519  0.0579 -0.3815  0.5800
 3796TIP3    H235584   2.268   3.865  12.431 -1.4370  1.4120 -0.2605
 3797TIP3   OH235585   4.267   0.078  11.744 -0.3820  0.1489 -0.3445
 3797TIP3    H135586   4.275   0.120  11.829  1.7308  0.8921 -0.8498
 3797TIP3    H235587   4.197   0.014  11.755 -1.8248  1.9120  1.2229
 3798TIP3   OH235588   2.054   6.232  10.143 -0.3552  0.2345  0.0141
 3798TIP3    H135589   2.083   6.302  10.085 -1.2863  0.6929  0.0806
 3798TIP3    H235590   1.978   6.193  10.098  0.0109 -0.5801  0.0838
 3799TIP3   OH235591   1.867   0.311  10.951  0.5223  0.3293 -0.0662
 3799TIP3    H135592   1.794   0.357  10.993 -0.5029 -0.1252 -1.2666
 3799TIP3    H235593   1.874   0.351  10.864  1.2216 -0.1388 -0.2323
 3800TIP3   OH235594   3.323   6.702  12.598 -0.0770  0.0679  0.4781
 3800TIP3    H135595   3.412   6.685  12.567  0.2963  1.0850  0.9476
 3800TIP3    H235596   3.267   6.646  12.543  0.7450  0.2636 -0.5875
 3801TIP3   OH235597   6.571   0.277  12.936 -0.0975 -0.3021  0.0627
 3801TIP3    H135598   6.664   0.268  12.956 -0.1382 -1.2371 -0.1156
 3801TIP3    H235599   6.543   0.355  12.984  0.5791 -0.5333  0.8476
 3802TIP3   OH235600   0.851   4.462  10.591 -0.6806 -0.0758 -0.0339
 3802TIP3    H135601   0.772   4.409  10.575 -0.5102 -0.9463  1.7755
 3802TIP3    H235602   0.904   4.409  10.650  1.5200  0.3008 -1.5623
 3803TIP3   OH235603   4.463   6.791  11.559  0.0867 -0.0674 -0.5306
 3803TIP3    H135604   4.403   6.833  11.620 -0.6964 -1.9989  0.1299
 3803TIP3    H235605   4.509   6.863  11.516 -1.1267  1.4106  0.5394
 3804TIP3   OH235606   1.272   4.814  12.706  0.3300  0.6306 -0.4175
 3804TIP3    H135607   1.314   4.773  12.781 -0.0287 -0.4826 -0.8052
 3804TIP3    H235608   1.278   4.908  12.723  0.0901  0.3904  1.0743
 3805TIP3   OH235609   3.364   3.826  12.042 -0.3448 -0.1891 -0.1188
 3805TIP3    H135610   3.443   3.773  12.027  0.0745 -0.1583  1.6796
 3805TIP3    H235611   3.302   3.766  12.082  0.1295  0.5990  1.9364
 3806TIP3   OH235612   6.431   5.399  12.140 -0.0456 -0.6881  0.0052
 3806TIP3    H135613   6.396   5.410  12.052 -0.0158 -1.3955 -0.1021
 3806TIP3    H235614   6.525   5.410  12.130 -0.2311  2.1479  0.4430
 3807TIP3   OH235615   1.903   2.853  11.566 -0.0667 -0.3176 -0.2788
 3807TIP3    H135616   1.871   2.784  11.624 -1.0314 -0.3770 -0.8543
 3807TIP3    H235617   1.915   2.929  11.622 -1.4401 -0.2376 -0.0676
 3808TIP3   OH235618   6.066   0.992  12.343  0.0563  0.2382 -1.0263
 3808TIP3    H135619   6.125   1.034  12.405 -0.4758  0.5632 -0.7362
 3808TIP3    H235620   5.984   1.040  12.351 -0.7612 -1.2078 -0.2555
 3809TIP3   OH235621   0.497   3.645  11.074  0.5028  0.7300 -0.4016
 3809TIP3    H135622   0.581   3.619  11.113  0.2391  0.2870 -0.1288
 3809TIP3    H235623   0.478   3.575  11.011  1.4948  1.9865 -2.2159
 3810TIP3   OH235624   2.251   3.814  11.783 -0.1384 -0.1248  0.0389
 3810TIP3    H135625   2.258   3.842  11.692 -1.3517 -2.6195 -0.8886
 3810TIP3    H235626   2.240   3.896  11.832 -0.1867  1.2234 -2.0973
 3811TIP3   OH235627   6.566   1.033  12.204  0.1314 -0.3969 -0.2746
 3811TIP3    H135628   6.570   1.100  12.135 -0.0910 -0.8285 -0.7101
 3811TIP3    H235629   6.658   1.015  12.224  0.1952  0.0504 -0.1375
 3812TIP3   OH235630   1.173   1.743  10.947 -0.0444  0.2949  0.2002
 3812TIP3    H135631   1.132   1.767  11.029  0.7408  0.4105  0.5731
 3812TIP3    H235632   1.105   1.754  10.881 -0.2115  1.8072  0.6016
 3813TIP3   OH235633   5.919   1.889  11.314 -0.1175 -0.0937  0.6039
 3813TIP3    H135634   5.965   1.966  11.281  0.7501 -1.1641 -0.7767
 3813TIP3    H235635   5.872   1.855  11.238  0.7918 -1.8152  0.7798
 3814TIP3   OH235636   0.963   0.257  12.691 -0.3446 -0.0501  0.0959
 3814TIP3    H135637   1.041   0.287  12.644 -0.0026 -0.4150  0.4229
 3814TIP3    H235638   0.995   0.234  12.778 -1.1479  1.6789  0.9000
 3815TIP3   OH235639   3.212   0.157  11.338 -0.1512 -0.1033 -0.6364
 3815TIP3    H135640   3.249   0.100  11.271 -1.7168  0.4337 -2.0382
 3815TIP3    H235641   3.117   0.142  11.332 -0.3390  0.0062  1.4442
 3816TIP3   OH235642   2.778   4.373  10.070  0.0348 -0.4676  0.6713
 3816TIP3    H135643   2.779   4.437  10.141  0.6672  0.8207 -0.4425
 3816TIP3    H235644   2.869   4.345  10.062  0.4173  1.0439 -0.9930
 3817TIP3   OH235645   0.795   3.009  10.368 -0.2571  0.5026 -0.5037
 3817TIP3    H135646   0.738   3.064  10.315  0.5413  0.7137 -1.1442
 3817TIP3    H235647   0.800   2.926  10.321  0.1519  0.5613 -0.5632
 3818TIP3   OH235648   2.216   5.600  10.661 -0.5139  0.4105 -0.3953
 3818TIP3    H135649   2.298   5.583  10.615 -0.9788  1.3005 -1.6085
 3818TIP3    H235650   2.184   5.513  10.687  0.0593 -0.0758 -1.2581
 3819TIP3   OH235651   0.377   5.514  11.387 -0.8213  0.8722  0.1379
 3819TIP3    H135652   0.356   5.430  11.429 -0.0161  1.0115  0.8424
 3819TIP3    H235653   0.292   5.547  11.357 -1.1036 -0.3996 -0.5692
 3820TIP3   OH235654   2.919   1.968  10.437  0.6722  0.2545 -0.4903
 3820TIP3    H135655   2.891   1.885  10.397  0.5535  0.0009  0.1073
 3820TIP3    H235656   2.837   2.009  10.466  0.5891  1.2772 -2.0788
 3821TIP3   OH235657   0.731   0.172  11.643 -0.0814  0.4388 -0.0816
 3821TIP3    H135658   0.787   0.202  11.715  0.6661 -0.6193 -0.1942
 3821TIP3    H235659   0.790   0.168  11.568 -0.8890  1.6850 -0.8103
 3822TIP3   OH235660   3.136   0.705  10.558  0.2349  0.0196  0.0316
 3822TIP3    H135661   3.180   0.751  10.629 -1.1400 -0.0042  0.9267
 3822TIP3    H235662   3.141   0.766  10.484 -1.5783  1.7060  1.2020
 3823TIP3   OH235663   0.747   4.443  11.187 -0.3053 -0.0051  0.0945
 3823TIP3    H135664   0.767   4.524  11.235 -1.6284  1.2128 -1.2888
 3823TIP3    H235665   0.780   4.373  11.243 -0.1606  1.4337  1.9050
 3824TIP3   OH235666   6.230   3.278  12.269  0.3581  0.1969  0.0388
 3824TIP3    H135667   6.284   3.357  12.274  0.1246  0.2843  1.4829
 3824TIP3    H235668   6.151   3.306  12.221  0.5234  0.6974  0.0503
 3825TIP3   OH235669   0.212   4.737  10.398  0.4557 -0.9957  0.0916
 3825TIP3    H135670   0.132   4.716  10.447  0.1518 -2.1612 -0.8769
 3825TIP3    H235671   0.184   4.742  10.307  1.4242 -0.9931 -0.2183
 3826TIP3   OH235672   5.035   5.713  12.089 -0.0926  0.1772 -0.2585
 3826TIP3    H135673   5.059   5.800  12.121 -0.6821  0.4501 -0.5432
 3826TIP3    H235674   4.978   5.676  12.156  1.1254 -0.4971  0.4472
 3827TIP3   OH235675   2.806   4.066  11.325  0.0563  0.5706 -0.6187
 3827TIP3    H135676   2.789   4.053  11.418  1.0843  0.7266 -0.3979
 3827TIP3    H235677   2.901   4.068  11.318  0.0456 -1.2279 -1.9236
 3828TIP3   OH235678   4.725   2.537  10.907  0.0516  0.3766  0.1880
 3828TIP3    H135679   4.680   2.503  10.985 -0.4347  0.2243 -0.1536
 3828TIP3    H235680   4.701   2.629  10.905  0.0475  0.3762  0.2067
 3829TIP3   OH235681   2.647   1.343  10.905 -0.3169 -0.6973  0.4749
 3829TIP3    H135682   2.575   1.288  10.875  1.0439 -1.4963 -1.5938
 3829TIP3    H235683   2.605   1.424  10.933 -2.1895 -1.9769  1.6061
 3830TIP3   OH235684   2.032   2.887  13.009 -0.3277 -0.3034  0.0348
 3830TIP3    H135685   1.995   2.965  13.052  0.8467  0.9137 -1.0872
 3830TIP3    H235686   1.979   2.876  12.930  0.2549  0.0892 -0.4180
 3831TIP3   OH235687   1.983   2.554  12.209  1.3577 -0.0955  0.1466
 3831TIP3    H135688   1.916   2.609  12.167  0.2101 -1.3869  0.1888
 3831TIP3    H235689   1.984   2.583  12.300  2.9821  1.8934 -0.4413
 3832TIP3   OH235690   5.387   3.514  12.785  0.0706  0.3384 -0.0094
 3832TIP3    H135691   5.320   3.451  12.810 -1.7489  0.8792 -3.0072
 3832TIP3    H235692   5.360   3.596  12.826  0.5125 -0.0383  1.0701
 3833TIP3   OH235693   6.576   1.871  12.821  0.0626 -0.0110 -0.3472
 3833TIP3    H135694   6.545   1.959  12.798  0.5946  0.0765 -0.7722
 3833TIP3    H235695   6.517   1.842  12.891 -0.6618  0.3339 -0.7968
 3834TIP3   OH235696   6.535   1.252  10.580  0.4741  0.0915 -0.1545
 3834TIP3    H135697   6.474   1.229  10.651  1.6164 -1.2630  0.4570
 3834TIP3    H235698   6.526   1.346  10.570 -2.2444 -0.1364 -0.6109
 3835TIP3   OH235699   5.005   3.549  11.166  0.1862 -0.4460 -0.6696
 3835TIP3    H135700   5.007   3.474  11.226  0.3303 -0.8750 -1.2109
 3835TIP3    H235701   5.024   3.512  11.080 -0.8662  0.0277 -1.1253
 3836TIP3   OH235702   1.958   1.675  11.099  0.1073  0.5565  0.4719
 3836TIP3    H135703   2.026   1.636  11.154 -0.8051 -0.5937  0.8424
 3836TIP3    H235704   1.876   1.655  11.145 -0.4591  2.4912  0.3859
 3837TIP3   OH235705   4.195   6.404  11.265 -0.7762 -0.0789  0.0771
 3837TIP3    H135706   4.226   6.314  11.272 -1.7686 -0.7537 -2.9003
 3837TIP3    H235707   4.241   6.451  11.335  2.3167 -2.1917 -0.3674
 3838TIP3   OH235708   3.343   3.146  11.873  0.4124 -0.6514  0.6029
 3838TIP3    H135709   3.317   3.152  11.781 -0.9085  1.3264  1.0325
 3838TIP3    H235710   3.428   3.102  11.871  0.8114  0.0729 -1.6489
 3839TIP3   OH235711   0.202   4.007  12.573  0.0189  0.3071 -0.3517
 3839TIP3    H135712   0.195   4.032  12.665  1.3657 -1.3669  0.2741
 3839TIP3    H235713   0.112   3.998  12.543 -0.5116 -1.4601  1.5401
 3840TIP3   OH235714   2.788   6.142  11.713  0.3551 -0.7716  0.1491
 3840TIP3    H135715   2.705   6.144  11.664  0.0044 -0.2289  0.7549
 3840TIP3    H235716   2.846   6.089  11.659  0.2013  0.3967 -1.2345
 3841TIP3   OH235717   5.284   1.657  10.576  0.2537 -0.0401 -0.6673
 3841TIP3    H135718   5.210   1.604  10.548 -0.2089  0.8815 -1.2374
 3841TIP3    H235719   5.358   1.596  10.576 -0.5311 -1.0388  0.1616
 3842TIP3   OH235720   4.674   4.211  12.251  0.2462  0.1471  0.1180
 3842TIP3    H135721   4.666   4.306  12.241  0.1505  0.3530  1.8508
 3842TIP3    H235722   4.754   4.199  12.302  0.1481 -0.6906  0.0879
 3843TIP3   OH235723   1.339   2.857  10.744 -0.0407 -0.0382  0.2325
 3843TIP3    H135724   1.428   2.858  10.778  0.1086 -0.9677 -0.1199
 3843TIP3    H235725   1.349   2.868  10.649 -0.2836 -0.4813  0.1547
 3844TIP3   OH235726   3.423   6.564  11.984  0.0573 -0.8042 -0.1903
 3844TIP3    H135727   3.439   6.469  11.986  1.5232 -0.5827 -0.2669
 3844TIP3    H235728   3.382   6.583  12.069  1.0791 -1.3062  0.4381
 3845TIP3   OH235729   1.694   6.168  12.929 -0.1753 -0.3949 -0.2280
 3845TIP3    H135730   1.701   6.243  12.870  0.1215  0.1201  0.4515
 3845TIP3    H235731   1.608   6.178  12.971  0.5247  0.4878  1.0677
 3846TIP3   OH235732   2.667   4.989   8.741 -0.4915  0.7416 -0.5342
 3846TIP3    H135733   2.712   4.989   8.826 -0.3558  0.5316 -0.6046
 3846TIP3    H235734   2.734   4.961   8.679 -1.2685 -1.7989 -0.3412
 3847TIP3   OH235735   4.894   6.748  11.194 -0.0466  0.1036 -0.6240
 3847TIP3    H135736   4.850   6.752  11.109 -1.1555  2.2084 -0.0218
 3847TIP3    H235737   4.830   6.708  11.253  0.1927 -0.0872 -0.4933
 3848TIP3   OH235738   5.100   1.684  11.121 -0.0945  0.4450 -0.0024
 3848TIP3    H135739   5.157   1.760  11.109 -2.1845  2.6643  2.9655
 3848TIP3    H235740   5.159   1.615  11.153  1.5004  1.3860 -0.7588
 3849TIP3   OH235741   1.763   5.421  10.914  0.1579  0.2590  0.4204
 3849TIP3    H135742   1.801   5.402  10.828 -0.8085 -0.2215  0.0849
 3849TIP3    H235743   1.756   5.516  10.916 -1.5412  0.2130 -0.8391
 3850TIP3   OH235744   4.538   5.687  12.459  0.0313 -0.0686  0.0849
 3850TIP3    H135745   4.560   5.773  12.422 -1.2202  0.3903  0.3744
 3850TIP3    H235746   4.446   5.674  12.436  0.0032 -0.9990  0.6980
 3851TIP3   OH235747   6.025   2.512  11.050  0.1271 -0.3820  0.1269
 3851TIP3    H135748   6.038   2.602  11.019 -0.2020 -0.7571 -1.1979
 3851TIP3    H235749   6.088   2.501  11.121  0.3424  0.8209  0.1316
 3852TIP3   OH235750   3.323   3.298  10.957 -0.1121 -0.0031  0.2057
 3852TIP3    H135751   3.375   3.350  10.896  0.5081  0.0088  0.7391
 3852TIP3    H235752   3.350   3.207  10.941  1.6510  0.1616  1.9215
 3853TIP3   OH235753   1.418   3.898  12.336  0.3625  0.0879  0.9484
 3853TIP3    H135754   1.449   3.986  12.358  1.7321  0.1434 -0.9205
 3853TIP3    H235755   1.441   3.844  12.411  2.0544  0.8101  0.9828
 3854TIP3   OH235756   3.584   0.700  12.425 -0.2773  0.3433 -0.1773
 3854TIP3    H135757   3.555   0.789  12.445  0.4825  0.4410  0.5454
 3854TIP3    H235758   3.638   0.675  12.500  1.5340  0.1919 -1.4608
 3855TIP3   OH235759   2.074   0.407  12.498 -0.2762 -0.1394  0.8705
 3855TIP3    H135760   2.002   0.431  12.441 -0.4417 -1.4285  0.5195
 3855TIP3    H235761   2.049   0.441  12.584 -0.5939  0.7136  0.4571
 3856TIP3   OH235762   6.499   2.778  10.779  0.4092  0.1314  0.5280
 3856TIP3    H135763   6.488   2.749  10.688  1.9605 -0.4094  0.4911
 3856TIP3    H235764   6.439   2.853  10.787 -1.4530 -1.1974 -0.2360
 3857TIP3   OH235765   3.904   5.578  10.325  0.0394  0.1664 -0.3357
 3857TIP3    H135766   3.911   5.574  10.420  0.3088 -2.4950 -0.4115
 3857TIP3    H235767   3.829   5.524  10.303  0.1250  0.5349 -1.6641
 3858TIP3   OH235768   6.708   4.081  10.451 -0.3561  0.5378  0.4595
 3858TIP3    H135769   6.716   4.172  10.424  0.2086  0.1274 -0.8177
 3858TIP3    H235770   6.799   4.052  10.465 -0.4961  0.0364  0.3725
 3859TIP3   OH235771   2.553   0.540  11.938  0.0773 -0.2967 -0.2190
 3859TIP3    H135772   2.556   0.446  11.958 -0.1541 -0.1834  0.3695
 3859TIP3    H235773   2.598   0.582  12.011 -0.0598  0.0688 -0.3396
 3860TIP3   OH235774   3.610   5.378  10.886  0.2176  0.2728 -0.9492
 3860TIP3    H135775   3.612   5.314  10.815  0.5000  1.2651 -1.8591
 3860TIP3    H235776   3.546   5.343  10.948  3.4449 -3.2605  0.8613
 3861TIP3   OH235777   5.337   3.988  11.900  0.7426 -0.9164  0.0533
 3861TIP3    H135778   5.362   3.930  11.828 -0.1044 -1.0589 -0.1356
 3861TIP3    H235779   5.306   4.068  11.858 -0.5166 -1.3049  0.2263
 3862TIP3   OH235780   1.454   6.077  12.000  0.3485 -0.2494 -0.0630
 3862TIP3    H135781   1.546   6.104  11.996  0.5538 -1.0155 -0.7186
 3862TIP3    H235782   1.447   6.007  11.935 -0.8998  0.3834 -0.6303
 3863TIP3   OH235783   0.586   5.272  10.652 -0.3153 -0.3196  0.3656
 3863TIP3    H135784   0.515   5.208  10.650 -0.1825 -0.4755  0.5400
 3863TIP3    H235785   0.587   5.310  10.564 -2.2262  1.4883  1.0586
 3864TIP3   OH235786   0.864   3.876  12.246  0.5170 -0.3451  0.1166
 3864TIP3    H135787   0.797   3.813  12.219 -0.3207 -0.2414  1.8216
 3864TIP3    H235788   0.947   3.834  12.222 -0.0938 -1.1414 -0.6885
 3865TIP3   OH235789   5.862   3.755   9.869  0.4562 -0.5417  0.2640
 3865TIP3    H135790   5.877   3.820   9.937 -2.0704 -2.1380  2.5389
 3865TIP3    H235791   5.822   3.804   9.797  1.0046  0.7943  0.8370
 3866TIP3   OH235792   0.867   2.313  10.899 -0.1470  0.3908  0.8544
 3866TIP3    H135793   0.903   2.396  10.869  0.6436  0.0135  0.7124
 3866TIP3    H235794   0.795   2.295  10.840 -0.1154  0.8167  0.6819
 3867TIP3   OH235795   3.883   5.165  11.422  0.3468  0.1015 -0.1293
 3867TIP3    H135796   3.795   5.129  11.412  0.8295 -1.3487  0.6420
 3867TIP3    H235797   3.869   5.249  11.467 -0.6289 -0.2005  0.1643
 3868TIP3   OH235798   1.340   6.350  11.091  0.2529  0.4737  0.2928
 3868TIP3    H135799   1.311   6.307  11.172 -0.4275  1.6239  0.6761
 3868TIP3    H235800   1.267   6.406  11.066  1.8078  2.9739  0.9325
 3869TIP3   OH235801   5.032   2.741  11.326  0.7777  0.2487  0.4603
 3869TIP3    H135802   5.007   2.756  11.235  0.5123 -0.5982  0.3804
 3869TIP3    H235803   5.122   2.772  11.331  0.7880  0.3291 -0.0863
 3870TIP3   OH235804   3.578   4.905  10.700  0.3147 -0.5314  0.3450
 3870TIP3    H135805   3.486   4.881  10.715  0.4177 -0.9138  0.3555
 3870TIP3    H235806   3.575   4.959  10.620 -0.1255  0.8252  1.2333
 3871TIP3   OH235807   1.202   4.890  10.651 -0.1804  0.5132 -0.3294
 3871TIP3    H135808   1.116   4.861  10.681 -1.2242  3.8292  0.2950
 3871TIP3    H235809   1.219   4.970  10.702  2.5154  0.8808 -1.6493
 3872TIP3   OH235810   6.670   5.606  10.910  0.2688  0.0506  0.1961
 3872TIP3    H135811   6.681   5.564  10.824 -0.6567 -1.6392  0.8380
 3872TIP3    H235812   6.749   5.583  10.958 -0.2002 -0.9702  0.5187
 3873TIP3   OH235813   1.825   5.912  11.298  0.3607 -0.3957 -0.1852
 3873TIP3    H135814   1.831   5.989  11.355 -0.0857 -0.1041 -0.5209
 3873TIP3    H235815   1.758   5.858  11.339  0.7208 -0.6416  0.0863
 3874TIP3   OH235816   1.286   2.566  10.468 -0.1503 -0.2963  0.3446
 3874TIP3    H135817   1.323   2.639  10.418 -1.9693  0.3255 -0.1807
 3874TIP3    H235818   1.327   2.573  10.554  1.9027 -0.4630 -0.5520
 3875TIP3   OH235819   1.956   5.095  13.441 -0.5867  0.1073 -0.0057
 3875TIP3    H135820   2.031   5.067  13.493 -0.1709 -0.2256 -0.7667
 3875TIP3    H235821   1.928   5.177  13.481 -2.0373 -1.4891  2.4827
 3876TIP3   OH235822   5.192   6.608  10.740 -0.0321  0.0390  0.0707
 3876TIP3    H135823   5.194   6.703  10.739 -0.2894  0.0588  0.8538
 3876TIP3    H235824   5.196   6.583  10.647 -0.2225  0.8089 -0.1527
 3877TIP3   OH235825   5.101   3.931  11.711  0.4560  0.2462 -0.2473
 3877TIP3    H135826   5.041   3.996  11.746  0.9324  0.3975  0.2997
 3877TIP3    H235827   5.155   3.979  11.648  0.6386  0.3271 -0.0305
 3878TIP3   OH235828   6.719   4.352  10.363  0.0803  0.4380  0.1895
 3878TIP3    H135829   6.717   4.401  10.280 -0.4801  1.9936  1.0796
 3878TIP3    H235830   6.638   4.379  10.407 -0.7619 -2.0728  0.3186
 3879TIP3   OH235831   1.826   2.272   9.644  0.2182 -0.7647 -0.1884
 3879TIP3    H135832   1.907   2.255   9.596  0.5994  0.7020 -0.1188
 3879TIP3    H235833   1.756   2.240   9.587  0.7944 -1.3735 -0.5686
 3880TIP3   OH235834   5.737   5.652  11.976  0.3068 -0.0019 -0.5886
 3880TIP3    H135835   5.692   5.681  12.055 -0.1822 -1.2822 -0.3662
 3880TIP3    H235836   5.759   5.733  11.929 -1.5297  0.7006 -0.3172
 3881TIP3   OH235837   2.653   1.438  11.879 -0.2741  0.1186 -0.1484
 3881TIP3    H135838   2.672   1.527  11.906 -2.5287  0.4471  0.5931
 3881TIP3    H235839   2.564   1.421  11.912  0.6457 -2.9510  1.1429
 3882TIP3   OH235840   6.344   4.924   9.937  0.0262  0.3798  0.1016
 3882TIP3    H135841   6.431   4.962   9.924  0.2087  0.0205  0.2558
 3882TIP3    H235842   6.345   4.844   9.884 -0.5541  0.8734 -0.6807
 3883TIP3   OH235843   2.968   6.356  10.621 -0.4236  0.1181  0.1019
 3883TIP3    H135844   2.890   6.321  10.663 -0.3336  0.4880  0.5806
 3883TIP3    H235845   2.958   6.451  10.628 -0.6477  0.2065 -1.1408
 3884TIP3   OH235846   0.516   3.501  10.567 -0.7175 -0.2969 -0.3951
 3884TIP3    H135847   0.586   3.481  10.629 -1.2288 -0.5916  0.0895
 3884TIP3    H235848   0.472   3.417  10.552 -0.7559 -0.1797 -0.9585
 3885TIP3   OH235849   2.855   3.443   9.351  0.1171 -0.6942  0.1758
 3885TIP3    H135850   2.764   3.419   9.371  0.0166 -0.2797  0.2358
 3885TIP3    H235851   2.854   3.468   9.259  0.5884 -2.6392 -0.4082
 3886TIP3   OH235852   3.117   0.166  10.955  0.2308 -0.0667  0.6202
 3886TIP3    H135853   3.150   0.253  10.934  0.4690 -0.1542  0.6320
 3886TIP3    H235854   3.031   0.182  10.996 -0.1164  0.1100 -0.1682
 3887TIP3   OH235855   1.889   1.659  10.805  0.3179  0.1986 -0.7113
 3887TIP3    H135856   1.885   1.695  10.893  0.7584  0.9590 -0.9895
 3887TIP3    H235857   1.872   1.565  10.816 -0.1107  0.3664  0.1162
 3888TIP3   OH235858   2.707   1.411  13.275  0.5029 -0.4023 -0.2812
 3888TIP3    H135859   2.677   1.490  13.320  0.9610  0.6513 -1.7410
 3888TIP3    H235860   2.652   1.341  13.311  0.2643  0.5172  1.2438
 3889TIP3   OH235861   4.927   5.741  11.259 -0.0956 -0.0489  0.5966
 3889TIP3    H135862   4.968   5.772  11.179  0.6154 -0.6688  0.7186
 3889TIP3    H235863   4.950   5.807  11.325  1.9105 -1.0557  0.9923
 3890TIP3   OH235864   1.927   1.845  10.598  0.5722 -0.4146  0.1078
 3890TIP3    H135865   1.922   1.797  10.680 -1.5227 -0.2836  0.1063
 3890TIP3    H235866   1.876   1.925  10.614  2.3989  0.9495 -0.4836
 3891TIP3   OH235867   5.270   0.508  11.316  0.1912 -0.3483  0.2418
 3891TIP3    H135868   5.219   0.493  11.395 -1.0621 -0.3334 -0.5304
 3891TIP3    H235869   5.207   0.497  11.244  0.6786  2.1013 -0.6657
 3892TIP3   OH235870   0.639   5.045  11.559 -0.0422 -0.2405  0.3457
 3892TIP3    H135871   0.553   5.002  11.560  1.2289 -2.9938  0.7944
 3892TIP3    H235872   0.647   5.084  11.646 -0.5680 -0.5462  0.5374
 3893TIP3   OH235873   2.819   0.778  10.550  0.3363  1.3733  0.3583
 3893TIP3    H135874   2.822   0.740  10.462  1.2721  1.5531  0.3060
 3893TIP3    H235875   2.909   0.777  10.580  0.1328  2.0081  1.0259
 3894TIP3   OH235876   6.802   2.139  11.837 -0.6327 -0.6518  0.4227
 3894TIP3    H135877   6.785   2.216  11.891 -1.2838 -1.3209  1.2032
 3894TIP3    H235878   6.814   2.174  11.748 -5.1294  0.1196 -0.1262
 3895TIP3   OH235879   4.744   4.399  11.896  0.3076 -0.1292  0.4119
 3895TIP3    H135880   4.757   4.356  11.812  1.7746 -0.9026  1.0107
 3895TIP3    H235881   4.783   4.486  11.885  0.2370 -0.1228  0.2094
 3896TIP3   OH235882   2.313   5.804  11.897  0.3259  0.5661  0.7010
 3896TIP3    H135883   2.227   5.775  11.868  0.2822  0.5784  0.8167
 3896TIP3    H235884   2.374   5.742  11.858  0.2899  0.7354  0.3708
 3897TIP3   OH235885   6.471   3.427  10.533 -0.1117 -0.1680 -0.3204
 3897TIP3    H135886   6.385   3.396  10.560 -0.0696  0.3146  0.3943
 3897TIP3    H235887   6.522   3.431  10.614  1.1037 -1.9893 -0.9343
 3898TIP3   OH235888   4.197   4.174  12.955 -0.2546 -0.3728 -0.6249
 3898TIP3    H135889   4.187   4.081  12.976 -1.1588  0.3125  2.5178
 3898TIP3    H235890   4.114   4.197  12.913 -0.7289 -0.6807  0.1032
 3899TIP3   OH235891   5.458   4.951  11.184 -0.0748 -0.0878  0.0632
 3899TIP3    H135892   5.429   4.880  11.242 -2.7103  0.6677 -0.1958
 3899TIP3    H235893   5.402   4.944  11.107  1.9506  0.2163 -1.5339
 3900TIP3   OH235894   4.071   0.819  11.232  0.4614  0.2016 -0.0243
 3900TIP3    H135895   4.121   0.898  11.215 -0.8894  0.9195 -0.8842
 3900TIP3    H235896   4.011   0.844  11.303  0.2482 -0.1437 -0.0802
 3901TIP3   OH235897   2.473   6.289  11.852  0.1011  0.0004 -0.6096
 3901TIP3    H135898   2.547   6.299  11.793  0.5891  0.1696  0.0174
 3901TIP3    H235899   2.470   6.195  11.871  1.3021  0.2056  0.7824
 3902TIP3   OH235900   0.072   2.422  10.118  0.0009  0.5569 -0.0360
 3902TIP3    H135901  -0.022   2.422  10.100 -0.0075  1.3298 -0.0000
 3902TIP3    H235902   0.105   2.343  10.075 -1.0698 -1.1339  2.0600
 3903TIP3   OH235903   4.179   6.262  11.582 -0.1039  0.3975 -0.3252
 3903TIP3    H135904   4.117   6.303  11.522  1.2549  2.1666 -0.6073
 3903TIP3    H235905   4.151   6.289  11.669  1.4439  3.1084 -0.5547
 3904TIP3   OH235906   4.315   4.408  13.011  0.1566  0.4711 -0.4557
 3904TIP3    H135907   4.368   4.394  12.933  0.3197  0.0253 -0.2659
 3904TIP3    H235908   4.269   4.325  13.024  1.9288 -0.3277  1.2921
 3905TIP3   OH235909   1.462   0.050  10.469  0.1645  0.2772  0.4224
 3905TIP3    H135910   1.464   0.032  10.375 -0.7149 -0.2189  0.4891
 3905TIP3    H235911   1.369   0.061  10.490  0.2693 -0.5626  1.4129
 3906TIP3   OH235912   2.746   5.557  12.688  0.2972 -0.1362  0.4767
 3906TIP3    H135913   2.736   5.590  12.777 -1.6159  0.7601 -0.0207
 3906TIP3    H235914   2.711   5.627  12.632 -2.0124 -2.1045 -0.7349
 3907TIP3   OH235915   2.599   4.750  10.292 -0.3716  0.2321  0.0037
 3907TIP3    H135916   2.582   4.751  10.198  0.4808  1.2142 -0.1663
 3907TIP3    H235917   2.687   4.713  10.299 -0.2582  0.5589  0.3609
 3908TIP3   OH235918   5.268   4.191  10.919  0.0361  0.6583 -0.1376
 3908TIP3    H135919   5.303   4.269  10.875  0.1040  0.6249 -0.1436
 3908TIP3    H235920   5.344   4.152  10.962  0.2235 -0.0221 -1.0512
 3909TIP3   OH235921   3.690   1.736  10.393  0.2667  0.3515  0.5284
 3909TIP3    H135922   3.768   1.686  10.417  0.0543 -1.4175 -2.0184
 3909TIP3    H235923   3.721   1.799  10.329 -0.1292  0.8172  0.7908
 3910TIP3   OH235924   6.396   1.558  13.556 -0.6680 -0.3305 -0.0845
 3910TIP3    H135925   6.309   1.575  13.591 -0.3276  0.2167  0.5105
 3910TIP3    H235926   6.399   1.463  13.543 -0.4162 -0.7301  2.4489
 3911TIP3   OH235927   0.858   4.733  12.162 -0.3354 -0.2088 -0.0458
 3911TIP3    H135928   0.920   4.761  12.229  0.0440 -1.0194 -0.0534
 3911TIP3    H235929   0.898   4.656  12.122 -1.5906 -1.0982  0.3344
 3912TIP3   OH235930   6.590   3.803  10.980 -0.1648  0.0701 -0.4423
 3912TIP3    H135931   6.616   3.884  10.937  0.3858 -0.2673 -0.7583
 3912TIP3    H235932   6.658   3.740  10.957 -1.1432 -0.7948 -1.1267
 3913TIP3   OH235933   4.252   0.468  11.038  0.0831  0.0246 -0.1902
 3913TIP3    H135934   4.201   0.395  11.002  0.4296  0.3006 -1.2716
 3913TIP3    H235935   4.217   0.480  11.126 -0.7225 -0.7403 -0.3893
 3914TIP3   OH235936   1.102   1.575   9.499 -0.3077  0.2659 -0.6009
 3914TIP3    H135937   1.069   1.657   9.461 -0.3166 -0.2113 -1.6388
 3914TIP3    H235938   1.094   1.511   9.429 -1.9416 -1.0730  0.7208
 3915TIP3   OH235939   3.642   6.692  10.772 -0.2388  0.4549  0.1546
 3915TIP3    H135940   3.566   6.658  10.820 -1.5367  0.0102 -2.0590
 3915TIP3    H235941   3.706   6.622  10.775 -1.2390 -0.5379 -0.7351
 3916TIP3   OH235942   4.768   5.437  10.502 -0.2809 -0.2612  0.2179
 3916TIP3    H135943   4.693   5.379  10.521  0.9498 -1.1305  2.8906
 3916TIP3    H235944   4.841   5.377  10.489  0.2071  0.6269 -1.4831
 3917TIP3   OH235945   2.018   4.227  12.755 -0.3536  0.0412  0.1307
 3917TIP3    H135946   2.045   4.312  12.720 -2.6861  0.0860 -1.7985
 3917TIP3    H235947   1.922   4.232  12.760 -0.5657 -2.4236  0.0110
 3918TIP3   OH235948   4.549   4.797  11.655  0.1306  0.1792  0.7493
 3918TIP3    H135949   4.625   4.855  11.651 -0.9602  1.5547 -1.0776
 3918TIP3    H235950   4.479   4.850  11.692 -1.4544  0.8449 -2.8444
 3919TIP3   OH235951   3.167   6.480  11.367 -0.3708  0.5869 -0.0916
 3919TIP3    H135952   3.216   6.399  11.358 -1.0722  0.1468 -0.0264
 3919TIP3    H235953   3.145   6.505  11.277  0.7041  1.2615 -0.1918
 3920TIP3   OH235954   1.452   5.081  11.989  0.7755  0.1415 -0.1867
 3920TIP3    H135955   1.403   5.132  12.054  0.6828 -2.4688  1.9780
 3920TIP3    H235956   1.390   5.067  11.918  0.4361  1.9526 -0.3034
 3921TIP3   OH235957   3.154   4.967  13.080 -0.2626  0.0736  0.1094
 3921TIP3    H135958   3.142   4.873  13.069  0.5547 -0.0642  0.3312
 3921TIP3    H235959   3.110   5.006  13.004  0.0542 -0.5236 -0.3872
 3922TIP3   OH235960   3.322   5.556  12.455 -0.0877  0.1853 -0.5674
 3922TIP3    H135961   3.307   5.479  12.401 -0.7119  0.6654 -1.0839
 3922TIP3    H235962   3.236   5.577  12.492  0.1019  0.5574 -0.3300
 3923TIP3   OH235963   6.635   2.428  11.543 -0.3226  0.0166 -0.3988
 3923TIP3    H135964   6.625   2.442  11.449 -2.5517  0.9838 -0.0641
 3923TIP3    H235965   6.606   2.509  11.583  3.6638  0.9257  1.1377
 3924TIP3   OH235966   2.732   2.548  13.124 -0.1485 -0.4803 -0.0773
 3924TIP3    H135967   2.776   2.511  13.201  0.4163 -1.3371 -0.7877
 3924TIP3    H235968   2.804   2.580  13.069 -0.6101  1.4098  0.3634
 3925TIP3   OH235969   6.167   2.452  11.321  0.0130  0.5558 -0.1092
 3925TIP3    H135970   6.226   2.402  11.265  0.0900 -1.0658  1.3252
 3925TIP3    H235971   6.222   2.522  11.358  0.9063 -0.5212  0.6725
 3926TIP3   OH235972   5.215   1.727  11.930  0.1069  0.4235  0.1170
 3926TIP3    H135973   5.289   1.747  11.988 -0.1030  0.4214  0.3925
 3926TIP3    H235974   5.255   1.705  11.846  0.3375  2.6297 -0.4125
 3927TIP3   OH235975   5.599   3.243  10.225  0.1677  0.1626  0.0819
 3927TIP3    H135976   5.641   3.328  10.238  1.1435  0.0697 -1.9852
 3927TIP3    H235977   5.505   3.261  10.234  0.2205  1.8645 -1.9601
 3928TIP3   OH235978   0.050   3.578  11.373  0.3494 -0.2635 -0.3373
 3928TIP3    H135979  -0.033   3.601  11.332  0.2788 -0.4880 -0.3203
 3928TIP3    H235980   0.115   3.583  11.303  0.3754  0.2258 -0.2824
 3929TIP3   OH235981   1.857   6.057  12.538 -0.2085  0.1937  0.2284
 3929TIP3    H135982   1.910   5.998  12.484 -0.5403  0.1507 -0.0516
 3929TIP3    H235983   1.835   6.005  12.615 -0.6325 -0.1078 -0.0902
 3930TIP3   OH235984   4.717   5.156   9.838  0.0175 -0.1667  0.5030
 3930TIP3    H135985   4.647   5.111   9.885  0.2551  1.5713  2.7282
 3930TIP3    H235986   4.797   5.108   9.861 -0.1260 -0.5594  0.1737
 3931TIP3   OH235987   2.235   0.759  12.534  0.4022  0.1705  0.3765
 3931TIP3    H135988   2.274   0.846  12.536 -0.5253  0.6487 -0.9357
 3931TIP3    H235989   2.288   0.708  12.595  1.7076  1.3385  0.2769
 3932TIP3   OH235990   4.950   3.269  12.953  0.1779  0.2427 -0.2962
 3932TIP3    H135991   4.996   3.249  13.035  0.0816 -1.5466 -0.6367
 3932TIP3    H235992   4.962   3.363  12.941  0.6523  0.4455  1.4892
 3933TIP3   OH235993   4.022   6.838  13.057  0.4651  0.1038  0.0400
 3933TIP3    H135994   4.087   6.807  13.120  2.5115  0.9730 -1.5312
 3933TIP3    H235995   4.030   6.778  12.982  0.4095  0.9915 -0.6980
 3934TIP3   OH235996   2.029   2.602  10.224 -0.5420  0.4872  0.6377
 3934TIP3    H135997   1.990   2.537  10.282 -1.7656  1.7703  1.3118
 3934TIP3    H235998   2.100   2.640  10.275  1.4424 -1.5741 -0.4462
 3935TIP3   OH235999   5.379   5.468  10.915 -0.0767  0.3042 -0.1122
 3935TIP3    H136000   5.357   5.384  10.956 -1.1406  1.1587  1.1530
 3935TIP3    H236001   5.303   5.489  10.860 -0.5608  1.2039  0.8688
 3936TIP3   OH236002   1.303   2.116  10.710  1.0218  0.0187 -0.4324
 3936TIP3    H136003   1.312   2.164  10.792  0.5858  0.0288 -0.3894
 3936TIP3    H236004   1.334   2.028  10.731  1.4583  0.1712 -0.4120
 3937TIP3   OH236005   6.588   4.083  10.947 -0.2940  0.4585 -0.2530
 3937TIP3    H136006   6.608   4.127  10.864 -1.3094  0.3139 -0.5760
 3937TIP3    H236007   6.505   4.038  10.932 -1.4338  1.8714  1.3590
 3938TIP3   OH236008   1.798   1.157  11.692  0.1047 -0.9380 -0.8022
 3938TIP3    H136009   1.776   1.067  11.670 -1.4422 -0.5112 -1.1188
 3938TIP3    H236010   1.743   1.210  11.634  0.0339  0.1985  0.2591
 3939TIP3   OH236011   2.833   0.809  10.855 -0.0385 -1.0125  0.1482
 3939TIP3    H136012   2.767   0.856  10.906  0.2979 -1.3956  0.9415
 3939TIP3    H236013   2.807   0.824  10.764  0.1229  0.8116  0.3698
 3940TIP3   OH236014   2.084   1.871  10.942 -0.7624  0.0510 -0.4200
 3940TIP3    H136015   2.030   1.804  10.984 -0.5947  0.2069  0.0487
 3940TIP3    H236016   2.021   1.940  10.919 -0.7126  0.4204  0.5075
 3941TIP3   OH236017   0.995   5.308  11.198 -0.0601 -0.2494  0.4890
 3941TIP3    H136018   0.974   5.400  11.180 -0.9811 -0.5706 -0.1379
 3941TIP3    H236019   0.999   5.267  11.112 -1.5212 -1.1669  0.8195
 3942TIP3   OH236020   1.929   2.072  10.903  0.3013 -0.7350  0.0138
 3942TIP3    H136021   1.903   2.105  10.817  2.2888  0.0312 -0.3460
 3942TIP3    H236022   1.891   2.133  10.966  0.9773  0.2151 -0.4792
 3943TIP3   OH236023   4.488   4.282  11.669  0.5488  0.2287  0.0944
 3943TIP3    H136024   4.528   4.206  11.627  0.2004  0.4359 -0.6184
 3943TIP3    H236025   4.510   4.355  11.613 -0.0359  0.4907  0.1961
 3944TIP3   OH236026   1.805   4.405  10.235 -0.0201 -0.2678 -0.3077
 3944TIP3    H136027   1.796   4.443  10.322  0.4607 -0.9560  0.0529
 3944TIP3    H236028   1.787   4.312  10.247  1.2079 -0.5792 -0.7044
 3945TIP3   OH236029   5.660   3.639  12.164 -0.0819 -0.0423 -0.4249
 3945TIP3    H136030   5.726   3.690  12.210 -2.5873  2.0290  1.1919
 3945TIP3    H236031   5.640   3.691  12.086 -1.0210  0.3130  0.0357
 3946TIP3   OH236032   0.430   0.369  10.232  0.3312 -0.6952 -0.1676
 3946TIP3    H136033   0.478   0.332  10.306  0.3546 -2.0134 -0.8069
 3946TIP3    H236034   0.436   0.464  10.243  0.5712 -0.8729  1.3502
 3947TIP3   OH236035   6.326   4.236  12.116  0.3310 -0.2060 -0.0346
 3947TIP3    H136036   6.376   4.317  12.106 -1.5083  0.9114 -0.7005
 3947TIP3    H236037   6.259   4.240  12.048 -1.0860 -1.2934  1.2133
 3948TIP3   OH236038   3.413   3.372  12.009 -0.7408  0.4364 -0.1999
 3948TIP3    H136039   3.502   3.392  11.979 -0.5370 -0.3640 -0.1642
 3948TIP3    H236040   3.382   3.307  11.946 -0.4424 -1.0106  1.1066
 3949TIP3   OH236041   0.343   0.059  10.550  0.3409  0.1194 -0.2114
 3949TIP3    H136042   0.304  -0.023  10.580 -0.7974  0.3152 -1.0925
 3949TIP3    H236043   0.273   0.103  10.501  1.3727  0.9453 -1.0007
 3950TIP3   OH236044   1.051   5.835  10.733 -0.2554 -0.4113  0.4793
 3950TIP3    H136045   0.999   5.792  10.801  0.0537 -0.9863  0.3642
 3950TIP3    H236046   0.991   5.845  10.659 -0.0439 -1.7224  0.0901
 3951TIP3   OH236047   1.686   3.553   9.757  0.5912  0.2026 -0.4359
 3951TIP3    H136048   1.652   3.641   9.738 -0.9701 -0.3862 -0.5208
 3951TIP3    H236049   1.654   3.499   9.684  2.0073 -0.3407 -0.6794
 3952TIP3   OH236050   2.081   6.667  12.720 -0.4007  0.0667  0.2267
 3952TIP3    H136051   2.014   6.650  12.654  0.3556  1.3173 -0.8970
 3952TIP3    H236052   2.034   6.710  12.792 -0.9067  0.4343 -0.3199
 3953TIP3   OH236053   6.164   3.240  11.345 -0.2075 -0.3125  0.0036
 3953TIP3    H136054   6.209   3.297  11.283 -0.2537 -0.0492  0.2090
 3953TIP3    H236055   6.076   3.278  11.352  0.0499  0.1686  0.8680
 3954TIP3   OH236056   1.367   5.589   9.930  0.3547  0.1218 -0.1064
 3954TIP3    H136057   1.460   5.597   9.911 -0.1675  2.7742 -1.9676
 3954TIP3    H236058   1.330   5.545   9.854  0.0212 -0.8944  0.6101
 3955TIP3   OH236059   5.794   6.097  10.406 -0.4022  0.6315  0.4777
 3955TIP3    H136060   5.716   6.042  10.410  0.1048 -0.1241  0.2047
 3955TIP3    H236061   5.762   6.181  10.375 -0.5893 -0.7866 -3.8824
 3956TIP3   OH236062   6.344   4.278  10.630 -0.0327 -0.5485  0.4439
 3956TIP3    H136063   6.257   4.317  10.630  0.5310  0.7998  1.7188
 3956TIP3    H236064   6.377   4.293  10.718  1.2987 -1.4904  0.1362
 3957TIP3   OH236065   6.351   6.717  11.355 -0.4891  0.1095 -0.1383
 3957TIP3    H136066   6.444   6.732  11.341 -0.7758  1.3530 -0.8833
 3957TIP3    H236067   6.342   6.622  11.361  0.5062 -0.2187 -2.6661
 3958TIP3   OH236068   1.917   1.543  11.533  0.0643  0.3979  0.4730
 3958TIP3    H136069   1.822   1.537  11.547 -0.0149  0.7957  0.1393
 3958TIP3    H236070   1.951   1.576  11.616  0.2607 -2.3210  1.5740
 3959TIP3   OH236071   1.361   4.057  11.554 -0.6602 -1.2856  0.1385
 3959TIP3    H136072   1.275   4.098  11.545  0.1964  0.6405  0.2436
 3959TIP3    H236073   1.386   4.073  11.645  0.1603 -1.0465 -0.1176
 3960TIP3   OH236074   2.099   0.243  13.406  0.2853  0.0119  0.0949
 3960TIP3    H136075   2.167   0.247  13.339  0.9325  1.5655  0.7980
 3960TIP3    H236076   2.146   0.245  13.489 -0.5797  1.7036  0.6031
 3961TIP3   OH236077   3.258   4.006   9.174  0.4993  0.1537 -0.2666
 3961TIP3    H136078   3.262   3.950   9.252 -0.8597 -1.2441 -1.1440
 3961TIP3    H236079   3.349   4.020   9.150  0.9805  1.0731  1.8585
 3962TIP3   OH236080   1.872   5.327  11.414  0.1184  0.0762  0.4354
 3962TIP3    H136081   1.963   5.307  11.396  0.1226  0.9501 -0.6544
 3962TIP3    H236082   1.841   5.370  11.334 -0.6531  1.6882  1.5447
 3963TIP3   OH236083   3.729   5.866  13.042 -0.2777 -0.3168 -0.1518
 3963TIP3    H136084   3.688   5.854  12.956 -1.6328 -2.0873  0.6722
 3963TIP3    H236085   3.661   5.840  13.105  1.4514 -1.4578  1.3522
 3964TIP3   OH236086   2.084   6.720  10.352 -0.0170  0.2637 -0.0358
 3964TIP3    H136087   2.044   6.769  10.281 -0.3048  0.1179  0.0275
 3964TIP3    H236088   2.021   6.652  10.374  0.5854 -0.4401 -0.4446
 3965TIP3   OH236089   4.190   3.554  11.935 -0.4869  0.1768  0.1660
 3965TIP3    H136090   4.154   3.510  11.858 -2.0053 -0.2157  1.0578
 3965TIP3    H236091   4.130   3.532  12.006  0.9269  0.4479  1.5025
 3966TIP3   OH236092   2.947   1.301  11.385  0.1338  0.2999  0.1257
 3966TIP3    H136093   2.916   1.283  11.296  0.6227 -0.0309  0.0182
 3966TIP3    H236094   3.040   1.278  11.383  0.0732 -0.0359  0.8144
 3967TIP3   OH236095   4.147   1.114  12.470 -0.0225  0.1421  0.6054
 3967TIP3    H136096   4.122   1.117  12.378 -0.9924  1.6382  0.8686
 3967TIP3    H236097   4.108   1.193  12.508 -0.1724 -0.7363  2.4253
 3968TIP3   OH236098   1.620   3.928  10.921  0.4780 -0.1913  0.1227
 3968TIP3    H136099   1.638   3.933  11.015 -1.6001 -1.6726  0.6825
 3968TIP3    H236100   1.530   3.960  10.913  0.8941  0.6567 -1.4962
 3969TIP3   OH236101   6.763   0.047  12.688  0.0741  0.1295 -0.7160
 3969TIP3    H136102   6.677   0.012  12.666  0.5743 -1.3294 -0.4804
 3969TIP3    H236103   6.767   0.042  12.784  0.3761  0.3151 -0.7184
 3970TIP3   OH236104   0.196   3.661   9.764 -0.2328  0.4772 -0.7647
 3970TIP3    H136105   0.166   3.625   9.847  1.9359  1.6051  0.5724
 3970TIP3    H236106   0.170   3.595   9.699  0.0235 -1.5372  1.0800
 3971TIP3   OH236107   3.732   4.843  11.540 -0.2435 -0.2239  0.1973
 3971TIP3    H136108   3.818   4.874  11.569 -1.1517  2.3107  0.4392
 3971TIP3    H236109   3.696   4.916  11.490 -2.6341 -0.8671  0.8695
 3972TIP3   OH236110   5.358   2.557  11.998 -0.0734 -0.5041  0.0363
 3972TIP3    H136111   5.267   2.527  11.994  0.2031 -1.4426  0.5153
 3972TIP3    H236112   5.396   2.530  11.915 -0.3706  0.4158 -0.4176
 3973TIP3   OH236113   3.059   0.664  10.193 -0.5896 -0.0019 -0.5131
 3973TIP3    H136114   2.988   0.668  10.129 -0.3149  1.1853 -0.7715
 3973TIP3    H236115   3.128   0.615  10.150 -0.6342  0.2775 -0.9058
 3974TIP3   OH236116   1.191   1.010  10.797  0.3700  0.3976  0.0791
 3974TIP3    H136117   1.149   0.978  10.717  0.3358  1.7574 -0.4871
 3974TIP3    H236118   1.118   1.026  10.858 -0.0275  2.7195 -0.8898
 3975TIP3   OH236119   1.442   2.523  11.728  0.0714 -0.2424 -0.0046
 3975TIP3    H136120   1.511   2.480  11.678  2.6015 -0.0940  3.0405
 3975TIP3    H236121   1.402   2.453  11.779 -1.1390 -0.1043 -0.7336
 3976TIP3   OH236122   3.962   1.108  11.607 -0.2894  0.1685  0.2180
 3976TIP3    H136123   4.029   1.070  11.664 -1.1740 -2.3005 -0.2491
 3976TIP3    H236124   3.879   1.090  11.651 -0.8621  0.0431 -0.8681
 3977TIP3   OH236125   5.322   2.051  12.138 -0.0225 -0.0576 -0.2657
 3977TIP3    H136126   5.382   2.119  12.167 -1.0468  0.3656  0.9017
 3977TIP3    H236127   5.379   1.983  12.101  1.0705  0.9378 -0.4570
 3978TIP3   OH236128   4.402   3.141  11.369  0.2868 -0.5589 -0.0461
 3978TIP3    H136129   4.421   3.234  11.375 -0.0065 -0.4953 -0.0662
 3978TIP3    H236130   4.469   3.099  11.423  0.4346 -0.3391 -0.0567
 3979TIP3   OH236131   1.171   2.342  10.822  0.1264 -0.7757 -0.0121
 3979TIP3    H136132   1.117   2.351  10.743 -1.6396  0.0369  1.2205
 3979TIP3    H236133   1.259   2.365  10.793 -0.8949  2.1043 -1.2880
 3980TIP3   OH236134   1.585   6.177  12.450 -0.2360  0.1254  0.0448
 3980TIP3    H136135   1.607   6.197  12.359  0.6435  1.2796  0.4745
 3980TIP3    H236136   1.666   6.141  12.487 -0.3147  0.4848  0.5810
 3981TIP3   OH236137   4.170   5.596  10.734  0.2673 -1.6580 -1.0285
 3981TIP3    H136138   4.097   5.640  10.690 -1.1183 -3.3455 -0.4970
 3981TIP3    H236139   4.226   5.567  10.662  1.3157  0.9644 -1.4081
 3982TIP3   OH236140   0.927   4.310  12.631 -0.4175 -0.2625  0.6956
 3982TIP3    H136141   0.971   4.347  12.554 -1.3299  0.8967  0.6931
 3982TIP3    H236142   0.995   4.259  12.675  0.0220 -1.3372 -1.0997
 3983TIP3   OH236143   6.578   3.903  10.269 -0.3181 -0.1672  0.6254
 3983TIP3    H136144   6.596   3.946  10.185  2.4813 -1.8405  0.2305
 3983TIP3    H236145   6.632   3.952  10.332 -0.4644 -0.4528  0.9704
 3984TIP3   OH236146   2.671   2.715  12.335  0.0498 -0.2373  0.3709
 3984TIP3    H136147   2.747   2.667  12.302  0.6084  1.0049 -0.1968
 3984TIP3    H236148   2.641   2.767  12.260 -0.4080  0.4710  1.0360
 3985TIP3   OH236149   6.414   0.004  11.752 -0.3945  0.2385  0.4708
 3985TIP3    H136150   6.409   0.056  11.833  0.7161 -1.5505  1.7561
 3985TIP3    H236151   6.427  -0.086  11.782  0.9308 -0.3814 -1.7228
 3986TIP3   OH236152   5.815   5.972  12.128  0.1803 -0.1261 -0.3297
 3986TIP3    H136153   5.791   6.034  12.197 -1.0354 -0.5578 -0.3388
 3986TIP3    H236154   5.908   5.953  12.144  0.6685  1.9023 -0.5271
 3987TIP3   OH236155   3.897   6.435  12.082  0.1164  0.1966 -0.2292
 3987TIP3    H136156   3.986   6.403  12.094 -0.2423 -1.5326 -1.8508
 3987TIP3    H236157   3.881   6.490  12.159  1.3358 -2.3232  1.9974
 3988TIP3   OH236158   1.762   0.375  11.455  0.0520  0.4674  1.0119
 3988TIP3    H136159   1.771   0.284  11.484 -2.5608  0.4030  1.8051
 3988TIP3    H236160   1.851   0.400  11.431  0.6193 -2.8579 -1.0450
 3989TIP3   OH236161   6.298   4.781  12.725  0.0784  0.0044  0.1894
 3989TIP3    H136162   6.324   4.717  12.791  2.3558 -0.9374 -1.4745
 3989TIP3    H236163   6.245   4.845  12.772 -1.6941 -2.6767  2.0726
 3990TIP3   OH236164   4.108   0.351  12.386 -0.3752 -1.3263 -0.0483
 3990TIP3    H136165   4.083   0.264  12.417 -0.7091 -1.4863 -0.7540
 3990TIP3    H236166   4.203   0.347  12.379 -0.2684 -1.2276  1.1051
 3991TIP3   OH236167   6.153   4.382  11.092  0.2754  0.6185  0.0100
 3991TIP3    H136168   6.218   4.408  11.157 -0.5834  2.1210  0.3067
 3991TIP3    H236169   6.105   4.462  11.073 -1.2974 -0.3907 -0.4366
 3992TIP3   OH236170   5.245   5.029  12.015 -0.1952  0.2924  0.3099
 3992TIP3    H136171   5.192   5.039  12.094 -1.4803 -0.8819 -0.3661
 3992TIP3    H236172   5.197   5.079  11.948  0.9534  1.3966  0.2661
 3993TIP3   OH236173   5.276   4.833  10.717  0.0005 -0.0001 -0.2098
 3993TIP3    H136174   5.356   4.874  10.685  1.0478 -1.0089  1.0337
 3993TIP3    H236175   5.290   4.739  10.704 -0.6597 -0.2441  0.7191
 3994TIP3   OH236176   4.051   1.909  12.171 -0.4885  0.8146  0.3418
 3994TIP3    H136177   4.066   1.829  12.120 -2.1518 -0.5560  1.8392
 3994TIP3    H236178   4.068   1.981  12.110  0.9842 -0.6743 -1.0831
 3995TIP3   OH236179   3.447   2.822  11.492  0.0509  0.0126  0.4636
 3995TIP3    H136180   3.390   2.833  11.416  0.1621  0.3915  0.4360
 3995TIP3    H236181   3.413   2.744  11.536  0.4063 -0.6140 -0.3521
 3996TIP3   OH236182   5.535   1.555  10.530 -0.1976 -0.0815  0.2745
 3996TIP3    H136183   5.563   1.640  10.563 -0.9336  0.3159 -0.1082
 3996TIP3    H236184   5.612   1.499  10.539  1.1945  1.3269 -2.0452
 3997TIP3   OH236185   6.635   4.195  11.907 -0.2959 -0.0696  0.0094
 3997TIP3    H136186   6.609   4.173  11.996 -0.5637  0.8186  0.1609
 3997TIP3    H236187   6.552   4.211  11.861 -0.1605 -0.4891 -0.3974
 3998TIP3   OH236188   3.347   4.198  12.275  0.3795  0.3811  0.0432
 3998TIP3    H136189   3.377   4.127  12.331  1.5082  1.2443  0.5772
 3998TIP3    H236190   3.286   4.248  12.330 -0.1696  0.0121 -0.2256
 3999TIP3   OH236191   0.137   0.749  11.588  0.3901  0.1150  0.0365
 3999TIP3    H136192   0.083   0.724  11.664  1.0724  3.1781  1.6966
 3999TIP3    H236193   0.078   0.801  11.533  0.4987 -0.2301 -0.4091
 4000TIP3   OH236194   0.478   2.343  10.879  0.3675 -0.1371 -1.0421
 4000TIP3    H136195   0.548   2.316  10.820  0.2161 -2.3647 -0.3090
 4000TIP3    H236196   0.491   2.289  10.957 -1.5127  0.1956 -0.4522
 4001TIP3   OH236197   6.157   5.229  12.761 -0.1095  0.0579 -0.8005
 4001TIP3    H136198   6.119   5.195  12.680 -1.0758 -1.9010  0.3885
 4001TIP3    H236199   6.083   5.270  12.806 -0.1421 -0.9386  0.0974
 4002TIP3   OH236200   3.482   2.392   9.658  0.0011  0.0981  0.5804
 4002TIP3    H136201   3.528   2.444   9.724 -0.7919 -0.2696  1.4532
 4002TIP3    H236202   3.546   2.378   9.589  0.5658  1.2991  0.8320
 4003TIP3   OH236203   2.164   3.390  10.500  0.3936 -0.0956  0.4231
 4003TIP3    H136204   2.078   3.377  10.542  0.0422 -0.1068 -0.2964
 4003TIP3    H236205   2.203   3.462  10.550 -0.3188  0.3698  0.3260
 4004TIP3   OH236206   3.186   5.616  11.490  0.4861  0.2625  0.0072
 4004TIP3    H136207   3.208   5.709  11.485 -3.4653  1.4165  0.0496
 4004TIP3    H236208   3.163   5.601  11.581 -1.1852 -0.0130 -0.4088
 4005TIP3   OH236209   4.042   0.697  10.503 -0.4310 -0.2096  0.2789
 4005TIP3    H136210   3.992   0.731  10.429 -1.0717 -3.8695 -1.1640
 4005TIP3    H236211   4.128   0.739  10.495 -1.2567  1.3543 -1.0087
 4006TIP3   OH236212   0.507   1.054  10.516 -0.4570  0.2650 -0.3747
 4006TIP3    H136213   0.495   0.999  10.594 -0.0332 -0.0234 -0.5083
 4006TIP3    H236214   0.474   1.001  10.444  0.3461 -0.0002 -0.5625
 4007TIP3   OH236215   5.837   5.517  11.173 -0.0744 -0.3738  0.4559
 4007TIP3    H136216   5.848   5.611  11.165  0.6773 -0.5110 -0.1923
 4007TIP3    H236217   5.764   5.496  11.114  0.1696 -0.2811  0.1208
 4008TIP3   OH236218   3.147   0.857  10.339 -0.3817  0.3075  0.0489
 4008TIP3    H136219   3.113   0.791  10.278 -0.2758  0.4007 -0.1124
 4008TIP3    H236220   3.074   0.918  10.351  0.0104  1.0089 -1.0082
 4009TIP3   OH236221   4.609   3.217  10.374 -0.4825  0.1861 -0.1218
 4009TIP3    H136222   4.626   3.262  10.457 -0.6311 -0.5736  0.3297
 4009TIP3    H236223   4.599   3.125  10.398  1.0355 -0.2995 -1.1659
 4010TIP3   OH236224   5.123   4.726  12.276 -0.0804  0.5624  0.2350
 4010TIP3    H136225   5.052   4.683  12.228  0.7246 -0.3884 -0.1646
 4010TIP3    H236226   5.087   4.810  12.303 -0.9611  0.6076 -0.9899
 4011TIP3   OH236227   2.345   5.329  12.020 -0.2933  0.5522 -0.5040
 4011TIP3    H136228   2.262   5.288  12.043 -1.2223  0.9593 -2.8256
 4011TIP3    H236229   2.379   5.275  11.948  1.3695  0.5463  0.2201
 4012TIP3   OH236230   5.196   6.380  13.109 -0.0596  0.0758 -0.1910
 4012TIP3    H136231   5.156   6.386  13.022  1.2941 -1.6274 -0.9925
 4012TIP3    H236232   5.286   6.410  13.096 -0.4542  1.9599  1.1462
 4013TIP3   OH236233   1.633   4.486  10.720 -0.6922 -0.3737  0.0828
 4013TIP3    H136234   1.628   4.493  10.816 -2.0229 -0.8979  0.0769
 4013TIP3    H236235   1.568   4.548  10.688  0.5244  0.6039 -0.5343
 4014TIP3   OH236236   0.610   2.139  12.850 -0.0918  0.2779  0.2120
 4014TIP3    H136237   0.597   2.156  12.757  1.6615  1.3053  0.1096
 4014TIP3    H236238   0.559   2.207  12.895 -0.8879 -0.1816  0.0237
 4015TIP3   OH236239   0.209   2.167  11.210 -0.0876  0.0751  0.3604
 4015TIP3    H136240   0.150   2.132  11.277 -0.8778 -0.3406 -0.5199
 4015TIP3    H236241   0.172   2.136  11.128 -0.6815  2.7642 -0.4904
 4016TIP3   OH236242   2.646   1.929  11.091 -0.0767 -0.4534  0.6060
 4016TIP3    H136243   2.700   1.857  11.058  2.4142  0.8875  1.4621
 4016TIP3    H236244   2.559   1.890  11.104  0.6197 -2.7307 -0.9094
 4017TIP3   OH236245   3.819   1.744  10.949  0.4384  0.2745  1.0066
 4017TIP3    H136246   3.840   1.681  10.880  1.3478 -1.6029  2.9038
 4017TIP3    H236247   3.835   1.830  10.908 -0.9181 -0.6156 -1.6921
 4018TIP3   OH236248   3.695   4.422  11.533 -0.6281 -0.3030 -0.1707
 4018TIP3    H136249   3.631   4.433  11.463 -0.7742 -1.8339 -0.3268
 4018TIP3    H236250   3.770   4.475  11.506 -2.1185  2.2675  0.4623
 4019TIP3   OH236251   2.715   2.694  11.634 -0.2259  0.0000 -0.4521
 4019TIP3    H136252   2.678   2.722  11.717 -1.8594  0.3141 -1.2517
 4019TIP3    H236253   2.791   2.641  11.658 -1.4005 -0.9885  1.2936
 4020TIP3   OH236254   3.032   5.151  11.870  0.1976 -0.0884 -0.0337
 4020TIP3    H136255   3.040   5.189  11.783  1.6656  1.1306  0.5709
 4020TIP3    H236256   3.023   5.057  11.855 -3.2121  0.3432 -1.5753
 4021TIP3   OH236257   4.884   3.478  10.329 -0.0223 -0.2888 -0.5140
 4021TIP3    H136258   4.808   3.471  10.271  1.0143 -1.2603 -1.8163
 4021TIP3    H236259   4.954   3.510  10.273  0.8556 -0.6433  0.3566
 4022TIP3   OH236260   1.556   2.383  13.043 -0.2704 -0.0173 -0.0374
 4022TIP3    H136261   1.577   2.372  13.135 -1.6590  0.3207  0.3581
 4022TIP3    H236262   1.624   2.441  13.009 -1.0421  1.8204  1.3861
 4023TIP3   OH236263   6.031   1.879  10.940 -0.4372 -0.0895  0.6165
 4023TIP3    H136264   5.998   1.801  10.986 -1.4542 -0.0469 -0.0098
 4023TIP3    H236265   6.103   1.847  10.887 -1.5854 -0.8638 -0.5347
 4024TIP3   OH236266   6.503   1.203  13.166  0.0112 -0.0864 -0.6010
 4024TIP3    H136267   6.516   1.275  13.229  1.0652 -1.0342  0.3195
 4024TIP3    H236268   6.536   1.237  13.083  1.7400  0.0936  0.1131
 4025TIP3   OH236269   5.195   5.187  13.122  0.0933 -0.3808 -0.3484
 4025TIP3    H136270   5.115   5.206  13.073  0.4023 -0.7768 -1.0136
 4025TIP3    H236271   5.202   5.260  13.184 -0.5531 -0.1173 -0.5702
 4026TIP3   OH236272   1.594   1.031  10.804 -0.3886 -0.0085 -0.4866
 4026TIP3    H136273   1.597   1.100  10.871 -2.0111 -1.0706  0.7566
 4026TIP3    H236274   1.531   0.967  10.838 -0.0002 -1.4223 -2.2659
 4027TIP3   OH236275   1.757   5.182   9.218 -0.1557  0.5459  0.2257
 4027TIP3    H136276   1.838   5.224   9.244 -0.5562  1.6719 -0.2886
 4027TIP3    H236277   1.706   5.251   9.175 -1.8718  0.1813  1.5628
 4028TIP3   OH236278   1.418   3.120  12.266 -0.2969  0.2086  0.3016
 4028TIP3    H136279   1.354   3.181  12.302 -2.6492 -0.9933 -1.5244
 4028TIP3    H236280   1.398   3.037  12.307  0.8599  0.0120  0.5063
 4029TIP3   OH236281   2.138   3.313   9.952  0.9096 -0.9502 -0.2334
 4029TIP3    H136282   2.168   3.341  10.039 -0.0582 -0.9835  0.1233
 4029TIP3    H236283   2.093   3.389   9.917 -0.1874 -1.4644  0.0100
 4030TIP3   OH236284   3.030   5.497  11.304 -0.1362  0.2311  0.0605
 4030TIP3    H136285   3.093   5.518  11.374  1.4866 -0.1433 -1.2328
 4030TIP3    H236286   3.000   5.582  11.272  2.1101  0.5517 -1.3691
 4031TIP3   OH236287   0.566   6.734  11.425 -0.3939 -0.2399 -0.2999
 4031TIP3    H136288   0.580   6.762  11.515  2.5307 -1.1143 -0.3827
 4031TIP3    H236289   0.485   6.683  11.428 -0.7921  0.4170  1.6453
 4032TIP3   OH236290   3.667   4.165  11.012 -0.5692 -0.6503  0.1284
 4032TIP3    H136291   3.632   4.215  11.085 -0.0192 -0.1598  0.0604
 4032TIP3    H236292   3.627   4.205  10.934 -0.4746 -0.6005  0.1049
 4033TIP3   OH236293   1.185   4.043  11.893 -0.4347 -0.4532 -0.2464
 4033TIP3    H136294   1.206   4.087  11.811  1.0177  1.8439  1.2188
 4033TIP3    H236295   1.140   3.963  11.867 -0.5524  0.4602 -3.2210
 4034TIP3   OH236296   0.482   5.643  11.647 -0.1228 -0.0904  0.2150
 4034TIP3    H136297   0.435   5.619  11.567  0.4938  1.7679 -0.7743
 4034TIP3    H236298   0.413   5.670  11.707 -0.4880  0.3747 -0.3980
 4035TIP3   OH236299   5.987   5.969  12.556  0.1505 -0.2111 -0.5417
 4035TIP3    H136300   6.001   5.940  12.646  2.2601  0.9570 -0.4278
 4035TIP3    H236301   5.892   5.979  12.548 -0.0448  0.2277  1.7379
 4036TIP3   OH236302   1.263   3.044  10.354  0.1389  0.3348 -0.3182
 4036TIP3    H136303   1.186   2.996  10.326 -0.0474 -0.2536  1.1093
 4036TIP3    H236304   1.232   3.099  10.426  1.0604 -0.0646  0.4157
 4037TIP3   OH236305   4.821   0.233  10.525 -0.1953 -0.1368  0.0024
 4037TIP3    H136306   4.772   0.210  10.605 -1.3934  1.5624 -0.1981
 4037TIP3    H236307   4.754   0.249  10.459  0.6933  0.5697 -0.7618
 4038TIP3   OH236308   2.249   4.847   9.781 -0.0154 -0.3347  0.2836
 4038TIP3    H136309   2.227   4.823   9.870  0.9747 -2.6428 -0.0302
 4038TIP3    H236310   2.302   4.926   9.790  0.2773 -0.6732  1.7580
 4039TIP3   OH236311   3.133   3.876  11.527  0.1366 -0.1577  0.1894
 4039TIP3    H136312   3.146   3.958  11.575  0.4839  0.6116 -1.1787
 4039TIP3    H236313   3.165   3.894  11.439  0.9129 -2.0099  0.0551
 4040TIP3   OH236314   4.584   0.653  12.379  0.5626 -0.4324  0.2907
 4040TIP3    H136315   4.547   0.667  12.292 -3.4213 -0.7134  1.7226
 4040TIP3    H236316   4.631   0.734  12.399  0.2713  0.2170 -1.5328
 4041TIP3   OH236317   6.545   5.842  12.862 -0.1347  0.3367  0.0318
 4041TIP3    H136318   6.615   5.907  12.863 -0.4073  0.6317  0.0126
 4041TIP3    H236319   6.489   5.869  12.789 -0.9045  0.7793  0.7639
 4042TIP3   OH236320   2.274   6.183  12.721 -0.1654  0.3061  0.0940
 4042TIP3    H136321   2.217   6.135  12.781  0.2834 -1.1437 -0.5940
 4042TIP3    H236322   2.250   6.151  12.634  0.3373  1.1370 -0.3634
 4043TIP3   OH236323   0.342   1.565  11.799 -0.1228  0.1194  0.2346
 4043TIP3    H136324   0.351   1.470  11.793 -0.7732  0.1001 -0.4979
 4043TIP3    H236325   0.386   1.598  11.721 -0.3628  0.3971  0.2171
 4044TIP3   OH236326   3.745   5.287  12.163  0.3887 -0.2582  0.2955
 4044TIP3    H136327   3.787   5.248  12.087  0.9026 -0.8599  0.8678
 4044TIP3    H236328   3.695   5.360  12.129  0.9893 -0.2360 -0.5571
 4045TIP3   OH236329   1.589   4.015  12.004  0.4316 -0.1285  0.0645
 4045TIP3    H136330   1.518   4.022  12.068  0.2907 -0.6043 -0.0338
 4045TIP3    H236331   1.669   4.023  12.056  0.3070  0.3668  0.1815
 4046TIP3   OH236332   2.496   3.031   9.555  0.2319  0.9260 -0.5908
 4046TIP3    H136333   2.554   3.106   9.544  0.5809  0.7317 -0.1208
 4046TIP3    H236334   2.408   3.067   9.551  0.3667  1.8101  2.3822
 4047TIP3   OH236335   5.451   6.385  10.770 -0.1760  0.0885  0.0188
 4047TIP3    H136336   5.471   6.344  10.686 -0.3337 -0.3176  0.1798
 4047TIP3    H236337   5.469   6.318  10.835  0.6504  0.6382  0.3679
 4048TIP3   OH236338   2.969   1.614  11.851  0.0822 -0.3248  0.0188
 4048TIP3    H136339   2.928   1.595  11.935  1.2404 -2.3307  0.1835
 4048TIP3    H236340   3.024   1.538  11.833  1.1089  0.7736 -1.7995
 4049TIP3   OH236341   1.217   6.706  10.285  0.4097  0.3921  0.5373
 4049TIP3    H136342   1.195   6.794  10.318  1.3010  0.8759 -0.1239
 4049TIP3    H236343   1.250   6.721  10.197  1.1922 -0.5401  0.6553
 4050TIP3   OH236344   1.386   2.719  13.103  0.2182  0.4314  0.2309
 4050TIP3    H136345   1.454   2.761  13.157  1.5009 -0.1234 -0.8886
 4050TIP3    H236346   1.428   2.639  13.072 -0.9940  0.0522 -0.4583
 4051TIP3   OH236347   2.489   2.714  13.122 -0.1832  0.5832  0.1673
 4051TIP3    H136348   2.411   2.666  13.093 -0.5426  0.6180  1.0645
 4051TIP3    H236349   2.563   2.662  13.091 -0.5612  0.2221 -0.1358
 4052TIP3   OH236350   3.860   5.580  10.639  0.0905  0.4052  0.0899
 4052TIP3    H136351   3.769   5.552  10.638  0.6282 -1.5720 -1.6794
 4052TIP3    H236352   3.906   5.512  10.688  0.7571  0.9188  0.2051
 4053TIP3   OH236353   0.453   2.977  13.127  0.7839 -0.0873  0.3055
 4053TIP3    H136354   0.375   3.032  13.125  0.1686 -0.8573  1.6397
 4053TIP3    H236355   0.420   2.888  13.117  1.4444 -0.4589  1.2832
 4054TIP3   OH236356   3.684   3.211  11.427 -0.5449  0.1416 -0.2575
 4054TIP3    H136357   3.688   3.216  11.332 -0.0426  0.0342 -0.2463
 4054TIP3    H236358   3.774   3.192  11.454 -0.8160 -0.5584  0.1938
 4055TIP3   OH236359   1.167   6.578  11.294 -0.2040 -0.4136 -0.6769
 4055TIP3    H136360   1.203   6.621  11.217 -0.7745 -0.2053 -0.8333
 4055TIP3    H236361   1.090   6.532  11.262 -0.2623 -0.5877 -0.2903
 4056TIP3   OH236362   5.675   3.506  10.731 -0.3887  0.2368 -0.2447
 4056TIP3    H136363   5.617   3.523  10.805 -2.7315 -2.1971 -1.3602
 4056TIP3    H236364   5.700   3.414  10.742  0.3943  0.2554 -1.7161
 4057TIP3   OH236365   6.768   2.055  12.343  0.2464  0.3722 -0.4305
 4057TIP3    H136366   6.698   2.007  12.387 -0.3434  1.0122 -0.6585
 4057TIP3    H236367   6.806   2.111  12.411  0.4519  0.1224 -0.3388
 4058TIP3   OH236368   1.970   3.361  12.872 -0.5940  0.3874 -0.1979
 4058TIP3    H136369   1.884   3.357  12.830 -0.7174  1.3562 -0.0668
 4058TIP3    H236370   2.017   3.284  12.839 -2.0531 -1.0818  0.9461
 4059TIP3   OH236371   5.519   4.079  10.985  0.3879  0.0386  0.2462
 4059TIP3    H136372   5.580   4.058  11.056  0.9604 -0.1152 -0.2858
 4059TIP3    H236373   5.548   4.165  10.954  0.4516 -0.1171 -0.1296
 4060TIP3   OH236374   0.284   5.426  12.747  0.4125  0.2074 -0.0262
 4060TIP3    H136375   0.289   5.467  12.660  1.5045 -0.0352 -0.1020
 4060TIP3    H236376   0.246   5.493  12.803 -0.5725  0.2671 -0.7497
 4061TIP3   OH236377   5.083   5.841  12.795  0.4156 -0.1418  0.0386
 4061TIP3    H136378   5.163   5.888  12.816 -0.5461  1.5063  0.1485
 4061TIP3    H236379   5.076   5.774  12.863 -0.1639  2.0281  2.2531
 4062TIP3   OH236380   2.569   1.287  11.192 -0.3488  0.0695  0.1239
 4062TIP3    H136381   2.506   1.256  11.257 -0.3278  0.4129  0.3116
 4062TIP3    H236382   2.572   1.382  11.206  0.3416  0.0326  0.2333
 4063TIP3   OH236383   2.269   1.470  11.666 -0.6050  1.0857 -0.0899
 4063TIP3    H136384   2.244   1.389  11.623 -0.8288  1.0591  0.0886
 4063TIP3    H236385   2.348   1.498  11.621 -0.4356  0.6821 -0.0475
 4064TIP3   OH236386   4.647   5.210  11.491 -0.0502  0.5041  0.0509
 4064TIP3    H136387   4.554   5.185  11.483  0.0860 -0.5407  1.4062
 4064TIP3    H236388   4.694   5.126  11.493  0.7751  0.9807  1.0117
 4065TIP3   OH236389   6.608   4.832  10.852 -0.2934  0.4701  0.0354
 4065TIP3    H136390   6.575   4.907  10.803 -1.6979 -0.7599 -0.9800
 4065TIP3    H236391   6.700   4.826  10.828 -0.1614  1.8176  0.1125
 4066TIP3   OH236392   4.278   1.363  12.273  0.5740  0.2892  0.2879
 4066TIP3    H136393   4.283   1.356  12.368 -0.0893  3.0244  0.6004
 4066TIP3    H236394   4.190   1.331  12.251  0.4571  0.3378  0.6885
 4067TIP3   OH236395   0.672   2.711  11.900  0.3270  0.0038  0.3501
 4067TIP3    H136396   0.577   2.720  11.891  0.3138  0.8514  1.1533
 4067TIP3    H236397   0.702   2.684  11.813 -0.7662 -1.4623  0.3916
 4068TIP3   OH236398   4.324   4.384  10.309 -0.5844 -0.1159 -0.3503
 4068TIP3    H136399   4.384   4.389  10.383 -1.8338  0.6648  0.6522
 4068TIP3    H236400   4.371   4.427  10.237  0.9555 -1.5701 -0.2825
 4069TIP3   OH236401   0.888   5.728  10.934 -0.3383 -0.5396  0.2665
 4069TIP3    H136402   0.861   5.637  10.949 -0.6772 -0.5034 -0.0941
 4069TIP3    H236403   0.849   5.777  11.007 -1.2012 -0.5014 -0.2059
 4070TIP3   OH236404   4.033   3.640  12.777  0.7755 -0.5288 -0.1079
 4070TIP3    H136405   4.010   3.569  12.716  0.4825  0.0858 -0.7250
 4070TIP3    H236406   4.052   3.715  12.721  3.1555 -0.6526  0.4397
 4071TIP3   OH236407   1.843   1.659  10.213 -0.1253  0.7752 -0.3538
 4071TIP3    H136408   1.892   1.732  10.175  0.2331  0.5329 -0.3594
 4071TIP3    H236409   1.882   1.581  10.173  0.4553  0.4916  0.7278
 4072TIP3   OH236410   5.250   0.679  13.074  0.4436  0.2896  0.8443
 4072TIP3    H136411   5.239   0.774  13.071 -2.2303  0.0701  1.3675
 4072TIP3    H236412   5.167   0.646  13.108  0.7046 -2.3443 -0.7951
 4073TIP3   OH236413   0.922   1.579  13.187  0.3485  0.1019 -1.1033
 4073TIP3    H136414   0.922   1.661  13.137  2.1986  1.0083  0.2634
 4073TIP3    H236415   0.976   1.519  13.136  2.6272  1.1707 -0.0946
 4074TIP3   OH236416   2.680   2.208  12.754  0.3740  0.2943  0.3969
 4074TIP3    H136417   2.750   2.168  12.702 -0.3128  1.4076 -1.5024
 4074TIP3    H236418   2.671   2.151  12.831  1.3535 -1.5369 -0.7623
 4075TIP3   OH236419   3.474   5.835   9.977 -0.1635  0.0806 -0.5846
 4075TIP3    H136420   3.544   5.900   9.988 -2.3052  2.2966  0.8076
 4075TIP3    H236421   3.410   5.878   9.921 -1.1295 -1.3072 -0.5911
 4076TIP3   OH236422   2.511   1.171  10.582 -0.1024 -0.0542 -0.8010
 4076TIP3    H136423   2.478   1.237  10.522  1.2608 -0.4328 -2.0315
 4076TIP3    H236424   2.601   1.196  10.599 -0.4915  0.1638  1.3385
 4077TIP3   OH236425   6.630   5.757  10.339 -0.1660 -0.0660  0.0404
 4077TIP3    H136426   6.629   5.806  10.421  1.7911 -1.4711  0.9964
 4077TIP3    H236427   6.637   5.665  10.367 -0.3834 -0.6425 -1.7032
 4078TIP3   OH236428   2.759   5.207  11.847  0.2778 -0.0523 -0.1677
 4078TIP3    H136429   2.790   5.121  11.820 -0.5428 -0.1784 -0.7623
 4078TIP3    H236430   2.831   5.267  11.824  0.6461 -0.5056 -0.2092
 4079TIP3   OH236431   5.994   2.343  11.830 -0.1901  0.0467 -0.0725
 4079TIP3    H136432   5.931   2.295  11.776 -0.3889 -0.0686  0.2593
 4079TIP3    H236433   5.997   2.295  11.912  0.8084 -0.3191 -0.3053
 4080TIP3   OH236434   6.015   4.216  12.466  0.0170  0.5990  0.5503
 4080TIP3    H136435   6.056   4.283  12.410 -0.2350  0.6567  0.4348
 4080TIP3    H236436   6.048   4.133  12.432  0.0228  0.6450  0.4415
 4081TIP3   OH236437   0.818   4.889  10.542 -0.1350  0.1388 -0.6123
 4081TIP3    H136438   0.856   4.868  10.627 -0.3611 -0.3273 -0.6236
 4081TIP3    H236439   0.839   4.981  10.528 -0.2106  0.2521  0.0081
 4082TIP3   OH236440   3.976   0.659  10.828  0.1708  0.1227 -0.1569
 4082TIP3    H136441   3.945   0.572  10.855  1.8071 -0.3513  0.3114
 4082TIP3    H236442   4.052   0.641  10.772  2.3343  1.2244  2.2270
 4083TIP3   OH236443   2.021   1.255  11.026  0.2090  0.1305 -0.4235
 4083TIP3    H136444   2.099   1.262  11.081 -0.0619  0.0173 -0.0177
 4083TIP3    H236445   2.013   1.161  11.008 -0.9334 -0.1396  1.1843
 4084TIP3   OH236446   4.361   1.924  11.461  0.1981  0.3137 -0.0653
 4084TIP3    H136447   4.406   1.890  11.538  0.7995 -0.6126 -0.8062
 4084TIP3    H236448   4.430   1.967  11.409  0.1958 -0.7993 -1.0295
 4085TIP3   OH236449   5.532   0.418  11.407  0.2257 -0.5355 -0.1818
 4085TIP3    H136450   5.451   0.469  11.405 -0.1363 -1.0008  1.2613
 4085TIP3    H236451   5.503   0.327  11.406  0.7246 -0.7071  0.1544
 4086TIP3   OH236452   5.225   4.216  12.478 -0.1993  0.6512 -0.1790
 4086TIP3    H136453   5.296   4.281  12.478 -0.4151  0.8990 -0.9606
 4086TIP3    H236454   5.223   4.183  12.388 -0.4188 -0.0833  0.0885
 4087TIP3   OH236455   6.482   2.545  12.110  0.1994  0.3540 -0.3035
 4087TIP3    H136456   6.531   2.628  12.108 -0.5771  0.8103 -0.7997
 4087TIP3    H236457   6.514   2.497  12.033  0.5547  0.2441 -0.0899
 4088TIP3   OH236458   2.654   4.387  12.733 -0.0737  0.3442  0.0897
 4088TIP3    H136459   2.678   4.300  12.702  1.2759  1.0530 -0.9419
 4088TIP3    H236460   2.708   4.447  12.682 -0.0879  1.7382  1.6133
 4089TIP3   OH236461   4.208   4.101   9.937 -0.0571  1.0429 -0.4436
 4089TIP3    H136462   4.281   4.134   9.884  0.7643 -0.9062 -0.6073
 4089TIP3    H236463   4.209   4.006   9.922 -1.7648  0.8199  0.6478
 4090TIP3   OH236464   1.086   4.653  10.953 -0.0013 -0.1832  0.3915
 4090TIP3    H136465   1.164   4.630  11.004  0.5216 -0.9255 -0.7256
 4090TIP3    H236466   1.021   4.586  10.978  0.4143 -0.8473 -0.2652
 4091TIP3   OH236467   3.986   1.785  11.645 -0.5749 -0.4063  0.0259
 4091TIP3    H136468   3.992   1.828  11.559  1.8234  0.7227  0.6613
 4091TIP3    H236469   3.928   1.710  11.631 -1.9122  0.9021 -2.0528
 4092TIP3   OH236470   4.796   0.461  12.607  0.3875  0.2005 -0.1051
 4092TIP3    H136471   4.792   0.518  12.530 -0.2707  1.1037  0.5802
 4092TIP3    H236472   4.885   0.471  12.640  0.5039  0.2376 -0.4242
 4093TIP3   OH236473   4.331   1.998  12.715 -0.5246  0.1775  0.4517
 4093TIP3    H136474   4.280   1.918  12.715 -0.3667  0.0738  1.1883
 4093TIP3    H236475   4.267   2.067  12.696 -0.5041 -0.2009 -1.1196
 4094TIP3   OH236476   3.965   3.772   9.968  0.4018  0.2375  0.1507
 4094TIP3    H136477   4.012   3.689   9.978 -1.4811 -0.9501 -0.4065
 4094TIP3    H236478   3.975   3.795   9.876  0.9612  0.7003  0.3134
 4095TIP3   OH236479   4.041   4.299  12.057  0.5864 -0.4477  0.0837
 4095TIP3    H136480   3.982   4.340  11.994  3.5562  3.3389 -0.5619
 4095TIP3    H236481   3.992   4.298  12.139 -1.3816 -0.3003 -1.0368
 4096TIP3   OH236482   5.040   4.816  11.901  0.2637  0.2396  0.1996
 4096TIP3    H136483   5.131   4.840  11.921  0.9241 -1.9916  0.0932
 4096TIP3    H236484   5.031   4.831  11.807  0.8371 -0.4717  0.0267
 4097TIP3   OH236485   1.125   0.640  10.383 -0.2949  0.3500 -0.3175
 4097TIP3    H136486   1.197   0.617  10.442 -0.0377  1.5840 -0.1251
 4097TIP3    H236487   1.132   0.578  10.311  0.3453 -0.1743  0.1852
 4098TIP3   OH236488   0.966   0.994  10.243  0.0477 -0.1126  0.3930
 4098TIP3    H136489   1.041   0.940  10.270 -0.0398  0.0766  1.0233
 4098TIP3    H236490   0.980   1.007  10.149  1.7584  1.3578  0.7895
 4099TIP3   OH236491   4.014   1.014  11.979 -0.2754  0.0588 -0.0969
 4099TIP3    H136492   4.069   1.031  11.902  1.8846 -1.6704  0.9559
 4099TIP3    H236493   3.988   0.922  11.970 -2.3693  0.6167 -0.1405
 4100TIP3   OH236494   0.898   1.251  11.330 -0.2236 -0.4600 -0.0013
 4100TIP3    H136495   0.925   1.183  11.393 -1.3125  0.6668  1.7818
 4100TIP3    H236496   0.974   1.260  11.272  1.1824 -1.0261  1.6326
 4101TIP3   OH236497   3.610   4.572  13.095 -1.0369  0.2704 -0.1519
 4101TIP3    H136498   3.576   4.587  13.183 -0.7532  1.0076 -0.1593
 4101TIP3    H236499   3.533   4.548  13.043 -1.7040  2.6065 -0.3335
 4102TIP3   OH236500   4.670   0.435  10.900 -0.0212 -0.5600  0.0440
 4102TIP3    H136501   4.693   0.477  10.818  0.5857  0.1559  0.5678
 4102TIP3    H236502   4.638   0.348  10.875  2.5233 -1.3564 -0.7962
 4103TIP3   OH236503   0.532   1.255  10.179 -0.2313 -0.0033 -0.6744
 4103TIP3    H136504   0.567   1.223  10.096  1.2102 -0.6957  0.1620
 4103TIP3    H236505   0.552   1.348  10.179  0.5542 -0.1649 -0.7387
 4104TIP3   OH236506   6.418   0.934  13.155 -0.1720 -0.0682  0.0709
 4104TIP3    H136507   6.331   0.928  13.195 -0.5811 -2.3372 -0.9861
 4104TIP3    H236508   6.421   1.021  13.116 -2.8310 -0.6283 -1.6499
 4105TIP3   OH236509   1.242   2.207  12.272  0.7639  0.4946  0.3580
 4105TIP3    H136510   1.304   2.135  12.287  1.6610  1.0654 -0.4722
 4105TIP3    H236511   1.234   2.212  12.177 -0.5109  0.4977  0.4543
 4106TIP3   OH236512   0.188   5.098  12.401  0.2554 -0.2538  0.6360
 4106TIP3    H136513   0.178   5.186  12.366  0.0810  0.1409  1.6340
 4106TIP3    H236514   0.098   5.064  12.407  0.4351 -1.4729 -2.0333
 4107TIP3   OH236515   1.098   6.350  10.330 -0.5017 -0.1001  0.1367
 4107TIP3    H136516   1.171   6.316  10.382  0.8736  0.9265 -1.0463
 4107TIP3    H236517   1.043   6.274  10.313  0.4384 -0.9545  0.8049
 4108TIP3   OH236518   6.782   5.535   9.736 -0.0065  0.1618 -0.7604
 4108TIP3    H136519   6.717   5.469   9.713  0.1578 -0.0260 -0.6847
 4108TIP3    H236520   6.807   5.514   9.826 -0.6895  0.9248 -0.3738
 4109TIP3   OH236521   3.871   0.453  11.453 -0.4351  0.1843 -0.4407
 4109TIP3    H136522   3.810   0.519  11.488 -1.6930  0.3518 -2.7412
 4109TIP3    H236523   3.864   0.380  11.514 -0.7919  1.2713  0.8853
 4110TIP3   OH236524   2.357   6.513  12.579 -0.2607  0.1451 -0.5312
 4110TIP3    H136525   2.318   6.443  12.633  0.0632 -0.0095 -0.4963
 4110TIP3    H236526   2.284   6.543  12.524 -0.5944  0.3049 -0.0081
 4111TIP3   OH236527   4.881   2.363  12.730  0.4551  0.0075 -0.2442
 4111TIP3    H136528   4.833   2.428  12.781 -0.3826 -1.7609  1.3599
 4111TIP3    H236529   4.973   2.386  12.742  0.3350 -0.6962  2.7232
 4112TIP3   OH236530   0.003   1.343  10.028 -0.9704 -0.9577  0.6601
 4112TIP3    H136531  -0.023   1.254  10.003 -1.4644 -0.3744 -1.0206
 4112TIP3    H236532  -0.066   1.373  10.086 -1.6659 -1.0936 -0.0763
 4113TIP3   OH236533   3.207   3.571  10.193  0.6530  0.1959 -0.2764
 4113TIP3    H136534   3.115   3.580  10.215  1.0140  0.8393  1.1333
 4113TIP3    H236535   3.235   3.490  10.237  0.7663  0.0050 -0.6929
 4114TIP3   OH236536   1.843   2.056  12.777 -0.1052  0.4452 -0.4022
 4114TIP3    H136537   1.881   2.122  12.719  2.2218 -0.2185  0.2599
 4114TIP3    H236538   1.842   2.096  12.863  1.1176 -0.2833 -0.0368
 4115TIP3   OH236539   0.526   3.264  11.643  0.4824 -0.4130  0.2318
 4115TIP3    H136540   0.574   3.233  11.720 -0.0764 -0.9999  0.3519
 4115TIP3    H236541   0.438   3.229  11.654  0.1689  0.2055 -0.2582
 4116TIP3   OH236542   3.593   3.939  12.795 -0.5678 -0.5595  0.4200
 4116TIP3    H136543   3.576   3.928  12.888 -2.2675 -0.0455  0.1970
 4116TIP3    H236544   3.546   3.868  12.753 -0.8754 -0.0377 -0.1339
 4117TIP3   OH236545   3.426   0.616  12.923  0.1526  0.1342  0.1665
 4117TIP3    H136546   3.401   0.542  12.978  0.8675  0.3890  0.8635
 4117TIP3    H236547   3.398   0.693  12.972 -1.0267  0.3389 -0.7782
 4118TIP3   OH236548   5.073   4.296  11.564 -0.1626  0.7130 -0.5193
 4118TIP3    H136549   5.066   4.251  11.480  0.0343  0.9886 -0.6841
 4118TIP3    H236550   4.984   4.296  11.598 -0.1955  0.3639 -0.6056
 4119TIP3   OH236551   1.500   1.882   9.787 -0.2389 -0.2147  0.1410
 4119TIP3    H136552   1.496   1.787   9.772  0.1337 -0.6934  2.5889
 4119TIP3    H236553   1.409   1.910   9.788 -0.5507 -1.1144  2.1229
 4120TIP3   OH236554   0.542   2.956  10.188 -0.2456  0.0157  0.2403
 4120TIP3    H136555   0.534   2.890  10.256 -0.2902  0.8727  1.0922
 4120TIP3    H236556   0.474   2.933  10.124 -0.9529 -0.1725  1.0335
 4121TIP3   OH236557   4.873   0.434  12.151 -0.5670  0.3209  0.0526
 4121TIP3    H136558   4.898   0.457  12.061 -1.1348  0.2019 -0.1453
 4121TIP3    H236559   4.780   0.458  12.156 -0.6655 -0.1288  0.4474
 4122TIP3   OH236560   0.998   2.716  12.718  0.3316 -1.2666 -0.5586
 4122TIP3    H136561   1.059   2.664  12.665  1.7789 -1.5782  1.3022
 4122TIP3    H236562   0.975   2.659  12.791 -1.4381 -0.7727 -0.6807
 4123TIP3   OH236563   0.624   1.875  11.155 -0.1420 -0.2114 -0.0485
 4123TIP3    H136564   0.705   1.912  11.117 -0.7473  1.5661  0.2774
 4123TIP3    H236565   0.606   1.798  11.101  0.7300  0.4589 -1.3806
 4124TIP3   OH236566   2.411   2.918  10.474 -0.2176  0.1009  0.2378
 4124TIP3    H136567   2.345   2.874  10.420 -0.2179 -0.2512  0.5176
 4124TIP3    H236568   2.389   3.011  10.469  0.6027  0.2274 -1.4722
 4125TIP3   OH236569   4.033   5.059  10.159 -0.3065 -0.0617 -0.4500
 4125TIP3    H136570   4.082   4.993  10.109 -1.3980 -0.2063 -1.3847
 4125TIP3    H236571   3.969   5.093  10.096 -0.0997  1.5444  0.1624
 4126TIP3   OH236572   1.544   1.037  10.223 -0.2507  0.6524  0.5266
 4126TIP3    H136573   1.592   1.118  10.239 -1.0987  1.4440 -0.7519
 4126TIP3    H236574   1.461   1.065  10.186  0.0792 -0.8490 -1.5273
 4127TIP3   OH236575   4.398   6.514  11.708  0.4198 -1.2190 -0.2055
 4127TIP3    H136576   4.443   6.578  11.763  1.2177 -1.3073 -0.7389
 4127TIP3    H236577   4.332   6.476  11.765 -0.1803  0.1916  0.0818
 4128TIP3   OH236578   4.119   3.218  13.068  0.0758  0.5011 -1.0249
 4128TIP3    H136579   4.215   3.226  13.066  0.0628  2.1466  1.1749
 4128TIP3    H236580   4.089   3.276  12.998  0.6579 -0.8179 -2.4252
 4129TIP3   OH236581   2.564   5.225  10.385 -0.8291 -0.0609 -0.3513
 4129TIP3    H136582   2.659   5.213  10.384 -0.6973  0.9126 -0.2800
 4129TIP3    H236583   2.530   5.141  10.416  0.0080 -0.4083 -0.3411
 4130TIP3   OH236584   4.425   6.350  11.491 -0.8860 -0.3824  0.3695
 4130TIP3    H136585   4.334   6.328  11.509 -0.2962 -0.9789  3.0170
 4130TIP3    H236586   4.456   6.392  11.571  2.1480 -3.5531  1.0809
 4131TIP3   OH236587   4.132   2.537  12.691 -0.5465  0.2661 -0.3203
 4131TIP3    H136588   4.134   2.477  12.766  0.1655 -0.6858 -1.0676
 4131TIP3    H236589   4.044   2.574  12.691 -0.2382  1.1091  1.5998
 4132TIP3   OH236590   2.360   5.126   9.474 -0.2205 -0.5087 -0.1130
 4132TIP3    H136591   2.386   5.039   9.505  0.7901 -1.4602 -3.2254
 4132TIP3    H236592   2.320   5.110   9.388 -0.3076  2.0922 -0.6431
 4133TIP3   OH236593   1.883   6.142   9.900  0.7902  0.1634 -0.4606
 4133TIP3    H136594   1.879   6.152   9.805 -0.3597 -0.3811 -0.4849
 4133TIP3    H236595   1.818   6.203   9.933  0.0645 -0.7683 -0.1252
 4134TIP3   OH236596   1.630   2.419  12.361  0.1366 -0.2752 -0.2153
 4134TIP3    H136597   1.607   2.416  12.268 -1.2277 -0.0435  0.0952
 4134TIP3    H236598   1.721   2.449  12.362 -0.3715  1.4778 -1.4061
 4135TIP3   OH236599   1.449   4.972  11.314  0.0230 -0.0631  0.0444
 4135TIP3    H136600   1.400   4.937  11.389  0.8404 -0.6396  0.3280
 4135TIP3    H236601   1.383   5.008  11.256 -0.6427  0.2177  0.9601
 4136TIP3   OH236602   0.796   6.079  12.182  0.4592 -0.4189  0.2431
 4136TIP3    H136603   0.802   6.173  12.201  0.1773 -0.2173 -0.6360
 4136TIP3    H236604   0.877   6.059  12.135  0.4304 -0.5757  0.2599
 4137TIP3   OH236605   6.143   5.510  12.662 -0.0641 -0.2381  0.3027
 4137TIP3    H136606   6.060   5.492  12.706 -1.1484 -0.4488 -1.6845
 4137TIP3    H236607   6.129   5.595  12.619  1.6296  0.8865  1.8556
 4138TIP3   OH236608   0.649   3.453  12.005 -0.1416 -0.0248 -0.7945
 4138TIP3    H136609   0.675   3.362  12.015  2.7823  0.6430 -1.2283
 4138TIP3    H236610   0.697   3.483  11.928 -0.2324  2.1268 -0.0823
 4139TIP3   OH236611   1.707   4.787  11.916 -0.6360 -0.5931  0.9605
 4139TIP3    H136612   1.618   4.772  11.949 -0.8063  1.8372  1.7990
 4139TIP3    H236613   1.759   4.806  11.994  0.7889 -2.3541  0.5249
 4140TIP3   OH236614   5.713   5.677  13.081  0.2420 -0.0858 -0.5734
 4140TIP3    H136615   5.621   5.673  13.054 -0.1885  0.5162  0.7535
 4140TIP3    H236616   5.740   5.766  13.060 -0.2587  0.5723  1.3897
 4141TIP3   OH236617   5.072   4.876  12.822  0.2141  0.0473 -0.2170
 4141TIP3    H136618   5.143   4.933  12.790 -0.0006 -0.3279 -1.3801
 4141TIP3    H236619   5.054   4.816  12.750 -1.0086 -0.1410  0.2215
 4142TIP3   OH236620   0.146   6.410  11.635  0.2168 -0.0089 -0.5590
 4142TIP3    H136621   0.207   6.346  11.671 -1.0478  0.0801  1.9957
 4142TIP3    H236622   0.095   6.440  11.710 -1.5979  1.4356 -2.2295
 4143TIP3   OH236623   5.048   5.259  12.630  0.1164  0.1230 -0.2606
 4143TIP3    H136624   4.975   5.289  12.685  0.0911  1.4829 -0.9987
 4143TIP3    H236625   5.118   5.238  12.693  0.2100  1.9875  0.3358
 4144TIP3   OH236626   2.020   6.225  11.189  0.2153 -0.4106  0.0464
 4144TIP3    H136627   1.950   6.168  11.220  1.2414 -1.0556  1.2558
 4144TIP3    H236628   1.985   6.314  11.197 -0.8322 -0.7709 -0.3912
 4145TIP3   OH236629   2.584   2.688  11.281  0.4854 -0.0215 -0.0199
 4145TIP3    H136630   2.630   2.716  11.360  1.7717  0.9430 -1.0589
 4145TIP3    H236631   2.647   2.633  11.235  0.8570  1.7137 -1.7144
 4146TIP3   OH236632   2.693   1.224  10.332 -0.0000 -0.3501 -0.3392
 4146TIP3    H136633   2.661   1.254  10.417 -0.5852  0.1857 -0.7429
 4146TIP3    H236634   2.659   1.287  10.269  1.4551 -0.0105 -0.8431
 4147TIP3   OH236635   3.138   5.293  10.889 -0.2081  0.3033  0.1885
 4147TIP3    H136636   3.101   5.373  10.926 -0.9211  0.6391 -1.1546
 4147TIP3    H236637   3.074   5.225  10.910 -1.0754  0.6615 -1.1126
 4148TIP3   OH236638   2.411   2.614  10.672  0.3111 -0.0256 -0.4591
 4148TIP3    H136639   2.344   2.610  10.604  0.2591  1.0953 -0.4903
 4148TIP3    H236640   2.363   2.599  10.754  0.4876 -2.1326 -0.7001
 4149TIP3   OH236641   2.364   0.248  11.519  0.3759  0.2474  0.0841
 4149TIP3    H136642   2.294   0.280  11.575 -0.3263  1.0796 -1.2253
 4149TIP3    H236643   2.323   0.233  11.434  1.7177  0.4879 -0.6365
 4150TIP3   OH236644   6.420   3.682  11.676 -0.0130  0.7189 -0.2204
 4150TIP3    H136645   6.416   3.621  11.750  0.9003  1.8401  0.8016
 4150TIP3    H236646   6.446   3.627  11.602 -0.8792 -0.4202  0.2762
 4151TIP3   OH236647   1.873   1.306   9.601 -0.0879 -0.1523  0.0529
 4151TIP3    H136648   1.802   1.368   9.588 -0.1491 -0.6676 -2.6045
 4151TIP3    H236649   1.832   1.220   9.591  0.5593 -0.5325  0.5649
 4152TIP3   OH236650   4.091   4.685  10.850  0.1270  0.5569  0.0813
 4152TIP3    H136651   4.030   4.672  10.777  0.1373  1.4543 -0.0975
 4152TIP3    H236652   4.051   4.755  10.902  1.1462  1.3758 -0.2060
 4153TIP3   OH236653   6.327   0.481  10.589  0.7216  0.3325  0.2005
 4153TIP3    H136654   6.301   0.488  10.680 -3.4390  0.7998 -0.8301
 4153TIP3    H236655   6.335   0.387  10.572 -2.1368  0.0076  0.2803
 4154TIP3   OH236656   2.256   0.220  11.249 -0.2332  0.1284 -0.6175
 4154TIP3    H136657   2.275   0.153  11.183 -2.0963 -0.2573 -0.8333
 4154TIP3    H236658   2.249   0.301  11.199  0.7622  0.2795 -0.5320
 4155TIP3   OH236659   2.690   5.646  12.959  0.3700  0.4720  0.3342
 4155TIP3    H136660   2.611   5.630  13.010 -1.7333  1.3092 -2.4160
 4155TIP3    H236661   2.732   5.720  13.003 -1.6754  1.5580  0.5659
 4156TIP3   OH236662   3.140   3.604  11.544  0.4721  0.0876  1.0009
 4156TIP3    H136663   3.160   3.695  11.564  0.3752 -0.0047  1.5500
 4156TIP3    H236664   3.106   3.569  11.627 -0.0036 -0.2978  0.6489
 4157TIP3   OH236665   4.222   1.644  12.217  0.0188 -0.1845 -0.2526
 4157TIP3    H136666   4.216   1.550  12.234 -2.1753 -0.3601 -1.5950
 4157TIP3    H236667   4.284   1.677  12.282 -0.8830 -2.1949  1.7339
 4158TIP3   OH236668   0.178   5.557  12.101  0.2194 -0.2112  0.1531
 4158TIP3    H136669   0.132   5.520  12.026 -0.2961 -0.8139  0.7501
 4158TIP3    H236670   0.131   5.638  12.121 -0.3358 -0.6130  0.5012
 4159TIP3   OH236671   2.263   5.157  10.601 -0.6168 -0.6824  0.1240
 4159TIP3    H136672   2.227   5.179  10.515  1.5935 -1.7652 -1.1710
 4159TIP3    H236673   2.268   5.061  10.601  1.0285 -0.6241  0.7318
 4160TIP3   OH236674   4.383   3.250  10.246  0.2126  0.5089  0.5284
 4160TIP3    H136675   4.470   3.250  10.287 -0.3595  2.0362  1.8597
 4160TIP3    H236676   4.385   3.327  10.189  0.5631 -0.8935 -1.4779
 4161TIP3   OH236677   4.197   4.875  10.606 -0.1068  0.3533  0.4877
 4161TIP3    H136678   4.144   4.954  10.599 -0.2763  0.1954 -0.1907
 4161TIP3    H236679   4.181   4.842  10.694 -0.6288  0.6613  0.5095
 4162TIP3   OH236680   4.473   3.428  12.233  0.5201 -0.5809  0.4187
 4162TIP3    H136681   4.414   3.353  12.234 -0.1629 -0.0591  0.5536
 4162TIP3    H236682   4.484   3.450  12.141 -1.2396  0.6264  0.4484
 4163TIP3   OH236683   5.250   4.231  12.910 -0.4115  0.0628  0.3919
 4163TIP3    H136684   5.314   4.302  12.899 -0.8158  0.2232 -1.1943
 4163TIP3    H236685   5.166   4.272  12.888 -0.6268 -0.9209 -0.7195
 4164TIP3   OH236686   6.803   6.266  12.195  0.3225 -0.1525 -0.4922
 4164TIP3    H136687   6.831   6.345  12.241 -2.7250  1.9609 -1.9160
 4164TIP3    H236688   6.874   6.248  12.133  0.9311  1.7724 -0.4359
 4165TIP3   OH236689   1.398   0.321   9.602  0.0411  0.0953 -0.1778
 4165TIP3    H136690   1.425   0.246   9.548  0.4338 -0.4622  0.7599
 4165TIP3    H236691   1.467   0.386   9.590  1.1237 -0.7655  1.0898
 4166TIP3   OH236692   3.845   5.716  12.489  0.0233 -0.2196 -0.3593
 4166TIP3    H136693   3.847   5.801  12.445  0.3622 -0.5684 -1.0316
 4166TIP3    H236694   3.778   5.666  12.442 -0.0240 -0.3973 -0.1046
 4167TIP3   OH236695   5.161   0.130  11.492  0.0208  0.1334  0.6387
 4167TIP3    H136696   5.069   0.104  11.498  0.0825 -0.2723 -0.0229
 4167TIP3    H236697   5.159   0.225  11.487 -0.4355  0.0828 -0.3607
 4168TIP3   OH236698   4.596   2.422  10.683 -0.0411  0.2539  0.0491
 4168TIP3    H136699   4.653   2.447  10.611  0.1552  1.0392  0.4726
 4168TIP3    H236700   4.641   2.451  10.762 -0.1600 -0.7745  0.5218
 4169TIP3   OH236701   0.003   3.364  11.541  0.5442  0.5593 -0.0714
 4169TIP3    H136702   0.003   3.442  11.486 -0.8924  1.2503  0.8438
 4169TIP3    H236703   0.014   3.291  11.480  1.4694  1.4264 -0.9910
 4170TIP3   OH236704   0.149   4.530  10.053 -0.0720  0.0428 -0.2814
 4170TIP3    H136705   0.142   4.619  10.086 -0.5952 -0.8583  2.2748
 4170TIP3    H236706   0.079   4.482  10.096  1.0189 -1.9090 -0.5262
 4171TIP3   OH236707   0.440   0.326   9.854  0.3076  1.0934  0.4290
 4171TIP3    H136708   0.431   0.325   9.949 -1.0999 -1.9698  0.3991
 4171TIP3    H236709   0.351   0.340   9.822  0.1413 -1.1477 -0.2972
 4172TIP3   OH236710   3.356   2.214  13.160  0.5748  0.5795 -0.5039
 4172TIP3    H136711   3.312   2.133  13.137  1.5890  0.0388 -0.6180
 4172TIP3    H236712   3.337   2.273  13.086 -0.3420  0.5303 -0.3193
 4173TIP3   OH236713   6.073   0.885  12.658 -0.4629  0.1136 -0.0512
 4173TIP3    H136714   6.022   0.828  12.600 -2.4179 -0.9109  2.4544
 4173TIP3    H236715   6.019   0.964  12.666 -1.6550 -0.8424  2.3571
 4174TIP3   OH236716   4.816   5.911  10.786 -0.2031 -0.2056 -0.3240
 4174TIP3    H136717   4.741   5.878  10.735  0.5605 -1.8648 -0.4170
 4174TIP3    H236718   4.872   5.835  10.799  1.0686  0.8281  0.4918
 4175TIP3   OH236719   2.708   4.852  12.964  0.2407 -0.0026  0.1725
 4175TIP3    H136720   2.778   4.845  12.900  1.2558 -1.9753  1.4173
 4175TIP3    H236721   2.675   4.763  12.975  0.4418  0.1467  2.6970
 4176TIP3   OH236722   5.206   6.155  11.989 -0.1999 -0.3035  0.6976
 4176TIP3    H136723   5.180   6.140  12.079 -1.3849 -3.8926 -0.0976
 4176TIP3    H236724   5.125   6.177  11.944  0.5119  2.4250  0.5248
 4177TIP3   OH236725   1.268   5.225  10.791 -0.0767  0.1167 -0.3395
 4177TIP3    H136726   1.347   5.203  10.840  0.7642  3.2903 -0.0727
 4177TIP3    H236727   1.202   5.242  10.858 -0.5549 -0.8714 -0.5311
 4178TIP3   OH236728   4.303   3.846   9.844  0.0322  0.7402 -0.3283
 4178TIP3    H136729   4.291   3.790   9.767 -1.4780  0.4593  0.0802
 4178TIP3    H236730   4.336   3.787   9.912  1.7821  1.0733 -0.8446
 4179TIP3   OH236731   0.437   0.280  11.948 -0.0766 -0.0057  0.5098
 4179TIP3    H136732   0.525   0.242  11.960  0.1943  0.3963 -0.1469
 4179TIP3    H236733   0.452   0.359  11.896 -0.5380  1.4297  2.4422
 4180TIP3   OH236734   4.646   4.502  12.188 -0.1376 -0.4045 -0.1674
 4180TIP3    H136735   4.592   4.547  12.123 -0.4578 -0.5884 -0.0297
 4180TIP3    H236736   4.605   4.522  12.272 -0.8839 -1.7581 -0.1803
 4181TIP3   OH236737   4.377   1.137  12.926 -0.9012  0.1644 -0.3217
 4181TIP3    H136738   4.421   1.118  13.008 -0.3651 -0.2883 -0.7101
 4181TIP3    H236739   4.286   1.155  12.951 -1.0303 -1.1813  0.2503
 4182TIP3   OH236740   2.308   2.169  12.739 -0.0620 -0.5728  0.0623
 4182TIP3    H136741   2.354   2.085  12.752  3.7199  1.2873  0.0061
 4182TIP3    H236742   2.317   2.187  12.646 -2.4603 -0.8210 -0.2854
 4183TIP3   OH236743   0.533   2.581  11.498  0.2227  0.3080 -0.0379
 4183TIP3    H136744   0.449   2.620  11.474 -0.3413 -0.6983  0.2252
 4183TIP3    H236745   0.576   2.564  11.414 -0.2678 -0.0684 -0.2224
 4184TIP3   OH236746   6.370   1.721  10.383 -0.1679  0.6799  0.5253
 4184TIP3    H136747   6.342   1.730  10.291  1.9385 -0.2386 -0.2770
 4184TIP3    H236748   6.353   1.806  10.422  1.3739  1.9955 -1.4805
 4185TIP3   OH236749   3.622   0.893  10.994 -0.3098 -0.0144  0.6035
 4185TIP3    H136750   3.621   0.859  10.905 -0.3146  0.5321  0.3924
 4185TIP3    H236751   3.689   0.840  11.039 -0.9166 -0.8731  0.5179
 4186TIP3   OH236752   0.224   4.656  12.267 -0.3285 -0.2226 -0.2888
 4186TIP3    H136753   0.182   4.651  12.181  1.1167 -1.4574 -0.9799
 4186TIP3    H236754   0.290   4.725  12.257 -1.6638  1.2429  0.5819
 4187TIP3   OH236755   5.912   4.622  12.366 -0.1805  0.2348 -0.1617
 4187TIP3    H136756   5.975   4.666  12.422 -0.3425  0.7882 -0.4018
 4187TIP3    H236757   5.836   4.605  12.423 -0.0943  0.2130 -0.0537
 4188TIP3   OH236758   4.633   3.886  12.384  0.1044  1.0148  0.0613
 4188TIP3    H136759   4.656   3.922  12.298  1.1352  1.5221  0.5257
 4188TIP3    H236760   4.685   3.806  12.391 -0.0394  0.9319  0.1854
 4189TIP3   OH236761   0.778   1.989  13.255  0.3186  0.1638  0.1340
 4189TIP3    H136762   0.807   2.020  13.342  1.2739  1.7276 -0.6913
 4189TIP3    H236763   0.857   1.953  13.215 -0.3784 -1.7140  0.3338
 4190TIP3   OH236764   0.135   1.165  11.894  0.1650  0.2447 -0.0303
 4190TIP3    H136765   0.076   1.090  11.886  2.3135 -1.5752  0.1727
 4190TIP3    H236766   0.096   1.220  11.962 -0.8141 -1.3670  0.7591
 4191TIP3   OH236767   0.218   6.030  11.102  0.1891  0.3559  0.1747
 4191TIP3    H136768   0.190   6.055  11.014  1.0537 -0.5495 -0.3798
 4191TIP3    H236769   0.241   6.113  11.144  0.7608  0.7138 -0.8145
 4192TIP3   OH236770   6.306   3.983  10.033 -0.2476  0.4661  0.0064
 4192TIP3    H136771   6.257   3.926   9.973  0.2801 -0.7355  0.6800
 4192TIP3    H236772   6.240   4.039  10.073 -0.7108  0.7097 -1.0787
 4193TIP3   OH236773   0.028   3.535  10.302  0.3787 -0.0886  0.1704
 4193TIP3    H136774   0.018   3.466  10.237  0.4793  0.4608 -0.4350
 4193TIP3    H236775   0.115   3.571  10.286  0.2651  0.2832  0.3790
 4194TIP3   OH236776   2.855   1.942  12.826  0.2229 -0.1005  0.1516
 4194TIP3    H136777   2.849   1.956  12.920 -0.4264  1.9509 -0.1431
 4194TIP3    H236778   2.823   1.852  12.813 -0.7469 -0.0281  1.7608
 4195TIP3   OH236779   3.515   1.400  10.171  0.4598  0.4643 -0.3958
 4195TIP3    H136780   3.542   1.373  10.258  1.3445 -2.7236 -1.5110
 4195TIP3    H236781   3.590   1.447  10.135  0.9495 -0.1729 -0.2098
 4196TIP3   OH236782   5.642   0.596  12.390 -0.1301  0.3535  0.1692
 4196TIP3    H136783   5.651   0.511  12.345 -1.7778  0.2005  0.0516
 4196TIP3    H236784   5.681   0.659  12.330  0.1515 -0.1931 -0.2348
 4197TIP3   OH236785   0.804   3.029  11.202  0.3243  0.5155 -0.2351
 4197TIP3    H136786   0.766   3.043  11.289  0.5605  0.5785 -0.1401
 4197TIP3    H236787   0.872   2.963  11.216 -1.7332 -1.9484 -0.9158
 4198TIP3   OH236788   2.287   5.222   9.892  0.7551  0.4646  0.5700
 4198TIP3    H136789   2.352   5.152   9.885  1.7150  1.1519  2.1597
 4198TIP3    H236790   2.264   5.242   9.801  0.0646 -2.2106  0.0443
 4199TIP3   OH236791   1.327   4.431  10.818  0.0388 -0.1761  0.2712
 4199TIP3    H136792   1.359   4.505  10.767 -0.0497  1.0416  1.8832
 4199TIP3    H236793   1.385   4.359  10.796  0.4375  0.5049 -0.9788
 4200TIP3   OH236794   2.098   4.189  12.473 -0.2872 -0.1096  0.8290
 4200TIP3    H136795   2.111   4.153  12.561 -1.3554 -2.2480  0.1980
 4200TIP3    H236796   2.099   4.112  12.415 -0.0092  1.1905 -0.9975
 4201TIP3   OH236797   3.340   2.866  10.601  0.3114 -0.5750  0.0771
 4201TIP3    H136798   3.259   2.901  10.565  0.2093 -2.6495 -2.0145
 4201TIP3    H236799   3.324   2.856  10.695 -1.3471  0.2950 -0.0952
 4202TIP3   OH236800   1.660   2.052  12.265 -0.9840  0.4961  0.6597
 4202TIP3    H136801   1.600   1.978  12.259  0.3066 -0.5755  0.5587
 4202TIP3    H236802   1.651   2.083  12.356 -1.0368 -0.2220  0.9019
 4203TIP3   OH236803   6.625   6.541  12.102 -0.0533 -0.3052 -0.0082
 4203TIP3    H136804   6.588   6.484  12.170  1.1031  1.2990  2.1075
 4203TIP3    H236805   6.718   6.547  12.125  0.2052  0.9614 -1.2717
 4204TIP3   OH236806   4.346   1.759  11.018  0.2994  0.6762 -0.2908
 4204TIP3    H136807   4.386   1.833  11.063 -0.6141  2.1594 -1.8000
 4204TIP3    H236808   4.398   1.683  11.045  1.1723  1.8118  1.4180
 4205TIP3   OH236809   2.671   4.016  12.044 -0.5421  0.2018  0.1574
 4205TIP3    H136810   2.724   4.011  12.124 -0.3490  1.2795  0.1058
 4205TIP3    H236811   2.734   4.030  11.974 -0.6744 -1.1133 -0.2576
 4206TIP3   OH236812   2.006   3.844  12.912 -0.2594 -1.0387  0.1740
 4206TIP3    H136813   2.061   3.907  12.960 -1.2591  0.5838 -0.7088
 4206TIP3    H236814   2.067   3.775  12.885  0.6398 -1.1357  2.2517
 4207TIP3   OH236815   6.525   1.615  12.727 -0.5273  0.3746  0.6415
 4207TIP3    H136816   6.578   1.562  12.788  0.1005 -0.1792 -0.3581
 4207TIP3    H236817   6.542   1.705  12.753  0.5317  0.1868  0.6594
 4208TIP3   OH236818   3.903   1.975  12.549 -0.6241 -0.1813  0.1497
 4208TIP3    H136819   3.983   2.017  12.579  0.0608 -1.3251  0.0086
 4208TIP3    H236820   3.850   2.046  12.512  0.2827  0.6045  0.3375
 4209TIP3   OH236821   4.733   5.666  11.579  0.3628  0.1155  0.5708
 4209TIP3    H136822   4.790   5.619  11.518 -0.0321 -0.2382  0.4711
 4209TIP3    H236823   4.782   5.745  11.601  0.5817  0.1706 -0.0826
 4210TIP3   OH236824   1.052   5.185  10.979  0.4464 -0.0418 -0.2706
 4210TIP3    H136825   0.960   5.179  10.955 -0.1491  0.9535  1.5452
 4210TIP3    H236826   1.081   5.094  10.987 -0.2290 -0.3642 -1.2974
 4211TIP3   OH236827   5.276   1.920  11.328 -0.8136  0.6459  0.7511
 4211TIP3    H136828   5.208   1.855  11.346 -0.4055  0.2969  1.0526
 4211TIP3    H236829   5.288   1.966  11.411  0.5210 -0.4445  1.2015
 4212TIP3   OH236830   1.065   3.347  10.925  0.3539  0.0386 -0.1990
 4212TIP3    H136831   1.094   3.261  10.894 -0.8766 -0.5177  0.1279
 4212TIP3    H236832   1.061   3.401  10.846  1.5276 -0.0671 -0.3505
 4213TIP3   OH236833   3.327   2.899  12.211 -0.1657  0.0520 -0.3015
 4213TIP3    H136834   3.313   2.993  12.200  0.5396  0.2290  0.2180
 4213TIP3    H236835   3.306   2.861  12.126 -0.8092  0.6376 -0.4081
 4214TIP3   OH236836   6.746   1.987  10.795 -0.1184  0.0708 -0.2235
 4214TIP3    H136837   6.666   1.971  10.746 -0.3148 -0.3046  0.2151
 4214TIP3    H236838   6.815   1.988  10.729 -0.5922  1.3845 -0.7346
 4215TIP3   OH236839   3.168   4.373  12.406  0.0346 -0.6007 -0.1856
 4215TIP3    H136840   3.096   4.311  12.401  0.5248 -1.2895  0.9045
 4215TIP3    H236841   3.201   4.364  12.496 -0.5741  2.0022  0.3883
 4216TIP3   OH236842   6.275   4.690  11.476 -0.3764 -0.4597  0.1035
 4216TIP3    H136843   6.218   4.734  11.539  0.9411 -0.6596  1.4995
 4216TIP3    H236844   6.363   4.704  11.510  0.5770  0.9842 -2.6707
 4217TIP3   OH236845   4.620   1.393  10.278 -0.0862  0.6147 -0.3864
 4217TIP3    H136846   4.594   1.461  10.216  0.2693  0.7378 -0.4045
 4217TIP3    H236847   4.686   1.341  10.230 -1.0776 -0.3677 -0.7444
 4218TIP3   OH236848   4.564   2.415  11.114  0.2139  0.3143  0.3188
 4218TIP3    H136849   4.605   2.454  11.192 -0.4410  1.9269 -0.1049
 4218TIP3    H236850   4.471   2.435  11.124 -0.1204 -0.9397 -0.0770
 4219TIP3   OH236851   2.586   5.131  12.881 -0.1599  0.3641 -0.3434
 4219TIP3    H136852   2.492   5.115  12.889  0.2209 -1.2813  1.4700
 4219TIP3    H236853   2.626   5.075  12.947  2.0064  2.3875  0.1762
 4220TIP3   OH236854   2.594   5.867  12.249 -0.4077 -0.1225 -0.3412
 4220TIP3    H136855   2.645   5.889  12.170  0.3500 -0.0049  0.1688
 4220TIP3    H236856   2.622   5.932  12.314  0.1484 -1.1660  0.4960
 4221TIP3   OH236857   3.690   4.098  10.369 -0.4184  0.5945  0.6422
 4221TIP3    H136858   3.717   4.012  10.339  0.3831  0.9507  0.3341
 4221TIP3    H236859   3.709   4.097  10.463 -1.1333  0.1689  0.7907
 4222TIP3   OH236860   5.935   5.628  10.751 -0.3449 -0.1993 -0.0859
 4222TIP3    H136861   5.917   5.536  10.771  0.1939 -0.3043 -0.0657
 4222TIP3    H236862   5.933   5.633  10.656  2.1492 -0.7951 -0.2424
 4223TIP3   OH236863   3.642   0.265  10.302  0.3985  0.1531 -0.9620
 4223TIP3    H136864   3.735   0.282  10.288  0.8495 -1.3472 -0.0455
 4223TIP3    H236865   3.603   0.267  10.215  0.7952  3.1467 -1.1849
 4224TIP3   OH236866   5.957   1.162  11.293  0.4611 -0.3695  0.1673
 4224TIP3    H136867   5.966   1.178  11.199  1.2724  0.2345  0.3405
 4224TIP3    H236868   6.019   1.222  11.334  0.6580 -1.1507  1.0540
 4225TIP3   OH236869   3.506   1.586  11.588  0.0852  0.2658 -0.4030
 4225TIP3    H136870   3.421   1.589  11.544  0.9343  0.4186 -2.1427
 4225TIP3    H236871   3.553   1.515  11.544  0.8803  0.2358  0.4738
 4226TIP3   OH236872   5.695   2.234  12.165 -0.4149  0.1765 -0.5278
 4226TIP3    H136873   5.769   2.227  12.226 -0.6310 -1.2283 -0.3986
 4226TIP3    H236874   5.618   2.238  12.221 -0.7838 -3.0461 -0.6063
 4227TIP3   OH236875   3.692   0.434  11.930 -0.7291 -0.0183  0.1316
 4227TIP3    H136876   3.600   0.455  11.914 -0.4370  2.2720  1.0461
 4227TIP3    H236877   3.715   0.484  12.008  1.4423 -0.1242 -0.3661
 4228TIP3   OH236878   2.098   5.857  10.596  0.0105  0.0974  0.6944
 4228TIP3    H136879   2.005   5.875  10.608  0.1398  0.0537  1.9645
 4228TIP3    H236880   2.111   5.771  10.636  0.8510  0.7489  1.9003
 4229TIP3   OH236881   0.428   4.893  10.445 -0.2674  0.3839  0.7916
 4229TIP3    H136882   0.366   4.831  10.408  0.1037 -0.4291  1.5017
 4229TIP3    H236883   0.492   4.908  10.375 -0.2505 -0.1954  0.6784
 4230TIP3   OH236884   5.911   5.318  12.845  0.3831 -0.1202 -0.1874
 4230TIP3    H136885   5.866   5.368  12.913  0.6562 -0.3413  0.1617
 4230TIP3    H236886   5.866   5.233  12.844 -0.4227  0.3071 -1.1433
 4231TIP3   OH236887   2.631   3.156  11.596  0.0494  0.8870 -0.0568
 4231TIP3    H136888   2.677   3.076  11.570  0.8927  1.2370  0.3455
 4231TIP3    H236889   2.602   3.196  11.514 -2.0421 -0.7695 -0.2308
 4232TIP3   OH236890   3.687   0.076   9.778 -0.3087  0.7155  0.1861
 4232TIP3    H136891   3.620   0.076   9.846  0.3279  0.5410  0.8238
 4232TIP3    H236892   3.640   0.049   9.698 -1.0708  0.9890  0.5348
 4233TIP3   OH236893   4.036   5.316  13.043  0.5394 -0.2465 -0.0705
 4233TIP3    H136894   4.050   5.276  12.957 -2.2927 -1.1667 -0.2086
 4233TIP3    H236895   3.985   5.394  13.025  0.8692  0.1533  0.6939
 4234TIP3   OH236896   4.789   1.093  12.293 -0.2732 -0.6042  0.0242
 4234TIP3    H136897   4.808   1.110  12.201 -0.9421 -3.2744 -0.6917
 4234TIP3    H236898   4.711   1.038  12.292 -0.4427 -0.4869  2.2150
 4235TIP3   OH236899   3.590   5.330  10.028  0.2779 -0.6242  0.3907
 4235TIP3    H136900   3.505   5.292  10.010 -0.0755  0.3074  0.0209
 4235TIP3    H236901   3.587   5.417   9.988  1.9298 -1.1236 -0.9433
 4236TIP3   OH236902   6.201   1.703  12.228  0.4068 -0.1604 -0.0373
 4236TIP3    H136903   6.256   1.764  12.178  0.5769 -0.2405  0.0492
 4236TIP3    H236904   6.112   1.723  12.201  0.5963 -1.4173 -1.7409
 4237TIP3   OH236905   5.723   3.301  12.431  0.0333  0.1449 -0.2058
 4237TIP3    H136906   5.686   3.389  12.421  1.1637  0.7042  0.2961
 4237TIP3    H236907   5.715   3.283  12.525  2.9811  1.2304  0.3556
 4238TIP3   OH236908   5.610   2.250  11.185 -0.6954 -0.1572  0.1742
 4238TIP3    H136909   5.635   2.258  11.277  0.7840  0.3269 -0.2461
 4238TIP3    H236910   5.670   2.308  11.138 -1.8620  0.1206 -1.0360
 4239TIP3   OH236911   4.990   4.346  12.847  1.1533  0.0951  1.0004
 4239TIP3    H136912   4.953   4.403  12.915 -1.5632  0.4781 -0.6612
 4239TIP3    H236913   4.934   4.269  12.847  1.3044 -0.0436 -0.5782
 4240TIP3   OH236914   2.820   5.808  12.023 -0.1243 -0.2995 -0.5610
 4240TIP3    H136915   2.765   5.763  11.960  0.2608 -2.4027  0.4999
 4240TIP3    H236916   2.858   5.738  12.076  4.1332  0.9340 -1.6338
 4241TIP3   OH236917   3.971   5.075  12.618  0.0893  0.1368 -0.5263
 4241TIP3    H136918   4.015   5.140  12.674  0.9560 -1.3510  0.5935
 4241TIP3    H236919   3.931   5.014  12.679 -1.2161 -0.0921 -1.5626
 4242TIP3   OH236920   2.005   5.710  10.273  0.1977  0.1171 -0.2601
 4242TIP3    H136921   2.044   5.755  10.348  0.5148  0.1943 -0.4691
 4242TIP3    H236922   2.078   5.695  10.213 -0.1377  0.5089 -0.7763
 4243TIP3   OH236923   0.875   3.194  10.552  0.7749 -0.1158  0.0854
 4243TIP3    H136924   0.966   3.176  10.575  0.9674  1.4127  0.6742
 4243TIP3    H236925   0.854   3.130  10.484  2.1174 -0.8337  0.3145
 4244TIP3   OH236926   1.143   3.784  10.505  0.3989  0.3746 -0.3057
 4244TIP3    H136927   1.145   3.714  10.440  0.4441 -0.3155  0.4365
 4244TIP3    H236928   1.232   3.819  10.506  0.0981  1.2556 -1.5292
 4245TIP3   OH236929   6.148   5.368  10.697 -0.1933  0.6281 -0.1157
 4245TIP3    H136930   6.211   5.297  10.692 -0.2835  0.5540 -0.1979
 4245TIP3    H236931   6.137   5.397  10.607  0.8062  1.5869  0.0542
 4246TIP3   OH236932   4.988   1.960  10.508 -0.0007  0.3598 -0.2891
 4246TIP3    H136933   5.014   2.044  10.472  0.7782 -0.5295 -1.9270
 4246TIP3    H236934   4.986   1.901  10.432  1.2073 -1.4987  1.0440
 4247TIP3   OH236935   4.199   1.384  13.285  0.7901  0.0874 -0.8594
 4247TIP3    H136936   4.232   1.468  13.314 -0.3776  0.1909  0.2301
 4247TIP3    H236937   4.122   1.368  13.338  0.1385 -0.9934 -2.0622
 4248TIP3   OH236938   3.001   1.401  12.075 -0.1497 -0.3527 -0.5256
 4248TIP3    H136939   3.080   1.413  12.022  1.0911  1.5261  1.5166
 4248TIP3    H236940   3.016   1.318  12.120  0.6604 -0.0690 -0.2384
 4249TIP3   OH236941   0.903   5.320  12.498  0.4029  0.0755  0.9178
 4249TIP3    H136942   0.910   5.384  12.426  3.3345 -0.4508  0.6245
 4249TIP3    H236943   0.848   5.364  12.563 -0.5865  1.4251 -0.7274
 4250TIP3   OH236944   4.793   3.198  11.796 -0.4816 -0.0170 -0.2321
 4250TIP3    H136945   4.759   3.111  11.774 -3.2319  0.3234  1.9821
 4250TIP3    H236946   4.730   3.231  11.861  1.5602  2.8388  0.4462
 4251TIP3   OH236947   1.347   5.251  13.094 -0.0359 -0.0332  0.2629
 4251TIP3    H136948   1.421   5.303  13.063  0.1146 -0.6558 -0.4499
 4251TIP3    H236949   1.271   5.289  13.050 -0.4041  1.6216  2.1889
 4252TIP3   OH236950   1.557   6.750  12.868 -0.1171 -0.1151  0.1855
 4252TIP3    H136951   1.492   6.819  12.850  0.5068  0.1535 -1.1444
 4252TIP3    H236952   1.504   6.673  12.888 -0.8784  0.0637 -1.0085
 4253TIP3   OH236953   6.566   2.439  11.874 -0.4074  1.0970  0.2476
 4253TIP3    H136954   6.508   2.375  11.834  0.4521  0.8268 -0.5998
 4253TIP3    H236955   6.565   2.514  11.813  1.2664  0.5035 -0.5824
 4254TIP3   OH236956   2.852   6.337  10.159  0.4581 -0.1151  0.6686
 4254TIP3    H136957   2.832   6.431  10.163  0.0748 -0.2303  1.6189
 4254TIP3    H236958   2.799   6.305  10.086 -0.2452  0.2154  1.0213
 4255TIP3   OH236959   0.788   5.154  10.434  0.1097  0.0798  0.2806
 4255TIP3    H136960   0.732   5.140  10.358  0.6656 -0.8054  0.0210
 4255TIP3    H236961   0.847   5.225  10.408 -0.5398  0.6706  0.3749
 4256TIP3   OH236962   4.696   4.740  10.760  0.2738  0.4302  0.2271
 4256TIP3    H136963   4.689   4.659  10.709 -1.6800 -0.5347  1.8592
 4256TIP3    H236964   4.641   4.803  10.712  0.3531  0.2477 -0.1069
 4257TIP3   OH236965   0.310   3.029   9.671 -0.0918  0.4414  0.0556
 4257TIP3    H136966   0.294   3.070   9.586  0.4941  1.3823  0.3810
 4257TIP3    H236967   0.239   2.966   9.682  0.6122 -0.7485 -1.7696
 4258TIP3   OH236968   0.073   1.734  10.680 -0.1498 -0.8089 -0.4627
 4258TIP3    H136969   0.037   1.731  10.768 -0.4619  2.2616 -0.3926
 4258TIP3    H236970   0.166   1.716  10.691 -0.6761 -3.7665 -0.0243
 4259TIP3   OH236971   0.216   5.059  11.263 -0.1778  0.3711 -0.4728
 4259TIP3    H136972   0.179   4.991  11.319  0.3121  1.7102  1.5833
 4259TIP3    H236973   0.304   5.073  11.298  0.0065  1.5021 -1.3558
 4260TIP3   OH236974   5.011   1.428  12.453 -0.2360  0.0894  0.3054
 4260TIP3    H136975   4.974   1.347  12.488  0.3227 -0.1252  0.3969
 4260TIP3    H236976   5.032   1.480  12.530 -2.6884  1.2990  0.2516
 4261TIP3   OH236977   3.371   5.151  10.870 -0.2469 -0.0165  0.0664
 4261TIP3    H136978   3.338   5.062  10.885  2.2876 -0.7419  1.8658
 4261TIP3    H236979   3.294   5.207  10.881 -1.0616 -1.5965  4.0155
 4262TIP3   OH236980   3.001   3.150  11.272  0.1410  0.1261 -0.1564
 4262TIP3    H136981   2.948   3.217  11.230 -0.0959  0.3648  0.5197
 4262TIP3    H236982   3.024   3.187  11.357  0.0772 -0.6110  0.1880
 4263TIP3   OH236983   4.304   0.178  12.000  0.3569  0.5157 -0.4980
 4263TIP3    H136984   4.312   0.272  12.018  0.6664  0.2470  0.8240
 4263TIP3    H236985   4.285   0.138  12.084 -0.5073 -0.5501 -1.1695
 4264TIP3   OH236986   5.435   0.351  11.992 -0.7923 -0.3206 -0.2146
 4264TIP3    H136987   5.459   0.296  11.917 -1.0786  0.4153 -0.8642
 4264TIP3    H236988   5.462   0.439  11.966 -0.3508 -0.1502  0.8035
 4265TIP3   OH236989   2.878   0.280  11.031  0.4397  0.4198 -0.1712
 4265TIP3    H136990   2.821   0.207  11.007  1.6591 -1.3148  1.8594
 4265TIP3    H236991   2.840   0.316  11.111  0.5774  1.1843 -0.4367
 4266TIP3   OH236992   1.735   1.212  12.909 -0.3961  0.9825 -0.4143
 4266TIP3    H136993   1.733   1.130  12.859  2.3926  0.5259  0.0937
 4266TIP3    H236994   1.643   1.229  12.930 -1.0790 -1.9432 -0.6265
 4267TIP3   OH236995   5.306   2.532  11.006 -0.2774  0.0500  0.3788
 4267TIP3    H136996   5.279   2.599  10.943 -0.5127 -0.0914  0.3287
 4267TIP3    H236997   5.381   2.489  10.965  0.2936  0.7113  0.6957
 4268TIP3   OH236998   1.180   3.821  12.155  0.0102 -0.3896  0.5052
 4268TIP3    H136999   1.257   3.826  12.211 -0.3140 -1.0547  1.0154
 4268TIP3    H237000   1.214   3.838  12.067  0.4834  0.9343  0.9161
 4269TIP3   OH237001   1.142   2.646   9.217 -0.0318 -0.0631 -0.1150
 4269TIP3    H137002   1.185   2.578   9.165  3.8663  1.1392  1.1997
 4269TIP3    H237003   1.143   2.724   9.161 -3.4486 -0.6207 -1.1813
 4270TIP3   OH237004   0.826   4.846  11.673  0.9935 -0.3375 -0.1994
 4270TIP3    H137005   0.914   4.816  11.651  1.3521  0.4906  0.0753
 4270TIP3    H237006   0.791   4.879  11.590  1.6099  0.9644  0.0433
 4271TIP3   OH237007   6.830   0.990  12.561 -0.6814  0.2561  0.0198
 4271TIP3    H137008   6.796   0.901  12.566 -0.1784  0.0510 -0.1288
 4271TIP3    H237009   6.853   1.002  12.468  0.8632 -0.0810  0.3298
 4272TIP3   OH237010   6.623   3.819  11.976  0.1609 -0.0900  0.3261
 4272TIP3    H137011   6.543   3.857  11.940  1.2832  1.0700 -1.0835
 4272TIP3    H237012   6.636   3.739  11.926  1.1072  0.9366 -1.1374
 4273TIP3   OH237013   4.061   3.155  12.570  0.5872 -0.0001 -0.2668
 4273TIP3    H137014   4.126   3.138  12.638  0.6547  1.5777  0.1134
 4273TIP3    H237015   4.009   3.075  12.565  1.1599 -0.4784  0.9899
 4274TIP3   OH237016   3.993   4.952  11.558  0.1933 -0.0202  0.4629
 4274TIP3    H137017   3.987   5.020  11.491 -0.7550  1.2203  1.7560
 4274TIP3    H237018   4.042   4.992  11.630  0.4673 -1.0345  0.8580
 4275TIP3   OH237019   6.203   3.940  11.410  0.4634 -0.4839  0.4116
 4275TIP3    H137020   6.156   3.857  11.409  0.0606 -0.2996  1.7059
 4275TIP3    H237021   6.155   3.994  11.473 -0.6545  1.5687 -2.0417
 4276TIP3   OH237022   4.348   3.189  12.270 -0.6186  0.2383 -0.0335
 4276TIP3    H137023   4.254   3.182  12.256 -0.7528 -1.8276  1.4814
 4276TIP3    H237024   4.382   3.102  12.247  0.9867  1.0252 -0.8361
 4277TIP3   OH237025   3.855   3.952  11.230  0.4118  0.1652  0.6929
 4277TIP3    H137026   3.873   3.903  11.150  1.6405  0.9793  0.4358
 4277TIP3    H237027   3.800   3.894  11.283 -0.6390 -0.2793 -0.8353
 4278TIP3   OH237028   5.806   3.607  11.372 -0.6606 -0.3704  0.0578
 4278TIP3    H137029   5.729   3.551  11.357 -0.2574 -0.9399  0.0718
 4278TIP3    H237030   5.770   3.694  11.385 -1.2166 -0.2683 -1.7646
 4279TIP3   OH237031   4.215   6.564  12.262 -0.6108 -0.5373 -0.1272
 4279TIP3    H137032   4.156   6.638  12.276 -2.3373 -1.6055 -1.2449
 4279TIP3    H237033   4.294   6.603  12.226 -0.2970  1.0226  2.0334
 4280TIP3   OH237034   5.850   4.922  12.570 -0.3694  0.1666 -0.2401
 4280TIP3    H137035   5.791   4.915  12.495  0.8401 -0.0369 -1.2071
 4280TIP3    H237036   5.937   4.920  12.531  0.2743  0.4298  1.1584
 4281TIP3   OH237037   1.851   3.753  10.067 -0.3123  0.3476  0.1216
 4281TIP3    H137038   1.822   3.824  10.010  1.1625  1.2539  0.4434
 4281TIP3    H237039   1.771   3.721  10.108 -0.9538  2.3466  0.5546
 4282TIP3   OH237040   1.410   3.180  12.003 -0.8306 -0.1133  0.2081
 4282TIP3    H137041   1.407   3.129  12.083  1.2721 -1.4558 -0.4839
 4282TIP3    H237042   1.432   3.269  12.031 -0.7332 -0.4294  1.1571
 4283TIP3   OH237043   3.377   0.932  11.327  0.6359  0.0639 -0.3394
 4283TIP3    H137044   3.371   0.840  11.352  0.9961 -0.2798 -1.4634
 4283TIP3    H237045   3.420   0.974  11.402 -0.4566 -0.4692  0.6251
 4284TIP3   OH237046   5.110   6.161  10.641 -0.6092 -0.3989  0.6184
 4284TIP3    H137047   5.018   6.187  10.634 -0.2641  0.5421 -0.8506
 4284TIP3    H237048   5.142   6.208  10.718 -0.6228  1.7580 -0.6011
 4285TIP3   OH237049   2.549   5.630  10.860  0.0619 -0.2415 -0.1709
 4285TIP3    H137050   2.474   5.572  10.878 -0.5129  1.0118  1.7585
 4285TIP3    H237051   2.620   5.593  10.913 -0.1347  0.4170  0.5736
 4286TIP3   OH237052   6.716   1.118  10.027  0.3664  0.0933  0.0367
 4286TIP3    H137053   6.641   1.078  10.070 -0.4611  2.1708  0.6598
 4286TIP3    H237054   6.792   1.075  10.066 -0.4212  0.4790  2.1578
 4287TIP3   OH237055   1.963   0.132  12.225 -0.1463 -0.0865 -0.1765
 4287TIP3    H137056   1.892   0.196  12.221  0.3215  0.4784  0.4238
 4287TIP3    H237057   1.994   0.136  12.315  2.7323  2.0201 -1.1073
 4288TIP3   OH237058   5.898   1.547  12.508  0.0602  0.1379  0.5768
 4288TIP3    H137059   5.891   1.594  12.425 -0.0245  0.8782  0.9896
 4288TIP3    H237060   5.884   1.615  12.575 -1.9224 -0.7922  1.1667
 4289TIP3   OH237061   2.627   6.044  12.523  0.4709  0.1433  0.7937
 4289TIP3    H137062   2.662   6.106  12.587  2.8977 -1.0725  0.7469
 4289TIP3    H237063   2.636   6.089  12.439  3.2227 -0.5623  0.6301
 4290TIP3   OH237064   5.759   4.072  11.101 -0.1187 -0.0520 -0.2628
 4290TIP3    H137065   5.831   4.068  11.164 -1.0637 -0.8541  0.8280
 4290TIP3    H237066   5.795   4.037  11.020  1.2174  1.2974 -0.2680
 4291TIP3   OH237067   4.085   2.885  10.749  0.3936 -0.3639  0.3494
 4291TIP3    H137068   4.159   2.942  10.766  0.6833 -0.4923 -0.4370
 4291TIP3    H237069   4.028   2.936  10.691 -0.0039 -0.3627  0.7403
 4292TIP3   OH237070   1.588   1.833  11.332 -0.2190 -0.6151  0.1587
 4292TIP3    H137071   1.680   1.821  11.306 -0.2272 -0.2447 -0.0393
 4292TIP3    H237072   1.576   1.772  11.405  0.2227 -0.5643  0.2761
 4293TIP3   OH237073   3.866   6.318  12.794  0.9027  0.0100 -0.0397
 4293TIP3    H137074   3.843   6.246  12.853 -0.0408  0.8578  0.6906
 4293TIP3    H237075   3.851   6.284  12.706 -0.0387 -0.5255  0.3146
 4294TIP3   OH237076   3.878   4.369  10.997  0.0184 -0.4601 -0.1761
 4294TIP3    H137077   3.819   4.315  10.944  0.1517 -0.4245 -0.3614
 4294TIP3    H237078   3.872   4.456  10.958 -0.0898 -0.3731  0.0355
 4295TIP3   OH237079   1.307   1.408  12.296  0.8192  0.0435 -0.2510
 4295TIP3    H137080   1.383   1.351  12.312  0.8093 -0.1490 -0.8535
 4295TIP3    H237081   1.290   1.399  12.202  0.8816  1.1304 -0.3771
 4296TIP3   OH237082   3.316   0.930  12.643  0.2554  0.0660  0.2140
 4296TIP3    H137083   3.277   0.875  12.575  0.0104  1.7077 -1.0347
 4296TIP3    H237084   3.392   0.879  12.674  0.9788 -0.3179 -2.0028
 4297TIP3   OH237085   4.976   5.606  10.577 -0.0312 -0.2999  0.3320
 4297TIP3    H137086   4.889   5.565  10.576  0.4211 -1.2858 -1.3083
 4297TIP3    H237087   5.011   5.591  10.489  2.1473 -0.6283  1.2062
 4298TIP3   OH237088   1.590   2.458  12.099 -0.2806  0.3570 -0.5879
 4298TIP3    H137089   1.666   2.452  12.043  0.6087  0.1620  0.5998
 4298TIP3    H237090   1.515   2.453  12.039  0.5953 -1.5976 -1.6064
 4299TIP3   OH237091   6.314   6.299  11.686 -0.3023  0.0582  0.0877
 4299TIP3    H137092   6.303   6.205  11.700 -0.0105  0.0227  0.0749
 4299TIP3    H237093   6.233   6.337  11.720 -0.4337 -0.1987  0.0694
 4300TIP3   OH237094   6.357   1.772  12.487  0.2389 -0.4988 -0.4043
 4300TIP3    H137095   6.443   1.803  12.460 -0.6725  1.3572 -1.3021
 4300TIP3    H237096   6.321   1.730  12.409 -0.5630  0.7708 -0.7366
 4301TIP3   OH237097   5.485   1.178  12.671 -0.0264 -0.1766  0.4263
 4301TIP3    H137098   5.422   1.117  12.709 -0.0541 -0.8123 -0.6351
 4301TIP3    H237099   5.432   1.251  12.639 -0.0485  0.1116  1.0849
 4302TIP3   OH237100   0.357   1.171  12.941  0.8601 -0.6946 -0.0747
 4302TIP3    H137101   0.433   1.196  12.888  0.5646 -1.0509 -0.6862
 4302TIP3    H237102   0.308   1.111  12.885 -0.0410 -0.2132  0.1766
 4303TIP3   OH237103   5.318   3.607  12.055 -0.7840 -0.0681  0.3611
 4303TIP3    H137104   5.294   3.535  12.113  0.2806 -0.8571 -0.1443
 4303TIP3    H237105   5.290   3.578  11.968 -0.5876  0.2479  0.1914
 4304TIP3   OH237106   4.324   3.755  12.651 -0.0713  0.0646 -0.4484
 4304TIP3    H137107   4.395   3.800  12.697  0.7803 -0.5183 -1.1535
 4304TIP3    H237108   4.244   3.783  12.697  0.5094  1.5081 -0.2492
 4305TIP3   OH237109   4.831   1.905  12.039  0.6079  0.2496  0.0894
 4305TIP3    H137110   4.822   1.815  12.071  1.1201  0.1621 -0.0078
 4305TIP3    H237111   4.910   1.938  12.081  0.2005  0.7929  0.4345
 4306TIP3   OH237112   4.732   2.315  11.379 -0.4804 -0.2216  0.4510
 4306TIP3    H137113   4.708   2.407  11.384  2.1326  0.6166 -0.6104
 4306TIP3    H237114   4.782   2.299  11.459  4.4171  1.2058 -1.9206
 4307TIP3   OH237115   3.015   5.152  12.949  0.5127 -0.3232  0.1443
 4307TIP3    H137116   2.941   5.213  12.945  1.5341  0.9830  0.2834
 4307TIP3    H237117   3.040   5.138  12.858  1.1919  0.6741  0.1581
 4308TIP3   OH237118   0.624   1.227  10.765  0.0850 -0.5194  0.1517
 4308TIP3    H137119   0.637   1.194  10.854 -1.3748 -0.4181  0.4283
 4308TIP3    H237120   0.683   1.303  10.759  0.7772 -1.0019  0.7506
 4309TIP3   OH237121   5.095   0.913  13.110 -0.1790 -0.0904 -0.1929
 4309TIP3    H137122   4.999   0.918  13.114 -0.1674  0.8247 -0.6339
 4309TIP3    H237123   5.123   0.912  13.201 -0.6453 -1.7894 -0.0384
 4310TIP3   OH237124   3.315   4.009  11.044 -0.0463  0.6103 -0.0167
 4310TIP3    H137125   3.322   4.098  11.010 -3.4027  1.0997  0.3013
 4310TIP3    H237126   3.340   3.953  10.970  2.3263  1.7273 -0.1536
 4311TIP3   OH237127   6.672   2.002  11.390  0.2906  0.0813 -0.2038
 4311TIP3    H137128   6.752   2.012  11.441  0.5385 -0.6823 -0.4284
 4311TIP3    H237129   6.686   1.923  11.338 -1.2470 -1.0084  0.9284
 4312TIP3   OH237130   0.801   2.301  11.434  0.0638  0.0620 -0.2896
 4312TIP3    H137131   0.778   2.211  11.409  3.9713 -1.1035 -0.3554
 4312TIP3    H237132   0.841   2.293  11.520 -2.4891  2.3580  1.2795
 4313TIP3   OH237133   5.429   0.052  11.645 -0.1215 -0.0643 -0.1218
 4313TIP3    H137134   5.432   0.091  11.558  1.0993  0.2876  0.0654
 4313TIP3    H237135   5.501  -0.011  11.646 -0.5915 -0.6076  0.3888
 4314TIP3   OH237136   4.590   4.490  12.469  0.6490  0.3441  0.9745
 4314TIP3    H137137   4.591   4.509  12.563  0.8291  0.8815  0.8639
 4314TIP3    H237138   4.568   4.397  12.465 -0.0418  0.4698  1.5195
 4315TIP3   OH237139   5.238   5.242  12.833  0.1696  0.3564 -0.1369
 4315TIP3    H137140   5.280   5.176  12.778  1.2273  0.2674  0.7527
 4315TIP3    H237141   5.273   5.227  12.920  0.7012  2.2974  0.0458
 4316TIP3   OH237142   4.254   5.435  10.241  0.5832  0.3320 -0.3859
 4316TIP3    H137143   4.184   5.496  10.218  0.0912  0.1652  0.5818
 4316TIP3    H237144   4.333   5.490  10.245  0.4356  0.6001 -1.0816
 4317TIP3   OH237145   3.496   5.194  10.637 -0.3095  0.1416 -0.3742
 4317TIP3    H137146   3.436   5.184  10.711  0.4766 -0.3119  0.2216
 4317TIP3    H237147   3.582   5.170  10.672  0.2284  0.7553 -1.2113
 4318TIP3   OH237148   5.152   2.888  13.049  0.5208 -0.9891  0.1276
 4318TIP3    H137149   5.175   2.925  12.963 -1.2011 -1.1950 -0.4518
 4318TIP3    H237150   5.203   2.807  13.054 -0.6029 -1.8600 -1.4832
 4319TIP3   OH237151   0.842   5.024   9.728 -0.4773  0.3805  0.6176
 4319TIP3    H137152   0.903   5.042   9.656  1.0454 -0.8697  1.5097
 4319TIP3    H237153   0.823   4.930   9.719 -0.4304  0.2583  1.7011
 4320TIP3   OH237154   4.845   0.421  11.117  0.0797  0.0333 -0.5388
 4320TIP3    H137155   4.804   0.335  11.132  0.8416 -0.2574 -0.0400
 4320TIP3    H237156   4.794   0.460  11.046 -1.3362 -0.1257  0.3495
 4321TIP3   OH237157   2.523   2.063  11.767  0.0179 -0.0868 -0.0690
 4321TIP3    H137158   2.456   2.116  11.811 -1.0328 -2.0028  0.8208
 4321TIP3    H237159   2.585   2.042  11.836  1.3563  1.3155 -0.7963
 4322TIP3   OH237160   2.261   6.276  10.310  0.6563  0.5716 -0.1238
 4322TIP3    H137161   2.202   6.231  10.249 -0.6985 -0.0595  1.5657
 4322TIP3    H237162   2.330   6.212  10.327  0.2974  0.2094  0.0206
 4323TIP3   OH237163   0.893   2.253  11.682  0.3272  0.4922 -0.3347
 4323TIP3    H137164   0.906   2.305  11.762 -1.3167  1.0421 -0.3872
 4323TIP3    H237165   0.937   2.170  11.700  0.2745  0.7314  1.0234
 4324TIP3   OH237166   0.810   6.797  11.256  0.5765 -0.3284 -0.8354
 4324TIP3    H137167   0.757   6.753  11.321  0.1808 -1.2151 -1.7383
 4324TIP3    H237168   0.862   6.728  11.215  0.6548  0.1664 -1.6074
 4325TIP3   OH237169   1.463   3.720   9.190  0.4105 -0.5902 -0.3201
 4325TIP3    H137170   1.432   3.706   9.279  2.3598 -0.6089  0.4067
 4325TIP3    H237171   1.384   3.715   9.136 -0.7262 -1.2196  1.3165
 4326TIP3   OH237172   3.396   6.083  12.234  0.3048 -0.0609 -0.2857
 4326TIP3    H137173   3.331   6.030  12.279  0.6579  1.0301  1.6148
 4326TIP3    H237174   3.390   6.169  12.275  1.6662  0.5827 -1.3450
 4327TIP3   OH237175   0.764   5.840  11.164  0.1415 -0.5621 -0.3386
 4327TIP3    H137176   0.726   5.920  11.128  1.4674  1.3544  2.2364
 4327TIP3    H237177   0.691   5.796  11.208 -0.0813  0.7128  0.6195
 4328TIP3   OH237178   6.243   6.609  12.164 -0.2727 -0.0265  0.0982
 4328TIP3    H137179   6.202   6.545  12.105  1.0577 -1.2906  0.4743
 4328TIP3    H237180   6.215   6.694  12.130 -1.8050 -0.7831 -0.6506
 4329TIP3   OH237181   6.589   5.362  11.889 -0.1920 -0.3197 -1.1067
 4329TIP3    H137182   6.539   5.334  11.812  0.6714  0.4291 -1.9710
 4329TIP3    H237183   6.645   5.287  11.910 -0.1295 -0.3778 -1.4740
 4330TIP3   OH237184   3.227   1.903  11.777  0.4357 -0.1549 -0.3150
 4330TIP3    H137185   3.273   1.936  11.854  1.8182 -1.4528 -0.5258
 4330TIP3    H237186   3.280   1.932  11.703 -0.8450  1.0267 -0.8055
 4331TIP3   OH237187   1.900   4.284   9.879  0.4022  0.5370  0.1951
 4331TIP3    H137188   1.968   4.228   9.917 -0.1385 -0.2050  0.1040
 4331TIP3    H237189   1.818   4.247   9.913 -0.0617  0.2236 -1.2050
 4332TIP3   OH237190   0.642   0.316  10.404  0.0852  0.3202 -0.1561
 4332TIP3    H137191   0.713   0.289  10.345 -0.1523  0.7878 -0.6671
 4332TIP3    H237192   0.675   0.394  10.447 -0.0986  0.5106 -0.3586
 4333TIP3   OH237193   3.480   1.431  11.829 -0.3369 -0.0069 -0.3593
 4333TIP3    H137194   3.512   1.466  11.746 -0.8369  2.9322  0.5481
 4333TIP3    H237195   3.559   1.403  11.875 -0.0923 -2.0790 -1.9244
 4334TIP3   OH237196   1.140   0.465  11.638 -0.0994  0.1203  0.0865
 4334TIP3    H137197   1.139   0.371  11.658 -0.1635 -0.1743 -1.2282
 4334TIP3    H237198   1.060   0.479  11.587  1.2344  0.3454 -2.0214
 4335TIP3   OH237199   3.640   1.497  12.599 -0.2433  0.2808  0.7437
 4335TIP3    H137200   3.682   1.583  12.599 -1.0285  0.6761  0.0669
 4335TIP3    H237201   3.595   1.492  12.515 -0.2688 -0.7709  0.8002
 4336TIP3   OH237202   3.280   5.887  12.627 -0.7472 -0.2418  0.7717
 4336TIP3    H137203   3.290   5.925  12.714  2.2921 -0.1553  0.4887
 4336TIP3    H237204   3.263   5.961  12.570 -3.6522 -0.3882  1.3210
 4337TIP3   OH237205   1.596   2.609  13.274  0.0127 -0.1095  0.1136
 4337TIP3    H137206   1.674   2.658  13.247  0.8400 -1.5745 -0.2641
 4337TIP3    H237207   1.598   2.612  13.369  0.8249 -0.5540  0.1210
 4338TIP3   OH237208   1.705   5.468  11.186 -0.9427  0.0044  0.0855
 4338TIP3    H137209   1.706   5.451  11.092  0.0614  0.1227  0.0621
 4338TIP3    H237210   1.748   5.553  11.194 -1.3387  0.1561  0.6279
 4339TIP3   OH237211   6.773   6.692  11.886 -0.3132  0.0502  0.3244
 4339TIP3    H137212   6.823   6.611  11.889 -2.0703 -1.0754  0.2717
 4339TIP3    H237213   6.682   6.666  11.899 -1.0934  1.8484 -0.9845
 4340TIP3   OH237214   3.944   2.222  10.734  0.1957 -0.0341 -0.1225
 4340TIP3    H137215   3.903   2.251  10.653 -0.3026 -0.2301  0.0503
 4340TIP3    H237216   4.031   2.191  10.708 -0.2178 -0.7451 -0.6849
 4341TIP3   OH237217   4.390   0.655  11.652 -0.5917 -0.1451 -0.4267
 4341TIP3    H137218   4.427   0.678  11.567 -0.5946  0.2615 -0.3174
 4341TIP3    H237219   4.303   0.695  11.652 -1.0615 -1.1380 -0.7033
 4342TIP3   OH237220   0.377   1.925  10.692 -0.7286  0.0984 -0.3650
 4342TIP3    H137221   0.406   1.858  10.753  0.0572  0.6532 -0.1029
 4342TIP3    H237222   0.420   1.902  10.609  1.4617  1.5210  0.2846
 4343TIP3   OH237223   6.393   4.184  10.244 -0.2549 -0.3247 -0.4086
 4343TIP3    H137224   6.311   4.191  10.194  0.8373 -0.1126 -2.2509
 4343TIP3    H237225   6.380   4.109  10.301 -1.8426 -0.1190 -0.4463
 4344TIP3   OH237226   4.152   3.036  10.028  0.1540 -0.0668  0.1173
 4344TIP3    H137227   4.204   3.116  10.021 -1.4675  0.9890 -0.7087
 4344TIP3    H237228   4.091   3.041   9.954 -1.3620 -1.0220  1.2244
 4345TIP3   OH237229   4.241   2.953  12.123 -0.4962 -0.0211 -0.1337
 4345TIP3    H137230   4.271   2.880  12.178 -0.6092 -0.9879 -1.3064
 4345TIP3    H237231   4.225   2.913  12.037 -1.1827  1.2700 -0.6345
 4346TIP3   OH237232   2.464   1.802  12.340  0.0572 -0.1157  0.2271
 4346TIP3    H137233   2.480   1.843  12.255 -0.4704  1.2273  0.7441
 4346TIP3    H237234   2.389   1.851  12.376  2.1005  1.4026  2.7507
 4347TIP3   OH237235   2.128   5.374  10.759 -0.6002  0.5405  0.1086
 4347TIP3    H137236   2.039   5.406  10.743 -0.5652  0.7383  0.2932
 4347TIP3    H237237   2.124   5.280  10.742 -0.7100  0.6425 -0.4303
 4348TIP3   OH237238   5.741   5.835  11.708 -0.4262  0.0837 -0.4478
 4348TIP3    H137239   5.708   5.909  11.758 -0.6249 -0.2657 -0.0526
 4348TIP3    H237240   5.672   5.817  11.645 -0.6151 -0.0991 -0.1924
 4349TIP3   OH237241   1.322   2.241  11.250 -0.4360 -0.1090  0.1494
 4349TIP3    H137242   1.355   2.300  11.317  0.4967  0.6702 -0.9492
 4349TIP3    H237243   1.396   2.229  11.190 -1.3210 -0.5457 -0.8913
 4350TIP3   OH237244   3.923   4.737  12.464 -0.6130 -0.0954 -0.3691
 4350TIP3    H137245   3.920   4.826  12.429 -2.5133  0.4896  1.1460
 4350TIP3    H237246   3.831   4.713  12.476 -0.0814 -1.4349  1.2839
 4351TIP3   OH237247   3.718   3.211  12.724 -0.3996  0.8171  0.3663
 4351TIP3    H137248   3.808   3.206  12.693 -0.4758  0.5069  0.1900
 4351TIP3    H237249   3.725   3.242  12.814 -0.0391 -0.3150  0.7447
 4352TIP3   OH237250   3.891   3.277  13.220  0.0564 -0.2945  0.0095
 4352TIP3    H137251   3.975   3.277  13.175  1.0008  0.7289  1.6937
 4352TIP3    H237252   3.866   3.184  13.224  1.9909 -0.8141  1.0582
 4353TIP3   OH237253   0.435   5.197   9.548 -0.2275 -0.6020  0.5022
 4353TIP3    H137254   0.431   5.119   9.603 -0.7599 -0.4943  0.6249
 4353TIP3    H237255   0.481   5.262   9.602  1.4869 -1.2406 -0.1323
 4354TIP3   OH237256   2.229   1.884  12.403  0.0979 -0.2354 -0.4631
 4354TIP3    H137257   2.220   1.804  12.455  0.4239 -0.3316 -0.5567
 4354TIP3    H237258   2.150   1.934  12.424  1.0387  0.5273  1.5024
 4355TIP3   OH237259   2.077   3.192  11.950  0.8128  0.1409 -0.3090
 4355TIP3    H137260   2.160   3.241  11.951 -0.4646  2.4490  0.3984
 4355TIP3    H237261   2.024   3.235  12.017 -0.9803 -1.2808 -0.7600
 4356TIP3   OH237262   2.843   4.923  11.832  0.3644  0.5033  0.5879
 4356TIP3    H137263   2.905   4.854  11.855 -0.6338 -1.2434 -1.5734
 4356TIP3    H237264   2.774   4.916  11.898  1.4450  1.1807  1.8587
 4357TIP3   OH237265   2.276   4.527  11.584  0.8434 -0.3335 -0.1184
 4357TIP3    H137266   2.288   4.495  11.674  1.8626  1.0236  0.2632
 4357TIP3    H237267   2.206   4.592  11.591  2.9853  2.0528  0.3400
 4358TIP3   OH237268   4.126   0.103  10.719  0.1419 -0.4781  0.2168
 4358TIP3    H137269   4.065   0.052  10.771 -0.2587 -0.6786 -0.4334
 4358TIP3    H237270   4.095   0.093  10.629  1.8597 -1.6508 -0.2982
 4359TIP3   OH237271   3.828   1.224  11.375  0.0248  0.4237  0.3467
 4359TIP3    H137272   3.892   1.219  11.445  0.5659 -1.0606 -0.2092
 4359TIP3    H237273   3.852   1.303  11.326  1.1648  0.1241  0.3992
 4360TIP3   OH237274   5.700   1.384  12.815  0.5594 -0.2774  0.6533
 4360TIP3    H137275   5.664   1.317  12.756  0.7602  0.7186 -0.6344
 4360TIP3    H237276   5.729   1.454  12.757  1.9492  0.1926  1.8610
 4361TIP3   OH237277   5.064   5.879  11.855  0.2623 -0.3503 -0.2564
 4361TIP3    H137278   5.066   5.961  11.904 -0.0640 -0.0057 -0.8081
 4361TIP3    H237279   5.044   5.812  11.920  0.6112  0.0006  0.2097
 4362TIP3   OH237280   2.136   2.415  11.176  0.2345  0.2124  0.1954
 4362TIP3    H137281   2.171   2.413  11.087  0.1132  0.3984  0.1434
 4362TIP3    H237282   2.203   2.462  11.226  0.4487 -0.1669  0.2675
 4363TIP3   OH237283   4.560   3.604  12.779  0.3963 -0.1667  0.4720
 4363TIP3    H137284   4.551   3.556  12.696 -0.0548 -1.7375  1.3816
 4363TIP3    H237285   4.590   3.691  12.753  0.0510 -0.5430 -1.3551
 4364TIP3   OH237286   4.387   5.853  12.899 -0.0782  0.3422 -0.0012
 4364TIP3    H137287   4.465   5.827  12.849  0.4839  1.0805  0.4645
 4364TIP3    H237288   4.364   5.776  12.950 -1.0375 -0.6478 -1.8360
 4365TIP3   OH237289   4.710   0.884  11.899  0.1849 -0.2772  0.4724
 4365TIP3    H137290   4.796   0.887  11.858 -0.6064  1.3437 -1.2374
 4365TIP3    H237291   4.724   0.912  11.989  1.1811  2.1289 -0.3715
 4366TIP3   OH237292   6.691   0.369  11.546 -0.1911  0.2407 -0.5179
 4366TIP3    H137293   6.688   0.443  11.485 -0.7371  1.2411  0.6637
 4366TIP3    H237294   6.609   0.323  11.532 -0.7561  1.0300  0.1081
 4367TIP3   OH237295   0.465   1.791  12.680  0.2897 -0.0843 -0.1326
 4367TIP3    H137296   0.481   1.819  12.770  0.1124  2.4227 -0.8161
 4367TIP3    H237297   0.374   1.815  12.663  0.8995  1.3596 -1.5955
 4368TIP3   OH237298   1.524   6.596  10.210 -0.3563 -0.1381 -0.0889
 4368TIP3    H137299   1.508   6.552  10.293 -2.9349  1.8363  0.5781
 4368TIP3    H237300   1.507   6.529  10.144  0.1893 -1.3091  0.9177
 4369TIP3   OH237301   6.593   0.469  10.762  0.3733  0.4192  0.0521
 4369TIP3    H137302   6.584   0.440  10.671  0.3399  0.0738  0.1639
 4369TIP3    H237303   6.570   0.562  10.761  2.9281  1.1308 -0.7924
 4370TIP3   OH237304   0.485   1.748  10.870  0.3372 -0.0861 -0.1563
 4370TIP3    H137305   0.404   1.779  10.911 -0.9005 -1.4893 -1.4261
 4370TIP3    H237306   0.511   1.672  10.923 -0.4390 -0.9865 -1.0228
 4371TIP3   OH237307   1.438   3.441  10.400 -0.5231 -0.1859 -0.2752
 4371TIP3    H137308   1.362   3.483  10.441 -0.5653 -0.9484  0.4409
 4371TIP3    H237309   1.461   3.500  10.328 -2.3871 -0.3967 -1.1159
 4372TIP3   OH237310   0.434   0.762  13.106  0.3080  0.2721 -0.5124
 4372TIP3    H137311   0.368   0.737  13.042  1.0327 -1.6547 -0.5879
 4372TIP3    H237312   0.511   0.785  13.055  0.4205  0.2268 -0.3656
 4373TIP3   OH237313   4.113   6.047  12.808  0.0895  0.7568  0.2385
 4373TIP3    H137314   4.067   6.080  12.731 -0.5320  0.1248  0.3272
 4373TIP3    H237315   4.201   6.027  12.776 -0.3088  0.0134 -0.4421
 4374TIP3   OH237316   4.341   5.000  12.186 -0.2132 -0.0350  0.1531
 4374TIP3    H137317   4.415   5.058  12.202 -1.8541  2.2565  0.0958
 4374TIP3    H237318   4.380   4.915  12.166  2.3653  1.1046 -0.0598
 4375TIP3   OH237319   0.002   3.011  11.523 -0.6531 -0.2319 -0.0062
 4375TIP3    H137320   0.083   3.045  11.485 -0.7310 -1.0340 -0.9371
 4375TIP3    H237321   0.017   2.917  11.531 -1.7449 -0.4946 -0.8622
 4376TIP3   OH237322   2.637   5.707  10.615 -0.6485  0.1106 -0.0249
 4376TIP3    H137323   2.608   5.690  10.704  1.0167 -1.2834  0.2870
 4376TIP3    H237324   2.729   5.682  10.613 -0.4975  0.5947 -2.0032
 4377TIP3   OH237325   4.995   3.085  13.192 -0.1167 -0.5279  0.0782
 4377TIP3    H137326   5.050   3.107  13.267  1.2296  0.8794 -1.2454
 4377TIP3    H237327   5.047   3.023  13.141 -1.1017 -1.6291  0.3724
 4378TIP3   OH237328   2.794   5.340  13.388 -0.0773 -0.4901  0.0948
 4378TIP3    H137329   2.736   5.289  13.332  1.2472 -1.4572 -0.4511
 4378TIP3    H237330   2.830   5.277  13.450  0.4471  0.0740  0.3765
 4379TIP3   OH237331   0.360   5.145  10.222 -0.0480  0.0494  0.1951
 4379TIP3    H137332   0.352   5.236  10.193  1.2564  0.4399  0.9825
 4379TIP3    H237333   0.333   5.093  10.146 -2.6459  1.0579  0.2980
 4380TIP3   OH237334   3.844   0.764  11.059 -0.0159 -0.6516 -0.4427
 4380TIP3    H137335   3.850   0.712  10.979 -0.0019  1.9431 -2.2672
 4380TIP3    H237336   3.935   0.780  11.084 -0.0181 -1.1364 -0.1066
 4381TIP3   OH237337   1.131   3.065  11.539 -0.5045  0.0971  0.2405
 4381TIP3    H137338   1.162   3.139  11.487  0.2429 -0.5689 -0.2945
 4381TIP3    H237339   1.147   3.090  11.629  0.6713  0.1896  0.0167
 4382TIP3   OH237340   6.607   6.599  12.686 -0.3666 -0.2011  0.4173
 4382TIP3    H137341   6.549   6.595  12.610  0.4280 -2.5394 -0.1632
 4382TIP3    H237342   6.598   6.513  12.727  3.7385 -1.3175 -0.5755
 4383TIP3   OH237343   6.799   0.727  12.630 -0.4983  0.0886  0.5998
 4383TIP3    H137344   6.879   0.674  12.636 -1.2130 -1.0025  0.7059
 4383TIP3    H237345   6.746   0.699  12.705 -1.7797 -0.5835 -0.5111
 4384TIP3   OH237346   4.892   4.960   9.936 -0.2473 -0.1571 -0.1616
 4384TIP3    H137347   4.981   4.940   9.964 -0.2620  1.2913  1.0566
 4384TIP3    H237348   4.862   4.880   9.894  2.0023 -0.3297 -1.6275
 4385TIP3   OH237349   0.401   2.419  10.606  0.2773 -0.0639 -0.0978
 4385TIP3    H137350   0.487   2.452  10.632 -0.6574  2.6192 -0.0426
 4385TIP3    H237351   0.418   2.332  10.571  2.7323 -0.3911  1.6205
 4386TIP3   OH237352   0.328   2.031  13.239 -0.4185 -0.4857  0.0133
 4386TIP3    H137353   0.388   1.993  13.303 -0.8226  1.9152  1.9896
 4386TIP3    H237354   0.245   2.039  13.286 -1.2482 -0.3555 -1.4406
 4387TIP3   OH237355   1.185   5.059  11.238 -0.0076 -0.5710  0.4739
 4387TIP3    H137356   1.124   5.011  11.182 -0.7332  1.9866 -1.0694
 4387TIP3    H237357   1.129   5.113  11.294  0.6717  2.3934 -1.4874
 4388TIP3   OH237358   5.058   0.474  12.351  0.2709  0.0206 -0.2474
 4388TIP3    H137359   5.062   0.390  12.397  1.1073 -1.3196 -2.5805
 4388TIP3    H237360   4.990   0.461  12.285 -0.3597  1.5978  0.0535
 4389TIP3   OH237361   0.010   1.587  13.261 -0.1258 -0.3200  0.7886
 4389TIP3    H137362  -0.036   1.601  13.344  0.2595 -0.7132  1.0723
 4389TIP3    H237363   0.088   1.536  13.285 -0.2297 -0.7984  0.1277
 4390TIP3   OH237364   4.702   1.402  12.655  0.4822 -0.1884 -0.2042
 4390TIP3    H137365   4.790   1.365  12.645  1.8047  2.5380  0.4488
 4390TIP3    H237366   4.678   1.429  12.566 -0.2618 -1.9777 -0.5894
 4391TIP3   OH237367   3.624   3.654  10.129  0.6146 -0.1887  0.2822
 4391TIP3    H137368   3.549   3.702  10.165  0.7307 -0.4625  0.9023
 4391TIP3    H237369   3.633   3.687  10.039  0.7310  0.9882  0.7127
 4392TIP3   OH237370   0.650   2.242  12.341  0.6677  0.0635 -0.8854
 4392TIP3    H137371   0.693   2.157  12.350 -0.8243 -0.6690 -0.3179
 4392TIP3    H237372   0.580   2.227  12.277 -0.1942  0.5929 -0.1016
 4393TIP3   OH237373   0.993   2.557  11.715  0.6265 -0.2758 -0.3092
 4393TIP3    H137374   0.972   2.489  11.779  1.9285 -1.2773 -0.9074
 4393TIP3    H237375   1.018   2.633  11.768 -0.8607 -0.2205  0.3605
 4394TIP3   OH237376   5.526   2.112  11.515 -0.2257  0.0231  0.3087
 4394TIP3    H137377   5.532   2.170  11.591 -2.1614 -0.8281  1.2034
 4394TIP3    H237378   5.572   2.033  11.542 -1.2209 -0.4142  0.7649
 4395TIP3   OH237379   3.517   4.179  11.260  0.0737  0.3634  0.2658
 4395TIP3    H137380   3.423   4.182  11.280  0.2393  0.5730  1.0364
 4395TIP3    H237381   3.528   4.097  11.211 -0.3633 -0.1512  1.0038
 4396TIP3   OH237382   1.976   4.406  11.852  0.5587 -0.3617  0.2196
 4396TIP3    H137383   1.989   4.313  11.873  1.1143 -0.1649  0.7668
 4396TIP3    H237384   1.934   4.442  11.929  0.1314 -0.1959 -0.0835
 4397TIP3   OH237385   6.690   0.350  12.478 -0.0151 -0.2880  0.9293
 4397TIP3    H137386   6.656   0.282  12.421 -0.4580 -0.5878  1.5406
 4397TIP3    H237387   6.631   0.350  12.554 -0.1744  0.9417  0.8261
 4398TIP3   OH237388   2.836   3.076  10.444 -0.4661  0.3343 -0.1943
 4398TIP3    H137389   2.891   3.130  10.387  0.2969 -0.7448 -0.5194
 4398TIP3    H237390   2.895   3.050  10.515 -1.1510  0.8875  0.5921
 4399TIP3   OH237391   6.383   5.740  11.231 -0.8848  0.6006  0.1656
 4399TIP3    H137392   6.478   5.740  11.219 -0.9828  0.3469 -0.6332
 4399TIP3    H237393   6.364   5.823  11.274 -0.4968  1.4211 -1.2157
 4400TIP3   OH237394   3.892   0.883  10.347 -0.6558 -0.1409 -0.2965
 4400TIP3    H137395   3.976   0.923  10.368 -0.6919 -0.5741  0.7559
 4400TIP3    H237396   3.829   0.955  10.348 -0.3718  0.1114 -0.6137
 4401TIP3   OH237397   0.029   5.877  11.652  0.2677  0.2481 -0.2356
 4401TIP3    H137398  -0.002   5.936  11.721 -1.0159 -0.1772 -0.4288
 4401TIP3    H237399  -0.049   5.854  11.603  1.0530 -0.0952 -1.3547
 4402TIP3   OH237400   0.473   2.210  11.324  0.5837  0.3679 -0.0298
 4402TIP3    H137401   0.481   2.169  11.238  1.0154 -1.1312  0.6899
 4402TIP3    H237402   0.379   2.222  11.337  0.4436 -0.3992 -0.2765
 4403TIP3   OH237403   5.537   2.482  10.883 -0.2087  0.3686  0.4997
 4403TIP3    H137404   5.575   2.568  10.863  0.2546  0.8252  3.0685
 4403TIP3    H237405   5.600   2.442  10.943 -1.3098 -1.0294  0.7501
 4404TIP3   OH237406   2.514   1.030  13.003 -0.0263 -0.0931  0.1561
 4404TIP3    H137407   2.591   1.032  13.061 -0.9085 -0.1170  1.3596
 4404TIP3    H237408   2.548   0.997  12.920  1.0278 -1.3991  1.0603
 4405TIP3   OH237409   3.644   5.581  12.378 -0.1309  0.3251  0.0868
 4405TIP3    H137410   3.588   5.504  12.372  0.8285 -0.3450 -0.5553
 4405TIP3    H237411   3.596   5.642  12.434 -1.4844 -0.2303 -0.4399
 4406TIP3   OH237412   2.480   3.471  12.225  0.2577  0.0135  0.0864
 4406TIP3    H137413   2.487   3.434  12.137  2.3509  0.4078  0.0441
 4406TIP3    H237414   2.442   3.400  12.277  0.8983 -0.9514 -0.7138
 4407TIP3   OH237415   5.524   4.058  10.472 -0.3437  0.0248  0.1747
 4407TIP3    H137416   5.498   3.967  10.488  1.4407 -0.2181  2.0743
 4407TIP3    H237417   5.558   4.057  10.383  1.5397 -1.7081  0.8127
 4408TIP3   OH237418   1.126   5.337   9.937  0.1810  0.1540  0.2715
 4408TIP3    H137419   1.118   5.410   9.875 -0.4588  0.0025  0.1631
 4408TIP3    H237420   1.213   5.301   9.921  1.0319  1.6681  1.2040
 4409TIP3   OH237421   4.836   1.624  11.746  0.1310  0.2501  0.1477
 4409TIP3    H137422   4.788   1.594  11.823  0.4929  0.6676  0.5376
 4409TIP3    H237423   4.843   1.546  11.690 -1.4981  0.3039 -0.1879
 4410TIP3   OH237424   2.513   6.710  11.257 -0.0425 -0.8986  0.3622
 4410TIP3    H137425   2.419   6.726  11.261  0.0658 -0.5793  3.1129
 4410TIP3    H237426   2.524   6.654  11.180 -2.4365 -0.8717 -0.0805
 4411TIP3   OH237427   4.088   2.631  12.105  0.2381 -0.1095 -0.0755
 4411TIP3    H137428   4.023   2.581  12.055 -0.8022 -0.4463  1.5435
 4411TIP3    H237429   4.092   2.716  12.061 -2.0779  0.2795  0.3420
 4412TIP3   OH237430   3.848   1.555  10.729 -0.6763  0.3894  0.2672
 4412TIP3    H137431   3.801   1.622  10.680 -2.0007 -0.1556  0.7439
 4412TIP3    H237432   3.849   1.479  10.671  1.1808  0.8929 -0.4392
 4413TIP3   OH237433   4.738   0.660  10.746 -0.1553  0.0093  0.1635
 4413TIP3    H137434   4.655   0.690  10.709  1.1020  0.7299 -2.2743
 4413TIP3    H237435   4.768   0.732  10.801 -0.6854  0.1234  0.3050
 4414TIP3   OH237436   5.086   1.487  10.474  0.1440 -0.0955 -0.3763
 4414TIP3    H137437   5.117   1.493  10.384  0.8994 -1.7931 -0.2836
 4414TIP3    H237438   4.998   1.524  10.473  0.6007  0.9939 -1.5463
 4415TIP3   OH237439   0.093   4.292  12.111  0.2547 -0.2716  0.1955
 4415TIP3    H137440   0.004   4.272  12.137 -0.1794  0.3736 -0.7396
 4415TIP3    H237441   0.111   4.378  12.149  0.9009 -0.8780  1.3322
 4416TIP3   OH237442   1.587   5.477  10.519  0.5499  0.2239 -0.1944
 4416TIP3    H137443   1.499   5.442  10.506  0.2579  0.5735  0.7434
 4416TIP3    H237444   1.618   5.499  10.431 -0.0128 -0.5712 -0.6060
 4417TIP3   OH237445   0.073   1.017  10.432  0.4028 -0.0620 -0.4735
 4417TIP3    H137446   0.041   0.933  10.464  1.8380 -0.8576 -1.0529
 4417TIP3    H237447   0.105   0.998  10.344 -0.1094  1.2976 -0.9688
 4418TIP3   OH237448   0.271   6.756  10.232  0.0951  0.2638  0.5244
 4418TIP3    H137449   0.340   6.690  10.241  0.2384  0.5821  2.0214
 4418TIP3    H237450   0.204   6.729  10.295 -1.4036 -0.3020 -1.2326
 4419TIP3   OH237451   2.757   0.243  10.159  0.2056  0.2363  0.2367
 4419TIP3    H137452   2.702   0.319  10.137  1.0787  1.0642  0.8583
 4419TIP3    H237453   2.841   0.281  10.185  0.5642 -0.9402  0.8406
 4420TIP3   OH237454   0.224   4.648  11.736 -0.1046 -0.3359 -0.2016
 4420TIP3    H137455   0.297   4.586  11.725 -1.4978 -2.3431  1.1799
 4420TIP3    H237456   0.266   4.734  11.735  2.5349 -1.4578  1.9567
 4421TIP3   OH237457   1.908   0.421  10.697 -0.4784 -0.7678  0.3956
 4421TIP3    H137458   2.001   0.405  10.712 -0.5109  0.1000  1.6238
 4421TIP3    H237459   1.878   0.342  10.651  0.2166 -2.4855  2.6784
 4422TIP3   OH237460   5.011   2.017  13.220  0.7045 -0.1264 -0.0360
 4422TIP3    H137461   4.930   2.028  13.270  0.5070 -0.9233 -0.1654
 4422TIP3    H237462   5.016   1.923  13.203  0.9390  0.0837 -1.2273
 4423TIP3   OH237463   4.030   1.345  11.705 -0.3275 -0.1450 -0.5840
 4423TIP3    H137464   4.012   1.271  11.647 -0.7508  0.1781 -0.8728
 4423TIP3    H237465   4.027   1.308  11.793 -3.7214  0.0782 -0.4848
 4424TIP3   OH237466   2.215   1.067  11.626  0.1605  0.0693  0.2235
 4424TIP3    H137467   2.165   1.126  11.570  1.2696 -0.7063 -1.6468
 4424TIP3    H237468   2.290   1.119  11.654 -0.6718  0.6371  1.5357
 4425TIP3   OH237469   6.434   6.511  13.165 -0.0167  0.0711  0.1503
 4425TIP3    H137470   6.483   6.579  13.213 -1.4273  0.2083  1.4678
 4425TIP3    H237471   6.348   6.511  13.206 -1.2052 -0.0474 -2.2326
 4426TIP3   OH237472   4.103   0.059  11.129 -0.4849  0.0499 -0.1618
 4426TIP3    H137473   4.091  -0.032  11.102 -1.0259  0.0052  0.2310
 4426TIP3    H237474   4.192   0.061  11.166 -0.5365 -0.3568 -0.0129
 4427TIP3   OH237475   6.615   4.939   9.966  0.0610 -0.0465 -0.1717
 4427TIP3    H137476   6.685   4.987  10.010  1.0472  0.6168 -2.3072
 4427TIP3    H237477   6.637   4.847   9.980  1.5338  0.1443 -0.9470
 4428TIP3   OH237478   1.349   5.410  11.840  0.1385  0.2153 -0.1411
 4428TIP3    H137479   1.303   5.494  11.848 -0.0805 -0.0225  1.4191
 4428TIP3    H237480   1.328   5.380  11.751 -1.0199  1.0954 -0.1982
 4429TIP3   OH237481   2.538   1.449  12.622  0.9737 -0.3040  0.0880
 4429TIP3    H137482   2.452   1.427  12.586  1.9592 -2.3809 -1.1406
 4429TIP3    H237483   2.561   1.532  12.580 -0.0563 -0.1186 -0.1522
 4430TIP3   OH237484   2.080   3.525  12.229  0.0827  0.0310  0.1683
 4430TIP3    H137485   2.065   3.543  12.136  0.0657  0.8167  0.3145
 4430TIP3    H237486   2.087   3.612  12.269  0.3753 -0.3043  0.8554
 4431TIP3   OH237487   1.928   5.179  11.911  0.5098 -0.6088 -0.0295
 4431TIP3    H137488   1.841   5.144  11.892 -0.8225  2.4055  0.0807
 4431TIP3    H237489   1.970   5.186  11.826  0.4222 -1.4188 -0.1527
 4432TIP3   OH237490   5.326   6.333  11.734  0.3653 -0.2465 -0.3403
 4432TIP3    H137491   5.251   6.300  11.684  0.5394 -0.6615 -0.3317
 4432TIP3    H237492   5.358   6.256  11.782 -0.2980  0.3150  1.0598
 4433TIP3   OH237493   6.471   2.878  11.552 -0.4312 -0.3657 -0.6491
 4433TIP3    H137494   6.540   2.846  11.495  0.8855  2.3016 -0.7168
 4433TIP3    H237495   6.452   2.966  11.519 -1.4631  0.2620  1.4457
 4434TIP3   OH237496   6.756   5.040  11.633  0.2846  0.4190 -0.4168
 4434TIP3    H137497   6.753   4.991  11.716  1.2799  2.1905  0.7345
 4434TIP3    H237498   6.831   5.099  11.643  1.2219 -0.1524 -3.1010
 4435TIP3   OH237499   1.331   2.044  11.786 -0.3075  0.2856 -0.2776
 4435TIP3    H137500   1.318   1.950  11.799  1.7731  0.1863  1.6558
 4435TIP3    H237501   1.407   2.051  11.729 -1.3986  0.8529 -1.7357
 4436TIP3   OH237502   4.699   4.740  10.143 -0.3032  0.7643 -0.0124
 4436TIP3    H137503   4.640   4.795  10.091 -0.3254  0.4323 -0.3364
 4436TIP3    H237504   4.733   4.675  10.082  0.4252  0.9666  0.1631
 4437TIP3   OH237505   5.469   6.181  11.947 -0.0539 -0.1205  0.5349
 4437TIP3    H137506   5.381   6.151  11.967 -0.2370  0.2803  0.3485
 4437TIP3    H237507   5.503   6.215  12.030  0.0651 -0.6153  0.6900
 4438TIP3   OH237508   1.871   6.270   9.638 -0.3351 -0.1544 -0.0375
 4438TIP3    H137509   1.853   6.331   9.566 -0.7700 -0.6073 -0.3216
 4438TIP3    H237510   1.965   6.279   9.654 -0.1794 -0.2325 -0.8402
 4439TIP3   OH237511   1.035   2.008  11.743 -0.5605 -0.1709  0.2052
 4439TIP3    H137512   1.127   2.030  11.727 -0.6658 -0.7408 -1.3341
 4439TIP3    H237513   1.035   1.972  11.832  0.9402 -1.2782 -0.1850
 4440TIP3   OH237514   2.041   0.018  11.303 -0.1095 -0.2851 -0.3943
 4440TIP3    H137515   2.067  -0.061  11.256 -0.0167 -0.1113 -0.6417
 4440TIP3    H237516   2.098   0.086  11.266  0.3489 -0.2486  0.3691
 4441TIP3   OH237517   6.492   4.912  11.559 -0.0217  0.2183 -0.2911
 4441TIP3    H137518   6.511   4.918  11.653  1.4756  0.9352 -0.6144
 4441TIP3    H237519   6.539   4.986  11.520 -0.1626 -0.3938 -1.6768
 4442TIP3   OH237520   2.017   4.104  10.032  0.6947 -0.2787 -0.5792
 4442TIP3    H137521   2.086   4.128  10.094  0.1396  0.9447 -0.3992
 4442TIP3    H237522   1.954   4.054  10.083 -1.7254  3.8463  1.0376
 4443TIP3   OH237523   1.146   1.823   9.940  0.2729  0.3632 -0.6623
 4443TIP3    H137524   1.053   1.845   9.935  0.9028  3.1019 -2.7657
 4443TIP3    H237525   1.161   1.768   9.863  0.6192  1.0847 -1.1228
 4444TIP3   OH237526   4.341   6.190  11.258  0.2348  0.6700  0.6830
 4444TIP3    H137527   4.419   6.231  11.294 -0.7645  2.1560  1.2301
 4444TIP3    H237528   4.310   6.131  11.327  1.9043 -1.4560 -0.2601
 4445TIP3   OH237529   1.728   0.314  12.278 -0.1421  0.4309 -0.0676
 4445TIP3    H137530   1.636   0.291  12.263 -1.1351  3.5411  0.5199
 4445TIP3    H237531   1.745   0.285  12.368 -1.5975  2.5050  0.9547
 4446TIP3   OH237532   5.835   3.947  10.308  0.2795  0.2548 -0.1648
 4446TIP3    H137533   5.863   3.971  10.397  0.1431 -0.0187 -0.0444
 4446TIP3    H237534   5.765   4.009  10.288  0.6603  0.6522 -0.2893
 4447TIP3   OH237535   5.847   6.735  12.327 -0.5517  0.0039 -1.0931
 4447TIP3    H137536   5.877   6.696  12.246 -0.1530 -2.4040  0.1244
 4447TIP3    H237537   5.920   6.790  12.356  0.3718 -1.1826 -1.0886
 4448TIP3   OH237538   2.809   6.717  11.660 -0.0698  0.1552 -0.3727
 4448TIP3    H137539   2.871   6.645  11.650 -0.8148 -0.7398  1.1712
 4448TIP3    H237540   2.809   6.737  11.753 -1.1910  0.9783 -0.5201
 4449TIP3   OH237541   4.888   5.039  12.495  0.0150  0.5538  0.3420
 4449TIP3    H137542   4.920   5.000  12.414 -1.0837  0.9216 -0.2860
 4449TIP3    H237543   4.966   5.078  12.535  0.5412  0.5069 -0.6118
 4450TIP3   OH237544   5.398   3.245  12.555  0.3297 -0.0849  0.1164
 4450TIP3    H137545   5.327   3.280  12.609 -0.4354  0.4624 -1.2148
 4450TIP3    H237546   5.469   3.308  12.565  0.2011  0.0054  0.4873
 4451TIP3   OH237547   0.984   4.479  11.559 -0.2896 -0.4207  0.0975
 4451TIP3    H137548   1.027   4.502  11.642  2.1197  2.3487 -1.7239
 4451TIP3    H237549   1.051   4.433  11.509 -1.2395 -0.8068 -0.8696
 4452TIP3   OH237550   6.215   0.460  12.510 -0.1775  0.0530 -0.1936
 4452TIP3    H137551   6.241   0.547  12.541 -2.0471 -0.2336  2.5545
 4452TIP3    H237552   6.150   0.430  12.574 -1.4564 -2.3587 -2.4188
 4453TIP3   OH237553   3.554   0.790  12.724 -0.6458  0.2734  0.1853
 4453TIP3    H137554   3.644   0.791  12.756 -0.7667  0.7548  0.5313
 4453TIP3    H237555   3.518   0.707  12.755 -0.7438  0.7090  1.2838
 4454TIP3   OH237556   2.423   1.361  10.423 -0.2333  0.1558  0.3081
 4454TIP3    H137557   2.461   1.366  10.335 -0.2492 -0.6837  0.2421
 4454TIP3    H237558   2.330   1.378  10.410 -0.4568 -1.1968 -0.0364
 4455TIP3   OH237559   4.138   0.992  10.414  0.6493  0.2612 -0.2288
 4455TIP3    H137560   4.147   1.072  10.362  0.8086  0.2951 -0.1506
 4455TIP3    H237561   4.218   0.942  10.396  0.6239  0.1927 -0.1540
 4456TIP3   OH237562   5.635   0.143  12.691 -0.2175  0.0920 -0.0295
 4456TIP3    H137563   5.580   0.066  12.708 -1.1853  0.4644 -1.2612
 4456TIP3    H237564   5.633   0.152  12.596  0.6753  1.0846  0.0359
 4457TIP3   OH237565   3.168   6.000   9.606 -0.2311 -0.5257 -0.0451
 4457TIP3    H137566   3.112   5.928   9.577 -1.6520  0.0434  1.1667
 4457TIP3    H237567   3.115   6.079   9.592  0.3643  0.0547  0.8653
 4458TIP3   OH237568   2.811   1.602  12.093  0.4038  0.1043 -0.3014
 4458TIP3    H137569   2.784   1.599  12.185  0.1366 -2.4080 -0.3843
 4458TIP3    H237570   2.847   1.515  12.076  0.9194  0.6849 -2.4514
 4459TIP3   OH237571   2.745   2.845  10.854 -0.2128 -0.0132  0.5506
 4459TIP3    H137572   2.671   2.830  10.794  0.1703 -2.1900  0.5332
 4459TIP3    H237573   2.777   2.933  10.831 -2.2413  0.6257 -0.0212
 4460TIP3   OH237574   4.596   5.989  12.394  0.0612  0.1619  0.4990
 4460TIP3    H137575   4.564   6.020  12.309  0.0249 -0.0714  0.4252
 4460TIP3    H237576   4.555   6.047  12.458  0.3560  0.5504  0.3366
 4461TIP3   OH237577   2.290   5.976  10.130  0.4092  0.0238 -0.0232
 4461TIP3    H137578   2.318   6.063  10.100 -1.1064  1.0774  1.4672
 4461TIP3    H237579   2.212   5.992  10.183 -0.5821 -2.3689 -0.5926
 4462TIP3   OH237580   0.747   3.763  10.085 -0.5758 -0.1039 -0.3000
 4462TIP3    H137581   0.731   3.797  10.172 -1.3634  0.5771 -0.6969
 4462TIP3    H237582   0.735   3.838  10.027  0.2219 -0.4757 -0.9759
 4463TIP3   OH237583   5.492   6.216  13.003  0.8037 -0.3000  0.2980
 4463TIP3    H137584   5.497   6.306  13.033  0.4491  0.3753 -1.5337
 4463TIP3    H237585   5.563   6.171  13.049  2.5491  1.4646 -0.5052
 4464TIP3   OH237586   1.618   4.372  11.917 -0.3436  0.3607  0.1969
 4464TIP3    H137587   1.675   4.338  11.848  0.0916 -0.1126  0.7762
 4464TIP3    H237588   1.574   4.447  11.877  0.6185  0.6824 -0.3070
 4465TIP3   OH237589   5.637   3.334  12.742 -0.0708 -0.0469 -0.6715
 4465TIP3    H137590   5.689   3.406  12.707  0.6905 -1.0207 -1.6233
 4465TIP3    H237591   5.567   3.377  12.792  0.3427  1.3374 -1.2256
 4466TIP3   OH237592   3.288   3.560  10.466 -0.2923 -0.0071  0.4354
 4466TIP3    H137593   3.268   3.650  10.440 -0.1551 -0.1265 -0.0959
 4466TIP3    H237594   3.218   3.537  10.528 -1.0636  0.0392 -0.3852
 4467TIP3   OH237595   1.348   1.841  10.580  0.1135 -0.1081  0.2648
 4467TIP3    H137596   1.436   1.864  10.549  0.5741 -1.3945  0.5616
 4467TIP3    H237597   1.300   1.815  10.501  1.1179 -2.8445  0.4319
 4468TIP3   OH237598   1.733   4.209  12.508  0.3938 -0.2397 -0.4254
 4468TIP3    H137599   1.645   4.219  12.473  0.5199 -0.3002 -0.7628
 4468TIP3    H237600   1.726   4.234  12.600 -0.4224 -2.2533  0.1025
 4469TIP3   OH237601   6.208   5.529  10.932 -0.0062  0.2289  0.2937
 4469TIP3    H137602   6.171   5.471  10.865 -1.2403 -0.8847  1.8553
 4469TIP3    H237603   6.294   5.493  10.951 -0.0897 -0.0984  0.0552
 4470TIP3   OH237604   3.362   2.334  13.416 -0.3659  0.2358 -0.0669
 4470TIP3    H137605   3.393   2.270  13.480 -1.5286 -0.5264 -0.2300
 4470TIP3    H237606   3.367   2.288  13.332  1.2023  1.2445 -0.5661
 4471TIP3   OH237607   5.593   5.237  11.568  0.1249  0.3997  0.1415
 4471TIP3    H137608   5.598   5.148  11.603 -0.7764  0.0544 -0.5783
 4471TIP3    H237609   5.659   5.238  11.499  0.7687  0.5829  0.7439
 4472TIP3   OH237610   5.892   6.769  13.056 -0.1729  0.4284 -0.5040
 4472TIP3    H137611   5.915   6.842  12.998 -0.5512 -0.3039 -1.5972
 4472TIP3    H237612   5.814   6.730  13.016 -0.1903 -0.3499  0.2682
 4473TIP3   OH237613   1.007   5.572  11.537 -0.1532 -0.4426 -0.0002
 4473TIP3    H137614   0.927   5.619  11.562 -1.3584 -1.5574 -1.5125
 4473TIP3    H237615   1.064   5.640  11.500 -0.3115  0.3943  1.2317
 4474TIP3   OH237616   0.553   4.015  12.112 -0.1989  0.3981 -0.4167
 4474TIP3    H137617   0.608   4.092  12.096  0.6865 -0.5141 -1.9237
 4474TIP3    H237618   0.464   4.049  12.107  0.1710  1.2819 -1.4356
 4475TIP3   OH237619   3.858   4.384  11.864  0.0764  0.2858 -0.4403
 4475TIP3    H137620   3.848   4.476  11.842  0.7839  0.0592 -1.7825
 4475TIP3    H237621   3.869   4.339  11.780  0.9929 -0.8662  0.2585
 4476TIP3   OH237622   4.995   5.352  12.388  0.6254  0.0920  0.5859
 4476TIP3    H137623   5.075   5.378  12.343 -0.0703  1.0451 -0.1682
 4476TIP3    H237624   5.023   5.323  12.474  2.0373 -1.9073 -0.4679
 4477TIP3   OH237625   0.658   3.098  12.585  0.4829 -0.7024  0.1685
 4477TIP3    H137626   0.582   3.150  12.557  0.8246  0.4749  1.3331
 4477TIP3    H237627   0.724   3.115  12.517 -0.4390 -2.1954 -1.1661
 4478TIP3   OH237628   0.928   3.036  12.468  0.0008  0.0792  0.0577
 4478TIP3    H137629   0.972   3.002  12.546  0.2922 -0.4016 -0.3070
 4478TIP3    H237630   0.897   2.957  12.422  0.0526  0.3410 -0.4345
 4479TIP3   OH237631   3.672   1.101  11.678 -0.0529  0.3034 -0.2690
 4479TIP3    H137632   3.670   1.120  11.772  2.2498 -1.3155  0.1986
 4479TIP3    H237633   3.621   1.172  11.638  0.7631  2.3271  2.0180
 4480TIP3   OH237634   3.630   4.015  12.444 -0.5088 -0.2544 -0.2268
 4480TIP3    H137635   3.660   3.924  12.435 -0.0477  0.0280 -1.6933
 4480TIP3    H237636   3.701   4.068  12.410  0.2248  0.8603  2.7205
 4481TIP3   OH237637   1.753   5.587  10.308 -0.3446 -0.4532 -0.2659
 4481TIP3    H137638   1.838   5.629  10.297 -1.3795  2.4174  1.7152
 4481TIP3    H237639   1.743   5.533  10.229  3.3237 -1.0732 -0.4888
 4482TIP3   OH237640   3.535   5.078  10.196 -0.3231  0.4823  0.2267
 4482TIP3    H137641   3.627   5.083  10.168 -0.1825 -0.1354  0.5532
 4482TIP3    H237642   3.486   5.115  10.123  0.2182  1.2279  0.2298
 4483TIP3   OH237643   0.636   1.015  11.728 -0.3112  0.7811  0.0045
 4483TIP3    H137644   0.608   1.016  11.636 -0.6992 -1.5912  0.0350
 4483TIP3    H237645   0.585   1.084  11.769 -1.0276  1.0876 -1.3374
 4484TIP3   OH237646   3.936   6.817  12.783  0.0515  0.2033  0.5053
 4484TIP3    H137647   4.005   6.774  12.733  0.5611 -0.4651  1.7149
 4484TIP3    H237648   3.936   6.908  12.753 -0.5175 -0.4404 -1.5505
 4485TIP3   OH237649   6.449   5.517  10.692  0.5712 -0.2033  0.0957
 4485TIP3    H137650   6.427   5.480  10.606  1.3205 -2.8100  0.9340
 4485TIP3    H237651   6.544   5.525  10.690  0.5403  0.2844  0.4919
 4486TIP3   OH237652   4.242   3.082  12.778 -0.3248  0.1855 -1.0431
 4486TIP3    H137653   4.261   3.017  12.845 -0.6366  0.0692 -1.0669
 4486TIP3    H237654   4.218   3.161  12.827  0.7105  0.4886 -1.0087
 4487TIP3   OH237655   2.402   6.699   9.408 -0.6745 -0.0284 -0.6464
 4487TIP3    H137656   2.453   6.777   9.430  0.7793 -0.9284 -0.7009
 4487TIP3    H237657   2.410   6.691   9.313  0.8286 -1.2854 -0.4578
 4488TIP3   OH237658   4.502   1.623  13.202 -0.0751 -0.3417  0.1627
 4488TIP3    H137659   4.554   1.688  13.154 -0.1229  2.5647  3.6159
 4488TIP3    H237660   4.564   1.552  13.221  1.2534  0.7055 -0.0655
 4489TIP3   OH237661   5.741   4.656  11.126  0.0846  0.5180 -0.4614
 4489TIP3    H137662   5.662   4.612  11.158  0.7902 -1.5202 -1.4069
 4489TIP3    H237663   5.727   4.665  11.032  0.8454  0.4283 -0.5878
 4490TIP3   OH237664   1.988   5.261  10.214  0.1293  0.1374 -0.3629
 4490TIP3    H137665   1.959   5.217  10.134 -1.8840  0.5388  0.1108
 4490TIP3    H237666   1.974   5.197  10.283  0.8385  0.1808 -0.1720
 4491TIP3   OH237667   0.162   5.727  10.847 -0.3584 -0.1827 -0.5875
 4491TIP3    H137668   0.167   5.821  10.865  0.3405 -0.4328  0.6155
 4491TIP3    H237669   0.226   5.713  10.777 -0.2739  0.1921 -0.5861
 4492TIP3   OH237670   5.907   0.547  12.264  0.4293  0.1979 -0.0124
 4492TIP3    H137671   5.892   0.557  12.170  1.0507 -1.9647 -0.4058
 4492TIP3    H237672   5.983   0.602  12.282  0.5652  0.3073 -0.8613
 4493TIP3   OH237673   4.716   2.554  12.430 -0.3764 -0.7612 -0.2948
 4493TIP3    H137674   4.807   2.565  12.403 -0.5931 -0.5650 -0.9766
 4493TIP3    H237675   4.705   2.611  12.506 -0.3522  0.4513 -1.1799
 4494TIP3   OH237676   0.306   6.555  11.101  0.3734  0.1742 -0.5806
 4494TIP3    H137677   0.258   6.474  11.085 -0.4132  0.0880  1.8413
 4494TIP3    H237678   0.239   6.623  11.103  0.9939  0.9031 -2.2841
 4495TIP3   OH237679   6.823   6.395  12.744  0.6888  0.0130 -0.4633
 4495TIP3    H137680   6.845   6.385  12.651  0.9621 -1.7577 -0.2552
 4495TIP3    H237681   6.760   6.325  12.761  1.7563 -0.6532  0.9959
 4496TIP3   OH237682   2.989   6.110  12.505  0.4678  0.1300 -0.1504
 4496TIP3    H137683   2.973   6.160  12.425  1.3982 -0.3856 -0.6648
 4496TIP3    H237684   2.970   6.172  12.576 -0.6566  0.4971 -0.7548
 4497TIP3   OH237685   0.953   1.863  13.069 -0.3398  0.0633 -0.5538
 4497TIP3    H137686   1.029   1.825  13.025  0.3299  1.6422 -0.8603
 4497TIP3    H237687   0.955   1.955  13.044 -0.5802  0.8081  1.8465
 4498TIP3   OH237688   2.544   5.452   8.873 -0.7097  0.1219 -0.8563
 4498TIP3    H137689   2.462   5.502   8.867 -1.1509  0.0199  2.4168
 4498TIP3    H237690   2.526   5.371   8.826 -1.2023  1.4793 -3.1847
 4499TIP3   OH237691   0.832   1.899  12.150  0.2272 -0.6050  0.4804
 4499TIP3    H137692   0.816   1.920  12.241  2.6566  0.9152  0.6313
 4499TIP3    H237693   0.747   1.912  12.107 -0.3653  1.1650  2.0697
 4500TIP3   OH237694   5.475   3.144  12.151 -0.3656  0.5168  0.2979
 4500TIP3    H137695   5.471   3.238  12.131  0.4984  0.1246 -1.9831
 4500TIP3    H237696   5.568   3.126  12.165 -0.6729  0.2458  2.4018
 4501TIP3   OH237697   2.231   2.557  10.471  0.1181 -0.3637 -0.2857
 4501TIP3    H137698   2.217   2.462  10.478  0.9336 -0.4975 -0.3703
 4501TIP3    H237699   2.251   2.570  10.378  0.6558 -0.2018 -0.1472
 4502TIP3   OH237700   6.288   4.021  10.540  0.1408  0.2368  0.2377
 4502TIP3    H137701   6.312   4.109  10.569  0.6108  0.0246  0.5029
 4502TIP3    H237702   6.193   4.020  10.543  0.1364  0.7052  0.3324
 4503TIP3   OH237703   2.067   4.448  10.157 -0.1767  0.4810 -0.2451
 4503TIP3    H137704   1.972   4.458  10.157 -0.4809 -1.7298 -1.2979
 4503TIP3    H237705   2.082   4.362  10.197  1.4728  1.2472  0.8637
 4504TIP3   OH237706   4.247   5.546  10.992  0.2699 -0.3442  0.6610
 4504TIP3    H137707   4.227   5.550  10.899  1.1018  0.0704  0.4843
 4504TIP3    H237708   4.162   5.543  11.036 -0.1684  0.9145 -0.0545
 4505TIP3   OH237709   6.753   2.906  10.551 -0.0686  0.2283  0.1193
 4505TIP3    H137710   6.680   2.844  10.544  0.6871 -0.5629 -1.1856
 4505TIP3    H237711   6.790   2.910  10.462  0.4070  1.9455  0.3543
 4506TIP3   OH237712   3.018   2.309  12.749  0.2369 -0.6933 -0.2509
 4506TIP3    H137713   2.981   2.236  12.701 -0.3395  0.1367 -1.1070
 4506TIP3    H237714   2.982   2.301  12.837  0.5241 -1.6763 -0.2156
 4507TIP3   OH237715   3.823   3.864  11.888  0.1369  1.0435  0.3590
 4507TIP3    H137716   3.835   3.924  11.815 -0.3531  1.6455  0.7619
 4507TIP3    H237717   3.884   3.896  11.955  1.7348 -0.4219 -0.3065
 4508TIP3   OH237718   1.034   1.146  12.001  0.3085 -0.5730  0.5357
 4508TIP3    H137719   1.005   1.186  12.084 -0.2257 -2.1885  1.1800
 4508TIP3    H237720   1.128   1.162  11.998  0.3334 -0.4673  1.4608
 4509TIP3   OH237721   4.361   2.832  10.860  0.1643  0.2197 -0.3329
 4509TIP3    H137722   4.389   2.903  10.802 -0.2461 -0.1859 -1.0441
 4509TIP3    H237723   4.361   2.754  10.804  2.0841 -0.6687  0.8070
 4510TIP3   OH237724   1.654   4.855  11.616  0.0873  0.4969 -1.0304
 4510TIP3    H137725   1.689   4.798  11.685  1.3835  2.2403 -0.1654
 4510TIP3    H237726   1.559   4.854  11.631  0.2207 -0.2607 -0.1032
 4511TIP3   OH237727   4.650   3.066  12.662  0.4646 -0.5913  0.1886
 4511TIP3    H137728   4.621   3.095  12.575 -0.2087  2.4081  1.2972
 4511TIP3    H237729   4.670   3.147  12.709  0.5914 -2.0953  2.9311
 4512TIP3   OH237730   0.252   6.287  12.226 -0.2319 -0.4551 -0.5927
 4512TIP3    H137731   0.284   6.202  12.196  3.0811  0.4443 -0.0249
 4512TIP3    H237732   0.234   6.275  12.319  0.1168 -0.5769 -0.5391
 4513TIP3   OH237733   4.015   1.360  11.987  0.5804 -0.8658 -0.5609
 4513TIP3    H137734   4.031   1.304  12.063 -2.3639 -0.9796  0.0916
 4513TIP3    H237735   4.087   1.424  11.989  0.4862 -0.7116  2.4854
 4514TIP3   OH237736   2.537   2.346  10.396  0.2019  0.4844 -0.4252
 4514TIP3    H137737   2.607   2.332  10.331  1.1997 -0.3795  0.7808
 4514TIP3    H237738   2.458   2.314  10.353  1.0895 -1.4612 -0.7049
 4515TIP3   OH237739   5.822   3.798  11.597  1.1163  0.0982  0.1064
 4515TIP3    H137740   5.794   3.831  11.682 -0.8695  1.1432 -0.8882
 4515TIP3    H237741   5.863   3.714  11.616 -0.2261 -0.1834  1.9881
 4516TIP3   OH237742   0.213   5.336  12.250  0.0681 -0.0399 -0.1736
 4516TIP3    H137743   0.299   5.378  12.248  0.1500 -0.2322 -1.1438
 4516TIP3    H237744   0.151   5.409  12.244  0.1780  0.0338 -0.3904
 4517TIP3   OH237745   1.742   0.674  11.416  0.0031  0.3853 -0.1317
 4517TIP3    H137746   1.819   0.716  11.378  0.0762  1.6636  1.3337
 4517TIP3    H237747   1.748   0.583  11.389  2.7233  0.1604  1.0062
 4518TIP3   OH237748   6.276   0.479  12.127  0.1956 -0.4939 -0.5346
 4518TIP3    H137749   6.279   0.539  12.201  0.8831  0.0248 -0.9633
 4518TIP3    H237750   6.260   0.393  12.166  2.0278 -0.4666  0.3711
 4519TIP3   OH237751   2.134   5.167  12.101  0.3140 -0.3942  0.1895
 4519TIP3    H137752   2.114   5.100  12.165 -0.7380 -0.2763 -0.0029
 4519TIP3    H237753   2.073   5.152  12.029 -0.9398  1.6058  0.7515
 4520TIP3   OH237754   1.368   1.762  11.732  0.6209  0.6804 -0.3038
 4520TIP3    H137755   1.436   1.718  11.681  1.1378 -0.5010  1.3256
 4520TIP3    H237756   1.286   1.741  11.687  0.9908 -0.9558 -0.2757
 4521TIP3   OH237757   5.131   6.097  11.043 -0.1641 -0.5444 -0.2905
 4521TIP3    H137758   5.178   6.175  11.074  0.1158 -1.1873  0.9944
 4521TIP3    H237759   5.067   6.131  10.980  0.2648  0.6654 -0.1034
 4522TIP3   OH237760   4.874   2.535  11.181 -0.8455 -0.3745  0.4588
 4522TIP3    H137761   4.886   2.608  11.243  2.2420 -1.4638  1.3045
 4522TIP3    H237762   4.897   2.571  11.096 -0.5832 -0.0430  0.6689
 4523TIP3   OH237763   6.732   5.034  12.404  0.0774  0.3663  0.3264
 4523TIP3    H137764   6.642   5.064  12.417 -0.9447 -1.4338 -1.8422
 4523TIP3    H237765   6.750   4.978  12.479 -0.8950  0.1402  0.4040
 4524TIP3   OH237766   3.214   2.301  10.339  0.3050  0.5548  0.9082
 4524TIP3    H137767   3.201   2.218  10.294  0.0525  0.6569  0.7925
 4524TIP3    H237768   3.304   2.297  10.371 -0.0182 -0.1605  1.7376
 4525TIP3   OH237769   4.155   2.757  11.611 -0.2183  0.0811 -0.2158
 4525TIP3    H137770   4.219   2.691  11.585  0.3673 -0.3217  1.9968
 4525TIP3    H237771   4.189   2.839  11.575  2.3312  0.0884  1.9231
 4526TIP3   OH237772   5.946   0.682  10.840 -0.2237 -0.2353 -0.1653
 4526TIP3    H137773   5.955   0.646  10.928 -1.9049 -2.9727 -0.9890
 4526TIP3    H237774   5.856   0.713  10.835 -0.5824 -1.3655 -1.2890
 4527TIP3   OH237775   5.324   3.536  11.751 -0.4978 -0.3370 -0.2712
 4527TIP3    H137776   5.410   3.575  11.732 -1.4696  0.3398 -4.0024
 4527TIP3    H237777   5.337   3.442  11.738 -0.1910 -0.3099 -0.1768
 4528TIP3   OH237778   4.687   6.278  12.306  0.3675 -0.0016  0.3033
 4528TIP3    H137779   4.747   6.352  12.313  1.0352 -0.4455 -0.5714
 4528TIP3    H237780   4.619   6.297  12.371 -0.3978  2.2101 -1.0169
 4529TIP3   OH237781   1.807   5.775  11.763  0.5184  0.3395  0.0085
 4529TIP3    H137782   1.737   5.722  11.801  0.7556  0.7543  1.0862
 4529TIP3    H237783   1.837   5.726  11.686 -0.9455  0.1607 -0.4674
 4530TIP3   OH237784   5.830   1.830  12.956 -0.8580 -0.3534  0.1595
 4530TIP3    H137785   5.776   1.752  12.964 -1.5748  0.0502 -0.5418
 4530TIP3    H237786   5.788   1.881  12.886  0.1489  0.2018 -0.0597
 4531TIP3   OH237787   6.174   6.147  12.103  0.1604 -0.3484 -0.1414
 4531TIP3    H137788   6.090   6.101  12.097 -0.6137  0.7816  1.4080
 4531TIP3    H237789   6.152   6.239  12.090  1.0305  0.0463  1.0101
 4532TIP3   OH237790   3.940   1.898  10.449 -0.3133  0.3176 -0.0501
 4532TIP3    H137791   3.959   1.806  10.431 -0.2687  0.2864  0.1473
 4532TIP3    H237792   3.938   1.940  10.363 -0.8598  0.0345 -0.1776
 4533TIP3   OH237793   1.977   2.635   9.962  0.2098  0.0133 -0.1433
 4533TIP3    H137794   1.998   2.600  10.048  0.8691 -0.2991 -0.4204
 4533TIP3    H237795   1.964   2.729   9.976  1.1166  0.1000  0.1682
 4534TIP3   OH237796   4.665   3.456  11.062 -0.2664 -0.2915  0.5628
 4534TIP3    H137797   4.650   3.363  11.082 -1.5857 -0.1992  0.0525
 4534TIP3    H237798   4.701   3.456  10.973  0.0530 -0.3193  0.6877
 4535TIP3   OH237799   2.338   1.797  13.171  0.4131 -0.0828 -0.4255
 4535TIP3    H137800   2.349   1.885  13.207  1.0859 -0.2070 -0.3165
 4535TIP3    H237801   2.244   1.787  13.160  0.1762 -0.0509  1.3461
 4536TIP3   OH237802   4.544   2.394  12.716 -0.4178 -0.2803 -0.4221
 4536TIP3    H137803   4.621   2.450  12.713 -1.3373  1.0216 -0.3498
 4536TIP3    H237804   4.470   2.453  12.703 -1.4323 -1.4556 -0.2163
 4537TIP3   OH237805   6.161   1.535  10.420  0.1031 -0.2893  0.2059
 4537TIP3    H137806   6.118   1.531  10.335 -0.9683 -1.0357  0.7548
 4537TIP3    H237807   6.216   1.614  10.416 -1.4430  0.8069 -0.4837
 4538TIP3   OH237808   3.937   6.347  11.449  0.1268  0.2341  0.6184
 4538TIP3    H137809   3.931   6.442  11.453 -0.6782  0.2254 -0.1798
 4538TIP3    H237810   3.950   6.328  11.356 -2.0355 -0.5349  0.4110
 4539TIP3   OH237811   1.723   3.172  12.516  0.5302  0.3569 -0.3152
 4539TIP3    H137812   1.813   3.206  12.509  2.1434 -2.8082  2.3948
 4539TIP3    H237813   1.712   3.117  12.439  1.0979  0.3908 -0.4237
 4540TIP3   OH237814   3.486   0.961  12.333 -0.1589  0.2534  0.0184
 4540TIP3    H137815   3.479   1.054  12.353 -0.1453  0.3823 -0.5576
 4540TIP3    H237816   3.398   0.936  12.305  0.1901  0.4637 -1.3336
 4541TIP3   OH237817   2.618   4.150  10.049  0.1034  0.1817 -0.0320
 4541TIP3    H137818   2.536   4.197  10.034 -1.6736 -1.6354  3.0182
 4541TIP3    H237819   2.684   4.218  10.052 -1.7014  2.0245  0.1445
 4542TIP3   OH237820   5.348   0.435  13.061 -0.4293  0.1112 -0.0869
 4542TIP3    H137821   5.389   0.392  12.986  0.7110  3.1106 -1.3391
 4542TIP3    H237822   5.304   0.511  13.024 -0.2490  1.4260  2.2393
 4543TIP3   OH237823   1.952   2.899  11.306  0.3669  0.2956  0.0075
 4543TIP3    H137824   1.983   2.989  11.290  1.0216  0.4235  1.7218
 4543TIP3    H237825   1.931   2.898  11.400 -0.4673 -1.1127 -0.1756
 4544TIP3   OH237826   1.296   5.828  11.122  0.4569  0.0218 -0.1701
 4544TIP3    H137827   1.381   5.866  11.143 -0.4816  3.3291 -1.6932
 4544TIP3    H237828   1.314   5.765  11.053  1.6331  1.1326 -0.9165
 4545TIP3   OH237829   4.475   3.757  11.033 -0.0641  0.1404  0.1169
 4545TIP3    H137830   4.418   3.713  10.970 -0.4132  0.6719  0.0545
 4545TIP3    H237831   4.506   3.836  10.988  1.0609 -0.3488 -0.0020
 4546TIP3   OH237832   2.101   4.256  10.573 -0.2672  0.2369 -0.2420
 4546TIP3    H137833   2.040   4.186  10.549 -1.1265  1.2248 -1.0252
 4546TIP3    H237834   2.177   4.210  10.610 -0.5253 -1.1407 -1.3498
 4547TIP3   OH237835   6.112   4.393  11.512 -0.6621 -0.8633  0.5265
 4547TIP3    H137836   6.140   4.414  11.423 -0.2559 -0.9193  0.6387
 4547TIP3    H237837   6.054   4.465  11.536 -1.7498 -1.4527 -0.2261
 4548TIP3   OH237838   3.106   4.695  11.308  0.2736  0.3139 -0.3295
 4548TIP3    H137839   3.111   4.675  11.401 -0.0222  0.8649 -0.1915
 4548TIP3    H237840   3.192   4.731  11.286  0.2011  0.5919 -0.1662
 4549TIP3   OH237841   2.868   5.783   9.762  0.3334 -0.0698 -0.4890
 4549TIP3    H137842   2.845   5.798   9.670  0.5935 -0.3294 -0.5974
 4549TIP3    H237843   2.948   5.835   9.775  0.6308 -0.5026 -0.5727
 4550TIP3   OH237844   2.965   2.694  11.421 -0.2077  0.1802 -0.3900
 4550TIP3    H137845   2.890   2.694  11.362 -1.0247  1.3027  0.6046
 4550TIP3    H237846   2.969   2.604  11.454 -0.5771 -0.1062 -1.0908
 4551TIP3   OH237847   6.109   1.943  10.082  0.4381  0.2152 -0.0903
 4551TIP3    H137848   6.204   1.955  10.084  0.3173  1.8106 -1.6254
 4551TIP3    H237849   6.080   1.996  10.008 -1.7227  0.1614  0.6564
 4552TIP3   OH237850   2.842   3.886  12.822  0.2736  0.3127  0.1861
 4552TIP3    H137851   2.749   3.907  12.815  0.6055  1.6600 -0.4166
 4552TIP3    H237852   2.883   3.966  12.855  1.3283  0.0148 -0.3583
 4553TIP3   OH237853   1.983   1.546  12.049  0.2097 -0.7522 -0.3875
 4553TIP3    H137854   1.903   1.526  12.000 -0.4295 -1.6038  0.9347
 4553TIP3    H237855   2.026   1.461  12.060  1.1885 -0.3361 -0.8698
 4554TIP3   OH237856   4.697   1.094  13.255  0.1822 -0.4502 -0.0611
 4554TIP3    H137857   4.705   1.187  13.236  2.2402 -0.3359  1.0645
 4554TIP3    H237858   4.603   1.080  13.267 -0.1312  1.5770  0.2076
 4555TIP3   OH237859   0.678   6.748  10.100 -0.2635  0.4653  0.4023
 4555TIP3    H137860   0.661   6.816  10.165  0.7909  0.9260  0.2157
 4555TIP3    H237861   0.718   6.794  10.027 -0.1652 -0.2574 -0.0081
 4556TIP3   OH237862   1.397   5.800  13.047  0.1336 -0.4561 -0.2039
 4556TIP3    H137863   1.424   5.823  12.958  0.3690  0.2346  0.0371
 4556TIP3    H237864   1.478   5.775  13.091  0.4621  1.6491  0.5271
 4557TIP3   OH237865   2.223   6.432  12.843 -0.2139 -0.2344  0.8525
 4557TIP3    H137866   2.139   6.468  12.813 -0.3971  0.0099  1.6238
 4557TIP3    H237867   2.224   6.343  12.810 -1.3404 -0.6494  1.8302
 4558TIP3   OH237868   1.386   6.684  11.982  0.0630  0.5116 -0.2299
 4558TIP3    H137869   1.310   6.730  11.948 -0.2879  0.5991  0.6555
 4558TIP3    H237870   1.461   6.739  11.957  0.0997 -0.6720 -3.0629
 4559TIP3   OH237871   2.397   2.275  11.918  0.1710  0.5229 -0.1829
 4559TIP3    H137872   2.356   2.319  11.992 -1.5928  0.2763 -0.9601
 4559TIP3    H237873   2.431   2.346  11.863 -0.5364  0.8078 -0.2555
 4560TIP3   OH237874   0.175   6.554  11.404 -0.0256 -0.4142  0.4355
 4560TIP3    H137875   0.177   6.482  11.468 -1.3559 -2.2936 -1.5173
 4560TIP3    H237876   0.248   6.535  11.345  0.2257  0.4422  0.4541
 4561TIP3   OH237877   4.159   6.349  12.069  0.4375 -0.0012  0.4256
 4561TIP3    H137878   4.182   6.257  12.071  1.0830  0.1223 -0.6520
 4561TIP3    H237879   4.220   6.391  12.130  2.2876  0.1246 -1.3820
 4562TIP3   OH237880   3.611   6.588  11.159 -0.8525 -0.5951  0.1217
 4562TIP3    H137881   3.685   6.629  11.116  0.6683 -0.6959  2.4612
 4562TIP3    H237882   3.549   6.660  11.174  0.1517  0.1504  0.8516
 4563TIP3   OH237883   3.670   3.807  12.173 -0.2425 -0.2125 -0.5613
 4563TIP3    H137884   3.608   3.756  12.225  0.4425 -0.1886  0.2976
 4563TIP3    H237885   3.720   3.741  12.125 -0.7774 -0.2407 -1.0913
 4564TIP3   OH237886   5.147   1.387  11.051 -0.1355 -0.4929 -0.6979
 4564TIP3    H137887   5.211   1.404  11.121  0.8209 -1.9306 -1.1829
 4564TIP3    H237888   5.166   1.454  10.985 -1.3773  1.2031  0.5727
 4565TIP3   OH237889   3.473   3.102  12.828  0.7121  0.6268  0.4058
 4565TIP3    H137890   3.567   3.108  12.811  1.0079 -0.2567  1.6312
 4565TIP3    H237891   3.445   3.024  12.780  1.1892 -0.7699  2.2670
 4566TIP3   OH237892   3.104   5.851  12.936  0.1869  0.0560  0.4587
 4566TIP3    H137893   3.058   5.780  12.892  1.7508  0.2047 -1.5764
 4566TIP3    H237894   3.196   5.824  12.937  0.6893  1.6201  0.4387
 4567TIP3   OH237895   2.125   0.929  10.391 -0.8822  0.2243 -0.2618
 4567TIP3    H137896   2.136   0.929  10.486 -3.8143  2.1903  0.2181
 4567TIP3    H237897   2.189   0.992  10.360 -1.7094  1.6619  0.8071
 4568TIP3   OH237898   6.006   2.821  11.167  0.3999  0.0367 -0.5192
 4568TIP3    H137899   6.054   2.787  11.243  0.0684 -0.8198 -0.6812
 4568TIP3    H237900   6.070   2.820  11.096  0.4656 -0.0178 -0.4601
 4569TIP3   OH237901   2.549   1.988  13.050  0.6957 -0.8811  0.1840
 4569TIP3    H137902   2.499   2.044  13.109  2.2868  1.1476 -0.2566
 4569TIP3    H237903   2.501   1.990  12.968  1.8383  1.8941 -0.5584
 4570TIP3   OH237904   5.481   2.764  10.433 -0.5991  0.5367  0.3780
 4570TIP3    H137905   5.518   2.852  10.435 -0.9498  0.6920  0.1231
 4570TIP3    H237906   5.555   2.708  10.407  0.2257  0.4281  2.6978
 4571TIP3   OH237907   1.715   4.568   9.985  0.0392  0.2232 -0.6063
 4571TIP3    H137908   1.750   4.578  10.074  0.0693 -0.2527 -0.5656
 4571TIP3    H237909   1.792   4.554   9.930 -0.0931 -1.1730 -0.4697
 4572TIP3   OH237910   3.044   2.594  10.992  0.3151 -0.4168 -0.0773
 4572TIP3    H137911   3.012   2.504  10.997  0.6488 -0.5114  0.4672
 4572TIP3    H237912   3.102   2.603  11.067 -0.7935  0.6840  0.6865
 4573TIP3   OH237913   1.937   1.364  13.055  0.2181  0.1287 -0.0944
 4573TIP3    H137914   1.866   1.326  13.003  0.5223  0.2270 -0.5850
 4573TIP3    H237915   1.911   1.455  13.067  1.0714  0.6373 -1.7613
 4574TIP3   OH237916   4.450   0.236  11.012 -0.6217  0.3918 -0.2864
 4574TIP3    H137917   4.489   0.201  10.932 -0.9447  0.6421 -0.5617
 4574TIP3    H237918   4.369   0.278  10.982 -1.0115  0.0372  0.2454
 4575TIP3   OH237919   4.441   4.690  10.881  0.1166  0.3594 -0.8574
 4575TIP3    H137920   4.516   4.734  10.843  0.1624  0.9999 -0.0510
 4575TIP3    H237921   4.442   4.715  10.973 -1.8527  1.5119 -1.0779
 4576TIP3   OH237922   1.971   3.650  10.790  0.1691 -0.0864 -0.2524
 4576TIP3    H137923   2.039   3.589  10.761 -0.5019 -1.0833  0.2363
 4576TIP3    H237924   2.001   3.735  10.759  1.5352 -0.5387 -0.2374
 4577TIP3   OH237925   5.889   0.797  13.555  0.2229 -0.4760 -0.1449
 4577TIP3    H137926   5.939   0.768  13.631 -0.3865 -0.2661  0.3453
 4577TIP3    H237927   5.853   0.717  13.518  0.6012 -0.5884 -0.2735
 4578TIP3   OH237928   3.469   3.696  12.669 -0.2225  0.4540  0.4176
 4578TIP3    H137929   3.501   3.610  12.644  1.4522  1.1211  0.1328
 4578TIP3    H237930   3.374   3.692  12.654 -0.2796 -1.5469  1.1381
 4579TIP3   OH237931   1.733   3.762   9.172 -0.4773  0.6322  0.0182
 4579TIP3    H137932   1.760   3.680   9.211  0.0143  0.6695 -0.2277
 4579TIP3    H237933   1.644   3.747   9.142 -0.0133 -0.1766 -1.0135
 4580TIP3   OH237934   0.765   1.891  11.711 -0.1780 -0.4249  0.2661
 4580TIP3    H137935   0.843   1.921  11.665  0.3213 -1.7792  0.1958
 4580TIP3    H237936   0.703   1.963  11.703  0.9401  0.5370  0.0313
 4581TIP3   OH237937   5.960   1.387  12.197 -0.5070 -0.4602  0.3335
 4581TIP3    H137938   6.027   1.368  12.263 -1.1609 -0.9253  0.8943
 4581TIP3    H237939   6.008   1.422  12.122  0.1067  1.8322  1.6922
 4582TIP3   OH237940   6.538   5.231  11.247 -0.1271  0.0946 -0.1140
 4582TIP3    H137941   6.547   5.212  11.341 -0.8233  1.6193  0.2989
 4582TIP3    H237942   6.460   5.184  11.220 -0.7036  0.7146  0.4171
 4583TIP3   OH237943   0.700   6.181  10.752 -0.1325 -0.0756  0.0597
 4583TIP3    H137944   0.768   6.249  10.756 -0.4960  0.3857 -1.2742
 4583TIP3    H237945   0.618   6.229  10.767 -0.3734 -0.2311 -0.7234
 4584TIP3   OH237946   5.688   1.027  12.751 -0.4945 -0.0493 -0.3113
 4584TIP3    H137947   5.641   1.102  12.714  0.1858  0.9100  0.6975
 4584TIP3    H237948   5.762   1.013  12.691  0.2546  1.1037  0.3071
 4585TIP3   OH237949   5.964   0.852  10.619  0.4579  0.1652 -0.0419
 4585TIP3    H137950   5.903   0.918  10.652  0.6686  0.3591 -0.0412
 4585TIP3    H237951   5.974   0.791  10.692 -0.3574 -0.3113 -0.3132
 4586TIP3   OH237952   5.617   6.387  12.526  0.2868  0.3451 -0.1924
 4586TIP3    H137953   5.705   6.348  12.518  0.4880  0.6771  0.3790
 4586TIP3    H237954   5.633   6.479  12.546 -0.1904  0.1623  1.0914
 4587TIP3   OH237955   5.792   2.695  12.823  0.2816 -0.3211 -0.5662
 4587TIP3    H137956   5.846   2.747  12.763  1.5742 -0.5026  0.4009
 4587TIP3    H237957   5.717   2.751  12.843  1.4839  1.0642  0.1985
 4588TIP3   OH237958   4.528   5.050  10.006  0.3690  0.1306 -0.3198
 4588TIP3    H137959   4.465   4.984  10.034 -0.0696  0.2338 -1.0371
 4588TIP3    H237960   4.492   5.133  10.039  0.4844  0.1069 -0.1375
 4589TIP3   OH237961   6.649   1.657  13.419 -0.1200  0.1792 -0.2587
 4589TIP3    H137962   6.572   1.646  13.475 -0.1906  4.6052  0.8521
 4589TIP3    H237963   6.618   1.709  13.345  1.5323  0.8037 -0.5471
 4590TIP3   OH237964   2.196   0.348  10.608  0.2707 -0.5473  0.3785
 4590TIP3    H137965   2.234   0.415  10.551  0.6389 -1.2645 -0.2371
 4590TIP3    H237966   2.139   0.297  10.551 -1.3512  0.2406  1.1914
 4591TIP3   OH237967   1.142   3.243  10.533  0.0835 -0.4927  0.4651
 4591TIP3    H137968   1.134   3.326  10.486 -1.5361  0.2170  1.8746
 4591TIP3    H237969   1.210   3.259  10.598  1.5760 -1.1326 -0.8957
 4592TIP3   OH237970   5.508   5.750  11.039  0.1492  0.2643 -0.6744
 4592TIP3    H137971   5.533   5.664  11.004  2.0965  0.9083 -1.0126
 4592TIP3    H237972   5.460   5.792  10.968 -2.3529 -1.1120  0.0783
 4593TIP3   OH237973   4.379   1.862  11.893 -0.1318  0.3916  0.2250
 4593TIP3    H137974   4.313   1.926  11.922 -0.0269 -0.1148  1.6725
 4593TIP3    H237975   4.422   1.835  11.974  1.5042  0.3119 -0.6376
 4594TIP3   OH237976   0.384   1.280  11.957  0.0789  0.5949  0.3163
 4594TIP3    H137977   0.469   1.276  11.914  0.3814 -1.7927  1.0179
 4594TIP3    H237978   0.322   1.251  11.891  0.2318 -0.6249  0.6788
 4595TIP3   OH237979   3.488   1.835  13.087 -0.3103  0.0564  0.3179
 4595TIP3    H137980   3.457   1.811  13.000 -1.1244  0.4496  0.4873
 4595TIP3    H237981   3.562   1.776  13.103 -1.1778 -1.1590  0.0388
 4596TIP3   OH237982   3.837   5.229  11.910 -0.6238 -0.3570 -0.5083
 4596TIP3    H137983   3.765   5.265  11.857 -0.4711 -0.6078 -0.8948
 4596TIP3    H237984   3.916   5.259  11.865 -0.3830  2.3179  1.4666
 4597TIP3   OH237985   4.370   4.719  12.153 -0.7605 -0.1531  0.0124
 4597TIP3    H137986   4.397   4.694  12.064 -1.6843 -0.0451 -0.3145
 4597TIP3    H237987   4.303   4.654  12.176 -1.2273  0.3941  0.2289
 4598TIP3   OH237988   5.722   2.700  11.197 -0.6684  0.8593 -0.5168
 4598TIP3    H137989   5.723   2.795  11.208 -0.9200  0.9926 -1.5052
 4598TIP3    H237990   5.798   2.669  11.246 -1.2396  1.4398  0.7956
 4599TIP3   OH237991   2.479   3.499   9.526  0.1845  0.6429  0.0284
 4599TIP3    H137992   2.410   3.437   9.501  0.4842 -0.2604  1.3348
 4599TIP3    H237993   2.456   3.580   9.480 -2.4890  0.7737  1.3780
 4600TIP3   OH237994   1.502   0.038  12.555 -0.0598  0.0582 -0.7785
 4600TIP3    H137995   1.535  -0.001  12.474 -0.9535 -1.2391 -0.5547
 4600TIP3    H237996   1.411   0.008  12.560 -0.2713  0.8380  0.2664
 4601TIP3   OH237997   2.352   1.574  10.695 -0.1038 -0.2784  0.0666
 4601TIP3    H137998   2.296   1.504  10.728 -0.5686  0.9301  2.0093
 4601TIP3    H237999   2.385   1.617  10.774 -0.1478  1.9207 -1.0486
 4602TIP3   OH238000   1.995   2.241  11.522  0.0038 -0.5098  0.0593
 4602TIP3    H138001   2.084   2.274  11.520  0.3193 -1.2475  1.1563
 4602TIP3    H238002   1.940   2.320  11.526  0.7045 -0.0714  1.6608
 4603TIP3   OH238003   1.376   4.981  13.135 -0.4852 -0.4877  0.0834
 4603TIP3    H138004   1.361   5.073  13.113  1.1526 -0.6405 -1.9355
 4603TIP3    H238005   1.458   4.981  13.185 -0.8583 -0.8077  0.7165
 4604TIP3   OH238006   2.419   3.872  12.047  0.0976 -0.1888  0.6438
 4604TIP3    H138007   2.497   3.923  12.022 -0.6750  0.9468  0.4756
 4604TIP3    H238008   2.347   3.933  12.038 -0.6939 -0.8973  1.9190
 4605TIP3   OH238009   2.119   3.804  12.248 -0.0492  0.4487  0.3827
 4605TIP3    H138010   2.127   3.790  12.154 -2.3817  0.5160  0.1010
 4605TIP3    H238011   2.108   3.899  12.257  0.1967  0.4467  0.7186
 4606TIP3   OH238012   1.503   0.718  12.661  0.0662 -0.3891  0.3842
 4606TIP3    H138013   1.530   0.809  12.667  0.1801 -0.3587 -0.4281
 4606TIP3    H238014   1.584   0.670  12.646 -0.1190 -0.4923 -0.3246
 4607TIP3   OH238015   4.544   3.949  12.942 -0.0315 -0.5049 -0.3158
 4607TIP3    H138016   4.495   3.968  12.862 -1.9230 -0.4814  0.7859
 4607TIP3    H238017   4.504   3.870  12.976  1.0463 -0.7622  0.3978
 4608TIP3   OH238018   6.521   5.630  12.342  0.0462 -0.0345 -0.0061
 4608TIP3    H138019   6.585   5.662  12.406  1.0829 -3.0801  0.6660
 4608TIP3    H238020   6.567   5.558  12.298 -2.3851 -1.2631 -0.6619
 4609TIP3   OH238021   0.107   2.756  12.010  0.3746  0.7257 -0.0141
 4609TIP3    H138022   0.158   2.830  12.044  0.8909  1.4813 -2.2722
 4609TIP3    H238023   0.173   2.692  11.982 -0.0068  0.3939 -0.1645
 4610TIP3   OH238024   5.461   0.899  11.065  0.0788  0.0810 -0.6295
 4610TIP3    H138025   5.546   0.861  11.044  0.2365  0.1238 -0.0933
 4610TIP3    H238026   5.431   0.851  11.142  0.5039  1.3412  0.3525
 4611TIP3   OH238027   5.977   6.113  11.797 -0.3362  0.3617 -0.7473
 4611TIP3    H138028   5.891   6.078  11.816  0.2173 -0.4283  0.4232
 4611TIP3    H238029   5.969   6.207  11.812 -0.3534 -0.0015  2.0642
 4612TIP3   OH238030   1.752   5.948  12.758 -0.3766  0.4276  0.1755
 4612TIP3    H138031   1.717   6.020  12.810  1.6644  0.7203  1.2588
 4612TIP3    H238032   1.764   5.877  12.821  0.9182  0.3540 -0.1260
 4613TIP3   OH238033   6.403   2.227  12.418  0.1082  0.4701 -0.2213
 4613TIP3    H138034   6.428   2.206  12.508  0.8695  0.3096 -0.4610
 4613TIP3    H238035   6.462   2.298  12.393  0.5208 -0.1062 -0.9003
 4614TIP3   OH238036   0.202   6.716  12.650  0.2745  0.0502 -0.0521
 4614TIP3    H138037   0.129   6.701  12.590  0.7079 -0.2088 -0.5277
 4614TIP3    H238038   0.161   6.744  12.731 -0.3014  1.0290 -0.6594
 4615TIP3   OH238039   0.407   4.687  10.146 -0.4378  0.5454 -0.0759
 4615TIP3    H138040   0.442   4.661  10.232 -0.6929  0.1242 -0.0980
 4615TIP3    H238041   0.477   4.739  10.107 -0.2422  0.5798  0.3105
 4616TIP3   OH238042   2.147   6.352   9.917  0.1026  0.4242 -0.2365
 4616TIP3    H138043   2.110   6.440   9.908 -0.3934  0.4350  1.5155
 4616TIP3    H238044   2.138   6.314   9.830 -3.0345  0.8534 -0.2286
 4617TIP3   OH238045   5.305   5.392  10.471  0.4332 -0.0004  0.2193
 4617TIP3    H138046   5.282   5.436  10.390  0.1711  0.6182  0.6268
 4617TIP3    H238047   5.341   5.308  10.443 -0.4031 -0.1317 -0.5046
 4618TIP3   OH238048   4.239   3.816  10.689 -0.1527 -0.3543 -0.1681
 4618TIP3    H138049   4.161   3.805  10.635  0.8927 -2.8808 -1.3313
 4618TIP3    H238050   4.312   3.813  10.627  0.9486  1.6675  0.9210
 4619TIP3   OH238051   2.184   4.031  11.922  0.0950 -0.5920  0.2011
 4619TIP3    H138052   2.231   4.092  11.865 -0.3979 -1.3476 -1.0587
 4619TIP3    H238053   2.092   4.042  11.898 -0.2381 -0.2342  1.5568
 4620TIP3   OH238054   5.449   6.024  11.091 -0.9175 -0.1958 -0.1465
 4620TIP3    H138055   5.449   5.936  11.127 -1.7921  0.7417  2.3854
 4620TIP3    H238056   5.359   6.039  11.063 -0.5578 -0.4079 -1.4681
 4621TIP3   OH238057   2.220   0.817   9.666  0.0482  0.0460 -0.1657
 4621TIP3    H138058   2.267   0.901   9.661  1.0459 -0.5515 -1.4038
 4621TIP3    H238059   2.197   0.808   9.759 -1.0613  2.1829 -0.1791
 4622TIP3   OH238060   4.052   6.433  10.238  0.1780  0.0541 -0.2580
 4622TIP3    H138061   4.131   6.451  10.289  1.1604 -1.8734 -1.0064
 4622TIP3    H238062   4.062   6.487  10.160  0.8473 -0.2741 -0.4114
 4623TIP3   OH238063   4.363   1.502  12.523 -0.9813  0.1484  0.1107
 4623TIP3    H138064   4.454   1.507  12.494 -1.4631  1.4044 -1.3449
 4623TIP3    H238065   4.364   1.440  12.595  0.6111 -1.9356 -1.5612
 4624TIP3   OH238066   0.079   0.956  13.262  0.2536 -0.0701  0.3659
 4624TIP3    H138067   0.132   1.034  13.250 -0.4500  0.5421  1.1260
 4624TIP3    H238068  -0.009   0.989  13.282  0.3075 -1.0016  2.4022
 4625TIP3   OH238069   3.205   6.463  10.758  0.2854 -0.2868  1.0093
 4625TIP3    H138070   3.123   6.413  10.759  0.0540  0.0692  2.9411
 4625TIP3    H238071   3.261   6.415  10.697 -1.2460 -0.6853 -0.1635
 4626TIP3   OH238072   2.155   6.759  13.182 -0.0093  0.0360  0.5602
 4626TIP3    H138073   2.132   6.807  13.102  0.1669 -0.0798  0.4402
 4626TIP3    H238074   2.245   6.731  13.168 -0.3910 -1.0901  0.2555
 4627TIP3   OH238075   3.426   0.499  12.253 -0.3410 -0.1153 -0.2896
 4627TIP3    H138076   3.332   0.489  12.269 -0.6962  0.6730 -1.7490
 4627TIP3    H238077   3.454   0.561  12.320 -0.9107 -0.1638  0.0039
 4628TIP3   OH238078   1.242   3.257  12.446 -0.2602 -0.0218  0.3207
 4628TIP3    H138079   1.285   3.338  12.419 -0.6897 -0.0173 -0.3995
 4628TIP3    H238080   1.306   3.212  12.501  0.2873  0.4253  0.0597
 4629TIP3   OH238081   6.042   1.495  10.156  0.1539  0.2665 -0.0293
 4629TIP3    H138082   6.084   1.409  10.158 -0.1928  0.0852 -0.3628
 4629TIP3    H238083   6.063   1.530  10.069  1.7075  1.2425  0.7139
 4630TIP3   OH238084   6.525   2.627  11.686  0.5892  0.0248  0.9351
 4630TIP3    H138085   6.437   2.665  11.678  0.7417  0.2776  0.4114
 4630TIP3    H238086   6.579   2.698  11.717  0.8377  0.2010  0.1356
 4631TIP3   OH238087   0.996   1.034  10.980  0.1727 -0.0788 -0.1179
 4631TIP3    H138088   0.928   1.101  10.992 -0.1724 -0.1990 -1.3196
 4631TIP3    H238089   1.044   1.035  11.063  0.6317  2.1639 -0.3380
 4632TIP3   OH238090   4.066   2.359  12.178  0.0524  0.0690  0.4275
 4632TIP3    H138091   4.086   2.452  12.169  0.4700 -0.1840 -2.1461
 4632TIP3    H238092   4.150   2.315  12.163 -0.0954 -0.7320  1.8438
 4633TIP3   OH238093   3.287   0.265  11.580  0.0821  0.6263  0.7341
 4633TIP3    H138094   3.218   0.211  11.619  0.3640  0.4470  0.9905
 4633TIP3    H238095   3.277   0.252  11.486  1.0305 -1.0171  0.8180
 4634TIP3   OH238096   4.148   0.412  10.664 -0.4157  0.0646 -0.2270
 4634TIP3    H138097   4.225   0.368  10.700  1.0169  0.0145 -3.0715
 4634TIP3    H238098   4.076   0.350  10.675 -0.4279  0.4778  3.3561
 4635TIP3   OH238099   5.218   2.979  12.805  0.3143  0.2707  0.0205
 4635TIP3    H138100   5.130   3.009  12.784  0.4655  1.5943  1.1081
 4635TIP3    H238101   5.268   2.992  12.724 -0.5274 -0.7323 -0.6788
 4636TIP3   OH238102   3.446   6.119  13.423  0.1506  0.2790  0.0485
 4636TIP3    H138103   3.366   6.068  13.435  0.7942 -0.7364  0.1276
 4636TIP3    H238104   3.517   6.058  13.442  0.9420  1.4059  0.8749
 4637TIP3   OH238105   3.637   0.566  11.538  0.0886  0.1841 -0.1415
 4637TIP3    H138106   3.662   0.631  11.603 -0.8987  1.2340 -0.7625
 4637TIP3    H238107   3.642   0.612  11.454  0.1362 -0.7724 -0.6894
 4638TIP3   OH238108   1.719   6.350   9.996 -0.2376 -0.2510  0.2540
 4638TIP3    H138109   1.630   6.366   9.966  0.5026 -0.2820 -2.1793
 4638TIP3    H238110   1.762   6.436   9.993  0.2347 -0.4920 -0.2194
 4639TIP3   OH238111   4.105   1.638  10.633 -0.6416 -0.3391  0.2965
 4639TIP3    H138112   4.125   1.592  10.551 -1.3415 -0.0330 -0.0509
 4639TIP3    H238113   4.020   1.604  10.660 -0.3712 -0.5134  0.9624
 4640TIP3   OH238114   2.369   4.291   9.957 -0.2877 -0.1106 -0.1823
 4640TIP3    H138115   2.406   4.378   9.944 -1.2433 -0.0778 -3.6590
 4640TIP3    H238116   2.277   4.299   9.930 -0.7146 -1.9636  0.5461
 4641TIP3   OH238117   5.345   3.205  10.552  0.1496  0.0877  0.1115
 4641TIP3    H138118   5.393   3.125  10.531 -1.2726 -0.8853  0.4508
 4641TIP3    H238119   5.333   3.248  10.467 -2.0458 -1.8224 -0.6802
 4642TIP3   OH238120   2.784   5.445  10.175 -0.5863 -0.0571 -0.4019
 4642TIP3    H138121   2.768   5.496  10.255 -2.2995 -0.8428 -0.2099
 4642TIP3    H238122   2.757   5.356  10.197  0.0515 -0.5416 -1.5022
 4643TIP3   OH238123   4.111   1.916  11.002  0.3277 -0.2502  0.2852
 4643TIP3    H138124   4.060   1.896  11.080  0.5252 -0.3489  0.3914
 4643TIP3    H238125   4.183   1.853  11.004 -1.4757 -2.5645 -1.7824
 4644TIP3   OH238126   0.679   6.538  11.707  0.2059 -0.5885 -0.0525
 4644TIP3    H138127   0.626   6.617  11.700  0.5995 -0.4459 -2.2225
 4644TIP3    H238128   0.644   6.480  11.639  2.7692 -0.4713 -1.6187
 4645TIP3   OH238129   6.635   5.191  12.966  0.1951 -0.0791  0.2936
 4645TIP3    H138130   6.566   5.248  12.999  1.7057  0.3390  3.1229
 4645TIP3    H238131   6.710   5.250  12.953  0.9870 -0.9761  0.6605
 4646TIP3   OH238132   4.927   5.653  12.970  0.1660 -0.0424  0.1272
 4646TIP3    H138133   4.872   5.588  13.014  0.1283 -1.7212 -2.2124
 4646TIP3    H238134   5.015   5.615  12.972 -0.0160 -0.7741 -2.1167
 4647TIP3   OH238135   0.796   3.439  12.928 -0.1171 -0.4515 -0.5582
 4647TIP3    H138136   0.777   3.458  12.836  0.4520 -0.8432 -0.7614
 4647TIP3    H238137   0.812   3.345  12.930  3.5550  0.0012 -0.7790
 4648TIP3   OH238138   4.334   5.549  11.284  0.0401 -0.3378 -0.3674
 4648TIP3    H138139   4.279   5.473  11.265  0.2339 -0.6282  0.2169
 4648TIP3    H238140   4.398   5.550  11.213  0.1968 -0.8776 -0.2398
 4649TIP3   OH238141   6.242   4.518  12.516  0.5163 -0.8330  0.1582
 4649TIP3    H138142   6.157   4.544  12.549  1.2989  2.3879  0.0031
 4649TIP3    H238143   6.285   4.474  12.589 -0.8789 -1.5996  0.5377
 4650TIP3   OH238144   0.181   2.033  12.179  0.2605 -0.1050  0.1374
 4650TIP3    H138145   0.093   2.010  12.210 -0.8117  0.4195 -2.3113
 4650TIP3    H238146   0.181   2.129  12.174  1.3349 -0.0398  1.0351
 4651TIP3   OH238147   1.784   0.132  11.573  0.3583 -0.9040 -0.2839
 4651TIP3    H138148   1.699   0.136  11.617  0.4249 -0.1636 -0.2013
 4651TIP3    H238149   1.848   0.135  11.644  0.4617 -0.0488 -0.3922
 4652TIP3   OH238150   4.129   4.415  12.467 -0.7949  0.3924 -0.0797
 4652TIP3    H138151   4.124   4.477  12.394  1.2369 -0.6415 -1.2007
 4652TIP3    H238152   4.090   4.334  12.433 -2.1264  0.5901  0.8840
 4653TIP3   OH238153   4.785   2.905  11.465 -0.1246 -0.4198  0.6220
 4653TIP3    H138154   4.848   2.848  11.421  0.9015  1.2217 -0.1733
 4653TIP3    H238155   4.829   2.933  11.545 -0.1235  0.1751  0.4185
 4654TIP3   OH238156   5.046   1.806  11.723  0.3436 -0.4904 -0.1882
 4654TIP3    H138157   5.081   1.798  11.812 -0.6623 -0.3387  0.2253
 4654TIP3    H238158   4.973   1.744  11.719 -1.8880  1.9664  0.2394
 4655TIP3   OH238159   2.400   4.305  13.119 -0.4829  0.1150 -0.1342
 4655TIP3    H138160   2.487   4.264  13.120 -1.1357 -1.5473 -2.5900
 4655TIP3    H238161   2.394   4.346  13.033 -2.0320  0.4221  0.1016
 4656TIP3   OH238162   5.816   3.447  10.294 -0.2489 -0.4832 -0.7953
 4656TIP3    H138163   5.755   3.493  10.352 -1.3554 -1.4864 -1.1309
 4656TIP3    H238164   5.873   3.516  10.262 -1.5596  0.6071 -0.9006
 4657TIP3   OH238165   2.698   0.926  12.118  0.1553  0.3246 -0.2408
 4657TIP3    H138166   2.710   1.019  12.138  0.0911  0.0019  1.4638
 4657TIP3    H238167   2.746   0.913  12.037  0.7098  1.7124 -0.1716
 4658TIP3   OH238168   1.119   0.645  11.997 -0.4933 -0.4747 -0.0974
 4658TIP3    H138169   1.027   0.667  11.980 -0.1062  0.9016 -0.5620
 4658TIP3    H238170   1.153   0.720  12.047  0.2781 -1.1475  0.4057
 4659TIP3   OH238171   4.452   1.321  11.273 -0.0125  0.0930 -0.5307
 4659TIP3    H138172   4.530   1.332  11.327  0.2953  2.8276 -1.4005
 4659TIP3    H238173   4.444   1.226  11.262  0.3945 -0.6030  3.5070
 4660TIP3   OH238174   1.208   4.123  10.804 -0.2338  0.1125 -0.3341
 4660TIP3    H138175   1.294   4.143  10.768  0.0405 -1.4415 -0.6308
 4660TIP3    H238176   1.219   4.131  10.899  0.3317 -0.3926 -0.3536
 4661TIP3   OH238177   4.874   6.028  12.400 -0.3612 -0.0211  0.4987
 4661TIP3    H138178   4.783   5.998  12.397 -0.5411  0.2999  1.8131
 4661TIP3    H238179   4.873   6.114  12.358 -0.7432  0.1163  0.7745
 4662TIP3   OH238180   0.965   4.661  10.439 -0.6067  0.3224  0.0207
 4662TIP3    H138181   0.935   4.745  10.474 -1.0953 -0.0853  0.6197
 4662TIP3    H238182   0.925   4.596  10.497 -1.1216 -0.3688 -1.0650
 4663TIP3   OH238183   4.143   4.113  12.351 -0.3851  0.1444 -0.4949
 4663TIP3    H138184   4.203   4.044  12.376 -0.6514 -0.9455 -2.6315
 4663TIP3    H238185   4.198   4.180  12.309 -0.3806  0.2225 -0.3648
 4664TIP3   OH238186   4.157   3.998  10.967  0.2893 -0.9267 -0.7420
 4664TIP3    H138187   4.066   4.016  10.946 -0.5011 -1.7062  1.6322
 4664TIP3    H238188   4.190   3.949  10.892 -0.5936  1.1223 -2.5479
 4665TIP3   OH238189   5.012   5.727  10.805  0.3307  1.2909  0.3058
 4665TIP3    H138190   4.969   5.666  10.864  0.6259  0.5982 -0.1817
 4665TIP3    H238191   5.001   5.688  10.718 -1.3089  2.9674 -0.3065
 4666TIP3   OH238192   3.189   5.628  10.185 -0.0520  0.0312 -0.2332
 4666TIP3    H138193   3.155   5.651  10.098  1.4146 -1.1205 -1.1772
 4666TIP3    H238194   3.276   5.667  10.187 -0.0427 -0.0171  0.7054
 4667TIP3   OH238195   4.939   3.442  11.759 -0.2531  0.1961  0.1438
 4667TIP3    H138196   5.008   3.384  11.728 -1.7216 -1.9936  0.6907
 4667TIP3    H238197   4.863   3.384  11.772 -1.3760  1.9565  2.2388
 4668TIP3   OH238198   1.810   3.951  12.744 -0.0648  0.1605  0.3937
 4668TIP3    H138199   1.759   4.029  12.766 -0.7538  0.0211 -0.6322
 4668TIP3    H238200   1.882   3.951  12.807 -0.9522  0.7356  1.4424
 4669TIP3   OH238201   0.415   4.221   9.994 -0.0311  0.1392 -0.5931
 4669TIP3    H138202   0.371   4.251  10.073  0.3781 -0.4893 -0.1117
 4669TIP3    H238203   0.402   4.291   9.930  0.5396  1.1445  0.3572
 4670TIP3   OH238204   2.879   0.405  12.490 -0.1096  0.0404  0.1552
 4670TIP3    H138205   2.957   0.357  12.519 -0.4435 -0.8293 -0.3490
 4670TIP3    H238206   2.890   0.415  12.395 -0.3629  0.3698  0.1578
 4671TIP3   OH238207   6.190   3.786  10.699  0.1683 -0.0713  0.2757
 4671TIP3    H138208   6.225   3.824  10.779  1.6070 -0.1336 -0.2767
 4671TIP3    H238209   6.113   3.838  10.679 -0.7822 -0.6663  2.1926
 4672TIP3   OH238210   3.468   3.205  12.272 -0.6580  0.3449  0.0370
 4672TIP3    H138211   3.428   3.228  12.356  0.8203  0.7116  0.6733
 4672TIP3    H238212   3.409   3.242  12.206 -1.3234  0.9180  0.9244
 4673TIP3   OH238213   3.491   5.767  12.490  0.3967  0.5670 -0.4790
 4673TIP3    H138214   3.428   5.697  12.470  1.3856 -1.2276  2.1474
 4673TIP3    H238215   3.443   5.826  12.548  0.4411  0.4625 -0.3365
 4674TIP3   OH238216   2.443   4.058  10.759  0.2522  0.1118  0.1808
 4674TIP3    H138217   2.521   4.007  10.736  1.0553  1.3907 -0.0317
 4674TIP3    H238218   2.374   4.025  10.701  0.2392 -1.9909  1.3030
 4675TIP3   OH238219   0.453   1.338  11.689 -0.0090  0.2347  0.2261
 4675TIP3    H138220   0.546   1.342  11.667  0.0680  0.5563  0.6099
 4675TIP3    H238221   0.413   1.293  11.614  0.5372 -0.4626  0.3460
 4676TIP3   OH238222   1.337   4.354  11.602  0.2709 -0.4105  0.2868
 4676TIP3    H138223   1.374   4.285  11.547 -1.0934 -1.2500  0.3781
 4676TIP3    H238224   1.403   4.423  11.601  1.0131 -1.1009 -1.0198
 4677TIP3   OH238225   2.550   1.561  11.233  0.1615 -0.6019  0.6805
 4677TIP3    H138226   2.630   1.605  11.261 -1.0184  1.8128  0.5036
 4677TIP3    H238227   2.484   1.589  11.297 -0.9672 -0.8725 -0.3325
 4678TIP3   OH238228   6.434   5.023  12.586 -0.3668 -0.0792  0.2249
 4678TIP3    H138229   6.437   5.032  12.490 -0.4615  0.1829  0.2457
 4678TIP3    H238230   6.404   5.108  12.617  0.9626  0.2803  0.5859
 4679TIP3   OH238231   6.177   2.935  12.638 -0.0036  0.3594  0.6108
 4679TIP3    H138232   6.243   2.900  12.697  0.4260  0.8047  0.3987
 4679TIP3    H238233   6.216   3.014  12.602 -0.1507 -0.0492 -0.4859
 4680TIP3   OH238234   4.101   0.536  11.286  0.4431 -0.0746  0.4847
 4680TIP3    H138235   4.084   0.630  11.278 -0.1712 -0.1024  1.3380
 4680TIP3    H238236   4.033   0.504  11.344  0.7755 -1.0190  0.3733
 4681TIP3   OH238237   2.182   1.716  10.023  0.1787  0.0564  0.6893
 4681TIP3    H138238   2.150   1.631   9.992  1.6969 -0.9597  1.7552
 4681TIP3    H238239   2.250   1.739   9.960  0.1400  0.2182  0.7075
 4682TIP3   OH238240   2.028   6.421  10.369  0.5204 -0.1748  0.3555
 4682TIP3    H138241   1.967   6.471  10.315 -0.4382  1.1663  2.5177
 4682TIP3    H238242   2.084   6.376  10.307 -2.0721 -0.7436 -1.7636
 4683TIP3   OH238243   2.473   4.934   9.017 -0.0038  0.0349 -0.0490
 4683TIP3    H138244   2.424   4.976   8.947 -0.8913  0.2779  0.6932
 4683TIP3    H238245   2.563   4.932   8.986 -0.7347 -2.3700 -2.4079
 4684TIP3   OH238246   2.162   4.189  11.655 -0.0587 -0.0437 -0.0442
 4684TIP3    H138247   2.231   4.245  11.691 -0.2029 -0.0137  0.1924
 4684TIP3    H238248   2.142   4.226  11.569 -0.9438  0.9618  0.5669
 4685TIP3   OH238249   5.339   5.238  11.053 -0.4373  0.2028 -0.2216
 4685TIP3    H138250   5.313   5.148  11.035 -0.3392  0.0317  0.4595
 4685TIP3    H238251   5.352   5.241  11.148 -0.6379  0.9829 -0.2076
 4686TIP3   OH238252   6.175   2.506  12.184 -0.5673 -0.7852 -0.1554
 4686TIP3    H138253   6.270   2.500  12.177 -0.6076 -1.8845 -0.0190
 4686TIP3    H238254   6.150   2.577  12.125  0.4366  0.3608  0.7538
 4687TIP3   OH238255   1.318   1.413  10.245  0.2014  0.1402  0.2901
 4687TIP3    H138256   1.332   1.407  10.340 -0.1702  1.2684  0.4314
 4687TIP3    H238257   1.407   1.421  10.209  0.3624 -0.5886  0.5113
 4688TIP3   OH238258   4.232   3.740  12.217  0.4515  0.8292  0.6222
 4688TIP3    H138259   4.253   3.802  12.287  0.8292  1.9684 -0.4531
 4688TIP3    H238260   4.296   3.760  12.148  0.1076 -0.2797 -0.0360
 4689TIP3   OH238261   1.603   0.825  12.353  0.9429  0.3567 -0.2674
 4689TIP3    H138262   1.628   0.844  12.443 -1.4099  1.1577  0.2825
 4689TIP3    H238263   1.640   0.898  12.302  0.1657  1.2531  0.4301
 4690TIP3   OH238264   0.106   6.467  11.903 -0.5012 -0.2472  0.0545
 4690TIP3    H138265   0.181   6.490  11.957 -1.4490  0.3255  1.1829
 4690TIP3    H238266   0.098   6.372  11.913  0.2923 -0.3610 -0.3784
 4691TIP3   OH238267   5.348   0.559  12.599 -0.5433  0.3483 -0.3067
 4691TIP3    H138268   5.442   0.560  12.618 -0.9259  0.6061  1.7440
 4691TIP3    H238269   5.336   0.482  12.543  0.6865 -0.5278  0.5909
 4692TIP3   OH238270   1.110   2.505  11.191 -0.2551 -0.3752  0.0026
 4692TIP3    H138271   1.104   2.516  11.285 -0.4204 -2.1452  0.2281
 4692TIP3    H238272   1.030   2.546  11.157 -0.5621 -0.3854  0.6998
 4693TIP3   OH238273   0.488   4.083  11.767 -0.5272  0.5281 -0.1137
 4693TIP3    H138274   0.448   4.073  11.853 -0.9389 -3.4988 -0.5632
 4693TIP3    H238275   0.427   4.041  11.706  1.2995  0.1433 -1.8140
 4694TIP3   OH238276   0.313   6.793  10.864 -0.0602  0.2446 -0.1038
 4694TIP3    H138277   0.382   6.747  10.912  0.5148  0.2177 -0.9391
 4694TIP3    H238278   0.353   6.874  10.834 -0.0682 -0.2155 -1.4416
 4695TIP3   OH238279   4.070   1.841  11.352 -0.3524  0.4037  0.2664
 4695TIP3    H138280   4.029   1.755  11.342 -2.4549  1.2921  0.7716
 4695TIP3    H238281   4.164   1.822  11.356 -0.7531 -1.8632  0.3676
 4696TIP3   OH238282   5.982   3.465  12.316  0.5119  0.2637  0.1834
 4696TIP3    H138283   5.893   3.437  12.297  0.7078 -0.3782  0.1517
 4696TIP3    H238284   6.027   3.461  12.231  1.1953 -1.8691  0.5588
 4697TIP3   OH238285   0.294   4.281  11.886 -0.6260 -0.1623 -0.1084
 4697TIP3    H138286   0.282   4.250  11.797 -0.9400 -0.3708  0.0077
 4697TIP3    H238287   0.206   4.303  11.916 -0.3849  1.2018 -0.3179
 4698TIP3   OH238288   4.083   0.769  13.121 -0.2045 -0.5182  0.2210
 4698TIP3    H138289   4.073   0.705  13.051  0.3293  1.5868 -1.9232
 4698TIP3    H238290   3.995   0.804  13.135 -0.0224  0.4310 -0.8526
 4699TIP3   OH238291   3.925   4.637  10.634  0.8839  0.2798 -0.1906
 4699TIP3    H138292   3.942   4.690  10.556  0.0530  0.5429 -0.1999
 4699TIP3    H238293   3.944   4.547  10.606  2.3183  0.5500 -0.1721
 4700TIP3   OH238294   4.058   2.719  10.972 -0.6051  0.0796  0.3427
 4700TIP3    H138295   4.060   2.772  10.893  1.8266  0.0036  0.2926
 4700TIP3    H238296   4.106   2.639  10.949  0.1496  0.0560  1.8793
 4701TIP3   OH238297   6.103   5.157  12.499  0.2605 -0.1754  0.2360
 4701TIP3    H138298   6.089   5.250  12.480 -0.0007 -0.4004 -0.7402
 4701TIP3    H238299   6.118   5.117  12.414  0.0695 -1.0816  0.6125
 4702TIP3   OH238300   3.189   4.478   9.831 -0.7820  0.5168 -0.2588
 4702TIP3    H138301   3.216   4.553   9.883 -0.9847 -0.3200  1.1293
 4702TIP3    H238302   3.259   4.414   9.844 -0.9533  0.2076 -0.8386
 4703TIP3   OH238303   0.676   0.553  12.401 -0.0369  0.3619 -0.0157
 4703TIP3    H138304   0.651   0.504  12.323  0.5161 -1.0451  0.6582
 4703TIP3    H238305   0.701   0.486  12.464  2.2663  1.5521  0.4298
 4704TIP3   OH238306   5.668   0.765  10.894  0.3427  0.7105 -0.2440
 4704TIP3    H138307   5.698   0.721  10.973  1.5927 -1.7974 -1.9982
 4704TIP3    H238308   5.581   0.729  10.878  0.9031 -0.3463 -1.0519
 4705TIP3   OH238309   0.205   3.041  10.876 -0.1536 -0.3922 -0.0126
 4705TIP3    H138310   0.209   3.068  10.784 -1.4027 -1.7709 -0.5039
 4705TIP3    H238311   0.187   3.122  10.923 -1.3586  0.0715 -1.1868
 4706TIP3   OH238312   0.747   2.869  12.362  0.2704 -0.2696  0.8196
 4706TIP3    H138313   0.663   2.860  12.316  0.7129  0.1527 -0.0802
 4706TIP3    H238314   0.801   2.797  12.330 -0.0035 -1.0378  2.0131
 4707TIP3   OH238315   6.044   0.228  11.175  0.7343 -0.5709 -0.3149
 4707TIP3    H138316   5.963   0.185  11.148  0.7202 -0.2527 -0.7837
 4707TIP3    H238317   6.043   0.222  11.271  1.5356 -3.0816 -0.3852
 4708TIP3   OH238318   2.351   4.807  11.216 -0.0833 -0.1232  0.8728
 4708TIP3    H138319   2.270   4.761  11.237  0.5878 -0.8293  1.9425
 4708TIP3    H238320   2.396   4.818  11.299  0.5611  0.9964  0.4105
 4709TIP3   OH238321   3.432   6.319  12.411 -0.1303  0.6240  0.2490
 4709TIP3    H138322   3.384   6.249  12.456  0.0082 -0.1852 -0.8179
 4709TIP3    H238323   3.471   6.371  12.482  1.7994 -1.7908  1.1000
 4710TIP3   OH238324   1.020   4.850  12.349 -0.2739 -0.3428  0.1214
 4710TIP3    H138325   0.963   4.926  12.360 -0.6718 -0.5982 -0.1860
 4710TIP3    H238326   1.087   4.879  12.286  0.6126  0.3277  1.3258
 4711TIP3   OH238327   4.581   5.270  11.776  0.2785  0.2874  0.0261
 4711TIP3    H138328   4.556   5.260  11.684  0.5990 -0.7612  0.0304
 4711TIP3    H238329   4.650   5.337  11.775 -0.5782  1.1831 -0.3272
 4712TIP3   OH238330   4.974   0.780  11.890 -0.4239 -0.0356  0.1742
 4712TIP3    H138331   5.056   0.742  11.859 -0.6374 -0.3170 -0.0538
 4712TIP3    H238332   4.999   0.833  11.966  0.1859  1.1240 -0.8058
 4713TIP3   OH238333   4.425   6.062  12.622  0.1193  0.1863 -0.5272
 4713TIP3    H138334   4.429   6.155  12.646 -0.5517 -0.2840  1.5629
 4713TIP3    H238335   4.496   6.022  12.670 -0.3289 -0.5801 -0.4939
 4714TIP3   OH238336   6.425   5.361  13.029  0.5658  0.1792  0.3168
 4714TIP3    H138337   6.355   5.371  13.094 -1.2538 -1.6413 -1.2302
 4714TIP3    H238338   6.417   5.438  12.973  0.5217  0.5303  0.8064
 4715TIP3   OH238339   1.341   4.542  10.183 -0.5083 -0.1915 -0.2241
 4715TIP3    H138340   1.403   4.614  10.192  2.3790 -2.3403 -1.0499
 4715TIP3    H238341   1.289   4.544  10.263 -2.0704  3.9293 -1.0930
 4716TIP3   OH238342   5.378   4.024  12.812 -1.0565 -0.3755  0.0396
 4716TIP3    H138343   5.328   4.099  12.844 -0.6982  0.2073 -0.7297
 4716TIP3    H238344   5.460   4.061  12.781 -0.3990 -1.2404  0.6920
 4717TIP3   OH238345   4.482   5.237  12.248 -0.2531 -0.3325 -0.6033
 4717TIP3    H138346   4.487   5.289  12.168  0.9006  0.0355 -0.3221
 4717TIP3    H238347   4.422   5.284  12.305 -2.2171 -1.3437 -1.7453
 4718TIP3   OH238348   2.387   1.223  12.297 -0.6850  0.0896  0.3386
 4718TIP3    H138349   2.480   1.225  12.275 -0.6039 -0.8316  0.5534
 4718TIP3    H238350   2.380   1.275  12.378 -0.4145  0.4150  0.1572
 4719TIP3   OH238351   2.572   6.360  13.224  0.1021  0.0932  0.2210
 4719TIP3    H138352   2.638   6.373  13.292 -0.6177 -0.7382  1.1022
 4719TIP3    H238353   2.601   6.416  13.152  0.3289  1.8039  1.5760
 4720TIP3   OH238354   4.344   2.324  10.547 -0.5127 -0.1664  0.4285
 4720TIP3    H138355   4.431   2.341  10.584  0.6355 -3.1957 -0.5830
 4720TIP3    H238356   4.296   2.283  10.619  0.1458 -1.7132  0.0385
 4721TIP3   OH238357   5.511   2.941  10.782 -0.4764 -0.9993  0.1790
 4721TIP3    H138358   5.564   3.021  10.793 -1.7185  0.0439 -1.0235
 4721TIP3    H238359   5.444   2.947  10.850 -0.5051 -1.0640  0.1568
 4722TIP3   OH238360   3.544   2.497  11.232 -0.0133 -0.1522 -0.1822
 4722TIP3    H138361   3.607   2.441  11.185  1.1741  1.1198 -0.1990
 4722TIP3    H238362   3.536   2.575  11.176 -0.3603  0.4013  0.6200
 4723TIP3   OH238363   3.866   2.841  11.606 -0.0526  0.1767  0.3433
 4723TIP3    H138364   3.961   2.839  11.594 -0.1607 -1.3751 -0.6307
 4723TIP3    H238365   3.851   2.799  11.691  0.1158 -0.0202  0.2768
 4724TIP3   OH238366   3.709   5.244  10.419 -0.2434 -0.0498  0.4907
 4724TIP3    H138367   3.616   5.241  10.442 -0.9471 -1.5260 -2.2419
 4724TIP3    H238368   3.728   5.337  10.407 -1.1142  0.3260  1.7728
 4725TIP3   OH238369   5.343   1.396  12.539  0.0348  0.0935 -0.1925
 4725TIP3    H138370   5.396   1.416  12.462 -0.7967  1.6384 -0.4017
 4725TIP3    H238371   5.344   1.477  12.590 -0.9706 -0.3046  0.4849
 4726TIP3   OH238372   2.887   3.684  10.577  0.0585  0.2306 -0.3029
 4726TIP3    H138373   2.936   3.766  10.574  0.7555 -0.1895 -0.6681
 4726TIP3    H238374   2.882   3.656  10.486 -0.3149 -0.0557 -0.1951
 4727TIP3   OH238375   3.814   1.692  11.237  0.0715  0.2993 -0.0888
 4727TIP3    H138376   3.846   1.602  11.238  0.0021  0.2392 -1.3564
 4727TIP3    H238377   3.805   1.713  11.144 -0.7349  1.3260  0.2034
 4728TIP3   OH238378   3.090   6.510  12.032  0.8390 -0.3256 -0.4974
 4728TIP3    H138379   3.015   6.546  12.079  1.2362 -2.0660  1.5983
 4728TIP3    H238380   3.051   6.455  11.964  0.2649  1.0239 -1.3063
 4729TIP3   OH238381   6.403   3.619   9.627 -0.8849 -0.0819  0.2942
 4729TIP3    H138382   6.489   3.659   9.619 -1.2581  0.5972 -0.5197
 4729TIP3    H238383   6.412   3.554   9.697 -0.3140  1.6058  1.8703
 4730TIP3   OH238384   5.021   3.459  10.731 -0.6580  0.0532 -0.0157
 4730TIP3    H138385   5.051   3.400  10.662 -0.0849  0.2045  0.1019
 4730TIP3    H238386   5.028   3.546  10.692 -1.5288  0.0505 -0.1999
 4731TIP3   OH238387   1.404   3.418  10.989  0.1319  0.2375  0.7280
 4731TIP3    H138388   1.399   3.377  11.075 -1.7603 -0.9745  0.0983
 4731TIP3    H238389   1.317   3.457  10.976  0.3645  0.3555 -0.6567
 4732TIP3   OH238390   5.751   1.335  10.499 -0.0462 -0.6510 -0.8503
 4732TIP3    H138391   5.732   1.246  10.469 -2.3330  0.3430 -2.6487
 4732TIP3    H238392   5.795   1.376  10.425  3.1247 -0.8343  0.7795
 4733TIP3   OH238393   2.098   4.971  12.288 -0.0460 -0.3478  0.3275
 4733TIP3    H138394   2.096   4.876  12.297  0.7009 -0.4145 -0.1013
 4733TIP3    H238395   2.189   4.996  12.305  0.1749  0.0848 -1.2343
 4734TIP3   OH238396   2.469   2.496  11.760 -0.0888 -0.3831 -0.5431
 4734TIP3    H138397   2.542   2.517  11.819 -0.6006  0.2651 -0.1296
 4734TIP3    H238398   2.407   2.568  11.772 -0.3729 -0.4455 -1.5970
 4735TIP3   OH238399   6.312   5.104  11.182  0.9317 -0.0062 -0.6821
 4735TIP3    H138400   6.257   5.123  11.258  0.7562  0.8739 -1.0136
 4735TIP3    H238401   6.271   5.029  11.140 -1.7327  2.2350 -2.4707
 4736TIP3   OH238402   3.840   3.567  12.406  0.8144 -0.5436 -0.3326
 4736TIP3    H138403   3.884   3.506  12.464  1.1398 -0.3612 -0.3829
 4736TIP3    H238404   3.911   3.613  12.361  0.5993  0.3793  0.2308
 4737TIP3   OH238405   3.417   0.206  12.966 -0.3422  0.3413 -0.3088
 4737TIP3    H138406   3.489   0.150  12.937  0.7634  1.5090  0.0525
 4737TIP3    H238407   3.454   0.256  13.040 -2.7118 -1.7792  2.5391
 4738TIP3   OH238408   6.306   4.337  12.730 -0.4477 -0.3528  0.2138
 4738TIP3    H138409   6.301   4.257  12.678  1.1656 -0.2963 -0.0789
 4738TIP3    H238410   6.388   4.329  12.778  0.6713  1.8835 -1.1473
 4739TIP3   OH238411   5.610   0.774  12.636  0.0213 -0.2333  0.6867
 4739TIP3    H138412   5.639   0.723  12.560 -2.9056 -0.1215 -0.6080
 4739TIP3    H238413   5.587   0.860  12.599 -0.6370  0.1013  1.8565
 4740TIP3   OH238414   5.283   6.321  11.149 -0.0931 -0.3260  0.4805
 4740TIP3    H138415   5.202   6.370  11.140 -0.1113 -0.4845 -0.3475
 4740TIP3    H238416   5.350   6.377  11.109 -0.2852 -1.3627 -1.4101
 4741TIP3   OH238417   2.645   0.997  11.038  0.4661  0.2811  0.4949
 4741TIP3    H138418   2.609   0.913  11.066  0.8245 -0.0639 -0.0546
 4741TIP3    H238419   2.570   1.045  11.005  0.4814 -0.4281 -0.6327
 4742TIP3   OH238420   5.992   2.510  12.769  0.2029  0.3100 -0.3951
 4742TIP3    H138421   5.975   2.430  12.719  0.0150 -0.6945  1.1786
 4742TIP3    H238422   5.905   2.546  12.787  0.2482  0.4690 -0.4978
 4743TIP3   OH238423   0.758   0.362  12.568  0.0690 -0.6566 -0.2333
 4743TIP3    H138424   0.714   0.400  12.644 -1.4519 -0.0208 -1.3601
 4743TIP3    H238425   0.833   0.315  12.603  0.9513  1.7950  1.4348
 4744TIP3   OH238426   2.608   3.104  12.700  0.1534  0.9022  0.0666
 4744TIP3    H138427   2.669   3.176  12.717 -1.8210  2.1542  2.5019
 4744TIP3    H238428   2.540   3.143  12.645  0.6675 -0.0572 -1.3115
 4745TIP3   OH238429   4.062   6.760  12.038  0.0671  1.0006  0.1385
 4745TIP3    H138430   4.063   6.745  11.943  2.6091 -1.5646  0.4358
 4745TIP3    H238431   3.988   6.708  12.069  0.3721  0.2913 -0.2846
 4746TIP3   OH238432   6.065   0.042  12.055  0.3688  0.0575  0.6190
 4746TIP3    H138433   6.067   0.088  12.139  1.2271 -1.3480  1.4008
 4746TIP3    H238434   6.086   0.109  11.990 -3.0183  1.8149  1.1482
 4747TIP3   OH238435   5.341   2.446  12.818  0.1076  0.0095 -0.1772
 4747TIP3    H138436   5.419   2.465  12.767  0.6805  1.5002  1.1716
 4747TIP3    H238437   5.351   2.355  12.844  0.9272 -0.0873 -0.7963
 4748TIP3   OH238438   1.965   0.780  12.732 -0.3227 -0.8011 -0.1386
 4748TIP3    H138439   2.042   0.797  12.677 -0.3880  0.8827  0.2384
 4748TIP3    H238440   2.001   0.745  12.814 -0.0428 -0.9321 -0.3136
 4749TIP3   OH238441   0.704   5.480  10.798  0.3154  0.1976  0.2184
 4749TIP3    H138442   0.679   5.395  10.762 -0.2322  0.3509  0.2320
 4749TIP3    H238443   0.709   5.466  10.893 -4.2436  1.1689  0.8691
 4750TIP3   OH238444   4.581   2.536  12.009  0.7042 -0.4130 -0.3560
 4750TIP3    H138445   4.656   2.478  12.024  0.9634  0.3724  1.7293
 4750TIP3    H238446   4.583   2.598  12.082 -1.8021 -0.1679 -0.3858
 4751TIP3   OH238447   2.951   0.292  11.412  0.2921  0.4141  0.0963
 4751TIP3    H138448   3.005   0.357  11.456  0.2641 -0.0111  0.7741
 4751TIP3    H238449   2.916   0.238  11.483  0.3357 -0.3542 -0.4557
 4752TIP3   OH238450   2.383   4.989  13.008 -0.0283  0.3986  0.0768
 4752TIP3    H138451   2.300   5.033  13.024 -0.2724 -0.5750  1.6479
 4752TIP3    H238452   2.363   4.896  13.019  0.9226  0.0150 -1.1853
 4753TIP3   OH238453   5.031   1.694  12.156  0.4860 -0.0558 -0.3920
 4753TIP3    H138454   4.987   1.611  12.139 -0.4963  0.0148  1.5377
 4753TIP3    H238455   5.077   1.714  12.075 -2.1606 -0.6946 -2.1942
 4754TIP3   OH238456   3.732   0.782  10.167  0.1551 -0.1393 -0.2633
 4754TIP3    H138457   3.817   0.808  10.203 -0.3239 -0.5564  1.2319
 4754TIP3    H238458   3.677   0.860  10.179  0.1065 -0.1379 -0.4968
 4755TIP3   OH238459   0.144   2.437  11.777 -0.5654  0.1849 -0.5566
 4755TIP3    H138460   0.236   2.411  11.772 -0.9377 -1.2240 -0.4996
 4755TIP3    H238461   0.135   2.507  11.713  0.4616  0.0654 -0.8470
 4756TIP3   OH238462   1.682   2.808  12.644 -0.0428  0.0868 -0.1110
 4756TIP3    H138463   1.661   2.895  12.677  2.8262 -0.1849  2.8887
 4756TIP3    H238464   1.777   2.804  12.644 -0.0713 -2.9708 -0.4354
 4757TIP3   OH238465   0.521   3.918  11.332  0.4217  0.2865  0.1436
 4757TIP3    H138466   0.533   3.920  11.237 -0.0413  2.7042  0.0723
 4757TIP3    H238467   0.609   3.902  11.367  0.5809 -0.7344 -0.6776
 4758TIP3   OH238468   1.401   0.648  12.347 -0.3395 -0.5873  0.0922
 4758TIP3    H138469   1.351   0.663  12.428 -0.0505  1.4279 -0.0405
 4758TIP3    H238470   1.468   0.716  12.348 -1.6473  0.9386 -2.8662
 4759TIP3   OH238471   3.603   5.226  13.039 -0.3210  0.1222  0.0965
 4759TIP3    H138472   3.627   5.284  13.112  0.8927 -1.3176  0.8692
 4759TIP3    H238473   3.535   5.170  13.075 -1.4420  0.9549 -0.6347
 4760TIP3   OH238474   6.791   4.872  11.854  0.0189  0.2891  0.1394
 4760TIP3    H138475   6.720   4.864  11.918  1.4347  0.2750  1.8086
 4760TIP3    H238476   6.783   4.795  11.799 -0.5041 -0.3795  1.1185
 4761TIP3   OH238477   0.692   2.491  12.325 -1.4355 -0.1419  0.0836
 4761TIP3    H138478   0.674   2.398  12.311 -0.3348 -0.4032  0.2852
 4761TIP3    H238479   0.771   2.492  12.380 -2.0240  0.9052  0.9622
 4762TIP3   OH238480   6.539   2.102  11.915 -0.0586  0.0196  0.0713
 4762TIP3    H138481   6.560   2.102  12.009 -1.4932  3.3608  0.5218
 4762TIP3    H238482   6.618   2.136  11.873  0.7721 -1.9587 -0.0614
 4763TIP3   OH238483   3.389   3.799  10.199  0.1708  0.0472  0.7654
 4763TIP3    H138484   3.326   3.731  10.176  0.1649  0.2966  0.0223
 4763TIP3    H238485   3.366   3.823  10.289 -0.4900 -0.2070  0.6733
 4764TIP3   OH238486   1.723   0.939  12.830  0.5979  0.1476  0.3541
 4764TIP3    H138487   1.672   0.898  12.900 -0.1411 -0.3088 -0.4330
 4764TIP3    H238488   1.802   0.884  12.824  0.1712 -0.4552  0.1224
 4765TIP3   OH238489   5.486   0.112  11.367  0.3294  0.0830  0.3376
 4765TIP3    H138490   5.576   0.085  11.382  0.0590 -0.1375  1.6729
 4765TIP3    H238491   5.454   0.052  11.300  1.1729  0.1977 -0.1909
 4766TIP3   OH238492   2.096   0.934  12.219 -0.5589  0.5316  0.7521
 4766TIP3    H138493   2.111   1.010  12.274  1.3341 -0.0232  1.0648
 4766TIP3    H238494   2.164   0.937  12.152  0.7526 -1.8221  1.8606
 4767TIP3   OH238495   0.450   6.332  10.734  0.6462 -0.0836 -0.5075
 4767TIP3    H138496   0.355   6.339  10.741  0.7494  0.6386  0.4351
 4767TIP3    H238497   0.465   6.289  10.650 -0.5466 -1.1531 -0.2164
 4768TIP3   OH238498   1.543   1.637  10.372  0.4698  0.3133  0.8621
 4768TIP3    H138499   1.465   1.582  10.386  0.4891  0.0762  0.0520
 4768TIP3    H238500   1.581   1.646  10.460  0.6142 -1.1983  0.9871
 4769TIP3   OH238501   3.745   3.602   9.454 -0.7041  0.3903  0.3079
 4769TIP3    H138502   3.683   3.672   9.436  2.5005  3.4472  0.1117
 4769TIP3    H238503   3.777   3.575   9.368 -0.4619  0.1557  0.4692
 4770TIP3   OH238504   2.973   6.106  13.274 -0.7553  1.1787 -0.6790
 4770TIP3    H138505   2.910   6.117  13.203 -2.3178  0.2167  0.4957
 4770TIP3    H238506   3.041   6.171  13.257 -0.5614  0.3661 -3.5775
 4771TIP3   OH238507   1.666   0.812  10.338 -0.2169 -0.5015 -0.5743
 4771TIP3    H138508   1.663   0.898  10.380 -1.4644 -0.2273 -1.1994
 4771TIP3    H238509   1.740   0.768  10.381  0.7465  1.0398 -0.5751
 4772TIP3   OH238510   5.108   2.902  11.914  0.4379  0.1307 -1.0239
 4772TIP3    H138511   5.168   2.836  11.949  0.0631  0.6634  0.7786
 4772TIP3    H238512   5.135   2.983  11.958 -0.3254  0.7795 -1.7276
 4773TIP3   OH238513   2.426   5.638  12.578  0.1206  0.6516 -0.2299
 4773TIP3    H138514   2.403   5.652  12.670  0.3855 -1.8842  0.3043
 4773TIP3    H238515   2.414   5.723  12.537 -0.8543  1.6584  1.9711
 4774TIP3   OH238516   1.658   1.270  10.296  0.0701 -0.1812 -0.6901
 4774TIP3    H138517   1.751   1.251  10.281  0.9301  3.0431 -0.1156
 4774TIP3    H238518   1.651   1.280  10.391 -0.9178 -0.5190 -0.7153
 4775TIP3   OH238519   1.423   0.783  10.469  0.0602 -0.0728 -0.1145
 4775TIP3    H138520   1.455   0.706  10.422 -0.7923  0.5071 -1.7292
 4775TIP3    H238521   1.484   0.853  10.446 -0.1826  0.1468 -0.0978
 4776TIP3   OH238522   0.375   2.307  12.040  0.1994 -0.4415 -0.2973
 4776TIP3    H138523   0.394   2.227  12.088 -0.7625 -2.4031 -2.9165
 4776TIP3    H238524   0.288   2.334  12.069 -0.1912 -1.3565 -0.5814
 4777TIP3   OH238525   0.730   3.124  12.173  0.1081  0.5471  0.0085
 4777TIP3    H138526   0.643   3.144  12.207 -0.2215 -1.5403  0.5798
 4777TIP3    H238527   0.767   3.063  12.237  2.3460  2.0212  0.1936
 4778TIP3   OH238528   3.045   2.168  11.058  0.1054 -0.8522  0.0444
 4778TIP3    H138529   3.114   2.233  11.044  0.6092 -0.4596  3.4933
 4778TIP3    H238530   3.004   2.194  11.141 -2.5800 -2.5040 -0.6375
 4779TIP3   OH238531   4.724   0.401  11.713 -0.2805  0.1958 -0.2109
 4779TIP3    H138532   4.810   0.408  11.753 -0.7452  0.1985  0.8219
 4779TIP3    H238533   4.700   0.491  11.690  1.1667 -0.0635 -3.1509
 4780TIP3   OH238534   0.987   4.473  12.410  0.4451  0.2673  0.1123
 4780TIP3    H138535   0.950   4.555  12.442  2.2746  1.6793 -1.1719
 4780TIP3    H238536   0.920   4.438  12.351 -0.5345  0.5632  1.0053
 4781TIP3   OH238537   1.337   3.633  10.669  0.2955 -0.3887 -0.0638
 4781TIP3    H138538   1.374   3.703  10.616 -0.8406 -1.1889 -1.9918
 4781TIP3    H238539   1.412   3.577  10.690  0.8248  0.1339 -0.5193
 4782TIP3   OH238540   1.308   4.788  12.422  0.7459  0.0598 -0.3785
 4782TIP3    H138541   1.282   4.853  12.358  0.7770  0.6378  0.1874
 4782TIP3    H238542   1.266   4.816  12.503  1.7870  0.0927  0.1684
 4783TIP3   OH238543   3.331   2.927  12.638 -0.5521  0.0703 -0.1656
 4783TIP3    H138544   3.292   2.933  12.725 -1.9084 -3.4186 -0.3624
 4783TIP3    H238545   3.258   2.937  12.577  0.0801  0.5949 -0.8677
 4784TIP3   OH238546   4.624   3.089  10.841  0.1383  0.1299  0.0070
 4784TIP3    H138547   4.641   3.139  10.761 -0.8648  1.0424  0.3495
 4784TIP3    H238548   4.577   3.149  10.898  0.6495 -0.5735  1.2217
 4785TIP3   OH238549   1.940   3.138  11.672 -0.2513 -0.2083  0.1398
 4785TIP3    H138550   1.976   3.184  11.748  2.2759 -1.2199 -0.3445
 4785TIP3    H238551   1.908   3.208  11.615  0.5135  0.7466  0.8499
 4786TIP3   OH238552   4.430   1.766  12.356  0.6569  0.5211 -0.4978
 4786TIP3    H138553   4.461   1.825  12.425 -0.7478 -0.1449  0.7885
 4786TIP3    H238554   4.442   1.678  12.392  2.3783 -0.0157 -2.2342
 4787TIP3   OH238555   6.246   0.892  11.760  0.4454 -0.1569 -0.5321
 4787TIP3    H138556   6.158   0.922  11.782  1.2613  3.6423 -1.7420
 4787TIP3    H238557   6.294   0.897  11.843 -0.0752 -0.7418 -0.1868
 4788TIP3   OH238558   3.415   1.174  10.469  0.2057  0.2675 -0.3297
 4788TIP3    H138559   3.476   1.243  10.444 -0.5164  0.5213 -1.4684
 4788TIP3    H238560   3.393   1.193  10.560 -0.3728  1.8534 -0.7710
 4789TIP3   OH238561   3.133   5.803  11.067  0.0482 -0.1799  0.0261
 4789TIP3    H138562   3.095   5.884  11.100 -1.6525 -0.1988 -1.6762
 4789TIP3    H238563   3.207   5.785  11.125 -0.1246  2.0455  1.0332
 4790TIP3   OH238564   3.549   1.502  10.598 -0.5465  0.5133  0.5918
 4790TIP3    H138565   3.583   1.440  10.534  0.1055  0.7037  0.7401
 4790TIP3    H238566   3.481   1.550  10.551 -3.2008 -2.2392  1.2939
 4791TIP3   OH238567   0.451   2.526  12.470  0.7520 -0.0741 -0.0375
 4791TIP3    H138568   0.476   2.510  12.561 -0.3565  3.9048  1.1612
 4791TIP3    H238569   0.534   2.538  12.424  1.3008 -1.1717  0.6460
 4792TIP3   OH238570   1.502   1.188  12.248 -0.0312  0.1641 -0.1864
 4792TIP3    H138571   1.526   1.219  12.335 -0.8320 -1.1303  0.5203
 4792TIP3    H238572   1.577   1.135  12.220  0.4781  1.0477 -0.5617
 4793TIP3   OH238573   4.164   0.245  10.951 -0.3069  0.0385 -0.3017
 4793TIP3    H138574   4.139   0.176  11.012 -0.8325  1.0714  0.6758
 4793TIP3    H238575   4.172   0.200  10.867 -0.3609 -1.2606  0.3625
 4794TIP3   OH238576   3.746   2.580  11.419  0.1118  0.2762 -0.1888
 4794TIP3    H138577   3.777   2.666  11.447 -0.0339 -0.0636  1.1198
 4794TIP3    H238578   3.706   2.595  11.334  2.9225  0.9255 -1.5161
 4795TIP3   OH238579   5.579   0.852  12.016 -0.5075 -0.4322  0.4373
 4795TIP3    H138580   5.659   0.801  12.020  0.3129  0.5688 -1.5257
 4795TIP3    H238581   5.595   0.928  12.073 -1.0460 -1.4052  1.9466
 4796TIP3   OH238582   3.446   3.377  10.718  0.2247  0.2413  0.1688
 4796TIP3    H138583   3.360   3.408  10.692 -0.2645 -1.3657 -0.2574
 4796TIP3    H238584   3.458   3.295  10.669  1.8217  0.2203  0.5229
 4797TIP3   OH238585   4.316   1.675  11.364  0.1909  0.1388 -0.0019
 4797TIP3    H138586   4.386   1.614  11.387  0.3566  0.5103  0.4933
 4797TIP3    H238587   4.352   1.762  11.383  0.2450  0.4590 -1.4247
 4798TIP3   OH238588   3.753   0.219  10.632  0.2716 -0.0285  0.0513
 4798TIP3    H138589   3.796   0.303  10.618 -0.3633  0.2905  0.0312
 4798TIP3    H238590   3.762   0.173  10.549 -0.0392  0.3115 -0.1676
 4799TIP3   OH238591   6.493   1.643  12.025  0.1525 -0.1156  0.2404
 4799TIP3    H138592   6.580   1.677  12.044  0.9208 -1.8603  0.0626
 4799TIP3    H238593   6.464   1.605  12.108  1.0519 -2.5460 -0.4589
 4800TIP3   OH238594   6.029   3.469  12.600 -0.9506 -0.5084  0.4340
 4800TIP3    H138595   5.944   3.466  12.643 -1.0981  3.5620  0.8504
 4800TIP3    H238596   6.009   3.481  12.507 -0.7948 -0.7045  0.3729
 4801TIP3   OH238597   2.571   0.401  10.475  0.5645  0.3113  0.9009
 4801TIP3    H138598   2.612   0.451  10.405  0.5904  0.1239  0.7796
 4801TIP3    H238599   2.622   0.422  10.553 -0.1422  1.3691  1.0853
 4802TIP3   OH238600   3.993   6.488  12.994 -0.2086 -0.2676 -0.3505
 4802TIP3    H138601   4.050   6.417  13.023 -0.2488  0.4384  1.6090
 4802TIP3    H238602   3.931   6.446  12.935  0.1997 -1.7328  0.2129
 4803TIP3   OH238603   4.361   5.132  12.866 -0.0170  0.0487 -0.4750
 4803TIP3    H138604   4.402   5.170  12.788  3.6024 -1.1945  0.6113
 4803TIP3    H238605   4.310   5.058  12.834  3.0934 -1.7638 -1.6997
 4804TIP3   OH238606   6.197   5.042  10.786 -0.1537 -0.0813  0.2544
 4804TIP3    H138607   6.228   5.069  10.700 -3.2721 -1.0745 -1.3103
 4804TIP3    H238608   6.227   5.112  10.845 -0.4207  2.1904 -2.1076
 4805TIP3   OH238609   2.835   5.012  13.133  0.1672  0.8896 -0.1765
 4805TIP3    H138610   2.885   5.057  13.065 -0.1857  1.1323 -0.2797
 4805TIP3    H238611   2.769   4.962  13.086  0.2419  0.6562 -0.0365
 4806TIP3   OH238612   2.477   1.557  10.953  0.6783  0.5249  0.1020
 4806TIP3    H138613   2.412   1.507  11.003  1.2587 -2.2846 -1.7588
 4806TIP3    H238614   2.539   1.588  11.019 -0.9412  0.8037  1.5696
 4807TIP3   OH238615   5.304   5.662  12.197 -0.1510  0.3662  0.0300
 4807TIP3    H138616   5.277   5.648  12.287  0.0129 -1.9015 -0.2140
 4807TIP3    H238617   5.222   5.665  12.147 -0.2155  0.8535  0.1670
 4808TIP3   OH238618   6.586   5.616  12.667  0.0014  0.1409 -0.1424
 4808TIP3    H138619   6.641   5.561  12.611  0.9269 -0.1894  1.0496
 4808TIP3    H238620   6.546   5.554  12.729 -2.9123  0.1437 -1.8235
 4809TIP3   OH238621   6.299   6.691  12.425 -0.5751 -0.2151 -0.0265
 4809TIP3    H138622   6.265   6.646  12.347 -0.0796 -0.2593 -0.2261
 4809TIP3    H238623   6.394   6.685  12.415 -0.4955  1.1795 -0.2266
 4810TIP3   OH238624   3.175   0.222  13.247  0.0175 -0.0537 -0.2488
 4810TIP3    H138625   3.088   0.180  13.248 -0.6621  1.3228  1.0098
 4810TIP3    H238626   3.160   0.307  13.205  0.7049  0.3140  0.2399
 4811TIP3   OH238627   4.326   0.118  10.197  0.6204  0.3120  0.0703
 4811TIP3    H138628   4.323   0.145  10.105 -0.3244  1.8016  0.5071
 4811TIP3    H238629   4.242   0.075  10.213  1.1742 -0.8570  0.0167
 4812TIP3   OH238630   1.344   2.196  13.066  0.2739  0.1434  0.3614
 4812TIP3    H138631   1.383   2.109  13.081 -1.9721 -1.2568 -1.2212
 4812TIP3    H238632   1.419   2.256  13.067  2.1589 -2.0195 -0.0733
 4813TIP3   OH238633   3.201   3.490  10.729  0.3351 -0.0132  0.1229
 4813TIP3    H138634   3.230   3.539  10.807 -0.5239  1.6666 -0.5712
 4813TIP3    H238635   3.107   3.481  10.739  0.2923 -0.2919 -0.4639
 4814TIP3   OH238636   2.807   2.872  12.849 -0.6507  0.0512  0.1582
 4814TIP3    H138637   2.780   2.884  12.758  1.0689 -0.5418 -0.4626
 4814TIP3    H238638   2.799   2.777  12.865  0.4191 -0.0486  0.1555
 4815TIP3   OH238639   1.278   5.306  10.508  0.0874 -0.3714 -0.2813
 4815TIP3    H138640   1.189   5.304  10.473  0.0661 -0.1636 -0.2355
 4815TIP3    H238641   1.269   5.276  10.599  0.1972 -1.3128 -0.5702
 4816TIP3   OH238642   0.067   3.023  11.828  0.0628  0.3064 -0.1587
 4816TIP3    H138643   0.138   3.074  11.866 -0.0361  2.1197 -2.1561
 4816TIP3    H238644   0.097   3.004  11.739 -0.6361 -1.7358 -0.0068
 4817TIP3   OH238645   5.815   5.951  12.978  0.6069  0.0819 -0.2053
 4817TIP3    H138646   5.900   5.990  12.962  0.3035  0.1831 -1.7811
 4817TIP3    H238647   5.807   5.883  12.911 -0.5595  0.1095 -0.1194
 4818TIP3   OH238648   1.624   0.374  12.830 -0.2153  0.3402 -0.2743
 4818TIP3    H138649   1.705   0.399  12.785  0.2216 -1.7048 -0.7419
 4818TIP3    H238650   1.586   0.457  12.858  1.9579  1.3758 -0.1605
 4819TIP3   OH238651   3.948   0.204  11.983  0.0690  0.5247  0.0441
 4819TIP3    H138652   4.018   0.138  11.979 -0.8724 -0.4644 -2.1718
 4819TIP3    H238653   3.867   0.154  11.980 -0.6818  1.7109 -1.4118
 4820TIP3   OH238654   3.110   5.511   9.819 -0.2141  0.1534  0.3774
 4820TIP3    H138655   3.031   5.523   9.871 -0.2633  2.9500 -0.1524
 4820TIP3    H238656   3.136   5.420   9.833 -1.5279  0.1468  3.3624
 4821TIP3   OH238657   1.176   2.068  12.713  0.0868  0.2767  0.6174
 4821TIP3    H138658   1.189   1.985  12.667 -1.1223  1.0859 -1.2958
 4821TIP3    H238659   1.147   2.043  12.801 -0.2419 -1.3193  0.0832
 4822TIP3   OH238660   5.851   3.822  12.256  1.0708  0.3349 -0.5286
 4822TIP3    H138661   5.856   3.812  12.351  0.8516  1.1451 -0.4286
 4822TIP3    H238662   5.938   3.797  12.225  0.1633 -3.4402 -0.4784
 4823TIP3   OH238663   3.856   4.310  12.265 -0.1105 -0.1805  0.0698
 4823TIP3    H138664   3.850   4.222  12.303 -1.2396  0.8565  2.4810
 4823TIP3    H238665   3.766   4.331  12.239 -0.6497  1.6605  3.0608
 4824TIP3   OH238666   2.999   0.372  11.695  0.2558 -0.2055 -0.1474
 4824TIP3    H138667   2.925   0.402  11.747  1.7878  0.1113  2.0089
 4824TIP3    H238668   2.978   0.281  11.672  0.1317 -0.9009  2.4005
 4825TIP3   OH238669   6.426   6.281  10.933  0.2196  0.2096 -0.1778
 4825TIP3    H138670   6.409   6.266  10.840  1.5821 -1.1453 -0.2342
 4825TIP3    H238671   6.372   6.357  10.955 -0.8464 -0.0215 -1.8395
 4826TIP3   OH238672   0.704   1.778  10.728 -0.0603  0.3433  0.5338
 4826TIP3    H138673   0.627   1.743  10.772 -0.6524  2.1944  1.0325
 4826TIP3    H238674   0.669   1.835  10.659  0.8670 -1.1536 -1.2768
 4827TIP3   OH238675   4.399   5.260  11.023  0.2882  0.2835 -0.2751
 4827TIP3    H138676   4.339   5.299  10.960  0.9548  0.5504 -0.7596
 4827TIP3    H238677   4.460   5.331  11.045 -0.5989  0.5414  1.5443
 4828TIP3   OH238678   3.978   6.596  11.508 -0.1847  0.1154 -0.9434
 4828TIP3    H138679   3.952   6.657  11.439  1.5789  0.4197 -1.3846
 4828TIP3    H238680   4.073   6.586  11.497 -0.0719 -0.8706  0.6127
 4829TIP3   OH238681   6.406   2.576  12.520 -0.5864  0.2295  0.5762
 4829TIP3    H138682   6.475   2.553  12.459  0.7028  0.4836  1.8940
 4829TIP3    H238683   6.392   2.670  12.507 -0.6228  0.1998  0.3917
 4830TIP3   OH238684   6.815   2.201  13.006  0.1881  0.1899  0.1669
 4830TIP3    H138685   6.778   2.137  13.066 -0.3952  0.3564  0.0033
 4830TIP3    H238686   6.908   2.181  13.002  0.1035 -0.2902  0.5466
 4831TIP3   OH238687   2.411   5.818   9.566 -0.0267 -0.3000  0.0532
 4831TIP3    H138688   2.451   5.899   9.599 -0.2653 -0.1837  0.0630
 4831TIP3    H238689   2.471   5.787   9.499  0.5441 -0.6256  0.7049
 4832TIP3   OH238690   6.147   1.452  12.023 -0.4235 -0.2778 -0.5384
 4832TIP3    H138691   6.204   1.520  12.060 -0.5256  0.0619 -0.9907
 4832TIP3    H238692   6.147   1.469  11.929 -0.2835 -1.0450 -0.6795
 4833TIP3   OH238693   6.287   3.932  10.916 -0.0978  0.7164 -0.1121
 4833TIP3    H138694   6.216   3.988  10.947 -2.0808 -1.2567 -0.8390
 4833TIP3    H238695   6.309   3.876  10.991 -0.3750  0.3207 -0.3213
 4834TIP3   OH238696   2.581   3.331  10.469 -0.4328  0.4508  0.4771
 4834TIP3    H138697   2.515   3.263  10.456  0.3757 -0.0145 -1.5336
 4834TIP3    H238698   2.541   3.410  10.434 -0.8129  0.7017  1.4604
 4835TIP3   OH238699   6.046   2.019  10.608 -0.0943 -0.1472 -0.2849
 4835TIP3    H138700   5.954   2.018  10.635  0.0879 -0.2936  0.3429
 4835TIP3    H238701   6.093   1.979  10.682  0.3889 -0.7433 -0.9054
 4836TIP3   OH238702   1.929   3.968  10.475  0.1733 -0.2702  0.5583
 4836TIP3    H138703   1.903   3.887  10.518  0.1510 -0.5716 -0.0080
 4836TIP3    H238704   1.986   3.940  10.403  1.2976  0.3160  1.2016
 4837TIP3   OH238705   4.887   3.706  11.687  0.0944 -0.1681  0.2024
 4837TIP3    H138706   4.924   3.618  11.696 -1.3464 -1.0197 -1.5451
 4837TIP3    H238707   4.963   3.763  11.683  1.0931 -1.4019  0.6810
 4838TIP3   OH238708   6.105   0.748  12.249 -0.2462 -0.3584  0.3653
 4838TIP3    H138709   6.113   0.821  12.310  2.3017  0.3877 -0.7433
 4838TIP3    H238710   6.101   0.789  12.163 -2.1141 -1.4604 -0.1423
 4839TIP3   OH238711   0.398   6.299  11.720 -0.4007  0.0553  0.3738
 4839TIP3    H138712   0.379   6.210  11.691  0.1774  0.3926 -1.1218
 4839TIP3    H238713   0.446   6.287  11.803 -1.3464 -0.9631  0.7988
 4840TIP3   OH238714   4.787   2.510  10.530  0.1978 -0.1111 -0.0549
 4840TIP3    H138715   4.750   2.595  10.504  1.9862  0.8398  0.3408
 4840TIP3    H238716   4.812   2.469  10.447  0.8180  0.4726 -0.1605
 4841TIP3   OH238717   0.724   3.259   9.447 -0.1482 -0.0756 -0.0380
 4841TIP3    H138718   0.648   3.204   9.425 -0.7207  0.4290  0.6167
 4841TIP3    H238719   0.686   3.344   9.467  0.4382 -0.1972  1.7317
 4842TIP3   OH238720   1.769   3.440  10.000 -0.2053 -0.3190  0.4512
 4842TIP3    H138721   1.761   3.491   9.919 -0.0368  1.9864  1.7924
 4842TIP3    H238722   1.756   3.349   9.972 -0.4761  0.4073 -2.0950
 4843TIP3   OH238723   2.394   6.820  10.986  0.1487  0.2662 -0.1660
 4843TIP3    H138724   2.345   6.739  10.976  0.5840  0.0145 -0.2858
 4843TIP3    H238725   2.329   6.890  10.978 -0.1254 -0.0501 -0.7120
 4844TIP3   OH238726   5.804   5.996  11.383 -0.0329 -0.4960 -0.2343
 4844TIP3    H138727   5.811   5.909  11.345 -0.5381 -0.8695  0.4955
 4844TIP3    H238728   5.713   6.002  11.412 -0.5380  1.0058 -1.9672
 4845TIP3   OH238729   2.789   4.443  12.499 -0.4984 -0.5016 -0.7497
 4845TIP3    H138730   2.825   4.354  12.499  2.4595  0.5560 -0.2271
 4845TIP3    H238731   2.831   4.485  12.423  0.7227  1.2720  0.8107
 4846TIP3   OH238732   5.288   4.939  11.647  0.0279 -0.7600  0.0053
 4846TIP3    H138733   5.306   4.878  11.718  0.4840 -0.0814  0.4804
 4846TIP3    H238734   5.251   5.016  11.690  0.9708 -0.0605 -0.4014
 4847TIP3   OH238735   2.391   3.586   9.817  0.1150 -0.0542 -1.1286
 4847TIP3    H138736   2.379   3.499   9.780 -1.1298 -0.0996 -0.6555
 4847TIP3    H238737   2.478   3.614   9.786  1.5504 -2.3601  0.4815
 4848TIP3   OH238738   2.129   4.210  10.262  0.0314 -0.1606 -0.4950
 4848TIP3    H138739   2.080   4.199  10.344 -0.8058 -1.2814 -1.1043
 4848TIP3    H238740   2.221   4.203  10.288 -0.1639  0.6893  0.4985
 4849TIP3   OH238741   4.124   5.110  12.112 -0.4356  0.0631  0.0309
 4849TIP3    H138742   4.208   5.087  12.151 -0.4167 -1.5913 -0.8872
 4849TIP3    H238743   4.141   5.193  12.066  0.6374 -0.1440  0.0235
 4850TIP3   OH238744   2.735   1.602  12.410 -0.4541 -0.4501 -0.0116
 4850TIP3    H138745   2.819   1.605  12.456  0.0300  0.2967 -0.9269
 4850TIP3    H238746   2.707   1.693  12.405 -0.6250 -0.5451 -0.9731
 4851TIP3   OH238747   1.550   1.699  12.668 -0.2096 -0.4320  0.2282
 4851TIP3    H138748   1.538   1.754  12.590  0.3169 -2.1596 -1.1638
 4851TIP3    H238749   1.462   1.689  12.704 -0.8044 -1.1071 -1.2887
 4852TIP3   OH238750   1.495   6.299  11.771 -0.2960  0.0005 -0.0015
 4852TIP3    H138751   1.582   6.278  11.804 -0.2113  2.4770  1.5759
 4852TIP3    H238752   1.444   6.219  11.785  1.2641 -0.9206  0.6737
 4853TIP3   OH238753   3.218   6.341  12.210 -0.0611 -0.6385  0.1085
 4853TIP3    H138754   3.209   6.382  12.125  1.4801 -1.6524 -0.5931
 4853TIP3    H238755   3.285   6.393  12.255 -0.7379 -0.2154  0.6363
 4854TIP3   OH238756   5.623   4.319  10.846 -0.0437  0.2060  0.2752
 4854TIP3    H138757   5.651   4.262  10.775 -0.1091 -1.5996  1.6114
 4854TIP3    H238758   5.701   4.331  10.900  0.0791  1.7832 -0.1840
 4855TIP3   OH238759   0.606   1.424  12.915  0.2235  0.4574 -0.3175
 4855TIP3    H138760   0.611   1.513  12.951 -0.8354  0.7082 -0.7494
 4855TIP3    H238761   0.542   1.431  12.843  0.0919 -0.6595 -0.3227
 4856TIP3   OH238762   4.740   2.320  11.895 -0.0778 -0.1831 -0.0277
 4856TIP3    H138763   4.833   2.341  11.888 -0.5676  1.7904 -2.5237
 4856TIP3    H238764   4.730   2.278  11.980  3.1055 -0.6834  0.2101
 4857TIP3   OH238765   2.959   2.804  12.161  0.0890 -0.3316 -0.1586
 4857TIP3    H138766   3.054   2.802  12.147  0.0489  0.6559 -0.6397
 4857TIP3    H238767   2.938   2.897  12.169 -0.9807 -0.4676 -1.0761
 4858TIP3   OH238768   1.421   1.789  10.060  0.5607  0.0966  0.4173
 4858TIP3    H138769   1.465   1.858  10.010  0.6109  2.1203  3.0889
 4858TIP3    H238770   1.329   1.794  10.033  1.0602 -1.1115 -1.8099
 4859TIP3   OH238771   2.440   4.531  10.414  0.0235  0.1737 -0.8679
 4859TIP3    H138772   2.477   4.592  10.349  0.9222  1.2814  0.6336
 4859TIP3    H238773   2.345   4.541  10.405  0.1560  1.7400 -0.7211
 4860TIP3   OH238774   3.766   4.450  10.385  0.0369  0.0055 -0.2425
 4860TIP3    H138775   3.836   4.409  10.435 -0.3156 -0.1601  0.1175
 4860TIP3    H238776   3.688   4.441  10.440 -0.1225  0.8372 -0.3195
 4861TIP3   OH238777   1.440   6.752  10.783 -0.0014  0.3130 -0.4594
 4861TIP3    H138778   1.379   6.826  10.779  1.2787  1.3849 -0.6254
 4861TIP3    H238779   1.409   6.692  10.715 -1.9428 -0.0372  0.6590
 4862TIP3   OH238780   4.941   3.874  10.802  0.1735 -0.9288  0.2164
 4862TIP3    H138781   4.934   3.837  10.890  0.7603 -0.1274  0.6071
 4862TIP3    H238782   5.032   3.903  10.795 -0.0196 -0.4539 -0.4504
 4863TIP3   OH238783   2.248   6.641  10.662  0.0394 -0.1226  0.1943
 4863TIP3    H138784   2.295   6.586  10.599  0.7959 -1.1684  1.6303
 4863TIP3    H238785   2.159   6.605  10.664  0.1829 -0.4783  0.1817
 4864TIP3   OH238786   5.748   0.910  13.358  0.0922  0.3103 -0.3236
 4864TIP3    H138787   5.668   0.925  13.410  0.1859 -0.2542 -0.0185
 4864TIP3    H238788   5.813   0.883  13.421 -0.0936 -1.5100 -0.8689
 4865TIP3   OH238789   0.445   3.246  10.535  0.3747 -0.7640 -0.1528
 4865TIP3    H138790   0.368   3.189  10.531 -0.4840  0.4012 -0.8597
 4865TIP3    H238791   0.509   3.196  10.585 -0.7585 -1.8627  0.2537
 4866TIP3   OH238792   4.840   5.335  12.155 -0.4780 -0.5649 -0.3659
 4866TIP3    H138793   4.797   5.418  12.173  0.7208  0.4716 -2.0659
 4866TIP3    H238794   4.890   5.317  12.235  0.2119  0.9755 -0.4266
 4867TIP3   OH238795   6.246   1.745  11.182 -0.3194  0.3015 -0.1489
 4867TIP3    H138796   6.298   1.681  11.231  0.6205 -1.1324 -2.7748
 4867TIP3    H238797   6.156   1.711  11.187 -0.2745  0.2780  0.6759
 4868TIP3   OH238798   2.860   2.603  10.291 -0.2804 -0.0938  0.3218
 4868TIP3    H138799   2.886   2.665  10.222 -0.7612 -0.5576 -0.2982
 4868TIP3    H238800   2.943   2.571  10.327  0.0968 -1.7828 -1.8230
 4869TIP3   OH238801   5.140   1.039  12.371 -0.0062  0.1672  0.0437
 4869TIP3    H138802   5.121   0.959  12.323 -0.1730 -0.0604  0.4846
 4869TIP3    H238803   5.054   1.071  12.398  0.1238 -0.0444  0.7304
 4870TIP3   OH238804   5.569   0.386  13.205  0.3359  0.1477  0.5063
 4870TIP3    H138805   5.630   0.420  13.140  0.3972 -1.5468 -0.3827
 4870TIP3    H238806   5.483   0.400  13.167  0.4140 -2.8345 -1.1343
 4871TIP3   OH238807   0.694   2.873  11.488 -0.2545 -0.1672 -0.4375
 4871TIP3    H138808   0.693   2.803  11.553  0.8408 -0.9579 -1.2373
 4871TIP3    H238809   0.634   2.844  11.420  0.4496 -0.5040 -0.9271
 4872TIP3   OH238810   1.816   1.263   9.894  0.7497  0.2613 -0.2344
 4872TIP3    H138811   1.824   1.201   9.821  0.4595 -0.1536  0.0801
 4872TIP3    H238812   1.754   1.329   9.862  0.4247 -0.0583 -0.2724
 4873TIP3   OH238813   1.684   3.285  10.512  0.1645 -0.4328 -0.2812
 4873TIP3    H138814   1.606   3.325  10.551  0.1736  0.6625 -1.3161
 4873TIP3    H238815   1.674   3.191  10.529 -1.4640 -0.3322 -0.5276
 4874TIP3   OH238816   1.513   5.416   9.742  0.2999 -0.0898 -0.5922
 4874TIP3    H138817   1.592   5.455   9.778 -0.9702  0.6657  1.5199
 4874TIP3    H238818   1.500   5.461   9.658  1.6082  0.3888 -0.5571
 4875TIP3   OH238819   4.067   6.206  12.366  0.3468 -0.0291  0.1887
 4875TIP3    H138820   4.089   6.126  12.319 -0.3770  0.4691 -1.0261
 4875TIP3    H238821   4.151   6.249  12.380  0.6865 -0.7420  0.3957
 4876TIP3   OH238822   5.515   5.723  12.600  0.3922 -0.5823  0.1967
 4876TIP3    H138823   5.559   5.774  12.531  1.6638 -1.6012  0.2127
 4876TIP3    H238824   5.512   5.782  12.675 -0.3237  0.2811 -0.4898
 4877TIP3   OH238825   2.818   5.261  12.767  0.0277 -0.2638 -0.1286
 4877TIP3    H138826   2.790   5.307  12.688  0.6749  0.8082  0.2423
 4877TIP3    H238827   2.737   5.233  12.809 -0.4733  1.6727  0.2815
 4878TIP3   OH238828   0.403   2.649   9.871  0.1824  0.2135 -0.5404
 4878TIP3    H138829   0.413   2.562   9.832  0.4982  0.7010 -1.5826
 4878TIP3    H238830   0.350   2.634   9.949  0.3446 -0.9335 -0.6297
 4879TIP3   OH238831   6.609   1.383  13.329 -0.6398 -0.3021 -0.6514
 4879TIP3    H138832   6.672   1.323  13.368 -1.2317 -1.4757 -1.4596
 4879TIP3    H238833   6.630   1.468  13.368 -0.3600 -1.1695  1.2197
 4880TIP3   OH238834   1.917   1.026  10.946 -0.1043 -0.7314 -0.0944
 4880TIP3    H138835   1.888   1.078  10.872 -2.2017 -1.0749  0.4363
 4880TIP3    H238836   1.855   0.954  10.952 -0.8041 -0.0423  2.7278
 4881TIP3   OH238837   3.052   6.300  10.365 -0.8409 -0.3464 -0.2134
 4881TIP3    H138838   3.003   6.320  10.445 -0.3810  0.3201 -0.0883
 4881TIP3    H238839   2.987   6.305  10.295 -1.3738 -1.5435  0.1730
 4882TIP3   OH238840   4.970   2.322  13.103  0.0973  0.2142  0.6309
 4882TIP3    H138841   4.955   2.232  13.133  0.1396  0.3288  1.0024
 4882TIP3    H238842   4.890   2.369  13.125  0.4007  0.4677  1.2233
 4883TIP3   OH238843   4.212   0.326  11.610 -0.1206  0.6004  0.2201
 4883TIP3    H138844   4.247   0.293  11.693 -1.6140 -1.7605  0.0007
 4883TIP3    H238845   4.287   0.368  11.567  1.9149 -2.1926  0.7732
 4884TIP3   OH238846   3.207   5.094  12.204 -0.5152 -0.2504  0.0031
 4884TIP3    H138847   3.195   5.008  12.163 -0.3425 -1.1386  1.7475
 4884TIP3    H238848   3.118   5.123  12.224 -0.5659 -0.0612 -0.4754
 4885TIP3   OH238849   6.167   3.623  11.941  0.2255  0.3732  0.4670
 4885TIP3    H138850   6.153   3.669  11.858 -1.2075 -2.9984 -1.3698
 4885TIP3    H238851   6.261   3.605  11.943  0.4633  1.5461  0.2080
 4886TIP3   OH238852   5.636   4.619  11.812  0.0492  0.1033  0.5237
 4886TIP3    H138853   5.691   4.550  11.774  1.5334  1.8002 -0.5971
 4886TIP3    H238854   5.681   4.644  11.892  0.1982  0.5806  0.2964
 4887TIP3   OH238855   3.119   1.819  12.256  0.2721 -0.3249  0.2873
 4887TIP3    H138856   3.190   1.768  12.216  2.9301  0.8573  3.1224
 4887TIP3    H238857   3.082   1.761  12.322  0.4141 -0.0361  0.6237
 4888TIP3   OH238858   2.896   3.482   9.837  0.3298 -0.3260 -0.0724
 4888TIP3    H138859   2.964   3.420   9.809 -0.1156 -0.3944 -1.0404
 4888TIP3    H238860   2.854   3.510   9.756 -1.0065 -0.5270  0.5221
 4889TIP3   OH238861   5.733   4.174  10.646  0.2263  0.3927 -0.3062
 4889TIP3    H138862   5.817   4.128  10.642  0.0352  0.0153  0.0198
 4889TIP3    H238863   5.675   4.122  10.590 -0.1207 -0.0446  0.4482
 4890TIP3   OH238864   0.463   6.235  10.420 -0.4280 -0.4715  0.7231
 4890TIP3    H138865   0.423   6.162  10.373 -1.3249  0.7131 -0.3914
 4890TIP3    H238866   0.554   6.237  10.389 -0.7808 -0.2409 -0.3069
 4891TIP3   OH238867   1.901   0.649  10.502 -0.4706  0.2113 -0.1229
 4891TIP3    H138868   1.971   0.589  10.527  0.5857  1.3452 -0.2288
 4891TIP3    H238869   1.877   0.693  10.584 -1.8595 -0.9522  0.1205
 4892TIP3   OH238870   0.933   5.616  12.404  0.6152  0.0568  0.0165
 4892TIP3    H138871   0.898   5.705  12.393  1.6593  0.4680 -0.1656
 4892TIP3    H238872   1.002   5.625  12.469 -1.4554 -1.2670  2.5602
 4893TIP3   OH238873   1.414   3.350   9.961  0.2273 -0.1312 -0.2134
 4893TIP3    H138874   1.367   3.283  10.011  1.6539 -0.2717  1.0033
 4893TIP3    H238875   1.456   3.302   9.890 -0.2075 -0.2427 -0.3962
 4894TIP3   OH238876   3.283   1.155  10.728  0.2589 -0.3570 -0.1862
 4894TIP3    H138877   3.211   1.116  10.778  0.1976 -0.8409 -0.6422
 4894TIP3    H238878   3.253   1.244  10.708 -0.1379 -0.4976 -0.2233
 4895TIP3   OH238879   5.779   1.651  12.263 -0.3442  0.3754  0.2335
 4895TIP3    H138880   5.759   1.740  12.294  1.0218  0.3236  1.3734
 4895TIP3    H238881   5.836   1.665  12.188  0.9057  0.4999  1.1650
 4896TIP3   OH238882   1.814   0.393  13.331 -0.4848 -0.6088 -0.0508
 4896TIP3    H138883   1.770   0.413  13.414 -1.4361 -2.3919 -0.0755
 4896TIP3    H238884   1.841   0.302  13.340 -0.8169 -0.9034 -1.7939
 4897TIP3   OH238885   1.881   6.793  12.922 -0.3777 -0.1072  0.2259
 4897TIP3    H138886   1.815   6.737  12.962 -0.7131 -0.7980 -1.2256
 4897TIP3    H238887   1.882   6.872  12.976 -1.9805 -0.3096  0.6013
 4898TIP3   OH238888   0.030   4.510  12.697  0.3036 -0.1520 -0.1211
 4898TIP3    H138889   0.017   4.415  12.697 -1.9050 -0.0012 -2.7567
 4898TIP3    H238890   0.114   4.522  12.653  0.6070 -0.9011  0.2368
 4899TIP3   OH238891   3.238   1.570  11.156  0.7532  0.5484  0.6955
 4899TIP3    H138892   3.225   1.658  11.190 -1.0044  0.1421  1.1845
 4899TIP3    H238893   3.305   1.532  11.213  0.5280  1.1275  1.3622
 4900TIP3   OH238894   4.447   3.028  10.085  0.0474 -0.5935  0.3408
 4900TIP3    H138895   4.407   3.091  10.145 -0.4689  0.4177 -1.0108
 4900TIP3    H238896   4.474   3.081  10.010  0.6516 -1.8244 -0.3307
 4901TIP3   OH238897   5.832   6.443  13.051  0.1307  0.4895 -0.7697
 4901TIP3    H138898   5.926   6.457  13.067 -0.1698  1.2570  0.5143
 4901TIP3    H238899   5.810   6.506  12.982  0.8773 -0.8570 -2.2861
 4902TIP3   OH238900   2.292   2.989  11.250  0.5881  0.1815  0.2289
 4902TIP3    H138901   2.385   3.011  11.257  0.4635  0.3354  1.6133
 4902TIP3    H238902   2.247   3.066  11.284  0.0293 -0.6724  1.5016
 4903TIP3   OH238903   2.312   1.121  11.322 -0.6499  0.2913  0.5565
 4903TIP3    H138904   2.368   1.075  11.385 -0.9577 -0.1073  0.5423
 4903TIP3    H238905   2.293   1.055  11.255 -0.0034  0.8237 -0.1614
 4904TIP3   OH238906   0.275   4.301  12.509  0.8259  0.3596 -0.0126
 4904TIP3    H138907   0.241   4.267  12.592  0.1928  0.8921 -0.0457
 4904TIP3    H238908   0.323   4.227  12.471 -2.7311 -1.4924 -1.3799
 4905TIP3   OH238909   2.782   6.645  11.930 -0.0522 -0.2248  0.0162
 4905TIP3    H138910   2.700   6.687  11.957 -0.6271 -0.7657 -0.8728
 4905TIP3    H238911   2.760   6.552  11.923 -0.4268  0.0007 -3.8879
 4906TIP3   OH238912   2.834   2.026  10.049  0.0965  0.8819 -0.1869
 4906TIP3    H138913   2.811   2.079   9.973  1.2052  1.2220 -0.3020
 4906TIP3    H238914   2.873   2.088  10.111  0.6781  0.3363  0.0015
 4907TIP3   OH238915   6.768   0.316  10.908 -0.0855  0.1161 -0.3257
 4907TIP3    H138916   6.802   0.267  10.833 -1.4081 -0.5058 -0.5577
 4907TIP3    H238917   6.705   0.377  10.869 -0.8293 -0.2543  0.2647
 4908TIP3   OH238918   6.363   1.027  12.387 -0.8726 -0.3149 -0.0170
 4908TIP3    H138919   6.396   1.001  12.473 -1.0688  1.2425  0.5565
 4908TIP3    H238920   6.441   1.029  12.331 -0.3130  1.0355  0.7529
 4909TIP3   OH238921   1.466   3.159  12.570 -0.6452  0.1629  0.0388
 4909TIP3    H138922   1.555   3.189  12.554 -0.1284 -0.2372  1.8861
 4909TIP3    H238923   1.472   3.106  12.649 -2.2496 -1.3124 -0.7577
 4910TIP3   OH238924   0.034   3.228  10.714 -0.4023 -0.5455 -0.0540
 4910TIP3    H138925   0.068   3.271  10.793 -0.4883 -0.6853  0.0605
 4910TIP3    H238926   0.022   3.299  10.651 -0.0069 -0.4814 -0.0561
 4911TIP3   OH238927   4.212   0.015  12.233  0.0592 -0.5622  0.2344
 4911TIP3    H138928   4.137   0.052  12.279  0.3594 -1.2827  1.3382
 4911TIP3    H238929   4.174  -0.041  12.165 -0.3910  0.9135 -0.7786
 4912TIP3   OH238930   6.647   5.365  12.546 -0.5070  0.5863 -0.1678
 4912TIP3    H138931   6.659   5.373  12.452 -0.1220  0.8520 -0.0968
 4912TIP3    H238932   6.577   5.300  12.556 -1.5512  1.6071 -0.6676
 4913TIP3   OH238933   2.075   0.406  11.414  0.0477 -0.2043  1.0650
 4913TIP3    H138934   2.116   0.330  11.371  1.7966  1.3959 -0.2884
 4913TIP3    H238935   2.067   0.471  11.345  0.4951  1.5606  2.5983
 4914TIP3   OH238936   1.039   6.008  12.952 -0.3626 -0.0338  0.0968
 4914TIP3    H138937   1.100   6.046  12.888  0.3768  0.3709  1.0251
 4914TIP3    H238938   1.053   5.914  12.945 -0.4643 -0.0102 -0.5112
 4915TIP3   OH238939   3.529   2.491  10.340  0.0211  0.2111  0.1437
 4915TIP3    H138940   3.602   2.502  10.400  0.9918 -0.2609 -0.8982
 4915TIP3    H238941   3.479   2.573  10.347  1.1658  0.9298  0.2106
 4916TIP3   OH238942   0.085   2.736  11.236  0.3550 -0.0540 -0.3084
 4916TIP3    H138943   0.043   2.754  11.320 -1.1771 -0.7540 -0.8895
 4916TIP3    H238944   0.107   2.643  11.239  0.4726 -0.0381 -0.6089
 4917TIP3   OH238945   6.602   5.874  10.862  0.2333  0.1084  0.1191
 4917TIP3    H138946   6.509   5.892  10.876 -0.3038  0.7847 -3.4294
 4917TIP3    H238947   6.611   5.780  10.877 -0.9204  0.1013  0.8511
 4918TIP3   OH238948   1.103   0.429  11.016  0.2217 -0.0504 -0.6013
 4918TIP3    H138949   1.131   0.520  11.028 -0.4063  0.0568  0.0919
 4918TIP3    H238950   1.120   0.411  10.923  1.1403  0.4985 -0.5540
 4919TIP3   OH238951   0.395   0.350  12.924  0.5175  0.2573 -0.1552
 4919TIP3    H138952   0.375   0.262  12.891 -1.7156  0.7214 -0.1578
 4919TIP3    H238953   0.312   0.397  12.920  1.4306  2.0636  0.8540
 4920TIP3   OH238954   2.613   6.221  11.064  0.3119  0.0426 -0.0197
 4920TIP3    H138955   2.687   6.161  11.072  1.3338  1.4727  1.8160
 4920TIP3    H238956   2.539   6.164  11.044  1.9390 -1.3707 -2.6317
 4921TIP3   OH238957   2.432   0.143  13.361 -0.0852 -0.6227 -0.0555
 4921TIP3    H138958   2.499   0.077  13.381  0.2876 -0.1577  0.2517
 4921TIP3    H238959   2.351   0.106  13.396  0.3358 -0.3852  1.2013
 4922TIP3   OH238960   5.240   2.918  10.498  0.3763 -0.2530  0.6708
 4922TIP3    H138961   5.238   2.946  10.406 -0.7840  0.6022  0.9279
 4922TIP3    H238962   5.332   2.900  10.516  0.7528  0.5137 -0.3895
 4923TIP3   OH238963   3.550   5.270  12.770  0.8570 -0.1649  0.0133
 4923TIP3    H138964   3.568   5.250  12.862  2.4058  0.0754 -0.2076
 4923TIP3    H238965   3.500   5.351  12.773  0.2720 -0.5364  0.6637
 4924TIP3   OH238966   5.603   3.814  12.752 -0.0487  0.2471  0.5352
 4924TIP3    H138967   5.641   3.901  12.742 -1.0211  0.5595 -0.6266
 4924TIP3    H238968   5.553   3.819  12.834  0.6850  0.4634  0.9812
 4925TIP3   OH238969   5.038   1.753  10.336 -0.4466 -0.1747  0.3982
 4925TIP3    H138970   4.959   1.699  10.334 -1.5209  1.2733  1.5240
 4925TIP3    H238971   5.110   1.691  10.322 -1.6957 -1.6993  0.4680
 4926TIP3   OH238972   4.797   4.290  11.610  0.3378  0.0226  0.4991
 4926TIP3    H138973   4.758   4.360  11.558  0.8613 -0.5573 -0.7135
 4926TIP3    H238974   4.768   4.210  11.568  1.4415 -0.4471  0.5959
 4927TIP3   OH238975   1.526   0.763  11.787 -0.0638  0.2524 -0.1345
 4927TIP3    H138976   1.536   0.720  11.872  0.5185  0.4101 -0.1184
 4927TIP3    H238977   1.438   0.739  11.758 -0.0681 -0.2331  0.2692
 4928TIP3   OH238978   3.495   5.813  11.631 -0.1983 -0.0515 -0.0932
 4928TIP3    H138979   3.584   5.846  11.618 -0.5265  1.0127  0.2689
 4928TIP3    H238980   3.446   5.847  11.555 -0.4026 -0.2234 -0.0383
 4929TIP3   OH238981   1.397   0.483  10.826 -0.1244  0.0308  0.1736
 4929TIP3    H138982   1.390   0.564  10.877  1.1861 -0.0960  0.6036
 4929TIP3    H238983   1.451   0.425  10.880  0.9792 -0.2541 -1.1745
 4930TIP3   OH238984   2.359   4.900  11.509  0.1167 -0.3375  0.4871
 4930TIP3    H138985   2.385   4.848  11.585 -0.3001  0.4310  1.1596
 4930TIP3    H238986   2.400   4.985  11.522 -0.5500  0.0290  0.2068
 4931TIP3   OH238987   1.685   2.742  11.389  0.0591 -0.0303  0.4923
 4931TIP3    H138988   1.753   2.808  11.383 -1.1919  1.1810 -1.5233
 4931TIP3    H238989   1.710   2.675  11.326  0.3419 -0.5470  1.1417
 4932TIP3   OH238990   2.040   5.896  12.360 -0.4629  0.3785 -0.1406
 4932TIP3    H138991   2.039   5.806  12.391 -1.7408  0.5134  0.2784
 4932TIP3    H238992   1.984   5.895  12.282 -1.8464  1.0853  0.7961
 4933TIP3   OH238993   3.186   0.398  10.813  0.0664 -0.5541 -0.3942
 4933TIP3    H138994   3.260   0.458  10.822  0.2017 -0.6005 -1.0835
 4933TIP3    H238995   3.109   0.454  10.813 -0.0628 -0.6505  2.2330
 4934TIP3   OH238996   0.870   2.968  11.763 -0.3646 -0.2402 -0.1035
 4934TIP3    H138997   0.818   2.962  11.683  0.5513  1.0810 -0.8358
 4934TIP3    H238998   0.945   2.909  11.747  1.0865  1.8148 -1.2808
 4935TIP3   OH238999   3.812   3.017  13.140 -0.2497  0.1297 -0.4595
 4935TIP3    H139000   3.724   2.980  13.131 -0.0732 -0.4412  0.1538
 4935TIP3    H239001   3.870   2.950  13.103  0.4231 -1.8979  3.7211
 4936TIP3   OH239002   3.878   1.549  11.646 -0.4043  0.5051  0.1502
 4936TIP3    H139003   3.807   1.488  11.662 -0.4805  0.5010 -0.1884
 4936TIP3    H239004   3.958   1.498  11.657 -0.4282  0.7015  1.3294
 4937TIP3   OH239005   3.605   5.888  13.497  0.1950  0.0710 -0.2893
 4937TIP3    H139006   3.680   5.840  13.532 -1.2738 -1.4078  0.9573
 4937TIP3    H239007   3.587   5.847  13.412  0.6779  0.3205 -0.5156
 4938TIP3   OH239008   5.214   3.641  12.369 -0.5267  0.4035  0.2658
 4938TIP3    H139009   5.264   3.684  12.438 -1.4952 -2.0823  2.6871
 4938TIP3    H239010   5.211   3.705  12.298  2.7046  2.1300  1.4800
 4939TIP3   OH239011   6.030   2.751  12.113 -0.6058 -0.1851 -0.0733
 4939TIP3    H139012   5.937   2.765  12.133  0.0057  2.0834  1.5710
 4939TIP3    H239013   6.050   2.819  12.048 -0.2720 -1.2348 -1.0932
 4940TIP3   OH239014   0.717   4.639  11.825  0.2346  0.1566  0.4794
 4940TIP3    H139015   0.764   4.707  11.777  1.0822 -1.0643 -0.4783
 4940TIP3    H239016   0.640   4.684  11.860  0.3136  1.4185 -0.8463
 4941TIP3   OH239017   5.089   0.261  10.193  0.0544 -0.1489  0.0059
 4941TIP3    H139018   5.011   0.205  10.197 -0.5850  0.7597  0.7838
 4941TIP3    H239019   5.096   0.299  10.281 -0.1926  1.8392 -0.7812
 4942TIP3   OH239020   1.109   4.740  11.274  0.5611 -0.1588 -0.0621
 4942TIP3    H139021   1.175   4.701  11.217  2.0300 -0.6421  1.8617
 4942TIP3    H239022   1.042   4.672  11.283 -0.6246  0.5542 -2.5077
 4943TIP3   OH239023   3.991   2.789   9.839 -0.2978  0.2166  0.0086
 4943TIP3    H139024   3.897   2.769   9.849 -0.2858  0.6389  1.0357
 4943TIP3    H239025   3.998   2.881   9.861  0.6287 -0.2341  1.7961
 4944TIP3   OH239026   0.907   1.211  10.505 -0.2682  0.8634 -0.5908
 4944TIP3    H139027   0.824   1.219  10.457 -0.2773  2.0006 -0.4181
 4944TIP3    H239028   0.957   1.288  10.479  0.2251  0.8447  0.2701
 4945TIP3   OH239029   2.582   3.730  10.232 -0.2477 -0.5056 -0.1783
 4945TIP3    H139030   2.646   3.689  10.173 -0.9858 -1.8217 -0.0923
 4945TIP3    H239031   2.532   3.788  10.175 -0.5444 -1.2989 -0.7490
 4946TIP3   OH239032   6.031   2.264  12.083  0.2077 -0.2181  0.4436
 4946TIP3    H139033   5.949   2.260  12.131  0.0504  0.3982  0.2341
 4946TIP3    H239034   6.090   2.314  12.140  0.1684  0.0993  0.2069
 4947TIP3   OH239035   3.683   0.819  10.510 -0.0889  0.3686  0.0257
 4947TIP3    H139036   3.754   0.791  10.452  2.7683  1.4295  2.7016
 4947TIP3    H239037   3.604   0.807  10.458  1.5137 -4.7050 -1.8496
 4948TIP3   OH239038   4.353   2.396  13.284  0.2534 -0.0168 -0.1513
 4948TIP3    H139039   4.263   2.383  13.314  0.8067 -1.0200  1.1539
 4948TIP3    H239040   4.364   2.491  13.281 -0.9938  0.1260 -0.8298
 4949TIP3   OH239041   0.492   0.166  10.750 -0.0810  0.3115  0.1256
 4949TIP3    H139042   0.563   0.214  10.708 -0.3203  1.2743  0.7941
 4949TIP3    H239043   0.436   0.138  10.677  1.5554 -1.4983 -0.5204
 4950TIP3   OH239044   1.267   5.852  12.130 -0.8011  0.1032 -0.6868
 4950TIP3    H139045   1.192   5.881  12.182 -1.4423  0.1936 -1.6387
 4950TIP3    H239046   1.325   5.929  12.127 -3.0383  1.9087 -4.2055
 4951TIP3   OH239047   6.183   5.006  10.156 -0.0060  0.1118  0.0582
 4951TIP3    H139048   6.246   4.984  10.088  1.2902  2.0363  0.5523
 4951TIP3    H239049   6.196   5.100  10.171 -1.7816  0.1874  1.4198
 4952TIP3   OH239050   4.712   6.065  12.876 -0.7288 -0.0902 -0.4501
 4952TIP3    H139051   4.768   6.044  12.800  0.6341 -0.3220  0.5787
 4952TIP3    H239052   4.688   5.980  12.912 -0.6852  0.0334 -0.1326
 4953TIP3   OH239053   0.252   6.079  10.308 -0.1920 -0.0180  0.2818
 4953TIP3    H139054   0.243   5.988  10.336 -1.4733  0.1380  0.4415
 4953TIP3    H239055   0.196   6.086  10.231  0.2767  0.5251 -0.0187
 4954TIP3   OH239056   0.702   3.170  10.161 -0.8237  0.4269  0.2935
 4954TIP3    H139057   0.772   3.129  10.110 -0.5429  0.7793  0.3905
 4954TIP3    H239058   0.637   3.101  10.172 -0.0841 -0.1815  0.9747
 4955TIP3   OH239059   0.612   0.211  11.343 -0.3265  0.7751  0.4440
 4955TIP3    H139060   0.625   0.121  11.373  1.0584  0.6651 -0.4042
 4955TIP3    H239061   0.528   0.209  11.297  0.2287 -0.3856 -0.5898
 4956TIP3   OH239062   6.620   6.839  11.358  0.3594 -0.1996  0.4134
 4956TIP3    H139063   6.646   6.892  11.283  1.0399 -0.9628  0.0936
 4956TIP3    H239064   6.702   6.816  11.402 -0.0291  0.2833  1.4328
 4957TIP3   OH239065   3.330   3.536  12.232  0.4969  0.1751  0.3217
 4957TIP3    H139066   3.424   3.546  12.250  0.8340  0.9254 -1.6788
 4957TIP3    H239067   3.326   3.471  12.162 -0.6412 -1.2877  1.6714
 4958TIP3   OH239068   2.571   5.998   9.691 -0.2349 -0.6031  0.5336
 4958TIP3    H139069   2.552   5.977   9.782  1.2836  0.3246  1.1076
 4958TIP3    H239070   2.556   6.092   9.684  0.1132 -0.5864 -0.0497
 4959TIP3   OH239071   5.835   6.095  11.021 -0.9396  0.0106  0.0246
 4959TIP3    H139072   5.844   6.133  10.933  0.3484 -0.9952 -0.3112
 4959TIP3    H239073   5.854   6.002  11.009 -2.8615 -0.5512  1.0363
 4960TIP3   OH239074   5.191   5.099  12.380  0.3471  0.7929 -0.0854
 4960TIP3    H139075   5.108   5.132  12.345  0.5778  0.4567 -0.9687
 4960TIP3    H239076   5.257   5.157  12.342  0.8903 -1.3708 -2.6965
 4961TIP3   OH239077   4.831   1.605  11.174 -0.3003  0.0378  0.2813
 4961TIP3    H139078   4.798   1.666  11.239  0.8177 -0.8245  1.7257
 4961TIP3    H239079   4.922   1.629  11.161 -0.3529 -0.1539 -0.5762
 4962TIP3   OH239080   3.070   6.164  11.797  0.5041 -0.2170  0.2049
 4962TIP3    H139081   2.976   6.148  11.791  0.4363  0.1000  0.3819
 4962TIP3    H239082   3.096   6.128  11.881  0.2853  0.8701  0.7660
 4963TIP3   OH239083   6.408   2.555  10.290  0.5505  0.0103 -0.1455
 4963TIP3    H139084   6.467   2.593  10.225  0.8051 -1.1211 -0.6016
 4963TIP3    H239085   6.447   2.470  10.311 -0.9364 -0.7941 -0.5114
 4964TIP3   OH239086   1.359   5.121  12.528 -0.0612  0.2471 -0.6172
 4964TIP3    H139087   1.332   5.185  12.461 -0.3887 -2.0657 -2.8556
 4964TIP3    H239088   1.280   5.106  12.580 -0.4099  0.5538 -1.0448
 4965TIP3   OH239089   3.792   0.397  11.132 -0.3251 -0.2876 -0.0817
 4965TIP3    H139090   3.832   0.405  11.219  0.0632  1.2543 -0.3800
 4965TIP3    H239091   3.767   0.304  11.126 -2.0165 -0.0871  2.3801
 4966TIP3   OH239092   1.964   5.443  10.419  0.2367 -0.6790 -0.3219
 4966TIP3    H139093   1.986   5.528  10.379  3.8587 -0.7376  1.1478
 4966TIP3    H239094   1.966   5.381  10.346  2.9015 -0.2152 -0.7502
 4967TIP3   OH239095   0.687   2.487  12.992  0.6121  0.1664  0.1965
 4967TIP3    H139096   0.656   2.416  13.048  1.1031 -0.7913 -0.7241
 4967TIP3    H239097   0.608   2.529  12.960  0.3220  0.2772  1.0257
 4968TIP3   OH239098   3.456   3.917  11.376 -0.0725 -0.7914 -0.0985
 4968TIP3    H139099   3.473   3.883  11.463  0.2236  0.7475  0.4743
 4968TIP3    H239100   3.363   3.902  11.362 -0.2730 -0.4323  0.7766
 4969TIP3   OH239101   4.898   3.309  12.502 -0.8418  0.0795 -0.3908
 4969TIP3    H139102   4.966   3.320  12.435  0.7145 -1.5131  0.8398
 4969TIP3    H239103   4.833   3.252  12.461  0.6902 -1.8968 -0.2247
 4970TIP3   OH239104   6.101   3.706  11.049  0.1204  0.1574  0.1453
 4970TIP3    H139105   6.040   3.648  11.004  1.3966 -1.6213  0.6096
 4970TIP3    H239106   6.065   3.794  11.034 -1.8230 -0.7032 -0.6628
 4971TIP3   OH239107   2.544   0.054   9.507 -0.1464  0.1670  0.0761
 4971TIP3    H139108   2.598   0.006   9.569 -0.5373 -1.1433 -0.5597
 4971TIP3    H239109   2.588   0.138   9.497 -0.0601  0.3903  2.0697
 4972TIP3   OH239110   2.421   4.399  12.874 -0.1353 -0.0789 -0.4683
 4972TIP3    H139111   2.499   4.397  12.819 -0.1971 -0.4494 -0.5478
 4972TIP3    H239112   2.349   4.378  12.815 -0.4418  1.2700 -0.6175
 4973TIP3   OH239113   6.136   6.409  13.081 -0.6496 -0.4436  0.1801
 4973TIP3    H139114   6.112   6.467  13.154  1.0416 -0.7517  1.0321
 4973TIP3    H239115   6.173   6.468  13.015  0.6048 -0.4624  0.8396
 4974TIP3   OH239116   3.683   1.662  10.005 -0.3316 -0.3551  0.0011
 4974TIP3    H139117   3.668   1.756   9.998 -0.7527 -0.5615 -3.1948
 4974TIP3    H239118   3.769   1.649   9.965 -1.1461 -1.4891 -1.4793
 4975TIP3   OH239119   5.562   6.071  11.454 -0.1038  0.5590 -0.6894
 4975TIP3    H139120   5.550   6.121  11.373 -2.7208  0.0123 -0.7234
 4975TIP3    H239121   5.478   6.030  11.470  0.5895 -0.0811  1.8638
 4976TIP3   OH239122   6.385   5.411  10.438  0.2898  0.6675 -0.7774
 4976TIP3    H139123   6.414   5.432  10.349 -0.4127  2.3413 -0.6582
 4976TIP3    H239124   6.290   5.425  10.436 -0.1390 -1.8248 -0.4046
 4977TIP3   OH239125   2.508   5.553  11.444 -0.2250 -0.4094 -0.5055
 4977TIP3    H139126   2.524   5.643  11.469  3.2523 -0.8097 -0.8787
 4977TIP3    H239127   2.498   5.555  11.349  0.0829 -0.4436 -0.5385
 4978TIP3   OH239128   5.844   5.554  12.580 -0.2923 -0.1179  0.0057
 4978TIP3    H139129   5.853   5.619  12.512 -0.2482 -0.1427 -0.0123
 4978TIP3    H239130   5.865   5.471  12.537 -0.5637 -0.1703 -0.0263
 4979TIP3   OH239131   6.626   1.657  10.350  0.4309 -0.1042 -0.4777
 4979TIP3    H139132   6.656   1.747  10.358 -0.1402 -0.0882  2.4510
 4979TIP3    H239133   6.530   1.663  10.352  0.3936 -0.7960  0.2843
 4980TIP3   OH239134   5.426   4.320  12.121 -0.6442  0.1211  0.5559
 4980TIP3    H139135   5.349   4.375  12.141 -0.7430 -0.6428  2.4194
 4980TIP3    H239136   5.413   4.240  12.172  0.3381 -0.9619 -0.8028
 4981TIP3   OH239137   5.755   4.377  12.839  0.5478  0.3913  0.0025
 4981TIP3    H139138   5.787   4.449  12.893  2.5521 -0.8518  0.5770
 4981TIP3    H239139   5.828   4.316  12.834 -1.2795 -1.9449  0.0601
 4982TIP3   OH239140   2.470   2.867  12.751  0.1794  0.3646  0.2587
 4982TIP3    H139141   2.530   2.942  12.757  0.1531  0.3262  1.1789
 4982TIP3    H239142   2.526   2.791  12.764  0.0260  0.2932  0.5004
 4983TIP3   OH239143   0.283   0.450  12.241 -0.4466  0.2074 -0.6434
 4983TIP3    H139144   0.259   0.409  12.158  0.7116 -0.8258 -0.4948
 4983TIP3    H239145   0.274   0.380  12.306 -0.3880  0.7399 -0.0560
 4984TIP3   OH239146   3.199   2.394  11.499  0.2235  0.0412 -0.3252
 4984TIP3    H139147   3.187   2.304  11.470  2.0711 -0.1686 -0.5539
 4984TIP3    H239148   3.281   2.393  11.548 -1.5527  0.8971  2.9309
 4985TIP3   OH239149   0.878   4.267  11.719 -0.1425 -0.0201 -0.2437
 4985TIP3    H139150   0.808   4.221  11.672 -0.9762  0.1779  0.7631
 4985TIP3    H239151   0.880   4.354  11.679 -0.2787 -0.1184 -0.4714
 4986TIP3   OH239152   3.206   3.695  12.689  0.5060 -0.2990 -0.5230
 4986TIP3    H139153   3.159   3.658  12.764 -0.3677  0.2606 -0.7676
 4986TIP3    H239154   3.146   3.682  12.615  0.0303  1.8116 -0.5683
 4987TIP3   OH239155   6.803   2.552  12.319 -0.1707  0.1554 -0.0257
 4987TIP3    H139156   6.786   2.594  12.235  1.8992  1.1381 -0.0027
 4987TIP3    H239157   6.892   2.577  12.341  0.1493 -1.9624  1.3820
 4988TIP3   OH239158   0.095   2.112  10.971 -0.2275  0.6448 -0.4820
 4988TIP3    H139159   0.170   2.125  10.912  0.3021 -0.4240 -0.0547
 4988TIP3    H239160   0.030   2.067  10.917 -0.0883  0.4703 -0.5041
 4989TIP3   OH239161   5.602   1.848  11.550 -0.0144  0.2912  0.1578
 4989TIP3    H139162   5.542   1.813  11.617 -0.1161 -0.0063 -0.0840
 4989TIP3    H239163   5.595   1.785  11.478  0.2184  0.5249 -0.0661
 4990TIP3   OH239164   2.064   2.097  13.186 -0.2154 -0.0994  0.5482
 4990TIP3    H139165   2.056   2.081  13.092  1.3465  1.2511  0.1354
 4990TIP3    H239166   2.055   2.192  13.195  0.8036 -0.0764  1.5993
 4991TIP3   OH239167   1.253   5.778  12.516  0.0340  0.2001  0.0785
 4991TIP3    H139168   1.206   5.812  12.440  0.2727 -1.2206 -0.7463
 4991TIP3    H239169   1.344   5.804  12.501  0.0059  0.3042  0.0919
 4992TIP3   OH239170   3.772   5.907  11.605 -0.5385 -0.1420  0.4099
 4992TIP3    H139171   3.851   5.929  11.654 -1.1976  0.3997  1.2554
 4992TIP3    H239172   3.754   5.984  11.552 -1.1105  0.1809  1.0540
 4993TIP3   OH239173   6.202   1.937  12.644  0.2575 -0.1279  0.6420
 4993TIP3    H139174   6.234   1.878  12.575  0.9464  1.0045 -0.0500
 4993TIP3    H239175   6.282   1.978  12.679 -0.2506  1.0031  0.5251
 4994TIP3   OH239176   1.929   2.378  10.941  0.2396  0.3109  0.2195
 4994TIP3    H139177   1.935   2.392  11.035  0.9584 -1.1947  0.4331
 4994TIP3    H239178   1.835   2.384  10.922 -0.0223 -0.3699  1.2141
 4995TIP3   OH239179   5.060   1.295  11.717  0.0358  0.1670  0.0850
 4995TIP3    H139180   4.973   1.334  11.706  0.1642  0.2039 -0.8334
 4995TIP3    H239181   5.120   1.362  11.684  0.2950 -0.5639 -0.9633
 4996TIP3   OH239182   5.945   3.223  10.140 -0.1035 -0.1073 -0.3243
 4996TIP3    H139183   6.035   3.255  10.147 -0.6351  1.5509 -0.5666
 4996TIP3    H239184   5.895   3.277  10.201 -0.9821 -0.8715 -0.3392
 4997TIP3   OH239185   2.031   5.474   9.795  0.0432  0.0956  0.1663
 4997TIP3    H139186   1.946   5.472   9.751  0.1549 -0.4172 -0.0446
 4997TIP3    H239187   2.092   5.439   9.730  0.5758  1.2819  0.0033
 4998TIP3   OH239188   4.291   4.533  10.622  0.3233 -0.2428 -0.3706
 4998TIP3    H139189   4.364   4.513  10.564  0.6260  1.7178 -0.7242
 4998TIP3    H239190   4.263   4.621  10.597 -1.9916 -0.8204 -0.0526
 4999TIP3   OH239191   3.304   4.304  13.121  0.0315  0.2933 -0.0523
 4999TIP3    H139192   3.234   4.365  13.144 -1.1029 -0.4954 -1.2461
 4999TIP3    H239193   3.344   4.341  13.042  0.3871  0.3046  0.1325
 5000TIP3   OH239194   0.954   2.134  12.943  0.3085 -0.0153 -0.1354
 5000TIP3    H139195   0.866   2.173  12.941 -0.0728 -0.8542 -0.0637
 5000TIP3    H239196   0.992   2.164  13.026 -0.0485  0.0505  0.0059
 5001TIP3   OH239197   4.597   5.861  12.724 -0.5502  0.3307 -0.3225
 5001TIP3    H139198   4.641   5.792  12.774  1.8536  1.5079 -0.6765
 5001TIP3    H239199   4.642   5.861  12.639 -1.2099  1.6377 -0.6928
 5002TIP3   OH239200   2.023   6.013  11.979  0.0538 -0.2704  0.8446
 5002TIP3    H139201   2.034   5.971  11.893  0.3111  0.8361  0.3132
 5002TIP3    H239202   2.098   5.982  12.030 -0.3594 -1.3124  0.8395
 5003TIP3   OH239203   6.592   5.677   9.979  0.4099  0.3680  0.1359
 5003TIP3    H139204   6.566   5.766  10.003  1.6180  0.5261  0.9822
 5003TIP3    H239205   6.685   5.685   9.958  0.8610 -0.9005  1.4914
 5004TIP3   OH239206   1.869   6.480  11.179  0.0024  0.4290 -0.0113
 5004TIP3    H139207   1.798   6.445  11.233 -0.8126  0.1978 -1.1719
 5004TIP3    H239208   1.827   6.550  11.128  0.8593  0.9733  0.0214
 5005TIP3   OH239209   2.821   3.002  13.081  0.5674 -0.4876 -0.2021
 5005TIP3    H139210   2.744   2.977  13.133  0.5760 -1.3638 -0.5754
 5005TIP3    H239211   2.813   2.948  13.002  1.7064 -0.7830 -0.1255
 5006TIP3   OH239212   2.443   3.632  11.277 -0.2771 -0.0115  0.1382
 5006TIP3    H139213   2.443   3.591  11.364 -1.6185 -1.0968 -0.3473
 5006TIP3    H239214   2.352   3.655  11.261 -0.1498 -0.4047 -1.2489
 5007TIP3   OH239215   6.528   3.599  10.757 -0.2937  0.6884 -0.2001
 5007TIP3    H139216   6.598   3.664  10.751 -0.4791  1.0954  1.5917
 5007TIP3    H239217   6.570   3.523  10.797 -0.9482  1.0920  1.3058
 5008TIP3   OH239218   3.475   2.284  11.914  0.6656  0.1209 -0.1980
 5008TIP3    H139219   3.534   2.228  11.964  0.9068  0.2124 -0.3726
 5008TIP3    H239220   3.472   2.366  11.964  0.0616 -0.1565  0.2230
 5009TIP3   OH239221   2.038   6.367  11.513  0.3579 -0.3500  0.0914
 5009TIP3    H139222   2.050   6.401  11.601  1.9652 -1.1539  0.2262
 5009TIP3    H239223   1.985   6.433  11.468 -1.6229 -0.5264  1.9996
 5010TIP3   OH239224   0.916   3.563  10.107  0.1528  0.1646 -0.1105
 5010TIP3    H139225   0.877   3.497  10.164 -0.3951 -0.6677 -1.3942
 5010TIP3    H239226   0.848   3.628  10.093  0.6677  1.0000  1.0913
 5011TIP3   OH239227   2.956   6.635  10.642  0.1294  0.1547  0.0977
 5011TIP3    H139228   2.877   6.688  10.627 -0.0834 -0.1043  0.2825
 5011TIP3    H239229   3.019   6.696  10.679  1.4148  1.3543 -3.6313
 5012TIP3   OH239230   0.767   3.180  12.808 -0.2416  0.2689  0.4023
 5012TIP3    H139231   0.723   3.150  12.728 -0.1251 -1.4636  0.9358
 5012TIP3    H239232   0.745   3.113  12.873 -0.7424  1.8871  1.9864
 5013TIP3   OH239233   0.706   5.413  12.269 -0.3204  0.0682 -0.0795
 5013TIP3    H139234   0.612   5.416  12.286 -0.2505  1.7148  0.1572
 5013TIP3    H239235   0.727   5.500  12.236  0.6758 -1.0464 -2.6607
 5014TIP3   OH239236   0.302   6.015  11.717  0.3739 -0.0506 -0.3398
 5014TIP3    H139237   0.324   5.984  11.629  0.7443  0.6084 -0.4834
 5014TIP3    H239238   0.210   5.989  11.729  0.4419 -0.5148 -0.7504
 5015TIP3   OH239239   5.142   5.418  11.222 -0.7343 -0.0786  0.3655
 5015TIP3    H139240   5.216   5.464  11.260 -0.9119  0.1849  0.3952
 5015TIP3    H239241   5.173   5.388  11.137 -0.1919 -1.0429  0.8833
 5016TIP3   OH239242   1.886   2.152  10.120  0.6018 -0.2986  0.4688
 5016TIP3    H139243   1.897   2.057  10.122 -0.5086 -0.4385  1.0156
 5016TIP3    H239244   1.823   2.170  10.191  1.6125  0.9591  1.0922
 5017TIP3   OH239245   5.992   6.605  12.811  0.3497 -0.1662  0.3156
 5017TIP3    H139246   5.896   6.606  12.807  0.3543 -0.9366 -0.3471
 5017TIP3    H239247   6.018   6.689  12.773 -0.0347 -0.8640 -1.6120
 5018TIP3   OH239248   4.492   5.468  13.321 -0.3649  0.1406  0.1049
 5018TIP3    H139249   4.435   5.441  13.249  0.1595 -0.3827 -0.1235
 5018TIP3    H239250   4.451   5.432  13.399 -0.9859  0.7868  0.0844
 5019TIP3   OH239251   1.904   0.046  10.871  0.1445 -0.3350 -0.1115
 5019TIP3    H139252   1.851   0.103  10.927  2.4974  0.6037  1.3043
 5019TIP3    H239253   1.901   0.088  10.785 -1.3088 -0.2777 -0.0623
 5020TIP3   OH239254   3.137   5.900  12.327  0.2733 -0.9128 -0.4413
 5020TIP3    H139255   3.119   5.806  12.329  2.5659 -1.4014  0.5933
 5020TIP3    H239256   3.094   5.934  12.405 -1.9105 -0.7395 -1.6260
 5021TIP3   OH239257   1.166   0.241  11.824 -0.2542  0.7920  0.3962
 5021TIP3    H139258   1.192   0.305  11.890 -2.5519  1.4445  0.7261
 5021TIP3    H239259   1.071   0.251  11.816 -0.2534 -0.4107 -1.8363
 5022TIP3   OH239260   3.619   5.067  11.415  0.6520 -0.0500 -0.1290
 5022TIP3    H139261   3.626   5.014  11.335  0.8927 -0.2146  0.0009
 5022TIP3    H239262   3.546   5.127  11.398 -0.0100 -0.8155 -0.0525
 5023TIP3   OH239263   5.055   2.115  12.119 -0.1628 -0.0038 -0.3120
 5023TIP3    H139264   5.148   2.093  12.118 -0.1475 -0.1322 -2.7092
 5023TIP3    H239265   5.038   2.146  12.208  2.6645  2.1289 -0.3931
 5024TIP3   OH239266   4.776   3.769  12.951 -0.3032 -0.5894 -0.8936
 5024TIP3    H139267   4.733   3.705  13.008 -0.5547 -0.9182 -1.4527
 5024TIP3    H239268   4.705   3.822  12.916  0.0610  2.4553  2.3921
 5025TIP3   OH239269   3.583   3.525  11.172 -0.0904 -0.6243 -0.1724
 5025TIP3    H139270   3.540   3.610  11.184  3.0826  0.7866  4.1160
 5025TIP3    H239271   3.514   3.461  11.189 -2.1440  1.0742 -1.5593
 5026TIP3   OH239272   4.619   3.266  11.991 -0.6434  0.2060  0.2495
 5026TIP3    H139273   4.549   3.330  11.997  1.0764  2.0563  1.8235
 5026TIP3    H239274   4.578   3.183  12.016 -2.9411  0.5714 -1.9602
 5027TIP3   OH239275   1.518   4.298  12.176  0.3712 -0.1026 -0.4927
 5027TIP3    H139276   1.547   4.343  12.097  0.9238 -0.3759 -0.4529
 5027TIP3    H239277   1.471   4.221  12.144  2.0517 -1.1391 -0.5821
 5028TIP3   OH239278   4.623   2.143  11.055  0.0266 -0.3567 -0.2463
 5028TIP3    H139279   4.715   2.163  11.075  0.2388 -0.0708 -1.4622
 5028TIP3    H239280   4.579   2.228  11.060  0.1074 -0.2599 -1.1031
 5029TIP3   OH239281   1.346   0.637  11.036 -0.8071  0.5136  0.2898
 5029TIP3    H139282   1.328   0.731  11.042  1.6608  1.0263  1.0125
 5029TIP3    H239283   1.383   0.614  11.122  0.0788 -0.7613 -0.4011
 5030TIP3   OH239284   5.749   4.656  12.928  0.2593  0.1592  0.1552
 5030TIP3    H139285   5.665   4.681  12.967 -0.3105  0.7394 -1.3551
 5030TIP3    H239286   5.787   4.739  12.899  1.8877  0.0278  1.7401
 5031TIP3   OH239287   2.578   6.310   9.603 -0.5190  0.1025 -0.4466
 5031TIP3    H139288   2.592   6.385   9.661 -1.1489  0.6917 -1.0352
 5031TIP3    H239289   2.606   6.340   9.517  1.4235 -1.1129 -0.3102
 5032TIP3   OH239290   0.771   2.013  12.428 -1.4207 -0.3415 -0.2170
 5032TIP3    H139291   0.757   1.997  12.522  0.0279 -0.8760 -0.0652
 5032TIP3    H239292   0.860   2.048  12.423 -1.8656  0.7269 -1.3093
 5033TIP3   OH239293   0.428   6.020   9.707 -0.3386  0.1762  0.0353
 5033TIP3    H139294   0.404   6.020   9.800 -0.9114 -0.7551 -0.1048
 5033TIP3    H239295   0.520   5.992   9.707 -1.6797 -5.2933  0.0831
 5034TIP3   OH239296   6.723   1.983  13.163  0.4415  0.3726  0.2013
 5034TIP3    H139297   6.747   1.899  13.122  0.6576  0.3582  0.3541
 5034TIP3    H239298   6.633   1.970  13.192  1.4368 -0.9888  3.1386
 5035TIP3   OH239299   2.487   5.169  11.864  0.2244  0.2336  0.1652
 5035TIP3    H139300   2.483   5.145  11.772 -0.2920  0.4138  0.1404
 5035TIP3    H239301   2.579   5.194  11.878  0.4935 -0.5760 -0.1002
 5036TIP3   OH239302   6.838   0.975  11.452  0.3993  0.1148  0.5742
 5036TIP3    H139303   6.905   1.025  11.500 -0.1879  3.8754 -2.0874
 5036TIP3    H239304   6.759   1.029  11.458 -1.2020 -2.0300 -0.0813
 5037TIP3   OH239305   6.318   5.140  10.578 -0.0602 -0.4696  0.0105
 5037TIP3    H139306   6.386   5.123  10.643 -1.0341 -1.2003  0.8762
 5037TIP3    H239307   6.364   5.137  10.494  1.2045  0.3528  0.6361
 5038TIP3   OH239308   2.478   5.337  10.134  0.1590  0.0127  0.1056
 5038TIP3    H139309   2.519   5.285  10.203  0.3641 -0.1673 -0.1510
 5038TIP3    H239310   2.501   5.428  10.155  0.2438 -0.0433  0.2557
 5039TIP3   OH239311   2.942   5.859  12.601  0.4383  0.2266 -0.0058
 5039TIP3    H139312   2.962   5.942  12.557 -2.9994  1.2020 -0.0042
 5039TIP3    H239313   2.857   5.833  12.564 -0.4733 -1.1956  2.8468
 5040TIP3   OH239314   6.486   4.189  11.280  0.0289  0.0708 -0.2821
 5040TIP3    H139315   6.570   4.171  11.238 -1.5306 -1.8127 -2.8851
 5040TIP3    H239316   6.472   4.283  11.265  0.6725 -0.0568 -1.8851
 5041TIP3   OH239317   3.403   4.778  11.920  0.0465  0.4391  0.4899
 5041TIP3    H139318   3.460   4.855  11.923 -0.1300  0.5704  0.5174
 5041TIP3    H239319   3.431   4.730  11.843 -0.7776  1.2639 -0.3521
 5042TIP3   OH239320   6.610   5.859  11.559 -0.4074  0.0569 -0.1221
 5042TIP3    H139321   6.537   5.894  11.609 -2.4319 -0.3080 -2.6082
 5042TIP3    H239322   6.614   5.914  11.481  0.7286 -1.1171 -0.9410
 5043TIP3   OH239323   3.098   6.060   9.999  0.5099  0.0396 -0.0023
 5043TIP3    H139324   3.131   6.148   9.979  0.5586  0.1127  0.3890
 5043TIP3    H239325   3.148   6.033  10.076  0.1255 -0.1197  0.1930
 5044TIP3   OH239326   0.344   6.523  12.435  0.0637  0.0673  0.4858
 5044TIP3    H139327   0.332   6.589  12.504  1.0321 -0.9590  1.6901
 5044TIP3    H239328   0.401   6.566  12.371 -0.5079  0.9041  0.5268
 5045TIP3   OH239329   5.668   3.908  10.814 -0.0419 -0.1405 -0.2110
 5045TIP3    H139330   5.688   3.920  10.721 -0.2563  1.0916 -0.1107
 5045TIP3    H239331   5.609   3.980  10.836  2.0806  1.2115  1.4976
 5046TIP3   OH239332   6.004   0.220  10.370  0.0391 -0.5914 -0.0926
 5046TIP3    H139333   5.992   0.315  10.376  1.0295 -0.4774  0.2214
 5046TIP3    H239334   5.962   0.196  10.287  1.0409  0.3401 -0.9000
 5047TIP3   OH239335   6.569   6.260  10.613 -0.2136 -0.0384  0.1163
 5047TIP3    H139336   6.566   6.355  10.609 -0.1581 -0.0718 -1.7468
 5047TIP3    H239337   6.478   6.232  10.620 -0.5825  0.1236 -2.8725
 5048TIP3   OH239338   2.800   0.446  11.851  0.1039  0.1963 -0.9410
 5048TIP3    H139339   2.720   0.499  11.844  1.0868  1.6962 -1.2351
 5048TIP3    H239340   2.858   0.497  11.907  0.7450 -1.0426 -0.4383
 5049TIP3   OH239341   4.220   2.792  11.898 -0.2989  0.0120 -0.1382
 5049TIP3    H139342   4.254   2.710  11.864  1.0846  1.1443 -1.6830
 5049TIP3    H239343   4.227   2.853  11.825 -2.2104  1.2890  0.6478
 5050TIP3   OH239344   1.598   3.132   9.389  0.5650 -0.4723 -0.3282
 5050TIP3    H139345   1.676   3.188   9.389 -0.3622  0.8689 -0.4811
 5050TIP3    H239346   1.525   3.193   9.375 -0.5079 -1.7056 -0.2620
 5051TIP3   OH239347   3.222   5.237  12.447  0.1136 -0.2254  0.4680
 5051TIP3    H139348   3.201   5.161  12.392  0.2962 -1.4223  2.0073
 5051TIP3    H239349   3.164   5.306  12.415 -2.1107 -1.8095  0.8843
 5052TIP3   OH239350   2.615   4.601   9.558  0.0135 -0.1923  0.5379
 5052TIP3    H139351   2.669   4.664   9.510 -0.3487 -0.8582 -0.8003
 5052TIP3    H239352   2.672   4.525   9.570 -0.6301 -0.9837 -1.0743
 5053TIP3   OH239353   4.696   2.275   9.280  0.4748 -0.0864 -0.1740
 5053TIP3    H139354   4.756   2.349   9.276 -0.3781  1.0258  3.4997
 5053TIP3    H239355   4.625   2.298   9.219 -0.1662  2.6356  1.4549
 5054TIP3   OH239356   3.707   4.800  10.175  0.8897  0.3234 -0.0996
 5054TIP3    H139357   3.617   4.801  10.144  0.7203 -0.3774  0.3399
 5054TIP3    H239358   3.711   4.873  10.237  0.2093 -0.4761  0.9439
 5055TIP3   OH239359   5.099   0.482  13.230  0.3987 -0.5503 -0.2362
 5055TIP3    H139360   5.123   0.514  13.317  0.0125 -2.6801  0.7104
 5055TIP3    H239361   5.182   0.471  13.185  0.7780 -1.3961  0.6223
 5056TIP3   OH239362   2.527   4.692   9.172  0.1490  0.2695  0.1578
 5056TIP3    H139363   2.500   4.762   9.112  0.6357  2.1336  1.9886
 5056TIP3    H239364   2.507   4.611   9.124 -1.5411  1.6032 -1.6002
 5057TIP3   OH239365   3.320   2.845  11.243  0.1230 -0.1629 -0.0679
 5057TIP3    H139366   3.242   2.872  11.194  0.1274 -0.2236 -0.1075
 5057TIP3    H239367   3.381   2.813  11.176  0.4298  0.4879 -0.1066
 5058TIP3   OH239368   1.827   4.110  12.156 -0.1499  0.3158  0.7974
 5058TIP3    H139369   1.768   4.111  12.231 -0.5185  0.3039  0.5073
 5058TIP3    H239370   1.864   4.022  12.156 -1.3922 -0.2326  0.0034
 5059TIP3   OH239371   5.945   4.151  11.811 -0.6114  0.6369  0.3853
 5059TIP3    H139372   6.025   4.126  11.857 -0.7698 -0.6212  0.0011
 5059TIP3    H239373   5.905   4.218  11.868  0.4303  0.8936  0.8375
 5060TIP3   OH239374   5.503   5.879  11.847  0.2650 -0.2885  0.4170
 5060TIP3    H139375   5.532   5.969  11.864  1.9960 -0.5895 -0.6533
 5060TIP3    H239376   5.416   5.888  11.810  0.9569  1.1043 -1.0122
 5061TIP3   OH239377   3.312   3.380  11.711  0.2398 -0.2626 -0.1074
 5061TIP3    H139378   3.272   3.316  11.652 -0.1623  0.0709 -0.2002
 5061TIP3    H239379   3.383   3.419  11.659 -0.5022  0.4694 -0.5967
 5062TIP3   OH239380   4.858   6.688  12.582 -0.3078 -0.2398  1.0660
 5062TIP3    H139381   4.782   6.665  12.635 -0.2452  0.5206  1.4954
 5062TIP3    H239382   4.881   6.776  12.610 -1.4695  1.0073 -1.6248
 5063TIP3   OH239383   6.758   1.878  11.859 -0.2648  0.1815  0.4199
 5063TIP3    H139384   6.852   1.884  11.879 -0.2805 -0.7165  0.7865
 5063TIP3    H239385   6.729   1.969  11.857  0.9229  0.5853 -1.2605
 5064TIP3   OH239386   0.297   0.115  12.788 -0.6995  0.3275 -0.0396
 5064TIP3    H139387   0.258   0.070  12.713  0.5339  0.5217 -0.8361
 5064TIP3    H239388   0.267   0.067  12.864 -2.9022  0.7843 -0.5529
 5065TIP3   OH239389   2.441   6.004  11.074 -0.6262  0.1174 -0.1479
 5065TIP3    H139390   2.387   6.061  11.129 -0.3170  0.0755  0.2031
 5065TIP3    H239391   2.377   5.954  11.022 -0.8955  1.3375 -1.0467
 5066TIP3   OH239392   5.041   3.996  12.351 -0.4065  0.1305  0.0093
 5066TIP3    H139393   4.993   4.046  12.418  1.3721  1.4624  0.3597
 5066TIP3    H239394   5.087   3.928  12.401  1.9478  1.9045  0.4347
 5067TIP3   OH239395   0.020   1.966  12.702  0.1411 -0.5542 -0.0573
 5067TIP3    H139396   0.095   1.924  12.745  0.5142  1.4487  1.4066
 5067TIP3    H239397  -0.039   1.989  12.774 -1.1919 -0.7470 -1.0451
 5068TIP3   OH239398   6.398   5.007  10.360 -0.2226 -0.1013 -0.0853
 5068TIP3    H139399   6.455   5.053  10.299 -0.9456  2.3566  0.9361
 5068TIP3    H239400   6.315   4.999  10.314  0.0736 -1.0070 -0.4886
 5069TIP3   OH239401   0.438   3.608  12.097 -0.3689  0.1935  0.1811
 5069TIP3    H139402   0.449   3.664  12.020 -1.2207 -1.9399 -1.6049
 5069TIP3    H239403   0.517   3.553  12.097  0.0161  0.7176  1.3619
 5070TIP3   OH239404   0.824   0.614  11.955 -0.1403  0.1657 -0.6437
 5070TIP3    H139405   0.818   0.654  11.868  1.6627  1.7034 -0.1244
 5070TIP3    H239406   0.773   0.672  12.012 -1.6837 -1.0732 -0.6911
 5071TIP3   OH239407   5.202   4.630  10.417  0.4680  0.3047  0.2271
 5071TIP3    H139408   5.115   4.598  10.440  1.1288  0.2910  3.1390
 5071TIP3    H239409   5.186   4.711  10.368 -1.1724  0.1048  0.3853
 5072TIP3   OH239410   1.015   4.592  11.831 -0.0036  0.3924 -0.1180
 5072TIP3    H139411   1.044   4.557  11.915  0.7667 -1.3558 -1.0558
 5072TIP3    H239412   0.920   4.600  11.840 -0.4517 -3.2222 -0.1895
 5073TIP3   OH239413   6.345   0.110  13.016 -0.3984  0.3615 -0.3982
 5073TIP3    H139414   6.402   0.186  13.000  0.4397  0.1384  1.2907
 5073TIP3    H239415   6.384   0.040  12.963  0.3756  0.4544  0.0266
 5074TIP3   OH239416   3.051   2.240  12.179  0.3260 -0.0822  0.1626
 5074TIP3    H139417   3.090   2.250  12.092 -0.4012 -0.2128 -0.1815
 5074TIP3    H239418   2.961   2.270  12.169  0.6921  1.5667  1.2790
 5075TIP3   OH239419   5.450   6.785  11.086  0.4158 -0.1327  0.3086
 5075TIP3    H139420   5.517   6.849  11.064 -1.9540  2.3342 -0.2349
 5075TIP3    H239421   5.392   6.783  11.010  0.9534 -3.9332 -0.2278
 5076TIP3   OH239422   5.229   4.826   9.861  0.4833 -0.6263 -0.0508
 5076TIP3    H139423   5.266   4.882   9.792  1.5657 -1.1041  0.1159
 5076TIP3    H239424   5.268   4.740   9.846  0.6833 -0.7611  1.1045
 5077TIP3   OH239425   0.811   4.755   9.623  0.2836 -0.5151 -0.7077
 5077TIP3    H139426   0.719   4.733   9.607  0.2577  0.8231 -2.6835
 5077TIP3    H239427   0.859   4.678   9.592 -0.1441 -1.4949  0.9327
 5078TIP3   OH239428   5.133   0.629  10.853  0.1585  0.0954 -0.3525
 5078TIP3    H139429   5.133   0.723  10.872  0.7606  0.6151 -2.6254
 5078TIP3    H239430   5.060   0.617  10.792  0.5643 -0.7779 -0.6774
 5079TIP3   OH239431   4.489   4.990  12.519  0.5703 -0.3453 -0.1884
 5079TIP3    H139432   4.395   5.008  12.511  0.6221 -0.0680 -0.1686
 5079TIP3    H239433   4.498   4.899  12.489  0.3014 -0.3615 -0.2244
 5080TIP3   OH239434   6.274   4.095  12.600  0.2117  0.0390 -0.3407
 5080TIP3    H139435   6.227   4.093  12.517  0.7856 -0.1463 -0.6655
 5080TIP3    H239436   6.245   4.017  12.647 -0.9257  0.7022  0.0928
 5081TIP3   OH239437   5.511   5.906  12.807 -0.2888  0.7261  0.1984
 5081TIP3    H139438   5.437   5.958  12.840 -1.0349  1.1606 -1.9657
 5081TIP3    H239439   5.573   5.971  12.774  0.3994  0.3213  0.6899
 5082TIP3   OH239440   6.759   1.128  10.668 -0.5024 -0.1226 -0.6904
 5082TIP3    H139441   6.663   1.130  10.666 -0.4960  0.3574 -0.6369
 5082TIP3    H239442   6.784   1.091  10.583 -0.7360 -0.4538 -0.6206
 5083TIP3   OH239443   6.517   4.098  12.992 -0.0102  0.1431  0.0791
 5083TIP3    H139444   6.437   4.090  12.940  0.2817  0.7898 -0.4879
 5083TIP3    H239445   6.539   4.191  12.988  1.7770 -0.2778 -1.3241
 5084TIP3   OH239446   1.681   5.005  13.105  0.1486 -0.2780  0.2911
 5084TIP3    H139447   1.685   5.097  13.132  0.7292  0.1181 -1.0858
 5084TIP3    H239448   1.666   5.008  13.011 -0.9878 -1.6187  0.3829
 5085TIP3   OH239449   4.293   5.638  12.345  0.7581  0.4406  0.5586
 5085TIP3    H139450   4.212   5.650  12.395  1.8371 -0.3778  2.6184
 5085TIP3    H239451   4.296   5.544  12.326  0.8987  0.5765 -0.1228
 5086TIP3   OH239452   5.921   6.763  11.612 -0.4091 -0.0451 -0.0993
 5086TIP3    H139453   6.000   6.772  11.559 -0.2288 -0.8908  0.0097
 5086TIP3    H239454   5.945   6.701  11.681 -0.7408  0.7783  0.7843
 5087TIP3   OH239455   2.480   5.268  10.739  0.0465  0.1843  0.4035
 5087TIP3    H139456   2.539   5.194  10.720 -0.6099  0.0313 -1.1615
 5087TIP3    H239457   2.403   5.252  10.684 -0.1344  2.0066  0.0726
 5088TIP3   OH239458   3.696   4.509   9.881 -0.6677 -0.2784 -0.1191
 5088TIP3    H139459   3.609   4.549   9.890 -0.7052 -0.0958 -1.1387
 5088TIP3    H239460   3.688   4.453   9.804  0.3908  0.4570 -0.7772
 5089TIP3   OH239461   2.371   6.662  12.130 -0.3217  0.4053  0.2091
 5089TIP3    H139462   2.313   6.701  12.196 -1.0419  0.1833 -0.2842
 5089TIP3    H239463   2.319   6.592  12.091  0.7127 -0.6027  0.5974
 5090TIP3   OH239464   1.885   0.741  12.217 -0.3203  0.2388 -0.4638
 5090TIP3    H139465   1.845   0.741  12.130  2.4302  1.9392 -1.8861
 5090TIP3    H239466   1.925   0.828  12.225  0.0390 -0.1056  2.2498
 5091TIP3   OH239467   3.326   4.083  12.961 -0.0006 -0.2937  0.2126
 5091TIP3    H139468   3.305   4.149  13.027  1.7893 -0.6393  1.1898
 5091TIP3    H239469   3.406   4.042  12.993 -0.1601 -1.8208 -1.2113
 5092TIP3   OH239470   3.485   1.077  12.846  0.1606 -0.5407  0.5428
 5092TIP3    H139471   3.422   1.061  12.776  1.1939  1.0392 -0.8016
 5092TIP3    H239472   3.565   1.103  12.802  1.6363 -1.8807  2.2380
 5093TIP3   OH239473   3.045   0.562   9.557 -0.2356 -0.0201  0.0648
 5093TIP3    H139474   3.133   0.599   9.562 -0.1795 -0.2129  0.5887
 5093TIP3    H239475   3.020   0.570   9.465  0.4134 -0.1626 -0.1224
 5094TIP3   OH239476   3.008   0.915  11.572  0.0943  0.4563  0.5816
 5094TIP3    H139477   3.036   0.859  11.499  0.1429  0.0202  0.9265
 5094TIP3    H239478   2.937   0.967  11.536 -0.1352 -0.0241  0.3242
 5095TIP3   OH239479   1.295   6.039  13.213 -0.3193 -0.0463  0.0744
 5095TIP3    H139480   1.304   6.011  13.304 -1.1258 -0.5987 -0.0002
 5095TIP3    H239481   1.298   5.958  13.163 -0.5786  0.1910 -0.3277
 5096TIP3   OH239482   0.298   2.026  11.520  0.0073 -0.0966 -0.4976
 5096TIP3    H139483   0.344   1.990  11.596 -1.1980 -0.7633 -0.0538
 5096TIP3    H239484   0.345   1.992  11.444 -0.4553 -1.7767 -0.0756
 5097TIP3   OH239485   4.258   0.672  10.861  0.7773  0.0061 -0.0500
 5097TIP3    H139486   4.273   0.604  10.927 -2.3953 -1.8548 -1.0494
 5097TIP3    H239487   4.246   0.624  10.779 -1.4167  1.7282 -0.8363
 5098TIP3   OH239488   3.572   3.601  10.504  0.0423  0.3256 -0.1035
 5098TIP3    H139489   3.477   3.587  10.504  0.0021  0.5656 -0.8649
 5098TIP3    H239490   3.607   3.526  10.456  0.1547  0.7343 -0.6657
 5099TIP3   OH239491   1.517   6.621  13.183 -0.3892 -0.4123 -0.4981
 5099TIP3    H139492   1.609   6.598  13.193  0.2913  1.0195 -2.6692
 5099TIP3    H239493   1.517   6.717  13.180 -2.2239 -0.2697  1.3071
 5100TIP3   OH239494   3.304   1.994  12.015  0.4068 -0.2027  0.0213
 5100TIP3    H139495   3.294   2.034  12.102  0.5979 -1.7292  0.7901
 5100TIP3    H239496   3.397   1.973  12.010  0.4809  0.3024 -0.7593
 5101TIP3   OH239497   2.759   1.712  11.349  0.0404  0.2042  0.0374
 5101TIP3    H139498   2.814   1.771  11.296  0.0362  0.4903  0.3501
 5101TIP3    H239499   2.822   1.661  11.400  0.0333  0.1595  0.0015
 5102TIP3   OH239500   2.383   4.184  10.374  0.0915  0.2319 -0.0563
 5102TIP3    H139501   2.474   4.212  10.384  0.2057 -0.3324  0.5262
 5102TIP3    H239502   2.389   4.100  10.329 -0.1828  0.4871 -0.5866
 5103TIP3   OH239503   6.028   3.393  12.030 -0.1843 -0.0700  0.5755
 5103TIP3    H139504   6.095   3.446  11.986  0.2934 -0.4466  0.8419
 5103TIP3    H239505   5.991   3.338  11.961  0.3560 -0.4464  0.5858
 5104TIP3   OH239506   5.700   6.664  12.890 -0.1506  0.1989  0.2705
 5104TIP3    H139507   5.666   6.652  12.801  1.3603 -2.7082 -0.0470
 5104TIP3    H239508   5.622   6.678  12.944 -1.2891 -0.1874 -1.2129
 5105TIP3   OH239509   2.622   0.139   9.816  0.3112 -0.0794 -0.1274
 5105TIP3    H139510   2.592   0.102   9.899  0.9058  1.4091  0.7907
 5105TIP3    H239511   2.653   0.064   9.766 -0.7200 -1.0952  0.7066
 5106TIP3   OH239512   3.613   0.360  13.121  0.3182  0.0240 -0.0619
 5106TIP3    H139513   3.688   0.302  13.112  0.1783 -0.2509  0.5362
 5106TIP3    H239514   3.580   0.345  13.209 -0.3925  0.1979 -0.2869
 5107TIP3   OH239515   3.620   6.248  13.145  0.4170 -0.3795  0.1378
 5107TIP3    H139516   3.577   6.225  13.228  0.2195  1.8285  0.6995
 5107TIP3    H239517   3.548   6.274  13.087  0.7885  1.3169  0.3998
 5108TIP3   OH239518   4.578   4.275  11.251  1.1223 -0.6118  0.4481
 5108TIP3    H139519   4.582   4.233  11.337  3.0792 -2.4901 -0.4656
 5108TIP3    H239520   4.538   4.209  11.194  1.4404 -0.0613 -0.4370
 5109TIP3   OH239521   6.102   5.895  12.798 -0.4041  0.1411 -0.2047
 5109TIP3    H139522   6.109   5.960  12.868  0.9172 -0.4764  0.2936
 5109TIP3    H239523   6.186   5.900  12.752  0.3964 -2.1972  0.8015
 5110TIP3   OH239524   2.605   3.671  11.586 -0.5881 -0.1053  0.0133
 5110TIP3    H139525   2.601   3.619  11.667 -0.6043 -0.6102 -0.3050
 5110TIP3    H239526   2.698   3.684  11.570 -0.4742 -1.8414 -1.0197
 5111TIP3   OH239527   3.087   2.695  10.713 -0.3320 -0.1688  0.4890
 5111TIP3    H139528   3.013   2.715  10.656 -0.4806 -0.5230  0.5522
 5111TIP3    H239529   3.048   2.645  10.785 -0.3861  1.4497  1.6305
 5112TIP3   OH239530   4.295   0.934  12.308 -0.1761  0.2641 -0.2151
 5112TIP3    H139531   4.244   0.854  12.296  0.3148 -0.6192  2.6564
 5112TIP3    H239532   4.248   0.981  12.377  2.2774 -0.1485  1.8718
 5113TIP3   OH239533   4.370   5.931  11.076  0.3626  0.4074 -0.1390
 5113TIP3    H139534   4.348   6.015  11.115  0.8372  0.4273  0.0982
 5113TIP3    H239535   4.448   5.902  11.124  0.8779  0.3716 -0.9908
 5114TIP3   OH239536   6.389   5.231  11.721  0.2088  0.0836 -0.0780
 5114TIP3    H139537   6.321   5.271  11.667 -0.1685 -0.3430  0.0720
 5114TIP3    H239538   6.349   5.225  11.808  0.3525 -0.3968 -0.0464
 5115TIP3   OH239539   6.192   1.195  13.199  0.5320 -0.8474  0.5122
 5115TIP3    H139540   6.104   1.162  13.212 -0.4006  1.9760  2.4571
 5115TIP3    H239541   6.194   1.225  13.108 -0.0829 -2.0059  0.1068
 5116TIP3   OH239542   0.600   5.948  11.622 -0.3043 -0.6738  0.5795
 5116TIP3    H139543   0.622   5.952  11.715 -2.2857 -1.2257  1.1264
 5116TIP3    H239544   0.523   5.891  11.618  1.5324 -3.2856 -1.7772
 5117TIP3   OH239545   4.956   5.265  11.413  0.1002  0.0841 -0.1346
 5117TIP3    H139546   5.010   5.321  11.357 -1.4064  0.4904 -1.2348
 5117TIP3    H239547   4.882   5.320  11.438 -0.4580 -0.8469  0.3182
 5118TIP3   OH239548   3.845   0.942  13.143  0.4027 -0.2446 -0.0716
 5118TIP3    H139549   3.826   0.987  13.225  2.4208  0.3192  0.1514
 5118TIP3    H239550   3.879   1.010  13.085 -1.0602 -0.6140 -1.4456
 5119TIP3   OH239551   0.658   2.801  10.555  0.0457 -0.7915  0.4698
 5119TIP3    H139552   0.603   2.800  10.476 -0.2599  1.1496  0.6186
 5119TIP3    H239553   0.748   2.807  10.522  0.1985 -3.2716  0.2454
 5120TIP3   OH239554   4.923   5.532  11.435  0.2049 -0.4995  0.2273
 5120TIP3    H139555   5.010   5.516  11.471  0.0429 -2.5196 -0.1703
 5120TIP3    H239556   4.938   5.588  11.359  1.3249 -1.8380 -0.5742
 5121TIP3   OH239557   1.491   2.073  11.530  0.3692 -0.2094  0.9879
 5121TIP3    H139558   1.418   2.088  11.469  1.4686 -0.6988 -0.5173
 5121TIP3    H239559   1.517   1.982  11.514  0.4297 -0.4901  2.5224
 5122TIP3   OH239560   2.523   5.027  11.133  0.1343 -0.7047 -0.0222
 5122TIP3    H139561   2.610   5.012  11.169 -0.2259  0.2910  1.3757
 5122TIP3    H239562   2.475   4.947  11.153 -0.3900  0.2155  2.9381
 5123TIP3   OH239563   2.819   5.083  10.492  0.0523 -0.2051  0.3358
 5123TIP3    H139564   2.893   5.135  10.523  0.3089  1.1815 -2.3096
 5123TIP3    H239565   2.855   4.996  10.476  1.4706  0.6955 -1.8353
 5124TIP3   OH239566   1.675   1.220  12.460 -0.0543  0.4132  0.0470
 5124TIP3    H139567   1.668   1.276  12.536  0.8556 -0.7336  1.0156
 5124TIP3    H239568   1.760   1.240  12.422  0.2887 -0.2974  0.4139
 5125TIP3   OH239569   0.433   5.515  12.184 -0.0456  0.5456  0.0263
 5125TIP3    H139570   0.352   5.554  12.152 -0.9593 -0.7841  0.6481
 5125TIP3    H239571   0.458   5.570  12.259  0.3055  1.6740 -0.8992
 5126TIP3   OH239572   0.033   3.125  13.026  0.0149  0.1802 -0.2626
 5126TIP3    H139573   0.117   3.167  13.008  0.5566 -1.7751 -2.9133
 5126TIP3    H239574  -0.031   3.182  12.984  0.6025 -0.8132 -2.6568
 5127TIP3   OH239575   4.726   4.720  11.306 -0.4654 -0.4043  0.1451
 5127TIP3    H139576   4.709   4.662  11.231 -2.6848 -0.4216  0.6020
 5127TIP3    H239577   4.767   4.664  11.371 -0.8100 -0.9963 -0.1415
 5128TIP3   OH239578   6.523   1.205  11.351 -0.0370 -0.4607 -0.0323
 5128TIP3    H139579   6.470   1.133  11.316 -0.2259  0.1478 -1.0429
 5128TIP3    H239580   6.549   1.176  11.438 -0.9771 -1.3130 -0.0209
 5129TIP3   OH239581   1.014   2.133  12.453 -0.2135 -0.1080 -0.4441
 5129TIP3    H139582   1.072   2.189  12.401  1.1543  0.4423  1.5387
 5129TIP3    H239583   1.051   2.136  12.541 -1.9990 -1.5767  0.4253
 5130TIP3   OH239584   6.623   3.543  11.233 -0.1328 -0.5366 -0.1550
 5130TIP3    H139585   6.541   3.591  11.222  0.6230  0.7335 -0.4536
 5130TIP3    H239586   6.597   3.451  11.235 -1.5550 -0.1596 -0.2844
 5131TIP3   OH239587   0.457   0.576  10.806 -0.3669  0.2896  0.4651
 5131TIP3    H139588   0.424   0.495  10.845  1.7452 -0.0057  1.7792
 5131TIP3    H239589   0.537   0.596  10.854 -0.6256  3.0041 -0.0511
 5132TIP3   OH239590   4.861   1.756  10.853  0.2513 -0.2671  0.1792
 5132TIP3    H139591   4.848   1.849  10.869 -2.4396 -0.7655  1.6919
 5132TIP3    H239592   4.912   1.725  10.928  0.5915 -0.1123  0.0106
 5133TIP3   OH239593   5.564   2.560  12.707 -0.2931  0.2183 -0.1984
 5133TIP3    H139594   5.550   2.631  12.644 -0.8452  2.4838  2.2816
 5133TIP3    H239595   5.628   2.596  12.770  3.3962 -3.3684 -1.4571
 5134TIP3   OH239596   1.890   5.407  12.168  0.3107 -0.0948  0.0393
 5134TIP3    H139597   1.958   5.474  12.173 -0.7203  0.9121  1.0217
 5134TIP3    H239598   1.890   5.380  12.076  1.7849  0.1242 -0.0517
 5135TIP3   OH239599   6.180   3.257  12.819  0.5090  0.4409 -0.4580
 5135TIP3    H139600   6.128   3.333  12.794  1.1338  0.8501 -0.5152
 5135TIP3    H239601   6.148   3.186  12.763 -0.0400  0.6652 -0.4329
 5136TIP3   OH239602   6.630   3.640  10.185  0.0005  0.0549 -0.1886
 5136TIP3    H139603   6.606   3.725  10.222  0.7219  0.7900 -1.3375
 5136TIP3    H239604   6.709   3.658  10.134  0.7976 -1.5449  0.4352
 5137TIP3   OH239605   2.477   4.038  11.279 -0.1841 -0.4022  0.3574
 5137TIP3    H139606   2.522   4.009  11.359  1.1162  1.8338  0.5030
 5137TIP3    H239607   2.513   4.124  11.261 -1.4015 -0.3098 -1.9593
 5138TIP3   OH239608   6.418   0.946  11.368 -0.1329  0.1032 -0.3004
 5138TIP3    H139609   6.487   0.933  11.303  1.2749  1.5064  0.8324
 5138TIP3    H239610   6.418   0.865  11.419  0.0106 -0.2829 -0.9011
 5139TIP3   OH239611   4.100   4.048  11.326 -0.2629  0.4085  0.2531
 5139TIP3    H139612   4.086   4.141  11.345 -1.1108  0.6261 -1.2463
 5139TIP3    H239613   4.017   4.019  11.290  0.5931 -0.4256 -1.1293
 5140TIP3   OH239614   6.774   5.750  12.488  0.2408 -0.2268 -0.2206
 5140TIP3    H139615   6.777   5.721  12.579  1.7019 -1.6924 -0.7002
 5140TIP3    H239616   6.753   5.843  12.493 -0.1849 -0.3875  1.5736
 5141TIP3   OH239617   4.169   1.013  11.762 -0.2742 -0.4122 -0.2028
 5141TIP3    H139618   4.254   1.057  11.763 -1.0969  1.2433  0.7553
 5141TIP3    H239619   4.187   0.927  11.723  1.8679 -0.1933  0.1805
 5142TIP3   OH239620   1.910   1.167  10.286 -0.1654 -0.0494 -0.4778
 5142TIP3    H139621   1.933   1.228  10.356 -1.0780  0.4600 -0.6042
 5142TIP3    H239622   1.981   1.102  10.286  1.1633  1.3519 -0.7595
 5143TIP3   OH239623   2.987   5.886  11.400 -0.1521  0.1513  0.4856
 5143TIP3    H139624   2.918   5.847  11.348 -0.9173  0.3315  1.3367
 5143TIP3    H239625   2.967   5.861  11.490  0.3632  0.9786  0.8520
 5144TIP3   OH239626   6.374   3.631  11.071  0.1593  0.1733 -0.2435
 5144TIP3    H139627   6.435   3.698  11.040 -0.1258 -0.3321 -1.9512
 5144TIP3    H239628   6.291   3.654  11.031  0.2886 -1.8000 -1.7646
 5145TIP3   OH239629   4.273   2.024  12.286 -0.5419 -0.0977 -0.3112
 5145TIP3    H139630   4.202   1.973  12.245  0.5072 -0.8263 -1.2993
 5145TIP3    H239631   4.343   1.960  12.298 -0.9217 -0.0336  3.1334
 5146TIP3   OH239632   2.042   5.199  12.718  0.1027  0.4714 -0.6896
 5146TIP3    H139633   1.976   5.259  12.754 -1.1986 -0.5898 -1.2335
 5146TIP3    H239634   1.991   5.134  12.670  1.4525 -1.1513 -0.0224
 5147TIP3   OH239635   2.682   2.649  12.715  0.0113  0.0306 -0.1638
 5147TIP3    H139636   2.716   2.607  12.636  0.7855 -0.8826  0.6303
 5147TIP3    H239637   2.686   2.581  12.782 -2.9504  0.0216  0.1153
 5148TIP3   OH239638   3.698   4.707  12.880  0.1081  0.2349 -0.5212
 5148TIP3    H139639   3.692   4.660  12.964  2.2395  0.2179 -0.3116
 5148TIP3    H239640   3.652   4.789  12.895 -0.8278 -0.3924  0.1743
 5149TIP3   OH239641   3.099   6.631  12.366  0.1450  0.0710 -0.1027
 5149TIP3    H139642   3.067   6.621  12.456  1.3500 -0.3029  0.2918
 5149TIP3    H239643   3.019   6.644  12.314 -0.5087  1.3234  1.1413
 5150TIP3   OH239644   1.468   5.192  10.108 -0.4447 -0.0540  0.1307
 5150TIP3    H139645   1.403   5.219  10.044 -0.4214 -0.9249 -0.2703
 5150TIP3    H239646   1.539   5.154  10.056  2.0222  3.8334  0.1998
 5151TIP3   OH239647   6.236   1.367  11.606 -0.0087 -0.7572  0.0830
 5151TIP3    H139648   6.263   1.281  11.572  1.9647  0.4812 -1.7477
 5151TIP3    H239649   6.300   1.386  11.675 -0.1483 -0.5567  0.1570
 5152TIP3   OH239650   2.525   3.931  11.538 -0.0361 -0.0038 -0.1607
 5152TIP3    H139651   2.542   3.836  11.541 -0.1376 -0.1478 -2.5651
 5152TIP3    H239652   2.432   3.940  11.558  0.3944 -0.1401  2.3174
 5153TIP3   OH239653   5.737   1.915  12.401 -0.1998  0.0870 -0.3840
 5153TIP3    H139654   5.803   1.879  12.461  1.2026  0.0135 -1.8859
 5153TIP3    H239655   5.654   1.882  12.434  0.4908  0.1956  1.5976
 5154TIP3   OH239656   3.617   6.385  12.208  0.0889 -0.9213  0.1687
 5154TIP3    H139657   3.548   6.349  12.264  0.0098 -1.4802 -0.2747
 5154TIP3    H239658   3.596   6.352  12.121  0.2799 -0.1616 -0.1740
 5155TIP3   OH239659   0.221   1.405  11.508 -0.2774  0.4090  0.2856
 5155TIP3    H139660   0.177   1.423  11.425 -1.7600 -0.9363  0.7286
 5155TIP3    H239661   0.279   1.480  11.521  0.7576  0.2031 -2.4178
 5156TIP3   OH239662   4.462   3.999  10.824 -0.0540  0.0047  0.8232
 5156TIP3    H139663   4.541   3.965  10.782  0.3440  0.1298  1.4642
 5156TIP3    H239664   4.394   3.990  10.757  0.0359 -2.0198  0.9349
 5157TIP3   OH239665   5.949   1.097  12.933  0.0299 -0.3655 -0.3237
 5157TIP3    H139666   5.937   1.107  13.028 -1.0624  3.4642 -0.6906
 5157TIP3    H239667   5.905   1.015  12.912 -2.4642  0.1885  2.1359
 5158TIP3   OH239668   4.613   4.089  11.514 -0.1818  0.1317  0.7616
 5158TIP3    H139669   4.534   4.048  11.480  0.4818 -1.0979  0.6213
 5158TIP3    H239670   4.684   4.032  11.483  0.8444  1.7548  0.0345
 5159TIP3   OH239671   5.681   5.938  12.512 -0.3884 -0.2181 -0.3156
 5159TIP3    H139672   5.661   5.975  12.598 -1.5215 -2.4100  0.4302
 5159TIP3    H239673   5.670   6.012  12.452 -1.9058  0.8432  1.1494
 5160TIP3   OH239674   3.074   6.076  11.195  0.6478 -0.2219  0.1903
 5160TIP3    H139675   3.029   6.055  11.277  1.7761 -1.5191  0.5161
 5160TIP3    H239676   3.007   6.120  11.142 -0.3144 -0.0115  1.5124
 5161TIP3   OH239677   2.515   3.308  10.822  0.4228 -0.3805  0.1349
 5161TIP3    H139678   2.443   3.267  10.774  1.2773 -1.7069 -0.0752
 5161TIP3    H239679   2.538   3.244  10.889  0.2636  0.7922  1.3345
 5162TIP3   OH239680   5.665   4.581   9.817 -0.4123 -0.6542  0.5408
 5162TIP3    H139681   5.593   4.578   9.880 -1.0758 -2.3475 -0.2364
 5162TIP3    H239682   5.623   4.593   9.732  0.4240  0.8694  0.3056
 5163TIP3   OH239683   0.600   1.515  10.125 -0.4341 -0.0557 -0.1762
 5163TIP3    H139684   0.577   1.588  10.183 -0.2874 -0.9168  1.0143
 5163TIP3    H239685   0.618   1.556  10.040  2.4100  1.6725  1.0942
 5164TIP3   OH239686   5.704   5.898  10.747  0.6542 -0.4317  0.0463
 5164TIP3    H139687   5.615   5.865  10.762  0.9699 -0.2159  2.8466
 5164TIP3    H239688   5.730   5.859  10.663 -2.2519 -0.0481 -1.1420
 5165TIP3   OH239689   4.256   6.436  12.506 -0.2310 -0.1758 -0.4929
 5165TIP3    H139690   4.192   6.445  12.576  1.3243  2.7983  0.7415
 5165TIP3    H239691   4.216   6.479  12.431 -0.4735 -0.1238 -0.3348
 5166TIP3   OH239692   5.387   4.551  11.623  0.1467 -0.6466  0.2620
 5166TIP3    H139693   5.441   4.619  11.663 -0.5506 -0.4893  0.9746
 5166TIP3    H239694   5.398   4.475  11.680 -0.0292 -0.7515  0.1572
 5167TIP3   OH239695   5.015   4.455  12.587  0.2319  0.0593 -0.4953
 5167TIP3    H139696   5.107   4.430  12.581 -0.3555 -2.3918 -0.6262
 5167TIP3    H239697   4.988   4.426  12.674 -0.2908  1.3338 -0.2108
 5168TIP3   OH239698   3.818   1.980  10.833  0.7011  0.3443 -0.2149
 5168TIP3    H139699   3.861   2.056  10.794  2.1671 -0.4885 -0.3096
 5168TIP3    H239700   3.731   1.978  10.793  1.7828  0.0918 -2.7630
 5169TIP3   OH239701   2.706   4.783   9.347  0.1627  0.1138 -0.1158
 5169TIP3    H139702   2.784   4.803   9.296  0.5023  0.3418  0.4933
 5169TIP3    H239703   2.648   4.738   9.285 -0.2734  2.1676 -1.2710
 5170TIP3   OH239704   6.270   5.991  10.143  0.1318 -0.5799  0.1915
 5170TIP3    H139705   6.354   5.950  10.123  0.3403 -0.1720  0.2289
 5170TIP3    H239706   6.208   5.948  10.084  0.3960 -0.7515  0.0359
 5171TIP3   OH239707   0.746   4.198  11.321  0.3271  0.2014  0.2375
 5171TIP3    H139708   0.690   4.221  11.395  2.0873  3.2062  0.8278
 5171TIP3    H239709   0.784   4.114  11.345 -1.7963 -0.5940  1.0461
 5172TIP3   OH239710   0.240   4.411  11.017 -0.2701 -0.0933  0.9833
 5172TIP3    H139711   0.320   4.420  11.069  1.0695 -0.9973 -0.8084
 5172TIP3    H239712   0.221   4.317  11.018  0.2068 -0.2454 -0.6723
 5173TIP3   OH239713   0.746   5.684  10.164  0.3083 -0.5718 -0.2268
 5173TIP3    H139714   0.699   5.645  10.091 -0.5940 -2.3423  1.2019
 5173TIP3    H239715   0.743   5.778  10.148  2.6369 -0.8882 -3.9177
 5174TIP3   OH239716   0.544   2.027   9.779  0.1591  0.2739  0.0142
 5174TIP3    H139717   0.586   2.109   9.805  0.7794 -0.2023  0.5461
 5174TIP3    H239718   0.612   1.961   9.790 -0.3231 -0.3053 -0.4517
 5175TIP3   OH239719   1.748   6.025  10.875  0.1073  0.5125  0.2036
 5175TIP3    H139720   1.686   6.064  10.936 -1.4024 -0.5169 -0.6022
 5175TIP3    H239721   1.801   6.098  10.845 -1.1607  1.5707  0.4318
 5176TIP3   OH239722   2.497   1.354  11.511 -0.1301 -0.4433 -0.7286
 5176TIP3    H139723   2.580   1.397  11.534 -1.6187  1.5175  1.4339
 5176TIP3    H239724   2.486   1.286  11.576 -1.8929  1.7606  1.4714
 5177TIP3   OH239725   3.917   6.124  10.693  0.1231  0.6298  0.6099
 5177TIP3    H139726   3.906   6.038  10.653  0.4276  1.0976 -0.5407
 5177TIP3    H239727   3.878   6.185  10.630  0.4136  1.3853  1.1406
 5178TIP3   OH239728   2.487   0.253  12.019  0.1075  0.5966 -0.0013
 5178TIP3    H139729   2.478   0.303  12.100 -0.0235 -1.3468  1.2544
 5178TIP3    H239730   2.397   0.231  11.994  0.2137 -0.0716  0.1788
 5179TIP3   OH239731   3.223   1.573  11.942  0.0737 -0.8954  0.4273
 5179TIP3    H139732   3.292   1.542  11.884  2.2130  2.8551  0.6398
 5179TIP3    H239733   3.171   1.632  11.887 -0.1182 -0.1283  1.4099
 5180TIP3   OH239734   3.173   5.649  10.621 -0.4987  0.4774  0.3177
 5180TIP3    H139735   3.229   5.597  10.563 -3.4517 -2.3159 -0.2724
 5180TIP3    H239736   3.118   5.701  10.561 -1.3587  0.0403  0.7198
 5181TIP3   OH239737   5.795   0.420  11.354 -0.0676 -0.5082 -0.1723
 5181TIP3    H139738   5.829   0.506  11.380  1.0380 -0.2709 -2.1968
 5181TIP3    H239739   5.704   0.421  11.384  0.0585  1.1574  0.2939
 5182TIP3   OH239740   5.761   3.668  10.946 -0.0341  0.5415 -0.1722
 5182TIP3    H139741   5.839   3.637  10.901  0.6559  0.3585  1.1175
 5182TIP3    H239742   5.736   3.748  10.899  1.0687  0.7288 -0.4551
 5183TIP3   OH239743   5.118   2.491  11.988  0.0385  0.7045 -0.4478
 5183TIP3    H139744   5.046   2.505  11.926 -0.6004  0.0551  0.1339
 5183TIP3    H239745   5.143   2.399  11.977  2.3751  1.4547 -2.2988
 5184TIP3   OH239746   5.800   2.711  10.916 -0.4062  0.1902 -0.4336
 5184TIP3    H139747   5.890   2.730  10.945 -0.6939  0.5064  0.2775
 5184TIP3    H239748   5.750   2.706  10.997 -0.9940 -0.2013 -0.8188
 5185TIP3   OH239749   2.513   5.970  10.682 -0.1994 -0.7203  0.1047
 5185TIP3    H139750   2.468   5.929  10.756 -1.0845 -0.6635 -0.3918
 5185TIP3    H239751   2.565   5.900  10.643  0.1531 -0.7853  0.6837
 5186TIP3   OH239752   1.742   6.169  10.250 -0.4097  0.0066  0.0091
 5186TIP3    H139753   1.731   6.237  10.183  0.6596  1.8315  1.5847
 5186TIP3    H239754   1.670   6.183  10.310 -0.2892 -0.3977  0.2535
 5187TIP3   OH239755   4.168   5.181  10.333  0.1717  0.0447  0.0547
 5187TIP3    H139756   4.097   5.154  10.275  0.4287  1.0159 -0.7438
 5187TIP3    H239757   4.195   5.266  10.300 -0.6035  1.3151  2.4487
 5188TIP3   OH239758   5.724   6.054  11.874  0.6466  0.2874 -0.7952
 5188TIP3    H139759   5.689   6.139  11.901 -0.3313 -0.3074 -0.0938
 5188TIP3    H239760   5.754   6.014  11.956  1.3523  0.0657 -1.1606
 5189TIP3   OH239761   4.755   1.925  11.773 -0.1407  0.0510  0.0372
 5189TIP3    H139762   4.845   1.897  11.757 -0.1483  0.6013 -1.0137
 5189TIP3    H239763   4.744   1.917  11.868  0.7692 -0.7373  0.0911
 5190TIP3   OH239764   1.057   5.314  11.479 -0.4725 -0.1864  0.3651
 5190TIP3    H139765   1.007   5.394  11.496  0.5851  0.4226  0.7298
 5190TIP3    H239766   1.062   5.309  11.383 -0.0889  0.4864  0.3463
 5191TIP3   OH239767   0.110   4.251  10.499 -0.5455 -0.1700 -0.0821
 5191TIP3    H139768   0.037   4.291  10.453 -1.0701  1.5754  2.1010
 5191TIP3    H239769   0.087   4.258  10.592  1.8285 -0.6971  0.6219
 5192TIP3   OH239770   3.046   3.269  10.973  0.1918 -0.0475  0.4361
 5192TIP3    H139771   3.016   3.339  11.031 -0.8633 -1.2010  1.3095
 5192TIP3    H239772   3.140   3.262  10.990 -0.1331 -0.5236  2.2124
 5193TIP3   OH239773   2.454   5.468  10.537  0.3661  0.1580 -0.0159
 5193TIP3    H139774   2.502   5.385  10.540  2.1307  1.1605  0.9655
 5193TIP3    H239775   2.520   5.535  10.551 -1.0052  1.7692 -0.8868
 5194TIP3   OH239776   3.371   5.136  13.166 -0.0442  0.3729  0.0010
 5194TIP3    H139777   3.334   5.196  13.101 -0.0569  0.4183  0.0492
 5194TIP3    H239778   3.326   5.053  13.151  1.6690 -0.3234 -1.6563
 5195TIP3   OH239779   1.215   3.461  12.727  0.2743  0.2322 -0.1105
 5195TIP3    H139780   1.175   3.387  12.682  3.0240 -2.2090  1.1623
 5195TIP3    H239781   1.143   3.501  12.775 -1.7373 -0.1121 -2.6118
 5196TIP3   OH239782   1.631   2.571  12.780 -0.3806 -0.2532 -0.3931
 5196TIP3    H139783   1.536   2.581  12.779 -0.2946  0.9214  0.4849
 5196TIP3    H239784   1.664   2.660  12.765  0.5415  0.0094  2.4957
 5197TIP3   OH239785   1.867   4.679  11.349 -0.3054 -0.3391 -0.1374
 5197TIP3    H139786   1.870   4.676  11.445 -0.4938 -0.6471 -0.1383
 5197TIP3    H239787   1.834   4.766  11.328  0.4823  0.0156  0.0603
 5198TIP3   OH239788   5.073   6.461  12.791 -0.2137  0.2766  0.2236
 5198TIP3    H139789   5.019   6.538  12.773 -0.3437  0.0340 -0.4307
 5198TIP3    H239790   5.052   6.400  12.721  2.8671  1.1549 -1.6335
 5199TIP3   OH239791   6.638   1.404  10.206 -0.4219 -0.0480 -0.2497
 5199TIP3    H139792   6.556   1.357  10.223  0.0632 -0.3638  1.3221
 5199TIP3    H239793   6.631   1.485  10.255  1.1717 -1.1577  1.9881
 5200TIP3   OH239794   4.162   5.722  11.396  0.5012  0.0188  0.2306
 5200TIP3    H139795   4.238   5.674  11.362  0.4344 -1.2511  1.7513
 5200TIP3    H239796   4.190   5.813  11.397  1.8207 -0.3639  0.2445
 5201TIP3   OH239797   6.129   3.680   9.631  0.2542  0.3157 -0.0060
 5201TIP3    H139798   6.218   3.655   9.606  0.7053  1.5326  0.3223
 5201TIP3    H239799   6.074   3.651   9.558  0.9944  0.0740 -0.4722
 5202TIP3   OH239800   5.161   4.849  10.278 -0.6414 -0.1902 -0.0413
 5202TIP3    H139801   5.181   4.902  10.201 -0.2268 -1.4080 -0.8151
 5202TIP3    H239802   5.066   4.844  10.280 -0.6399 -1.3118 -1.3394
 5203TIP3   OH239803   5.200   3.955  10.779 -0.0374 -0.0609  0.5956
 5203TIP3    H139804   5.222   4.045  10.800  0.5105 -0.2812  0.9830
 5203TIP3    H239805   5.207   3.908  10.862  2.6889 -1.0450 -0.0670
 5204TIP3   OH239806   1.545   0.962  11.429 -0.1010  0.0372 -0.2345
 5204TIP3    H139807   1.609   0.927  11.491 -1.9319  0.0912  1.7961
 5204TIP3    H239808   1.476   1.000  11.484 -1.5365  0.6247 -2.3177
 5205TIP3   OH239809   1.729   5.193  11.074  0.5579 -0.2048  0.8502
 5205TIP3    H139810   1.749   5.285  11.060 -0.1876 -0.2485 -0.7395
 5205TIP3    H239811   1.814   5.150  11.077  1.1539  0.8451  4.8905
 5206TIP3   OH239812   6.323   3.539  12.274  0.3107 -0.0250  0.0485
 5206TIP3    H139813   6.257   3.579  12.331  0.9231 -1.3751  1.8141
 5206TIP3    H239814   6.402   3.592  12.290  0.2343  0.2031 -0.3244
 5207TIP3   OH239815   1.677   2.509   9.650 -0.6848  0.0489  0.3506
 5207TIP3    H139816   1.602   2.495   9.706 -1.4726  1.2614 -0.3653
 5207TIP3    H239817   1.737   2.437   9.672 -1.3276 -0.0013  2.0886
 5208TIP3   OH239818   0.408   0.217  13.238  0.1436 -0.1136 -0.4241
 5208TIP3    H139819   0.346   0.250  13.173  0.9546  0.3417 -0.9810
 5208TIP3    H239820   0.460   0.293  13.263  1.8366 -0.8499 -1.5116
 5209TIP3   OH239821   5.021   6.684  11.738  0.4901  0.2639 -0.0885
 5209TIP3    H139822   5.027   6.659  11.830 -1.3681  1.4488  0.4185
 5209TIP3    H239823   4.954   6.627  11.701  0.8155  0.1800 -0.5540
 5210TIP3   OH239824   1.469   2.094  10.050 -0.7461  0.0905 -0.0668
 5210TIP3    H139825   1.553   2.121  10.012 -1.3171 -0.1173 -1.5259
 5210TIP3    H239826   1.404   2.116   9.983 -1.9993  1.1580  1.4432
 5211TIP3   OH239827   6.168   0.453  10.852 -0.5258 -0.1449 -0.3126
 5211TIP3    H139828   6.116   0.481  10.777 -0.9158  0.7815  0.2782
 5211TIP3    H239829   6.112   0.468  10.928  0.3779  0.3726  0.2899
 5212TIP3   OH239830   1.792   4.453  10.500  0.0616  0.5429 -0.7062
 5212TIP3    H139831   1.762   4.429  10.588  1.0053 -2.1138 -1.0193
 5212TIP3    H239832   1.887   4.455  10.507  0.1950 -0.6405 -1.8306
 5213TIP3   OH239833   3.568   3.001  10.511  0.9390 -0.2317 -0.0135
 5213TIP3    H139834   3.523   3.086  10.507 -0.6436 -1.0442 -0.1277
 5213TIP3    H239835   3.500   2.939  10.535  1.9080 -1.6131 -0.7055
 5214TIP3   OH239836   1.338   5.066  11.738 -0.2867 -0.2499 -0.6816
 5214TIP3    H139837   1.340   5.146  11.686  0.0449 -0.9610 -1.8027
 5214TIP3    H239838   1.245   5.049  11.752 -0.3630  0.2365 -0.5810
 5215TIP3   OH239839   6.648   0.648  12.820 -0.6832  0.0736  0.6643
 5215TIP3    H139840   6.611   0.722  12.869  0.8415  0.4265  1.3376
 5215TIP3    H239841   6.601   0.571  12.855 -1.2629  0.5636  0.9922
 5216TIP3   OH239842   2.261   6.090  12.169 -0.0942  0.4574 -0.2202
 5216TIP3    H139843   2.271   6.055  12.258  2.3286  0.7723 -0.3001
 5216TIP3    H239844   2.265   6.185  12.180  0.6724  0.4879 -0.6870
 5217TIP3   OH239845   1.743   3.823  10.701 -0.2577  0.9312  0.0821
 5217TIP3    H139846   1.800   3.758  10.742 -1.1561 -0.1171 -0.2699
 5217TIP3    H239847   1.692   3.859  10.773 -0.7871  0.1748  0.0927
 5218TIP3   OH239848   0.214   3.715  13.105  0.3231  0.5489 -0.4681
 5218TIP3    H139849   0.244   3.641  13.157 -0.1962 -0.1712 -1.1679
 5218TIP3    H239850   0.293   3.749  13.063  0.6894  0.9150  0.4799
 5219TIP3   OH239851   3.084   5.430  10.368  0.4525  0.4149 -0.2875
 5219TIP3    H139852   3.093   5.352  10.312 -0.8259 -0.2615  0.3918
 5219TIP3    H239853   3.121   5.501  10.316  1.2051 -0.5547 -1.1334
 5220TIP3   OH239854   6.555   2.447  12.343 -0.1743  0.4417 -0.0043
 5220TIP3    H139855   6.523   2.488  12.263  1.4250 -0.8970 -1.4268
 5220TIP3    H239856   6.650   2.457  12.338  0.0017 -0.3562  1.3304
 5221TIP3   OH239857   1.450   4.722  11.982  0.3881  0.3442  0.4221
 5221TIP3    H139858   1.406   4.642  11.955  0.6289  0.5910 -0.7543
 5221TIP3    H239859   1.402   4.792  11.939  0.4389  0.8128  1.1062
 5222TIP3   OH239860   0.015   1.340  12.334 -0.3749 -0.7683 -0.0639
 5222TIP3    H139861  -0.046   1.381  12.395 -1.0526 -1.5183 -0.2116
 5222TIP3    H239862   0.087   1.309  12.388  0.1694  0.6335  0.0403
 5223TIP3   OH239863   4.384   2.790   9.951  0.0416 -0.4803  0.1677
 5223TIP3    H139864   4.427   2.837  10.023 -0.8754 -1.6089  1.4900
 5223TIP3    H239865   4.326   2.855   9.911  0.5429  0.1525  0.4558
 5224TIP3   OH239866   0.808   2.638  10.338  0.1581  0.1106  0.0457
 5224TIP3    H139867   0.718   2.607  10.346  0.2619 -0.1988  0.0044
 5224TIP3    H239868   0.807   2.694  10.260  0.2143 -0.6585 -0.5195
 5225TIP3   OH239869   4.837   6.497  12.340  0.2396 -0.1536 -0.1092
 5225TIP3    H139870   4.824   6.572  12.399 -0.9640 -0.4251 -0.0043
 5225TIP3    H239871   4.928   6.505  12.311  0.7028  0.2879  1.3699
 5226TIP3   OH239872   2.549   1.854  10.761  0.3215 -0.4255  0.5064
 5226TIP3    H139873   2.557   1.912  10.837  0.4480 -0.8581  0.8216
 5226TIP3    H239874   2.455   1.843  10.749  0.2606  0.6734 -0.1872
 5227TIP3   OH239875   6.666   1.733  11.246  0.9060 -0.1686 -0.1046
 5227TIP3    H139876   6.651   1.733  11.152  1.2840  0.9893 -0.1886
 5227TIP3    H239877   6.626   1.652  11.277 -0.4182  0.0776 -1.0735
 5228TIP3   OH239878   0.528   1.713  12.421 -0.3022  0.1644 -0.3242
 5228TIP3    H139879   0.505   1.741  12.509 -0.7830 -0.9393 -0.0806
 5228TIP3    H239880   0.477   1.769  12.363 -0.7998  0.1848  0.1324
 5229TIP3   OH239881   1.283   5.479  12.509 -0.2696  0.0026 -0.1863
 5229TIP3    H139882   1.292   5.414  12.439 -3.3137 -0.6095 -0.1465
 5229TIP3    H239883   1.296   5.563  12.466 -1.0390 -0.4203 -1.2952
 5230TIP3   OH239884   1.655   6.247  12.195  0.1464 -0.0436 -0.4385
 5230TIP3    H139885   1.698   6.168  12.160 -1.4631 -0.4706 -1.5453
 5230TIP3    H239886   1.719   6.317  12.180  0.0082 -0.4047 -3.3373
 5231TIP3   OH239887   4.010   6.664  12.502 -0.0975 -0.1312 -0.1229
 5231TIP3    H139888   3.934   6.610  12.480 -1.2920  1.0134  0.9513
 5231TIP3    H239889   4.051   6.619  12.576 -0.4602 -0.1467  0.0761
 5232TIP3   OH239890   4.955   5.222  13.003 -0.4047 -0.0442  0.3189
 5232TIP3    H139891   4.940   5.304  12.956 -1.4761  0.5251  1.5592
 5232TIP3    H239892   4.868   5.184  13.012 -0.1289 -0.5025  1.1536
 5233TIP3   OH239893   3.636   5.825  12.773 -0.0222  0.3439 -0.1273
 5233TIP3    H139894   3.656   5.731  12.770 -0.6515  0.2308 -1.2558
 5233TIP3    H239895   3.641   5.854  12.681 -0.6762  1.2339  0.1026
 5234TIP3   OH239896   2.226   1.784  11.628  0.4700 -0.1450  0.2303
 5234TIP3    H139897   2.208   1.845  11.699  0.8196  0.0583  0.1511
 5234TIP3    H239898   2.168   1.710  11.643  0.6803 -0.1905  0.8405
 5235TIP3   OH239899   5.863   3.992  12.745 -0.1662  0.2950  0.2026
 5235TIP3    H139900   5.855   3.939  12.824 -3.9104  1.8328  1.0927
 5235TIP3    H239901   5.880   4.080  12.777  1.1470  0.4726 -0.9288
 5236TIP3   OH239902   4.979   5.269  10.474  0.1783 -0.1934 -0.5514
 5236TIP3    H139903   5.065   5.272  10.432  0.0549 -1.4067 -0.9158
 5236TIP3    H239904   4.961   5.176  10.485 -1.1295  0.0422 -0.5549
 5237TIP3   OH239905   1.203   1.463  12.021 -0.7498 -0.1609 -0.5948
 5237TIP3    H139906   1.116   1.481  11.984 -0.0197 -0.1064 -2.3775
 5237TIP3    H239907   1.256   1.434  11.946  0.6750 -0.5735  0.5227
 5238TIP3   OH239908   6.139   5.985  10.930  0.4722 -0.7937 -0.4787
 5238TIP3    H139909   6.065   5.924  10.931 -0.3422  0.1627  0.9163
 5238TIP3    H239910   6.196   5.954  11.000  0.1843 -0.1317  0.0602
 5239TIP3   OH239911   1.654   2.112  12.559  0.5529  0.0481  0.3631
 5239TIP3    H139912   1.639   2.177  12.628  1.4536  0.8338 -0.1514
 5239TIP3    H239913   1.732   2.064  12.588  2.3293  1.8695 -1.0979
 5240TIP3   OH239914   1.740   2.201  10.347 -0.6727 -0.6708 -0.5803
 5240TIP3    H139915   1.647   2.181  10.346 -0.6717 -0.8221  1.0734
 5240TIP3    H239916   1.763   2.209  10.439  0.1028  3.4502 -0.9179
 5241TIP3   OH239917   2.581   0.081  10.469 -0.3397 -0.1577  0.5182
 5241TIP3    H139918   2.512   0.049  10.527 -0.8249  0.8953  0.5382
 5241TIP3    H239919   2.578   0.176  10.477  0.4040 -0.0468 -0.3071
 5242TIP3   OH239920   2.418   3.733   9.403 -0.3486  0.8094 -0.4149
 5242TIP3    H139921   2.505   3.770   9.388 -0.2397  0.6875 -0.1005
 5242TIP3    H239922   2.359   3.790   9.354 -0.1031  0.9554 -0.5440
 5243TIP3   OH239923   0.252   1.155  13.181  0.0497  0.4106 -0.7268
 5243TIP3    H139924   0.283   1.227  13.236  2.5157 -1.4821  0.5582
 5243TIP3    H239925   0.296   1.169  13.097 -0.0648  0.8124 -0.7196
 5244TIP3   OH239926   3.694   2.912  11.418 -0.3648 -0.2089 -0.0214
 5244TIP3    H139927   3.610   2.899  11.462 -0.6837  0.3807 -0.4292
 5244TIP3    H239928   3.760   2.890  11.484 -0.8367 -0.2343  0.4490
 5245TIP3   OH239929   4.130   3.407  10.143 -0.0100  0.3547 -0.0570
 5245TIP3    H139930   4.110   3.461  10.067 -0.5634 -1.0131 -0.9358
 5245TIP3    H239931   4.201   3.453  10.188  0.9786  0.7313 -1.9140
 5246TIP3   OH239932   3.118   5.965  10.816  0.6632 -0.0937 -0.1434
 5246TIP3    H139933   3.184   6.024  10.852  1.6256 -1.3286  0.1976
 5246TIP3    H239934   3.125   5.885  10.868 -2.8410  0.5281  1.5760
 5247TIP3   OH239935   5.745   2.778  12.130  0.1340  0.5812 -0.0267
 5247TIP3    H139936   5.699   2.695  12.124 -0.2754  0.8201 -0.2480
 5247TIP3    H239937   5.718   2.815  12.214 -1.3763  1.4700 -0.8686
 5248TIP3   OH239938   0.515   6.027  12.324  0.3073  0.4256  0.0359
 5248TIP3    H139939   0.545   6.118  12.327  1.1980  0.2670 -2.1196
 5248TIP3    H239940   0.578   5.983  12.267 -0.9671 -1.1955 -0.1902
 5249TIP3   OH239941   4.359   0.220  12.480  0.5129  0.0573  0.7206
 5249TIP3    H139942   4.398   0.305  12.501  2.4606 -0.2958 -1.0564
 5249TIP3    H239943   4.434   0.161  12.472 -0.6919 -1.5297  0.6018
 5250TIP3   OH239944   1.774   0.962  11.257  0.2489 -0.6223 -0.2137
 5250TIP3    H139945   1.734   0.910  11.188 -1.4039  0.3434 -0.0353
 5250TIP3    H239946   1.708   0.964  11.327  0.1496  1.8655 -0.2970
 5251TIP3   OH239947   0.731   5.227  11.767  0.0867  0.0383 -0.7058
 5251TIP3    H139948   0.673   5.222  11.843  1.1906 -0.1937  0.1615
 5251TIP3    H239949   0.700   5.303  11.718 -0.1867  0.6618  0.3954
 5252TIP3   OH239950   5.494   1.851  10.919  0.0672  0.1710 -0.5162
 5252TIP3    H139951   5.567   1.793  10.900  0.5939  1.3536 -2.3757
 5252TIP3    H239952   5.532   1.922  10.970 -0.1147  0.0405 -0.1921
 5253TIP3   OH239953   1.464   2.878  10.493  0.5303 -0.7171 -0.7016
 5253TIP3    H139954   1.403   2.921  10.433  0.6347  0.2718 -0.1271
 5253TIP3    H239955   1.514   2.818  10.438 -0.7480 -1.3343 -1.2350
 5254TIP3   OH239956   1.588   4.745  12.354 -0.1707  0.4959 -0.4494
 5254TIP3    H139957   1.496   4.759  12.380  0.1114  2.5135 -0.3677
 5254TIP3    H239958   1.633   4.825  12.382  1.5457 -0.2794 -0.8741
 5255TIP3   OH239959   0.302   2.162  10.794  0.2048  0.2712  0.2672
 5255TIP3    H139960   0.365   2.227  10.823  0.7322 -0.0885 -0.0552
 5255TIP3    H239961   0.355   2.088  10.764 -0.3906 -0.9394  2.0633
 5256TIP3   OH239962   4.530   2.682  12.943 -0.2348 -0.4006  0.1695
 5256TIP3    H139963   4.479   2.655  12.867 -0.7254  0.3965  0.2020
 5256TIP3    H239964   4.529   2.778  12.940  0.8273 -0.3693  0.4655
 5257TIP3   OH239965   2.941   6.223  11.018  0.0161 -0.3844  0.1063
 5257TIP3    H139966   2.901   6.165  10.953  1.4590  0.2839 -1.4306
 5257TIP3    H239967   2.957   6.305  10.972  1.5619 -0.0600  1.1516
 5258TIP3   OH239968   4.867   4.705  12.111 -0.2137 -0.2685 -0.2754
 5258TIP3    H139969   4.895   4.714  12.020  1.1895 -0.8091  0.0784
 5258TIP3    H239970   4.838   4.614  12.118 -1.2258  0.0288 -0.3955
 5259TIP3   OH239971   5.649   6.128  12.709 -0.1017  0.2543  0.2929
 5259TIP3    H139972   5.732   6.160  12.745  0.7369 -1.0299 -0.4174
 5259TIP3    H239973   5.605   6.207  12.676 -0.3517  1.3286  2.8825
 5260TIP3   OH239974   5.883   5.786  11.209  0.7936  0.0244  0.3883
 5260TIP3    H139975   5.977   5.798  11.223  1.0759  1.6766 -2.1336
 5260TIP3    H239976   5.867   5.827  11.124 -2.2646 -0.0431  0.8291
 5261TIP3   OH239977   4.512   3.534  11.681  0.4022  0.0364  0.6513
 5261TIP3    H139978   4.578   3.509  11.617  0.2430 -0.6755  0.7497
 5261TIP3    H239979   4.494   3.626  11.663  1.5580  0.2990  0.7533
 5262TIP3   OH239980   3.952   0.444  12.780 -0.1388  0.2465 -0.8964
 5262TIP3    H139981   3.960   0.466  12.872  0.2661  0.8207 -1.0573
 5262TIP3    H239982   4.030   0.391  12.761 -0.4644 -0.2707 -0.8029
 5263TIP3   OH239983   6.508   6.613  11.854  0.2317  0.0891 -0.0818
 5263TIP3    H139984   6.545   6.539  11.808 -1.3557  0.2703 -1.7480
 5263TIP3    H239985   6.501   6.584  11.945  4.3717  0.0778  0.4399
 5264TIP3   OH239986   3.340   3.997  12.473  0.5549  0.1543  0.5638
 5264TIP3    H139987   3.429   3.971  12.493  0.5903  0.6788  1.1044
 5264TIP3    H239988   3.289   3.975  12.551 -0.3263 -2.5517 -0.6577
 5265TIP3   OH239989   4.485   1.626  10.124 -0.0441  0.3375  0.4916
 5265TIP3    H139990   4.430   1.626  10.045 -0.8475 -0.0660  1.0337
 5265TIP3    H239991   4.537   1.706  10.118 -0.7831  0.7945  0.0223
 5266TIP3   OH239992   3.630   3.701  13.006  0.0503 -0.3793 -0.4410
 5266TIP3    H139993   3.613   3.645  12.930 -0.7424 -1.1416  0.2696
 5266TIP3    H239994   3.672   3.643  13.069  0.9212  0.3099 -0.3820
 5267TIP3   OH239995   3.123   6.582  11.605  0.5857 -0.1121  0.0965
 5267TIP3    H139996   3.216   6.581  11.628  0.7031 -0.8535 -0.4030
 5267TIP3    H239997   3.118   6.538  11.521 -0.0973  0.8588 -0.3889
 5268TIP3   OH239998   0.451   0.273  11.594  0.2854  0.7632  0.2380
 5268TIP3    H139999   0.538   0.244  11.621  0.1354  0.0531  0.0016
 5268TIP3    H240000   0.467   0.348  11.537  0.7281  0.7773  0.3795
 5269TIP3   OH240001   6.794   0.704  11.986 -0.3346 -0.1011 -0.0162
 5269TIP3    H140002   6.779   0.639  11.917  0.1348  0.2833 -0.4974
 5269TIP3    H240003   6.734   0.679  12.056 -0.7004 -0.6041 -0.4939
 5270TIP3   OH240004   5.520   2.467  10.310  0.0980  0.0402  0.2755
 5270TIP3    H140005   5.583   2.537  10.291 -1.9008  1.7986 -0.3841
 5270TIP3    H240006   5.497   2.431  10.225 -1.3259  0.9254  0.2378
 5271TIP3   OH240007   6.199   3.738  12.416 -0.1253 -0.3298 -0.2926
 5271TIP3    H140008   6.110   3.718  12.444 -0.0735 -0.2704 -0.0872
 5271TIP3    H240009   6.241   3.777  12.493  0.4686 -1.5501  0.0278
 5272TIP3   OH240010   6.268   5.693  11.993 -0.2397  0.0468  0.0367
 5272TIP3    H140011   6.354   5.693  11.950  0.4428  0.0633  1.3689
 5272TIP3    H240012   6.208   5.663  11.925  0.6434  1.0552 -1.2498
 5273TIP3   OH240013   4.531   5.606  11.851 -0.5607  0.6737  0.0630
 5273TIP3    H140014   4.626   5.595  11.848 -0.5379  0.7513  0.4213
 5273TIP3    H240015   4.509   5.651  11.769 -0.6262 -1.6856 -1.3169
 5274TIP3   OH240016   2.565   6.837  11.992 -0.0033  0.5282 -0.3579
 5274TIP3    H140017   2.511   6.790  12.055  0.5786 -0.5884 -0.6659
 5274TIP3    H240018   2.522   6.923  11.983 -0.7812  0.2609  0.6150
 5275TIP3   OH240019   5.616   3.154  11.407  0.0385  0.1814  0.7619
 5275TIP3    H140020   5.625   3.093  11.334  1.3233 -0.4053  1.3708
 5275TIP3    H240021   5.627   3.100  11.486 -1.2712  0.8040  1.4040
 5276TIP3   OH240022   3.953   3.180  11.477 -0.6266  0.4401  0.1106
 5276TIP3    H140023   3.983   3.246  11.415 -1.2725  1.7233  1.1202
 5276TIP3    H240024   4.015   3.107  11.466  1.8524  2.2760  0.8874
 5277TIP3   OH240025   5.408   3.500  10.570  0.1836  0.1889  0.2166
 5277TIP3    H140026   5.370   3.417  10.598  1.6265 -0.5386  0.1613
 5277TIP3    H240027   5.435   3.543  10.651  0.5793  0.0054  0.1869
 5278TIP3   OH240028   1.511   0.008  10.100 -0.2521 -0.4622 -0.4105
 5278TIP3    H140029   1.492  -0.086  10.102  0.1271 -0.5282  0.1167
 5278TIP3    H240030   1.600   0.016  10.134 -0.0048  0.0251 -1.1421
 5279TIP3   OH240031   1.941   6.104  11.477  0.1569 -0.7217 -0.3010
 5279TIP3    H140032   2.013   6.054  11.516  1.9147  2.3056  0.6157
 5279TIP3    H240033   1.977   6.191  11.462 -2.1075 -0.2041 -3.8060
 5280TIP3   OH240034   3.189   0.065  12.368 -0.0292 -0.1970 -0.1661
 5280TIP3    H140035   3.154  -0.016  12.405  1.2939 -0.6092  0.2331
 5280TIP3    H240036   3.129   0.087  12.296 -2.0432  0.0304  1.4795
 5281TIP3   OH240037   6.089   1.574  13.586 -0.0949 -0.0603 -0.2725
 5281TIP3    H140038   6.079   1.495  13.533 -2.3423 -0.4103  0.5600
 5281TIP3    H240039   6.022   1.634  13.554  0.2281  0.7244  0.4583
 5282TIP3   OH240040   0.807   0.131  10.853  0.2192  0.0324 -0.3614
 5282TIP3    H140041   0.771   0.200  10.797 -2.1300  0.9012  1.9694
 5282TIP3    H240042   0.807   0.169  10.941  0.5672 -2.3360  0.7506
 5283TIP3   OH240043   1.798   1.562  11.274 -0.8195  0.4587 -1.1145
 5283TIP3    H140044   1.728   1.562  11.339 -1.2340  1.6328 -1.5316
 5283TIP3    H240045   1.878   1.555  11.326 -1.1970  0.1141 -0.5667
 5284TIP3   OH240046   2.057   2.282  10.613  0.1045  0.6812  0.8237
 5284TIP3    H140047   2.102   2.269  10.696  1.7884 -2.0415 -0.3532
 5284TIP3    H240048   1.967   2.254  10.629  0.7864 -1.3149  1.4149
 5285TIP3   OH240049   4.288   3.366  13.339 -0.4483  0.1949 -0.3613
 5285TIP3    H140050   4.248   3.288  13.301  1.4629 -1.3912  0.6968
 5285TIP3    H240051   4.232   3.438  13.311 -4.2566 -1.8415  1.2934
 5286TIP3   OH240052   1.870   4.298  11.422 -0.6068  0.2880 -0.1541
 5286TIP3    H140053   1.961   4.320  11.441 -1.0657  2.2526 -0.0371
 5286TIP3    H240054   1.836   4.265  11.505  0.1526 -1.1592 -0.3802
 5287TIP3   OH240055   5.018   4.660  10.772  0.0259  0.6755 -0.1407
 5287TIP3    H140056   4.970   4.730  10.728 -0.0999 -0.1042 -1.2834
 5287TIP3    H240057   4.999   4.581  10.721  2.9917  0.4267 -1.0629
 5288TIP3   OH240058   0.837   1.492  10.801  0.6027  0.0535  0.2330
 5288TIP3    H140059   0.911   1.546  10.774  0.6633  0.7395  1.6774
 5288TIP3    H240060   0.767   1.514  10.740  1.0948  0.6499 -0.1220
 5289TIP3   OH240061   4.743   3.995  10.688  0.2906  0.3170  0.0894
 5289TIP3    H140062   4.829   3.964  10.717  0.6130  2.1651  1.2811
 5289TIP3    H240063   4.753   4.090  10.683 -1.6586  0.5519  0.1373
 5290TIP3   OH240064   1.862   0.222  13.028 -0.0570  0.3607 -0.5062
 5290TIP3    H140065   1.911   0.270  13.094 -1.2618  0.9185  0.0139
 5290TIP3    H240066   1.771   0.224  13.058 -0.2709 -1.6677 -0.8118
 5291TIP3   OH240067   0.057   5.482  11.863 -0.1195  0.5169 -0.0739
 5291TIP3    H140068   0.083   5.440  11.781  0.9543  1.2182 -0.1241
 5291TIP3    H240069  -0.033   5.511  11.849 -0.2479 -0.1578 -0.6797
 5292TIP3   OH240070   1.396   0.450  11.507  0.0387  0.0133  0.1086
 5292TIP3    H140071   1.374   0.376  11.451  0.7787 -0.1549  0.0381
 5292TIP3    H240072   1.311   0.485  11.535 -0.3160 -0.6601 -0.1172
 5293TIP3   OH240073   4.664   2.319  12.988  0.2243  0.0853 -0.2529
 5293TIP3    H140074   4.651   2.323  12.893  0.5331  0.6175 -0.2782
 5293TIP3    H240075   4.663   2.410  13.016 -1.7277 -0.1486  0.5334
 5294TIP3   OH240076   5.198   3.797  10.996 -0.1394  0.3551 -0.7457
 5294TIP3    H140077   5.210   3.832  11.085 -0.8685 -0.9339 -0.1200
 5294TIP3    H240078   5.178   3.704  11.009 -2.1907  0.5465 -2.1485
 5295TIP3   OH240079   4.642   1.332  13.129 -0.0241  0.6627 -0.3285
 5295TIP3    H140080   4.675   1.263  13.071 -0.8155 -0.3246  0.3621
 5295TIP3    H240081   4.664   1.413  13.084  0.2693 -0.0533 -1.5343
 5296TIP3   OH240082   2.103   1.650  12.522 -0.4704  0.4028 -0.0783
 5296TIP3    H140083   2.101   1.646  12.617  1.4882  0.8703  0.0366
 5296TIP3    H240084   2.014   1.676  12.497 -1.1392 -0.1732  1.5749
 5297TIP3   OH240085   1.159   0.820  12.238 -0.4223 -0.0644 -0.1769
 5297TIP3    H140086   1.069   0.792  12.254 -0.8967  0.3938 -1.8523
 5297TIP3    H240087   1.176   0.888  12.303 -0.2811 -2.0321  1.9961
 5298TIP3   OH240088   0.491   1.395   9.785  0.0146  0.2230  0.1639
 5298TIP3    H140089   0.522   1.479   9.820 -1.7433  0.9193  0.1683
 5298TIP3    H240090   0.420   1.370   9.844 -1.7140  0.4291 -1.7232
 5299TIP3   OH240091   2.755   0.228  13.100 -0.1312 -0.1379 -0.1603
 5299TIP3    H140092   2.793   0.168  13.164 -1.2358  1.2153  1.8437
 5299TIP3    H240093   2.830   0.272  13.060  0.5406  0.3839  1.6200
 5300TIP3   OH240094   3.745   0.118  11.077  0.2340 -1.0614  0.1182
 5300TIP3    H140095   3.791   0.089  10.998  0.7933  0.2666 -0.0736
 5300TIP3    H240096   3.652   0.116  11.052  0.1560 -3.3204  0.3597
 5301TIP3   OH240097   3.121   5.669  12.681  0.3558 -0.1829 -0.1073
 5301TIP3    H140098   3.178   5.743  12.661  1.2383 -0.9089 -0.3892
 5301TIP3    H240099   3.036   5.693  12.645  1.0304  0.0287 -1.6317
 5302TIP3   OH240100   3.022   5.104  11.524 -0.2366  0.3170 -0.4776
 5302TIP3    H140101   3.111   5.077  11.546 -0.3220  0.6144  0.2797
 5302TIP3    H240102   3.026   5.127  11.431  0.1140 -1.0977 -0.8341
 5303TIP3   OH240103   1.973   4.991  12.532  0.3945  0.3289 -0.8247
 5303TIP3    H140104   2.012   5.001  12.445  0.2469  1.3911 -0.7858
 5303TIP3    H240105   2.030   4.929  12.577  0.0185 -0.8484 -1.9336
 5304TIP3   OH240106   4.371   2.675  13.158  0.0505 -0.1131 -0.2419
 5304TIP3    H140107   4.342   2.766  13.158 -1.0778 -0.4401  1.1244
 5304TIP3    H240108   4.421   2.666  13.077  0.9882  1.9481  0.0400
 5305TIP3   OH240109   2.894   0.372   9.335  0.2045 -0.7612  0.4025
 5305TIP3    H140110   2.967   0.314   9.313  1.6240  1.6818 -1.8802
 5305TIP3    H240111   2.927   0.460   9.319 -3.4696  0.4863 -1.5266
 5306TIP3   OH240112   5.480   2.464  12.422 -0.0010  0.5404 -0.2198
 5306TIP3    H140113   5.560   2.516  12.435  0.5893 -0.7105  1.7165
 5306TIP3    H240114   5.413   2.511  12.472  0.6822 -0.7619  2.0748
 5307TIP3   OH240115   3.770   1.931  11.488  0.3067 -0.1751 -0.1219
 5307TIP3    H140116   3.810   2.018  11.489  1.3262 -0.6402  0.9433
 5307TIP3    H240117   3.811   1.886  11.414  0.1653  0.0726 -0.3508
 5308TIP3   OH240118   5.723   2.791  10.671 -0.1314 -0.1506  0.1392
 5308TIP3    H140119   5.741   2.761  10.760  0.6156 -2.4335 -0.7026
 5308TIP3    H240120   5.644   2.845  10.679 -1.0338 -1.6404  1.9631
 5309TIP3   OH240121   4.549   0.099  13.042 -0.3708 -0.1954  0.2028
 5309TIP3    H140122   4.472   0.075  12.990 -0.5897 -0.2903  0.5655
 5309TIP3    H240123   4.525   0.182  13.082 -1.2975 -1.4005  2.3108
 5310TIP3   OH240124   1.518   6.528  11.384 -0.1731 -0.3897  0.5026
 5310TIP3    H140125   1.515   6.596  11.452  0.2663  0.2084 -0.0623
 5310TIP3    H240126   1.490   6.573  11.305  0.5021 -0.7736  0.0386
 5311TIP3   OH240127   4.070   2.280  11.695 -0.0490  0.0061 -0.5109
 5311TIP3    H140128   4.009   2.302  11.624 -2.7702 -3.9206  0.2828
 5311TIP3    H240129   4.132   2.219  11.655 -0.6445 -0.9875  0.0083
 5312TIP3   OH240130   6.749   0.025  12.956 -0.1684 -0.5791 -0.2013
 5312TIP3    H140131   6.726   0.077  13.032  1.8066  1.5874 -0.9761
 5312TIP3    H240132   6.705  -0.059  12.970  1.0260 -0.7139  3.8680
 5313TIP3   OH240133   1.841   6.586  11.464  0.0948 -0.9217 -0.4542
 5313TIP3    H140134   1.902   6.657  11.447 -0.7663  0.6170  2.2268
 5313TIP3    H240135   1.765   6.607  11.410  0.1300 -0.1723 -0.2268
 5314TIP3   OH240136   6.296   4.480  11.303 -0.3201  0.0547 -0.0160
 5314TIP3    H140137   6.273   4.538  11.375  0.5774  1.9320 -1.1621
 5314TIP3    H240138   6.391   4.475  11.304 -0.3764 -2.1292  0.5360
 5315TIP3   OH240139   1.123   5.460  10.210  0.0849  0.2635 -0.0073
 5315TIP3    H140140   1.149   5.407  10.135  0.2638 -0.8995  0.8385
 5315TIP3    H240141   1.051   5.514  10.177 -0.6720 -1.1098 -0.7233
 5316TIP3   OH240142   0.417   6.515  11.568  0.7583  0.0095 -0.7740
 5316TIP3    H140143   0.422   6.440  11.626  0.6973  0.9340  0.4534
 5316TIP3    H240144   0.329   6.550  11.581  1.0717  0.7969 -0.6894
 5317TIP3   OH240145   6.598   2.980  11.155 -0.2362  0.0390 -0.5331
 5317TIP3    H140146   6.646   3.062  11.169 -1.0392  0.2096  1.5744
 5317TIP3    H240147   6.525   3.004  11.099 -0.1598  0.6536 -0.3717
 5318TIP3   OH240148   4.850   4.703   9.878  0.0026  0.3914  0.1760
 5318TIP3    H140149   4.803   4.695   9.795 -1.2005 -0.1804  0.8994
 5318TIP3    H240150   4.841   4.618   9.920  0.4354  0.7327  0.9923
 5319TIP3   OH240151   5.735   6.675  12.572  0.3377 -0.4154  0.4576
 5319TIP3    H140152   5.682   6.755  12.570 -0.4307 -0.9198  0.2296
 5319TIP3    H240153   5.774   6.669  12.485 -1.7473 -1.6697 -0.4749
 5320TIP3   OH240154   5.118   0.901  11.309 -0.2438  0.8316  0.1071
 5320TIP3    H140155   5.144   0.977  11.361  0.4417  0.2764  0.5929
 5320TIP3    H240156   5.200   0.853  11.295 -0.6090  0.3925 -0.5318
 5321TIP3   OH240157   1.797   3.322  13.301  0.7776 -0.3590  0.2865
 5321TIP3    H140158   1.762   3.390  13.244  1.0443 -0.2784  0.2162
 5321TIP3    H240159   1.764   3.344  13.388 -2.1623 -2.1534 -0.2410
 5322TIP3   OH240160   6.789   2.495  12.862 -0.4168  0.4457  0.5439
 5322TIP3    H140161   6.713   2.486  12.805 -0.8625  1.8351  0.8813
 5322TIP3    H240162   6.838   2.413  12.850 -1.0782  0.2370 -0.9590
 5323TIP3   OH240163   5.986   2.105   9.902  0.3879  0.2069 -0.0553
 5323TIP3    H140164   5.944   2.138   9.822  0.0032 -1.3690 -0.5418
 5323TIP3    H240165   5.917   2.110   9.969 -0.0104 -0.5702 -0.3890
 5324TIP3   OH240166   6.279   3.532  10.741  0.7787  0.5584  0.4371
 5324TIP3    H140167   6.238   3.610  10.704 -0.2514  0.7728  1.9573
 5324TIP3    H240168   6.370   3.558  10.757  0.9934  0.7592 -0.9849
 5325TIP3   OH240169   1.199   6.786  11.816  0.1938 -0.0269  0.3390
 5325TIP3    H140170   1.203   6.881  11.808 -0.2118  0.0427  0.9218
 5325TIP3    H240171   1.106   6.765  11.809  0.1928 -0.2968  1.1168
 5326TIP3   OH240172   4.063   1.776  11.920 -0.4721 -0.4444  0.6732
 5326TIP3    H140173   4.115   1.697  11.911  0.2366 -0.0871  1.5100
 5326TIP3    H240174   4.028   1.792  11.832  0.2321 -1.1015  0.2618
 5327TIP3   OH240175   4.024   3.310  11.231 -0.5105 -0.5018  0.2141
 5327TIP3    H140176   3.949   3.273  11.184  0.5975 -1.3335 -0.9885
 5327TIP3    H240177   4.054   3.382  11.176  0.3980 -1.0599 -0.0494
 5328TIP3   OH240178   3.112   6.396  13.122  0.1635 -0.1122  0.1588
 5328TIP3    H140179   3.116   6.362  13.212 -2.4365 -1.9129 -0.2806
 5328TIP3    H240180   3.201   6.386  13.088  0.8098 -1.0156  1.9930
 5329TIP3   OH240181   2.870   4.574  11.573  0.0468 -0.6257 -0.0665
 5329TIP3    H140182   2.847   4.663  11.545 -0.3355 -0.6302  0.2242
 5329TIP3    H240183   2.965   4.577  11.587 -0.1637  0.1352  1.3188
 5330TIP3   OH240184   6.152   2.009  11.646 -0.3995  0.6778  0.0928
 5330TIP3    H140185   6.203   1.967  11.577  1.1931  2.2823  0.2291
 5330TIP3    H240186   6.065   2.020  11.607  0.4864  1.6715 -1.7522
 5331TIP3   OH240187   6.631   4.247  10.105  0.4054 -0.3052  0.1104
 5331TIP3    H140188   6.645   4.342  10.106  0.1311 -0.2691  0.5895
 5331TIP3    H240189   6.568   4.231  10.174  0.7693 -0.8877  0.3161
 5332TIP3   OH240190   3.097   1.000  13.318 -0.3357 -0.0914  0.7132
 5332TIP3    H140191   3.150   1.034  13.390  0.2453 -1.1549  0.8037
 5332TIP3    H240192   3.124   1.052  13.242 -0.5756  0.6789  1.1420
 5333TIP3   OH240193   4.823   2.434  12.153 -0.7787 -0.0518 -0.2687
 5333TIP3    H140194   4.898   2.375  12.144 -0.8504 -0.1049 -0.5198
 5333TIP3    H240195   4.776   2.402  12.230  0.8176  1.4787  1.4767
 5334TIP3   OH240196   1.596   0.067  13.196  0.1545  0.7083 -0.0278
 5334TIP3    H140197   1.581   0.142  13.140 -1.5900  1.2947  1.1508
 5334TIP3    H240198   1.664   0.096  13.258 -0.4102  1.2870  0.3335
 5335TIP3   OH240199   6.315   2.863  11.097  0.0743 -0.2914  0.4907
 5335TIP3    H140200   6.289   2.795  11.036 -0.0922  0.1963  0.0093
 5335TIP3    H240201   6.343   2.936  11.042 -1.8993  0.8699  0.9481
 5336TIP3   OH240202   3.421   0.873  13.023  0.7613 -0.1094 -0.4555
 5336TIP3    H140203   3.506   0.836  13.047  0.5277 -1.3665 -1.4416
 5336TIP3    H240204   3.442   0.945  12.963  1.1637  0.5491  0.4445
 5337TIP3   OH240205   0.782   5.426  10.198  0.1931  0.5820 -0.3787
 5337TIP3    H140206   0.691   5.407  10.177  0.0099 -0.1331  0.9069
 5337TIP3    H240207   0.789   5.521  10.193  0.0102  0.5139 -2.7760
 5338TIP3   OH240208   4.559   5.471  10.793  0.3068 -0.0787  0.2357
 5338TIP3    H140209   4.492   5.506  10.733  0.9686  0.0697 -0.4317
 5338TIP3    H240210   4.549   5.523  10.873 -0.4101 -0.0931  0.1598
 5339TIP3   OH240211   4.944   2.271  12.408 -0.2666  0.0457  0.0400
 5339TIP3    H140212   5.028   2.316  12.414  0.5263 -1.4615  0.8897
 5339TIP3    H240213   4.902   2.287  12.493 -1.2062  1.4317 -0.6569
 5340TIP3   OH240214   1.173   5.624  10.521  0.3313 -0.2279  0.5607
 5340TIP3    H140215   1.222   5.675  10.456 -0.7871 -0.9932 -0.9371
 5340TIP3    H240216   1.220   5.541  10.527  1.9530  0.7570  2.7461
 5341TIP3   OH240217   6.222   3.182  12.523  0.3423  0.6219 -0.0595
 5341TIP3    H140218   6.280   3.249  12.560  0.8319  0.8252 -1.1421
 5341TIP3    H240219   6.192   3.220  12.440  0.3799 -0.3638 -0.5390
 5342TIP3   OH240220   3.893   3.776   9.702 -0.9107 -0.0868 -0.2505
 5342TIP3    H140221   3.887   3.870   9.684  1.8228  0.4782  1.2138
 5342TIP3    H240222   3.841   3.735   9.633 -0.6764  2.4205 -2.0642
 5343TIP3   OH240223   6.827   3.772  10.037 -0.8466  0.9166  0.3681
 5343TIP3    H140224   6.885   3.699  10.017 -2.5719 -0.4402  0.0012
 5343TIP3    H240225   6.869   3.817  10.110  0.1297 -0.6480  0.8161
 5344TIP3   OH240226   2.047   2.591  11.849  0.2434  0.2009  0.2511
 5344TIP3    H140227   2.055   2.648  11.773  0.3928  1.5034  1.2037
 5344TIP3    H240228   2.129   2.604  11.897 -0.0823 -0.1604  0.9186
 5345TIP3   OH240229   0.703   0.827  12.372  0.3933  0.2153 -0.8486
 5345TIP3    H140230   0.681   0.735  12.356 -0.2182  0.6085 -2.4564
 5345TIP3    H240231   0.647   0.853  12.445  0.9651 -0.8130 -0.0156
 5346TIP3   OH240232   0.099   3.660  11.923 -0.3199  0.3050 -0.3832
 5346TIP3    H140233   0.173   3.601  11.908 -0.7267 -0.9535  1.9523
 5346TIP3    H240234   0.138   3.740  11.958  0.0456  0.2896 -0.7521
 5347TIP3   OH240235   0.279   3.438  12.508  0.3371  0.3791  0.0459
 5347TIP3    H140236   0.211   3.422  12.573 -0.1688 -1.4917 -0.8820
 5347TIP3    H240237   0.329   3.512  12.543 -0.0089 -0.4443  2.4661
 5348TIP3   OH240238   2.777   3.548  12.366  0.4132 -0.2390  0.3330
 5348TIP3    H140239   2.711   3.601  12.321 -1.9292 -2.5398  0.8015
 5348TIP3    H240240   2.826   3.611  12.419  0.2719  1.9057 -1.8997
 5349TIP3   OH240241   1.886   1.385  10.141 -0.2140  0.2064  0.5088
 5349TIP3    H140242   1.919   1.298  10.165  2.3537  1.2987  1.2531
 5349TIP3    H240243   1.844   1.372  10.056  0.0546 -1.7688  0.6253
 5350TIP3   OH240244   6.652   4.421  10.875 -0.0531  0.2590 -1.0455
 5350TIP3    H140245   6.712   4.459  10.811  0.1082 -1.5729 -2.0558
 5350TIP3    H240246   6.613   4.346  10.830  0.4074 -1.4074  1.1111
 5351TIP3   OH240247   3.606   6.415  12.627 -0.0243 -0.0681  0.4882
 5351TIP3    H140248   3.653   6.441  12.548 -0.3562 -0.4086  0.1752
 5351TIP3    H240249   3.648   6.464  12.697  0.2173  0.3022  0.0886
 5352TIP3   OH240250   5.624   3.933  13.001  0.5735  0.1442  0.7011
 5352TIP3    H140251   5.558   3.878  13.043  0.4174  0.2046  0.5352
 5352TIP3    H240252   5.599   4.023  13.023  0.0160  0.2211 -0.2043
 5353TIP3   OH240253   4.267   6.611  11.433  0.1058 -0.3097 -0.1619
 5353TIP3    H140254   4.252   6.704  11.420  0.2867 -0.3499 -0.6814
 5353TIP3    H240255   4.330   6.606  11.504  1.0557  0.0133 -0.9585
 5354TIP3   OH240256   2.334   6.790  12.713 -0.0093 -0.3094 -0.3664
 5354TIP3    H140257   2.248   6.747  12.716  0.0639 -0.5663 -1.4953
 5354TIP3    H240258   2.395   6.721  12.687  0.2190  0.2964 -1.5007
 5355TIP3   OH240259   2.996   0.694  12.991  0.3805  0.4280 -0.2117
 5355TIP3    H140260   3.024   0.744  12.915 -1.1485  1.4993 -0.1065
 5355TIP3    H240261   3.053   0.724  13.062  0.8958  0.4306 -0.6199
 5356TIP3   OH240262   4.854   1.722  12.596  0.3751  0.5647  0.3836
 5356TIP3    H140263   4.918   1.668  12.642 -0.3714  0.0097  0.7841
 5356TIP3    H240264   4.865   1.809  12.634  1.4748  0.6835 -0.1571
 5357TIP3   OH240265   2.132   3.665  11.983 -0.4254 -0.2658  0.6804
 5357TIP3    H140266   2.051   3.673  11.934 -1.3195  0.6270  2.2337
 5357TIP3    H240267   2.199   3.703  11.926 -1.4674  0.9114  0.2025
 5358TIP3   OH240268   6.245   6.547  12.858 -0.1969  0.4552  0.0945
 5358TIP3    H140269   6.150   6.554  12.850 -0.2515 -0.0957  0.1986
 5358TIP3    H240270   6.279   6.622  12.810 -0.6392 -0.1917 -1.2894
 5359TIP3   OH240271   0.045   6.673  13.257 -0.0959 -0.1100 -0.6417
 5359TIP3    H140272   0.120   6.729  13.276  0.1678 -1.1297  1.6642
 5359TIP3    H240273  -0.031   6.726  13.280  0.0220  0.1719 -0.9020
 5360TIP3   OH240274   1.512   5.418  11.371 -0.2633 -0.2504  0.4328
 5360TIP3    H140275   1.531   5.330  11.405 -1.1360 -0.5487  0.1686
 5360TIP3    H240276   1.583   5.435  11.309 -1.6020 -1.9945 -1.7244
 5361TIP3   OH240277   1.490   5.959  11.305 -0.2599  0.4724 -0.0140
 5361TIP3    H140278   1.552   5.916  11.364 -0.6183  0.0014  0.0259
 5361TIP3    H240279   1.526   6.046  11.292  1.0746 -0.1817 -0.9600
 5362TIP3   OH240280   6.564   5.203  11.520 -0.1349 -0.5680 -0.0426
 5362TIP3    H140281   6.627   5.139  11.552  1.4007  0.4773 -0.8186
 5362TIP3    H240282   6.511   5.226  11.596  1.0121 -0.8260  0.8450
 5363TIP3   OH240283   2.280   3.297  11.220 -0.4362  0.1709 -0.5827
 5363TIP3    H140284   2.300   3.354  11.145  1.7074 -0.3512 -0.4707
 5363TIP3    H240285   2.332   3.333  11.291 -1.3271 -0.2298  0.2922
 5364TIP3   OH240286   2.854   0.022  10.465  0.3337 -0.4741  0.2206
 5364TIP3    H140287   2.873   0.097  10.522  1.9518  1.6149 -2.7860
 5364TIP3    H240288   2.758   0.020  10.458  0.1970  0.2971  1.5915
 5365TIP3   OH240289   4.107   4.377   9.311 -0.1699 -0.0686 -0.1963
 5365TIP3    H140290   4.034   4.395   9.251  0.2993  0.9475 -0.4976
 5365TIP3    H240291   4.162   4.314   9.264 -0.7076 -0.6302 -0.0822
 5366TIP3   OH240292   3.621   2.584  12.285 -0.4229 -0.3263 -0.1485
 5366TIP3    H140293   3.659   2.516  12.230  1.0996 -0.6632  1.2441
 5366TIP3    H240294   3.587   2.648  12.223  0.4979 -1.0822 -1.4920
 5367TIP3   OH240295   3.650   5.913  12.184 -0.0876  0.3501  0.0311
 5367TIP3    H140296   3.674   5.942  12.096  0.9714 -0.8383 -0.0826
 5367TIP3    H240297   3.557   5.937  12.191  0.3327  2.3977 -0.5902
 5368TIP3   OH240298   3.496   6.226  11.994  0.1746  0.3634  0.1804
 5368TIP3    H140299   3.476   6.167  11.921  0.5042 -0.3635  0.6632
 5368TIP3    H240300   3.486   6.171  12.072 -0.2684  1.1557  0.6950
 5369TIP3   OH240301   4.302   5.072  11.216 -0.0015  0.3660  0.2544
 5369TIP3    H140302   4.253   5.008  11.164  0.0950  1.5467 -1.3669
 5369TIP3    H240303   4.363   5.112  11.155  2.2426 -0.2377  1.9761
 5370TIP3   OH240304   4.221   0.885  10.058 -0.6310 -0.5508  0.1215
 5370TIP3    H140305   4.302   0.902  10.107 -0.0930  0.0940 -0.9656
 5370TIP3    H240306   4.191   0.800  10.092  0.1623 -0.5092  0.9831
 5371TIP3   OH240307   0.631   4.941  10.908  0.5750  0.4276  0.1315
 5371TIP3    H140308   0.702   4.894  10.951  2.2404  1.7571 -1.0002
 5371TIP3    H240309   0.584   4.874  10.858  1.5982 -0.3520  0.1810
 5372TIP3   OH240310   4.105   4.346  10.847 -0.1844  0.9881 -0.4534
 5372TIP3    H140311   4.046   4.336  10.922  0.0256 -1.9277 -0.5873
 5372TIP3    H240312   4.052   4.323  10.771  0.6864 -0.1645 -0.7308
 5373TIP3   OH240313   3.145   6.118  11.533  0.0439  1.0125 -0.1280
 5373TIP3    H140314   3.198   6.189  11.498 -1.0491  1.4885 -0.8786
 5373TIP3    H240315   3.132   6.141  11.625  2.4362  0.0522  0.5441
 5374TIP3   OH240316   0.050   0.341  12.035 -0.3917 -0.2505  0.0562
 5374TIP3    H140317   0.029   0.327  12.128  3.2268 -1.9718  0.7889
 5374TIP3    H240318   0.025   0.259  11.992  0.6030 -0.5784  0.0900
 5375TIP3   OH240319   1.421   1.864  10.828 -0.1296  0.2234 -0.1318
 5375TIP3    H140320   1.340   1.845  10.875 -0.2973  0.5409 -0.2893
 5375TIP3    H240321   1.400   1.848  10.736 -0.5802  2.1101 -0.3960
 5376TIP3   OH240322   6.366   3.981  11.178 -0.3740 -0.6980 -0.2345
 5376TIP3    H140323   6.418   4.054  11.212 -1.2008  0.2170 -0.8745
 5376TIP3    H240324   6.318   3.949  11.254  0.9845 -1.4781  0.3405
 5377TIP3   OH240325   0.467   0.282  12.605  0.3764  0.2694 -0.8457
 5377TIP3    H140326   0.555   0.271  12.640 -0.0096  1.0668  0.4362
 5377TIP3    H240327   0.417   0.209  12.641 -0.2703  1.6401  1.2165
 5378TIP3   OH240328   2.706   5.129  11.371 -0.7261  0.8796 -0.7370
 5378TIP3    H140329   2.729   5.049  11.418  1.7127  1.4752 -0.7712
 5378TIP3    H240330   2.625   5.159  11.413 -1.1601 -1.0437 -0.0820
 5379TIP3   OH240331   2.936   6.454  10.890  0.2448 -0.2489  0.4946
 5379TIP3    H140332   2.866   6.427  10.830  0.5217 -0.9099  0.4614
 5379TIP3    H240333   2.963   6.540  10.858  0.2037 -0.4738 -0.1647
 5380TIP3   OH240334   4.842   0.794  12.842  0.1443 -0.3473 -0.1015
 5380TIP3    H140335   4.822   0.809  12.935  0.7895 -0.7519  0.1058
 5380TIP3    H240336   4.884   0.708  12.840 -0.1178 -0.4639 -0.8097
 5381TIP3   OH240337   2.514   4.585  11.455 -0.2073  0.3265  0.3587
 5381TIP3    H140338   2.569   4.536  11.516  1.5780  0.5994 -0.9476
 5381TIP3    H240339   2.429   4.591  11.499 -0.4422 -3.5683  0.7776
 5382TIP3   OH240340   3.303   0.047  12.059  0.7014  0.5141  0.0464
 5382TIP3    H140341   3.347   0.122  12.020 -1.8900  1.4457 -1.2921
 5382TIP3    H240342   3.233   0.084  12.112  0.2549 -0.9286  0.5261
 5383TIP3   OH240343   5.391   4.600  10.662  0.1531 -0.9508 -0.0361
 5383TIP3    H140344   5.471   4.549  10.652  1.0587  0.7067 -1.8686
 5383TIP3    H240345   5.354   4.606  10.574 -1.4687 -0.8161  0.6049
 5384TIP3   OH240346   3.590   2.016  12.381  1.0395 -0.2000  0.5337
 5384TIP3    H140347   3.632   1.954  12.321 -0.1128  1.3344 -2.0572
 5384TIP3    H240348   3.640   2.097  12.370  0.5481  0.2302  1.3469
 5385TIP3   OH240349   4.711   3.589  11.466  0.2369  0.2428  0.1782
 5385TIP3    H140350   4.653   3.648  11.418 -1.5124  0.6271  2.5653
 5385TIP3    H240351   4.779   3.647  11.502  2.3189 -0.2143 -2.6610
 5386TIP3   OH240352   3.036   5.797  10.433  0.4539 -0.2358 -0.3077
 5386TIP3    H140353   3.007   5.884  10.460 -1.4264 -0.7877 -0.4015
 5386TIP3    H240354   3.056   5.806  10.340 -0.4709 -0.0513 -0.5003
 5387TIP3   OH240355   3.836   6.255  11.675 -0.6751 -0.2834  0.3465
 5387TIP3    H140356   3.847   6.282  11.584 -1.6097 -0.3078  0.2150
 5387TIP3    H240357   3.899   6.183  11.687  0.3917  0.5798  0.1198
 5388TIP3   OH240358   3.171   4.199  10.372 -0.3188 -0.1683  0.2076
 5388TIP3    H140359   3.259   4.223  10.342  0.8218 -3.4216  0.5404
 5388TIP3    H240360   3.166   4.235  10.461  1.4209 -1.3333  0.8337
 5389TIP3   OH240361   4.444   3.456  11.953 -0.0986  0.6837 -0.4298
 5389TIP3    H140362   4.360   3.494  11.929 -0.4874 -2.0870 -4.6249
 5389TIP3    H240363   4.507   3.504  11.899  0.0712 -1.1512 -1.9407
 5390TIP3   OH240364   0.087   0.988  10.128 -0.1425  0.1813 -0.9015
 5390TIP3    H140365   0.173   1.028  10.143  0.8635 -2.2044  0.3489
 5390TIP3    H240366   0.101   0.925  10.057 -1.0989  0.3970 -1.3019
 5391TIP3   OH240367   2.052   6.340   2.430 -0.6178  0.4440 -0.7780
 5391TIP3    H140368   2.028   6.249   2.412  4.6711 -1.6558  0.8493
 5391TIP3    H240369   2.013   6.360   2.515 -0.9533 -0.7242 -0.6475
 5392TIP3   OH240370   4.301   4.403   4.137 -0.1252 -0.5603 -0.2417
 5392TIP3    H140371   4.281   4.491   4.104 -0.2063 -0.7729 -0.7701
 5392TIP3    H240372   4.216   4.367   4.162  0.0778  0.1278  1.5736
 5393TIP3   OH240373   2.530   1.688   2.090 -0.2022 -0.6031 -0.0164
 5393TIP3    H140374   2.549   1.679   1.996  0.6045  0.9924 -0.0478
 5393TIP3    H240375   2.529   1.783   2.105  1.6987 -0.8127  1.9428
 5394TIP3   OH240376   6.391   3.988   3.901 -0.1751  0.0813 -0.4769
 5394TIP3    H140377   6.315   4.039   3.872 -1.1982  0.1998  2.1731
 5394TIP3    H240378   6.427   3.951   3.820 -1.4690  2.1402 -2.1016
 5395TIP3   OH240379   3.536   1.645   4.037 -0.1836 -0.4922  0.1606
 5395TIP3    H140380   3.461   1.586   4.035 -0.9364  0.4342  0.2722
 5395TIP3    H240381   3.523   1.703   3.962 -0.0155  0.1888  0.6451
 5396TIP3   OH240382   4.175   0.557   3.063  0.0260 -0.3001  0.7007
 5396TIP3    H140383   4.200   0.537   2.972  1.0647 -1.1182  1.1481
 5396TIP3    H240384   4.249   0.528   3.115  0.2922  1.9440  1.6896
 5397TIP3   OH240385   6.822   0.477   2.444  0.2671 -0.4085  0.1303
 5397TIP3    H140386   6.917   0.465   2.452  0.6458  1.6586 -0.6289
 5397TIP3    H240387   6.808   0.571   2.458 -1.7816 -0.7913  1.0326
 5398TIP3   OH240388   4.379   2.186   3.886  0.3475  0.3062  0.1927
 5398TIP3    H140389   4.329   2.263   3.914 -0.6886 -0.0908 -0.5150
 5398TIP3    H240390   4.377   2.189   3.790 -0.7549 -1.2182  0.1141
 5399TIP3   OH240391   0.560   0.896   3.743 -0.0478 -0.2688  0.0812
 5399TIP3    H140392   0.479   0.855   3.775  0.0265 -2.7698 -2.5487
 5399TIP3    H240393   0.616   0.902   3.821 -1.6937 -1.1679  1.4028
 5400TIP3   OH240394   5.393   5.461   2.496 -0.1390 -0.8677 -0.6150
 5400TIP3    H140395   5.325   5.499   2.440 -1.2540 -1.5117  0.2582
 5400TIP3    H240396   5.344   5.415   2.565  1.1696  0.1424  1.0570
 5401TIP3   OH240397   2.850   4.054   2.336  0.5440 -0.8349  0.2524
 5401TIP3    H140398   2.760   4.061   2.369  0.8030  1.5360  0.6946
 5401TIP3    H240399   2.849   4.104   2.254  1.7942  0.8267  1.1752
 5402TIP3   OH240400   2.529   0.117   2.259  0.0018  0.2011 -0.2082
 5402TIP3    H140401   2.554   0.106   2.167 -0.9400  1.0720 -0.5730
 5402TIP3    H240402   2.574   0.045   2.304  2.7248  1.3150 -0.9043
 5403TIP3   OH240403   3.551   5.436   3.047 -0.2346 -0.3470 -0.7325
 5403TIP3    H140404   3.539   5.373   3.118 -3.0642  0.0278 -0.7661
 5403TIP3    H240405   3.586   5.383   2.975 -0.5605 -1.4469 -0.1094
 5404TIP3   OH240406   6.687   5.753   3.359 -1.0428 -0.1150  0.0238
 5404TIP3    H140407   6.712   5.806   3.283  2.0973 -1.0494  0.2634
 5404TIP3    H240408   6.681   5.815   3.431  0.3669  0.2193 -0.1314
 5405TIP3   OH240409   2.557   4.067   4.253  0.8542 -0.0732  0.4211
 5405TIP3    H140410   2.559   3.976   4.223  2.1930 -0.1160  0.5720
 5405TIP3    H240411   2.477   4.103   4.215  0.9071 -0.9859 -0.6147
 5406TIP3   OH240412   4.966   0.265   4.625 -0.6398 -0.0947  0.3566
 5406TIP3    H140413   5.015   0.338   4.663  1.4056 -1.0083 -0.3833
 5406TIP3    H240414   4.888   0.258   4.680 -0.3377  1.9004  1.1379
 5407TIP3   OH240415   2.499   0.489   3.232  0.1428 -0.1495 -0.3674
 5407TIP3    H140416   2.464   0.498   3.321 -0.2915  1.0953 -0.6309
 5407TIP3    H240417   2.449   0.418   3.193 -1.6726  1.1165 -0.4942
 5408TIP3   OH240418   4.336   2.216   2.481  0.8761 -0.5608 -0.1788
 5408TIP3    H140419   4.427   2.239   2.502  0.7503  1.7057 -1.7976
 5408TIP3    H240420   4.326   2.126   2.513  3.8939 -1.1399 -0.5811
 5409TIP3   OH240421   5.666   6.250   2.482  0.3448  0.4933  0.0085
 5409TIP3    H140422   5.574   6.257   2.509  0.3645  1.1296 -0.0595
 5409TIP3    H240423   5.702   6.181   2.537  0.2729  1.4657  1.3379
 5410TIP3   OH240424   3.291   3.215   2.177 -0.1181  0.1986 -0.0768
 5410TIP3    H140425   3.288   3.123   2.202  1.0985 -0.4210 -1.9491
 5410TIP3    H240426   3.243   3.219   2.094  0.4569  1.0827 -0.3914
 5411TIP3   OH240427   2.676   2.665   5.086  0.4661 -0.7391 -0.3665
 5411TIP3    H140428   2.646   2.723   5.156  0.0409  0.6028 -1.6224
 5411TIP3    H240429   2.699   2.584   5.131  0.9564  0.3368  1.4297
 5412TIP3   OH240430   4.230   2.623   4.266  0.0672 -0.0698 -0.4732
 5412TIP3    H140431   4.302   2.561   4.277 -0.5426 -0.9878 -1.4872
 5412TIP3    H240432   4.194   2.634   4.354  0.2250 -1.1077 -0.2735
 5413TIP3   OH240433   6.372   1.616   3.134 -0.0824 -0.1034  1.0262
 5413TIP3    H140434   6.354   1.522   3.143 -0.9595 -0.2241 -1.1851
 5413TIP3    H240435   6.419   1.623   3.051 -2.6919  1.6304 -0.4732
 5414TIP3   OH240436   3.770   2.166   4.433  0.4241  0.0442 -0.4722
 5414TIP3    H140437   3.737   2.250   4.401 -1.5610 -0.9529 -1.1968
 5414TIP3    H240438   3.850   2.151   4.381  0.2706  1.0123 -1.0290
 5415TIP3   OH240439   3.699   0.345   4.920  0.2542 -0.0142  0.6321
 5415TIP3    H140440   3.726   0.329   4.829  2.0932 -1.6463  1.3716
 5415TIP3    H240441   3.605   0.356   4.916  0.3967  0.8675 -1.5713
 5416TIP3   OH240442   2.143   2.546   2.185 -0.7769 -0.1207  0.1565
 5416TIP3    H140443   2.234   2.543   2.156 -0.9374  0.6751 -0.4931
 5416TIP3    H240444   2.095   2.579   2.109 -1.3528  1.1062  1.0115
 5417TIP3   OH240445   6.765   3.330   4.294  0.2367  0.3848  0.3659
 5417TIP3    H140446   6.716   3.285   4.225  0.5255  0.3381  0.1920
 5417TIP3    H240447   6.767   3.422   4.265  1.1344  0.2143 -0.1427
 5418TIP3   OH240448   0.957   5.215   2.620  0.5941  0.1799 -0.2160
 5418TIP3    H140449   1.006   5.298   2.616  3.2703 -1.2825  0.0705
 5418TIP3    H240450   0.969   5.176   2.534  0.2630 -0.4265  0.0074
 5419TIP3   OH240451   1.310   5.160   2.378  0.6802 -0.3703  0.2565
 5419TIP3    H140452   1.337   5.242   2.418 -1.6252  1.1518 -1.0480
 5419TIP3    H240453   1.375   5.144   2.310 -0.0158  1.7233 -1.0243
 5420TIP3   OH240454   2.261   2.650   3.158 -0.4915 -0.0878 -0.8869
 5420TIP3    H140455   2.190   2.610   3.209 -0.4353  1.0323  0.1373
 5420TIP3    H240456   2.216   2.708   3.097 -0.4915  0.1357 -0.6779
 5421TIP3   OH240457   0.957   0.344   3.563  0.4609 -0.4724 -0.0870
 5421TIP3    H140458   0.883   0.320   3.508 -0.6592 -1.0790  1.6144
 5421TIP3    H240459   0.943   0.437   3.581  1.0288 -0.1777 -1.0631
 5422TIP3   OH240460   1.963   2.551   1.921  0.2339 -0.1879  1.0483
 5422TIP3    H140461   2.010   2.547   1.838 -2.0362 -1.3170 -0.2558
 5422TIP3    H240462   1.928   2.640   1.925  0.5491 -0.0578  0.9238
 5423TIP3   OH240463   5.271   4.541   4.892  0.6867  0.2313 -0.0221
 5423TIP3    H140464   5.325   4.565   4.817  0.9592  0.2800  0.1869
 5423TIP3    H240465   5.232   4.457   4.868  1.9985 -0.5360  0.3912
 5424TIP3   OH240466   0.888   6.618   2.102  0.4442 -0.1657  0.7119
 5424TIP3    H140467   0.954   6.682   2.127  0.6349 -0.1494  0.1711
 5424TIP3    H240468   0.815   6.634   2.162 -0.9839  2.9542 -1.5962
 5425TIP3   OH240469   5.502   4.829   2.868  0.3321  0.8682 -0.4438
 5425TIP3    H140470   5.589   4.868   2.880 -0.2312  2.3773 -1.0808
 5425TIP3    H240471   5.474   4.805   2.956  0.0131  3.5018  0.2388
 5426TIP3   OH240472   4.498   0.089   2.854 -0.0811  0.3631 -0.2004
 5426TIP3    H140473   4.458   0.163   2.899 -1.2472 -1.6862  2.3634
 5426TIP3    H240474   4.593   0.100   2.867 -0.2349  1.4404  0.0339
 5427TIP3   OH240475   4.761   2.595   2.902  0.2264 -0.2480  0.3242
 5427TIP3    H140476   4.723   2.507   2.896  0.3034 -0.4646  2.2315
 5427TIP3    H240477   4.814   2.604   2.824  0.1873 -1.9002  0.0736
 5428TIP3   OH240478   6.785   1.749   4.079  0.4468 -0.6337 -0.0736
 5428TIP3    H140479   6.719   1.810   4.113  0.0769 -1.1873  0.2147
 5428TIP3    H240480   6.861   1.804   4.061  0.0542 -0.0542  0.0025
 5429TIP3   OH240481   2.964   1.551   3.166  0.0742  0.1597  0.1316
 5429TIP3    H140482   2.918   1.561   3.249 -2.6883 -0.6047 -1.1995
 5429TIP3    H240483   2.987   1.458   3.162  2.4685  0.6267  1.0443
 5430TIP3   OH240484   2.543   3.258   4.182  0.3472  0.3923 -0.2216
 5430TIP3    H140485   2.570   3.248   4.273 -1.0209 -4.3388 -0.0885
 5430TIP3    H240486   2.449   3.244   4.182  0.3716 -0.2694 -2.3695
 5431TIP3   OH240487   3.414   2.083   3.256 -0.1274  0.0321  0.0241
 5431TIP3    H140488   3.397   2.114   3.166  0.1124  1.4836  0.4577
 5431TIP3    H240489   3.334   2.106   3.304  0.5645  1.2251  0.6513
 5432TIP3   OH240490   4.453   0.609   5.139  0.8545 -0.2011 -0.5648
 5432TIP3    H140491   4.407   0.555   5.075  1.2628 -0.3553 -0.7234
 5432TIP3    H240492   4.413   0.586   5.223  0.7235 -0.4221 -0.6889
 5433TIP3   OH240493   4.199   0.242   4.638 -0.2079  0.1944  0.2371
 5433TIP3    H140494   4.232   0.163   4.679  1.4794  0.0765 -1.2472
 5433TIP3    H240495   4.119   0.263   4.686  0.0443 -1.6367  1.5166
 5434TIP3   OH240496   5.003   1.131   3.221  0.4975 -0.0488 -0.0944
 5434TIP3    H140497   4.932   1.187   3.249  0.4006  0.5750 -1.4952
 5434TIP3    H240498   4.997   1.053   3.277  0.3577  1.1174  1.5558
 5435TIP3   OH240499   0.060   6.240   2.312  0.0566  0.4503  0.4705
 5435TIP3    H140500   0.030   6.241   2.221  1.1372  0.0697  0.0946
 5435TIP3    H240501   0.017   6.164   2.351 -0.8875  0.9621  0.4576
 5436TIP3   OH240502   6.419   0.576   2.741 -0.2452  0.3160 -0.1490
 5436TIP3    H140503   6.504   0.558   2.782 -0.1474  1.1198  0.0115
 5436TIP3    H240504   6.362   0.599   2.814 -0.5739 -0.0887 -0.2731
 5437TIP3   OH240505   1.226   5.047   5.009  0.0526  0.0696 -0.2268
 5437TIP3    H140506   1.182   4.995   4.942  1.3063 -0.8323 -0.3884
 5437TIP3    H240507   1.176   5.031   5.089 -1.7442  1.5222 -0.9832
 5438TIP3   OH240508   3.040   4.937   2.849  0.3773 -0.0649  0.2814
 5438TIP3    H140509   2.979   4.864   2.843  1.2796 -0.8902  0.8958
 5438TIP3    H240510   2.984   5.014   2.864 -0.7988 -0.1756 -2.9127
 5439TIP3   OH240511   1.913   4.613   2.848 -0.4796  0.2288 -1.0027
 5439TIP3    H140512   1.904   4.706   2.867  0.9494  0.0892  0.5512
 5439TIP3    H240513   1.865   4.569   2.918 -0.3006 -0.2205 -1.1577
 5440TIP3   OH240514   5.142   0.456   4.722  0.1781 -0.4184 -0.4933
 5440TIP3    H140515   5.216   0.514   4.706 -0.3137  0.6631  0.9245
 5440TIP3    H240516   5.147   0.436   4.816 -0.1193 -2.0609 -0.7960
 5441TIP3   OH240517   3.917   6.344   5.794  0.0609 -0.2126  0.1688
 5441TIP3    H140518   4.005   6.308   5.784 -0.3098 -0.8408 -1.0990
 5441TIP3    H240519   3.916   6.420   5.736 -0.3521 -0.4724 -0.1773
 5442TIP3   OH240520   4.604   1.359   5.332  0.0653  0.3313 -0.4798
 5442TIP3    H140521   4.611   1.413   5.410 -0.5264  0.9110 -0.8180
 5442TIP3    H240522   4.644   1.276   5.357  1.8706  1.2081 -0.2358
 5443TIP3   OH240523   1.264   5.534   4.183 -0.3532  0.0805  0.2557
 5443TIP3    H140524   1.273   5.460   4.243  1.3341 -0.0416 -0.0949
 5443TIP3    H240525   1.214   5.599   4.232  0.3622 -0.2949  1.5281
 5444TIP3   OH240526   5.478   5.089   3.113  0.0453  0.0738 -0.4160
 5444TIP3    H140527   5.426   5.150   3.061 -1.3619 -1.3552 -0.7388
 5444TIP3    H240528   5.550   5.064   3.055 -0.5454 -0.1657 -1.0703
 5445TIP3   OH240529   3.929   0.800   2.854  0.0558 -0.4177  0.1462
 5445TIP3    H140530   3.877   0.879   2.871 -0.9561 -1.4176  2.0931
 5445TIP3    H240531   4.019   0.829   2.867 -0.2531  0.5498  0.2706
 5446TIP3   OH240532   5.569   1.810   3.336  0.1642 -0.5329 -0.2652
 5446TIP3    H140533   5.627   1.750   3.383  0.6472 -0.1488 -0.3570
 5446TIP3    H240534   5.545   1.876   3.402  0.2578 -0.3987 -0.3647
 5447TIP3   OH240535   2.234   6.443   1.849 -0.7488 -0.3142  0.5086
 5447TIP3    H140536   2.265   6.384   1.918 -0.7199 -0.0739  0.7072
 5447TIP3    H240537   2.165   6.395   1.805  0.9387 -1.5001 -0.9759
 5448TIP3   OH240538   0.212   2.450   4.870  0.3680  0.2013  0.6667
 5448TIP3    H140539   0.196   2.525   4.927 -1.0395  0.7499 -0.3865
 5448TIP3    H240540   0.220   2.488   4.783 -0.1091 -0.8467  0.1572
 5449TIP3   OH240541   1.542   4.017   3.902 -0.2449 -0.2795  0.2363
 5449TIP3    H140542   1.537   4.100   3.854 -1.3414 -1.6680 -2.2884
 5449TIP3    H240543   1.487   4.030   3.978 -1.2143  1.0193 -0.6386
 5450TIP3   OH240544   1.526   2.797   2.464 -0.2567  0.6654  0.2808
 5450TIP3    H140545   1.497   2.834   2.547 -0.8714 -0.4183  0.5707
 5450TIP3    H240546   1.448   2.756   2.426  0.0982  0.8167 -0.6579
 5451TIP3   OH240547   1.828   0.469   3.853 -0.3815  0.3926 -0.8487
 5451TIP3    H140548   1.796   0.380   3.869 -0.5091  0.0464 -2.7732
 5451TIP3    H240549   1.870   0.495   3.935 -0.5957 -1.3230 -0.1540
 5452TIP3   OH240550   2.500   5.991   1.981 -0.1942  0.1132 -0.0054
 5452TIP3    H140551   2.577   5.995   2.038  0.2209  0.5913 -0.5757
 5452TIP3    H240552   2.524   6.045   1.905 -0.5114 -0.9763 -0.8973
 5453TIP3   OH240553   2.264   3.817   2.344 -0.1181  0.0701  0.3826
 5453TIP3    H140554   2.301   3.785   2.263  0.5586  0.1910  0.6405
 5453TIP3    H240555   2.280   3.912   2.343  0.9226 -0.0842  1.1762
 5454TIP3   OH240556   4.540   4.475   3.706 -0.3622  0.1409  0.3419
 5454TIP3    H140557   4.587   4.434   3.633 -0.4250  1.3419 -0.3948
 5454TIP3    H240558   4.464   4.517   3.665 -0.5970  0.5146  1.1526
 5455TIP3   OH240559   5.899   1.147   4.441 -0.1455  0.3938 -0.5486
 5455TIP3    H140560   5.887   1.122   4.349 -0.7699  2.5854 -1.1281
 5455TIP3    H240561   5.810   1.162   4.473  0.1400  0.7901  0.0642
 5456TIP3   OH240562   0.367   1.662   4.817 -0.2728  0.0036  0.0952
 5456TIP3    H140563   0.459   1.651   4.793 -0.5493 -1.4452 -0.4047
 5456TIP3    H240564   0.352   1.597   4.885 -0.4157  1.6832  1.7586
 5457TIP3   OH240565   4.107   6.083   2.255 -0.4764 -0.0522  0.1038
 5457TIP3    H140566   4.099   6.008   2.196 -1.6923 -0.3883  0.6629
 5457TIP3    H240567   4.127   6.157   2.198 -1.6991 -0.3580 -0.7649
 5458TIP3   OH240568   3.577   3.224   3.836  0.1373 -0.3391 -1.1119
 5458TIP3    H140569   3.541   3.312   3.824 -2.5109 -1.0160  0.7932
 5458TIP3    H240570   3.660   3.238   3.882  0.6184  1.2043 -2.3920
 5459TIP3   OH240571   0.582   0.052   2.080  0.0871  0.8878  0.1202
 5459TIP3    H140572   0.570   0.006   2.163  1.6118  1.8969  0.9472
 5459TIP3    H240573   0.619  -0.014   2.022 -0.0138  0.4417  0.5494
 5460TIP3   OH240574   6.242   5.650   2.439  0.3607 -0.3394 -0.2400
 5460TIP3    H140575   6.227   5.744   2.435 -0.9424 -0.5900 -2.2877
 5460TIP3    H240576   6.337   5.641   2.429  0.4016  0.7233 -1.0252
 5461TIP3   OH240577   3.915   0.121   2.088 -0.1115  0.4737 -0.1180
 5461TIP3    H140578   4.007   0.148   2.096  0.0309 -0.2955  1.2602
 5461TIP3    H240579   3.866   0.190   2.134 -0.1923  0.7227 -0.5779
 5462TIP3   OH240580   6.680   5.121   4.819 -0.3835  0.5392  0.3126
 5462TIP3    H140581   6.766   5.089   4.844 -0.0669  0.4025 -0.9030
 5462TIP3    H240582   6.698   5.202   4.770 -0.6737 -0.9670 -2.5211
 5463TIP3   OH240583   3.823   0.662   2.602 -0.3784  0.2703  0.2939
 5463TIP3    H140584   3.884   0.592   2.579  0.4098  0.9391  0.2839
 5463TIP3    H240585   3.871   0.716   2.665 -0.4690  1.5300 -0.6753
 5464TIP3   OH240586   4.699   3.458   3.846 -0.0589  0.1711 -0.1284
 5464TIP3    H140587   4.651   3.388   3.890  1.0973 -0.2624  0.4860
 5464TIP3    H240588   4.634   3.500   3.790 -0.8903 -1.0853 -0.1443
 5465TIP3   OH240589   3.474   5.715   5.049  0.1121 -0.4657  0.3625
 5465TIP3    H140590   3.378   5.721   5.055  0.2865  1.6814  3.0559
 5465TIP3    H240591   3.492   5.621   5.050 -1.9419 -0.9188  0.5324
 5466TIP3   OH240592   2.321   0.914   4.202 -0.0525  0.3647 -0.2764
 5466TIP3    H140593   2.381   0.850   4.164 -0.7506  0.0244 -0.8378
 5466TIP3    H240594   2.372   0.956   4.271  0.4124 -0.8385  0.1464
 5467TIP3   OH240595   3.566   3.533   5.484  0.0141  0.5611  0.1100
 5467TIP3    H140596   3.522   3.525   5.568 -1.2123  1.0643 -0.4540
 5467TIP3    H240597   3.650   3.574   5.504 -0.7979  1.8819  0.9386
 5468TIP3   OH240598   1.444   0.617   2.734 -0.2433  0.0499  0.2300
 5468TIP3    H140599   1.473   0.529   2.709  0.8330  0.4977 -0.1592
 5468TIP3    H240600   1.361   0.629   2.688  0.6681  0.0545 -1.5131
 5469TIP3   OH240601   6.087   5.321   2.169 -0.4414 -0.0551  0.0051
 5469TIP3    H140602   6.135   5.241   2.189  0.1427 -0.0663 -1.3397
 5469TIP3    H240603   6.122   5.349   2.084 -1.8872  0.6666 -0.3710
 5470TIP3   OH240604   2.676   4.300   2.020 -0.0163  0.1976 -0.2019
 5470TIP3    H140605   2.663   4.394   2.009 -1.2305 -0.1558 -2.1921
 5470TIP3    H240606   2.588   4.263   2.015  0.5648 -1.1541 -0.8012
 5471TIP3   OH240607   1.320   1.261   3.132 -0.6970  0.2129  0.5771
 5471TIP3    H140608   1.235   1.245   3.174 -0.0458  0.3361  1.9951
 5471TIP3    H240609   1.357   1.334   3.182  1.2112 -1.2742  1.4445
 5472TIP3   OH240610   6.171   4.657   4.511  0.1063 -0.0985 -0.2960
 5472TIP3    H140611   6.265   4.675   4.508 -0.0545  1.2259  1.2578
 5472TIP3    H240612   6.132   4.736   4.547 -1.4772 -1.1139  0.3407
 5473TIP3   OH240613   2.635   4.081   3.905 -0.1299  0.3263 -0.4815
 5473TIP3    H140614   2.576   4.156   3.901 -0.9195 -0.2386  0.2140
 5473TIP3    H240615   2.657   4.072   3.997  0.1201 -0.1661 -0.5842
 5474TIP3   OH240616   0.381   6.260   4.994  0.4725  0.2524 -0.0063
 5474TIP3    H140617   0.396   6.214   5.077  0.4409  0.2644  0.0064
 5474TIP3    H240618   0.389   6.353   5.016  2.5044  0.2072 -0.4361
 5475TIP3   OH240619   5.882   6.348   2.166  0.3940  0.5013  0.2785
 5475TIP3    H140620   5.969   6.332   2.203  0.9286  2.3513 -0.0752
 5475TIP3    H240621   5.848   6.260   2.147  1.9480 -0.2877  0.9110
 5476TIP3   OH240622   4.184   4.285   4.779  0.2161 -0.4436 -0.1402
 5476TIP3    H140623   4.214   4.345   4.847 -1.2161 -0.5801  0.6644
 5476TIP3    H240624   4.251   4.290   4.711  0.3607  1.7247  0.0938
 5477TIP3   OH240625   5.227   2.154   4.336 -0.0529  0.1560  0.1600
 5477TIP3    H140626   5.185   2.231   4.376  0.3963  1.0068 -0.9390
 5477TIP3    H240627   5.204   2.081   4.394 -1.3318  0.9410  0.6926
 5478TIP3   OH240628   3.173   3.822   2.191 -0.3197 -0.6191 -0.2880
 5478TIP3    H140629   3.210   3.748   2.144 -1.6056 -1.3804 -0.1398
 5478TIP3    H240630   3.153   3.887   2.123 -1.1767 -1.2815 -0.6861
 5479TIP3   OH240631   0.864   4.539   2.052  0.5459  0.3119  0.1852
 5479TIP3    H140632   0.950   4.559   2.087  0.5642  1.1604 -0.3299
 5479TIP3    H240633   0.874   4.450   2.016  0.8437 -0.0933  1.2380
 5480TIP3   OH240634   5.577   5.682   5.359 -0.1596 -0.0875  0.4069
 5480TIP3    H140635   5.648   5.678   5.422  1.2498 -0.6860 -1.1421
 5480TIP3    H240636   5.603   5.752   5.299 -1.4220  0.4107  0.4166
 5481TIP3   OH240637   3.677   1.704   3.287  0.2240 -0.0023 -0.2431
 5481TIP3    H140638   3.620   1.729   3.214  0.0723 -0.6460 -0.3487
 5481TIP3    H240639   3.684   1.783   3.340 -1.0553 -0.0005 -0.0379
 5482TIP3   OH240640   3.128   4.698   3.278 -0.4301 -0.1484 -0.4754
 5482TIP3    H140641   3.054   4.637   3.281 -0.8194  0.3267 -0.1324
 5482TIP3    H240642   3.190   4.663   3.343 -1.0621  0.3195  0.4109
 5483TIP3   OH240643   6.165   4.239   4.743 -0.2937  0.0360  0.0868
 5483TIP3    H140644   6.214   4.162   4.773 -0.2078  0.1454  0.2282
 5483TIP3    H240645   6.079   4.230   4.785 -0.4725 -0.2714 -0.3363
 5484TIP3   OH240646   0.366   2.525   4.627 -0.1865  0.7059  0.5003
 5484TIP3    H140647   0.428   2.598   4.633  1.7317 -0.8140  0.2026
 5484TIP3    H240648   0.418   2.448   4.652 -1.7470 -0.7449 -0.5670
 5485TIP3   OH240649   3.474   3.412   5.120 -0.3317  0.2165  0.5227
 5485TIP3    H140650   3.431   3.393   5.037  1.8537 -1.0440 -0.3944
 5485TIP3    H240651   3.561   3.444   5.097 -0.3242  1.6578  2.3199
 5486TIP3   OH240652   4.080   5.842   4.010 -0.1638 -1.3319  0.4145
 5486TIP3    H140653   4.028   5.844   3.930  1.7869  2.6079 -1.0398
 5486TIP3    H240654   4.038   5.906   4.067  1.8538  0.5941 -0.0946
 5487TIP3   OH240655   0.280   2.193   4.828  0.1432  0.0639  0.1125
 5487TIP3    H140656   0.350   2.141   4.867 -0.3420 -0.6225  0.0909
 5487TIP3    H240657   0.294   2.281   4.862 -0.2865 -0.5103  1.8805
 5488TIP3   OH240658   2.581   0.211   2.974  0.0047 -0.0432 -0.0373
 5488TIP3    H140659   2.627   0.190   2.892 -1.3994  1.0986 -1.1868
 5488TIP3    H240660   2.651   0.228   3.037  1.1464 -0.1128 -1.2376
 5489TIP3   OH240661   1.705   5.254   4.634  0.3162 -0.5012  0.3411
 5489TIP3    H140662   1.778   5.252   4.696  0.7815  1.6037 -0.0742
 5489TIP3    H240663   1.731   5.318   4.568 -2.4426  1.2838  0.8534
 5490TIP3   OH240664   5.777   4.625   3.711  0.1563 -0.1494  0.2351
 5490TIP3    H140665   5.722   4.699   3.686 -0.5465 -1.3866 -2.2134
 5490TIP3    H240666   5.848   4.664   3.762  0.4417  2.4168 -1.9202
 5491TIP3   OH240667   3.314   5.975   4.794 -0.8914 -0.8342 -0.5485
 5491TIP3    H140668   3.329   5.903   4.733 -0.8521 -1.1248 -0.1915
 5491TIP3    H240669   3.254   5.940   4.860  0.2857 -1.0012  0.4548
 5492TIP3   OH240670   4.516   4.618   2.163  0.2777  0.2650  0.1102
 5492TIP3    H140671   4.530   4.590   2.073  0.5002  1.2603 -0.1710
 5492TIP3    H240672   4.425   4.595   2.182  0.5070 -0.8103 -0.0371
 5493TIP3   OH240673   2.408   3.041   3.041  0.1083  0.4995  0.1282
 5493TIP3    H140674   2.436   3.038   2.949  0.5690  2.1869  0.1848
 5493TIP3    H240675   2.438   3.126   3.072  1.2194 -0.6100  2.2712
 5494TIP3   OH240676   3.065   3.479   3.330  0.2864 -0.6115  0.1680
 5494TIP3    H140677   3.008   3.448   3.400 -1.4264 -0.8085 -1.2506
 5494TIP3    H240678   3.085   3.401   3.278  2.0661 -0.5840  0.7560
 5495TIP3   OH240679   5.300   2.291   4.052 -0.3412 -0.3209  0.0202
 5495TIP3    H140680   5.225   2.291   4.111 -0.5046  1.5841 -0.1237
 5495TIP3    H240681   5.269   2.339   3.974  0.0893 -2.1496 -1.3448
 5496TIP3   OH240682   2.174   6.744   5.035 -0.2416  0.4823 -0.6031
 5496TIP3    H140683   2.125   6.677   5.084  1.5314 -1.2680 -1.0607
 5496TIP3    H240684   2.136   6.743   4.948  0.8731 -1.3033 -1.1332
 5497TIP3   OH240685   4.284   2.428   4.795 -0.8257 -0.0311  0.2827
 5497TIP3    H140686   4.304   2.338   4.820 -2.2127  0.0782  2.0194
 5497TIP3    H240687   4.351   2.451   4.731 -0.1672 -2.1283  0.1530
 5498TIP3   OH240688   5.174   6.749   3.382  0.6616  0.4767 -0.1853
 5498TIP3    H140689   5.141   6.748   3.292 -0.1402  0.1523  0.1048
 5498TIP3    H240690   5.244   6.684   3.383 -0.8981 -1.2727 -0.0048
 5499TIP3   OH240691   2.252   5.755   4.857  0.4162 -0.2641 -0.1460
 5499TIP3    H140692   2.242   5.666   4.823 -0.1960  0.0145 -0.6949
 5499TIP3    H240693   2.194   5.759   4.933  0.3187 -0.2786 -0.2201
 5500TIP3   OH240694   3.080   2.951   1.962 -0.3319  0.2918  0.0834
 5500TIP3    H140695   3.056   3.025   1.906 -1.8134 -0.2803 -0.0720
 5500TIP3    H240696   2.997   2.917   1.993  0.3169 -1.3652  0.0852
 5501TIP3   OH240697   2.036   4.229   3.754  0.1372  0.2769  0.0241
 5501TIP3    H140698   2.089   4.153   3.730 -1.7763 -1.3539  0.6536
 5501TIP3    H240699   2.063   4.249   3.844  0.3748  0.0862 -0.0039
 5502TIP3   OH240700   5.384   5.614   4.790  0.0292 -0.2139 -0.2284
 5502TIP3    H140701   5.304   5.628   4.839 -0.4974 -1.1289 -0.8009
 5502TIP3    H240702   5.363   5.544   4.729  1.5932 -1.3198  0.4131
 5503TIP3   OH240703   0.940   0.286   5.096  0.3682 -0.1858  0.0120
 5503TIP3    H140704   0.982   0.371   5.106 -1.3612  0.7438 -0.3534
 5503TIP3    H240705   0.866   0.301   5.037 -0.0315 -1.9193  0.0040
 5504TIP3   OH240706   4.149   0.392   2.193 -0.1257  0.1158  0.1963
 5504TIP3    H140707   4.170   0.482   2.220  0.7952  0.6848 -2.1272
 5504TIP3    H240708   4.053   0.390   2.193 -0.1564  0.8257  1.0625
 5505TIP3   OH240709   5.633   2.110   3.368  0.6846  0.2271 -0.0019
 5505TIP3    H140710   5.552   2.076   3.408  0.8956 -0.7242 -0.3451
 5505TIP3    H240711   5.609   2.196   3.333  0.1016  0.4066  0.8267
 5506TIP3   OH240712   2.014   0.588   2.931 -0.0683 -0.1408 -0.0570
 5506TIP3    H140713   1.919   0.590   2.945  0.2213  0.1545  2.2051
 5506TIP3    H240714   2.042   0.679   2.945  1.0424 -0.9182  4.0633
 5507TIP3   OH240715   2.535   1.656   3.442 -0.0211  0.4374  0.6658
 5507TIP3    H140716   2.565   1.716   3.374  2.0877  0.1500  1.2823
 5507TIP3    H240717   2.534   1.570   3.399  1.0274  0.3019  0.8821
 5508TIP3   OH240718   3.466   2.229   3.532 -0.1202  0.2343 -0.0573
 5508TIP3    H140719   3.464   2.315   3.492 -1.4835  0.7002  0.9232
 5508TIP3    H240720   3.375   2.210   3.552  0.4235 -0.1948  2.2954
 5509TIP3   OH240721   3.634   3.644   3.114 -0.5561  0.5097 -0.3874
 5509TIP3    H140722   3.720   3.606   3.101 -0.5731  0.0332  0.7770
 5509TIP3    H240723   3.647   3.738   3.099 -0.0374  0.3300 -1.0909
 5510TIP3   OH240724   3.900   0.225   1.627 -0.0052  0.1863  0.5597
 5510TIP3    H140725   3.865   0.294   1.684 -1.9955 -0.9488  0.8336
 5510TIP3    H240726   3.936   0.271   1.552 -1.6258  1.5378  0.5504
 5511TIP3   OH240727   1.539   3.681   3.998 -0.1552  0.3896  0.6869
 5511TIP3    H140728   1.458   3.718   4.034 -0.6550 -0.3763  0.3778
 5511TIP3    H240729   1.521   3.588   3.988  1.4943 -0.1790  2.5393
 5512TIP3   OH240730   1.524   2.927   3.738  1.5075  0.4091 -0.0152
 5512TIP3    H140731   1.506   2.956   3.649  0.0788  1.4918  0.5730
 5512TIP3    H240732   1.522   2.832   3.734  0.2058  0.4508 -0.9280
 5513TIP3   OH240733   2.942   0.063   2.620 -0.2500  0.1328 -0.4932
 5513TIP3    H140734   3.036   0.082   2.626 -0.1912  0.2454 -1.5547
 5513TIP3    H240735   2.933   0.009   2.542 -0.9709 -0.6335  0.0975
 5514TIP3   OH240736   4.390   5.781   4.532  0.6729  0.1603  0.0324
 5514TIP3    H140737   4.325   5.756   4.465 -0.9431  1.8997  0.8776
 5514TIP3    H240738   4.353   5.748   4.614  1.6105 -0.0973  0.3623
 5515TIP3   OH240739   2.491   5.142   3.891 -0.2573 -0.0618 -0.2057
 5515TIP3    H140740   2.448   5.096   3.963 -0.4427  0.3538 -0.0438
 5515TIP3    H240741   2.443   5.116   3.813 -0.2042 -0.3312 -0.1485
 5516TIP3   OH240742   5.252   3.699   4.188  0.2327 -0.3909 -0.7609
 5516TIP3    H140743   5.295   3.686   4.272  1.0562  0.1323 -1.0923
 5516TIP3    H240744   5.168   3.653   4.197 -0.2582  0.7066  0.7947
 5517TIP3   OH240745   3.367   5.748  12.894  0.4818 -0.2342 -0.3190
 5517TIP3    H140746   3.453   5.768  12.857  0.2181 -0.6719 -1.1969
 5517TIP3    H240747   3.386   5.694  12.970  0.9626 -0.9103 -0.9079
 5518TIP3   OH240748   0.792   2.141   5.073  0.0592 -0.1446  0.4572
 5518TIP3    H140749   0.824   2.149   5.163  0.6728 -0.4396  0.2751
 5518TIP3    H240750   0.817   2.052   5.047  3.3170  1.1177 -1.2642
 5519TIP3   OH240751   5.767   0.248   3.386 -0.2995 -0.4796  0.4908
 5519TIP3    H140752   5.846   0.216   3.343 -1.2350 -1.1075 -0.8260
 5519TIP3    H240753   5.764   0.200   3.469 -1.1068 -3.1644 -0.9689
 5520TIP3   OH240754   3.375   2.619   2.121 -0.0895  0.2254 -0.2542
 5520TIP3    H140755   3.362   2.670   2.040 -1.9369  0.8353  0.3697
 5520TIP3    H240756   3.323   2.665   2.187 -1.2413 -2.0134  0.5271
 5521TIP3   OH240757   3.963   0.946   3.753 -0.0029 -0.1287  0.1723
 5521TIP3    H140758   3.956   0.853   3.771 -0.2439  0.2299  2.1717
 5521TIP3    H240759   3.888   0.966   3.696 -1.1323 -0.8137  1.3611
 5522TIP3   OH240760   5.189   6.477   3.546 -0.0355  0.3339 -0.2898
 5522TIP3    H140761   5.106   6.451   3.586  0.4855 -2.0887 -0.5974
 5522TIP3    H240762   5.254   6.459   3.614  0.5216 -0.7650 -1.0851
 5523TIP3   OH240763   4.510   1.551   4.520 -0.0149  0.2742  0.2990
 5523TIP3    H140764   4.576   1.482   4.510 -0.2625  0.0731 -0.0084
 5523TIP3    H240765   4.505   1.567   4.614  1.3350  1.1498  0.2450
 5524TIP3   OH240766   2.098   6.672   1.906  0.4501 -0.5340 -0.1588
 5524TIP3    H140767   2.124   6.585   1.877  1.2520 -0.2858 -0.2039
 5524TIP3    H240768   2.118   6.673   2.000  0.3171 -0.4430 -0.1307
 5525TIP3   OH240769   5.911   6.526   3.381 -0.2151 -0.6985 -0.1111
 5525TIP3    H140770   5.882   6.547   3.470  0.7695 -1.7611  0.4836
 5525TIP3    H240771   5.884   6.601   3.328 -0.0101  0.3594  1.2547
 5526TIP3   OH240772   4.132   4.101   3.364 -0.1132 -0.2076 -0.0381
 5526TIP3    H140773   4.174   4.183   3.391 -0.3419  0.4697 -1.6423
 5526TIP3    H240774   4.145   4.042   3.439 -0.0155  1.2984  1.1873
 5527TIP3   OH240775   4.633   4.187   5.082 -0.1548 -0.3235 -0.0297
 5527TIP3    H140776   4.556   4.221   5.128  0.0878  1.4816 -0.8862
 5527TIP3    H240777   4.646   4.099   5.119 -0.0865  0.9116  3.2256
 5528TIP3   OH240778   4.831   0.725   3.035 -0.4191  0.0434 -0.2080
 5528TIP3    H140779   4.774   0.660   2.994  0.4071 -1.1831  0.5366
 5528TIP3    H240780   4.918   0.685   3.033  0.1876  1.3210 -0.1167
 5529TIP3   OH240781   6.408   3.493  16.811 -0.1705 -0.2541  0.2240
 5529TIP3    H140782   6.337   3.537  16.857 -1.2853 -1.2253 -0.5201
 5529TIP3    H240783   6.425   3.414  16.862 -1.7292 -1.5738 -1.2129
 5530TIP3   OH240784   4.677   6.615   2.106  0.3250 -0.2114 -0.2898
 5530TIP3    H140785   4.636   6.676   2.045 -0.7196 -1.0721 -0.4825
 5530TIP3    H240786   4.676   6.661   2.190 -2.8710 -0.8659  0.1729
 5531TIP3   OH240787   3.084   1.119   5.124  0.2643  0.2569  0.2690
 5531TIP3    H140788   3.133   1.038   5.127  0.7973  0.5996  1.5358
 5531TIP3    H240789   2.998   1.094   5.090  1.0079 -0.4896 -1.1640
 5532TIP3   OH240790   0.733   1.066   5.457 -0.1551  0.0964 -0.4182
 5532TIP3    H140791   0.824   1.046   5.434 -0.2508 -0.4141 -0.3599
 5532TIP3    H240792   0.681   1.021   5.390 -0.3634  0.5100 -0.5402
 5533TIP3   OH240793   1.806   4.971   3.286 -0.1050  0.0145 -0.3216
 5533TIP3    H140794   1.794   5.034   3.357  0.4763  0.7575 -0.8537
 5533TIP3    H240795   1.889   4.927   3.307  1.3571  1.9287 -1.7165
 5534TIP3   OH240796   4.606   3.365   2.750  0.3945 -0.4159 -0.4426
 5534TIP3    H140797   4.544   3.314   2.697  2.0609 -0.6245 -2.3003
 5534TIP3    H240798   4.631   3.438   2.693 -0.0068  1.0768  1.2234
 5535TIP3   OH240799   2.102   6.632   3.092 -0.5355  0.1489 -0.1916
 5535TIP3    H140800   2.118   6.721   3.060  0.4633 -0.0862 -0.3963
 5535TIP3    H240801   2.140   6.630   3.180  0.2417 -0.3031 -0.5186
 5536TIP3   OH240802   2.368   5.111   3.654  0.3576 -0.0490  0.4599
 5536TIP3    H140803   2.312   5.189   3.657 -0.2117 -0.4054 -0.4021
 5536TIP3    H240804   2.306   5.038   3.648  0.8962 -0.4160 -1.2398
 5537TIP3   OH240805   2.622   2.239   4.782 -0.0613  0.0062 -0.4735
 5537TIP3    H140806   2.715   2.241   4.803 -0.0001 -0.4043 -0.6892
 5537TIP3    H240807   2.610   2.156   4.735 -0.5901 -0.0820 -0.1933
 5538TIP3   OH240808   0.529   5.548   4.597  0.1261  0.1584  0.2319
 5538TIP3    H140809   0.470   5.487   4.553  0.6537  0.7883 -1.4122
 5538TIP3    H240810   0.582   5.493   4.654  0.2264 -0.8609 -0.8115
 5539TIP3   OH240811   5.775   2.685   4.433 -0.2452 -0.6817  0.4009
 5539TIP3    H140812   5.825   2.670   4.352 -1.1642 -1.8867  0.0332
 5539TIP3    H240813   5.837   2.730   4.491  1.1917 -1.8707 -0.1387
 5540TIP3   OH240814   0.776   4.976   4.969  0.2272 -0.3662 -0.0666
 5540TIP3    H140815   0.720   4.908   4.933  0.6661  0.2054 -1.9579
 5540TIP3    H240816   0.762   4.972   5.063 -2.6532 -0.5238 -0.4251
 5541TIP3   OH240817   6.088   6.725   2.288  0.1796 -0.2678 -0.2392
 5541TIP3    H140818   6.077   6.811   2.329 -2.1535 -0.2860 -0.6852
 5541TIP3    H240819   6.154   6.740   2.219 -2.0552  1.9095 -2.0908
 5542TIP3   OH240820   5.526   3.474   4.681 -0.1206  0.0094  0.3020
 5542TIP3    H140821   5.579   3.522   4.617  0.3924 -0.1808  0.5826
 5542TIP3    H240822   5.437   3.509   4.669  0.0281  0.1915 -0.3001
 5543TIP3   OH240823   2.172   3.881   2.669 -0.6716  0.2081 -0.1395
 5543TIP3    H140824   2.250   3.828   2.651 -1.3514 -0.1378 -2.4122
 5543TIP3    H240825   2.099   3.829   2.636 -1.8450  0.7174  1.5443
 5544TIP3   OH240826   1.205   4.746   2.325 -0.1257 -0.5434 -0.2919
 5544TIP3    H140827   1.270   4.814   2.341 -1.3179  1.1102 -2.0754
 5544TIP3    H240828   1.121   4.788   2.341 -1.0158 -0.8444 -3.4328
 5545TIP3   OH240829   0.118   2.270   2.793  0.0855  0.0914  1.2925
 5545TIP3    H140830   0.118   2.238   2.703  0.0417  0.4959  1.1478
 5545TIP3    H240831   0.116   2.365   2.785  2.3153  0.2324  1.6939
 5546TIP3   OH240832   4.019   0.317   5.022 -0.2972 -0.1726 -0.1016
 5546TIP3    H140833   3.941   0.291   5.071 -0.9365  0.0987 -0.9675
 5546TIP3    H240834   4.054   0.392   5.071  1.0212 -1.9381  1.8661
 5547TIP3   OH240835   1.692   0.113   4.557 -0.2645  0.1247  0.2208
 5547TIP3    H140836   1.776   0.138   4.596  0.5896 -0.6836 -1.0189
 5547TIP3    H240837   1.713   0.037   4.502 -1.7661  0.0649 -0.3141
 5548TIP3   OH240838   0.212   2.882   3.951  0.1192 -0.2035  0.8216
 5548TIP3    H140839   0.219   2.794   3.914  1.3294  0.5816 -0.9489
 5548TIP3    H240840   0.301   2.906   3.974  0.2193  1.3917 -0.9224
 5549TIP3   OH240841   1.176   4.928   3.423  0.0560 -0.0946  0.9283
 5549TIP3    H140842   1.104   4.981   3.456 -1.4559  0.3370 -2.5920
 5549TIP3    H240843   1.249   4.989   3.417 -0.5236  0.5852  0.6110
 5550TIP3   OH240844   1.716   4.827   3.878 -0.3721  0.6073 -0.3892
 5550TIP3    H140845   1.693   4.775   3.955  0.3474 -0.3944 -0.8343
 5550TIP3    H240846   1.665   4.789   3.807 -1.3983  1.8310 -0.3548
 5551TIP3   OH240847   2.485   1.973   3.002  0.1390  0.2394  0.0345
 5551TIP3    H140848   2.447   1.969   2.914 -4.3174  0.8888  1.6701
 5551TIP3    H240849   2.522   2.061   3.008  0.1506  0.3247 -1.0130
 5552TIP3   OH240850   6.342   6.174   2.776  0.2315 -0.5248  0.0602
 5552TIP3    H140851   6.261   6.220   2.753  1.4355  0.6664 -2.1767
 5552TIP3    H240852   6.316   6.083   2.785 -1.2160 -0.3837 -1.8617
 5553TIP3   OH240853   5.487   0.607   3.755 -0.1547 -0.0227 -0.7099
 5553TIP3    H140854   5.540   0.529   3.738 -1.1975 -1.1891  1.0663
 5553TIP3    H240855   5.408   0.573   3.796  0.1086  2.1033  1.7662
 5554TIP3   OH240856   0.221   3.596   3.848 -0.1122  0.0895  0.1011
 5554TIP3    H140857   0.194   3.516   3.804  1.3692 -0.6970  0.5647
 5554TIP3    H240858   0.200   3.581   3.940 -0.6908  0.6252  0.0624
 5555TIP3   OH240859   6.505   1.799   4.641  0.1274 -0.2387 -0.2594
 5555TIP3    H140860   6.486   1.707   4.622 -0.1270 -0.6926  1.8813
 5555TIP3    H240861   6.429   1.846   4.608 -0.2337 -0.9146 -0.4152
 5556TIP3   OH240862   0.584   4.007   3.656  0.4708  0.4428 -0.0096
 5556TIP3    H140863   0.584   3.912   3.657  0.5436  0.4452  0.1846
 5556TIP3    H240864   0.506   4.032   3.704  0.6054  0.4838  0.1887
 5557TIP3   OH240865   5.799   0.878   2.552 -0.0918 -0.1738  0.1656
 5557TIP3    H140866   5.868   0.819   2.520  0.4158  0.1673  0.6078
 5557TIP3    H240867   5.788   0.942   2.483  1.2106  0.7372  0.7471
 5558TIP3   OH240868   5.757   4.211   4.538  0.4410  0.5786 -0.1041
 5558TIP3    H140869   5.710   4.193   4.619  1.8913  0.0741  0.6562
 5558TIP3    H240870   5.824   4.144   4.533 -1.4000 -1.3197 -3.2754
 5559TIP3   OH240871   4.070   3.787   2.690  0.0946  0.2797 -0.2671
 5559TIP3    H140872   3.989   3.836   2.704  0.2905  0.6559 -0.4530
 5559TIP3    H240873   4.041   3.705   2.651 -0.1051  0.8820 -1.4217
 5560TIP3   OH240874   1.993   5.125   2.860  0.3717 -0.2899 -0.1443
 5560TIP3    H140875   1.956   5.059   2.801 -0.2596 -0.0883  0.0161
 5560TIP3    H240876   1.920   5.151   2.916  0.6130  0.5297 -0.1943
 5561TIP3   OH240877   5.408   0.236   2.865 -0.1048 -0.1970  0.2819
 5561TIP3    H140878   5.377   0.218   2.776 -0.7976 -0.8160  0.6345
 5561TIP3    H240879   5.503   0.233   2.858 -0.1627 -1.7301 -0.1469
 5562TIP3   OH240880   6.556   4.335   2.466 -0.0489 -0.3630 -0.8785
 5562TIP3    H140881   6.484   4.398   2.464  0.8948  0.8110  0.6139
 5562TIP3    H240882   6.635   4.389   2.458  0.8493 -1.1594  1.6855
 5563TIP3   OH240883   2.387   1.636   4.149 -0.4884  0.3417  0.1536
 5563TIP3    H140884   2.427   1.575   4.086 -1.5599  1.7573 -2.0148
 5563TIP3    H240885   2.358   1.580   4.221  0.3761 -1.4269 -0.7983
 5564TIP3   OH240886   1.204   5.228   4.310 -0.2781  0.4017 -0.7186
 5564TIP3    H140887   1.129   5.170   4.299  0.0497 -0.6661  1.8595
 5564TIP3    H240888   1.171   5.298   4.367  0.6361 -0.1017  0.4765
 5565TIP3   OH240889   5.550   4.141   3.123 -0.2127  0.0101 -0.0103
 5565TIP3    H140890   5.550   4.070   3.187  1.3803 -0.5804 -0.6122
 5565TIP3    H240891   5.488   4.205   3.157 -1.9869 -1.8215  0.3627
 5566TIP3   OH240892   0.507   0.572   5.426 -0.4786 -0.0546  0.4613
 5566TIP3    H140893   0.567   0.547   5.496  2.3958 -2.3143 -2.4505
 5566TIP3    H240894   0.547   0.651   5.389 -0.7138 -0.1263  0.0532
 5567TIP3   OH240895   3.217   3.600   4.465  0.2946 -0.1504  0.1396
 5567TIP3    H140896   3.133   3.566   4.434  1.1031 -0.2196 -2.2182
 5567TIP3    H240897   3.195   3.676   4.518 -1.3511 -1.8053  1.9818
 5568TIP3   OH240898   5.876   5.318   3.844  0.7098 -0.4874  0.0420
 5568TIP3    H140899   5.911   5.249   3.788 -0.0351 -0.1319 -0.8850
 5568TIP3    H240900   5.929   5.395   3.824 -1.5945  0.5646 -2.7346
 5569TIP3   OH240901   1.696   2.973   3.197  0.7658 -0.1012 -0.2786
 5569TIP3    H140902   1.660   2.897   3.150  1.1784 -0.5347  0.0958
 5569TIP3    H240903   1.766   3.006   3.140  1.9647 -1.2516  0.4649
 5570TIP3   OH240904   6.581   5.768   4.213 -0.0972 -0.1670 -0.1910
 5570TIP3    H140905   6.587   5.828   4.287  1.0297  1.0592 -1.2193
 5570TIP3    H240906   6.507   5.801   4.162 -0.7511 -0.8963  0.2574
 5571TIP3   OH240907   5.703   2.526   3.538  0.4426 -0.7659  0.4528
 5571TIP3    H140908   5.663   2.439   3.539 -2.4529  0.2277 -3.2730
 5571TIP3    H240909   5.632   2.585   3.564  1.6054  0.6837  0.4816
 5572TIP3   OH240910   0.620   3.652   2.751  0.3062  0.7605 -0.6512
 5572TIP3    H140911   0.681   3.612   2.689 -0.1515 -1.0791  0.0444
 5572TIP3    H240912   0.534   3.627   2.719  0.0735 -1.3299  1.3572
 5573TIP3   OH240913   3.925   3.701   2.945  0.3760 -0.0526  0.4451
 5573TIP3    H140914   3.860   3.756   2.901  0.1793 -0.5327  0.1348
 5573TIP3    H240915   3.955   3.640   2.878 -0.3558 -1.1785  1.1202
 5574TIP3   OH240916   6.376   1.795   3.685 -0.2284 -0.4047  0.0623
 5574TIP3    H140917   6.440   1.731   3.654 -1.5940 -2.1215  0.6622
 5574TIP3    H240918   6.318   1.810   3.611 -0.9979 -1.2910  0.4728
 5575TIP3   OH240919   5.704   0.834   4.923  0.2069  0.2003 -0.1107
 5575TIP3    H140920   5.762   0.766   4.957  0.4989  1.5015  2.1721
 5575TIP3    H240921   5.616   0.801   4.938  0.3114 -0.8170 -1.5480
 5576TIP3   OH240922   3.614   4.715   3.050  0.3021 -0.0685  0.4481
 5576TIP3    H140923   3.538   4.723   3.108 -1.0838 -1.0950 -1.1380
 5576TIP3    H240924   3.654   4.632   3.076  0.2472 -0.0605  0.5606
 5577TIP3   OH240925   3.462   0.399   3.128  0.4291 -0.4742 -0.2013
 5577TIP3    H140926   3.429   0.465   3.189  1.2889 -1.3407  1.2596
 5577TIP3    H240927   3.553   0.385   3.156  0.8116 -0.9943 -1.6230
 5578TIP3   OH240928   1.435   5.329   2.543 -0.2281  0.2792  0.0750
 5578TIP3    H140929   1.447   5.409   2.593 -1.2982  0.3046  0.3284
 5578TIP3    H240930   1.437   5.259   2.609 -0.2606  0.1877 -0.0203
 5579TIP3   OH240931   1.074   1.205   1.707 -0.1765 -0.5235  0.2925
 5579TIP3    H140932   1.036   1.293   1.696  0.2017 -0.4097 -0.1164
 5579TIP3    H240933   1.016   1.162   1.770  0.2213  0.3635  1.2882
 5580TIP3   OH240934   4.810   0.908   3.765 -0.1925  0.3489  0.5592
 5580TIP3    H140935   4.819   0.929   3.858  3.8855 -1.0338  0.6811
 5580TIP3    H240936   4.887   0.947   3.724 -0.4180 -1.4191 -1.7600
 5581TIP3   OH240937   4.493   3.083   4.535  0.1153  0.1266  0.0930
 5581TIP3    H140938   4.429   3.109   4.469 -0.6234  1.2695  1.2064
 5581TIP3    H240939   4.441   3.062   4.612  0.9993 -0.4046  0.5609
 5582TIP3   OH240940   4.370   0.807   3.325 -0.6177 -0.2626 -0.1277
 5582TIP3    H140941   4.295   0.786   3.380 -0.8726 -0.7000 -0.6291
 5582TIP3    H240942   4.446   0.777   3.374 -0.8465 -0.6908 -0.0332
 5583TIP3   OH240943   2.924   3.104   5.580 -0.3036  0.9408  0.0282
 5583TIP3    H140944   2.930   3.024   5.528 -0.4228 -0.3354  1.8571
 5583TIP3    H240945   2.998   3.157   5.551  0.2320 -0.1680 -0.7035
 5584TIP3   OH240946   4.425   0.684   2.343 -0.0161  0.9171 -0.3212
 5584TIP3    H140947   4.377   0.738   2.280 -0.8006  1.6630  0.8562
 5584TIP3    H240948   4.480   0.746   2.391 -0.7839  0.6750  0.9230
 5585TIP3   OH240949   4.942   5.621   4.153 -0.0327  0.2709  0.2506
 5585TIP3    H140950   4.934   5.611   4.248  1.5356  0.3038  0.4149
 5585TIP3    H240951   4.871   5.569   4.117  0.5557 -1.3854  1.3984
 5586TIP3   OH240952   4.929   0.543   2.773 -0.4224 -0.0290 -0.2430
 5586TIP3    H140953   4.846   0.522   2.817 -0.0490 -0.3928  0.3042
 5586TIP3    H240954   4.992   0.554   2.845 -0.1448  0.9475 -0.6131
 5587TIP3   OH240955   4.207   5.044   4.159  0.0515 -0.3244 -0.2696
 5587TIP3    H140956   4.158   4.991   4.096  2.0742 -1.8572 -0.6568
 5587TIP3    H240957   4.195   5.000   4.243 -0.3508  0.1009 -0.0997
 5588TIP3   OH240958   0.541   2.612   3.133 -0.0057  0.4856 -0.1352
 5588TIP3    H140959   0.498   2.541   3.181  1.6584 -0.4029  0.0979
 5588TIP3    H240960   0.468   2.665   3.099 -1.2769 -0.9110  0.2955
 5589TIP3   OH240961   1.376   3.192   3.772 -0.1075 -0.1805  0.8051
 5589TIP3    H140962   1.448   3.158   3.719  1.1480  1.0440  1.6652
 5589TIP3    H240963   1.380   3.142   3.853 -1.4083 -1.3607  0.1941
 5590TIP3   OH240964   4.951   5.148   2.704  0.0503  0.4884 -0.0160
 5590TIP3    H140965   4.866   5.108   2.721 -0.5793  1.6834 -0.2923
 5590TIP3    H240966   4.996   5.084   2.648 -0.5481 -0.2698  0.3480
 5591TIP3   OH240967   1.864   1.880   2.390  1.0093 -0.2558 -0.4388
 5591TIP3    H140968   1.782   1.927   2.405 -0.0236 -2.0183 -0.2103
 5591TIP3    H240969   1.932   1.937   2.426 -0.1325  1.1715 -0.4744
 5592TIP3   OH240970   6.583   2.843   4.783 -0.9258  0.1023  0.2967
 5592TIP3    H140971   6.676   2.824   4.784 -0.9187  0.1515  0.8125
 5592TIP3    H240972   6.541   2.761   4.810 -1.0447  0.0358 -0.0744
 5593TIP3   OH240973   4.576   6.465   3.162 -0.8236 -0.0479  0.3760
 5593TIP3    H140974   4.578   6.516   3.082  1.6786 -1.6729 -0.7197
 5593TIP3    H240975   4.540   6.380   3.135  1.6688 -1.2209  0.4489
 5594TIP3   OH240976   6.388   1.365   2.065  0.3922  0.0104 -0.5842
 5594TIP3    H140977   6.293   1.357   2.051  0.5704  0.8380 -2.5820
 5594TIP3    H240978   6.407   1.302   2.134 -1.9173  1.2357  1.3523
 5595TIP3   OH240979   5.616   3.534   3.538 -0.8817 -0.1261  0.2082
 5595TIP3    H140980   5.558   3.508   3.467 -2.5828  1.9542  0.7487
 5595TIP3    H240981   5.635   3.626   3.521  0.7327 -0.2480  1.1282
 5596TIP3   OH240982   2.982   5.448   4.689  0.2173 -0.2029 -0.6773
 5596TIP3    H140983   2.946   5.469   4.775  0.2038  0.2160 -0.7803
 5596TIP3    H240984   2.942   5.512   4.630 -0.3207 -0.9269 -1.1245
 5597TIP3   OH240985   5.979   6.664   5.620 -0.0373  0.6222 -0.3008
 5597TIP3    H140986   6.059   6.639   5.665  0.6614 -0.1259 -1.8627
 5597TIP3    H240987   6.008   6.696   5.534 -1.4580 -1.1497 -1.5304
 5598TIP3   OH240988   2.415   6.595   2.014 -0.0231 -0.0820 -0.4049
 5598TIP3    H140989   2.490   6.540   1.994 -0.8761 -1.4123 -0.0843
 5598TIP3    H240990   2.342   6.555   1.966 -0.4059  1.6156 -1.3163
 5599TIP3   OH240991   2.241   3.497   4.535  0.1284 -0.0906  0.4040
 5599TIP3    H140992   2.288   3.432   4.588  0.0149  1.0891  2.0439
 5599TIP3    H240993   2.309   3.538   4.482  0.3380 -0.9367 -0.0031
 5600TIP3   OH240994   4.340   5.884   2.794  0.3309  0.3954  0.4811
 5600TIP3    H140995   4.428   5.850   2.786  0.7768  1.7297 -0.6380
 5600TIP3    H240996   4.295   5.856   2.714  0.5880  2.0153 -0.2643
 5601TIP3   OH240997   0.060   5.460   3.927 -1.0742  0.0313  0.1873
 5601TIP3    H140998   0.005   5.516   3.872  2.0124  2.0969 -1.0505
 5601TIP3    H240999   0.055   5.374   3.886 -2.2939  0.4806 -0.6661
 5602TIP3   OH241000   6.160   6.650   4.036 -0.5110 -0.1844  0.2731
 5602TIP3    H141001   6.138   6.581   4.098 -0.2191 -0.2085  0.3521
 5602TIP3    H241002   6.178   6.604   3.954  0.8872 -0.3195  0.6348
 5603TIP3   OH241003   3.216   3.742   3.849  0.3336  0.0853 -0.5733
 5603TIP3    H141004   3.141   3.797   3.868 -0.5514 -1.1559 -0.3229
 5603TIP3    H241005   3.246   3.771   3.762  0.0340  1.0792 -0.3514
 5604TIP3   OH241006   6.172   5.873   4.742  0.8900  0.3712  0.2106
 5604TIP3    H141007   6.193   5.783   4.767 -0.2711  0.0568  0.1307
 5604TIP3    H241008   6.170   5.871   4.646 -0.1008  0.2293  0.2225
 5605TIP3   OH241009   3.257   4.484   5.681 -0.3294  0.0848 -0.1994
 5605TIP3    H141010   3.351   4.464   5.680 -0.1086  0.9859  0.8135
 5605TIP3    H241011   3.219   4.418   5.738 -0.3965 -0.5822 -1.0010
 5606TIP3   OH241012   3.145   6.232   4.402  1.1432 -0.2134  0.0729
 5606TIP3    H141013   3.101   6.241   4.486  1.2626 -0.3037  0.1451
 5606TIP3    H241014   3.079   6.194   4.344  0.6195  1.1076 -0.2431
 5607TIP3   OH241015   5.552   3.793   4.249 -0.4221 -0.3963 -0.2254
 5607TIP3    H141016   5.603   3.746   4.315 -1.0680 -0.7327  0.0446
 5607TIP3    H241017   5.480   3.833   4.298  0.7936  1.9828 -0.2288
 5608TIP3   OH241018   2.050   6.796   4.801  0.1974  0.5990  0.1072
 5608TIP3    H141019   2.033   6.704   4.780 -1.9826  1.1374 -0.7626
 5608TIP3    H241020   2.053   6.840   4.716  1.5566  1.3032  0.4965
 5609TIP3   OH241021   1.725   1.630   3.709 -0.0147 -0.5143  0.2002
 5609TIP3    H141022   1.704   1.664   3.622  1.6194 -0.9272 -0.4056
 5609TIP3    H241023   1.651   1.573   3.731 -0.5798 -0.1945 -0.8012
 5610TIP3   OH241024   6.051   6.168   3.165 -0.4472  0.5279 -0.1511
 5610TIP3    H141025   6.038   6.164   3.070  1.8050 -1.9878 -0.4656
 5610TIP3    H241026   5.995   6.098   3.199  1.7513 -1.3217 -0.1376
 5611TIP3   OH241027   1.528   3.052   2.283 -0.0778  0.0848 -0.6517
 5611TIP3    H141028   1.520   2.958   2.298 -2.0288  0.4133  0.7031
 5611TIP3    H241029   1.555   3.089   2.367  1.3435  0.7184 -1.3349
 5612TIP3   OH241030   4.199   5.063   3.103  0.7962 -0.6364 -0.1672
 5612TIP3    H141031   4.221   5.114   3.181  1.4529  0.3241 -0.9600
 5612TIP3    H241032   4.251   4.983   3.113  1.6834 -0.0753 -0.1103
 5613TIP3   OH241033   4.178   2.525   3.012  0.0671  0.4698 -0.3047
 5613TIP3    H141034   4.084   2.514   3.029  0.2636  0.7178  1.0178
 5613TIP3    H241035   4.209   2.436   2.994  0.0197 -0.0228  1.7656
 5614TIP3   OH241036   4.996   4.196   4.286  0.4534 -0.7383  0.1429
 5614TIP3    H141037   5.086   4.165   4.282  0.0246 -2.1040  0.6708
 5614TIP3    H241038   4.964   4.169   4.372  0.0003  1.0769  0.5849
 5615TIP3   OH241039   5.247   4.530   2.075  0.1927 -0.1295  0.1193
 5615TIP3    H141040   5.212   4.444   2.097 -1.0249  0.7267  1.7257
 5615TIP3    H241041   5.186   4.565   2.011 -0.5902  0.4140  1.1440
 5616TIP3   OH241042   5.894   6.147   3.779  0.1303  0.8270  0.2353
 5616TIP3    H141043   5.875   6.186   3.694  0.9879 -1.1758 -0.9528
 5616TIP3    H241044   5.989   6.131   3.778 -0.2010 -1.5736  0.4400
 5617TIP3   OH241045   4.882   3.164   4.507  0.1296  0.0985  0.0452
 5617TIP3    H141046   4.962   3.124   4.543 -0.5009 -0.5257  0.8055
 5617TIP3    H241047   4.819   3.160   4.579 -0.1471  1.9510 -0.0679
 5618TIP3   OH241048   3.363   1.778   3.051  0.2228 -0.7691  0.3114
 5618TIP3    H141049   3.392   1.869   3.049 -0.9762 -0.3194  1.7168
 5618TIP3    H241050   3.410   1.736   2.979 -0.0289  1.2060 -1.0903
 5619TIP3   OH241051   1.954   4.226   1.931  0.1153  0.3066 -0.5953
 5619TIP3    H141052   1.909   4.208   2.014  1.1145  0.4391 -0.0034
 5619TIP3    H241053   1.895   4.284   1.883  0.1171  1.3364  0.6030
 5620TIP3   OH241054   2.319   2.292   3.281  0.2470  0.0924 -0.2570
 5620TIP3    H141055   2.268   2.228   3.332 -0.6837  1.7180  0.9366
 5620TIP3    H241056   2.261   2.316   3.209 -0.3749  1.2622  0.5928
 5621TIP3   OH241057   5.786   3.729   3.076 -0.2286 -0.1630  0.3024
 5621TIP3    H141058   5.840   3.732   3.154  1.4733 -0.6780 -0.8024
 5621TIP3    H241059   5.780   3.820   3.046 -0.4453 -0.0374  0.7156
 5622TIP3   OH241060   6.493   0.411   3.012 -0.2198 -0.7962 -0.0600
 5622TIP3    H141061   6.430   0.480   2.990  1.3213  0.7517  0.1403
 5622TIP3    H241062   6.567   0.427   2.954 -0.1407 -2.8653 -0.6152
 5623TIP3   OH241063   2.439   3.676   3.255  0.2370  0.2177  0.1662
 5623TIP3    H141064   2.456   3.597   3.307 -2.9704 -0.4272  0.4376
 5623TIP3    H241065   2.463   3.748   3.314 -0.4168 -0.5381  1.4056
 5624TIP3   OH241066   0.421   3.278   3.887  0.2060  0.4441  0.2489
 5624TIP3    H141067   0.424   3.313   3.798 -0.5604 -2.5276 -1.0740
 5624TIP3    H241068   0.485   3.329   3.936 -1.0554  3.8030 -1.3242
 5625TIP3   OH241069   0.339   1.659   4.479  0.0980 -0.1675 -0.0013
 5625TIP3    H141070   0.261   1.692   4.435  0.4341  0.6847  0.0306
 5625TIP3    H241071   0.338   1.700   4.565  1.1907  0.8127 -0.4200
 5626TIP3   OH241072   5.308   6.517   5.745 -0.2828  0.6414  0.2938
 5626TIP3    H141073   5.244   6.539   5.678 -0.4606 -3.3476 -1.1484
 5626TIP3    H241074   5.257   6.510   5.826 -1.2911 -0.2794 -0.3895
 5627TIP3   OH241075   0.625   4.965   3.725 -0.2385 -0.8491  0.2240
 5627TIP3    H141076   0.624   4.964   3.630 -1.1169 -0.2860  0.2141
 5627TIP3    H241077   0.662   5.051   3.748 -0.4320 -0.8043  0.3768
 5628TIP3   OH241078   2.417   5.008   5.020 -0.0946  0.4329 -0.2836
 5628TIP3    H141079   2.480   5.001   4.949  0.1665 -0.7308  0.0409
 5628TIP3    H241080   2.436   4.933   5.077 -1.8498 -0.0401 -0.2524
 5629TIP3   OH241081   0.751   4.225   4.559  0.2894 -0.5601 -0.1612
 5629TIP3    H141082   0.689   4.160   4.524 -2.9050  2.1118  0.0597
 5629TIP3    H241083   0.774   4.279   4.484  1.3348 -0.6876  0.0510
 5630TIP3   OH241084   2.304   5.283   4.764 -0.2835  0.3345  0.2671
 5630TIP3    H141085   2.253   5.201   4.764  0.7050 -0.3205 -0.9555
 5630TIP3    H241086   2.314   5.306   4.856 -0.7495 -0.8201  0.6204
 5631TIP3   OH241087   6.255   4.477   3.191 -0.8739 -0.4735 -0.0182
 5631TIP3    H141088   6.321   4.526   3.142 -1.2425 -1.2182 -1.2991
 5631TIP3    H241089   6.193   4.544   3.220 -0.8440 -0.0510 -0.8901
 5632TIP3   OH241090   2.735   0.179   2.770  0.0789  0.5553  0.8080
 5632TIP3    H141091   2.670   0.202   2.704 -1.0716 -1.9125  0.9807
 5632TIP3    H241092   2.806   0.138   2.719  0.0837  0.4241  0.9218
 5633TIP3   OH241093   6.726   4.994   4.240 -0.3043  0.6825 -0.1602
 5633TIP3    H141094   6.713   5.047   4.161 -2.5691  1.7299  0.8043
 5633TIP3    H241095   6.644   4.946   4.249  0.3806 -0.3201  0.9400
 5634TIP3   OH241096   2.317   2.103   3.593 -0.0398 -0.0497 -0.2727
 5634TIP3    H141097   2.247   2.126   3.532  0.7392  1.6634 -0.5939
 5634TIP3    H241098   2.283   2.127   3.679 -0.1803 -0.0451 -0.3296
 5635TIP3   OH241099   4.938   4.631   2.296  0.5704  0.3894  0.2583
 5635TIP3    H141100   4.946   4.632   2.200  1.7307 -1.1776  0.2996
 5635TIP3    H241101   5.023   4.661   2.327  0.0439  1.3319  0.8231
 5636TIP3   OH241102   6.094   5.633   4.253  0.0045 -0.1778  0.2369
 5636TIP3    H141103   6.037   5.599   4.323 -3.5119  1.8478 -1.3570
 5636TIP3    H241104   6.082   5.572   4.180 -0.5588  0.4976 -0.2549
 5637TIP3   OH241105   4.550   3.279   3.995 -0.0581  0.4912 -0.1060
 5637TIP3    H141106   4.508   3.194   3.982  1.3361  0.1082 -2.8756
 5637TIP3    H241107   4.644   3.261   3.984  0.6047  1.9271  2.2890
 5638TIP3   OH241108   5.713   0.542   2.790  0.2243  0.7664  0.3612
 5638TIP3    H141109   5.725   0.636   2.773  1.9020  0.3437 -1.0176
 5638TIP3    H241110   5.789   0.517   2.842  0.3076 -0.0476 -0.1505
 5639TIP3   OH241111   1.127   2.506   2.091  0.0171 -0.3514  0.2799
 5639TIP3    H141112   1.059   2.465   2.144 -0.9937 -0.2127 -0.8590
 5639TIP3    H241113   1.080   2.568   2.035  1.0618 -0.3127 -0.5856
 5640TIP3   OH241114   5.249   4.811   4.676 -0.3757 -0.1608  0.3343
 5640TIP3    H141115   5.244   4.716   4.664 -0.9795 -0.1195  0.2157
 5640TIP3    H241116   5.337   4.834   4.649 -1.2414 -0.2270 -2.9192
 5641TIP3   OH241117   6.194   0.854   1.936  0.0551 -0.0923  0.4709
 5641TIP3    H141118   6.123   0.806   1.894  0.6323 -0.0421 -0.5856
 5641TIP3    H241119   6.151   0.903   2.006 -1.4418  2.0437 -1.7891
 5642TIP3   OH241120   5.382   4.345   3.234  0.0879 -0.7033  0.4453
 5642TIP3    H141121   5.332   4.420   3.200  2.0914  0.4489 -0.0872
 5642TIP3    H241122   5.383   4.357   3.329  0.3123 -0.1184  0.3694
 5643TIP3   OH241123   4.463   2.113   2.714  0.0484  0.0881  0.6925
 5643TIP3    H141124   4.473   2.019   2.697 -1.1115 -0.1345  1.1294
 5643TIP3    H241125   4.480   2.122   2.808 -0.0135  0.2951  0.6851
 5644TIP3   OH241126   6.296   3.641   3.872 -0.4540 -0.0498 -0.1668
 5644TIP3    H141127   6.236   3.566   3.874 -0.0386 -0.3724  0.3041
 5644TIP3    H241128   6.344   3.636   3.955 -1.4142  1.5524  0.5371
 5645TIP3   OH241129   5.170   1.978   2.257  0.1461  0.1674  0.3097
 5645TIP3    H141130   5.125   1.963   2.340  0.0365 -1.4412 -0.0055
 5645TIP3    H241131   5.109   1.945   2.191  1.0249 -0.3635 -0.2577
 5646TIP3   OH241132   2.406   6.488   4.760 -0.2500 -0.1710 -0.1989
 5646TIP3    H141133   2.407   6.502   4.665 -1.4555  2.9228  0.1142
 5646TIP3    H241134   2.481   6.538   4.792 -2.5197  2.9853  0.7251
 5647TIP3   OH241135   4.621   2.004   4.399  0.0575  0.5425  0.0930
 5647TIP3    H141136   4.549   1.943   4.415  0.9478 -0.4767  0.3175
 5647TIP3    H241137   4.609   2.073   4.464  0.2899 -0.5305  1.3068
 5648TIP3   OH241138   6.643   2.791   2.673  0.5056 -0.3632  0.0672
 5648TIP3    H141139   6.563   2.829   2.710 -0.3053 -1.7162 -0.2479
 5648TIP3    H241140   6.660   2.714   2.726 -0.5404 -2.2077 -2.0988
 5649TIP3   OH241141   1.918   4.390   3.538 -0.1451 -0.5439  0.2337
 5649TIP3    H141142   1.965   4.330   3.595 -0.7469 -2.2826 -1.0035
 5649TIP3    H241143   1.899   4.339   3.459 -2.4682  0.6297 -0.0664
 5650TIP3   OH241144   1.958   1.566   3.819  0.3352  0.2514 -0.2900
 5650TIP3    H141145   1.933   1.500   3.884  0.8315  0.5208  0.1855
 5650TIP3    H241146   1.877   1.588   3.774 -0.6127  2.0068  2.0255
 5651TIP3   OH241147   0.539   6.022   3.190 -0.7194  0.1818 -0.0672
 5651TIP3    H141148   0.612   6.050   3.245 -2.9303  1.8962  2.2566
 5651TIP3    H241149   0.551   5.927   3.181  1.2169  0.2610  1.1075
 5652TIP3   OH241150   3.140   0.795   2.027  0.8559 -0.2517 -0.2864
 5652TIP3    H141151   3.054   0.781   1.988  1.0091 -1.3124 -0.2525
 5652TIP3    H241152   3.139   0.888   2.052 -1.1192 -0.7062  1.7105
 5653TIP3   OH241153   5.842   5.726   5.547  0.4404 -0.0581 -0.4327
 5653TIP3    H141154   5.888   5.645   5.527  0.7190  0.0701 -0.3238
 5653TIP3    H241155   5.911   5.792   5.552  0.3144  0.0186  0.3694
 5654TIP3   OH241156   6.014   4.758   3.777  0.7011 -0.3902 -0.3255
 5654TIP3    H141157   6.102   4.774   3.742  0.3715  0.1267 -0.9454
 5654TIP3    H241158   5.978   4.845   3.791 -0.3612 -0.5656 -1.7651
 5655TIP3   OH241159   3.935   1.888   3.156 -0.3394  0.0762 -0.0155
 5655TIP3    H141160   3.918   1.968   3.107  0.6090  0.0745 -0.3589
 5655TIP3    H241161   3.913   1.911   3.247  1.6472  1.3253  0.2121
 5656TIP3   OH241162   3.313   4.406   3.019  0.1919 -0.1229  0.2772
 5656TIP3    H141163   3.354   4.492   3.011  0.1034  0.1120  1.8674
 5656TIP3    H241164   3.219   4.425   3.024 -0.0271 -0.5282 -1.7514
 5657TIP3   OH241165   5.784   4.740   3.276  0.1879  0.1659 -0.7395
 5657TIP3    H141166   5.711   4.681   3.295  0.4374  0.0818 -0.0473
 5657TIP3    H241167   5.781   4.805   3.346  0.8465  0.0988 -0.6483
 5658TIP3   OH241168   4.404   0.451   4.068 -0.3178  0.4582  0.3460
 5658TIP3    H141169   4.328   0.392   4.075 -0.0310 -0.1274 -1.0967
 5658TIP3    H241170   4.442   0.430   3.983  0.4921  1.9218  0.3240
 5659TIP3   OH241171   6.094   4.115   3.290  0.1951 -0.5131  0.2375
 5659TIP3    H141172   6.098   4.197   3.241  1.6282 -1.1442 -0.7658
 5659TIP3    H241173   6.017   4.070   3.255 -0.8430  0.5564  1.0852
 5660TIP3   OH241174   3.616   6.044   4.887 -0.4916 -0.0027 -0.2564
 5660TIP3    H141175   3.521   6.054   4.897 -0.6136 -1.2947  0.1160
 5660TIP3    H241176   3.652   6.128   4.914 -1.5577  0.6930 -0.9317
 5661TIP3   OH241177   0.131   1.263   3.266 -0.0927 -0.0615 -0.0026
 5661TIP3    H141178   0.123   1.297   3.177 -1.0749  0.5271  0.2954
 5661TIP3    H241179   0.221   1.232   3.272 -0.0585 -0.2553 -1.2476
 5662TIP3   OH241180   2.501   5.415   4.231  0.1980  0.2978 -0.0281
 5662TIP3    H141181   2.565   5.455   4.290  0.4876 -0.8253  0.4394
 5662TIP3    H241182   2.441   5.369   4.289 -0.0377 -0.0780 -0.5680
 5663TIP3   OH241183   5.520   4.638   3.098  0.4794  0.6275  0.2001
 5663TIP3    H141184   5.561   4.594   3.173 -1.2090  1.4264  1.6657
 5663TIP3    H241185   5.471   4.569   3.053  2.6525 -0.1677 -1.1159
 5664TIP3   OH241186   1.818   5.923   2.577 -0.3550  0.0342 -0.4332
 5664TIP3    H141187   1.885   5.855   2.567 -1.2020 -0.4890 -3.2640
 5664TIP3    H241188   1.740   5.876   2.604 -0.5117  0.1325 -0.7170
 5665TIP3   OH241189   6.263   1.844   2.872 -0.5857  0.7325 -0.3239
 5665TIP3    H141190   6.290   1.906   2.941 -0.3774 -0.2888  0.5360
 5665TIP3    H241191   6.194   1.890   2.824 -1.3016  1.1670  1.0767
 5666TIP3   OH241192   3.925   0.685   3.848 -0.2010  0.3504 -0.5817
 5666TIP3    H141193   3.937   0.639   3.932 -0.1155  1.3804 -0.0040
 5666TIP3    H241194   3.913   0.615   3.784 -1.7686 -0.4444  0.5115
 5667TIP3   OH241195   0.034   4.947   3.311  0.4867 -0.3110  0.0193
 5667TIP3    H141196   0.101   4.966   3.246  1.9634 -3.6919  0.3706
 5667TIP3    H241197   0.073   4.975   3.394  0.2650  0.3063 -0.0792
 5668TIP3   OH241198   5.190   4.841   2.980  0.9209 -0.5679  0.1094
 5668TIP3    H141199   5.103   4.878   2.994  1.7549  1.4884  0.2059
 5668TIP3    H241200   5.232   4.844   3.066  0.0453 -4.8058  0.9282
 5669TIP3   OH241201   0.672   0.051   4.857 -0.1046 -0.2550  0.3202
 5669TIP3    H141202   0.766   0.034   4.862 -0.0078  0.0788 -0.2793
 5669TIP3    H241203   0.633  -0.009   4.921  0.4941 -0.5374  0.4234
 5670TIP3   OH241204   4.522   4.882   2.780 -1.0035  0.3281 -0.6233
 5670TIP3    H141205   4.570   4.820   2.725 -1.7912  1.3486 -2.5521
 5670TIP3    H241206   4.475   4.828   2.843  0.6020 -0.8319 -0.3578
 5671TIP3   OH241207   5.651   5.194   3.294  0.1016  0.3121 -0.1571
 5671TIP3    H141208   5.727   5.197   3.236  0.8192 -1.3741  0.6206
 5671TIP3    H241209   5.599   5.121   3.261 -0.7110  0.8641 -0.1118
 5672TIP3   OH241210   5.078   1.621   4.565  0.3501  0.3130  0.2067
 5672TIP3    H141211   5.062   1.665   4.648  0.4954  2.2630 -0.7326
 5672TIP3    H241212   4.995   1.630   4.517  0.8710  1.0111 -0.6043
 5673TIP3   OH241213   3.525   4.742   5.156  0.4133 -0.5661 -0.5538
 5673TIP3    H141214   3.454   4.799   5.126  0.1145 -0.3719  0.4993
 5673TIP3    H241215   3.596   4.801   5.181 -0.4189 -0.5026  1.9335
 5674TIP3   OH241216   2.251   5.951   2.114  0.5408  0.1944  0.3176
 5674TIP3    H141217   2.313   5.985   2.049  0.4651  0.9727  0.6318
 5674TIP3    H241218   2.274   5.859   2.124  1.3958  0.3796  0.1408
 5675TIP3   OH241219   5.834   0.412   2.279 -0.1370  0.3862 -0.3133
 5675TIP3    H141220   5.840   0.420   2.184  0.8373  1.8438 -0.1792
 5675TIP3    H241221   5.741   0.423   2.299 -0.5386 -1.2306 -1.1632
 5676TIP3   OH241222   5.291   5.050   3.374  0.0111 -0.0112  0.7002
 5676TIP3    H141223   5.340   5.060   3.456 -0.2110 -1.4405  1.0302
 5676TIP3    H241224   5.346   5.093   3.308 -0.0471  1.5985  1.6580
 5677TIP3   OH241225   2.287   1.076   2.466  0.3267  0.1309 -0.1198
 5677TIP3    H141226   2.316   1.162   2.436  1.9953 -0.3026  0.0970
 5677TIP3    H241227   2.338   1.014   2.414 -0.1439 -0.7088  0.3935
 5678TIP3   OH241228   1.299   6.300   2.450 -0.6757 -0.1266  0.6861
 5678TIP3    H141229   1.379   6.248   2.444 -0.9901 -0.7390  1.5404
 5678TIP3    H241230   1.268   6.307   2.360  0.6081  0.5814  0.2711
 5679TIP3   OH241231   2.376   3.076   1.978  0.1860 -0.3108 -0.2899
 5679TIP3    H141232   2.409   3.123   2.055  0.8457 -0.8839 -0.2144
 5679TIP3    H241233   2.373   3.142   1.909 -1.2478  0.4351  0.4209
 5680TIP3   OH241234   3.360   4.773   2.261  0.5787  0.4921 -0.4627
 5680TIP3    H141235   3.377   4.851   2.208 -0.3964 -0.3611 -2.1016
 5680TIP3    H241236   3.435   4.769   2.322  0.4934  2.8418 -0.1073
 5681TIP3   OH241237   4.301   3.677   4.307 -0.0367 -0.3448 -0.2843
 5681TIP3    H141238   4.218   3.698   4.264 -0.9716 -1.2968  0.9690
 5681TIP3    H241239   4.339   3.762   4.329 -1.5656  0.1188  0.7226
 5682TIP3   OH241240   5.641   5.977   3.412  0.0072 -0.3170  0.0771
 5682TIP3    H141241   5.730   5.954   3.386  0.1041 -0.9381  0.9429
 5682TIP3    H241242   5.589   5.901   3.389  0.2566 -1.3282  2.5521
 5683TIP3   OH241243   2.246   4.032   2.022  0.1540  0.2385 -0.0638
 5683TIP3    H141244   2.339   4.027   2.043 -0.0701  0.6934  1.0871
 5683TIP3    H241245   2.202   3.987   2.095 -0.5344  0.0216 -0.5924
 5684TIP3   OH241246   1.216   3.520   4.607 -0.3928  0.0690 -0.4549
 5684TIP3    H141247   1.245   3.577   4.678  1.0610 -0.8899 -0.2306
 5684TIP3    H241248   1.130   3.490   4.634 -1.0320  1.8260 -0.4022
 5685TIP3   OH241249   2.763   2.443   3.899  0.0669  0.2756  0.3638
 5685TIP3    H141250   2.735   2.417   3.811  0.0105  1.2878  0.0733
 5685TIP3    H241251   2.690   2.417   3.956  0.1917 -0.5724  0.1569
 5686TIP3   OH241252   6.080   4.220   4.411 -0.2093  0.4314  0.2609
 5686TIP3    H141253   6.137   4.175   4.349 -1.2307 -1.6126  0.7191
 5686TIP3    H241254   6.047   4.151   4.468 -3.4161  1.4241 -0.1713
 5687TIP3   OH241255   5.451   2.889   2.478  0.1004 -1.1907 -0.3296
 5687TIP3    H141256   5.458   2.980   2.507 -0.2896 -1.6271  1.2788
 5687TIP3    H241257   5.536   2.851   2.500  0.5119 -1.0626 -1.6463
 5688TIP3   OH241258   4.468   2.756   3.269 -0.7842  0.3586  0.1491
 5688TIP3    H141259   4.391   2.797   3.231 -0.5442 -0.4354 -1.2433
 5688TIP3    H241260   4.540   2.783   3.213 -0.4663 -1.0991 -0.1918
 5689TIP3   OH241261   2.907   6.007   3.027  0.0929  0.2824  0.3720
 5689TIP3    H141262   2.883   6.057   3.105 -0.5840 -0.6353  0.7698
 5689TIP3    H241263   3.000   5.987   3.039  0.5475  1.9325 -0.0891
 5690TIP3   OH241264   1.331   5.824   3.512 -0.0003  0.3735 -0.3909
 5690TIP3    H141265   1.313   5.914   3.537  1.4636  0.8709 -1.0229
 5690TIP3    H241266   1.378   5.831   3.429  0.6274 -0.9421 -0.1673
 5691TIP3   OH241267   3.789   0.279   3.694 -0.3223 -0.1395 -0.5202
 5691TIP3    H141268   3.734   0.294   3.616 -0.7031  1.8743  0.0592
 5691TIP3    H241269   3.727   0.254   3.762 -0.0684 -1.2735 -0.6995
 5692TIP3   OH241270   2.683   6.142   3.976 -0.0523 -0.4404  0.5264
 5692TIP3    H141271   2.759   6.199   3.983 -0.1968 -0.0174 -0.9940
 5692TIP3    H241272   2.717   6.062   3.935 -0.2981 -0.4938  0.4249
 5693TIP3   OH241273   0.103   6.656   2.394 -0.0327  0.4286 -0.3048
 5693TIP3    H141274   0.031   6.618   2.344 -0.5271 -0.2444  0.8845
 5693TIP3    H241275   0.101   6.610   2.477  1.3594  0.8786 -0.0032
 5694TIP3   OH241276   3.437   6.279   4.967 -0.2155  0.0884 -0.4258
 5694TIP3    H141277   3.366   6.271   4.903 -1.1408 -0.1796  0.6069
 5694TIP3    H241278   3.395   6.263   5.051  1.1785 -0.6330  0.1675
 5695TIP3   OH241279   6.722   0.918   4.654 -0.0749 -0.2805  0.3100
 5695TIP3    H141280   6.786   0.959   4.596 -1.6757 -0.1594 -1.4471
 5695TIP3    H241281   6.651   0.982   4.660 -0.6632 -0.9870  1.1069
 5696TIP3   OH241282   0.978   6.264   4.490 -0.0042 -0.1224 -0.2435
 5696TIP3    H141283   1.025   6.336   4.447  2.3897 -1.5777 -0.2499
 5696TIP3    H241284   0.977   6.289   4.583  1.0493 -0.1659 -0.2057
 5697TIP3   OH241285   5.436   4.242   2.423  0.0340  0.0928  0.3712
 5697TIP3    H141286   5.391   4.312   2.471  0.3924 -1.1389  2.6292
 5697TIP3    H241287   5.492   4.201   2.488  0.4146 -1.8271 -1.0943
 5698TIP3   OH241288   1.264   2.141   3.241  0.1436 -0.8246 -0.0152
 5698TIP3    H141289   1.269   2.150   3.336 -0.1942 -0.2043 -0.0473
 5698TIP3    H241290   1.205   2.212   3.214  2.4601  0.8756 -0.9586
 5699TIP3   OH241291   4.642   0.958   3.494 -0.3154  0.5819  0.0226
 5699TIP3    H141292   4.618   0.866   3.486  0.6042  0.4252 -1.3785
 5699TIP3    H241293   4.618   0.981   3.583  0.7547 -1.4216  0.9051
 5700TIP3   OH241294   2.689   5.559   2.046 -0.3083  0.2593 -0.1700
 5700TIP3    H141295   2.689   5.464   2.050  0.8367  0.1920 -1.3006
 5700TIP3    H241296   2.604   5.582   2.009 -1.5141 -0.1688  2.1574
 5701TIP3   OH241297   0.307   6.307   4.256 -0.2438  0.6949 -0.4429
 5701TIP3    H141298   0.390   6.259   4.263 -1.3410 -1.3578 -0.6909
 5701TIP3    H241299   0.289   6.309   4.162 -1.6139 -1.0532 -0.2709
 5702TIP3   OH241300   1.809   6.175   2.460 -0.3335  0.0799  0.2913
 5702TIP3    H141301   1.828   6.105   2.522 -0.0095 -0.2807 -0.2126
 5702TIP3    H241302   1.760   6.132   2.390 -0.8366  0.5160  0.3693
 5703TIP3   OH241303   1.698   1.738   2.971 -0.3803  0.4769  0.1359
 5703TIP3    H141304   1.661   1.674   2.910  1.8033 -0.7095 -0.0374
 5703TIP3    H241305   1.769   1.779   2.922  0.4038  0.6121  1.3509
 5704TIP3   OH241306   0.660   1.260   4.216 -0.3900  0.3449 -0.3086
 5704TIP3    H141307   0.683   1.309   4.137 -0.4866 -0.7342 -1.0316
 5704TIP3    H241308   0.571   1.289   4.238 -0.3230  0.7219 -0.5293
 5705TIP3   OH241309   1.416   1.950   2.519 -0.3573 -0.1009 -0.0671
 5705TIP3    H141310   1.370   2.016   2.468 -0.2696  0.2587  0.3207
 5705TIP3    H241311   1.445   1.995   2.598 -1.1239 -0.8253  0.6570
 5706TIP3   OH241312   6.716   3.143   2.740 -0.3942 -0.1876  0.1945
 5706TIP3    H141313   6.759   3.082   2.679 -0.7248  1.6775 -2.0551
 5706TIP3    H241314   6.634   3.099   2.763 -0.1170 -1.0903 -0.4490
 5707TIP3   OH241315   4.035   4.787   4.497  0.6167  0.6510 -0.1255
 5707TIP3    H141316   4.000   4.773   4.409 -0.2084  0.5867  0.2040
 5707TIP3    H241317   4.079   4.871   4.492  1.1201  0.3534 -0.7657
 5708TIP3   OH241318   2.511   1.490   4.477 -0.2422 -0.0663  0.3087
 5708TIP3    H141319   2.449   1.480   4.405 -0.4755  2.7573 -0.0113
 5708TIP3    H241320   2.597   1.486   4.435 -0.3624  3.9812 -0.7582
 5709TIP3   OH241321   6.569   0.675   4.259 -0.5772 -0.9887 -0.1317
 5709TIP3    H141322   6.524   0.594   4.284  1.1687 -1.7121  0.8449
 5709TIP3    H241323   6.628   0.693   4.332 -1.8334  1.9472  0.3401
 5710TIP3   OH241324   3.294   1.580   2.251 -0.1015  0.2173  0.1371
 5710TIP3    H141325   3.229   1.643   2.219 -0.6132 -0.3573  0.0432
 5710TIP3    H241326   3.377   1.612   2.216 -0.5748 -0.0692 -1.2933
 5711TIP3   OH241327   2.900   4.230   5.634 -0.1513 -0.4617  0.4590
 5711TIP3    H141328   2.901   4.322   5.661  0.8393 -0.2766 -0.1567
 5711TIP3    H241329   2.982   4.194   5.667  0.8980 -0.3414 -1.7791
 5712TIP3   OH241330   2.702   0.566   1.910 -0.3079  0.0180 -0.1654
 5712TIP3    H141331   2.696   0.523   1.995 -1.0656 -1.1948 -0.8032
 5712TIP3    H241332   2.682   0.497   1.847  1.8323  0.4804 -1.4520
 5713TIP3   OH241333   4.427   5.698   4.242 -0.4594 -0.0440  0.2106
 5713TIP3    H141334   4.356   5.729   4.299 -1.1663  0.7820 -1.0441
 5713TIP3    H241335   4.507   5.718   4.290 -1.0611 -1.8244  2.0669
 5714TIP3   OH241336   5.377   0.516   5.805 -0.1495 -0.5680 -0.2033
 5714TIP3    H141337   5.325   0.476   5.875 -0.8541 -0.9095 -0.9091
 5714TIP3    H241338   5.335   0.487   5.724 -0.7918  1.7159 -0.7526
 5715TIP3   OH241339   1.635   2.088   4.517 -0.6269 -0.4851  0.2983
 5715TIP3    H141340   1.648   2.089   4.611 -0.8379  0.8715  0.3336
 5715TIP3    H241341   1.633   1.995   4.494 -0.9353 -0.8419  1.6699
 5716TIP3   OH241342   4.594   0.085   6.061 -0.5169 -0.2273  0.3102
 5716TIP3    H141343   4.546   0.161   6.029 -0.4247 -0.2247  0.1779
 5716TIP3    H241344   4.663   0.121   6.116 -0.7427 -0.2372  0.5998
 5717TIP3   OH241345   5.358   2.242   2.936  0.3361 -0.1047 -0.0403
 5717TIP3    H141346   5.410   2.189   2.996  0.4251  2.1829  2.0496
 5717TIP3    H241347   5.421   2.279   2.874  0.6132 -0.4262  0.0500
 5718TIP3   OH241348   5.148   0.190   5.332 -0.1763 -0.1260 -0.1926
 5718TIP3    H141349   5.121   0.098   5.339 -0.5414 -0.0443 -0.4769
 5718TIP3    H241350   5.242   0.189   5.350 -0.2640 -0.4944  0.2665
 5719TIP3   OH241351   6.461   1.621   2.868 -0.2765  0.1404  0.0176
 5719TIP3    H141352   6.522   1.694   2.859  0.7867 -0.5580  1.2259
 5719TIP3    H241353   6.374   1.662   2.865  0.2981  1.6555  1.8933
 5720TIP3   OH241354   2.616   1.285   3.608  0.1167  0.2343 -0.3276
 5720TIP3    H141355   2.570   1.326   3.534  0.6517  0.3175 -0.6198
 5720TIP3    H241356   2.661   1.358   3.651  2.6639 -0.2124 -1.9757
 5721TIP3   OH241357   1.492   0.244   3.622 -1.0226 -0.2200  0.0583
 5721TIP3    H141358   1.403   0.265   3.592 -1.0619 -0.5586 -0.0596
 5721TIP3    H241359   1.545   0.318   3.593 -1.3095  0.1007  0.3405
 5722TIP3   OH241360   6.634   4.429   3.263  0.3680 -0.3226  0.1379
 5722TIP3    H141361   6.694   4.367   3.223 -0.6513 -0.8496 -0.6280
 5722TIP3    H241362   6.564   4.375   3.299  1.4975  0.0695  3.1938
 5723TIP3   OH241363   2.835   1.769   5.747 -0.3534 -0.3101 -0.1425
 5723TIP3    H141364   2.861   1.683   5.778  0.0491  0.4699  1.8032
 5723TIP3    H241365   2.875   1.776   5.660  0.9367 -1.4934  0.3176
 5724TIP3   OH241366   0.920   1.977   3.223 -0.9682 -0.0963 -0.0762
 5724TIP3    H141367   0.880   1.994   3.308  1.3035 -0.3986  1.1162
 5724TIP3    H241368   0.930   2.064   3.184 -3.0815 -0.0407 -0.6094
 5725TIP3   OH241369   6.099   1.538   2.110  0.2770  0.2637 -0.2393
 5725TIP3    H141370   6.022   1.522   2.165  0.2701 -1.9159 -0.7969
 5725TIP3    H241371   6.069   1.605   2.048 -1.0905 -0.3318 -0.2703
 5726TIP3   OH241372   5.521   0.714   3.121  0.1335  0.1330  0.0589
 5726TIP3    H141373   5.507   0.637   3.065  0.2676 -0.3475  0.6829
 5726TIP3    H241374   5.615   0.732   3.113  0.0742  0.3309 -0.2097
 5727TIP3   OH241375   4.600   3.606   3.638  0.1638  0.1591  0.2081
 5727TIP3    H141376   4.511   3.620   3.606 -0.2771  0.2845  1.4378
 5727TIP3    H241377   4.643   3.557   3.567 -0.8968  0.0228 -0.3727
 5728TIP3   OH241378   2.678   6.733   2.381  0.1686 -0.2183 -0.3565
 5728TIP3    H141379   2.634   6.655   2.347  0.4932 -1.1046  1.1752
 5728TIP3    H241380   2.771   6.717   2.366  0.2607 -0.2941  0.2853
 5729TIP3   OH241381   0.927   3.513   2.919  0.4248 -0.1913  0.2105
 5729TIP3    H141382   0.945   3.420   2.911 -2.0005 -0.6836 -0.0990
 5729TIP3    H241383   0.860   3.519   2.987  0.8652  1.3878  0.5489
 5730TIP3   OH241384   1.056   2.043   2.113  0.0158  0.9081  0.1385
 5730TIP3    H141385   1.104   2.016   2.035  0.8000  0.4723  0.7576
 5730TIP3    H241386   0.973   1.996   2.107  2.1200 -3.6644  2.2830
 5731TIP3   OH241387   2.620   1.728   3.730 -0.1838  0.1983 -0.2119
 5731TIP3    H141388   2.616   1.670   3.655  0.5172 -0.2031  0.0559
 5731TIP3    H241389   2.558   1.799   3.709  0.1552  0.2016 -1.2488
 5732TIP3   OH241390   2.802   0.006   4.087  0.2262 -0.6692 -0.7191
 5732TIP3    H141391   2.809  -0.012   4.181  0.0125  2.7339  0.0797
 5732TIP3    H241392   2.795  -0.081   4.047 -0.0974 -2.2545  2.4040
 5733TIP3   OH241393   4.859   1.910   3.074 -0.4609  0.4499  0.2761
 5733TIP3    H141394   4.834   1.818   3.071 -0.8819  0.5896 -0.6829
 5733TIP3    H241395   4.947   1.909   3.113 -0.0559 -0.4476 -0.6070
 5734TIP3   OH241396   0.776   3.912   2.374 -0.0401 -0.2279 -0.2511
 5734TIP3    H141397   0.794   3.994   2.328 -0.8435  0.2990  0.3431
 5734TIP3    H241398   0.787   3.935   2.467  0.6656 -1.0399 -0.1202
 5735TIP3   OH241399   6.606   2.647   3.729 -0.2654  0.2192  0.7057
 5735TIP3    H141400   6.607   2.573   3.789  0.9383  0.7585  1.3975
 5735TIP3    H241401   6.684   2.633   3.674 -1.6496 -0.5670 -1.1430
 5736TIP3   OH241402   1.795   2.811   2.316 -0.2949  0.0122 -0.3201
 5736TIP3    H141403   1.806   2.906   2.322 -0.8693  0.4139 -3.8203
 5736TIP3    H241404   1.737   2.789   2.389  1.6016  1.9223  1.9326
 5737TIP3   OH241405   5.233   0.650   5.372  0.2698  0.2156  0.3166
 5737TIP3    H141406   5.300   0.711   5.404  2.2757 -1.0885 -1.1586
 5737TIP3    H241407   5.273   0.610   5.295 -2.1098 -0.9166 -0.3941
 5738TIP3   OH241408   4.043   3.940   4.458 -0.3763 -0.1481  0.0832
 5738TIP3    H141409   3.964   3.918   4.508 -0.9427 -0.2579 -0.8450
 5738TIP3    H241410   4.091   3.857   4.454 -1.1536 -0.5719 -0.9913
 5739TIP3   OH241411   6.625   4.140   4.524 -0.6340  0.3216 -0.0830
 5739TIP3    H141412   6.595   4.117   4.436 -0.6887 -0.5631  0.1595
 5739TIP3    H241413   6.626   4.236   4.524 -2.4551  0.3786 -0.4282
 5740TIP3   OH241414   5.870   2.036   3.070  0.0422  0.4701 -0.0994
 5740TIP3    H141415   5.910   2.116   3.103  0.6779 -0.0358  0.3801
 5740TIP3    H241416   5.879   2.042   2.974  0.5765  0.7184 -0.0356
 5741TIP3   OH241417   5.204   5.673   3.084  0.1283 -0.3921 -0.2108
 5741TIP3    H141418   5.241   5.644   3.167  1.6233 -1.2007 -1.0908
 5741TIP3    H241419   5.163   5.757   3.103 -0.1081 -0.8483  1.4464
 5742TIP3   OH241420   4.785   0.928   4.457 -0.3970  0.1021 -0.0032
 5742TIP3    H141421   4.832   0.908   4.537 -2.7253 -1.6172  1.0646
 5742TIP3    H241422   4.792   0.848   4.405 -0.6607  0.4489 -0.5850
 5743TIP3   OH241423   0.513   0.462  13.166 -0.0798 -0.1745  0.1025
 5743TIP3    H141424   0.488   0.554  13.166 -1.7377 -0.5861  0.0335
 5743TIP3    H241425   0.503   0.435  13.074 -0.1406 -0.5364  0.2136
 5744TIP3   OH241426   5.522   2.544   3.034  0.1561 -0.7906 -0.7244
 5744TIP3    H141427   5.483   2.520   2.951  0.5662  1.9392 -1.8094
 5744TIP3    H241428   5.474   2.622   3.062  0.9181 -0.8670  0.9345
 5745TIP3   OH241429   5.529   2.640   4.800  0.3454 -0.4787 -0.5088
 5745TIP3    H141430   5.602   2.584   4.775  0.1825 -0.4568 -1.0638
 5745TIP3    H241431   5.514   2.621   4.893  3.0092  1.7322  0.5120
 5746TIP3   OH241432   6.260   4.774   3.015 -0.6146  0.2916 -0.2903
 5746TIP3    H141433   6.328   4.709   3.032 -0.3671  0.8638  1.0647
 5746TIP3    H241434   6.253   4.778   2.920  1.4559  0.4365 -0.4809
 5747TIP3   OH241435   3.011   6.630   2.866 -0.0893 -0.1717 -0.3670
 5747TIP3    H141436   3.035   6.676   2.786  1.6821 -0.2311  0.0768
 5747TIP3    H241437   2.976   6.698   2.923  1.7811  0.5512  0.0013
 5748TIP3   OH241438   6.104   0.366   5.300  0.3145 -0.2245  0.0007
 5748TIP3    H141439   6.107   0.418   5.380 -0.1463 -0.2580  0.0398
 5748TIP3    H241440   6.154   0.287   5.320 -2.1040 -1.5557  1.2069
 5749TIP3   OH241441   2.285   2.485   4.498  0.1527 -0.3883  0.1793
 5749TIP3    H141442   2.193   2.510   4.511 -0.3399 -1.0891 -1.6315
 5749TIP3    H241443   2.326   2.562   4.459 -0.0985 -0.6517 -0.6141
 5750TIP3   OH241444   2.639   0.602   5.048  0.0214 -0.4419 -0.4034
 5750TIP3    H141445   2.563   0.574   4.997 -0.0638 -3.1877  1.0425
 5750TIP3    H241446   2.684   0.521   5.069  2.5005  0.9913  0.1678
 5751TIP3   OH241447   6.113   5.598   2.682 -0.2117  0.0499 -0.6113
 5751TIP3    H141448   6.179   5.653   2.725  0.3836 -0.0088 -1.4398
 5751TIP3    H241449   6.151   5.577   2.597  0.2252 -2.7562  0.1535
 5752TIP3   OH241450   2.989   1.996   3.309 -0.3867  0.1158 -0.2467
 5752TIP3    H141451   2.973   1.971   3.218  1.5332  1.4154 -0.9979
 5752TIP3    H241452   2.906   2.035   3.337 -0.3860  1.7214 -2.2030
 5753TIP3   OH241453   4.651   5.883   5.734  0.3184 -0.2725  0.1503
 5753TIP3    H141454   4.703   5.859   5.657  2.3465 -0.8133  1.6117
 5753TIP3    H241455   4.710   5.869   5.808 -0.6681  2.6572  1.6586
 5754TIP3   OH241456   0.916   3.727   4.653  0.3186  0.3082  0.0733
 5754TIP3    H141457   0.888   3.791   4.718 -0.9909  0.4051 -0.5532
 5754TIP3    H241458   0.965   3.779   4.589  1.0507  0.3187  0.6265
 5755TIP3   OH241459   6.675   2.242   5.679  0.1368  0.3478  0.0574
 5755TIP3    H141460   6.727   2.321   5.694  0.2113  0.0661  1.4222
 5755TIP3    H241461   6.719   2.174   5.730 -0.6502 -0.2795 -0.0829
 5756TIP3   OH241462   4.604   5.314   5.328  0.1163 -0.0816  0.7208
 5756TIP3    H141463   4.560   5.229   5.336  0.6650 -0.4466  0.0493
 5756TIP3    H241464   4.696   5.292   5.320  0.0416  0.2045 -3.5134
 5757TIP3   OH241465   0.241   1.526   4.177  0.1272 -1.0019  0.1192
 5757TIP3    H141466   0.161   1.515   4.229  1.7744 -2.0000  2.6385
 5757TIP3    H241467   0.264   1.618   4.188  0.3433 -1.1543  1.0241
 5758TIP3   OH241468   1.787   6.149   3.994 -0.0313  0.2528  0.0747
 5758TIP3    H141469   1.815   6.106   3.913 -1.4750  1.1882 -0.9810
 5758TIP3    H241470   1.866   6.190   4.028  0.7719 -0.8357 -0.4289
 5759TIP3   OH241471   5.905   2.799   4.927  0.0704 -0.0085 -1.1265
 5759TIP3    H141472   5.942   2.801   5.015 -0.7826  0.4572 -0.7634
 5759TIP3    H241473   5.882   2.890   4.909  0.0137 -0.1420 -1.7328
 5760TIP3   OH241474   6.341   3.403   4.602 -0.2675 -0.3143 -0.1841
 5760TIP3    H141475   6.288   3.430   4.527 -0.2925  1.6870  0.4902
 5760TIP3    H241476   6.331   3.474   4.665  0.5222 -1.4921  1.3470
 5761TIP3   OH241477   2.916   0.279   1.814  0.3558  0.1922  0.3457
 5761TIP3    H141478   2.828   0.309   1.789  0.5191  0.2307 -0.2073
 5761TIP3    H241479   2.901   0.195   1.856  0.2166 -0.9935 -1.9065
 5762TIP3   OH241480   0.424   5.093   5.146 -0.5529 -0.4343  0.2541
 5762TIP3    H141481   0.335   5.113   5.177 -0.1246  3.8999 -0.6782
 5762TIP3    H241482   0.481   5.111   5.220 -0.2662 -0.8715  0.1457
 5763TIP3   OH241483   1.016   6.472   2.402  0.4943 -0.3671 -0.0352
 5763TIP3    H141484   0.956   6.400   2.422 -2.1223  1.4201 -1.0693
 5763TIP3    H241485   1.033   6.514   2.487 -0.3784 -0.3856  0.1504
 5764TIP3   OH241486   5.005   2.071   3.958  0.3080  0.0435 -0.1760
 5764TIP3    H141487   4.996   1.986   3.915 -1.4304  0.4284 -0.6581
 5764TIP3    H241488   4.935   2.072   4.023  2.3529 -0.1733  2.1642
 5765TIP3   OH241489   2.100   4.878   1.930  0.4148 -0.4381  0.3486
 5765TIP3    H141490   2.056   4.813   1.876  1.4165 -1.0881  0.2791
 5765TIP3    H241491   2.072   4.963   1.895  1.5150 -0.8294 -1.6149
 5766TIP3   OH241492   4.670   4.309   2.375  0.0799 -0.6161  0.1792
 5766TIP3    H141493   4.747   4.353   2.412 -0.5585  1.5954 -0.9076
 5766TIP3    H241494   4.597   4.339   2.430 -0.8452  2.5367 -2.4692
 5767TIP3   OH241495   1.780   0.656   3.056 -0.5726 -0.4617 -0.0585
 5767TIP3    H141496   1.828   0.731   3.091  1.4846 -0.8738 -1.8163
 5767TIP3    H241497   1.782   0.591   3.127  1.4260 -0.4326 -0.0452
 5768TIP3   OH241498   2.234   4.313   1.942 -0.0268  0.6417  0.7569
 5768TIP3    H141499   2.139   4.309   1.948 -0.1143 -1.4083 -0.9498
 5768TIP3    H241500   2.263   4.222   1.949  1.7029  1.0797 -0.0529
 5769TIP3   OH241501   0.710   6.426   4.636  0.8788  0.2244  0.0799
 5769TIP3    H141502   0.686   6.363   4.568 -0.2120 -1.0848  1.6031
 5769TIP3    H241503   0.790   6.390   4.674  0.1139 -0.4658  1.1251
 5770TIP3   OH241504   6.127   2.887   3.483 -0.2407  0.1803  0.6913
 5770TIP3    H141505   6.213   2.857   3.514 -0.4472  0.2984  1.3804
 5770TIP3    H241506   6.083   2.806   3.454  0.9750  0.3382 -1.9761
 5771TIP3   OH241507   2.698   2.049   3.808 -0.6559  0.4538  1.0686
 5771TIP3    H141508   2.744   2.037   3.891  0.3504  0.0035  0.4684
 5771TIP3    H241509   2.767   2.071   3.745 -1.2041 -0.5259  0.0789
 5772TIP3   OH241510   2.626   6.273   2.814  0.2707  0.1233 -0.2919
 5772TIP3    H141511   2.689   6.341   2.790  1.0737 -0.9170 -1.2172
 5772TIP3    H241512   2.650   6.197   2.760 -1.4684 -0.4609 -0.3064
 5773TIP3   OH241513   6.024   2.662   3.333  0.2521 -0.5172 -0.1939
 5773TIP3    H141514   5.973   2.588   3.301  0.7460 -0.5441 -0.9571
 5773TIP3    H241515   6.005   2.732   3.270 -0.3404  0.0555  0.6107
 5774TIP3   OH241516   1.486   0.834   1.840 -0.0026 -0.0270 -0.0108
 5774TIP3    H141517   1.407   0.858   1.888 -0.8309 -1.2163 -0.7247
 5774TIP3    H241518   1.460   0.758   1.787  1.3979  0.0501 -0.8653
 5775TIP3   OH241519   4.608   4.610   5.257 -0.2576 -0.0263  0.8985
 5775TIP3    H141520   4.541   4.659   5.304  0.4191 -0.7987  2.7958
 5775TIP3    H241521   4.679   4.673   5.244 -1.5951  1.0783 -1.9835
 5776TIP3   OH241522   3.821   3.466   2.742 -0.6456  0.9289  0.5721
 5776TIP3    H141523   3.729   3.440   2.745 -0.7720  1.2200 -0.4630
 5776TIP3    H241524   3.864   3.410   2.807 -1.4607  0.4219  0.6843
 5777TIP3   OH241525   0.014   3.108   5.540  0.1603 -0.2167  0.4363
 5777TIP3    H141526   0.005   3.014   5.556 -0.9275 -0.0909  0.6173
 5777TIP3    H241527   0.067   3.113   5.460 -0.6891 -1.0231 -0.2024
 5778TIP3   OH241528   5.299   4.190   4.324 -0.1755  0.7773  0.1460
 5778TIP3    H141529   5.277   4.267   4.376 -0.4623  1.1552 -0.5146
 5778TIP3    H241530   5.394   4.184   4.326 -0.2342 -0.7582  2.8919
 5779TIP3   OH241531   2.677   2.418   3.630 -0.2954  0.3322  0.7377
 5779TIP3    H141532   2.657   2.328   3.606 -0.3470  0.7030 -0.6492
 5779TIP3    H241533   2.598   2.467   3.609 -0.3408  0.6891  1.6651
 5780TIP3   OH241534   5.685   0.825   2.810 -0.5355 -0.6190  0.0761
 5780TIP3    H141535   5.731   0.830   2.727 -0.2721  2.4626  0.3257
 5780TIP3    H241536   5.751   0.845   2.876 -1.1900 -0.9828  0.8613
 5781TIP3   OH241537   1.033   1.398   4.645  0.2956  0.1073 -0.1577
 5781TIP3    H141538   1.062   1.314   4.680 -2.3332 -0.2667  1.4440
 5781TIP3    H241539   0.998   1.378   4.558 -0.2683 -0.4876  0.1952
 5782TIP3   OH241540   2.138   2.158   2.896  0.0779  0.2372 -0.0755
 5782TIP3    H141541   2.196   2.230   2.922 -0.5514  0.6443  0.2087
 5782TIP3    H241542   2.109   2.118   2.978 -2.7355  2.1736  0.0053
 5783TIP3   OH241543   0.790   1.942   2.227 -0.0320  0.2563  0.1610
 5783TIP3    H141544   0.777   1.946   2.322 -1.0296  1.6436 -0.0023
 5783TIP3    H241545   0.702   1.947   2.190  0.4028  0.7028 -0.8541
 5784TIP3   OH241546   6.105   6.248   2.704  0.3489  1.0311  0.5389
 5784TIP3    H141547   6.050   6.180   2.664 -0.7815  1.7666  0.7849
 5784TIP3    H241548   6.093   6.325   2.647  0.7019  1.3580  0.9023
 5785TIP3   OH241549   2.450   4.281   3.521 -0.0506 -0.2625 -0.1305
 5785TIP3    H141550   2.481   4.339   3.590  1.8501  0.6691 -1.6746
 5785TIP3    H241551   2.526   4.229   3.496 -0.8591 -1.0510 -1.0994
 5786TIP3   OH241552   2.736   5.291   2.009 -0.4567  0.5984  0.2438
 5786TIP3    H141553   2.662   5.289   1.948 -0.3142  2.1584 -0.0327
 5786TIP3    H241554   2.770   5.201   2.009 -1.3994  0.2172 -0.8010
 5787TIP3   OH241555   5.672   6.275   6.007  0.1536  0.0043 -0.0878
 5787TIP3    H141556   5.674   6.273   5.911 -0.5911  1.1206 -0.1538
 5787TIP3    H241557   5.754   6.318   6.032  1.1202 -1.7501 -0.1254
 5788TIP3   OH241558   2.678   0.877   4.665 -0.2124 -0.1597  0.1068
 5788TIP3    H141559   2.675   0.915   4.752 -0.7710  0.8022 -0.3239
 5788TIP3    H241560   2.673   0.782   4.680 -0.6664  0.0134  1.0924
 5789TIP3   OH241561   4.311   5.027   2.368 -0.6011 -0.0167 -0.5463
 5789TIP3    H141562   4.325   5.051   2.276  2.4446 -0.3934 -0.2692
 5789TIP3    H241563   4.327   4.932   2.370  0.0958  0.1198  0.5070
 5790TIP3   OH241564   2.649   3.546   5.011  0.1137 -0.0713  0.0032
 5790TIP3    H141565   2.718   3.589   5.060  0.2926 -0.0084 -0.2970
 5790TIP3    H241566   2.579   3.531   5.074 -0.5207  1.9174 -0.1480
 5791TIP3   OH241567   0.534   6.417   4.026 -0.1629 -0.3401  0.3905
 5791TIP3    H141568   0.510   6.471   3.950 -2.0113 -0.5420  0.7905
 5791TIP3    H241569   0.501   6.330   4.005  0.3334 -0.6744  0.9569
 5792TIP3   OH241570   0.927   4.269   3.832 -0.0763 -0.4935  0.1182
 5792TIP3    H141571   0.889   4.339   3.779 -0.5336  0.6020  1.8138
 5792TIP3    H241572   1.019   4.294   3.842  0.2072 -1.1263 -0.7949
 5793TIP3   OH241573   2.298   0.074   2.828 -0.2395  0.1681 -0.1545
 5793TIP3    H141574   2.341   0.160   2.830 -0.1313  0.1304 -0.7149
 5793TIP3    H241575   2.231   0.082   2.760 -0.3778 -0.1237 -0.0550
 5794TIP3   OH241576   4.831   3.055   4.226  0.1669  0.6770 -0.3750
 5794TIP3    H141577   4.771   2.981   4.221 -0.8941  1.4187  0.7553
 5794TIP3    H241578   4.821   3.089   4.315  1.5033  1.4673 -0.4868
 5795TIP3   OH241579   1.967   5.237   4.734  0.4692 -0.4481 -0.0131
 5795TIP3    H141580   1.902   5.236   4.804 -0.2360 -0.3027 -0.6534
 5795TIP3    H241581   2.017   5.317   4.748  1.1217 -0.9989  1.0106
 5796TIP3   OH241582   0.140   6.040   5.216  0.0519 -0.0500 -0.0835
 5796TIP3    H141583   0.114   5.985   5.291  0.0943 -1.4251 -1.0359
 5796TIP3    H241584   0.236   6.042   5.221  0.2187 -2.1564 -1.4167
 5797TIP3   OH241585   6.394   3.030   2.738  0.3979 -0.0938 -0.5277
 5797TIP3    H141586   6.380   2.990   2.653 -1.9004  0.8401 -0.6429
 5797TIP3    H241587   6.358   3.119   2.730 -3.0905 -1.0138  2.2760
 5798TIP3   OH241588   0.892   3.285   2.346  0.0432 -0.8350  0.7956
 5798TIP3    H141589   0.922   3.287   2.437  0.5250 -2.0874  0.6868
 5798TIP3    H241590   0.845   3.202   2.338 -1.1395 -0.1351  0.2342
 5799TIP3   OH241591   6.698   2.922   2.938 -1.0311  0.3201  0.2978
 5799TIP3    H141592   6.685   2.957   3.026 -0.2498 -1.8668  1.3620
 5799TIP3    H241593   6.791   2.936   2.920 -0.4766 -1.8984  1.1406
 5800TIP3   OH241594   0.009   3.684   2.483  0.2840  0.5094  0.1996
 5800TIP3    H141595   0.039   3.594   2.487  1.5432  0.8904 -0.3144
 5800TIP3    H241596   0.089   3.737   2.481 -0.4251  1.6493  0.6992
 5801TIP3   OH241597   1.544   2.391   2.781  0.0978  0.2202  0.1099
 5801TIP3    H141598   1.613   2.373   2.845  2.2621 -0.5035 -2.2190
 5801TIP3    H241599   1.583   2.456   2.722 -0.1829 -1.9113 -2.6452
 5802TIP3   OH241600   6.266   6.366   3.693  0.1678  0.2386  0.4565
 5802TIP3    H141601   6.238   6.452   3.724  0.0286  0.2726  0.2351
 5802TIP3    H241602   6.254   6.369   3.598 -2.5206 -0.9727  0.6713
 5803TIP3   OH241603   3.655   0.201   2.325  0.4393  0.4689 -0.0129
 5803TIP3    H141604   3.599   0.211   2.401  1.3268  0.3798  0.6745
 5803TIP3    H241605   3.620   0.124   2.279  1.2751 -0.9303  1.5784
 5804TIP3   OH241606   3.402   2.300   4.418 -0.5630 -0.6981  0.7961
 5804TIP3    H141607   3.410   2.300   4.322 -0.2682  0.7679  0.7985
 5804TIP3    H241608   3.476   2.354   4.448 -0.3275 -1.6045  1.8905
 5805TIP3   OH241609   0.701   0.229   4.201  0.1951 -0.4738  0.2243
 5805TIP3    H141610   0.774   0.259   4.148  1.1771 -0.9777  1.2536
 5805TIP3    H241611   0.625   0.236   4.143  0.8283  1.3007 -0.4456
 5806TIP3   OH241612   1.808   5.193   3.100  0.3076 -0.8646 -0.4362
 5806TIP3    H141613   1.851   5.249   3.165 -0.4021  0.6176 -1.1873
 5806TIP3    H241614   1.763   5.126   3.152 -0.3629  0.3563  0.6304
 5807TIP3   OH241615   4.159   2.829   2.907 -0.9255  0.1586  1.0831
 5807TIP3    H141616   4.077   2.781   2.898 -0.3077 -0.6846 -0.3214
 5807TIP3    H241617   4.226   2.768   2.876 -0.0535  1.7344 -0.2821
 5808TIP3   OH241618   0.608   5.184   5.533  0.5810 -0.2925  0.8261
 5808TIP3    H141619   0.595   5.134   5.613 -0.0258 -0.4878  0.6086
 5808TIP3    H241620   0.687   5.147   5.494  2.4544  1.5386  2.6372
 5809TIP3   OH241621   5.761   5.873   2.345 -0.2973 -0.2768 -0.0125
 5809TIP3    H141622   5.760   5.821   2.265 -1.3139  0.3900 -0.4640
 5809TIP3    H241623   5.676   5.856   2.385 -0.0633 -0.0751  0.5740
 5810TIP3   OH241624   0.626   0.927   4.095  0.3853  0.4859  0.1528
 5810TIP3    H141625   0.545   0.976   4.080  0.8454  1.5492  0.9835
 5810TIP3    H241626   0.597   0.840   4.121 -0.6366  1.6694  3.4546
 5811TIP3   OH241627   3.578   5.558   4.210  0.3469 -0.1844  0.9168
 5811TIP3    H141628   3.590   5.570   4.304 -2.2545  0.4451  1.2490
 5811TIP3    H241629   3.493   5.513   4.202 -0.4518  1.5283 -1.1537
 5812TIP3   OH241630   0.863   1.070   4.204 -0.6234  0.0590  0.1731
 5812TIP3    H141631   0.811   1.001   4.162  0.0660 -0.3875  0.0421
 5812TIP3    H241632   0.811   1.149   4.194 -0.4623 -0.0326 -1.5556
 5813TIP3   OH241633   4.008   5.298   1.976 -0.3127 -0.8689  0.1420
 5813TIP3    H141634   4.098   5.327   1.960 -0.5584 -0.7027 -1.0673
 5813TIP3    H241635   4.014   5.203   1.982  0.0292 -0.8169  0.7643
 5814TIP3   OH241636   6.027   1.825   2.709 -0.2447  0.5070 -0.3567
 5814TIP3    H141637   6.028   1.737   2.746  0.5455  0.9565  0.7456
 5814TIP3    H241638   6.020   1.811   2.614 -2.3086 -0.6726 -0.0974
 5815TIP3   OH241639   6.722   4.431   2.115 -0.6573 -0.4761  0.2337
 5815TIP3    H141640   6.783   4.359   2.101 -0.0604 -0.0526  0.5960
 5815TIP3    H241641   6.635   4.392   2.107 -0.3607 -0.8871 -1.4048
 5816TIP3   OH241642   0.915   1.912   5.457  0.2767 -0.6118  0.4469
 5816TIP3    H141643   0.875   1.828   5.479 -1.2068 -0.6058 -1.9032
 5816TIP3    H241644   1.007   1.892   5.444  0.1932 -1.5965  1.2823
 5817TIP3   OH241645   4.373   2.914   2.139 -0.3048  0.5128  0.0809
 5817TIP3    H141646   4.290   2.894   2.095 -0.7845  0.5422  0.9290
 5817TIP3    H241647   4.354   2.898   2.232  0.9257 -0.4039  0.2005
 5818TIP3   OH241648   2.352   6.833   3.985  0.0553  0.2102 -0.1578
 5818TIP3    H141649   2.269   6.791   3.964 -0.0262  0.7192 -0.8791
 5818TIP3    H241650   2.330   6.925   4.000  0.8365  1.0740 -3.4364
 5819TIP3   OH241651   5.189   0.876   5.764  0.4043 -0.0816  0.1605
 5819TIP3    H141652   5.155   0.880   5.674  0.1579 -2.0993  0.1274
 5819TIP3    H241653   5.283   0.866   5.753  0.4433  0.2734  0.1518
 5820TIP3   OH241654   3.557   4.247   4.334  0.5202  0.1012 -0.2841
 5820TIP3    H141655   3.595   4.201   4.409 -1.0407  1.7248  1.6065
 5820TIP3    H241656   3.607   4.329   4.328  0.2333  0.2524 -0.6342
 5821TIP3   OH241657   4.662   0.470   4.583 -0.1662  0.0988  0.9180
 5821TIP3    H141658   4.698   0.390   4.621  2.3772 -0.0437 -1.4688
 5821TIP3    H241659   4.567   0.455   4.582  0.1178 -2.2651  1.8359
 5822TIP3   OH241660   0.271   0.606   4.805 -0.5475  0.3283 -0.4723
 5822TIP3    H141661   0.321   0.629   4.883 -0.6644  1.3074 -0.6778
 5822TIP3    H241662   0.336   0.595   4.736 -0.4798 -0.0987 -0.3413
 5823TIP3   OH241663   1.356   0.427   3.011  0.1026 -0.7286 -0.4847
 5823TIP3    H141664   1.274   0.462   3.048 -0.4287 -2.1594 -0.2581
 5823TIP3    H241665   1.420   0.496   3.026 -0.6145 -0.3746  1.1536
 5824TIP3   OH241666   3.958   2.538   2.443  0.4628 -0.5011 -0.0510
 5824TIP3    H141667   3.901   2.614   2.458 -0.6619 -1.1428 -0.9327
 5824TIP3    H241668   4.035   2.573   2.399  1.1932  0.5167  1.8964
 5825TIP3   OH241669   3.897   1.344   4.155 -0.0389  0.3283  0.1582
 5825TIP3    H141670   3.888   1.313   4.065 -0.1511 -0.6316  0.4953
 5825TIP3    H241671   3.974   1.298   4.189 -0.0345  0.6339  0.5792
 5826TIP3   OH241672   5.295   1.026   3.367 -0.1773 -0.2624 -0.0443
 5826TIP3    H141673   5.370   1.026   3.307  0.4079  1.1660  0.6387
 5826TIP3    H241674   5.256   0.939   3.356 -0.1974 -0.0334 -2.5840
 5827TIP3   OH241675   5.172   4.599   2.466  0.0641 -0.4715  0.5970
 5827TIP3    H141676   5.152   4.552   2.547  1.0252  0.5037  1.4283
 5827TIP3    H241677   5.263   4.579   2.447 -0.3664 -1.3148 -0.6976
 5828TIP3   OH241678   0.173   3.135   5.209 -0.6694 -0.2281 -0.0029
 5828TIP3    H141679   0.083   3.151   5.180 -1.9877 -2.1050  2.5786
 5828TIP3    H241680   0.190   3.044   5.185  0.2015 -0.1424  0.2681
 5829TIP3   OH241681   1.544   3.242   3.535 -0.2038 -0.1414 -0.4369
 5829TIP3    H141682   1.475   3.300   3.567 -0.1495  1.0345 -2.2540
 5829TIP3    H241683   1.624   3.292   3.547  0.2834 -1.1869  0.9383
 5830TIP3   OH241684   6.121   4.911   4.643 -0.2253  0.1897  0.5654
 5830TIP3    H141685   6.084   4.910   4.732  0.4742  0.2702  0.8645
 5830TIP3    H241686   6.196   4.970   4.650  1.1292 -1.4700  0.4521
 5831TIP3   OH241687   6.271   3.774   2.181  0.3784 -0.0514  0.2760
 5831TIP3    H141688   6.289   3.829   2.256 -0.2356 -0.0752  0.4479
 5831TIP3    H241689   6.196   3.816   2.138 -0.3958 -0.9769  0.6689
 5832TIP3   OH241690   2.136   0.376   3.316 -0.0337 -0.6993  0.6966
 5832TIP3    H141691   2.213   0.328   3.346  1.0776 -0.5558 -1.6900
 5832TIP3    H241692   2.135   0.364   3.221 -1.1649  1.8939  0.2810
 5833TIP3   OH241693   6.291   6.034   4.485 -0.1171 -0.3476  0.3294
 5833TIP3    H141694   6.336   6.089   4.421  1.3150 -2.2169 -0.3555
 5833TIP3    H241695   6.341   6.045   4.566  0.9678 -1.5298 -0.1348
 5834TIP3   OH241696   1.988   0.807   2.082  0.1214  0.6142 -0.6106
 5834TIP3    H141697   1.986   0.903   2.085  1.0016  0.6159  0.3962
 5834TIP3    H241698   1.903   0.782   2.044 -1.2334  1.7061  1.5181
 5835TIP3   OH241699   1.987   5.624   3.168  0.1536  0.0484  0.1417
 5835TIP3    H141700   1.965   5.645   3.259  1.6873  2.0163  0.1201
 5835TIP3    H241701   1.969   5.704   3.120 -2.6219 -1.5514 -1.7650
 5836TIP3   OH241702   5.351   5.266   3.902 -0.1350 -0.3999 -0.6076
 5836TIP3    H141703   5.442   5.296   3.907 -0.5349  1.1058 -1.7487
 5836TIP3    H241704   5.330   5.237   3.991  1.5278 -1.0141 -0.3903
 5837TIP3   OH241705   0.009   6.173   2.726  0.4328  0.0241  0.0497
 5837TIP3    H141706   0.053   6.160   2.810 -0.5988 -0.7096  0.5026
 5837TIP3    H241707   0.020   6.266   2.707  2.1631 -0.1271  0.1264
 5838TIP3   OH241708   4.823   4.141   4.540 -0.6618  0.0342 -0.0456
 5838TIP3    H141709   4.784   4.226   4.520  1.2695  0.8614 -0.5099
 5838TIP3    H241710   4.809   4.130   4.634 -1.2579  0.6926 -0.0515
 5839TIP3   OH241711   1.289   2.298   2.690 -0.6845  0.5510 -0.8179
 5839TIP3    H141712   1.349   2.362   2.729 -0.2424 -0.7693  0.7437
 5839TIP3    H241713   1.325   2.283   2.602  0.0763  1.3005 -0.6499
 5840TIP3   OH241714   4.078   0.807   3.149 -0.1947  0.1462 -0.1128
 5840TIP3    H141715   4.148   0.744   3.131  0.6286  0.6455  1.2079
 5840TIP3    H241716   4.022   0.763   3.213 -0.6273  0.0691 -0.5415
 5841TIP3   OH241717   2.006   2.564   3.206 -0.5894  0.5753  0.2512
 5841TIP3    H141718   1.911   2.566   3.196 -0.7151 -0.4299  1.0285
 5841TIP3    H241719   2.026   2.471   3.219  0.1794  1.0200  2.7319
 5842TIP3   OH241720   5.004   0.783   5.957 -0.3680 -0.2229  0.0141
 5842TIP3    H141721   5.088   0.807   5.918 -0.6362 -2.0791 -1.9185
 5842TIP3    H241722   4.944   0.852   5.929  0.1260  0.1152 -0.2243
 5843TIP3   OH241723   6.480   0.491   5.789 -0.5166  0.2658 -0.0168
 5843TIP3    H141724   6.393   0.502   5.751 -1.2862  1.4607  1.9050
 5843TIP3    H241725   6.527   0.572   5.767 -0.6193  0.5163  0.6406
 5844TIP3   OH241726   3.829   5.781   1.976 -0.1450  0.0685  0.2946
 5844TIP3    H141727   3.825   5.840   2.052  1.1261 -0.0956  0.5200
 5844TIP3    H241728   3.913   5.802   1.935 -0.8996  0.2889 -1.2016
 5845TIP3   OH241729   2.165   6.193   1.951 -0.1918 -0.2813 -0.1068
 5845TIP3    H141730   2.095   6.232   2.004 -0.8108  1.1654 -1.8704
 5845TIP3    H241731   2.135   6.104   1.933 -1.0130 -0.0621  0.1313
 5846TIP3   OH241732   4.085   0.088   3.038  0.7875 -0.3878  0.1451
 5846TIP3    H141733   4.123   0.064   2.953  0.8191 -0.7239  0.2530
 5846TIP3    H241734   4.156   0.131   3.085  0.3368  1.2541 -0.5911
 5847TIP3   OH241735   5.169   3.444   3.418 -0.5167 -0.1929 -0.0999
 5847TIP3    H141736   5.161   3.407   3.506 -2.3353  0.2690 -0.0353
 5847TIP3    H241737   5.112   3.521   3.419  0.6054  0.6982 -1.2430
 5848TIP3   OH241738   1.319   4.586   2.945 -0.0939 -0.4469 -0.1464
 5848TIP3    H141739   1.360   4.623   3.022  0.0931 -0.9116 -0.0167
 5848TIP3    H241740   1.363   4.628   2.871 -1.6974  1.5852 -0.0495
 5849TIP3   OH241741   1.946   6.593   4.577 -0.7903 -0.8279 -0.9186
 5849TIP3    H141742   1.934   6.559   4.666  1.6384  1.3287  0.4028
 5849TIP3    H241743   2.030   6.556   4.549 -0.7646 -0.2324 -1.6547
 5850TIP3   OH241744   3.809   4.503   4.376  0.0731  0.4674  0.7571
 5850TIP3    H141745   3.719   4.526   4.354  0.1449  1.6468  1.5592
 5850TIP3    H241746   3.848   4.474   4.294 -0.8335  0.6337  0.2561
 5851TIP3   OH241747   5.633   6.531   2.854 -0.0724 -0.1534  0.9182
 5851TIP3    H141748   5.642   6.554   2.761 -0.2717 -0.6016  0.7869
 5851TIP3    H241749   5.610   6.614   2.896 -0.7872 -0.0993  0.4501
 5852TIP3   OH241750   6.439   0.167   4.171 -0.2479  0.2567  0.2330
 5852TIP3    H141751   6.354   0.197   4.140  0.4760  2.7792  0.4961
 5852TIP3    H241752   6.436   0.177   4.266  0.0689 -0.4733  0.3325
 5853TIP3   OH241753   3.549   0.802   3.179 -0.2102 -0.2811  0.3879
 5853TIP3    H141754   3.477   0.864   3.176 -0.4555 -0.5825 -1.2017
 5853TIP3    H241755   3.559   0.780   3.271  0.0627  2.2888  1.0360
 5854TIP3   OH241756   6.075   1.142   2.637 -0.1734 -0.8060  0.2341
 5854TIP3    H141757   6.099   1.183   2.719  1.4216  1.5835 -1.2983
 5854TIP3    H241758   5.981   1.128   2.643  0.1049 -2.0361  2.9542
 5855TIP3   OH241759   4.862   4.745   4.278 -0.2446  0.3984  0.1057
 5855TIP3    H141760   4.887   4.668   4.227  3.4065 -0.3632  2.7137
 5855TIP3    H241761   4.906   4.818   4.235  0.5470  0.1823  0.5280
 5856TIP3   OH241762   2.539   1.021   3.170 -0.5153  0.0456 -0.4365
 5856TIP3    H141763   2.624   1.005   3.209  0.0202  0.6024 -1.3477
 5856TIP3    H241764   2.476   1.003   3.240  0.3296 -0.6842  0.1430
 5857TIP3   OH241765   2.459   6.579   3.166  0.8532  0.5318 -0.6307
 5857TIP3    H141766   2.434   6.515   3.099  0.8897  0.1868 -0.3191
 5857TIP3    H241767   2.553   6.590   3.153  1.1651 -0.7288  0.3642
 5858TIP3   OH241768   4.880   6.584   3.094  0.4812  0.0594 -0.2415
 5858TIP3    H141769   4.824   6.651   3.133  1.2744  0.8339 -0.3904
 5858TIP3    H241770   4.867   6.507   3.149  0.3926  0.6681  0.6132
 5859TIP3   OH241771   5.695   3.248   4.752  0.4378 -0.3363  0.1352
 5859TIP3    H141772   5.727   3.199   4.676 -2.0545 -1.3327 -0.3648
 5859TIP3    H241773   5.623   3.300   4.718  0.4116  0.5803  1.5054
 5860TIP3   OH241774   1.107   1.646   2.032 -0.2837 -0.8334 -0.0601
 5860TIP3    H141775   1.156   1.720   2.067 -1.2944 -0.4971  0.6839
 5860TIP3    H241776   1.174   1.579   2.015  0.7970  0.5599 -1.7088
 5861TIP3   OH241777   4.969   5.191   5.588 -0.4550  0.3608  0.4385
 5861TIP3    H141778   4.938   5.119   5.643  2.0802 -0.3227  1.1107
 5861TIP3    H241779   5.020   5.246   5.647 -0.3231  1.3787 -0.5816
 5862TIP3   OH241780   0.301   0.300   3.816  0.0610 -0.6130  0.0003
 5862TIP3    H141781   0.260   0.241   3.879 -1.3368  2.5718  2.3108
 5862TIP3    H241782   0.229   0.328   3.759  0.3681 -0.0161 -0.1033
 5863TIP3   OH241783   5.602   0.503   4.737  0.0460 -0.1116  0.3552
 5863TIP3    H141784   5.617   0.524   4.829 -1.3010  0.4424  0.4673
 5863TIP3    H241785   5.582   0.409   4.737 -0.3411 -0.0319  0.6820
 5864TIP3   OH241786   6.341   0.150   2.608 -0.5948  0.0962  0.3127
 5864TIP3    H141787   6.307   0.203   2.680  0.8723  1.2051  0.2228
 5864TIP3    H241788   6.435   0.147   2.621 -0.5393 -1.8449 -0.1599
 5865TIP3   OH241789   5.195   5.128   2.401  0.0506 -0.4246 -0.2467
 5865TIP3    H141790   5.154   5.050   2.437 -0.9041  0.2154  0.0953
 5865TIP3    H241791   5.285   5.101   2.382 -0.5941 -1.9579 -1.3375
 5866TIP3   OH241792   0.687   1.540   3.262 -0.2157  0.0207  0.1730
 5866TIP3    H141793   0.613   1.600   3.256  0.4796  0.8703 -0.2699
 5866TIP3    H241794   0.764   1.597   3.256  0.4903 -1.0432 -1.9508
 5867TIP3   OH241795   0.787   1.994   3.474 -0.1815  0.1273 -0.1316
 5867TIP3    H141796   0.767   1.964   3.563 -2.4697  0.2013 -0.5524
 5867TIP3    H241797   0.714   1.961   3.421  1.3049 -0.2054 -2.0629
 5868TIP3   OH241798   6.055   2.426   3.973  0.7388  0.0137  0.0366
 5868TIP3    H141799   6.050   2.352   3.912  1.7834 -0.1919  0.1823
 5868TIP3    H241800   6.007   2.496   3.930 -1.4624 -1.1152  0.4784
 5869TIP3   OH241801   0.328   5.324   2.919  0.3734 -0.1388  0.6353
 5869TIP3    H141802   0.361   5.247   2.872 -0.9842 -0.3136 -0.0990
 5869TIP3    H241803   0.388   5.395   2.894  0.9611 -0.7057  0.4026
 5870TIP3   OH241804   3.483   3.454   2.754  0.0329 -0.2793  0.4797
 5870TIP3    H141805   3.462   3.545   2.730 -1.3302  0.4071  3.6876
 5870TIP3    H241806   3.436   3.401   2.689  0.4373  1.2725 -1.1654
 5871TIP3   OH241807   0.592   4.462   3.289 -0.2423 -0.2874 -0.4309
 5871TIP3    H141808   0.595   4.388   3.350  1.0954 -0.7528 -1.0240
 5871TIP3    H241809   0.684   4.479   3.268 -0.6579  0.1446 -1.9704
 5872TIP3   OH241810   1.229   0.302   3.551 -0.3067 -0.2002 -0.6689
 5872TIP3    H141811   1.250   0.371   3.488  0.2117 -0.8575 -1.2510
 5872TIP3    H241812   1.135   0.309   3.565 -0.3913  0.0992 -1.3552
 5873TIP3   OH241813   0.853   1.935   4.091  0.1941  0.0513  0.4716
 5873TIP3    H141814   0.767   1.912   4.125 -0.2838 -1.7886 -1.6949
 5873TIP3    H241815   0.910   1.865   4.121 -0.1602 -1.3946 -1.9897
 5874TIP3   OH241816   1.535   0.143   5.536 -0.3214  0.1231  0.0084
 5874TIP3    H141817   1.485   0.083   5.591 -1.0652 -0.9422 -1.7667
 5874TIP3    H241818   1.610   0.092   5.505 -0.2596  0.5089 -0.4987
 5875TIP3   OH241819   4.803   2.846   4.615  0.2111 -0.7501 -0.6029
 5875TIP3    H141820   4.887   2.868   4.574 -0.5169 -0.5177 -2.0271
 5875TIP3    H241821   4.820   2.853   4.709  2.5601 -3.4668 -0.6926
 5876TIP3   OH241822   0.017   4.311   3.161  0.4221 -0.3339  0.5638
 5876TIP3    H141823   0.012   4.236   3.221  2.3708 -0.6712  0.3754
 5876TIP3    H241824   0.110   4.331   3.156  0.1595  0.6098 -1.2570
 5877TIP3   OH241825   5.092   4.539   2.987 -0.0631 -0.6541 -0.2973
 5877TIP3    H141826   5.038   4.469   2.950  0.8398 -1.5842  0.0962
 5877TIP3    H241827   5.044   4.619   2.967 -1.1107 -1.3777 -0.7827
 5878TIP3   OH241828   0.418   5.293   5.360 -0.3527  0.1745  0.1624
 5878TIP3    H141829   0.440   5.245   5.440  0.0560  1.3601  0.7706
 5878TIP3    H241830   0.329   5.265   5.339 -0.3543 -0.3702  0.8524
 5879TIP3   OH241831   1.897   3.074   4.390  0.4365  0.1605  0.1257
 5879TIP3    H141832   1.891   3.103   4.299  0.9963  0.7304  0.2633
 5879TIP3    H241833   1.828   3.008   4.399  0.5516 -0.0935 -0.7811
 5880TIP3   OH241834   6.190   3.338   3.648 -0.0942  0.0734  0.2981
 5880TIP3    H141835   6.151   3.389   3.719 -1.1490  2.6654 -1.9526
 5880TIP3    H241836   6.131   3.264   3.636 -1.0113  0.6922  0.8430
 5881TIP3   OH241837   1.749   4.273   5.008 -0.1766 -0.0990 -0.2113
 5881TIP3    H141838   1.814   4.202   5.002  1.2490  1.1691 -0.6295
 5881TIP3    H241839   1.802   4.353   5.015 -1.7059  1.0101 -0.6909
 5882TIP3   OH241840   0.449   3.172   3.366  0.4472  0.0060  0.0396
 5882TIP3    H141841   0.529   3.147   3.412  0.1908 -1.9509 -0.4943
 5882TIP3    H241842   0.464   3.146   3.275 -1.2911 -1.7666  0.1840
 5883TIP3   OH241843   3.823   6.537   2.346  0.0489 -0.3389  0.0778
 5883TIP3    H141844   3.821   6.570   2.436 -0.0258 -0.7842  0.2443
 5883TIP3    H241845   3.902   6.575   2.308 -0.3770  0.5560  0.0522
 5884TIP3   OH241846   2.974   4.095   4.129  0.0078 -0.3540 -0.1148
 5884TIP3    H141847   3.047   4.129   4.181  0.3117 -0.2673 -0.5927
 5884TIP3    H241848   2.906   4.162   4.135  0.3849  0.0654 -0.5752
 5885TIP3   OH241849   5.643   5.265   2.411  0.7576  0.2192 -0.1211
 5885TIP3    H141850   5.585   5.192   2.434  1.0625  0.0340  0.0610
 5885TIP3    H241851   5.585   5.331   2.375  0.6876 -0.9588 -2.3790
 5886TIP3   OH241852   5.921   0.173   3.944  0.1330  0.1523 -0.1363
 5886TIP3    H141853   5.853   0.239   3.931 -1.7384 -1.4173  1.0721
 5886TIP3    H241854   5.874   0.090   3.948  1.8966 -0.8761  2.3405
 5887TIP3   OH241855   3.652   1.948   2.977  0.0964 -0.1744  1.0314
 5887TIP3    H141856   3.560   1.969   2.962 -0.5661 -2.1338  1.9727
 5887TIP3    H241857   3.699   2.030   2.960 -1.4774  0.2332 -2.1434
 5888TIP3   OH241858   4.252   6.494   4.404  0.2786  0.3511  0.2197
 5888TIP3    H141859   4.178   6.535   4.358  0.1343 -0.0857  0.0595
 5888TIP3    H241860   4.232   6.508   4.497 -0.6844 -0.9059  0.2238
 5889TIP3   OH241861   4.853   5.045   3.907  0.0237  0.0353  0.0140
 5889TIP3    H141862   4.799   5.052   3.828 -0.2938 -1.8151  0.0028
 5889TIP3    H241863   4.843   4.953   3.933  0.5217  0.4875  1.9234
 5890TIP3   OH241864   6.262   4.043   3.516 -0.4343 -0.1736  0.6322
 5890TIP3    H141865   6.292   3.972   3.460 -0.1849  0.5871 -0.2221
 5890TIP3    H241866   6.180   4.073   3.476 -0.0628  0.6186  0.4389
 5891TIP3   OH241867   0.393   1.326   4.109 -0.5462  0.3525 -0.0309
 5891TIP3    H141868   0.419   1.379   4.033  1.7960 -0.2929  0.2452
 5891TIP3    H241869   0.324   1.377   4.151  0.5636  2.4785 -0.6135
 5892TIP3   OH241870   0.483   0.569   3.152  0.7874 -0.0114 -0.0004
 5892TIP3    H141871   0.505   0.659   3.131  1.1704 -0.4015 -1.3955
 5892TIP3    H241872   0.388   0.563   3.136  0.3269  0.6436  2.1382
 5893TIP3   OH241873   0.875   5.160   3.699 -0.0394  0.4333  0.0279
 5893TIP3    H141874   0.893   5.158   3.605  1.5396  2.1382  0.2403
 5893TIP3    H241875   0.961   5.151   3.740 -0.5440  1.0351  1.2656
 5894TIP3   OH241876   3.077   2.189   2.919 -0.4645  0.4804  0.6289
 5894TIP3    H141877   3.005   2.126   2.914 -0.1979  0.0070  2.3269
 5894TIP3    H241878   3.105   2.200   2.828 -2.7338  0.7737 -0.0898
 5895TIP3   OH241879   0.620   1.356   3.010  0.9281 -0.0928  0.1300
 5895TIP3    H141880   0.635   1.403   2.928 -0.6992  1.4231  0.6434
 5895TIP3    H241881   0.694   1.380   3.066  0.7826  0.8488 -0.0708
 5896TIP3   OH241882   0.322   2.145   2.210  1.0543 -0.1500 -0.1381
 5896TIP3    H141883   0.240   2.125   2.164 -0.2401  1.7754  1.2234
 5896TIP3    H241884   0.359   2.218   2.161  1.8991 -0.8715 -0.6141
 5897TIP3   OH241885   6.487   2.165   4.423  0.4703 -0.2164 -0.1455
 5897TIP3    H141886   6.454   2.230   4.361 -1.3672 -0.8832  0.0746
 5897TIP3    H241887   6.488   2.210   4.507  0.1493 -0.1846 -0.1588
 5898TIP3   OH241888   4.972   3.555   4.846  0.2451  0.1816 -0.2254
 5898TIP3    H141889   4.954   3.575   4.938 -1.7769 -0.0273 -0.5267
 5898TIP3    H241890   4.978   3.641   4.803  0.4344  0.2632 -0.0368
 5899TIP3   OH241891   1.146   4.267   2.817  0.6600  0.0836  0.3166
 5899TIP3    H141892   1.084   4.222   2.874  0.1194  1.5270  0.9153
 5899TIP3    H241893   1.139   4.222   2.733  1.6683 -2.2561  1.3950
 5900TIP3   OH241894   0.314   1.104   4.310  0.4891 -0.1681  0.6186
 5900TIP3    H141895   0.325   1.161   4.234  0.5461 -0.1347  0.6519
 5900TIP3    H241896   0.337   1.159   4.385  1.1010 -0.4007  0.6078
 5901TIP3   OH241897   1.495   6.556   2.833 -0.1757  0.0327 -0.2281
 5901TIP3    H141898   1.459   6.632   2.877 -1.6728 -0.6465 -0.2441
 5901TIP3    H241899   1.471   6.567   2.741  0.4643  0.0248 -0.4031
 5902TIP3   OH241900   3.113   0.389   4.055 -0.1788 -0.0530 -0.4158
 5902TIP3    H141901   3.054   0.341   4.113  0.0929 -0.9814 -0.8848
 5902TIP3    H241902   3.086   0.362   3.967 -0.0351  0.6875 -0.6902
 5903TIP3   OH241903   0.618   5.642   3.693 -0.7533 -0.3114 -0.3049
 5903TIP3    H141904   0.560   5.674   3.624 -1.9367 -0.6477  0.5065
 5903TIP3    H241905   0.628   5.548   3.674 -0.8525 -0.3471 -0.1827
 5904TIP3   OH241906   2.603   6.741   2.633 -0.2923 -0.2180  0.1709
 5904TIP3    H141907   2.560   6.825   2.649 -2.2065 -1.0495 -0.2179
 5904TIP3    H241908   2.648   6.752   2.549 -1.1403  0.2191 -0.2457
 5905TIP3   OH241909   0.047   0.071   4.441  0.1500 -0.3697 -0.4365
 5905TIP3    H141910   0.110   0.060   4.369 -1.1550  1.3754 -1.9219
 5905TIP3    H241911  -0.026   0.014   4.417  0.1780 -0.6523  0.1245
 5906TIP3   OH241912   4.444   0.871   4.247  0.0205  0.1332  0.3590
 5906TIP3    H141913   4.396   0.943   4.206  0.9905 -0.1613 -1.4406
 5906TIP3    H241914   4.458   0.898   4.337 -1.9249  1.0009  0.4314
 5907TIP3   OH241915   6.789   2.402   3.147 -0.0205  0.2798 -0.1472
 5907TIP3    H141916   6.762   2.384   3.056 -0.4476  1.7557 -0.3507
 5907TIP3    H241917   6.822   2.318   3.179  0.1327 -0.2852 -1.6611
 5908TIP3   OH241918   6.507   4.904   4.063 -0.2244  0.1275 -0.0987
 5908TIP3    H141919   6.519   4.992   4.027 -1.4793  0.3662  0.0446
 5908TIP3    H241920   6.425   4.872   4.025 -0.7387 -0.2561  1.2520
 5909TIP3   OH241921   0.577   4.057   2.885 -0.4433  0.1420 -0.2681
 5909TIP3    H141922   0.517   4.056   2.959 -0.5850  0.4517 -0.3804
 5909TIP3    H241923   0.560   4.140   2.841 -0.4415 -0.0952 -0.7169
 5910TIP3   OH241924   5.803   3.697   4.545  0.3923 -0.2984  0.6895
 5910TIP3    H141925   5.867   3.653   4.600  0.9305  0.5100  0.7274
 5910TIP3    H241926   5.829   3.789   4.546 -0.4563 -0.0359  0.2758
 5911TIP3   OH241927   5.435   6.012   5.353  0.1748  0.0647  0.6628
 5911TIP3    H141928   5.376   5.943   5.321  0.2028  0.4506 -0.2462
 5911TIP3    H241929   5.380   6.089   5.362  0.2275  0.0328  1.2985
 5912TIP3   OH241930   2.981   3.264   1.959 -0.4718 -0.4785  0.3755
 5912TIP3    H141931   2.893   3.264   1.922  0.1323  1.9672 -1.2580
 5912TIP3    H241932   2.993   3.352   1.994  2.1456  0.0976 -1.6537
 5913TIP3   OH241933   1.248   5.640   2.926  0.2319 -0.3960 -0.1980
 5913TIP3    H141934   1.234   5.730   2.896 -0.5237 -0.8891 -1.3894
 5913TIP3    H241935   1.314   5.605   2.865  1.3932 -0.3137  0.9688
 5914TIP3   OH241936   6.096   1.325   1.939 -0.5424 -0.2582 -0.0476
 5914TIP3    H141937   6.035   1.369   1.880  0.6474  1.1502 -0.2521
 5914TIP3    H241938   6.108   1.386   2.012  1.5531  0.0541 -0.5981
 5915TIP3   OH241939   2.927   0.619   2.486  0.7584  0.0887  0.0772
 5915TIP3    H141940   2.832   0.613   2.498  1.0323 -1.2408  1.9925
 5915TIP3    H241941   2.938   0.637   2.392 -1.3679  0.4792 -0.1582
 5916TIP3   OH241942   0.863   6.120   4.301  0.1372 -0.1040  0.5092
 5916TIP3    H141943   0.897   6.172   4.375  1.3074  0.1952 -0.2053
 5916TIP3    H241944   0.822   6.185   4.244  0.9595 -0.0471 -0.0333
 5917TIP3   OH241945   0.677   0.407   4.731  0.3170 -0.1471  0.1603
 5917TIP3    H141946   0.724   0.484   4.699 -2.3314  1.3394 -0.5238
 5917TIP3    H241947   0.716   0.388   4.816  0.8750  2.2099  0.5078
 5918TIP3   OH241948   5.322   2.573   3.383 -0.0221 -0.7318  0.0156
 5918TIP3    H141949   5.282   2.595   3.299 -1.2636  0.2288  0.8134
 5918TIP3    H241950   5.397   2.519   3.360  1.4726  1.8983 -1.9390
 5919TIP3   OH241951   0.192   4.323   2.381  0.1823  0.2026  0.1323
 5919TIP3    H141952   0.219   4.410   2.352 -0.2089  0.2538 -0.0914
 5919TIP3    H241953   0.143   4.339   2.461  0.5941  0.1333  0.4003
 5920TIP3   OH241954   5.167   4.174   2.574 -0.4742 -0.3121 -0.2467
 5920TIP3    H141955   5.243   4.153   2.521 -0.8404 -0.7284 -0.6127
 5920TIP3    H241956   5.180   4.266   2.599  0.9488 -0.8261  1.0498
 5921TIP3   OH241957   2.980   5.970   4.811  0.3267  0.2673  0.7656
 5921TIP3    H141958   3.042   5.918   4.863 -0.9588 -0.4725  1.5986
 5921TIP3    H241959   2.957   6.044   4.868 -0.9983 -0.4865  1.2573
 5922TIP3   OH241960   1.526   0.578   5.171  0.1203  0.2558 -0.4848
 5922TIP3    H141961   1.572   0.536   5.244 -0.7450  0.4590  0.2046
 5922TIP3    H241962   1.550   0.526   5.094 -0.7913 -1.4561  0.3183
 5923TIP3   OH241963   3.797   4.070   4.196  0.4718 -0.1554 -0.2859
 5923TIP3    H141964   3.866   4.099   4.135 -0.0402  0.4886 -0.5695
 5923TIP3    H241965   3.820   4.112   4.279  1.2290 -1.1167  0.0059
 5924TIP3   OH241966   2.545   6.189   3.071  0.1214  0.4444  0.0764
 5924TIP3    H141967   2.504   6.104   3.082  1.2991  0.0994  2.5095
 5924TIP3    H241968   2.577   6.189   2.981 -2.1849 -0.5823 -0.7961
 5925TIP3   OH241969   3.626   4.828   2.366  0.1503 -0.1109 -0.1056
 5925TIP3    H141970   3.612   4.816   2.460  1.0356  1.1650  0.2189
 5925TIP3    H241971   3.640   4.922   2.356 -0.9311 -0.0891 -1.6668
 5926TIP3   OH241972   5.293   0.258   2.607 -0.1008 -0.6018  0.3329
 5926TIP3    H141973   5.205   0.293   2.596 -0.4069 -1.0605  1.1820
 5926TIP3    H241974   5.304   0.196   2.534  0.2970  0.9104 -0.9349
 5927TIP3   OH241975   3.855   2.590   4.876 -0.0634 -0.5484  0.2144
 5927TIP3    H141976   3.831   2.654   4.810  1.4598 -3.2776 -3.3152
 5927TIP3    H241977   3.810   2.510   4.849  1.2216 -1.9783  2.0687
 5928TIP3   OH241978   4.135   4.611   3.766  0.0938 -0.3751  0.6925
 5928TIP3    H141979   4.205   4.657   3.721  1.4517 -0.7280  2.3446
 5928TIP3    H241980   4.061   4.672   3.765  0.9336  0.6634  0.3579
 5929TIP3   OH241981   3.209   0.736   3.093  0.5412  0.9615  0.0428
 5929TIP3    H141982   3.230   0.826   3.069  0.6697  1.0197  0.3651
 5929TIP3    H241983   3.289   0.704   3.137  0.3283  0.8478  0.3527
 5930TIP3   OH241984   5.050   3.811   3.129 -0.4845  0.0896 -0.1165
 5930TIP3    H141985   4.992   3.880   3.159 -1.1932 -0.4460 -0.2329
 5930TIP3    H241986   5.003   3.730   3.147  0.2485 -0.3627 -0.1617
 5931TIP3   OH241987   2.905   4.362   4.568 -0.3524 -0.0027 -0.0188
 5931TIP3    H141988   2.885   4.431   4.632 -2.1031 -1.2764  0.8831
 5931TIP3    H241989   2.824   4.352   4.519 -0.6583 -2.4213  0.8775
 5932TIP3   OH241990   4.590   5.819   2.687 -0.2347 -0.3882  0.4152
 5932TIP3    H141991   4.661   5.777   2.638  0.0113 -1.2665  1.4781
 5932TIP3    H241992   4.555   5.885   2.627 -0.3381 -1.8021 -1.1521
 5933TIP3   OH241993   5.726   3.506   5.113  0.4344  0.4768 -0.2859
 5933TIP3    H141994   5.675   3.506   5.032 -0.8674 -0.0507  0.4996
 5933TIP3    H241995   5.815   3.482   5.086 -0.3763 -1.6282 -1.3508
 5934TIP3   OH241996   4.584   2.874   2.798  0.3151 -0.0110 -0.3701
 5934TIP3    H141997   4.655   2.811   2.809  1.5064  1.2755 -0.3271
 5934TIP3    H241998   4.554   2.893   2.887 -0.1448 -0.6254 -0.3944
 5935TIP3   OH241999   4.942   2.268   4.736  0.1294  0.1267 -0.2212
 5935TIP3    H142000   4.902   2.354   4.750  1.8681  0.9990 -0.3342
 5935TIP3    H242001   5.014   2.285   4.675  1.5459 -1.1004  1.0328
 5936TIP3   OH242002   1.420   3.100   1.931  0.2194  0.5937 -0.1392
 5936TIP3    H142003   1.372   3.031   1.978  1.7201  0.1021  0.7357
 5936TIP3    H242004   1.418   3.175   1.990 -1.0148  1.1843 -0.8943
 5937TIP3   OH242005   0.547   3.376   5.077 -0.1458 -0.0769  0.1477
 5937TIP3    H142006   0.453   3.370   5.062 -0.1935 -0.6429  0.6313
 5937TIP3    H242007   0.555   3.402   5.169  0.1662  0.3311  0.0053
 5938TIP3   OH242008   4.165   0.002   1.815  0.1415  0.4427 -0.3687
 5938TIP3    H142009   4.167   0.041   1.902  1.4043 -1.4066  0.5026
 5938TIP3    H242010   4.203   0.070   1.758 -0.6093  1.6393  0.5012
 5939TIP3   OH242011   3.744   0.822   2.098  0.1593  0.2041 -0.0864
 5939TIP3    H142012   3.819   0.882   2.095 -0.6063  1.1608 -0.6982
 5939TIP3    H242013   3.757   0.772   2.179  0.8073  1.2100  0.4557
 5940TIP3   OH242014   6.810   6.236   3.471  0.6371 -0.1588  0.0378
 5940TIP3    H142015   6.805   6.308   3.408  0.4571  0.5121  0.8012
 5940TIP3    H242016   6.896   6.244   3.511  0.3521  0.0690  0.6218
 5941TIP3   OH242017   3.136   4.176   3.328  0.4316  0.2268  0.9875
 5941TIP3    H142018   3.107   4.088   3.353  1.2050  0.1922  1.8045
 5941TIP3    H242019   3.194   4.162   3.253 -0.9640  0.2242 -0.1242
 5942TIP3   OH242020   4.185   0.093   2.075  0.0297  0.6699 -0.0271
 5942TIP3    H142021   4.181   0.079   2.169  3.5452  0.2723  0.2239
 5942TIP3    H242022   4.248   0.165   2.064 -0.0060  0.4669 -2.0634
 5943TIP3   OH242023   0.775   0.516   4.080 -0.2037  0.4743 -0.5922
 5943TIP3    H142024   0.867   0.540   4.091  0.3184 -1.3568 -0.7081
 5943TIP3    H242025   0.745   0.568   4.006  0.5867  1.4523 -0.2444
 5944TIP3   OH242026   1.171   4.319   3.929  0.0950 -0.1204 -0.1718
 5944TIP3    H142027   1.254   4.365   3.943 -0.1391  0.7076 -1.3249
 5944TIP3    H242028   1.134   4.308   4.016  0.2860  1.6796  0.1760
 5945TIP3   OH242029   6.119   3.644   3.542  0.0731  0.1192 -0.2980
 5945TIP3    H142030   6.212   3.664   3.534  0.1194  0.4676  0.9242
 5945TIP3    H242031   6.115   3.549   3.556  0.2678  0.1468 -0.0565
 5946TIP3   OH242032   5.900   5.234   2.406  0.1652 -0.0029 -0.4054
 5946TIP3    H142033   5.814   5.276   2.396 -0.1436 -1.0754 -2.9170
 5946TIP3    H242034   5.943   5.247   2.322  1.4734 -1.6172 -0.0339
 5947TIP3   OH242035   6.426   4.000   4.230 -0.1953 -0.1035  0.4389
 5947TIP3    H142036   6.356   4.006   4.165  0.6683 -0.6507 -0.5520
 5947TIP3    H242037   6.455   4.090   4.243  0.2789 -0.0870 -0.6602
 5948TIP3   OH242038   5.865   2.792   4.068  0.1464  0.6530  0.3167
 5948TIP3    H142039   5.875   2.744   4.150 -1.9416  0.1404  0.3393
 5948TIP3    H242040   5.813   2.869   4.092  0.0522  0.8199 -0.4048
 5949TIP3   OH242041   5.461   2.512   3.830 -0.2520 -0.1786  0.1085
 5949TIP3    H142042   5.486   2.497   3.921 -0.9782  0.6187  0.4515
 5949TIP3    H242043   5.485   2.604   3.813  0.0017 -0.3593 -0.5486
 5950TIP3   OH242044   2.940   6.634   3.926  0.0666  0.5303 -0.0482
 5950TIP3    H142045   2.930   6.590   4.011  0.0525  2.3396  0.9453
 5950TIP3    H242046   3.034   6.651   3.919  0.0434  0.5450 -0.3151
 5951TIP3   OH242047   6.455   3.043   2.266  0.1707  0.0978 -0.0795
 5951TIP3    H142048   6.522   3.086   2.318  0.8867  0.1064 -0.9798
 5951TIP3    H242049   6.382   3.029   2.327  0.6049  0.9708  0.6608
 5952TIP3   OH242050   1.019   5.541   4.962 -0.6595  0.3504  0.1606
 5952TIP3    H142051   0.931   5.507   4.948 -1.2577  1.8527  0.1078
 5952TIP3    H242052   1.057   5.484   5.028 -1.8801  0.0287  0.6065
 5953TIP3   OH242053   2.570   1.429   4.072 -0.1046  0.7015 -0.1881
 5953TIP3    H142054   2.628   1.354   4.083 -0.5612  0.5500  1.3947
 5953TIP3    H242055   2.629   1.503   4.056  0.5093  0.4554  0.8528
 5954TIP3   OH242056   3.030   0.710   2.826  0.2818  0.3866  0.0778
 5954TIP3    H142057   3.117   0.689   2.860  0.8036  1.3748 -0.6086
 5954TIP3    H242058   3.045   0.729   2.733 -0.8658 -0.6802 -0.3512
 5955TIP3   OH242059   3.327   3.463   2.330  0.0200 -0.2480 -0.5425
 5955TIP3    H142060   3.248   3.493   2.374 -0.5823  0.4325 -2.0380
 5955TIP3    H242061   3.302   3.380   2.290 -0.1354  0.2612 -1.5235
 5956TIP3   OH242062   4.484   4.335  11.949  0.2813 -0.7143  0.7041
 5956TIP3    H142063   4.573   4.359  11.977  0.9263 -2.0680 -0.1053
 5956TIP3    H242064   4.490   4.327  11.854  0.0392 -3.5176  0.8391
 5957TIP3   OH242065   4.258   3.202   4.393  0.5162  0.0474 -0.2639
 5957TIP3    H142066   4.229   3.173   4.306 -2.6183  0.3146  0.5887
 5957TIP3    H242067   4.323   3.271   4.375 -2.6952  2.8049 -2.6118
 5958TIP3   OH242068   3.941   3.834   3.920 -0.3408 -0.2713  0.1279
 5958TIP3    H142069   3.872   3.789   3.871  0.5089 -2.8645  1.1605
 5958TIP3    H242070   4.021   3.817   3.871 -0.0190  0.4295  0.3889
 5959TIP3   OH242071   5.524   3.160   3.356  0.0112 -0.3105  0.1950
 5959TIP3    H142072   5.579   3.085   3.381 -0.1266 -0.5052 -0.0811
 5959TIP3    H242073   5.434   3.127   3.363 -0.1135  0.1910  1.2669
 5960TIP3   OH242074   4.688   3.851   2.555  0.5409 -0.4214  0.4534
 5960TIP3    H142075   4.633   3.911   2.605 -0.3623  0.4272 -1.4838
 5960TIP3    H242076   4.702   3.894   2.471  2.0245 -1.7880 -0.0558
 5961TIP3   OH242077   2.341   3.226   4.493  0.2006 -0.2759 -0.0203
 5961TIP3    H142078   2.431   3.194   4.497  0.7837  1.0743 -1.4058
 5961TIP3    H242079   2.316   3.216   4.402 -1.5349 -1.7663  0.5599
 5962TIP3   OH242080   0.118   5.314   4.978 -0.1176 -0.0857 -0.2514
 5962TIP3    H142081   0.032   5.354   4.967 -0.3183 -0.5472 -0.4158
 5962TIP3    H242082   0.100   5.220   4.986  0.3526 -0.1642 -0.0565
 5963TIP3   OH242083   3.638   2.523   2.801 -0.3089  0.2395 -0.0217
 5963TIP3    H142084   3.595   2.537   2.717 -1.4165  0.7491  0.6145
 5963TIP3    H242085   3.606   2.594   2.857 -0.6605 -0.8596  1.2307
 5964TIP3   OH242086   3.947   4.920   4.242  0.2854 -0.0460 -0.4167
 5964TIP3    H142087   3.947   4.918   4.147  0.3103 -0.3006 -0.4134
 5964TIP3    H242088   3.859   4.894   4.267  0.5068 -0.7634 -0.3631
 5965TIP3   OH242089   6.541   1.914   4.078 -0.1537  0.5970 -0.8591
 5965TIP3    H142090   6.468   1.868   4.035 -0.2218  0.0858 -0.2178
 5965TIP3    H242091   6.567   1.981   4.015 -1.1502  0.7625 -1.1210
 5966TIP3   OH242092   2.682   2.654   2.831 -0.2452  0.2391  0.1933
 5966TIP3    H142093   2.650   2.710   2.760 -1.3907 -1.8328 -1.0047
 5966TIP3    H242094   2.776   2.671   2.833  0.1211 -0.7524 -2.9633
 5967TIP3   OH242095   4.950   0.259   3.851  0.0724  0.0044  0.5893
 5967TIP3    H142096   4.890   0.313   3.902 -0.1134  0.7102 -0.3317
 5967TIP3    H242097   5.036   0.277   3.889 -0.2475 -0.7523  1.6990
 5968TIP3   OH242098   3.326   3.115   3.755  0.8959 -0.0196 -0.2146
 5968TIP3    H142099   3.413   3.155   3.758 -0.3337  2.8482  1.9392
 5968TIP3    H242100   3.308   3.089   3.845 -0.6954  0.0496 -0.4860
 5969TIP3   OH242101   4.748   0.179   3.433 -0.4908  0.6160 -0.3851
 5969TIP3    H142102   4.810   0.221   3.493 -0.1268  0.5894 -0.7326
 5969TIP3    H242103   4.762   0.085   3.446 -0.4005  0.6100 -0.5207
 5970TIP3   OH242104   6.188   2.191   2.620 -0.4229  0.4670  0.5600
 5970TIP3    H142105   6.149   2.277   2.604  1.3116  1.6504  2.2691
 5970TIP3    H242106   6.162   2.139   2.544 -1.4028  2.5243 -0.6067
 5971TIP3   OH242107   3.067   0.254   2.944  0.4322  0.3149 -0.2256
 5971TIP3    H142108   3.074   0.327   3.005  0.0612 -0.2709  0.5251
 5971TIP3    H242109   3.024   0.291   2.867 -1.2215  0.5394  0.7602
 5972TIP3   OH242110   4.079   3.703   4.564  0.0851  0.2241 -0.1616
 5972TIP3    H142111   3.984   3.692   4.567  0.1176  0.0612  0.4093
 5972TIP3    H242112   4.113   3.614   4.556  0.1862  0.2885 -0.4446
 5973TIP3   OH242113   5.626   3.480   5.608  0.9365 -0.4296 -0.5814
 5973TIP3    H142114   5.541   3.463   5.649  0.5028  2.4958 -0.0359
 5973TIP3    H242115   5.605   3.529   5.529  2.0878 -0.3950 -0.8827
 5974TIP3   OH242116   1.108   3.585   4.110  0.4353  0.0987  0.0567
 5974TIP3    H142117   1.158   3.504   4.119 -3.2538 -2.4180  0.2114
 5974TIP3    H242118   1.081   3.607   4.199 -3.1007 -1.8818 -0.3252
 5975TIP3   OH242119   5.490   1.570   4.086 -0.4671  0.2595 -0.1721
 5975TIP3    H142120   5.445   1.651   4.108 -0.6418  0.1631 -0.1687
 5975TIP3    H242121   5.425   1.518   4.038 -0.6400 -0.2196  0.5545
 5976TIP3   OH242122   2.009   6.010   5.275 -0.1441 -0.0084  0.3106
 5976TIP3    H142123   2.045   5.991   5.361 -0.3973  1.6251  0.8123
 5976TIP3    H242124   1.969   6.097   5.284  2.0246  1.3735 -2.0783
 5977TIP3   OH242125   5.072   2.685   2.411 -0.2073 -0.7240  0.5226
 5977TIP3    H142126   5.055   2.765   2.361  0.0278 -0.7588  0.3830
 5977TIP3    H242127   5.146   2.644   2.365 -0.3972 -1.0753  0.5328
 5978TIP3   OH242128   4.110   3.176   4.655  0.4285  0.2826 -0.1470
 5978TIP3    H142129   4.130   3.213   4.569  1.0593 -0.6947 -0.4345
 5978TIP3    H242130   4.035   3.118   4.639 -0.2036  0.9968  0.1939
 5979TIP3   OH242131   6.111   1.311   2.863 -0.2486 -0.5681  0.2993
 5979TIP3    H142132   6.114   1.354   2.949 -1.8889  0.8255 -0.2850
 5979TIP3    H242133   6.201   1.314   2.831 -0.0225  1.0361  0.9868
 5980TIP3   OH242134   1.920   1.407   2.200 -0.0931 -0.3623 -0.5891
 5980TIP3    H142135   1.884   1.454   2.125 -1.8271 -1.8124 -0.7396
 5980TIP3    H242136   2.015   1.420   2.193 -0.4246  2.5115 -0.9380
 5981TIP3   OH242137   2.344   4.235   4.218  0.7503  0.0628  0.5076
 5981TIP3    H142138   2.347   4.326   4.188 -0.2811 -0.2504 -0.5670
 5981TIP3    H242139   2.334   4.243   4.313  2.1326  1.0590  0.6045
 5982TIP3   OH242140   2.833   4.850   2.035 -0.3746  0.2451  0.3897
 5982TIP3    H142141   2.765   4.916   2.019 -0.6395 -0.6606 -2.8023
 5982TIP3    H242142   2.902   4.898   2.080 -0.7992  2.6043 -1.3054
 5983TIP3   OH242143   0.263   2.578   2.186  0.3245 -0.5657 -0.0578
 5983TIP3    H142144   0.237   2.625   2.107 -0.1802 -2.2805 -0.9702
 5983TIP3    H242145   0.310   2.643   2.238 -1.2814  1.2102 -0.7277
 5984TIP3   OH242146   1.930   3.040   3.051 -0.6021  0.2595 -0.1085
 5984TIP3    H142147   1.991   2.967   3.064 -0.4697  0.5484  0.9831
 5984TIP3    H242148   1.972   3.096   2.986 -0.2668 -0.1531 -0.2529
 5985TIP3   OH242149   6.439   1.533   4.572  0.3009  0.5741  0.1569
 5985TIP3    H142150   6.355   1.520   4.529  0.4421  0.4858 -0.0964
 5985TIP3    H242151   6.495   1.464   4.536  0.4384  0.5385  0.4369
 5986TIP3   OH242152   1.702   1.812   4.171  0.0704  0.1656  0.1399
 5986TIP3    H142153   1.763   1.785   4.239  0.5985  2.1599  0.5287
 5986TIP3    H242154   1.615   1.802   4.211  0.2143 -1.0708  0.1758
 5987TIP3   OH242155   0.135   1.333   4.486 -0.5687 -0.4496  0.2316
 5987TIP3    H142156   0.098   1.422   4.483 -0.6212 -0.4814 -0.0817
 5987TIP3    H242157   0.162   1.322   4.577 -1.3865 -0.4481  0.4857
 5988TIP3   OH242158   5.395   0.351   3.918  0.2471 -0.0083  0.3116
 5988TIP3    H142159   5.390   0.264   3.958  3.0470  0.0210  0.9741
 5988TIP3    H242160   5.384   0.335   3.825  0.5039 -1.0738  0.4510
 5989TIP3   OH242161   3.729   3.299   5.447 -0.4623  0.1632  0.2575
 5989TIP3    H142162   3.686   3.384   5.449 -0.5883  0.1226 -0.3741
 5989TIP3    H242163   3.819   3.316   5.476 -0.4709  0.5206  0.0804
 5990TIP3   OH242164   3.349   2.101   5.252  0.1720 -0.0199 -0.2148
 5990TIP3    H142165   3.361   2.195   5.264  1.3364 -0.4027  1.9633
 5990TIP3    H242166   3.380   2.085   5.163  0.6301  1.5412 -0.3715
 5991TIP3   OH242167   2.361   0.063   3.636 -0.1610 -0.2932  0.4052
 5991TIP3    H142168   2.360   0.125   3.562 -0.2369  1.0193  1.4766
 5991TIP3    H242169   2.427   0.097   3.695 -1.6352 -0.0290  1.9878
 5992TIP3   OH242170   1.851   5.492   4.286  0.2373  0.0244  0.2606
 5992TIP3    H142171   1.909   5.568   4.293  2.9739 -2.0375  3.6233
 5992TIP3    H242172   1.846   5.474   4.192  1.6352  2.7975 -0.4466
 5993TIP3   OH242173   2.668   5.745   3.498  0.3591 -0.1344 -0.7279
 5993TIP3    H142174   2.614   5.691   3.441 -0.6380  0.8122 -0.7240
 5993TIP3    H242175   2.607   5.778   3.565  1.6227 -1.7984  1.3816
 5994TIP3   OH242176   2.300   1.098   1.946 -0.1142  0.3212  0.4803
 5994TIP3    H142177   2.265   1.091   1.857 -0.1591  0.0887  0.5149
 5994TIP3    H242178   2.293   1.009   1.981 -0.6790  0.5356  0.9354
 5995TIP3   OH242179   2.094   3.630   3.435  0.5600 -0.1041 -0.1217
 5995TIP3    H142180   2.159   3.696   3.456 -0.3147  0.4619  0.8597
 5995TIP3    H242181   2.025   3.641   3.500 -0.1809 -1.1795 -0.6800
 5996TIP3   OH242182   6.682   5.615   4.685  0.4929 -0.4536 -0.0951
 5996TIP3    H142183   6.653   5.661   4.763 -0.8862 -0.1907 -0.7460
 5996TIP3    H242184   6.683   5.522   4.711  2.2271 -0.2015  0.8838
 5997TIP3   OH242185   3.819   5.608   4.824  0.2980 -0.4320 -0.1417
 5997TIP3    H142186   3.788   5.676   4.884  0.6140 -1.5453  1.3441
 5997TIP3    H242187   3.781   5.631   4.740 -0.9085  0.7012  0.6766
 5998TIP3   OH242188   2.910   1.465   3.416 -0.5075  0.1281 -0.2089
 5998TIP3    H142189   2.863   1.396   3.369 -0.3548  0.4800 -0.8844
 5998TIP3    H242190   2.857   1.480   3.495 -0.5184 -0.7847 -0.0215
 5999TIP3   OH242191   5.585   4.072   3.630 -0.2612 -0.3496 -0.1089
 5999TIP3    H142192   5.584   4.109   3.718  0.4342  1.4719 -0.8270
 5999TIP3    H242193   5.649   4.124   3.582  0.4843 -2.2455 -1.3183
 6000TIP3   OH242194   6.529   2.362   2.089 -0.2376 -0.1888  0.1139
 6000TIP3    H142195   6.540   2.386   2.181  0.9579  1.2297 -0.3475
 6000TIP3    H242196   6.610   2.391   2.047 -0.6035 -1.1329 -1.3351
 6001TIP3   OH242197   4.129   4.115   3.073 -0.1096 -0.7480 -0.0761
 6001TIP3    H142198   4.138   4.020   3.073 -1.2483 -0.8752  0.7431
 6001TIP3    H242199   4.159   4.142   3.160 -0.5461 -0.4479 -0.0151
 6002TIP3   OH242200   0.078   3.237   3.137  0.0436 -0.4578 -0.4999
 6002TIP3    H142201   0.013   3.280   3.083  0.8776 -0.3105 -1.4153
 6002TIP3    H242202   0.060   3.143   3.127 -0.5117 -0.3996 -0.1061
 6003TIP3   OH242203   5.529   1.009   3.230 -0.0561 -0.1602 -0.0230
 6003TIP3    H142204   5.505   1.016   3.138 -0.3077  1.8955  0.1398
 6003TIP3    H242205   5.623   0.996   3.230 -0.2015 -1.2793 -0.5730
 6004TIP3   OH242206   0.890   3.800   2.815 -0.3032  0.4659  0.0823
 6004TIP3    H142207   0.799   3.778   2.831 -0.2095 -1.0442 -1.1819
 6004TIP3    H242208   0.939   3.720   2.836  0.4414  0.4733 -1.4643
 6005TIP3   OH242209   4.017   4.064   4.027 -0.1318  0.1017 -0.1825
 6005TIP3    H142210   3.978   3.983   3.995  0.8105  0.1664 -1.5914
 6005TIP3    H242211   4.074   4.093   3.956 -0.0220  1.7160  0.5129
 6006TIP3   OH242212   2.441   2.808   2.663  0.0068 -0.2511 -0.2390
 6006TIP3    H142213   2.360   2.844   2.628 -1.1644 -2.7359 -0.3146
 6006TIP3    H242214   2.502   2.812   2.590 -1.0179 -1.1673 -1.1851
 6007TIP3   OH242215   5.910   2.053   2.775 -0.0756 -0.3517  0.0401
 6007TIP3    H142216   5.942   1.964   2.762 -2.7443 -1.2114 -1.3766
 6007TIP3    H242217   5.903   2.089   2.687 -0.3590  0.7613  0.5007
 6008TIP3   OH242218   4.518   2.491   3.785  0.3148  0.1081 -0.1487
 6008TIP3    H142219   4.451   2.437   3.743 -0.0047  1.1916 -1.0819
 6008TIP3    H242220   4.534   2.448   3.869 -1.4225 -0.2648  0.0219
 6009TIP3   OH242221   0.549   5.946   2.583  0.0295  0.3125  0.7675
 6009TIP3    H142222   0.513   5.917   2.667  0.3373 -1.2637  0.3992
 6009TIP3    H242223   0.481   5.927   2.519  0.5259 -0.3223  0.4125
 6010TIP3   OH242224   0.529   2.155   5.007 -0.0012 -0.1632 -0.4034
 6010TIP3    H142225   0.623   2.147   5.022 -0.1724 -1.7413 -0.0656
 6010TIP3    H242226   0.490   2.150   5.094 -0.4504 -0.1535 -0.6017
 6011TIP3   OH242227   1.098   4.141   2.335  0.0344  0.4451  0.3915
 6011TIP3    H142228   1.020   4.123   2.283  0.8688  1.6540 -1.3724
 6011TIP3    H242229   1.101   4.236   2.343  2.2408  0.5895 -1.1702
 6012TIP3   OH242230   5.151   1.117   2.572 -0.2185 -0.4165 -0.6773
 6012TIP3    H142231   5.211   1.112   2.647  1.6261  1.7199 -1.8790
 6012TIP3    H242232   5.204   1.093   2.497  0.3849  4.6253 -2.2629
 6013TIP3   OH242233   6.676   6.105   5.193 -0.1486  0.3273 -0.0263
 6013TIP3    H142234   6.641   6.018   5.214  1.7787 -0.6010 -0.4123
 6013TIP3    H242235   6.764   6.105   5.230  0.2244  1.7733 -0.8420
 6014TIP3   OH242236   6.108   6.498   2.570 -0.5464  0.1588  0.0516
 6014TIP3    H142237   6.160   6.561   2.620 -0.3916 -1.3143  1.8778
 6014TIP3    H242238   6.021   6.537   2.564 -0.4374  0.5847  1.1035
 6015TIP3   OH242239   6.290   2.694   2.594  0.1478 -0.4431  0.1872
 6015TIP3    H142240   6.197   2.670   2.590  0.4751 -1.6666 -1.0556
 6015TIP3    H242241   6.336   2.610   2.603  1.1550  0.1271  0.5643
 6016TIP3   OH242242   5.409   1.043   4.815  0.1887 -0.1995 -0.1874
 6016TIP3    H142243   5.341   1.072   4.876  0.8206 -0.5035  0.6773
 6016TIP3    H242244   5.435   0.957   4.847  1.0398 -0.0533 -0.4548
 6017TIP3   OH242245   0.461   0.037   2.784 -0.2181 -0.0204 -0.3754
 6017TIP3    H142246   0.398   0.047   2.855 -0.3094 -2.0396 -0.0998
 6017TIP3    H242247   0.540   0.079   2.817  0.2983 -2.3717  1.7660
 6018TIP3   OH242248   1.362   1.623   3.086 -0.0274  0.6363 -0.2582
 6018TIP3    H142249   1.349   1.707   3.130  1.2614  0.7651 -0.0838
 6018TIP3    H242250   1.378   1.647   2.995  1.8442  0.7130  0.0642
 6019TIP3   OH242251   6.304   5.109   4.599  0.0133 -0.2640 -0.9021
 6019TIP3    H142252   6.312   5.108   4.504  1.2633 -1.2797 -0.8050
 6019TIP3    H242253   6.393   5.094   4.631 -0.4254 -0.1544  0.4240
 6020TIP3   OH242254   0.505   5.492   4.204  0.1724  0.0457 -0.2988
 6020TIP3    H142255   0.512   5.571   4.149  0.7810 -1.2555 -2.1858
 6020TIP3    H242256   0.440   5.438   4.159  2.3120 -2.0215 -1.0831
 6021TIP3   OH242257   2.941   6.654   4.636  0.2003  0.4655  0.4890
 6021TIP3    H142258   2.878   6.589   4.666 -1.7147  1.2807 -1.4908
 6021TIP3    H242259   2.903   6.739   4.661  0.6966  0.9667 -0.3975
 6022TIP3   OH242260   5.057   0.580   3.006 -0.4063  0.3149  0.1087
 6022TIP3    H142261   5.024   0.520   3.073 -0.8062  0.5084  0.0907
 6022TIP3    H242262   5.116   0.639   3.053 -0.2649  0.1099  0.1881
 6023TIP3   OH242263   2.635   3.972   2.973  0.3343  0.1772 -0.1711
 6023TIP3    H142264   2.698   3.907   3.004  1.8055  0.4358 -2.3499
 6023TIP3    H242265   2.664   4.054   3.014 -0.6976 -0.2517  1.4994
 6024TIP3   OH242266   2.272   4.076   4.685 -0.0772 -0.2157 -0.6452
 6024TIP3    H142267   2.330   4.013   4.727 -0.3445 -0.4862 -0.6710
 6024TIP3    H242268   2.239   4.130   4.756  0.1629 -0.0998 -0.6236
 6025TIP3   OH242269   4.520   6.424   5.999  0.3402 -0.2877 -0.2334
 6025TIP3    H142270   4.431   6.416   5.965  0.2934 -3.2173  0.3190
 6025TIP3    H242271   4.515   6.497   6.061 -1.9141 -0.8542  0.3739
 6026TIP3   OH242272   3.167   5.754   5.245 -0.4986  0.5055  0.4884
 6026TIP3    H142273   3.171   5.834   5.298  1.3718  1.2122 -0.6172
 6026TIP3    H242274   3.231   5.696   5.285 -0.8069  0.1222  0.4252
 6027TIP3   OH242275   1.814   5.743   3.771 -0.0464 -0.0752  0.3569
 6027TIP3    H142276   1.739   5.752   3.713  0.0814  2.4732  0.4659
 6027TIP3    H242277   1.786   5.681   3.838 -2.0252  0.7212  0.3166
 6028TIP3   OH242278   0.256   0.510   5.376  0.2516  0.0284  0.0305
 6028TIP3    H142279   0.347   0.538   5.387  0.3057  0.1334 -0.6528
 6028TIP3    H242280   0.261   0.415   5.364  0.3502  0.1275 -0.7917
 6029TIP3   OH242281   6.223   1.824   5.321  0.4913 -0.0168 -0.0752
 6029TIP3    H142282   6.200   1.752   5.379  0.4964 -0.2736 -0.3914
 6029TIP3    H242283   6.258   1.892   5.380 -2.1830  0.8992  0.5939
 6030TIP3   OH242284   3.389   5.608   5.346  0.0521  0.3177  0.1234
 6030TIP3    H142285   3.447   5.588   5.272 -0.8650 -0.0783 -0.5183
 6030TIP3    H242286   3.425   5.558   5.419  0.6993  0.3321 -0.1799
 6031TIP3   OH242287   5.826   1.507   3.479  0.6057  0.0355 -0.1013
 6031TIP3    H142288   5.769   1.582   3.497 -0.5683 -0.5778 -1.1066
 6031TIP3    H242289   5.911   1.546   3.458 -0.2835  1.1939 -1.7803
 6032TIP3   OH242290   5.469   0.350   3.497 -0.7432 -0.8393  0.2508
 6032TIP3    H142291   5.421   0.427   3.469 -0.7193 -1.3992 -1.4166
 6032TIP3    H242292   5.500   0.309   3.416  0.4494 -1.8348  1.1598
 6033TIP3   OH242293   4.325   3.716   2.781 -0.1837  0.5656 -0.2954
 6033TIP3    H142294   4.311   3.692   2.689  1.0434 -0.0702 -0.3372
 6033TIP3    H242295   4.238   3.741   2.812 -0.5163  1.4376 -1.8013
 6034TIP3   OH242296   0.031   4.166   3.849  0.3204 -0.1508 -0.1255
 6034TIP3    H142297  -0.006   4.078   3.856  0.1549 -0.2091 -1.3548
 6034TIP3    H242298   0.098   4.170   3.917  0.1402 -1.1390  0.1245
 6035TIP3   OH242299   1.918   3.101   2.054  0.7229  0.0328 -0.4660
 6035TIP3    H142300   1.828   3.075   2.034  0.3010 -0.0659  1.3064
 6035TIP3    H242301   1.914   3.196   2.062  0.8095  0.0461 -0.5974
 6036TIP3   OH242302   0.854   3.011   3.038  0.1007  0.1507 -0.1036
 6036TIP3    H142303   0.883   3.017   3.129  1.8327  0.0714 -0.6112
 6036TIP3    H242304   0.768   2.970   3.043  0.4073 -0.3722  1.4773
 6037TIP3   OH242305   4.831   1.292   3.995 -0.1690  0.1491 -0.1113
 6037TIP3    H142306   4.834   1.265   4.087  0.3048  1.8958  0.4224
 6037TIP3    H242307   4.896   1.236   3.952  1.7260  1.2048  1.2054
 6038TIP3   OH242308   1.676   3.463   2.873 -0.4254  0.5942  0.2732
 6038TIP3    H142309   1.743   3.453   2.805 -0.3739 -2.6969  0.6357
 6038TIP3    H242310   1.609   3.398   2.850 -2.5647  2.4211  1.0181
 6039TIP3   OH242311   1.570   5.452   4.387 -0.8099 -0.4146  0.5761
 6039TIP3    H142312   1.645   5.479   4.334 -2.3749  1.5995 -0.7724
 6039TIP3    H242313   1.558   5.359   4.365  0.8219 -0.5716  0.2582
 6040TIP3   OH242314   0.258   5.261   3.187 -0.6481  0.1947  0.7275
 6040TIP3    H142315   0.286   5.278   3.097  0.1209 -0.8637  0.7544
 6040TIP3    H242316   0.335   5.280   3.241 -1.3057  1.4923  1.2529
 6041TIP3   OH242317   1.943   5.581   4.915 -0.4136 -0.3086 -0.0750
 6041TIP3    H142318   2.006   5.515   4.945 -2.3732 -1.7725  1.0800
 6041TIP3    H242319   1.937   5.567   4.820  1.6386  0.5114 -0.3813
 6042TIP3   OH242320   0.308   2.267   3.042  0.4948 -0.1525 -0.0489
 6042TIP3    H142321   0.297   2.180   3.081 -1.5986  0.4701  0.9109
 6042TIP3    H242322   0.248   2.266   2.967 -0.4277  0.8169  0.6550
 6043TIP3   OH242323   4.817   5.132   4.399  0.1926  0.0494  0.3043
 6043TIP3    H142324   4.904   5.126   4.359 -0.7222  0.5852 -1.9534
 6043TIP3    H242325   4.817   5.216   4.446  0.6447  0.4329 -0.3692
 6044TIP3   OH242326   2.881   6.192   4.982  0.5117 -0.4320 -0.0494
 6044TIP3    H142327   2.933   6.176   5.061  0.9316 -0.1380 -0.2616
 6044TIP3    H242328   2.844   6.279   4.996  0.4210 -0.4651 -0.0858
 6045TIP3   OH242329   1.311   5.935   4.414  0.4611 -0.1307  0.0135
 6045TIP3    H142330   1.247   5.955   4.483  1.3031  0.5584  0.6167
 6045TIP3    H242331   1.320   6.016   4.365  1.2874 -0.0400  0.2938
 6046TIP3   OH242332   1.402   3.484   3.550  0.8750  0.4232 -0.4827
 6046TIP3    H142333   1.383   3.549   3.617 -1.3975  0.6047 -1.2169
 6046TIP3    H242334   1.421   3.536   3.472 -1.8761  0.3475 -1.3221
 6047TIP3   OH242335   6.114   6.326   2.326 -0.0248  0.3860 -0.0234
 6047TIP3    H142336   6.202   6.294   2.343 -0.8858 -1.6505  0.9837
 6047TIP3    H242337   6.093   6.381   2.402  0.3410  0.8214 -0.2344
 6048TIP3   OH242338   4.467   4.349   5.276  0.4948 -0.4183  0.1025
 6048TIP3    H142339   4.478   4.315   5.365  1.4788 -0.9368 -0.2050
 6048TIP3    H242340   4.533   4.418   5.269  0.8207 -0.7837 -0.4261
 6049TIP3   OH242341   0.934   2.454   4.286 -0.3766 -0.0294  0.1640
 6049TIP3    H142342   0.895   2.389   4.344  0.9007  0.4692  1.6613
 6049TIP3    H242343   0.885   2.534   4.303  2.1352  1.0521  3.3254
 6050TIP3   OH242344   1.079   3.580   2.636  0.1258  0.0639 -0.8656
 6050TIP3    H142345   1.096   3.488   2.655  0.3276  0.5129  1.4792
 6050TIP3    H242346   0.985   3.584   2.618 -0.4529 -0.3119  1.6585
 6051TIP3   OH242347   2.745   0.929   3.997  0.0462  0.3808 -0.2539
 6051TIP3    H142348   2.758   0.843   3.957 -0.8072  0.8103 -1.4894
 6051TIP3    H242349   2.778   0.991   3.932 -0.3634  1.0455  0.1652
 6052TIP3   OH242350   6.077   1.277   4.617 -0.3689 -0.6333 -0.3780
 6052TIP3    H142351   6.043   1.352   4.665 -0.3890  0.5456 -2.1187
 6052TIP3    H242352   6.015   1.264   4.545  1.5137  0.0942 -2.2681
 6053TIP3   OH242353   2.629   4.397   4.443  0.2808  0.4734  0.0943
 6053TIP3    H142354   2.591   4.459   4.381 -0.4445 -0.4283 -0.3815
 6053TIP3    H242355   2.571   4.321   4.440  1.2119 -0.2819  0.5802
 6054TIP3   OH242356   0.571   0.334   2.447 -0.0499 -0.1219  0.1551
 6054TIP3    H142357   0.538   0.362   2.533  0.3819 -0.2351  0.3617
 6054TIP3    H242358   0.541   0.244   2.438 -1.1110  0.2765 -0.3391
 6055TIP3   OH242359   1.676   4.900   2.939 -0.2009 -0.1472  0.4809
 6055TIP3    H142360   1.583   4.889   2.962 -0.4659 -0.4260 -0.6904
 6055TIP3    H242361   1.675   4.944   2.855  0.7126 -0.9155  0.0508
 6056TIP3   OH242362   3.832   4.408   4.095 -0.0258 -0.1881 -0.2479
 6056TIP3    H142363   3.814   4.384   4.004  1.1612 -1.7040 -0.1290
 6056TIP3    H242364   3.905   4.352   4.121  0.7618  1.3817  1.1431
 6057TIP3   OH242365   2.951   5.354   3.743 -0.4627 -1.0154 -0.0606
 6057TIP3    H142366   2.985   5.438   3.712 -1.8989 -0.5272 -0.4055
 6057TIP3    H242367   3.027   5.308   3.779 -0.0511  1.7393  3.1053
 6058TIP3   OH242368   0.474   1.619   2.848  0.3298  0.0638  0.1301
 6058TIP3    H142369   0.568   1.620   2.863  0.4622  0.1359 -0.6485
 6058TIP3    H242370   0.465   1.628   2.753 -0.4988  2.1505  0.3562
 6059TIP3   OH242371   3.218   5.496   4.537  0.2992  0.1587  0.5356
 6059TIP3    H142372   3.148   5.465   4.595  0.5582 -0.0201  0.7513
 6059TIP3    H242373   3.284   5.427   4.540 -0.3438 -0.5675 -1.1588
 6060TIP3   OH242374   0.933   5.173   4.256 -0.6748  0.1525 -0.1170
 6060TIP3    H142375   0.908   5.167   4.164  0.3262  1.2355 -0.4808
 6060TIP3    H242376   0.899   5.258   4.285 -0.2373  0.2036  0.2662
 6061TIP3   OH242377   0.042   1.233   4.193 -0.4705  0.4133  0.1256
 6061TIP3    H142378   0.090   1.214   4.273 -0.6150 -0.5117 -0.0026
 6061TIP3    H242379  -0.041   1.269   4.224 -1.5494 -2.1856  0.5192
 6062TIP3   OH242380   5.122   3.773   3.936  0.0478  0.4811 -0.3777
 6062TIP3    H142381   5.183   3.771   4.010 -1.6346  2.8441  1.2137
 6062TIP3    H242382   5.053   3.712   3.960 -0.9049  1.8292  0.4903
 6063TIP3   OH242383   3.599   6.788   2.265  0.3284 -0.0016  0.4312
 6063TIP3    H142384   3.568   6.699   2.247 -1.3870  0.6670 -0.2179
 6063TIP3    H242385   3.645   6.782   2.348 -0.2129 -1.4092  0.6513
 6064TIP3   OH242386   5.480   2.257   5.037 -0.2076  0.2025  0.1700
 6064TIP3    H142387   5.392   2.237   5.005  0.3764  1.2861 -2.4091
 6064TIP3    H242388   5.532   2.269   4.957  2.6484 -1.7472  1.5732
 6065TIP3   OH242389   4.441   1.424   3.322  0.4966  0.3439 -0.1943
 6065TIP3    H142390   4.448   1.378   3.239  2.1029 -0.8161  0.5244
 6065TIP3    H242391   4.419   1.357   3.386  0.9650  0.8943  0.5741
 6066TIP3   OH242392   2.629   1.146   2.151 -0.2922  0.3386 -0.5107
 6066TIP3    H142393   2.639   1.119   2.243 -0.2127  0.0233 -0.6111
 6066TIP3    H242394   2.709   1.114   2.108 -1.3237 -1.4953 -1.1561
 6067TIP3   OH242395   0.746   5.373   4.335  0.4826 -0.1353  0.1835
 6067TIP3    H142396   0.651   5.384   4.332  0.2718 -1.6443  0.3262
 6067TIP3    H242397   0.779   5.431   4.267 -0.4802  0.9328  0.5976
 6068TIP3   OH242398   3.767   6.528   2.086  0.4785 -0.5057  0.4105
 6068TIP3    H142399   3.775   6.529   2.181 -0.6761  1.6133  0.5324
 6068TIP3    H242400   3.844   6.574   2.055 -0.2000  0.7195  0.4716
 6069TIP3   OH242401   5.070   1.856   3.223  0.0360 -0.1045  0.0578
 6069TIP3    H142402   5.158   1.828   3.200  0.2158  0.2506  0.3024
 6069TIP3    H242403   5.043   1.796   3.292  0.6072  0.6005  0.9230
 6070TIP3   OH242404   4.573   2.732   4.894 -0.5380  0.2217 -0.2241
 6070TIP3    H142405   4.640   2.728   4.962 -0.5171  2.0077 -0.1033
 6070TIP3    H242406   4.501   2.780   4.934 -1.7430 -1.2666 -0.5044
 6071TIP3   OH242407   5.458   4.532   2.438  0.2006 -0.3922  0.5980
 6071TIP3    H142408   5.546   4.494   2.435 -0.0601 -0.9757 -0.2846
 6071TIP3    H242409   5.464   4.602   2.503  0.6927 -1.9521  2.3284
 6072TIP3   OH242410   5.341   4.988   5.607 -0.0988 -0.1259 -0.0754
 6072TIP3    H142411   5.375   4.907   5.570 -0.7568 -1.9951  3.0796
 6072TIP3    H242412   5.254   4.998   5.567  0.8499  0.3704 -2.1781
 6073TIP3   OH242413   0.597   0.817   3.166 -0.3636 -0.0287 -0.1617
 6073TIP3    H142414   0.615   0.911   3.175  0.9828 -0.2015 -0.8741
 6073TIP3    H242415   0.664   0.775   3.219  0.8827 -0.6626 -2.1370
 6074TIP3   OH242416   0.931   1.459   4.254 -0.5803  0.1849 -0.1183
 6074TIP3    H142417   0.985   1.381   4.240 -0.5310  0.2274 -0.1628
 6074TIP3    H242418   0.850   1.439   4.207 -0.8711 -0.1693  0.5203
 6075TIP3   OH242419   6.236   0.772   3.511  0.6643 -0.3324 -0.8860
 6075TIP3    H142420   6.310   0.787   3.452 -0.0119  1.5089 -1.3109
 6075TIP3    H242421   6.276   0.765   3.598  1.2786  1.9571 -0.9273
 6076TIP3   OH242422   6.137   3.080   3.275 -0.1276  0.1970 -0.0767
 6076TIP3    H142423   6.063   3.059   3.217 -0.7708  1.6157  0.1849
 6076TIP3    H242424   6.119   3.029   3.354 -1.4722  1.3662  0.4214
 6077TIP3   OH242425   2.947   4.484   2.508  0.0857  0.0954  0.4296
 6077TIP3    H142426   2.983   4.428   2.439  1.0221 -0.4081  1.3018
 6077TIP3    H242427   2.869   4.524   2.468  0.6046 -0.1733 -0.9110
 6078TIP3   OH242428   5.344   1.799   3.943  0.2398 -0.1296 -0.5457
 6078TIP3    H142429   5.313   1.865   4.005  0.1701 -1.8895  1.3813
 6078TIP3    H242430   5.267   1.744   3.927  0.6200 -0.5027 -1.1141
 6079TIP3   OH242431   2.159   6.120   2.652 -0.0360 -0.4558  0.0032
 6079TIP3    H142432   2.237   6.171   2.672  0.5060 -0.4651 -1.9574
 6079TIP3    H242433   2.118   6.106   2.738  2.2941 -0.7997  1.1423
 6080TIP3   OH242434   3.208   4.191   3.774  0.3218  0.2433  0.2150
 6080TIP3    H142435   3.162   4.262   3.819  1.7247  0.8915  0.6490
 6080TIP3    H242436   3.252   4.143   3.844 -0.3132 -0.8655 -0.1168
 6081TIP3   OH242437   3.410   0.910   2.202  0.0961 -0.1383 -0.8586
 6081TIP3    H142438   3.461   0.862   2.137  0.3816  0.8589 -1.3835
 6081TIP3    H242439   3.456   0.993   2.214 -1.0093  0.5041 -0.8420
 6082TIP3   OH242440   3.188   5.347   2.607  0.3382  0.2841 -0.1929
 6082TIP3    H142441   3.283   5.347   2.602  0.3067  0.9986 -1.0763
 6082TIP3    H242442   3.159   5.389   2.526 -0.7718 -1.0036 -0.5081
 6083TIP3   OH242443   6.138   0.387   3.109 -0.1323 -0.1447 -0.5233
 6083TIP3    H142444   6.153   0.436   3.190 -1.3593  1.0629 -0.9949
 6083TIP3    H242445   6.205   0.319   3.109  0.3430  0.2921  1.1458
 6084TIP3   OH242446   0.202   2.002   3.054  0.8714  0.3116  0.4291
 6084TIP3    H142447   0.130   1.973   2.999 -2.1040  3.2178  2.4303
 6084TIP3    H242448   0.234   1.922   3.095  0.1091 -1.3135 -1.9594
 6085TIP3   OH242449   1.467   2.470   5.021  0.1160  0.8750  0.1184
 6085TIP3    H142450   1.401   2.430   5.076 -2.2167  2.0501 -1.6373
 6085TIP3    H242451   1.421   2.542   4.976  1.8207  0.1175 -3.1879
 6086TIP3   OH242452   0.497   4.614   4.108 -0.9061  0.0945 -0.1897
 6086TIP3    H142453   0.496   4.704   4.075 -1.0349 -0.2571 -1.1923
 6086TIP3    H242454   0.551   4.618   4.187 -2.0697  1.3230  0.5957
 6087TIP3   OH242455   0.485   0.377   2.698  0.3488  0.5626 -0.1596
 6087TIP3    H142456   0.393   0.397   2.718 -0.2704 -1.2846 -0.9049
 6087TIP3    H242457   0.512   0.316   2.766  0.9187  0.8409 -0.1357
 6088TIP3   OH242458   6.020   0.759   2.814  0.4322 -0.1064 -0.4443
 6088TIP3    H142459   6.068   0.686   2.777 -2.8562 -1.4099 -2.6532
 6088TIP3    H242460   5.998   0.731   2.903  1.9234 -0.3270 -0.1202
 6089TIP3   OH242461   4.706   0.728   4.206 -0.1046  0.0454 -0.2692
 6089TIP3    H142462   4.631   0.747   4.150  0.4857 -0.6809 -1.3298
 6089TIP3    H242463   4.722   0.635   4.193  0.2944 -0.0477  0.8170
 6090TIP3   OH242464   4.484   2.999   5.261  0.0012 -0.1329  0.1225
 6090TIP3    H142465   4.566   2.952   5.275  0.8427  0.8673 -1.1772
 6090TIP3    H242466   4.418   2.930   5.251  0.7846 -0.9619  0.5492
 6091TIP3   OH242467   4.295   4.206   5.071  0.2809  0.2139  0.0218
 6091TIP3    H142468   4.223   4.262   5.098  0.4552  0.2897  0.3333
 6091TIP3    H242469   4.311   4.150   5.147  0.2616 -0.0981 -0.2024
 6092TIP3   OH242470   5.122   6.817   4.393 -0.2505  0.5647 -0.3071
 6092TIP3    H142471   5.092   6.904   4.368  0.2502  1.2295  1.2797
 6092TIP3    H242472   5.049   6.779   4.442 -0.1522  0.4219 -0.2700
 6093TIP3   OH242473   3.061   4.426   3.113 -0.0429  0.3736  0.0784
 6093TIP3    H142474   2.978   4.466   3.139  0.6564  1.6498  0.4332
 6093TIP3    H242475   3.077   4.360   3.181 -1.3913 -0.8268 -0.7121
 6094TIP3   OH242476   2.378   5.515   2.954 -0.7410  0.3490  0.6871
 6094TIP3    H142477   2.359   5.609   2.961 -3.0555  0.1803 -1.5313
 6094TIP3    H242478   2.310   5.473   3.007 -0.6659 -0.0778  0.4533
 6095TIP3   OH242479   4.032   5.306   2.740 -0.2347  0.1608  0.4930
 6095TIP3    H142480   4.041   5.334   2.649  0.3022 -0.4238  0.3574
 6095TIP3    H242481   4.121   5.284   2.767 -0.5234 -0.6174  0.8446
 6096TIP3   OH242482   2.741   1.981   2.234 -0.0029  0.1896 -0.2095
 6096TIP3    H142483   2.719   2.025   2.152 -0.8963  1.4560  0.6778
 6096TIP3    H242484   2.833   2.002   2.249 -0.5583  2.4370  0.5262
 6097TIP3   OH242485   0.057   4.085   4.988  0.4278 -0.4925  0.4493
 6097TIP3    H142486   0.130   4.033   5.019 -1.0932 -1.4144  2.7485
 6097TIP3    H242487   0.037   4.145   5.060 -0.1618  0.8012 -0.7255
 6098TIP3   OH242488   1.549   6.812   5.207  0.2400 -0.3857  0.4184
 6098TIP3    H142489   1.622   6.837   5.263  1.1071  2.3913 -1.7130
 6098TIP3    H242490   1.573   6.726   5.171  3.1406  0.9245 -1.0963
 6099TIP3   OH242491   4.455   6.812   3.182  0.1923 -0.0698 -0.1680
 6099TIP3    H142492   4.466   6.731   3.133 -0.3102 -0.2885  0.0716
 6099TIP3    H242493   4.544   6.840   3.201  0.3901 -0.0590 -1.0645
 6100TIP3   OH242494   5.891   0.446   2.973  0.1413  0.2694  0.0291
 6100TIP3    H142495   5.967   0.395   3.003  0.2265  0.3744 -0.0110
 6100TIP3    H242496   5.860   0.491   3.052  0.4880  0.7049 -0.0801
 6101TIP3   OH242497   3.149   2.308   3.193 -0.2247  0.4279 -0.1920
 6101TIP3    H142498   3.056   2.328   3.205 -0.1514  0.5557  0.1834
 6101TIP3    H242499   3.151   2.244   3.122 -0.6584 -0.1862  0.3357
 6102TIP3   OH242500   6.836   0.530   3.912 -0.2551  0.3490  0.4888
 6102TIP3    H142501   6.811   0.448   3.955 -0.4114  0.3407  0.3855
 6102TIP3    H242502   6.795   0.525   3.826  0.8232 -0.0472 -0.0136
 6103TIP3   OH242503   1.433   3.285   3.273  0.1935  0.2913 -0.1928
 6103TIP3    H142504   1.486   3.238   3.209  1.6683  1.1493  0.3628
 6103TIP3    H242505   1.489   3.293   3.350 -0.6350  1.4894  0.3147
 6104TIP3   OH242506   5.347   0.984   4.361  0.5792  0.1687 -0.2388
 6104TIP3    H142507   5.262   1.015   4.328 -0.1476 -2.7579 -1.4722
 6104TIP3    H242508   5.393   0.952   4.283  1.1805 -1.7723  0.8346
 6105TIP3   OH242509   5.944   2.872   2.056 -0.1557  0.3573 -0.7658
 6105TIP3    H142510   6.026   2.846   2.098  0.1051 -0.3428 -1.6710
 6105TIP3    H242511   5.895   2.790   2.045  0.2018  0.3475 -2.6582
 6106TIP3   OH242512   2.067   5.325   3.852 -0.2565  0.3878  0.2537
 6106TIP3    H142513   2.096   5.236   3.873  0.7866  0.7854  0.5816
 6106TIP3    H242514   2.105   5.379   3.922 -2.7529  0.8373  1.3840
 6107TIP3   OH242515   4.620   5.586   5.418  0.5168 -0.5384  0.8276
 6107TIP3    H142516   4.707   5.627   5.424  0.1700  1.0904 -2.5118
 6107TIP3    H242517   4.637   5.497   5.389  1.1069 -0.9170  2.2771
 6108TIP3   OH242518   4.562   2.464   3.077 -0.3602 -0.2453 -0.2991
 6108TIP3    H142519   4.602   2.543   3.041  0.6252  0.9825  3.0935
 6108TIP3    H242520   4.501   2.496   3.143 -0.0936 -2.2937  1.0216
 6109TIP3   OH242521   3.703   2.614   2.160 -0.0995  0.4403 -0.7390
 6109TIP3    H142522   3.612   2.584   2.153  0.1903 -0.2440 -1.7651
 6109TIP3    H242523   3.717   2.667   2.081  0.8760 -0.8438 -1.4708
 6110TIP3   OH242524   5.641   2.550   4.036 -0.0974  0.0390  0.0332
 6110TIP3    H142525   5.625   2.640   4.064 -0.6127 -0.2015  0.5460
 6110TIP3    H242526   5.736   2.543   4.027 -0.1262  1.0097 -1.3203
 6111TIP3   OH242527   6.244   3.531   3.269  0.0845 -0.3338 -0.0286
 6111TIP3    H142528   6.294   3.492   3.198  0.2153  1.1040 -0.7494
 6111TIP3    H242529   6.203   3.456   3.313  2.8314 -1.5944  0.6153
 6112TIP3   OH242530   6.073   1.613   3.474  0.1701 -0.3227 -0.5966
 6112TIP3    H142531   6.108   1.699   3.498 -0.2368 -0.1207 -0.7235
 6112TIP3    H242532   6.123   1.588   3.397  0.8169 -0.5441 -0.1153
 6113TIP3   OH242533   2.354   6.633   2.623  0.2913 -0.3571  0.3704
 6113TIP3    H142534   2.405   6.655   2.545  0.4317 -0.1174  0.5286
 6113TIP3    H242535   2.416   6.642   2.696  0.4509 -1.6514  0.4074
 6114TIP3   OH242536   2.758   5.917   3.849  0.0950 -0.8092  0.0461
 6114TIP3    H142537   2.813   5.852   3.892  1.3665  0.7361  0.8800
 6114TIP3    H242538   2.787   5.917   3.758  0.7876 -0.7302  0.2634
 6115TIP3   OH242539   1.597   2.130   4.182 -0.3346 -0.6648 -0.2218
 6115TIP3    H142540   1.614   2.047   4.137  1.2016 -0.3507 -0.2697
 6115TIP3    H242541   1.529   2.109   4.245 -0.4977 -1.7900 -0.7402
 6116TIP3   OH242542   3.780   6.591   1.790 -0.4606 -0.0787 -1.3138
 6116TIP3    H142543   3.720   6.625   1.856  0.0426 -1.3136 -0.1766
 6116TIP3    H242544   3.827   6.668   1.758  0.0215  0.4394  0.5243
 6117TIP3   OH242545   2.185   3.191   2.260 -0.2117  0.3757 -0.1373
 6117TIP3    H142546   2.142   3.111   2.230  0.3673  0.3126 -0.7975
 6117TIP3    H242547   2.147   3.207   2.347 -0.2732 -0.6582  0.0375
 6118TIP3   OH242548   1.511   1.078   2.303 -0.1777 -0.1902  0.0507
 6118TIP3    H142549   1.578   1.146   2.312 -1.7017  1.2740  1.0477
 6118TIP3    H242550   1.507   1.035   2.388 -1.2130  0.4862  0.3728
 6119TIP3   OH242551   3.742   1.044   2.820 -0.6331  0.0161  0.1331
 6119TIP3    H142552   3.723   1.107   2.889  0.4184  0.4020  0.0901
 6119TIP3    H242553   3.778   1.097   2.749 -0.1750 -0.5720 -0.0808
 6120TIP3   OH242554   4.559   5.016   4.644  0.2614  0.4401  0.5094
 6120TIP3    H142555   4.562   5.052   4.555  1.3063  0.7383  0.6482
 6120TIP3    H242556   4.466   5.008   4.664 -0.0283  2.5047  0.2245
 6121TIP3   OH242557   4.355   6.528   3.707 -0.2309 -0.1229 -0.0488
 6121TIP3    H142558   4.376   6.571   3.624  1.2933 -0.5591  0.0891
 6121TIP3    H242559   4.390   6.586   3.774  0.2790 -0.7064  0.2030
 6122TIP3   OH242560   0.507   2.835   3.494  0.2127  0.2500  0.0232
 6122TIP3    H142561   0.417   2.866   3.484  0.4130  0.5287 -0.9507
 6122TIP3    H242562   0.556   2.912   3.524  0.4445  0.5330 -1.0643
 6123TIP3   OH242563   2.383   0.685   3.920  0.5491  0.0668 -0.4521
 6123TIP3    H142564   2.395   0.756   3.857 -1.1580  2.9980  2.2579
 6123TIP3    H242565   2.401   0.724   4.005 -1.9939 -2.2727  1.3577
 6124TIP3   OH242566   1.091   5.483   4.413  0.2669  0.0512 -0.2266
 6124TIP3    H142567   1.083   5.461   4.506 -0.1604  0.6684 -0.1136
 6124TIP3    H242568   1.013   5.536   4.394  0.6732  0.4526 -0.7829
 6125TIP3   OH242569   3.987   3.093   3.253  0.2415 -0.1371  0.6605
 6125TIP3    H142570   3.979   2.998   3.243 -0.8647  0.1646 -3.4130
 6125TIP3    H242571   4.080   3.107   3.272  0.9044 -2.0355 -0.7726
 6126TIP3   OH242572   3.686   6.115   5.211 -0.0632 -0.6158  0.8449
 6126TIP3    H142573   3.761   6.077   5.257 -0.5059 -0.7353  1.4763
 6126TIP3    H242574   3.620   6.046   5.212 -0.0242 -0.6811 -0.1248
 6127TIP3   OH242575   3.383   3.401   4.372  0.1074  0.3009  0.4702
 6127TIP3    H142576   3.472   3.434   4.385 -0.3063  2.1665 -1.0624
 6127TIP3    H242577   3.326   3.466   4.414 -0.5983 -0.0985  0.1573
 6128TIP3   OH242578   0.912   3.129   3.595 -0.5018 -0.2833  0.4572
 6128TIP3    H142579   0.999   3.089   3.602  0.2795  1.4199  0.7790
 6128TIP3    H242580   0.875   3.121   3.683 -1.1325 -1.9007  0.0978
 6129TIP3   OH242581   4.026   2.460   5.141  0.0740  0.0303 -0.3684
 6129TIP3    H142582   4.024   2.533   5.080  2.3079 -0.0891 -0.6715
 6129TIP3    H242583   3.980   2.493   5.219  1.0210  1.7936 -0.4903
 6130TIP3   OH242584   4.510   2.307   3.439  0.1675 -0.2900 -0.0066
 6130TIP3    H142585   4.605   2.311   3.441  0.1619 -0.1065 -0.0779
 6130TIP3    H242586   4.483   2.397   3.418  0.0204 -0.6102 -1.2948
 6131TIP3   OH242587   4.445   0.337   2.975 -0.4482 -0.7288 -0.3889
 6131TIP3    H142588   4.488   0.421   2.993 -0.5336 -0.6524 -0.5413
 6131TIP3    H242589   4.365   0.360   2.928 -1.5921 -0.7449  1.4731
 6132TIP3   OH242590   0.895   0.174   4.029  0.1311  0.6997  0.1229
 6132TIP3    H142591   0.905   0.206   3.939  0.7774  0.1449 -0.0080
 6132TIP3    H242592   0.981   0.188   4.069  0.0124  0.4121  0.4776
 6133TIP3   OH242593   0.592   1.568   1.949 -0.4640  0.1210 -0.3822
 6133TIP3    H142594   0.571   1.482   1.984 -0.8796  0.6238  0.6755
 6133TIP3    H242595   0.687   1.571   1.946 -0.4547 -0.6118 -1.0741
 6134TIP3   OH242596   6.738   1.150   3.030  0.4079 -0.4243 -0.5303
 6134TIP3    H142597   6.825   1.191   3.025  0.4575 -0.1228  1.9372
 6134TIP3    H242598   6.684   1.203   2.971  0.7960  2.4742  1.5233
 6135TIP3   OH242599   6.199   5.944   2.725 -0.0428 -0.3908 -0.4389
 6135TIP3    H142600   6.184   5.905   2.811 -0.6318  0.5325 -0.1065
 6135TIP3    H242601   6.112   5.961   2.690  0.1329  1.9996  0.1007
 6136TIP3   OH242602   5.159   4.435   4.265  0.0054  0.4558 -0.1606
 6136TIP3    H142603   5.142   4.455   4.172  1.2497 -1.2773 -0.8146
 6136TIP3    H242604   5.103   4.360   4.283 -0.2485  0.8052  0.5099
 6137TIP3   OH242605   5.818   1.552   3.133 -0.3070  0.6515 -0.7764
 6137TIP3    H142606   5.789   1.562   3.043  0.5576 -0.2813 -1.1758
 6137TIP3    H242607   5.838   1.642   3.161 -0.6855  0.9596 -1.4663
 6138TIP3   OH242608   5.701   5.260   2.712  0.3930 -0.1693  0.5507
 6138TIP3    H142609   5.663   5.336   2.667 -0.6438 -0.8469  0.2579
 6138TIP3    H242610   5.733   5.204   2.641  0.0458 -0.5805  0.7229
 6139TIP3   OH242611   4.792   0.950   4.029  0.2652  0.2481 -0.3898
 6139TIP3    H142612   4.778   1.035   4.072 -1.5047 -0.6037  0.8342
 6139TIP3    H242613   4.757   0.886   4.091  3.1300 -1.5976 -0.4834
 6140TIP3   OH242614   6.212   2.526   3.484 -0.5656 -0.4545  0.3452
 6140TIP3    H142615   6.200   2.593   3.417 -0.1781 -0.4626  0.2675
 6140TIP3    H242616   6.125   2.487   3.495 -0.9700  0.5666  0.9215
 6141TIP3   OH242617   4.319   2.525   2.446 -0.0794 -0.2964  0.0094
 6141TIP3    H142618   4.411   2.515   2.423 -0.0285 -0.0579  0.1168
 6141TIP3    H242619   4.315   2.500   2.539 -0.3086 -1.3998 -0.2842
 6142TIP3   OH242620   4.064   4.360   2.152 -0.4292  0.5537  0.3660
 6142TIP3    H142621   4.144   4.387   2.197 -0.6900  0.6371  0.7767
 6142TIP3    H242622   4.070   4.264   2.148 -0.2006  0.5733  0.1888
 6143TIP3   OH242623   0.932   6.824   4.874  0.2064 -0.0739  0.3471
 6143TIP3    H142624   0.974   6.826   4.960 -0.1866  0.2363  0.5392
 6143TIP3    H242625   0.965   6.901   4.829  1.2482 -0.8147 -0.1997
 6144TIP3   OH242626   3.935   0.778   3.491  0.1900 -0.2814 -0.4679
 6144TIP3    H142627   3.908   0.761   3.400 -0.8773  1.8672 -0.6126
 6144TIP3    H242628   3.878   0.849   3.520  2.3628  0.9972  0.9582
 6145TIP3   OH242629   4.510   1.250   2.328  0.0060  0.5329 -0.0742
 6145TIP3    H142630   4.440   1.226   2.389 -0.2412 -3.0696 -1.5586
 6145TIP3    H242631   4.590   1.218   2.369  0.0845 -0.1419 -0.7363
 6146TIP3   OH242632   0.876   0.560   3.054  0.5639  0.4219 -0.1267
 6146TIP3    H142633   0.894   0.621   2.983  0.6053  0.3495 -0.1779
 6146TIP3    H242634   0.834   0.614   3.122  0.2718  0.4385 -0.3170
 6147TIP3   OH242635   3.855   5.680   2.569 -0.1123 -0.3584  0.2957
 6147TIP3    H142636   3.921   5.749   2.560  0.7250 -1.0185  1.1069
 6147TIP3    H242637   3.807   5.681   2.486  2.3256 -1.2638 -1.2556
 6148TIP3   OH242638   2.994   2.205   4.035  0.1621 -0.1851 -0.0589
 6148TIP3    H142639   2.961   2.115   4.041 -0.9970  0.2192  0.0313
 6148TIP3    H242640   3.076   2.198   3.986  0.4427 -1.3665  0.5464
 6149TIP3   OH242641   6.455   0.169   5.542  0.0337 -0.2038  0.0129
 6149TIP3    H142642   6.487   0.101   5.483  0.8795 -2.0680  2.4025
 6149TIP3    H242643   6.360   0.157   5.542 -0.0693  0.4007 -1.5399
 6150TIP3   OH242644   2.625   2.212   2.996 -0.2213  0.5241  0.0511
 6150TIP3    H142645   2.598   2.263   3.073  0.2367  1.7580 -0.5769
 6150TIP3    H242646   2.644   2.278   2.930  1.2760 -0.4371 -0.5170
 6151TIP3   OH242647   4.342   4.674   3.570 -0.4781 -0.0339 -0.3365
 6151TIP3    H142648   4.383   4.759   3.553 -0.3959  0.1223  0.5612
 6151TIP3    H242649   4.321   4.639   3.484 -2.3254  1.7748 -0.7133
 6152TIP3   OH242650   3.746   1.027   4.074  0.0184  0.1604  0.1369
 6152TIP3    H142651   3.716   1.054   4.160  0.1200 -1.2612  0.6367
 6152TIP3    H242652   3.825   0.976   4.090 -0.2096 -0.5033 -0.7494
 6153TIP3   OH242653   3.025   2.782   2.795  0.1806  0.0172  0.6471
 6153TIP3    H142654   3.082   2.763   2.721 -0.1322  2.3407 -0.2736
 6153TIP3    H242655   3.073   2.750   2.871  1.9839  0.4477 -0.2483
 6154TIP3   OH242656   5.813   2.785   2.815 -0.0281  0.2711 -0.0319
 6154TIP3    H142657   5.808   2.869   2.861 -0.9769 -0.0467  0.4677
 6154TIP3    H242658   5.811   2.720   2.885  0.9487 -0.1715 -0.3995
 6155TIP3   OH242659   5.333   1.754   3.207  0.2902 -0.3408 -0.5278
 6155TIP3    H142660   5.368   1.667   3.190  2.1567  0.2937 -0.2036
 6155TIP3    H242661   5.408   1.805   3.237 -0.3739  1.8187 -2.1990
 6156TIP3   OH242662   5.884   1.290   4.981  0.0500 -0.0604 -0.7810
 6156TIP3    H142663   5.840   1.372   5.003  0.1169  0.0524 -1.0605
 6156TIP3    H242664   5.831   1.252   4.911  0.1769 -0.1167 -0.8463
 6157TIP3   OH242665   2.991   2.856   3.442  0.4493  0.3144  0.6603
 6157TIP3    H142666   3.060   2.855   3.509 -0.5960 -0.3530  1.7801
 6157TIP3    H242667   2.917   2.899   3.485  0.3816  1.7760 -0.7953
 6158TIP3   OH242668   2.184   4.788   5.357 -0.1919 -0.1027  0.4871
 6158TIP3    H142669   2.154   4.724   5.421 -0.6664 -0.3540  0.0148
 6158TIP3    H242670   2.270   4.756   5.330  0.1533  0.1793  1.2368
 6159TIP3   OH242671   5.914   0.327   3.630 -0.3999 -0.1492  0.6183
 6159TIP3    H142672   5.883   0.245   3.671 -1.0534 -1.1428 -1.7032
 6159TIP3    H242673   5.977   0.298   3.564 -0.2809  1.2804  0.0799
 6160TIP3   OH242674   2.726   0.092   3.555  0.0365 -0.8022  0.4831
 6160TIP3    H142675   2.749   0.006   3.588 -1.0900 -1.1033  0.5327
 6160TIP3    H242676   2.698   0.077   3.465 -0.7353 -0.5958  0.6757
 6161TIP3   OH242677   5.163   3.440   4.532  0.0752  0.3974 -0.0945
 6161TIP3    H142678   5.140   3.531   4.550 -1.8836  0.3709 -2.1036
 6161TIP3    H242679   5.239   3.446   4.474  0.5657  0.6860  0.5563
 6162TIP3   OH242680   1.041   2.147   2.966  0.5848 -0.6320  0.1135
 6162TIP3    H142681   1.042   2.057   2.935 -1.2319 -0.4611 -0.5251
 6162TIP3    H242682   1.050   2.200   2.886  0.9466 -0.2276  0.4155
 6163TIP3   OH242683   6.563   2.624   4.575 -0.2977  0.3450 -0.5707
 6163TIP3    H142684   6.550   2.586   4.661  0.0271  0.8372 -0.3012
 6163TIP3    H242685   6.625   2.566   4.532  0.4267  0.7208 -0.0535
 6164TIP3   OH242686   1.447   5.499   4.622  0.7972 -0.5700  0.5168
 6164TIP3    H142687   1.393   5.423   4.643 -0.4118 -0.0577 -0.5328
 6164TIP3    H242688   1.475   5.485   4.532 -0.9285  0.9724 -0.3544
 6165TIP3   OH242689   2.947   0.250   4.224  0.7080 -0.0830  0.1266
 6165TIP3    H142690   2.901   0.300   4.291  0.5287  1.3170 -0.9784
 6165TIP3    H242691   2.878   0.204   4.176  0.4307  1.5883 -1.1858
 6166TIP3   OH242692   0.432   0.253   3.196 -0.7182  0.4914  0.2158
 6166TIP3    H142693   0.412   0.313   3.267 -2.0720  1.1470 -0.6701
 6166TIP3    H242694   0.524   0.268   3.176 -0.3833  0.4460  1.6641
 6167TIP3   OH242695   5.793   5.370   4.166 -0.2623  0.1698 -0.1708
 6167TIP3    H142696   5.724   5.435   4.181  0.9338  1.1097  1.7379
 6167TIP3    H242697   5.804   5.368   4.071  0.1060  3.3010 -0.3010
 6168TIP3   OH242698   1.010   0.897   2.996  0.0875 -0.0082  0.4306
 6168TIP3    H142699   0.950   0.970   3.009 -0.2065 -0.6539  3.8434
 6168TIP3    H242700   0.973   0.847   2.924  0.0728  2.8757 -1.7131
 6169TIP3   OH242701   0.147   6.754  12.069 -0.0866  0.2004 -0.2956
 6169TIP3    H142702   0.069   6.739  12.015 -0.1350  0.7341 -0.3778
 6169TIP3    H242703   0.201   6.675  12.056 -0.1765  0.2481 -0.9838
 6170TIP3   OH242704   4.054   6.321   3.914 -0.0879  0.2864 -0.0471
 6170TIP3    H142705   4.028   6.243   3.865  1.0842  0.9674 -1.8432
 6170TIP3    H242706   3.974   6.372   3.922 -0.6145 -0.5387  0.0867
 6171TIP3   OH242707   2.398   0.576   2.047  0.0719  0.0336 -0.4385
 6171TIP3    H142708   2.412   0.517   2.121 -1.2496  0.0595 -0.1459
 6171TIP3    H242709   2.433   0.528   1.972  2.2897  0.3841  0.2859
 6172TIP3   OH242710   2.018   3.798   4.939  0.5839  0.2181  0.2963
 6172TIP3    H142711   2.077   3.761   4.873  0.6986 -1.2901  1.1856
 6172TIP3    H242712   2.049   3.761   5.022 -0.6659  0.6363  0.9789
 6173TIP3   OH242713   0.540   1.010   4.755  0.5101  0.2068 -0.5480
 6173TIP3    H142714   0.626   1.018   4.715  1.1527  2.1190  1.0427
 6173TIP3    H242715   0.557   0.964   4.838  0.0599  0.7871 -0.1269
 6174TIP3   OH242716   6.501   6.088   4.059 -0.7852 -0.1148 -0.4796
 6174TIP3    H142717   6.591   6.074   4.089 -0.5864  1.2759 -0.3819
 6174TIP3    H242718   6.505   6.168   4.006 -1.9607 -0.0565 -0.5079
 6175TIP3   OH242719   4.258   2.818   4.066  0.2904  0.0667  0.1609
 6175TIP3    H142720   4.238   2.774   3.984  0.0545 -0.0817  0.2975
 6175TIP3    H242721   4.242   2.753   4.134 -0.4267  0.4673  0.3901
 6176TIP3   OH242722   2.285   6.466   3.806  0.2112 -0.3303  0.0080
 6176TIP3    H142723   2.215   6.401   3.812  0.0145  0.0236  2.8126
 6176TIP3    H242724   2.360   6.419   3.770 -0.0988 -1.9952  1.4222
 6177TIP3   OH242725   3.050   2.933   4.145 -0.3911 -0.0597  0.1223
 6177TIP3    H142726   2.977   2.936   4.083 -2.6027 -0.8773  2.4968
 6177TIP3    H242727   3.096   2.851   4.124 -1.1388 -0.3627 -0.3768
 6178TIP3   OH242728   6.352   2.082   3.680  0.6541  0.0423 -0.5422
 6178TIP3    H142729   6.407   2.159   3.668 -0.0666  0.4423 -1.4086
 6178TIP3    H242730   6.407   2.019   3.727  0.6105  1.7886  2.0468
 6179TIP3   OH242731   2.157   4.225   4.892 -0.2109 -0.1218  0.0414
 6179TIP3    H142732   2.079   4.186   4.931 -0.3648  1.3133  1.2561
 6179TIP3    H242733   2.137   4.319   4.887  0.9853  0.1129 -0.7389
 6180TIP3   OH242734   6.140   2.763   3.749  0.0977 -0.1768  0.3276
 6180TIP3    H142735   6.089   2.721   3.680  0.4530 -0.6316  0.3370
 6180TIP3    H242736   6.231   2.754   3.721  0.2343 -0.2154  0.7701
 6181TIP3   OH242737   3.762   6.411   2.756  0.1083  0.4908 -0.4720
 6181TIP3    H142738   3.667   6.424   2.749  0.0891  0.4957 -0.1883
 6181TIP3    H242739   3.773   6.346   2.825  0.3960  1.7108  0.6695
 6182TIP3   OH242740   4.248   3.930   2.565 -0.2156 -0.2368 -0.1264
 6182TIP3    H142741   4.184   3.878   2.614 -0.2474  0.0975  0.1861
 6182TIP3    H242742   4.202   4.012   2.545  0.5682  0.6021  1.3416
 6183TIP3   OH242743   0.232   0.137   1.910  0.1877  0.0604  0.2274
 6183TIP3    H142744   0.230   0.056   1.858  1.5664  0.3870 -0.3687
 6183TIP3    H242745   0.186   0.114   1.991 -0.7272 -0.8830 -0.5329
 6184TIP3   OH242746   6.030   0.751   4.347 -0.4637  0.0543  0.6785
 6184TIP3    H142747   5.938   0.775   4.335 -0.7719 -1.5087 -0.3666
 6184TIP3    H242748   6.033   0.708   4.432 -0.9790 -1.1073  0.1176
 6185TIP3   OH242749   0.868   1.457   4.887  0.4958  0.4313 -0.0988
 6185TIP3    H142750   0.924   1.532   4.866 -2.4901  2.3980 -1.9144
 6185TIP3    H242751   0.887   1.393   4.819 -0.2780  1.6325 -1.5185
 6186TIP3   OH242752   2.269   4.101   3.673  0.3713 -0.0387  0.2717
 6186TIP3    H142753   2.291   4.139   3.758  1.5056 -1.9737  0.8956
 6186TIP3    H242754   2.334   4.138   3.613 -0.0640  0.8658  0.3352
 6187TIP3   OH242755   1.942   3.162   4.118  0.4737 -0.9598 -0.2386
 6187TIP3    H142756   2.036   3.179   4.126  0.0962  0.9536  0.5696
 6187TIP3    H242757   1.908   3.239   4.073 -0.5079 -2.3984 -2.1268
 6188TIP3   OH242758   2.674   2.415   5.190 -0.2361 -0.1015 -0.2381
 6188TIP3    H142759   2.765   2.389   5.205 -0.7961 -2.6259 -0.7197
 6188TIP3    H242760   2.641   2.351   5.127 -2.4740  0.4729  0.2661
 6189TIP3   OH242761   1.001   3.963   3.647 -0.1924  0.1624  0.5085
 6189TIP3    H142762   0.946   3.949   3.724  0.5260  1.5688  1.3343
 6189TIP3    H242763   1.090   3.967   3.682  0.1695  0.6548 -0.4300
 6190TIP3   OH242764   6.674   3.402   3.982 -0.5414  0.2523  0.3497
 6190TIP3    H142765   6.681   3.373   3.891  0.5969 -0.9534  0.7954
 6190TIP3    H242766   6.590   3.367   4.012 -0.8230  0.4752 -0.1681
 6191TIP3   OH242767   1.835   1.831   4.765 -0.2524  0.4091  0.3359
 6191TIP3    H142768   1.854   1.902   4.827  0.0367  0.8194 -0.2061
 6191TIP3    H242769   1.798   1.761   4.818  2.2213 -0.2049  1.3716
 6192TIP3   OH242770   2.016   1.235   2.466  0.6262 -0.4032 -0.2037
 6192TIP3    H142771   2.064   1.160   2.433  1.1070  0.2443 -0.9991
 6192TIP3    H242772   1.956   1.198   2.531  0.0148 -1.6311 -1.4265
 6193TIP3   OH242773   0.267   0.993   2.583  0.2014  0.3454  0.0479
 6193TIP3    H142774   0.313   0.987   2.500 -0.0813 -0.4338 -0.0602
 6193TIP3    H242775   0.189   1.044   2.563  0.4967  0.7904  0.0060
 6194TIP3   OH242776   2.791   6.454   4.761  0.0730 -0.2778  0.4539
 6194TIP3    H142777   2.745   6.517   4.816 -0.4915 -0.5162  0.2638
 6194TIP3    H242778   2.727   6.384   4.746 -1.2237  1.4403 -3.5949
 6195TIP3   OH242779   6.798   0.297   3.273  0.0246  0.2210 -0.5422
 6195TIP3    H142780   6.753   0.380   3.260 -3.0502 -1.1723  0.3453
 6195TIP3    H242781   6.791   0.251   3.189  1.3475  0.6201 -0.9029
 6196TIP3   OH242782   0.509   3.631   4.547 -0.1165  0.3438  0.3935
 6196TIP3    H142783   0.552   3.574   4.484  0.6762  1.4339 -0.0740
 6196TIP3    H242784   0.430   3.660   4.502 -0.2164  0.0978  0.4066
 6197TIP3   OH242785   2.939   2.337   3.566  0.0517  0.0252 -0.1418
 6197TIP3    H142786   2.849   2.349   3.596 -0.3279 -1.2179 -0.7355
 6197TIP3    H242787   2.951   2.404   3.499 -0.4970  0.0648 -0.2015
 6198TIP3   OH242788   5.456   6.536   4.115 -0.1772 -0.1292  0.0237
 6198TIP3    H142789   5.380   6.541   4.174 -0.8890  0.1426 -0.8997
 6198TIP3    H242790   5.532   6.550   4.173 -0.8208 -0.3741  0.9575
 6199TIP3   OH242791   1.178   1.768   4.410  0.8003 -0.0904  0.0612
 6199TIP3    H142792   1.202   1.689   4.459 -0.6743  0.9989  2.8004
 6199TIP3    H242793   1.164   1.834   4.478 -2.9085  1.1986 -1.7147
 6200TIP3   OH242794   6.616   5.684   4.937 -0.0964 -0.3016  0.0895
 6200TIP3    H142795   6.664   5.678   5.019 -0.2264  3.8251  0.6747
 6200TIP3    H242796   6.533   5.640   4.955 -0.2565  0.7830  2.3622
 6201TIP3   OH242797   6.193   3.073   2.089 -0.3540  0.3933  0.6869
 6201TIP3    H142798   6.169   2.998   2.034 -0.7532  1.7413 -1.0525
 6201TIP3    H242799   6.272   3.044   2.134  0.6387 -0.4192 -1.4240
 6202TIP3   OH242800   3.141   3.529   3.713 -0.0061 -0.1808  0.5587
 6202TIP3    H142801   3.146   3.458   3.776  0.8298 -0.4686  0.1887
 6202TIP3    H242802   3.170   3.606   3.761  1.2329 -0.5133  0.3845
 6203TIP3   OH242803   3.354   4.961   2.711 -0.0275 -0.3483  0.0687
 6203TIP3    H142804   3.262   4.937   2.694  0.4359 -2.6263  0.4090
 6203TIP3    H242805   3.349   5.044   2.758 -1.8887 -0.2428 -0.2195
 6204TIP3   OH242806   3.897   0.576   3.017 -0.1564  0.6857 -0.2035
 6204TIP3    H142807   3.908   0.658   2.969  0.5966  0.6502 -0.1068
 6204TIP3    H242808   3.986   0.543   3.029 -0.4780 -0.3979 -0.6554
 6205TIP3   OH242809   4.939   5.121   5.123 -0.3771  0.2921 -0.1046
 6205TIP3    H142810   4.924   5.175   5.200 -0.8183 -0.2287  0.1746
 6205TIP3    H242811   4.948   5.032   5.157 -1.4012 -0.0597 -0.7252
 6206TIP3   OH242812   1.127   3.241   1.903 -0.1362 -0.4156  0.0675
 6206TIP3    H142813   1.177   3.266   1.825 -1.5074 -1.3573 -1.1626
 6206TIP3    H242814   1.154   3.151   1.921 -0.3183 -0.4287  0.2808
 6207TIP3   OH242815   5.568   4.644   4.889  0.0294  0.4004 -0.1673
 6207TIP3    H142816   5.626   4.690   4.828  0.1125  0.1842 -0.2500
 6207TIP3    H242817   5.620   4.571   4.922 -0.9230 -1.1682 -1.9678
 6208TIP3   OH242818   4.440   0.624   4.383 -0.5749  0.3028  0.1879
 6208TIP3    H142819   4.467   0.679   4.310 -0.0819 -1.3051 -0.8948
 6208TIP3    H242820   4.520   0.579   4.410 -0.8857  0.3980  1.3111
 6209TIP3   OH242821   4.091   4.378   5.181  0.0497 -0.2788  0.9098
 6209TIP3    H142822   4.004   4.417   5.183  0.6075  1.2802 -1.5417
 6209TIP3    H242823   4.149   4.446   5.215  0.7442  0.2888 -1.2423
 6210TIP3   OH242824   3.730   0.373   3.232  0.2768 -0.2126  0.2530
 6210TIP3    H142825   3.800   0.438   3.231 -0.2686  0.3884  0.1477
 6210TIP3    H242826   3.773   0.291   3.254  0.8186  0.3725  1.4700
 6211TIP3   OH242827   2.010   1.053   3.250  0.1710  0.0305  0.1561
 6211TIP3    H142828   2.067   0.994   3.201 -1.8322  0.0114 -2.3931
 6211TIP3    H242829   1.977   1.114   3.183 -1.7653  0.8092  1.7360
 6212TIP3   OH242830   6.536   0.812   5.115 -0.2649 -0.4626 -0.0810
 6212TIP3    H142831   6.443   0.788   5.115 -0.7021  1.0262 -1.4499
 6212TIP3    H242832   6.537   0.905   5.135  1.0098 -0.6238  0.6923
 6213TIP3   OH242833   3.222   1.085   4.789 -0.2683 -0.2959  0.4847
 6213TIP3    H142834   3.200   1.155   4.727  1.0746  0.1564  0.4971
 6213TIP3    H242835   3.137   1.056   4.822 -0.9924 -0.2082 -1.1781
 6214TIP3   OH242836   1.497   4.538   1.939 -0.0185  0.2736 -0.1335
 6214TIP3    H142837   1.540   4.619   1.967  0.6613  1.3884 -3.9208
 6214TIP3    H242838   1.408   4.565   1.915 -1.1327 -0.9600  2.1684
 6215TIP3   OH242839   0.341   2.422   3.252  0.3086 -0.5701 -0.0090
 6215TIP3    H142840   0.415   2.376   3.291  0.4705 -0.0977  0.2475
 6215TIP3    H242841   0.312   2.365   3.181  0.0189 -1.4461  0.7864
 6216TIP3   OH242842   6.346   6.221   2.455 -0.1406  0.1197  1.1113
 6216TIP3    H142843   6.373   6.177   2.536 -1.8387 -0.0635  1.5992
 6216TIP3    H242844   6.349   6.153   2.388  1.3020  0.2782  0.9744
 6217TIP3   OH242845   2.643   0.626   3.059 -0.1146  0.1708  0.1886
 6217TIP3    H142846   2.681   0.552   3.013 -0.6532  0.6838 -1.1252
 6217TIP3    H242847   2.590   0.588   3.129 -0.7542 -0.7083 -0.7545
 6218TIP3   OH242848   5.422   2.027   4.535  0.5475  0.3833 -0.0281
 6218TIP3    H142849   5.333   2.003   4.560  1.7584 -2.0825  2.4311
 6218TIP3    H242850   5.431   2.118   4.562 -0.9595  0.4242  0.4349
 6219TIP3   OH242851   3.857   3.963   4.667  0.1172 -0.4398  0.1510
 6219TIP3    H142852   3.902   4.019   4.731 -0.2293 -1.3086  1.1910
 6219TIP3    H242853   3.800   4.022   4.619  1.1235  0.4052 -0.0568
 6220TIP3   OH242854   5.668   4.381   5.259  0.6372 -0.1842 -0.0733
 6220TIP3    H142855   5.690   4.402   5.169  0.7539 -1.8781 -0.4874
 6220TIP3    H242856   5.699   4.291   5.271  2.0454  0.4884  2.1477
 6221TIP3   OH242857   6.652   2.909   3.794  0.1122  0.0603 -0.3325
 6221TIP3    H142858   6.620   2.820   3.779 -1.7958  0.7956 -0.9767
 6221TIP3    H242859   6.702   2.904   3.875  1.1787 -1.8435 -1.0380
 6222TIP3   OH242860   3.453   2.728   2.991 -0.4014 -0.2289 -0.2679
 6222TIP3    H142861   3.451   2.819   2.962  2.2619 -0.0413 -0.1237
 6222TIP3    H242862   3.366   2.694   2.970 -2.0522  2.7654  1.2152
 6223TIP3   OH242863   4.497   0.423   5.402 -0.6171  0.7171  0.0066
 6223TIP3    H142864   4.505   0.406   5.496 -0.5422 -1.5118 -0.3420
 6223TIP3    H242865   4.420   0.479   5.394 -1.3946 -0.1132  1.3181
 6224TIP3   OH242866   4.962   5.323   4.197  0.8562 -0.0520  0.6005
 6224TIP3    H142867   4.867   5.313   4.187  0.2413  4.1946  0.4963
 6224TIP3    H242868   4.999   5.281   4.120 -0.8985 -1.5593  0.5043
 6225TIP3   OH242869   3.179   0.095   4.262  0.2146 -0.4805  0.7101
 6225TIP3    H142870   3.148   0.020   4.313 -0.3481 -0.4600  0.4068
 6225TIP3    H242871   3.100   0.146   4.243  0.5007 -0.1646  0.3416
 6226TIP3   OH242872   2.595   4.612   4.234  0.2043  0.4033 -0.1710
 6226TIP3    H142873   2.635   4.687   4.190 -2.0164  1.6276 -0.2906
 6226TIP3    H242874   2.517   4.593   4.182 -0.7062 -0.2489  1.3661
 6227TIP3   OH242875   2.996   1.350   2.616  0.4150 -0.0676 -0.1498
 6227TIP3    H142876   2.962   1.433   2.582  0.6182 -0.3352 -1.0040
 6227TIP3    H242877   2.957   1.343   2.704  2.1966  2.0709  0.9140
 6228TIP3   OH242878   3.954   6.245   3.496  0.1428  0.3412 -0.2140
 6228TIP3    H142879   3.998   6.213   3.417  0.2304  0.9700 -0.4197
 6228TIP3    H242880   3.913   6.167   3.533  0.8005 -0.1129 -0.4237
 6229TIP3   OH242881   0.685   0.257   3.439 -0.1762  0.0376 -0.1335
 6229TIP3    H142882   0.604   0.214   3.466 -0.7206  0.3721 -1.1921
 6229TIP3    H242883   0.665   0.351   3.443 -0.4216  0.1129 -2.0183
 6230TIP3   OH242884   4.314   1.716   4.160 -0.7311  0.3869  0.6741
 6230TIP3    H142885   4.321   1.797   4.111  1.9201  0.9269  1.7719
 6230TIP3    H242886   4.274   1.654   4.099 -1.6541  2.1624 -0.6057
 6231TIP3   OH242887   1.272   2.149   3.539  0.3128 -0.0518  0.0292
 6231TIP3    H142888   1.245   2.241   3.542 -0.8743 -0.3520 -0.8818
 6231TIP3    H242889   1.206   2.103   3.590  0.7340 -0.4484  0.2236
 6232TIP3   OH242890   2.996   3.445   2.322 -0.3175  0.8023 -0.5647
 6232TIP3    H142891   2.902   3.426   2.326 -0.4654  1.5195 -0.4518
 6232TIP3    H242892   3.012   3.504   2.396  0.6609 -1.0291  0.7506
 6233TIP3   OH242893   6.646   4.081   2.073 -0.3271  0.4210 -0.1547
 6233TIP3    H142894   6.633   4.069   2.167 -1.1300  0.6276 -0.2336
 6233TIP3    H242895   6.732   4.122   2.066 -1.3756  2.9368  0.6927
 6234TIP3   OH242896   4.170   1.321   3.011 -0.3623 -0.0524  0.1293
 6234TIP3    H142897   4.162   1.227   2.997 -0.8503  0.2796 -2.2016
 6234TIP3    H242898   4.262   1.333   3.038 -0.2742 -1.1646  0.3808
 6235TIP3   OH242899   1.409   2.337   3.845 -0.6958  0.0977 -0.6005
 6235TIP3    H142900   1.414   2.372   3.756 -0.0617 -0.6796 -0.8803
 6235TIP3    H242901   1.499   2.312   3.866 -0.9406 -0.2754  0.0345
 6236TIP3   OH242902   5.068   2.373   2.786 -0.3046  0.4539 -0.0177
 6236TIP3    H142903   5.112   2.312   2.727 -2.9767 -1.5539 -0.1101
 6236TIP3    H242904   5.095   2.460   2.755 -0.3712 -0.5598 -3.2493
 6237TIP3   OH242905   5.379   0.003   3.160 -0.2799  0.7857  0.7742
 6237TIP3    H142906   5.434  -0.063   3.202  2.6687  0.4645 -3.0258
 6237TIP3    H242907   5.297  -0.042   3.142  0.7545 -1.0823  0.4884
 6238TIP3   OH242908   4.857   0.712   2.409  0.3453 -0.3832 -0.9106
 6238TIP3    H142909   4.909   0.711   2.328  0.3872  0.1268 -0.8961
 6238TIP3    H242910   4.920   0.734   2.477  0.4568 -1.5707 -0.6225
 6239TIP3   OH242911   5.565   0.132   2.387 -0.3405  0.0003  0.4544
 6239TIP3    H142912   5.534   0.044   2.369  2.8907 -1.1627 -0.1906
 6239TIP3    H242913   5.627   0.122   2.459  0.0629  1.7388  0.3969
 6240TIP3   OH242914   5.097   2.933   4.959 -0.4746 -0.1395 -0.9140
 6240TIP3    H142915   5.189   2.911   4.978  0.8542  4.7750 -0.3948
 6240TIP3    H242916   5.052   2.918   5.043  0.6935  0.7947 -0.0783
 6241TIP3   OH242917   4.123   4.956   2.123 -0.5033  0.2632 -0.1449
 6241TIP3    H142918   4.135   4.863   2.141  1.6123  0.4072 -0.5752
 6241TIP3    H242919   4.081   4.959   2.037 -2.8588 -0.2754  0.9065
 6242TIP3   OH242920   0.737   0.800   4.516  0.2882 -0.5796 -0.1361
 6242TIP3    H142921   0.684   0.761   4.447  0.3032  0.8542 -0.9977
 6242TIP3    H242922   0.719   0.894   4.510  0.7487 -0.3589  1.4267
 6243TIP3   OH242923   5.627   4.721   3.995 -0.1246  0.3849 -0.1480
 6243TIP3    H142924   5.620   4.631   4.027  2.6123  0.5897  1.3354
 6243TIP3    H242925   5.619   4.713   3.900 -1.8804 -1.1266  0.0727
 6244TIP3   OH242926   6.505   4.358   2.906 -0.2944 -0.1175  0.0350
 6244TIP3    H142927   6.526   4.286   2.966  0.5264 -0.5768 -0.7916
 6244TIP3    H242928   6.464   4.316   2.831 -0.0246  0.3090 -0.3538
 6245TIP3   OH242929   3.286   2.940   2.170  0.0407 -0.1821 -0.0838
 6245TIP3    H142930   3.204   2.925   2.123  0.8047  0.7805 -1.8210
 6245TIP3    H242931   3.270   2.906   2.258 -1.4402 -2.1213 -1.0350
 6246TIP3   OH242932   1.862   0.448   3.349 -0.4421  0.3057 -0.4047
 6246TIP3    H142933   1.944   0.401   3.333 -0.5607 -0.2571  0.5141
 6246TIP3    H242934   1.801   0.414   3.284 -0.6358 -1.1505  0.4808
 6247TIP3   OH242935   1.453   1.216   3.539  0.0372  0.3541  0.1693
 6247TIP3    H142936   1.412   1.144   3.491  1.1084 -0.7500  0.8584
 6247TIP3    H242937   1.449   1.290   3.479 -0.7628 -0.3644 -0.6975
 6248TIP3   OH242938   5.775   1.954   5.563  0.3423 -0.4501 -0.1997
 6248TIP3    H142939   5.761   1.861   5.543 -1.1603 -0.7525  1.8925
 6248TIP3    H242940   5.706   1.975   5.626  0.2630  2.2830 -1.1030
 6249TIP3   OH242941   2.555   3.776   2.062 -0.6411 -0.0039 -0.0198
 6249TIP3    H142942   2.461   3.762   2.074 -0.6858  0.1877 -0.1481
 6249TIP3    H242943   2.593   3.687   2.061 -0.6082 -0.0475  1.7250
 6250TIP3   OH242944   2.536   4.569   3.002  0.5065  0.7438  0.0165
 6250TIP3    H142945   2.603   4.630   3.034  0.9141 -0.3106  1.2501
 6250TIP3    H242946   2.534   4.499   3.066 -2.3336  1.0811  0.4476
 6251TIP3   OH242947   4.952   4.573   2.016 -0.1315  0.4048 -0.1665
 6251TIP3    H142948   4.870   4.599   1.974  0.4440 -0.1580 -1.6874
 6251TIP3    H242949   4.934   4.486   2.052 -0.3644  0.5324  0.0329
 6252TIP3   OH242950   4.896   3.608   4.006  0.4287  0.3787  0.3566
 6252TIP3    H142951   4.827   3.546   3.981  0.8028 -0.9043  2.2739
 6252TIP3    H242952   4.925   3.578   4.092  2.0263  2.0722  0.4713
 6253TIP3   OH242953   1.253   4.028   3.750  0.0964 -0.4767 -0.0839
 6253TIP3    H142954   1.333   4.019   3.699 -0.9288  0.8261 -2.0175
 6253TIP3    H242955   1.275   4.091   3.818  0.3889  0.8865 -1.3972
 6254TIP3   OH242956   1.298   3.757   3.390  0.1586 -0.1303  0.4292
 6254TIP3    H142957   1.214   3.796   3.413  0.4844  1.6433 -1.2028
 6254TIP3    H242958   1.350   3.764   3.471 -0.4617  1.0232  0.7499
 6255TIP3   OH242959   2.264   5.108   2.874  0.0978  0.2775 -0.2045
 6255TIP3    H142960   2.169   5.103   2.865  0.0216 -0.6242  0.9161
 6255TIP3    H242961   2.290   5.178   2.815 -1.6180  2.8135  1.8372
 6256TIP3   OH242962   0.621   1.025   5.202 -0.1700 -0.1354 -0.0199
 6256TIP3    H142963   0.677   1.075   5.143 -1.5151 -2.3045 -3.4020
 6256TIP3    H242964   0.540   1.075   5.206  0.0832  0.2479  0.4016
 6257TIP3   OH242965   3.007   6.142   2.532  1.1324  0.5173 -0.1989
 6257TIP3    H142966   3.101   6.149   2.512  1.9175 -1.6262  2.2275
 6257TIP3    H242967   2.996   6.196   2.610  1.1723 -1.8980  1.5764
 6258TIP3   OH242968   3.883   2.016   3.872 -0.1816  0.6162  0.4359
 6258TIP3    H142969   3.835   1.970   3.941  0.0849 -0.3005  0.0279
 6258TIP3    H242970   3.841   2.102   3.867 -0.5705  0.4951  1.3498
 6259TIP3   OH242971   4.112   1.380   2.298  0.1402 -0.0769  0.2064
 6259TIP3    H142972   4.167   1.423   2.363  1.2335 -2.1232  0.7106
 6259TIP3    H242973   4.028   1.369   2.342  0.2186  0.4287  0.4987
 6260TIP3   OH242974   1.106   2.354   3.147  0.2534 -0.4539 -0.5620
 6260TIP3    H142975   1.089   2.298   3.071 -2.1199 -1.5417  0.6651
 6260TIP3    H242976   1.023   2.399   3.163  0.2688 -1.2254  2.1161
 6261TIP3   OH242977   0.441   0.192   3.590 -0.0141 -0.5167 -0.8281
 6261TIP3    H142978   0.471   0.102   3.602 -0.0321 -0.4889 -0.5647
 6261TIP3    H242979   0.406   0.217   3.676 -0.9077 -0.5936 -1.1536
 6262TIP3   OH242980   5.403   6.740   4.452  0.3077 -0.1904 -0.2069
 6262TIP3    H142981   5.420   6.828   4.420 -0.1172 -0.1774 -0.3983
 6262TIP3    H242982   5.308   6.734   4.458  0.3203  0.7422  3.5351
 6263TIP3   OH242983   2.196   0.368   3.855  0.5946  0.1594  0.4452
 6263TIP3    H142984   2.126   0.341   3.795 -0.0764  0.1346  1.2298
 6263TIP3    H242985   2.210   0.461   3.835  2.3165 -0.4674 -1.6653
 6264TIP3   OH242986   4.672   3.135   3.761  0.1168 -0.2517 -0.2526
 6264TIP3    H142987   4.699   3.049   3.729  0.3418 -0.3597  0.2139
 6264TIP3    H242988   4.729   3.152   3.836 -1.7094 -0.8931  1.3431
 6265TIP3   OH242989   1.130   1.946   4.595 -0.2226 -0.3175 -0.1847
 6265TIP3    H142990   1.048   1.988   4.571 -0.3739 -0.6130 -0.1851
 6265TIP3    H242991   1.126   1.939   4.691 -0.8707 -1.7025 -0.2962
 6266TIP3   OH242992   5.945   4.741   2.684 -0.4959  0.6718  0.0792
 6266TIP3    H142993   5.981   4.683   2.617 -0.7967  1.3208 -0.6518
 6266TIP3    H242994   5.888   4.801   2.637 -0.6433  1.2042  0.9032
 6267TIP3   OH242995   2.432   4.441   2.790  0.2003  0.1659  0.0231
 6267TIP3    H142996   2.338   4.424   2.791  0.2192 -0.0733 -0.9230
 6267TIP3    H242997   2.451   4.480   2.875 -0.6480 -0.3471  0.4589
 6268TIP3   OH242998   3.686   6.374   3.114 -0.8795  0.1134  0.1250
 6268TIP3    H142999   3.638   6.309   3.062 -1.0604  1.6116 -1.6698
 6268TIP3    H243000   3.766   6.389   3.065  0.0618 -0.1244  1.5410
 6269TIP3   OH243001   1.355   4.675   4.249 -0.5416 -0.3000 -0.3184
 6269TIP3    H143002   1.365   4.598   4.305  1.0191 -1.4612 -2.0305
 6269TIP3    H243003   1.440   4.718   4.252 -0.2758 -0.6220 -2.0282
 6270TIP3   OH243004   4.862   0.656   4.617  0.4436 -0.1542  1.2156
 6270TIP3    H143005   4.783   0.602   4.606  1.5022 -1.5537  0.1118
 6270TIP3    H243006   4.909   0.615   4.689 -0.0358  0.9766  2.2023
 6271TIP3   OH243007   4.138   6.384   3.171  0.4449  0.0138  0.2829
 6271TIP3    H143008   4.102   6.451   3.228  0.8254  1.6557 -1.3012
 6271TIP3    H243009   4.142   6.305   3.225 -0.7597  1.0563  1.9712
 6272TIP3   OH243010   6.472   4.959   4.805 -0.0432 -0.8525 -0.0376
 6272TIP3    H143011   6.511   4.874   4.826  1.2230 -0.3074 -0.0782
 6272TIP3    H243012   6.547   5.019   4.800 -0.8905  0.2185 -0.2465
 6273TIP3   OH243013   6.367   3.555   5.003  0.7374 -0.8949 -0.0928
 6273TIP3    H143014   6.305   3.483   5.018 -0.2137  0.4155  3.3321
 6273TIP3    H243015   6.452   3.517   5.025  0.1739 -0.9579  2.3249
 6274TIP3   OH243016   3.413   0.455   3.580  0.5322  0.5932  0.4666
 6274TIP3    H143017   3.391   0.518   3.648 -0.1112 -1.3509  2.1517
 6274TIP3    H243018   3.377   0.372   3.611  1.3945 -0.6511 -1.6280
 6275TIP3   OH243019   3.390   1.262   4.254  0.0721 -0.4442 -0.3285
 6275TIP3    H143020   3.460   1.327   4.261 -0.5804  0.5104 -2.0498
 6275TIP3    H243021   3.413   1.210   4.176 -0.3139 -1.1651  0.0261
 6276TIP3   OH243022   6.458   2.113   2.647 -0.1985 -0.1725  0.0670
 6276TIP3    H143023   6.369   2.142   2.668 -0.9031 -1.5617 -0.8278
 6276TIP3    H243024   6.446   2.025   2.611  1.5368 -0.3246 -0.1957
 6277TIP3   OH243025   3.881   6.757   3.150 -1.0704  0.3601 -0.5532
 6277TIP3    H143026   3.844   6.737   3.064  0.3862 -1.4906 -0.8103
 6277TIP3    H243027   3.967   6.793   3.130  0.3937 -2.5120  0.0738
 6278TIP3   OH243028   1.834   4.532   3.747  0.1601  0.4725 -0.2065
 6278TIP3    H143029   1.864   4.486   3.669 -1.7970  0.2586 -0.8936
 6278TIP3    H243030   1.812   4.462   3.809 -0.9017  0.5246 -0.5067
 6279TIP3   OH243031   6.722   2.054   5.156 -0.9050 -0.4545 -0.3590
 6279TIP3    H143032   6.631   2.036   5.177 -1.1574  0.5423 -0.5380
 6279TIP3    H243033   6.726   2.149   5.143  0.5380 -0.1949  1.4953
 6280TIP3   OH243034   4.006   6.690   2.205 -0.1919 -0.4283  0.1407
 6280TIP3    H143035   4.048   6.752   2.264  0.2165  0.2465 -0.8450
 6280TIP3    H243036   3.940   6.742   2.159  0.9032 -0.4114 -1.5042
 6281TIP3   OH243037   2.348   0.224   3.421  0.1969 -0.1641  0.1024
 6281TIP3    H143038   2.404   0.293   3.457  0.4106 -0.0195 -0.4959
 6281TIP3    H243039   2.368   0.223   3.327 -0.2912 -0.5896 -0.0034
 6282TIP3   OH243040   5.086   4.277   3.583  0.0702 -0.5425  0.0275
 6282TIP3    H143041   5.157   4.217   3.562  0.4234  0.5472 -2.2033
 6282TIP3    H243042   5.078   4.333   3.506 -0.5131  2.0258  1.8140
 6283TIP3   OH243043   3.432   0.322   2.874  0.1029 -0.1654  0.0921
 6283TIP3    H143044   3.509   0.345   2.822 -0.2018  0.4274 -0.0986
 6283TIP3    H243045   3.454   0.348   2.963  0.8250 -1.6435  0.3661
 6284TIP3   OH243046   3.142   0.569   3.785  0.1887 -0.3480 -0.1140
 6284TIP3    H143047   3.086   0.495   3.810  0.7152 -0.5474  0.4980
 6284TIP3    H243048   3.126   0.580   3.692 -3.3795  1.7250  0.5725
 6285TIP3   OH243049   3.625   2.928   3.775  0.0983  0.3868 -0.3284
 6285TIP3    H143050   3.587   2.964   3.694  0.2175  1.6303  0.1374
 6285TIP3    H243051   3.599   2.990   3.843  0.5554 -0.2909  0.4824
 6286TIP3   OH243052   3.527   2.399   3.307  0.4866 -0.2876  0.1386
 6286TIP3    H143053   3.466   2.395   3.234  0.8265 -0.5171 -0.1403
 6286TIP3    H243054   3.580   2.319   3.298  2.0016  0.7389 -0.6761
 6287TIP3   OH243055   5.287   0.787   3.907 -0.0168  0.4843 -0.0106
 6287TIP3    H143056   5.296   0.850   3.836 -0.3631  0.3411 -0.1884
 6287TIP3    H243057   5.375   0.752   3.921 -0.0549  0.0340 -0.8180
 6288TIP3   OH243058   1.072   0.219   3.183  0.2104  0.2202  0.4860
 6288TIP3    H143059   1.067   0.309   3.216 -0.6206 -0.0897  1.2401
 6288TIP3    H243060   1.013   0.169   3.240 -0.0825 -0.6251 -0.5262
 6289TIP3   OH243061   4.408   6.453   4.800 -0.1638  0.6201 -0.2757
 6289TIP3    H143062   4.482   6.395   4.817 -0.5682 -0.2516 -1.3676
 6289TIP3    H243063   4.446   6.527   4.752  0.2012  0.7935  0.2803
 6290TIP3   OH243064   4.353   6.749   5.936 -0.7207  0.0363 -0.0381
 6290TIP3    H143065   4.267   6.743   5.979 -0.8309  2.2427  0.1857
 6290TIP3    H243066   4.416   6.741   6.008 -0.7850 -0.2312 -0.0121
 6291TIP3   OH243067   5.314   0.887   5.113 -0.1640 -0.0203  0.2389
 6291TIP3    H143068   5.225   0.894   5.147  0.1281  0.3823  0.9506
 6291TIP3    H243069   5.330   0.793   5.105 -0.2246 -0.1384  1.3040
 6292TIP3   OH243070   4.389   0.429   4.596 -0.7349  0.3740 -0.3164
 6292TIP3    H143071   4.351   0.469   4.518  1.1917 -0.8920 -2.0118
 6292TIP3    H243072   4.338   0.349   4.610 -1.8473  1.1867  0.5165
 6293TIP3   OH243073   6.425   5.388   2.762  0.4376  0.6893  0.4042
 6293TIP3    H143074   6.404   5.335   2.685  0.9519  1.8259 -0.5559
 6293TIP3    H243075   6.498   5.343   2.803  0.4216  0.2858  0.0023
 6294TIP3   OH243076   0.111   2.164   2.554  1.1694  0.1854 -0.2460
 6294TIP3    H143077   0.025   2.126   2.537  0.5603  0.3377  2.1506
 6294TIP3    H243078   0.173   2.094   2.532  0.3902 -0.2402 -1.1411
 6295TIP3   OH243079   5.207   3.925   3.733 -0.1163  0.3322  0.6417
 6295TIP3    H143080   5.117   3.936   3.762 -0.2256 -2.1048  1.5287
 6295TIP3    H243081   5.242   3.856   3.791  1.3363 -0.9471 -1.6145
 6296TIP3   OH243082   2.561   0.475   4.031 -0.3567  0.5287 -0.0764
 6296TIP3    H143083   2.481   0.447   4.076  0.0975 -1.3419 -0.3442
 6296TIP3    H243084   2.538   0.559   3.991 -0.8677  2.2296  3.3799
 6297TIP3   OH243085   1.579   0.527   3.376 -0.0174  0.0021 -0.2400
 6297TIP3    H143086   1.625   0.487   3.450 -2.6811 -0.0244  1.5185
 6297TIP3    H243087   1.629   0.499   3.299 -0.1589 -4.5493  1.0539
 6298TIP3   OH243088   0.460   5.143   2.473  0.5198 -0.1571  0.2611
 6298TIP3    H143089   0.530   5.093   2.432 -1.7357 -1.4650 -2.3159
 6298TIP3    H243090   0.381   5.116   2.427 -1.8937  0.4818  3.6616
 6299TIP3   OH243091   1.847   5.609   4.648 -0.0551 -0.0150 -0.1289
 6299TIP3    H143092   1.908   5.645   4.583  0.1492 -0.6806 -0.3157
 6299TIP3    H243093   1.760   5.634   4.616 -0.0111 -1.1104 -1.1614
 6300TIP3   OH243094   6.170   6.272   5.017  0.2664  0.5986  0.5400
 6300TIP3    H143095   6.108   6.200   5.009  0.8438  0.2045 -0.5773
 6300TIP3    H243096   6.250   6.231   5.050  0.2055  0.9586  1.1496
 6301TIP3   OH243097   5.634   5.968   3.917 -0.4874  0.3080  0.2278
 6301TIP3    H143098   5.579   6.045   3.901 -0.0288  0.7112  0.5682
 6301TIP3    H243099   5.658   5.975   4.009 -0.8699 -0.5298  0.4036
 6302TIP3   OH243100   1.125   0.760   4.694  0.0101  0.5829 -0.5372
 6302TIP3    H143101   1.131   0.842   4.743 -0.5713  1.2955 -1.6229
 6302TIP3    H243102   1.191   0.769   4.624  1.1692 -0.6136  0.3493
 6303TIP3   OH243103   1.227   0.077   2.640  0.5454 -0.8312 -0.1583
 6303TIP3    H143104   1.159   0.127   2.596  0.7271 -0.1233  0.3398
 6303TIP3    H243105   1.255   0.133   2.713  1.8420 -0.9732 -0.5118
 6304TIP3   OH243106   2.222   6.323   3.263  0.2829  0.0199  0.2673
 6304TIP3    H143107   2.260   6.385   3.201  2.0635 -1.0394  0.2171
 6304TIP3    H243108   2.136   6.359   3.284  1.0804  2.2684 -0.0659
 6305TIP3   OH243109   6.750   0.100   3.054 -0.6601 -0.4964  0.1959
 6305TIP3    H143110   6.693   0.040   3.101 -0.4590 -0.1221  0.9345
 6305TIP3    H243111   6.804   0.044   2.998 -1.2508 -0.9059  0.0290
 6306TIP3   OH243112   3.228   5.221   2.856 -0.0522 -0.2234 -0.1618
 6306TIP3    H143113   3.209   5.283   2.786  0.3103  0.1243  0.0415
 6306TIP3    H243114   3.155   5.231   2.918 -0.7139 -0.9966 -0.7908
 6307TIP3   OH243115   2.098   5.412   2.255  0.2597  0.6008  0.2248
 6307TIP3    H143116   2.134   5.490   2.298 -0.2923  0.2924  1.2976
 6307TIP3    H243117   2.012   5.401   2.296 -0.1559  0.1072 -0.7665
 6308TIP3   OH243118   6.210   1.753   4.580  0.6257 -0.9757  0.3980
 6308TIP3    H143119   6.241   1.663   4.573  0.8347 -0.8787  0.0666
 6308TIP3    H243120   6.198   1.781   4.490  0.1481 -0.8116  0.5110
 6309TIP3   OH243121   2.953   1.107   2.960 -0.0785 -0.2511  0.2834
 6309TIP3    H143122   2.913   1.179   2.911  0.0180 -0.6634 -0.4134
 6309TIP3    H243123   2.891   1.034   2.950  0.7756 -0.8737 -0.7451
 6310TIP3   OH243124   1.448   3.298   2.101 -0.2561 -0.2776  0.2316
 6310TIP3    H143125   1.470   3.384   2.139 -0.2013  0.0702 -0.5763
 6310TIP3    H243126   1.486   3.235   2.162 -0.2716  0.2727  0.8217
 6311TIP3   OH243127   1.328   1.354   2.877  0.6126  0.2173  0.3706
 6311TIP3    H143128   1.309   1.342   2.970  0.1341 -1.0448  0.1312
 6311TIP3    H243129   1.320   1.448   2.863 -2.7699  0.1419  0.9228
 6312TIP3   OH243130   2.916   1.633   4.772 -0.4039 -0.2987  0.9930
 6312TIP3    H143131   2.905   1.727   4.790  1.3153 -0.4006  2.9599
 6312TIP3    H243132   2.913   1.627   4.676 -2.5937  1.4293  0.8430
 6313TIP3   OH243133   5.058   6.499   4.726 -0.2129  0.4281  0.4096
 6313TIP3    H143134   5.102   6.437   4.668 -0.9302  0.5385 -0.2745
 6313TIP3    H243135   5.111   6.578   4.721  1.8829 -0.6839  2.8641
 6314TIP3   OH243136   4.197   3.448   4.562 -0.5712 -0.8021  0.1422
 6314TIP3    H143137   4.269   3.453   4.498 -1.2551 -1.7609 -0.7373
 6314TIP3    H243138   4.136   3.385   4.524 -1.1859 -1.1065  1.5773
 6315TIP3   OH243139   0.082   6.835   4.709  0.6338  0.1548 -0.1465
 6315TIP3    H143140   0.038   6.883   4.638 -1.2659  0.2363  0.9984
 6315TIP3    H243141   0.080   6.744   4.682  0.6307  0.2711 -0.5445
 6316TIP3   OH243142   1.079   0.364   2.424  0.1134  0.1831  0.1253
 6316TIP3    H143143   1.072   0.269   2.410 -0.0195  0.4695 -2.1394
 6316TIP3    H243144   1.112   0.398   2.340 -0.6468  2.2255  0.6037
 6317TIP3   OH243145   4.052   6.240   2.488 -0.0115 -0.3524 -0.3923
 6317TIP3    H143146   4.137   6.282   2.502 -0.8170  1.1125  0.3859
 6317TIP3    H243147   4.063   6.191   2.407  1.0889  1.1971 -1.2524
 6318TIP3   OH243148   1.454   2.876   3.035 -0.1157 -0.1556 -0.6163
 6318TIP3    H143149   1.435   2.870   2.941  0.3146 -1.5746 -0.6274
 6318TIP3    H243150   1.375   2.916   3.072 -0.5199 -0.0972 -1.5003
 6319TIP3   OH243151   2.171   4.529   3.493  0.4971 -0.5340  0.1272
 6319TIP3    H143152   2.211   4.535   3.580  0.4415 -2.3037  0.3203
 6319TIP3    H243153   2.110   4.455   3.501 -0.0121 -0.2758 -1.2258
 6320TIP3   OH243154   5.553   3.200   4.401 -0.4035 -0.1055  0.3760
 6320TIP3    H143155   5.528   3.117   4.441 -1.7539  0.5170  0.8818
 6320TIP3    H243156   5.514   3.198   4.314  0.0529 -0.2353  0.1723
 6321TIP3   OH243157   1.840   5.994   1.771  0.6812  0.3538  0.2061
 6321TIP3    H143158   1.934   5.989   1.758  0.6511  0.8840 -0.2626
 6321TIP3    H243159   1.805   5.918   1.725  0.9028  0.0065  0.6146
 6322TIP3   OH243160   3.613   6.244   4.238  0.0851 -1.0441 -0.2177
 6322TIP3    H143161   3.611   6.149   4.238  1.4345 -1.0915 -0.5467
 6322TIP3    H243162   3.694   6.267   4.193  0.9961  0.2100  1.9065
 6323TIP3   OH243163   1.304   5.052   2.850  0.2582 -0.2132 -0.3241
 6323TIP3    H143164   1.354   5.027   2.772 -1.7882 -0.7913 -1.5212
 6323TIP3    H243165   1.302   5.148   2.847  2.8967 -0.0233  0.8758
 6324TIP3   OH243166   6.420   0.448   3.589  0.2073  0.2054  0.3810
 6324TIP3    H143167   6.328   0.464   3.609 -0.2039  0.0899 -1.2397
 6324TIP3    H243168   6.425   0.354   3.573  1.0439 -0.1339  2.3816
 6325TIP3   OH243169   3.063   1.596   4.364 -0.2412 -0.0864  0.0220
 6325TIP3    H143170   3.129   1.545   4.412  0.7785  1.4897  0.3802
 6325TIP3    H243171   3.082   1.578   4.271 -0.1198 -0.6341  0.1521
 6326TIP3   OH243172   6.543   4.219   4.011 -0.5145 -0.3952 -0.1408
 6326TIP3    H143173   6.472   4.263   4.058  0.2321  1.5196 -0.7175
 6326TIP3    H243174   6.498   4.154   3.957 -1.8500  0.6878 -0.4111
 6327TIP3   OH243175   5.174   1.813   4.981 -0.2623 -0.0514 -0.8931
 6327TIP3    H143176   5.253   1.768   4.952 -1.0229 -1.7991 -0.3885
 6327TIP3    H243177   5.203   1.864   5.057  0.5578  0.0472 -1.2569
 6328TIP3   OH243178   2.816   1.058   5.127 -0.7713  0.6034 -0.1499
 6328TIP3    H143179   2.772   1.042   5.211 -1.7077  0.2582 -0.6819
 6328TIP3    H243180   2.775   1.137   5.094  0.1048  1.1450  0.0378
 6329TIP3   OH243181   6.506   5.511   3.204 -0.4589  0.2352  0.5158
 6329TIP3    H143182   6.549   5.443   3.255 -0.8419 -0.2407  0.2101
 6329TIP3    H243183   6.574   5.545   3.147  0.0702  1.0271  1.5883
 6330TIP3   OH243184   4.936   4.052   3.207  0.1364 -0.3649 -0.2651
 6330TIP3    H143185   5.023   4.091   3.199  0.9232 -1.8899  0.6039
 6330TIP3    H243186   4.921   4.044   3.301 -1.0807  0.1506 -0.3991
 6331TIP3   OH243187   4.923   6.204   2.337 -0.7763 -0.0412  0.1581
 6331TIP3    H143188   4.924   6.189   2.432  1.1244 -1.2966  0.0099
 6331TIP3    H243189   4.910   6.117   2.299  0.4172  0.1208 -0.7117
 6332TIP3   OH243190   5.855   0.512   4.069  0.2893  0.3210 -0.5079
 6332TIP3    H143191   5.853   0.568   3.991 -0.2967 -0.6391 -1.2178
 6332TIP3    H243192   5.777   0.457   4.060  1.2078 -1.0679 -0.1876
 6333TIP3   OH243193   0.561   2.690   4.296  0.3230  0.1972 -0.3126
 6333TIP3    H143194   0.606   2.764   4.254 -0.4404  0.8202 -0.0744
 6333TIP3    H243195   0.630   2.642   4.341  0.9407  0.3579 -1.0631
 6334TIP3   OH243196   3.126   1.270   4.130 -0.2781 -0.0040  0.5467
 6334TIP3    H143197   3.212   1.280   4.170  0.1718 -1.8373  0.1456
 6334TIP3    H243198   3.067   1.255   4.204 -0.3335  1.5020  0.8429
 6335TIP3   OH243199   4.859   6.290   2.636 -0.1745 -0.4300 -0.4395
 6335TIP3    H143200   4.899   6.203   2.639 -2.6503 -1.6225  0.9367
 6335TIP3    H243201   4.850   6.316   2.728 -2.0093 -0.0017 -0.6916
 6336TIP3   OH243202   0.599   3.732   4.024  0.8341  0.0922 -0.4705
 6336TIP3    H143203   0.668   3.666   4.010  1.8295  0.6321  1.4082
 6336TIP3    H243204   0.554   3.702   4.103  0.3580  0.9058 -0.4212
 6337TIP3   OH243205   5.727   6.792   3.868  0.2102 -0.0792  0.0465
 6337TIP3    H143206   5.774   6.713   3.895 -0.4829 -0.1574  1.0957
 6337TIP3    H243207   5.635   6.766   3.865  0.1141  0.3155 -1.0668
 6338TIP3   OH243208   1.817   3.061   2.397  0.4900  0.5630 -0.1750
 6338TIP3    H143209   1.778   3.148   2.414 -0.1676  0.2034  0.2152
 6338TIP3    H243210   1.904   3.066   2.436  0.6813  1.2341 -0.6535
 6339TIP3   OH243211   2.783   1.214   3.353 -0.3119  0.3800 -0.0480
 6339TIP3    H143212   2.734   1.196   3.433  0.4453 -0.6690  0.2045
 6339TIP3    H243213   2.800   1.127   3.315  2.6084  0.5566  0.6500
 6340TIP3   OH243214   4.340   2.201   4.473 -0.1042 -0.3263 -0.3051
 6340TIP3    H143215   4.353   2.169   4.383  2.0936 -1.4226  0.3127
 6340TIP3    H243216   4.360   2.125   4.528 -1.1413  0.4060  1.1388
 6341TIP3   OH243217   4.413   5.892   2.066 -0.5231  0.0170  0.5546
 6341TIP3    H143218   4.411   5.988   2.072 -1.3474 -0.0021  0.6643
 6341TIP3    H243219   4.497   5.873   2.025 -0.8516  0.8550 -0.5660
 6342TIP3   OH243220   0.574   2.698   4.707 -0.1286  0.4126  0.1222
 6342TIP3    H143221   0.585   2.792   4.692 -1.2559  0.4355 -0.7056
 6342TIP3    H243222   0.663   2.665   4.718  0.2575  1.6467  0.8993
 6343TIP3   OH243223   5.566   5.618   3.947 -0.7241  0.0867  0.1908
 6343TIP3    H143224   5.496   5.671   3.984 -0.6082  1.8488 -1.8994
 6343TIP3    H243225   5.646   5.657   3.981 -0.6600  1.0495 -0.9591
 6344TIP3   OH243226   5.187   0.562   3.748  0.9201  0.2472 -0.7385
 6344TIP3    H143227   5.095   0.545   3.768  1.1186 -2.4639 -1.6980
 6344TIP3    H243228   5.209   0.640   3.799 -1.9939  1.2402 -0.8221
 6345TIP3   OH243229   2.730   5.703   2.857  0.4406 -0.0741 -0.5691
 6345TIP3    H143230   2.790   5.733   2.789 -0.6282 -0.7426 -1.8398
 6345TIP3    H243231   2.713   5.612   2.836  0.1711 -0.3330  0.6808
 6346TIP3   OH243232   5.033   3.687   4.483  0.1798 -0.4501 -0.4424
 6346TIP3    H143233   5.044   3.739   4.404 -0.1103  1.2055  0.5760
 6346TIP3    H243234   5.029   3.750   4.555  0.0751 -1.8773  0.8834
 6347TIP3   OH243235   3.391   6.638   2.456 -0.5371  0.0625  0.4680
 6347TIP3    H143236   3.466   6.666   2.508 -0.0073 -1.9568  0.8818
 6347TIP3    H243237   3.348   6.720   2.430 -0.0877  1.1820  2.9650
 6348TIP3   OH243238   4.923   6.425   3.653 -0.3447 -0.1799  0.5266
 6348TIP3    H143239   4.903   6.359   3.720 -2.1386  1.3764  1.6400
 6348TIP3    H243240   4.838   6.445   3.613  0.2713  0.9382 -0.2711
 6349TIP3   OH243241   1.469   6.181   2.296  0.0318 -0.2783 -0.1040
 6349TIP3    H143242   1.477   6.089   2.321 -0.0239 -0.2364  0.0721
 6349TIP3    H243243   1.376   6.192   2.277 -0.1363 -0.0336  0.7868
 6350TIP3   OH243244   1.260   6.080   3.621  1.0102  0.6378 -0.3594
 6350TIP3    H143245   1.219   6.167   3.625 -1.0870 -0.2733 -0.5049
 6350TIP3    H243246   1.279   6.058   3.712  3.0282  1.8390 -0.4279
 6351TIP3   OH243247   3.018   1.926   4.493  0.0093 -0.4039  0.0984
 6351TIP3    H143248   3.043   1.956   4.580 -2.5056  1.1179  0.4263
 6351TIP3    H243249   2.966   1.847   4.509 -0.3166 -0.2152 -0.0006
 6352TIP3   OH243250   4.179   3.097   4.149  0.4165  0.5651  0.0340
 6352TIP3    H143251   4.136   3.123   4.067 -0.1654 -0.1153  0.1195
 6352TIP3    H243252   4.196   3.003   4.138  1.4459  0.7210  0.2010
 6353TIP3   OH243253   4.509   0.052   2.096 -0.4172 -0.2022  0.0372
 6353TIP3    H143254   4.428   0.003   2.113 -0.3438  0.2141  1.7329
 6353TIP3    H243255   4.481   0.143   2.090 -0.2635 -0.2102 -0.9277
 6354TIP3   OH243256   6.239   1.526   4.352  0.0041 -0.2455 -0.4299
 6354TIP3    H143257   6.145   1.510   4.340 -0.0190  0.2892 -1.0204
 6354TIP3    H243258   6.282   1.459   4.299 -0.0842  0.9714 -2.1325
 6355TIP3   OH243259   4.328   4.272   3.519 -0.1985  0.6078  0.2753
 6355TIP3    H143260   4.277   4.315   3.588  1.6419  0.6916  1.6484
 6355TIP3    H243261   4.397   4.334   3.497  0.5958 -0.3388  0.0185
 6356TIP3   OH243262   2.878   2.245   2.683  0.1510 -0.2248 -0.1074
 6356TIP3    H143263   2.962   2.259   2.641  1.4407  0.8865  2.5641
 6356TIP3    H243264   2.818   2.304   2.637  1.5057  1.0281 -0.3503
 6357TIP3   OH243265   0.923   5.622   3.457 -0.4733  0.2642  0.3200
 6357TIP3    H143266   0.957   5.549   3.404  0.6360  1.4757 -0.6903
 6357TIP3    H243267   0.992   5.638   3.522 -1.5916 -0.8572  1.8768
 6358TIP3   OH243268   6.736   0.918   2.906 -0.2946 -0.2244 -0.1412
 6358TIP3    H143269   6.643   0.936   2.894  0.3295  1.6323 -3.4215
 6358TIP3    H243270   6.770   0.996   2.949 -0.0372 -0.3495 -0.1159
 6359TIP3   OH243271   6.625   1.167   5.515 -0.1039 -0.3573  0.6291
 6359TIP3    H143272   6.683   1.228   5.560  0.1656  0.7401 -1.0990
 6359TIP3    H243273   6.681   1.125   5.449 -1.0235  0.0299 -0.4349
 6360TIP3   OH243274   4.996   3.562   2.633  0.0939  0.2727 -0.4577
 6360TIP3    H143275   4.902   3.541   2.637  0.2250 -0.3312 -0.3491
 6360TIP3    H243276   5.005   3.618   2.556 -0.3509  0.3042 -0.4924
 6361TIP3   OH243277   1.416   4.877   3.029  0.0670 -0.0763 -0.4591
 6361TIP3    H143278   1.355   4.827   3.083 -2.0245  2.3253 -0.4373
 6361TIP3    H243279   1.364   4.948   2.992  3.1680  3.2541  0.9942
 6362TIP3   OH243280   4.099   5.541   4.864  0.2035  0.2175 -0.3399
 6362TIP3    H143281   4.008   5.561   4.842  0.5058 -0.3149 -2.2238
 6362TIP3    H243282   4.098   5.528   4.959 -1.5571  0.8328 -0.2386
 6363TIP3   OH243283   0.562   1.625   5.469 -0.0741  0.2353  0.0733
 6363TIP3    H143284   0.557   1.531   5.454 -0.8912 -0.3446  3.2571
 6363TIP3    H243285   0.480   1.660   5.435 -0.0842 -0.2884 -0.4606
 6364TIP3   OH243286   3.641   2.226   2.927 -0.1891  0.2825 -0.0144
 6364TIP3    H143287   3.672   2.231   2.836 -2.0399 -0.2392 -0.7381
 6364TIP3    H243288   3.587   2.305   2.937 -0.3211  0.1281  0.4895
 6365TIP3   OH243289   4.604   6.208   5.132  0.0933  0.3956 -0.3089
 6365TIP3    H143290   4.528   6.237   5.182  1.2099  2.6245  0.2390
 6365TIP3    H243291   4.620   6.278   5.069  1.6179 -0.0657 -0.4954
 6366TIP3   OH243292   5.624   1.284   2.941 -0.7171  0.4188  0.3345
 6366TIP3    H143293   5.652   1.308   3.029 -0.2070  2.7879 -0.4134
 6366TIP3    H243294   5.595   1.193   2.949  1.4897 -0.2030  2.4479
 6367TIP3   OH243295   3.619   2.466   4.537 -0.1724 -0.3859  0.3057
 6367TIP3    H143296   3.708   2.468   4.503  0.3834  0.5135  1.6688
 6367TIP3    H243297   3.625   2.413   4.617 -0.4031  1.2016  1.4349
 6368TIP3   OH243298   6.170   4.311   2.730  0.0427  0.1668  0.1846
 6368TIP3    H143299   6.246   4.252   2.727  0.5407  0.6903  1.6562
 6368TIP3    H243300   6.098   4.255   2.760 -0.1208 -0.2705 -0.9605
 6369TIP3   OH243301   0.681   1.872   2.718  0.1147  0.0034  0.2434
 6369TIP3    H143302   0.753   1.891   2.778  0.1175  3.5554 -0.6965
 6369TIP3    H243303   0.603   1.901   2.765  0.0278  2.0215 -1.0506
 6370TIP3   OH243304   2.419   3.290   3.157  0.1473  0.2033 -0.6908
 6370TIP3    H143305   2.502   3.285   3.204  0.2712 -2.3093 -1.0479
 6370TIP3    H243306   2.353   3.278   3.225  0.1941 -0.1004 -0.6947
 6371TIP3   OH243307   2.794   2.676   3.724  0.3046 -0.2736 -0.1278
 6371TIP3    H143308   2.796   2.596   3.777  0.3859 -0.4470 -0.3895
 6371TIP3    H243309   2.712   2.672   3.676 -0.6471  0.7877  1.3514
 6372TIP3   OH243310   4.349   6.797   5.222 -0.1284  0.3463 -0.0652
 6372TIP3    H143311   4.339   6.744   5.143  0.9293  0.6344 -0.4138
 6372TIP3    H243312   4.370   6.734   5.291 -1.6785  0.0205  0.1521
 6373TIP3   OH243313   4.570   1.917   2.340 -0.3119 -0.1180 -0.3047
 6373TIP3    H143314   4.505   1.848   2.337  0.0662 -0.4721 -0.4200
 6373TIP3    H243315   4.591   1.927   2.433 -0.8973  0.3484 -0.2163
 6374TIP3   OH243316   0.100   1.029   3.967  0.1284 -0.1750 -0.2658
 6374TIP3    H143317   0.063   1.100   4.019  0.1076 -1.3810  1.4381
 6374TIP3    H243318   0.059   0.950   4.001  0.0393 -1.0154 -2.2266
 6375TIP3   OH243319   3.208   1.749   3.908  0.2687 -0.2812 -0.2241
 6375TIP3    H143320   3.238   1.814   3.845  1.0433 -0.9958 -0.6060
 6375TIP3    H243321   3.136   1.792   3.954 -0.9417 -0.0585 -2.2024
 6376TIP3   OH243322   4.695   5.246   4.176  0.0780 -0.3307 -0.6415
 6376TIP3    H143323   4.643   5.195   4.114 -0.4535 -0.7455  0.1234
 6376TIP3    H243324   4.717   5.184   4.246  1.4072 -0.1036 -0.8177
 6377TIP3   OH243325   1.971   2.059   3.626 -0.2890  0.1941 -0.2620
 6377TIP3    H143326   2.023   2.127   3.670  0.0591  0.5582 -1.2187
 6377TIP3    H243327   1.968   1.987   3.690 -1.0850  1.2737  0.9639
 6378TIP3   OH243328   2.332   2.892   3.746  0.3323 -0.3960  0.0036
 6378TIP3    H143329   2.428   2.886   3.749  0.3577  0.0546  0.0782
 6378TIP3    H243330   2.308   2.935   3.828  0.1968  1.1837 -0.8396
 6379TIP3   OH243331   3.552   0.189   4.194 -0.1137  0.2027 -0.2504
 6379TIP3    H143332   3.587   0.104   4.222 -1.0252 -0.2863 -0.5259
 6379TIP3    H243333   3.510   0.170   4.110 -1.7752  0.5694  0.4689
 6380TIP3   OH243334   0.727   6.674   2.318  0.1964  0.2064 -0.8270
 6380TIP3    H143335   0.637   6.677   2.348  1.0276 -0.4761  2.0894
 6380TIP3    H243336   0.779   6.667   2.399  2.8061 -0.3716 -2.4277
 6381TIP3   OH243337   4.552   2.357   4.402 -0.3777  0.0766 -0.0672
 6381TIP3    H143338   4.496   2.289   4.439  2.1154 -2.1305 -0.0161
 6381TIP3    H243339   4.593   2.399   4.479 -0.1158 -0.0143 -0.1558
 6382TIP3   OH243340   2.263   0.848   2.027  0.3998 -0.0790  0.1477
 6382TIP3    H143341   2.315   0.768   2.034 -0.4585 -0.6713 -0.1365
 6382TIP3    H243342   2.174   0.820   2.045  0.2386  1.0308  1.2391
 6383TIP3   OH243343   4.849   0.818   5.025 -0.6589  0.0177  0.4879
 6383TIP3    H143344   4.922   0.810   5.086  0.5133 -0.0260 -0.8509
 6383TIP3    H243345   4.782   0.759   5.059  0.6846 -1.4394  0.7425
 6384TIP3   OH243346   0.254   2.925   3.073  0.1210 -0.2784 -0.1319
 6384TIP3    H143347   0.216   2.837   3.062  0.3353 -0.1496 -2.3606
 6384TIP3    H243348   0.208   2.979   3.010  0.5428  1.0528  0.6674
 6385TIP3   OH243349   5.045   1.348   4.543 -0.3032  0.4925 -0.4645
 6385TIP3    H143350   5.089   1.333   4.627  1.4642  1.5206 -1.1524
 6385TIP3    H243351   5.044   1.443   4.534  1.2515  0.3618 -2.4512
 6386TIP3   OH243352   1.524   0.425   4.034 -0.4437 -0.0216  0.1755
 6386TIP3    H143353   1.573   0.349   4.003  0.0490 -0.4504  1.8710
 6386TIP3    H243354   1.476   0.392   4.111 -1.2202  1.0783  0.1763
 6387TIP3   OH243355   5.784   1.338   2.396 -0.1390  0.7066  0.4674
 6387TIP3    H143356   5.873   1.305   2.386  0.0164  0.2625  2.8318
 6387TIP3    H243357   5.735   1.264   2.434 -0.9778  1.6168  1.2049
 6388TIP3   OH243358   3.343   5.201   5.134  0.9476 -0.2973  0.6575
 6388TIP3    H143359   3.296   5.231   5.056 -0.5879 -1.2188  1.1867
 6388TIP3    H243360   3.331   5.106   5.134  1.9813 -0.4420  1.3673
 6389TIP3   OH243361   6.568   2.080   3.101  0.3612 -0.9977 -0.4397
 6389TIP3    H143362   6.659   2.052   3.100  0.6630 -0.1067 -2.2704
 6389TIP3    H243363   6.557   2.130   3.020 -1.5842 -0.5291  0.0505
 6390TIP3   OH243364   3.796   6.539   4.315 -0.3967  0.5149 -0.5719
 6390TIP3    H143365   3.707   6.514   4.341 -1.2085  0.9573 -2.6997
 6390TIP3    H243366   3.812   6.622   4.360 -0.5306 -0.1732  0.8088
 6391TIP3   OH243367   6.263   0.696   4.782  0.8175 -0.5541  0.6061
 6391TIP3    H143368   6.188   0.692   4.724  1.2580  1.0570 -0.1357
 6391TIP3    H243369   6.296   0.785   4.773  2.0571 -0.8383  1.8796
 6392TIP3   OH243370   3.952   4.848   2.444  0.0111  0.0878 -0.5154
 6392TIP3    H143371   3.968   4.900   2.522  2.2538 -0.4794 -0.5288
 6392TIP3    H243372   3.904   4.906   2.385 -1.9349  0.4607  1.2993
 6393TIP3   OH243373   5.089   6.145   2.621 -0.0953  0.5179 -0.0759
 6393TIP3    H143374   5.132   6.154   2.706  1.3283  0.4769 -0.7617
 6393TIP3    H243375   5.130   6.068   2.581 -1.8930 -0.4484 -0.1575
 6394TIP3   OH243376   4.017   1.746   3.920  0.4396 -0.0668  0.7567
 6394TIP3    H143377   3.964   1.730   3.841  1.6009 -0.9579  0.1155
 6394TIP3    H243378   3.962   1.715   3.992 -1.6039  2.8451  0.6413
 6395TIP3   OH243379   2.144   1.317   4.484  0.4034 -0.4840  0.1894
 6395TIP3    H143380   2.200   1.261   4.537  0.3245 -0.7893 -0.0451
 6395TIP3    H243381   2.055   1.297   4.513  0.4615  1.0602  1.5996
 6396TIP3   OH243382   3.557   5.470  12.007  0.7039 -0.0729  0.4193
 6396TIP3    H143383   3.475   5.422  12.012 -1.9697  4.0686  1.0630
 6396TIP3    H243384   3.542   5.538  11.942  2.8914  1.9812  1.8731
 6397TIP3   OH243385   0.484   0.798   2.183  0.2856  0.5715  0.3316
 6397TIP3    H143386   0.486   0.764   2.094 -0.7800  0.2827  0.3992
 6397TIP3    H243387   0.498   0.722   2.238  0.1664  0.6190  0.4284
 6398TIP3   OH243388   6.745   4.063   4.110  0.2501  0.1445 -0.4321
 6398TIP3    H143389   6.672   4.113   4.074 -0.2596  0.8745  1.4721
 6398TIP3    H243390   6.819   4.123   4.109 -0.0598  0.5840  0.7320
 6399TIP3   OH243391   3.274   5.471   3.450 -0.3710  0.1294 -0.3404
 6399TIP3    H143392   3.239   5.411   3.384  1.6125 -2.2660  0.6394
 6399TIP3    H243393   3.204   5.478   3.515 -1.0840 -0.1225 -1.0534
 6400TIP3   OH243394   4.108   6.594   3.970 -0.4809 -0.4888  0.4012
 6400TIP3    H143395   4.115   6.503   3.940 -0.2212 -0.7517  1.2326
 6400TIP3    H243396   4.194   6.632   3.952 -0.2849 -0.6821  0.9013
 6401TIP3   OH243397   5.739   0.148   4.256 -0.1643 -0.2183  0.4247
 6401TIP3    H143398   5.684   0.164   4.179 -0.5942 -0.5026  0.6664
 6401TIP3    H243399   5.757   0.235   4.291  1.3121  0.0311 -0.8556
 6402TIP3   OH243400   1.168   3.939   2.860  0.3354 -0.4351 -0.2745
 6402TIP3    H143401   1.111   3.867   2.834 -1.4938  0.8259  0.1031
 6402TIP3    H243402   1.217   3.960   2.780 -2.4842  0.8976 -1.8164
 6403TIP3   OH243403   5.462   6.737   3.866  0.3546  0.1502 -0.7572
 6403TIP3    H143404   5.475   6.647   3.897  0.1825  0.3139 -0.1905
 6403TIP3    H243405   5.381   6.733   3.815 -0.1760  0.1671  0.0673
 6404TIP3   OH243406   4.371   4.527   3.349 -0.0491  0.8185 -0.7337
 6404TIP3    H143407   4.310   4.509   3.277  0.5758  2.1330 -1.6426
 6404TIP3    H243408   4.444   4.571   3.306  1.3435 -0.3071  0.4014
 6405TIP3   OH243409   0.413   1.504   3.902 -0.0326 -0.0710 -0.1438
 6405TIP3    H143410   0.396   1.598   3.913  1.9668  0.7190 -2.7140
 6405TIP3    H243411   0.507   1.499   3.883  0.4584 -2.9113  2.3328
 6406TIP3   OH243412   5.537   2.336   2.766 -0.3477  0.2131  0.7297
 6406TIP3    H143413   5.616   2.383   2.793  0.7608 -0.6849 -0.8436
 6406TIP3    H243414   5.537   2.341   2.670  0.3597 -3.7214  0.3492
 6407TIP3   OH243415   1.253   4.618   1.888 -0.1271  0.1093  0.1639
 6407TIP3    H143416   1.198   4.638   1.963 -0.7434  0.6931 -0.4288
 6407TIP3    H243417   1.204   4.553   1.839 -0.2192  0.5149 -0.2864
 6408TIP3   OH243418   2.526   1.589   4.745  0.3592  0.3015  0.1080
 6408TIP3    H143419   2.559   1.499   4.738  4.8711  1.7571 -0.4104
 6408TIP3    H243420   2.532   1.623   4.655 -0.0357  1.5096  0.5230
 6409TIP3   OH243421   4.253   4.603   2.228 -0.0877  0.4770 -0.3180
 6409TIP3    H143422   4.294   4.663   2.291  0.7941 -0.5258  0.0990
 6409TIP3    H243423   4.252   4.519   2.274 -0.3854 -0.0466 -1.2732
 6410TIP3   OH243424   6.436   2.436   2.609  0.1888 -0.2075 -0.4835
 6410TIP3    H143425   6.510   2.464   2.663 -0.0422 -0.0936 -0.2249
 6410TIP3    H243426   6.416   2.348   2.641 -1.0131  0.4853  0.7649
 6411TIP3   OH243427   6.589   2.423   3.919  0.3597 -0.6331  0.8188
 6411TIP3    H143428   6.632   2.343   3.890  0.0124 -1.3617  2.2115
 6411TIP3    H243429   6.496   2.400   3.924 -0.2570  0.8451 -1.9138
 6412TIP3   OH243430   3.779   0.423   1.772 -0.4646 -0.0520 -0.7911
 6412TIP3    H143431   3.782   0.474   1.853 -1.3399  0.7796 -1.2546
 6412TIP3    H243432   3.692   0.384   1.772 -0.5721  0.1758 -1.4446
 6413TIP3   OH243433   0.241   1.547   2.168  0.1350  0.4239  0.0775
 6413TIP3    H143434   0.171   1.578   2.111 -0.4010  1.3748  1.2194
 6413TIP3    H243435   0.221   1.455   2.184 -2.0399  1.1215  1.9707
 6414TIP3   OH243436   1.622   1.307   3.060  0.0526 -0.6533  0.1024
 6414TIP3    H143437   1.684   1.237   3.040 -1.1481 -1.5265 -0.6870
 6414TIP3    H243438   1.586   1.332   2.975  0.9215  1.4067  0.2746
 6415TIP3   OH243439   5.863   0.690   5.114  0.5168  0.0895  0.3944
 6415TIP3    H143440   5.905   0.775   5.119  0.0811  0.4233 -0.9604
 6415TIP3    H243441   5.827   0.675   5.201  1.1543  0.9902  0.8266
 6416TIP3   OH243442   2.700   1.746   4.299  0.1666 -0.4380  0.2562
 6416TIP3    H143443   2.748   1.678   4.253 -0.7696 -1.3235  0.5646
 6416TIP3    H243444   2.632   1.773   4.237 -0.8924 -1.4051  0.9526
 6417TIP3   OH243445   5.942   4.940   2.245  0.7549  0.2882 -0.4502
 6417TIP3    H143446   5.863   4.950   2.298  0.5620  1.3951 -0.9311
 6417TIP3    H243447   6.012   4.928   2.310  0.2576 -0.2807 -0.0123
 6418TIP3   OH243448   0.357   1.761   3.907 -0.6671 -0.1026 -0.1390
 6418TIP3    H143449   0.272   1.804   3.915 -0.4685  0.0291  1.4439
 6418TIP3    H243450   0.420   1.833   3.905 -0.5150 -0.2386 -0.3565
 6419TIP3   OH243451   5.616   4.907   2.266 -0.6097 -0.2761  0.5034
 6419TIP3    H143452   5.688   4.886   2.206 -0.3256  0.0052  0.7426
 6419TIP3    H243453   5.540   4.860   2.230 -0.3740 -0.3460  0.0912
 6420TIP3   OH243454   4.152   4.400   2.652 -0.2757  0.7492 -0.7107
 6420TIP3    H143455   4.147   4.314   2.692 -0.6880  0.7927 -0.6644
 6420TIP3    H243456   4.061   4.426   2.639 -0.1755  1.5288  0.0222
 6421TIP3   OH243457   0.915   3.463   4.320 -0.1591  0.1844 -0.0449
 6421TIP3    H143458   0.870   3.416   4.391  1.8475 -0.7495  0.6853
 6421TIP3    H243459   0.973   3.524   4.365  0.2869  0.4170 -0.9194
 6422TIP3   OH243460   4.955   2.599   3.332  0.1933 -0.2227 -0.1986
 6422TIP3    H143461   5.033   2.595   3.387  0.0921 -0.9687 -0.0958
 6422TIP3    H243462   4.981   2.652   3.257  0.6252  0.0034  0.1055
 6423TIP3   OH243463   2.023   3.625   3.868  0.2964  0.4038  0.3672
 6423TIP3    H143464   1.948   3.649   3.923 -0.0773  1.5544 -0.6006
 6423TIP3    H243465   1.991   3.638   3.778  1.4506  0.2762 -0.0719
 6424TIP3   OH243466   1.012   0.328   2.785  0.4767 -0.1608  0.3293
 6424TIP3    H143467   1.001   0.340   2.691 -0.2555 -1.6415  0.1913
 6424TIP3    H243468   1.015   0.417   2.821 -2.9272  0.5124 -0.6932
 6425TIP3   OH243469   5.306   0.906   3.682  0.3380  0.6415 -0.2742
 6425TIP3    H143470   5.263   0.898   3.597 -1.0360  1.0913  0.3531
 6425TIP3    H243471   5.392   0.943   3.662  0.1004  0.5808 -1.4777
 6426TIP3   OH243472   1.274   3.936   2.301  0.1460  0.2244  0.0779
 6426TIP3    H143473   1.211   4.007   2.308 -0.8560 -0.6947  0.6234
 6426TIP3    H243474   1.359   3.978   2.318 -0.5204  1.1203  1.3959
 6427TIP3   OH243475   5.275   6.360   2.324  0.4852 -0.7656 -0.7134
 6427TIP3    H143476   5.267   6.412   2.404 -1.2707 -2.2920  0.1680
 6427TIP3    H243477   5.218   6.403   2.261  2.1229  0.6340 -1.3356
 6428TIP3   OH243478   6.674   3.641   2.251  0.5373 -0.0192 -0.1941
 6428TIP3    H143479   6.717   3.710   2.301 -0.7717  0.1350  0.7830
 6428TIP3    H243480   6.646   3.685   2.171 -0.1247  0.5677  0.3388
 6429TIP3   OH243481   2.133   6.437   5.086  0.9004 -0.7924 -0.0194
 6429TIP3    H143482   2.061   6.409   5.142  0.1354 -1.1081 -1.1128
 6429TIP3    H243483   2.212   6.401   5.127  0.4154 -0.6825  1.0440
 6430TIP3   OH243484   2.454   2.517   3.950 -0.0522 -0.3354  0.6639
 6430TIP3    H143485   2.452   2.467   4.031  1.1975  0.8617  1.4809
 6430TIP3    H243486   2.457   2.608   3.978 -1.3881  0.1952 -0.7767
 6431TIP3   OH243487   1.974   5.169   2.036 -0.0076 -0.7643  0.4888
 6431TIP3    H143488   2.015   5.216   2.109 -0.3525  0.2790  0.0200
 6431TIP3    H243489   1.923   5.100   2.079  0.1503 -0.4440  1.2091
 6432TIP3   OH243490   0.816   0.911   2.231 -0.5028  0.3539 -0.1133
 6432TIP3    H143491   0.795   0.836   2.287 -0.4857 -0.1734 -0.7885
 6432TIP3    H243492   0.736   0.963   2.229 -0.4732  0.4263  0.4662
 6433TIP3   OH243493   0.804   6.038   2.512  0.0046  0.4264  0.0148
 6433TIP3    H143494   0.719   5.997   2.531  0.1150  0.4402  0.5588
 6433TIP3    H243495   0.833   6.072   2.596  0.6386  0.2651 -0.1358
 6434TIP3   OH243496   6.435   2.031   5.198  0.1118  0.1328 -0.0663
 6434TIP3    H143497   6.356   2.074   5.230 -0.1055 -0.6176  0.4358
 6434TIP3    H243498   6.408   1.987   5.117  0.5834  1.7594 -1.1507
 6435TIP3   OH243499   3.037   1.611   2.464  0.4108 -0.2939 -0.5389
 6435TIP3    H143500   3.037   1.613   2.368 -0.6508  1.7119 -0.5511
 6435TIP3    H243501   2.949   1.640   2.488  0.5183 -1.2142  1.0607
 6436TIP3   OH243502   1.808   5.331   2.387 -0.8804  0.0809 -0.4830
 6436TIP3    H143503   1.759   5.379   2.320 -1.7748  0.5667  0.5033
 6436TIP3    H243504   1.774   5.363   2.470  1.3291  0.6535  0.2588
 6437TIP3   OH243505   0.167   4.332   4.408 -0.0704  0.1166 -0.1475
 6437TIP3    H143506   0.229   4.398   4.378  0.2269 -0.5862 -1.1297
 6437TIP3    H243507   0.081   4.372   4.393  0.1128  0.4634 -0.2821
 6438TIP3   OH243508   3.584   4.369   5.326 -0.6683 -0.1358  0.8252
 6438TIP3    H143509   3.574   4.313   5.402 -1.6615 -0.1623  0.6852
 6438TIP3    H243510   3.535   4.449   5.347  1.4851  1.1132  1.4093
 6439TIP3   OH243511   6.706   3.702   3.476 -0.0138  0.1046 -0.3870
 6439TIP3    H143512   6.673   3.624   3.431 -3.8564  1.6759 -0.6598
 6439TIP3    H243513   6.675   3.692   3.566  1.3401  0.3458  0.1150
 6440TIP3   OH243514   2.901   2.500   2.316 -0.7031 -0.2588 -0.0425
 6440TIP3    H143515   2.995   2.489   2.300 -0.7369  1.0012 -1.2062
 6440TIP3    H243516   2.859   2.455   2.243 -1.0213 -0.7289  0.4201
 6441TIP3   OH243517   1.229   0.862   5.003 -0.4844  0.0198  0.3312
 6441TIP3    H143518   1.155   0.842   5.060 -0.7431 -0.1121 -0.0450
 6441TIP3    H243519   1.305   0.861   5.061 -0.5402 -1.6520  0.4248
 6442TIP3   OH243520   3.213   5.649   4.239  0.0671 -0.1283 -0.0649
 6442TIP3    H143521   3.203   5.617   4.328 -0.5867  0.1009 -0.0563
 6442TIP3    H243522   3.246   5.738   4.248  1.8666 -0.7406 -0.0889
 6443TIP3   OH243523   6.663   0.658   2.165  0.9272  0.4626  0.0338
 6443TIP3    H143524   6.667   0.653   2.261 -2.1028 -1.1552  0.2154
 6443TIP3    H243525   6.686   0.569   2.136 -1.2261  0.0026 -0.4531
 6444TIP3   OH243526   5.949   3.611   2.641 -0.5962 -0.5930  0.0026
 6444TIP3    H143527   5.969   3.606   2.734  0.0578  0.0240 -0.0898
 6444TIP3    H243528   5.855   3.628   2.637 -0.9272 -2.1696  0.4976
 6445TIP3   OH243529   0.025   0.736   2.775  0.2485  0.1436  0.1180
 6445TIP3    H143530   0.104   0.775   2.739 -0.2139  0.6583 -0.3468
 6445TIP3    H243531  -0.024   0.809   2.813 -0.1920 -0.1144  0.0565
 6446TIP3   OH243532   5.784   6.009   4.775 -0.3939 -0.1577  0.3235
 6446TIP3    H143533   5.728   5.964   4.838  0.7580 -1.8760  0.1748
 6446TIP3    H243534   5.872   6.000   4.810  0.1964 -0.5908 -1.2011
 6447TIP3   OH243535   2.761   2.476   2.552 -0.2342 -0.0027 -0.2026
 6447TIP3    H143536   2.793   2.474   2.462  0.2886 -2.0982 -0.0412
 6447TIP3    H243537   2.669   2.451   2.545 -0.2182 -0.0708 -0.1765
 6448TIP3   OH243538   4.765   2.124   3.756  0.2027 -0.0136 -0.2181
 6448TIP3    H143539   4.837   2.180   3.725 -0.8794  1.0263 -0.9272
 6448TIP3    H243540   4.696   2.185   3.781 -0.7557 -1.0182 -0.3246
 6449TIP3   OH243541   1.622   4.508   3.235 -0.5773 -0.3816 -0.7182
 6449TIP3    H143542   1.613   4.432   3.293 -2.3921 -0.3126 -0.8612
 6449TIP3    H243543   1.666   4.574   3.289 -0.5006 -0.9701 -0.0480
 6450TIP3   OH243544   4.474   1.024   5.782  0.3375 -0.4991  0.8582
 6450TIP3    H143545   4.513   1.007   5.867  0.0318  1.3538  1.4024
 6450TIP3    H243546   4.388   0.980   5.786  0.0933  0.0399  1.7231
 6451TIP3   OH243547   3.537   6.309   2.454 -0.7564 -0.7972  0.1515
 6451TIP3    H143548   3.500   6.369   2.519  1.6099 -0.5854  1.4073
 6451TIP3    H243549   3.630   6.301   2.478  0.1244 -1.0957 -2.9357
 6452TIP3   OH243550   4.297   6.061   4.596  0.5582  0.2505  0.1023
 6452TIP3    H143551   4.329   6.073   4.685 -1.7731 -1.6520  1.3279
 6452TIP3    H243552   4.330   5.975   4.569 -0.1960  0.0199 -0.1310
 6453TIP3   OH243553   1.486   0.554   4.448  0.0275  0.3292 -0.2287
 6453TIP3    H143554   1.546   0.528   4.518  1.0826 -0.2768 -1.3297
 6453TIP3    H243555   1.454   0.472   4.411 -1.6925  0.6442  0.4863
 6454TIP3   OH243556   2.037   3.345   3.464  0.1243 -0.6833 -0.3170
 6454TIP3    H143557   2.062   3.437   3.454 -2.2520  0.2867  1.6878
 6454TIP3    H243558   1.967   3.333   3.399  0.3516 -1.0586 -0.4951
 6455TIP3   OH243559   3.436   6.738   2.728 -0.0512  0.0310  0.6184
 6455TIP3    H143560   3.466   6.754   2.817 -0.0476 -1.3571  0.8982
 6455TIP3    H243561   3.362   6.797   2.715 -1.5756 -1.3812  2.4022
 6456TIP3   OH243562   5.958   3.813   3.668 -0.1293  0.2320 -0.5696
 6456TIP3    H143563   5.905   3.747   3.713  0.6622  1.1181  1.7970
 6456TIP3    H243564   6.019   3.763   3.615 -0.4510 -0.8945  0.0933
 6457TIP3   OH243565   0.887   5.496   4.144 -0.4343 -0.2143 -0.6174
 6457TIP3    H143566   0.939   5.475   4.066  1.4246 -0.4400  0.6068
 6457TIP3    H243567   0.946   5.551   4.196 -1.2258 -0.9565  1.1139
 6458TIP3   OH243568   1.746   6.619   2.937  0.1751 -0.2822 -0.3163
 6458TIP3    H143569   1.663   6.583   2.905 -0.5736  0.7358  0.4274
 6458TIP3    H243570   1.743   6.606   3.031  0.8077 -0.1101 -0.2690
 6459TIP3   OH243571   5.123   5.389   2.520  0.0704 -0.1788  0.3656
 6459TIP3    H143572   5.148   5.321   2.583  0.4932 -0.3413  0.0270
 6459TIP3    H243573   5.109   5.342   2.438 -2.3551 -0.2448  0.7557
 6460TIP3   OH243574   5.684   6.253   2.883  0.3840 -0.4547  0.4468
 6460TIP3    H143575   5.651   6.340   2.858  0.6738 -0.1558  1.0944
 6460TIP3    H243576   5.607   6.196   2.875 -0.2548  0.1790  1.6324
 6461TIP3   OH243577   5.877   0.406   4.328 -0.3428 -0.1620  0.2123
 6461TIP3    H143578   5.881   0.451   4.243  0.0307  0.7292  0.6927
 6461TIP3    H243579   5.968   0.386   4.349 -0.3231  0.6145  0.9137
 6462TIP3   OH243580   0.358   2.534   4.167  0.7896 -1.3433  0.1235
 6462TIP3    H143581   0.404   2.553   4.085 -1.0159  1.1781 -0.4352
 6462TIP3    H243582   0.411   2.578   4.234 -0.7916  1.9316 -0.5700
 6463TIP3   OH243583   0.831   2.584   3.485  0.0882 -0.5571  0.0246
 6463TIP3    H143584   0.836   2.670   3.526 -0.3253  0.1593 -1.3866
 6463TIP3    H243585   0.758   2.541   3.530  0.2176 -0.1404  0.6536
 6464TIP3   OH243586   3.288   6.615   1.898 -0.1473  0.1162  0.1734
 6464TIP3    H143587   3.354   6.665   1.851 -1.4368 -0.0812 -1.9426
 6464TIP3    H243588   3.338   6.555   1.954  1.4306  0.9812 -0.2755
 6465TIP3   OH243589   6.303   2.933   3.092  0.2684  0.5041  0.0220
 6465TIP3    H143590   6.327   2.959   3.003  2.6407  1.4927  0.8584
 6465TIP3    H243591   6.291   3.016   3.139 -0.2614  0.0068  0.8012
 6466TIP3   OH243592   5.591   4.465   4.087 -0.2792  0.3055 -0.6232
 6466TIP3    H143593   5.515   4.461   4.145  1.0566  0.4533  1.2453
 6466TIP3    H243594   5.635   4.381   4.099 -0.4999 -0.0675 -2.2378
 6467TIP3   OH243595   1.023   2.332   2.763  0.1391 -0.0257  0.1240
 6467TIP3    H143596   1.004   2.426   2.755 -1.1740 -0.2526  0.4097
 6467TIP3    H243597   1.113   2.324   2.733  0.7470  1.5277  1.3391
 6468TIP3   OH243598   4.540   3.757   4.050 -0.0382  0.3118 -0.0492
 6468TIP3    H143599   4.558   3.665   4.069 -0.9830  0.0730 -0.2632
 6468TIP3    H243600   4.449   3.770   4.077 -0.4373  0.7635 -1.4911
 6469TIP3   OH243601   1.708   2.611   5.095 -0.1984 -0.5256 -0.4404
 6469TIP3    H143602   1.769   2.554   5.140 -0.1635 -1.2851 -1.4211
 6469TIP3    H243603   1.628   2.559   5.085 -0.7930  0.2250  0.2326
 6470TIP3   OH243604   1.858   2.169   4.184  0.3332 -0.2683 -0.0064
 6470TIP3    H143605   1.769   2.155   4.215  0.3577 -0.2684  0.0625
 6470TIP3    H243606   1.904   2.088   4.205  0.6300  0.1342  0.9173
 6471TIP3   OH243607   2.351   6.319   2.721  0.2013 -0.0975 -0.3648
 6471TIP3    H143608   2.443   6.292   2.720  0.2010 -0.1764 -2.3167
 6471TIP3    H243609   2.348   6.394   2.662 -1.0933 -0.5045 -0.8519
 6472TIP3   OH243610   5.165   4.857   2.507  0.3200 -0.2493 -0.2044
 6472TIP3    H143611   5.203   4.866   2.594 -0.3378 -1.1335  0.1777
 6472TIP3    H243612   5.152   4.763   2.495  0.9802 -0.2028 -1.5081
 6473TIP3   OH243613   0.531   0.675   4.103 -0.2738  0.6231 -0.0956
 6473TIP3    H143614   0.469   0.622   4.054 -0.3997  0.4754  0.2241
 6473TIP3    H243615   0.600   0.614   4.129 -0.4282  0.6055  0.2879
 6474TIP3   OH243616   5.322   3.289   4.988  0.1893 -0.4948  0.3636
 6474TIP3    H143617   5.258   3.286   4.917 -1.3716 -2.6327  1.7297
 6474TIP3    H243618   5.278   3.338   5.058  0.3492 -1.2481  1.0103
 6475TIP3   OH243619   3.454   6.438   4.652  0.3832  0.1139 -0.2117
 6475TIP3    H143620   3.384   6.377   4.676  0.5090  0.0000 -0.1313
 6475TIP3    H243621   3.440   6.455   4.559  1.8395 -2.0367 -0.9082
 6476TIP3   OH243622   4.259   2.140   3.120  0.2447  0.1509 -0.5323
 6476TIP3    H143623   4.326   2.185   3.068 -1.9718  2.2617 -1.7302
 6476TIP3    H243624   4.192   2.114   3.057 -0.5578 -1.0634  0.7580
 6477TIP3   OH243625   3.539   6.243   2.916  0.5339  0.1251 -0.3210
 6477TIP3    H143626   3.594   6.169   2.890  1.2691  1.3676 -2.6510
 6477TIP3    H243627   3.454   6.224   2.877  0.9939  0.8820 -1.8046
 6478TIP3   OH243628   4.992   6.130   4.058 -0.2697  0.7112 -0.2772
 6478TIP3    H143629   4.935   6.054   4.072 -0.0227 -0.0055 -2.7017
 6478TIP3    H243630   5.075   6.106   4.101 -0.0654 -0.6073 -1.3298
 6479TIP3   OH243631   5.211   3.897   2.363 -0.6086  0.5009 -0.7194
 6479TIP3    H143632   5.262   3.866   2.288 -0.1168  0.9892 -0.5944
 6479TIP3    H243633   5.273   3.896   2.436 -1.3429 -0.9392 -0.0746
 6480TIP3   OH243634   3.822   3.806   3.480  0.6767 -0.0478  0.2676
 6480TIP3    H143635   3.820   3.720   3.520  1.0002 -0.2090 -0.0550
 6480TIP3    H243636   3.839   3.789   3.387  1.3288  0.3851  0.2969
 6481TIP3   OH243637   3.600   2.067   3.729 -0.0345 -0.4000 -0.3431
 6481TIP3    H143638   3.665   2.136   3.739  0.0221 -0.5468  0.3590
 6481TIP3    H243639   3.531   2.107   3.675  1.0972 -0.5776 -2.0220
 6482TIP3   OH243640   4.999   3.700   2.392 -0.3862  0.4926 -0.4407
 6482TIP3    H143641   4.965   3.689   2.303 -0.0803 -0.4272 -0.4480
 6482TIP3    H243642   5.062   3.772   2.385 -0.4237  0.4762 -0.9460
 6483TIP3   OH243643   3.307   3.977   2.405 -0.0201  0.2586  0.5743
 6483TIP3    H143644   3.252   3.927   2.345  0.4844  0.8014 -0.3792
 6483TIP3    H243645   3.247   4.035   2.451 -0.4929 -0.5813  1.0390
 6484TIP3   OH243646   4.341   3.383   2.851 -0.5365 -0.1345 -0.4101
 6484TIP3    H143647   4.320   3.446   2.782 -2.1114 -1.3268 -1.0798
 6484TIP3    H243648   4.433   3.363   2.838 -0.4437  0.7568 -1.2394
 6485TIP3   OH243649   0.072   3.632   3.124 -0.0738  0.1609 -0.0708
 6485TIP3    H143650   0.104   3.651   3.036  1.6159 -2.2081 -0.0630
 6485TIP3    H243651   0.150   3.606   3.173 -1.0698  0.7833  1.9736
 6486TIP3   OH243652   2.982   0.631   2.178  0.5887 -0.6830  0.3100
 6486TIP3    H143653   3.049   0.690   2.144 -0.3964 -0.5088 -1.4309
 6486TIP3    H243654   2.997   0.548   2.133 -0.2743 -0.6864  0.0117
 6487TIP3   OH243655   3.465   0.736   4.926 -0.3007  0.7213  0.4131
 6487TIP3    H143656   3.489   0.781   4.845 -0.4796  0.4077  0.1818
 6487TIP3    H243657   3.511   0.784   4.995  0.7197  0.3603  0.0166
 6488TIP3   OH243658   3.411   2.916   4.274 -0.2046  0.1598 -0.1116
 6488TIP3    H143659   3.395   2.833   4.317 -0.4510  0.0444 -0.4223
 6488TIP3    H243660   3.469   2.895   4.201 -1.2859  0.0412 -0.9662
 6489TIP3   OH243661   2.786   1.570   2.953 -0.6051 -0.5010  0.0691
 6489TIP3    H143662   2.704   1.598   2.995 -0.4512 -0.0194  0.0520
 6489TIP3    H243663   2.852   1.579   3.021 -0.7368 -1.9562  0.4254
 6490TIP3   OH243664   2.868   2.287   3.137 -0.4367  0.4652 -0.3441
 6490TIP3    H143665   2.840   2.209   3.186 -0.9394  1.1166  0.4470
 6490TIP3    H243666   2.935   2.255   3.077 -0.7228 -0.5987 -0.1258
 6491TIP3   OH243667   3.495   1.742   2.134  0.1381  0.0602 -0.4993
 6491TIP3    H143668   3.585   1.771   2.120  0.1298  0.0680 -0.5388
 6491TIP3    H243669   3.458   1.807   2.193  0.4249 -0.4423  0.2396
 6492TIP3   OH243670   5.136   0.462   3.494 -0.6741 -0.3901  0.5215
 6492TIP3    H143671   5.184   0.380   3.483  0.4474  0.3739 -0.4589
 6492TIP3    H243672   5.153   0.487   3.585 -1.8904 -1.7319  1.1741
 6493TIP3   OH243673   4.869   0.675   3.568 -0.2005 -0.2725 -0.4000
 6493TIP3    H143674   4.808   0.734   3.610  0.8055 -0.2084  1.0356
 6493TIP3    H243675   4.836   0.666   3.478 -1.7978  0.4190  0.0883
 6494TIP3   OH243676   1.580   6.305   3.912  0.1275 -0.5228 -0.3200
 6494TIP3    H143677   1.661   6.261   3.937  0.8065  0.2016 -1.1676
 6494TIP3    H243678   1.587   6.317   3.818 -0.5203  0.4129 -0.2667
 6495TIP3   OH243679   3.254   0.416   3.334 -0.5548  0.3091 -0.2527
 6495TIP3    H143680   3.227   0.333   3.374 -1.6146  0.1467 -1.2525
 6495TIP3    H243681   3.306   0.459   3.402 -0.2689 -1.0164  0.4102
 6496TIP3   OH243682   6.180   2.204   5.738  0.2485  0.4405  0.3005
 6496TIP3    H143683   6.134   2.121   5.745 -0.4403  0.9370  2.2492
 6496TIP3    H243684   6.124   2.257   5.681  1.1450 -0.6466 -1.7201
 6497TIP3   OH243685   3.563   5.950   3.254  0.5272 -0.6925 -0.4278
 6497TIP3    H143686   3.493   5.904   3.209 -0.5463 -0.5754  1.0422
 6497TIP3    H243687   3.616   5.881   3.293  0.6869 -0.7538 -0.7494
 6498TIP3   OH243688   4.195   2.694   4.532 -0.5346 -0.2794  0.0210
 6498TIP3    H143689   4.168   2.779   4.497 -1.5074 -0.9089 -0.8092
 6498TIP3    H243690   4.275   2.713   4.581 -0.0614  0.9136 -1.1558
 6499TIP3   OH243691   3.639   5.661   3.271  0.2038  0.0447 -0.0106
 6499TIP3    H143692   3.545   5.680   3.277  0.3155  1.0002 -1.0578
 6499TIP3    H243693   3.646   5.570   3.300 -1.1755 -0.3361 -0.7760
 6500TIP3   OH243694   0.457   6.078   3.499  0.1178 -0.2078  0.2103
 6500TIP3    H143695   0.432   6.044   3.413 -0.0350  0.7617 -0.1309
 6500TIP3    H243696   0.402   6.029   3.561 -0.7370  0.0348 -0.3454
 6501TIP3   OH243697   2.302   4.794   2.949 -0.1312 -0.3233 -0.4509
 6501TIP3    H143698   2.320   4.849   2.872 -1.6938 -0.8302 -1.2240
 6501TIP3    H243699   2.371   4.727   2.947 -0.6467 -0.8539 -1.9584
 6502TIP3   OH243700   2.098   6.655   2.661 -1.0018 -0.5592  0.4003
 6502TIP3    H143701   2.189   6.625   2.661 -1.8058 -3.2878  0.2355
 6502TIP3    H243702   2.104   6.750   2.666  1.9097 -0.3281 -3.3549
 6503TIP3   OH243703   4.308   2.084   4.248  0.1383 -0.6347  0.4291
 6503TIP3    H143704   4.333   2.077   4.156 -1.4018  2.1734 -0.3480
 6503TIP3    H243705   4.216   2.059   4.250 -0.0940  0.1929  0.9895
 6504TIP3   OH243706   3.219   0.783   3.424 -0.3310  0.0192  0.4542
 6504TIP3    H143707   3.161   0.859   3.436 -2.1020 -0.6037 -3.0087
 6504TIP3    H243708   3.303   0.820   3.398 -0.0019  0.8242  2.4613
 6505TIP3   OH243709   3.518   3.749   2.038 -0.1639  0.5020  0.0425
 6505TIP3    H143710   3.518   3.805   2.116 -0.8860 -0.0617  0.4680
 6505TIP3    H243711   3.474   3.802   1.971 -2.7838 -0.2591  1.0263
 6506TIP3   OH243712   4.030   0.641   4.709  0.2027  0.3401 -0.4076
 6506TIP3    H143713   4.062   0.585   4.780  0.3518  0.8764 -0.0532
 6506TIP3    H243714   4.102   0.644   4.646  0.2860  0.3319 -0.3127
 6507TIP3   OH243715   1.440   3.552   3.224  0.3554 -0.1530  0.1356
 6507TIP3    H143716   1.434   3.458   3.242  0.4075 -0.1820  0.0040
 6507TIP3    H243717   1.356   3.587   3.253  0.0411 -0.3558 -0.5105
 6508TIP3   OH243718   5.008   6.740   3.992 -0.0686 -0.0460 -0.1010
 6508TIP3    H143719   5.070   6.670   4.008  0.3542  0.2227 -0.5505
 6508TIP3    H243720   4.963   6.716   3.911  0.8387  0.7215 -0.8559
 6509TIP3   OH243721   6.291   5.609   3.104  0.6559 -0.0185  0.1412
 6509TIP3    H143722   6.255   5.536   3.052  2.6019 -1.3670  0.6003
 6509TIP3    H243723   6.374   5.576   3.137  0.5420  1.6467  2.2412
 6510TIP3   OH243724   5.278   4.341   4.560  0.4484  0.6653  0.0561
 6510TIP3    H143725   5.255   4.320   4.651  0.1898 -0.4599 -0.2484
 6510TIP3    H243726   5.331   4.420   4.567  1.4490 -0.0678  1.3136
 6511TIP3   OH243727   6.796   4.379   2.836 -0.2427 -0.5712  0.0711
 6511TIP3    H143728   6.863   4.316   2.860 -0.3112 -0.6502  0.0518
 6511TIP3    H243729   6.713   4.331   2.842 -0.2734 -0.5506 -0.1756
 6512TIP3   OH243730   1.773   2.361   2.519 -0.2910  0.0538 -0.4470
 6512TIP3    H143731   1.756   2.336   2.428 -1.2492 -0.2134 -0.2043
 6512TIP3    H243732   1.744   2.452   2.525 -1.8377 -0.4447  0.0023
 6513TIP3   OH243733   1.536   5.029   4.574  0.0655 -0.0289 -0.0720
 6513TIP3    H143734   1.575   5.081   4.504  0.3625  1.5956  1.2327
 6513TIP3    H243735   1.540   5.086   4.651  0.3071 -1.9781  1.4215
 6514TIP3   OH243736   1.916   6.832   2.161  0.3923  1.1228  0.2971
 6514TIP3    H143737   1.866   6.754   2.140  0.4586  0.9740  0.6775
 6514TIP3    H243738   1.922   6.832   2.257 -0.1500  1.9288  0.3480
 6515TIP3   OH243739   0.609   2.701   2.079 -0.0131 -0.3645  0.1980
 6515TIP3    H143740   0.651   2.785   2.063 -0.3818 -0.6305 -2.5090
 6515TIP3    H243741   0.549   2.718   2.152 -1.6062  2.2855 -1.5818
 6516TIP3   OH243742   1.037   6.713   3.899 -0.8040  0.0086  0.6129
 6516TIP3    H143743   1.068   6.662   3.824  1.6374 -0.8180  2.0736
 6516TIP3    H243744   1.052   6.804   3.874  0.7125 -0.2883  0.3186
 6517TIP3   OH243745   3.006   2.043   2.315 -1.1596  0.1148  0.0584
 6517TIP3    H143746   3.039   2.110   2.375  1.2689 -2.3083  1.6362
 6517TIP3    H243747   2.983   1.969   2.372  1.3054 -2.3390 -1.8822
 6518TIP3   OH243748   4.249   2.869   3.167  0.6002 -0.4580  0.3280
 6518TIP3    H143749   4.224   2.835   3.081 -0.1423 -0.8069  0.6733
 6518TIP3    H243750   4.167   2.873   3.216  0.9709  0.0291  0.9261
 6519TIP3   OH243751   1.294   4.428   5.397  0.2079  0.3691  0.2307
 6519TIP3    H143752   1.315   4.453   5.307 -2.8248 -0.0737 -0.7140
 6519TIP3    H243753   1.371   4.379   5.426  0.8986 -0.3812 -2.4944
 6520TIP3   OH243754   5.890   0.114   2.732  0.4758  0.0547  0.0017
 6520TIP3    H143755   5.928   0.172   2.666 -0.3878  0.2465 -0.3502
 6520TIP3    H243756   5.864   0.036   2.683 -0.2388  0.2287  0.0929
 6521TIP3   OH243757   6.106   1.351   3.984 -0.3700  0.1177  0.1534
 6521TIP3    H143758   6.106   1.351   4.080 -1.6176  2.2807  0.2118
 6521TIP3    H243759   6.125   1.442   3.959 -1.0803 -0.1765 -1.6374
 6522TIP3   OH243760   4.951   5.597   2.977  0.4999 -0.3035 -0.4406
 6522TIP3    H143761   4.974   5.509   2.946  1.6902  0.6579 -2.5856
 6522TIP3    H243762   5.028   5.626   3.026  0.0470 -0.4951  0.3974
 6523TIP3   OH243763   0.312   3.523   3.196 -0.0452  0.5626 -0.0655
 6523TIP3    H143764   0.281   3.438   3.163  0.9615  0.3070 -0.3814
 6523TIP3    H243765   0.404   3.509   3.216 -0.0496  1.3878  0.5945
 6524TIP3   OH243766   6.078   1.099   4.826  0.1530  0.2553  0.1528
 6524TIP3    H143767   6.012   1.030   4.821  0.4860 -0.1018  0.5627
 6524TIP3    H243768   6.047   1.167   4.765 -1.6987  1.0424  1.8469
 6525TIP3   OH243769   2.346   4.598   3.729  0.1369  0.2445  0.0058
 6525TIP3    H143770   2.423   4.641   3.766 -1.2606  2.0130  1.0658
 6525TIP3    H243771   2.316   4.539   3.798  0.9790 -1.0755 -0.7272
 6526TIP3   OH243772   3.729   4.907   3.882  0.1563 -0.0052 -0.2269
 6526TIP3    H143773   3.734   4.826   3.933 -0.4607 -1.2335 -2.0172
 6526TIP3    H243774   3.667   4.962   3.931  1.4418 -0.0934  1.6222
 6527TIP3   OH243775   3.195   1.558   2.718  0.3101  0.1718 -0.1125
 6527TIP3    H143776   3.151   1.557   2.633  0.9467 -0.6779 -0.4523
 6527TIP3    H243777   3.188   1.648   2.749 -0.1339  0.4317 -0.9612
 6528TIP3   OH243778   6.590   0.130   2.728 -0.2027  0.5001 -0.2385
 6528TIP3    H143779   6.639   0.210   2.708 -1.5530  1.8056  1.3729
 6528TIP3    H243780   6.635   0.094   2.805 -0.8732  0.9309  0.3713
 6529TIP3   OH243781   0.715   3.790   4.350 -0.3373 -0.4994  0.0556
 6529TIP3    H143782   0.752   3.843   4.280  1.2431 -0.9568  0.5160
 6529TIP3    H243783   0.783   3.727   4.372  0.0315  0.8628  3.3233
 6530TIP3   OH243784   6.065   5.843   3.797  0.3146 -0.4064  0.3717
 6530TIP3    H143785   6.084   5.840   3.891 -0.5781 -1.0524  0.5359
 6530TIP3    H243786   6.111   5.921   3.766 -1.1955  1.1174  1.7712
 6531TIP3   OH243787   6.299   3.933   3.061 -0.1706 -0.2576 -0.6495
 6531TIP3    H143788   6.260   4.020   3.051  1.0812  0.1808 -2.2543
 6531TIP3    H243789   6.283   3.890   2.977  0.2678 -1.1252 -0.3035
 6532TIP3   OH243790   6.383   1.931   4.319  0.4592 -0.0545  0.3355
 6532TIP3    H143791   6.418   1.955   4.233  1.5241  0.3280  0.8584
 6532TIP3    H243792   6.397   2.008   4.373 -1.5187  0.2406  0.5097
 6533TIP3   OH243793   4.276   0.721   4.588 -0.4132 -0.6920  0.0703
 6533TIP3    H143794   4.347   0.695   4.529  1.1157  1.8831  0.6284
 6533TIP3    H243795   4.320   0.770   4.657 -2.6848  0.3744  0.8368
 6534TIP3   OH243796   5.250   5.813   4.428 -0.6889  0.0317 -0.3997
 6534TIP3    H143797   5.260   5.881   4.360  0.6220 -1.2589 -1.5487
 6534TIP3    H243798   5.174   5.762   4.399 -0.1457 -0.5027 -0.9021
 6535TIP3   OH243799   4.617   0.456   3.255 -0.3496  0.1219 -0.1348
 6535TIP3    H143800   4.629   0.408   3.337 -0.3865  2.9264  1.6662
 6535TIP3    H243801   4.522   0.470   3.249 -0.3331  0.0767 -0.5753
 6536TIP3   OH243802   6.389   1.257   4.121  0.0428 -0.7946  0.4474
 6536TIP3    H143803   6.294   1.246   4.122 -0.3729  0.2450 -4.2766
 6536TIP3    H243804   6.423   1.168   4.123 -1.2844 -1.3857 -0.7536
 6537TIP3   OH243805   1.936   6.687   5.339  0.0089 -0.1555 -0.0189
 6537TIP3    H143806   1.939   6.591   5.334 -0.5245 -0.2729  1.4114
 6537TIP3    H243807   2.011   6.709   5.395  0.0491  0.2505 -0.2341
 6538TIP3   OH243808   0.039   2.082   5.791  0.9251 -0.1853  0.3257
 6538TIP3    H143809   0.109   2.126   5.839  0.1573  1.6720 -0.1582
 6538TIP3    H243810   0.074   1.995   5.771  2.8922  0.5060  0.5254
 6539TIP3   OH243811   3.737   4.699   4.068 -0.4640 -0.7952  0.4996
 6539TIP3    H143812   3.724   4.729   4.158  1.1775 -2.7011  1.4397
 6539TIP3    H243813   3.764   4.608   4.076  2.3497 -0.3191 -1.7480
 6540TIP3   OH243814   4.668   0.449   3.575  0.5289  0.5161  0.3914
 6540TIP3    H143815   4.759   0.422   3.586  0.7299  1.8210  2.4239
 6540TIP3    H243816   4.632   0.448   3.664 -1.8800 -1.2961 -0.4841
 6541TIP3   OH243817   6.398   6.685   4.324 -0.5391 -0.2115  0.0375
 6541TIP3    H143818   6.396   6.666   4.230 -1.6067 -1.9229  0.3550
 6541TIP3    H243819   6.440   6.608   4.363  0.1426  0.6059  0.9446
 6542TIP3   OH243820   1.103   1.376   2.257 -0.0108  0.7228 -0.4693
 6542TIP3    H143821   1.019   1.331   2.244  0.6769 -0.4348 -1.1169
 6542TIP3    H243822   1.118   1.374   2.351  0.1141 -0.6675 -0.4978
 6543TIP3   OH243823   6.647   3.907   3.244 -0.9659 -0.2514  0.1207
 6543TIP3    H143824   6.708   3.861   3.303 -0.1758  0.1797 -0.3469
 6543TIP3    H243825   6.659   4.000   3.265  0.3040  0.0204 -1.6024
 6544TIP3   OH243826   5.970   5.185   3.190 -0.2343  0.4299 -0.2916
 6544TIP3    H143827   5.998   5.275   3.179 -0.2374  0.5744  0.8042
 6544TIP3    H243828   6.035   5.134   3.142  1.3785  0.8334  1.3287
 6545TIP3   OH243829   2.563   4.060   2.409 -0.6200 -0.2236  0.7060
 6545TIP3    H143830   2.547   4.031   2.499 -0.8686 -0.1686  0.6792
 6545TIP3    H243831   2.476   4.077   2.373 -0.5768 -1.0103  0.1962
 6546TIP3   OH243832   0.602   0.533   3.421 -0.0367 -0.0422 -0.6570
 6546TIP3    H143833   0.526   0.557   3.368 -1.0696  1.3676  1.3357
 6546TIP3    H243834   0.594   0.585   3.500  2.6446 -0.4208 -0.0340
 6547TIP3   OH243835   5.185   3.370   2.655 -0.0918 -0.1643 -0.2023
 6547TIP3    H143836   5.122   3.443   2.654 -0.2119 -0.2274  1.0148
 6547TIP3    H243837   5.130   3.291   2.655 -0.1723 -0.2363  2.8243
 6548TIP3   OH243838   1.195   4.407   2.387 -0.2721  0.4344  0.9720
 6548TIP3    H143839   1.261   4.384   2.322 -0.8815  3.5987 -0.9634
 6548TIP3    H243840   1.246   4.422   2.467  1.3200  1.9833 -0.2530
 6549TIP3   OH243841   1.982   0.708   2.638 -0.3083  0.0963  0.2030
 6549TIP3    H143842   1.938   0.685   2.556  0.0773 -2.4731  0.6455
 6549TIP3    H243843   1.943   0.793   2.663 -0.6501  0.7956 -2.4250
 6550TIP3   OH243844   3.257   0.205   4.893  0.0345 -0.4022 -0.2971
 6550TIP3    H143845   3.274   0.294   4.861  0.1309 -0.4473 -0.3692
 6550TIP3    H243846   3.162   0.194   4.882  0.2148 -0.7947 -1.5180
 6551TIP3   OH243847   3.881   2.406   2.195 -0.1031 -0.0607  0.0674
 6551TIP3    H143848   3.935   2.445   2.264 -0.0909 -0.5442  0.3349
 6551TIP3    H243849   3.825   2.477   2.166  1.5640  0.8402 -1.1405
 6552TIP3   OH243850   1.515   1.522   3.917  0.4324 -0.1605 -0.5798
 6552TIP3    H143851   1.428   1.483   3.907  0.7876 -1.7588  1.8489
 6552TIP3    H243852   1.506   1.582   3.991  1.5425 -0.9215  0.2064
 6553TIP3   OH243853   0.583   0.519   2.243 -0.3037 -0.1600  0.1558
 6553TIP3    H143854   0.539   0.446   2.286  0.0477 -0.2920  0.2943
 6553TIP3    H243855   0.616   0.483   2.161 -0.7803  0.0352 -0.1229
 6554TIP3   OH243856   1.372   4.236   3.182 -1.0393 -0.2675  0.2583
 6554TIP3    H143857   1.461   4.207   3.159 -0.7866  1.4238 -1.1468
 6554TIP3    H243858   1.316   4.164   3.154 -0.1478 -1.2830  0.9875
 6555TIP3   OH243859   1.475   0.467   1.960  0.5023 -0.1799 -0.0984
 6555TIP3    H143860   1.528   0.520   1.899  1.7669  0.1447  1.2145
 6555TIP3    H243861   1.493   0.377   1.935 -0.9901 -0.0565 -1.8013
 6556TIP3   OH243862   6.109   2.476   2.845 -0.3511 -0.2222 -0.5865
 6556TIP3    H143863   6.088   2.557   2.797 -1.6243  0.4735  1.0137
 6556TIP3    H243864   6.145   2.507   2.928 -0.3446 -1.3126 -0.1749
 6557TIP3   OH243865   6.328   1.035   4.936  0.1364  0.4565 -0.1185
 6557TIP3    H143866   6.290   0.962   4.985  1.9022  0.5120  1.4331
 6557TIP3    H243867   6.256   1.067   4.881 -1.3962 -0.8005  1.0612
 6558TIP3   OH243868   6.218   1.814   3.236  0.4435  0.5228  0.7126
 6558TIP3    H143869   6.244   1.893   3.187  0.6098  0.6643  1.0262
 6558TIP3    H243870   6.266   1.743   3.195 -0.1685  0.4866  0.0306
 6559TIP3   OH243871   3.343   4.165   3.133  0.2905 -0.0568 -0.3076
 6559TIP3    H143872   3.415   4.132   3.080 -0.7293 -3.1629  0.0189
 6559TIP3    H243873   3.310   4.241   3.084  2.2805  0.0006 -1.6556
 6560TIP3   OH243874   3.343   6.818   5.293 -0.1367  0.7428 -0.6788
 6560TIP3    H143875   3.280   6.784   5.356 -0.8334  0.3150 -1.5766
 6560TIP3    H243876   3.354   6.910   5.317  1.1950  0.1291  1.3063
 6561TIP3   OH243877   3.679   3.989   3.886  0.6561 -0.3307  0.3263
 6561TIP3    H143878   3.685   3.908   3.936 -1.3368 -0.5012  0.3642
 6561TIP3    H243879   3.656   3.961   3.797 -0.2565  0.1855  0.3902
 6562TIP3   OH243880   0.101   4.486   4.645 -0.5659  0.3958 -0.2384
 6562TIP3    H143881   0.122   4.460   4.556  1.6595  0.3513  0.2571
 6562TIP3    H243882   0.096   4.404   4.694 -1.4422  0.4440 -0.2173
 6563TIP3   OH243883   2.468   1.625   5.329 -0.4748 -0.5528 -0.2248
 6563TIP3    H143884   2.484   1.682   5.254 -1.3273 -0.2722 -0.2031
 6563TIP3    H243885   2.516   1.545   5.310 -0.6524 -0.4645 -1.0466
 6564TIP3   OH243886   2.282   1.271   3.045 -0.1132 -0.1855 -0.3699
 6564TIP3    H143887   2.288   1.283   2.950 -0.4444 -0.6797 -0.4569
 6564TIP3    H243888   2.191   1.293   3.065 -0.0378 -0.0620 -0.1632
 6565TIP3   OH243889   4.654   2.652   4.497  0.4836 -0.3439  0.8373
 6565TIP3    H143890   4.581   2.699   4.458 -0.7223 -2.9859 -0.3306
 6565TIP3    H243891   4.708   2.720   4.537 -0.8651  2.0124 -1.1048
 6566TIP3   OH243892   0.332   6.099   3.006  0.5333 -0.1147 -0.8741
 6566TIP3    H143893   0.383   6.094   3.087 -0.2093  0.0499 -0.3834
 6566TIP3    H243894   0.286   6.015   3.001 -0.0657  0.1929 -0.6797
 6567TIP3   OH243895   5.337   2.578   4.127 -0.5208  0.9479 -0.5481
 6567TIP3    H143896   5.386   2.658   4.145  0.6413  0.2947 -0.6587
 6567TIP3    H243897   5.373   2.514   4.190 -2.2337  0.7949  0.3437
 6568TIP3   OH243898   0.006   4.922   2.530  0.0647 -0.3933  0.1377
 6568TIP3    H143899   0.067   4.961   2.593  1.8093  0.3101 -1.9064
 6568TIP3    H243900   0.002   4.830   2.555  3.0148 -0.7546 -0.3893
 6569TIP3   OH243901   0.650   5.425   4.823 -0.3426  0.2028  0.7579
 6569TIP3    H143902   0.715   5.382   4.878  0.7989 -0.4288 -0.9750
 6569TIP3    H243903   0.569   5.379   4.841 -0.2708  0.7863  2.7302
 6570TIP3   OH243904   3.724   5.967   2.501 -0.5851  0.0471 -0.3067
 6570TIP3    H143905   3.811   5.937   2.476  0.4103  0.3145  2.5192
 6570TIP3    H243906   3.732   6.062   2.508 -1.4436  0.1947 -1.0669
 6571TIP3   OH243907   1.943   3.356   3.860  1.0277  0.0270  0.5796
 6571TIP3    H143908   1.999   3.434   3.858  2.1706 -0.7877  0.1325
 6571TIP3    H243909   1.993   3.289   3.814 -0.9417 -0.3291 -1.1830
 6572TIP3   OH243910   2.034   6.340   3.792  0.2834  0.5597 -0.6019
 6572TIP3    H143911   1.950   6.356   3.749 -0.9604 -0.4114  1.3063
 6572TIP3    H243912   2.050   6.246   3.781  0.7435  0.5975 -0.3162
 6573TIP3   OH243913   1.595   5.108   3.923 -0.0906  0.1610 -0.4199
 6573TIP3    H143914   1.551   5.089   4.005  0.8266  0.8104  0.2458
 6573TIP3    H243915   1.627   5.023   3.893  0.3837  0.0423  0.3872
 6574TIP3   OH243916   2.392   0.276   1.986 -0.7464  0.4515  0.4984
 6574TIP3    H143917   2.422   0.185   1.979 -0.0252  0.7629 -0.8454
 6574TIP3    H243918   2.373   0.288   2.079  0.7508 -0.5921  0.9809
 6575TIP3   OH243919   6.347   5.100   4.316  0.1691  0.8007  0.2041
 6575TIP3    H143920   6.302   5.017   4.329 -1.0646  1.5787  1.1283
 6575TIP3    H243921   6.303   5.141   4.242  0.7476  0.6642 -0.2255
 6576TIP3   OH243922   1.921   2.453   4.251  0.4660  0.1614 -0.0094
 6576TIP3    H143923   1.873   2.511   4.192  0.6190  0.7344  0.4179
 6576TIP3    H243924   1.880   2.367   4.239 -0.9876  0.7218  0.6722
 6577TIP3   OH243925   6.393   2.329   3.542 -0.3801 -0.1495 -0.0927
 6577TIP3    H143926   6.326   2.387   3.508  1.0925  1.8547  0.2016
 6577TIP3    H243927   6.459   2.324   3.472 -0.0896 -0.7881  0.2115
 6578TIP3   OH243928   0.239   0.254   4.534  0.3808 -0.1491  0.8808
 6578TIP3    H143929   0.190   0.175   4.512  0.4488  0.0749 -0.1534
 6578TIP3    H243930   0.299   0.266   4.460 -0.1017  1.2295  0.6825
 6579TIP3   OH243931   4.778   6.501   2.421  0.4774 -0.4022  0.2488
 6579TIP3    H143932   4.758   6.584   2.465  1.0484 -0.2715  0.2748
 6579TIP3    H243933   4.795   6.440   2.493  1.2878 -0.2196  0.2303
 6580TIP3   OH243934   1.134   5.441   2.559  0.0637  0.2745 -0.3915
 6580TIP3    H143935   1.218   5.397   2.575 -0.2700 -0.5202 -0.7474
 6580TIP3    H243936   1.137   5.519   2.614 -0.0472 -1.1064  1.6455
 6581TIP3   OH243937   6.128   2.772   4.024 -0.4935  0.7484 -0.5543
 6581TIP3    H143938   6.036   2.796   4.021 -0.6461  0.1383 -0.9372
 6581TIP3    H243939   6.150   2.748   3.934 -0.2372 -0.0783 -0.2796
 6582TIP3   OH243940   3.685   5.298   1.923 -0.2830 -0.2815 -0.0703
 6582TIP3    H143941   3.779   5.285   1.912  0.2485  0.4936  2.8182
 6582TIP3    H243942   3.666   5.381   1.880  0.4143 -0.2500 -0.3219
 6583TIP3   OH243943   3.875   5.280   5.644 -0.0891 -0.2959  0.0323
 6583TIP3    H143944   3.815   5.232   5.587  0.6547 -0.0988 -0.9331
 6583TIP3    H243945   3.957   5.232   5.639  0.1954  0.1467  0.3558
 6584TIP3   OH243946   2.470   3.873   4.070  0.4644 -0.9659 -0.1023
 6584TIP3    H143947   2.409   3.853   4.141  0.6721 -2.1255 -0.2324
 6584TIP3    H243948   2.418   3.865   3.990 -0.3305  2.4502 -0.0489
 6585TIP3   OH243949   2.180   2.200   4.088 -0.1083 -0.1732 -0.3562
 6585TIP3    H143950   2.086   2.201   4.109 -0.2509 -1.3349 -0.9116
 6585TIP3    H243951   2.209   2.112   4.108  1.0701  0.4035  0.5926
 6586TIP3   OH243952   0.840   6.036   3.216  0.2114 -0.5894  0.9843
 6586TIP3    H143953   0.903   6.020   3.287  0.2013 -3.8236  0.4039
 6586TIP3    H243954   0.868   6.119   3.178  2.9438 -0.9311  2.0034
 6587TIP3   OH243955   3.802   3.793   4.233 -0.8386 -0.5213  0.2196
 6587TIP3    H143956   3.779   3.886   4.235 -3.0357 -0.9105 -1.8751
 6587TIP3    H243957   3.897   3.791   4.225 -0.7910  1.5452 -0.0378
 6588TIP3   OH243958   1.746   5.106   3.547  0.6530  0.7082 -0.2122
 6588TIP3    H143959   1.765   5.181   3.603  0.9452  0.5255 -0.0634
 6588TIP3    H243960   1.656   5.119   3.519  0.7598  1.2152 -0.3393
 6589TIP3   OH243961   2.069   5.728   2.375  0.2046 -0.3509 -0.5817
 6589TIP3    H143962   2.033   5.712   2.462 -0.4357 -0.3465 -0.8419
 6589TIP3    H243963   2.145   5.784   2.390  0.2616 -0.5769 -0.0015
 6590TIP3   OH243964   6.554   0.521   4.026  0.3256 -0.7433 -0.2745
 6590TIP3    H143965   6.569   0.429   4.048 -0.9542 -0.3561  2.5286
 6590TIP3    H243966   6.610   0.569   4.087 -0.3635  0.3685 -0.5109
 6591TIP3   OH243967   0.039   6.775   2.880 -0.2119 -0.0728 -0.3049
 6591TIP3    H143968   0.128   6.809   2.892 -0.3623  0.3321 -0.3535
 6591TIP3    H243969   0.051   6.696   2.827 -0.0495  0.9354 -1.8063
 6592TIP3   OH243970   2.123   2.126   3.399  0.0983  0.2581  0.5406
 6592TIP3    H143971   2.051   2.120   3.463  0.2994  0.1341  0.7579
 6592TIP3    H243972   2.098   2.066   3.329 -0.3386  0.7298  0.2873
 6593TIP3   OH243973   0.917   6.297   4.762 -0.1040 -0.2273 -0.0289
 6593TIP3    H143974   1.005   6.260   4.757 -0.5963 -1.8403  1.8412
 6593TIP3    H243975   0.866   6.232   4.810 -1.6500  1.8448  1.3563
 6594TIP3   OH243976   4.591   2.604   2.482 -0.1937  0.0105 -0.1799
 6594TIP3    H143977   4.590   2.554   2.564 -0.3215  0.2690 -0.0193
 6594TIP3    H243978   4.654   2.559   2.426  0.5550  0.3372  0.3833
 6595TIP3   OH243979   5.934   0.815   3.462 -0.3125  0.2254 -0.1052
 6595TIP3    H143980   5.897   0.798   3.549 -0.8165  0.1954 -0.3218
 6595TIP3    H243981   5.916   0.908   3.446  0.4418  0.4138  0.1329
 6596TIP3   OH243982   6.344   0.139   5.204  0.3583 -0.8304  0.3278
 6596TIP3    H143983   6.286   0.067   5.178  0.3473 -1.4012  1.8538
 6596TIP3    H243984   6.412   0.097   5.256  0.5262  0.2130  0.9710
 6597TIP3   OH243985   2.552   5.626   3.284  0.1295  0.0909 -0.5907
 6597TIP3    H143986   2.457   5.617   3.290  0.3200 -0.9555  1.7403
 6597TIP3    H243987   2.582   5.544   3.245  0.1889 -0.3261  0.3108
 6598TIP3   OH243988   2.674   4.271   2.813  0.1118  0.5229  0.0602
 6598TIP3    H143989   2.669   4.222   2.895 -0.8557 -1.6450 -1.1881
 6598TIP3    H243990   2.585   4.302   2.798 -0.1077 -0.5189 -0.9360
 6599TIP3   OH243991   2.695   3.492   2.075  0.0711 -0.2654  0.0478
 6599TIP3    H143992   2.783   3.495   2.036  0.0945 -0.7533  0.0508
 6599TIP3    H243993   2.711   3.484   2.169  0.0991 -3.0470 -0.0956
 6600TIP3   OH243994   0.807   1.515   2.483  0.3184 -0.2148  0.1908
 6600TIP3    H143995   0.813   1.586   2.419  0.1086  0.8055  1.2628
 6600TIP3    H243996   0.898   1.497   2.507  0.3936 -0.5567 -0.3443
 6601TIP3   OH243997   6.389   1.480   3.951  0.8800  0.0504  0.1965
 6601TIP3    H143998   6.378   1.395   3.994 -1.2057 -0.1896 -0.6729
 6601TIP3    H243999   6.482   1.501   3.962  1.2595 -1.9124  1.2037
 6602TIP3   OH244000   3.045   2.577   2.592  0.3581  0.3475 -0.3445
 6602TIP3    H144001   3.030   2.527   2.672 -1.6713  1.1028 -0.1949
 6602TIP3    H244002   2.992   2.533   2.526  1.1298  0.3943 -1.0092
 6603TIP3   OH244003   4.433   2.419   2.717  0.1338  0.3241 -0.3918
 6603TIP3    H144004   4.395   2.342   2.759  0.7527  1.5623  2.7028
 6603TIP3    H244005   4.502   2.384   2.661  0.6667 -1.4022  1.2502
 6604TIP3   OH244006   4.571   3.996   5.297  0.1209 -0.4944 -0.0777
 6604TIP3    H144007   4.539   3.907   5.285 -3.5121  0.7238 -0.7761
 6604TIP3    H244008   4.497   4.044   5.334  2.4247  1.9586  1.7861
 6605TIP3   OH244009   1.711   1.190   2.023 -0.0287 -1.1158  0.0770
 6605TIP3    H144010   1.694   1.152   1.937 -2.0235 -0.6010  0.1882
 6605TIP3    H244011   1.641   1.255   2.035 -0.4278 -1.8771  2.5018
 6606TIP3   OH244012   2.919   0.861   4.182 -0.3741 -0.3130  0.2890
 6606TIP3    H144013   2.896   0.768   4.189  1.0072 -0.7634 -0.7720
 6606TIP3    H244014   2.845   0.900   4.135 -1.3298 -0.7043  1.4227
 6607TIP3   OH244015   4.634   1.388   4.291  0.0198 -0.1149 -0.5828
 6607TIP3    H144016   4.610   1.477   4.264 -1.0197  0.0052  0.6359
 6607TIP3    H244017   4.640   1.393   4.386 -1.4984 -1.6723 -0.3666
 6608TIP3   OH244018   0.115   6.610   4.084  0.0005 -0.1663 -0.4189
 6608TIP3    H144019   0.053   6.606   4.011  0.3070  1.2036 -0.7859
 6608TIP3    H244020   0.196   6.642   4.044  0.8241 -1.4374  0.1479
 6609TIP3   OH244021   3.551   0.865   4.661  0.2260 -0.1462  0.3642
 6609TIP3    H144022   3.538   0.820   4.578 -0.6221  1.4015 -0.3780
 6609TIP3    H244023   3.520   0.954   4.645  1.6751  0.6637  1.8286
 6610TIP3   OH244024   3.636   2.545  12.548  0.1325  0.2961 -0.1918
 6610TIP3    H144025   3.582   2.611  12.591  1.7810  0.2700  2.0818
 6610TIP3    H244026   3.625   2.562  12.454 -0.2602  3.1551  0.2905
 6611TIP3   OH244027   5.519   0.802   2.176  0.3399 -0.1896 -0.0713
 6611TIP3    H144028   5.436   0.810   2.128  0.4514 -0.5122 -0.3248
 6611TIP3    H244029   5.511   0.718   2.222  0.5829 -0.2822 -0.2023
 6612TIP3   OH244030   0.846   2.191   2.493 -0.0168  0.2670 -0.1028
 6612TIP3    H144031   0.864   2.223   2.582  0.9240 -1.5466  0.4036
 6612TIP3    H244032   0.776   2.127   2.504  2.3624 -2.5338 -0.0522
 6613TIP3   OH244033   2.704   4.790   3.055 -0.0606  0.5975  0.1210
 6613TIP3    H144034   2.717   4.837   3.136  1.0735  1.5025 -0.5663
 6613TIP3    H244035   2.659   4.852   2.997  0.9838  0.6898 -0.6182
 6614TIP3   OH244036   5.704   4.700   5.219 -0.4666 -0.1067 -0.7136
 6614TIP3    H144037   5.799   4.700   5.207 -0.4661 -0.3856 -0.7320
 6614TIP3    H244038   5.690   4.732   5.308 -0.2204 -2.2534  0.1574
 6615TIP3   OH244039   3.342   5.891   2.438 -0.4503  0.0031 -0.0319
 6615TIP3    H144040   3.326   5.980   2.468 -1.5422  0.0602 -0.6992
 6615TIP3    H244041   3.291   5.836   2.498 -1.0323 -0.0313 -0.5353
 6616TIP3   OH244042   5.407   5.277   4.246  0.3815  0.5436  0.1404
 6616TIP3    H144043   5.452   5.358   4.224 -0.4825  1.1782  0.6338
 6616TIP3    H244044   5.317   5.305   4.268 -0.6900 -0.7975 -2.1598
 6617TIP3   OH244045   5.333   6.002   4.984 -0.4439 -0.4288  0.0127
 6617TIP3    H144046   5.245   6.005   4.945  0.2573 -0.7034 -1.6423
 6617TIP3    H244047   5.358   6.094   4.991 -0.3784 -0.3949 -0.6493
 6618TIP3   OH244048   4.630   2.205   2.294 -0.5505  0.3528  0.2774
 6618TIP3    H144049   4.668   2.117   2.292  0.4892  0.7868 -0.7326
 6618TIP3    H244050   4.541   2.194   2.261  0.0840 -0.1244 -1.3735
 6619TIP3   OH244051   0.856   2.804   3.665  0.0309 -0.1679 -0.2771
 6619TIP3    H144052   0.921   2.872   3.680 -0.3240  0.2414 -0.5895
 6619TIP3    H244053   0.811   2.794   3.749 -0.6777  0.7870 -0.5279
 6620TIP3   OH244054   2.631   1.484   2.346  1.0681  0.0300 -0.4896
 6620TIP3    H144055   2.652   1.414   2.408  0.8321  0.2036 -0.2099
 6620TIP3    H244056   2.680   1.560   2.378 -0.4328  0.6136  0.5336
 6621TIP3   OH244057   0.125   3.353   3.673 -0.0062 -0.8769 -0.0068
 6621TIP3    H144058   0.043   3.305   3.658 -0.0727 -0.4379 -1.1671
 6621TIP3    H244059   0.192   3.302   3.627 -0.1426  0.2833 -1.6000
 6622TIP3   OH244060   2.317   6.253   3.509 -0.0177 -0.5590  0.7090
 6622TIP3    H144061   2.272   6.284   3.430 -0.6326 -1.0865  0.8542
 6622TIP3    H244062   2.382   6.191   3.476  1.5214  1.1458  0.3673
 6623TIP3   OH244063   0.276   0.866   3.794 -0.0167  0.6492  0.1219
 6623TIP3    H144064   0.264   0.791   3.853  0.6725 -0.0954 -0.6713
 6623TIP3    H244065   0.219   0.934   3.831 -0.1349 -0.0304  1.2430
 6624TIP3   OH244066   2.495   4.954   3.454  0.7628  0.0257  0.0251
 6624TIP3    H144067   2.518   4.893   3.524  1.2897 -0.6372 -0.7092
 6624TIP3    H244068   2.477   5.036   3.499 -0.3889 -0.7601  1.0808
 6625TIP3   OH244069   0.778   2.114   5.357 -0.6439 -0.7148  0.3861
 6625TIP3    H144070   0.691   2.098   5.393 -0.9204 -2.0640 -0.7793
 6625TIP3    H244071   0.830   2.040   5.388 -0.4408 -0.9629 -0.5078
 6626TIP3   OH244072   3.525   6.492   3.655  0.1850 -0.0787  0.2801
 6626TIP3    H144073   3.594   6.484   3.589  1.1733 -1.1917  1.3892
 6626TIP3    H244074   3.482   6.575   3.634 -0.1832 -0.8433 -2.3133
 6627TIP3   OH244075   2.787   1.481   3.657 -0.4064  0.1914  0.2031
 6627TIP3    H144076   2.860   1.446   3.708  0.5561  0.5509 -0.8843
 6627TIP3    H244077   2.790   1.575   3.673  0.1224  0.3523 -0.7467
 6628TIP3   OH244078   1.064   2.972   2.635  0.7932 -0.3435 -0.1472
 6628TIP3    H144079   1.083   2.904   2.570 -1.0527 -0.5714 -0.4926
 6628TIP3    H244080   1.006   2.930   2.698  1.2500  0.3571  0.7732
 6629TIP3   OH244081   5.140   1.989   4.550 -0.0528 -0.0943 -0.7024
 6629TIP3    H144082   5.052   2.006   4.519 -0.7891 -1.6147  0.4076
 6629TIP3    H244083   5.129   1.922   4.618  1.7885  0.7669  0.5438
 6630TIP3   OH244084   1.121   4.665   2.743  0.9169  0.4077 -0.0104
 6630TIP3    H144085   1.138   4.688   2.834  1.5230  0.0692 -0.0317
 6630TIP3    H244086   1.192   4.604   2.720 -0.9720 -2.0653  0.2556
 6631TIP3   OH244087   3.761   2.393   3.609  0.2375 -0.2989 -0.1210
 6631TIP3    H144088   3.817   2.374   3.534 -1.0446 -1.5373 -0.7943
 6631TIP3    H244089   3.702   2.462   3.578  0.2164 -0.2545  0.0162
 6632TIP3   OH244090   0.943   0.804   2.017 -0.2667 -0.0968  0.2860
 6632TIP3    H144091   0.901   0.726   1.979 -0.6103  0.7553 -1.1433
 6632TIP3    H244092   0.895   0.820   2.098 -1.3715 -0.3416 -0.3011
 6633TIP3   OH244093   4.913   1.547   3.828 -0.1992  0.0587  0.3313
 6633TIP3    H144094   4.911   1.531   3.923  1.1283  1.1586  0.5698
 6633TIP3    H244095   4.822   1.568   3.806 -0.7284 -1.2263  1.1541
 6634TIP3   OH244096   5.796   6.706   5.025 -0.2110  0.5877  0.3747
 6634TIP3    H144097   5.843   6.679   5.104 -0.1276  0.5132  0.2996
 6634TIP3    H244098   5.710   6.736   5.057 -0.5549 -0.3928  0.3978
 6635TIP3   OH244099   6.456   4.647   4.550  0.0554 -0.2825  0.2641
 6635TIP3    H144100   6.533   4.703   4.549  1.3751 -2.0049  0.5369
 6635TIP3    H244101   6.487   4.563   4.583 -1.9515 -1.0401  0.4070
 6636TIP3   OH244102   4.266   3.849   4.030 -0.3268 -0.2819  0.1776
 6636TIP3    H144103   4.206   3.924   4.024  1.3907  1.1286 -0.3500
 6636TIP3    H244104   4.257   3.804   3.946 -1.2340 -0.5862  0.4229
 6637TIP3   OH244105   0.325   2.268   4.116  0.5742 -0.4001 -0.5384
 6637TIP3    H144106   0.322   2.227   4.202  2.3853 -0.5610 -0.5065
 6637TIP3    H244107   0.331   2.362   4.134 -0.9637 -0.2698 -0.5614
 6638TIP3   OH244108   6.801   4.506   4.364 -0.2629  0.1980  0.4186
 6638TIP3    H144109   6.819   4.600   4.363  0.9644 -0.0174 -0.9400
 6638TIP3    H244110   6.711   4.499   4.333 -0.4148  0.9292  0.6709
 6639TIP3   OH244111   2.981   5.764   3.977  0.2345 -0.0762 -0.2389
 6639TIP3    H144112   2.912   5.701   3.955 -0.2654  0.2052  0.4991
 6639TIP3    H244113   3.048   5.750   3.910  0.6097 -2.0989  0.5033
 6640TIP3   OH244114   1.672   6.166   1.935  0.1613  0.4281  0.2722
 6640TIP3    H144115   1.738   6.117   1.884 -1.3175 -0.8864 -0.4584
 6640TIP3    H244116   1.591   6.118   1.921 -0.9677  1.9936  1.1861
 6641TIP3   OH244117   5.361   1.812   4.280 -0.5584 -0.4083  0.4447
 6641TIP3    H144118   5.372   1.882   4.345  0.5158 -0.1094 -0.0332
 6641TIP3    H244119   5.291   1.844   4.223  0.9563  1.0492 -0.6999
 6642TIP3   OH244120   1.594   4.154   3.035 -0.4048 -0.1870  0.2872
 6642TIP3    H144121   1.560   4.205   2.961  2.8461  0.6188 -0.8129
 6642TIP3    H244122   1.589   4.063   3.005 -1.4150 -0.0974  0.1388
 6643TIP3   OH244123   5.170   1.585   3.401  0.5998  0.0208  0.3010
 6643TIP3    H144124   5.219   1.504   3.412  0.6506 -0.2277 -1.5082
 6643TIP3    H244125   5.215   1.632   3.332 -1.2325  0.1124 -0.9152
 6644TIP3   OH244126   5.435   3.512   3.324 -0.2128  0.1333 -0.5181
 6644TIP3    H144127   5.422   3.537   3.232  0.3226  2.3160 -0.0676
 6644TIP3    H244128   5.346   3.500   3.358 -0.5880  2.0127 -0.6909
 6645TIP3   OH244129   5.288   4.593   3.777  0.3620  0.7792 -0.8038
 6645TIP3    H144130   5.287   4.652   3.852 -0.2008 -2.8793  2.4135
 6645TIP3    H244131   5.380   4.566   3.770  0.3017  0.6323 -1.0185
 6646TIP3   OH244132   4.154   5.214   5.100 -1.0531  0.0434  0.0388
 6646TIP3    H144133   4.207   5.141   5.133  0.4346  1.0709  0.0736
 6646TIP3    H244134   4.077   5.216   5.157 -1.1310 -1.4762  0.0342
 6647TIP3   OH244135   6.245   5.771   5.490 -0.1945 -0.1080 -0.0155
 6647TIP3    H144136   6.201   5.734   5.566  2.6346  1.4473  2.6631
 6647TIP3    H244137   6.210   5.860   5.484  1.5265  0.7600  1.4488
 6648TIP3   OH244138   6.158   0.354   4.518 -0.0517  0.5047 -0.1201
 6648TIP3    H144139   6.126   0.347   4.608  2.0077  1.0084  0.6930
 6648TIP3    H244140   6.159   0.264   4.486 -1.8869  0.4340 -0.0842
 6649TIP3   OH244141   1.474   4.071   2.456 -0.1108  0.5197 -0.3332
 6649TIP3    H144142   1.491   4.155   2.499  0.9678  0.1556 -0.0209
 6649TIP3    H244143   1.444   4.014   2.527  0.8078  0.1724 -0.2050
 6650TIP3   OH244144   3.467   1.425   2.914 -0.1795  0.7874 -0.2497
 6650TIP3    H144145   3.447   1.418   3.008  1.0570 -0.2521 -0.0433
 6650TIP3    H244146   3.391   1.387   2.870 -1.2778  2.2891  0.2581
 6651TIP3   OH244147   4.420   5.312   2.506 -0.4013  0.0141  0.1248
 6651TIP3    H144148   4.398   5.219   2.507 -0.1379 -0.0576 -0.3692
 6651TIP3    H244149   4.475   5.325   2.583  0.8598 -0.5765 -0.6352
 6652TIP3   OH244150   2.830   3.470   5.391 -0.1426 -0.4262 -0.4128
 6652TIP3    H144151   2.871   3.545   5.433 -1.2832  0.5411 -0.9917
 6652TIP3    H244152   2.800   3.502   5.307 -0.6426 -1.5416 -0.6807
 6653TIP3   OH244153   4.118   4.066   2.217 -0.4453  0.4339 -0.2268
 6653TIP3    H144154   4.057   4.022   2.158  0.5162 -1.0021 -0.2214
 6653TIP3    H244155   4.152   3.995   2.272  0.9328  1.2406 -0.0020
 6654TIP3   OH244156   2.491   0.589   2.709  0.9798  0.6849  0.1110
 6654TIP3    H144157   2.524   0.527   2.774  1.7135 -0.2728 -1.1368
 6654TIP3    H244158   2.407   0.619   2.745  2.1863  1.6055  2.3565
 6655TIP3   OH244159   5.817   6.117   2.275  0.6574 -0.0994  0.2158
 6655TIP3    H144160   5.806   6.034   2.320 -2.2613  0.0815  0.0093
 6655TIP3    H244161   5.765   6.179   2.325  2.0667  1.4500 -0.1325
 6656TIP3   OH244162   0.540   2.330   4.731 -0.1691  0.7953 -0.3732
 6656TIP3    H144163   0.630   2.340   4.762  0.2955 -1.1857 -0.9375
 6656TIP3    H244164   0.524   2.235   4.733 -1.8795  1.0211 -1.3090
 6657TIP3   OH244165   4.373   1.728   2.354  0.2627 -0.4159  0.0079
 6657TIP3    H144166   4.305   1.675   2.398 -1.0257  0.2726 -1.0779
 6657TIP3    H244167   4.426   1.664   2.307 -0.1170 -0.9123  0.2415
 6658TIP3   OH244168   0.819   4.145   2.222 -0.6277  0.5174  0.0087
 6658TIP3    H144169   0.813   4.233   2.259 -1.4645 -0.2864  1.9451
 6658TIP3    H244170   0.730   4.110   2.230 -0.0834 -0.8644  0.3029
 6659TIP3   OH244171   6.781   4.710   3.381  0.0907  1.1227 -0.3287
 6659TIP3    H144172   6.854   4.751   3.335 -0.0675  2.3611  0.4930
 6659TIP3    H244173   6.718   4.689   3.312  0.7861  0.9356 -0.9261
 6660TIP3   OH244174   6.283   5.361   3.692  0.0644  0.0589  0.0560
 6660TIP3    H144175   6.256   5.297   3.627  1.8525 -0.3195 -0.3477
 6660TIP3    H244176   6.201   5.405   3.717 -0.7479 -0.0805 -2.1026
 6661TIP3   OH244177   6.136   2.547   5.249 -0.0593  0.1364  0.3752
 6661TIP3    H144178   6.097   2.500   5.322  0.6809 -1.4628 -0.2210
 6661TIP3    H244179   6.219   2.503   5.233  0.0626  0.8235 -1.0581
 6662TIP3   OH244180   0.981   0.728   4.318 -0.2627 -0.0538  0.6837
 6662TIP3    H144181   0.951   0.804   4.369  1.3184  0.3816  1.0162
 6662TIP3    H244182   0.966   0.653   4.376 -0.9323  0.1106  0.7358
 6663TIP3   OH244183   0.886   1.138   3.039  0.5011  0.7613 -0.5233
 6663TIP3    H144184   0.886   1.164   2.947  2.1315  0.0148 -0.7638
 6663TIP3    H244185   0.954   1.192   3.079 -1.3875  2.3725  0.6887
 6664TIP3   OH244186   5.621   2.957   3.520  0.0053 -0.0793  0.7855
 6664TIP3    H144187   5.693   2.985   3.577  0.9013  0.5781 -0.5854
 6664TIP3    H244188   5.637   2.864   3.505  2.0756  0.5176 -1.4200
 6665TIP3   OH244189   1.012   6.183   3.804  0.6059 -0.2700 -0.1477
 6665TIP3    H144190   1.048   6.095   3.813 -0.7601 -0.8790 -0.4161
 6665TIP3    H244191   0.922   6.176   3.837  0.2931  0.8916 -0.6939
 6666TIP3   OH244192   5.205   4.028   4.066 -0.0753  0.4617 -0.1811
 6666TIP3    H144193   5.196   3.966   3.994 -1.6062  0.3351  0.0908
 6666TIP3    H244194   5.243   4.106   4.026 -0.0060  0.0548 -0.9219
 6667TIP3   OH244195   3.441   1.100   4.050  0.0705 -0.6267  0.1548
 6667TIP3    H144196   3.537   1.104   4.045  0.0061 -0.2008 -0.7553
 6667TIP3    H244197   3.414   1.056   3.970 -0.5297 -0.2240  0.1266
 6668TIP3   OH244198   1.142   0.135   3.855 -0.4030  0.3899 -0.5185
 6668TIP3    H144199   1.168   0.207   3.798 -1.9054  0.1057 -1.6147
 6668TIP3    H244200   1.196   0.146   3.934  1.4399  1.0241 -1.8075
 6669TIP3   OH244201   0.855   4.680   2.803 -0.0287  0.1807  0.0459
 6669TIP3    H144202   0.851   4.773   2.784  1.0026  0.2912  0.2947
 6669TIP3    H244203   0.945   4.655   2.781 -0.2846 -0.7485 -0.0012
 6670TIP3   OH244204   4.812   3.876   4.019  0.1063 -0.2358  0.5987
 6670TIP3    H144205   4.861   3.796   4.003  0.6091  0.2446 -0.4161
 6670TIP3    H244206   4.720   3.851   4.010  0.2970 -0.4368 -1.1340
 6671TIP3   OH244207   0.890   1.275   2.383 -0.1384  0.2530 -0.1673
 6671TIP3    H144208   0.927   1.244   2.466  1.7638  2.7655  0.0268
 6671TIP3    H244209   0.831   1.346   2.409 -0.8820 -0.0850 -0.8889
 6672TIP3   OH244210   1.508   6.250   3.180  0.4260  0.3563 -0.4791
 6672TIP3    H144211   1.485   6.238   3.272  1.2275 -0.1726 -0.3399
 6672TIP3    H244212   1.601   6.273   3.182  0.1641  1.5672 -1.0816
 6673TIP3   OH244213   5.698   1.862   2.240 -0.6382 -0.0045 -0.2027
 6673TIP3    H144214   5.610   1.855   2.204 -0.3403 -1.0345 -0.7519
 6673TIP3    H244215   5.686   1.852   2.335 -1.0250 -0.9704 -0.3466
 6674TIP3   OH244216   5.058   3.090   5.340  0.1087  0.9523 -0.5347
 6674TIP3    H144217   5.042   3.171   5.291  0.7062  0.6246 -1.2890
 6674TIP3    H244218   5.023   3.021   5.284  1.1830  0.5334 -0.6977
 6675TIP3   OH244219   5.241   0.230   4.189  0.0061 -0.2320 -0.4187
 6675TIP3    H144220   5.209   0.317   4.165  0.8757 -0.2245 -1.6963
 6675TIP3    H244221   5.204   0.171   4.123 -0.7286 -0.8784  0.5453
 6676TIP3   OH244222   6.314   1.101   1.861  0.4951 -0.4537  0.3842
 6676TIP3    H144223   6.267   1.018   1.847 -3.1981  1.4577  0.2119
 6676TIP3    H244224   6.246   1.162   1.889  2.9521  2.6870 -0.0129
 6677TIP3   OH244225   2.992   0.344   3.783  0.1080  0.2490 -0.4119
 6677TIP3    H144226   2.980   0.255   3.817  0.4921  0.1745 -0.4739
 6677TIP3    H244227   2.907   0.366   3.744  0.8929 -1.2694 -3.1848
 6678TIP3   OH244228   2.465   2.244   4.397  0.1948 -0.2079 -0.4116
 6678TIP3    H144229   2.393   2.295   4.432  0.5055 -1.2027  1.8411
 6678TIP3    H244230   2.524   2.309   4.357 -0.9510  0.8163 -0.4754
 6679TIP3   OH244231   3.690   6.119   1.890 -0.2792  0.3275 -0.6771
 6679TIP3    H144232   3.645   6.200   1.863 -0.6516  0.8463  1.2935
 6679TIP3    H244233   3.620   6.053   1.892 -0.2706  0.3117 -0.8548
 6680TIP3   OH244234   1.562   4.675   3.681 -0.4899  0.2984 -0.5437
 6680TIP3    H144235   1.500   4.602   3.674 -0.1759 -0.5469  3.2107
 6680TIP3    H244236   1.647   4.632   3.687 -0.1926  1.0163  0.5828
 6681TIP3   OH244237   5.046   0.091   2.206  0.0691  0.6342  0.4518
 6681TIP3    H144238   5.097   0.141   2.142 -0.4757  0.9282  0.2379
 6681TIP3    H244239   5.022   0.011   2.160 -3.0905  2.1918 -0.9577
 6682TIP3   OH244240   2.031   3.530   3.135 -0.0979  0.1873 -0.1681
 6682TIP3    H144241   2.100   3.594   3.118 -0.2499  0.3047 -0.3539
 6682TIP3    H244242   2.020   3.531   3.230  1.0409 -0.7722 -0.0087
 6683TIP3   OH244243   5.693   5.989   2.656  0.2128 -0.3858 -0.2301
 6683TIP3    H144244   5.614   5.961   2.610 -0.7341  0.2386  0.9379
 6683TIP3    H244245   5.664   6.001   2.747  1.7994 -0.7181  0.3438
 6684TIP3   OH244246   5.321   0.545   2.642  0.0907 -0.1231 -0.5850
 6684TIP3    H144247   5.345   0.452   2.647  0.4996 -0.0968 -1.6384
 6684TIP3    H244248   5.241   0.546   2.589  0.5822  0.1833 -1.3372
 6685TIP3   OH244249   3.809   5.579   3.041 -0.2383  0.4471 -0.7194
 6685TIP3    H144250   3.857   5.594   3.122  0.2938 -2.9757 -0.2318
 6685TIP3    H244251   3.718   5.569   3.068  0.0378 -1.4769 -0.3016
 6686TIP3   OH244252   0.038   6.027   3.684  0.4725  0.6488  0.3541
 6686TIP3    H144253   0.018   6.116   3.713 -1.1900  0.8897 -1.3857
 6686TIP3    H244254  -0.033   6.004   3.625  0.6270 -2.0252  1.0823
 6687TIP3   OH244255   4.761   0.441   4.272 -0.5641  0.0499  0.3206
 6687TIP3    H144256   4.797   0.356   4.298  1.1054  0.2939 -0.9733
 6687TIP3    H244257   4.755   0.491   4.353  1.9838 -0.0910  0.6951
 6688TIP3   OH244258   5.835   5.004   3.425 -0.6557  0.0672  0.2749
 6688TIP3    H144259   5.744   5.032   3.436 -0.9661 -0.4821 -0.8082
 6688TIP3    H244260   5.864   5.046   3.344  0.2356  0.6409  0.8659
 6689TIP3   OH244261   2.120   2.832   3.000  0.2883  0.9465 -0.2494
 6689TIP3    H144262   2.077   2.759   2.955  2.1840 -0.5675  0.2508
 6689TIP3    H244263   2.121   2.902   2.935 -3.2030  1.2654 -0.1551
 6690TIP3   OH244264   0.299   2.375   3.674  0.2142 -0.4177 -0.8427
 6690TIP3    H144265   0.266   2.304   3.618 -0.3127  0.4637 -1.6790
 6690TIP3    H244266   0.296   2.453   3.618  2.1562  0.0171 -0.4063
 6691TIP3   OH244267   6.635   4.081   4.891 -0.0269 -0.0208 -0.4019
 6691TIP3    H144268   6.730   4.066   4.889  0.0055 -0.3725  1.7708
 6691TIP3    H244269   6.596   3.995   4.876 -0.0144  0.0543 -0.8903
 6692TIP3   OH244270   0.728   2.037   2.977 -0.1225 -0.3902  0.1050
 6692TIP3    H144271   0.778   2.118   2.973  0.6138 -0.8071  0.5200
 6692TIP3    H244272   0.648   2.060   3.024  0.8565 -0.2565  1.7897
 6693TIP3   OH244273   1.826   4.356   3.975  0.4367 -0.2546  1.0081
 6693TIP3    H144274   1.781   4.411   4.039  2.1338 -0.0914  2.1545
 6693TIP3    H244275   1.909   4.333   4.018  1.2369 -0.9158 -0.7785
 6694TIP3   OH244276   3.543   6.480   4.372 -0.2667 -0.7925 -0.2775
 6694TIP3    H144277   3.485   6.545   4.331 -0.2923 -0.8730 -0.3710
 6694TIP3    H244278   3.518   6.398   4.331 -0.7130 -0.9734  0.3416
 6695TIP3   OH244279   0.838   1.437   5.337  0.6463 -0.5104 -0.0570
 6695TIP3    H144280   0.922   1.482   5.352  0.4406 -0.6359  1.6838
 6695TIP3    H244281   0.861   1.361   5.284  1.7521 -0.8719  0.8907
 6696TIP3   OH244282   2.868   2.900   4.335  0.1949  0.4209  0.7828
 6696TIP3    H144283   2.938   2.899   4.271  0.9028 -2.0838  1.4933
 6696TIP3    H244284   2.822   2.983   4.319  1.4218  0.7118 -1.7170
 6697TIP3   OH244285   3.274   6.018   1.848 -0.5999 -0.0030  0.9632
 6697TIP3    H144286   3.206   5.961   1.883  0.3178 -0.7037  1.6749
 6697TIP3    H244287   3.356   5.977   1.876  0.1093  2.5067  2.9551
 6698TIP3   OH244288   4.029   5.146   3.898  0.1604 -0.2846 -0.5831
 6698TIP3    H144289   4.034   5.056   3.931  1.0846 -0.2159 -0.5179
 6698TIP3    H244290   3.937   5.157   3.874  0.0626 -1.3042 -0.7390
 6699TIP3   OH244291   4.138   5.826   2.956  0.0806  0.0406 -0.0412
 6699TIP3    H144292   4.153   5.892   3.024 -0.0704  0.2398 -0.1999
 6699TIP3    H244293   4.202   5.847   2.888  0.5982 -0.4890  0.2733
 6700TIP3   OH244294   0.859   1.693   2.276  0.1380  0.0241 -0.2739
 6700TIP3    H144295   0.844   1.780   2.239  0.7632  0.3040  0.1251
 6700TIP3    H244296   0.925   1.654   2.218  0.4477  0.1226  0.0071
 6701TIP3   OH244297   5.185   4.547   3.253  0.3918 -0.1848 -0.0731
 6701TIP3    H144298   5.155   4.549   3.162  1.5227  0.1763 -0.4600
 6701TIP3    H244299   5.216   4.636   3.270  3.0636 -0.9864 -0.3706
 6702TIP3   OH244300   2.026   5.192   4.475 -0.1977  0.2517  0.1097
 6702TIP3    H144301   1.953   5.135   4.451 -0.7587  1.4554 -1.1343
 6702TIP3    H244302   2.004   5.223   4.563 -2.0242  1.8379 -0.8469
 6703TIP3   OH244303   5.078   2.630   4.183 -0.0077  0.2783  0.0861
 6703TIP3    H144304   5.055   2.717   4.151  0.5998 -0.2480 -1.8828
 6703TIP3    H244305   5.149   2.601   4.126  0.7097 -0.9888  1.5506
 6704TIP3   OH244306   2.361   0.272   3.133 -0.1619 -0.3491  0.3715
 6704TIP3    H144307   2.432   0.264   3.070 -0.5214  1.5745 -0.3360
 6704TIP3    H244308   2.282   0.251   3.084 -0.1773 -1.9877  1.0305
 6705TIP3   OH244309   5.742   3.040   2.938  0.0279 -0.2504  0.7100
 6705TIP3    H144310   5.664   3.040   2.994 -0.5983 -0.8721 -0.1384
 6705TIP3    H244311   5.711   3.078   2.856  0.6695 -0.3659  0.4155
 6706TIP3   OH244312   1.345   1.726   3.440  0.2229 -0.5812  0.2323
 6706TIP3    H144313   1.393   1.805   3.466 -1.2608  0.8048 -1.0007
 6706TIP3    H244314   1.268   1.725   3.497 -1.5762  0.8981 -2.0009
 6707TIP3   OH244315   3.441   3.687   2.589  0.5909  0.1351  0.4412
 6707TIP3    H144316   3.353   3.708   2.618  0.9102  0.7029  1.0198
 6707TIP3    H244317   3.449   3.729   2.503 -0.0948 -0.9054 -0.1424
 6708TIP3   OH244318   1.246   6.040   3.266 -0.1849 -0.5087  0.0250
 6708TIP3    H144319   1.257   6.112   3.329  0.2473 -0.4813 -0.0795
 6708TIP3    H244320   1.196   6.078   3.194  2.7716  0.6648 -1.5859
 6709TIP3   OH244321   1.803   3.718   3.998  0.2257 -0.0971 -0.3058
 6709TIP3    H144322   1.714   3.683   3.994 -0.4359  0.9012  2.7661
 6709TIP3    H244323   1.794   3.812   3.984  0.3138  0.4052  2.3184
 6710TIP3   OH244324   2.583   4.621   3.877 -0.8011 -0.3481  0.2475
 6710TIP3    H144325   2.648   4.553   3.896 -1.0747 -0.6193  0.2314
 6710TIP3    H244326   2.624   4.702   3.907  0.2457 -0.2601 -1.2970
 6711TIP3   OH244327   1.387   2.299   2.183 -0.6075  0.0263 -0.1708
 6711TIP3    H144328   1.291   2.297   2.175 -0.5647  1.3148 -1.2809
 6711TIP3    H244329   1.419   2.293   2.093  0.3565  0.0761  0.1568
 6712TIP3   OH244330   2.931   5.535   4.231 -0.4044 -0.3843  0.6576
 6712TIP3    H144331   2.905   5.566   4.318 -1.1635  1.2976 -0.1242
 6712TIP3    H244332   3.006   5.588   4.207 -1.3714  0.5277 -0.4770
 6713TIP3   OH244333   5.565   5.211   4.867 -0.6224  0.6526 -0.0545
 6713TIP3    H144334   5.540   5.210   4.775  0.8900 -0.5543 -0.5115
 6713TIP3    H244335   5.576   5.303   4.889 -2.5791  1.0609 -0.5774
 6714TIP3   OH244336   1.660   3.307   2.475  0.0961  0.4319  0.4485
 6714TIP3    H144337   1.567   3.293   2.493  0.3106  2.2370  3.5969
 6714TIP3    H244338   1.672   3.402   2.480  2.4723  0.1352  2.7551
 6715TIP3   OH244339   3.077   4.364   2.320 -0.3142  0.6116  0.4658
 6715TIP3    H144340   3.102   4.300   2.387  0.5925  1.0965  0.6070
 6715TIP3    H244341   3.154   4.369   2.263 -0.5558  1.2243  0.1919
 6716TIP3   OH244342   2.773   5.273   2.380  0.0606  0.2768 -0.5159
 6716TIP3    H144343   2.743   5.231   2.300 -0.3242  1.0934 -0.8134
 6716TIP3    H244344   2.864   5.296   2.363  0.7820 -1.8146  0.2277
 6717TIP3   OH244345   0.073   0.434   4.693 -0.2063  0.3795  0.1910
 6717TIP3    H144346   0.141   0.369   4.673 -0.6414  0.1092 -0.4095
 6717TIP3    H244347   0.120   0.503   4.739  0.1334 -0.7332  1.6065
 6718TIP3   OH244348   0.074   3.801   4.406  0.0745 -0.0159 -0.6418
 6718TIP3    H144349   0.009   3.781   4.339 -0.3107  0.9331 -0.5669
 6718TIP3    H244350   0.138   3.856   4.361  0.8556 -0.9706 -0.7237
 6719TIP3   OH244351   5.275   6.090   2.369 -0.1497 -0.1241 -0.0989
 6719TIP3    H144352   5.221   6.064   2.294 -0.3392  0.1195 -0.0481
 6719TIP3    H244353   5.280   6.185   2.363 -0.7100 -0.0431  0.5680
 6720TIP3   OH244354   1.669   5.592   3.261  0.2093 -0.5566  0.4461
 6720TIP3    H144355   1.649   5.554   3.175  1.4670  0.0011 -0.1205
 6720TIP3    H244356   1.583   5.612   3.298 -0.3649 -0.5996 -0.7814
 6721TIP3   OH244357   3.012   3.913   3.941  0.0462  0.2569  0.1473
 6721TIP3    H144358   2.938   3.862   3.973  0.4375  0.0189  0.6919
 6721TIP3    H244359   3.005   3.997   3.987  1.0003 -0.3321  1.4197
 6722TIP3   OH244360   2.185   6.729   3.751  0.2494  0.0375 -0.2355
 6722TIP3    H144361   2.260   6.772   3.711 -0.0352  0.0844 -0.7203
 6722TIP3    H244362   2.208   6.636   3.751  0.6157  0.1218  0.2842
 6723TIP3   OH244363   3.879   5.981   4.440 -1.0985  0.0655  0.0445
 6723TIP3    H144364   3.832   5.962   4.521 -0.2356  0.8346  0.7521
 6723TIP3    H244365   3.960   6.023   4.469 -0.2681 -0.6231 -1.1664
 6724TIP3   OH244366   3.314   3.294   4.922  0.2554 -1.0269  0.3685
 6724TIP3    H144367   3.325   3.212   4.972  0.7216 -1.6591 -0.7279
 6724TIP3    H244368   3.299   3.265   4.832 -0.9893  0.0805  0.1867
 6725TIP3   OH244369   2.149   4.391   2.775 -0.0141  0.1533 -0.0320
 6725TIP3    H144370   2.122   4.351   2.693  0.4137  2.3291 -1.3240
 6725TIP3    H244371   2.070   4.435   2.808 -0.1137 -0.4762  0.5936
 6726TIP3   OH244372   2.387   4.179   5.055  0.2546 -0.7340  0.8308
 6726TIP3    H144373   2.392   4.255   5.113 -1.0353 -0.1954  0.2738
 6726TIP3    H244374   2.302   4.188   5.011  1.4547 -0.7688 -1.6372
 6727TIP3   OH244375   4.640   6.284   4.807 -0.3075  0.1781 -0.6352
 6727TIP3    H144376   4.651   6.191   4.786  3.6495  0.5791 -1.0507
 6727TIP3    H244377   4.721   6.308   4.854 -1.2608  3.3874 -0.3994
 6728TIP3   OH244378   2.978   4.775   2.310 -0.4117 -0.2769 -0.4517
 6728TIP3    H144379   3.027   4.733   2.381 -1.1554  0.0877  0.2918
 6728TIP3    H244380   2.890   4.735   2.315 -0.2542 -0.8279 -1.6778
 6729TIP3   OH244381   5.991   3.896   2.283 -0.4099  0.7082 -0.2123
 6729TIP3    H144382   5.924   3.855   2.228 -0.9567  2.0146 -0.5652
 6729TIP3    H244383   6.045   3.823   2.315 -1.0535 -0.2169 -1.1887
 6730TIP3   OH244384   3.280   3.137   4.393  0.2143 -0.4736  0.0392
 6730TIP3    H144385   3.339   3.062   4.381  0.2710 -0.5562  0.7762
 6730TIP3    H244386   3.336   3.214   4.386  0.1997 -0.5046 -0.4630
 6731TIP3   OH244387   2.159   0.583   1.891  0.0530  0.0511 -0.5942
 6731TIP3    H144388   2.192   0.576   1.980 -0.8544 -2.8464 -0.3924
 6731TIP3    H244389   2.225   0.541   1.837 -1.1676 -1.8751 -0.7074
 6732TIP3   OH244390   5.842   1.181   2.788 -0.2228 -0.4177  0.3400
 6732TIP3    H144391   5.909   1.248   2.797  0.4880 -1.2431  1.4599
 6732TIP3    H244392   5.772   1.209   2.847  0.3175 -0.9166  1.2490
 6733TIP3   OH244393   5.499   1.795   2.898  0.1710 -0.3595 -0.5391
 6733TIP3    H144394   5.498   1.841   2.814  0.7580 -0.3856 -0.5690
 6733TIP3    H244395   5.525   1.862   2.961  1.3184 -0.6927 -0.6242
 6734TIP3   OH244396   6.305   2.999   4.095 -0.2753  0.4102 -0.1339
 6734TIP3    H144397   6.221   2.999   4.141  0.0212 -0.1209  0.4264
 6734TIP3    H244398   6.303   2.920   4.041 -0.5072  0.8842 -0.8424
 6735TIP3   OH244399   4.171   2.027   2.823  0.1739  0.4344  0.1895
 6735TIP3    H144400   4.228   1.960   2.862  1.0052  1.3387  0.5941
 6735TIP3    H244401   4.138   1.987   2.743 -0.1993 -0.8456  0.9552
 6736TIP3   OH244402   5.811   1.557   2.538 -0.0851  0.7084  0.4070
 6736TIP3    H144403   5.782   1.480   2.488 -1.3007  0.6052  1.2256
 6736TIP3    H244404   5.888   1.527   2.586  1.0659  0.7804 -1.2874
 6737TIP3   OH244405   6.034   0.808   2.431 -0.6322  0.3027 -0.0752
 6737TIP3    H144406   6.089   0.835   2.504 -1.6448  0.8023  0.5174
 6737TIP3    H244407   6.084   0.738   2.388  1.3012  1.9341 -0.6505
 6738TIP3   OH244408   2.800   5.096   3.838  0.1924 -0.0209  0.5463
 6738TIP3    H144409   2.711   5.115   3.868  0.3568 -0.2675  1.2184
 6738TIP3    H244410   2.828   5.175   3.792  0.2677  0.7639  1.8765
 6739TIP3   OH244411   6.047   0.029   4.232 -0.3043  0.5482 -0.2610
 6739TIP3    H144412   5.953   0.038   4.216 -0.4200  3.3210  1.2744
 6739TIP3    H244413   6.070  -0.055   4.194 -3.7249 -0.9995  0.7100
 6740TIP3   OH244414   6.013   6.014   4.940  0.5961  0.0467  0.0007
 6740TIP3    H144415   6.039   5.977   5.024  0.9960  0.3758  0.0259
 6740TIP3    H244416   6.071   5.973   4.877  1.9739  1.5793  0.1842
 6741TIP3   OH244417   4.651   6.474   3.645 -0.1268 -0.1448 -0.0308
 6741TIP3    H144418   4.628   6.522   3.565 -2.4088 -0.4575  0.3710
 6741TIP3    H244419   4.568   6.442   3.678  1.2171 -4.8888 -0.5389
 6742TIP3   OH244420   2.623   4.616   4.807 -0.4180  0.3167  0.6535
 6742TIP3    H144421   2.556   4.549   4.795  0.4610 -0.4079 -0.4915
 6742TIP3    H244422   2.607   4.651   4.895 -1.4529 -0.7658  0.9252
 6743TIP3   OH244423   0.891   5.882   4.429 -0.3274 -0.4919 -0.0909
 6743TIP3    H144424   0.834   5.892   4.505 -3.4129 -0.5614 -2.1869
 6743TIP3    H244425   0.883   5.965   4.382  0.7899 -0.7645 -0.8102
 6744TIP3   OH244426   5.412   3.090   3.009  0.4203  0.4197 -0.2232
 6744TIP3    H144427   5.365   3.170   2.988 -0.4840 -0.0397  0.0066
 6744TIP3    H244428   5.406   3.083   3.104 -1.7869 -1.2326 -0.3958
 6745TIP3   OH244429   2.113   1.992   3.155 -0.6333  0.2986  0.1424
 6745TIP3    H144430   2.194   1.940   3.160 -0.2307  0.4080 -3.1062
 6745TIP3    H244431   2.044   1.930   3.177 -0.0305 -1.3913 -2.2557
 6746TIP3   OH244432   6.270   2.665   3.036 -0.2946  0.1547  0.1303
 6746TIP3    H144433   6.364   2.657   3.022  0.0400  0.2068  2.0857
 6746TIP3    H244434   6.259   2.745   3.087 -1.2999 -0.2295  0.5639
 6747TIP3   OH244435   3.938   2.277   1.945  0.4483  0.1576  0.0498
 6747TIP3    H144436   3.914   2.305   2.033 -1.5084 -0.0924 -0.3699
 6747TIP3    H244437   4.014   2.331   1.923 -1.5269  3.3108  0.3132
 6748TIP3   OH244438   6.157   3.859   2.831  0.0498 -0.1122 -0.8203
 6748TIP3    H144439   6.119   3.943   2.803  0.1136 -0.3554 -1.6510
 6748TIP3    H244440   6.099   3.793   2.793 -0.9048 -0.4631  1.0909
 6749TIP3   OH244441   4.369   2.645   2.839 -0.3395  0.1890  0.5230
 6749TIP3    H144442   4.288   2.599   2.860 -0.0684 -0.8339 -0.5352
 6749TIP3    H244443   4.425   2.578   2.798  0.6063  1.1380  0.2068
 6750TIP3   OH244444   0.149   5.262   4.588 -0.3619 -0.2584 -0.0064
 6750TIP3    H144445   0.181   5.348   4.616 -1.0886 -0.0792  0.2784
 6750TIP3    H244446   0.196   5.245   4.506 -1.6412  1.2954 -1.1103
 6751TIP3   OH244447   3.473   6.583   5.292  0.0148  0.3509 -0.8503
 6751TIP3    H144448   3.461   6.674   5.319  1.8825 -0.0836  1.8640
 6751TIP3    H244449   3.436   6.532   5.363  1.7908 -0.9521 -0.7980
 6752TIP3   OH244450   1.595   5.774   3.627 -0.4448 -0.3780 -0.4065
 6752TIP3    H144451   1.533   5.807   3.562 -0.6694 -0.5975 -0.3050
 6752TIP3    H244452   1.542   5.718   3.684 -0.3768  0.3010  0.3320
 6753TIP3   OH244453   5.835   1.683   2.045  0.0987  0.2707 -0.7438
 6753TIP3    H144454   5.802   1.733   2.120 -0.8877  1.1648 -1.7357
 6753TIP3    H244455   5.774   1.703   1.974  0.0229 -1.8701 -1.3591
 6754TIP3   OH244456   3.231   5.217   4.218 -0.1061  0.2934  0.2985
 6754TIP3    H144457   3.257   5.165   4.294  1.8101  0.3321 -0.2750
 6754TIP3    H244458   3.161   5.166   4.177 -0.3339 -0.3143  1.4084
 6755TIP3   OH244459   0.077   6.444   4.335 -0.0943  0.0431  0.0869
 6755TIP3    H144460   0.098   6.517   4.278  2.6684 -0.6938  0.0422
 6755TIP3    H244461   0.157   6.392   4.340 -1.0833 -1.4727  2.3591
 6756TIP3   OH244462   4.074   1.656   3.495 -0.3087  0.1834  0.6417
 6756TIP3    H144463   4.062   1.743   3.534 -0.6747  0.3643  0.1405
 6756TIP3    H244464   4.136   1.612   3.553  0.6099  1.1106  0.3985
 6757TIP3   OH244465   2.812   3.218   4.015 -0.3662 -0.1154  0.0314
 6757TIP3    H144466   2.795   3.209   4.109 -0.1779  0.6714  0.1538
 6757TIP3    H244467   2.808   3.129   3.981  1.6712 -0.6974  1.1446
 6758TIP3   OH244468   1.309   6.375   3.045 -0.2764 -0.5486 -0.2732
 6758TIP3    H144469   1.380   6.345   3.102  0.1095 -0.7759 -0.8585
 6758TIP3    H244470   1.354   6.414   2.970 -0.7415  1.6372  0.4992
 6759TIP3   OH244471   4.191   2.264   3.348  0.1014 -0.2988 -0.0845
 6759TIP3    H144472   4.227   2.349   3.323 -4.2804  1.5158 -1.0815
 6759TIP3    H244473   4.222   2.204   3.280  1.0919  1.0655 -0.8880
 6760TIP3   OH244474   0.477   0.861   2.919  0.1916 -0.2051 -0.6474
 6760TIP3    H144475   0.512   0.868   3.008 -1.7974 -0.8719  0.2420
 6760TIP3    H244476   0.479   0.951   2.886 -2.6013  0.8173  1.5826
 6761TIP3   OH244477   3.863   3.336   2.176  0.5810 -0.0656 -0.1364
 6761TIP3    H144478   3.899   3.319   2.263  1.3939 -0.0637 -0.4604
 6761TIP3    H244479   3.927   3.394   2.134 -0.7528  1.5534 -0.0545
 6762TIP3   OH244480   4.712   5.032   3.672  0.2380 -0.6857 -0.2225
 6762TIP3    H144481   4.752   5.013   3.587  0.9029 -0.4404  0.0364
 6762TIP3    H244482   4.623   4.997   3.664 -0.1427  0.4995 -1.4861
 6763TIP3   OH244483   2.969   3.938   4.883 -0.3719 -0.2820 -0.3252
 6763TIP3    H144484   2.876   3.927   4.904 -0.6580  0.6852 -1.0452
 6763TIP3    H244485   2.970   3.988   4.802  0.7890 -0.1476 -0.2483
 6764TIP3   OH244486   3.912   2.392   3.096  0.3632  0.4197 -0.4761
 6764TIP3    H144487   3.900   2.352   3.009  1.7347  0.6787 -0.8063
 6764TIP3    H244488   3.925   2.318   3.155 -2.1600  0.1373 -0.1572
 6765TIP3   OH244489   5.715   4.602   2.272 -0.0634 -0.2697  0.1673
 6765TIP3    H144490   5.732   4.532   2.335  3.7022  0.4731  0.1634
 6765TIP3    H244491   5.624   4.587   2.244 -0.9934 -2.2121  3.6855
 6766TIP3   OH244492   5.201   6.294   5.904 -0.3365 -0.1306  0.2529
 6766TIP3    H144493   5.174   6.348   5.979 -0.7042  0.3510 -0.2190
 6766TIP3    H244494   5.286   6.258   5.930 -1.5474 -1.9728  1.9282
 6767TIP3   OH244495   1.786   0.622   4.711  0.4000 -0.5285  0.0334
 6767TIP3    H144496   1.735   0.545   4.686 -0.0835 -0.1150 -0.2696
 6767TIP3    H244497   1.840   0.593   4.784  0.9678 -1.4448 -0.7187
 6768TIP3   OH244498   0.755   2.257   3.257  0.3305  0.4271 -0.0024
 6768TIP3    H144499   0.737   2.327   3.320  1.6258  0.5252  0.2854
 6768TIP3    H244500   0.812   2.298   3.191  1.7238 -0.5055  0.5717
 6769TIP3   OH244501   4.934   5.048   3.470  0.5374 -0.0595  0.1581
 6769TIP3    H144502   4.970   5.085   3.389  0.7553  0.2224  0.3854
 6769TIP3    H244503   4.926   5.122   3.530 -0.3203 -0.1419  0.1497
 6770TIP3   OH244504   1.603   2.395   5.387  0.2921  0.0921 -0.6954
 6770TIP3    H144505   1.544   2.470   5.392  0.2649  0.2113 -2.1570
 6770TIP3    H244506   1.685   2.431   5.352  0.1766 -0.5845 -1.7208
 6771TIP3   OH244507   4.507   1.155   4.046  0.5461 -0.0893 -0.3193
 6771TIP3    H144508   4.559   1.138   3.967  0.4273  2.3155 -0.9846
 6771TIP3    H244509   4.423   1.110   4.029  1.1604 -1.1160 -0.7397
 6772TIP3   OH244510   4.402   1.231   2.819 -0.3012 -0.2887 -0.9827
 6772TIP3    H144511   4.446   1.152   2.786  0.3372 -0.2069 -0.3612
 6772TIP3    H244512   4.316   1.230   2.778 -0.3815 -1.4321 -0.8155
 6773TIP3   OH244513   1.813   3.764   4.740  0.0847  0.1337 -0.6774
 6773TIP3    H144514   1.839   3.778   4.831 -1.6683 -0.3872 -0.0508
 6773TIP3    H244515   1.893   3.735   4.696  0.6074 -1.3027  1.0931
 6774TIP3   OH244516   6.520   0.304   2.342  0.3525 -0.1919 -0.7085
 6774TIP3    H144517   6.458   0.264   2.403  1.6746  2.0773  2.3979
 6774TIP3    H244518   6.591   0.240   2.335  0.6832 -0.0716  1.1072
 6775TIP3   OH244519   4.438   2.479   4.178 -0.3097  0.0697  0.2049
 6775TIP3    H144520   4.476   2.435   4.254 -0.3676  0.2100  0.3147
 6775TIP3    H244521   4.510   2.529   4.141 -0.3240  0.1392  0.2697
 6776TIP3   OH244522   1.187   5.629   3.182  0.7277  0.1583  0.2750
 6776TIP3    H144523   1.200   5.625   3.087 -0.4802 -0.0841  0.1097
 6776TIP3    H244524   1.129   5.704   3.195  2.9720  1.8796  1.0931
 6777TIP3   OH244525   2.314   1.788   3.137  0.0911 -0.4263  0.4600
 6777TIP3    H144526   2.325   1.699   3.104 -0.6782 -0.3841  0.0647
 6777TIP3    H244527   2.370   1.842   3.081  0.8150 -0.6932  0.9090
 6778TIP3   OH244528   6.000   6.476   4.946  0.0280  0.1757 -0.4456
 6778TIP3    H144529   5.973   6.529   5.021  0.3914  0.3405 -0.4294
 6778TIP3    H244530   6.049   6.404   4.985  0.0710  0.1695 -0.5114
 6779TIP3   OH244531   0.158   4.832   2.326  0.4733 -0.1774  0.4285
 6779TIP3    H144532   0.103   4.889   2.378  0.0388  0.8366 -1.0815
 6779TIP3    H244533   0.097   4.774   2.280  0.6894  0.4468 -0.6705
 6780TIP3   OH244534   5.029   5.246   3.268 -0.3915  0.0870  0.4469
 6780TIP3    H144535   5.117   5.227   3.302 -0.2656 -0.4953 -0.1697
 6780TIP3    H244536   4.995   5.315   3.325  1.6960  2.6649 -1.2118
 6781TIP3   OH244537   3.227   3.156   2.928 -0.1787 -0.2626 -0.0954
 6781TIP3    H144538   3.305   3.199   2.962  0.2747 -1.3252  0.2579
 6781TIP3    H244539   3.160   3.169   2.995 -0.3802  0.8425 -0.4992
 6782TIP3   OH244540   5.515   3.835   3.100  0.5603 -0.1485 -0.2803
 6782TIP3    H144541   5.588   3.778   3.077 -0.4608 -0.8516 -1.9044
 6782TIP3    H244542   5.525   3.850   3.194  2.4652 -0.6632 -0.3744
 6783TIP3   OH244543   2.001   2.533   4.537  0.2181  0.3921  0.0463
 6783TIP3    H144544   1.972   2.454   4.582  2.2973 -0.4603 -0.0185
 6783TIP3    H244545   1.999   2.511   4.444 -2.0361  1.4597 -0.2357
 6784TIP3   OH244546   5.405   5.598   4.466 -0.7076 -0.3820 -0.5709
 6784TIP3    H144547   5.356   5.517   4.485 -0.9131 -0.2761 -0.6482
 6784TIP3    H244548   5.344   5.651   4.414 -0.0338 -0.8082 -1.8308
 6785TIP3   OH244549   5.949   2.744   5.188  0.2310 -0.2494 -0.4004
 6785TIP3    H144550   5.973   2.810   5.252 -0.6167  1.8050 -2.0778
 6785TIP3    H244551   6.013   2.674   5.200  1.7523  1.2876  0.8398
 6786TIP3   OH244552   0.370   5.263   3.480  0.3783  0.2744  0.1508
 6786TIP3    H144553   0.452   5.230   3.442 -0.8443  0.6018 -3.0562
 6786TIP3    H244554   0.366   5.355   3.452 -1.2148  0.1697 -0.0626
 6787TIP3   OH244555   1.957   2.704   4.006 -0.5039 -0.4452 -0.6714
 6787TIP3    H144556   2.023   2.640   3.977  0.4968 -1.7322  3.6696
 6787TIP3    H244557   1.993   2.789   3.981  1.0577 -1.3177 -1.5357
 6788TIP3   OH244558   0.745   3.115   2.689  0.5920 -0.4340  1.0547
 6788TIP3    H144559   0.685   3.047   2.719 -0.9430  0.6946  0.6703
 6788TIP3    H244560   0.690   3.192   2.678  1.9561  0.4116 -0.1994
 6789TIP3   OH244561   6.235   4.427   4.237  0.2057 -0.0521 -0.4573
 6789TIP3    H144562   6.224   4.367   4.164 -2.5717  0.4660 -0.5596
 6789TIP3    H244563   6.249   4.513   4.196 -0.4711  0.0994 -0.3726
 6790TIP3   OH244564   1.313   4.800   4.598  0.5820  0.8581  0.3009
 6790TIP3    H144565   1.380   4.743   4.559  0.0168  1.1010 -1.0801
 6790TIP3    H244566   1.351   4.888   4.593  1.4619  0.6566  2.4494
 6791TIP3   OH244567   0.002   1.569   4.318 -0.7545 -0.8476  0.2461
 6791TIP3    H144568   0.006   1.662   4.296 -0.1387 -0.3526  2.2494
 6791TIP3    H244569  -0.090   1.545   4.306 -0.8426 -0.0998 -0.6721
 6792TIP3   OH244570   3.014   5.205   4.611  0.3158  0.1606 -0.1031
 6792TIP3    H144571   2.989   5.285   4.657  2.7158  0.3936  0.9507
 6792TIP3    H244572   3.060   5.153   4.677  2.5099 -0.2057 -1.8010
 6793TIP3   OH244573   2.701   5.972   2.217 -0.8741 -0.1851 -0.1532
 6793TIP3    H144574   2.674   6.053   2.260 -1.6436 -0.7438  0.4271
 6793TIP3    H244575   2.635   5.908   2.242 -1.2100 -0.5904 -1.9679
 6794TIP3   OH244576   4.867   6.420   4.957  0.4593  0.5766  0.4349
 6794TIP3    H144577   4.928   6.360   4.998  1.6314 -1.6442 -3.9395
 6794TIP3    H244578   4.916   6.459   4.884 -2.7214 -0.0609 -2.3025
 6795TIP3   OH244579   6.533   5.512   4.266 -0.2458  0.1616  0.0399
 6795TIP3    H144580   6.567   5.599   4.245  0.7285 -0.2852 -0.2699
 6795TIP3    H244581   6.507   5.518   4.358 -0.1282  0.7603  0.0370
 6796TIP3   OH244582   0.359   4.529   2.107  0.3609  0.3198  0.1019
 6796TIP3    H144583   0.337   4.613   2.067 -0.7347  0.4554  0.9582
 6796TIP3    H244584   0.455   4.529   2.112  0.4483  0.8748 -1.2478
 6797TIP3   OH244585   1.450   6.057   5.459 -0.0445 -0.8779 -0.3894
 6797TIP3    H144586   1.462   6.044   5.553  0.1966 -2.9058 -0.6539
 6797TIP3    H244587   1.375   6.116   5.452 -0.1218 -0.7676  1.0646
 6798TIP3   OH244588   1.276   5.280   4.721 -0.2837  0.3934  0.0924
 6798TIP3    H144589   1.248   5.189   4.734  0.9577 -0.0484 -0.1683
 6798TIP3    H244590   1.195   5.327   4.700 -0.9145 -0.6960 -0.0052
 6799TIP3   OH244591   4.287   3.447   2.606  0.5845 -0.1073  0.1701
 6799TIP3    H144592   4.208   3.460   2.555  0.4829  1.1561  0.6258
 6799TIP3    H244593   4.338   3.382   2.556 -0.3619 -0.3248 -0.5281
 6800TIP3   OH244594   4.089   2.881   4.763 -0.2663  0.0185 -0.0485
 6800TIP3    H144595   4.099   2.785   4.766 -1.4644 -0.1414 -0.5716
 6800TIP3    H244596   4.016   2.895   4.703 -0.8374  1.2126  0.8944
 6801TIP3   OH244597   2.356   1.518   2.177 -0.4106  0.0092  0.2438
 6801TIP3    H144598   2.358   1.570   2.257  1.6976 -0.2978  0.4615
 6801TIP3    H244599   2.421   1.560   2.120  0.2999 -1.5149 -0.1194
 6802TIP3   OH244600   4.768   0.197   2.888 -0.4258  0.7344  0.9526
 6802TIP3    H144601   4.800   0.187   2.977 -0.7140  0.4531  1.0299
 6802TIP3    H244602   4.838   0.164   2.832 -0.7484 -0.3011  1.1392
 6803TIP3   OH244603   5.400   6.161   4.675 -0.5461 -0.0601  0.0920
 6803TIP3    H144604   5.488   6.145   4.641 -0.4175  0.8195 -0.0207
 6803TIP3    H244605   5.377   6.080   4.722 -0.1741 -0.7566 -0.8983
 6804TIP3   OH244606   0.330   6.461   3.123  0.4000  0.2314 -0.0865
 6804TIP3    H144607   0.252   6.480   3.176  1.5937  2.5666  1.0235
 6804TIP3    H244608   0.298   6.411   3.048 -1.7669 -0.9249  1.5223
 6805TIP3   OH244609   5.847   0.143   2.232 -0.1713  0.1696  0.1465
 6805TIP3    H144610   5.861   0.237   2.248  0.2561 -0.1107  1.5837
 6805TIP3    H244611   5.765   0.139   2.183  0.3134  1.3507 -0.8118
 6806TIP3   OH244612   3.649   2.736   4.447 -0.3157 -0.2299  0.2511
 6806TIP3    H144613   3.585   2.772   4.508 -0.5028  1.8058 -1.0634
 6806TIP3    H244614   3.616   2.648   4.427 -2.1115  0.3565  0.4680
 6807TIP3   OH244615   4.703   4.864   3.219 -0.0028 -0.5492 -0.1315
 6807TIP3    H144616   4.701   4.960   3.221  2.3926 -0.4387  0.8530
 6807TIP3    H244617   4.761   4.840   3.292 -0.2400 -2.7294 -0.6017
 6808TIP3   OH244618   1.320   4.685   3.205  0.2016 -0.0505 -0.0795
 6808TIP3    H144619   1.266   4.628   3.260  0.9319 -1.5187 -0.8493
 6808TIP3    H244620   1.407   4.683   3.245  0.2947  0.3413 -0.2529
 6809TIP3   OH244621   5.681   5.076   3.775 -0.6404 -0.1395  0.2959
 6809TIP3    H144622   5.669   5.126   3.694 -1.7863  0.1737  0.6460
 6809TIP3    H244623   5.652   5.135   3.844 -1.4358 -1.0711  0.7737
 6810TIP3   OH244624   5.667   1.258   4.508 -0.0165 -0.2569  0.2772
 6810TIP3    H144625   5.574   1.236   4.514 -0.0171  0.0028  1.6061
 6810TIP3    H244626   5.668   1.345   4.469 -0.2687 -0.6484 -0.6278
 6811TIP3   OH244627   4.244   2.288   2.887  0.8462  0.0060  0.1040
 6811TIP3    H144628   4.227   2.200   2.854  1.5717 -1.1804  2.6596
 6811TIP3    H244629   4.214   2.346   2.817  1.8876 -2.2479 -2.3997
 6812TIP3   OH244630   4.973   1.861   2.742  0.0787 -0.4862  0.1065
 6812TIP3    H144631   4.961   1.795   2.810 -1.7050  1.3723  1.7433
 6812TIP3    H244632   5.011   1.814   2.669  2.0642 -2.6345  2.3389
 6813TIP3   OH244633   3.253   5.235   2.252 -0.1469  0.2279 -0.8027
 6813TIP3    H144634   3.303   5.154   2.262  1.1371  0.9583 -1.0948
 6813TIP3    H244635   3.284   5.272   2.169 -0.6372  1.0671 -0.6214
 6814TIP3   OH244636   4.221   6.133   2.849 -0.4101 -0.2655 -0.5402
 6814TIP3    H144637   4.130   6.121   2.822 -0.8420 -1.2756  1.1965
 6814TIP3    H244638   4.260   6.046   2.843 -0.5078 -0.5338  1.8242
 6815TIP3   OH244639   2.047   3.929   2.195  0.5396 -0.4155  0.0476
 6815TIP3    H144640   2.061   3.858   2.257  0.0922  0.0328  0.6681
 6815TIP3    H244641   1.999   3.887   2.122 -0.0328 -0.6813  0.5657
 6816TIP3   OH244642   3.352   4.704   4.140  0.6876 -0.2513  0.2896
 6816TIP3    H144643   3.321   4.753   4.063 -1.1996 -2.3301 -0.3866
 6816TIP3    H244644   3.445   4.724   4.146  0.5395  1.2307 -1.5690
 6817TIP3   OH244645   4.016   6.446   1.827  0.3880  0.0684  0.0064
 6817TIP3    H144646   4.009   6.351   1.824  1.2883  0.0215 -0.9029
 6817TIP3    H244647   3.930   6.477   1.797 -0.1152 -0.4327  0.8729
 6818TIP3   OH244648   5.935   6.180   4.149  0.1331  0.7460  0.0216
 6818TIP3    H144649   5.977   6.170   4.235  0.0055  0.9550  0.1104
 6818TIP3    H244650   5.851   6.135   4.159  0.7896 -0.6306 -0.5019
 6819TIP3   OH244651   4.241   3.350   3.944 -0.3589  0.0641  0.1509
 6819TIP3    H144652   4.326   3.372   3.982 -1.0026  1.9656  0.6121
 6819TIP3    H244653   4.254   3.359   3.850  0.2182 -0.7064  0.1518
 6820TIP3   OH244654   0.056   4.241   2.064 -0.2293  0.0509 -0.5414
 6820TIP3    H144655   0.134   4.242   2.121 -0.8139  2.4853  0.3563
 6820TIP3    H244656   0.087   4.278   1.981 -0.4866  1.5004 -0.0190
 6821TIP3   OH244657   0.765   6.460   2.670 -0.4264  0.0903 -0.0636
 6821TIP3    H144658   0.745   6.538   2.617  2.5999 -0.2314 -1.9122
 6821TIP3    H244659   0.845   6.483   2.717 -0.2987 -1.4092  0.5049
 6822TIP3   OH244660   3.788   4.335   2.201 -0.0694 -0.3281 -0.3107
 6822TIP3    H144661   3.773   4.323   2.294  0.1500 -0.5524 -0.3007
 6822TIP3    H244662   3.883   4.334   2.192 -0.0844 -1.9758 -0.7268
 6823TIP3   OH244663   0.157   1.940   2.384  0.1961  0.5689  0.2470
 6823TIP3    H144664   0.165   1.937   2.289  3.2996  0.0727  0.4051
 6823TIP3    H244665   0.063   1.933   2.401 -0.3846 -0.2124 -2.7371
 6824TIP3   OH244666   3.996   4.809  12.777  0.2156  0.1316 -0.0902
 6824TIP3    H144667   4.058   4.794  12.848  1.0695  1.5055 -0.4891
 6824TIP3    H244668   3.916   4.837  12.821  0.4989  0.2356  0.3707
 6825TIP3   OH244669   2.385   1.180   2.772  0.0644  0.4402  0.1346
 6825TIP3    H144670   2.374   1.194   2.678  0.6616 -1.5844 -0.2666
 6825TIP3    H244671   2.351   1.092   2.788  0.1065  0.6894  1.8034
 6826TIP3   OH244672   5.510   5.768   3.183  0.4882 -0.0610  0.1735
 6826TIP3    H144673   5.515   5.725   3.268 -2.6184  0.9158  0.9686
 6826TIP3    H244674   5.485   5.698   3.122 -0.6963 -0.1516  0.7395
 6827TIP3   OH244675   6.294   1.489   3.681  0.2128  0.3430  0.0802
 6827TIP3    H144676   6.374   1.471   3.632  0.2471  1.4426 -0.2823
 6827TIP3    H244677   6.324   1.514   3.769  0.1883 -0.7375  0.4097
 6828TIP3   OH244678   3.298   6.026   4.019  0.1271 -0.2036  0.7513
 6828TIP3    H144679   3.362   5.960   4.048  0.3830 -0.2240  0.1470
 6828TIP3    H244680   3.328   6.053   3.932 -0.5450 -0.0257  0.5665
 6829TIP3   OH244681   3.839   5.579   4.398  0.9969 -0.4335 -0.8783
 6829TIP3    H144682   3.777   5.651   4.386 -0.1703 -0.9051  1.6520
 6829TIP3    H244683   3.894   5.581   4.320 -0.2278  1.9682 -1.7676
 6830TIP3   OH244684   1.804   4.181   4.240 -0.0582  0.1576  0.0841
 6830TIP3    H144685   1.824   4.101   4.290  0.5488 -0.0296 -0.4530
 6830TIP3    H244686   1.841   4.166   4.154  0.3090  1.1380  0.0562
 6831TIP3   OH244687   6.689   0.525   2.852  0.0407 -0.3722  0.9814
 6831TIP3    H144688   6.736   0.604   2.830 -2.2572  0.3732 -1.8390
 6831TIP3    H244689   6.721   0.459   2.790 -0.3594 -0.7360  1.1549
 6832TIP3   OH244690   0.084   0.909   3.125 -1.3202 -0.3130  0.1993
 6832TIP3    H144691   0.103   0.997   3.091  1.5056 -0.6526  0.6911
 6832TIP3    H244692  -0.011   0.901   3.116 -1.6155  2.5506 -0.4139
 6833TIP3   OH244693   5.801   3.948   2.926 -0.3616  0.0168 -0.2114
 6833TIP3    H144694   5.867   3.976   2.862  0.0439  0.4296  0.3820
 6833TIP3    H244695   5.721   3.994   2.899  0.4354  2.3352  1.1184
 6834TIP3   OH244696   0.191   3.612   4.824  0.4742 -0.2489  0.4409
 6834TIP3    H144697   0.118   3.658   4.782  0.0792 -0.8400  0.4640
 6834TIP3    H244698   0.150   3.542   4.874  1.1596 -1.8938 -1.1925
 6835TIP3   OH244699   5.333   1.834   2.622 -0.3360 -0.3523  0.5047
 6835TIP3    H144700   5.409   1.782   2.598  0.5135  1.1466 -0.2289
 6835TIP3    H244701   5.258   1.786   2.588  0.4817 -0.6501 -0.9318
 6836TIP3   OH244702   6.398   5.681   2.816 -0.3854  0.3690  0.0148
 6836TIP3    H144703   6.391   5.588   2.793 -1.4828  0.6292 -0.8267
 6836TIP3    H244704   6.447   5.682   2.898  0.1501 -0.9124 -0.2582
 6837TIP3   OH244705   1.752   0.746   1.957 -0.1944 -0.0267 -0.5227
 6837TIP3    H144706   1.688   0.810   1.927 -0.5869 -0.7801 -1.3389
 6837TIP3    H244707   1.763   0.686   1.883 -0.2218 -1.2095  0.3995
 6838TIP3   OH244708   3.879   3.109   3.520 -0.1795 -0.4190  0.5581
 6838TIP3    H144709   3.794   3.145   3.493  1.2961  3.2783  0.2557
 6838TIP3    H244710   3.928   3.099   3.438 -0.5701 -3.5649  0.6158
 6839TIP3   OH244711   6.745   4.762   3.812  0.3336  0.7240  0.4722
 6839TIP3    H144712   6.803   4.769   3.888  2.3139 -0.3242 -0.8283
 6839TIP3    H244713   6.742   4.669   3.793 -1.1858  0.8463  0.0155
 6840TIP3   OH244714   3.002   5.848   4.482  0.0616 -0.0655 -0.4649
 6840TIP3    H144715   3.017   5.824   4.573 -2.2159  0.7030  0.1580
 6840TIP3    H244716   2.960   5.771   4.443  0.7045 -0.2569 -0.8085
 6841TIP3   OH244717   2.533   0.874   2.715  0.1118 -0.1793  0.5789
 6841TIP3    H144718   2.486   0.863   2.797  1.9011 -1.1346  1.5410
 6841TIP3    H244719   2.535   0.786   2.677  2.4133 -0.5335  1.3627
 6842TIP3   OH244720   4.603   2.323   3.979 -0.6971  0.3842 -0.4263
 6842TIP3    H144721   4.542   2.250   3.968 -1.3973  0.7373  0.8248
 6842TIP3    H244722   4.677   2.286   4.027 -2.1729  0.9384  2.5204
 6843TIP3   OH244723   3.155   1.812   2.771  0.6386 -0.6322  0.0749
 6843TIP3    H144724   3.189   1.902   2.772  0.1156 -0.4351  0.8184
 6843TIP3    H244725   3.133   1.794   2.862 -0.8363 -0.9033 -0.3064
 6844TIP3   OH244726   4.770   6.802   3.223  0.4506  0.4409  0.2652
 6844TIP3    H144727   4.783   6.785   3.316  0.7450  1.8398  0.4984
 6844TIP3    H244728   4.790   6.895   3.212 -0.7964  0.5997 -0.9746
 6845TIP3   OH244729   1.826   3.120   2.744  0.2049  0.4997  0.1019
 6845TIP3    H144730   1.870   3.182   2.802 -1.3130  1.6270  0.1066
 6845TIP3    H244731   1.734   3.142   2.750 -0.0719  0.3808 -2.4177
 6846TIP3   OH244732   2.340   5.993   3.167 -0.2260 -0.7177 -0.0889
 6846TIP3    H144733   2.371   6.024   3.252  0.2159 -3.2854  0.7742
 6846TIP3    H244734   2.245   6.001   3.171 -0.2316 -1.1214  0.7838
 6847TIP3   OH244735   3.916   2.673   3.067  0.4317 -0.3402  0.1216
 6847TIP3    H144736   3.889   2.582   3.075  2.8600 -1.0632  1.1357
 6847TIP3    H244737   3.885   2.700   2.981 -1.6554 -1.5957  0.4046
 6848TIP3   OH244738   5.531   5.167   4.616 -0.7915 -0.9949  0.4094
 6848TIP3    H144739   5.540   5.205   4.529  1.5170  0.5899  1.2113
 6848TIP3    H244740   5.591   5.092   4.616 -0.3515 -0.6521  0.7722
 6849TIP3   OH244741   2.085   5.123   1.807  0.6261 -0.1348  0.5002
 6849TIP3    H144742   2.043   5.176   1.875  1.9107  0.9420  0.4958
 6849TIP3    H244743   2.031   5.138   1.729  1.9102  2.6953  0.0100
 6850TIP3   OH244744   4.828   6.635   3.793 -0.7878 -0.8567 -0.1032
 6850TIP3    H144745   4.893   6.571   3.764  0.2405  0.6232 -1.2021
 6850TIP3    H244746   4.744   6.595   3.771 -0.2256 -2.3070  0.2882
 6851TIP3   OH244747   2.148   5.932   5.531  0.1713  0.4114  0.2797
 6851TIP3    H144748   2.082   5.875   5.571 -0.1425  0.8432  0.3915
 6851TIP3    H244749   2.186   5.980   5.605 -0.7030  1.5192  0.0490
 6852TIP3   OH244750   0.801   4.778   3.061  0.2993 -0.6112  0.0483
 6852TIP3    H144751   0.827   4.772   2.969  0.4904  1.6845 -0.1050
 6852TIP3    H244752   0.872   4.733   3.108  0.0941 -1.9985 -0.8826
 6853TIP3   OH244753   0.827   0.968   4.757  0.4214  0.1350 -0.4717
 6853TIP3    H144754   0.842   0.901   4.690 -0.4650  0.0833 -0.6324
 6853TIP3    H244755   0.914   0.991   4.788  0.8062 -0.2680 -1.2304
 6854TIP3   OH244756   1.492   1.600   1.766  0.2919  0.2166  0.3345
 6854TIP3    H144757   1.492   1.516   1.812 -1.6581  0.4141  0.7992
 6854TIP3    H244758   1.462   1.579   1.678 -0.2125  0.4236  0.4556
 6855TIP3   OH244759   1.843   2.338   2.775  0.4235 -0.6465 -0.2083
 6855TIP3    H144760   1.814   2.361   2.687  0.6427  1.2035  0.1691
 6855TIP3    H244761   1.881   2.250   2.765 -1.9173 -1.5954 -1.4090
 6856TIP3   OH244762   6.748   5.773   2.810  0.0242 -0.2656  0.2331
 6856TIP3    H144763   6.841   5.768   2.790  0.0630  1.0518  0.0447
 6856TIP3    H244764   6.736   5.708   2.880  1.0642 -0.4722  0.2385
 6857TIP3   OH244765   3.200   1.448   4.569 -0.4112 -0.0488  0.0631
 6857TIP3    H144766   3.282   1.427   4.614  0.3307  0.6983 -0.8924
 6857TIP3    H244767   3.132   1.402   4.619  0.3412  0.9362  2.0942
 6858TIP3   OH244768   0.250   4.960   3.150 -0.3635  0.0137  0.3456
 6858TIP3    H144769   0.252   5.055   3.143 -0.2997 -0.0509 -0.6197
 6858TIP3    H244770   0.342   4.935   3.162 -0.6109  0.2393  3.5487
 6859TIP3   OH244771   5.749   3.285   2.285 -0.2343  0.3547  0.0317
 6859TIP3    H144772   5.826   3.230   2.267 -0.3820 -0.1083  0.7781
 6859TIP3    H244773   5.683   3.256   2.222 -0.0793  0.1576 -0.0379
 6860TIP3   OH244774   3.460   2.797   4.644  0.6395  0.2149  0.2949
 6860TIP3    H144775   3.479   2.865   4.708 -0.6442 -0.1299  1.0801
 6860TIP3    H244776   3.368   2.776   4.658  0.8999 -1.3896 -0.2180
 6861TIP3   OH244777   3.297   4.317   2.138 -0.1470  0.7904  0.0962
 6861TIP3    H144778   3.307   4.241   2.081  0.5356  1.8137 -1.2334
 6861TIP3    H244779   3.384   4.330   2.176  0.2098  1.8428 -0.9971
 6862TIP3   OH244780   0.570   1.578   4.320  0.0588  0.4396 -0.2994
 6862TIP3    H144781   0.536   1.571   4.230  0.5207  1.3624 -0.5614
 6862TIP3    H244782   0.493   1.601   4.372 -0.3073 -0.5703 -0.3659
 6863TIP3   OH244783   1.117   5.135   3.842 -0.0070 -0.1143 -0.0740
 6863TIP3    H144784   1.171   5.126   3.764 -0.8303  0.1181 -0.6872
 6863TIP3    H244785   1.179   5.150   3.913  0.8718 -1.8879 -0.4041
 6864TIP3   OH244786   4.996   3.358   2.984  0.0786  1.2391 -0.0744
 6864TIP3    H144787   5.051   3.433   2.962  2.0067 -0.2828 -0.6970
 6864TIP3    H244788   5.057   3.286   2.998 -1.6142  0.0516  1.8344
 6865TIP3   OH244789   0.260   3.583   4.421  0.1894 -0.2139 -0.9405
 6865TIP3    H144790   0.185   3.636   4.446  0.9450 -0.1427  1.4062
 6865TIP3    H244791   0.228   3.493   4.425  0.1213 -0.1663 -0.2445
 6866TIP3   OH244792   6.746   6.662   3.890 -0.1355 -0.5033 -0.0560
 6866TIP3    H144793   6.677   6.706   3.939  1.3901 -0.6694  2.4055
 6866TIP3    H244794   6.779   6.730   3.831  0.2742  0.8946  1.6722
 6867TIP3   OH244795   2.039   5.702   4.350 -0.2045  0.0198 -0.0278
 6867TIP3    H144796   2.079   5.634   4.406  2.9367 -0.3755 -2.4771
 6867TIP3    H244797   1.997   5.761   4.412 -0.0021 -2.2352  2.4779
 6868TIP3   OH244798   4.735   1.863   3.894 -0.9187  0.2682 -0.2273
 6868TIP3    H144799   4.750   1.926   3.824 -2.1584  0.1915 -0.6049
 6868TIP3    H244800   4.655   1.816   3.867  0.4613 -2.1385 -0.4522
 6869TIP3   OH244801   2.218   6.080   4.021 -0.5621 -0.4600  0.5811
 6869TIP3    H144802   2.213   6.085   3.925 -2.2472  0.4212  0.6817
 6869TIP3    H244803   2.290   6.139   4.044 -1.9231  1.5786 -0.0304
 6870TIP3   OH244804   6.714   6.435   3.284 -0.4100 -0.5066  0.1419
 6870TIP3    H144805   6.721   6.526   3.311 -0.0095 -0.6609  0.5703
 6870TIP3    H244806   6.755   6.432   3.197  0.4450 -0.4577  0.5334
 6871TIP3   OH244807   5.463   2.614   2.103  0.4785 -0.2772  0.0947
 6871TIP3    H144808   5.402   2.578   2.167 -0.3295 -0.1478 -0.5932
 6871TIP3    H244809   5.413   2.681   2.056  1.0840 -0.2991 -0.6079
 6872TIP3   OH244810   4.414   1.791   4.425 -0.5264  0.4734  0.2602
 6872TIP3    H144811   4.447   1.708   4.459  1.1816  0.7929 -0.5027
 6872TIP3    H244812   4.362   1.766   4.349 -0.7173  0.0569  0.5209
 6873TIP3   OH244813   4.035   1.951   3.652 -0.2812  0.1098 -0.6116
 6873TIP3    H144814   3.982   1.941   3.731 -0.6869 -1.5236 -1.0507
 6873TIP3    H244815   4.125   1.956   3.684 -0.4935  0.0858 -0.0020
 6874TIP3   OH244816   5.552   5.032   5.281 -0.8619  0.5407  0.1272
 6874TIP3    H144817   5.579   4.955   5.330  0.7817  0.9791 -0.0081
 6874TIP3    H244818   5.550   5.003   5.190  0.6457  0.8188 -0.0346
 6875TIP3   OH244819   5.088   1.395   2.835  0.1594 -0.3683  0.0211
 6875TIP3    H144820   5.025   1.457   2.872 -0.1182  0.3117 -1.5280
 6875TIP3    H244821   5.173   1.437   2.848  0.0327  0.0293 -0.3807
 6876TIP3   OH244822   1.125   2.077   4.256 -0.3949  0.1478  0.4018
 6876TIP3    H144823   1.099   1.993   4.217  2.0093 -0.5409  0.1165
 6876TIP3    H244824   1.068   2.087   4.331 -2.2851 -0.5880 -0.8696
 6877TIP3   OH244825   0.737   0.515   2.607 -0.6697 -0.1145  0.5663
 6877TIP3    H144826   0.677   0.535   2.679  0.0341 -2.1965  1.8009
 6877TIP3    H244827   0.683   0.466   2.545 -0.7263 -0.2846  0.7482
 6878TIP3   OH244828   3.405   5.887   2.160  0.4431  0.5752 -0.2120
 6878TIP3    H144829   3.317   5.916   2.136  0.8701  1.1306 -1.1757
 6878TIP3    H244830   3.410   5.899   2.255 -1.1870 -1.3398  0.1851
 6879TIP3   OH244831   4.711   6.324   2.182  0.1377  0.4576  0.3259
 6879TIP3    H144832   4.799   6.315   2.219  0.6643  2.2020 -0.3913
 6879TIP3    H244833   4.701   6.418   2.167 -2.5188  0.5256  1.9507
 6880TIP3   OH244834   4.048   0.313   3.626  0.3946  0.0823  0.1586
 6880TIP3    H144835   4.047   0.341   3.534  0.5751 -1.0593 -0.2119
 6880TIP3    H244836   3.955   0.302   3.648  0.3624  0.0499  0.0110
 6881TIP3   OH244837   6.026   6.080   4.406  0.5157 -0.6152 -0.1972
 6881TIP3    H144838   6.013   5.988   4.383  1.9318 -0.2825 -2.7510
 6881TIP3    H244839   6.116   6.084   4.437  0.0463 -0.2674  1.1735
 6882TIP3   OH244840   1.051   3.892   4.499 -0.5617  0.5406 -0.1686
 6882TIP3    H144841   1.138   3.920   4.526 -0.3137 -0.2522 -0.1150
 6882TIP3    H244842   1.009   3.971   4.465 -0.6472  1.4275  1.8855
 6883TIP3   OH244843   6.064   1.663   2.965  0.2977  0.6682 -0.6788
 6883TIP3    H144844   5.992   1.686   3.023  0.4123 -1.3723  0.3529
 6883TIP3    H244845   6.132   1.728   2.984  0.3426  0.0651  1.5520
 6884TIP3   OH244846   1.523   0.437   2.382 -0.7209  0.2871  0.4645
 6884TIP3    H144847   1.496   0.518   2.337  1.5936  0.2073 -1.2959
 6884TIP3    H244848   1.559   0.382   2.312  0.0414 -1.2467  1.9952
 6885TIP3   OH244849   6.609   1.634   3.668  0.5883  0.2058 -1.1055
 6885TIP3    H144850   6.639   1.604   3.754 -1.0240 -0.3022 -0.6935
 6885TIP3    H244851   6.576   1.555   3.625 -3.5720  1.1507 -0.0684
 6886TIP3   OH244852   3.079   0.998   3.989 -0.0184  0.0947 -0.0834
 6886TIP3    H144853   3.117   1.082   4.015  0.4583 -0.0646 -0.2543
 6886TIP3    H244854   3.054   0.957   4.072 -1.7821  1.1013 -0.0881
 6887TIP3   OH244855   3.402   2.072   2.958 -0.0622 -0.7266  0.1022
 6887TIP3    H144856   3.344   2.062   2.882 -1.8986 -0.9151  1.4547
 6887TIP3    H244857   3.450   2.153   2.942 -1.6868  0.1590 -0.4825
 6888TIP3   OH244858   3.258   6.789   4.639 -0.4150  0.0875 -0.0833
 6888TIP3    H144859   3.201   6.866   4.633 -1.7646 -0.9496 -1.2025
 6888TIP3    H244860   3.236   6.737   4.562  1.2120 -0.9451  0.1028
 6889TIP3   OH244861   6.065   5.565   3.710 -0.1378  0.0813  0.0869
 6889TIP3    H144862   6.054   5.647   3.758  0.9744 -0.8992  2.1356
 6889TIP3    H244863   6.095   5.592   3.623  1.7322  1.8247  1.1950
 6890TIP3   OH244864   0.159   0.328   3.077 -0.0865  0.0409 -0.1943
 6890TIP3    H144865   0.106   0.407   3.072 -2.2283 -1.2914 -0.1402
 6890TIP3    H244866   0.211   0.338   3.156 -0.1216  1.4979 -0.3355
 6891TIP3   OH244867   2.478   2.712   4.609 -0.3775 -0.0868  0.6008
 6891TIP3    H144868   2.451   2.712   4.517 -0.1166  0.0762  0.5243
 6891TIP3    H244869   2.485   2.804   4.632  2.6098 -0.0466 -0.1267
 6892TIP3   OH244870   3.963   6.173   1.800 -0.0402 -0.2999  0.1235
 6892TIP3    H144871   3.986   6.084   1.774 -0.6873 -0.1896 -0.8608
 6892TIP3    H244872   3.879   6.163   1.846 -1.7355  0.1038 -2.6767
 6893TIP3   OH244873   6.757   0.896   2.229  0.0299  0.5217  0.3551
 6893TIP3    H144874   6.722   0.826   2.174  1.4059  0.1541 -0.1093
 6893TIP3    H244875   6.851   0.897   2.209 -0.1189  3.2545 -0.4964
 6894TIP3   OH244876   3.996   5.906   2.445  0.6051 -0.2398 -0.2606
 6894TIP3    H144877   4.034   5.955   2.372  0.1371  0.5334  0.0022
 6894TIP3    H244878   4.065   5.905   2.512 -0.1436  2.1342  0.6596
 6895TIP3   OH244879   3.465   5.331   2.584  0.0721  0.4401  0.3030
 6895TIP3    H144880   3.521   5.254   2.594  1.4885  1.4898  0.7979
 6895TIP3    H244881   3.493   5.371   2.502 -1.0420  0.1423 -0.2360
 6896TIP3   OH244882   4.912   3.584   3.691  0.0502 -0.1957 -0.0639
 6896TIP3    H144883   4.918   3.587   3.787 -0.5178  0.6280 -0.0396
 6896TIP3    H244884   4.866   3.503   3.672 -0.6004  0.0580  0.4140
 6897TIP3   OH244885   0.448   1.244   4.854  0.3927 -0.1621  0.2348
 6897TIP3    H144886   0.521   1.201   4.810  0.1734  0.0848 -0.3744
 6897TIP3    H244887   0.487   1.280   4.935  0.4773 -1.9119  1.0179
 6898TIP3   OH244888   3.201   2.644   3.785 -0.3789 -0.0430 -0.2710
 6898TIP3    H144889   3.196   2.646   3.689 -0.9609 -0.3606 -0.2535
 6898TIP3    H244890   3.124   2.593   3.812 -0.8754  1.0304  0.4169
 6899TIP3   OH244891   1.975   3.792   2.477 -0.2438 -0.6029 -0.4984
 6899TIP3    H144892   2.003   3.884   2.479 -1.8039 -0.0990  0.9563
 6899TIP3    H244893   1.884   3.795   2.507 -0.3897 -2.6116 -0.6485
 6900TIP3   OH244894   0.086   3.802   2.889  0.4282 -0.3431  0.0545
 6900TIP3    H144895   0.098   3.877   2.831  0.0781 -1.4407 -1.5104
 6900TIP3    H244896  -0.006   3.777   2.878 -0.8431  1.6382  3.9857
 6901TIP3   OH244897   6.471   3.095   3.741 -0.3056 -0.7935  0.4404
 6901TIP3    H144898   6.447   3.062   3.655 -0.2522 -2.2578  0.9654
 6901TIP3    H244899   6.524   3.026   3.780 -0.1495 -0.0702  1.5787
 6902TIP3   OH244900   6.615   4.265   3.726  0.4604  0.1698  0.6469
 6902TIP3    H144901   6.677   4.215   3.780  1.0597 -2.2568 -1.9825
 6902TIP3    H244902   6.567   4.198   3.677 -0.2679  2.1437 -1.5340
 6903TIP3   OH244903   6.130   0.226   3.488 -1.2473  0.2477 -0.4992
 6903TIP3    H144904   6.075   0.162   3.443 -2.1515  0.1401  0.7093
 6903TIP3    H244905   6.163   0.179   3.565  2.2644 -0.3845 -2.1896
 6904TIP3   OH244906   6.570   1.075   5.181  0.1659 -0.5923  0.2549
 6904TIP3    H144907   6.640   1.062   5.245  0.3845 -2.5498 -0.3106
 6904TIP3    H244908   6.586   1.162   5.145  1.6889 -0.5851  0.8687
 6905TIP3   OH244909   6.568   2.654   3.032 -1.1164  0.0995 -0.7061
 6905TIP3    H144910   6.611   2.729   2.991 -0.5952  0.2371  0.0761
 6905TIP3    H244911   6.602   2.578   2.984 -1.0853  0.3116 -1.0205
 6906TIP3   OH244912   4.989   0.873   2.636 -0.4277 -0.8966  0.2435
 6906TIP3    H144913   4.980   0.954   2.585 -0.5046  0.3211  2.0723
 6906TIP3    H244914   5.083   0.861   2.647 -0.4223 -0.8405  0.2610
 6907TIP3   OH244915   5.133   6.045   4.589  0.2583  0.4609  0.4806
 6907TIP3    H144916   5.228   6.037   4.603  0.0242  0.1876  2.0940
 6907TIP3    H244917   5.098   5.958   4.610 -0.3622  0.6019  0.0418
 6908TIP3   OH244918   4.683   4.340   4.005 -0.6001 -0.0740 -0.1104
 6908TIP3    H144919   4.601   4.292   3.992 -0.4037 -0.3622 -0.2842
 6908TIP3    H244920   4.750   4.284   3.966 -0.2448 -0.0999  0.5259
 6909TIP3   OH244921   0.921   0.336   2.113  0.1096 -0.2062 -0.0877
 6909TIP3    H144922   0.975   0.258   2.098  0.8440  0.0781  0.9573
 6909TIP3    H244923   0.984   0.406   2.129 -0.5583  0.4592 -0.3013
 6910TIP3   OH244924   0.922   2.083   4.458  0.5492  0.0725  0.2354
 6910TIP3    H144925   0.856   2.108   4.522 -0.3832  1.7257 -1.3118
 6910TIP3    H244926   0.877   2.024   4.398  0.0617  2.0998 -1.4926
 6911TIP3   OH244927   5.064   0.429   5.464  0.3441 -0.8851 -0.2698
 6911TIP3    H144928   5.132   0.497   5.462 -0.3498 -0.1706 -0.2805
 6911TIP3    H244929   5.096   0.361   5.405 -0.0796  0.5721 -2.2803
 6912TIP3   OH244930   3.445   0.276   5.229  0.6432 -0.2354 -0.0876
 6912TIP3    H144931   3.377   0.259   5.294  2.1803 -0.0581  1.6473
 6912TIP3    H244932   3.437   0.369   5.209 -0.5066 -0.5091 -0.9748
 6913TIP3   OH244933   4.392   0.272   2.171 -0.0355  0.1172 -0.2040
 6913TIP3    H144934   4.453   0.318   2.229 -0.3307  0.0208  0.1935
 6913TIP3    H244935   4.307   0.311   2.191 -0.4798 -1.3765  0.9944
 6914TIP3   OH244936   4.210   6.309   5.661  0.3005 -0.8053  0.1091
 6914TIP3    H144937   4.149   6.324   5.588 -0.2622 -0.9563  0.5394
 6914TIP3    H244938   4.249   6.223   5.643  0.8893 -0.4138 -0.5155
 6915TIP3   OH244939   6.683   3.080   4.593  0.3129  0.0587 -0.2619
 6915TIP3    H144940   6.629   3.010   4.629  0.9908  0.4015  1.5316
 6915TIP3    H244941   6.752   3.034   4.545 -1.2753 -0.3855 -2.2368
 6916TIP3   OH244942   5.356   3.592   4.421 -0.3258  0.0634 -0.1636
 6916TIP3    H144943   5.372   3.660   4.486 -0.5095  0.4237 -0.4907
 6916TIP3    H244944   5.443   3.557   4.402 -0.4486 -1.3771  1.6771
 6917TIP3   OH244945   4.558   6.035   2.498  0.4483  0.1712 -0.1888
 6917TIP3    H144946   4.486   5.997   2.449  0.4042  1.1064 -0.8763
 6917TIP3    H244947   4.578   6.117   2.452 -0.1398  1.5171  1.7988
 6918TIP3   OH244948   2.501   3.512   3.444 -0.2260  0.0273 -0.3427
 6918TIP3    H144949   2.481   3.419   3.453 -0.1819  0.2024  2.0846
 6918TIP3    H244950   2.531   3.539   3.530  1.7690  1.8556 -1.5112
 6919TIP3   OH244951   3.384   2.745   3.253 -0.1962 -0.3782  0.5882
 6919TIP3    H144952   3.322   2.675   3.273  0.8144 -1.2687  0.6934
 6919TIP3    H244953   3.442   2.707   3.186  0.2653  0.4118  0.5309
 6920TIP3   OH244954   3.627   3.158   2.121 -0.0407 -0.2119 -0.1471
 6920TIP3    H144955   3.590   3.200   2.199  0.0999 -0.1839 -0.0955
 6920TIP3    H244956   3.713   3.198   2.110  0.2717 -0.7821  0.1471
 6921TIP3   OH244957   4.868   6.802   2.472  0.7319  0.0913  0.4016
 6921TIP3    H144958   4.933   6.800   2.401  0.7000 -0.7017  0.3846
 6921TIP3    H244959   4.798   6.858   2.438 -0.1856 -1.8070 -1.0269
 6922TIP3   OH244960   1.477   5.204   2.065  0.0094 -0.0917  0.0946
 6922TIP3    H144961   1.434   5.126   2.029  0.7353 -0.3007 -0.3498
 6922TIP3    H244962   1.537   5.169   2.131  0.8749  0.0089 -0.6192
 6923TIP3   OH244963   0.300   4.575   4.438 -0.5279 -0.5785  0.8334
 6923TIP3    H144964   0.274   4.654   4.389  0.2854 -0.0882  1.1559
 6923TIP3    H244965   0.372   4.605   4.494 -0.9848 -1.2955  1.8160
 6924TIP3   OH244966   5.393   3.915   2.602  0.3134  0.1850 -0.3558
 6924TIP3    H144967   5.409   3.852   2.671 -0.9891  1.0329  0.7879
 6924TIP3    H244968   5.421   3.999   2.639  0.4967  0.5161 -1.2193
 6925TIP3   OH244969   3.529   5.259   3.876 -0.6774 -0.3323  0.1139
 6925TIP3    H144970   3.456   5.310   3.840 -0.4885  0.5166  0.8935
 6925TIP3    H244971   3.504   5.168   3.862 -0.3181 -0.0814 -2.7350
 6926TIP3   OH244972   4.705   6.017   4.668 -0.5957 -0.0165 -0.1464
 6926TIP3    H144973   4.664   5.997   4.584  1.0871  0.1599 -1.0634
 6926TIP3    H244974   4.659   5.961   4.731 -1.4532 -0.6440 -1.2815
 6927TIP3   OH244975   0.775   0.192   2.806  0.0154 -0.2783 -0.1400
 6927TIP3    H144976   0.791   0.152   2.720 -1.2721  1.5929 -1.3260
 6927TIP3    H244977   0.847   0.254   2.817  0.2350 -0.5896  0.1807
 6928TIP3   OH244978   2.852   1.932   2.543  0.5041 -0.7835  0.2086
 6928TIP3    H144979   2.771   1.881   2.546  1.8986 -3.0976  1.1554
 6928TIP3    H244980   2.827   2.018   2.577 -1.8659 -0.8677 -1.0782
 6929TIP3   OH244981   0.233   6.273   4.004  0.1822  0.6468  0.4065
 6929TIP3    H144982   0.163   6.277   3.939  1.3484  1.3436 -0.8509
 6929TIP3    H244983   0.310   6.248   3.955  0.7740 -0.5269  1.8406
 6930TIP3   OH244984   5.901   2.863   3.190  0.2183 -0.0711 -0.3552
 6930TIP3    H144985   5.850   2.841   3.112 -2.3419  1.0914  0.8452
 6930TIP3    H244986   5.880   2.955   3.207  0.7124 -0.2766  1.6681
 6931TIP3   OH244987   2.889   1.279   3.986  0.0121  0.2238  0.9112
 6931TIP3    H144988   2.971   1.234   4.006 -0.8606 -1.9257 -0.0527
 6931TIP3    H244989   2.832   1.211   3.951 -1.3531  2.1177 -0.7993
 6932TIP3   OH244990   5.940   1.679   4.473  0.1369  0.4637 -0.0995
 6932TIP3    H144991   5.993   1.758   4.471 -0.0123  0.6220 -2.8276
 6932TIP3    H244992   5.855   1.706   4.437 -0.6107 -0.5222  0.8441
 6933TIP3   OH244993   2.337   2.319   2.928  0.0906 -0.2849  0.0635
 6933TIP3    H144994   2.362   2.389   2.989 -2.7137  1.1996 -0.3289
 6933TIP3    H244995   2.386   2.337   2.848  0.2497  0.5807  0.3496
 6934TIP3   OH244996   1.775   3.006   3.793  0.5630  0.1373 -0.2050
 6934TIP3    H144997   1.810   3.006   3.703 -1.4590 -1.4229 -1.0565
 6934TIP3    H244998   1.682   2.986   3.782 -0.1466  1.7732  2.1351
 6935TIP3   OH244999   0.730   5.795   3.279 -0.1755 -0.3266 -0.2164
 6935TIP3    H145000   0.800   5.751   3.326 -0.6541  0.7821  1.6471
 6935TIP3    H245001   0.760   5.886   3.271 -0.9928 -0.0447 -0.2100
 6936TIP3   OH245002   4.835   2.860   2.290 -0.2535  0.1698  0.7168
 6936TIP3    H145003   4.791   2.888   2.210 -0.5631 -2.0735  0.0417
 6936TIP3    H245004   4.769   2.809   2.337  1.0103 -1.7278  0.5454
 6937TIP3   OH245005   5.638   2.277   4.812 -0.1717 -0.1123 -0.4004
 6937TIP3    H145006   5.666   2.206   4.755  0.7958 -0.0925  0.0338
 6937TIP3    H245007   5.674   2.356   4.771  0.9503 -0.1499  0.4884
 6938TIP3   OH245008   6.143   1.010   5.364  0.1129 -0.1760 -0.3994
 6938TIP3    H145009   6.218   1.064   5.388  0.4219 -0.4766 -0.6841
 6938TIP3    H245010   6.181   0.933   5.323 -0.3773  0.0182 -1.2336
 6939TIP3   OH245011   6.268   0.947   4.676  0.0143 -0.1705  0.3508
 6939TIP3    H145012   6.286   0.982   4.588  0.5399 -0.7800  0.2060
 6939TIP3    H245013   6.194   0.998   4.707  0.1913  0.4546 -0.2161
 6940TIP3   OH245014   0.829   4.694   4.521  0.3219  0.6675 -0.6682
 6940TIP3    H145015   0.918   4.727   4.508 -0.5490  2.7497 -1.8369
 6940TIP3    H245016   0.777   4.772   4.541 -1.1535 -0.5862  0.7720
 6941TIP3   OH245017   4.896   0.025   4.207  0.6050 -0.5354  0.4230
 6941TIP3    H145018   4.849  -0.052   4.240 -0.9869 -0.1259 -0.7673
 6941TIP3    H245019   4.958  -0.010   4.143 -0.5152 -0.7937 -0.5394
 6942TIP3   OH245020   6.085   1.629   3.823  0.1653 -0.3727 -0.6195
 6942TIP3    H145021   6.132   1.602   3.745  0.2922  0.7408 -0.9463
 6942TIP3    H245022   6.043   1.711   3.799 -0.7766 -0.6077  0.1145
 6943TIP3   OH245023   2.145   0.871   3.969 -0.5076 -0.3544 -0.5569
 6943TIP3    H145024   2.194   0.876   4.051 -1.6827  0.7212  0.1094
 6943TIP3    H245025   2.199   0.920   3.906  0.5730 -1.4855 -0.5562
 6944TIP3   OH245026   2.474   3.373   5.433  0.1577  0.0526  0.1116
 6944TIP3    H145027   2.529   3.312   5.482  0.0543 -0.0687  0.0781
 6944TIP3    H245028   2.425   3.421   5.500 -1.2394 -1.2817  0.1022
 6945TIP3   OH245029   0.208   5.386   4.224  0.1829  0.6355 -0.1630
 6945TIP3    H145030   0.117   5.414   4.211  0.4384  0.9893 -1.4368
 6945TIP3    H245031   0.230   5.340   4.143  1.3888  1.2858 -0.2264
 6946TIP3   OH245032   0.149   2.880   2.184  0.3492 -0.2358 -0.6076
 6946TIP3    H145033   0.205   2.954   2.164 -0.5605  0.7077  0.2295
 6946TIP3    H245034   0.163   2.865   2.278  0.7023 -1.2943 -0.8090
 6947TIP3   OH245035   0.921   4.990   3.226  0.2409  0.5222  0.2742
 6947TIP3    H145036   0.969   4.986   3.143 -1.7077  1.8228 -1.0066
 6947TIP3    H245037   0.841   4.940   3.210 -0.6076  1.5786  1.0195
 6948TIP3   OH245038   0.465   3.731   3.783  0.6377 -0.0640 -0.7886
 6948TIP3    H145039   0.510   3.764   3.862  0.9996 -0.7981 -0.6836
 6948TIP3    H245040   0.416   3.655   3.813 -0.6801  0.6928 -0.9114
 6949TIP3   OH245041   2.097   2.523   2.669 -0.4766 -0.0939 -0.4060
 6949TIP3    H145042   2.101   2.429   2.653  1.0218 -0.0499 -0.4090
 6949TIP3    H245043   2.058   2.559   2.589 -0.5985 -0.6653 -0.6057
 6950TIP3   OH245044   3.220   4.742   4.383  0.1123  0.7007  0.1304
 6950TIP3    H145045   3.162   4.808   4.346  1.3615  1.3040 -0.8658
 6950TIP3    H245046   3.265   4.705   4.306  0.2663 -0.4955  0.7754
 6951TIP3   OH245047   2.148   0.952   2.680 -0.7078 -0.0001 -0.0290
 6951TIP3    H145048   2.210   1.001   2.627 -0.2786 -1.7792 -1.2492
 6951TIP3    H245049   2.105   0.893   2.619 -0.4109 -1.9225  1.5110
 6952TIP3   OH245050   3.376   1.429   4.999  0.3801 -0.0229 -0.3229
 6952TIP3    H145051   3.301   1.427   5.059 -0.0787 -2.4110 -0.8969
 6952TIP3    H245052   3.441   1.483   5.044 -1.6888  2.2927  0.1172
 6953TIP3   OH245053   0.657   5.348   3.978 -0.3295 -0.0415  0.1074
 6953TIP3    H145054   0.644   5.321   4.069 -0.5696 -2.0676 -0.4785
 6953TIP3    H245055   0.571   5.375   3.948 -0.2325  0.7199  0.4849
 6954TIP3   OH245056   5.253   4.179   2.058 -0.2454 -0.0840  0.0060
 6954TIP3    H145057   5.272   4.102   2.112 -1.0585 -0.3038 -0.0187
 6954TIP3    H245058   5.336   4.198   2.015  0.0980 -0.6407  0.3988
 6955TIP3   OH245059   5.566   6.795   2.952 -0.8391 -0.2084  0.7228
 6955TIP3    H145060   5.612   6.876   2.930  1.4860 -0.9912  2.3603
 6955TIP3    H245061   5.495   6.823   3.009  1.6410  0.5687  3.6866
 6956TIP3   OH245062   0.953   4.153   2.985  0.6271 -0.1950  0.4473
 6956TIP3    H145063   0.927   4.061   2.989  2.4893 -0.7306  1.8116
 6956TIP3    H245064   0.947   4.183   3.076  0.3842  0.9523  0.0750
 6957TIP3   OH245065   0.599   0.761   5.278  0.4426 -0.5005 -0.1630
 6957TIP3    H145066   0.601   0.856   5.267  0.0644 -0.4246  0.4048
 6957TIP3    H245067   0.682   0.731   5.241  0.6993  0.0820 -0.0691
 6958TIP3   OH245068   3.335   6.131   2.569  0.1798  0.5920 -0.3250
 6958TIP3    H145069   3.341   6.111   2.662 -1.5685 -0.8516 -0.4665
 6958TIP3    H245070   3.425   6.149   2.542  1.3007 -2.4963  0.9185
 6959TIP3   OH245071   2.708   4.984   2.293 -0.0185 -0.1125 -0.2316
 6959TIP3    H145072   2.753   4.963   2.376  0.5167  1.8258  0.0050
 6959TIP3    H245073   2.775   4.970   2.226  0.6617  1.6730  0.0194
 6960TIP3   OH245074   2.285   5.586   3.339  0.2161 -0.3448  0.3014
 6960TIP3    H145075   2.256   5.535   3.263  1.2316 -0.1643 -0.2219
 6960TIP3    H245076   2.252   5.537   3.414 -1.9071  0.1411 -0.2491
 6961TIP3   OH245077   4.697   4.368   4.466 -0.2838  0.4128 -0.4688
 6961TIP3    H145078   4.731   4.456   4.479 -0.1614  0.3229 -0.1635
 6961TIP3    H245079   4.664   4.368   4.376  0.6380  0.4708 -0.8227
 6962TIP3   OH245080   0.415   4.241   2.674  0.0205  0.3425 -0.6792
 6962TIP3    H145081   0.356   4.167   2.663  2.2170 -2.2101  2.6429
 6962TIP3    H245082   0.359   4.314   2.699 -1.8698 -1.8154  1.8216
 6963TIP3   OH245083   5.311   2.900   2.230  0.4270  0.3976  0.5163
 6963TIP3    H145084   5.380   2.885   2.294  0.3511  3.3931  1.4556
 6963TIP3    H245085   5.231   2.909   2.283 -0.2158 -0.2337 -0.3142
 6964TIP3   OH245086   4.611   3.566   3.062 -0.5035  0.4768 -0.1646
 6964TIP3    H145087   4.609   3.637   2.998 -2.0762  0.2606 -0.4013
 6964TIP3    H245088   4.605   3.486   3.009 -0.1936  0.2230  0.1755
 6965TIP3   OH245089   0.901   1.707   3.283 -0.7033  0.0763 -0.5753
 6965TIP3    H145090   0.986   1.663   3.274 -0.7356 -0.0898 -0.0892
 6965TIP3    H245091   0.922   1.800   3.283 -0.5513  0.0436 -0.7530
 6966TIP3   OH245092   2.280   3.267   3.385  0.6000 -0.2445  0.3335
 6966TIP3    H145093   2.191   3.283   3.416  1.6555 -0.0266  3.5404
 6966TIP3    H245094   2.289   3.172   3.382 -0.0359 -0.2902 -1.1435
 6967TIP3   OH245095   3.038   2.438   3.805 -0.3838 -0.3534  0.1663
 6967TIP3    H145096   2.970   2.393   3.855 -0.8728 -0.4577 -0.5787
 6967TIP3    H245097   3.035   2.398   3.718  0.2899 -0.0125 -0.0234
 6968TIP3   OH245098   5.544   4.916   3.359 -0.4188 -0.1694 -0.0210
 6968TIP3    H145099   5.527   4.931   3.266  2.2407 -2.2124 -0.9852
 6968TIP3    H245100   5.465   4.874   3.392 -1.4780  0.7637 -1.2781
 6969TIP3   OH245101   0.727   6.741   1.899 -0.0868 -0.0838 -0.1145
 6969TIP3    H145102   0.811   6.783   1.887 -0.4096  0.9021  0.9056
 6969TIP3    H245103   0.747   6.648   1.909  1.1258  0.3604  2.2432
 6970TIP3   OH245104   6.078   0.367   2.441 -0.0930  0.0764 -0.3987
 6970TIP3    H145105   5.991   0.386   2.406 -1.3454 -1.3150  1.7512
 6970TIP3    H245106   6.132   0.353   2.364 -2.5530 -2.2816 -1.8505
 6971TIP3   OH245107   1.644   5.781   4.612  0.1401 -0.5365  0.3672
 6971TIP3    H145108   1.571   5.797   4.671  1.4419 -0.8392  2.1667
 6971TIP3    H245109   1.607   5.788   4.524 -2.1583 -1.3473  1.2037
 6972TIP3   OH245110   0.049   4.237   5.213 -0.0068  0.2829 -0.0919
 6972TIP3    H145111   0.077   4.315   5.166  1.0689 -0.5584 -0.8899
 6972TIP3    H245112   0.063   4.257   5.305  2.0215  0.3723 -0.3933
 6973TIP3   OH245113   6.810   2.689   4.890  0.1941  0.7639 -0.4954
 6973TIP3    H145114   6.737   2.692   4.951  0.6246  0.1443  0.0630
 6973TIP3    H245115   6.886   2.670   4.944  0.4712 -0.5831 -1.3101
 6974TIP3   OH245116   4.818   1.864   4.155  0.2727  0.2421  0.0600
 6974TIP3    H145117   4.769   1.888   4.077 -0.7859  0.8550  0.8764
 6974TIP3    H245118   4.757   1.812   4.207  1.2355 -0.8676  0.1171
 6975TIP3   OH245119   0.102   6.091   4.375  0.0526 -0.1278 -0.3356
 6975TIP3    H145120   0.011   6.119   4.383 -0.4985 -1.4160 -1.7441
 6975TIP3    H245121   0.151   6.172   4.361 -0.6382  0.7501  1.7941
 6976TIP3   OH245122   6.529   2.353   4.215  0.3706 -0.5094 -0.1902
 6976TIP3    H145123   6.462   2.341   4.148  1.3932 -2.5388 -0.9394
 6976TIP3    H245124   6.602   2.298   4.186  1.6694  0.2251  1.5188
 6977TIP3   OH245125   0.659   4.760   4.850  0.0407  0.4808 -0.6970
 6977TIP3    H145126   0.567   4.784   4.839  0.4082  1.3601 -2.0447
 6977TIP3    H245127   0.656   4.676   4.896 -1.4032  0.8585 -0.0284
 6978TIP3   OH245128   5.029   1.875   3.756  0.0476  0.0332 -0.0641
 6978TIP3    H145129   4.959   1.822   3.715 -0.1405 -0.2116  0.5575
 6978TIP3    H245130   5.081   1.811   3.805  1.0420  0.1318 -0.9518
 6979TIP3   OH245131   4.410   4.514   4.371  0.3343 -0.0418  0.4032
 6979TIP3    H145132   4.477   4.568   4.328 -1.7216  1.0757 -1.6038
 6979TIP3    H245133   4.374   4.460   4.301 -0.1778 -1.4043  1.6624
 6980TIP3   OH245134   3.994   5.616   4.167  0.0072 -0.2212  0.2273
 6980TIP3    H145135   4.018   5.691   4.112  0.0654 -1.3928 -1.4292
 6980TIP3    H245136   4.055   5.547   4.140 -0.7275 -1.1741  0.9550
 6981TIP3   OH245137   5.182   2.068   2.772 -0.2962  0.0439  0.0562
 6981TIP3    H145138   5.154   1.985   2.733  0.0752 -1.0127  1.9577
 6981TIP3    H245139   5.230   2.112   2.702 -0.6215 -1.2659 -1.0336
 6982TIP3   OH245140   4.610   2.329   2.534 -0.6782 -0.1434  0.0470
 6982TIP3    H145141   4.619   2.287   2.448 -1.1624  2.1043 -1.1918
 6982TIP3    H245142   4.699   2.332   2.569  0.2382  2.1417 -2.1074
 6983TIP3   OH245143   4.325   3.689   3.502  0.0157 -0.1451  0.3693
 6983TIP3    H145144   4.314   3.594   3.499  0.2216 -0.1559 -1.4938
 6983TIP3    H245145   4.325   3.716   3.410  1.3988  1.4976  0.7933
 6984TIP3   OH245146   5.314   4.117   3.567  0.0337 -0.1193 -0.0403
 6984TIP3    H145147   5.280   4.051   3.627  1.3892 -0.2288  0.6352
 6984TIP3    H245148   5.404   4.089   3.550 -0.6820 -0.9271 -3.2888
 6985TIP3   OH245149   1.728   3.711   3.269  0.1634 -0.5683  0.2170
 6985TIP3    H145150   1.777   3.722   3.187 -0.5850 -0.5823 -0.2399
 6985TIP3    H245151   1.644   3.754   3.253 -0.3168 -1.3017  0.6840
 6986TIP3   OH245152   5.918   1.007   2.300  0.2300  0.0046  0.0282
 6986TIP3    H145153   5.961   0.931   2.340 -0.4902 -1.1140 -1.2523
 6986TIP3    H245154   5.956   1.013   2.213  1.0689  1.8129  0.4808
 6987TIP3   OH245155   3.170   2.703   4.154 -0.6314  1.0229  0.3503
 6987TIP3    H145156   3.102   2.637   4.162  0.1105 -0.1714 -2.2089
 6987TIP3    H245157   3.223   2.692   4.233 -0.9716 -0.9315  0.3524
 6988TIP3   OH245158   3.998   4.992   1.860 -0.1233 -0.0685 -0.3124
 6988TIP3    H145159   3.951   4.909   1.871  0.4404 -0.3779 -0.2373
 6988TIP3    H245160   4.031   4.990   1.770  0.1281 -0.0488 -0.2214
 6989TIP3   OH245161   1.278   3.787   2.580 -0.5453  0.8300  0.0252
 6989TIP3    H145162   1.278   3.791   2.484  0.0413  0.4494  0.0042
 6989TIP3    H245163   1.234   3.705   2.601  0.2041  0.4220  0.0456
 6990TIP3   OH245164   1.328   2.751   3.260 -0.1967 -0.3358  0.2060
 6990TIP3    H145165   1.356   2.731   3.171 -0.7785 -1.0141  0.1649
 6990TIP3    H245166   1.399   2.720   3.315  0.3255  0.4085 -0.0298
 6991TIP3   OH245167   4.076   2.282   2.396 -0.1393 -0.2178 -0.3977
 6991TIP3    H145168   4.060   2.376   2.393 -0.2977 -0.1937  0.7429
 6991TIP3    H245169   4.165   2.273   2.431  0.5994 -0.4652 -2.2483
 6992TIP3   OH245170   5.131   3.061   4.703  0.9022  0.4391 -0.1976
 6992TIP3    H145171   5.158   3.151   4.721 -0.4149  0.7813  0.1478
 6992TIP3    H245172   5.149   3.014   4.784 -1.2522  1.0905  0.7163
 6993TIP3   OH245173   5.252   0.193   4.679  0.4542  0.1493 -0.0148
 6993TIP3    H145174   5.294   0.277   4.660  2.2155 -0.8845 -0.9680
 6993TIP3    H245175   5.164   0.201   4.643  0.8158  1.3674 -0.6708
 6994TIP3   OH245176   1.945   4.626   2.288  0.1001 -0.0374  0.2810
 6994TIP3    H145177   2.018   4.684   2.267 -0.1468  0.1192 -0.1679
 6994TIP3    H245178   1.922   4.648   2.379 -0.2679  0.8835 -0.0224
 6995TIP3   OH245179   3.772   6.428   3.535 -0.0466 -0.7585 -0.1290
 6995TIP3    H145180   3.846   6.370   3.515  0.9158  0.8559 -1.6008
 6995TIP3    H245181   3.759   6.479   3.455  0.5054  2.4260  1.6217
 6996TIP3   OH245182   2.985   0.371   2.667 -0.2694  0.4146 -0.5723
 6996TIP3    H145183   3.065   0.332   2.632  0.7896  1.9824 -0.0156
 6996TIP3    H245184   2.963   0.440   2.605 -0.8781  0.3596 -0.4225
 6997TIP3   OH245185   1.360   0.833   3.147 -0.0815  0.3078  0.2582
 6997TIP3    H145186   1.425   0.771   3.114  1.0591 -0.5846  3.7423
 6997TIP3    H245187   1.392   0.919   3.119  0.1158 -0.3975 -1.8319
 6998TIP3   OH245188   2.201   4.866   3.708  1.1659 -0.1565 -0.7681
 6998TIP3    H145189   2.253   4.786   3.718 -0.3855 -1.0776  0.4080
 6998TIP3    H245190   2.111   4.836   3.716  0.5727  1.7781  0.2281
 6999TIP3   OH245191   0.903   4.240   5.306  0.2927  0.4609  0.4875
 6999TIP3    H145192   0.834   4.275   5.248  0.0348 -0.1732  0.4080
 6999TIP3    H245193   0.873   4.152   5.328  0.1731  0.8329  1.9416
 7000TIP3   OH245194   3.218   1.849   4.310  0.2289 -0.4047 -0.3173
 7000TIP3    H145195   3.215   1.755   4.329  0.8371 -0.6593 -1.3898
 7000TIP3    H245196   3.172   1.890   4.383 -1.4615 -1.6394 -0.6252
 7001TIP3   OH245197   6.252   1.358   3.318 -0.3496 -0.3724 -0.5129
 7001TIP3    H145198   6.173   1.346   3.264 -1.1328 -0.5993  0.6536
 7001TIP3    H245199   6.251   1.284   3.378 -0.4943  0.8230  1.0232
 7002TIP3   OH245200   0.382   0.132   2.544  0.1923 -0.4705 -0.3821
 7002TIP3    H145201   0.405   0.109   2.634 -0.0135  1.7481  0.2983
 7002TIP3    H245202   0.287   0.118   2.540  0.3066 -1.2555 -0.4918
 7003TIP3   OH245203   1.861   1.264   4.538 -0.3391  0.3853 -0.2936
 7003TIP3    H145204   1.810   1.345   4.540  0.0848  0.7329 -1.8828
 7003TIP3    H245205   1.801   1.199   4.500  0.0035  0.5102 -1.0708
 7004TIP3   OH245206   4.589   2.640   2.178 -0.1164  0.7391  0.0455
 7004TIP3    H145207   4.664   2.580   2.184 -0.3907  0.5146  1.5586
 7004TIP3    H245208   4.623   2.715   2.128  1.2170  0.7654  0.9289
 7005TIP3   OH245209   1.811   6.251   3.111  0.4073  0.4257  0.1219
 7005TIP3    H145210   1.785   6.182   3.051 -1.9361  1.1257  0.2574
 7005TIP3    H245211   1.871   6.305   3.060  0.3400 -0.3252 -0.7882
 7006TIP3   OH245212   6.302   0.513   3.947  0.0248 -0.1814 -0.3939
 7006TIP3    H145213   6.394   0.514   3.974 -0.4277 -0.2765  1.2284
 7006TIP3    H245214   6.253   0.531   4.027 -1.4036 -0.8304 -1.0911
 7007TIP3   OH245215   5.938   5.792   3.462 -0.0816 -0.4703  0.1420
 7007TIP3    H145216   5.921   5.840   3.542  1.6347 -0.6088  0.6328
 7007TIP3    H245217   5.861   5.737   3.449 -1.8910  2.0196 -0.1896
 7008TIP3   OH245218   3.125   0.473   3.102  0.0926  0.1286  0.0566
 7008TIP3    H145219   3.140   0.567   3.090 -3.0223  0.7107 -0.0539
 7008TIP3    H245220   3.155   0.455   3.191  0.0819  1.3781  0.3276
 7009TIP3   OH245221   5.440   2.084   2.521 -0.0099  0.2909  0.0457
 7009TIP3    H145222   5.461   2.059   2.431  1.0890 -0.6238  0.5406
 7009TIP3    H245223   5.400   2.006   2.560 -1.1728  0.9166  0.1497
 7010TIP3   OH245224   4.580   2.887   2.531  0.4199 -0.0998  0.3399
 7010TIP3    H145225   4.578   2.905   2.625  1.5613 -1.1391  0.5845
 7010TIP3    H245226   4.585   2.792   2.525  0.3529 -0.0439 -0.7796
 7011TIP3   OH245227   0.531   3.674   3.041  0.0098 -0.3771  0.2388
 7011TIP3    H145228   0.456   3.716   3.083 -0.0347  0.5987 -0.7725
 7011TIP3    H245229   0.548   3.728   2.964  0.4738 -1.7598 -0.6593
 7012TIP3   OH245230   1.909   0.520   4.965  0.6340 -0.1657  0.2831
 7012TIP3    H145231   2.001   0.530   4.939  1.2386 -0.5892  2.0756
 7012TIP3    H245232   1.903   0.566   5.049 -0.4868 -1.1781  0.7854
 7013TIP3   OH245233   2.861   3.906   3.188 -0.1424 -0.3815  0.0191
 7013TIP3    H145234   2.804   3.889   3.263  0.7286  0.8836  1.0110
 7013TIP3    H245235   2.949   3.915   3.226  0.4137 -0.2933 -1.2288
 7014TIP3   OH245236   6.803   1.156   3.729  0.5291  0.0343  0.0316
 7014TIP3    H145237   6.855   1.099   3.786 -1.0399  0.5414  2.0862
 7014TIP3    H245238   6.852   1.238   3.728  2.5502 -1.0737 -2.5565
 7015TIP3   OH245239   5.558   4.514   4.369  0.1727 -0.1456  0.3301
 7015TIP3    H145240   5.554   4.418   4.361  0.6537 -0.1144 -0.2952
 7015TIP3    H245241   5.555   4.529   4.464  0.0667 -0.7780  0.4363
 7016TIP3   OH245242   2.865   4.432   2.870  0.3517 -0.0839 -0.4551
 7016TIP3    H145243   2.796   4.375   2.836 -0.5713  1.2212 -0.8058
 7016TIP3    H245244   2.861   4.421   2.965  0.1434 -0.5471 -0.5152
 7017TIP3   OH245245   3.546   2.909   2.084 -0.2428  0.0348 -0.7775
 7017TIP3    H145246   3.576   2.999   2.098  0.7744 -0.5036  0.8365
 7017TIP3    H245247   3.456   2.908   2.115 -0.0431  0.3415 -0.1854
 7018TIP3   OH245248   1.206   2.379   4.262 -0.0215  0.6176  0.6120
 7018TIP3    H145249   1.196   2.287   4.241  1.5343 -0.1507  2.7745
 7018TIP3    H245250   1.118   2.410   4.280 -0.3364 -1.4634  3.3226
 7019TIP3   OH245251   4.552   1.528   2.311  0.3544 -0.4188  0.6122
 7019TIP3    H145252   4.519   1.438   2.305 -0.4957 -0.2539  2.3731
 7019TIP3    H245253   4.586   1.536   2.400 -0.1682  1.1767  0.7089
 7020TIP3   OH245254   1.314   5.172   3.638 -0.1352 -0.2037  0.2351
 7020TIP3    H145255   1.339   5.138   3.552 -1.2383  1.1424 -0.6618
 7020TIP3    H245256   1.395   5.210   3.673  0.0560  0.3818 -0.7917
 7021TIP3   OH245257   4.852   6.769   3.507 -0.2353 -0.3650  0.4716
 7021TIP3    H145258   4.902   6.687   3.509  0.0949 -0.1500  1.3854
 7021TIP3    H245259   4.819   6.779   3.596  0.2914  0.8327  0.5562
 7022TIP3   OH245260   5.203   6.367   2.946  0.3224 -0.0237 -0.0926
 7022TIP3    H145261   5.249   6.440   2.905  1.6989 -0.4364  0.6222
 7022TIP3    H245262   5.253   6.350   3.026 -1.9717  0.4246  1.5193
 7023TIP3   OH245263   2.706   1.740   3.986  0.1237  0.4288 -0.3862
 7023TIP3    H145264   2.722   1.834   3.980  0.6214  0.3124 -1.1308
 7023TIP3    H245265   2.697   1.712   3.895 -0.3432 -0.1957 -0.1550
 7024TIP3   OH245266   0.725   4.794   2.528  0.7016 -0.1138  0.5423
 7024TIP3    H145267   0.774   4.739   2.589  0.3815 -0.9172  0.0829
 7024TIP3    H245268   0.791   4.826   2.466  0.9976  0.5616  1.1977
 7025TIP3   OH245269   4.640   4.605   3.931  0.0064  0.1887 -0.1481
 7025TIP3    H145270   4.610   4.572   3.846 -0.5753 -0.2998  0.2317
 7025TIP3    H245271   4.657   4.526   3.982  3.6416  0.3612 -0.8548
 7026TIP3   OH245272   3.251   2.917   3.545 -0.2264  0.6546  0.0342
 7026TIP3    H145273   3.328   2.933   3.491 -0.8617  1.2738 -0.7388
 7026TIP3    H245274   3.270   2.960   3.628  0.0156  1.3829 -0.3829
 7027TIP3   OH245275   1.230   5.329   2.866 -0.4798  1.0305 -0.1363
 7027TIP3    H145276   1.241   5.422   2.888  0.6979  0.6652  0.9251
 7027TIP3    H245277   1.143   5.307   2.898 -0.2796  1.4703  0.7522
 7028TIP3   OH245278   5.546   5.744   2.772  0.1734 -0.1016 -0.1792
 7028TIP3    H145279   5.579   5.719   2.686  0.7909  0.3352 -0.0781
 7028TIP3    H245280   5.618   5.721   2.832  0.3621  0.9995  0.0264
 7029TIP3   OH245281   3.473   2.568   4.232 -0.4448  0.6247  0.4513
 7029TIP3    H145282   3.548   2.519   4.266 -0.2879  1.2253  0.9968
 7029TIP3    H245283   3.504   2.605   4.150 -1.6224 -2.9916 -1.8883
 7030TIP3   OH245284   4.565   5.960   4.431 -0.0256 -0.0622  0.3719
 7030TIP3    H145285   4.619   5.909   4.372 -1.4053 -0.5392 -0.5222
 7030TIP3    H245286   4.507   5.896   4.472 -2.2342  0.7814 -1.2556
 7031TIP3   OH245287   3.761   2.840   3.423 -0.3725  0.1527  0.5393
 7031TIP3    H145288   3.832   2.791   3.382  0.4881  0.0845  2.0561
 7031TIP3    H245289   3.761   2.925   3.378  0.9990  0.3304  0.8388
 7032TIP3   OH245290   2.029   4.006   1.797 -0.1954 -0.8309  0.0277
 7032TIP3    H145291   2.042   4.069   1.868  0.0551 -1.1063  0.2259
 7032TIP3    H245292   2.095   3.939   1.812  2.0384  0.6688 -2.2387
 7033TIP3   OH245293   2.212   6.131   3.745 -0.2346  0.1964  0.0119
 7033TIP3    H145294   2.279   6.185   3.703  0.0614 -0.5806 -0.5228
 7033TIP3    H245295   2.168   6.086   3.673  1.6082 -2.7358  0.5477
 7034TIP3   OH245296   5.622   0.440   2.509  0.0976 -0.1564 -0.3818
 7034TIP3    H145297   5.659   0.468   2.592 -1.1756  1.6671 -0.3737
 7034TIP3    H245298   5.576   0.358   2.530  1.9590 -1.1426  0.0971
 7035TIP3   OH245299   1.436   6.290   2.762 -0.5384  0.7195 -0.6011
 7035TIP3    H145300   1.447   6.218   2.700 -1.5967  0.5030 -0.5485
 7035TIP3    H245301   1.514   6.345   2.748 -1.0372  1.0091 -2.5697
 7036TIP3   OH245302   5.994   2.228   3.800  0.1702 -1.1119 -0.2102
 7036TIP3    H145303   5.920   2.212   3.742  1.2760 -0.1785 -1.9772
 7036TIP3    H245304   6.030   2.141   3.817  0.2025 -1.3720 -1.4851
 7037TIP3   OH245305   0.451   5.784   3.845  0.5086  0.0896 -0.0586
 7037TIP3    H145306   0.401   5.727   3.904 -1.5628 -0.8399 -2.5243
 7037TIP3    H245307   0.508   5.724   3.798  0.8520  0.5763 -0.2676
 7038TIP3   OH245308   3.668   3.423  10.339  0.1632  0.5633 -0.2125
 7038TIP3    H145309   3.764   3.423  10.332  0.0700  0.4806 -1.8336
 7038TIP3    H245310   3.637   3.438  10.250 -1.3459 -0.2073  0.1449
 7039TIP3   OH245311   4.909   6.129   5.779  0.3764 -0.3445 -0.0235
 7039TIP3    H145312   4.839   6.189   5.806  1.5621  0.8108  0.6546
 7039TIP3    H245313   4.886   6.045   5.818  0.4648  0.5545  2.1422
 7040TIP3   OH245314   5.657   4.508   2.880  0.1078  0.0385  0.5718
 7040TIP3    H145315   5.712   4.561   2.938 -2.3987 -0.3818  3.6289
 7040TIP3    H245316   5.574   4.555   2.875 -0.0988 -0.4657 -2.0277
 7041TIP3   OH245317   6.337   5.875   4.086 -0.4469  0.3648 -0.1721
 7041TIP3    H145318   6.242   5.882   4.076 -0.6137 -0.1725  0.8985
 7041TIP3    H245319   6.368   5.966   4.083 -1.0280  0.5666 -0.1965
 7042TIP3   OH245320   2.913   4.124   4.685  0.3304  0.3594  0.2492
 7042TIP3    H145321   2.833   4.153   4.728  1.4324 -0.6355  3.2285
 7042TIP3    H245322   2.946   4.203   4.641 -1.1179  1.3322  0.8099
 7043TIP3   OH245323   6.343   0.498   4.999  0.2738  0.1981  0.0126
 7043TIP3    H145324   6.335   0.560   4.927 -1.2848  1.3280  1.0797
 7043TIP3    H245325   6.254   0.491   5.035  0.7014 -1.5221  0.8692
 7044TIP3   OH245326   2.287   4.661   4.831  0.3895  0.3794 -0.0213
 7044TIP3    H145327   2.258   4.663   4.739  0.5887 -0.8472 -0.1229
 7044TIP3    H245328   2.207   4.678   4.881  0.4336  1.9089 -0.4272
 7045TIP3   OH245329   2.563   5.044   2.935  0.1605 -1.0328  0.1019
 7045TIP3    H145330   2.589   5.034   2.843  1.5525 -1.1583  0.4911
 7045TIP3    H245331   2.476   5.084   2.931  0.7409  0.1939 -1.2657
 7046TIP3   OH245332   4.085   5.366   4.100  0.2918  0.1264  0.1691
 7046TIP3    H145333   3.995   5.344   4.124  0.1396 -0.2494 -0.7091
 7046TIP3    H245334   4.115   5.291   4.049  1.2637  0.0397  0.8449
 7047TIP3   OH245335   1.844   2.042   4.922  0.2832  0.0170 -0.2768
 7047TIP3    H145336   1.928   2.088   4.920  0.1257  0.2763 -1.6755
 7047TIP3    H245337   1.795   2.084   4.993  0.9124  0.6234 -0.1920
 7048TIP3   OH245338   0.739   0.842   3.532  0.1744  0.2095 -0.1366
 7048TIP3    H145339   0.683   0.840   3.609 -1.4632  1.1754 -1.2323
 7048TIP3    H245340   0.796   0.918   3.546  0.4101 -0.0776  0.4673
 7049TIP3   OH245341   6.711   5.621   3.717  0.0822  0.0674  0.5696
 7049TIP3    H145342   6.679   5.591   3.632  1.3243 -0.1357  0.1485
 7049TIP3    H245343   6.638   5.669   3.755 -1.0972 -1.3018  0.1419
 7050TIP3   OH245344   5.379   3.490   4.048  0.1721 -0.0679 -0.1438
 7050TIP3    H145345   5.460   3.537   4.028 -0.5806  1.3664  0.0549
 7050TIP3    H245346   5.326   3.553   4.097 -0.9990 -1.0416 -0.1010
 7051TIP3   OH245347   4.644   2.910   2.076 -0.0925  0.0370 -0.3829
 7051TIP3    H145348   4.675   2.972   2.010 -1.9054  1.1204 -0.2818
 7051TIP3    H245349   4.553   2.933   2.090 -0.3270 -1.5172  1.0046
 7052TIP3   OH245350   2.022   2.090   1.783  0.2637 -0.1440  0.5157
 7052TIP3    H145351   2.010   2.139   1.702  0.0029 -0.7113  0.2110
 7052TIP3    H245352   1.934   2.068   1.811  0.3903 -0.6101  0.5475
 7053TIP3   OH245353   5.496   4.826   4.547  0.2410  0.0102 -0.1157
 7053TIP3    H145354   5.572   4.833   4.605 -0.0203 -1.0238  0.3805
 7053TIP3    H245355   5.505   4.899   4.486  1.0699  0.5212  0.5939
 7054TIP3   OH245356   1.450   6.768   1.881  0.9027 -0.0075  0.5374
 7054TIP3    H145357   1.394   6.738   1.809 -0.4742 -1.7678  2.2128
 7054TIP3    H245358   1.439   6.700   1.948  1.9274  1.6749  2.4982
 7055TIP3   OH245359   6.201   5.846   2.993  0.1295 -0.0615  0.2404
 7055TIP3    H145360   6.241   5.912   3.051  1.0018  0.3921 -0.8401
 7055TIP3    H245361   6.231   5.762   3.028  0.4545  0.1936  0.5829
 7056TIP3   OH245362   1.184   0.441   2.182  0.0759  0.0249 -0.3599
 7056TIP3    H145363   1.256   0.378   2.177  0.1764  0.2427 -2.2943
 7056TIP3    H245364   1.223   0.525   2.156 -0.3844  0.6412  0.8077
 7057TIP3   OH245365   4.318   0.949   2.258 -0.4887  0.3069  0.3214
 7057TIP3    H145366   4.309   0.977   2.166  0.9274 -1.5834 -0.4608
 7057TIP3    H245367   4.325   1.031   2.307  1.3815  1.3908 -1.5760
 7058TIP3   OH245368   4.889   5.634   3.820 -0.2342  0.2623  0.4119
 7058TIP3    H145369   4.851   5.713   3.782  0.9507  0.7308  0.1743
 7058TIP3    H245370   4.981   5.635   3.793  0.0491 -0.6570  1.2592
 7059TIP3   OH245371   4.268   0.832   5.736 -0.1611 -0.3787  0.1798
 7059TIP3    H145372   4.194   0.771   5.739  1.0644 -2.0020 -0.5805
 7059TIP3    H245373   4.342   0.778   5.705  1.4478  1.0544  1.3199
 7060TIP3   OH245374   5.576   6.817   3.465 -0.3084  0.0606  0.3409
 7060TIP3    H145375   5.507   6.762   3.429 -0.6241  0.4841  0.2883
 7060TIP3    H245376   5.634   6.834   3.390  0.2208 -0.8313  0.5306
 7061TIP3   OH245377   6.035   3.114   3.610 -0.6529 -0.1972 -0.6062
 7061TIP3    H145378   6.068   3.037   3.565 -1.9062 -0.9600 -0.2630
 7061TIP3    H245379   5.948   3.128   3.574 -1.2823 -0.2239  0.8471
 7062TIP3   OH245380   4.006   5.449   3.521  0.4583 -0.5987  0.1813
 7062TIP3    H145381   3.963   5.526   3.557  0.0835 -0.1176 -1.2302
 7062TIP3    H245382   4.097   5.457   3.550  0.4336  0.4075  0.0275
 7063TIP3   OH245383   2.168   4.686   4.588  0.9927 -0.0847  0.3124
 7063TIP3    H145384   2.085   4.731   4.600 -0.1860 -1.8195 -0.8436
 7063TIP3    H245385   2.194   4.706   4.498  0.3453 -1.7622 -0.2960
 7064TIP3   OH245386   3.736   6.552   3.302 -0.5485 -0.2490 -0.2304
 7064TIP3    H145387   3.725   6.510   3.217 -1.4731  0.9109 -0.7216
 7064TIP3    H245388   3.765   6.641   3.281  0.8307 -0.4394  0.7468
 7065TIP3   OH245389   1.315   2.003   3.882  0.0766  0.0618 -0.3755
 7065TIP3    H145390   1.388   2.018   3.822  1.9103 -0.7412  1.5200
 7065TIP3    H245391   1.284   2.091   3.905  1.8290  0.5202  0.3544
 7066TIP3   OH245392   5.597   1.639   3.571 -0.1919 -0.4575 -0.4275
 7066TIP3    H145393   5.521   1.582   3.560 -0.8426  0.2430  0.3003
 7066TIP3    H245394   5.583   1.681   3.656  2.0389 -1.8383  0.6934
 7067TIP3   OH245395   1.061   1.274   3.220  0.3481 -0.1620 -0.4785
 7067TIP3    H145396   1.015   1.245   3.299  0.4565  0.5242 -0.1505
 7067TIP3    H245397   1.066   1.370   3.229  1.7778 -0.2055 -0.5386
 7068TIP3   OH245398   5.239   6.507   5.109 -0.6680 -0.1683 -0.1406
 7068TIP3    H145399   5.219   6.552   5.191  0.2579  0.7147 -0.3826
 7068TIP3    H245400   5.184   6.551   5.043 -2.0907 -1.4655  0.1197
 7069TIP3   OH245401   0.821   5.345   5.063 -0.2939  0.2042  0.0661
 7069TIP3    H145402   0.859   5.281   5.123  0.3594 -0.5466 -1.1037
 7069TIP3    H245403   0.726   5.339   5.078 -0.2822 -1.3804 -0.3256
 7070TIP3   OH245404   1.580   4.672   4.497 -0.4642 -0.7723  0.5479
 7070TIP3    H145405   1.624   4.708   4.421 -1.4938 -1.0314 -0.1950
 7070TIP3    H245406   1.529   4.598   4.463 -1.5221 -0.4431  1.3518
 7071TIP3   OH245407   2.189   3.731   3.064 -0.0645  0.1087  0.0901
 7071TIP3    H145408   2.240   3.765   3.138 -0.6082 -1.5731  1.3199
 7071TIP3    H245409   2.248   3.738   2.989  1.1983  0.1821  1.0448
 7072TIP3   OH245410   3.082   6.439   1.834  0.1034 -0.4368  0.4257
 7072TIP3    H145411   3.149   6.503   1.859  1.3443 -1.9724  1.2083
 7072TIP3    H245412   3.126   6.382   1.771 -0.0678 -2.1031  1.7352
 7073TIP3   OH245413   6.628   1.248   2.780  0.0097  0.3523 -0.1383
 7073TIP3    H145414   6.582   1.167   2.805  0.5241  0.1542  0.2085
 7073TIP3    H245415   6.569   1.292   2.720 -1.4528  1.0133  1.6972
 7074TIP3   OH245416   2.759   4.779   4.424  0.1937  0.2689  0.4880
 7074TIP3    H145417   2.682   4.820   4.463  0.4720  0.7990  0.4804
 7074TIP3    H245418   2.727   4.695   4.391 -0.5993  0.9088 -0.3918
 7075TIP3   OH245419   3.304   4.670   1.999 -0.5355  0.1094 -0.0249
 7075TIP3    H145420   3.302   4.699   2.090 -0.6888  1.8388 -0.5410
 7075TIP3    H245421   3.214   4.681   1.968 -0.1479  1.2320 -0.8440
 7076TIP3   OH245422   3.746   5.031   4.652  0.1251  0.2905 -0.0163
 7076TIP3    H145423   3.798   5.003   4.727 -1.1840  0.0804  0.8545
 7076TIP3    H245424   3.799   5.007   4.576 -0.1173 -3.1132  0.6977
 7077TIP3   OH245425   6.080   1.300   2.393  0.2541  0.3998  0.4080
 7077TIP3    H145426   6.174   1.313   2.380  0.6449 -1.4951  1.1026
 7077TIP3    H245427   6.073   1.249   2.473 -1.3178 -0.2928 -0.1289
 7078TIP3   OH245428   1.350   3.727   3.659  0.9062  0.0743  0.4156
 7078TIP3    H145429   1.298   3.752   3.736 -0.0818 -0.8869  0.0893
 7078TIP3    H245430   1.435   3.768   3.674  0.2337  1.2671  1.2238
 7079TIP3   OH245431   0.262   2.785   2.608  0.3772 -0.9892 -0.0613
 7079TIP3    H145432   0.278   2.727   2.534  2.1954 -0.6329  0.0280
 7079TIP3    H245433   0.202   2.735   2.664 -0.1197 -1.7102 -1.1974
 7080TIP3   OH245434   3.879   2.751   4.618  0.1950 -0.7506  0.3502
 7080TIP3    H145435   3.806   2.795   4.574  1.2589  1.0095  0.2511
 7080TIP3    H245436   3.877   2.661   4.584 -1.0692 -0.3563 -0.7053
 7081TIP3   OH245437   2.803   0.377   4.022  0.0433  0.2639  0.0635
 7081TIP3    H145438   2.780   0.313   3.956 -0.1367  2.0149 -1.6647
 7081TIP3    H245439   2.725   0.432   4.032  0.5422  0.8963  0.6797
 7082TIP3   OH245440   2.578   0.098   1.663 -0.1060 -0.1317 -0.2552
 7082TIP3    H145441   2.618   0.039   1.727 -0.7713 -1.0186 -0.6335
 7082TIP3    H245442   2.489   0.063   1.651 -0.2595  0.5031 -1.0523
 7083TIP3   OH245443   2.007   3.681   4.548 -0.5175  0.8985  0.0081
 7083TIP3    H145444   1.998   3.686   4.452 -3.1642  0.3071  0.1338
 7083TIP3    H245445   2.071   3.612   4.563  0.2753  1.3059 -1.3274
 7084TIP3   OH245446   2.620   0.365   1.716 -0.1989  0.2550 -0.8128
 7084TIP3    H145447   2.628   0.396   1.626  1.0692 -0.1782 -0.8672
 7084TIP3    H245448   2.615   0.270   1.709  0.9325  0.1432 -0.3974
 7085TIP3   OH245449   6.604   3.597   4.336 -0.7246 -0.2973  0.1302
 7085TIP3    H145450   6.612   3.688   4.308 -1.8205  0.0853  1.0090
 7085TIP3    H245451   6.524   3.594   4.389 -0.7692 -1.7882  0.0425
 7086TIP3   OH245452   3.624   2.613   3.516  0.0864  0.2295 -0.3296
 7086TIP3    H145453   3.602   2.575   3.431 -0.8602 -0.1835  0.0857
 7086TIP3    H245454   3.666   2.696   3.495  1.3462 -0.6114 -1.2274
 7087TIP3   OH245455   3.523   4.476   2.266 -0.4514  0.3390 -0.3728
 7087TIP3    H145456   3.606   4.452   2.225  1.2703  1.5424  2.1025
 7087TIP3    H245457   3.494   4.554   2.219  0.0289  0.1497 -0.9969
 7088TIP3   OH245458   0.426   6.585   3.796  0.1935 -0.1815  0.0867
 7088TIP3    H145459   0.421   6.511   3.735  0.0677  1.3916 -1.9183
 7088TIP3    H245460   0.344   6.632   3.783  0.3312  0.4079  1.2201
 7089TIP3   OH245461   5.808   0.110   5.229  0.7933 -0.7973 -0.2230
 7089TIP3    H145462   5.881   0.070   5.277 -0.6653 -2.0089  1.1028
 7089TIP3    H245463   5.730   0.073   5.270 -0.6262  1.8360 -0.3980
 7090TIP3   OH245464   5.424   6.554   3.371 -0.1602 -0.3296 -1.0202
 7090TIP3    H145465   5.467   6.477   3.334 -0.6184 -0.8614 -0.4696
 7090TIP3    H245466   5.361   6.518   3.434  1.1449  0.5769  0.8866
 7091TIP3   OH245467   5.921   6.662   4.552  0.4220  0.3484 -0.2236
 7091TIP3    H145468   5.865   6.618   4.616  1.6058  0.1661  0.7391
 7091TIP3    H245469   5.862   6.719   4.503 -0.2334  2.4478  2.7386
 7092TIP3   OH245470   3.427   3.702   4.026 -0.0300 -0.1466  0.2430
 7092TIP3    H145471   3.357   3.728   3.966 -0.0371 -0.3725  0.1541
 7092TIP3    H245472   3.443   3.780   4.079  0.3014  0.2051 -0.3621
 7093TIP3   OH245473   4.637   0.423   4.949  0.1958  0.1750  0.2981
 7093TIP3    H145474   4.590   0.360   5.003 -0.3457 -0.2029 -0.5861
 7093TIP3    H245475   4.584   0.503   4.954 -0.0072  0.0535  0.1007
 7094TIP3   OH245476   2.594   2.468   3.278 -0.3395  0.1706  0.8198
 7094TIP3    H145477   2.564   2.494   3.191  0.6363 -1.3135  0.0109
 7094TIP3    H245478   2.541   2.392   3.300 -0.2227  0.2258  1.3131
 7095TIP3   OH245479   6.274   1.075   3.095 -0.4658 -0.3291 -0.0168
 7095TIP3    H145480   6.193   1.051   3.049 -1.7058  1.7527  0.9130
 7095TIP3    H245481   6.254   1.058   3.187  0.2773 -0.1157  0.1885
 7096TIP3   OH245482   6.446   2.837   3.304  0.5665  0.4525  0.0816
 7096TIP3    H145483   6.433   2.742   3.301 -0.9097  0.6283 -0.0100
 7096TIP3    H245484   6.402   2.869   3.225  2.1014  1.1242 -0.5313
 7097TIP3   OH245485   2.233   2.932   4.382 -0.9672 -0.2158 -0.3017
 7097TIP3    H145486   2.230   3.008   4.323 -1.3202 -0.5600 -0.7378
 7097TIP3    H245487   2.296   2.873   4.341 -1.0513 -0.3622 -0.2210
 7098TIP3   OH245488   2.160   1.628   2.037  0.4856 -0.0374  0.4242
 7098TIP3    H145489   2.168   1.721   2.058  0.5343 -0.1313  0.8199
 7098TIP3    H245490   2.241   1.588   2.070 -0.4388 -0.5670  2.1767
 7099TIP3   OH245491   6.708   0.694   4.493 -0.3067 -0.2060  0.5778
 7099TIP3    H145492   6.699   0.756   4.566 -0.8040 -0.2119  0.5236
 7099TIP3    H245493   6.776   0.633   4.522 -0.9032 -0.5479  1.2835
 7100TIP3   OH245494   4.470   6.503   4.082  0.3938  0.2637 -0.1540
 7100TIP3    H145495   4.477   6.480   3.989  2.0909 -0.7590  0.1726
 7100TIP3    H245496   4.408   6.439   4.117  0.3814  0.1173 -0.4337
 7101TIP3   OH245497   4.752   1.330   2.578 -0.6309  0.1244 -0.4755
 7101TIP3    H145498   4.800   1.300   2.655 -0.4041 -1.7015 -1.2650
 7101TIP3    H245499   4.701   1.405   2.608  0.4888  0.2859  1.0976
 7102TIP3   OH245500   4.248   6.835   2.816  0.1518  0.1065  0.1292
 7102TIP3    H145501   4.256   6.802   2.726  2.3256 -1.0131  0.6633
 7102TIP3    H245502   4.322   6.895   2.826 -1.3795  2.0333  0.5031
 7103TIP3   OH245503   3.406   1.383   4.743  0.2027 -0.2385 -0.1903
 7103TIP3    H145504   3.500   1.375   4.727  0.3713 -0.0527  0.6337
 7103TIP3    H245505   3.399   1.395   4.838 -0.4435  2.5200 -0.5007
 7104TIP3   OH245506   3.774   0.641   4.929  0.4336 -0.4411 -0.1346
 7104TIP3    H145507   3.753   0.592   4.850 -2.0128  1.9797 -1.1233
 7104TIP3    H245508   3.747   0.583   5.001  0.7266 -1.8186 -1.0871
 7105TIP3   OH245509   0.606   0.235   4.523 -0.4478  0.0748 -0.0457
 7105TIP3    H145510   0.607   0.294   4.447  0.3742 -0.6073 -0.5761
 7105TIP3    H245511   0.620   0.292   4.598 -0.7201  0.6885 -0.4517
 7106TIP3   OH245512   0.688   3.109   3.793  0.4148 -0.2398 -0.2096
 7106TIP3    H145513   0.721   3.047   3.859  1.7378  0.2087 -0.4328
 7106TIP3    H245514   0.701   3.195   3.833 -0.1474 -0.0270 -0.4707
 7107TIP3   OH245515   3.273   6.429   2.215 -0.0848  0.6115  0.3844
 7107TIP3    H145516   3.330   6.460   2.285  1.1061  1.9099 -1.0868
 7107TIP3    H245517   3.333   6.398   2.147 -1.1733  0.3423 -0.4843
 7108TIP3   OH245518   3.290   3.590   2.066  0.2140  0.0882  0.1139
 7108TIP3    H145519   3.370   3.641   2.052  0.7491 -0.9000 -0.5158
 7108TIP3    H245520   3.313   3.529   2.136 -0.3114  0.4596  0.6180
 7109TIP3   OH245521   5.504   3.218   4.134 -0.3805 -0.1984  0.1673
 7109TIP3    H145522   5.456   3.168   4.068  2.0845 -0.7492 -1.3589
 7109TIP3    H245523   5.487   3.309   4.113 -0.3563 -0.3807 -0.7079
 7110TIP3   OH245524   5.053   0.866   4.609  0.0300 -0.0443 -0.0828
 7110TIP3    H145525   5.009   0.788   4.576  1.4442 -0.8052 -0.2612
 7110TIP3    H245526   5.146   0.843   4.606  0.3257  0.5919  2.5535
 7111TIP3   OH245527   3.476   2.526   3.719  0.2535 -0.0275 -0.5482
 7111TIP3    H145528   3.519   2.556   3.639 -2.2422 -0.6359 -2.2501
 7111TIP3    H245529   3.400   2.584   3.727 -0.0313 -0.5801  0.8915
 7112TIP3   OH245530   6.506   0.083   4.581  0.0547 -0.0712 -0.2218
 7112TIP3    H145531   6.426   0.110   4.536 -0.2938  0.4787  0.6989
 7112TIP3    H245532   6.566   0.158   4.570 -0.3755  0.4792  1.0346
 7113TIP3   OH245533   1.578   1.518   2.518 -0.1804 -0.5629 -0.0299
 7113TIP3    H145534   1.668   1.528   2.487 -0.5544  0.7428 -0.7890
 7113TIP3    H245535   1.530   1.482   2.444 -0.5708  0.1592 -0.1431
 7114TIP3   OH245536   2.846   4.217   3.801 -0.1915 -0.1308  0.0576
 7114TIP3    H145537   2.759   4.177   3.808  0.7834 -2.1732  1.5746
 7114TIP3    H245538   2.889   4.168   3.731  0.0553  0.2219 -0.0356
 7115TIP3   OH245539   5.262   4.943   2.743 -0.1726  0.4786 -0.0910
 7115TIP3    H145540   5.216   4.902   2.817  0.0400  1.4969  0.6301
 7115TIP3    H245541   5.353   4.948   2.771  0.0340  0.2746 -0.7042
 7116TIP3   OH245542   4.151   2.570   2.253 -0.1949  0.1521  0.0608
 7116TIP3    H145543   4.190   2.588   2.167  0.1630 -0.1071  0.1665
 7116TIP3    H245544   4.226   2.570   2.313 -0.6469  2.4848  0.7367
 7117TIP3   OH245545   6.782   1.015   5.341  0.1360  0.0565  0.3206
 7117TIP3    H145546   6.772   0.932   5.387 -1.1358 -0.8219 -1.4609
 7117TIP3    H245547   6.876   1.028   5.336  0.3386 -0.4603  1.9604
 7118TIP3   OH245548   4.364   1.131   4.333 -0.6443  0.3505 -0.3112
 7118TIP3    H145549   4.425   1.127   4.407  1.3651 -0.9608 -1.9245
 7118TIP3    H245550   4.420   1.153   4.258 -2.7319  2.4850 -1.3667
 7119TIP3   OH245551   2.277   3.832   4.254 -0.1361 -0.1252  0.0663
 7119TIP3    H145552   2.243   3.743   4.265 -0.9024  0.1436 -0.0529
 7119TIP3    H245553   2.248   3.878   4.332  2.0530 -0.4905  1.1721
 7120TIP3   OH245554   4.624   5.341   2.331  0.5248  0.4459 -0.3987
 7120TIP3    H145555   4.647   5.248   2.322  0.4687  0.4651 -0.7863
 7120TIP3    H245556   4.547   5.342   2.388  0.5220  0.2536 -0.3983
 7121TIP3   OH245557   1.981   2.146   2.418 -0.4756  0.1482  0.9147
 7121TIP3    H145558   2.015   2.172   2.332 -0.7422 -2.5412 -0.0870
 7121TIP3    H245559   1.889   2.172   2.416 -0.2116  1.1348  0.8759
 7122TIP3   OH245560   6.792   6.436   2.509  0.2041 -0.1988  0.4071
 7122TIP3    H145561   6.696   6.440   2.511  0.1944 -0.4295  2.3787
 7122TIP3    H245562   6.812   6.356   2.461 -0.5860 -0.1099 -0.0855
 7123TIP3   OH245563   0.971   3.755   3.470 -0.2413  0.5739 -0.1887
 7123TIP3    H145564   0.968   3.837   3.519 -0.6136 -0.6049  1.8662
 7123TIP3    H245565   0.978   3.687   3.537 -0.4372 -1.1183 -1.8048
 7124TIP3   OH245566   1.278   6.312   4.726 -0.0276  0.0380  0.1572
 7124TIP3    H145567   1.369   6.321   4.699  0.4633  1.4693  2.0566
 7124TIP3    H245568   1.276   6.228   4.772 -0.2289 -1.0475 -1.7362
 7125TIP3   OH245569   5.148   6.705   3.100 -0.3358  0.0578  0.1196
 7125TIP3    H145570   5.145   6.750   3.015 -0.5799 -0.5586 -0.2038
 7125TIP3    H245571   5.074   6.643   3.097 -1.1004  0.8685  1.2547
 7126TIP3   OH245572   4.719   1.760   2.152  0.4077 -1.0756  0.6931
 7126TIP3    H145573   4.686   1.801   2.232  0.5613  0.4556  0.0022
 7126TIP3    H245574   4.673   1.676   2.147 -0.6325 -0.5827  1.6548
 7127TIP3   OH245575   1.034   2.718   3.066 -0.2130 -0.0900 -0.7196
 7127TIP3    H145576   1.092   2.794   3.075 -0.7885  0.2156  0.6855
 7127TIP3    H245577   1.091   2.649   3.033  1.0325  0.1800  0.7194
 7128TIP3   OH245578   0.300   2.599   3.869 -0.5193 -0.0049  0.0465
 7128TIP3    H145579   0.373   2.652   3.837 -0.4138  0.7920  1.5301
 7128TIP3    H245580   0.295   2.526   3.808  0.6097  0.6746 -0.8984
 7129TIP3   OH245581   2.359   5.023   1.942  0.2823  0.1282 -0.7286
 7129TIP3    H145582   2.269   4.996   1.923  0.0378  1.4023 -1.5297
 7129TIP3    H245583   2.383   4.975   2.021 -1.5869  0.8129  0.3056
 7130TIP3   OH245584   6.517   1.650   4.276 -0.3386 -0.1395  0.3789
 7130TIP3    H145585   6.422   1.640   4.278 -0.2095 -1.8280 -0.2557
 7130TIP3    H245586   6.532   1.741   4.300 -2.1661  0.4590 -0.5516
 7131TIP3   OH245587   0.090   4.368   3.657 -0.4089 -0.8884  0.1245
 7131TIP3    H145588   0.179   4.361   3.693 -0.9634  0.1155  1.7733
 7131TIP3    H245589   0.044   4.293   3.693 -0.2563 -1.3808 -0.6913
 7132TIP3   OH245590   1.160   6.285   2.687 -0.0778 -0.1198 -0.0002
 7132TIP3    H145591   1.229   6.285   2.754 -0.8131  1.1300  0.8108
 7132TIP3    H245592   1.206   6.291   2.604  0.9564  5.2631  0.5646
 7133TIP3   OH245593   1.249   2.194   1.714  0.1613 -0.2964  0.5925
 7133TIP3    H145594   1.223   2.280   1.749  0.9418 -0.5288  1.8345
 7133TIP3    H245595   1.330   2.212   1.666  0.0871 -0.2629  0.4811
 7134TIP3   OH245596   6.664   1.481   3.004 -0.1563 -0.2573 -0.6567
 7134TIP3    H145597   6.675   1.415   2.935  0.6274  1.6698 -2.4875
 7134TIP3    H245598   6.582   1.525   2.981  0.3442  0.6965 -0.6462
 7135TIP3   OH245599   1.136   2.459   3.814 -0.3674  0.1675  0.2312
 7135TIP3    H145600   1.136   2.542   3.767 -1.7725 -1.4226 -2.8505
 7135TIP3    H245601   1.229   2.442   3.831  0.0132  1.8986  0.0570
 7136TIP3   OH245602   5.884   4.276   4.146  0.0545 -0.0887 -0.4479
 7136TIP3    H145603   5.962   4.220   4.148  0.8314  0.9611  0.4317
 7136TIP3    H245604   5.877   4.303   4.054  1.3077  0.5403 -0.3849
 7137TIP3   OH245605   4.966   6.690   2.072  0.0491  0.1873 -0.5870
 7137TIP3    H145606   4.879   6.661   2.043 -0.6889  0.4933  1.1703
 7137TIP3    H245607   4.997   6.619   2.129  0.1896  0.8169  0.1445
 7138TIP3   OH245608   0.053   1.306   2.161 -0.3657 -0.1938  0.0783
 7138TIP3    H145609   0.001   1.357   2.224 -0.1935 -0.2048  0.2277
 7138TIP3    H245610  -0.010   1.244   2.123 -1.0217  1.2912 -1.4078
 7139TIP3   OH245611   5.727   5.590   2.275 -0.2791  0.0479 -0.2470
 7139TIP3    H145612   5.704   5.541   2.196 -0.7615  1.6874 -1.1846
 7139TIP3    H245613   5.816   5.563   2.295 -0.6981 -1.5733 -0.4061
 7140TIP3   OH245614   3.408   1.017   3.219 -0.0596 -0.4594 -0.1571
 7140TIP3    H145615   3.367   1.036   3.135 -0.5639 -0.1674  0.1519
 7140TIP3    H245616   3.361   1.072   3.281  0.4818 -0.4810  0.2757
 7141TIP3   OH245617   6.216   6.648   3.712 -0.7647  0.1174  0.3888
 7141TIP3    H145618   6.290   6.695   3.674  0.2454 -2.1606 -0.6171
 7141TIP3    H245619   6.157   6.717   3.742  0.4337  2.0221 -1.3672
 7142TIP3   OH245620   4.125   2.477   2.727 -0.4742 -0.7528 -0.0813
 7142TIP3    H145621   4.085   2.445   2.646 -0.1928 -1.3568  0.0156
 7142TIP3    H245622   4.053   2.522   2.772 -0.8680 -1.2298 -0.2279
 7143TIP3   OH245623   5.371   6.320   5.320  0.1998 -0.1226 -0.0463
 7143TIP3    H145624   5.357   6.414   5.304 -1.7138 -0.5407 -1.1508
 7143TIP3    H245625   5.371   6.281   5.233  0.6360 -1.1942  0.4203
 7144TIP3   OH245626   4.284   2.417   3.957  0.5441  0.0270 -0.6260
 7144TIP3    H145627   4.250   2.502   3.929  0.3061  0.0054 -0.4010
 7144TIP3    H245628   4.327   2.434   4.041  2.5871  0.3885 -1.6891
 7145TIP3   OH245629   5.181   2.659   3.166 -0.0685 -0.2535 -0.8444
 7145TIP3    H145630   5.130   2.739   3.157  1.4252  0.7674 -0.6199
 7145TIP3    H245631   5.199   2.631   3.076  1.2886  0.9459 -0.9787
 7146TIP3   OH245632   4.466   6.703   4.693  0.5346  0.1577  0.3634
 7146TIP3    H145633   4.372   6.693   4.701  0.4139  0.1581 -0.8069
 7146TIP3    H245634   4.483   6.693   4.599  1.7893 -0.6475  0.6485
 7147TIP3   OH245635   4.876   5.871   2.780 -0.4598  0.0323 -0.5964
 7147TIP3    H145636   4.789   5.837   2.800 -0.1085  0.1489  1.2736
 7147TIP3    H245637   4.905   5.913   2.860  2.2367 -1.9717 -0.3568
 7148TIP3   OH245638   3.416   5.636   2.867  0.2076 -0.1701  0.2318
 7148TIP3    H145639   3.487   5.674   2.815 -1.3595  1.0769 -1.0913
 7148TIP3    H245640   3.459   5.569   2.921  2.3419  0.4306 -0.6202
 7149TIP3   OH245641   0.200   5.134   3.979 -0.0261  0.0906  0.1095
 7149TIP3    H145642   0.114   5.103   3.951  0.1119  0.0697 -0.2957
 7149TIP3    H245643   0.249   5.146   3.898 -0.0697  1.3541  0.2379
 7150TIP3   OH245644   3.696   4.994   3.248 -0.0883  0.1572  0.2847
 7150TIP3    H145645   3.774   5.040   3.277  0.9318 -0.8425 -0.7721
 7150TIP3    H245646   3.688   4.919   3.307 -0.6331  0.6092  0.7944
 7151TIP3   OH245647   3.705   3.588   2.184  0.0281  0.3472 -0.5650
 7151TIP3    H145648   3.640   3.636   2.133 -1.5713  0.3094  1.3262
 7151TIP3    H245649   3.715   3.505   2.137 -1.7122  0.1396 -0.6448
 7152TIP3   OH245650   3.349   1.912   4.070 -0.2302 -0.2054  0.1398
 7152TIP3    H145651   3.296   1.898   4.149 -0.3000 -1.5886 -0.1283
 7152TIP3    H245652   3.365   1.824   4.036  2.2425  0.1595  0.1946
 7153TIP3   OH245653   3.096   6.694   2.152 -0.4366 -0.0790  0.1974
 7153TIP3    H145654   3.163   6.626   2.140  2.0404  2.3049 -0.3548
 7153TIP3    H245655   3.046   6.692   2.070 -0.1263 -0.9108  0.0099
 7154TIP3   OH245656   4.429   2.806   4.665 -0.3604  0.1690  0.0853
 7154TIP3    H145657   4.463   2.798   4.754 -0.9167 -0.0189  0.2867
 7154TIP3    H245658   4.362   2.874   4.670  1.2783  1.9271 -0.7050
 7155TIP3   OH245659   4.793   4.379   2.122  0.2302 -0.4301  0.1240
 7155TIP3    H145660   4.738   4.367   2.199 -0.5593 -1.5323 -0.5787
 7155TIP3    H245661   4.883   4.364   2.153  0.2337  1.6751  1.3412
 7156TIP3   OH245662   0.528   4.345   2.993 -0.2910  0.1286  0.5556
 7156TIP3    H145663   0.602   4.406   2.992  0.6252 -0.9187 -0.6904
 7156TIP3    H245664   0.475   4.371   2.918 -0.8893  0.5211  1.1107
 7157TIP3   OH245665   3.027   5.995   4.093  0.5391 -0.3173  0.5382
 7157TIP3    H145666   3.019   5.910   4.050  0.9099  1.6712 -4.0476
 7157TIP3    H245667   3.121   6.015   4.088  0.4333  0.4447  1.3899
 7158TIP3   OH245668   6.316   1.993   3.086  1.0073  0.0581 -0.9329
 7158TIP3    H145669   6.270   2.068   3.049  0.3865  0.6082  0.8302
 7158TIP3    H245670   6.407   2.021   3.095  0.4086  1.4444  1.6385
 7159TIP3   OH245671   5.300   3.326   2.951 -0.1504 -0.4611 -0.0928
 7159TIP3    H145672   5.252   3.358   2.875 -0.9065  0.0549  0.5937
 7159TIP3    H245673   5.333   3.405   2.994 -2.4345 -0.4857  1.8803
 7160TIP3   OH245674   6.304   1.225   3.801 -0.3190 -0.0342 -0.2524
 7160TIP3    H145675   6.398   1.236   3.813  0.2663 -2.8653 -1.3747
 7160TIP3    H245676   6.264   1.270   3.876  1.9171  0.9504  0.4176
 7161TIP3   OH245677   1.936   1.820   4.349  0.8464 -0.0587 -0.0273
 7161TIP3    H145678   2.007   1.786   4.295  0.5722  1.2787 -1.2865
 7161TIP3    H245679   1.959   1.911   4.365 -0.1125  0.1254  0.3788
 7162TIP3   OH245680   2.716   1.395   2.090 -0.1314 -0.2587 -0.6578
 7162TIP3    H145681   2.677   1.459   2.150  1.2789 -1.1658  1.3817
 7162TIP3    H245682   2.663   1.316   2.102  0.3280 -0.5275 -0.3560
 7163TIP3   OH245683   1.883   3.601   2.265  0.0337 -0.3550  0.0853
 7163TIP3    H145684   1.798   3.586   2.305  1.9908 -3.3282  3.7543
 7163TIP3    H245685   1.938   3.635   2.335  2.6996 -1.8737 -1.1052
 7164TIP3   OH245686   1.802   3.010   4.979  0.0652 -0.2647 -0.4419
 7164TIP3    H145687   1.827   3.043   5.065  0.0270  2.7776 -1.4822
 7164TIP3    H245688   1.738   3.073   4.947  0.6388 -0.8820 -3.0173
 7165TIP3   OH245689   2.430   2.702   3.376 -0.4820  0.3755 -0.3131
 7165TIP3    H145690   2.368   2.711   3.303 -0.7096 -0.3306 -0.2129
 7165TIP3    H245691   2.510   2.670   3.336 -0.8177 -0.6717 -0.1688
 7166TIP3   OH245692   2.825   2.066   2.861  0.1506  0.4551 -0.8733
 7166TIP3    H145693   2.757   2.121   2.900  0.2046  0.2554 -0.4868
 7166TIP3    H245694   2.849   2.111   2.780  1.3119  1.8614  0.1982
 7167TIP3   OH245695   5.682   0.325   3.965 -0.0812 -0.3694  0.5382
 7167TIP3    H145696   5.602   0.274   3.977 -0.8095  0.9427  1.4651
 7167TIP3    H245697   5.672   0.365   3.879 -0.3915 -0.2633  0.6225
 7168TIP3   OH245698   3.452   2.961   4.841 -0.2451  0.0009  0.5016
 7168TIP3    H145699   3.363   2.985   4.815 -0.4170 -0.9248  0.1856
 7168TIP3    H245700   3.450   2.958   4.937 -0.8879 -1.1865  0.4661
 7169TIP3   OH245701   3.898   0.040   2.640 -0.5010 -0.0128 -0.2973
 7169TIP3    H145702   3.965   0.101   2.610 -0.8214  0.6450  0.3173
 7169TIP3    H245703   3.923  -0.044   2.599 -0.1257  0.5391 -1.2378
 7170TIP3   OH245704   3.795   0.169   2.977  0.6190  0.7397  0.3837
 7170TIP3    H145705   3.808   0.106   2.907 -0.0871  0.4533  0.4983
 7170TIP3    H245706   3.865   0.151   3.040  0.7075  0.3953  0.1868
 7171TIP3   OH245707   6.390   6.711   3.416 -0.2764 -0.6725  0.2174
 7171TIP3    H145708   6.375   6.739   3.506 -0.6868 -0.1802 -0.0035
 7171TIP3    H245709   6.434   6.626   3.425 -0.0487 -0.4928  0.8799
 7172TIP3   OH245710   6.555   3.601   3.750 -0.1519  0.0559 -0.0140
 7172TIP3    H145711   6.523   3.621   3.838  0.2395  0.0306  0.1365
 7172TIP3    H245712   6.492   3.643   3.691  0.0004  0.7289  0.2867
 7173TIP3   OH245713   6.202   0.981   4.387 -0.0216 -0.6809 -0.4251
 7173TIP3    H145714   6.151   0.901   4.400 -0.9725 -0.0070  0.1010
 7173TIP3    H245715   6.275   0.954   4.330  1.0828 -2.4738  1.6621
 7174TIP3   OH245716   3.430   6.782   3.973 -0.3356  0.1816  0.0253
 7174TIP3    H145717   3.478   6.705   4.004 -1.3080 -0.0548  0.9865
 7174TIP3    H245718   3.444   6.783   3.879  0.3927 -0.6772  0.1172
 7175TIP3   OH245719   5.213   2.996   2.831  0.0762  0.0549  0.0109
 7175TIP3    H145720   5.247   2.978   2.743 -1.2527  0.4192 -0.6030
 7175TIP3    H245721   5.283   3.046   2.874  1.2234 -1.1268 -0.4081
 7176TIP3   OH245722   5.808   3.190   3.492  0.5900  0.0408  0.2251
 7176TIP3    H145723   5.724   3.189   3.537  0.8278 -0.0490  0.6692
 7176TIP3    H245724   5.785   3.182   3.399 -0.0263  2.0568  0.1454
 7177TIP3   OH245725   3.928   0.059   4.637 -0.2378 -0.2614 -0.0685
 7177TIP3    H145726   3.977   0.046   4.718 -0.7647 -2.1145 -0.0112
 7177TIP3    H245727   3.865   0.128   4.657  0.0505 -0.2771  0.9153
 7178TIP3   OH245728   6.703   1.783   3.312 -0.4293  0.0742 -0.3876
 7178TIP3    H145729   6.656   1.703   3.288 -0.6809 -0.0532  0.5049
 7178TIP3    H245730   6.720   1.826   3.228  0.0539 -1.0955 -0.9241
 7179TIP3   OH245731   2.881   0.395   3.371 -0.0688  0.2416  0.0426
 7179TIP3    H145732   2.941   0.470   3.380 -0.2512  0.3761  0.1506
 7179TIP3    H245733   2.834   0.393   3.455 -1.0541  0.8581 -0.4744
 7180TIP3   OH245734   2.390   5.535   4.033  0.0118 -0.7800 -1.0577
 7180TIP3    H145735   2.417   5.475   4.103  0.3196  1.7590  1.1852
 7180TIP3    H245736   2.295   5.537   4.039 -0.0103 -1.1420 -1.2491
 7181TIP3   OH245737   2.467   3.478   5.184 -0.2064  0.1842 -0.1422
 7181TIP3    H145738   2.388   3.441   5.145 -0.0360 -0.1943 -0.1353
 7181TIP3    H245739   2.473   3.437   5.270  0.4505 -0.4401 -0.4732
 7182TIP3   OH245740   0.731   2.979   4.027 -0.2632  0.4188  0.1045
 7182TIP3    H145741   0.749   2.885   4.035  1.5862  0.6578 -0.8374
 7182TIP3    H245742   0.785   3.020   4.095 -1.3990  0.8074  0.8114
 7183TIP3   OH245743   0.963   3.011   3.300  0.1199  0.0943 -0.2016
 7183TIP3    H145744   1.051   2.984   3.324 -0.6016 -1.7609  0.5171
 7183TIP3    H245745   0.939   3.078   3.364  0.2050 -0.9603  0.9449
 7184TIP3   OH245746   6.490   1.751   5.350 -0.7127 -0.7055 -0.7103
 7184TIP3    H145747   6.509   1.661   5.376 -3.2917 -1.3957 -0.8955
 7184TIP3    H245748   6.415   1.776   5.405 -0.2887  1.2090 -0.9327
 7185TIP3   OH245749   1.827   1.573   2.421 -0.3306  0.4532 -0.2332
 7185TIP3    H145750   1.814   1.665   2.395 -1.6421  0.3592  0.0116
 7185TIP3    H245751   1.859   1.530   2.342  2.4914  1.5295  0.2089
 7186TIP3   OH245752   4.489   5.078   4.373 -0.0587  0.5182 -0.0817
 7186TIP3    H145753   4.481   5.166   4.411  0.2229 -0.2171  1.8355
 7186TIP3    H245754   4.532   5.092   4.289  1.2007  2.0963  0.7633
 7187TIP3   OH245755   3.255   0.288   2.285  0.0802  0.0226 -0.1572
 7187TIP3    H145756   3.242   0.375   2.248  2.6678 -0.4283 -2.4791
 7187TIP3    H245757   3.322   0.301   2.352  1.5519 -0.3077 -1.5084
 7188TIP3   OH245758   4.817   0.147   5.444 -0.3937  0.0949  0.8978
 7188TIP3    H145759   4.792   0.138   5.352 -0.9603 -2.3886  1.2367
 7188TIP3    H245760   4.882   0.078   5.458  0.9106  1.4799  1.9953
 7189TIP3   OH245761   6.075   1.322   3.585 -0.0776 -0.1814 -0.1773
 7189TIP3    H145762   6.158   1.345   3.628 -1.4121  2.2651  1.3025
 7189TIP3    H245763   6.048   1.402   3.540 -2.3573 -0.4186  0.6463
 7190TIP3   OH245764   4.703   1.093   5.036  0.0892 -0.6927 -0.2726
 7190TIP3    H145765   4.763   1.019   5.030  0.2721 -0.5155 -0.6266
 7190TIP3    H245766   4.708   1.121   5.128 -0.9614 -1.9416  0.1974
 7191TIP3   OH245767   3.610   5.992   4.150 -0.2976  0.1180 -0.0897
 7191TIP3    H145768   3.636   5.983   4.058 -0.5464 -0.5488 -0.1009
 7191TIP3    H245769   3.549   5.919   4.165  1.3273 -1.0516  1.1587
 7192TIP3   OH245770   3.667   3.296   4.225 -0.2001 -0.0306 -0.2517
 7192TIP3    H145771   3.659   3.391   4.219  1.7744  0.1880 -0.1728
 7192TIP3    H245772   3.714   3.270   4.146 -0.9715 -0.9976 -0.4184
 7193TIP3   OH245773   3.557   1.932   4.368  0.2432 -0.4249 -0.4193
 7193TIP3    H145774   3.519   1.966   4.449  1.2568 -1.3396  0.4716
 7193TIP3    H245775   3.599   2.009   4.328  0.0246 -0.0221  0.1004
 7194TIP3   OH245776   6.414   4.836   4.309 -0.5846  0.4540  0.6387
 7194TIP3    H145777   6.460   4.866   4.231 -0.2761  0.4612  0.8237
 7194TIP3    H245778   6.342   4.782   4.275 -0.4855  0.5030  0.3493
 7195TIP3   OH245779   0.782   5.644   4.762  0.2479  0.4115  0.3446
 7195TIP3    H145780   0.743   5.558   4.778 -0.1667  0.8289  1.7079
 7195TIP3    H245781   0.817   5.638   4.673 -0.0651 -1.0493  0.2919
 7196TIP3   OH245782   3.459   2.995   2.887  0.1765  0.2037  0.1082
 7196TIP3    H145783   3.376   3.042   2.889  0.0766  0.0168  1.2633
 7196TIP3    H245784   3.525   3.062   2.872  0.0387  0.7481  1.7174
 7197TIP3   OH245785   3.454   4.644   4.545 -0.0773 -0.4016  0.1475
 7197TIP3    H145786   3.381   4.699   4.517  0.0108 -0.6480 -0.5710
 7197TIP3    H245787   3.480   4.680   4.630  1.8475  2.5349 -1.5383
 7198TIP3   OH245788   5.572   5.532   4.258  0.2282  0.0417 -0.6643
 7198TIP3    H145789   5.652   5.581   4.237  1.3350 -0.9434  1.0561
 7198TIP3    H245790   5.538   5.575   4.336 -0.6629  0.1461 -1.1061
 7199TIP3   OH245791   1.917   1.513   2.691 -0.5636 -0.4035 -0.8159
 7199TIP3    H145792   1.928   1.527   2.597  1.5434  1.5802 -0.3702
 7199TIP3    H245793   1.877   1.593   2.723 -1.5325 -1.1736 -0.0178
 7200TIP3   OH245794   4.676   1.989   3.530  0.0569  0.1561  0.1781
 7200TIP3    H145795   4.701   2.048   3.601  0.7668 -0.0190  0.0809
 7200TIP3    H245796   4.752   1.986   3.473 -0.2541 -0.2542 -0.2263
 7201TIP3   OH245797   6.153   0.037   3.888  0.3299  0.1221  0.0152
 7201TIP3    H145798   6.173  -0.012   3.967  1.7395  0.2137 -0.2688
 7201TIP3    H245799   6.060   0.061   3.898  0.7082  0.9271  2.0574
 7202TIP3   OH245800   2.476   2.196   3.915  0.1941 -0.4494 -0.2889
 7202TIP3    H145801   2.542   2.134   3.883 -0.3695 -0.8966 -0.5967
 7202TIP3    H245802   2.413   2.143   3.963 -0.8546 -0.2940 -1.4317
 7203TIP3   OH245803   1.507   2.987   3.463  0.8411  0.2183 -0.5002
 7203TIP3    H145804   1.578   2.973   3.401 -0.0859  0.2575 -1.6148
 7203TIP3    H245805   1.509   3.081   3.481  1.0414  0.2255 -0.5638
 7204TIP3   OH245806   5.687   6.066   4.179  0.2799 -0.3886 -0.0710
 7204TIP3    H145807   5.612   6.124   4.188  1.0350  0.4424  1.1684
 7204TIP3    H245808   5.668   5.991   4.236 -0.5325 -1.2413 -1.3973
 7205TIP3   OH245809   3.063   6.410   3.060  0.5349 -0.2363 -0.2811
 7205TIP3    H145810   2.982   6.405   3.111  0.6517  0.3898 -0.0207
 7205TIP3    H245811   3.046   6.476   2.993  1.0538  0.4405  0.2237
 7206TIP3   OH245812   4.062   2.554   5.540  0.1927 -0.3595  0.0324
 7206TIP3    H145813   4.149   2.518   5.519  0.4282  1.0068 -1.5961
 7206TIP3    H245814   4.079   2.646   5.561 -0.8023 -0.2310  0.3196
 7207TIP3   OH245815   3.195   6.773   3.339 -0.0259  0.0821 -0.4737
 7207TIP3    H145816   3.240   6.808   3.262  0.1430  2.8981  0.7688
 7207TIP3    H245817   3.163   6.851   3.385 -1.1237 -1.5546  1.7056
 7208TIP3   OH245818   1.260   0.982   3.736  0.5290 -0.0829 -0.2067
 7208TIP3    H145819   1.208   0.981   3.656 -0.3565 -0.2311  0.3560
 7208TIP3    H245820   1.295   1.071   3.742 -1.4917  0.7245  0.5382
 7209TIP3   OH245821   6.101   0.509   1.926  0.5005  0.0928 -0.3057
 7209TIP3    H145822   6.190   0.527   1.955  0.2162 -0.6776  1.1479
 7209TIP3    H245823   6.104   0.419   1.893  0.6711  0.7350 -2.1291
 7210TIP3   OH245824   2.614   5.901   3.251 -0.2007 -0.3472  0.0596
 7210TIP3    H145825   2.639   5.902   3.159  4.2752 -3.0627  0.9288
 7210TIP3    H245826   2.604   5.808   3.272 -0.9119  0.1861  2.3429
 7211TIP3   OH245827   4.309   2.859   2.414  0.0187 -0.5159 -0.0577
 7211TIP3    H145828   4.306   2.774   2.458  0.0788 -1.0203 -0.9972
 7211TIP3    H245829   4.387   2.901   2.448 -1.3775  0.2954  2.3952
 7212TIP3   OH245830   4.564   4.399   2.742  0.6151 -0.3853  0.0146
 7212TIP3    H145831   4.534   4.387   2.832  0.8127 -0.8831  0.0185
 7212TIP3    H245832   4.657   4.377   2.744  1.4930  2.8784  0.3657
 7213TIP3   OH245833   0.163   2.187   3.532  0.4884 -0.0222  0.4215
 7213TIP3    H145834   0.141   2.103   3.492 -0.2306 -0.5891  1.9498
 7213TIP3    H245835   0.086   2.242   3.517  0.2656 -0.1976  0.9069
 7214TIP3   OH245836   1.975   2.492   4.927  0.0972  0.3191 -0.1202
 7214TIP3    H145837   2.067   2.519   4.919 -0.5617  2.2400 -1.8930
 7214TIP3    H245838   1.977   2.398   4.907  1.7103  0.2127  0.3345
 7215TIP3   OH245839   2.813   4.375   2.234 -0.4780  0.4411  0.4415
 7215TIP3    H145840   2.799   4.336   2.147  1.2668 -0.0069  0.3158
 7215TIP3    H245841   2.908   4.373   2.245 -0.7274 -2.1387  3.5548
 7216TIP3   OH245842   0.674   1.596   4.015  0.2700 -0.0990  0.5051
 7216TIP3    H145843   0.697   1.507   3.987 -0.2720  0.2238 -1.0119
 7216TIP3    H245844   0.756   1.644   4.013  0.1926  0.0021 -0.8849
 7217TIP3   OH245845   3.340   3.801   3.583 -0.2800  0.0477 -0.7793
 7217TIP3    H145846   3.407   3.867   3.598 -1.4140  0.9883  0.3022
 7217TIP3    H245847   3.347   3.781   3.490 -0.0232  1.8071 -1.1676
 7218TIP3   OH245848   1.833   5.848   3.074 -0.2044 -0.2105 -0.3262
 7218TIP3    H145849   1.744   5.835   3.107 -0.3532  0.6193 -0.3880
 7218TIP3    H245850   1.827   5.826   2.981 -0.3041 -0.3282 -0.2922
 7219TIP3   OH245851   5.561   1.359   2.245  0.0625  0.3628  1.0411
 7219TIP3    H145852   5.568   1.268   2.217 -0.7859  1.0572 -1.6935
 7219TIP3    H245853   5.646   1.380   2.284  0.7530 -1.1653  0.4098
 7220TIP3   OH245854   0.910   5.553   2.780 -0.0392  0.1676  0.5613
 7220TIP3    H145855   0.916   5.494   2.855 -0.6889 -0.5212  0.0902
 7220TIP3    H245856   0.830   5.603   2.794 -0.1122  0.1035  0.3827
 7221TIP3   OH245857   2.007   2.966   3.934 -0.3343 -0.1833 -0.5607
 7221TIP3    H145858   1.943   2.976   3.863  0.1313 -0.2882 -0.9982
 7221TIP3    H245859   1.973   3.022   4.004 -0.9326 -0.2751 -0.7709
 7222TIP3   OH245860   4.062   4.272   4.162  0.1728 -0.1717 -0.1065
 7222TIP3    H145861   4.093   4.193   4.118 -0.7391 -0.3743 -0.4122
 7222TIP3    H245862   4.017   4.241   4.240  2.1529  0.2135  1.2493
 7223TIP3   OH245863   3.207   1.346   3.722  0.5247 -0.1065  0.2318
 7223TIP3    H145864   3.139   1.378   3.781  0.7721  0.6962  0.0897
 7223TIP3    H245865   3.200   1.401   3.644  0.2153 -1.1399 -0.4991
 7224TIP3   OH245866   6.603   1.381   4.247  0.7542 -0.1462 -0.0637
 7224TIP3    H145867   6.552   1.328   4.187 -0.5047  0.5300  0.3814
 7224TIP3    H245868   6.556   1.464   4.252  2.0340  0.5930  0.1748
 7225TIP3   OH245869   3.270   0.880   5.114  0.3222 -0.3489 -0.3589
 7225TIP3    H145870   3.318   0.839   5.186 -1.4673 -0.2640  0.9391
 7225TIP3    H245871   3.244   0.807   5.058 -0.7846 -0.7799  0.6667
 7226TIP3   OH245872   5.046   5.677   2.685 -0.3698 -0.2907  0.1979
 7226TIP3    H145873   4.997   5.756   2.709  0.5097 -0.4680  2.8893
 7226TIP3    H245874   5.005   5.607   2.735 -0.3838 -1.3650 -1.2537
 7227TIP3   OH245875   6.683   0.575   3.171 -0.1181  0.1365  0.3198
 7227TIP3    H145876   6.608   0.546   3.120 -0.6485  2.3366 -0.2379
 7227TIP3    H245877   6.744   0.611   3.107  0.5177  0.2136  0.9552
 7228TIP3   OH245878   0.732   1.170   2.629 -0.0818  0.2285  0.8056
 7228TIP3    H145879   0.796   1.110   2.592 -0.5059  0.3544 -0.1553
 7228TIP3    H245880   0.660   1.114   2.659 -0.5989  0.2443 -0.3345
 7229TIP3   OH245881   1.159   1.683   4.026  0.6767  0.1897 -0.3503
 7229TIP3    H145882   1.106   1.715   4.099 -0.0582 -0.9343 -0.3592
 7229TIP3    H245883   1.233   1.743   4.022  1.7574 -0.7382  2.5381
 7230TIP3   OH245884   2.304   3.326   3.749 -0.9173 -0.2338  0.2239
 7230TIP3    H145885   2.385   3.297   3.791 -0.3203  0.9552 -0.0932
 7230TIP3    H245886   2.258   3.244   3.728  0.0117 -0.9092  0.7377
 7231TIP3   OH245887   5.770   6.515   3.093  0.0951 -0.1675 -0.0525
 7231TIP3    H145888   5.754   6.433   3.140 -2.5933  1.1030  1.4530
 7231TIP3    H245889   5.724   6.505   3.010 -2.4743  0.6553  1.1751
 7232TIP3   OH245890   2.861   1.706   4.507  0.2196 -0.3641 -0.2695
 7232TIP3    H145891   2.937   1.663   4.467  0.2239  0.1284 -0.8100
 7232TIP3    H245892   2.796   1.707   4.437  0.5280  1.2959 -0.5699
 7233TIP3   OH245893   6.710   3.991   3.563 -0.0334 -0.2501 -0.1171
 7233TIP3    H145894   6.744   3.965   3.649 -0.3495  0.0188  0.0897
 7233TIP3    H245895   6.623   3.952   3.558 -0.0412 -0.2117 -0.2899
 7234TIP3   OH245896   0.236   0.370   2.355 -0.1733 -0.0170  0.1202
 7234TIP3    H145897   0.301   0.330   2.298  0.9588  2.4020 -0.4179
 7234TIP3    H245898   0.243   0.322   2.438  0.6646 -1.2857 -0.6633
 7235TIP3   OH245899   1.635   3.937   4.606 -0.1338  0.1740 -0.1841
 7235TIP3    H145900   1.692   3.879   4.657  1.5946 -0.8239 -2.9802
 7235TIP3    H245901   1.663   4.025   4.630 -0.5757 -0.1790  1.7793
 7236TIP3   OH245902   1.732   6.780   2.699  0.3791 -0.4568  0.0278
 7236TIP3    H145903   1.637   6.788   2.695  0.5412  1.6626 -1.1530
 7236TIP3    H245904   1.748   6.721   2.772 -1.8076  0.3587  1.2631
 7237TIP3   OH245905   2.803   0.452   2.891 -0.0928 -0.0870 -0.2837
 7237TIP3    H145906   2.857   0.517   2.848 -1.4559  0.1357 -1.7578
 7237TIP3    H245907   2.789   0.384   2.825  0.9443 -1.6942  1.0834
 7238TIP3   OH245908   2.912   5.286   4.361  0.0435  0.3647 -0.4084
 7238TIP3    H145909   2.936   5.368   4.318  0.2587  0.0373 -0.9201
 7238TIP3    H245910   2.961   5.287   4.444 -0.8473  1.2752  0.1222
 7239TIP3   OH245911   2.138   6.675   2.357  0.4456 -0.1223 -0.6108
 7239TIP3    H145912   2.103   6.615   2.290 -0.0450  2.2297 -2.5989
 7239TIP3    H245913   2.102   6.642   2.439 -1.7426 -1.2104 -1.9048
 7240TIP3   OH245914   0.222   1.628   3.232 -0.1665 -0.1118  0.3659
 7240TIP3    H145915   0.181   1.621   3.318  1.3562  0.7351  1.2101
 7240TIP3    H245916   0.278   1.551   3.226 -0.2790 -0.1757  0.1217
 7241TIP3   OH245917   1.429   3.447   3.922  0.1664 -0.3166 -0.3326
 7241TIP3    H145918   1.384   3.414   4.000  1.8970 -0.0745  0.8257
 7241TIP3    H245919   1.396   3.393   3.850 -0.5782 -1.3611  0.7550
 7242TIP3   OH245920   0.611   4.523   2.168 -0.1791 -0.5273 -0.6138
 7242TIP3    H145921   0.692   4.541   2.121  1.6815  0.0311  2.5273
 7242TIP3    H245922   0.632   4.451   2.228 -1.3844  0.7759  1.5372
 7243TIP3   OH245923   1.766   2.015   1.854  0.1418  0.6346  0.2129
 7243TIP3    H145924   1.776   1.970   1.937 -0.7616  0.0919  0.0343
 7243TIP3    H245925   1.724   1.951   1.796 -0.9745  1.6142 -0.1011
 7244TIP3   OH245926   4.233   2.423   5.354  0.1620  0.0079 -0.2604
 7244TIP3    H145927   4.150   2.455   5.318 -1.3146 -0.2969  2.5943
 7244TIP3    H245928   4.225   2.328   5.351 -1.4306 -0.1675  3.3907
 7245TIP3   OH245929   1.094   4.504   3.741  0.1324  0.1370  0.6067
 7245TIP3    H145930   1.141   4.488   3.823 -1.4674  0.8436  1.7328
 7245TIP3    H245931   1.149   4.567   3.694  1.9729 -1.6492  0.2568
 7246TIP3   OH245932   3.643   6.780   2.536  0.4608 -0.0178 -0.1670
 7246TIP3    H145933   3.584   6.770   2.611 -1.0861  0.3676 -1.2848
 7246TIP3    H245934   3.708   6.843   2.565 -0.2764  0.3462  0.7543
 7247TIP3   OH245935   1.394   6.198   4.968  0.2441 -0.1610 -0.2672
 7247TIP3    H145936   1.348   6.231   5.045 -1.4539 -1.2586 -0.7670
 7247TIP3    H245937   1.371   6.105   4.964  1.0750 -0.3361 -1.5752
 7248TIP3   OH245938   6.633   0.763   3.601 -0.0174  0.1210  0.4991
 7248TIP3    H145939   6.587   0.760   3.517  0.6491 -1.0065  0.1543
 7248TIP3    H245940   6.646   0.857   3.617  0.3646  0.3565 -0.9674
 7249TIP3   OH245941   3.032   3.300   2.611 -0.4630 -0.3617 -1.2472
 7249TIP3    H145942   2.974   3.336   2.678  1.5278  3.3719 -1.2281
 7249TIP3    H245943   3.003   3.210   2.600 -3.2269 -0.0824  1.9684
 7250TIP3   OH245944   2.313   3.361   2.904 -0.3957 -0.3410 -0.2116
 7250TIP3    H145945   2.333   3.335   2.994  0.1873  0.2702 -0.1491
 7250TIP3    H245946   2.326   3.456   2.903 -0.5527 -0.3184 -0.9006
 7251TIP3   OH245947   3.859   5.216   3.581  0.1317 -0.0655 -0.4975
 7251TIP3    H145948   3.927   5.258   3.528 -0.3739 -0.5570 -1.5524
 7251TIP3    H245949   3.826   5.286   3.637  0.3724  0.5624 -1.1338
 7252TIP3   OH245950   1.413   5.099   3.399 -0.6775 -0.2973  0.2455
 7252TIP3    H145951   1.460   5.027   3.359  2.3745  0.6809  1.7781
 7252TIP3    H245952   1.393   5.158   3.327 -1.8631 -1.8948 -0.7905
 7253TIP3   OH245953   3.862   1.605   4.095  0.5215 -0.2341  0.7354
 7253TIP3    H145954   3.823   1.652   4.169  1.5137  1.0980  0.4455
 7253TIP3    H245955   3.879   1.517   4.130  0.3844  0.1763  1.9023
 7254TIP3   OH245956   1.403   4.472   4.441  0.2651  0.7130  0.6381
 7254TIP3    H145957   1.332   4.454   4.503 -1.3571  2.4242 -0.6048
 7254TIP3    H245958   1.437   4.386   4.418 -0.6545 -0.0980  2.1074
 7255TIP3   OH245959   1.459   6.577   3.448 -0.1207 -0.0981 -0.0450
 7255TIP3    H145960   1.379   6.538   3.412 -1.1197 -0.1161  2.0726
 7255TIP3    H245961   1.431   6.665   3.476  0.6968  0.0257  0.3969
 7256TIP3   OH245962   4.232   1.237   4.942 -0.4709  0.3081 -0.2905
 7256TIP3    H145963   4.260   1.325   4.915 -1.8970  0.9108  0.1089
 7256TIP3    H245964   4.147   1.251   4.985  0.3418 -0.9532  1.9087
 7257TIP3   OH245965   3.451   1.594   2.507  0.3613 -0.1208 -0.0180
 7257TIP3    H145966   3.358   1.580   2.488  0.1131  0.1415  0.9123
 7257TIP3    H245967   3.496   1.523   2.462 -0.2532 -0.0452 -0.7748
 7258TIP3   OH245968   5.163   4.165   3.300  0.1285 -0.7907  0.3744
 7258TIP3    H145969   5.238   4.223   3.286 -0.3868 -0.0391  0.6765
 7258TIP3    H245970   5.197   4.097   3.359  0.4040 -0.0913  1.0402
 7259TIP3   OH245971   6.575   5.948   4.954  0.2496  0.2126 -0.3147
 7259TIP3    H145972   6.612   5.860   4.948  0.6767  0.5004 -2.5372
 7259TIP3    H245973   6.521   5.945   5.034 -0.1697 -2.2089 -0.5943
 7260TIP3   OH245974   5.941   4.439   4.601 -0.0793  0.1536  0.3914
 7260TIP3    H145975   5.969   4.405   4.686 -0.0137  0.1878  0.3841
 7260TIP3    H245976   5.859   4.394   4.582  0.3488 -0.5087  0.0683
 7261TIP3   OH245977   5.110   5.467   4.966 -0.5117 -0.3675 -0.3181
 7261TIP3    H145978   5.081   5.379   4.943 -1.2385 -0.2040 -0.0563
 7261TIP3    H245979   5.106   5.516   4.883  0.8284 -0.8229 -0.6576
 7262TIP3   OH245980   1.481   1.041   3.023  0.2990  0.1488 -0.3364
 7262TIP3    H145981   1.449   1.024   2.934  2.7621  0.4058 -1.3335
 7262TIP3    H245982   1.417   1.102   3.060 -0.6947  0.1609 -1.9805
 7263TIP3   OH245983   6.534   3.459   2.435 -0.0194 -0.1029  0.3400
 7263TIP3    H145984   6.593   3.506   2.376  1.1621 -1.8184  0.0901
 7263TIP3    H245985   6.446   3.484   2.406  0.5480  1.6368  0.0005
 7264TIP3   OH245986   1.380   5.451   2.131 -0.0314 -0.5004 -0.5189
 7264TIP3    H145987   1.289   5.431   2.154  0.0017 -0.1590 -0.0796
 7264TIP3    H245988   1.416   5.366   2.103 -0.8857 -0.3834 -2.1395
 7265TIP3   OH245989   4.334   4.362  12.671 -0.1092 -0.2117 -0.4105
 7265TIP3    H145990   4.390   4.439  12.669 -0.3188 -0.0595 -1.4900
 7265TIP3    H245991   4.266   4.380  12.605 -1.1516 -0.5907  0.5236
 7266TIP3   OH245992   2.728   1.739   2.366 -0.4177  0.1395 -0.3579
 7266TIP3    H145993   2.747   1.809   2.303 -0.1272 -1.6620 -2.3826
 7266TIP3    H245994   2.644   1.765   2.405 -1.3756  0.6614 -2.5749
 7267TIP3   OH245995   6.352   1.985   5.543 -0.0533  0.4443 -0.4019
 7267TIP3    H145996   6.318   2.070   5.571  0.9509  0.7523 -0.0838
 7267TIP3    H245997   6.442   1.983   5.574  0.4128 -0.1237 -1.6873
 7268TIP3   OH245998   4.942   5.874   5.125 -0.3048  0.4389 -0.7347
 7268TIP3    H145999   4.932   5.892   5.219 -0.3065 -1.7174 -0.2744
 7268TIP3    H246000   4.861   5.830   5.101  0.0952  0.1188 -1.5233
 7269TIP3   OH246001   3.142   5.740   4.701  0.3978 -0.1533  0.6535
 7269TIP3    H146002   3.138   5.692   4.784  3.2936  3.0504  2.9088
 7269TIP3    H246003   3.216   5.701   4.655  0.0113 -0.6297  0.4145
 7270TIP3   OH246004   5.060   2.340   3.507 -0.5705 -0.4510  0.6551
 7270TIP3    H146005   5.143   2.383   3.487 -0.6269  0.7562  2.7355
 7270TIP3    H246006   5.084   2.248   3.519  0.3517 -0.2434  0.5187
 7271TIP3   OH246007   2.379   1.290   2.353  0.3127  0.4212 -0.2383
 7271TIP3    H146008   2.343   1.334   2.276 -0.5345 -3.0160 -2.0329
 7271TIP3    H246009   2.473   1.287   2.337 -0.0480 -2.4556 -2.6250
 7272TIP3   OH246010   3.999   0.196   5.303 -0.2594 -0.2961  0.4010
 7272TIP3    H146011   3.919   0.218   5.255 -0.4583 -2.0919 -0.1604
 7272TIP3    H246012   3.973   0.200   5.395 -1.1963 -1.4874  0.2085
 7273TIP3   OH246013   6.228   5.401   2.958  0.2783  0.3960  0.5793
 7273TIP3    H146014   6.146   5.399   2.909  0.6604 -0.8911 -0.0437
 7273TIP3    H246015   6.296   5.387   2.891  1.1313  2.6646  0.8847
 7274TIP3   OH246016   0.313   0.403   1.857 -0.2063  0.0977  0.5137
 7274TIP3    H146017   0.261   0.325   1.877  0.0081 -0.2655 -0.3149
 7274TIP3    H246018   0.402   0.370   1.846  0.2424  0.7334  2.0257
 7275TIP3   OH246019   2.601   0.573   4.364  0.6207  0.6703  0.0078
 7275TIP3    H146020   2.512   0.537   4.365 -0.1545  2.3241 -1.8043
 7275TIP3    H246021   2.613   0.608   4.452 -0.5423  0.4208  0.2887
 7276TIP3   OH246022   2.447   5.283   1.900 -0.1850 -0.0666 -0.2414
 7276TIP3    H146023   2.425   5.303   1.990  0.9151 -0.6709  0.1843
 7276TIP3    H246024   2.425   5.190   1.890  0.8879 -0.3450 -0.1855
 7277TIP3   OH246025   3.932   3.333   3.645  0.8318 -0.4329  0.1327
 7277TIP3    H146026   3.906   3.247   3.611  0.7136 -0.1966 -0.3860
 7277TIP3    H246027   4.026   3.337   3.631  0.8075 -0.3996 -0.0177
 7278TIP3   OH246028   4.869   6.408   4.274  0.2821 -0.3916 -0.0297
 7278TIP3    H146029   4.790   6.354   4.284 -0.2454 -0.0251 -1.7925
 7278TIP3    H246030   4.839   6.497   4.293  0.5451 -0.3883  0.3759
 7279TIP3   OH246031   6.148   0.559   2.674 -0.4493  0.0793 -0.5172
 7279TIP3    H146032   6.234   0.531   2.707 -1.6074 -1.1590  1.6775
 7279TIP3    H246033   6.123   0.491   2.612 -0.7120 -0.6670  0.3922
 7280TIP3   OH246034   4.227   5.496   5.141  0.7607 -0.5413 -0.0322
 7280TIP3    H146035   4.316   5.528   5.153  0.3418 -0.3393  4.1329
 7280TIP3    H246036   4.238   5.409   5.102  2.7453 -0.3050 -0.0974
 7281TIP3   OH246037   1.794   5.690   5.328 -0.0994  0.8722  0.0815
 7281TIP3    H146038   1.815   5.690   5.235  0.5248  1.9475  0.2017
 7281TIP3    H246039   1.720   5.750   5.336 -0.5496  0.3084  0.2078
 7282TIP3   OH246040   4.496   4.039   2.986 -0.0401 -0.2455  0.4950
 7282TIP3    H146041   4.529   4.129   2.985  2.8114 -1.1813 -1.5948
 7282TIP3    H246042   4.511   4.009   3.076  1.9180  0.4334  0.4444
 7283TIP3   OH246043   1.761   2.817   4.128 -0.1691  0.4490  0.1526
 7283TIP3    H146044   1.824   2.795   4.059 -0.2212 -1.2931  0.6246
 7283TIP3    H246045   1.806   2.795   4.209 -1.0982 -0.1030  0.5326
 7284TIP3   OH246046   0.047   0.461   5.219  0.2546 -0.2542  0.1440
 7284TIP3    H146047   0.019   0.553   5.216  0.3524 -0.1805  1.0067
 7284TIP3    H246048   0.119   0.461   5.282  1.2575 -0.6821 -0.9803
 7285TIP3   OH246049   2.387   5.305   4.464 -0.2549  0.0457 -0.3762
 7285TIP3    H146050   2.355   5.281   4.551 -0.4085  2.9264  0.4748
 7285TIP3    H246051   2.482   5.292   4.469 -0.4552 -1.6672 -0.4895
 7286TIP3   OH246052   2.580   3.291   2.775  0.2503 -0.0393 -0.9838
 7286TIP3    H146053   2.579   3.204   2.734  2.1154 -0.0283 -1.1626
 7286TIP3    H246054   2.501   3.293   2.829  1.2097 -2.7069  0.7367
 7287TIP3   OH246055   1.348   0.012   3.476  0.0013  0.0375  0.2238
 7287TIP3    H146056   1.438   0.012   3.443  0.4903  0.0286  1.5161
 7287TIP3    H246057   1.310   0.095   3.445  0.1215 -0.3814 -1.1330
 7288TIP3   OH246058   1.210   2.772   2.467  0.1604  0.0628 -0.3185
 7288TIP3    H146059   1.192   2.678   2.466 -0.9796  0.2579 -0.3762
 7288TIP3    H246060   1.199   2.799   2.376 -1.8101  0.6129  0.0294
 7289TIP3   OH246061   5.607   4.115   2.819  0.0765  0.3709  0.1069
 7289TIP3    H146062   5.648   4.201   2.809  0.9364 -0.0951 -0.4766
 7289TIP3    H246063   5.543   4.127   2.889  0.0146  1.5472 -0.1339
 7290TIP3   OH246064   4.786   1.326   3.530 -0.7368 -0.1359 -0.6380
 7290TIP3    H146065   4.723   1.356   3.597 -1.1955 -1.8492 -0.2318
 7290TIP3    H246066   4.731   1.289   3.461 -0.2078 -0.9588 -0.6331
 7291TIP3   OH246067   4.583   5.978   4.983  0.4318  0.5764  0.5141
 7291TIP3    H146068   4.603   6.042   5.052  0.7998 -0.0606  1.0196
 7291TIP3    H246069   4.621   5.896   5.016  1.3352  0.4366 -0.8192
 7292TIP3   OH246070   3.493   2.605   4.844 -0.4262  0.4349  0.2325
 7292TIP3    H146071   3.476   2.681   4.788  0.3885  1.1219  0.8771
 7292TIP3    H246072   3.504   2.642   4.931 -0.1111 -0.4428  0.5750
 7293TIP3   OH246073   4.397   1.980   4.633 -0.2730  0.1043 -0.3365
 7293TIP3    H146074   4.405   1.905   4.574 -1.8315  0.3238 -0.8562
 7293TIP3    H246075   4.367   1.941   4.716  0.2698  0.0033 -0.1809
 7294TIP3   OH246076   0.874   6.387   3.370 -0.5469  0.2996  0.0771
 7294TIP3    H146077   0.856   6.340   3.289 -1.3825 -0.5827  0.7405
 7294TIP3    H246078   0.800   6.365   3.427 -0.1020  1.0907  0.9918
 7295TIP3   OH246079   1.667   6.624   4.577 -0.0520 -0.1056  0.1649
 7295TIP3    H146080   1.651   6.644   4.669  0.0291  1.4131 -0.1229
 7295TIP3    H246081   1.755   6.588   4.575  0.4636  1.0686  0.5585
 7296TIP3   OH246082   0.683   4.453   4.726 -0.3138  0.1919  0.3962
 7296TIP3    H146083   0.689   4.374   4.673  1.5942  0.7849 -0.3426
 7296TIP3    H246084   0.636   4.425   4.805  1.8753 -2.1763  0.9965
 7297TIP3   OH246085   4.703   0.677   5.234  0.2393  0.5219  0.2303
 7297TIP3    H146086   4.692   0.731   5.312 -0.7426 -1.0893  1.2662
 7297TIP3    H246087   4.614   0.664   5.201  0.4666 -0.2921 -0.0976
 7298TIP3   OH246088   5.222   6.349   4.578  0.3620  0.3370 -1.2346
 7298TIP3    H146089   5.162   6.316   4.511 -0.1588 -1.1596 -0.0757
 7298TIP3    H246090   5.253   6.271   4.624 -1.0246  1.3657  1.7217
 7299TIP3   OH246091   1.810   5.341   3.696  0.5470 -0.4661 -0.2834
 7299TIP3    H146092   1.819   5.411   3.632  0.3021  0.6478  0.8617
 7299TIP3    H246093   1.895   5.337   3.740 -0.3704  1.3903  1.8653
 7300TIP3   OH246094   2.819   2.028   4.318  0.3070  0.2893  0.0748
 7300TIP3    H146095   2.885   2.006   4.384  1.5289  2.7608 -0.1972
 7300TIP3    H246096   2.737   1.997   4.356  1.1182  0.5974  2.2564
 7301TIP3   OH246097   3.305   3.281   2.624 -0.4788  0.2167  0.1671
 7301TIP3    H146098   3.214   3.297   2.602 -0.2707  0.9905 -0.1730
 7301TIP3    H246099   3.304   3.201   2.675 -1.5140  0.9440  1.3455
 7302TIP3   OH246100   2.837   3.424   3.490  0.3276  0.2498  0.0884
 7302TIP3    H146101   2.763   3.445   3.433  0.3514  1.0795  0.3488
 7302TIP3    H246102   2.863   3.508   3.526  0.8728 -0.1554  0.6443
 7303TIP3   OH246103   0.396   0.611   4.542 -0.9250 -0.4623 -0.5769
 7303TIP3    H146104   0.436   0.542   4.489  0.3660  0.3189 -0.6495
 7303TIP3    H246105   0.420   0.692   4.498 -0.5605  0.1560  0.7042
 7304TIP3   OH246106   5.800   0.539   3.283 -0.4103  0.3351 -0.0502
 7304TIP3    H146107   5.792   0.469   3.348 -0.7128 -0.4675 -0.9241
 7304TIP3    H246108   5.820   0.617   3.334 -0.1683 -0.3671  0.9607
 7305TIP3   OH246109   3.885   1.159   2.615 -0.0406 -0.4416  0.3808
 7305TIP3    H146110   3.972   1.158   2.657  0.9805 -0.7660 -1.6158
 7305TIP3    H246111   3.867   1.251   2.599 -0.7700 -0.2499  2.0858
 7306TIP3   OH246112   1.460   4.257   3.829 -0.2683  0.2329 -0.3442
 7306TIP3    H146113   1.450   4.330   3.891  0.0884  0.9076 -1.0654
 7306TIP3    H246114   1.456   4.298   3.743 -2.1267 -0.8526 -0.8293
 7307TIP3   OH246115   6.514   1.101   4.694 -0.2610  0.1557 -0.5408
 7307TIP3    H146116   6.462   1.063   4.764  0.9583  0.7344  0.7176
 7307TIP3    H246117   6.449   1.132   4.630 -1.3711 -0.7583  0.1038
 7308TIP3   OH246118   6.475   4.608   3.050 -0.1521 -0.6691 -0.7216
 7308TIP3    H146119   6.555   4.658   3.034  0.2749 -1.4096 -0.9622
 7308TIP3    H246120   6.494   4.521   3.015 -1.0950 -0.8309 -0.8532
 7309TIP3   OH246121   0.721   0.309   1.938  0.0953  0.2938 -0.0280
 7309TIP3    H146122   0.688   0.219   1.935 -2.2524  1.0928 -0.1858
 7309TIP3    H246123   0.798   0.304   1.995 -1.1043 -1.5062  1.5857
 7310TIP3   OH246124   1.335   3.779   4.216 -0.2352  0.0052 -0.1734
 7310TIP3    H146125   1.240   3.792   4.208 -0.3748 -0.8782 -0.0595
 7310TIP3    H246126   1.348   3.756   4.307 -0.0132 -0.6715 -0.3743
 7311TIP3   OH246127   1.952   5.306   3.307 -0.2902  0.1678  0.5746
 7311TIP3    H146128   1.929   5.372   3.372 -0.1867 -1.5407  2.4303
 7311TIP3    H246129   1.999   5.239   3.356  0.0148 -1.0770 -1.3274
 7312TIP3   OH246130   0.194   5.054   3.520 -0.2732 -0.6569  0.1553
 7312TIP3    H146131   0.265   4.993   3.538 -0.8980 -1.8540 -1.2099
 7312TIP3    H246132   0.238   5.138   3.505  1.0254 -1.6131 -1.8741
 7313TIP3   OH246133   1.230   6.535   3.279 -0.2525 -0.8611  0.4671
 7313TIP3    H146134   1.139   6.563   3.289 -1.0063 -2.3568 -1.6056
 7313TIP3    H246135   1.234   6.493   3.193  2.5382 -0.3963  0.2587
 7314TIP3   OH246136   3.127   6.501   3.342  0.2645 -0.2182 -0.1229
 7314TIP3    H146137   3.051   6.490   3.285  1.2195 -0.8776 -1.3136
 7314TIP3    H246138   3.160   6.588   3.323  0.9219 -0.6495 -1.0492
 7315TIP3   OH246139   5.001   3.161   3.619  0.1329 -0.3838 -0.1135
 7315TIP3    H146140   4.981   3.071   3.592  0.5462  0.3594 -3.3156
 7315TIP3    H246141   5.094   3.158   3.644  0.2460 -0.7840 -0.5646
 7316TIP3   OH246142   3.494   3.502   3.826 -0.0163  0.7829 -0.1381
 7316TIP3    H146143   3.417   3.464   3.784 -0.3510 -1.1265  2.0226
 7316TIP3    H246144   3.461   3.535   3.910  1.3609  0.5517  0.5198
 7317TIP3   OH246145   3.744   0.102   1.858 -0.4972  0.1164 -0.5187
 7317TIP3    H146146   3.789   0.061   1.784 -1.1494  0.8103 -1.3226
 7317TIP3    H246147   3.810   0.107   1.927  0.1752 -0.3832 -1.1140
 7318TIP3   OH246148   2.649   5.518   2.307  0.3352  0.3170 -0.1602
 7318TIP3    H146149   2.679   5.546   2.221  0.8807 -0.4093 -0.2153
 7318TIP3    H246150   2.686   5.430   2.318  0.1993  0.3706  0.7777
 7319TIP3   OH246151   3.162   3.356   3.909 -0.2044 -0.4275  0.2970
 7319TIP3    H146152   3.222   3.390   3.976 -1.9648  2.4228  0.5826
 7319TIP3    H246153   3.124   3.277   3.948  2.8893 -2.0958  0.2743
 7320TIP3   OH246154   6.603   4.721   4.882  0.4998  0.0873  0.1062
 7320TIP3    H146155   6.629   4.658   4.815  2.2118 -1.2003  1.8439
 7320TIP3    H246156   6.686   4.749   4.922 -0.1873  3.4189 -0.4975
 7321TIP3   OH246157   0.505   0.423   4.331  0.3964  0.0943 -0.0838
 7321TIP3    H146158   0.569   0.389   4.269 -0.6474 -1.7316 -0.2165
 7321TIP3    H246159   0.422   0.424   4.282 -0.3585 -0.9618  1.1024
 7322TIP3   OH246160   4.590   0.143   5.607 -0.3279 -0.7916  0.1426
 7322TIP3    H146161   4.582   0.235   5.630 -0.3105 -1.3702  2.7495
 7322TIP3    H246162   4.675   0.137   5.563 -0.4499  0.4592 -0.2959
 7323TIP3   OH246163   5.733   5.378   2.966  0.0403  0.0314 -0.2117
 7323TIP3    H146164   5.729   5.462   2.921 -0.2263 -0.1910 -0.6097
 7323TIP3    H246165   5.738   5.313   2.895  0.6972 -0.2627  0.0988
 7324TIP3   OH246166   2.849   6.155   2.042  0.1589  0.0456 -0.0448
 7324TIP3    H146167   2.908   6.228   2.063 -0.9992  1.6070 -1.9090
 7324TIP3    H246168   2.793   6.147   2.118  1.4854 -0.1731  0.9504
 7325TIP3   OH246169   1.212   1.939   1.904  0.2006  0.0836  0.4195
 7325TIP3    H146170   1.205   2.002   1.833 -0.0723  1.3534  1.5244
 7325TIP3    H246171   1.304   1.940   1.930 -0.1424  1.5499  1.7210
 7326TIP3   OH246172   6.532   2.349   4.950 -0.0610  0.2326  0.0541
 7326TIP3    H146173   6.539   2.362   5.044 -1.9681  0.8324  0.1705
 7326TIP3    H246174   6.499   2.259   4.941  0.3265  0.1020 -0.0448
 7327TIP3   OH246175   1.927   5.790   2.137 -0.0318  0.5655  0.3690
 7327TIP3    H146176   1.940   5.716   2.077 -1.7398  0.6342 -0.1281
 7327TIP3    H246177   1.998   5.782   2.200 -0.0706 -1.4066  0.2276
 7328TIP3   OH246178   2.907   3.323   3.131 -0.2455 -0.4051 -0.4114
 7328TIP3    H146179   2.846   3.396   3.118 -0.3689 -0.7139 -1.6695
 7328TIP3    H246180   2.992   3.358   3.106 -0.4404 -0.9281 -1.8675
 7329TIP3   OH246181   4.991   1.861   2.096 -0.5141 -0.0362  0.4190
 7329TIP3    H146182   4.979   1.861   2.001 -0.9484  1.9139  0.4241
 7329TIP3    H246183   4.906   1.832   2.130  0.3029 -2.9254  0.2466
 7330TIP3   OH246184   2.960   6.823   2.352 -0.1261  0.0704  0.8165
 7330TIP3    H146185   2.968   6.910   2.311  0.6923 -0.0805  0.6534
 7330TIP3    H246186   2.975   6.762   2.280 -1.9685 -0.2518  0.6393
 7331TIP3   OH246187   5.864   5.805   4.366  1.0046  0.1942 -0.4436
 7331TIP3    H146188   5.789   5.826   4.421  0.3153  0.0028 -1.2961
 7331TIP3    H246189   5.911   5.737   4.415  1.2497  1.0930  0.6096
 7332TIP3   OH246190   1.965   6.422   3.352 -0.1717 -0.0924 -0.0146
 7332TIP3    H146191   1.909   6.459   3.284  0.9072 -0.9416 -1.4087
 7332TIP3    H246192   1.989   6.497   3.406 -0.4468  0.7340 -0.9945
 7333TIP3   OH246193   2.793   2.196   1.997  0.3212 -0.1848 -0.0481
 7333TIP3    H146194   2.713   2.247   2.013 -0.3783 -0.2133 -2.8965
 7333TIP3    H246195   2.862   2.249   2.035 -0.7524  1.3220 -0.0925
 7334TIP3   OH246196   1.199   1.027   4.376 -0.2780  0.1198  0.0116
 7334TIP3    H146197   1.292   1.052   4.378 -0.1342 -0.4383  1.3039
 7334TIP3    H246198   1.200   0.933   4.395 -1.1181  0.1303  0.1252
 7335TIP3   OH246199   1.664   2.258   3.911 -0.8915  0.4172 -0.0525
 7335TIP3    H146200   1.662   2.250   4.006  0.7956 -0.2561 -0.0354
 7335TIP3    H246201   1.757   2.270   3.890 -1.2522  0.7411 -1.6082
 7336TIP3   OH246202   3.528   3.005   2.555  0.2564  0.3231  0.3133
 7336TIP3    H146203   3.567   3.060   2.623 -0.9350  0.9008  0.5617
 7336TIP3    H246204   3.530   3.059   2.476 -0.1739  0.4231  0.3671
 7337TIP3   OH246205   4.759   1.135   4.230 -0.1355  0.1615  0.4357
 7337TIP3    H146206   4.733   1.063   4.288 -0.1850 -0.4993 -0.3909
 7337TIP3    H246207   4.691   1.201   4.241 -0.6571 -0.3658  0.4170
 7338TIP3   OH246208   5.588   6.292   3.294  0.2153 -0.8263  0.7561
 7338TIP3    H146209   5.509   6.264   3.247  0.5732 -1.0310  0.2640
 7338TIP3    H246210   5.567   6.280   3.386 -0.6290 -0.0899  0.6710
 7339TIP3   OH246211   6.636   5.568   5.232 -0.1950 -0.1456  0.5408
 7339TIP3    H146212   6.587   5.514   5.294  0.5859 -0.3909  0.9569
 7339TIP3    H246213   6.670   5.641   5.284 -0.7812  0.4597  0.0942
 7340TIP3   OH246214   6.752   2.622   4.061  0.6638 -0.3069  0.0046
 7340TIP3    H146215   6.834   2.580   4.085  0.8742 -0.8372 -1.5589
 7340TIP3    H246216   6.713   2.564   3.996  0.4712  1.3744 -1.4641
 7341TIP3   OH246217   2.196   4.976   4.396 -0.1523  0.0537  0.2054
 7341TIP3    H146218   2.240   4.968   4.480  0.9338 -0.4229 -0.3908
 7341TIP3    H246219   2.124   5.038   4.412  1.3002  1.6289  0.9794
 7342TIP3   OH246220   2.926   1.482   5.010 -0.7177  0.7388 -0.0986
 7342TIP3    H146221   2.906   1.536   4.934 -2.2732  0.0970 -0.1777
 7342TIP3    H246222   2.860   1.413   5.008  1.2209 -1.2447 -0.0476
 7343TIP3   OH246223   5.815   4.188   3.487 -0.1562  0.0604  0.1158
 7343TIP3    H146224   5.837   4.280   3.473  0.5541 -0.2234 -0.7210
 7343TIP3    H246225   5.845   4.144   3.407 -0.9050 -0.8265  0.3113
 7344TIP3   OH246226   1.937   4.075   4.996 -0.0549  0.1111  0.2501
 7344TIP3    H146227   1.949   4.065   5.090 -0.3506  0.1718  0.2974
 7344TIP3    H246228   1.920   3.986   4.964 -1.5379  0.2658  0.4988
 7345TIP3   OH246229   2.995   5.522   2.759  0.1923 -0.1843 -0.0377
 7345TIP3    H146230   3.038   5.481   2.684  1.9568  2.2723 -0.5157
 7345TIP3    H246231   3.053   5.595   2.782 -2.2772  1.5076  1.2460
 7346TIP3   OH246232   5.354   2.750   4.580 -0.0931  0.7594 -0.2985
 7346TIP3    H146233   5.427   2.688   4.575 -0.5635  0.0477  1.1706
 7346TIP3    H246234   5.279   2.701   4.545 -0.3574  0.6647  0.3922
 7347TIP3   OH246235   3.939   5.325   4.684  0.3017 -0.1336 -0.6833
 7347TIP3    H146236   3.957   5.300   4.593 -0.3784  0.3635 -0.9669
 7347TIP3    H246237   3.870   5.391   4.677  1.6635  1.4415  0.0535
 7348TIP3   OH246238   0.423   1.339   3.555  0.2183 -0.2315  0.1429
 7348TIP3    H146239   0.445   1.273   3.489  0.1600 -0.5839  0.4689
 7348TIP3    H246240   0.461   1.420   3.522 -0.2175 -0.3048 -0.5527
 7349TIP3   OH246241   0.014   5.035   3.802  0.5845 -0.3141 -0.1767
 7349TIP3    H146242   0.052   5.074   3.723 -0.4315 -1.4151 -1.2538
 7349TIP3    H246243  -0.025   4.953   3.772 -1.2466 -0.0041  1.1493
 7350TIP3   OH246244   3.205   3.878   4.489  1.0436 -0.2688  0.2124
 7350TIP3    H146245   3.193   3.924   4.406 -2.6279  0.8041  1.1702
 7350TIP3    H246246   3.203   3.948   4.555 -2.0210 -1.4096  1.5169
 7351TIP3   OH246247   5.289   1.395   2.507 -0.1755  0.0833 -0.1474
 7351TIP3    H146248   5.198   1.398   2.537 -0.7859  0.8436 -1.9775
 7351TIP3    H246249   5.336   1.352   2.579 -2.2700 -1.9715  0.1148
 7352TIP3   OH246250   4.053   4.137   2.499  0.0812  0.2351  0.2519
 7352TIP3    H146251   3.984   4.084   2.460 -0.5175 -0.8252  2.5440
 7352TIP3    H246252   4.110   4.162   2.426 -1.6734 -0.4469 -1.4202
 7353TIP3   OH246253   0.968   5.272   3.050 -0.0892  0.6553  0.0127
 7353TIP3    H146254   0.963   5.338   3.119  0.6731  0.7013  0.0328
 7353TIP3    H246255   0.879   5.267   3.015 -1.6248 -2.1559  3.5564
 7354TIP3   OH246256   5.235   2.808   2.610 -0.5111  0.7978 -0.2385
 7354TIP3    H146257   5.315   2.824   2.559  0.0534 -1.0508  0.0043
 7354TIP3    H246258   5.169   2.785   2.544 -0.2631  0.2188 -0.2919
 7355TIP3   OH246259   6.587   3.465   3.313  0.2715  0.2274 -0.2764
 7355TIP3    H146260   6.548   3.448   3.399  0.2163 -1.3786 -0.5829
 7355TIP3    H246261   6.569   3.385   3.263 -0.9063  1.6298 -2.2440
 7356TIP3   OH246262   5.247   1.136   5.005 -0.3200 -0.4486  0.0429
 7356TIP3    H146263   5.170   1.172   5.048  1.4533  1.9693  1.4536
 7356TIP3    H246264   5.282   1.072   5.066 -0.1723 -0.1589  0.2631
 7357TIP3   OH246265   3.420   6.539   3.092  0.1757  0.7281 -0.2188
 7357TIP3    H146266   3.482   6.482   3.046  0.5165  0.8861  0.0424
 7357TIP3    H246267   3.435   6.625   3.052 -0.6514  0.5600 -0.9308
 7358TIP3   OH246268   1.203   0.072   4.332  0.1887 -0.8008  0.6861
 7358TIP3    H146269   1.229   0.002   4.272  0.8769 -0.9378  1.1447
 7358TIP3    H246270   1.206   0.033   4.419 -1.6108 -0.8383  0.7660
 7359TIP3   OH246271   0.417   0.274   2.157  0.2783 -0.0625  0.3743
 7359TIP3    H146272   0.475   0.205   2.127 -0.2296  0.5982 -2.3985
 7359TIP3    H246273   0.336   0.262   2.106 -0.9836  0.7321  2.0643
 7360TIP3   OH246274   0.214   2.179   1.925 -0.3539 -0.1155  0.1346
 7360TIP3    H146275   0.262   2.255   1.956 -0.7589 -0.2844  1.2223
 7360TIP3    H246276   0.201   2.194   1.831  0.9097  0.4120  0.0312
 7361TIP3   OH246277   2.583   1.802   4.900 -0.1531  0.1041 -0.2912
 7361TIP3    H146278   2.568   1.729   4.840  0.1468  1.5006 -2.1545
 7361TIP3    H246279   2.664   1.843   4.869  1.0853 -0.1920  2.2483
 7362TIP3   OH246280   4.053   6.585   4.235 -0.6427  0.2169  0.2492
 7362TIP3    H146281   4.069   6.578   4.141 -0.8565 -0.0878  0.2327
 7362TIP3    H246282   3.959   6.569   4.244 -0.1805 -2.8077  0.7960
 7363TIP3   OH246283   6.051   3.499   3.861  0.3917  0.2152  0.7770
 7363TIP3    H146284   6.007   3.419   3.889  1.0415 -1.0643 -1.5624
 7363TIP3    H246285   5.983   3.550   3.819  0.6516 -0.8861 -1.1027
 7364TIP3   OH246286   1.429   4.410   3.611 -0.2992 -0.3631 -0.2608
 7364TIP3    H146287   1.351   4.463   3.592  0.5847  0.2971 -2.2897
 7364TIP3    H246288   1.444   4.361   3.531 -1.4631 -4.3761  1.7184
 7365TIP3   OH246289   1.509   5.175   4.816 -0.1741 -0.1632 -0.3532
 7365TIP3    H146290   1.585   5.218   4.778  0.6071  0.7024  1.9878
 7365TIP3    H246291   1.434   5.230   4.792  0.6258  1.8289  1.3653
 7366TIP3   OH246292   5.261   0.439   2.224  0.1718 -0.0083  0.4763
 7366TIP3    H146293   5.287   0.352   2.253  1.1764  0.6007  1.4807
 7366TIP3    H246294   5.313   0.499   2.279 -1.1006  1.2235  0.3863
 7367TIP3   OH246295   0.124   1.930   3.863  0.5895  0.2475 -0.1762
 7367TIP3    H146296   0.147   2.020   3.842 -0.3396  0.4255 -0.4736
 7367TIP3    H246297   0.065   1.903   3.792  0.3961 -0.3966  0.2160
 7368TIP3   OH246298   6.303   3.489   2.286 -0.4688 -0.4676  0.3638
 7368TIP3    H146299   6.374   3.459   2.230 -1.0900 -2.2726  0.4749
 7368TIP3    H246300   6.281   3.576   2.252 -0.2750 -1.1541 -1.6711
 7369TIP3   OH246301   6.340   2.326   4.024  0.3641 -0.1808  0.1913
 7369TIP3    H146302   6.262   2.381   4.028  1.7951  2.0255 -0.7564
 7369TIP3    H246303   6.307   2.237   4.039 -2.3743  0.6089 -0.6111
 7370TIP3   OH246304   5.417   1.495   4.741  0.0959 -0.1495  0.3423
 7370TIP3    H146305   5.388   1.508   4.651  0.7638  0.4827  0.2065
 7370TIP3    H246306   5.355   1.432   4.778  0.2568 -0.9827 -0.7733
 7371TIP3   OH246307   1.640   3.763   3.753  0.1744  0.5124  0.0703
 7371TIP3    H146308   1.636   3.859   3.756  1.0868  0.6116 -1.0327
 7371TIP3    H246309   1.618   3.735   3.842 -0.7720  1.7130  0.2404
 7372TIP3   OH246310   4.535   0.322   3.838 -0.7213 -0.3982  0.1155
 7372TIP3    H146311   4.573   0.244   3.878  2.2185  0.7066 -0.2408
 7372TIP3    H246312   4.512   0.296   3.749 -0.8168 -1.1029  0.3406
 7373TIP3   OH246313   0.795   5.169   4.749  0.1413  0.9753 -0.1212
 7373TIP3    H146314   0.806   5.094   4.807  0.5790  0.2724 -1.0819
 7373TIP3    H246315   0.701   5.173   4.732  0.2635 -0.3262 -1.2718
 7374TIP3   OH246316   5.080   5.182   4.003  0.1521 -0.5433 -0.0026
 7374TIP3    H146317   5.089   5.090   3.980 -1.5015 -1.3324  2.1186
 7374TIP3    H246318   4.994   5.206   3.969 -0.1899 -0.3197  1.0031
 7375TIP3   OH246319   3.549   4.551   4.308 -0.1747 -0.3022  0.1661
 7375TIP3    H146320   3.473   4.521   4.258 -0.2362  0.0019  0.0744
 7375TIP3    H246321   3.515   4.572   4.394 -0.2058 -0.1013  0.1042
 7376TIP3   OH246322   4.024   0.333   3.304 -0.1415 -0.2803 -0.6137
 7376TIP3    H146323   3.946   0.277   3.298 -0.6657  0.5484 -2.0818
 7376TIP3    H246324   4.095   0.280   3.268 -0.3899 -0.4088 -0.9141
 7377TIP3   OH246325   1.733   3.173   5.181  0.7223 -0.3562 -0.5386
 7377TIP3    H146326   1.648   3.160   5.222 -0.1049 -0.1660 -2.1309
 7377TIP3    H246327   1.786   3.215   5.249 -0.6798  0.2127  0.2416
 7378TIP3   OH246328   5.965   5.303   3.522  0.2594  0.4247  0.2165
 7378TIP3    H146329   6.044   5.250   3.508 -0.1745 -0.6004  1.4625
 7378TIP3    H246330   5.971   5.372   3.457  1.6997 -0.1991 -0.3571
 7379TIP3   OH246331   5.553   0.216   4.651  0.2480 -0.2997 -0.2465
 7379TIP3    H146332   5.532   0.123   4.638  1.0512 -0.3466 -1.4107
 7379TIP3    H246333   5.494   0.262   4.591  1.5053 -0.2591 -1.5317
 7380TIP3   OH246334   2.159   3.091   2.905  0.5769 -0.3812  0.1618
 7380TIP3    H146335   2.241   3.098   2.955 -0.3248 -0.2245  1.6817
 7380TIP3    H246336   2.140   3.181   2.878  1.7321 -0.6306 -1.6532
 7381TIP3   OH246337   3.923   4.410   3.713  0.0568  0.7682  0.2109
 7381TIP3    H146338   4.006   4.446   3.746 -0.4937  0.7635  1.6703
 7381TIP3    H246339   3.944   4.320   3.689  0.5867  0.9236  0.0682
 7382TIP3   OH246340   4.663   4.105   4.198 -0.1948  0.1604 -0.7162
 7382TIP3    H146341   4.678   4.112   4.104  1.2005  0.2087 -0.5032
 7382TIP3    H246342   4.702   4.020   4.222 -1.3140 -0.2657 -0.3137
 7383TIP3   OH246343   6.405   4.169   2.707 -0.2864 -0.1426  0.2045
 7383TIP3    H146344   6.413   4.075   2.723 -0.8880  0.0384  1.7549
 7383TIP3    H246345   6.483   4.191   2.656  1.3481 -1.0121  2.1761
 7384TIP3   OH246346   4.675   6.436   4.601  0.3559 -0.1335 -0.3355
 7384TIP3    H146347   4.649   6.368   4.538  0.1385  1.2041 -1.7502
 7384TIP3    H246348   4.688   6.388   4.683 -0.8781 -1.7263 -0.9944
 7385TIP3   OH246349   2.208   1.525   3.698 -0.6622 -0.4317  0.1404
 7385TIP3    H146350   2.254   1.608   3.686  1.9298 -1.6314  0.9508
 7385TIP3    H246351   2.127   1.549   3.743  0.5974  1.5660  1.5182
 7386TIP3   OH246352   1.830   0.070   4.908 -0.2934  0.3082 -0.1705
 7386TIP3    H146353   1.847   0.080   5.001 -2.1042  0.0008  0.2186
 7386TIP3    H246354   1.913   0.037   4.872  0.9844  2.0426  1.0003
 7387TIP3   OH246355   3.407   6.371   4.112  0.6076 -0.0968 -0.2129
 7387TIP3    H146356   3.452   6.299   4.155  0.2345 -0.7860 -0.9615
 7387TIP3    H246357   3.406   6.347   4.019  0.4931  0.8770 -0.4760
 7388TIP3   OH246358   3.028   6.158   5.207 -0.5848 -0.6916 -0.3164
 7388TIP3    H146359   3.110   6.151   5.255  0.8899  0.1342 -2.5374
 7388TIP3    H246360   2.960   6.160   5.275  1.4046  1.8159  1.8475
 7389TIP3   OH246361   5.683   1.531   4.375  0.9095 -0.5114 -0.0738
 7389TIP3    H146362   5.715   1.613   4.337 -0.7868  1.2722  2.1015
 7389TIP3    H246363   5.602   1.513   4.328 -0.3870  0.8597  1.5526
 7390TIP3   OH246364   5.526   1.286   4.151  0.3565  0.2959  0.1276
 7390TIP3    H146365   5.448   1.312   4.200 -2.0673  0.8844 -3.6022
 7390TIP3    H246366   5.509   1.195   4.126  1.3379  0.1388  0.0037
 7391TIP3   OH246367   0.280   4.010   3.757 -0.0003 -0.2376 -0.1977
 7391TIP3    H146368   0.299   3.917   3.765 -1.5075 -0.4627  1.2058
 7391TIP3    H246369   0.200   4.015   3.706  0.8436  0.3982 -1.5102
 7392TIP3   OH246370   3.606   0.273   3.480  0.4966  0.4208 -0.3346
 7392TIP3    H146371   3.645   0.303   3.398 -2.3560 -0.1743 -2.0422
 7392TIP3    H246372   3.535   0.336   3.496 -0.0862 -0.4845  0.7333
 7393TIP3   OH246373   4.828   6.279   3.872 -0.3713 -0.1642 -0.0745
 7393TIP3    H146374   4.733   6.277   3.861 -0.4983  1.6114  0.5047
 7393TIP3    H246375   4.843   6.247   3.961 -0.2919 -1.8273 -0.6538
 7394TIP3   OH246376   0.470   3.870   2.410 -0.4918 -0.5646  0.0587
 7394TIP3    H146377   0.545   3.812   2.397 -1.0537 -0.8996 -1.9001
 7394TIP3    H246378   0.492   3.949   2.362  0.1996  0.8675  2.5858
 7395TIP3   OH246379   1.126   0.895   2.660  0.1720 -0.3843  0.2689
 7395TIP3    H146380   1.035   0.899   2.632  0.3192 -0.0490 -0.1706
 7395TIP3    H246381   1.143   0.981   2.701  0.1031 -0.6849  0.9450
 7396TIP3   OH246382   2.170   0.528   2.202 -0.2815 -0.6868  0.4259
 7396TIP3    H146383   2.096   0.577   2.238  0.3011  1.2521 -0.8993
 7396TIP3    H246384   2.138   0.438   2.196 -2.0715 -0.1430  1.0774
 7397TIP3   OH246385   5.426   4.379   3.510 -0.2506 -0.0762 -0.0218
 7397TIP3    H146386   5.424   4.286   3.534 -0.3681 -0.0381  0.1143
 7397TIP3    H246387   5.420   4.426   3.593  1.4444  0.0679  0.0541
 7398TIP3   OH246388   4.368   3.347   5.558  0.7394 -0.0773  0.3703
 7398TIP3    H146389   4.305   3.420   5.564  1.5369  0.6206  0.4182
 7398TIP3    H246390   4.385   3.338   5.464  0.5428 -0.2979  0.3538
 7399TIP3   OH246391   6.384   4.583   3.505  0.2200 -0.0650 -0.3272
 7399TIP3    H146392   6.398   4.604   3.413 -1.4924  0.6069 -0.4720
 7399TIP3    H246393   6.327   4.506   3.503  0.8720 -0.5706  0.1894
 7400TIP3   OH246394   6.177   2.203   5.241  0.3709  0.8679 -0.0634
 7400TIP3    H146395   6.123   2.139   5.287  1.3578 -0.1166 -0.2456
 7400TIP3    H246396   6.210   2.260   5.310  0.9407  0.0767  0.3262
 7401TIP3   OH246397   1.930   5.797   5.570  0.6079 -0.2846 -0.1922
 7401TIP3    H146398   1.893   5.743   5.641  1.7074 -0.4794  0.2495
 7401TIP3    H246399   1.882   5.769   5.492 -0.4580 -0.2399  0.4208
 7402TIP3   OH246400   3.452   4.294   5.084 -0.0358 -0.1872  0.7487
 7402TIP3    H146401   3.539   4.319   5.054  0.0219  0.4732  1.4488
 7402TIP3    H246402   3.456   4.299   5.179 -0.4317 -1.5540  0.8628
 7403TIP3   OH246403   4.681   4.662   2.651  0.1286  0.1320 -0.4032
 7403TIP3    H146404   4.632   4.585   2.678 -1.4150  0.7814 -1.2624
 7403TIP3    H246405   4.691   4.653   2.556  1.2027  0.2886 -0.3193
 7404TIP3   OH246406   4.055   3.740   4.193 -0.5448 -0.4035 -0.5249
 7404TIP3    H146407   4.004   3.750   4.113 -1.9471 -0.3559  0.3376
 7404TIP3    H246408   4.102   3.823   4.202 -1.5393  0.1719 -0.5351
 7405TIP3   OH246409   1.461   1.430   3.369 -0.4078  0.4841 -0.0552
 7405TIP3    H146410   1.542   1.441   3.320  0.0858  0.1181  0.6526
 7405TIP3    H246411   1.437   1.518   3.398 -0.6835  0.6981 -0.8958
 7406TIP3   OH246412   4.330   4.709   5.473  0.6292 -0.0757 -0.1680
 7406TIP3    H146413   4.355   4.758   5.394  0.7497 -1.8382 -1.2953
 7406TIP3    H246414   4.235   4.713   5.475  0.5822 -0.5764 -0.8233
 7407TIP3   OH246415   6.519   1.885   2.256  0.4742  0.0123  0.0210
 7407TIP3    H146416   6.494   1.809   2.204  0.5063  0.9927 -1.4935
 7407TIP3    H246417   6.476   1.959   2.214 -1.1236  0.6701  2.5685
 7408TIP3   OH246418   6.175   0.528   3.378 -1.0793  0.4302  0.4561
 7408TIP3    H146419   6.163   0.448   3.431 -1.0938  0.4996  0.5579
 7408TIP3    H246420   6.167   0.599   3.441 -1.1137  0.5140  0.3561
 7409TIP3   OH246421   2.590   3.713   2.370  0.3579 -0.0491 -0.2806
 7409TIP3    H146422   2.668   3.747   2.414  0.5077 -0.5313 -0.1744
 7409TIP3    H246423   2.618   3.698   2.280  0.1393  0.6270 -0.4719
 7410TIP3   OH246424   2.589   6.709   3.942 -0.4249  0.1421  0.0663
 7410TIP3    H146425   2.494   6.719   3.951 -0.3481  2.7356 -1.1938
 7410TIP3    H246426   2.624   6.798   3.947  1.7657 -0.5531 -1.3248
 7411TIP3   OH246427   2.244   3.742   3.927  0.5273 -0.2646 -0.5819
 7411TIP3    H146428   2.273   3.698   4.007 -0.8880  2.3743  1.5648
 7411TIP3    H246429   2.153   3.713   3.916  0.4148  0.1252 -0.6739
 7412TIP3   OH246430   3.344   6.054   2.856  0.0999 -0.5477 -0.2466
 7412TIP3    H146431   3.381   5.991   2.917 -0.9444 -0.7099  0.2410
 7412TIP3    H246432   3.262   6.015   2.826 -1.0783  0.9588  0.8280
 7413TIP3   OH246433   0.469   0.648   1.898 -0.2284 -0.1113  0.2657
 7413TIP3    H146434   0.453   0.655   1.804 -1.2273  0.2209  0.4523
 7413TIP3    H246435   0.406   0.582   1.928  0.0777 -0.2085  0.7069
 7414TIP3   OH246436   3.927   5.887   4.723 -0.2543  0.2927  0.1445
 7414TIP3    H146437   3.986   5.909   4.795 -1.1121 -1.8174  1.6124
 7414TIP3    H246438   3.964   5.806   4.686 -2.1168 -1.0644  1.0910
 7415TIP3   OH246439   4.047   4.890   3.991 -0.3737  0.3822  0.5699
 7415TIP3    H146440   4.107   4.827   4.030 -0.2683  0.3222  0.3127
 7415TIP3    H246441   4.017   4.848   3.910  0.8593  1.2608 -0.3904
 7416TIP3   OH246442   3.235   2.567   2.970 -0.4552  0.2048 -0.0573
 7416TIP3    H146443   3.166   2.607   3.023 -1.8938 -2.6212  0.3510
 7416TIP3    H246444   3.189   2.518   2.902  1.0566 -2.4823  0.7243
 7417TIP3   OH246445   1.148   6.532   4.594  0.1073  0.1629  0.0525
 7417TIP3    H146446   1.173   6.492   4.510 -3.1799 -0.2297 -0.8979
 7417TIP3    H246447   1.185   6.474   4.660  2.8284  0.4937 -1.0268
 7418TIP3   OH246448   0.475   6.188   3.922  0.0034 -0.1256  0.1704
 7418TIP3    H146449   0.526   6.149   3.993  1.4982  1.8842  0.2876
 7418TIP3    H246450   0.494   6.131   3.847  0.2357 -0.9643  0.8406
 7419TIP3   OH246451   6.234   0.134   3.033 -0.3385 -0.0796  0.3559
 7419TIP3    H146452   6.143   0.113   3.013 -1.2045  0.3533  3.4140
 7419TIP3    H246453   6.271   0.052   3.066 -0.6331  0.4748  2.1882
 7420TIP3   OH246454   3.958   2.584   3.716 -0.1594  0.3007  0.2383
 7420TIP3    H146455   3.947   2.490   3.703 -1.1154  0.3498  0.6532
 7420TIP3    H246456   3.881   2.612   3.765  0.7836  1.0574  1.3802
 7421TIP3   OH246457   2.601   5.410   3.090  0.3620  0.1329 -0.1004
 7421TIP3    H146458   2.659   5.400   3.014  0.0590  0.7354 -0.4159
 7421TIP3    H246459   2.523   5.452   3.055  0.3298  0.6694  0.6003
 7422TIP3   OH246460   4.807   5.377   4.521  0.0937 -0.4121 -0.1831
 7422TIP3    H146461   4.718   5.396   4.490 -0.4777  0.4320  1.8524
 7422TIP3    H246462   4.860   5.451   4.488 -0.3897  0.1784  0.3394
 7423TIP3   OH246463   6.324   1.767   3.979  0.4985 -0.0271  0.1863
 7423TIP3    H146464   6.313   1.672   3.987  1.3451 -0.0256  1.6567
 7423TIP3    H246465   6.338   1.782   3.886 -0.8960 -1.1929 -0.2439
 7424TIP3   OH246466   0.681   0.007   3.981  0.1917  0.3399 -0.2171
 7424TIP3    H146467   0.741   0.068   4.023 -1.1770  1.6436 -0.0883
 7424TIP3    H246468   0.637   0.058   3.913 -0.6529 -0.6186 -0.4202
 7425TIP3   OH246469   6.429   0.574   2.462 -0.3829  0.0555 -0.5139
 7425TIP3    H146470   6.428   0.568   2.558  0.6491 -0.3329 -0.5182
 7425TIP3    H246471   6.489   0.505   2.434  0.8936  1.4375 -1.3334
 7426TIP3   OH246472   6.320   1.175   3.545  0.1592  0.1942 -0.2757
 7426TIP3    H146473   6.414   1.161   3.532  0.0324 -2.5033  0.8895
 7426TIP3    H246474   6.308   1.164   3.639 -1.4649 -0.9777 -0.5771
 7427TIP3   OH246475   1.474   0.014   4.161 -0.4428  0.4155 -0.4238
 7427TIP3    H146476   1.526  -0.027   4.091  0.5910  1.4972 -0.3220
 7427TIP3    H246477   1.384  -0.006   4.138 -0.0141 -2.2646 -0.1502
 7428TIP3   OH246478   3.957   0.345   3.919 -0.0312  0.3251  0.6807
 7428TIP3    H146479   3.913   0.309   3.841  0.0556 -0.4906  0.9945
 7428TIP3    H246480   3.891   0.339   3.988 -0.7381  2.7100  0.3126
 7429TIP3   OH246481   6.365   0.221   3.848 -0.6685  0.3088  0.0720
 7429TIP3    H146482   6.329   0.279   3.915 -2.1588  0.4064 -0.7813
 7429TIP3    H246483   6.299   0.154   3.835  1.2481 -2.0133  1.4350
 7430TIP3   OH246484   1.128   0.078   2.355 -0.1262  0.1459 -0.1037
 7430TIP3    H146485   1.149  -0.011   2.328  0.0626  0.4860 -1.1445
 7430TIP3    H246486   1.033   0.083   2.351 -0.2320 -0.4319  1.3940
 7431TIP3   OH246487   6.491   6.207   3.124 -0.5044 -0.4509 -0.0808
 7431TIP3    H146488   6.442   6.287   3.103 -2.4667 -1.4694  0.4633
 7431TIP3    H246489   6.578   6.239   3.149 -0.8998  1.4296 -0.8986
 7432TIP3   OH246490   4.099   0.913   2.498  0.0152  0.3533  0.2906
 7432TIP3    H146491   4.183   0.948   2.467  1.4431 -1.2483  2.1030
 7432TIP3    H246492   4.083   0.960   2.580 -0.0943 -0.3928  0.6993
 7433TIP3   OH246493   3.169   1.558   4.107 -0.6332  0.0010  0.4719
 7433TIP3    H146494   3.208   1.476   4.076 -1.9660 -1.3300  2.1420
 7433TIP3    H246495   3.191   1.621   4.038  3.3933 -0.8447  0.6936
 7434TIP3   OH246496   1.389   6.502   3.961 -0.3015 -0.1744 -0.2256
 7434TIP3    H146497   1.442   6.423   3.944 -0.5487 -0.3134 -0.3517
 7434TIP3    H246498   1.307   6.486   3.914 -1.2318 -0.7997  1.5173
 7435TIP3   OH246499   6.633   6.755   2.522  0.1022 -0.0191 -0.6683
 7435TIP3    H146500   6.572   6.683   2.507  0.2655  0.0251 -1.5754
 7435TIP3    H246501   6.595   6.803   2.596  1.2286 -2.3721  1.5694
 7436TIP3   OH246502   5.622   0.788   3.376 -0.1972 -0.0059  0.1231
 7436TIP3    H146503   5.597   0.878   3.399  0.8077  0.0782  0.9574
 7436TIP3    H246504   5.570   0.768   3.298  0.4511  1.7338 -0.8065
 7437TIP3   OH246505   1.862   0.715   3.668 -0.2908  0.0800  0.2812
 7437TIP3    H146506   1.884   0.641   3.725  1.4632 -0.1555 -0.6215
 7437TIP3    H246507   1.909   0.789   3.706  0.2796  0.0870 -0.4362
 7438TIP3   OH246508   2.564   2.898   5.003 -0.3100 -0.0960  0.4928
 7438TIP3    H146509   2.483   2.876   4.957 -0.5354  2.3800 -0.4470
 7438TIP3    H246510   2.601   2.814   5.029 -1.4276 -1.4752 -2.0717
 7439TIP3   OH246511   1.740   4.835   4.641  0.0465 -0.0397 -0.3404
 7439TIP3    H146512   1.674   4.901   4.622 -0.7134 -0.7398 -0.1646
 7439TIP3    H246513   1.704   4.754   4.606  1.2187 -0.2810 -1.0727
 7440TIP3   OH246514   6.684   0.349   4.813  0.5836  0.0412 -0.5413
 7440TIP3    H146515   6.743   0.386   4.747  0.0492 -0.2807 -1.2151
 7440TIP3    H246516   6.739   0.335   4.890  1.3570 -0.1766 -1.1258
 7441TIP3   OH246517   4.854   5.992   2.537  0.1689 -0.3505 -0.0488
 7441TIP3    H146518   4.761   5.973   2.543  0.2010 -0.9394 -1.0477
 7441TIP3    H246519   4.888   5.976   2.625 -0.2715 -2.5506 -0.2035
 7442TIP3   OH246520   5.536   5.689   5.737 -0.1325  0.3176 -0.9391
 7442TIP3    H146521   5.570   5.638   5.811  1.1786  1.4679 -0.7175
 7442TIP3    H246522   5.512   5.774   5.775 -0.1076  0.6794 -1.7161
 7443TIP3   OH246523   0.162   6.264   4.830  0.0108 -0.3146  0.0366
 7443TIP3    H146524   0.186   6.320   4.757 -1.1660 -0.2916 -0.3527
 7443TIP3    H246525   0.242   6.257   4.882  1.2734 -1.4040 -1.9240
 7444TIP3   OH246526   3.071   4.130   2.502 -0.2845  0.1042 -0.1803
 7444TIP3    H146527   3.001   4.120   2.438 -0.3648  2.0887 -0.4775
 7444TIP3    H246528   3.027   4.129   2.587 -0.9808  2.7329 -0.3997
 7445TIP3   OH246529   0.341   4.275   3.791 -0.4217  0.3990  0.4613
 7445TIP3    H146530   0.351   4.271   3.886 -0.0187  0.7255  0.4371
 7445TIP3    H246531   0.322   4.184   3.765 -0.3325  0.2738  0.8308
 7446TIP3   OH246532   1.043   0.486   4.122 -0.0782 -0.1132  0.2297
 7446TIP3    H146533   1.073   0.511   4.209  1.8311 -1.3374 -0.0055
 7446TIP3    H246534   1.105   0.529   4.062 -0.0255 -1.0179 -0.3962
 7447TIP3   OH246535   5.509   2.105   2.241  0.2014  0.2311  0.0380
 7447TIP3    H146536   5.486   2.016   2.212  2.0820 -0.1005 -0.5154
 7447TIP3    H246537   5.601   2.115   2.220  0.3180  1.9302  1.1338
 7448TIP3   OH246538   1.038   5.726   2.610 -0.7141 -0.0854  0.0941
 7448TIP3    H146539   0.984   5.670   2.666  0.1372 -1.1799 -0.1305
 7448TIP3    H246540   1.071   5.794   2.668 -1.8310  0.2591  0.3582
 7449TIP3   OH246541   0.758   2.387   5.460  0.7565  0.0983 -0.5453
 7449TIP3    H146542   0.783   2.300   5.428 -0.1277  0.0855 -1.2353
 7449TIP3    H246543   0.669   2.375   5.494  1.7708 -0.0064  2.4128
 7450TIP3   OH246544   6.646   6.370   4.202  0.4877  0.2888  0.3029
 7450TIP3    H146545   6.631   6.276   4.199  0.1352  0.3509 -0.0535
 7450TIP3    H246546   6.740   6.380   4.217  0.5153 -0.1179  0.3982
 7451TIP3   OH246547   2.210   2.222   4.545 -0.2282 -0.1595 -0.1120
 7451TIP3    H146548   2.247   2.203   4.632  1.7265  1.1651 -0.5994
 7451TIP3    H246549   2.240   2.310   4.525  1.2774 -1.2180 -3.0714
 7452TIP3   OH246550   2.196   5.419   3.150 -0.0619 -0.5250 -0.3684
 7452TIP3    H146551   2.173   5.336   3.191  0.4057  0.0615  1.1728
 7452TIP3    H246552   2.114   5.467   3.143  0.1242  0.2743  2.0918
 7453TIP3   OH246553   5.752   1.441   4.093 -0.5688  0.4742  0.3967
 7453TIP3    H146554   5.694   1.516   4.083 -0.4132  0.7133  1.1835
 7453TIP3    H246555   5.694   1.370   4.121 -0.9874 -0.1683 -1.8822
 7454TIP3   OH246556   0.184   3.584   3.458 -0.8678  0.3375 -0.1134
 7454TIP3    H146557   0.150   3.509   3.506 -1.8062 -0.4472 -1.8986
 7454TIP3    H246558   0.238   3.545   3.388 -1.5887  1.2840 -1.2343
 7455TIP3   OH246559   6.270   6.551   4.648  0.1664  0.2241  0.4913
 7455TIP3    H146560   6.206   6.608   4.605  0.9930 -0.4192 -1.7141
 7455TIP3    H246561   6.230   6.465   4.648  1.1817 -0.3031 -1.4286
 7456TIP3   OH246562   1.083   6.385   4.074 -0.4289  0.0071 -0.1709
 7456TIP3    H146563   1.109   6.293   4.072 -2.0831 -0.4872 -0.5379
 7456TIP3    H246564   1.095   6.415   3.984 -0.2490  0.0580 -0.1318
 7457TIP3   OH246565   3.825   5.555   5.542  0.9509 -0.1347 -0.4324
 7457TIP3    H146566   3.817   5.487   5.476  0.4946 -1.3326  0.8168
 7457TIP3    H246567   3.862   5.511   5.618  0.8675  1.0676  0.3291
 7458TIP3   OH246568   4.823   2.571   3.877  0.1822  0.3747  0.2367
 7458TIP3    H146569   4.762   2.501   3.902  2.2830 -1.5094  0.4192
 7458TIP3    H246570   4.833   2.561   3.782 -0.5136  1.3451  0.0421
 7459TIP3   OH246571   0.644   4.242   2.540 -0.1708  0.3275  0.3524
 7459TIP3    H146572   0.568   4.252   2.597  0.3437 -0.4778  1.1986
 7459TIP3    H246573   0.719   4.242   2.599  0.6315  2.4353 -0.5622
 7460TIP3   OH246574   6.539   1.273   1.828 -0.0609 -0.0607  0.2713
 7460TIP3    H146575   6.462   1.218   1.837  0.5520 -1.0787 -0.4947
 7460TIP3    H246576   6.530   1.339   1.897 -1.8498  0.1486 -0.1175
 7461TIP3   OH246577   5.105   5.915   3.105  0.2894 -0.2386  0.2166
 7461TIP3    H146578   5.061   5.935   3.188  1.4838  0.8294  0.6234
 7461TIP3    H246579   5.056   5.963   3.039  0.0847 -0.0824  0.4789
 7462TIP3   OH246580   1.482   2.763   4.202 -0.7518 -0.6640 -0.1254
 7462TIP3    H146581   1.435   2.702   4.146 -0.2338 -1.9108  0.7341
 7462TIP3    H246582   1.574   2.749   4.180 -0.6972  1.5685 -1.6193
 7463TIP3   OH246583   2.175   1.409   1.837  0.3295 -0.2001  0.1334
 7463TIP3    H146584   2.156   1.495   1.874  0.1821 -0.1104 -0.1444
 7463TIP3    H246585   2.271   1.405   1.835  0.3376 -0.0594  0.1887
 7464TIP3   OH246586   1.656   0.229   3.905  0.3619  0.3298 -0.0902
 7464TIP3    H146587   1.572   0.187   3.885  0.4217  0.4390 -0.5776
 7464TIP3    H246588   1.721   0.171   3.865  0.4506  0.8474 -0.7140
 7465TIP3   OH246589   5.287   5.429   3.692 -0.3188 -0.5959  0.1209
 7465TIP3    H146590   5.317   5.396   3.776 -0.2472  1.4349  0.9487
 7465TIP3    H246591   5.216   5.489   3.714  0.0158  0.3296 -1.2096
 7466TIP3   OH246592   6.147   0.285   4.083 -0.1823  0.3544 -0.0130
 7466TIP3    H146593   6.125   0.222   4.152  1.2487  1.1233  1.1931
 7466TIP3    H246594   6.098   0.254   4.006 -1.5069 -0.7536  1.2162
 7467TIP3   OH246595   0.613   2.006   4.272 -0.0549  0.4189  0.3421
 7467TIP3    H146596   0.647   1.966   4.352  1.7969  2.1332  0.4881
 7467TIP3    H246597   0.544   2.065   4.303  0.8104  1.2505  0.7313
 7468TIP3   OH246598   5.827   6.266   4.628 -0.1063 -0.0359  0.2900
 7468TIP3    H146599   5.882   6.238   4.555 -0.8230  0.2940 -0.3856
 7468TIP3    H246600   5.823   6.189   4.686  0.9746 -0.0936  0.3004
 7469TIP3   OH246601   1.383   0.203   2.182 -0.3539 -0.2672 -0.2288
 7469TIP3    H146602   1.419   0.208   2.270 -1.4615 -1.0554  0.2967
 7469TIP3    H246603   1.460   0.191   2.125  0.3307 -0.2196  0.6693
 7470TIP3   OH246604   3.475   5.536   2.395  0.1584 -0.0122  0.5418
 7470TIP3    H146605   3.524   5.574   2.322  0.5122  1.8714  1.6922
 7470TIP3    H246606   3.384   5.536   2.366  0.4370 -0.4600 -0.3632
 7471TIP3   OH246607   2.951   2.549   3.376 -0.1316  0.4980 -0.1266
 7471TIP3    H146608   2.950   2.633   3.422  1.2277  0.6743 -0.3739
 7471TIP3    H246609   2.879   2.555   3.314  0.7498  2.0519 -1.0709
 7472TIP3   OH246610   4.364   2.280   2.189  0.5818  0.3843 -0.3431
 7472TIP3    H146611   4.346   2.291   2.282  1.7646  1.3895 -0.2180
 7472TIP3    H246612   4.289   2.229   2.156  0.6603 -0.9051  1.3418
 7473TIP3   OH246613   0.900   0.294   4.490 -0.3058 -0.7753 -0.1369
 7473TIP3    H146614   0.854   0.244   4.557  1.0325  0.7302  2.0350
 7473TIP3    H246615   0.839   0.297   4.416 -2.7404 -0.8221  1.7295
 7474TIP3   OH246616   2.596   1.514   1.859 -0.5312  0.3932 -0.0257
 7474TIP3    H146617   2.564   1.426   1.880  0.6951  0.1958  1.1964
 7474TIP3    H246618   2.683   1.517   1.899 -0.1693  1.8456 -0.8642
 7475TIP3   OH246619   6.468   0.525   6.114  0.1602  0.2268  0.3808
 7475TIP3    H146620   6.435   0.478   6.037  0.2096 -0.3568  0.7106
 7475TIP3    H246621   6.479   0.615   6.084  0.5458 -0.0703 -0.4123
 7476TIP3   OH246622   2.095   2.895   2.244 -0.3068  0.2165  0.5916
 7476TIP3    H146623   2.144   2.878   2.164 -1.5931  1.3518 -0.4864
 7476TIP3    H246624   2.008   2.922   2.214 -0.6059  1.3888  2.3278
 7477TIP3   OH246625   1.941   4.560   1.843 -0.4461  0.6543  0.0270
 7477TIP3    H146626   2.036   4.573   1.847 -0.3539 -0.1804  1.2748
 7477TIP3    H246627   1.908   4.599   1.924 -1.2206  1.2856 -0.5829
 7478TIP3   OH246628   5.537   3.916   3.350 -0.4112 -0.0698 -0.2306
 7478TIP3    H146629   5.443   3.917   3.368 -0.4056 -0.9661 -0.0871
 7478TIP3    H246630   5.575   3.870   3.424  0.1601  0.3667 -0.2421
 7479TIP3   OH246631   3.054   5.475  13.385 -0.2691 -0.0714 -0.8067
 7479TIP3    H146632   2.961   5.454  13.380 -0.7545  1.6466  0.2611
 7479TIP3    H246633   3.086   5.467  13.295 -1.4714 -0.5462 -1.2024
 7480TIP3   OH246634   1.188   6.798   4.570  0.7000  0.2762 -0.5125
 7480TIP3    H146635   1.145   6.715   4.548 -1.4532  0.9728  0.7610
 7480TIP3    H246636   1.250   6.775   4.640 -0.4031 -0.1795  0.3406
 7481TIP3   OH246637   4.167   3.668   3.782  0.0936 -0.7260  0.2599
 7481TIP3    H146638   4.089   3.612   3.794  0.4147 -1.0678  0.7978
 7481TIP3    H246639   4.228   3.613   3.733 -0.4252 -0.0517 -1.2172
 7482TIP3   OH246640   4.846   4.465   4.199  1.0734  0.2487  0.2905
 7482TIP3    H146641   4.912   4.400   4.224  1.8476  1.4698  1.5433
 7482TIP3    H246642   4.785   4.416   4.143  2.5231 -1.1337 -0.1734
 7483TIP3   OH246643   1.122   5.425   2.221  0.4966  0.5869 -0.1963
 7483TIP3    H146644   1.125   5.421   2.317 -0.1670  0.1296 -0.1873
 7483TIP3    H246645   1.058   5.493   2.202 -1.7043 -1.3559 -0.2697
 7484TIP3   OH246646   5.801   0.980   3.960  0.0997  0.0082  0.4720
 7484TIP3    H146647   5.869   0.924   3.998  0.7660  0.2910 -0.2690
 7484TIP3    H246648   5.849   1.038   3.900 -0.5417  1.4905  1.3272
 7485TIP3   OH246649   2.197   5.533   4.693 -0.7261  0.3141  0.1323
 7485TIP3    H146650   2.180   5.517   4.600  1.0865  0.4904 -0.2859
 7485TIP3    H246651   2.231   5.450   4.726  0.8345  0.8700  0.0199
 7486TIP3   OH246652   0.806   3.030   2.432 -0.1779 -0.0091  0.0754
 7486TIP3    H146653   0.800   3.050   2.525 -1.7219 -0.9218  0.1986
 7486TIP3    H246654   0.767   2.943   2.423  0.3179 -0.1134 -1.3730
 7487TIP3   OH246655   6.069   0.906   4.062  0.3865 -0.4039 -0.0447
 7487TIP3    H146656   6.074   0.838   4.129 -1.5269 -0.2549  0.3131
 7487TIP3    H246657   6.149   0.895   4.010  1.4541 -1.1176  1.6854
 7488TIP3   OH246658   0.280   3.374   5.117  0.1485 -0.3584  0.1667
 7488TIP3    H146659   0.211   3.384   5.051  1.3494 -1.6063 -1.3429
 7488TIP3    H246660   0.258   3.292   5.162 -0.9962  0.7832  1.7954
 7489TIP3   OH246661   6.036   3.354   3.360  0.0187  0.0584  0.1130
 7489TIP3    H146662   5.989   3.302   3.424  2.9922 -1.8431  0.9664
 7489TIP3    H246663   6.060   3.292   3.291  1.9568  0.6878  0.1536
 7490TIP3   OH246664   4.364   0.499   4.905 -0.1923 -0.2119 -0.3781
 7490TIP3    H146665   4.395   0.536   4.823  2.1872 -1.2274  0.0020
 7490TIP3    H246666   4.356   0.405   4.888  1.1891 -0.5690  0.7563
 7491TIP3   OH246667   3.760   5.719   2.322 -0.2324 -0.1464  0.0809
 7491TIP3    H146668   3.712   5.667   2.259 -1.8152  0.4053  0.7715
 7491TIP3    H246669   3.752   5.809   2.290  1.1866 -0.1332 -0.3020
 7492TIP3   OH246670   6.577   2.409   5.212  0.0428 -0.1038 -0.0108
 7492TIP3    H146671   6.669   2.433   5.219 -0.2188  0.7101  0.9651
 7492TIP3    H246672   6.559   2.363   5.294 -0.8173  1.2311  0.5860
 7493TIP3   OH246673   2.799   2.626   3.178  0.0727  0.6539  0.8113
 7493TIP3    H146674   2.741   2.698   3.153 -0.5183  0.1513  0.6794
 7493TIP3    H246675   2.740   2.551   3.187  0.2840  0.6884  3.3129
 7494TIP3   OH246676   0.400   3.928   4.271 -0.6559 -0.0337 -0.0832
 7494TIP3    H146677   0.330   3.957   4.329 -2.2131  0.7442 -2.1900
 7494TIP3    H246678   0.378   3.838   4.249  0.1158 -0.4406  0.7445
 7495TIP3   OH246679   4.968   1.953   2.439 -0.2268 -0.0168 -0.6136
 7495TIP3    H146680   4.960   2.048   2.445  1.1170  0.0564  0.4908
 7495TIP3    H246681   4.878   1.921   2.446 -0.6389  1.1339 -0.3724
 7496TIP3   OH246682   3.119   4.511   4.161 -0.1861  0.8583 -0.1009
 7496TIP3    H146683   3.079   4.479   4.242 -1.6051  0.6486 -0.8553
 7496TIP3    H246684   3.214   4.506   4.177 -0.3948 -1.0923  0.8169
 7497TIP3   OH246685   3.260   2.491   4.720  0.8118  0.0488  0.1347
 7497TIP3    H146686   3.290   2.441   4.796  2.3272  1.0362  0.2287
 7497TIP3    H246687   3.340   2.523   4.679 -0.0668  1.5994 -0.4688
 7498TIP3   OH246688   1.034   4.380   5.513  0.5967 -0.0186  0.4296
 7498TIP3    H146689   1.000   4.335   5.436  0.6892  0.2407  0.2352
 7498TIP3    H246690   1.126   4.395   5.493  0.1862  1.8415 -0.2854
 7499TIP3   OH246691   0.936   1.561   3.695 -0.0540 -0.2876 -0.0377
 7499TIP3    H146692   0.949   1.617   3.618 -0.0525 -0.1482  0.0644
 7499TIP3    H246693   0.992   1.485   3.678 -0.5224 -0.5406 -0.4583
 7500TIP3   OH246694   3.771   1.418   2.611  0.1828  0.1933 -0.0950
 7500TIP3    H146695   3.824   1.493   2.586  1.1074 -0.7848 -1.1376
 7500TIP3    H246696   3.778   1.415   2.707  0.4422  1.1843 -0.0662
 7501TIP3   OH246697   5.304   4.758   5.465  0.1532  0.0640 -0.3522
 7501TIP3    H146698   5.216   4.722   5.470  0.0248  0.1710 -1.5391
 7501TIP3    H246699   5.356   4.690   5.421  0.5411  0.2028 -0.1156
 7502TIP3   OH246700   4.303   3.339   3.112 -0.2061  0.1158  0.4476
 7502TIP3    H146701   4.380   3.289   3.139 -0.9137 -0.9631  0.5314
 7502TIP3    H246702   4.318   3.356   3.019  0.6468  0.8929  0.7118
 7503TIP3   OH246703   6.573   6.585   3.030  0.2195  0.0202 -0.1176
 7503TIP3    H146704   6.504   6.525   3.059  0.5072 -0.1799  0.1689
 7503TIP3    H246705   6.651   6.531   3.025  0.3055  0.1916 -0.6880
 7504TIP3   OH246706   0.558   4.868   2.833 -0.2947  0.0791  0.1761
 7504TIP3    H146707   0.552   4.791   2.777  1.1703 -0.1746  0.3480
 7504TIP3    H246708   0.636   4.914   2.803  0.4179  0.0414  1.8582
 7505TIP3   OH246709   4.611   3.126   2.401  0.0918 -0.3052  1.0711
 7505TIP3    H146710   4.627   3.036   2.430  1.3649 -0.7664 -0.8218
 7505TIP3    H246711   4.685   3.146   2.343 -1.9394  0.6370 -1.3951
 7506TIP3   OH246712   6.554   2.475   2.360 -0.7203  0.3849 -0.1211
 7506TIP3    H146713   6.549   2.464   2.455  2.1656  1.4783  0.2555
 7506TIP3    H246714   6.526   2.565   2.345 -2.6726 -0.2410 -0.5658
 7507TIP3   OH246715   0.055   3.831   3.315  0.4035 -0.2660 -0.2625
 7507TIP3    H146716   0.023   3.767   3.378 -1.4028  0.9401  0.1294
 7507TIP3    H246717   0.040   3.790   3.230  0.1003 -0.7466  0.0199
 7508TIP3   OH246718   5.648   4.118   2.529  0.6858 -0.0198 -0.2360
 7508TIP3    H146719   5.621   4.115   2.621 -1.4130  0.7148 -0.7684
 7508TIP3    H246720   5.655   4.027   2.503  0.5920 -0.2394  0.4761
 7509TIP3   OH246721   2.350   1.786   3.618  0.0903  0.1215  0.5826
 7509TIP3    H146722   2.321   1.832   3.540  0.5416 -1.8778 -0.8422
 7509TIP3    H246723   2.408   1.718   3.586 -0.2128 -1.1882  2.6007
 7510TIP3   OH246724   4.875   4.922   4.556  0.3919  0.2031  0.7007
 7510TIP3    H146725   4.824   4.992   4.514 -0.2937 -0.1680  0.8871
 7510TIP3    H246726   4.863   4.846   4.499  0.5458  0.0492  0.8697
 7511TIP3   OH246727   6.015   5.152   2.631  0.5438  0.1252 -0.6878
 7511TIP3    H146728   5.983   5.171   2.543  0.5452 -0.7278 -0.8811
 7511TIP3    H246729   6.002   5.233   2.679 -2.1129 -0.1875 -0.6889
 7512TIP3   OH246730   5.015   3.123   2.662 -0.7685  0.1662  0.1547
 7512TIP3    H146731   4.934   3.078   2.687  0.0382 -1.3681  0.1354
 7512TIP3    H246732   5.080   3.093   2.725  0.1069  0.2946 -0.6617
 7513TIP3   OH246733   4.200   3.556   5.538 -0.2263 -0.5351 -0.5446
 7513TIP3    H146734   4.151   3.615   5.596 -1.1821 -2.8204  1.0994
 7513TIP3    H246735   4.167   3.578   5.450 -2.1052 -0.0133  0.2286
 7514TIP3   OH246736   0.864   4.644   3.785  0.4452 -0.1012  0.1817
 7514TIP3    H146737   0.793   4.586   3.813 -0.1063  0.8770  0.8719
 7514TIP3    H246738   0.939   4.586   3.774 -0.4398 -1.1541 -0.5204
 7515TIP3   OH246739   6.170   5.592   4.815 -0.3426 -0.2708 -0.5059
 7515TIP3    H146740   6.208   5.583   4.902  0.0281 -0.4931 -0.6870
 7515TIP3    H246741   6.189   5.509   4.772  2.9196  1.1208 -2.1325
 7516TIP3   OH246742   1.742   0.069   1.936  0.0708  0.2543  0.4045
 7516TIP3    H146743   1.801   0.050   2.009  1.2331 -0.7963 -0.7522
 7516TIP3    H246744   1.701  -0.016   1.916 -1.5613  0.8738  0.9090
 7517TIP3   OH246745   2.739   2.086   3.336  0.4811  0.4277  0.0851
 7517TIP3    H146746   2.680   2.134   3.394 -0.7964  1.5247 -1.9891
 7517TIP3    H246747   2.697   2.001   3.324  1.7040 -0.5452  2.1394
 7518TIP3   OH246748   4.712   3.587   2.572 -0.1368  0.0682 -0.0907
 7518TIP3    H146749   4.712   3.682   2.583 -0.4414 -0.0233  0.7984
 7518TIP3    H246750   4.658   3.572   2.494 -0.0254  0.6278 -0.2788
 7519TIP3   OH246751   3.389   3.674   3.036  0.4618  0.1228  0.1173
 7519TIP3    H146752   3.479   3.644   3.052  0.4741 -1.3892 -2.3195
 7519TIP3    H246753   3.337   3.594   3.039 -0.8593  0.9888  1.5434
 7520TIP3   OH246754   4.984   4.082   2.366 -0.1113 -0.3805  0.2538
 7520TIP3    H146755   5.058   4.021   2.377  0.5496  0.5501  1.2057
 7520TIP3    H246756   4.989   4.139   2.443 -1.5187  0.0312  0.0562
 7521TIP3   OH246757   4.125   3.880   3.519  0.4272  0.1706 -0.0748
 7521TIP3    H146758   4.191   3.817   3.492 -0.0355 -0.4777  0.2937
 7521TIP3    H246759   4.067   3.832   3.578 -0.4769  0.6813 -0.5218
 7522TIP3   OH246760   1.082   2.238   2.293 -0.3995 -0.6098 -0.0096
 7522TIP3    H146761   1.006   2.217   2.348 -0.3142  0.3872  0.5067
 7522TIP3    H246762   1.072   2.181   2.217 -2.3473  0.3278 -0.5367
 7523TIP3   OH246763   0.482   0.995   2.405 -0.3764 -0.1012  0.2892
 7523TIP3    H146764   0.563   1.035   2.375 -1.1499  0.2002 -1.5639
 7523TIP3    H246765   0.457   0.934   2.335 -1.4917 -0.5525  1.0392
 7524TIP3   OH246766   1.664   4.341   2.220 -0.1013  0.1680 -0.2360
 7524TIP3    H146767   1.734   4.281   2.196 -0.1744  0.0471 -0.1448
 7524TIP3    H246768   1.656   4.333   2.315 -0.7838 -0.4210 -0.3305
 7525TIP3   OH246769   3.597   0.722   3.430 -0.0167 -0.1553 -0.0939
 7525TIP3    H146770   3.585   0.636   3.470  0.9192  0.1873  0.9911
 7525TIP3    H246771   3.583   0.784   3.502  0.7584  0.5245 -0.5050
 7526TIP3   OH246772   5.786   2.641   3.051  0.1353 -0.0576 -0.1547
 7526TIP3    H146773   5.830   2.587   3.117  0.6513 -0.4247 -0.7934
 7526TIP3    H246774   5.698   2.603   3.045  0.6144 -1.0803 -0.8735
 7527TIP3   OH246775   2.437   6.493   4.505  0.1527  0.0483  0.4362
 7527TIP3    H146776   2.388   6.555   4.451 -0.4273 -2.1906 -1.8464
 7527TIP3    H246777   2.529   6.516   4.491 -0.0710  1.1767  0.7177
 7528TIP3   OH246778   2.611   1.153   4.231 -0.0327  0.0698  0.4550
 7528TIP3    H146779   2.610   1.105   4.314 -0.2677 -0.3024  0.2372
 7528TIP3    H246780   2.606   1.245   4.257 -0.1969 -0.0493  0.8543
 7529TIP3   OH246781   1.566   5.237   2.968 -0.6249  0.2085 -0.1753
 7529TIP3    H146782   1.557   5.194   2.883  0.4351  0.2629 -0.3274
 7529TIP3    H246783   1.655   5.217   2.996 -0.2430  1.8966 -0.0367
 7530TIP3   OH246784   2.910   6.462   4.168  0.0280 -0.5172  0.0867
 7530TIP3    H146785   2.918   6.381   4.119 -0.6782 -0.4342 -0.1781
 7530TIP3    H246786   2.998   6.477   4.204  0.7811 -0.1731 -1.7795
 7531TIP3   OH246787   2.984   5.708   3.111 -0.2810 -0.2908  0.5555
 7531TIP3    H146788   3.047   5.680   3.044 -2.1353 -3.3441 -0.0899
 7531TIP3    H246789   2.936   5.780   3.070  1.7217  1.1082  0.5209
 7532TIP3   OH246790   6.032   1.768   4.075  0.1392  0.0640 -0.6186
 7532TIP3    H146791   6.029   1.673   4.077 -1.7917  0.0855 -0.7816
 7532TIP3    H246792   6.114   1.789   4.030 -0.5016 -1.5527 -2.6676
 7533TIP3   OH246793   1.596   2.457   3.194  0.0240  1.0416  0.0160
 7533TIP3    H146794   1.653   2.438   3.119 -0.5634  0.5634 -0.3158
 7533TIP3    H246795   1.511   2.423   3.168  0.2941 -1.1986  1.7857
 7534TIP3   OH246796   2.840   1.911   3.084  0.4698  0.2175  0.0786
 7534TIP3    H146797   2.906   1.842   3.077 -0.5515 -0.7966  0.0705
 7534TIP3    H246798   2.827   1.940   2.994 -0.7033 -1.1906 -0.2537
 7535TIP3   OH246799   0.292   5.920   4.277  0.1884 -0.2953  0.3642
 7535TIP3    H146800   0.207   5.963   4.262 -0.3175 -1.4519 -0.1641
 7535TIP3    H246801   0.270   5.829   4.294  1.3424 -0.6341  0.0922
 7536TIP3   OH246802   3.397   6.085   3.696 -0.2612  0.2979 -0.3335
 7536TIP3    H146803   3.414   6.052   3.608 -0.4142  0.4714 -0.4304
 7536TIP3    H246804   3.301   6.084   3.704 -0.2273 -1.9190  0.6743
 7537TIP3   OH246805   0.581   4.837   3.997 -0.2188 -0.0937 -1.0674
 7537TIP3    H146806   0.594   4.911   3.937 -0.8197  1.0034  0.1035
 7537TIP3    H246807   0.669   4.801   4.010  0.5876  2.2178  0.5349
 7538TIP3   OH246808   1.667   3.190   4.808  0.8099 -0.3526 -0.4558
 7538TIP3    H146809   1.685   3.231   4.723  0.3809 -0.3080 -0.5254
 7538TIP3    H246810   1.595   3.241   4.843  0.9118 -0.4468 -0.1126
 7539TIP3   OH246811   1.558   2.040   3.773 -0.0318 -0.5091 -0.0191
 7539TIP3    H146812   1.593   1.967   3.824 -1.2242 -0.7031  0.5432
 7539TIP3    H246813   1.605   2.116   3.805 -0.0765 -0.7704  0.6890
 7540TIP3   OH246814   6.483   2.304   4.666 -0.4746  1.0785  0.4921
 7540TIP3    H146815   6.578   2.296   4.661 -0.5424  0.4114  0.1682
 7540TIP3    H246816   6.456   2.233   4.724 -0.6815  1.9700  1.5242
 7541TIP3   OH246817   5.187   2.481   3.843 -0.2574  0.2761 -0.4552
 7541TIP3    H146818   5.151   2.569   3.859 -0.2675 -0.0080  1.3259
 7541TIP3    H246819   5.279   2.497   3.823  0.0399  0.6663  1.0594
 7542TIP3   OH246820   5.534   6.790   5.132  0.1663 -0.0551  0.3267
 7542TIP3    H146821   5.494   6.872   5.104  0.1523 -0.4093 -0.7278
 7542TIP3    H246822   5.496   6.772   5.218  0.9825  1.5955  1.0858
 7543TIP3   OH246823   2.608   3.687   5.600  0.0066 -0.6052  0.1432
 7543TIP3    H146824   2.679   3.703   5.662  0.8708 -1.0129 -0.7109
 7543TIP3    H246825   2.605   3.767   5.546  0.0892 -0.7474 -0.0747
 7544TIP3   OH246826   6.658   6.744   4.461  0.2176 -0.5564  0.0368
 7544TIP3    H146827   6.619   6.816   4.511  1.1406  0.4544 -0.6411
 7544TIP3    H246828   6.583   6.690   4.435 -0.4394 -0.1387  1.0175
 7545TIP3   OH246829   4.662   5.457   3.089  0.3841 -0.0859 -0.3588
 7545TIP3    H146830   4.641   5.478   3.180  1.4448 -1.8494  0.3450
 7545TIP3    H246831   4.721   5.526   3.061  0.1082  0.4339  0.3230
 7546TIP3   OH246832   5.390   1.182   3.847  0.3037 -0.3385 -0.0756
 7546TIP3    H146833   5.479   1.158   3.823  0.6066 -0.2998  0.9502
 7546TIP3    H246834   5.340   1.176   3.765  0.4122 -4.1838 -0.0509
 7547TIP3   OH246835   1.361   0.992   3.439  0.3917  0.2473  0.0955
 7547TIP3    H146836   1.437   0.960   3.391 -0.3851  2.1240 -2.7163
 7547TIP3    H246837   1.302   0.916   3.444  2.0552 -1.0188  1.6464
 7548TIP3   OH246838   5.663   6.569   1.934  0.2382 -0.1623 -0.1530
 7548TIP3    H146839   5.759   6.562   1.942  0.0227 -2.7315  1.0994
 7548TIP3    H246840   5.640   6.509   1.863 -0.5099  0.0054 -0.0604
 7549TIP3   OH246841   3.539   5.177   2.878  0.1809  0.0058 -0.4807
 7549TIP3    H146842   3.505   5.110   2.937  1.2874  1.0365  1.4168
 7549TIP3    H246843   3.462   5.227   2.852 -0.1880  0.3645  1.2010
 7550TIP3   OH246844   5.556   6.751   4.815 -0.5643 -0.0598  0.4876
 7550TIP3    H146845   5.510   6.742   4.898 -2.1753 -0.6042 -0.4225
 7550TIP3    H246846   5.521   6.680   4.761 -1.1369  1.5340 -1.3612
 7551TIP3   OH246847   4.261   0.202   5.176  0.3089 -0.0303 -0.2760
 7551TIP3    H146848   4.279   0.122   5.225 -0.2499  0.7431  1.2744
 7551TIP3    H246849   4.180   0.236   5.214  1.1732  1.9100 -0.0355
 7552TIP3   OH246850   4.939   6.726   4.562  0.1393  0.9408  0.1265
 7552TIP3    H146851   4.900   6.785   4.627 -1.6511  0.0504 -0.0790
 7552TIP3    H246852   4.955   6.645   4.609 -0.4629  0.5393 -0.3472
 7553TIP3   OH246853   4.832   5.779   3.185  0.2561 -0.3275  0.6215
 7553TIP3    H146854   4.884   5.737   3.253  1.6996 -0.2874 -0.4139
 7553TIP3    H246855   4.864   5.741   3.103 -2.7293 -1.8084 -0.0214
 7554TIP3   OH246856   0.492   3.372   4.408 -0.1030  0.3293  0.3784
 7554TIP3    H146857   0.414   3.413   4.445  0.3783  1.7326 -0.0975
 7554TIP3    H246858   0.458   3.295   4.361 -1.0106  0.0807  1.3864
 7555TIP3   OH246859   0.463   6.709   4.080 -0.5603 -0.1390  0.3758
 7555TIP3    H146860   0.493   6.620   4.062  1.0990  0.3314  0.7187
 7555TIP3    H246861   0.540   6.764   4.068 -1.7963  1.4208 -0.8884
 7556TIP3   OH246862   5.609   3.811   3.617 -0.2198  0.2080  0.4442
 7556TIP3    H146863   5.600   3.906   3.618 -3.2434  0.0410 -0.5882
 7556TIP3    H246864   5.543   3.780   3.679 -0.6929 -1.2603 -0.7473
 7557TIP3   OH246865   1.820   0.913   2.676 -0.1762  0.0681 -0.0857
 7557TIP3    H146866   1.828   1.008   2.675 -0.9926  0.2299  2.4049
 7557TIP3    H246867   1.735   0.895   2.636  1.1902  0.0685 -3.3386
 7558TIP3   OH246868   5.601   5.971   4.988 -0.5090  0.1185  0.1330
 7558TIP3    H146869   5.623   6.026   5.063 -2.7540  1.5255 -0.1365
 7558TIP3    H246870   5.505   5.970   4.986 -0.5819 -2.8070 -0.6631
 7559TIP3   OH246871   1.762   1.043   2.933 -0.3581 -0.5511 -0.3090
 7559TIP3    H146872   1.785   0.978   2.866 -1.3803 -1.2801  0.0198
 7559TIP3    H246873   1.670   1.027   2.952 -0.5329  0.7600  0.0677
 7560TIP3   OH246874   3.190   4.559   4.877  0.0452  0.1738  0.0657
 7560TIP3    H146875   3.177   4.558   4.782  1.3786  2.9427 -0.2326
 7560TIP3    H246876   3.139   4.634   4.907  0.4914 -0.0341  1.3751
 7561TIP3   OH246877   6.424   2.702   5.305 -0.3321  0.4847 -0.5175
 7561TIP3    H146878   6.389   2.662   5.384  1.0701 -2.3448 -1.1805
 7561TIP3    H246879   6.492   2.762   5.336 -1.6499  1.4976  0.4875
 7562TIP3   OH246880   3.406   3.027   5.120  0.2902 -0.2776  0.2028
 7562TIP3    H146881   3.320   3.051   5.154  0.3161 -0.9619  0.7720
 7562TIP3    H246882   3.468   3.079   5.172  0.1780  1.7665 -1.5413
 7563TIP3   OH246883   4.364   6.312   1.859 -0.0642 -0.6483 -0.5845
 7563TIP3    H146884   4.338   6.404   1.852 -1.4229 -0.9091  0.6197
 7563TIP3    H246885   4.406   6.292   1.775 -0.2923  0.8966 -1.0834
 7564TIP3   OH246886   4.343   2.803   3.663 -0.3955 -0.1384  0.3489
 7564TIP3    H146887   4.349   2.895   3.690 -0.5755 -0.5908  2.0926
 7564TIP3    H246888   4.434   2.775   3.655 -0.3391  0.1187  0.0773
 7565TIP3   OH246889   1.851   3.982   3.110  0.5526 -0.0949  0.3916
 7565TIP3    H146890   1.808   4.057   3.068  0.6779 -0.0043  0.4267
 7565TIP3    H246891   1.927   3.964   3.056  0.1428 -0.6373 -0.0138
 7566TIP3   OH246892   2.849   4.581   3.186  0.3817 -0.0224 -0.3840
 7566TIP3    H146893   2.778   4.547   3.241  0.9709 -0.9738 -0.1748
 7566TIP3    H246894   2.808   4.645   3.129 -0.5168 -0.0855  0.1850
 7567TIP3   OH246895   3.738   2.935   4.879 -0.1624 -0.3262  0.8017
 7567TIP3    H146896   3.645   2.953   4.868  0.1261  0.2980 -1.0656
 7567TIP3    H246897   3.743   2.873   4.951 -2.2247 -2.2228 -0.5619
 7568TIP3   OH246898   4.038   3.138   3.905 -0.2389 -0.2229 -0.1684
 7568TIP3    H146899   4.093   3.212   3.931 -0.2148 -1.0993  2.7167
 7568TIP3    H246900   4.074   3.108   3.822  0.3461  2.3613 -0.9242
 7569TIP3   OH246901   1.445   1.061   5.233  0.2594  0.3532 -0.0553
 7569TIP3    H146902   1.388   1.030   5.303  0.4809 -0.1003 -0.0714
 7569TIP3    H246903   1.461   0.984   5.179 -0.1421  0.7603 -0.7733
 7570TIP3   OH246904   5.381   6.251   4.361  0.0998 -0.3565  0.0038
 7570TIP3    H146905   5.460   6.277   4.410 -0.6660  0.2350  0.9553
 7570TIP3    H246906   5.309   6.263   4.423 -0.8826  0.2021 -1.2075
 7571TIP3   OH246907   5.687   6.488   4.284  0.8580 -0.3595  0.3013
 7571TIP3    H146908   5.649   6.428   4.349  0.9191 -0.2866  0.4042
 7571TIP3    H246909   5.695   6.572   4.330  1.7255 -0.5257  0.4787
 7572TIP3   OH246910   1.088   4.090   2.605 -0.4273 -0.0850 -0.1686
 7572TIP3    H146911   1.111   4.077   2.513  2.1863  1.0225  0.2519
 7572TIP3    H246912   1.004   4.045   2.615  0.4094 -2.4127 -2.4647
 7573TIP3   OH246913   1.586   2.019   2.287 -0.1846 -0.1742 -0.1699
 7573TIP3    H146914   1.634   1.949   2.243 -0.3836 -0.2799 -0.2199
 7573TIP3    H246915   1.560   1.982   2.371  0.5843  0.1752  0.2351
 7574TIP3   OH246916   4.429   6.088   3.770 -0.4106  0.5039  0.6496
 7574TIP3    H146917   4.448   6.018   3.832 -0.2630  0.5807  0.6916
 7574TIP3    H246918   4.366   6.050   3.709  1.7680 -0.5997 -1.0434
 7575TIP3   OH246919   0.985   3.261   2.615  0.1255  0.0415 -0.1248
 7575TIP3    H146920   0.900   3.245   2.657  0.4202  0.6975  0.7558
 7575TIP3    H246921   1.034   3.181   2.628  0.5013  0.5059  1.5397
 7576TIP3   OH246922   2.787   0.960   3.275 -0.0529 -0.2587 -0.2079
 7576TIP3    H146923   2.792   0.922   3.363  0.7946 -0.4607 -0.3349
 7576TIP3    H246924   2.808   0.887   3.217  3.3872  0.7215 -0.3895
 7577TIP3   OH246925   4.466   0.746   4.008  0.1427  0.9630  0.1065
 7577TIP3    H146926   4.441   0.790   4.089  2.2952  1.3727  0.6244
 7577TIP3    H246927   4.391   0.692   3.986 -0.8331  1.4805  1.9226
 7578TIP3   OH246928   1.358   0.254   5.333  0.6726  0.5768  0.2359
 7578TIP3    H146929   1.395   0.341   5.321 -0.7085  1.2310  0.4751
 7578TIP3    H246930   1.406   0.217   5.406  0.7736  1.4489  0.6241
 7579TIP3   OH246931   4.227   5.531   2.514  0.1253 -0.1451 -0.0598
 7579TIP3    H146932   4.271   5.447   2.500  0.4757  0.2245 -1.2909
 7579TIP3    H246933   4.134   5.511   2.505  0.2573 -0.2366 -1.3651
 7580TIP3   OH246934   6.260   3.048   4.478  0.0691 -0.0396  0.6537
 7580TIP3    H146935   6.304   2.964   4.487 -0.4655 -0.2186  1.6932
 7580TIP3    H246936   6.326   3.106   4.441  0.8077 -0.6088  1.0658
 7581TIP3   OH246937   4.217   6.734   4.610  0.7441  0.6771  0.5051
 7581TIP3    H146938   4.174   6.757   4.528  0.5558 -0.1025  0.3819
 7581TIP3    H246939   4.145   6.720   4.672  0.7778 -0.8070  0.2517
 7582TIP3   OH246940   2.474   3.815   4.592  0.2625  0.0495 -0.1418
 7582TIP3    H146941   2.486   3.763   4.512 -3.1525 -0.9086 -0.1774
 7582TIP3    H246942   2.489   3.753   4.663 -1.6707 -0.4993 -0.1639
 7583TIP3   OH246943   5.960   3.468   4.210 -0.1310  0.4598 -0.1395
 7583TIP3    H146944   5.892   3.401   4.205 -0.5417  0.8553  0.0699
 7583TIP3    H246945   5.921   3.545   4.168  0.1190  0.7449  0.1452
 7584TIP3   OH246946   5.530   5.751   3.702  0.3017 -0.1095 -0.3331
 7584TIP3    H146947   5.597   5.820   3.700  0.0766  0.1137 -1.8051
 7584TIP3    H246948   5.549   5.701   3.781  0.5062  1.6013  0.7485
 7585TIP3   OH246949   1.067   1.301   3.907  0.6354  0.2846 -0.0445
 7585TIP3    H146950   1.077   1.206   3.900  0.3619  0.3450 -1.6931
 7585TIP3    H246951   1.152   1.333   3.936  0.7925 -0.4372  0.3091
 7586TIP3   OH246952   4.852   0.208   3.187  0.0735  0.1223  0.7627
 7586TIP3    H146953   4.819   0.223   3.275 -0.9038  1.7904  0.1508
 7586TIP3    H246954   4.913   0.280   3.171  0.0579 -0.0214 -0.0198
 7587TIP3   OH246955   1.970   1.846   3.822  0.7156  0.3801  0.3475
 7587TIP3    H146956   1.875   1.853   3.833  0.5869  2.2829 -1.3896
 7587TIP3    H246957   1.985   1.754   3.801 -0.4672 -0.3718  2.4762
 7588TIP3   OH246958   4.324   2.524   3.341  0.2822  0.3671  0.4159
 7588TIP3    H146959   4.256   2.551   3.402 -0.4474  0.1561 -0.2898
 7588TIP3    H246960   4.369   2.605   3.317  0.3856  0.4859  1.0103
 7589TIP3   OH246961   3.713   4.591   3.769 -0.3852  0.0668  0.1652
 7589TIP3    H146962   3.756   4.675   3.784  0.0983 -0.1664  0.0976
 7589TIP3    H246963   3.785   4.530   3.753 -0.6898 -0.5330  1.0499
 7590TIP3   OH246964   5.457   1.624   5.195  0.0016 -0.5281  0.1167
 7590TIP3    H146965   5.445   1.708   5.238 -1.9338 -0.1027 -1.1305
 7590TIP3    H246966   5.392   1.567   5.234 -0.1137 -0.8357 -0.5058
 7591TIP3   OH246967   6.176   0.441   3.696 -0.1800 -0.5116 -0.1417
 7591TIP3    H146968   6.082   0.435   3.709 -0.3346  2.1937  0.4525
 7591TIP3    H246969   6.212   0.460   3.782  0.8029 -0.4194 -0.5495
 7592TIP3   OH246970   2.148   5.690   1.850  0.9077 -0.4623  0.4199
 7592TIP3    H146971   2.116   5.652   1.931  0.4638 -0.2569  0.3454
 7592TIP3    H246972   2.162   5.615   1.792 -0.6160 -0.4785  0.0409
 7593TIP3   OH246973   5.847   4.263   2.185 -0.3257 -0.4357  0.0349
 7593TIP3    H146974   5.761   4.223   2.170 -0.4595 -0.1128 -0.0855
 7593TIP3    H246975   5.908   4.189   2.188 -0.5153 -0.6243 -0.5600
 7594TIP3   OH246976   1.678   2.893   4.403  0.2164  0.2887  0.0004
 7594TIP3    H146977   1.617   2.933   4.465  0.1950 -4.6759  3.7771
 7594TIP3    H246978   1.623   2.845   4.341  0.2869  0.6923 -0.3796
 7595TIP3   OH246979   2.444   4.826   2.299  0.6270  0.8358  0.2922
 7595TIP3    H146980   2.536   4.851   2.286  0.4021  0.8604 -1.4747
 7595TIP3    H246981   2.448   4.742   2.343  1.5654 -0.0982 -1.4795
 7596TIP3   OH246982   1.958   3.298   2.954  0.9230  0.3036  0.0155
 7596TIP3    H146983   1.879   3.303   3.009 -0.5497  1.0384 -2.0403
 7596TIP3    H246984   1.997   3.385   2.961  0.1799  0.7228 -0.8280
 7597TIP3   OH246985   6.552   5.836   2.636  0.7465  0.3566  0.4450
 7597TIP3    H146986   6.636   5.818   2.678  0.3630  0.0601  1.0907
 7597TIP3    H246987   6.490   5.779   2.680  0.2648  0.3043 -0.2794
 7598TIP3   OH246988   1.100   3.654   4.380  0.2380  0.5075 -0.0182
 7598TIP3    H146989   1.151   3.610   4.448  0.3696  0.3138 -0.2401
 7598TIP3    H246990   1.083   3.741   4.414 -0.7808  0.0102  0.8250
 7599TIP3   OH246991   1.052   5.148   2.237  0.2650  0.3383 -0.1385
 7599TIP3    H146992   1.125   5.120   2.292  0.3592 -0.1533 -0.5078
 7599TIP3    H246993   1.077   5.235   2.206  1.4793 -0.4852 -1.6067
 7600TIP3   OH246994   1.554   6.373   2.074 -0.5004  0.1900 -0.0291
 7600TIP3    H146995   1.591   6.309   2.014 -1.8297 -2.0183  1.3717
 7600TIP3    H246996   1.576   6.341   2.161 -2.5939  0.7067  0.7537
 7601TIP3   OH246997   0.971   6.604   3.241  0.1551  0.2901 -1.0244
 7601TIP3    H146998   0.945   6.519   3.275  0.4684  0.1969 -1.0160
 7601TIP3    H246999   0.909   6.623   3.171  1.1356 -0.7370 -2.2086
 7602TIP3   OH247000   0.096   2.448   4.201  0.2785  0.1264  0.1149
 7602TIP3    H147001   0.182   2.479   4.171  0.2854 -0.2204 -0.2319
 7602TIP3    H247002   0.115   2.368   4.249 -0.1026 -1.7598 -2.6589
 7603TIP3   OH247003   4.252   5.351   1.857 -0.6748  0.6826  0.2982
 7603TIP3    H147004   4.338   5.329   1.893  0.2108  0.7500 -1.6611
 7603TIP3    H247005   4.251   5.447   1.854 -1.2388  0.7232  1.1970
 7604TIP3   OH247006   1.560   2.662   3.693  0.2982  0.3874 -0.0740
 7604TIP3    H147007   1.649   2.638   3.668  0.1755 -1.0533  0.7473
 7604TIP3    H247008   1.506   2.588   3.664 -0.3468  0.3687  1.1048
 7605TIP3   OH247009   3.586   5.327   3.398  0.7137  0.2006 -0.4140
 7605TIP3    H147010   3.547   5.278   3.326  1.1989  0.9222 -1.1820
 7605TIP3    H247011   3.650   5.267   3.436  1.3237  0.2426 -1.3609
 7606TIP3   OH247012   1.697   2.241   5.122 -0.1730  0.3988  0.0591
 7606TIP3    H147013   1.762   2.288   5.173  0.9193 -2.0467  1.0693
 7606TIP3    H247014   1.638   2.204   5.187 -0.8666  0.1534 -0.6889
 7607TIP3   OH247015   6.743   0.105   2.381  0.1036 -0.1471  0.1995
 7607TIP3    H147016   6.708   0.027   2.423  3.2394 -3.4695 -2.6904
 7607TIP3    H247017   6.822   0.126   2.430 -0.3831  0.8573  0.5732
 7608TIP3   OH247018   3.255   3.670   3.325 -0.0929 -0.3677  0.0913
 7608TIP3    H147019   3.189   3.603   3.341 -1.0223  0.8899  1.8681
 7608TIP3    H247020   3.261   3.677   3.230 -2.4981 -0.5517 -0.1145
 7609TIP3   OH247021   3.634   3.936   3.631 -0.6763 -0.1399 -0.2026
 7609TIP3    H147022   3.595   4.017   3.597  1.2182  0.5560 -0.8232
 7609TIP3    H247023   3.672   3.894   3.554  1.3466  0.1252  0.5889
 7610TIP3   OH247024   3.095   5.818   3.348  0.2398  0.0506 -0.1234
 7610TIP3    H147025   3.133   5.867   3.275  0.9308  0.3166  0.3967
 7610TIP3    H247026   3.025   5.767   3.309  0.8371 -0.0945 -1.0436
 7611TIP3   OH247027   2.036   1.570   5.014  0.3133 -0.3531 -0.6329
 7611TIP3    H147028   1.949   1.593   4.981  0.1330 -0.4493 -0.2304
 7611TIP3    H247029   2.067   1.651   5.056 -0.3308 -0.8109  0.8058
 7612TIP3   OH247030   4.759   0.420   3.993  0.3764  0.1251  0.1535
 7612TIP3    H147031   4.763   0.411   4.088 -0.4855  2.2173  0.4578
 7612TIP3    H247032   4.666   0.411   3.972  0.7742 -2.4047 -0.8115
 7613TIP3   OH247033   4.855   5.850   4.073  0.2593  0.0548 -0.1877
 7613TIP3    H147034   4.817   5.861   4.161  0.5446 -0.1902 -0.0342
 7613TIP3    H247035   4.889   5.761   4.073 -0.5166 -0.2528 -0.8455
 7614TIP3   OH247036   6.710   1.438   3.274 -0.2787  0.3106  0.0481
 7614TIP3    H147037   6.804   1.447   3.265 -0.0878 -2.4468 -1.9329
 7614TIP3    H247038   6.676   1.453   3.185 -1.4079 -1.0059  0.2187
 7615TIP3   OH247039   2.947   4.475   3.454  0.3540 -0.3371  0.1705
 7615TIP3    H147040   2.875   4.508   3.508  0.0140  2.1666 -1.6252
 7615TIP3    H247041   3.022   4.474   3.513 -0.1717  1.5558  0.9624
 7616TIP3   OH247042   3.599   3.325   4.769  0.5497  0.1016 -0.1014
 7616TIP3    H147043   3.521   3.273   4.784  1.8416 -1.4269  1.6968
 7616TIP3    H247044   3.618   3.313   4.676 -0.7204 -0.3829 -0.3174
 7617TIP3   OH247045   2.291   0.923   3.734  0.0862  0.2197 -0.1444
 7617TIP3    H147046   2.226   0.970   3.681 -0.0279  0.8129  0.5109
 7617TIP3    H247047   2.375   0.955   3.703  0.0952 -0.6753 -1.1147
 7618TIP3   OH247048   2.512   6.174   2.481  0.4592 -0.1918 -0.0818
 7618TIP3    H147049   2.498   6.109   2.550 -1.2862  2.2882  2.0533
 7618TIP3    H247050   2.441   6.158   2.419 -0.1515 -0.1339  0.5930
 7619TIP3   OH247051   4.440   5.711   5.629 -0.2054  0.2738  0.2356
 7619TIP3    H147052   4.483   5.654   5.564 -0.7845  0.2861 -0.1657
 7619TIP3    H247053   4.512   5.759   5.670  0.1508  0.5085 -0.6336
 7620TIP3   OH247054   0.587   6.829   4.605  0.3292  0.0201  0.1253
 7620TIP3    H147055   0.585   6.920   4.575  0.2757 -0.5646 -1.8054
 7620TIP3    H247056   0.630   6.833   4.690 -0.5907  1.9646  0.5637
 7621TIP3   OH247057   0.341   3.265   2.403  0.1165 -0.2089  0.8903
 7621TIP3    H147058   0.280   3.336   2.384  0.3867  0.0334  0.9255
 7621TIP3    H247059   0.333   3.252   2.498  2.0729  1.6512  1.3830
 7622TIP3   OH247060   4.233   4.380   2.377  0.9644  0.4225  0.5650
 7622TIP3    H147061   4.176   4.373   2.453  0.8112 -2.2190  0.2753
 7622TIP3    H247062   4.318   4.347   2.407  1.0883 -0.0070 -0.2335
 7623TIP3   OH247063   3.482   2.366   2.278 -0.2295  0.2968 -0.0837
 7623TIP3    H147064   3.402   2.406   2.244  0.0706  1.3455  0.4151
 7623TIP3    H247065   3.532   2.341   2.200 -0.7080  0.2939 -0.3931
 7624TIP3   OH247066   4.831   2.288   2.693  0.1904  0.7096 -0.5853
 7624TIP3    H147067   4.824   2.208   2.745  2.3481  0.0532 -1.2018
 7624TIP3    H247068   4.888   2.346   2.744 -1.7090  2.0919  0.0706
 7625TIP3   OH247069   0.841   5.161   3.995 -0.7364  0.1822 -0.4674
 7625TIP3    H147070   0.874   5.109   3.922  1.3460 -0.0629  0.5951
 7625TIP3    H247071   0.770   5.214   3.957 -0.0837 -0.3474 -2.5084
 7626TIP3   OH247072   1.743   6.619   1.907  0.4270  0.3600  0.2469
 7626TIP3    H147073   1.834   6.624   1.881  0.4040  1.1641  0.2905
 7626TIP3    H247074   1.746   6.597   2.001  0.5502 -0.2746  0.1026
 7627TIP3   OH247075   5.576   4.956   5.017  0.2287 -0.0627  0.1901
 7627TIP3    H147076   5.549   5.030   4.963  1.0518  0.6483  0.7191
 7627TIP3    H247077   5.665   4.936   4.987  0.9437  0.7538  1.6668
 7628TIP3   OH247078   6.585   1.088   3.558 -0.4917  0.4456  0.6238
 7628TIP3    H147079   6.648   1.102   3.488 -1.7821  0.8407 -0.4982
 7628TIP3    H247080   6.638   1.087   3.638  0.9210  0.7550 -0.2748
 7629TIP3   OH247081   2.326   1.256   3.679  0.8994 -0.0153 -0.1021
 7629TIP3    H147082   2.419   1.233   3.681  1.1796  1.1226  0.3406
 7629TIP3    H247083   2.323   1.340   3.633 -0.0302 -0.5477 -1.0588
 7630TIP3   OH247084   6.569   4.300   4.734  0.3606 -0.2314 -0.1940
 7630TIP3    H147085   6.599   4.210   4.747  0.6418 -0.1776 -0.4444
 7630TIP3    H247086   6.633   4.354   4.781 -1.0881 -0.2681  1.9532
 7631TIP3   OH247087   2.455   2.796   4.015  0.5457  0.5788 -0.2028
 7631TIP3    H147088   2.544   2.819   4.043  0.0148  0.0062  2.1242
 7631TIP3    H247089   2.400   2.865   4.052  0.0416  1.3805 -2.3133
 7632TIP3   OH247090   0.085   3.125   4.365 -0.3843  0.0040  0.1409
 7632TIP3    H147091   0.041   3.193   4.313 -1.7996 -0.4254  0.7477
 7632TIP3    H247092   0.036   3.045   4.346  0.1054 -0.4805  0.8915
 7633TIP3   OH247093   6.308   3.645   4.765  0.2847 -0.0680  0.5776
 7633TIP3    H147094   6.302   3.620   4.857 -0.1835  1.1727  0.9010
 7633TIP3    H247095   6.231   3.700   4.750  1.1833  1.0388 -0.1262
 7634TIP3   OH247096   5.026   1.040   3.667 -0.6152 -0.1226  0.5402
 7634TIP3    H147097   5.041   1.135   3.667 -1.1363 -0.0306  0.2702
 7634TIP3    H247098   5.108   1.002   3.698 -0.4616  0.4268  0.8221
 7635TIP3   OH247099   1.006   0.025   5.145 -0.6346 -0.3660  0.2802
 7635TIP3    H147100   0.956   0.106   5.148 -0.4432 -0.2661  1.1744
 7635TIP3    H247101   1.097   0.052   5.161 -0.8484 -0.9587  2.9494
 7636TIP3   OH247102   5.357   6.239   3.147 -0.6325  0.3745  0.9025
 7636TIP3    H147103   5.275   6.261   3.191 -1.5562  0.4741 -0.7789
 7636TIP3    H247104   5.358   6.143   3.144 -0.8026  0.3781  0.7238
 7637TIP3   OH247105   6.170   3.312   4.074 -0.2634 -0.2471 -0.6562
 7637TIP3    H147106   6.235   3.350   4.014  0.8845 -0.5735  0.3401
 7637TIP3    H247107   6.127   3.387   4.114  0.6925  0.0141 -0.0817
 7638TIP3   OH247108   3.208   6.227   3.231 -0.2939  0.0694 -0.8670
 7638TIP3    H147109   3.303   6.218   3.225  0.2743  1.8968  2.5740
 7638TIP3    H247110   3.188   6.305   3.180  0.0760 -0.2671 -1.5327
 7639TIP3   OH247111   3.351   5.010   3.025  0.3458  0.0686  0.0589
 7639TIP3    H147112   3.314   4.922   3.014  2.2778 -0.7266 -0.4110
 7639TIP3    H247113   3.286   5.068   2.983  0.1568 -1.3800 -1.7916
 7640TIP3   OH247114   3.027   0.600   3.514  0.4110  0.2842  0.4578
 7640TIP3    H147115   3.096   0.642   3.463  0.4050 -0.9748 -0.6593
 7640TIP3    H247116   2.954   0.661   3.510  0.7124  0.6144 -0.3108
 7641TIP3   OH247117   0.840   0.897   3.917  0.0101 -0.5467 -0.1348
 7641TIP3    H147118   0.769   0.918   3.978  0.0173 -1.0263  0.0380
 7641TIP3    H247119   0.821   0.808   3.888 -1.6189  0.6055 -3.0508
 7642TIP3   OH247120   3.467   0.536   5.255 -0.1635 -0.1999 -0.2010
 7642TIP3    H147121   3.474   0.631   5.245  0.9215 -0.1132  1.0310
 7642TIP3    H247122   3.557   0.505   5.245 -0.3691 -0.9913  0.3080
 7643TIP3   OH247123   4.607   4.613   3.151 -0.2013 -0.3412  0.0751
 7643TIP3    H147124   4.666   4.550   3.192  2.4224  1.7145 -0.2615
 7643TIP3    H247125   4.643   4.699   3.176 -1.7849  1.0097 -1.9583
 7644TIP3   OH247126   5.659   1.300   3.805  0.3498 -0.8242 -0.0790
 7644TIP3    H147127   5.646   1.375   3.863  0.4718 -1.3265  0.6125
 7644TIP3    H247128   5.745   1.265   3.829 -0.0290 -1.6372  0.1550
 7645TIP3   OH247129   4.577   1.326   3.708 -0.5122 -0.4215  0.2724
 7645TIP3    H147130   4.572   1.233   3.731 -0.9397 -0.5172 -0.1919
 7645TIP3    H247131   4.490   1.347   3.673  0.0228 -0.2196 -1.0044
 7646TIP3   OH247132   1.997   2.055   4.476 -0.1858 -0.3210  0.0514
 7646TIP3    H147133   1.926   2.117   4.493 -1.3020 -0.6391 -2.9201
 7646TIP3    H247134   2.077   2.102   4.502 -1.2627  1.0365  1.0394
 7647TIP3   OH247135   1.912   4.354   4.416 -0.6021 -0.0035  0.0983
 7647TIP3    H147136   1.868   4.322   4.337 -1.4526  0.9115  0.1884
 7647TIP3    H247137   1.942   4.441   4.392 -0.5006  0.1126  0.6578
 7648TIP3   OH247138   3.726   6.178   5.756 -0.0835  0.3904 -0.2523
 7648TIP3    H147139   3.791   6.244   5.780 -0.7811  1.7415 -1.8505
 7648TIP3    H247140   3.696   6.142   5.839  0.5229  1.9055  0.6610
 7649TIP3   OH247141   1.451   0.008   3.750 -0.5868 -0.3799  0.2271
 7649TIP3    H147142   1.392  -0.031   3.685 -1.5513  1.1653  0.1094
 7649TIP3    H247143   1.492   0.081   3.704 -0.7991  0.3457  1.1554
 7650TIP3   OH247144   0.409   3.093   4.336  0.1997  0.4111  0.0566
 7650TIP3    H147145   0.502   3.072   4.329  0.6049  1.7191  0.9742
 7650TIP3    H247146   0.367   3.009   4.358  1.5092  0.1997  2.0614
 7651TIP3   OH247147   1.247   5.735   3.919 -0.1968  0.1265  0.2000
 7651TIP3    H147148   1.199   5.808   3.957 -1.6239 -0.5371 -0.2510
 7651TIP3    H247149   1.191   5.658   3.935  1.0808 -0.8189  0.3352
 7652TIP3   OH247150   4.123   1.040   2.751 -0.1602  0.0114 -0.1106
 7652TIP3    H147151   4.085   1.062   2.836  0.8294 -1.5499  0.7577
 7652TIP3    H247152   4.193   0.978   2.770  0.6267  0.2476 -1.9990
 7653TIP3   OH247153   3.870   2.904   3.969 -0.3132  0.2952 -0.4326
 7653TIP3    H147154   3.860   2.936   3.879 -0.7484  0.4638 -0.3288
 7653TIP3    H247155   3.945   2.951   4.004  0.4978 -0.5128 -1.0341
 7654TIP3   OH247156   0.320   1.801   4.191  0.1954 -0.5098 -0.2080
 7654TIP3    H147157   0.377   1.868   4.230 -1.3122  1.3770 -1.0762
 7654TIP3    H247158   0.354   1.790   4.102 -0.1826 -0.1405 -0.3973
 7655TIP3   OH247159   3.462   4.958   2.066  0.2795  0.3196  0.1033
 7655TIP3    H147160   3.384   4.939   2.013  0.8610  1.8045 -1.3685
 7655TIP3    H247161   3.529   4.899   2.032  0.2483  0.1959  0.2532
 7656TIP3   OH247162   4.326   4.521   4.933  0.2646  0.3677  0.0891
 7656TIP3    H147163   4.387   4.595   4.940  0.2746  0.3426  0.2663
 7656TIP3    H247164   4.299   4.504   5.023  0.9098 -0.3903  0.1542
 7657TIP3   OH247165   4.408   3.085   3.730 -0.0593 -0.0022 -0.5555
 7657TIP3    H147166   4.361   3.166   3.712 -0.7646 -0.4328 -0.6719
 7657TIP3    H247167   4.500   3.108   3.718 -0.2803  0.6580 -1.0659
 7658TIP3   OH247168   6.517   6.495   2.487  0.0344  0.4231  0.4496
 7658TIP3    H147169   6.464   6.421   2.456 -2.5925  2.5201 -0.4905
 7658TIP3    H247170   6.491   6.507   2.578  0.0511  0.5185  0.4419
 7659TIP3   OH247171   5.170   0.935   5.477  0.5563 -0.0517  0.0552
 7659TIP3    H147172   5.082   0.951   5.444 -0.3370 -2.2065  1.2043
 7659TIP3    H247173   5.215   1.019   5.469 -1.4450  0.9740 -0.9789
 7660TIP3   OH247174   2.855   6.099   4.318  0.3463 -0.0682 -0.1203
 7660TIP3    H147175   2.860   6.041   4.394 -0.8456  0.1549  0.1474
 7660TIP3    H247176   2.917   6.062   4.255 -0.0036 -1.3293  0.2502
 7661TIP3   OH247177   1.770   4.046   1.715 -0.0875 -0.2358  0.0950
 7661TIP3    H147178   1.860   4.035   1.747  0.0999  0.1895 -0.2728
 7661TIP3    H247179   1.780   4.070   1.623 -0.5805 -0.2242  0.0440
 7662TIP3   OH247180   5.156   5.990   5.537 -0.3386  0.0645  0.1260
 7662TIP3    H147181   5.227   5.933   5.566  0.1957  0.9174  0.5319
 7662TIP3    H247182   5.138   5.962   5.447 -1.4751 -2.0874  0.9470
 7663TIP3   OH247183   2.780   3.867   2.648 -0.2401 -0.4513 -0.2585
 7663TIP3    H147184   2.798   3.960   2.657 -0.1279 -0.5854  1.2775
 7663TIP3    H247185   2.838   3.838   2.578  0.5871  0.4250  0.0376
 7664TIP3   OH247186   5.503   0.098   4.058 -0.2119  0.8554 -0.0712
 7664TIP3    H147187   5.414   0.097   4.095  1.1910  0.4486  3.7332
 7664TIP3    H247188   5.508   0.018   4.005 -1.4978 -0.2282  1.3594
 7665TIP3   OH247189   6.391   5.275   5.064  0.7144  0.5326  0.1029
 7665TIP3    H147190   6.399   5.276   5.160  1.3105  0.2161  0.0588
 7665TIP3    H247191   6.365   5.186   5.043  1.7516  0.2678 -0.1135
 7666TIP3   OH247192   2.922   5.865   3.559  0.2869  0.3082  0.0549
 7666TIP3    H147193   2.844   5.847   3.507  0.1566  1.1792 -0.0720
 7666TIP3    H247194   2.993   5.865   3.495  0.3895 -0.4184  0.1607
 7667TIP3   OH247195   1.967   1.244   4.774 -0.4577 -0.0781  0.3022
 7667TIP3    H147196   1.940   1.257   4.683  0.0371 -2.2060 -0.2041
 7667TIP3    H247197   1.885   1.244   4.823 -1.0421 -1.8766 -0.5856
 7668TIP3   OH247198   4.413   5.080   2.090 -0.1068  0.1194  0.0561
 7668TIP3    H147199   4.330   5.062   2.047 -0.9784  1.4698  1.0966
 7668TIP3    H247200   4.456   5.145   2.034  0.1213 -0.3322 -0.3054
 7669TIP3   OH247201   3.824   3.512   4.854  0.4654 -0.3702  0.4753
 7669TIP3    H147202   3.909   3.481   4.822  0.8612  0.6114  0.5433
 7669TIP3    H247203   3.760   3.467   4.799  1.0710 -0.2991 -0.3082
 7670TIP3   OH247204   4.908   2.039   4.881 -0.2866  0.2373 -0.1496
 7670TIP3    H147205   4.909   2.097   4.957 -0.4425  1.2494 -0.9023
 7670TIP3    H247206   4.907   2.098   4.806  0.1835 -0.7480 -0.9488
 7671TIP3   OH247207   6.294   4.012   4.833 -0.5315  0.0019  0.2594
 7671TIP3    H147208   6.211   3.966   4.826 -0.9929  0.9405 -0.7322
 7671TIP3    H247209   6.343   3.964   4.900 -1.8694 -0.5551  0.8733
 7672TIP3   OH247210   5.798   2.988   4.272  0.3509 -0.1133  0.0161
 7672TIP3    H147211   5.795   3.009   4.366  1.3331 -0.5390  0.1614
 7672TIP3    H247212   5.892   2.990   4.251  0.2430 -1.2617 -0.6609
 7673TIP3   OH247213   4.348   4.585   2.662  0.4181 -0.6610  0.3672
 7673TIP3    H147214   4.261   4.548   2.678 -0.6367  0.8166 -1.5081
 7673TIP3    H247215   4.399   4.513   2.625 -0.4562 -1.1701  0.1352
 7674TIP3   OH247216   0.800   6.107   4.905 -0.2831  0.0966 -0.4924
 7674TIP3    H147217   0.715   6.123   4.865 -0.1733 -1.7458 -1.5535
 7674TIP3    H247218   0.782   6.042   4.974  0.3260 -0.7788 -1.1340
 7675TIP3   OH247219   0.198   5.981   4.654  0.0766 -0.1195  0.0765
 7675TIP3    H147220   0.114   5.978   4.699 -0.3731  1.7274 -0.5198
 7675TIP3    H247221   0.175   5.977   4.561  0.8226 -1.5758 -0.0765
 7676TIP3   OH247222   0.317   4.860   4.072  0.0411 -0.2345  0.1304
 7676TIP3    H147223   0.403   4.859   4.030  0.6307 -1.7010  1.2880
 7676TIP3    H247224   0.297   4.953   4.084  1.2537  0.1333 -0.5607
 7677TIP3   OH247225   3.981   5.557   2.040 -0.2858  0.3765 -0.1882
 7677TIP3    H147226   3.903   5.606   2.012 -0.8944 -0.3565  0.1865
 7677TIP3    H247227   3.966   5.468   2.007  0.3079  0.1846  0.0563
 7678TIP3   OH247228   5.304   0.771   2.762  0.6429  0.0017 -0.4448
 7678TIP3    H147229   5.246   0.740   2.832 -0.2854 -0.3081 -1.3436
 7678TIP3    H247230   5.341   0.691   2.724  0.9962  0.1617 -0.4421
 7679TIP3   OH247231   6.196   4.368   3.543  0.1533 -0.0945  0.0578
 7679TIP3    H147232   6.142   4.350   3.466 -0.9012  2.6655  0.0105
 7679TIP3    H247233   6.133   4.387   3.612  1.0707  0.2706  0.8130
 7680TIP3   OH247234   5.821   4.707   2.999  0.1393 -0.2623 -0.0174
 7680TIP3    H147235   5.806   4.753   3.081 -1.7398  2.7934 -1.8587
 7680TIP3    H247236   5.868   4.771   2.945  0.2199 -1.6859 -1.7003
 7681TIP3   OH247237   4.876   3.399   2.400  0.5685 -0.0241 -0.2992
 7681TIP3    H147238   4.808   3.440   2.454 -0.0844  1.7002 -2.2789
 7681TIP3    H247239   4.931   3.472   2.371  2.2665 -1.1875 -0.1146
 7682TIP3   OH247240   1.397   0.757   3.820  0.1329 -0.5360 -0.1349
 7682TIP3    H147241   1.368   0.846   3.799 -0.1714 -0.5808  0.0941
 7682TIP3    H247242   1.465   0.739   3.755  1.3920  0.4916  0.8486
 7683TIP3   OH247243   4.583   4.696   4.257  0.2645 -0.1552  0.2797
 7683TIP3    H147244   4.677   4.678   4.244  0.2921  0.4414 -0.4223
 7683TIP3    H247245   4.577   4.729   4.346  0.7588  0.0497  0.2417
 7684TIP3   OH247246   4.168   4.707   1.983  0.1364 -0.2828 -0.0707
 7684TIP3    H147247   4.256   4.698   1.949  0.4630  1.5191  0.2436
 7684TIP3    H247248   4.168   4.653   2.063  0.7749 -0.6912 -0.3382
 7685TIP3   OH247249   3.468   5.455   5.134 -0.2221  0.3863 -0.4041
 7685TIP3    H147250   3.551   5.412   5.157 -0.5214  0.5444  1.0771
 7685TIP3    H247251   3.401   5.391   5.156 -0.5011  0.0215 -2.1869
 7686TIP3   OH247252   6.059   1.426   3.107 -0.4032 -0.0603 -1.0119
 7686TIP3    H147253   6.098   1.510   3.082  0.2273 -0.1940 -0.4921
 7686TIP3    H247254   5.968   1.448   3.128 -0.2457  0.4973 -0.8826
 7687TIP3   OH247255   0.655   2.956   4.389  0.7584  0.3127  0.5825
 7687TIP3    H147256   0.746   2.940   4.365  0.5103 -0.5306  0.1438
 7687TIP3    H247257   0.658   2.978   4.482  1.3439 -0.5028  0.7740
 7688TIP3   OH247258   6.129   4.938   3.423 -0.4330 -0.0350  0.1303
 7688TIP3    H147259   6.118   4.857   3.374 -0.9736  2.2759 -4.0485
 7688TIP3    H247260   6.044   4.950   3.467 -1.0804 -0.7673 -0.8667
 7689TIP3   OH247261   0.753   3.376   4.892  0.1467  0.4201 -0.1035
 7689TIP3    H147262   0.684   3.359   4.956 -0.2068  1.9600 -0.0346
 7689TIP3    H247263   0.742   3.308   4.826 -0.0417 -0.6653  0.9989
 7690TIP3   OH247264   5.133   5.058   5.384  0.1433 -0.4545  0.4160
 7690TIP3    H147265   5.070   5.096   5.446  0.9945  0.9996  0.4307
 7690TIP3    H247266   5.085   4.986   5.343 -0.6829 -0.9985  2.2227
 7691TIP3   OH247267   0.179   5.174   5.236  0.0907  0.0231 -0.1248
 7691TIP3    H147268   0.104   5.114   5.233 -0.1145  0.2997 -0.5963
 7691TIP3    H247269   0.169   5.229   5.159  0.1271  0.8601  0.4574
 7692TIP3   OH247270   4.586   3.523   4.164 -0.1228  0.1894 -0.5943
 7692TIP3    H147271   4.572   3.444   4.112 -1.6367 -0.3025  0.5119
 7692TIP3    H247272   4.640   3.494   4.238 -1.7865 -0.1431  0.5300
 7693TIP3   OH247273   5.842   1.185  10.729  0.4461  0.3181 -0.0702
 7693TIP3    H147274   5.830   1.231  10.646 -1.1809 -1.7146 -1.0456
 7693TIP3    H247275   5.778   1.114  10.727  2.6552 -1.9094  1.4072
 7694TIP3   OH247276   4.488   0.156   3.629 -0.1924 -0.0480  0.0320
 7694TIP3    H147277   4.484   0.061   3.643 -0.3040 -0.0907 -0.2878
 7694TIP3    H247278   4.580   0.173   3.610 -0.0107  0.0292  0.9302
 7695TIP3   OH247279   0.849   4.820   2.072  0.1562 -0.5733 -0.1648
 7695TIP3    H147280   0.875   4.728   2.073  2.1845 -0.0467 -0.0024
 7695TIP3    H247281   0.864   4.848   1.981  1.1587  0.0056  0.1684
 7696TIP3   OH247282   5.067   5.610   4.748 -0.0126  0.1159  0.5641
 7696TIP3    H147283   5.039   5.590   4.659  0.1163  0.5854  0.4137
 7696TIP3    H247284   5.027   5.695   4.767  0.7876  0.5028  0.5709
 7697TIP3   OH247285   6.175   5.358   4.650  0.0362 -0.3704  0.6934
 7697TIP3    H147286   6.213   5.271   4.662  3.0373  0.9435  1.5674
 7697TIP3    H247287   6.199   5.383   4.562  0.1887  0.0387  0.8510
 7698TIP3   OH247288   0.892   0.969   2.526 -0.3704  0.7747  0.2912
 7698TIP3    H147289   0.830   0.912   2.480 -1.0603  1.2248  0.6538
 7698TIP3    H247290   0.967   0.975   2.467 -0.6232  0.1307 -0.1035
 7699TIP3   OH247291   3.310   4.050   3.990 -0.1610 -0.1012  0.5857
 7699TIP3    H147292   3.396   4.030   4.027 -0.8252 -1.5253  1.4644
 7699TIP3    H247293   3.267   4.104   4.057 -0.1628  0.0986  0.4223
 7700TIP3   OH247294   5.186   5.435   4.351 -0.1434 -0.6142 -0.1704
 7700TIP3    H147295   5.110   5.393   4.311 -0.4490 -0.8301  0.6085
 7700TIP3    H247296   5.148   5.499   4.412  0.2725 -1.3113  0.8518
 7701TIP3   OH247297   5.994   3.561   2.918  0.3809  0.5367  0.1784
 7701TIP3    H147298   6.061   3.503   2.953 -0.5807 -1.3367 -0.9166
 7701TIP3    H247299   5.956   3.604   2.995 -0.1182 -1.7164  1.2804
 7702TIP3   OH247300   3.269   5.642   2.631  0.1769 -0.3587  0.4402
 7702TIP3    H147301   3.296   5.601   2.713  1.1747  0.5729  0.5918
 7702TIP3    H247302   3.344   5.632   2.573  0.5300  1.3970  0.5445
 7703TIP3   OH247303   4.097   6.602   2.896  0.0769 -0.2111 -0.0350
 7703TIP3    H147304   4.134   6.564   2.816  0.5760  1.6857 -0.7678
 7703TIP3    H247305   4.130   6.692   2.897 -2.2307  0.7008  0.7829
 7704TIP3   OH247306   4.911   0.607   3.848  0.1087  0.3461  0.1122
 7704TIP3    H147307   4.860   0.531   3.875  0.5472  0.7116  2.1095
 7704TIP3    H247308   4.897   0.613   3.754 -0.6129 -1.6887  0.0508
 7705TIP3   OH247309   0.212   4.033   4.422 -0.0455  0.0187 -0.6065
 7705TIP3    H147310   0.189   4.118   4.385  0.2288  0.9462  1.2681
 7705TIP3    H247311   0.166   4.030   4.505  0.6797 -1.2862 -0.2307
 7706TIP3   OH247312   4.690   3.149   4.721 -0.1512  0.0344 -0.1007
 7706TIP3    H147313   4.734   3.073   4.759  0.4046  0.7837  0.8062
 7706TIP3    H247314   4.633   3.113   4.653 -0.4212 -1.2546  0.7863
 7707TIP3   OH247315   2.621   1.049   2.416  0.6668  0.4316  0.0695
 7707TIP3    H147316   2.674   0.994   2.473  0.6406  0.6094  0.2677
 7707TIP3    H247317   2.559   0.989   2.374  3.1281 -0.3590 -2.7137
 7708TIP3   OH247318   4.882   2.641   2.644 -0.1973  0.0778  0.5528
 7708TIP3    H147319   4.914   2.643   2.553 -2.9110  1.8107 -0.4812
 7708TIP3    H247320   4.881   2.732   2.671 -0.7092 -0.2964  1.8430
 7709TIP3   OH247321   0.454   1.071   2.766  0.1719  0.0504 -0.1298
 7709TIP3    H147322   0.458   1.167   2.770  1.3306 -0.0046  2.2780
 7709TIP3    H247323   0.391   1.052   2.697 -1.3356  2.5776  0.4172
 7710TIP3   OH247324   0.976   1.137   4.487  0.4996 -0.6834  0.1763
 7710TIP3    H147325   0.912   1.080   4.444  0.4036  0.6320 -1.5058
 7710TIP3    H247326   1.061   1.108   4.452  0.3665  0.8420 -1.5335
 7711TIP3   OH247327   3.008   2.873   3.751  0.1442  0.3442  0.5043
 7711TIP3    H147328   2.962   2.790   3.736 -0.7488  1.1558 -1.6143
 7711TIP3    H247329   3.089   2.848   3.795  0.2324 -1.7363 -0.7417
 7712TIP3   OH247330   0.161   5.603   3.666  0.1038  0.1821  0.0988
 7712TIP3    H147331   0.067   5.590   3.656  0.1148 -0.4060  0.7077
 7712TIP3    H247332   0.170   5.665   3.738  0.2252 -1.4756  1.5673
 7713TIP3   OH247333   1.553   6.036   4.155  0.1725 -0.1360  0.0045
 7713TIP3    H147334   1.644   6.038   4.125  0.5886 -0.3701  1.2117
 7713TIP3    H247335   1.508   5.982   4.090  1.0667 -0.7065 -0.1666
 7714TIP3   OH247336   0.167   6.542   3.334 -0.7803 -0.2448 -0.4239
 7714TIP3    H147337   0.085   6.580   3.367 -0.2381  0.6284 -0.0386
 7714TIP3    H247338   0.225   6.618   3.323 -0.9351 -0.4621 -3.4971
 7715TIP3   OH247339   0.537   5.138   4.679 -0.2121  0.2010 -0.5109
 7715TIP3    H147340   0.450   5.105   4.702  0.0877 -0.6711 -0.5701
 7715TIP3    H247341   0.520   5.210   4.618 -0.9044  0.4083 -0.0803
 7716TIP3   OH247342   1.445   4.311   4.132 -0.5007 -0.4687 -0.3450
 7716TIP3    H147343   1.444   4.287   4.225  0.9149  1.7015  0.2977
 7716TIP3    H247344   1.479   4.233   4.088 -0.9189 -1.4395  0.9586
 7717TIP3   OH247345   2.708   0.311   2.532  0.3118  0.6958  0.2607
 7717TIP3    H147346   2.701   0.404   2.509  1.1441  0.6259 -0.3268
 7717TIP3    H247347   2.774   0.277   2.472 -1.3484 -0.7105 -0.8886
 7718TIP3   OH247348   3.292   2.046   2.708 -0.3930 -0.0042  0.0686
 7718TIP3    H147349   3.251   2.094   2.636  0.8441  3.3506  1.3966
 7718TIP3    H247350   3.377   2.018   2.674 -0.4474  0.2036 -0.2339
 7719TIP3   OH247351   2.050   1.247   3.772 -0.3089 -0.2346  0.2969
 7719TIP3    H147352   2.143   1.257   3.753 -0.2966  0.8853  0.8608
 7719TIP3    H247353   2.016   1.337   3.776 -1.0614 -0.5433  1.7314
 7720TIP3   OH247354   5.696   5.277   3.564 -0.4748  0.2067 -0.1337
 7720TIP3    H147355   5.690   5.258   3.471 -0.0833 -0.5128 -0.0244
 7720TIP3    H247356   5.789   5.291   3.580 -0.2459 -1.7583  0.5069
 7721TIP3   OH247357   1.738   1.804   4.516  0.1068  0.2614 -0.1941
 7721TIP3    H147358   1.772   1.813   4.605  0.5438 -0.6067 -0.2585
 7721TIP3    H247359   1.816   1.788   4.462 -0.3259 -1.4937 -0.3817
 7722TIP3   OH247360   5.031   2.379   2.087 -0.1355 -0.2796 -0.0803
 7722TIP3    H147361   5.027   2.338   2.000  0.4273 -1.5793  0.4757
 7722TIP3    H247362   5.103   2.334   2.131 -0.3840  0.3954  1.0497
 7723TIP3   OH247363   5.431   3.112   3.872 -0.2116 -0.0488  0.0629
 7723TIP3    H147364   5.433   3.206   3.854  1.2285  0.1506  1.0388
 7723TIP3    H247365   5.514   3.079   3.838 -0.4674 -0.8752  0.2035
 7724TIP3   OH247366   3.524   5.680   4.765  0.2200 -0.0434  0.6961
 7724TIP3    H147367   3.520   5.728   4.847 -0.1007 -0.8639  1.1701
 7724TIP3    H247368   3.471   5.732   4.704 -0.5989 -0.0962  1.3544
 7725TIP3   OH247369   3.294   4.909   5.142 -0.4541  0.7800  0.1507
 7725TIP3    H147370   3.273   4.912   5.049 -1.4743  1.9226  0.3941
 7725TIP3    H247371   3.220   4.864   5.182 -0.0094  0.2758  0.4232
 7726TIP3   OH247372   2.465   2.033   2.040 -0.5713  0.1775  0.0650
 7726TIP3    H147373   2.482   2.018   1.947  0.6545 -1.5051  0.5167
 7726TIP3    H247374   2.369   2.035   2.047 -0.7274 -1.6168 -0.9888
 7727TIP3   OH247375   6.609   2.681   5.080  0.0104  0.0416 -0.1195
 7727TIP3    H147376   6.541   2.650   5.020  0.3764  0.4789 -0.7794
 7727TIP3    H247377   6.584   2.647   5.165 -0.7134 -0.3010 -0.4629
 7728TIP3   OH247378   5.936   5.798   2.939 -0.0160  0.1096 -0.4730
 7728TIP3    H147379   6.020   5.819   2.979 -1.3702  0.8822  2.2529
 7728TIP3    H247380   5.880   5.872   2.962 -2.7763 -2.5291  2.2998
 7729TIP3   OH247381   0.254   2.992   3.438 -0.0061  0.1853 -0.6443
 7729TIP3    H147382   0.231   3.024   3.525 -0.1086 -0.9125 -0.2528
 7729TIP3    H247383   0.328   3.046   3.410  0.5103  0.0530  0.4394
 7730TIP3   OH247384   4.101   2.209   5.071  0.4777  0.2877 -0.0240
 7730TIP3    H147385   4.085   2.295   5.111 -0.5419  0.3068 -0.4431
 7730TIP3    H247386   4.086   2.146   5.142 -1.4253  0.3149 -0.3413
 7731TIP3   OH247387   4.730   0.459   3.000 -0.3740 -0.5265  0.0450
 7731TIP3    H147388   4.726   0.372   2.961 -2.4658  0.2171 -1.5462
 7731TIP3    H247389   4.697   0.447   3.089 -0.6807 -1.3368 -0.1720
 7732TIP3   OH247390   5.093   4.469   3.994  0.3074 -0.2882 -0.1456
 7732TIP3    H147391   5.032   4.403   3.962  2.3179 -1.7581 -1.1553
 7732TIP3    H247392   5.142   4.497   3.916  0.5198  1.3268  0.5150
 7733TIP3   OH247393   3.637   6.411   5.079 -0.7466 -0.1023  0.5162
 7733TIP3    H147394   3.701   6.344   5.105 -1.0379  0.1750  2.0637
 7733TIP3    H247395   3.574   6.364   5.025 -0.0230 -0.6940  0.1614
 7734TIP3   OH247396   4.739   1.824   2.561  0.3697  0.3687  0.0617
 7734TIP3    H147397   4.757   1.875   2.640  1.0672 -0.5382  0.4960
 7734TIP3    H247398   4.676   1.758   2.590 -0.0313  0.5625 -0.3520
 7735TIP3   OH247399   4.467   5.882   5.327  0.2462  0.3480 -0.3894
 7735TIP3    H147400   4.475   5.791   5.357 -0.3568  0.3426 -0.2284
 7735TIP3    H247401   4.537   5.929   5.372  0.2075  0.0693 -0.0351
 7736TIP3   OH247402   1.655   3.381   1.920 -0.3977 -0.7694 -0.1610
 7736TIP3    H147403   1.582   3.325   1.944 -0.3167 -0.9166 -0.2553
 7736TIP3    H247404   1.629   3.469   1.949  1.1358 -1.4110  3.6766
 7737TIP3   OH247405   6.763   6.045   2.444  0.3503  0.7286 -0.5404
 7737TIP3    H147406   6.712   5.965   2.457  1.7164 -0.0103  0.5557
 7737TIP3    H247407   6.791   6.070   2.533  1.4690  1.3782 -1.0541
 7738TIP3   OH247408   3.780   5.977   2.177  0.4652 -0.0879  0.6438
 7738TIP3    H147409   3.840   6.047   2.150 -0.5360  0.0314 -1.4591
 7738TIP3    H247410   3.703   6.023   2.211  0.4607 -0.2008  0.7871
 7739TIP3   OH247411   0.066   0.571   3.505 -0.1269  0.1303  0.1438
 7739TIP3    H147412   0.096   0.655   3.470  1.5376 -0.5985 -0.2782
 7739TIP3    H247413  -0.026   0.567   3.480  0.6727  0.0895 -3.4467
 7740TIP3   OH247414   4.002   1.186   3.943  0.1133  0.4409  0.0731
 7740TIP3    H147415   4.014   1.243   3.867  1.7789 -1.2944 -1.0591
 7740TIP3    H247416   3.946   1.116   3.911  2.4710 -1.4182 -0.3084
 7741TIP3   OH247417   2.423   4.660   5.196 -0.1742  0.3932  0.0008
 7741TIP3    H147418   2.426   4.567   5.220 -1.5416  0.6113  1.1433
 7741TIP3    H247419   2.515   4.688   5.200  0.3038 -0.9628 -0.6815
 7742TIP3   OH247420   5.369   3.589   3.052  0.1073 -0.6036  0.1746
 7742TIP3    H147421   5.284   3.581   3.008 -0.8237  0.7025  1.6448
 7742TIP3    H247422   5.389   3.682   3.049  1.5770 -0.9093 -0.2549
 7743TIP3   OH247423   3.124   5.444   1.911 -0.0575  0.1814 -0.5542
 7743TIP3    H147424   3.102   5.523   1.960 -0.9269 -0.6563  0.4654
 7743TIP3    H247425   3.039   5.408   1.885  0.0607 -2.1426  1.8579
 7744TIP3   OH247426   0.224   0.431   2.779  0.2961 -0.0638  0.6750
 7744TIP3    H147427   0.255   0.521   2.784  0.8882 -0.2279  0.1549
 7744TIP3    H247428   0.205   0.406   2.869 -0.5778  0.8183  0.7450
 7745TIP3   OH247429   6.510   5.546   2.474  0.0385  0.1443  0.4011
 7745TIP3    H147430   6.507   5.502   2.558  0.7189 -0.7866 -0.0437
 7745TIP3    H247431   6.520   5.476   2.410 -3.2845  0.5672 -0.7690
 7746TIP3   OH247432   0.144   1.394   3.938 -0.1268  1.2056 -0.0921
 7746TIP3    H147433   0.219   1.453   3.942  0.4225  0.5388 -0.4632
 7746TIP3    H247434   0.098   1.410   4.021  0.8031  1.1260  0.4601
 7747TIP3   OH247435   0.613   3.062   3.544 -0.0654  0.0798  0.4917
 7747TIP3    H147436   0.602   3.076   3.638  1.8909 -0.1018  0.7703
 7747TIP3    H247437   0.700   3.095   3.524  0.6874 -2.4353 -0.7249
 7748TIP3   OH247438   2.289   2.997   3.285 -0.7451 -0.0243  0.0195
 7748TIP3    H147439   2.373   3.020   3.246 -0.2129  0.3335  1.3097
 7748TIP3    H247440   2.251   2.933   3.225  0.3090  0.0434 -0.7430
 7749TIP3   OH247441   1.733   0.895   3.245 -0.3407 -0.3505  0.7715
 7749TIP3    H147442   1.705   0.964   3.306  0.2557 -0.2327  0.9158
 7749TIP3    H247443   1.689   0.917   3.162 -1.0249 -0.4196  1.1049
 7750TIP3   OH247444   2.183   5.208   3.439  0.2079  0.1122  0.5366
 7750TIP3    H147445   2.209   5.257   3.517  1.6422 -0.5673  0.5142
 7750TIP3    H247446   2.253   5.224   3.376  0.3664 -1.3893  0.2985
 7751TIP3   OH247447   5.332   0.614   5.108  0.0392 -0.1235  0.1738
 7751TIP3    H147448   5.378   0.640   5.028 -0.1561 -1.0532 -0.2586
 7751TIP3    H247449   5.344   0.519   5.112  2.1597  0.1557  2.5869
 7752TIP3   OH247450   3.968   1.575   2.746 -0.4519  0.3292  0.3584
 7752TIP3    H147451   3.963   1.664   2.711  0.3256  0.1088 -0.3667
 7752TIP3    H247452   3.991   1.587   2.838 -0.7388  0.8852  0.3664
 7753TIP3   OH247453   5.750   2.661   2.145 -0.2733  0.2122 -0.0481
 7753TIP3    H147454   5.756   2.578   2.192  0.8468 -0.2237 -0.9021
 7753TIP3    H247455   5.657   2.669   2.122 -0.4801 -0.5461  0.4997
 7754TIP3   OH247456   2.518   4.363   3.766 -0.7431  0.5009  0.0708
 7754TIP3    H147457   2.531   4.442   3.819  0.7690 -0.2050  0.8003
 7754TIP3    H247458   2.460   4.308   3.818 -0.9796  0.7138  0.0298
 7755TIP3   OH247459   3.936   2.129   2.597  0.0783  0.2771 -0.2673
 7755TIP3    H147460   3.841   2.143   2.593  0.2823  2.7987  1.6093
 7755TIP3    H247461   3.970   2.171   2.518 -0.2993 -0.0410 -0.6038
 7756TIP3   OH247462   1.052   6.562   3.625 -0.2305 -0.3820  0.3108
 7756TIP3    H147463   0.966   6.533   3.655  0.3816 -0.8565  1.6608
 7756TIP3    H247464   1.039   6.586   3.533 -2.3073  1.6947  1.0673
 7757TIP3   OH247465   5.405   6.257   6.073  0.3863  0.1189  0.0742
 7757TIP3    H147466   5.405   6.161   6.068 -0.2672  0.1767 -2.8145
 7757TIP3    H247467   5.497   6.281   6.061  0.2917 -0.1530 -1.4360
 7758TIP3   OH247468   0.083   0.074   2.562 -0.2944 -0.1463  0.0295
 7758TIP3    H147469   0.048   0.046   2.646 -1.9520  1.0870 -0.1912
 7758TIP3    H247470   0.104  -0.007   2.516 -1.2309 -0.8937  0.8829
 7759TIP3   OH247471   1.206   4.163   4.291 -0.4248  0.2331 -0.3758
 7759TIP3    H147472   1.111   4.154   4.297 -0.3988  0.0840 -0.1779
 7759TIP3    H247473   1.238   4.139   4.378 -0.1841 -0.0195 -0.5292
 7760TIP3   OH247474   1.090   3.967   3.989  0.3979  0.0684 -0.5100
 7760TIP3    H147475   1.113   3.986   3.898  0.0398 -1.6207 -1.0016
 7760TIP3    H247476   1.094   4.051   4.034 -0.8515  1.1860 -2.4019
 7761TIP3   OH247477   6.473   1.029   2.878 -0.0170 -0.3984  0.6067
 7761TIP3    H147478   6.435   1.064   2.959  1.3139 -1.4820  1.7354
 7761TIP3    H247479   6.398   1.022   2.819 -1.1348 -0.1287  1.9252
 7762TIP3   OH247480   4.358   4.240   4.581  0.3295  0.1649 -0.3298
 7762TIP3    H147481   4.421   4.210   4.646  1.7469 -0.4742 -1.9069
 7762TIP3    H247482   4.372   4.181   4.506  0.4594  2.3026 -2.0803
 7763TIP3   OH247483   4.723   3.251   2.956  0.7252  0.4192 -0.0502
 7763TIP3    H147484   4.692   3.284   2.872  1.8999  0.0229 -0.6648
 7763TIP3    H247485   4.809   3.291   2.967  0.7820  0.0937  0.7341
 7764TIP3   OH247486   5.268   4.703   4.246 -0.6017 -0.0441  0.2409
 7764TIP3    H147487   5.265   4.610   4.268 -0.3233 -0.2372 -0.4992
 7764TIP3    H247488   5.273   4.748   4.330  0.5357 -0.7497  0.5669
 7765TIP3   OH247489   6.699   5.399   5.012  0.4164 -0.4741  0.3275
 7765TIP3    H147490   6.615   5.355   5.000  0.6873 -0.8549 -0.2132
 7765TIP3    H247491   6.682   5.463   5.081 -0.5607  0.0934 -0.4093
 7766TIP3   OH247492   0.659   4.160   3.427 -0.4517 -0.0387  0.2939
 7766TIP3    H147493   0.646   4.131   3.517 -0.9284 -0.2594  0.1520
 7766TIP3    H247494   0.747   4.128   3.405 -0.4990 -0.3424  0.5369
 7767TIP3   OH247495   2.688   6.561   4.439 -0.1203 -0.3112  0.0355
 7767TIP3    H147496   2.688   6.555   4.343 -0.1860  1.6919 -0.1416
 7767TIP3    H247497   2.742   6.488   4.468 -0.9193 -1.5540 -1.4639
 7768TIP3   OH247498   5.018   2.727   4.793 -0.0999 -0.3510  0.2905
 7768TIP3    H147499   5.045   2.773   4.873 -0.8288  0.6412 -0.0267
 7768TIP3    H247500   5.099   2.685   4.762  0.2606 -0.5085  1.3745
 7769TIP3   OH247501   0.232   5.496   4.688 -0.1339  0.1127  0.2707
 7769TIP3    H147502   0.167   5.545   4.737  0.5202  1.2518  0.0477
 7769TIP3    H247503   0.311   5.500   4.742  0.5592  1.2832 -0.7862
 7770TIP3   OH247504   2.076   5.724   3.807 -0.5533 -0.4694 -0.3891
 7770TIP3    H147505   2.079   5.734   3.902  1.3041  0.7895 -0.5117
 7770TIP3    H247506   1.984   5.732   3.784 -1.0084 -0.5777  1.2832
 7771TIP3   OH247507   6.672   6.001   3.515 -0.4403 -0.1869 -0.4267
 7771TIP3    H147508   6.705   6.084   3.482 -0.3395 -0.7716 -1.8433
 7771TIP3    H247509   6.585   5.992   3.476 -0.7481 -0.4284  0.2858
 7772TIP3   OH247510   5.806   2.413   2.870  0.2797 -0.3119  0.1603
 7772TIP3    H147511   5.888   2.426   2.916  0.3290  0.4566 -0.1235
 7772TIP3    H247512   5.821   2.450   2.783 -0.7532  0.9977  0.5022
 7773TIP3   OH247513   2.637   4.577   2.050 -0.2156  0.0482  0.5412
 7773TIP3    H147514   2.584   4.651   2.018  0.9653  0.5832 -0.2298
 7773TIP3    H247515   2.682   4.611   2.127 -0.5353 -0.2344  0.8598
 7774TIP3   OH247516   4.633   5.491   3.346 -0.2906  0.0956 -0.0553
 7774TIP3    H147517   4.604   5.580   3.367 -1.8474 -0.6435  1.1285
 7774TIP3    H247518   4.599   5.437   3.418  1.1295 -1.3850 -0.4304
 7775TIP3   OH247519   5.798   5.644   4.134 -0.3664 -0.1502  0.1387
 7775TIP3    H147520   5.805   5.711   4.202  2.1533 -0.6852  0.5219
 7775TIP3    H247521   5.888   5.616   4.119 -1.2168 -2.6121 -0.8726
 7776TIP3   OH247522   1.024   3.258   4.087  0.4689 -0.4965 -0.1002
 7776TIP3    H147523   1.033   3.165   4.069 -0.8174 -0.7806  0.6196
 7776TIP3    H247524   0.977   3.293   4.011 -0.5386 -0.7643  0.3844
 7777TIP3   OH247525   4.303   2.173   4.901  0.7571  0.3556 -0.9851
 7777TIP3    H147526   4.310   2.078   4.890  0.9276  0.5271 -2.5409
 7777TIP3    H247527   4.218   2.185   4.945 -0.7218 -0.3909 -3.4296
 7778TIP3   OH247528   2.203   1.806   3.384 -0.1429 -0.1398 -0.1691
 7778TIP3    H147529   2.249   1.787   3.303 -1.2875  0.1904 -0.9257
 7778TIP3    H247530   2.111   1.784   3.366 -0.7804  1.8548  0.3369
 7779TIP3   OH247531   2.606   2.214   2.338 -0.0031  0.1866  0.3607
 7779TIP3    H147532   2.601   2.273   2.263 -1.6880 -0.8576 -0.4101
 7779TIP3    H247533   2.672   2.149   2.313  0.6716  0.7956  0.5238
 7780TIP3   OH247534   6.335   5.661   5.267  0.9111  0.3503 -0.3677
 7780TIP3    H147535   6.251   5.622   5.243  0.4440  1.6380 -0.9122
 7780TIP3    H247536   6.317   5.711   5.347  0.8519  1.5619 -1.1024
 7781TIP3   OH247537   3.768   0.313   4.641 -0.0736  0.4893 -0.4598
 7781TIP3    H147538   3.816   0.385   4.600  0.9258  0.7740  1.0984
 7781TIP3    H247539   3.693   0.297   4.583  0.0469  2.3355 -1.1951
 7782TIP3   OH247540   1.110   0.862   3.249 -0.4127  0.0163  0.2194
 7782TIP3    H147541   1.065   0.885   3.168  0.3271 -1.7976 -0.7710
 7782TIP3    H247542   1.190   0.818   3.220 -1.2916 -2.9733  1.8460
 7783TIP3   OH247543   4.779   2.888   3.716 -0.4228  0.5206 -0.6492
 7783TIP3    H147544   4.803   2.867   3.807  0.5156 -0.4510 -1.0953
 7783TIP3    H247545   4.718   2.819   3.691 -2.6470  2.1604 -0.0029
 7784TIP3   OH247546   6.352   1.347   3.033  0.1506  0.0084 -0.2282
 7784TIP3    H147547   6.430   1.295   3.018 -0.0264 -0.0842 -0.8877
 7784TIP3    H247548   6.291   1.288   3.078  0.0268 -0.2963 -0.7852
 7785TIP3   OH247549   4.997   5.234   4.877 -0.0032 -0.0342 -0.0949
 7785TIP3    H147550   5.001   5.161   4.815  1.6360  0.8029 -1.0518
 7785TIP3    H247551   4.988   5.193   4.963 -0.5103 -1.2932 -0.7363
 7786TIP3   OH247552   2.370   3.868   2.878 -0.2376 -0.1368  0.0330
 7786TIP3    H147553   2.432   3.920   2.929 -0.7456 -1.1841  1.8148
 7786TIP3    H247554   2.399   3.878   2.787  1.6755  0.5357  0.6703
 7787TIP3   OH247555   4.251   0.309   4.360 -0.6215  0.7587  0.4371
 7787TIP3    H147556   4.230   0.296   4.453 -1.1566  0.3144  0.2562
 7787TIP3    H247557   4.342   0.280   4.352 -0.3889  1.3228  0.9307
 7788TIP3   OH247558   6.421   3.073   3.439 -0.0804  0.0754 -0.3331
 7788TIP3    H147559   6.432   2.983   3.410 -0.8290 -0.3298  0.6065
 7788TIP3    H247560   6.341   3.103   3.396 -0.5439 -0.1447  0.3537
 7789TIP3   OH247561   4.374   6.283   3.042  0.0661  0.3293 -0.4292
 7789TIP3    H147562   4.319   6.224   2.991 -0.7353 -0.4735  1.2799
 7789TIP3    H247563   4.313   6.331   3.098  1.0360 -0.4234  1.3609
 7790TIP3   OH247564   4.807   0.195   4.412 -0.4517 -0.2883  0.4542
 7790TIP3    H147565   4.841   0.126   4.354 -2.0034 -0.4703 -0.3040
 7790TIP3    H247566   4.876   0.208   4.477  1.3986 -0.0414 -1.4371
 7791TIP3   OH247567   4.570   5.492   2.113  0.0546  0.0979 -0.0784
 7791TIP3    H147568   4.516   5.558   2.155  1.0853  0.1797  1.1694
 7791TIP3    H247569   4.600   5.436   2.185  1.0507 -0.3627 -0.8263
 7792TIP3   OH247570   3.585   3.482   3.357 -0.4044  0.3020  0.2668
 7792TIP3    H147571   3.587   3.524   3.271 -0.8497  2.1093  1.0834
 7792TIP3    H247572   3.499   3.506   3.393  0.1503  0.3696  1.5799
 7793TIP3   OH247573   1.720   4.377   1.819 -0.5036 -0.4507 -0.4440
 7793TIP3    H147574   1.777   4.454   1.816  0.6293 -1.2940 -1.5679
 7793TIP3    H247575   1.638   4.409   1.858 -0.1293  1.3552 -1.0561
 7794TIP3   OH247576   6.562   0.019   4.916 -0.1843 -0.5513  0.0068
 7794TIP3    H147577   6.598   0.089   4.862  1.3815 -2.0660 -1.0137
 7794TIP3    H247578   6.623   0.011   4.989  0.7282 -2.0341 -0.8645
 7795TIP3   OH247579   5.687   3.046   3.823  0.2172 -0.0456  0.4842
 7795TIP3    H147580   5.711   2.967   3.774 -1.1254  0.6293 -1.3599
 7795TIP3    H247581   5.770   3.079   3.857  1.2275 -0.6402 -1.2525
 7796TIP3   OH247582   2.489   3.265   1.747  0.0494  0.2606 -0.0273
 7796TIP3    H147583   2.556   3.302   1.689  0.7868 -2.2155 -0.8773
 7796TIP3    H247584   2.466   3.337   1.805  1.8604  1.8360 -1.1274
 7797TIP3   OH247585   6.378   6.089   3.502  0.1290 -0.4999 -0.2366
 7797TIP3    H147586   6.331   6.152   3.448  2.2428  0.0222 -1.5484
 7797TIP3    H247587   6.345   6.004   3.473 -1.5867 -0.1277  0.4575
 7798TIP3   OH247588   1.450   2.620   5.391  0.2745  0.0599 -0.3282
 7798TIP3    H147589   1.465   2.701   5.342 -1.8320  0.2452 -0.7476
 7798TIP3    H247590   1.359   2.627   5.421  0.1071 -2.0789 -0.2316
 7799TIP3   OH247591   4.195   0.717   3.542  0.3968  0.2868 -0.5458
 7799TIP3    H147592   4.102   0.724   3.519  0.3822 -0.0122 -0.5824
 7799TIP3    H247593   4.199   0.643   3.602  0.1446  2.1609  1.9770
 7800TIP3   OH247594   2.351   0.447   1.756 -0.4262  0.0152 -0.1289
 7800TIP3    H147595   2.443   0.435   1.729 -0.7898 -0.1845 -1.3437
 7800TIP3    H247596   2.336   0.377   1.820  0.6642  0.9307  1.1878
 7801TIP3   OH247597   2.613   2.855   3.166 -0.3011 -0.4925 -0.0787
 7801TIP3    H147598   2.675   2.927   3.172  0.4322 -1.1407  0.1434
 7801TIP3    H247599   2.577   2.862   3.077 -0.3791  0.2563  0.0063
 7802TIP3   OH247600   1.289   5.709   2.174 -0.4045  0.1139 -0.2594
 7802TIP3    H147601   1.279   5.705   2.269 -1.0005 -0.9675 -0.3639
 7802TIP3    H247602   1.314   5.621   2.148  0.6397  0.6111 -1.0221
 7803TIP3   OH247603   1.279   4.688   3.610 -0.0992  0.0483  0.4077
 7803TIP3    H147604   1.238   4.708   3.526  0.5220 -0.9576 -0.1579
 7803TIP3    H247605   1.358   4.742   3.612 -1.0183  1.4174  1.1620
 7804TIP3   OH247606   5.750   5.901   5.311 -0.5254 -0.3061 -0.3454
 7804TIP3    H147607   5.746   5.976   5.253  0.3753 -0.3457 -0.4747
 7804TIP3    H247608   5.823   5.849   5.278 -0.5157 -0.7405  0.3368
 7805TIP3   OH247609   3.350   4.593   2.795  0.0262  0.6512  0.0099
 7805TIP3    H147610   3.318   4.657   2.858 -0.3624  0.1966  0.2849
 7805TIP3    H247611   3.271   4.547   2.766  0.2298  0.7066 -0.6427
 7806TIP3   OH247612   2.519   2.258   5.035  0.0917 -0.2495 -0.7571
 7806TIP3    H147613   2.534   2.261   4.941 -0.6487  0.3003 -0.8697
 7806TIP3    H247614   2.445   2.198   5.046 -0.1069  0.0202 -0.5755
 7807TIP3   OH247615   0.646   0.405   3.713  0.1204 -0.2784  0.3655
 7807TIP3    H147616   0.671   0.317   3.739  0.4586  0.2521  1.9402
 7807TIP3    H247617   0.599   0.393   3.630  0.4699 -1.8787  0.3621
 7808TIP3   OH247618   6.544   4.494   4.297  0.1146 -0.1096  0.1515
 7808TIP3    H147619   6.521   4.536   4.214  0.4534  0.9622  0.5841
 7808TIP3    H247620   6.505   4.549   4.364 -0.3936 -1.1268  0.7102
 7809TIP3   OH247621   4.151   5.694   5.560 -0.3981  0.0483 -0.1160
 7809TIP3    H147622   4.222   5.671   5.621 -1.8986 -0.6771  1.4442
 7809TIP3    H247623   4.113   5.774   5.597 -2.3963 -1.3025  0.9565
 7810TIP3   OH247624   6.380   5.182   2.546  0.2398 -0.1421  0.0565
 7810TIP3    H147625   6.363   5.175   2.452 -0.5126  0.1525  0.1653
 7810TIP3    H247626   6.461   5.132   2.560  0.5802  0.1554 -0.8105
 7811TIP3   OH247627   1.750   1.585   4.888  0.2716  0.3746 -0.1401
 7811TIP3    H147628   1.660   1.590   4.855 -0.1570 -1.6630  0.5730
 7811TIP3    H247629   1.757   1.497   4.924  2.9673  0.0473 -1.2987
 7812TIP3   OH247630   2.320   4.384   2.201 -0.2494 -0.2039 -0.3336
 7812TIP3    H147631   2.235   4.377   2.245  0.2075 -0.8202  0.4711
 7812TIP3    H247632   2.298   4.385   2.108 -1.2550  1.5821 -0.1183
 7813TIP3   OH247633   4.527   3.320   3.470  0.2196  0.3696  0.7194
 7813TIP3    H147634   4.489   3.261   3.406  0.8235 -0.5215  1.1651
 7813TIP3    H247635   4.469   3.313   3.546  0.3559  0.2715  0.8135
 7814TIP3   OH247636   0.542   4.008   3.218 -0.0637  0.0210 -0.0346
 7814TIP3    H147637   0.526   4.083   3.275  0.7549 -1.4032  2.1842
 7814TIP3    H247638   0.462   3.956   3.224  0.2209 -0.3866  0.2206
 7815TIP3   OH247639   3.751   5.793   5.005 -0.4818 -0.3410 -0.4248
 7815TIP3    H147640   3.658   5.775   5.015 -0.5003 -2.0254 -2.7532
 7815TIP3    H247641   3.755   5.880   4.966 -0.8836  0.8286  1.9560
 7816TIP3   OH247642   0.161   1.653   2.423 -0.2360 -0.3186 -0.0640
 7816TIP3    H147643   0.187   1.636   2.332 -0.2674  0.4614 -0.2283
 7816TIP3    H247644   0.147   1.748   2.426 -0.1761 -0.3331  0.7719
 7817TIP3   OH247645   4.708   4.051   2.327  0.8045 -0.0465 -0.3429
 7817TIP3    H147646   4.674   4.140   2.331  1.7096  0.4251 -1.9396
 7817TIP3    H247647   4.801   4.063   2.305  1.2086 -1.3637  0.5641
 7818TIP3   OH247648   1.775   3.389   4.238 -0.5063  0.3877 -0.1749
 7818TIP3    H147649   1.746   3.478   4.258 -3.6312 -0.6036  0.3194
 7818TIP3    H247650   1.866   3.385   4.269  0.0683  3.6240 -1.0976
 7819TIP3   OH247651   2.812   5.080   3.042  0.0702  0.2981  0.0845
 7819TIP3    H147652   2.803   5.031   3.123  2.6560  0.2847  0.4297
 7819TIP3    H247653   2.725   5.077   3.002 -0.9609 -0.6576  2.2828
 7820TIP3   OH247654   0.461   3.030   4.000 -0.4192  0.1707 -0.3161
 7820TIP3    H147655   0.555   3.031   4.014 -0.3518 -0.2661 -0.7245
 7820TIP3    H247656   0.444   3.107   3.945  0.1040 -1.2971 -2.6637
 7821TIP3   OH247657   1.891   4.212   2.853 -0.0019 -0.3285 -0.5512
 7821TIP3    H147658   1.860   4.230   2.942  1.8870  0.6956 -0.0389
 7821TIP3    H247659   1.909   4.118   2.853  3.0625  0.1099  1.3038
 7822TIP3   OH247660   4.921   5.477   3.442 -0.3590 -0.2892  0.0759
 7822TIP3    H147661   4.925   5.432   3.526 -0.3429 -0.4621 -0.0167
 7822TIP3    H247662   4.829   5.499   3.431 -0.2586  0.3352  0.4533
 7823TIP3   OH247663   1.490   1.790   4.395  0.3377  0.0871 -0.1843
 7823TIP3    H147664   1.571   1.791   4.447 -0.4636  2.8001  1.2070
 7823TIP3    H247665   1.435   1.725   4.437  1.9168 -2.3110 -1.5575
 7824TIP3   OH247666   3.561   6.815   3.007 -0.3080 -0.2542 -0.0146
 7824TIP3    H147667   3.646   6.852   2.983  0.8235 -3.2456 -1.0530
 7824TIP3    H247668   3.532   6.868   3.080  2.1208  1.3185 -0.0727
 7825TIP3   OH247669   2.990   6.261   4.636  0.3323 -0.1630  0.0118
 7825TIP3    H147670   2.942   6.183   4.609  0.9678 -0.8511  0.8435
 7825TIP3    H247671   2.926   6.312   4.685  0.5118 -1.2681  1.4686
 7826TIP3   OH247672   1.498   2.848   2.737 -0.4490  0.0042 -0.0427
 7826TIP3    H147673   1.451   2.926   2.766 -1.5627  0.0559 -1.8556
 7826TIP3    H247674   1.589   2.864   2.763 -1.0513  0.8111  1.7124
 7827TIP3   OH247675   3.701   4.991   3.608 -0.7264 -0.2935  0.5279
 7827TIP3    H147676   3.754   5.068   3.586 -3.0312  1.4671  0.6306
 7827TIP3    H247677   3.725   4.971   3.699  0.0374  0.1902  0.4424
 7828TIP3   OH247678   4.811   0.264   2.542  0.7089  0.2172 -0.1778
 7828TIP3    H147679   4.837   0.291   2.454 -1.3621  1.6163 -0.4444
 7828TIP3    H247680   4.773   0.342   2.581 -0.8492 -1.0138  0.9418
 7829TIP3   OH247681   0.550   6.545   4.365  0.4295  0.3460 -0.3193
 7829TIP3    H147682   0.539   6.451   4.352  0.4295  0.5412 -1.9516
 7829TIP3    H247683   0.558   6.581   4.277  0.5895  1.8670  0.2770
 7830TIP3   OH247684   5.459   1.002   4.107  0.1445  0.4587  0.3732
 7830TIP3    H147685   5.511   0.976   4.032  0.2997 -1.9709  1.2305
 7830TIP3    H247686   5.368   0.993   4.078  0.1956  0.9693  0.0445
 7831TIP3   OH247687   0.790   0.169   2.514 -1.0735 -0.2073  0.1191
 7831TIP3    H147688   0.809   0.154   2.421  0.7909  1.3086  0.1899
 7831TIP3    H247689   0.742   0.252   2.516  0.2113  0.5535  0.5734
 7832TIP3   OH247690   2.330   0.513   4.254  0.0092  0.3618  0.3983
 7832TIP3    H147691   2.280   0.507   4.336  0.5590 -1.3706  0.6562
 7832TIP3    H247692   2.283   0.579   4.202 -2.1218 -0.6471  0.9154
 7833TIP3   OH247693   1.911   0.088   5.168 -0.1547  0.6751 -0.1823
 7833TIP3    H147694   1.968   0.030   5.220  1.4035 -0.2268 -2.7211
 7833TIP3    H247695   1.933   0.176   5.198  0.3264  0.1762  1.0094
 7834TIP3   OH247696   2.496   6.214   3.785  0.3834  0.3702 -0.2823
 7834TIP3    H147697   2.546   6.193   3.706 -0.0186  0.2678 -0.5167
 7834TIP3    H247698   2.556   6.196   3.857  0.2570 -1.0500 -0.4983
 7835TIP3   OH247699   4.532   1.043   3.785  0.9903  0.6766  0.4939
 7835TIP3    H147700   4.444   1.023   3.751  2.0573  0.6496 -2.5739
 7835TIP3    H247701   4.556   0.965   3.834  0.1600 -0.3045 -0.5869
 7836TIP3   OH247702   2.345   4.144   3.277 -0.3321  0.2683  0.2693
 7836TIP3    H147703   2.369   4.190   3.358  0.7587 -0.6088  0.4666
 7836TIP3    H247704   2.256   4.114   3.293  0.4460 -1.3891  1.8823
 7837TIP3   OH247705   4.831   1.601   4.429 -0.4649 -0.5103  0.2646
 7837TIP3    H147706   4.756   1.637   4.381 -1.2291 -0.5830  1.3505
 7837TIP3    H247707   4.821   1.637   4.518  1.4437  0.4137  0.1520
 7838TIP3   OH247708   5.349   3.384   5.665 -0.4644 -0.1682  0.3485
 7838TIP3    H147709   5.292   3.307   5.669  0.2199 -0.8910 -2.0140
 7838TIP3    H247710   5.290   3.458   5.676 -1.4529 -0.9660  0.5734
 7839TIP3   OH247711   6.474   2.603   4.849  0.1699  0.1286 -0.2576
 7839TIP3    H147712   6.388   2.628   4.882  0.0686 -1.1206  0.5044
 7839TIP3    H247713   6.481   2.510   4.870  1.4273  0.0503 -0.9350
 7840TIP3   OH247714   2.155   0.647   4.648  0.8739 -0.9091  0.2914
 7840TIP3    H147715   2.135   0.740   4.638  0.1196 -1.1810 -0.8948
 7840TIP3    H247716   2.197   0.641   4.734  0.9278  0.5182  0.3912
 7841TIP3   OH247717   6.770   0.712   5.203  0.0761  0.9098 -0.3792
 7841TIP3    H147718   6.677   0.730   5.193 -0.1044 -0.0337 -0.4871
 7841TIP3    H247719   6.787   0.725   5.296 -1.1358 -2.9459  0.5853
 7842TIP3   OH247720   2.813   3.155   4.324  0.0030 -0.2320  0.7026
 7842TIP3    H147721   2.735   3.196   4.362 -0.3394 -0.6701  0.4782
 7842TIP3    H247722   2.870   3.228   4.301 -0.4937  0.1059  0.5404
 7843TIP3   OH247723   0.826   6.287   2.439 -0.1876 -0.3967  0.4192
 7843TIP3    H147724   0.754   6.332   2.484 -1.1679  0.8121 -2.1294
 7843TIP3    H247725   0.801   6.195   2.441 -1.5965 -0.0551  0.0521
 7844TIP3   OH247726   2.385   6.273   2.239 -0.2908 -0.1539 -0.0824
 7844TIP3    H147727   2.366   6.254   2.147 -0.1133 -0.2574 -0.1002
 7844TIP3    H247728   2.310   6.323   2.270 -0.7179 -0.7869 -0.0697
 7845TIP3   OH247729   3.152   1.807   3.430 -0.5774  0.4086 -0.0940
 7845TIP3    H147730   3.104   1.877   3.386 -0.0018  0.4383 -0.6890
 7845TIP3    H247731   3.092   1.775   3.497 -0.9409  1.2983  0.0145
 7846TIP3   OH247732   3.174   5.925   5.029 -0.6909 -1.0036  0.0731
 7846TIP3    H147733   3.152   5.865   5.100 -0.8653 -0.5438  0.4147
 7846TIP3    H247734   3.215   6.000   5.073  1.2367 -1.6611 -0.5066
 7847TIP3   OH247735   4.900   4.071   3.478  0.2343 -0.3956 -0.3144
 7847TIP3    H147736   4.972   4.128   3.450  0.4229 -0.3046  0.3336
 7847TIP3    H247737   4.927   4.039   3.564 -1.3777  1.2541  0.8884
 7848TIP3   OH247738   2.289   0.268   4.091 -0.0284 -0.3939  0.0697
 7848TIP3    H147739   2.250   0.300   4.009 -0.9912  0.5843  0.8880
 7848TIP3    H247740   2.285   0.342   4.151 -0.5834 -1.4802  1.4381
 7849TIP3   OH247741   3.857   0.574   4.499 -0.5334  0.0025  0.8427
 7849TIP3    H147742   3.859   0.640   4.429 -0.3418  0.1771  1.0144
 7849TIP3    H247743   3.885   0.621   4.577  0.1336 -0.4132  0.8550
 7850TIP3   OH247744   1.406   5.596   3.367 -0.2973  0.1768  0.3833
 7850TIP3    H147745   1.362   5.667   3.413 -1.5854  1.0898 -2.0974
 7850TIP3    H247746   1.359   5.587   3.284  1.4832 -1.8130 -0.5291
 7851TIP3   OH247747   6.710   4.613   4.667 -0.2915 -0.2652  0.2288
 7851TIP3    H147748   6.743   4.692   4.624  0.6463 -0.0530  1.2693
 7851TIP3    H247749   6.777   4.546   4.650 -0.4758 -0.4914  0.3766
 7852TIP3   OH247750   4.893   3.215   3.332  0.4647 -0.0533  0.6558
 7852TIP3    H147751   4.916   3.234   3.423  1.4034  0.1209  0.3890
 7852TIP3    H247752   4.883   3.301   3.291  0.2619 -0.1296  0.5447
 7853TIP3   OH247753   0.451   6.574   4.760 -0.2413  0.0474 -0.1359
 7853TIP3    H147754   0.538   6.541   4.739  0.1922  0.0664  1.5137
 7853TIP3    H247755   0.448   6.576   4.856 -0.6223  3.7648 -0.1005
 7854TIP3   OH247756   1.818   6.475   4.803  0.4424  0.4954  0.2343
 7854TIP3    H147757   1.727   6.452   4.825 -0.0327  2.2953  0.3253
 7854TIP3    H247758   1.845   6.534   4.873  1.8790 -0.3888  0.4580
 7855TIP3   OH247759   0.918   6.164   2.785 -0.0914  0.0238  0.3023
 7855TIP3    H147760   0.978   6.152   2.859 -0.2967 -0.7312  0.3535
 7855TIP3    H247761   0.973   6.199   2.715  0.6938 -1.8363 -0.0553
 7856TIP3   OH247762   6.540   1.500   5.463  0.9207  0.0970  0.1932
 7856TIP3    H147763   6.459   1.465   5.499 -0.5862  1.4319 -1.7073
 7856TIP3    H247764   6.609   1.448   5.504 -0.9281 -1.7218  1.1713
 7857TIP3   OH247765   0.945   5.185   5.257 -0.2382 -0.3730 -0.0816
 7857TIP3    H147766   0.875   5.132   5.296  1.2482 -0.3460  2.8316
 7857TIP3    H247767   1.024   5.131   5.265  0.9571  1.4528  1.1766
 7858TIP3   OH247768   0.785   4.087   5.008  0.2022  0.1670  0.0789
 7858TIP3    H147769   0.698   4.054   5.029 -0.4398  1.6155 -0.1604
 7858TIP3    H247770   0.785   4.176   5.042  1.6538  0.1341  0.1981
 7859TIP3   OH247771   2.384   5.603   2.354  0.0821  0.4442 -0.0600
 7859TIP3    H147772   2.459   5.548   2.331  0.3439  0.8953 -0.3287
 7859TIP3    H247773   2.335   5.553   2.418  0.1386 -0.2307 -0.5361
 7860TIP3   OH247774   6.093   0.071   2.482  0.1626  0.3474 -0.0345
 7860TIP3    H147775   6.069   0.155   2.445 -0.8907 -0.3599 -1.0355
 7860TIP3    H247776   6.169   0.090   2.538  0.3645  1.8332 -0.7585
 7861TIP3   OH247777   6.122   4.115   2.166 -0.2861 -0.3208  0.9730
 7861TIP3    H147778   6.201   4.103   2.218  1.6330  0.0384 -1.6153
 7861TIP3    H247779   6.064   4.044   2.193  1.4688 -1.4383  2.0238
 7862TIP3   OH247780   6.684   1.512   1.999  1.0212 -0.2196 -0.3201
 7862TIP3    H147781   6.734   1.446   2.047 -1.1776 -1.5334  0.2701
 7862TIP3    H247782   6.723   1.510   1.911  3.5518  0.5633  0.6805
 7863TIP3   OH247783   6.501   0.560   4.699  0.6001  0.0772  0.2504
 7863TIP3    H147784   6.418   0.597   4.728 -0.1845  0.4610 -2.2322
 7863TIP3    H247785   6.531   0.507   4.773 -1.1326  1.0662  1.7334
 7864TIP3   OH247786   0.400   5.386   3.938  0.4032 -0.1629 -0.1601
 7864TIP3    H147787   0.329   5.346   3.888 -0.5190  0.3397  0.6890
 7864TIP3    H247788   0.367   5.473   3.960  1.2657  0.0607  0.3057
 7865TIP3   OH247789   4.514   4.237   4.818 -0.1887 -0.1851  0.2347
 7865TIP3    H147790   4.595   4.207   4.859  1.9327  3.9562 -0.3354
 7865TIP3    H247791   4.472   4.290   4.885 -0.9652 -0.0432 -0.3537
 7866TIP3   OH247792   1.177   3.347   3.646 -0.0870  0.3364 -0.4270
 7866TIP3    H147793   1.240   3.394   3.591 -0.0174  0.4142 -0.2827
 7866TIP3    H247794   1.230   3.284   3.694  0.1369  1.4577  0.8694
 7867TIP3   OH247795   2.173   2.067   2.007 -0.4448 -0.2491  0.1496
 7867TIP3    H147796   2.125   2.057   1.925 -1.3016 -2.5373  0.8315
 7867TIP3    H247797   2.131   2.140   2.052  0.3525  1.3543 -1.5994
 7868TIP3   OH247798   0.793   1.359   3.927 -0.0405 -0.4259 -0.1670
 7868TIP3    H147799   0.888   1.360   3.911  0.1631  1.7227  0.8986
 7868TIP3    H247800   0.760   1.290   3.869  2.4416 -2.8775  1.0928
 7869TIP3   OH247801   1.909   2.432   3.779  0.1822 -0.4460  0.3957
 7869TIP3    H147802   1.909   2.525   3.801 -1.8560 -0.2333 -0.2716
 7869TIP3    H247803   1.911   2.431   3.683 -0.0364 -1.0782  0.3969
 7870TIP3   OH247804   1.186   6.438   1.692 -0.6745  0.0827  0.4419
 7870TIP3    H147805   1.213   6.387   1.615 -1.3902 -0.9813  0.8643
 7870TIP3    H247806   1.266   6.480   1.722  0.4600 -2.4653  1.2930
 7871TIP3   OH247807   3.426   4.082   1.912 -0.0326  0.1778 -0.6499
 7871TIP3    H147808   3.442   4.106   1.821 -0.1422 -1.4807 -1.1411
 7871TIP3    H247809   3.483   4.140   1.963 -0.7380  1.8365 -1.6833
 7872TIP3   OH247810   2.600   4.096   4.530  0.1001 -0.1720  0.5870
 7872TIP3    H147811   2.602   4.099   4.434 -0.1323  0.3754  0.5988
 7872TIP3    H247812   2.568   4.008   4.550 -0.2031 -0.1637  0.1602
 7873TIP3   OH247813   0.201   4.492   3.384 -0.2358 -0.0781 -0.2473
 7873TIP3    H147814   0.189   4.521   3.293 -0.8990 -2.7184 -1.0964
 7873TIP3    H247815   0.292   4.460   3.387 -0.4897 -0.8284 -0.2739
 7874TIP3   OH247816   4.183   1.062   4.538  0.4387  0.8155  0.4842
 7874TIP3    H147817   4.218   1.027   4.456 -0.9290  0.8281 -0.1164
 7874TIP3    H247818   4.260   1.100   4.581  1.6960 -1.4510  0.4253
 7875TIP3   OH247819   1.972   1.208   3.029 -0.3150  0.5685 -0.2657
 7875TIP3    H147820   2.002   1.256   2.951 -2.0709  1.4696 -0.4384
 7875TIP3    H247821   1.908   1.146   2.995  0.2522 -0.3062  0.2568
 7876TIP3   OH247822   4.279   1.478   5.134  0.1421  0.2058  0.4695
 7876TIP3    H147823   4.200   1.501   5.183  1.5009  0.5420  2.6447
 7876TIP3    H247824   4.308   1.560   5.095 -0.5223  0.0913 -0.2927
 7877TIP3   OH247825   4.140   1.586   2.969 -0.6506 -0.0357 -0.7973
 7877TIP3    H147826   4.155   1.492   2.970 -0.6067 -0.0637  1.9898
 7877TIP3    H247827   4.110   1.607   3.057 -0.5769  2.5913 -1.3160
 7878TIP3   OH247828   0.748   3.952   3.071 -0.6212 -0.1596 -0.3433
 7878TIP3    H147829   0.732   4.005   2.993  0.2789 -0.4577 -0.7478
 7878TIP3    H247830   0.690   3.989   3.138  3.0272  4.4219  0.8275
 7879TIP3   OH247831   2.344   3.540   4.103 -0.4980 -0.2208  0.1001
 7879TIP3    H147832   2.323   3.449   4.126  0.7553 -1.1392 -1.9877
 7879TIP3    H247833   2.440   3.544   4.110 -0.6319  1.3457  1.3866
 7880TIP3   OH247834   6.806   2.553   2.487 -0.4292  0.7611  0.3018
 7880TIP3    H147835   6.758   2.516   2.560 -1.3745  0.8338 -0.2659
 7880TIP3    H247836   6.742   2.607   2.440  0.1498  0.7164 -0.5797
 7881TIP3   OH247837   1.063   4.996   2.964 -0.4633  0.1032 -0.8524
 7881TIP3    H147838   1.042   5.089   2.963 -0.9571  0.0563  1.1126
 7881TIP3    H247839   1.154   4.992   2.936 -0.1546  1.2907 -0.1143
 7882TIP3   OH247840   3.528   2.998   3.529  0.0273  0.0704 -0.0372
 7882TIP3    H147841   3.552   3.086   3.500  1.5912 -0.2206  0.2557
 7882TIP3    H247842   3.609   2.947   3.521  0.3135 -0.3542  3.5872
 7883TIP3   OH247843   3.113   4.407   3.903  0.0057 -0.1686  0.1551
 7883TIP3    H147844   3.027   4.447   3.897 -0.5911 -1.4205  0.1007
 7883TIP3    H247845   3.142   4.425   3.992 -0.6032 -0.2860  0.3820
 7884TIP3   OH247846   0.729   4.628   4.288  0.1172 -0.3441 -0.0348
 7884TIP3    H147847   0.736   4.720   4.260 -0.5322  0.1792  1.4329
 7884TIP3    H247848   0.761   4.629   4.379  0.2901 -1.6179 -0.0732
 7885TIP3   OH247849   5.957   6.229   2.933  0.0850 -0.2169  0.8095
 7885TIP3    H147850   5.866   6.225   2.902 -0.2337 -0.5121  1.7459
 7885TIP3    H247851   6.006   6.262   2.858 -0.7039 -0.6126  0.0955
 7886TIP3   OH247852   4.229   4.503   3.028  0.4104 -0.0599 -0.1074
 7886TIP3    H147853   4.260   4.585   2.989  1.2521  0.2275  1.1105
 7886TIP3    H247854   4.135   4.515   3.039 -0.0612 -0.5451 -2.9180
 7887TIP3   OH247855   1.395   4.350   2.167 -0.1646  0.6700 -0.6434
 7887TIP3    H147856   1.422   4.404   2.093  2.5593 -1.5652 -1.4642
 7887TIP3    H247857   1.477   4.326   2.210 -1.5213  0.0476  1.8091
 7888TIP3   OH247858   0.386   2.473   5.672 -0.4367  0.0359 -0.3022
 7888TIP3    H147859   0.431   2.419   5.607 -2.1161 -0.8244 -0.7904
 7888TIP3    H247860   0.433   2.455   5.754  1.6049  1.0112 -1.1684
 7889TIP3   OH247861   5.352   5.804   5.578  0.5888 -0.6517  0.6804
 7889TIP3    H147862   5.324   5.744   5.509 -0.1984  0.4285  0.0273
 7889TIP3    H247863   5.403   5.749   5.638  0.5073 -1.8081 -0.2631
 7890TIP3   OH247864   6.479   5.425   5.397  0.5305  0.6682  0.4557
 7890TIP3    H147865   6.437   5.341   5.375 -0.5920  1.3349 -0.0511
 7890TIP3    H247866   6.406   5.482   5.420  1.2834  1.5285  0.7298
 7891TIP3   OH247867   5.710   4.373   2.412  0.3533 -0.8032  0.3474
 7891TIP3    H147868   5.654   4.297   2.427 -2.4960  0.8293 -1.0429
 7891TIP3    H247869   5.768   4.346   2.341 -0.0563 -1.9486  0.4249
 7892TIP3   OH247870   2.507   1.266   1.937 -0.0405 -0.6851 -0.0149
 7892TIP3    H147871   2.422   1.224   1.949  0.2733 -1.5132 -0.5391
 7892TIP3    H247872   2.570   1.200   1.966  0.3853  0.8691  2.9382
 7893TIP3   OH247873   1.776   1.643   2.007 -0.0714  0.1287 -0.2690
 7893TIP3    H147874   1.722   1.587   2.064 -0.2845  1.2584  0.6798
 7893TIP3    H247875   1.764   1.606   1.920 -1.5691 -0.2823  0.0651
 7894TIP3   OH247876   4.782   3.862   4.887  0.1465 -0.2872  0.0090
 7894TIP3    H147877   4.686   3.855   4.889  0.0006  1.3760  1.1842
 7894TIP3    H247878   4.811   3.812   4.962 -0.0338  1.3662  1.2368
 7895TIP3   OH247879   1.001   1.740   4.231 -0.5012  0.3965 -0.1497
 7895TIP3    H147880   0.963   1.655   4.252 -1.9364  1.0313 -0.0536
 7895TIP3    H247881   1.069   1.753   4.298 -0.8183 -0.3238  0.3243
 7896TIP3   OH247882   2.018   4.636   3.939 -0.0448  0.3688  0.4433
 7896TIP3    H147883   2.069   4.559   3.965  0.8992  0.8941  0.1898
 7896TIP3    H247884   1.949   4.601   3.882 -1.0251 -0.5694  2.0920
 7897TIP3   OH247885   3.316   4.262   2.787 -0.2908  0.4758 -0.5512
 7897TIP3    H147886   3.245   4.311   2.745 -0.2665  0.3978 -0.6854
 7897TIP3    H247887   3.323   4.300   2.874 -0.9705  0.0122 -0.2909
 7898TIP3   OH247888   2.747   6.074   2.599 -0.1379 -0.4769  0.2935
 7898TIP3    H147889   2.833   6.086   2.560 -0.4418 -1.6535 -0.8155
 7898TIP3    H247890   2.685   6.104   2.532 -0.6634 -2.3548 -0.1152
 7899TIP3   OH247891   6.059   0.490   5.053 -0.2907  0.3620 -0.4443
 7899TIP3    H147892   6.062   0.427   5.124 -1.0387  0.0321 -0.7069
 7899TIP3    H247893   5.986   0.548   5.075  1.5376  2.3715  0.8145
 7900TIP3   OH247894   2.410   5.013   4.220 -0.0653 -0.0735  0.0059
 7900TIP3    H147895   2.339   5.029   4.284 -1.0092  1.7225 -1.3892
 7900TIP3    H247896   2.371   4.954   4.156  0.4571 -0.8468  0.3922
 7901TIP3   OH247897   5.786   3.007   4.565  0.2187 -0.3041  0.3697
 7901TIP3    H147898   5.851   2.948   4.603 -1.3840 -3.0815 -0.9019
 7901TIP3    H247899   5.705   2.986   4.610 -0.6618  0.0559 -0.9819
 7902TIP3   OH247900   2.869   0.728   3.835  0.1992  0.7663  0.5031
 7902TIP3    H147901   2.854   0.742   3.742 -2.6404  0.5274  0.8204
 7902TIP3    H247902   2.887   0.634   3.843 -2.6425  0.0971  0.3635
 7903TIP3   OH247903   5.015   2.372   4.072 -0.4735 -0.4575 -0.2229
 7903TIP3    H147904   5.024   2.394   3.979  0.3821 -0.5102 -0.1644
 7903TIP3    H247905   4.982   2.452   4.112  0.7797  0.1391 -0.3150
 7904TIP3   OH247906   1.184   2.678   3.710 -0.1976 -0.2626  0.2095
 7904TIP3    H147907   1.245   2.681   3.637  0.5704 -0.9488  0.8008
 7904TIP3    H247908   1.114   2.738   3.685  0.5462  0.2873 -0.6304
 7905TIP3   OH247909   0.418   1.156   3.339 -0.0699  0.6698  0.2396
 7905TIP3    H147910   0.401   1.079   3.394 -0.3770 -0.6373 -1.5565
 7905TIP3    H247911   0.501   1.136   3.296 -0.8061  0.6476 -1.2694
 7906TIP3   OH247912   1.910   6.012   4.313 -0.6073  0.2597  0.0710
 7906TIP3    H147913   1.861   6.094   4.317  0.2210  0.7540  0.2023
 7906TIP3    H247914   1.861   5.958   4.251 -1.3225  0.7313  0.2080
 7907TIP3   OH247915   5.346   3.989  11.461  0.5185  0.2832 -0.4243
 7907TIP3    H147916   5.389   3.952  11.539  0.7946 -0.8103 -1.0685
 7907TIP3    H247917   5.381   4.078  11.455  2.6874 -0.5190 -0.8571
 7908TIP3   OH247918   1.314   1.658   2.495  0.6225 -0.0008 -0.2676
 7908TIP3    H147919   1.245   1.688   2.436 -0.6250 -1.0084  0.6294
 7908TIP3    H247920   1.375   1.733   2.500  1.2478 -0.1528 -3.4090
 7909TIP3   OH247921   3.112   0.190   3.401  0.2412 -0.2324 -0.4221
 7909TIP3    H147922   3.034   0.242   3.381  0.8083  0.3424 -1.2179
 7909TIP3    H247923   3.093   0.149   3.485 -0.8197  0.0959 -0.4899
 7910TIP3   OH247924   5.069   6.011   4.915  0.3824 -0.0943 -0.0435
 7910TIP3    H147925   5.036   5.998   4.826 -1.7419  1.4915  0.4375
 7910TIP3    H247926   5.014   5.956   4.970 -1.1344  2.0297  0.6941
 7911TIP3   OH247927   5.140   4.911   3.955  0.4565 -0.2729 -0.0746
 7911TIP3    H147928   5.210   4.868   4.004 -0.0748 -0.2635  0.7230
 7911TIP3    H247929   5.061   4.893   4.006  0.4066  3.0791  1.3236
 7912TIP3   OH247930   6.482   2.753   2.331  0.2545 -0.0847  0.4078
 7912TIP3    H147931   6.430   2.811   2.386  0.8456 -0.6145  1.5716
 7912TIP3    H247932   6.537   2.811   2.278 -0.1796  0.4330  0.5269
 7913TIP3   OH247933   4.355   5.963   2.327 -0.1272  0.1717 -0.3832
 7913TIP3    H147934   4.282   6.022   2.313 -1.9242 -1.4650  1.3804
 7913TIP3    H247935   4.371   5.923   2.241 -0.9316  0.9671 -0.9147
 7914TIP3   OH247936   5.283   5.866   3.629 -0.2777 -0.6781  0.4830
 7914TIP3    H147937   5.276   5.959   3.609 -1.1716 -1.2575 -2.3290
 7914TIP3    H247938   5.373   5.854   3.659 -0.1479  1.0621  0.8876
 7915TIP3   OH247939   5.230   2.830   3.599 -0.5244 -0.2867 -0.5104
 7915TIP3    H147940   5.148   2.830   3.551 -0.3560 -2.5136 -0.8908
 7915TIP3    H247941   5.204   2.834   3.691 -1.1093 -1.4434 -0.6101
 7916TIP3   OH247942   2.521   6.706   3.471 -0.1009 -0.1048  0.3270
 7916TIP3    H147943   2.543   6.769   3.402 -0.5453  0.0720  0.3499
 7916TIP3    H247944   2.461   6.752   3.529 -0.4503 -0.5557  0.3310
 7917TIP3   OH247945   4.193   6.806   4.332  0.1371 -0.1183 -0.1588
 7917TIP3    H147946   4.188   6.899   4.309  0.3238  0.3525  1.5520
 7917TIP3    H247947   4.120   6.765   4.286  0.6965  0.6498 -1.8119
 7918TIP3   OH247948   0.113   4.424   2.629 -0.1452 -0.2879  0.2928
 7918TIP3    H147949   0.144   4.510   2.655 -0.6279 -0.2270  0.6871
 7918TIP3    H247950   0.050   4.399   2.697  0.0907 -1.0088  0.2563
 7919TIP3   OH247951   5.954   1.779   2.433 -0.2209  0.2070  0.7503
 7919TIP3    H147952   5.932   1.810   2.346 -0.8296  1.7720  1.4279
 7919TIP3    H247953   5.887   1.713   2.453  0.0768 -0.3462 -0.0443
 7920TIP3   OH247954   4.298   0.436   2.466  0.2654 -0.6173 -0.4973
 7920TIP3    H147955   4.352   0.513   2.448  1.9270 -1.0890  1.8956
 7920TIP3    H247956   4.215   0.472   2.497  0.8099  0.2362  0.0158
 7921TIP3   OH247957   0.022   2.224   2.262 -0.2431 -0.1207  0.1373
 7921TIP3    H147958   0.092   2.215   2.327 -0.4274 -1.2233  0.2122
 7921TIP3    H247959  -0.054   2.254   2.312 -0.2314 -0.4201  0.3400
 7922TIP3   OH247960   3.180   6.629   3.608 -0.2087 -0.2326  0.0774
 7922TIP3    H147961   3.148   6.540   3.590  0.3084 -0.0811 -1.6646
 7922TIP3    H247962   3.239   6.649   3.536  0.8738  0.9698  1.2480
 7923TIP3   OH247963   6.616   1.990   5.449 -0.6587  0.0347  0.1552
 7923TIP3    H147964   6.575   1.936   5.382  0.0285  0.8994 -1.0068
 7923TIP3    H247965   6.570   2.074   5.444 -0.0138  0.3953  0.1526
 7924TIP3   OH247966   5.565   1.692   2.599  0.0568  0.1676 -0.6894
 7924TIP3    H147967   5.641   1.751   2.600 -0.1591  0.4442 -0.4089
 7924TIP3    H247968   5.597   1.613   2.555  1.2563 -0.7116  1.5874
 7925TIP3   OH247969   5.091   3.153   3.140 -0.1006  0.1971 -0.2462
 7925TIP3    H147970   5.169   3.116   3.182 -0.1167 -0.1074 -0.4799
 7925TIP3    H247971   5.030   3.168   3.211 -0.7954 -1.9197 -0.3226
 7926TIP3   OH247972   6.044   6.430   4.473  0.2498  0.3151  0.4026
 7926TIP3    H147973   5.984   6.501   4.497  0.4501  0.1519  1.4626
 7926TIP3    H247974   6.012   6.354   4.523 -0.6540 -0.6695 -1.5728
 7927TIP3   OH247975   3.104   6.690   4.422 -0.0327 -0.1391 -0.2249
 7927TIP3    H147976   3.055   6.656   4.497 -2.4215  0.0186 -1.6096
 7927TIP3    H247977   3.122   6.613   4.368  0.2562 -0.0462 -0.2606
 7928TIP3   OH247978   0.047   4.737   4.060  0.5896  0.2322  0.5735
 7928TIP3    H147979   0.096   4.663   4.095  1.5221  0.5176 -0.0968
 7928TIP3    H247980   0.110   4.810   4.059  0.4056  0.4038 -1.0238
 7929TIP3   OH247981   4.977   0.212   5.013 -0.3173 -0.0139 -0.3863
 7929TIP3    H147982   4.940   0.217   5.101  2.4843 -0.0783  0.9181
 7929TIP3    H247983   5.035   0.288   5.008 -0.0047 -0.3262 -1.9775
 7930TIP3   OH247984   3.913   3.067   2.896  0.3648  0.5094 -0.0959
 7930TIP3    H147985   3.900   3.104   2.983  1.0127  2.5229 -0.8131
 7930TIP3    H247986   4.008   3.072   2.882  0.6700 -2.5295  0.1811
 7931TIP3   OH247987   4.934   3.985   3.756 -0.2740  0.1471  0.2022
 7931TIP3    H147988   4.883   3.931   3.816 -2.6196  2.5469  0.5683
 7931TIP3    H247989   4.914   4.075   3.782  0.8125  1.2526 -2.4436
 7932TIP3   OH247990   2.813   3.053   3.094  0.0515  0.1792  0.1916
 7932TIP3    H147991   2.889   3.009   3.133  0.8566  1.6706  0.3753
 7932TIP3    H247992   2.827   3.146   3.112 -1.5250  0.5464 -0.3068
 7933TIP3   OH247993   2.878   4.113   2.717  0.4779 -0.2219 -0.2508
 7933TIP3    H147994   2.815   4.170   2.761  1.5073  0.6651  0.1279
 7933TIP3    H247995   2.927   4.071   2.788  1.1193  0.0374 -0.5245
 7934TIP3   OH247996   2.383   5.331   2.170 -0.1729 -0.2252 -0.0316
 7934TIP3    H147997   2.310   5.379   2.210  0.0831 -0.1245  0.3205
 7934TIP3    H247998   2.433   5.299   2.245  0.3582  0.0370 -0.2733
 7935TIP3   OH247999   0.479   1.697   2.192 -0.4545  0.2837  0.0425
 7935TIP3    H148000   0.406   1.642   2.163 -0.0207  0.0355 -0.6059
 7935TIP3    H248001   0.505   1.746   2.114 -0.1723  0.6440  0.3597
 7936TIP3   OH248002   0.736   5.240   2.904 -0.2459  0.0603 -0.9490
 7936TIP3    H148003   0.717   5.329   2.933  0.2260 -0.5270  1.3547
 7936TIP3    H248004   0.740   5.246   2.808 -1.6810  2.1945 -0.9385
 7937TIP3   OH248005   4.253   6.573   1.886 -0.2595 -0.5748  0.1167
 7937TIP3    H148006   4.242   6.661   1.849 -0.9189 -1.1737 -1.1668
 7937TIP3    H248007   4.166   6.534   1.882 -0.2437 -0.8970  1.8082
 7938TIP3   OH248008   3.905   4.533   3.466  0.0721 -0.5765  0.4475
 7938TIP3    H148009   3.921   4.447   3.426 -0.1924 -0.4595  0.0827
 7938TIP3    H248010   3.900   4.515   3.560 -0.5724 -1.0524  0.3252
 7939TIP3   OH248011   2.635   4.171   5.663 -0.1325  0.3029 -0.1202
 7939TIP3    H148012   2.729   4.190   5.663  0.4452 -2.1817 -1.3618
 7939TIP3    H248013   2.627   4.086   5.620 -3.2076  1.5054 -2.2994
 7940TIP3   OH248014   3.321   3.861   5.207  0.6504  0.4335 -0.3612
 7940TIP3    H148015   3.386   3.900   5.264  1.0624 -1.2182  0.3676
 7940TIP3    H248016   3.332   3.766   5.219 -1.7448  0.0806 -0.3669
 7941TIP3   OH248017   1.016   6.683   2.870 -0.1487  0.1901  0.1653
 7941TIP3    H148018   1.066   6.759   2.898 -0.4694  1.3883 -2.2484
 7941TIP3    H248019   0.933   6.690   2.917 -0.4922  1.8127 -0.6561
 7942TIP3   OH248020   1.121   4.667   4.108  0.8767 -0.0075  0.5402
 7942TIP3    H148021   1.211   4.688   4.135  1.0255 -1.4398  1.2371
 7942TIP3    H248022   1.106   4.579   4.141 -0.2076 -0.4564 -1.0415
 7943TIP3   OH248023   5.382   0.419   4.573  0.2379  0.6097 -0.4884
 7943TIP3    H148024   5.451   0.485   4.567  2.5693 -1.7132 -1.3603
 7943TIP3    H248025   5.323   0.440   4.501  1.1121  1.5669 -0.9520
 7944TIP3   OH248026   4.994   0.526   5.146 -0.0409  0.6240 -0.2361
 7944TIP3    H148027   5.024   0.608   5.184 -0.1641  0.5813 -0.0443
 7944TIP3    H248028   4.904   0.517   5.177 -0.4488  1.0247 -1.2512
 7945TIP3   OH248029   3.588   1.254   3.171  0.5174  0.2020  0.1314
 7945TIP3    H148030   3.495   1.242   3.189  0.2595  0.8552 -0.6847
 7945TIP3    H248031   3.607   1.344   3.197  0.4885  0.6602 -1.3494
 7946TIP3   OH248032   4.524   6.754   4.128  0.3112  0.0079 -0.0371
 7946TIP3    H148033   4.486   6.757   4.216 -1.5613  0.9239 -0.8047
 7946TIP3    H248034   4.503   6.667   4.095  1.1823 -0.4047  0.4676
 7947TIP3   OH248035   6.527   1.403   2.549 -0.4439  0.1097  0.3869
 7947TIP3    H148036   6.500   1.326   2.499  0.3083 -0.8392  1.3957
 7947TIP3    H248037   6.610   1.430   2.509 -0.8298  0.5497 -0.1218
 7948TIP3   OH248038   6.237   0.808   5.051 -0.4860  0.1668 -0.2711
 7948TIP3    H148039   6.248   0.734   4.990  0.4905 -1.3312  1.6068
 7948TIP3    H248040   6.205   0.767   5.132 -0.0051  1.8310  0.8063
 7949TIP3   OH248041   2.935   6.208   3.423 -0.5158  0.2795 -0.2188
 7949TIP3    H148042   2.860   6.221   3.366 -0.9216 -1.1360 -0.0542
 7949TIP3    H248043   3.010   6.199   3.364 -0.5904  0.9249 -0.4153
 7950TIP3   OH248044   1.763   1.396   3.945 -0.7351 -0.1558  0.2144
 7950TIP3    H148045   1.678   1.431   3.920 -0.7618 -0.9089 -0.8340
 7950TIP3    H248046   1.772   1.316   3.893 -0.3253 -1.2680  1.9365
 7951TIP3   OH248047   4.611   0.770   2.872  0.1795  0.5697 -0.1533
 7951TIP3    H148048   4.658   0.824   2.808  1.9319 -0.6603  0.0248
 7951TIP3    H248049   4.648   0.795   2.956  1.4582 -1.2706 -0.1207
 7952TIP3   OH248050   2.809   6.837   4.397 -0.8574 -0.0202  0.4078
 7952TIP3    H148051   2.870   6.890   4.448 -0.8363 -0.1985  0.5720
 7952TIP3    H248052   2.808   6.752   4.442 -1.1539 -0.0483  0.3534
 7953TIP3   OH248053   5.433   1.127   4.575  0.4129 -0.9176  0.0401
 7953TIP3    H148054   5.391   1.082   4.502 -1.1304  1.0861 -0.4112
 7953TIP3    H248055   5.430   1.065   4.647  0.1678 -2.2276 -1.0545
 7954TIP3   OH248056   3.696   3.709   3.842 -0.6064  0.0573 -0.6552
 7954TIP3    H148057   3.618   3.664   3.873  0.3253 -1.2094 -0.0954
 7954TIP3    H248058   3.691   3.702   3.746 -1.1564 -0.0355 -0.6231
 7955TIP3   OH248059   6.076   2.070   2.001 -0.9343 -0.2330  0.5942
 7955TIP3    H148060   6.047   2.155   2.036 -0.0909  0.9930 -1.4537
 7955TIP3    H248061   6.041   2.069   1.912  3.0196  0.2296 -1.1679
 7956TIP3   OH248062   2.424   0.891   2.309 -0.1169  0.0830 -0.0932
 7956TIP3    H148063   2.378   0.876   2.226 -0.1809  3.4162 -0.7738
 7956TIP3    H248064   2.389   0.823   2.367  0.2299 -2.6634 -2.8050
 7957TIP3   OH248065   3.062   1.030   3.495 -0.0190 -0.0217 -0.0044
 7957TIP3    H148066   3.074   1.106   3.552  0.3771  0.8688 -1.2352
 7957TIP3    H248067   2.989   0.982   3.534  0.7584  0.1049  1.7116
 7958TIP3   OH248068   2.037   0.869   2.925 -0.0841  0.1742 -0.0950
 7958TIP3    H148069   2.101   0.914   2.980  0.5988  1.7551 -2.0569
 7958TIP3    H248070   2.036   0.919   2.843 -3.3239 -0.2017 -0.4182
 7959TIP3   OH248071   6.203   5.746   3.532 -0.4691  0.1693  0.4838
 7959TIP3    H148072   6.268   5.768   3.466  0.8814 -0.0686  1.6663
 7959TIP3    H248073   6.120   5.775   3.496  0.4562  1.6332 -0.5643
 7960TIP3   OH248074   5.546   0.440   3.240 -0.0693 -0.0079 -0.1165
 7960TIP3    H148075   5.635   0.477   3.245 -0.7083  1.7852 -1.1770
 7960TIP3    H248076   5.514   0.467   3.154 -0.7245 -2.9096 -0.8825
 7961TIP3   OH248077   1.848   2.020   3.375 -0.7537 -0.0418 -0.0467
 7961TIP3    H148078   1.862   2.042   3.467 -0.9540 -0.4793  0.0936
 7961TIP3    H248079   1.769   2.068   3.351  0.8218  2.3110 -0.7973
 7962TIP3   OH248080   6.633   4.963   3.167  0.0191 -0.1862 -0.4312
 7962TIP3    H148081   6.698   4.978   3.235 -1.8284 -2.2793  2.0048
 7962TIP3    H248082   6.580   5.043   3.166  0.8651  0.3844 -0.3896
 7963TIP3   OH248083   2.317   5.644   5.246  0.0498 -0.5975  0.5358
 7963TIP3    H148084   2.266   5.589   5.305 -1.9514  1.1902  0.5750
 7963TIP3    H248085   2.349   5.584   5.178 -0.5338 -2.0798  1.5339
 7964TIP3   OH248086   5.181   0.100   3.963  0.0225  0.4223  0.0238
 7964TIP3    H148087   5.129   0.020   3.977 -1.1194  0.6639 -2.2645
 7964TIP3    H248088   5.205   0.096   3.871  0.3603  2.4807 -0.0098
 7965TIP3   OH248089   1.899   6.529   4.242  0.0017  0.2058 -0.6323
 7965TIP3    H148090   1.949   6.455   4.208  0.0470  0.0183 -0.1625
 7965TIP3    H248091   1.842   6.555   4.170  0.5593  0.2295 -1.0739
 7966TIP3   OH248092   4.857   2.826   3.993  0.0162  0.4514 -0.5229
 7966TIP3    H148093   4.786   2.836   4.056  1.2460  2.7333  0.6280
 7966TIP3    H248094   4.857   2.733   3.972 -1.1014 -0.2325  2.0715
 7967TIP3   OH248095   2.010   6.125   2.882 -0.1912 -0.0842 -0.3285
 7967TIP3    H148096   2.021   6.220   2.893  2.6208 -0.1043 -1.9928
 7967TIP3    H248097   1.922   6.115   2.845 -0.0239  2.0506 -1.4760
 7968TIP3   OH248098   3.432   4.977   3.541 -0.7524  0.0464  0.3591
 7968TIP3    H148099   3.426   4.962   3.447 -1.2053  0.0078  0.3935
 7968TIP3    H248100   3.526   4.983   3.558 -0.6817  0.4400 -0.1551
 7969TIP3   OH248101   6.733   3.214   2.128 -0.1449 -0.0954 -0.6571
 7969TIP3    H148102   6.716   3.126   2.094 -1.7694 -0.1404  0.1535
 7969TIP3    H248103   6.651   3.261   2.115  1.0268  1.6955 -2.0823
 7970TIP3   OH248104   2.455   1.392   3.423 -0.7328  0.1157  0.6572
 7970TIP3    H148105   2.479   1.370   3.333 -1.0530 -1.8209  1.0026
 7970TIP3    H248106   2.360   1.403   3.420 -0.5652  1.8422  0.4540
 7971TIP3   OH248107   4.975   2.901   3.534 -0.3063 -0.3479 -0.4334
 7971TIP3    H148108   4.932   2.918   3.451 -0.6992 -1.9843 -0.5897
 7971TIP3    H248109   4.903   2.886   3.596 -0.0055  0.1118  0.0340
 7972TIP3   OH248110   4.908   0.322   3.593  0.2825 -0.2335  0.1258
 7972TIP3    H148111   4.988   0.361   3.559  1.7026 -2.2345  0.9966
 7972TIP3    H248112   4.932   0.288   3.679 -1.5620 -0.7288  0.4935
 7973TIP3   OH248113   3.541   5.873   1.942  0.0465  1.0001  0.6440
 7973TIP3    H148114   3.497   5.888   2.025  0.8399 -1.7982  1.6629
 7973TIP3    H248115   3.633   5.861   1.965 -0.0071 -1.9435 -0.2522
 7974TIP3   OH248116   0.685   6.212   3.557  0.0059 -0.3989  0.1790
 7974TIP3    H148117   0.752   6.152   3.526  0.5939  0.4502 -0.2429
 7974TIP3    H248118   0.604   6.181   3.518  0.8261  1.1598 -3.1293
 7975TIP3   OH248119   3.770   6.763   4.448 -0.5027 -0.2021 -0.2224
 7975TIP3    H148120   3.683   6.803   4.461  0.4706  1.8247  0.5093
 7975TIP3    H248121   3.812   6.770   4.534  0.2962 -1.4815 -0.4833
 7976TIP3   OH248122   3.277   4.579   3.769  0.8486  0.1233  0.1763
 7976TIP3    H148123   3.218   4.509   3.794  1.6486 -2.0467 -3.3487
 7976TIP3    H248124   3.364   4.548   3.795  1.4255 -1.2122 -2.9044
 7977TIP3   OH248125   4.324   6.729   3.478 -0.3462  0.3385 -0.4769
 7977TIP3    H148126   4.327   6.781   3.397 -1.9878 -1.2857 -1.6732
 7977TIP3    H248127   4.231   6.717   3.495 -0.0177 -1.3301  0.3267
 7978TIP3   OH248128   2.076   0.448   4.360  0.2209  0.6229  0.2856
 7978TIP3    H148129   1.999   0.453   4.416  0.3896  0.7055  0.5144
 7978TIP3    H248130   2.050   0.490   4.278 -0.3514 -0.3876 -0.0722
 7979TIP3   OH248131   5.752   2.821   5.405 -0.3821  0.2653 -0.3353
 7979TIP3    H148132   5.812   2.887   5.439 -1.0246  0.1406  1.1247
 7979TIP3    H248133   5.701   2.793   5.482 -0.2263 -1.8167 -0.9391
 7980TIP3   OH248134   4.312   1.221   3.516 -0.1016 -0.2142  0.4214
 7980TIP3    H148135   4.231   1.213   3.465  0.3413  2.2621 -0.8492
 7980TIP3    H248136   4.304   1.154   3.584 -2.6680 -0.8402 -0.3615
 7981TIP3   OH248137   3.440   5.013   3.838 -0.0400 -0.1961  0.1193
 7981TIP3    H148138   3.419   5.002   3.745 -2.4049  2.4501  0.2118
 7981TIP3    H248139   3.382   4.951   3.883  1.2826 -1.6603 -0.0861
 7982TIP3   OH248140   6.016   3.698   3.230 -0.4039  0.1969  0.2592
 7982TIP3    H148141   6.072   3.775   3.225 -0.5115  0.3441  1.1568
 7982TIP3    H248142   6.071   3.630   3.269 -0.7253  0.2350  0.7983
 7983TIP3   OH248143   2.498   3.917   3.371  0.2991  0.3985 -0.2836
 7983TIP3    H148144   2.436   3.987   3.348  1.1900  1.1968 -0.3079
 7983TIP3    H248145   2.583   3.960   3.374  0.8605 -0.6770 -0.2088
 7984TIP3   OH248146   3.514   5.204   4.146  0.6435  0.2409 -0.3431
 7984TIP3    H148147   3.420   5.211   4.163  0.4854 -2.2166  0.1038
 7984TIP3    H248148   3.521   5.208   4.050  0.1187  0.5917 -0.3707
 7985TIP3   OH248149   1.425   4.626   2.441 -0.0612 -0.1234 -0.3615
 7985TIP3    H148150   1.345   4.664   2.404  1.4239  3.0741 -0.6151
 7985TIP3    H248151   1.399   4.593   2.527 -1.7306  0.5504 -0.5787
 7986TIP3   OH248152   2.245   5.362   3.653  0.1850 -0.9709 -0.0108
 7986TIP3    H148153   2.171   5.363   3.714 -0.5931 -3.2025 -0.8006
 7986TIP3    H248154   2.276   5.452   3.651 -1.5994 -0.2649  1.4643
 7987TIP3   OH248155   0.976   3.534   3.643 -0.4587 -0.1158  0.0972
 7987TIP3    H148156   1.021   3.451   3.661  0.8718  0.3130 -1.1254
 7987TIP3    H248157   1.017   3.597   3.703  1.1489  0.4246 -1.4722
 7988TIP3   OH248158   2.527   4.698   4.562  0.3192 -0.1056 -0.5298
 7988TIP3    H148159   2.565   4.664   4.643 -0.4685  1.0421  0.3539
 7988TIP3    H248160   2.452   4.642   4.544  0.2779 -0.1349 -0.2595
 7989TIP3   OH248161   3.491   3.915   4.421  0.2058 -0.5792  0.1609
 7989TIP3    H148162   3.396   3.912   4.425  0.1872  0.2702  0.6179
 7989TIP3    H248163   3.520   3.875   4.503  0.1733  1.1734  1.0860
 7990TIP3   OH248164   4.110   1.044   3.028 -0.3341  0.2167  0.0252
 7990TIP3    H148165   4.086   0.958   3.062 -1.3622  0.4592 -0.0504
 7990TIP3    H248166   4.074   1.106   3.093  0.6962  0.5807  0.2604
 7991TIP3   OH248167   4.223   5.944   3.190 -0.0491  0.2440  0.0876
 7991TIP3    H148168   4.304   5.939   3.140  0.0661  2.1991 -0.0275
 7991TIP3    H248169   4.237   5.887   3.265  0.9776 -0.3452 -0.5340
 7992TIP3   OH248170   3.683   4.742   2.110 -0.7722 -0.1296  0.1511
 7992TIP3    H148171   3.657   4.777   2.195  0.0028  0.7839  0.0314
 7992TIP3    H248172   3.774   4.714   2.122 -1.3191 -2.0329  0.1977
 7993TIP3   OH248173   2.946   1.073   4.843 -0.2236 -0.1035  0.6245
 7993TIP3    H148174   2.916   0.986   4.868 -1.6064  0.4441  0.9677
 7993TIP3    H248175   2.870   1.130   4.857  0.5099  1.0867 -0.0125
 7994TIP3   OH248176   3.788   5.493   4.043  0.3318  0.2195  0.6774
 7994TIP3    H148177   3.705   5.475   4.086 -0.5531  0.8509 -0.6915
 7994TIP3    H248178   3.838   5.545   4.106  0.3053 -1.3742  2.0785
 7995TIP3   OH248179   1.262   0.677   2.564 -0.1282  0.0395  0.9319
 7995TIP3    H148180   1.201   0.605   2.545  1.1847 -0.3458 -2.7383
 7995TIP3    H248181   1.205   0.752   2.581 -1.6448 -0.8029 -0.1071
 7996TIP3   OH248182   5.654   5.849   4.540  0.3424  0.1288  0.0684
 7996TIP3    H148183   5.708   5.860   4.618 -0.1295 -2.3714  0.8426
 7996TIP3    H248184   5.565   5.868   4.569  0.2473 -0.2064  0.0089
 7997TIP3   OH248185   0.051   5.284   2.592 -0.0353 -0.0979 -0.3294
 7997TIP3    H148186   0.084   5.203   2.631 -0.6547 -1.0944 -1.7501
 7997TIP3    H248187   0.034   5.260   2.500  0.5244  1.8669 -0.9872
 7998TIP3   OH248188   5.120   0.807   2.313 -0.5567 -0.1781 -0.2623
 7998TIP3    H148189   5.187   0.831   2.377 -0.4583  0.3154 -0.5512
 7998TIP3    H248190   5.160   0.734   2.264 -0.9222 -1.0600  0.7153
 7999TIP3   OH248191   5.053   0.789   5.228 -0.4287  0.1507  0.2253
 7999TIP3    H148192   5.112   0.737   5.282 -1.3635  0.7086  1.8285
 7999TIP3    H248193   5.014   0.852   5.288 -3.1469 -0.5969 -0.5948
 8000TIP3   OH248194   5.410   1.843   2.268  0.3047  0.6007  0.1794
 8000TIP3    H148195   5.389   1.752   2.289  1.1283  0.7678  2.0099
 8000TIP3    H248196   5.327   1.882   2.243 -0.6267  0.0049  2.1413
 8001TIP3   OH248197   1.985   4.856   4.704 -0.1969  0.4062  0.0573
 8001TIP3    H148198   1.991   4.807   4.786 -0.5092 -0.5119 -0.4494
 8001TIP3    H248199   1.892   4.851   4.680 -0.2139  1.1713 -0.0558
 8002TIP3   OH248200   2.024   2.661   2.436 -0.0310 -0.2723 -0.0848
 8002TIP3    H148201   2.099   2.660   2.376 -0.3049  1.0561 -0.4751
 8002TIP3    H248202   1.953   2.698   2.385  0.2089  2.7583  1.5543
 8003TIP3   OH248203   0.253   4.836   4.531 -1.2864  0.6218  0.4128
 8003TIP3    H148204   0.231   4.753   4.573  2.7004  0.0060  1.6862
 8003TIP3    H248205   0.240   4.901   4.600 -1.5632  0.6502  0.3362
 8004TIP3   OH248206   2.612   5.255   3.479  0.0542  0.2284  0.1449
 8004TIP3    H148207   2.645   5.333   3.522  0.7437 -0.0907  0.2019
 8004TIP3    H248208   2.650   5.182   3.528 -0.5360 -0.1447  0.0610
 8005TIP3   OH248209   2.800   4.449   3.933  0.2158  0.2304  0.3853
 8005TIP3    H148210   2.824   4.368   3.888  1.1774  0.5243  0.3280
 8005TIP3    H248211   2.816   4.431   4.026 -1.8095 -0.3900  0.6424
 8006TIP3   OH248212   3.352   4.357   4.595  0.5593 -0.4985 -0.2617
 8006TIP3    H148213   3.327   4.446   4.618 -1.1020 -0.9672 -0.1441
 8006TIP3    H248214   3.446   4.354   4.609  0.4066  0.7883  1.2328
 8007TIP3   OH248215   6.773   5.807   4.037 -0.1228 -0.7329  0.6792
 8007TIP3    H148216   6.703   5.776   3.978  0.5325 -0.6152 -0.1772
 8007TIP3    H248217   6.737   5.794   4.125 -1.5366  0.0401  0.2434
 8008TIP3   OH248218   6.186   2.635   4.650 -0.5328 -0.1078 -0.0983
 8008TIP3    H148219   6.230   2.634   4.735  2.1275 -1.1553 -1.3630
 8008TIP3    H248220   6.242   2.689   4.595  0.0124 -2.5683 -2.1481
 8009TIP3   OH248221   2.188   5.036   4.769 -0.0075  0.1691  0.0938
 8009TIP3    H148222   2.265   4.981   4.756  0.5231  1.1473 -1.0860
 8009TIP3    H248223   2.115   4.984   4.735  0.1658 -0.6307  0.9199
 8010TIP3   OH248224   5.937   1.816   3.211  0.2113  0.3732 -0.2186
 8010TIP3    H148225   6.030   1.819   3.233  0.0934  0.2282  0.3368
 8010TIP3    H248226   5.925   1.885   3.146  0.3181  1.9557  1.3295
 8011TIP3   OH248227   5.201   5.568   3.347 -0.2876  0.5508 -0.2242
 8011TIP3    H148228   5.173   5.657   3.367 -0.9527  0.0761  1.1450
 8011TIP3    H248229   5.129   5.513   3.378 -0.3432 -0.4315 -1.9658
 8012TIP3   OH248230   3.924   6.086   3.790  0.0866  0.2312 -0.0909
 8012TIP3    H148231   3.940   6.046   3.704 -1.7883  2.1637 -1.4337
 8012TIP3    H248232   3.862   6.026   3.832 -0.5529  0.2708 -0.9402
 8013TIP3   OH248233   5.809   1.052   3.228 -0.2050  0.0166  0.2344
 8013TIP3    H148234   5.771   1.138   3.209  0.5236 -0.1324 -2.2823
 8013TIP3    H248235   5.874   1.069   3.297 -1.6040  1.0378  1.3582
 8014TIP3   OH248236   6.263   3.718   4.260 -0.2008 -0.5267  0.0413
 8014TIP3    H148237   6.336   3.753   4.210  0.8988 -1.8826  0.6257
 8014TIP3    H248238   6.243   3.786   4.325  0.5960 -0.1609 -0.0824
 8015TIP3   OH248239   4.163   2.453   1.881  0.0058 -0.1084  0.0487
 8015TIP3    H148240   4.221   2.479   1.952  1.3605 -1.0375 -0.6703
 8015TIP3    H248241   4.221   2.440   1.806 -1.2086 -0.5321 -0.8572
 8016TIP3   OH248242   5.518   1.022   2.929  0.2273 -0.3134  0.0465
 8016TIP3    H148243   5.569   0.965   2.871  0.6778  2.2044 -2.3003
 8016TIP3    H248244   5.444   1.051   2.875 -0.7951  0.1552  1.6423
 8017TIP3   OH248245   5.041   0.691   4.071 -0.3886 -0.4584 -0.0456
 8017TIP3    H148246   5.051   0.703   3.977  0.7473 -1.6520 -0.1023
 8017TIP3    H248247   4.969   0.749   4.095 -0.8659 -0.3284 -1.6810
 8018TIP3   OH248248   4.105   1.324   2.732  0.2928  0.3543  0.2940
 8018TIP3    H148249   4.074   1.312   2.822 -0.8933 -0.9836 -0.2520
 8018TIP3    H248250   4.085   1.416   2.713 -0.0744  0.4688  1.1614
 8019TIP3   OH248251   6.224   5.005   2.679 -0.1955  0.0875 -0.1892
 8019TIP3    H148252   6.262   5.092   2.663  0.1753 -0.0333  0.0423
 8019TIP3    H248253   6.130   5.017   2.660 -0.1764  0.5792 -0.0041
 8020TIP3   OH248254   5.817   5.866   3.710  0.4497 -0.3842 -0.3136
 8020TIP3    H148255   5.770   5.907   3.782  1.9514  1.3857 -0.2767
 8020TIP3    H248256   5.908   5.862   3.739  1.4010  1.7590 -2.6065
 8021TIP3   OH248257   6.767   2.894   4.063 -0.3822  0.2603  0.5386
 8021TIP3    H148258   6.750   2.800   4.076 -1.0768  0.1932 -0.7626
 8021TIP3    H248259   6.862   2.901   4.065 -0.1861 -0.8852 -1.8455
 8022TIP3   OH248260   0.399   1.773   3.070  0.0573 -0.1699 -0.1180
 8022TIP3    H148261   0.414   1.726   2.988  1.5280  0.4236 -0.2221
 8022TIP3    H248262   0.346   1.713   3.123  1.3036 -1.6797 -0.5016
 8023TIP3   OH248263   6.476   2.568   3.283 -0.0575 -0.3860 -0.9615
 8023TIP3    H148264   6.492   2.477   3.307 -0.5799  0.0414  1.1666
 8023TIP3    H248265   6.524   2.580   3.201  0.6754 -2.3451 -0.8609
 8024TIP3   OH248266   1.902   0.305   1.947 -0.3831 -0.8471  0.1585
 8024TIP3    H148267   1.838   0.236   1.931 -1.3465  0.1005 -0.1612
 8024TIP3    H248268   1.958   0.305   1.869 -0.8841 -0.7405 -0.2065
 8025TIP3   OH248269   3.691   4.737   3.424  0.2467 -0.4377 -0.6930
 8025TIP3    H148270   3.692   4.758   3.517  0.3237 -0.9154 -0.5797
 8025TIP3    H248271   3.766   4.678   3.412  1.4502  1.1452 -1.4410
 8026TIP3   OH248272   0.195   1.129   2.328 -0.3215 -0.6312  0.1230
 8026TIP3    H148273   0.272   1.170   2.369 -1.3675  0.1652  1.3731
 8026TIP3    H248274   0.161   1.196   2.268 -0.6367 -0.5754  0.3610
 8027TIP3   OH248275   5.586   1.769   3.814  1.0227 -0.2587  0.0547
 8027TIP3    H148276   5.622   1.849   3.853  1.5185 -0.4875  0.0725
 8027TIP3    H248277   5.501   1.759   3.856  0.5925  0.7037 -0.5433
 8028TIP3   OH248278   3.331   2.418   2.717 -0.2455 -0.3194  0.7302
 8028TIP3    H148279   3.270   2.365   2.665 -1.1503  3.2111 -2.2470
 8028TIP3    H248280   3.412   2.418   2.665 -0.5251  1.7045  0.2241
 8029TIP3   OH248281   0.086   4.545   5.127 -0.4476 -0.0504  0.0332
 8029TIP3    H148282   0.071   4.639   5.115 -0.3805 -0.0463 -0.0175
 8029TIP3    H248283   0.065   4.529   5.219 -0.9642 -0.0835 -0.0854
 8030TIP3   OH248284   3.322   3.824   4.858  0.1841  0.8944 -0.0215
 8030TIP3    H148285   3.368   3.896   4.815 -0.5754  0.6109 -1.3702
 8030TIP3    H248286   3.381   3.749   4.851 -0.6723  0.3626 -2.3257
 8031TIP3   OH248287   5.711   2.721   5.692  0.7482  0.3553  0.0419
 8031TIP3    H148288   5.696   2.758   5.779 -1.0490 -0.7071  0.2286
 8031TIP3    H248289   5.788   2.665   5.704 -1.3499 -2.3785  1.8657
 8032TIP3   OH248290   0.424   2.807   2.271  0.1618  0.3055 -0.0308
 8032TIP3    H148291   0.417   2.895   2.236  0.1895 -0.0547 -0.9608
 8032TIP3    H248292   0.488   2.814   2.342  2.1751  0.5429 -1.7824
 8033TIP3   OH248293   1.554   2.148   3.081 -0.1138  0.3811 -0.2396
 8033TIP3    H148294   1.476   2.108   3.120  0.0427  1.2466  1.0551
 8033TIP3    H248295   1.527   2.237   3.061  1.2824  1.7318  3.1119
 8034TIP3   OH248296   5.711   3.878   2.280 -0.4747  0.0968 -0.6720
 8034TIP3    H148297   5.641   3.813   2.279 -0.9329  0.5798 -1.4084
 8034TIP3    H248298   5.742   3.879   2.370 -3.2720  1.8079  0.3885
 8035TIP3   OH248299   1.533   0.432   5.434 -0.0178  0.4202 -0.0915
 8035TIP3    H148300   1.460   0.450   5.493 -1.2262 -0.0619 -1.3840
 8035TIP3    H248301   1.567   0.347   5.463 -0.5345  0.2340 -0.0270
 8036TIP3   OH248302   4.591   0.036   4.878  0.1921 -0.0503  0.1201
 8036TIP3    H148303   4.547  -0.032   4.827 -0.2474  1.0164 -0.9649
 8036TIP3    H248304   4.684   0.015   4.872  0.0529 -0.6078 -0.1190
 8037TIP3   OH248305   4.219   1.455   3.646  0.4313 -0.1255  0.4067
 8037TIP3    H148306   4.131   1.431   3.676  0.4540 -0.1215  0.4764
 8037TIP3    H248307   4.243   1.385   3.585 -0.5886  1.0975 -1.5131
 8038TIP3   OH248308   2.477   4.873   2.734 -0.3400 -0.5262 -0.0963
 8038TIP3    H148309   2.433   4.909   2.657  1.1331 -0.0287 -0.7603
 8038TIP3    H248310   2.488   4.780   2.714 -1.3275 -0.7127  0.2056
 8039TIP3   OH248311   4.433   4.262   2.551 -0.4607  0.1771 -0.5094
 8039TIP3    H148312   4.483   4.315   2.612  0.0568 -0.4780 -0.3577
 8039TIP3    H248313   4.378   4.207   2.606 -1.4321  0.9536 -0.6764
 8040TIP3   OH248314   3.480   1.191   2.192  0.1786 -0.5488  0.1936
 8040TIP3    H148315   3.517   1.274   2.222 -0.9561 -0.7433  2.3042
 8040TIP3    H248316   3.476   1.200   2.096  1.2344  1.3144  0.2822
 8041TIP3   OH248317   6.719   2.326   3.556  0.0421 -0.1472  0.1014
 8041TIP3    H148318   6.735   2.400   3.497  1.4935  0.9705  1.7882
 8041TIP3    H248319   6.630   2.297   3.533  0.0414  1.0720 -1.6945
 8042TIP3   OH248320   3.014   3.993   3.636  0.7289 -0.3554  0.3928
 8042TIP3    H148321   3.010   3.940   3.715 -0.7239 -0.2679  0.4049
 8042TIP3    H248322   3.085   4.055   3.652  0.9771 -0.8542  1.2820
 8043TIP3   OH248323   5.467   2.349   4.293 -0.4120 -0.4138  0.0834
 8043TIP3    H148324   5.397   2.295   4.330 -1.5250 -1.1163 -2.7807
 8043TIP3    H248325   5.481   2.313   4.205  0.7945  2.1830 -0.8876
 8044TIP3   OH248326   3.397   6.764   4.251 -0.1950  0.8752  0.1142
 8044TIP3    H148327   3.397   6.762   4.155 -0.8449  0.3181  0.1162
 8044TIP3    H248328   3.373   6.854   4.273 -3.2130  0.2899 -0.2940
 8045TIP3   OH248329   0.357   4.370   4.065 -1.2095 -0.3715 -0.0195
 8045TIP3    H148330   0.406   4.449   4.091 -1.2972  0.2498 -1.6438
 8045TIP3    H248331   0.266   4.392   4.084 -1.1330 -0.5135  0.5381
 8046TIP3   OH248332   4.240   1.567   3.910 -0.4249 -0.3549 -0.4145
 8046TIP3    H148333   4.177   1.639   3.903 -1.8224 -1.3098  1.2954
 8046TIP3    H248334   4.225   1.514   3.832 -1.3392 -0.2336 -0.3365
 8047TIP3   OH248335   2.842   1.305   4.404  0.6399  0.3189 -0.4768
 8047TIP3    H148336   2.859   1.212   4.387  0.4946 -0.2692  2.1728
 8047TIP3    H248337   2.913   1.333   4.462  1.7478  2.4587 -2.6674
 8048TIP3   OH248338   3.277   1.328   3.102 -0.4461  0.2713  0.7026
 8048TIP3    H148339   3.203   1.308   3.160 -0.4432  0.6245  0.8335
 8048TIP3    H248340   3.242   1.317   3.014 -0.1552 -1.3391  0.7608
 8049TIP3   OH248341   5.698   1.599   2.883  0.2564 -0.0215 -0.3175
 8049TIP3    H148342   5.735   1.611   2.795  0.2244  1.8138 -0.1214
 8049TIP3    H248343   5.632   1.667   2.891  1.1979  0.7494  1.6119
 8050TIP3   OH248344   1.670   2.591   2.620 -0.7271 -0.2066  1.4963
 8050TIP3    H148345   1.597   2.651   2.610 -0.9360 -0.7161 -0.3463
 8050TIP3    H248346   1.740   2.644   2.659 -1.5604  0.6675  1.8283
 8051TIP3   OH248347   0.940   0.036   3.351  0.1774 -0.4270  0.5735
 8051TIP3    H148348   0.948  -0.055   3.322 -2.9764 -0.5479 -0.3521
 8051TIP3    H248349   0.944   0.031   3.446  1.1331 -1.3528  0.5140
 8052TIP3   OH248350   0.789   0.676   3.297  0.0826 -0.1987  0.0324
 8052TIP3    H148351   0.730   0.600   3.305  1.1394 -0.9220  1.3437
 8052TIP3    H248352   0.785   0.718   3.383  1.4747 -0.2571  0.1415
 8053TIP3   OH248353   4.499   5.849   3.099 -0.1284  0.4269 -0.3594
 8053TIP3    H148354   4.550   5.802   3.032 -1.5311 -0.5579 -0.7906
 8053TIP3    H248355   4.489   5.785   3.170  0.8328  1.2650  0.5690
 8054TIP3   OH248356   2.785   6.715   3.706 -0.1639 -0.1825 -0.5700
 8054TIP3    H148357   2.696   6.686   3.725  0.2954 -0.2854  1.6175
 8054TIP3    H248358   2.839   6.674   3.773  0.9925  2.8394  0.5087
 8055TIP3   OH248359   4.305   6.800   2.546 -0.1887  0.1619  0.0335
 8055TIP3    H148360   4.318   6.714   2.506 -0.9822  0.7628 -1.6412
 8055TIP3    H248361   4.392   6.840   2.545  0.5764 -1.2506  2.5477
 8056TIP3   OH248362   1.030   2.037   3.605  0.2606  0.7150 -0.0035
 8056TIP3    H148363   1.003   2.104   3.669  1.3664  0.3708  0.8570
 8056TIP3    H248364   0.954   2.027   3.548 -0.7940  0.9988  1.2905
 8057TIP3   OH248365   3.265   2.949   2.570 -0.2350 -0.0428  0.2167
 8057TIP3    H148366   3.277   2.863   2.611 -0.1579  0.0789  0.4523
 8057TIP3    H248367   3.353   2.986   2.565 -0.1284 -0.4283 -0.8883
 8058TIP3   OH248368   2.296   0.088   2.434 -0.0878 -0.4557 -0.2885
 8058TIP3    H148369   2.374   0.099   2.380  1.6987  0.0699  2.2359
 8058TIP3    H248370   2.262   0.002   2.411  2.2469 -1.4481 -0.2549
 8059TIP3   OH248371   1.723   1.548   3.183  0.6018  0.1600  0.2156
 8059TIP3    H148372   1.684   1.474   3.137  0.3120  0.9788 -0.9096
 8059TIP3    H248373   1.723   1.619   3.118  0.7296  1.1821  1.2993
 8060TIP3   OH248374   2.819   2.904   2.058 -0.0960  0.4248 -0.3024
 8060TIP3    H148375   2.779   2.984   2.023 -0.5617  0.3943  0.1461
 8060TIP3    H248376   2.754   2.870   2.119  0.0818 -0.3288 -0.5294
 8061TIP3   OH248377   5.244   1.227   3.627 -0.4147  0.2352  0.0281
 8061TIP3    H148378   5.160   1.263   3.654 -0.6985 -0.3427 -0.0681
 8061TIP3    H248379   5.243   1.233   3.531 -0.9207 -0.9911 -0.0632
 8062TIP3   OH248380   1.094   4.765   4.447 -0.1156 -0.0918 -0.3392
 8062TIP3    H148381   1.174   4.769   4.499  0.6536 -3.6619 -1.0037
 8062TIP3    H248382   1.124   4.773   4.356 -0.6280 -0.3453 -0.5376
 8063TIP3   OH248383   1.088   1.025   4.831 -0.6076 -0.8107  0.7177
 8063TIP3    H148384   1.132   0.992   4.910  0.3354 -0.3178  0.4102
 8063TIP3    H248385   1.156   1.073   4.784 -1.5561  0.2750  0.3951
 8064TIP3   OH248386   4.755   2.999   3.035 -0.0658 -0.0099  0.1475
 8064TIP3    H148387   4.761   3.086   2.996 -0.0209 -0.7165 -1.4745
 8064TIP3    H248388   4.661   2.983   3.043 -0.0803 -0.1088 -0.2288
 8065TIP3   OH248389   3.758   0.531   5.193 -0.1813 -0.3967  0.3766
 8065TIP3    H148390   3.846   0.510   5.223  0.5920  2.8284  0.7566
 8065TIP3    H248391   3.741   0.619   5.227 -3.6138 -0.9022  0.3637
 8066TIP3   OH248392   4.798   5.320   3.633 -0.1591 -0.3017  0.3476
 8066TIP3    H148393   4.752   5.334   3.715  1.3167 -3.2114  1.8551
 8066TIP3    H248394   4.769   5.233   3.604  1.7811 -0.7482 -0.4152
 8067TIP3   OH248395   3.851   4.676   2.905 -0.0241  0.0686 -0.5767
 8067TIP3    H148396   3.853   4.660   2.810 -0.7221 -3.1782 -0.1845
 8067TIP3    H248397   3.760   4.696   2.924  0.4634  2.7843 -0.7596
 8068TIP3   OH248398   2.290   4.534   2.441 -0.2458  1.2349 -0.5257
 8068TIP3    H148399   2.210   4.498   2.404  0.0655 -2.1560  1.6306
 8068TIP3    H248400   2.361   4.492   2.391  0.1303 -0.8868  1.6320
 8069TIP3   OH248401   0.897   2.498   2.504 -0.5825 -0.1369  0.0699
 8069TIP3    H148402   0.877   2.408   2.478 -2.0187 -0.2293  1.3206
 8069TIP3    H248403   0.811   2.537   2.521  0.0761  0.2082  3.4479
 8070TIP3   OH248404   6.759   4.411   3.951 -0.7027 -0.0185 -0.4371
 8070TIP3    H148405   6.673   4.370   3.955 -0.5398 -0.5847 -1.9510
 8070TIP3    H248406   6.808   4.357   3.889  1.0063 -0.1412  0.9408
 8071TIP3   OH248407   3.011   0.965   4.569  0.1648  0.2206  0.4691
 8071TIP3    H148408   3.015   0.883   4.618 -3.4508 -1.0730 -1.0408
 8071TIP3    H248409   2.982   1.030   4.634  2.0161  0.1422  1.4335
 8072TIP3   OH248410   0.831   6.084   3.968 -0.6680  0.0094 -0.5360
 8072TIP3    H148411   0.759   6.021   3.978  0.3912 -1.0651  0.6538
 8072TIP3    H248412   0.806   6.158   4.024 -0.7635 -0.4563  0.0512
 8073TIP3   OH248413   5.929   4.076   3.720  0.2851  0.0191 -0.2377
 8073TIP3    H148414   5.898   4.125   3.645 -1.2316 -0.3815  0.0894
 8073TIP3    H248415   5.923   3.984   3.694 -1.1320 -0.1772  0.6317
 8074TIP3   OH248416   4.895   0.321   5.660 -0.9365 -0.1950 -0.2612
 8074TIP3    H148417   4.864   0.253   5.601 -0.9640 -0.7336  0.3619
 8074TIP3    H248418   4.958   0.372   5.608  0.2951 -1.6725 -0.2931
 8075TIP3   OH248419   6.824   0.037   3.727  0.3223 -0.2411  0.1282
 8075TIP3    H148420   6.802   0.119   3.769  1.8836  0.6016 -0.6110
 8075TIP3    H248421   6.781   0.042   3.641  2.1897  0.8205 -0.7924
 8076TIP3   OH248422   2.635   5.914   2.979 -0.5715  0.1123  0.5676
 8076TIP3    H148423   2.725   5.949   2.983 -0.5481  0.0560  0.5344
 8076TIP3    H248424   2.642   5.836   2.924 -0.6575  0.1580  0.4917
 8077TIP3   OH248425   6.030   3.710   5.210  0.2477  0.6486 -0.1202
 8077TIP3    H148426   6.056   3.655   5.284 -1.5409  0.7309  0.6145
 8077TIP3    H248427   6.033   3.653   5.134  0.3544  0.0722  0.3135
 8078TIP3   OH248428   5.054   4.676   3.653  0.4628  0.5710  0.0619
 8078TIP3    H148429   5.132   4.659   3.706 -0.3683  0.5256  1.3006
 8078TIP3    H248430   5.001   4.597   3.661 -0.3522  1.1345  0.3901
 8079TIP3   OH248431   4.067   2.300   3.782  0.0180  0.2265  0.2321
 8079TIP3    H148432   4.134   2.237   3.754 -0.7169 -0.2392 -0.5382
 8079TIP3    H248433   4.116   2.375   3.814  0.9173 -0.6778  1.0179
 8080TIP3   OH248434   4.554   4.236   3.257 -0.2482  0.2469 -0.0442
 8080TIP3    H148435   4.565   4.142   3.247  0.2693  0.2922  0.0699
 8080TIP3    H248436   4.463   4.247   3.285  0.4294 -0.4312  2.6902
 8081TIP3   OH248437   6.459   6.548   2.777 -0.0071  0.1130 -0.0438
 8081TIP3    H148438   6.374   6.590   2.767 -0.0155  0.6003  1.7179
 8081TIP3    H248439   6.496   6.587   2.857  0.0799 -3.0309  1.6098
 8082TIP3   OH248440   4.654   0.521   2.471  0.1104  0.0390 -0.0283
 8082TIP3    H148441   4.720   0.586   2.446 -0.7945  0.5202 -1.2789
 8082TIP3    H248442   4.573   0.554   2.433 -0.6375 -1.1411  0.4844
 8083TIP3   OH248443   6.044   0.684   4.643  0.0176 -0.5155  0.1747
 8083TIP3    H148444   5.976   0.616   4.642 -0.5353  0.0420 -0.7334
 8083TIP3    H248445   6.005   0.755   4.695 -1.1078  0.7802 -2.2794
 8084TIP3   OH248446   6.516   6.458   4.420  0.2998 -0.2270  0.7770
 8084TIP3    H148447   6.555   6.409   4.492  0.3783  0.6279  1.3241
 8084TIP3    H248448   6.557   6.421   4.341  2.6291  0.9462  1.3538
 8085TIP3   OH248449   5.576   4.990   4.068 -0.6262 -0.5510  0.5775
 8085TIP3    H148450   5.611   4.902   4.058  0.5461 -0.1480  0.9676
 8085TIP3    H248451   5.544   5.013   3.980 -1.3152 -1.5020  0.5706
 8086TIP3   OH248452   0.694   3.260   3.116  0.8890 -0.0061 -0.3154
 8086TIP3    H148453   0.666   3.325   3.052  1.0020  1.4369  1.0423
 8086TIP3    H248454   0.628   3.190   3.111  1.0024 -0.0213 -2.0959
 8087TIP3   OH248455   6.531   6.823   3.959  0.2668  0.6372  0.1546
 8087TIP3    H148456   6.503   6.732   3.974 -1.5329  1.0906 -0.2644
 8087TIP3    H248457   6.487   6.873   4.027  2.0327  1.1294  1.0062
 8088TIP3   OH248458   2.213   3.376   2.062  0.2410  0.3436  0.1153
 8088TIP3    H148459   2.126   3.381   2.023 -0.1542 -0.7919  0.7839
 8088TIP3    H248460   2.199   3.328   2.144  1.2309  1.6591  1.0855
 8089TIP3   OH248461   1.833   6.469   3.683 -0.1596 -0.6520  0.5066
 8089TIP3    H148462   1.838   6.537   3.615  0.1671 -1.0629  0.1165
 8089TIP3    H248463   1.742   6.439   3.679  0.0214 -1.1440 -0.2237
 8090TIP3   OH248464   0.149   0.762   4.532 -0.0760  0.1488  0.2366
 8090TIP3    H148465   0.178   0.701   4.600  1.2115  0.8418  0.3330
 8090TIP3    H248466   0.229   0.787   4.485 -0.5000  2.0402  0.4232
 8091TIP3   OH248467   6.372   5.856   3.739  0.2157 -0.3727  0.3116
 8091TIP3    H148468   6.336   5.802   3.669  0.0836 -0.0981  0.1665
 8091TIP3    H248469   6.320   5.936   3.737  0.4667 -0.2027  0.4674
 8092TIP3   OH248470   6.611   3.245   3.143 -0.0868 -0.4788 -0.7111
 8092TIP3    H148471   6.656   3.262   3.060 -0.7620 -2.8821 -1.6566
 8092TIP3    H248472   6.650   3.163   3.175  0.4613  0.6067  1.6183
 8093TIP3   OH248473   5.561   3.590   5.345  0.5105 -0.3720 -0.0076
 8093TIP3    H148474   5.616   3.577   5.268  0.2255 -0.1568 -0.2491
 8093TIP3    H248475   5.493   3.523   5.338  0.3672 -0.2248 -0.0538
 8094TIP3   OH248476   2.991   3.999   2.949  0.1901  1.4073  0.0599
 8094TIP3    H148477   3.074   3.969   2.987 -0.0009 -0.4119 -0.8283
 8094TIP3    H248478   2.924   3.962   3.006 -0.0259  1.6646 -0.0303
 8095TIP3   OH248479   2.723   2.743   4.143  0.0477 -0.2815 -0.5675
 8095TIP3    H148480   2.734   2.801   4.218 -1.6862  0.1507 -0.6021
 8095TIP3    H248481   2.754   2.794   4.068 -0.5403  0.2457 -0.4618
 8096TIP3   OH248482   3.472   6.433   2.687  0.1471 -0.4100 -0.3243
 8096TIP3    H148483   3.450   6.526   2.675 -0.3334 -0.4875 -0.0648
 8096TIP3    H248484   3.419   6.405   2.761  0.2541 -0.9105 -0.4326
 8097TIP3   OH248485   0.593   2.596   3.630 -0.2085  0.3732  0.6256
 8097TIP3    H148486   0.575   2.652   3.555  1.3882  0.3559  0.1900
 8097TIP3    H248487   0.573   2.651   3.706 -0.2134  0.9849  0.1888
 8098TIP3   OH248488   5.979   2.010   2.257  0.2774 -0.2738  0.1675
 8098TIP3    H148489   6.039   1.985   2.186 -0.8007 -1.3287 -0.3950
 8098TIP3    H248490   5.905   2.050   2.212 -0.2340 -0.5723  0.7378
 8099TIP3   OH248491   1.930   4.898   2.728 -0.0835 -0.2061  0.3471
 8099TIP3    H148492   1.877   4.881   2.651  0.0117 -2.0077  0.6507
 8099TIP3    H248493   2.011   4.851   2.713  0.4878  0.5455  0.9618
 8100TIP3   OH248494   2.831   1.710   2.029 -0.4424 -0.4217  0.0739
 8100TIP3    H148495   2.739   1.710   2.054 -0.2559  0.6937  0.8405
 8100TIP3    H248496   2.843   1.789   1.977  0.2105 -0.2184  0.5164
 8101TIP3   OH248497   4.972   5.947   4.328 -0.0960  0.1235 -0.2450
 8101TIP3    H148498   4.990   5.863   4.371  1.3678  1.1113  1.1895
 8101TIP3    H248499   5.058   5.983   4.309 -0.6895  0.2201 -3.2107
 8102TIP3   OH248500   6.687   5.321   2.773  0.0776  0.1590 -0.1420
 8102TIP3    H148501   6.750   5.285   2.711 -0.3103 -0.2674 -0.2909
 8102TIP3    H248502   6.734   5.394   2.815  0.7631 -0.3183 -0.0596
 8103TIP3   OH248503   2.187   2.457   3.482  0.3586 -0.1403  0.0448
 8103TIP3    H148504   2.244   2.466   3.559 -1.0030  1.3224  0.9459
 8103TIP3    H248505   2.247   2.463   3.408  1.4653  0.8129  0.9635
 8104TIP3   OH248506   2.365   1.927   2.761 -0.1638 -0.0290 -0.4708
 8104TIP3    H148507   2.284   1.974   2.782 -0.7546  0.3428 -3.1383
 8104TIP3    H248508   2.335   1.844   2.723  0.7899 -0.8364  0.4781
 8105TIP3   OH248509   6.377   6.126   5.175  0.1908 -0.0933 -0.5478
 8105TIP3    H148510   6.468   6.106   5.154 -0.3012 -0.3157 -2.6293
 8105TIP3    H248511   6.379   6.217   5.205  1.2709 -0.5438  0.8482
 8106TIP3   OH248512   2.469   2.533   3.054 -0.4637  0.2216  0.6880
 8106TIP3    H148513   2.377   2.556   3.066 -0.7070 -0.1928 -0.2580
 8106TIP3    H248514   2.505   2.607   3.005 -0.5374 -0.0405  0.2247
 8107TIP3   OH248515   3.931   6.403   2.981  0.2232 -0.7538  0.2001
 8107TIP3    H148516   3.997   6.364   3.037  0.4881 -1.1884 -0.3950
 8107TIP3    H248517   3.978   6.469   2.930  0.4270 -1.6807 -0.8704
 8108TIP3   OH248518   2.046   6.310   4.159  0.6210  0.0805  0.4631
 8108TIP3    H148519   2.063   6.217   4.151  0.1581  0.1266 -1.6834
 8108TIP3    H248520   2.131   6.352   4.148  0.4906 -0.0347 -1.3917
 8109TIP3   OH248521   5.143   6.227   3.818  0.0841  0.5359 -0.1017
 8109TIP3    H148522   5.087   6.224   3.895 -0.7481  0.0628 -0.7095
 8109TIP3    H248523   5.087   6.199   3.746  1.2589 -0.6050 -0.6238
 8110TIP3   OH248524   3.655   5.128   2.555 -0.2047 -0.5244 -0.5463
 8110TIP3    H148525   3.708   5.177   2.493 -1.1471 -0.4847 -1.3643
 8110TIP3    H248526   3.706   5.126   2.636  0.6199  0.2687 -1.0326
 8111TIP3   OH248527   6.464   3.288   2.136 -0.4044 -0.4629 -0.1270
 8111TIP3    H148528   6.383   3.282   2.084 -0.2439  0.1571 -0.4605
 8111TIP3    H248529   6.456   3.217   2.200 -1.5332  0.0135  0.2983
 8112TIP3   OH248530   0.828   2.556   2.183 -0.2071 -0.2171 -0.0085
 8112TIP3    H148531   0.781   2.500   2.245 -2.9506  0.1960 -1.5567
 8112TIP3    H248532   0.759   2.606   2.139  1.9828  3.6792  0.5277
 8113TIP3   OH248533   1.233   5.439   3.642  0.2153  0.4577 -0.4447
 8113TIP3    H148534   1.320   5.475   3.655  0.5418 -0.5007  0.1529
 8113TIP3    H248535   1.248   5.345   3.627 -0.5712  0.5764 -2.2791
 8114TIP3   OH248536   4.920   0.950   3.389  0.3965  0.1148  0.0983
 8114TIP3    H148537   4.928   0.990   3.475  3.8715 -0.1027  0.0279
 8114TIP3    H248538   4.839   0.900   3.393  0.2781  0.3747  3.1438
 8115TIP3   OH248539   4.461   3.204   2.614 -0.0837  0.3482 -0.3844
 8115TIP3    H148540   4.410   3.127   2.639 -0.4476  0.8058  0.2988
 8115TIP3    H248541   4.503   3.179   2.532  0.2357 -0.7709  0.1113
 8116TIP3   OH248542   5.563   2.938   4.701 -0.5968 -0.1492 -0.2938
 8116TIP3    H148543   5.489   2.959   4.645  0.3348 -0.2556 -1.5999
 8116TIP3    H248544   5.548   2.847   4.727 -0.5490 -0.4187 -1.1752
 8117TIP3   OH248545   5.170   0.785   3.434 -0.5621  0.5152 -0.5445
 8117TIP3    H148546   5.082   0.820   3.419 -0.6655  0.5801  0.1736
 8117TIP3    H248547   5.158   0.717   3.500  0.0573  1.1842  0.2802
 8118TIP3   OH248548   1.084   6.104   3.007 -0.0630 -0.1097  0.0984
 8118TIP3    H148549   1.176   6.079   3.007 -0.0769 -0.3020  1.7461
 8118TIP3    H248550   1.083   6.197   2.987  0.4979 -0.0978  0.1294
 8119TIP3   OH248551   6.186   2.335   3.266  0.2689 -0.3195  0.2482
 8119TIP3    H148552   6.171   2.263   3.327  1.5982  0.2322  1.2761
 8119TIP3    H248553   6.254   2.388   3.308 -0.3931  1.3224 -0.6753
 8120TIP3   OH248554   2.402   4.013   5.276  0.7269  0.4525  0.5198
 8120TIP3    H148555   2.393   4.083   5.210  0.5930  1.0530  1.1622
 8120TIP3    H248556   2.384   3.932   5.227  2.5396  0.6776 -0.6268
 8121TIP3   OH248557   1.086   5.913   4.043 -0.4810  0.5018  0.7538
 8121TIP3    H148558   1.011   5.951   3.997  1.1541  1.5116 -1.2223
 8121TIP3    H248559   1.118   5.984   4.099  0.0930  0.6978  0.1883
 8122TIP3   OH248560   5.498   5.027  10.638 -0.1416 -0.0620  0.1876
 8122TIP3    H148561   5.464   5.099  10.691 -1.5207 -1.3477  1.1390
 8122TIP3    H248562   5.484   5.056  10.548 -1.7253  0.4349  0.5499
 8123TIP3   OH248563   6.642   3.559   3.059  0.1605 -0.2413  0.1595
 8123TIP3    H148564   6.725   3.607   3.062  0.0338  0.0382 -0.7197
 8123TIP3    H248565   6.620   3.544   3.151  0.5314  0.8069  0.4320
 8124TIP3   OH248566   6.054   6.078   3.509  0.0083 -0.1893 -0.6252
 8124TIP3    H148567   6.043   6.037   3.423 -0.4600  2.1475 -1.7588
 8124TIP3    H248568   5.983   6.142   3.514  0.9813  0.8337  0.8337
 8125TIP3   OH248569   6.189   5.067   2.205  0.0026 -0.1792  0.4109
 8125TIP3    H148570   6.236   4.989   2.236 -0.8696 -0.8947 -0.0202
 8125TIP3    H248571   6.100   5.036   2.190  0.1036  0.4300 -1.6377
 8126TIP3   OH248572   4.757   1.668   4.681  0.5400 -0.5065 -0.0131
 8126TIP3    H148573   4.746   1.744   4.738 -0.1184  0.4773 -1.3719
 8126TIP3    H248574   4.754   1.592   4.740 -2.3585  0.3107  1.0936
 8127TIP3   OH248575   3.707   5.356   4.511 -0.5968 -0.4952 -0.6071
 8127TIP3    H148576   3.740   5.443   4.491 -2.2536  0.3195  0.0379
 8127TIP3    H248577   3.744   5.300   4.443  0.2428  0.7630 -1.2129
 8128TIP3   OH248578   6.474   5.300   3.395  0.5216  0.5544 -0.5184
 8128TIP3    H148579   6.552   5.258   3.431  1.2525  2.1321 -0.1829
 8128TIP3    H248580   6.462   5.378   3.449 -1.6434  0.0587 -0.2053
 8129TIP3   OH248581   2.264   5.845   3.457 -0.7838 -0.4372  0.0144
 8129TIP3    H148582   2.273   5.780   3.388 -0.8599  0.7495 -1.1646
 8129TIP3    H248583   2.327   5.913   3.434 -1.9317  0.7340  0.2010
 8130TIP3   OH248584   4.442   6.698   4.402  0.1947 -0.0822  0.5019
 8130TIP3    H148585   4.443   6.603   4.409 -1.7460 -0.5689 -3.2722
 8130TIP3    H248586   4.349   6.721   4.399  0.6214  1.9247  0.9428
 8131TIP3   OH248587   3.549   4.049   2.977 -0.4760  0.6326 -0.1408
 8131TIP3    H148588   3.628   4.021   3.023 -0.8618 -1.0341 -0.4280
 8131TIP3    H248589   3.551   4.001   2.894 -1.2480  1.4004 -0.6219
 8132TIP3   OH248590   2.470   1.081   3.963 -0.0353  0.1632 -0.3791
 8132TIP3    H148591   2.529   1.011   3.935 -0.2000  0.1559 -0.7130
 8132TIP3    H248592   2.484   1.088   4.057  1.3635  0.9529 -0.6265
 8133TIP3   OH248593   5.007   2.881   3.079 -0.0573  0.3189 -0.4908
 8133TIP3    H148594   5.094   2.920   3.065  0.3784 -0.7801 -0.9272
 8133TIP3    H248595   4.946   2.954   3.069  0.6214  0.6294 -2.8810
 8134TIP3   OH248596   0.621   2.203  10.224  0.6654  0.5385 -0.1104
 8134TIP3    H148597   0.623   2.190  10.129  1.9396 -0.5565  0.0387
 8134TIP3    H248598   0.701   2.162  10.256  1.6044  3.1640  1.1957
 8135TIP3   OH248599   1.455   5.610   3.785  0.2103  0.0395 -0.0477
 8135TIP3    H148600   1.488   5.539   3.840  1.2341  0.4376 -0.1188
 8135TIP3    H248601   1.388   5.653   3.839  0.3092 -0.3530  0.3887
 8136TIP3   OH248602   0.058   2.001   2.101 -0.4134 -0.0987 -0.6152
 8136TIP3    H148603   0.089   2.031   2.016  1.0866  0.8734  0.2359
 8136TIP3    H248604   0.025   2.079   2.144 -0.5765 -0.4720 -0.0464
 8137TIP3   OH248605   1.902   4.596   2.569  0.2640  0.8246  0.1143
 8137TIP3    H148606   1.831   4.659   2.561  0.1880  0.7237 -0.0279
 8137TIP3    H248607   1.946   4.619   2.650 -0.4102  0.3965  0.6121
 8138TIP3   OH248608   1.121   5.690   3.639  0.3575  0.2489  0.2759
 8138TIP3    H148609   1.158   5.606   3.667  0.2562 -0.2874 -1.1291
 8138TIP3    H248610   1.197   5.749   3.636  0.2524  0.5626  2.4071
 8139TIP3   OH248611   5.295   4.075   4.598  0.2025 -0.0745 -0.1944
 8139TIP3    H148612   5.244   4.049   4.674  1.3899  2.0353  1.4308
 8139TIP3    H248613   5.282   4.169   4.591  0.6996 -0.1126 -2.1931
 8140TIP3   OH248614   0.354   6.756   3.362  0.3342 -0.4768  0.1226
 8140TIP3    H148615   0.308   6.834   3.330  0.7867 -0.0162  0.5630
 8140TIP3    H248616   0.446   6.773   3.342  0.2955 -1.6183 -1.2270
 8141TIP3   OH248617   6.820   5.294   3.668 -0.6133 -0.6003  0.1788
 8141TIP3    H148618   6.816   5.369   3.608  0.5503  0.2615  1.1198
 8141TIP3    H248619   6.736   5.294   3.713 -0.8794 -0.2832 -0.3103
 8142TIP3   OH248620   6.264   2.366   5.442 -0.4369  0.5736 -0.3801
 8142TIP3    H148621   6.170   2.383   5.443 -0.7662 -1.0905 -0.2036
 8142TIP3    H248622   6.298   2.412   5.519 -1.0039  1.6274 -0.7438
 8143TIP3   OH248623   1.153   4.428   4.216  0.1081 -0.1164 -0.3222
 8143TIP3    H148624   1.121   4.381   4.293 -0.3164  0.1948 -0.3091
 8143TIP3    H248625   1.236   4.385   4.195  0.6720  0.3452  0.8342
 8144TIP3   OH248626   6.154   2.146   3.488  0.0891  0.5523  0.2362
 8144TIP3    H148627   6.078   2.190   3.527  1.1205  0.6411  2.2584
 8144TIP3    H248628   6.230   2.189   3.527  1.2429  0.8496 -2.1861
 8145TIP3   OH248629   2.025   0.343   5.171  0.0261  0.4477 -0.0102
 8145TIP3    H148630   1.981   0.363   5.089  3.2018 -2.5888 -2.7577
 8145TIP3    H248631   2.093   0.411   5.179 -1.5451  1.9621  1.3774
 8146TIP3   OH248632   0.425   3.603   2.343 -0.5674  0.2126 -0.4700
 8146TIP3    H148633   0.521   3.608   2.336 -0.5046 -0.3622 -0.0704
 8146TIP3    H248634   0.394   3.674   2.287  0.1156  1.2001  0.3800
 8147TIP3   OH248635   3.001   5.572   3.579 -0.1825  0.2846  0.2629
 8147TIP3    H148636   2.940   5.592   3.508 -2.9513 -0.9685  2.1183
 8147TIP3    H248637   3.016   5.656   3.622  0.1861  0.7679 -0.7819
 8148TIP3   OH248638   0.522   4.630   4.584  0.2172 -0.6126  0.1076
 8148TIP3    H148639   0.579   4.584   4.646  1.0779 -0.3078 -0.4391
 8148TIP3    H248640   0.566   4.713   4.568  0.0733 -0.7363 -1.0007
 8149TIP3   OH248641   0.720   1.372   4.483  0.4454 -0.4505 -0.1195
 8149TIP3    H148642   0.716   1.463   4.510 -0.6149 -0.4679 -0.1967
 8149TIP3    H248643   0.694   1.373   4.390 -0.0485 -0.8823  0.0106
 8150TIP3   OH248644   0.695   0.831   2.715 -0.3316  0.2512  0.2057
 8150TIP3    H148645   0.664   0.811   2.803  0.9206 -0.3278  0.5322
 8150TIP3    H248646   0.615   0.830   2.661 -1.1945  1.1556  1.3999
 8151TIP3   OH248647   5.788   3.364   2.797 -0.0127  0.1736 -0.0030
 8151TIP3    H148648   5.713   3.327   2.752  0.8429  0.3250 -1.6544
 8151TIP3    H248649   5.751   3.429   2.857 -1.2219 -0.2989 -0.2093
 8152TIP3   OH248650   2.273   3.038   3.956 -0.1911 -0.1651  0.1323
 8152TIP3    H148651   2.273   3.056   4.050 -0.8119 -0.7936  0.2627
 8152TIP3    H248652   2.182   3.021   3.935  0.0597 -0.8942 -0.4139
 8153TIP3   OH248653   0.022   2.095   4.116 -0.0467 -0.4404  0.4223
 8153TIP3    H148654   0.060   2.181   4.100  0.4133 -0.6015  0.6228
 8153TIP3    H248655   0.056   2.039   4.047 -0.3369 -0.4659  0.2972
 8154TIP3   OH248656   6.660   0.998   4.311  0.5337 -0.1095 -0.1418
 8154TIP3    H148657   6.705   0.943   4.375  0.4845  1.2390  1.1020
 8154TIP3    H248658   6.570   0.967   4.312  0.9675 -1.5126 -1.1889
 8155TIP3   OH248659   6.411   3.695   4.516 -0.2223  0.0799 -0.0395
 8155TIP3    H148660   6.428   3.784   4.546 -0.7198 -0.1300  0.9135
 8155TIP3    H248661   6.348   3.659   4.580 -2.3760  0.0296 -2.0268
 8156TIP3   OH248662   6.209   2.764   2.122  0.2054 -0.0628  0.0483
 8156TIP3    H148663   6.273   2.759   2.193  0.8581  0.2395 -0.5145
 8156TIP3    H248664   6.212   2.678   2.080  0.9682  0.2741 -0.5990
 8157TIP3   OH248665   2.248   6.826   4.507  0.1216 -0.8755 -0.7081
 8157TIP3    H148666   2.192   6.757   4.471 -2.1040  1.3103 -1.7694
 8157TIP3    H248667   2.310   6.846   4.436 -1.1614  0.1574 -1.5948
 8158TIP3   OH248668   0.787   2.341   2.982  0.0300 -0.1421 -0.1874
 8158TIP3    H148669   0.708   2.395   2.984  0.3174  0.3485 -1.2665
 8158TIP3    H248670   0.849   2.391   2.930  1.3256 -0.1792  1.2365
 8159TIP3   OH248671   1.917   5.867   4.550  0.4506  0.4788 -0.1476
 8159TIP3    H148672   1.825   5.867   4.576  1.0949 -1.6516  2.7043
 8159TIP3    H248673   1.926   5.940   4.489 -3.6022 -0.7053 -2.5275
 8160TIP3   OH248674   3.477   6.305   3.850  0.0410 -0.3652  0.2351
 8160TIP3    H148675   3.443   6.241   3.788  0.7994 -1.3145  0.7759
 8160TIP3    H248676   3.494   6.383   3.797 -1.4438 -0.3872 -0.3223
 8161TIP3   OH248677   4.543   1.533   2.598 -0.0264 -0.1869  0.6642
 8161TIP3    H148678   4.454   1.497   2.600 -0.0150 -0.2012  0.9163
 8161TIP3    H248679   4.547   1.593   2.672  1.1743 -2.5914  2.7270
 8162TIP3   OH248680   4.594   5.368   2.700 -0.3410  0.5348  0.2386
 8162TIP3    H148681   4.616   5.274   2.702 -1.5775  0.1787 -1.1273
 8162TIP3    H248682   4.677   5.411   2.679 -0.0734 -0.3887 -0.6926
 8163TIP3   OH248683   0.747   3.314   4.507  0.5586  0.4069 -0.5163
 8163TIP3    H148684   0.721   3.289   4.596  0.5704 -2.2413 -1.1545
 8163TIP3    H248685   0.665   3.316   4.458  0.7478 -0.1276 -0.8583
 8164TIP3   OH248686   2.780   3.866   3.453  0.6446  0.6323  0.1922
 8164TIP3    H148687   2.850   3.814   3.495 -1.1156 -1.9811  0.1315
 8164TIP3    H248688   2.722   3.890   3.525 -0.3488 -0.5307 -0.1818
 8165TIP3   OH248689   5.985   1.153   3.803  0.5871  0.1415 -0.4883
 8165TIP3    H148690   5.998   1.215   3.875  0.3179 -0.1533 -0.1799
 8165TIP3    H248691   6.045   1.183   3.734  0.5262  0.6894 -0.3112
 8166TIP3   OH248692   1.893   0.670   2.354 -0.1382 -0.6126  0.5781
 8166TIP3    H148693   1.885   0.623   2.271 -1.6408 -0.2439  0.4902
 8166TIP3    H248694   1.804   0.670   2.390  0.2589  0.2853  1.6026
 8167TIP3   OH248695   4.343   5.597   2.238 -0.1757  0.1371 -0.3684
 8167TIP3    H148696   4.315   5.508   2.221  0.9017 -0.0632 -1.2292
 8167TIP3    H248697   4.301   5.621   2.320  1.5997 -2.1106  1.3107
 8168TIP3   OH248698   4.929   6.352   2.913 -0.0818  0.0512 -0.3354
 8168TIP3    H148699   4.888   6.437   2.925 -2.0428 -0.9055  0.0389
 8168TIP3    H248700   5.020   6.366   2.938 -0.9742  1.3559  2.5401
 8169TIP3   OH248701   4.269   0.501   2.792  0.2530 -0.6053  0.3664
 8169TIP3    H148702   4.357   0.526   2.762  0.4589  0.1542  1.5331
 8169TIP3    H248703   4.210   0.536   2.726  0.7988 -0.7883 -0.2312
 8170TIP3   OH248704   1.783   6.568   3.998 -0.1742  0.3339  0.2337
 8170TIP3    H148705   1.704   6.618   3.979 -0.7561 -0.7988 -0.4835
 8170TIP3    H248706   1.803   6.524   3.915  1.2470  0.6357  0.3856
 8171TIP3   OH248707   3.514   0.562   5.747 -0.0768  0.0316 -0.3810
 8171TIP3    H148708   3.516   0.652   5.781  1.0799 -0.3643  0.6947
 8171TIP3    H248709   3.446   0.563   5.680 -1.2167  1.3108  0.7267
 8172TIP3   OH248710   1.802   0.022   2.401  0.3623 -0.3457  0.1867
 8172TIP3    H148711   1.816   0.010   2.495  0.7063 -1.1826  0.0339
 8172TIP3    H248712   1.723  -0.028   2.381  0.2687 -0.1415  0.0294
 8173TIP3   OH248713   2.406   5.753   3.876 -0.2822 -0.1391 -0.5697
 8173TIP3    H148714   2.419   5.675   3.929 -2.6621  0.6323  1.3399
 8173TIP3    H248715   2.339   5.728   3.812 -1.3827  0.3951  0.3351
 8174TIP3   OH248716   6.830   3.400   2.287 -0.0579  0.1379 -0.4298
 8174TIP3    H148717   6.827   3.324   2.229  1.2053 -0.1983 -0.0940
 8174TIP3    H248718   6.786   3.470   2.238 -0.7715 -0.6701 -0.9516
 8175TIP3   OH248719   3.710   6.636   4.712 -0.0569  0.2726  0.7361
 8175TIP3    H148720   3.641   6.591   4.663 -0.4136  0.3626  1.1533
 8175TIP3    H248721   3.667   6.712   4.751  0.1984  0.1501  1.2685
 8176TIP3   OH248722   4.174   5.357   5.412 -0.4885  0.1028 -0.1468
 8176TIP3    H148723   4.197   5.299   5.339 -0.6908 -0.3317  0.1294
 8176TIP3    H248724   4.239   5.337   5.479  2.6280  3.6603 -1.7207
 8177TIP3   OH248725   3.985   0.907   2.212 -0.0306 -0.1876 -0.2770
 8177TIP3    H148726   4.011   0.912   2.304 -0.4624  0.7888 -0.2031
 8177TIP3    H248727   3.979   0.998   2.184 -0.8559 -0.4582 -0.9983
 8178TIP3   OH248728   5.760   6.748   3.226 -0.5101 -0.1318  0.2874
 8178TIP3    H148729   5.702   6.816   3.192 -2.3126  0.2311  3.6871
 8178TIP3    H248730   5.746   6.673   3.167 -0.5157  1.5072 -1.9230
 8179TIP3   OH248731   0.452   3.313   3.607 -0.0684 -0.5189  0.2940
 8179TIP3    H148732   0.535   3.357   3.590 -0.8219  1.1174  0.5795
 8179TIP3    H248733   0.412   3.302   3.521  0.2500 -0.8807  0.1955
 8180TIP3   OH248734   1.840   0.867   4.054  0.6854  0.7452  0.3203
 8180TIP3    H148735   1.776   0.801   4.027  0.4210  1.2360 -0.2685
 8180TIP3    H248736   1.887   0.889   3.974  2.8919 -0.9499  1.0452
 8181TIP3   OH248737   5.493   5.682   3.435 -0.3071 -0.0035  0.3266
 8181TIP3    H148738   5.417   5.627   3.416 -0.1598  0.1685 -0.8786
 8181TIP3    H248739   5.500   5.682   3.530 -0.5255 -1.7805  0.3795
 8182TIP3   OH248740   1.139   3.708   2.258 -0.2261  0.5127  0.2426
 8182TIP3    H148741   1.173   3.795   2.278  0.4062 -0.2429  2.8048
 8182TIP3    H248742   1.044   3.718   2.268 -0.2834  1.1646 -0.7492
 8183TIP3   OH248743   1.547   1.522   4.318 -0.2773  0.5211 -0.4537
 8183TIP3    H148744   1.632   1.496   4.284  0.0306  0.8943  0.0105
 8183TIP3    H248745   1.503   1.565   4.245 -0.0506  0.3590 -0.6840
 8184TIP3   OH248746   6.628   1.331   4.563 -0.4996 -0.0808 -0.3141
 8184TIP3    H148747   6.623   1.241   4.595  0.8354  0.0777  0.4186
 8184TIP3    H248748   6.659   1.323   4.473  2.1848 -0.3046  0.5427
 8185TIP3   OH248749   6.402   2.122   4.856 -0.0955  0.3342  0.2593
 8185TIP3    H148750   6.460   2.045   4.858 -1.9579 -1.1888 -0.8149
 8185TIP3    H248751   6.323   2.091   4.812 -1.3810  2.5927  0.8378
 8186TIP3   OH248752   2.150   5.467   4.098 -0.4064  0.2880 -0.0491
 8186TIP3    H148753   2.129   5.447   4.189 -0.4050 -0.3608 -0.1841
 8186TIP3    H248754   2.112   5.553   4.082 -3.5917 -1.0707 -0.4713
 8187TIP3   OH248755   4.419   1.852   2.633 -0.2991  0.2669 -0.2169
 8187TIP3    H148756   4.354   1.846   2.702  0.3102 -1.6537  0.2562
 8187TIP3    H248757   4.394   1.784   2.570  1.4121 -0.7945  0.1641
 8188TIP3   OH248758   1.209   1.586   4.774 -0.2648  0.0281 -0.1511
 8188TIP3    H148759   1.171   1.528   4.707 -0.4361 -0.2349  0.1739
 8188TIP3    H248760   1.133   1.626   4.817 -0.1485  1.3334 -1.0904
 8189TIP3   OH248761   4.506   4.708   4.997  0.3160  0.1154  0.0962
 8189TIP3    H148762   4.508   4.693   5.091 -0.9388 -0.3075  0.0727
 8189TIP3    H248763   4.514   4.803   4.988  0.4242  0.1590  0.6200
 8190TIP3   OH248764   6.415   3.841   2.613 -0.4563 -0.3248  0.8593
 8190TIP3    H148765   6.366   3.759   2.621 -0.6509 -0.1646  1.2877
 8190TIP3    H248766   6.506   3.816   2.634 -0.4395 -0.5152  0.5715
 8191TIP3   OH248767   6.032   0.029   2.038  0.1329  0.7948  0.1063
 8191TIP3    H148768   5.994  -0.058   2.028 -0.0477  0.9538 -0.7279
 8191TIP3    H248769   5.987   0.067   2.114  1.6982 -0.5781  1.8078
 8192TIP3   OH248770   3.268   6.246   4.741  0.4917  0.6682  0.4476
 8192TIP3    H148771   3.175   6.247   4.717  0.7569  0.3224 -0.6832
 8192TIP3    H248772   3.291   6.153   4.743  0.7382  0.7386  1.0466
 8193TIP3   OH248773   2.738   0.377   3.619  0.8088 -0.1872  0.2336
 8193TIP3    H148774   2.650   0.412   3.604  0.4263 -1.0409  0.3924
 8193TIP3    H248775   2.724   0.282   3.627  1.7140 -0.3005  0.5142
 8194TIP3   OH248776   4.204   0.105   3.865  0.4258 -0.3142  0.6590
 8194TIP3    H148777   4.208   0.161   3.942 -3.1984 -3.6774  3.7930
 8194TIP3    H248778   4.133   0.141   3.812  1.9949  1.1940 -0.5337
 8195TIP3   OH248779   1.834   2.795   2.710  0.4096 -0.1410  0.0478
 8195TIP3    H148780   1.840   2.891   2.712  1.1056 -0.1884  0.3118
 8195TIP3    H248781   1.882   2.766   2.788 -0.3984 -0.6796  0.3592
 8196TIP3   OH248782   6.427   3.345   3.516 -0.2894 -0.4127 -0.0367
 8196TIP3    H148783   6.448   3.254   3.495  0.1071 -0.0816 -1.1795
 8196TIP3    H248784   6.341   3.341   3.558 -1.3591 -1.1493 -2.1297
 8197TIP3   OH248785   3.319   4.623   3.504  0.2086  0.3580  0.4557
 8197TIP3    H148786   3.283   4.535   3.509 -1.3045  0.8949 -0.5796
 8197TIP3    H248787   3.313   4.656   3.594  2.4791 -1.1758  1.2695
 8198TIP3   OH248788   4.532   2.068   3.272  0.6433  0.4343  0.2315
 8198TIP3    H148789   4.557   2.034   3.358  2.6598  0.6985 -0.1798
 8198TIP3    H248790   4.486   2.150   3.291 -1.9548 -1.1144  1.1196
 8199TIP3   OH248791   4.894   4.451   3.766 -0.0545  0.0219 -0.4537
 8199TIP3    H148792   4.806   4.430   3.736 -0.1697 -1.6567  0.8408
 8199TIP3    H248793   4.949   4.381   3.730 -0.1008 -1.6774  2.4450
 8200TIP3   OH248794   5.182   2.782   3.890  0.2990 -0.0659  0.2052
 8200TIP3    H148795   5.232   2.792   3.971 -0.4144  0.2049  0.6203
 8200TIP3    H248796   5.102   2.833   3.905  0.8363  1.2871 -1.2487
 8201TIP3   OH248797   1.826   0.111   3.400 -0.8765 -0.8749  0.1390
 8201TIP3    H148798   1.902   0.089   3.345  0.1454  2.2277  0.0878
 8201TIP3    H248799   1.865   0.143   3.482 -2.1882 -0.6475  0.6929
 8202TIP3   OH248800   4.884   5.377   3.894 -0.3267 -0.7245  0.4550
 8202TIP3    H148801   4.918   5.465   3.878 -3.1712  0.3900 -0.1373
 8202TIP3    H248802   4.897   5.331   3.812  0.8335 -0.7347  0.6391
 8203TIP3   OH248803   4.300   5.734   4.835  0.2319  0.5933  0.1148
 8203TIP3    H148804   4.271   5.825   4.839  0.4639  0.6483  0.6704
 8203TIP3    H248805   4.221   5.683   4.852  0.0252  0.6769 -0.5721
 8204TIP3   OH248806   2.687   4.151   3.490  0.0808 -0.1094  0.1789
 8204TIP3    H148807   2.765   4.113   3.449 -0.3207 -2.4933  1.4056
 8204TIP3    H248808   2.676   4.100   3.571 -1.5908  1.5318  1.0551
 8205TIP3   OH248809   5.523   2.565   4.472 -0.5543 -0.4658  0.0693
 8205TIP3    H148810   5.506   2.481   4.429 -2.9126  0.7741 -1.6006
 8205TIP3    H248811   5.605   2.595   4.433 -0.4902 -1.2686 -0.4466
 8206TIP3   OH248812   6.013   0.865   3.739 -0.0300 -0.1119  0.0736
 8206TIP3    H148813   6.021   0.957   3.763  1.8516 -0.8247  2.6206
 8206TIP3    H248814   6.066   0.856   3.660  2.7344  0.4181  1.7553
 8207TIP3   OH248815   4.806   3.341   3.582  0.0834 -0.0288 -0.7190
 8207TIP3    H148816   4.877   3.285   3.612  0.1152  0.8572  1.0484
 8207TIP3    H248817   4.728   3.306   3.626  0.0489  1.0364  0.1260
 8208TIP3   OH248818   5.059   3.903   4.276 -0.1142 -0.4467  0.2527
 8208TIP3    H148819   4.972   3.919   4.239 -0.0574 -0.1451  0.2493
 8208TIP3    H248820   5.119   3.947   4.217  0.2559 -2.4678 -0.9889
 8209TIP3   OH248821   4.291   1.147   2.464 -0.1306  0.0453 -0.3437
 8209TIP3    H148822   4.340   1.108   2.536  0.5353  0.1188 -0.7524
 8209TIP3    H248823   4.202   1.156   2.498  0.3908  1.0550  0.8694
 8210TIP3   OH248824   3.041   4.666   1.969  0.1851 -0.3178 -0.6122
 8210TIP3    H148825   2.960   4.714   1.950  0.8846  1.1335 -0.0894
 8210TIP3    H248826   3.039   4.651   2.063  1.4812  1.6645 -0.2049
 8211TIP3   OH248827   6.402   0.177   3.488 -0.1204  0.4744 -0.0285
 8211TIP3    H148828   6.307   0.175   3.476 -0.1631  1.3361  0.1228
 8211TIP3    H248829   6.436   0.216   3.408  0.0791  0.5052  0.0716
 8212TIP3   OH248830   2.496   0.230   3.802  0.0497  0.0712 -0.0161
 8212TIP3    H148831   2.457   0.292   3.864 -1.6930 -1.7382  0.8275
 8212TIP3    H248832   2.583   0.212   3.838 -0.7039 -0.4955  1.6450
 8213TIP3   OH248833   2.792   2.615   4.824 -0.1586 -0.4797  0.3144
 8213TIP3    H148834   2.748   2.654   4.899  1.0187 -0.6265  1.1126
 8213TIP3    H248835   2.793   2.684   4.758 -0.6998 -0.1538  0.6400
 8214TIP3   OH248836   5.190   0.220   2.032 -0.2245 -0.0281 -0.2502
 8214TIP3    H148837   5.277   0.194   2.003  0.4318 -0.7052  2.1165
 8214TIP3    H248838   5.193   0.316   2.033  0.3037 -0.0361 -0.6829
 8215TIP3   OH248839   1.522   1.272   2.695  0.5112  0.0010 -0.2414
 8215TIP3    H148840   1.504   1.343   2.634  0.7519  1.2640  1.0997
 8215TIP3    H248841   1.470   1.294   2.773 -1.1560 -2.4462 -0.5288
 8216TIP3   OH248842   6.252   2.491   2.086 -0.8008  0.1840 -0.3291
 8216TIP3    H148843   6.329   2.484   2.030 -1.3955 -0.9675 -1.0390
 8216TIP3    H248844   6.279   2.451   2.169  0.2069  2.2455  0.4057
 8217TIP3   OH248845   2.810   0.620   4.189  0.0383 -0.1146 -0.2384
 8217TIP3    H148846   2.837   0.536   4.150 -0.2490  0.6378 -2.1942
 8217TIP3    H248847   2.739   0.597   4.249  1.2407 -1.4685  0.7467
 8218TIP3   OH248848   1.514   0.634   3.014 -0.3930  0.5325  0.0582
 8218TIP3    H148849   1.609   0.639   3.026 -0.4320  1.9631 -0.0979
 8218TIP3    H248850   1.502   0.644   2.920 -0.6810 -0.2758  0.0002
 8219TIP3   OH248851   1.769   1.750   2.647 -0.5325  0.3711 -0.1746
 8219TIP3    H148852   1.716   1.829   2.654 -1.9949 -0.5000 -0.9178
 8219TIP3    H248853   1.830   1.768   2.575 -1.9948  0.2360 -1.5065
 8220TIP3   OH248854   1.402   3.702   2.937  0.2135 -0.0712  0.4364
 8220TIP3    H148855   1.433   3.676   3.024 -1.1036  1.9827  1.6055
 8220TIP3    H248856   1.308   3.688   2.940  0.0378  0.8411 -0.3472
 8221TIP3   OH248857   2.163   6.142   4.747 -0.2525 -0.1370  0.7287
 8221TIP3    H148858   2.087   6.191   4.718  0.5150  0.0275 -1.1748
 8221TIP3    H248859   2.238   6.195   4.720  0.6212 -2.3271 -1.6044
 8222TIP3   OH248860   3.243   2.645   3.524  0.0248  0.0344 -0.2956
 8222TIP3    H148861   3.227   2.600   3.441 -1.8320  0.1475 -0.0345
 8222TIP3    H248862   3.294   2.722   3.499  3.2019 -2.0365 -0.7547
 8223TIP3   OH248863   2.128   5.819   5.118 -0.7435 -0.2748 -0.2704
 8223TIP3    H148864   2.109   5.896   5.170 -0.8459  0.4042 -1.2776
 8223TIP3    H248865   2.198   5.774   5.165 -0.6805  0.4315  0.3201
 8224TIP3   OH248866   4.582   5.655   4.803  0.5626 -0.0189 -0.2219
 8224TIP3    H148867   4.488   5.673   4.811  0.4173 -0.8007 -0.0450
 8224TIP3    H248868   4.602   5.672   4.711  0.3280  0.5013 -0.1830
 8225TIP3   OH248869   3.355   6.059   3.426  0.1735 -0.0022 -0.2414
 8225TIP3    H148870   3.425   6.056   3.362 -2.4633 -0.0760 -3.3908
 8225TIP3    H248871   3.317   6.146   3.416 -1.3798 -0.6299 -0.0862
 8226TIP3   OH248872   1.704   2.244   3.443 -0.1664 -0.8300 -0.1401
 8226TIP3    H148873   1.660   2.295   3.376  0.6003  1.8336  1.2674
 8226TIP3    H248874   1.779   2.297   3.469 -0.2178 -1.9282  2.5622
 8227TIP3   OH248875   5.467   4.619   2.174  0.1755  0.1613 -0.1641
 8227TIP3    H148876   5.397   4.605   2.110  0.6590 -1.2624 -0.4084
 8227TIP3    H248877   5.439   4.571   2.252  1.1164 -0.9023 -0.4556
 8228TIP3   OH248878   2.764   3.645   2.826  0.7860  0.5416  0.0668
 8228TIP3    H148879   2.779   3.732   2.790 -1.2068  0.7997 -0.2548
 8228TIP3    H248880   2.709   3.601   2.761  1.7469 -0.9813  0.2180
 8229TIP3   OH248881   6.409   4.209   3.284  0.1603 -0.0953 -0.1657
 8229TIP3    H148882   6.339   4.274   3.279 -0.1436 -0.3285  0.8473
 8229TIP3    H248883   6.374   4.141   3.342 -0.0902 -1.8895 -2.2995
 8230TIP3   OH248884   4.996   1.422   2.495  0.6142 -0.7437 -0.0486
 8230TIP3    H148885   5.013   1.346   2.439 -0.4221  0.2546 -1.7979
 8230TIP3    H248886   4.903   1.415   2.516  0.3591  0.3595 -0.7578
 8231TIP3   OH248887   6.049   2.902   5.378  0.2980 -0.3569 -0.7580
 8231TIP3    H148888   6.068   2.867   5.465  1.1160 -0.1962 -0.8651
 8231TIP3    H248889   6.002   2.984   5.394  0.4490 -0.3276 -0.4660
 8232TIP3   OH248890   0.547   4.675   3.482 -0.3604 -0.3093  0.2531
 8232TIP3    H148891   0.557   4.629   3.399  2.1027  0.7282 -0.1162
 8232TIP3    H248892   0.529   4.606   3.546 -1.4678 -1.2053 -0.9710
 8233TIP3   OH248893   0.101   1.661   3.472  0.1594 -0.0606  0.1051
 8233TIP3    H148894   0.034   1.598   3.497  0.5217 -0.0594  1.1176
 8233TIP3    H248895   0.158   1.668   3.548  0.6914  0.7581 -0.3429
 8234TIP3   OH248896   2.870   1.955   1.921 -0.1408 -0.0418 -0.4681
 8234TIP3    H148897   2.839   2.042   1.946 -0.5681 -0.2618 -0.2089
 8234TIP3    H248898   2.928   1.970   1.846  1.3326  0.6614  0.7550
 8235TIP3   OH248899   4.808   2.284   3.435 -0.2178 -0.6992 -0.2724
 8235TIP3    H148900   4.891   2.323   3.460 -0.8741  0.3924  0.2908
 8235TIP3    H248901   4.831   2.201   3.395  1.4575  1.1594 -3.6469
 8236TIP3   OH248902   0.142   5.743   2.624 -0.0275 -0.0724  0.0386
 8236TIP3    H148903   0.072   5.736   2.559 -0.4335 -1.0757  0.5560
 8236TIP3    H248904   0.163   5.653   2.646  2.5016  0.1375 -1.1760
 8237TIP3   OH248905   3.674   2.395   4.786 -0.1049  0.1085 -0.0155
 8237TIP3    H148906   3.631   2.320   4.827  1.7281  0.5824  3.0946
 8237TIP3    H248907   3.615   2.469   4.805 -0.0219  0.0629  0.4474
 8238TIP3   OH248908   1.704   1.293   2.342 -0.2815  0.2581 -0.1155
 8238TIP3    H148909   1.785   1.308   2.292  0.6487  3.2129  1.9889
 8238TIP3    H248910   1.734   1.271   2.430 -1.8773 -1.9932 -0.0430
 8239TIP3   OH248911   4.832   3.443   4.630  0.0395  0.8580  0.3592
 8239TIP3    H148912   4.871   3.464   4.715  0.2199 -0.8052  0.7318
 8239TIP3    H248913   4.907   3.431   4.572 -0.0567  1.1665  0.1692
 8240TIP3   OH248914   4.149   6.214   2.007  0.3130  0.3799 -0.1805
 8240TIP3    H148915   4.212   6.261   1.952 -0.2759  1.2254 -0.1547
 8240TIP3    H248916   4.078   6.191   1.947 -0.5857  1.7782  0.2998
 8241TIP3   OH248917   3.574   6.348   1.810 -0.0616  0.3555  0.1979
 8241TIP3    H148918   3.521   6.332   1.731  2.1776 -1.7892 -1.0083
 8241TIP3    H248919   3.641   6.410   1.781 -0.5340  1.2889  1.0710
 8242TIP3   OH248920   6.661   6.492   3.684  0.2446 -0.0993 -0.7094
 8242TIP3    H148921   6.611   6.415   3.712  2.5897 -1.5604 -0.1894
 8242TIP3    H248922   6.669   6.545   3.763  1.8158 -1.2807 -0.0095
 8243TIP3   OH248923   2.606   0.187   4.408 -0.6273 -0.2285 -0.3325
 8243TIP3    H148924   2.535   0.189   4.343 -0.6140 -0.2483 -0.3476
 8243TIP3    H248925   2.656   0.108   4.387 -0.0628  0.2685 -0.8872
 8244TIP3   OH248926   1.597   0.021   3.324 -0.1199  0.0320 -0.1265
 8244TIP3    H148927   1.570   0.090   3.263 -0.1137 -0.0447 -0.2172
 8244TIP3    H248928   1.680   0.052   3.359 -1.6169  1.6492  2.3239
 8245TIP3   OH248929   2.496   5.836   2.345  0.0136 -0.1593 -0.2467
 8245TIP3    H148930   2.462   5.747   2.339 -0.8781  0.1803 -0.4458
 8245TIP3    H248931   2.427   5.885   2.390  1.2107  0.0854  1.3640
 8246TIP3   OH248932   2.820   3.072   4.659  0.0912 -0.2157  0.5130
 8246TIP3    H148933   2.785   3.157   4.684  0.9629  0.6571 -1.0679
 8246TIP3    H248934   2.899   3.092   4.610 -1.0767 -1.7517 -2.2291
 8247TIP3   OH248935   1.472   1.975   2.019 -0.0576  0.2628  0.0112
 8247TIP3    H148936   1.528   2.032   1.966 -0.1466  1.1404  0.8518
 8247TIP3    H248937   1.503   1.988   2.109 -0.9723  0.0057  0.3666
 8248TIP3   OH248938   1.863   6.797   4.353 -0.2163  0.2970 -0.7365
 8248TIP3    H148939   1.909   6.795   4.437  0.4122  2.8918 -0.9538
 8248TIP3    H248940   1.872   6.707   4.320  1.9075 -0.1091  0.6981
 8249TIP3   OH248941   4.780   0.673   3.311  0.1686  0.3033 -0.0894
 8249TIP3    H148942   4.782   0.722   3.229 -1.0208  0.3084 -0.1376
 8249TIP3    H248943   4.716   0.603   3.296  0.6731 -0.3134  0.5044
 8250TIP3   OH248944   6.119   1.232   4.268 -0.0825 -0.7868  0.3084
 8250TIP3    H148945   6.049   1.288   4.303 -2.3501 -2.4890 -1.2431
 8250TIP3    H248946   6.123   1.158   4.329  1.1935 -0.1928  0.9877
 8251TIP3   OH248947   4.080   0.113   4.858 -0.1933  0.0522  0.1141
 8251TIP3    H148948   4.038   0.182   4.910 -0.0290  1.1832 -1.1612
 8251TIP3    H248949   4.173   0.126   4.872 -0.1925 -0.8228  0.9587
 8252TIP3   OH248950   0.718   1.495   2.765  0.0242  0.4853  0.5833
 8252TIP3    H148951   0.692   1.568   2.709 -0.1409  0.4352  0.5954
 8252TIP3    H248952   0.806   1.473   2.736 -0.1357  0.3333  0.2167
 8253TIP3   OH248953   5.425   2.190   5.630 -0.2746 -0.1725 -0.0608
 8253TIP3    H148954   5.418   2.168   5.537 -1.1835 -1.8056  0.3530
 8253TIP3    H248955   5.466   2.113   5.670 -0.6062  0.1812  0.9878
 8254TIP3   OH248956   6.706   5.160   4.015 -1.0314  0.1611 -0.5338
 8254TIP3    H148957   6.621   5.194   3.987 -1.1456 -0.1218 -0.5314
 8254TIP3    H248958   6.731   5.098   3.947 -0.9295  0.0820 -0.4257
 8255TIP3   OH248959   6.212   2.009   2.414 -0.3232  0.2362 -0.5851
 8255TIP3    H148960   6.263   2.046   2.342 -0.2159  0.6836 -0.2804
 8255TIP3    H248961   6.121   2.019   2.386 -0.5423  3.8925  0.9150
 8256TIP3   OH248962   1.020   6.008   2.208  0.0698 -0.2559  0.0715
 8256TIP3    H148963   1.015   6.086   2.264  1.2608 -0.2225  0.1644
 8256TIP3    H248964   0.973   5.940   2.256  1.5596 -0.3832  1.4060
 8257TIP3   OH248965   0.592   1.466   2.308  0.4217 -0.9959  0.0977
 8257TIP3    H148966   0.550   1.549   2.283 -1.0748 -1.6374  0.3951
 8257TIP3    H248967   0.654   1.491   2.376  0.6534  0.0071 -0.4575
 8258TIP3   OH248968   3.457   4.017   4.743  0.3396 -0.2879 -0.1620
 8258TIP3    H148969   3.382   4.047   4.692  1.3651 -0.9684 -2.1534
 8258TIP3    H248970   3.529   4.073   4.715  0.4582  1.0005  2.4202
 8259TIP3   OH248971   4.432   4.036   3.673 -0.0134 -0.4169 -0.2289
 8259TIP3    H148972   4.510   3.995   3.634 -0.1051 -1.1199  0.3016
 8259TIP3    H248973   4.400   4.095   3.605  0.8455 -0.2966 -0.5441
 8260TIP3   OH248974   3.958   3.350   2.955 -0.2494  0.1238 -0.4131
 8260TIP3    H148975   4.012   3.339   3.033 -1.3398  0.7108  0.4575
 8260TIP3    H248976   4.002   3.298   2.888  0.9638 -0.0206  0.4602
 8261TIP3   OH248977   4.309   4.818   3.199 -0.6520  0.0860 -0.5065
 8261TIP3    H148978   4.229   4.773   3.226 -0.9472  1.1950  0.5091
 8261TIP3    H248979   4.349   4.848   3.280  0.6888 -0.2364 -1.0187
 8262TIP3   OH248980   4.370   5.424   4.231  0.4777 -0.8178 -0.1904
 8262TIP3    H148981   4.369   5.519   4.220 -0.4661 -0.7977 -0.0044
 8262TIP3    H248982   4.340   5.390   4.146 -0.2722 -0.9010  0.1002
 8263TIP3   OH248983   4.834   6.387   3.270  0.1558  0.1185 -0.1676
 8263TIP3    H148984   4.751   6.434   3.272  0.9469  1.5762  0.3846
 8263TIP3    H248985   4.814   6.302   3.308 -1.0729  0.4780  0.0391
 8264TIP3   OH248986   2.748   2.844   5.273  0.0520 -0.3416 -0.0119
 8264TIP3    H148987   2.817   2.902   5.240 -0.2665 -0.4002 -0.8168
 8264TIP3    H248988   2.759   2.845   5.368  1.0296 -0.1924 -0.1152
 8265TIP3   OH248989   4.266   4.879   3.805  0.5824 -0.2475  0.8030
 8265TIP3    H148990   4.284   4.950   3.744 -0.3985 -0.8615 -0.2451
 8265TIP3    H248991   4.348   4.866   3.852  1.4274  0.1355 -0.5216
 8266TIP3   OH248992   3.009   5.368   2.258  0.6096  0.2566  0.3849
 8266TIP3    H148993   3.088   5.315   2.248  0.5007  0.5750 -3.4373
 8266TIP3    H248994   3.035   5.456   2.232 -0.8944  0.4425 -0.6041
 8267TIP3   OH248995   5.965   6.544   4.222  0.0181  0.3679  0.1463
 8267TIP3    H148996   5.873   6.519   4.223  0.6859 -2.5635 -1.8050
 8267TIP3    H248997   6.000   6.511   4.305 -0.1227 -1.1480 -0.3762
 8268TIP3   OH248998   1.806   0.011   3.780  0.3361 -0.1517  0.0193
 8268TIP3    H148999   1.894   0.048   3.768  0.7045 -0.4504  1.5176
 8268TIP3    H249000   1.793  -0.045   3.704  1.2359  0.2928 -0.4869
 8269TIP3   OH249001   2.892   3.421   4.216 -0.5327  0.0491  0.1584
 8269TIP3    H149002   2.942   3.502   4.219  1.6467 -1.1782 -0.4792
 8269TIP3    H249003   2.898   3.392   4.124 -0.8770 -1.0634  0.4615
 8270TIP3   OH249004   3.953   4.533   3.117  0.1619  0.0062 -0.0732
 8270TIP3    H149005   3.873   4.481   3.130 -0.0170  0.5487  1.1147
 8270TIP3    H249006   3.937   4.581   3.037 -0.5229 -0.2367 -0.0916
 8271TIP3   OH249007   0.485   0.732   2.554  0.1480  1.0949  0.1175
 8271TIP3    H149008   0.470   0.811   2.502  0.0124  1.3974  0.6068
 8271TIP3    H249009   0.424   0.668   2.519  1.5734  0.5808 -1.5660
 8272TIP3   OH249010   1.727   5.411   2.642 -0.1948 -0.0802 -0.3395
 8272TIP3    H149011   1.690   5.326   2.665 -1.1973  0.5930  0.6378
 8272TIP3    H249012   1.670   5.474   2.685  1.7350  1.0352  0.7027
 8273TIP3   OH249013   0.971   5.173   3.438 -0.0339  0.3588  0.0394
 8273TIP3    H149014   0.956   5.135   3.351 -1.3186  0.9602 -0.0194
 8273TIP3    H249015   0.961   5.267   3.425  1.2292  0.5946  0.5670
 8274TIP3   OH249016   5.782   6.319   3.961 -0.1211 -0.1383 -0.4186
 8274TIP3    H149017   5.799   6.260   3.888 -1.1578 -2.4350  1.0817
 8274TIP3    H249018   5.829   6.280   4.035  0.5142  1.8557  0.2954
 8275TIP3   OH249019   4.300   5.458   3.924  0.0872  0.0775 -0.1164
 8275TIP3    H149020   4.277   5.496   3.838 -1.9577 -0.8905 -0.0547
 8275TIP3    H249021   4.223   5.474   3.978  0.7161 -0.7703  1.0591
 8276TIP3   OH249022   1.337   1.610   2.773  0.0256 -0.1325 -0.1059
 8276TIP3    H149023   1.330   1.606   2.678 -0.7314 -0.6106 -0.0417
 8276TIP3    H249024   1.286   1.687   2.798 -0.7121 -0.6354 -0.0179
 8277TIP3   OH249025   5.645   3.525   4.403  0.0469 -0.2332 -0.3685
 8277TIP3    H149026   5.683   3.438   4.412 -1.1604 -0.8309 -0.8299
 8277TIP3    H249027   5.706   3.583   4.449  0.5449 -1.4059  0.5029
 8278TIP3   OH249028   3.541   0.703   4.417  0.3540 -0.8628 -0.5298
 8278TIP3    H149029   3.486   0.723   4.341 -1.2063 -0.6762  0.5928
 8278TIP3    H249030   3.629   0.732   4.391 -0.5148  1.1078 -1.5125
 8279TIP3   OH249031   4.291   5.434   3.299  0.1525 -0.9083 -0.1118
 8279TIP3    H149032   4.267   5.505   3.358 -0.7205 -0.7706 -0.6178
 8279TIP3    H249033   4.306   5.477   3.215 -1.9276 -1.4470 -0.8342
 8280TIP3   OH249034   6.601   0.249   5.771 -0.3099  0.4960 -0.1135
 8280TIP3    H149035   6.536   0.209   5.713 -1.5057  1.4080  0.5392
 8280TIP3    H249036   6.577   0.342   5.773 -0.7988  0.3844  2.3808
 8281TIP3   OH249037   0.870   4.826   3.567  0.5270  0.2732 -0.3345
 8281TIP3    H149038   0.846   4.879   3.643 -0.7633  0.6989 -1.0029
 8281TIP3    H249039   0.877   4.737   3.600 -1.5110  0.2112  0.0315
 8282TIP3   OH249040   2.647   0.581   2.463  0.3748  0.3677 -0.1913
 8282TIP3    H149041   2.646   0.658   2.406 -0.9830  0.4831 -0.0451
 8282TIP3    H249042   2.567   0.589   2.516  2.4074  1.2056  3.0123
 8283TIP3   OH249043   1.474   6.818   2.608  0.0704 -0.3251  0.6304
 8283TIP3    H149044   1.388   6.860   2.610 -0.4515 -1.3761  0.9498
 8283TIP3    H249045   1.482   6.782   2.520  0.7094  0.7946  0.2098
 8284TIP3   OH249046   1.718   0.418   3.583  0.0455 -0.7247 -0.0032
 8284TIP3    H149047   1.751   0.424   3.673 -0.9171 -1.2894  0.4009
 8284TIP3    H249048   1.796   0.403   3.530  0.7220  0.3703  0.6407
 8285TIP3   OH249049   3.900   5.964   3.528  0.0918  0.2350  0.1741
 8285TIP3    H149050   3.908   5.981   3.434 -0.1002  1.7544  0.4118
 8285TIP3    H249051   3.859   5.877   3.534 -0.4327  0.3802 -1.1438
 8286TIP3   OH249052   2.576   5.401   3.870  0.3434  0.0840 -0.4978
 8286TIP3    H149053   2.558   5.307   3.871  0.9754 -0.0473 -1.0172
 8286TIP3    H249054   2.501   5.440   3.915  0.9444 -0.8115  1.3564
 8287TIP3   OH249055   5.229   1.279   4.765  0.0786 -0.0286  0.5867
 8287TIP3    H149056   5.294   1.246   4.703 -1.4347 -0.4539 -0.8543
 8287TIP3    H249057   5.230   1.217   4.837  0.7874 -0.3983  0.2659
 8288TIP3   OH249058   1.094   0.973   2.302  0.6184  0.2506  0.0706
 8288TIP3    H149059   1.169   0.961   2.244 -0.4948 -1.5357 -1.0981
 8288TIP3    H249060   1.018   0.974   2.244 -0.3209  2.1124  1.2105
 8289TIP3   OH249061   3.928   1.172   2.195  0.5637 -0.1365  0.0636
 8289TIP3    H149062   3.874   1.230   2.249  0.7237  0.1737 -0.1087
 8289TIP3    H249063   4.003   1.225   2.170 -0.0536  0.0913 -1.3909
 8290TIP3   OH249064   4.274   4.595   5.206 -0.0512 -0.0425 -0.3553
 8290TIP3    H149065   4.318   4.680   5.216  0.2842 -0.3243  0.7513
 8290TIP3    H249066   4.313   4.540   5.274 -2.5093 -0.1301  1.0975
 8291TIP3   OH249067   3.031   2.736   3.093 -0.0345  0.0191 -0.4358
 8291TIP3    H149068   3.049   2.812   3.148  0.3184 -1.9648  2.3990
 8291TIP3    H249069   2.942   2.709   3.118 -1.3880  1.0779 -3.5450
 8292TIP3   OH249070   2.793   6.005   4.612 -0.4901 -0.0790  0.6014
 8292TIP3    H149071   2.796   5.917   4.574 -0.3372  0.2950 -0.2881
 8292TIP3    H249072   2.853   6.001   4.686 -0.2289 -0.6349  0.3670
 8293TIP3   OH249073   2.687   3.387   4.392  0.7543 -0.1203  0.4185
 8293TIP3    H149074   2.726   3.437   4.320  1.7523 -0.7304  0.5043
 8293TIP3    H249075   2.732   3.420   4.470  1.0415 -0.7836  0.5340
 8294TIP3   OH249076   1.962   1.080   2.136 -0.3181 -0.1709 -0.0513
 8294TIP3    H149077   1.882   1.108   2.092 -1.7005 -0.8836  1.8759
 8294TIP3    H249078   2.021   1.155   2.128 -1.3947  0.6110 -0.9790
 8295TIP3   OH249079   0.942   0.624   3.573  0.2077  0.2250  0.1133
 8295TIP3    H149080   1.031   0.633   3.609  0.8223 -0.6784 -1.0965
 8295TIP3    H249081   0.922   0.710   3.537  1.0952  0.1250 -0.6623
 8296TIP3   OH249082   4.191   5.764   4.347 -0.3034  0.2059 -0.1931
 8296TIP3    H149083   4.114   5.724   4.386  0.4256 -1.5179 -0.4441
 8296TIP3    H249084   4.157   5.819   4.276 -1.3896  0.7814  0.7401
 8297TIP3   OH249085   2.074   0.255   2.177  0.1936 -0.4871  0.1725
 8297TIP3    H149086   2.129   0.178   2.164 -2.4395 -2.7176  1.2300
 8297TIP3    H249087   2.031   0.269   2.093  1.9195  0.9831 -0.5238
 8298TIP3   OH249088   1.347   5.209   3.118 -0.0533  0.2507 -0.0283
 8298TIP3    H149089   1.267   5.219   3.065 -0.1918  3.3552  0.5371
 8298TIP3    H249090   1.418   5.220   3.055  0.1144 -3.6898 -0.7439
 8299TIP3   OH249091   5.056   3.243   2.131 -0.1665 -0.3046 -0.3752
 8299TIP3    H149092   5.057   3.228   2.036 -0.8251 -1.8778 -0.1542
 8299TIP3    H249093   4.972   3.207   2.160  0.7274 -1.3274  1.0316
 8300TIP3   OH249094   0.444   2.642   2.869  0.7168  0.1800  0.1572
 8300TIP3    H149095   0.482   2.564   2.911  0.3292  0.1387  0.4372
 8300TIP3    H249096   0.352   2.619   2.855  0.3431  0.9724  1.2060
 8301TIP3   OH249097   2.839   4.725   2.837 -0.7387  0.4399  0.2358
 8301TIP3    H149098   2.831   4.630   2.824 -0.8053  0.4258  0.3827
 8301TIP3    H249099   2.789   4.743   2.916 -2.4631  0.8873 -0.9005
 8302TIP3   OH249100   4.402   6.745   3.875  0.0007 -0.0333  0.2281
 8302TIP3    H149101   4.439   6.790   3.951  0.1486  0.2325  0.0018
 8302TIP3    H249102   4.345   6.810   3.834  0.6993  0.1700 -0.4567
 8303TIP3   OH249103   2.980   5.156   4.117 -0.0406  0.4906  0.1611
 8303TIP3    H149104   2.912   5.115   4.062  0.5551  1.1147 -1.0800
 8303TIP3    H249105   2.931   5.193   4.191 -0.8403 -0.5443  0.1799
 8304TIP3   OH249106   1.101   2.935   3.699  0.0098 -0.4755  0.2824
 8304TIP3    H149107   1.164   2.926   3.770  0.2164  1.0324  0.3237
 8304TIP3    H249108   1.153   2.927   3.619 -0.0724 -1.2110  0.2963
 8305TIP3   OH249109   5.123   4.832   3.320  0.3612  0.1420 -0.4732
 8305TIP3    H149110   5.047   4.873   3.278  0.2737  2.2081  1.4590
 8305TIP3    H249111   5.180   4.906   3.343  0.8440 -0.9068  2.0533
 8306TIP3   OH249112   0.916   5.821   2.382  0.2324 -0.7440  0.2252
 8306TIP3    H149113   0.942   5.780   2.464  1.1416 -0.9861 -0.1665
 8306TIP3    H249114   0.856   5.891   2.407 -1.0673 -2.0523  0.9396
 8307TIP3   OH249115   4.361   0.502   3.272 -0.0597 -0.1649  0.5570
 8307TIP3    H149116   4.351   0.476   3.364 -2.1512  1.0662  0.7383
 8307TIP3    H249117   4.325   0.590   3.268 -0.8467 -0.5211 -1.6072
 8308TIP3   OH249118   2.219   5.077   3.157 -0.8407  0.4136 -0.3122
 8308TIP3    H149119   2.279   5.125   3.214  0.9007 -1.2922 -0.5733
 8308TIP3    H249120   2.244   5.103   3.068 -0.2988 -0.4473 -0.4293
 8309TIP3   OH249121   2.091   4.620   3.220  0.1772  0.5007 -0.4849
 8309TIP3    H149122   2.068   4.541   3.171  1.1221  0.6168 -1.1503
 8309TIP3    H249123   2.112   4.588   3.308 -0.6866  0.1806 -0.3858
 8310TIP3   OH249124   1.620   0.439   4.955 -0.2155 -0.1612 -0.1535
 8310TIP3    H149125   1.612   0.344   4.953 -2.4585 -0.0241 -0.2801
 8310TIP3    H249126   1.713   0.455   4.967  0.0641 -2.3947  1.3245
 8311TIP3   OH249127   3.862   6.745   3.832 -0.0710  0.2737 -0.4903
 8311TIP3    H149128   3.951   6.750   3.867 -0.2692 -1.5266  0.3452
 8311TIP3    H249129   3.815   6.816   3.877  0.3114 -0.4029  1.0497
 8312TIP3   OH249130   5.852   1.971   3.421 -0.9739  0.0759  0.2728
 8312TIP3    H149131   5.888   1.913   3.353 -1.6405 -1.1511  0.9402
 8312TIP3    H249132   5.774   2.008   3.382 -2.1426 -1.6991  0.7887
 8313TIP3   OH249133   1.836   0.441   2.658 -0.1335  0.1262  0.1573
 8313TIP3    H149134   1.883   0.514   2.698 -1.3019  1.0711 -0.1385
 8313TIP3    H249135   1.890   0.415   2.584 -0.0306  1.1532 -0.1399
 8314TIP3   OH249136   0.192   2.215   3.880 -0.0647  0.0360 -0.3503
 8314TIP3    H149137   0.246   2.240   3.955  0.1076 -0.4377 -0.3102
 8314TIP3    H249138   0.233   2.258   3.805 -1.0817  1.7284 -0.0023
 8315TIP3   OH249139   5.710   1.996   4.434  0.0022  0.6306  0.3722
 8315TIP3    H149140   5.756   2.079   4.417 -1.8287  1.6917  0.3370
 8315TIP3    H249141   5.618   2.016   4.418 -0.7436 -0.8437  2.3897
 8316TIP3   OH249142   2.488   2.958   4.222  0.1495 -0.1195  0.2139
 8316TIP3    H149143   2.450   3.044   4.203 -1.1861 -0.7462 -0.0150
 8316TIP3    H249144   2.511   2.962   4.315  0.1731  0.5051  0.1843
 8317TIP3   OH249145   6.457   6.810   3.675 -0.0844  0.2727 -0.3348
 8317TIP3    H149146   6.487   6.824   3.765  1.7818 -0.5106 -0.7802
 8317TIP3    H249147   6.478   6.891   3.630  0.3687  0.1268 -0.3913
 8318TIP3   OH249148   1.108   4.390   3.127  0.1991  0.2609 -0.0045
 8318TIP3    H149149   1.198   4.368   3.151 -0.0528  0.3333  1.0113
 8318TIP3    H249150   1.110   4.393   3.031  0.7436 -2.0072 -0.1233
 8319TIP3   OH249151   3.325   2.380   4.958 -0.2902 -0.8872 -0.5268
 8319TIP3    H149152   3.327   2.402   5.051 -2.2992  0.8019 -0.8353
 8319TIP3    H249153   3.383   2.303   4.951  1.2581 -0.0461  1.7995
 8320TIP3   OH249154   2.814   3.174   3.578  0.5553  0.4880 -0.2986
 8320TIP3    H149155   2.818   3.265   3.548  1.6168  0.9839  1.2237
 8320TIP3    H249156   2.906   3.150   3.592  0.3120 -0.9606 -1.0441
 8321TIP3   OH249157   2.331   1.415   4.284  0.6707  0.0057 -0.1751
 8321TIP3    H149158   2.274   1.369   4.346  1.6538  1.4052  1.9166
 8321TIP3    H249159   2.344   1.354   4.212 -0.4611 -1.7580  1.0473
 8322TIP3   OH249160   5.074   1.709   2.554 -0.4969  0.0007  0.1448
 8322TIP3    H149161   5.047   1.621   2.526 -0.2316  0.1066 -0.4424
 8322TIP3    H249162   5.026   1.769   2.497  1.3538  0.1870 -1.3031
 8323TIP3   OH249163   0.834   3.970   2.620 -0.6548 -0.3259  0.4591
 8323TIP3    H149164   0.874   3.912   2.685 -2.2712 -0.3155  1.5417
 8323TIP3    H249165   0.778   4.028   2.672  0.1342  1.5626 -0.7020
 8324TIP3   OH249166   2.995   3.392   4.481 -0.0227 -0.2565  0.3028
 8324TIP3    H149167   2.942   3.403   4.401  0.7012  0.9749 -0.0433
 8324TIP3    H249168   2.994   3.298   4.498 -2.1468 -0.2988  0.1906
 8325TIP3   OH249169   3.534   2.089   4.022  0.5258 -0.3584  0.0588
 8325TIP3    H149170   3.537   2.045   3.937 -0.3810 -0.8092  0.2474
 8325TIP3    H249171   3.487   2.029   4.079  1.2952 -0.1423  0.9409
 8326TIP3   OH249172   4.531   0.085   2.577 -0.7483 -0.6669  0.3365
 8326TIP3    H149173   4.508   0.092   2.670 -1.6775  0.5724  0.0354
 8326TIP3    H249174   4.609   0.141   2.569  2.0489 -4.0813  1.1547
 8327TIP3   OH249175   3.631   1.972   3.424 -0.0775 -0.1298  0.6502
 8327TIP3    H149176   3.602   2.014   3.505  1.0874 -2.9068  2.6688
 8327TIP3    H249177   3.566   1.997   3.359 -2.7137 -0.0712  3.1413
 8328TIP3   OH249178   0.337   3.089   2.197  0.5607  0.4793  0.3134
 8328TIP3    H149179   0.318   3.138   2.118 -0.6550  0.9151  0.8467
 8328TIP3    H249180   0.346   3.156   2.265 -0.5743  0.0302  0.9446
 8329TIP3   OH249181   2.608   2.178   3.550  0.0118  1.3885  0.3265
 8329TIP3    H149182   2.593   2.133   3.634 -0.5045  1.3457  0.2173
 8329TIP3    H249183   2.523   2.174   3.506  0.2810  1.4072 -0.2020
 8330TIP3   OH249184   3.879   4.535   5.187 -0.0570  0.1090 -0.0139
 8330TIP3    H149185   3.914   4.620   5.162 -0.4627  0.4796  0.6661
 8330TIP3    H249186   3.802   4.523   5.131  1.4353 -0.9869 -1.9643
 8331TIP3   OH249187   2.042   3.419   4.368  0.0297 -0.4951 -0.0225
 8331TIP3    H149188   2.102   3.447   4.437  0.0723 -1.0802  0.1803
 8331TIP3    H249189   2.094   3.358   4.315 -0.4300 -1.1166  0.2372
 8332TIP3   OH249190   0.871   0.626   4.684 -0.1812 -0.0201  0.2694
 8332TIP3    H149191   0.830   0.671   4.610  0.4797  0.7554  0.3602
 8332TIP3    H249192   0.963   0.651   4.679  0.0849 -0.8722  0.6982
 8333TIP3   OH249193   4.017   0.643   2.255  0.3046  0.3308  0.2311
 8333TIP3    H149194   4.027   0.736   2.237  0.2900 -0.2111 -3.4316
 8333TIP3    H249195   3.923   0.629   2.264  0.1654  0.4657 -0.9240
 8334TIP3   OH249196   6.317   1.260   4.510 -0.2769  0.5068  1.0630
 8334TIP3    H149197   6.313   1.223   4.422  0.6735  0.9480  0.8292
 8334TIP3    H249198   6.225   1.263   4.538 -0.5892  0.3377  0.1071
 8335TIP3   OH249199   1.338   1.891   3.153 -0.2019 -0.0662  0.0818
 8335TIP3    H149200   1.311   1.968   3.202  0.5090 -0.7415  1.5824
 8335TIP3    H249201   1.321   1.914   3.061 -0.4841  1.6614  0.5361
 8336TIP3   OH249202   4.483   5.740  11.479  0.4029 -0.5333  0.4795
 8336TIP3    H149203   4.575   5.714  11.489  1.1382  1.6789  0.0971
 8336TIP3    H249204   4.437   5.659  11.459  2.4675 -1.5250 -0.5278
 8337TIP3   OH249205   3.140   4.577   4.606  0.1583  0.1953  0.0108
 8337TIP3    H149206   3.149   4.642   4.536  1.8234 -1.9709 -1.9136
 8337TIP3    H249207   3.046   4.580   4.628 -0.3934  1.1358 -2.1451
 8338TIP3   OH249208   2.009   2.757   3.663 -0.1770  0.1812  0.2407
 8338TIP3    H149209   2.066   2.824   3.624  1.1035 -2.2237 -2.4056
 8338TIP3    H249210   2.065   2.714   3.728 -0.6589  0.9847  1.2014
 8339TIP3   OH249211   3.438   2.075   4.571  0.1136  0.5069  0.2672
 8339TIP3    H149212   3.413   2.153   4.521 -0.0201  0.0036 -0.4542
 8339TIP3    H249213   3.470   2.110   4.654  1.5146  1.4379 -0.6294
 8340TIP3   OH249214   0.531   6.065   4.227 -0.7177 -0.0682  0.0657
 8340TIP3    H149215   0.593   6.006   4.184 -0.3194  0.1274  0.3668
 8340TIP3    H249216   0.457   6.008   4.251  0.0719 -0.6597  1.2002
 8341TIP3   OH249217   3.578   3.167   5.260  0.3017  0.1493  0.4953
 8341TIP3    H149218   3.647   3.181   5.325  1.0442  2.0086 -0.6253
 8341TIP3    H249219   3.547   3.255   5.239  0.8592 -0.2737 -2.4703
 8342TIP3   OH249220   2.596   0.885   5.268  1.1938 -0.1553  0.1384
 8342TIP3    H149221   2.562   0.857   5.353 -0.9276 -1.0490 -0.9336
 8342TIP3    H249222   2.549   0.966   5.249  1.1775 -0.3050 -0.4594
 8343TIP3   OH249223   5.947   2.736   2.339  0.1349  0.2408  0.1083
 8343TIP3    H149224   5.962   2.646   2.370 -0.9863  0.5025  1.4762
 8343TIP3    H249225   5.884   2.726   2.267 -1.0823  0.0129  1.1643
 8344TIP3   OH249226   5.630   6.804   2.104  0.6275  0.0045  0.2802
 8344TIP3    H149227   5.663   6.750   2.176  0.9913  0.3189  0.3506
 8344TIP3    H249228   5.639   6.748   2.027 -0.4711 -0.6155  0.5801
 8345TIP3   OH249229   5.054   6.231   4.356 -0.2396 -0.6953 -0.5815
 8345TIP3    H149230   5.025   6.160   4.413  1.2055 -1.5753 -0.8925
 8345TIP3    H249231   4.981   6.243   4.295  0.1800 -3.2037 -1.7040
 8346TIP3   OH249232   1.050   1.821   2.417  0.3325  0.1392 -1.0878
 8346TIP3    H149233   1.097   1.842   2.337 -0.5833  0.4037 -1.5720
 8346TIP3    H249234   0.971   1.776   2.388 -0.3440  0.8276 -0.3917
 8347TIP3   OH249235   4.476   6.300   2.324 -0.1959  0.1985  0.2338
 8347TIP3    H149236   4.571   6.304   2.309 -0.1544 -0.9993  0.1290
 8347TIP3    H249237   4.442   6.251   2.250 -0.9115  0.6177  0.2795
 8348TIP3   OH249238   2.244   1.739  12.833 -0.1206  0.3844 -0.5135
 8348TIP3    H149239   2.284   1.679  12.895 -1.7949 -0.3601 -0.1111
 8348TIP3    H249240   2.172   1.689  12.794  0.4781  1.0386 -2.6016
 8349TIP3   OH249241   3.679   1.726   2.371  0.1949  0.0455  0.1905
 8349TIP3    H149242   3.585   1.706   2.378  0.3135 -1.4656 -1.7579
 8349TIP3    H249243   3.681   1.816   2.339 -0.5369  0.4427  1.1778
 8350TIP3   OH249244   4.213   5.563   3.677  0.0386 -0.0021 -0.3962
 8350TIP3    H149245   4.144   5.614   3.719 -1.3008 -2.6755  0.9417
 8350TIP3    H249246   4.239   5.615   3.601 -0.6024  2.9694  1.2495
 8351TIP3   OH249247   0.433   5.334   4.455  0.1279  0.0313  0.0701
 8351TIP3    H149248   0.429   5.238   4.458 -1.4316  0.0658 -0.1495
 8351TIP3    H249249   0.410   5.356   4.365  0.2376  0.6331  0.1861
 8352TIP3   OH249250   2.083   5.335   4.944 -0.4705  0.0260  0.4650
 8352TIP3    H149251   2.020   5.314   5.012  0.5625 -3.4265  0.5376
 8352TIP3    H249252   2.168   5.324   4.986  0.1907  0.1747 -0.7910
 8353TIP3   OH249253   1.611   3.631   2.040  0.0024  0.1543 -0.0316
 8353TIP3    H149254   1.533   3.649   1.989  0.3480 -0.4697 -0.7963
 8353TIP3    H249255   1.671   3.703   2.018  1.1614 -1.4763 -2.6291
 8354TIP3   OH249256   4.911   1.319   4.956 -0.0641  0.2961 -0.1058
 8354TIP3    H149257   4.934   1.278   5.039  0.1553  0.8601  0.1199
 8354TIP3    H249258   4.907   1.246   4.894 -0.0798 -0.1124  0.3635
 8355TIP3   OH249259   3.923   4.151   3.688  0.0047 -0.1351 -0.3475
 8355TIP3    H149260   3.857   4.122   3.751  3.0264  0.7720  3.6128
 8355TIP3    H249261   3.981   4.075   3.677  1.0480  0.5359  0.2784
 8356TIP3   OH249262   5.358   3.395   2.012  0.0159  0.1119  0.0287
 8356TIP3    H149263   5.362   3.342   2.092  0.8892 -0.0116 -0.0830
 8356TIP3    H249264   5.444   3.384   1.972 -0.4373  0.1097 -0.9769
 8357TIP3   OH249265   3.533   1.132   3.545 -0.4217 -0.2602 -0.0515
 8357TIP3    H149266   3.507   1.066   3.609 -0.7103  0.4652  0.6035
 8357TIP3    H249267   3.474   1.117   3.471  0.7054 -1.8696 -0.6646
 8358TIP3   OH249268   0.456   6.763   2.328 -0.6475  0.0747  0.1593
 8358TIP3    H149269   0.377   6.762   2.274 -0.1811  0.2400 -0.5409
 8358TIP3    H249270   0.449   6.844   2.380 -0.4507  0.6274 -0.6560
 8359TIP3   OH249271   4.557   3.768   5.019 -0.3279  0.2022 -0.0810
 8359TIP3    H149272   4.504   3.692   4.997 -0.1388 -0.0069  0.1765
 8359TIP3    H249273   4.553   3.772   5.115 -3.9530  3.0428 -0.1122
 8360TIP3   OH249274   6.240   6.399   4.278  0.1346  0.2728 -0.3528
 8360TIP3    H149275   6.306   6.467   4.292  0.0742  0.5212 -1.2248
 8360TIP3    H249276   6.186   6.401   4.357  0.7485  0.5424  0.0630
 8361TIP3   OH249277   2.027   6.621   3.533 -0.5998  0.1387 -0.2918
 8361TIP3    H149278   2.028   6.696   3.592  0.8659  0.7436 -1.0364
 8361TIP3    H249279   2.072   6.551   3.581 -0.4954  0.2500 -0.2298
 8362TIP3   OH249280   4.747   0.146   5.180 -0.1755  0.1140 -0.2103
 8362TIP3    H149281   4.670   0.202   5.171  0.3729  1.1614  1.3009
 8362TIP3    H249282   4.731   0.074   5.118 -3.0373 -0.4764  1.0278
 8363TIP3   OH249283   5.530   5.837   4.277 -0.5360  0.0102  0.1647
 8363TIP3    H149284   5.508   5.840   4.370 -1.9689  1.6878 -0.1890
 8363TIP3    H249285   5.456   5.792   4.236  0.4292 -1.3902 -0.1140
 8364TIP3   OH249286   1.586   6.349   3.631 -0.4441  0.6999 -0.5389
 8364TIP3    H149287   1.604   6.266   3.587 -0.7456  1.2893 -1.8025
 8364TIP3    H249288   1.537   6.400   3.567 -0.6221  1.7071  0.3736
 8365TIP3   OH249289   1.953   4.811   4.136  0.4582 -0.1804 -0.3300
 8365TIP3    H149290   1.989   4.783   4.052  1.1646  4.0222 -1.6540
 8365TIP3    H249291   1.858   4.808   4.123  0.4591 -2.3906 -0.1387
 8366TIP3   OH249292   6.666   0.521   3.688  0.1532  0.2019 -0.0806
 8366TIP3    H149293   6.573   0.503   3.675  0.2634  0.1236 -0.7805
 8366TIP3    H249294   6.678   0.611   3.658  0.3285  0.1619 -0.1335
 8367TIP3   OH249295   0.369   5.077   4.433  0.5563 -0.1046 -0.0148
 8367TIP3    H149296   0.388   4.986   4.455  0.5806  0.2630  1.6411
 8367TIP3    H249297   0.286   5.074   4.385  0.0253 -0.9253  0.9256
 8368TIP3   OH249298   6.258   2.070   4.083  0.0082 -0.2525  0.3841
 8368TIP3    H149299   6.164   2.062   4.096 -0.1637  0.7683 -0.0786
 8368TIP3    H249300   6.283   1.992   4.033 -0.3366 -1.2207  1.6985
 8369TIP3   OH249301   0.628   3.448   5.334  0.2193  0.5334  0.2088
 8369TIP3    H149302   0.608   3.460   5.427 -1.2071 -0.3095  0.0427
 8369TIP3    H249303   0.694   3.378   5.333 -0.1005  0.2169  0.5798
 8370TIP3   OH249304   3.802   3.687   2.425  0.2191 -0.2331  0.8053
 8370TIP3    H149305   3.731   3.735   2.466 -0.5496  1.5266 -2.2323
 8370TIP3    H249306   3.766   3.659   2.340  2.6796 -0.5327 -0.2405
 8371TIP3   OH249307   6.552   5.372   3.790 -0.6510  0.1434  0.8750
 8371TIP3    H149308   6.567   5.466   3.787  0.5084 -0.0456 -1.5717
 8371TIP3    H249309   6.465   5.360   3.753  0.7737  0.1009 -2.8778
 8372TIP3   OH249310   6.463   0.653   3.371 -0.3782  0.0254  0.2572
 8372TIP3    H149311   6.417   0.570   3.380  0.2666 -0.5314 -1.2763
 8372TIP3    H249312   6.551   0.629   3.344  0.2072  1.1712  1.0710
 8373TIP3   OH249313   0.771   3.583   3.142  0.4399 -0.5856  0.3260
 8373TIP3    H149314   0.693   3.586   3.087  0.4116 -0.3945  0.3744
 8373TIP3    H249315   0.754   3.648   3.211  0.3541 -1.0332  0.7274
 8374TIP3   OH249316   3.596   4.269   2.021 -0.8776 -0.3719  0.2363
 8374TIP3    H149317   3.565   4.355   1.992 -0.7433 -0.6220 -0.7089
 8374TIP3    H249318   3.672   4.288   2.075 -0.6768  0.0968 -0.1998
 8375TIP3   OH249319   6.666   3.115   4.169  0.3481 -0.6678 -0.1947
 8375TIP3    H149320   6.650   3.151   4.082  3.5075 -0.3385 -0.7682
 8375TIP3    H249321   6.686   3.022   4.152  0.3356 -0.7550  0.2665
 8376TIP3   OH249322   1.286   1.867   2.840  0.1393  0.1626  0.0533
 8376TIP3    H149323   1.235   1.903   2.767 -0.3256 -0.5810  0.0008
 8376TIP3    H249324   1.358   1.930   2.852 -2.5084  3.0902  2.2841
 8377TIP3   OH249325   1.822   2.426   3.022  0.3319  0.2084 -0.5105
 8377TIP3    H149326   1.874   2.355   3.059 -0.8378 -0.9771 -1.0515
 8377TIP3    H249327   1.824   2.410   2.927 -1.9844 -0.6486 -0.4901
 8378TIP3   OH249328   6.502   6.481   3.459 -0.2032  0.1670  0.5681
 8378TIP3    H149329   6.544   6.470   3.544 -1.0796  1.9276  1.2668
 8378TIP3    H249330   6.571   6.460   3.396  1.2405  1.2910  1.7039
 8379TIP3   OH249331   4.152   1.930   2.541  0.7921 -0.0092 -0.0296
 8379TIP3    H149332   4.200   1.904   2.462  0.6111 -1.7541  0.3898
 8379TIP3    H249333   4.074   1.974   2.507  1.4294  0.6021 -0.7670
 8380TIP3   OH249334   4.676   1.125   4.726 -0.5559  0.4326  0.3839
 8380TIP3    H149335   4.755   1.085   4.762  0.9266  3.8151  1.2849
 8380TIP3    H249336   4.610   1.112   4.794  0.8972  2.4925  2.3378
 8381TIP3   OH249337   2.850   4.627   4.669  0.4932 -0.1221 -0.1627
 8381TIP3    H149338   2.779   4.611   4.731  0.9162 -1.3757  0.0405
 8381TIP3    H249339   2.807   4.656   4.589 -0.0587  1.6129  0.7151
 8382TIP3   OH249340   5.966   5.035   2.905 -0.2822 -0.1985 -0.1312
 8382TIP3    H149341   6.010   5.067   2.827 -1.4654 -0.0632 -0.7747
 8382TIP3    H249342   6.036   5.021   2.969  0.8124 -1.1098 -1.4745
 8383TIP3   OH249343   2.726   0.501   4.668 -0.1310 -0.3806 -0.0629
 8383TIP3    H149344   2.787   0.520   4.740 -0.2525  1.4867 -0.4109
 8383TIP3    H249345   2.651   0.559   4.685  0.4268  1.1608 -2.4120
 8384TIP3   OH249346   4.256   6.390   5.913  0.1910  0.5463  0.3947
 8384TIP3    H149347   4.211   6.317   5.956  3.7416 -2.4821 -0.5310
 8384TIP3    H249348   4.227   6.386   5.822  1.8152 -1.1221 -0.1056
 8385TIP3   OH249349   1.951   1.787   3.251 -0.5119  0.3382 -0.3723
 8385TIP3    H149350   1.911   1.703   3.272  0.2713 -0.1397 -0.7635
 8385TIP3    H249351   1.903   1.850   3.305 -1.5157 -0.2655 -0.5302
 8386TIP3   OH249352   0.504   4.021   4.003 -0.0123  0.1004  0.1298
 8386TIP3    H149353   0.456   4.023   4.086  0.3741  1.6078  0.3466
 8386TIP3    H249354   0.537   3.931   3.996  0.7195  0.1681  2.0809
 8387TIP3   OH249355   0.388   1.065   3.977  0.0367 -0.5393  0.1483
 8387TIP3    H149356   0.295   1.048   3.988 -0.1577 -0.7100 -1.5338
 8387TIP3    H249357   0.400   1.154   4.012 -0.4625 -1.0242  1.6245
 8388TIP3   OH249358   3.337   5.155   4.762 -0.0037 -0.0835 -0.3729
 8388TIP3    H149359   3.291   5.201   4.833 -0.5991 -1.2773  0.0283
 8388TIP3    H249360   3.381   5.225   4.713  0.2349  0.7832  1.0306
 8389TIP3   OH249361   6.260   4.833   3.643 -0.0795 -0.0889 -0.5062
 8389TIP3    H149362   6.285   4.748   3.607  0.1033  0.3895 -1.5222
 8389TIP3    H249363   6.231   4.884   3.568  1.2262  1.2664 -0.1318
 8390TIP3   OH249364   6.148   3.389   2.553 -0.0979  1.3889 -0.0485
 8390TIP3    H149365   6.056   3.374   2.530  0.2311  0.2095 -0.6723
 8390TIP3    H249366   6.196   3.363   2.475  0.8954 -0.1642  1.0330
 8391TIP3   OH249367   2.123   0.611   3.773  0.1729 -0.3219  0.0754
 8391TIP3    H149368   2.194   0.676   3.770 -1.8048  2.0006 -0.2184
 8391TIP3    H249369   2.097   0.601   3.681 -0.9235  0.1590  0.3164
 8392TIP3   OH249370   4.770   3.243   2.218 -1.0564  0.6412  0.0639
 8392TIP3    H149371   4.708   3.303   2.177 -0.0128  1.9692  0.3463
 8392TIP3    H249372   4.801   3.290   2.296  0.5563  0.1916 -0.2657
 8393TIP3   OH249373   6.078   1.066   2.079 -0.3788 -0.0578 -0.6623
 8393TIP3    H149374   6.158   1.082   2.130 -1.6675 -1.9731  2.2322
 8393TIP3    H249375   6.029   1.148   2.084 -0.0706  0.0757  0.5091
 8394TIP3   OH249376   0.334   4.258   2.157  0.1962  0.1865  0.1732
 8394TIP3    H149377   0.342   4.347   2.123 -0.2905 -0.0045 -0.4610
 8394TIP3    H249378   0.286   4.268   2.239  0.7459  0.5734  0.4606
 8395TIP3   OH249379   6.370   3.473   2.896 -0.4491  0.0818  0.0980
 8395TIP3    H149380   6.317   3.407   2.942 -1.3569  0.1061 -0.8956
 8395TIP3    H249381   6.457   3.463   2.935 -0.5510 -1.7203 -0.0218
 8396TIP3   OH249382   3.986   0.921   4.168  0.2115 -0.4561 -0.1528
 8396TIP3    H149383   4.055   0.863   4.200 -0.9869 -1.1052  1.4085
 8396TIP3    H249384   4.025   1.009   4.172  0.2226 -0.4978  3.1562
 8397TIP3   OH249385   6.589   1.866   2.834 -0.1325 -0.4948  0.3266
 8397TIP3    H149386   6.559   1.849   2.744  1.4865  1.3671 -0.6319
 8397TIP3    H249387   6.539   1.943   2.862 -1.5096 -1.7687  1.5407
 8398TIP3   OH249388   4.152   5.962   4.889  0.0108  0.2505 -0.6883
 8398TIP3    H149389   4.192   6.048   4.874  0.0375  0.1635 -1.1474
 8398TIP3    H249390   4.157   5.949   4.984 -0.2227  0.8621 -0.5869
 8399TIP3   OH249391   4.929   3.885   2.744 -0.3023 -0.0785  0.0180
 8399TIP3    H149392   4.876   3.923   2.815 -0.4557 -1.5135  0.7129
 8399TIP3    H249393   4.865   3.846   2.685 -0.1072 -0.4275  0.0301
 8400TIP3   OH249394   2.336   4.249   4.493 -0.3889  0.2531 -0.3197
 8400TIP3    H149395   2.272   4.310   4.531  0.3931  0.4124  0.8089
 8400TIP3    H249396   2.341   4.177   4.556  0.9659  0.5321 -0.0717
 8401TIP3   OH249397   3.208   3.475   2.988  0.4786 -0.3818  0.4023
 8401TIP3    H149398   3.131   3.528   3.007  0.8213  0.2372  0.0869
 8401TIP3    H249399   3.186   3.429   2.907  0.6612  0.2564 -0.0190
 8402TIP3   OH249400   1.640   2.530   1.773  0.0794  0.3981 -0.2865
 8402TIP3    H149401   1.679   2.618   1.776  0.1369  0.3841  2.6514
 8402TIP3    H249402   1.682   2.484   1.846 -2.8066 -0.7684  0.7659
 8403TIP3   OH249403   5.183   2.101   3.131  0.3684  0.4137  0.2945
 8403TIP3    H149404   5.228   2.143   3.204  1.4797  1.1111 -0.7562
 8403TIP3    H249405   5.176   2.009   3.157  0.2081  0.7538  1.5197
 8404TIP3   OH249406   0.141   3.502   4.118  0.1043  0.4363 -0.2851
 8404TIP3    H149407   0.196   3.454   4.180  0.3846 -0.0858 -0.9314
 8404TIP3    H249408   0.099   3.435   4.066 -1.2612  0.8281  0.2756
 8405TIP3   OH249409   0.384   6.193   4.610 -0.0402 -0.1192  0.5397
 8405TIP3    H149410   0.330   6.271   4.609  1.0148  0.6339 -1.0331
 8405TIP3    H249411   0.322   6.121   4.625 -1.2454  0.8471  0.3587
 8406TIP3   OH249412   5.005   5.935   2.293  0.0383 -0.4902  0.1959
 8406TIP3    H149413   4.987   5.841   2.295  0.8087 -0.7054 -1.3484
 8406TIP3    H249414   4.951   5.972   2.363 -1.2084 -1.9183  0.0338
 8407TIP3   OH249415   1.230   1.238   2.472 -0.4924  0.5872  0.7471
 8407TIP3    H149416   1.251   1.173   2.405 -0.6733 -0.0469  1.3040
 8407TIP3    H249417   1.225   1.189   2.554 -0.0507  1.3950  1.2710
 8408TIP3   OH249418   2.913   6.638   1.943 -0.2871  0.1187 -1.0127
 8408TIP3    H149419   2.940   6.559   1.897  2.7807  0.1216  0.5324
 8408TIP3    H249420   2.883   6.606   2.029 -0.9062  0.5079 -1.0765
 8409TIP3   OH249421   0.216   6.341   3.517 -0.0557  0.1938  0.3575
 8409TIP3    H149422   0.236   6.395   3.441  1.4309 -1.9156 -0.8757
 8409TIP3    H249423   0.300   6.326   3.559 -0.3724 -1.2138  0.5633
 8410TIP3   OH249424   2.507   3.878   2.623 -0.3868  0.1677 -0.3164
 8410TIP3    H149425   2.489   3.840   2.537 -1.7154 -0.4383  0.2000
 8410TIP3    H249426   2.600   3.864   2.637 -0.0954  0.5338 -1.7708
 8411TIP3   OH249427   5.950   4.781   4.073  0.2103  0.0013 -0.6312
 8411TIP3    H149428   5.863   4.751   4.099  0.4500  0.5314  0.9385
 8411TIP3    H249429   5.940   4.876   4.060  0.4083 -0.0370 -1.0586
 8412TIP3   OH249430   2.456   5.708   1.954  0.1001  0.7722  0.2617
 8412TIP3    H149431   2.468   5.803   1.959 -1.8717  1.0319  0.9262
 8412TIP3    H249432   2.374   5.697   1.906  0.9881 -0.6789 -1.0070
 8413TIP3   OH249433   6.201   6.061   3.739  0.2251 -0.0772 -0.3428
 8413TIP3    H149434   6.233   6.148   3.763 -1.4831  0.2768  0.8205
 8413TIP3    H249435   6.196   6.064   3.643 -0.9264  1.5417 -0.2722
 8414TIP3   OH249436   3.735   1.110   2.398  0.4430  0.0624 -0.6382
 8414TIP3    H149437   3.778   1.086   2.317 -0.1534  2.5839 -1.7862
 8414TIP3    H249438   3.805   1.110   2.464  1.1205 -1.0232 -1.3260
 8415TIP3   OH249439   5.264   1.294   3.348 -0.1266  0.8313  0.1118
 8415TIP3    H149440   5.203   1.280   3.276  0.2023  1.1420 -0.2318
 8415TIP3    H249441   5.295   1.207   3.372 -1.8724  0.5023  1.3350
 8416TIP3   OH249442   6.281   2.369   2.315 -0.4779 -0.6528 -0.1442
 8416TIP3    H149443   6.212   2.395   2.377 -0.1308 -2.1622  0.9437
 8416TIP3    H249444   6.353   2.341   2.371 -0.5549 -3.1486 -1.1837
 8417TIP3   OH249445   0.920   1.712   3.907 -0.4450  0.1327 -0.2657
 8417TIP3    H149446   1.009   1.711   3.944 -0.3962  0.3081 -0.3798
 8417TIP3    H249447   0.925   1.653   3.832  0.0697  1.5856 -1.4233
 8418TIP3   OH249448   6.644   4.898   4.537  0.1142  0.4629  0.2255
 8418TIP3    H149449   6.627   4.991   4.554 -2.6189  0.3394 -1.2475
 8418TIP3    H249450   6.580   4.874   4.470  0.0887 -2.7452  1.2450
 8419TIP3   OH249451   4.995   5.114   3.018 -0.0136  0.4188  0.2075
 8419TIP3    H149452   5.013   5.191   3.072 -1.8496  0.7802  0.3876
 8419TIP3    H249453   4.997   5.148   2.928  1.4531  0.1589  0.1218
 8420TIP3   OH249454   2.533   1.008   3.624  0.2847 -0.4268 -0.1273
 8420TIP3    H149455   2.612   0.956   3.611 -0.0479 -1.2309  0.8788
 8420TIP3    H249456   2.564   1.088   3.667  0.4853 -1.0799  0.9904
 8421TIP3   OH249457   6.743   2.402   4.793 -0.2449 -0.3003 -0.2801
 8421TIP3    H149458   6.751   2.494   4.815 -2.4246  0.2009 -1.2475
 8421TIP3    H249459   6.670   2.370   4.847 -0.2516 -1.1483 -0.7597
 8422TIP3   OH249460   2.446   5.425   2.700 -0.1708  0.5047 -0.9608
 8422TIP3    H149461   2.425   5.472   2.780 -1.3512 -0.0067 -0.9486
 8422TIP3    H249462   2.522   5.372   2.722 -1.1429 -0.4758  0.1656
 8423TIP3   OH249463   2.315   4.988   2.492  0.0259 -0.3273  0.8080
 8423TIP3    H149464   2.333   4.961   2.402  2.7128  0.7923  0.9298
 8423TIP3    H249465   2.258   5.065   2.482  0.6407  0.0463  0.0179
 8424TIP3   OH249466   2.118   5.940   1.759  0.1167  0.0433  0.3136
 8424TIP3    H149467   2.196   5.944   1.703 -1.2641  0.0538 -1.6778
 8424TIP3    H249468   2.124   5.854   1.801  0.5732 -0.5039 -0.8123
 8425TIP3   OH249469   0.290   2.792   4.385 -0.0128  0.2453  0.2422
 8425TIP3    H149470   0.242   2.712   4.402 -0.6473  0.2611 -1.3373
 8425TIP3    H249471   0.371   2.763   4.342  1.3614  0.2371  2.6447
 8426TIP3   OH249472   5.929   6.542   1.994 -0.3698 -0.0398  0.7230
 8426TIP3    H149473   5.903   6.481   2.063  0.1332 -1.0600  0.0377
 8426TIP3    H249474   6.012   6.507   1.961  0.7323  1.8523  1.3029
 8427TIP3   OH249475   0.464   3.176   2.689 -0.2918 -0.2121 -0.4776
 8427TIP3    H149476   0.399   3.227   2.737 -1.2604 -0.1560 -1.7870
 8427TIP3    H249477   0.462   3.089   2.729 -0.0255  0.2247  0.5034
 8428TIP3   OH249478   0.689   1.059   4.462 -0.3301 -0.5680 -0.6108
 8428TIP3    H149479   0.721   1.093   4.378  1.8734  0.6561  0.6409
 8428TIP3    H249480   0.607   1.106   4.477 -1.2555 -1.4661 -2.4307
 8429TIP3   OH249481   4.205   6.309   3.632 -0.3136  0.2536  0.3635
 8429TIP3    H149482   4.238   6.396   3.653 -0.4322  0.2799  0.4416
 8429TIP3    H249483   4.111   6.321   3.620 -0.5679 -0.1181  1.8099
 8430TIP3   OH249484   3.405   3.608   5.280  0.8245 -0.1399 -0.5632
 8430TIP3    H149485   3.412   3.565   5.365  0.6556  0.7953 -0.0642
 8430TIP3    H249486   3.426   3.539   5.216 -0.8516 -1.3317  0.1261
 8431TIP3   OH249487   5.589   0.806   3.970 -0.0635  0.1118  0.2137
 8431TIP3    H149488   5.656   0.873   3.958 -0.2356  0.1714 -0.4539
 8431TIP3    H249489   5.602   0.746   3.896 -0.3901 -0.1750  0.3877
 8432TIP3   OH249490   1.042   0.174   4.697 -0.6701 -0.1002 -0.0734
 8432TIP3    H149491   1.021   0.227   4.621  0.9049  0.0248 -0.4552
 8432TIP3    H249492   1.106   0.110   4.665  1.1452  0.8746  1.4242
 8433TIP3   OH249493   3.079   3.899   3.361  0.0523 -0.1869 -0.6836
 8433TIP3    H149494   3.070   3.883   3.455 -1.3794 -1.5704 -1.0289
 8433TIP3    H249495   3.154   3.846   3.334  0.0595 -0.2966 -0.4434
 8434TIP3   OH249496   3.913   1.966   3.402 -0.4010 -0.2127 -0.0971
 8434TIP3    H149497   3.945   1.944   3.490  0.2963 -1.5960 -0.6622
 8434TIP3    H249498   3.819   1.954   3.408 -0.8337  2.8382  1.2901
 8435TIP3   OH249499   5.413   2.059   3.783 -0.1019  0.4489 -0.5235
 8435TIP3    H149500   5.368   1.993   3.835 -2.4580  0.1164 -2.7282
 8435TIP3    H249501   5.349   2.130   3.774  1.4407  1.9352 -0.2912
 8436TIP3   OH249502   4.613   4.749   3.591  0.0481 -0.2138  0.2631
 8436TIP3    H149503   4.695   4.748   3.542 -0.1735 -1.3558 -0.1281
 8436TIP3    H249504   4.599   4.657   3.616 -2.0059 -0.4082 -1.2433
 8437TIP3   OH249505   5.014   1.337   3.679 -0.1525  0.0743  0.5498
 8437TIP3    H149506   4.992   1.417   3.726 -0.1607  0.8985 -0.7856
 8437TIP3    H249507   4.941   1.323   3.619 -0.2158 -1.0206  0.8691
 8438TIP3   OH249508   5.133   4.940   3.687  0.2391 -0.0682  0.1025
 8438TIP3    H149509   5.124   4.942   3.782  0.0751 -0.6704  0.1043
 8438TIP3    H249510   5.102   4.853   3.661  0.3413  0.0642 -0.4955
 8439TIP3   OH249511   4.019   2.217   4.321  0.4284 -0.6695  0.3978
 8439TIP3    H149512   4.022   2.303   4.278 -3.0978 -0.4142  0.3799
 8439TIP3    H249513   4.055   2.233   4.409  1.6719  0.3011 -0.2517
 8440TIP3   OH249514   6.149   6.336   4.032 -0.7821 -0.1775 -0.5363
 8440TIP3    H149515   6.172   6.344   4.125 -0.8229  0.7631 -0.5901
 8440TIP3    H249516   6.068   6.286   4.031 -1.6836  1.1863  0.0797
 8441TIP3   OH249517   3.652   3.224   3.407  0.3236 -0.7826 -0.1351
 8441TIP3    H149518   3.626   3.314   3.391 -0.8611 -0.8101  1.3672
 8441TIP3    H249519   3.662   3.185   3.320 -1.7246  0.0941 -0.8173
 8442TIP3   OH249520   1.424   4.921   2.502  0.3243 -0.4902 -0.0993
 8442TIP3    H149521   1.489   4.957   2.562 -0.4331 -0.5495  0.7748
 8442TIP3    H249522   1.367   4.994   2.482 -0.3268 -0.8361  0.4743
 8443TIP3   OH249523   1.678   6.556   2.484 -0.4969 -0.2519  0.7822
 8443TIP3    H149524   1.608   6.509   2.530  1.0656 -2.5959  0.9572
 8443TIP3    H249525   1.743   6.574   2.552 -0.3676  0.8286  0.3936
 8444TIP3   OH249526   5.522   3.510   4.945 -0.0319  0.4685 -0.1873
 8444TIP3    H149527   5.550   3.500   4.854  3.6909  1.4948  0.6819
 8444TIP3    H249528   5.466   3.435   4.961 -0.5263  0.0577 -3.1813
 8445TIP3   OH249529   4.725   0.960   3.108  0.5892 -0.6932  0.0903
 8445TIP3    H149530   4.768   1.031   3.060 -0.6846 -0.3714 -0.6146
 8445TIP3    H249531   4.780   0.883   3.093  0.6477 -0.4065 -1.2008
 8446TIP3   OH249532   1.580   5.836   2.749 -0.1477  0.1803 -0.0663
 8446TIP3    H149533   1.520   5.762   2.735  0.1727 -0.1454  0.2563
 8446TIP3    H249534   1.643   5.803   2.813  0.3295  0.5480 -0.3490
 8447TIP3   OH249535   3.045   0.043   3.633  0.4436 -0.2602 -0.6209
 8447TIP3    H149536   3.065  -0.049   3.615 -1.5396 -0.7373 -0.5774
 8447TIP3    H249537   3.006   0.043   3.720  0.0843  0.5717 -0.7679
 8448TIP3   OH249538   3.182   5.070   2.538 -0.2789 -0.2665  0.5150
 8448TIP3    H149539   3.169   5.154   2.582  1.8034  1.0494 -1.2212
 8448TIP3    H249540   3.157   5.086   2.447 -3.5755 -2.6703  0.7719
 8449TIP3   OH249541   5.594   6.396   4.899  0.5700 -0.4107  0.3616
 8449TIP3    H149542   5.537   6.448   4.842  1.0080 -0.1795  0.1232
 8449TIP3    H249543   5.682   6.429   4.881  0.7645 -0.6540  0.8362
 8450TIP3   OH249544   2.516   2.715   3.626  0.1008  0.5538  0.6242
 8450TIP3    H149545   2.502   2.712   3.532  0.4168 -0.6993  0.5955
 8450TIP3    H249546   2.428   2.717   3.664 -0.0262  1.7918  0.3135
 8451TIP3   OH249547   6.108   3.993   4.163  0.1353 -0.2166 -0.3239
 8451TIP3    H149548   6.121   3.933   4.237  0.3279 -0.9492 -0.9367
 8451TIP3    H249549   6.092   3.936   4.088  1.7782  0.4116 -1.2265
 8452TIP3   OH249550   6.697   4.074   2.836  0.2561 -0.2935  0.2120
 8452TIP3    H149551   6.635   4.091   2.906 -0.8074  0.1139 -0.7982
 8452TIP3    H249552   6.681   3.982   2.811  0.1860 -0.2463  0.0803
 8453TIP3   OH249553   2.779   5.041   4.730 -0.2856  0.3906 -0.2436
 8453TIP3    H149554   2.738   5.053   4.644 -0.9474  1.1877  0.1678
 8453TIP3    H249555   2.864   5.085   4.722  1.3386 -2.7349 -1.6435
 8454TIP3   OH249556   2.852   3.931   4.324  0.3253 -0.0135 -0.4173
 8454TIP3    H149557   2.889   3.966   4.242 -3.0042  0.1317 -2.0425
 8454TIP3    H249558   2.839   4.008   4.379  2.6143 -0.1140  0.3865
 8455TIP3   OH249559   0.703   5.716   2.808 -0.0957 -0.2400  0.2562
 8455TIP3    H149560   0.616   5.722   2.767 -0.2088 -1.1173  0.3485
 8455TIP3    H249561   0.722   5.805   2.837 -0.0886  0.3913 -1.5617
 8456TIP3   OH249562   1.085   4.693   3.026  0.2722  0.3127 -0.6088
 8456TIP3    H149563   1.106   4.772   3.075  1.6149 -1.3472  1.6854
 8456TIP3    H249564   1.161   4.636   3.038 -0.4884 -1.2191 -2.4735
 8457TIP3   OH249565   2.695   3.691   4.275  0.1666 -0.4555  0.1527
 8457TIP3    H149566   2.704   3.682   4.180  0.5039 -0.1023  0.1498
 8457TIP3    H249567   2.740   3.773   4.296 -1.6530  0.5456  0.3505
 8458TIP3   OH249568   6.442   4.828   2.490  0.3857 -0.4318 -0.1227
 8458TIP3    H149569   6.389   4.776   2.429  1.5381 -0.5650 -1.0419
 8458TIP3    H249570   6.482   4.763   2.548 -1.2942 -0.2584  1.3114
 8459TIP3   OH249571   5.327   5.317   3.240 -0.1699  0.0800 -0.3490
 8459TIP3    H149572   5.373   5.321   3.324 -0.8565  0.3842  0.0157
 8459TIP3    H249573   5.269   5.393   3.240  0.1520  0.3420 -1.2988
 8460TIP3   OH249574   5.669   0.231   2.814  0.2978  0.1810 -0.1566
 8460TIP3    H149575   5.752   0.186   2.798 -0.4416 -1.1517 -0.3990
 8460TIP3    H249576   5.689   0.324   2.804  1.7968 -0.1111 -0.0104
 8461TIP3   OH249577   0.865   1.516   1.919 -0.2328  0.5714 -0.0838
 8461TIP3    H149578   0.939   1.573   1.939  0.1103 -0.4949  1.8857
 8461TIP3    H249579   0.904   1.431   1.902 -0.8862  0.4523 -1.0617
 8462TIP3   OH249580   5.889   3.067   4.849 -0.0799  0.1645  0.1659
 8462TIP3    H149581   5.937   3.121   4.912  1.2243  1.0379 -1.5094
 8462TIP3    H249582   5.811   3.118   4.827  0.3878  0.7007 -0.2770
 8463TIP3   OH249583   3.655   2.066   2.614 -0.2045  0.4041 -0.3592
 8463TIP3    H149584   3.589   2.092   2.549  0.7126  0.4195 -1.3015
 8463TIP3    H249585   3.627   1.978   2.642 -0.2534  0.1264 -1.2548
 8464TIP3   OH249586   1.668   3.539   4.659  0.6844 -0.1236 -0.8348
 8464TIP3    H149587   1.648   3.508   4.748  0.8825 -0.5673 -0.9466
 8464TIP3    H249588   1.721   3.618   4.673 -0.1810  0.4177 -0.5486
 8465TIP3   OH249589   1.493   5.916   2.405  0.1129  0.3035  0.1314
 8465TIP3    H149590   1.415   5.862   2.420  0.7567 -0.7315 -0.0711
 8465TIP3    H249591   1.554   5.856   2.361 -0.3517  2.1417 -3.3197
 8466TIP3   OH249592   3.896   2.292   3.391  0.2924  0.1692 -0.3204
 8466TIP3    H149593   3.984   2.292   3.355 -0.6406  0.6045 -2.8281
 8466TIP3    H249594   3.864   2.203   3.378 -0.2565  0.4770 -1.2086
 8467TIP3   OH249595   4.284   4.208   2.805 -0.4251 -0.2740  0.1939
 8467TIP3    H149596   4.232   4.165   2.874 -0.2954  0.3377  0.6841
 8467TIP3    H249597   4.343   4.266   2.853  1.3286 -1.5748 -0.2909
 8468TIP3   OH249598   3.423   0.862   3.625  0.1729 -0.2907  0.2601
 8468TIP3    H149599   3.330   0.844   3.641 -0.1820  1.7234  0.8538
 8468TIP3    H249600   3.461   0.870   3.712  0.9655 -1.2467  0.0190
 8469TIP3   OH249601   1.061   2.701   4.014 -0.0147 -0.2509  0.1987
 8469TIP3    H149602   1.115   2.633   3.974  1.0705  0.9205 -0.3985
 8469TIP3    H249603   1.074   2.689   4.108  0.1148 -0.9048  0.1013
 8470TIP3   OH249604   3.498   3.615   4.820 -0.3501 -0.0052  0.3206
 8470TIP3    H149605   3.559   3.668   4.770  1.5227 -0.2919  2.1664
 8470TIP3    H249606   3.535   3.526   4.816 -2.2015 -0.7947 -0.8276
 8471TIP3   OH249607   6.003   2.378   3.554  0.2693  0.2404 -0.3972
 8471TIP3    H149608   5.913   2.373   3.587  0.8023  1.6763  1.4413
 8471TIP3    H249609   6.058   2.365   3.631  1.5831  3.7404 -0.5774
 8472TIP3   OH249610   4.537   5.243   2.980  0.2214 -0.3797  0.0707
 8472TIP3    H149611   4.446   5.257   2.954 -0.1003  0.9646  1.7725
 8472TIP3    H249612   4.565   5.327   3.017  2.0813 -0.8402 -0.1752
 8473TIP3   OH249613   5.794   3.601   3.789 -0.2184 -0.4808  0.0220
 8473TIP3    H149614   5.735   3.620   3.862  0.4944 -0.7921  0.6994
 8473TIP3    H249615   5.737   3.568   3.719 -0.8515 -0.6540  0.6112
 8474TIP3   OH249616   0.725   0.443   5.044 -0.1353  0.5862 -0.3268
 8474TIP3    H149617   0.669   0.407   5.112 -0.2265  1.7939  0.2590
 8474TIP3    H249618   0.748   0.530   5.075 -0.3775  1.2636 -1.9549
 8475TIP3   OH249619   6.648   0.254   3.811  0.3924  0.1592 -0.4957
 8475TIP3    H149620   6.657   0.336   3.762  1.0092  0.1375 -0.4186
 8475TIP3    H249621   6.554   0.236   3.809  0.1618  1.2045  0.0459
 8476TIP3   OH249622   4.788   5.702   2.535 -0.3180  0.0983  0.1200
 8476TIP3    H149623   4.786   5.606   2.537 -2.5766 -0.0420 -2.5479
 8476TIP3    H249624   4.858   5.722   2.473 -0.8810  0.0654 -0.5435
 8477TIP3   OH249625   4.903   4.666   2.825 -0.4146 -0.2201  0.1467
 8477TIP3    H149626   4.880   4.740   2.882  0.4645  1.0589 -1.0797
 8477TIP3    H249627   4.848   4.679   2.747  1.2224  0.3878 -0.9622
 8478TIP3   OH249628   3.521   2.767   5.076 -0.1640  0.0696  0.4563
 8478TIP3    H149629   3.598   2.765   5.132 -0.4843  0.7608  0.9465
 8478TIP3    H249630   3.467   2.838   5.112 -1.7384 -1.3807  1.0603
 8479TIP3   OH249631   0.276   0.539   3.887 -0.9772 -0.4182 -0.2818
 8479TIP3    H149632   0.310   0.460   3.845 -0.3021 -1.3563  1.9281
 8479TIP3    H249633   0.182   0.522   3.897 -1.7076  0.8540 -3.4722
 8480TIP3   OH249634   6.434   5.146   3.949 -0.1407 -0.0076 -0.0421
 8480TIP3    H149635   6.350   5.110   3.977  0.0330 -0.7137 -0.3906
 8480TIP3    H249636   6.413   5.204   3.876 -0.3174 -0.3124 -0.2370
 8481TIP3   OH249637   6.552   1.165   3.877 -0.0496  0.2694  0.2580
 8481TIP3    H149638   6.635   1.196   3.841  0.1645  0.0340  0.5431
 8481TIP3    H249639   6.573   1.080   3.916 -0.6563 -0.3290 -0.6631
 8482TIP3   OH249640   0.658   4.506   3.916 -0.6054 -0.2739 -0.3211
 8482TIP3    H149641   0.706   4.453   3.980 -0.2269  0.9491  0.4359
 8482TIP3    H249642   0.592   4.552   3.967 -0.6364  0.3270 -0.8847
 8483TIP3   OH249643   1.460   2.074   2.825 -0.6316 -0.6034  0.0633
 8483TIP3    H149644   1.422   2.161   2.810 -0.7686 -0.6732  0.0110
 8483TIP3    H249645   1.528   2.090   2.891 -2.2822 -0.8367  1.9042
 8484TIP3   OH249646   0.217   2.457   2.437 -0.1540  0.2594  0.0261
 8484TIP3    H149647   0.221   2.480   2.344  0.1316 -0.7068 -0.2104
 8484TIP3    H249648   0.128   2.479   2.463  0.1223  1.7265 -0.1432
 8485TIP3   OH249649   1.616   3.171   4.272  0.7165  0.4414 -0.0557
 8485TIP3    H149650   1.667   3.251   4.265  0.6980  0.5724  1.0906
 8485TIP3    H249651   1.651   3.114   4.203  0.7494  1.4089 -0.8536
 8486TIP3   OH249652   2.247   0.702   2.746  0.2938 -0.0561 -0.6208
 8486TIP3    H149653   2.174   0.657   2.704  1.9035  0.0722 -3.8582
 8486TIP3    H249654   2.212   0.787   2.770 -1.5110 -1.2333  1.2689
 8487TIP3   OH249655   3.836   5.719   3.491 -0.6483  0.1776 -0.2480
 8487TIP3    H149656   3.888   5.709   3.411 -0.8266 -1.6467 -0.1779
 8487TIP3    H249657   3.755   5.671   3.472 -0.1917 -1.3811  1.4193
 8488TIP3   OH249658   3.854   4.279   3.387  0.0454  0.0327 -0.5490
 8488TIP3    H149659   3.927   4.226   3.357 -0.3763 -1.1099  0.3845
 8488TIP3    H249660   3.783   4.261   3.325  0.3491  0.7000 -1.1146
 8489TIP3   OH249661   4.122   2.320   4.556 -0.3855  0.1719 -0.2736
 8489TIP3    H149662   4.135   2.381   4.628 -2.3309 -1.6477  1.7952
 8489TIP3    H249663   4.208   2.281   4.542 -0.0452  0.1566  1.5283
 8490TIP3   OH249664   0.033   1.728   2.122  0.2268  0.1419  0.6819
 8490TIP3    H149665   0.024   1.821   2.100  0.1868 -0.2416 -1.1148
 8490TIP3    H249666  -0.046   1.687   2.085 -0.0289 -0.5363  1.9386
 8491TIP3   OH249667   3.580   4.443   2.831  0.1076  0.2176  0.0567
 8491TIP3    H149668   3.545   4.356   2.813  0.1497  0.2816 -0.3274
 8491TIP3    H249669   3.512   4.503   2.800  0.2617  0.3294 -0.0657
 8492TIP3   OH249670   1.133   0.544   3.120 -0.1411  0.1785 -0.2568
 8492TIP3    H149671   1.039   0.535   3.105 -0.4359  0.9855  1.0035
 8492TIP3    H249672   1.145   0.635   3.148  0.7918 -0.3051  1.0426
 8493TIP3   OH249673   0.665   5.659   3.999 -0.6454 -0.3594  0.1170
 8493TIP3    H149674   0.730   5.630   4.064  0.0606  0.3501 -0.2434
 8493TIP3    H249675   0.695   5.621   3.917 -0.6277  0.0616 -0.0718
 8494TIP3   OH249676   0.256   3.983   3.447  0.2143  0.3818  0.1905
 8494TIP3    H149677   0.321   3.915   3.466  0.7863  1.1927  1.2246
 8494TIP3    H249678   0.184   3.936   3.405  0.5006 -0.9115  1.0846
 8495TIP3   OH249679   4.127   5.419   3.018  0.6065 -0.3009  0.3293
 8495TIP3    H149680   4.197   5.482   3.035  1.5815 -1.1080 -0.5105
 8495TIP3    H249681   4.169   5.351   2.965 -0.9042 -0.6443 -0.4781
 8496TIP3   OH249682   0.084   0.350   3.673 -0.5105 -0.3334  0.5644
 8496TIP3    H149683   0.086   0.307   3.588  0.3490  0.3658  0.2142
 8496TIP3    H249684   0.063   0.441   3.653 -0.0793 -0.1192  1.0784
 8497TIP3   OH249685   3.185   4.206   5.701  0.2591 -0.2787 -0.4377
 8497TIP3    H149686   3.207   4.169   5.615 -0.6640 -0.8742 -0.4404
 8497TIP3    H249687   3.237   4.156   5.763 -0.7623 -1.4315 -0.4683
 8498TIP3   OH249688   3.235   1.317   2.302 -0.4484  0.3298  0.7314
 8498TIP3    H149689   3.304   1.264   2.261  0.8226  2.2367  0.2641
 8498TIP3    H249690   3.255   1.406   2.275 -0.3265  1.5826  4.4524
 8499TIP3   OH249691   5.671   3.626   2.661  0.1590  0.4427  0.0681
 8499TIP3    H149692   5.655   3.589   2.748  0.0744 -0.9455 -0.5188
 8499TIP3    H249693   5.586   3.621   2.617  0.7116 -1.1075 -0.9033
 8500TIP3   OH249694   5.907   6.538   2.370 -0.1957 -0.8271  0.1466
 8500TIP3    H149695   5.972   6.599   2.336 -2.3818  1.5290 -0.1585
 8500TIP3    H249696   5.895   6.474   2.300 -0.8133  0.8717 -1.3871
 8501TIP3   OH249697   1.160   6.326   2.202  0.2752  0.0008  0.1304
 8501TIP3    H149698   1.078   6.353   2.242 -0.9007 -0.4020 -1.8840
 8501TIP3    H249699   1.156   6.360   2.113  0.8170 -2.7608 -1.0369
 8502TIP3   OH249700   3.797   0.822   4.376  0.4826  0.4258 -0.1812
 8502TIP3    H149701   3.830   0.909   4.399  1.3816 -0.1750  0.8350
 8502TIP3    H249702   3.814   0.814   4.282  1.2796  0.9760 -0.0939
 8503TIP3   OH249703   3.249   0.271   2.561  0.5460 -0.4209  0.4580
 8503TIP3    H149704   3.320   0.332   2.545 -1.4457  1.9382  0.0004
 8503TIP3    H249705   3.278   0.219   2.636  3.4562 -0.8683 -0.8625
 8504TIP3   OH249706   5.427   1.711   4.927  0.9828 -0.0047 -0.0789
 8504TIP3    H149707   5.436   1.634   4.871  1.1925  0.4692 -0.7145
 8504TIP3    H249708   5.437   1.678   5.016  0.3276 -0.8191 -0.3066
 8505TIP3   OH249709   5.222   1.835   2.931  0.3928 -0.2929  0.0082
 8505TIP3    H149710   5.313   1.813   2.954  0.5155 -0.6041 -0.7420
 8505TIP3    H249711   5.227   1.924   2.895  0.1127  0.4315  1.6892
 8506TIP3   OH249712   3.316   1.887   3.642 -0.0629 -0.2949 -1.0197
 8506TIP3    H149713   3.330   1.796   3.614 -1.4991 -0.8457 -0.0464
 8506TIP3    H249714   3.259   1.925   3.575 -2.1313 -1.1199  0.1734
 8507TIP3   OH249715   2.198   3.665   4.797 -0.1302  0.0770  0.3019
 8507TIP3    H149716   2.276   3.721   4.797  0.8335 -1.1800 -1.4510
 8507TIP3    H249717   2.230   3.578   4.774 -2.0662 -0.4339 -0.7037
 8508TIP3   OH249718   6.255   5.068   4.903  0.2090 -0.0762 -0.1957
 8508TIP3    H149719   6.192   4.997   4.914  0.4865 -0.0410  2.2362
 8508TIP3    H249720   6.338   5.023   4.888  0.8411 -0.5503  3.6262
 8509TIP3   OH249721   0.511   1.393   5.274  0.0911 -0.4644 -0.5426
 8509TIP3    H149722   0.461   1.313   5.259 -3.6065  1.5311 -0.0598
 8509TIP3    H249723   0.554   1.379   5.358  1.0110 -2.5252 -1.2785
 8510TIP3   OH249724   1.562   5.507   2.989  0.0605 -0.1830  0.2213
 8510TIP3    H149725   1.579   5.413   2.994 -0.3421 -0.2239  1.0580
 8510TIP3    H249726   1.538   5.522   2.898  2.8218 -0.4077 -0.6333
 8511TIP3   OH249727   4.721   1.809   5.421 -0.8843  0.1421  0.1934
 8511TIP3    H149728   4.757   1.839   5.504 -0.9084  0.6447  0.0274
 8511TIP3    H249729   4.732   1.884   5.362  0.1306 -0.5586 -0.5627
 8512TIP3   OH249730   0.246   5.826   3.007  0.6606 -0.2149 -0.0647
 8512TIP3    H149731   0.271   5.764   3.075  0.8770  0.9182  0.9116
 8512TIP3    H249732   0.150   5.830   3.013  0.8032  2.0420  2.1995
 8513TIP3   OH249733   3.231   0.969   2.402 -0.2016  0.5756  0.1329
 8513TIP3    H149734   3.325   0.956   2.386 -0.2832  1.5285 -1.3354
 8513TIP3    H249735   3.203   0.889   2.446  0.8102 -0.7793 -1.5458
 8514TIP3   OH249736   4.315   2.856   4.986  0.4271 -0.1902 -0.3497
 8514TIP3    H149737   4.316   2.843   5.080 -0.2073  2.3141  0.0678
 8514TIP3    H249738   4.235   2.813   4.956  0.5332 -0.8305  0.2600
 8515TIP3   OH249739   0.401   2.184   2.460  0.0760  0.5006 -0.4864
 8515TIP3    H149740   0.365   2.188   2.372  1.4512  4.5611 -1.0586
 8515TIP3    H249741   0.334   2.224   2.516  0.1423 -0.0059 -0.0290
 8516TIP3   OH249742   1.925   3.415   2.043 -0.0161  0.1247 -0.1963
 8516TIP3    H149743   1.855   3.382   1.987 -1.1565  1.2883  0.4743
 8516TIP3    H249744   1.879   3.458   2.116  1.3877  1.0431  0.1974
 8517TIP3   OH249745   2.885   5.632   3.358  0.7549  0.0177 -0.3702
 8517TIP3    H149746   2.793   5.655   3.370 -0.2103 -3.0127 -1.1586
 8517TIP3    H249747   2.893   5.614   3.265  2.0586 -0.1158 -0.2432
 8518TIP3   OH249748   1.294   4.201   1.943 -0.3364  0.3712 -0.2239
 8518TIP3    H149749   1.323   4.240   2.025  0.1276  0.7006 -0.5404
 8518TIP3    H249750   1.375   4.171   1.901 -0.6530 -0.5826 -0.1623
 8519TIP3   OH249751   3.561   1.477   3.338 -0.3446 -0.1767  1.0567
 8519TIP3    H149752   3.613   1.556   3.325  0.4244 -0.7778  0.3248
 8519TIP3    H249753   3.476   1.508   3.367  0.4932  0.8285  2.5779
 8520TIP3   OH249754   5.459   0.163   4.365 -0.1655 -0.1056 -0.1341
 8520TIP3    H149755   5.378   0.206   4.338  0.0130  0.1976 -0.1911
 8520TIP3    H249756   5.506   0.146   4.284  0.5919  1.2450 -0.0034
 8521TIP3   OH249757   2.291   4.084   2.325 -0.2770  0.4555 -0.5268
 8521TIP3    H149758   2.294   4.170   2.283  0.6845  0.5252 -0.3350
 8521TIP3    H249759   2.245   4.098   2.407  0.8443  1.0367  0.0296
 8522TIP3   OH249760   5.569   4.218   4.328 -0.4296 -0.1003  0.2640
 8522TIP3    H149761   5.586   4.152   4.261  0.1378  0.2013  0.1056
 8522TIP3    H249762   5.639   4.206   4.393 -0.7245 -0.1044  0.5852
 8523TIP3   OH249763   5.401   0.354   5.171  1.1000  0.0992 -0.8270
 8523TIP3    H149764   5.373   0.288   5.234 -0.8446 -0.5352 -2.2457
 8523TIP3    H249765   5.450   0.305   5.105  0.8916  0.2867 -1.1291
 8524TIP3   OH249766   3.258   5.460   4.070 -0.4849  0.6716  0.5343
 8524TIP3    H149767   3.246   5.382   4.125  0.2311 -0.4977 -0.8962
 8524TIP3    H249768   3.243   5.533   4.129 -0.1482 -0.5370  2.1884
 8525TIP3   OH249769   3.195   0.340   1.799 -0.3540 -0.1003  0.3415
 8525TIP3    H149770   3.219   0.249   1.784 -1.0727 -0.5794  1.8358
 8525TIP3    H249771   3.110   0.350   1.756  0.4719  0.3551 -1.2292
 8526TIP3   OH249772   6.615   2.205   2.860  0.3466  0.4102  0.1324
 8526TIP3    H149773   6.642   2.294   2.834 -0.1918  0.7749  0.7767
 8526TIP3    H249774   6.581   2.166   2.780  2.0406  0.2121 -0.5200
 8527TIP3   OH249775   1.780   1.389   4.222 -0.3485  0.2401  0.9852
 8527TIP3    H149776   1.875   1.389   4.211 -0.3414  0.3168  1.0458
 8527TIP3    H249777   1.745   1.407   4.134 -0.3179 -0.2576  0.8720
 8528TIP3   OH249778   2.717   4.684   2.370  0.2258 -0.1990 -0.0677
 8528TIP3    H149779   2.687   4.722   2.453 -0.0627  0.6033 -0.5297
 8528TIP3    H249780   2.659   4.610   2.356 -0.8478  0.6765 -0.3936
 8529TIP3   OH249781   6.216   5.782   4.455  0.2398  0.4035  0.8049
 8529TIP3    H149782   6.206   5.751   4.365  0.5917 -0.4667  1.0582
 8529TIP3    H249783   6.235   5.875   4.446  1.7495  0.0379 -0.0950
 8530TIP3   OH249784   3.613   5.161   2.163  0.0032 -0.2270 -0.1305
 8530TIP3    H149785   3.621   5.212   2.082 -5.1385  3.0639  0.9382
 8530TIP3    H249786   3.544   5.098   2.145  1.1379 -1.8263  0.8492
 8531TIP3   OH249787   4.016   2.555   3.411  0.2680 -0.0402  0.0382
 8531TIP3    H149788   3.966   2.486   3.368 -0.3208  1.1135 -1.1791
 8531TIP3    H249789   3.977   2.562   3.498  0.0775 -0.9565  0.0380
 8532TIP3   OH249790   4.452   4.656   5.722  0.0919 -0.3332  0.7594
 8532TIP3    H149791   4.418   4.689   5.639 -1.0438 -0.6549  1.0833
 8532TIP3    H249792   4.532   4.608   5.698  1.8462  2.5892  0.2617
 8533TIP3   OH249793   5.581   5.491   3.159  0.2624  0.4766  0.3934
 8533TIP3    H149794   5.628   5.452   3.085 -2.3563 -0.0190 -1.1374
 8533TIP3    H249795   5.519   5.423   3.187 -0.8051  1.6922  1.0911
 8534TIP3   OH249796   3.241   4.758   3.024 -0.0608  0.5614 -0.0688
 8534TIP3    H149797   3.162   4.775   2.972 -1.1217 -1.3567  0.8205
 8534TIP3    H249798   3.208   4.729   3.109  1.6034 -0.6035  0.2130
 8535TIP3   OH249799   3.800   0.919   4.771 -0.2527 -0.2286 -0.8296
 8535TIP3    H149800   3.813   1.012   4.751  0.5884 -0.1643 -0.0235
 8535TIP3    H249801   3.738   0.889   4.705 -1.0858  1.0742 -0.6781
 8536TIP3   OH249802   1.278   1.426   4.066 -0.7432  0.0609 -0.5729
 8536TIP3    H149803   1.265   1.378   4.148 -0.4591 -0.8049 -1.0145
 8536TIP3    H249804   1.221   1.502   4.073 -0.6925  0.0147  0.4428
 8537TIP3   OH249805   5.524   2.353   2.456 -0.6679 -0.8696  0.2697
 8537TIP3    H149806   5.499   2.270   2.416 -0.1069 -0.1776 -1.6589
 8537TIP3    H249807   5.608   2.376   2.414 -0.6632  0.5156  0.9641
 8538TIP3   OH249808   2.792   5.577   3.963  0.2015  0.6705  0.3258
 8538TIP3    H149809   2.725   5.512   3.941  0.7749  0.1736 -0.0078
 8538TIP3    H249810   2.838   5.540   4.038  1.1178  0.2408 -0.4242
 8539TIP3   OH249811   5.282   0.185   2.341  0.4061 -0.1146 -0.7162
 8539TIP3    H149812   5.371   0.158   2.318  0.5075  1.8119 -2.9342
 8539TIP3    H249813   5.225   0.122   2.296  0.6794  1.0008 -2.7609
 8540TIP3   OH249814   0.634   2.444   1.991 -0.1680 -0.0236 -0.0069
 8540TIP3    H149815   0.724   2.413   1.991 -0.5079 -1.0795 -1.4388
 8540TIP3    H249816   0.641   2.538   1.974  0.6356 -0.1862 -0.5956
 8541TIP3   OH249817   0.839   4.755   4.053  0.3130 -0.3989 -0.0010
 8541TIP3    H149818   0.915   4.709   4.089  1.0861 -0.0904 -1.1654
 8541TIP3    H249819   0.842   4.736   3.959 -2.2764 -2.1053  0.1835
 8542TIP3   OH249820   5.617   4.220   3.858 -0.1412 -0.0893 -0.2412
 8542TIP3    H149821   5.703   4.263   3.865 -0.6563  0.7879  1.2030
 8542TIP3    H249822   5.626   4.140   3.910  0.5071 -1.2752 -2.0953
 8543TIP3   OH249823   3.897   6.002   4.170 -0.3700  0.2545 -0.3585
 8543TIP3    H149824   3.818   6.047   4.139  0.7063  2.8025  0.3539
 8543TIP3    H249825   3.875   5.975   4.259 -0.6309  0.4650 -0.3545
 8544TIP3   OH249826   5.334   1.565   2.827  0.6525  0.4333 -0.5636
 8544TIP3    H149827   5.326   1.646   2.777  1.2956 -0.6352 -2.5045
 8544TIP3    H249828   5.393   1.587   2.899 -0.5020  2.0837 -0.0441
 8545TIP3   OH249829   4.298   1.936   3.998 -0.8002  0.2386  0.1198
 8545TIP3    H149830   4.322   2.012   3.945 -1.4148  0.8412  0.6708
 8545TIP3    H249831   4.215   1.906   3.960 -1.0811  0.4820  0.5208
 8546TIP3   OH249832   2.213   4.735   2.595 -0.8684  0.3056 -0.2345
 8546TIP3    H149833   2.233   4.658   2.543 -1.9630  0.4430 -0.9023
 8546TIP3    H249834   2.259   4.806   2.552  2.3124 -0.2838  1.8560
 8547TIP3   OH249835   1.345   2.413   3.035  0.3615  0.3880  0.2136
 8547TIP3    H149836   1.336   2.465   2.955  0.4217  1.2446  0.7420
 8547TIP3    H249837   1.257   2.411   3.073  0.0207 -1.2447 -0.5855
 8548TIP3   OH249838   6.375   2.799   4.509 -0.4977  0.4282  0.5094
 8548TIP3    H149839   6.443   2.747   4.551 -3.9302 -3.4107  1.9831
 8548TIP3    H249840   6.373   2.769   4.418 -2.9353 -3.0244  1.5098
 8549TIP3   OH249841   5.953   1.514   4.713 -0.0380 -0.0384 -0.1671
 8549TIP3    H149842   5.875   1.526   4.768  0.2884 -0.8492  0.4964
 8549TIP3    H249843   5.934   1.563   4.633 -0.0465  2.1556  1.0972
 8550TIP3   OH249844   4.572   1.782  12.084  0.0327 -0.6424  0.1646
 8550TIP3    H149845   4.646   1.842  12.082 -0.3121 -0.2179 -0.9520
 8550TIP3    H249846   4.542   1.784  12.175  0.6819  0.0619  0.3762
 8551TIP3   OH249847   2.354   6.229   4.534 -0.0505 -0.1375 -0.6852
 8551TIP3    H149848   2.376   6.320   4.516 -3.7664  0.9902 -0.4352
 8551TIP3    H249849   2.276   6.212   4.482 -2.4848 -1.4298  2.9451
 8552TIP3   OH249850   4.000   1.770   4.285  0.1003  0.2468  0.3596
 8552TIP3    H149851   3.916   1.812   4.266 -0.0011 -0.2001 -0.1965
 8552TIP3    H249852   4.062   1.811   4.225 -0.2349 -1.2165 -1.0669
 8553TIP3   OH249853   5.407   1.497   3.225  0.3422  0.1139  0.6807
 8553TIP3    H149854   5.359   1.436   3.280 -0.0215 -0.7390 -0.5418
 8553TIP3    H249855   5.491   1.454   3.207  0.1371  0.0081 -0.0764
 8554TIP3   OH249856   2.484   0.030   1.985  0.0923 -0.6389 -0.3274
 8554TIP3    H149857   2.564   0.034   1.931  0.2694 -1.7347 -0.1682
 8554TIP3    H249858   2.475  -0.062   2.007 -1.1293 -0.4992 -0.1841
 8555TIP3   OH249859   3.006   4.914   4.330  0.4153 -0.0316 -0.7561
 8555TIP3    H149860   3.012   5.008   4.350  0.7017 -0.0025 -0.9787
 8555TIP3    H249861   2.923   4.887   4.369  0.5995  0.1930 -0.1984
 8556TIP3   OH249862   0.755   2.937   2.109  0.1084  0.0144 -0.0012
 8556TIP3    H149863   0.790   3.011   2.059 -0.1924  0.1646  0.0060
 8556TIP3    H249864   0.779   2.957   2.200 -0.3587  0.3306  0.0565
 8557TIP3   OH249865   6.451   5.541   3.560  0.5945  0.2200  0.0351
 8557TIP3    H149866   6.403   5.612   3.517 -0.2829  0.5601  1.5172
 8557TIP3    H249867   6.388   5.501   3.619  2.0048  0.3995  1.7488
 8558TIP3   OH249868   5.857   2.459   5.030 -0.2605  0.5949 -0.2955
 8558TIP3    H149869   5.864   2.485   4.938  2.0907  0.1935 -0.2854
 8558TIP3    H249870   5.946   2.435   5.056 -0.7897  0.9834  2.1891
 8559TIP3   OH249871   4.452   0.983   3.112 -0.0791 -0.1952 -0.3746
 8559TIP3    H149872   4.546   0.963   3.112  0.0881  0.5195  0.2552
 8559TIP3    H249873   4.418   0.934   3.187 -0.5820 -1.9875 -1.7233
 8560TIP3   OH249874   3.142   0.865   3.728  0.1715  0.8165  0.0473
 8560TIP3    H149875   3.086   0.790   3.710  0.7664  0.5155 -0.6058
 8560TIP3    H249876   3.110   0.900   3.811 -0.5545  0.2587  0.0111
 8561TIP3   OH249877   3.004   3.010   2.601  0.5293  0.8074 -0.2475
 8561TIP3    H149878   2.980   2.939   2.660  1.8417 -1.6165 -2.4131
 8561TIP3    H249879   3.099   3.007   2.597  0.4748  0.1263 -3.2030
 8562TIP3   OH249880   1.402   2.351  11.914  0.4059 -0.3761 -0.6943
 8562TIP3    H149881   1.459   2.277  11.937 -0.1116 -0.6291 -0.2015
 8562TIP3    H249882   1.314   2.322  11.939  0.2055  0.4276 -0.4487
 8563TIP3   OH249883   2.189   6.082   4.367  0.2208 -0.0323  0.0362
 8563TIP3    H149884   2.101   6.052   4.344 -0.0285  0.0710  0.8121
 8563TIP3    H249885   2.204   6.048   4.455  0.7377  0.4246  0.1336
 8564TIP3   OH249886   3.074   3.579   2.560  0.2403  0.2795  1.0999
 8564TIP3    H149887   3.124   3.634   2.620  0.0174  0.4813  1.0979
 8564TIP3    H249888   3.067   3.495   2.606  0.5769  0.2518  1.1022
 8565TIP3   OH249889   4.244   5.197   2.872 -0.6440 -0.0532  0.0283
 8565TIP3    H149890   4.284   5.144   2.804  0.6968  0.0274  0.7238
 8565TIP3    H249891   4.213   5.134   2.937 -0.9976 -0.0765 -0.1582
 8566TIP3   OH249892   6.400   3.627   3.516 -0.3168 -0.3324  0.7857
 8566TIP3    H149893   6.398   3.532   3.527 -2.1500 -0.2390  1.7011
 8566TIP3    H249894   6.384   3.640   3.422 -2.0128 -0.9501  0.9433
 8567TIP3   OH249895   5.314   0.753   4.552  0.0069  0.3363 -0.4499
 8567TIP3    H149896   5.327   0.823   4.488 -1.7737 -1.8466 -3.4468
 8567TIP3    H249897   5.370   0.682   4.522  1.6500  0.2587  2.4211
 8568TIP3   OH249898   0.819   6.609   4.061 -0.2422  0.2613 -0.1730
 8568TIP3    H149899   0.906   6.617   4.021 -0.0123  0.1835  0.3015
 8568TIP3    H249900   0.764   6.667   4.009  0.9581  3.6102  1.9485
 8569TIP3   OH249901   3.506   6.829   4.755 -0.5941 -0.6741  0.4812
 8569TIP3    H149902   3.504   6.878   4.838 -0.0103 -1.6858  1.1116
 8569TIP3    H249903   3.414   6.825   4.728 -0.5666  1.8442 -0.2758
 8570TIP3   OH249904   5.925   5.960   3.251  0.1319  0.3569 -0.1884
 8570TIP3    H149905   5.935   5.884   3.308 -1.2184 -0.3713 -0.8801
 8570TIP3    H249906   5.856   5.936   3.190  0.0621  1.9343 -0.7868
 8571TIP3   OH249907   2.793   3.392   3.795  0.6787 -0.0388 -0.3487
 8571TIP3    H149908   2.811   3.362   3.884  0.4348 -1.0895 -0.6489
 8571TIP3    H249909   2.856   3.346   3.740  0.3956  0.0986 -0.7970
 8572TIP3   OH249910   5.106   3.592   2.909 -0.1668 -0.6761 -0.8145
 8572TIP3    H149911   5.090   3.672   2.957  1.3040  0.4376 -2.0703
 8572TIP3    H249912   5.056   3.601   2.828 -1.3384 -1.8086 -0.2500
 8573TIP3   OH249913   2.907   6.542   5.280 -0.3353  0.9074  0.0356
 8573TIP3    H149914   2.901   6.630   5.317 -0.6143  0.5059  0.9683
 8573TIP3    H249915   2.962   6.494   5.342 -2.9811 -0.5151  1.4339
 8574TIP3   OH249916   1.549   2.635   3.395 -0.3616 -0.4816 -0.3438
 8574TIP3    H149917   1.632   2.667   3.431 -1.2256  3.0008 -1.0531
 8574TIP3    H249918   1.575   2.578   3.322  1.3462 -1.1544  0.7203
 8575TIP3   OH249919   0.886   5.856   3.651 -0.1152  0.3786 -0.2740
 8575TIP3    H149920   0.828   5.781   3.654  0.8977 -0.4084  1.4396
 8575TIP3    H249921   0.972   5.821   3.675  0.7922  1.7418 -1.3767
 8576TIP3   OH249922   2.241   5.499   2.560  0.4414 -0.3591 -0.0663
 8576TIP3    H149923   2.183   5.429   2.593  0.2926 -0.4228 -0.4584
 8576TIP3    H249924   2.327   5.477   2.596  0.3742 -0.6895 -0.0989
 8577TIP3   OH249925   3.068   5.530   5.030  0.1475 -0.8635 -0.4797
 8577TIP3    H149926   2.986   5.573   5.002 -0.8379 -2.5166 -0.2697
 8577TIP3    H249927   3.096   5.580   5.107 -0.4186  0.0025 -0.8145
 8578TIP3   OH249928   0.406   1.631   2.594  0.0948 -0.5515  0.1088
 8578TIP3    H149929   0.336   1.587   2.545  0.5329 -1.3761  0.1893
 8578TIP3    H249930   0.424   1.711   2.545 -0.1146 -0.9047 -0.5547
 8579TIP3   OH249931   5.904   5.046   4.110 -0.8477  0.6256  0.2278
 8579TIP3    H149932   5.834   5.094   4.066 -0.8485  2.1129  1.7874
 8579TIP3    H249933   5.928   5.100   4.185  0.5589 -0.8549  0.9111
 8580TIP3   OH249934   0.362   2.362   2.062 -0.4903 -0.1382 -0.4388
 8580TIP3    H149935   0.449   2.396   2.044 -0.7696  0.2063 -1.2188
 8580TIP3    H249936   0.320   2.430   2.115 -0.7962  0.4170 -1.3691
 8581TIP3   OH249937   6.414   2.129   2.143  0.2473 -1.2754 -0.2182
 8581TIP3    H149938   6.454   2.194   2.085 -1.3287 -1.1730 -1.2780
 8581TIP3    H249939   6.321   2.151   2.143 -0.1830 -2.9058  0.2101
 8582TIP3   OH249940   3.788   1.014   3.450  0.0777  0.4705  0.2725
 8582TIP3    H149941   3.704   1.046   3.482  0.5692 -0.2266  2.4929
 8582TIP3    H249942   3.805   1.065   3.371 -2.9987 -0.2893 -1.0310
 8583TIP3   OH249943   1.537   5.299   3.726  0.8132  0.4934 -0.4023
 8583TIP3    H149944   1.553   5.222   3.780  0.4987  0.5398 -0.2391
 8583TIP3    H249945   1.623   5.337   3.712  0.8914  0.5194  0.1214
 8584TIP3   OH249946   4.869   5.265   5.355 -0.2456  0.3625  0.5236
 8584TIP3    H149947   4.910   5.222   5.430  1.4868  0.3325 -0.3921
 8584TIP3    H249948   4.894   5.357   5.363  0.6987  0.2159 -0.4477
 8585TIP3   OH249949   2.888   0.768   1.910  0.2953 -0.2660 -0.1442
 8585TIP3    H149950   2.822   0.725   1.965  1.1080 -1.7632 -0.2792
 8585TIP3    H249951   2.892   0.714   1.832  1.9190 -0.4139  0.0135
 8586TIP3   OH249952   0.666   5.506   3.455 -0.3835  0.0631  0.2278
 8586TIP3    H149953   0.668   5.438   3.522 -2.3884  0.3712  0.6633
 8586TIP3    H249954   0.757   5.537   3.450  0.6248 -2.6198 -0.0169
 8587TIP3   OH249955   6.467   1.660   2.094  0.3525 -0.4485 -0.0747
 8587TIP3    H149956   6.396   1.597   2.084  0.8151 -0.9928 -0.0076
 8587TIP3    H249957   6.541   1.620   2.047  1.3824 -1.1344  1.9955
 8588TIP3   OH249958   0.850   6.294   3.121  0.3611 -0.4199 -0.7449
 8588TIP3    H149959   0.915   6.311   3.052  0.4761 -1.9877 -1.0660
 8588TIP3    H249960   0.766   6.291   3.074  0.5550 -2.6548 -1.0987
 8589TIP3   OH249961   0.728   1.239   4.707  0.3382 -0.0475  0.3605
 8589TIP3    H149962   0.783   1.172   4.669 -0.5206 -0.6391  0.1276
 8589TIP3    H249963   0.711   1.300   4.635 -2.1724 -1.7319 -0.6052
 8590TIP3   OH249964   1.506   5.885   3.308 -0.5951  0.0141 -0.2591
 8590TIP3    H149965   1.427   5.938   3.291 -1.4768 -1.7057 -1.8691
 8590TIP3    H249966   1.516   5.831   3.230  1.5681 -0.6277  0.3983
 8591TIP3   OH249967   2.704   6.224   3.613  0.1890  0.2295  0.2888
 8591TIP3    H149968   2.662   6.304   3.580  1.1577 -0.4318 -2.8766
 8591TIP3    H249969   2.790   6.223   3.571  0.3878 -2.2424  0.6338
 8592TIP3   OH249970   4.709   3.490   3.323  0.5575 -0.3815  0.4855
 8592TIP3    H149971   4.657   3.429   3.374  0.7449 -0.2142  0.8831
 8592TIP3    H249972   4.650   3.522   3.255  0.2752 -0.5185  0.6675
 8593TIP3   OH249973   1.364   5.756   4.676 -0.5947 -0.2585 -0.0746
 8593TIP3    H149974   1.281   5.755   4.628 -0.4006 -1.6165 -0.4315
 8593TIP3    H249975   1.392   5.665   4.676  0.3806  0.0241  0.9650
 8594TIP3   OH249976   3.949   3.740   3.234 -0.1788  0.2507 -0.2259
 8594TIP3    H149977   3.883   3.794   3.192 -0.0065  1.8091  1.3863
 8594TIP3    H249978   4.033   3.771   3.200 -0.1747 -1.1287 -1.5988
 8595TIP3   OH249979   1.953   0.992   3.742 -0.1839 -0.3978 -0.1741
 8595TIP3    H149980   2.003   0.962   3.665  0.6684 -0.9933  0.5898
 8595TIP3    H249981   1.987   1.080   3.759  1.4127 -1.1769  0.9569
 8596TIP3   OH249982   3.289   2.316   3.767 -0.2080  0.2511 -0.3447
 8596TIP3    H149983   3.231   2.357   3.704  1.5242  0.8180 -1.6533
 8596TIP3    H249984   3.368   2.371   3.767  0.2530 -0.3116  1.5619
 8597TIP3   OH249985   4.617   1.691   4.241 -0.3877  0.0831  0.8302
 8597TIP3    H149986   4.586   1.671   4.153  1.2375  2.7329 -0.5037
 8597TIP3    H249987   4.548   1.745   4.279 -0.6462 -0.1861  0.7389
 8598TIP3   OH249988   3.026   6.304   3.664 -0.3867  0.0341 -0.1842
 8598TIP3    H149989   3.068   6.220   3.681 -1.0378 -0.1708  0.4938
 8598TIP3    H249990   3.002   6.301   3.572  0.7467  0.0105 -0.4892
 8599TIP3   OH249991   0.994   6.828   1.912  0.4822 -0.6042 -0.1177
 8599TIP3    H149992   1.064   6.778   1.870 -0.2964 -1.4045 -0.4996
 8599TIP3    H249993   1.040   6.896   1.962  1.5088 -0.8738 -0.6541
 8600TIP3   OH249994   0.223   3.862   2.527  0.1978  0.2222 -0.1248
 8600TIP3    H149995   0.300   3.869   2.471 -0.1186  0.6428 -0.5105
 8600TIP3    H249996   0.232   3.935   2.589  0.1232  0.2495 -0.1471
 8601TIP3   OH249997   0.986   3.831   3.185  0.3203 -0.0184  0.3018
 8601TIP3    H149998   0.899   3.858   3.154  0.4048 -0.6747 -0.5261
 8601TIP3    H249999   0.970   3.797   3.273 -0.3954 -0.8333 -0.1276
 8602TIP3   OH250000   5.859   2.883   3.703 -0.1688  0.0365  0.1146
 8602TIP3    H150001   5.945   2.914   3.730  0.3433 -2.4999  1.7905
 8602TIP3    H250002   5.877   2.815   3.639 -0.9922  0.1520 -0.2550
 8603TIP3   OH250003   5.043   1.832   4.755 -0.1783  0.4398  0.3110
 8603TIP3    H150004   4.986   1.904   4.784 -0.8816 -0.5001  1.3690
 8603TIP3    H250005   5.080   1.797   4.836  0.2279 -0.3272 -0.1961
 8604TIP3   OH250006   0.976   3.496   4.794 -0.3201 -0.1671 -0.1849
 8604TIP3    H150007   0.897   3.471   4.841  0.3971  0.1511  1.2491
 8604TIP3    H250008   0.946   3.562   4.731 -1.3955 -1.0397 -0.6273
 8605TIP3   OH250009   3.935   4.789   3.761 -0.2312 -0.3845  0.3222
 8605TIP3    H150010   3.975   4.850   3.699 -0.7203 -0.2112  0.1777
 8605TIP3    H250011   3.858   4.835   3.793 -0.0734 -0.5370  0.9405
 8606TIP3   OH250012   0.013   2.147   3.209 -0.1118 -0.2624 -0.5666
 8606TIP3    H150013   0.029   2.103   3.292  0.2385 -0.4369 -0.7247
 8606TIP3    H250014   0.077   2.110   3.149  0.4363  0.7131 -0.6111
 8607TIP3   OH250015   0.917   3.544   2.161 -0.1084  0.2450 -0.2147
 8607TIP3    H150016   0.997   3.559   2.110  0.4923 -0.1244  0.6056
 8607TIP3    H250017   0.916   3.450   2.176 -0.3858  0.3290  0.2911
 8608TIP3   OH250018   1.306   3.113   4.625 -0.1216  0.4369 -0.1632
 8608TIP3    H150019   1.213   3.130   4.637 -0.2270 -0.0107 -0.3159
 8608TIP3    H250020   1.321   3.029   4.669  0.2913  0.6967  0.1954
 8609TIP3   OH250021   0.673   5.291   2.621 -0.0829 -0.4400  0.0125
 8609TIP3    H150022   0.603   5.257   2.565 -0.6828  1.9983 -0.8296
 8609TIP3    H250023   0.747   5.305   2.561  0.3119 -0.6632  0.4341
 8610TIP3   OH250024   0.850   3.538   4.071  0.1685 -0.3887 -0.1791
 8610TIP3    H150025   0.937   3.563   4.041  1.0873 -2.0547  0.8980
 8610TIP3    H250026   0.863   3.509   4.162 -1.2318 -1.9781 -0.4156
 8611TIP3   OH250027   3.191   1.852   2.490 -0.1569 -0.4137 -0.3913
 8611TIP3    H150028   3.162   1.881   2.577  0.3331  0.3487 -0.4655
 8611TIP3    H250029   3.151   1.766   2.478 -0.0347 -0.6366  0.6959
 8612TIP3   OH250030   4.696   4.371   3.509  0.0045 -0.4105 -0.0805
 8612TIP3    H150031   4.673   4.297   3.453  1.5361 -1.0283  0.0596
 8612TIP3    H250032   4.781   4.400   3.477 -0.7887  1.6884 -0.5001
 8613TIP3   OH250033   1.021   0.559   2.583  0.5672 -0.2566 -0.2194
 8613TIP3    H150034   1.044   0.493   2.517 -0.5588 -0.3701 -0.5172
 8613TIP3    H250035   0.928   0.575   2.570  0.4918  0.2938  0.8442
 8614TIP3   OH250036   3.759   0.657   2.325  0.0458 -0.7770 -0.0334
 8614TIP3    H150037   3.664   0.650   2.335  0.1267 -1.9621  0.0950
 8614TIP3    H250038   3.791   0.677   2.413 -0.1231  0.1296 -0.1772
 8615TIP3   OH250039   1.822   1.909   2.105 -0.2211  0.4490 -0.6197
 8615TIP3    H150040   1.840   1.912   2.199  1.4999 -0.3135 -0.8894
 8615TIP3    H250041   1.808   1.816   2.086 -2.1306  0.7507 -0.8844
 8616TIP3   OH250042   2.049   1.138   4.068 -0.7861 -0.0836 -0.2167
 8616TIP3    H150043   2.064   1.157   3.975 -1.4898  1.1271 -0.0990
 8616TIP3    H250044   2.112   1.069   4.088  0.9190  1.1501 -1.0534
 8617TIP3   OH250045   1.299   5.732   2.460 -0.3780  0.0325 -0.4315
 8617TIP3    H150046   1.347   5.678   2.522 -1.4961 -0.5772 -0.0583
 8617TIP3    H250047   1.216   5.750   2.504 -0.8685  0.2624 -1.4241
 8618TIP3   OH250048   4.401   1.157   2.084 -0.4623  0.1987  0.4954
 8618TIP3    H150049   4.487   1.145   2.044 -1.5272 -0.0960 -1.8325
 8618TIP3    H250050   4.421   1.195   2.170  1.9241  2.2603 -0.8106
 8619TIP3   OH250051   4.730   0.102   3.756  0.2361  0.1553 -1.0373
 8619TIP3    H150052   4.735   0.033   3.822  1.4369  0.0372 -1.2271
 8619TIP3    H250053   4.787   0.171   3.790  1.0880 -0.0176 -2.0710
 8620TIP3   OH250054   2.932   5.838   2.234  0.0021 -0.1877 -0.1867
 8620TIP3    H150055   2.853   5.890   2.221  0.1878  1.0496  2.8299
 8620TIP3    H250056   2.930   5.813   2.327  2.4359 -1.3649 -0.3638
 8621TIP3   OH250057   0.228   4.688   2.941 -0.3870  0.0037  0.6447
 8621TIP3    H150058   0.150   4.743   2.938  0.4926  1.2481 -0.4394
 8621TIP3    H250059   0.295   4.743   2.981  0.1871 -0.7541  0.7575
 8622TIP3   OH250060   6.755   1.906   3.663  0.2593  0.5180 -0.2147
 8622TIP3    H150061   6.787   1.932   3.577 -1.5299  3.4930 -0.0848
 8622TIP3    H250062   6.719   1.818   3.650  2.2254 -0.1329 -1.8449
 8623TIP3   OH250063   3.077   1.778   3.033 -0.0039 -0.6336  0.6049
 8623TIP3    H150064   3.170   1.766   3.052  0.3873  2.0642  0.7181
 8623TIP3    H250065   3.034   1.707   3.081  1.9223 -1.5233  1.1144
 8624TIP3   OH250066   4.919   0.403   5.964 -0.0861  0.2601 -0.1403
 8624TIP3    H150067   4.944   0.374   5.876 -1.8451  1.2553 -1.0362
 8624TIP3    H250068   4.989   0.463   5.990 -0.5778  1.6630 -1.8384
 8625TIP3   OH250069   2.503   2.480   2.477 -0.4537 -0.0801  0.0248
 8625TIP3    H150070   2.485   2.386   2.468 -1.3600  0.1013 -0.2178
 8625TIP3    H250071   2.451   2.506   2.554 -0.4749  0.2847 -0.1121
 8626TIP3   OH250072   1.904   6.010   3.781 -0.0929 -0.1194  0.2038
 8626TIP3    H150073   1.881   5.918   3.794  1.2293 -0.2247  2.1327
 8626TIP3    H250074   1.956   6.011   3.700  1.4422 -1.3850  1.1350
 8627TIP3   OH250075   4.090   2.857   2.122 -0.1866 -0.2999  0.6836
 8627TIP3    H150076   4.122   2.788   2.181 -0.4116 -0.3386  0.7614
 8627TIP3    H250077   4.049   2.809   2.050  1.7821 -0.3084 -0.5059
 8628TIP3   OH250078   2.128   3.385   2.674  0.4232  0.6830 -0.5723
 8628TIP3    H150079   2.189   3.386   2.748  0.8581  2.2737 -0.9026
 8628TIP3    H250080   2.163   3.451   2.613 -1.6232  1.6866 -0.7567
 8629TIP3   OH250081   4.552   3.959   3.244  0.6602  0.2666  0.1441
 8629TIP3    H150082   4.584   3.950   3.333  1.5279 -1.4032 -0.2983
 8629TIP3    H250083   4.491   3.886   3.232  0.8398  0.2456 -0.7347
 8630TIP3   OH250084   1.875   2.998   3.544 -0.3178 -0.5249 -0.0065
 8630TIP3    H150085   1.849   3.062   3.478 -2.9030 -0.8279  0.5937
 8630TIP3    H250086   1.966   2.979   3.524 -0.7205  0.0761 -2.8980
 8631TIP3   OH250087   3.294   4.897   4.853 -0.1930  0.1018  0.0097
 8631TIP3    H150088   3.333   4.970   4.804 -0.4896  0.2698  0.0229
 8631TIP3    H250089   3.350   4.822   4.833  1.8280  0.8811  2.1571
 8632TIP3   OH250090   0.470   0.665   3.628 -0.3525  0.0955  0.0530
 8632TIP3    H150091   0.465   0.754   3.663  1.1778 -0.7301  2.6079
 8632TIP3    H250092   0.399   0.618   3.672  1.7498 -1.0195  2.4715
 8633TIP3   OH250093   2.609   6.366   1.995  0.0757  0.0226 -0.2547
 8633TIP3    H150094   2.629   6.303   1.926 -1.2592  0.1131 -0.7381
 8633TIP3    H250095   2.661   6.337   2.070  2.7305  0.7556 -1.6752
 8634TIP3   OH250096   6.024   2.200   4.829 -0.0495 -0.1173 -0.8103
 8634TIP3    H150097   6.103   2.169   4.784  0.0368  0.8971 -1.4126
 8634TIP3    H250098   5.961   2.213   4.758  0.4597  2.6414 -0.8642
 8635TIP3   OH250099   2.963   1.209   2.334 -0.6070 -0.8550 -0.0761
 8635TIP3    H150100   2.958   1.289   2.282 -1.9381 -0.5952  0.4018
 8635TIP3    H250101   2.953   1.238   2.424  1.3075 -1.3383  0.3349
 8636TIP3   OH250102   5.484   3.748   2.361  0.4248 -0.5466 -0.2769
 8636TIP3    H150103   5.443   3.736   2.446 -0.5322  0.0903 -0.6322
 8636TIP3    H250104   5.427   3.702   2.300  1.3076 -1.3194 -0.5410
 8637TIP3   OH250105   2.118   4.141   2.548 -0.2614 -0.1619  0.3457
 8637TIP3    H150106   2.053   4.212   2.547 -1.1373 -0.9386  0.2861
 8637TIP3    H250107   2.102   4.095   2.630  1.2426  0.5250  1.0559
 8638TIP3   OH250108   2.703   4.799   4.086 -0.0619 -0.3678  1.4527
 8638TIP3    H150109   2.691   4.892   4.104  0.6386  0.4925 -1.7361
 8638TIP3    H250110   2.798   4.789   4.076 -0.2044 -1.1916  0.8348
 8639TIP3   OH250111   3.225   4.112   4.631 -0.1376  0.1766  0.2683
 8639TIP3    H150112   3.165   4.153   4.693  0.5680 -0.7271  1.5903
 8639TIP3    H250113   3.269   4.186   4.588 -4.6896  1.1516 -3.5941
 8640TIP3   OH250114   0.564   1.252   3.785  0.3128  0.2520  0.3752
 8640TIP3    H150115   0.502   1.226   3.853  0.9786 -0.6291  0.6595
 8640TIP3    H250116   0.509   1.293   3.718 -0.4925  0.1211  0.9358
 8641TIP3   OH250117   2.509   1.592   3.028  0.0802 -0.3763  0.3687
 8641TIP3    H150118   2.507   1.567   2.935 -1.0328  0.8566  0.0211
 8641TIP3    H250119   2.518   1.509   3.074  0.3714 -1.0494 -0.8357
 8642TIP3   OH250120   5.539   5.998   2.884 -0.1333  0.1688 -0.2725
 8642TIP3    H150121   5.527   5.909   2.851 -1.9553  0.5712 -0.7855
 8642TIP3    H250122   5.474   6.008   2.953  0.0853  1.0662 -0.1765
 8643TIP3   OH250123   3.832   3.611   5.474 -0.0456  0.4370 -0.4459
 8643TIP3    H150124   3.884   3.625   5.394  1.1333 -2.5750 -0.3401
 8643TIP3    H250125   3.891   3.636   5.545 -0.2841  0.9762 -0.4323
 8644TIP3   OH250126   4.337   6.057   5.501  0.1487  0.0071  0.6102
 8644TIP3    H150127   4.256   6.095   5.468 -0.5444 -0.4349  1.7664
 8644TIP3    H250128   4.361   5.991   5.436 -1.5384 -1.2925  1.2542
 8645TIP3   OH250129   1.883   5.447   2.967  0.2464  0.0782 -0.0357
 8645TIP3    H150130   1.856   5.360   2.994  2.4590 -0.2811  1.2981
 8645TIP3    H250131   1.920   5.487   3.046  0.4206  1.7622 -0.9119
 8646TIP3   OH250132   0.439   1.835   2.418  0.2068  0.0283 -0.1999
 8646TIP3    H150133   0.435   1.789   2.334  1.0104  3.3284 -2.2201
 8646TIP3    H250134   0.371   1.902   2.411  1.3285  1.3565  1.1479
 8647TIP3   OH250135   0.072   2.653   3.099  1.1388  0.2119  0.2909
 8647TIP3    H150136   0.041   2.563   3.116 -1.5550  1.1953  1.1119
 8647TIP3    H250137   0.093   2.688   3.185  0.3120  0.9686  0.1943
 8648TIP3   OH250138   3.624   0.457   2.713 -0.4332  0.4886 -0.5167
 8648TIP3    H150139   3.630   0.552   2.719 -2.5641  0.6348  0.1041
 8648TIP3    H250140   3.705   0.425   2.753 -0.7035  2.0129  1.3568
 8649TIP3   OH250141   0.496   4.491   3.675  0.6175 -0.3941  0.1109
 8649TIP3    H150142   0.424   4.435   3.704 -0.4990  1.0980  0.3532
 8649TIP3    H250143   0.562   4.483   3.743 -0.2481 -0.1171  1.0145
 8650TIP3   OH250144   4.582   4.439   1.952  0.1609  0.0138  0.0806
 8650TIP3    H150145   4.549   4.353   1.928 -0.8241 -0.0860  1.6977
 8650TIP3    H250146   4.647   4.423   2.020 -0.9732  0.6033  1.3385
 8651TIP3   OH250147   1.505   0.216   1.866  0.0130 -0.5547 -0.1388
 8651TIP3    H150148   1.593   0.196   1.896 -0.6496 -0.9239  1.7082
 8651TIP3    H250149   1.468   0.132   1.840  0.2032 -0.3946 -0.9558
 8652TIP3   OH250150   5.953   0.088   3.003 -0.0418 -0.0291  0.8386
 8652TIP3    H150151   5.870   0.116   3.043  0.1336  0.5813  0.7838
 8652TIP3    H250152   5.938   0.096   2.908 -0.3011 -1.0271  0.7863
 8653TIP3   OH250153   1.202   0.882   2.020  0.4687  0.0548  0.1749
 8653TIP3    H150154   1.109   0.863   2.008 -0.0043  0.7606  2.2942
 8653TIP3    H250155   1.237   0.806   2.066  0.9528 -0.2201 -0.6407
 8654TIP3   OH250156   5.757   1.705   5.492  0.0711  1.0204  0.3904
 8654TIP3    H150157   5.697   1.640   5.527  0.9722  1.1880  2.3643
 8654TIP3    H250158   5.802   1.659   5.420 -0.8938  0.2286  0.2713
 8655TIP3   OH250159   2.077   4.250   4.053  0.6189 -0.5620  0.1781
 8655TIP3    H150160   2.109   4.161   4.040  1.9349 -0.0073 -0.6169
 8655TIP3    H250161   2.143   4.292   4.108  0.1223 -0.0147  0.3704
 8656TIP3   OH250162   3.569   1.111   4.546 -0.5181 -0.1657  0.6060
 8656TIP3    H150163   3.598   1.127   4.456 -2.5543 -1.5008 -0.3642
 8656TIP3    H250164   3.583   1.194   4.591  0.5932  0.5209 -0.9277
 8657TIP3   OH250165   2.001   4.601   4.319  0.2262  0.4025 -0.2085
 8657TIP3    H150166   2.097   4.599   4.327  0.3583  0.3297 -1.6316
 8657TIP3    H250167   1.982   4.688   4.282 -0.1490 -0.0313 -1.0534
 8658TIP3   OH250168   6.292   3.600   2.656 -1.0444 -0.4112 -0.2205
 8658TIP3    H150169   6.301   3.575   2.748  0.3870  0.4865 -0.0772
 8658TIP3    H250170   6.233   3.535   2.619 -2.4543 -0.2093  1.5501
 8659TIP3   OH250171   0.339   0.669   2.791  0.0131  0.0151  0.0738
 8659TIP3    H150172   0.386   0.684   2.709 -0.6791  0.1986 -0.3023
 8659TIP3    H250173   0.399   0.701   2.859  0.7194 -0.4206 -0.3313
 8660TIP3   OH250174   4.681   1.176   3.323 -0.7337  0.4980  0.5483
 8660TIP3    H150175   4.662   1.115   3.395 -0.6679  1.3377  1.3001
 8660TIP3    H250176   4.695   1.120   3.247 -0.7695 -0.4168  1.1986
 8661TIP3   OH250177   2.680   4.218   3.087  0.0847 -0.1246 -0.0805
 8661TIP3    H150178   2.763   4.241   3.128  0.8122 -0.0799 -1.5155
 8661TIP3    H250179   2.614   4.243   3.151  1.1144  0.9150  0.6180
 8662TIP3   OH250180   1.195   1.163   2.737 -0.5365 -0.2870 -0.3150
 8662TIP3    H150181   1.272   1.198   2.780 -1.5830  0.6558  0.8779
 8662TIP3    H250182   1.121   1.198   2.787 -1.7916 -0.1547 -2.1375
 8663TIP3   OH250183   4.523   0.569   2.725 -0.0966 -0.2064 -0.1189
 8663TIP3    H150184   4.556   0.655   2.752  0.3045 -0.0766 -0.9792
 8663TIP3    H250185   4.559   0.557   2.637 -0.9253 -0.8442 -0.3788
 8664TIP3   OH250186   6.717   3.712   3.997  0.2673 -0.7115  0.3921
 8664TIP3    H150187   6.807   3.716   4.031  1.0798 -1.9282 -1.4452
 8664TIP3    H250188   6.702   3.619   3.978 -0.8594 -0.3563 -0.6126
 8665TIP3   OH250189   0.675   4.234   4.058  0.0178  0.1401  0.1556
 8665TIP3    H150190   0.609   4.168   4.035 -0.1535  0.4293 -0.1848
 8665TIP3    H250191   0.755   4.204   4.016  0.4864 -0.9849  1.7350
 8666TIP3   OH250192   3.010   1.261   3.187 -0.3538 -0.7502  0.0787
 8666TIP3    H150193   2.952   1.236   3.259 -0.0701  0.5627  0.7999
 8666TIP3    H250194   2.983   1.205   3.114 -2.4284 -0.3133  0.4266
 8667TIP3   OH250195   0.690   5.343   3.691 -0.2975  0.4724  0.2286
 8667TIP3    H150196   0.748   5.266   3.697 -2.1099 -1.0832 -0.9344
 8667TIP3    H250197   0.651   5.350   3.779  1.1556  1.1815  0.8515
 8668TIP3   OH250198   4.839   2.517   4.789 -0.4001  0.1832 -0.2504
 8668TIP3    H150199   4.902   2.589   4.791 -0.5426  0.3023 -0.0022
 8668TIP3    H250200   4.781   2.538   4.716  0.4706 -0.4625 -1.1581
 8669TIP3   OH250201   2.971   4.754   4.118  0.1774 -0.1945 -0.0545
 8669TIP3    H150202   3.006   4.668   4.145  1.6145  0.1618 -0.6716
 8669TIP3    H250203   2.987   4.811   4.193  2.7412  0.4163 -0.9647
 8670TIP3   OH250204   6.664   0.061   3.474 -0.5950  0.5648  0.0112
 8670TIP3    H150205   6.579   0.091   3.441 -0.5974  0.3429 -0.1895
 8670TIP3    H250206   6.728   0.110   3.421 -0.5895 -0.6081 -1.1251
 8671TIP3   OH250207   5.083   6.242   5.068  0.6595 -0.5295 -0.2386
 8671TIP3    H150208   5.070   6.167   5.009 -0.2548  1.1676 -2.3294
 8671TIP3    H250209   5.177   6.255   5.070  0.9596 -2.5207  1.2656
 8672TIP3   OH250210   1.857   5.831   3.398  0.1685  0.1207  0.1026
 8672TIP3    H150211   1.768   5.801   3.417  0.2795  0.7013  1.6327
 8672TIP3    H250212   1.852   5.926   3.402  1.2658  0.1466  2.3649
 8673TIP3   OH250213   4.249   4.941   4.439  0.0202 -0.1225 -0.1105
 8673TIP3    H150214   4.273   4.885   4.513 -1.6830 -2.0967 -0.9403
 8673TIP3    H250215   4.331   4.982   4.412  1.2786 -1.8522  0.8710
 8674TIP3   OH250216   0.911   2.874   4.303 -0.5986  0.9021  0.1982
 8674TIP3    H150217   0.981   2.825   4.261 -1.6263 -0.3729 -0.0779
 8674TIP3    H250218   0.949   2.960   4.320  1.7145 -0.3560  1.9469
 8675TIP3   OH250219   0.844   4.963   2.781 -0.0373  0.2932 -0.3323
 8675TIP3    H150220   0.858   5.033   2.717  0.7207  0.4006 -0.0604
 8675TIP3    H250221   0.916   4.974   2.844 -0.0847 -0.5454 -0.1239
 8676TIP3   OH250222   5.833   3.114   2.533 -0.5505  0.3249  0.1289
 8676TIP3    H150223   5.843   3.090   2.441  0.2434 -0.0387  0.2981
 8676TIP3    H250224   5.876   3.199   2.540  1.4519 -0.6437  0.5871
 8677TIP3   OH250225   3.284   4.151   4.267  0.4469 -0.2464 -0.3409
 8677TIP3    H150226   3.362   4.162   4.320  0.3418 -0.1065 -0.2168
 8677TIP3    H250227   3.224   4.219   4.297  1.7284  2.3375 -3.1290
 8678TIP3   OH250228   3.439   0.502   4.575 -0.0210 -0.4859 -0.1477
 8678TIP3    H150229   3.422   0.423   4.523  1.5772 -0.2639 -1.1032
 8678TIP3    H250230   3.473   0.565   4.511 -1.1035  0.9323  0.6336
 8679TIP3   OH250231   1.677   0.940   3.761  0.4389 -0.3058 -0.4882
 8679TIP3    H150232   1.771   0.954   3.771  0.6276 -2.5183  2.0131
 8679TIP3    H250233   1.670   0.851   3.724 -0.5584 -1.5397  2.3828
 8680TIP3   OH250234   3.509   3.961   4.149 -0.0867  0.3300 -0.0084
 8680TIP3    H150235   3.516   3.955   4.244 -3.0096  0.9366  0.3252
 8680TIP3    H250236   3.596   3.988   4.120  0.3231  2.2742  2.6881
 8681TIP3   OH250237   5.895   5.024   4.515  0.5159  0.5805  0.1338
 8681TIP3    H150238   5.920   5.076   4.438  2.6677 -0.3654  0.1073
 8681TIP3    H250239   5.979   5.000   4.555 -0.4017 -2.1859  0.5778
 8682TIP3   OH250240   4.812   4.116   4.796  0.1746 -0.3549 -0.4256
 8682TIP3    H150241   4.797   4.034   4.844 -0.7564  0.0960  0.0927
 8682TIP3    H250242   4.875   4.163   4.850 -0.2694 -0.1895 -0.0360
 8683TIP3   OH250243   6.653   3.310   3.692  0.0103 -0.3352 -0.5159
 8683TIP3    H150244   6.585   3.375   3.671 -2.3185 -2.8115 -1.1986
 8683TIP3    H250245   6.604   3.237   3.731  2.6887 -1.1418  1.6312
 8684TIP3   OH250246   2.857   4.393   4.888  0.2417 -0.5227  0.2622
 8684TIP3    H150247   2.771   4.356   4.872 -0.5106  1.7772 -1.6904
 8684TIP3    H250248   2.839   4.477   4.932  1.6067 -0.7611  1.3365
 8685TIP3   OH250249   3.191   4.003   1.999 -0.6082  0.9128 -0.0039
 8685TIP3    H150250   3.124   4.054   1.954 -0.2035  0.9807 -0.5321
 8685TIP3    H250251   3.273   4.025   1.954 -0.7122 -2.0721 -1.9489
 8686TIP3   OH250252   1.775   5.075   2.439  0.5387  0.3451 -0.4755
 8686TIP3    H150253   1.793   5.164   2.410 -1.3948  0.4918 -1.4402
 8686TIP3    H250254   1.722   5.085   2.518  1.8349 -0.0089  0.4747
 8687TIP3   OH250255   3.620   4.315   3.542  0.6743 -0.2000  0.0477
 8687TIP3    H150256   3.708   4.279   3.537  1.3312  1.1278  1.2161
 8687TIP3    H250257   3.632   4.409   3.535 -0.6220  0.0240  0.5285
 8688TIP3   OH250258   5.426   6.446   3.724 -0.2815 -0.0863  0.3760
 8688TIP3    H150259   5.439   6.354   3.747  3.7510  0.9194  3.1809
 8688TIP3    H250260   5.500   6.467   3.667 -0.7825  1.5470  0.2820
 8689TIP3   OH250261   2.363   5.796   2.969 -0.2070 -0.5135 -0.1746
 8689TIP3    H150262   2.457   5.811   2.973 -0.0429 -1.2108 -1.1037
 8689TIP3    H250263   2.328   5.843   3.044  1.0208 -1.3474  0.9595
 8690TIP3   OH250264   1.131   4.407   1.793 -0.9573  0.3929  0.4289
 8690TIP3    H150265   1.053   4.351   1.796 -0.1590 -1.3121 -3.5776
 8690TIP3    H250266   1.204   4.346   1.794  0.0220  1.3838 -2.0467
 8691TIP3   OH250267   2.039   0.107   3.692 -0.1524 -0.6125 -0.7360
 8691TIP3    H150268   2.088   0.041   3.741 -0.0144 -0.6937 -0.9846
 8691TIP3    H250269   2.074   0.103   3.603  1.1677  1.0703 -0.3500
 8692TIP3   OH250270   5.423   0.194   4.946 -0.5684  0.2125  0.1094
 8692TIP3    H150271   5.385   0.107   4.960  0.4662 -0.4555 -1.0083
 8692TIP3    H250272   5.420   0.207   4.851 -1.8351  1.9483  0.3493
 8693TIP3   OH250273   5.485   6.685   2.362 -0.1075  0.1261 -0.2672
 8693TIP3    H150274   5.449   6.625   2.428 -1.7566 -0.6615 -1.8064
 8693TIP3    H250275   5.493   6.632   2.283  0.7652  1.3330 -1.0271
 8694TIP3   OH250276   0.893   2.861   4.615 -0.1890  0.0805  0.2934
 8694TIP3    H150277   0.874   2.773   4.649 -1.0220  0.1855  0.1171
 8694TIP3    H250278   0.812   2.910   4.629  0.3683  0.9149  0.6697
 8695TIP3   OH250279   4.314   6.307   4.232  0.1989 -0.0328 -0.2516
 8695TIP3    H150280   4.276   6.369   4.294  0.4928  1.6849 -1.7069
 8695TIP3    H250281   4.241   6.249   4.208 -0.0780 -0.3023  1.1334
 8696TIP3   OH250282   1.901   0.603   1.757 -0.0231  0.5311 -0.9943
 8696TIP3    H150283   1.948   0.658   1.694  0.3796 -0.2912 -1.4279
 8696TIP3    H250284   1.969   0.568   1.815 -0.2579  0.4097 -0.7900
 8697TIP3   OH250285   0.285   0.642   2.388  0.2351  0.1884  0.1129
 8697TIP3    H150286   0.201   0.665   2.347  0.5519  1.3350  0.0862
 8697TIP3    H250287   0.294   0.548   2.372 -0.7713  0.1603 -0.3856
 8698TIP3   OH250288   5.469   2.943   4.445  0.0817  0.1806 -0.4511
 8698TIP3    H150289   5.529   2.871   4.425  0.1392 -0.4659  1.8100
 8698TIP3    H250290   5.394   2.900   4.487 -0.3600  1.3552 -0.0175
 8699TIP3   OH250291   3.696   1.718   4.300 -0.0132  0.0154 -0.0206
 8699TIP3    H150292   3.704   1.664   4.378  0.2088 -0.4038 -0.3300
 8699TIP3    H250293   3.644   1.793   4.328  0.3266  0.0204  0.6078
 8700TIP3   OH250294   1.326   1.388   2.109  0.2388 -0.2442 -0.1761
 8700TIP3    H150295   1.262   1.385   2.180  0.1772  0.8800 -0.1732
 8700TIP3    H250296   1.337   1.296   2.083  1.1426 -0.8029  2.0408
 8701TIP3   OH250297   4.173   1.599   2.497 -0.1446  0.3593  0.2096
 8701TIP3    H150298   4.090   1.646   2.499  0.8071  2.0800  1.6555
 8701TIP3    H250299   4.196   1.586   2.589  0.8988 -0.6643 -0.1653
 8702TIP3   OH250300   0.872   2.546   3.215 -0.1394  0.2504 -0.0769
 8702TIP3    H150301   0.833   2.561   3.301 -1.2124 -0.3862 -0.4311
 8702TIP3    H250302   0.909   2.631   3.189 -1.2606  0.8676  0.2998
 8703TIP3   OH250303   6.373   5.792   3.336  0.3648 -0.1392  0.1377
 8703TIP3    H150304   6.352   5.860   3.271 -0.1887  0.3373  0.8043
 8703TIP3    H250305   6.413   5.722   3.285 -0.9594 -0.1892 -0.8795
 8704TIP3   OH250306   6.782   2.953   2.515  0.3523  0.2252  0.1586
 8704TIP3    H150307   6.719   2.976   2.447  1.4385 -0.5796 -1.1804
 8704TIP3    H250308   6.740   2.882   2.564  0.1964 -0.3028 -0.7130
 8705TIP3   OH250309   3.232   4.108   4.993 -0.2901 -0.0854 -0.7075
 8705TIP3    H150310   3.323   4.139   4.990 -0.9443  2.0109 -0.5338
 8705TIP3    H250311   3.186   4.165   4.931 -1.6454 -0.5440 -0.1541
 8706TIP3   OH250312   6.783   6.385   3.010  0.0104  0.1191  0.2163
 8706TIP3    H150313   6.729   6.326   2.957  0.8615 -0.4274 -0.0485
 8706TIP3    H250314   6.873   6.358   2.993  0.3821  1.0759  0.5950
 8707TIP3   OH250315   1.859   2.452   5.287  0.8466  0.3679  0.3480
 8707TIP3    H150316   1.951   2.430   5.275  1.5927  2.7516  1.1505
 8707TIP3    H250317   1.860   2.531   5.341 -1.6692  0.5092  0.2999
 8708TIP3   OH250318   1.294   0.058   5.171  0.0798  0.3612 -0.0792
 8708TIP3    H150319   1.316   0.130   5.231  1.6522  0.3623 -0.6115
 8708TIP3    H250320   1.364  -0.005   5.183 -0.6137 -0.5182 -0.5490
 8709TIP3   OH250321   6.414   5.448   4.033  0.1074  0.1950 -0.6312
 8709TIP3    H150322   6.479   5.438   3.963 -1.0736  1.6708 -2.0052
 8709TIP3    H250323   6.466   5.459   4.112  1.5203  0.2803 -1.5360
 8710TIP3   OH250324   6.333   0.623   2.993  0.0778  0.3124 -0.2530
 8710TIP3    H150325   6.394   0.694   3.012  0.3304 -0.4893  2.3323
 8710TIP3    H250326   6.258   0.640   3.050 -1.4432  0.3913 -2.2020
 8711TIP3   OH250327   3.004   4.921   3.804 -0.5800 -0.2994 -0.2394
 8711TIP3    H150328   2.933   4.986   3.802  1.0336  1.6386  1.0695
 8711TIP3    H250329   3.044   4.927   3.717 -1.1906 -0.4486 -0.5375
 8712TIP3   OH250330   2.193   1.416   3.436 -0.1262  0.4823  0.2812
 8712TIP3    H150331   2.108   1.416   3.391 -0.8917  0.4137  1.6713
 8712TIP3    H250332   2.186   1.487   3.500  0.6459  0.0767  0.8244
 8713TIP3   OH250333   5.464   6.250   4.103  0.8871 -0.2085  0.4423
 8713TIP3    H150334   5.437   6.268   4.193  3.0327 -0.4444  1.1932
 8713TIP3    H250335   5.503   6.332   4.073 -0.7865  0.2207 -0.7166
 8714TIP3   OH250336   1.373   6.483   4.243  0.0414  0.1302 -0.4793
 8714TIP3    H150337   1.394   6.483   4.150 -0.6902  1.5063 -0.6646
 8714TIP3    H250338   1.439   6.541   4.282  1.5425 -1.8980  0.2015
 8715TIP3   OH250339   4.411   3.709   3.218  0.0470 -0.2012 -0.2034
 8715TIP3    H150340   4.470   3.644   3.178  0.7000  0.3995 -0.2325
 8715TIP3    H250341   4.323   3.677   3.197  0.3673 -0.5085 -1.1532
 8716TIP3   OH250342   0.326   4.585   2.388  0.1080  0.1174  0.0561
 8716TIP3    H150343   0.358   4.557   2.303  0.0076 -0.8535  0.3279
 8716TIP3    H250344   0.281   4.668   2.371 -0.3604 -0.3284 -0.9145
 8717TIP3   OH250345   4.512   1.850   3.093  0.0659 -0.3978 -0.6510
 8717TIP3    H150346   4.537   1.940   3.111  2.3575 -0.9259 -0.8835
 8717TIP3    H250347   4.484   1.815   3.178  1.1355 -0.0520 -0.1478
 8718TIP3   OH250348   5.310   3.619   2.154  0.0028  0.5078  0.4027
 8718TIP3    H150349   5.214   3.612   2.151  0.0260  0.3934 -0.1861
 8718TIP3    H250350   5.341   3.553   2.092  0.4524  0.7488  0.3653
 8719TIP3   OH250351   1.675   6.342   2.652  0.6206 -0.3559 -0.0683
 8719TIP3    H150352   1.701   6.300   2.570  1.5188  1.2427 -0.6323
 8719TIP3    H250353   1.744   6.405   2.670 -0.0545  0.0102  1.4218
 8720TIP3   OH250354   1.474   5.896   3.901 -0.3931 -0.5260 -0.0303
 8720TIP3    H150355   1.521   5.858   3.826  0.3375 -1.4105  0.8488
 8720TIP3    H250356   1.394   5.843   3.907 -0.6582 -0.1785 -0.4344
 8721TIP3   OH250357   4.928   3.979   5.314  0.4507 -0.0485 -1.0425
 8721TIP3    H150358   4.969   3.909   5.263  3.9802  1.9890 -1.3410
 8721TIP3    H250359   4.856   4.010   5.259  0.0663 -2.1050 -1.7634
 8722TIP3   OH250360   3.223   5.758   3.803 -0.3277 -0.4057  0.1998
 8722TIP3    H150361   3.288   5.779   3.736  0.1121 -0.5754  0.5708
 8722TIP3    H250362   3.247   5.670   3.833  0.7275  0.4547  2.0247
 8723TIP3   OH250363   5.433   0.456   4.191  0.4513  0.4696 -0.3256
 8723TIP3    H150364   5.407   0.373   4.152 -0.8392  0.4260  0.5998
 8723TIP3    H250365   5.360   0.515   4.173  1.1520  1.3017 -0.5660
 8724TIP3   OH250366   3.482   4.469   3.885  0.2513  0.3919 -0.5717
 8724TIP3    H150367   3.549   4.533   3.863  1.6759 -0.0578  2.0257
 8724TIP3    H250368   3.528   4.385   3.888 -0.5831 -0.0611  0.4199
 8725TIP3   OH250369   3.551   1.668   2.861 -0.3715 -0.6593 -0.1722
 8725TIP3    H150370   3.506   1.584   2.869 -1.8744  0.2246  1.2462
 8725TIP3    H250371   3.638   1.645   2.828 -0.7411 -2.7491  0.1310
 8726TIP3   OH250372   5.219   6.100   3.500 -0.1951  0.0358  0.2072
 8726TIP3    H150373   5.135   6.106   3.545  0.4134  0.4961  1.3241
 8726TIP3    H250374   5.230   6.185   3.459 -0.0895  0.1279  0.4224
 8727TIP3   OH250375   1.727   3.449   3.664 -0.5557  0.1408 -0.0315
 8727TIP3    H150376   1.696   3.535   3.693 -3.7620 -0.9190  0.0837
 8727TIP3    H250377   1.771   3.412   3.740  1.0820  1.6934 -0.1563
 8728TIP3   OH250378   1.382   3.345   2.535 -0.1603  0.8260 -0.5042
 8728TIP3    H150379   1.323   3.376   2.466 -0.0982 -0.2575 -1.0542
 8728TIP3    H250380   1.333   3.360   2.617 -1.5989 -0.8577 -0.9946
 8729TIP3   OH250381   1.082   0.959   3.501  0.0200  0.0054  0.0803
 8729TIP3    H150382   1.020   1.030   3.483  1.5044  1.7789  1.5421
 8729TIP3    H250383   1.084   0.908   3.420 -3.6451 -0.4833  0.1114
 8730TIP3   OH250384   1.370   6.350   5.637 -0.3029  0.3739  0.5971
 8730TIP3    H150385   1.457   6.353   5.675 -0.2819  1.5913  0.5039
 8730TIP3    H250386   1.366   6.428   5.581 -1.1383 -0.1444 -0.0922
 8731TIP3   OH250387   6.627   1.042   3.260 -0.6385  0.3235  0.2322
 8731TIP3    H150388   6.643   1.103   3.188 -0.7086  0.7641  0.5867
 8731TIP3    H250389   6.703   1.053   3.318  0.8170 -1.9716 -1.0749
 8732TIP3   OH250390   6.365   0.705   3.735 -0.1664  0.9286  0.1035
 8732TIP3    H150391   6.459   0.692   3.721 -0.6142 -1.6067 -0.9878
 8732TIP3    H250392   6.347   0.657   3.816 -0.9219 -0.9904 -1.1215
 8733TIP3   OH250393   4.020   5.631   2.800  0.1335 -0.0467 -0.1290
 8733TIP3    H150394   3.947   5.655   2.743 -0.1070  0.9776  0.5752
 8733TIP3    H250395   4.031   5.706   2.858  2.4869  0.3039 -0.9240
 8734TIP3   OH250396   1.259   6.517   4.949  0.1250 -0.2762 -0.2506
 8734TIP3    H150397   1.261   6.448   4.883  0.7653 -0.6763  0.1735
 8734TIP3    H250398   1.258   6.471   5.033 -0.8698  0.2240  0.0302
 8735TIP3   OH250399   0.934   5.810   1.958 -0.2754  0.0450  0.0863
 8735TIP3    H150400   0.879   5.872   1.910 -0.7824 -1.0679 -0.8084
 8735TIP3    H250401   1.021   5.850   1.957 -0.4216  0.3797 -1.1740
 8736TIP3   OH250402   6.746   6.646   3.434  0.7799 -0.6516  0.3013
 8736TIP3    H150403   6.736   6.604   3.519 -3.4343  0.0936  0.3571
 8736TIP3    H250404   6.725   6.738   3.450 -1.4633 -0.7286 -1.6815
 8737TIP3   OH250405   5.248   2.252   2.227  0.7649  0.9144 -0.4979
 8737TIP3    H150406   5.207   2.165   2.227  0.6792  0.9336  1.0679
 8737TIP3    H250407   5.342   2.233   2.226  0.7534  0.7802  0.2932
 8738TIP3   OH250408   5.124   2.604   4.458  0.0550  0.2046  0.2299
 8738TIP3    H150409   5.122   2.516   4.495  0.4313  0.1436  0.1061
 8738TIP3    H250410   5.087   2.594   4.370  0.1012  0.1714  0.2146
 8739TIP3   OH250411   5.986   5.375   2.781 -0.3067 -0.2083  0.4474
 8739TIP3    H150412   5.895   5.402   2.787  0.1938  1.4005  1.3812
 8739TIP3    H250413   6.032   5.452   2.748  0.7947 -0.8197  0.4883
 8740TIP3   OH250414   4.135   3.200   2.805 -0.4605  0.2499 -0.3674
 8740TIP3    H150415   4.211   3.258   2.816 -0.1317 -0.4470  1.4073
 8740TIP3    H250416   4.156   3.147   2.729 -0.1054  1.4375 -1.1296
 8741TIP3   OH250417   3.323   0.601   2.787  1.3610 -0.1810 -0.8725
 8741TIP3    H150418   3.308   0.517   2.831 -0.2810  0.2632 -0.5477
 8741TIP3    H250419   3.400   0.637   2.831  2.1417 -1.5310 -1.0715
 8742TIP3   OH250420   5.383   3.591   2.625 -0.0754 -1.0573  0.2283
 8742TIP3    H150421   5.340   3.618   2.706 -0.1667  0.7584 -0.3913
 8742TIP3    H250422   5.338   3.510   2.600 -2.5010  0.1854  0.1743
 8743TIP3   OH250423   3.024   2.041   3.709 -0.1678 -0.1737 -0.7382
 8743TIP3    H150424   3.049   2.120   3.661  0.3060  0.2056  0.1204
 8743TIP3    H250425   3.081   2.040   3.786 -1.6817 -0.1699  0.4135
 8744TIP3   OH250426   1.399   2.697   1.930 -0.1947 -0.4963 -0.6173
 8744TIP3    H150427   1.491   2.724   1.920 -0.4207  0.7793  0.4537
 8744TIP3    H250428   1.387   2.689   2.024 -1.1780 -0.6654 -0.7547
 8745TIP3   OH250429   3.582   0.131   4.536  0.0099 -0.5003  0.1830
 8745TIP3    H150430   3.498   0.168   4.507  0.6379  1.0253  0.2171
 8745TIP3    H250431   3.562   0.091   4.621 -0.7163 -0.2397  0.1486
 8746TIP3   OH250432   6.552   1.510   5.037  0.0589 -0.3329 -0.0074
 8746TIP3    H150433   6.608   1.451   5.087 -1.1677 -1.5789 -0.0290
 8746TIP3    H250434   6.532   1.461   4.957  0.1782  0.7164 -0.6967
 8747TIP3   OH250435   0.307   6.327   2.373  0.1286  0.2098 -0.0811
 8747TIP3    H150436   0.227   6.289   2.337 -0.1479  0.4587  0.2676
 8747TIP3    H250437   0.325   6.403   2.318  0.6280 -0.3561 -0.7191
 8748TIP3   OH250438   4.783   4.391   3.214  0.3409 -0.2415  0.0904
 8748TIP3    H150439   4.733   4.314   3.241  0.1423  0.5449  2.0921
 8748TIP3    H250440   4.812   4.370   3.125  0.3489 -2.6631  0.5935
 8749TIP3   OH250441   0.493   0.318   4.051  0.5237 -0.4100  0.6093
 8749TIP3    H150442   0.398   0.317   4.066  0.6524 -0.1104  1.4922
 8749TIP3    H250443   0.502   0.334   3.957 -0.3091 -1.3648  0.3452
 8750TIP3   OH250444   2.341   2.220   2.403 -0.2937  0.9217 -0.0699
 8750TIP3    H150445   2.425   2.175   2.400 -0.4927  0.5757 -0.5857
 8750TIP3    H250446   2.297   2.182   2.479 -0.5710  0.0286 -0.6594
 8751TIP3   OH250447   5.437   1.099   2.418  0.0341  0.4988  0.1721
 8751TIP3    H150448   5.496   1.153   2.472 -0.7904  2.4407 -0.7602
 8751TIP3    H250449   5.489   1.077   2.341  0.0359  0.9058  0.0549
 8752TIP3   OH250450   2.743   0.779   2.265 -0.0232 -0.6520 -0.2078
 8752TIP3    H150451   2.827   0.753   2.225 -0.6129 -1.3471 -1.0239
 8752TIP3    H250452   2.731   0.870   2.236  1.2326  0.0351  1.2753
 8753TIP3   OH250453   6.732   0.244   4.058 -0.1005 -0.2347 -0.2885
 8753TIP3    H150454   6.707   0.225   3.968 -1.4780  2.1128 -0.4867
 8753TIP3    H250455   6.659   0.213   4.112  0.9774 -2.1816  0.1568
 8754TIP3   OH250456   4.251   4.977   4.905  0.6683  0.6562 -0.0892
 8754TIP3    H150457   4.188   4.913   4.936  2.3657 -0.8437  0.4788
 8754TIP3    H250458   4.279   5.024   4.983  1.3377  0.2565 -0.0744
 8755TIP3   OH250459   2.430   2.669   4.343 -0.0040  0.2854  0.4151
 8755TIP3    H150460   2.510   2.702   4.302  0.5527 -0.6154  0.7611
 8755TIP3    H250461   2.386   2.620   4.274 -0.2296  0.7111  0.2490
 8756TIP3   OH250462   3.844   0.136   3.332 -0.1056 -0.2817 -0.2858
 8756TIP3    H150463   3.842   0.103   3.422  1.5817  0.3136  0.0099
 8756TIP3    H250464   3.845   0.057   3.277 -0.5887 -0.6516  0.2272
 8757TIP3   OH250465   2.208   1.404   2.575  0.2250 -0.3726  0.1610
 8757TIP3    H150466   2.136   1.353   2.539  0.3011 -1.1944  1.1173
 8757TIP3    H250467   2.278   1.396   2.510  0.2507 -1.5372  0.3145
 8758TIP3   OH250468   6.080   2.122   4.451  0.1392 -0.6146  0.1739
 8758TIP3    H150469   6.093   2.192   4.387 -0.0457 -1.4977 -0.8491
 8758TIP3    H250470   6.057   2.046   4.399 -2.1155 -0.8641  1.4244
 8759TIP3   OH250471   0.528   5.130   3.283  0.8280 -0.2390  0.1527
 8759TIP3    H150472   0.527   5.093   3.195 -1.1573  0.7377 -0.3010
 8759TIP3    H250473   0.579   5.068   3.335  1.8443 -0.9512 -1.6201
 8760TIP3   OH250474   1.814   2.739   3.487  0.2954 -0.0492  0.3762
 8760TIP3    H150475   1.871   2.742   3.564  1.1497  0.5696 -0.2595
 8760TIP3    H250476   1.810   2.830   3.457  0.4764 -0.3672 -0.6669
 8761TIP3   OH250477   0.382   5.849   2.777 -0.3102  0.3240  0.2624
 8761TIP3    H150478   0.309   5.829   2.719 -0.0649  1.0894 -0.3263
 8761TIP3    H250479   0.342   5.856   2.864 -1.1212  1.7233 -0.1881
 8762TIP3   OH250480   1.801   3.194   3.358  0.2579  0.4710  0.0946
 8762TIP3    H150481   1.801   3.152   3.271  3.0061  0.9461 -0.2031
 8762TIP3    H250482   1.771   3.284   3.341  1.8846  0.9094 -0.5967
 8763TIP3   OH250483   1.786   3.905   2.063 -0.7105  0.4017  0.1623
 8763TIP3    H150484   1.770   3.981   2.006 -2.1060  0.7202  0.9305
 8763TIP3    H250485   1.708   3.900   2.118  0.7226  0.2936  2.2848
 8764TIP3   OH250486   4.060   1.182  12.206  0.1017 -0.0037  0.2100
 8764TIP3    H150487   4.044   1.104  12.153 -1.1031 -0.6402  1.4319
 8764TIP3    H250488   3.972   1.213  12.230  0.5915  0.8941  0.9199
 8765TIP3   OH250489   0.613   1.400   5.021 -0.2436 -0.0297 -0.4818
 8765TIP3    H150490   0.586   1.397   5.112  0.1665 -2.9534 -0.3729
 8765TIP3    H250491   0.708   1.387   5.023 -0.0755  0.9290 -1.2916
 8766TIP3   OH250492   6.438   5.552   4.510 -0.4681  0.0764  0.3063
 8766TIP3    H150493   6.374   5.620   4.528 -1.7854 -0.9732 -0.2398
 8766TIP3    H250494   6.512   5.573   4.568 -1.2617  1.3533  0.9041
 8767TIP3   OH250495   1.828   4.012   3.904  0.6107 -0.0836 -0.5040
 8767TIP3    H150496   1.865   4.096   3.878  2.7634 -0.1703  1.8825
 8767TIP3    H250497   1.734   4.028   3.912  1.2218  3.2329  3.3005
 8768TIP3   OH250498   4.552   5.688   3.760  0.2388  0.0677 -0.0885
 8768TIP3    H150499   4.625   5.664   3.817 -0.9126  0.7594  1.7662
 8768TIP3    H250500   4.475   5.682   3.816 -0.9844  0.5943 -1.6486
 8769TIP3   OH250501   5.856   0.832   3.057 -0.5203 -0.0308 -0.0942
 8769TIP3    H150502   5.921   0.777   3.102 -0.4730  0.3537  0.3058
 8769TIP3    H250503   5.843   0.907   3.115  0.4625  1.0893 -1.2676
 8770TIP3   OH250504   6.221   0.333   2.834  0.2289  0.0424 -0.0135
 8770TIP3    H150505   6.235   0.263   2.898 -0.3593  0.3605  0.4751
 8770TIP3    H250506   6.164   0.395   2.879 -1.5117 -0.4922 -1.3698
 8771TIP3   OH250507   2.278   3.616   2.550  0.2270  0.4658  0.6057
 8771TIP3    H150508   2.371   3.622   2.571 -0.3133  2.1355  2.7957
 8771TIP3    H250509   2.264   3.683   2.483  0.2834  1.5863  1.6780
 8772TIP3   OH250510   0.742   2.440   3.798 -0.4261 -0.2374  0.2888
 8772TIP3    H150511   0.686   2.461   3.723  1.5559  0.9365 -0.9222
 8772TIP3    H250512   0.780   2.524   3.825 -1.5233 -0.5084  3.0533
 8773TIP3   OH250513   5.278   3.663   4.698  0.3530  0.4021 -0.3280
 8773TIP3    H150514   5.262   3.618   4.781 -1.6387 -0.8682 -1.3021
 8773TIP3    H250515   5.226   3.743   4.704 -0.4727 -0.0942 -0.6277
 8774TIP3   OH250516   3.606   5.560   1.869 -0.2170 -0.1114 -0.2929
 8774TIP3    H150517   3.516   5.563   1.836 -1.0691  0.4952  1.9062
 8774TIP3    H250518   3.643   5.644   1.844 -0.3166 -0.2689 -1.0081
 8775TIP3   OH250519   5.578   4.803   3.681 -0.6196  0.0428 -0.0789
 8775TIP3    H150520   5.534   4.873   3.728  2.2995  2.1299 -0.2204
 8775TIP3    H250521   5.586   4.835   3.591  2.7927  0.7327  0.3408
 8776TIP3   OH250522   1.870   4.976  11.464 -0.3541 -0.8806  0.0275
 8776TIP3    H150523   1.818   4.983  11.384 -0.3409  0.2385  0.0984
 8776TIP3    H250524   1.814   4.929  11.526 -0.8814 -0.5770 -0.2161
 8777TIP3   OH250525   0.143   0.165   3.443  0.3616 -0.5259 -0.0580
 8777TIP3    H150526   0.228   0.208   3.448  0.4207 -0.8142  2.6218
 8777TIP3    H250527   0.093   0.218   3.380  1.4642  1.5822  0.7575
 8778TIP3   OH250528   0.014   1.319   4.846 -0.0975  0.3700  0.3647
 8778TIP3    H150529  -0.028   1.360   4.771  1.2930 -1.7401 -1.7339
 8778TIP3    H250530   0.105   1.346   4.841 -0.3102  1.7220  2.5047
 8779TIP3   OH250531   6.197   1.867   3.505 -0.3421  0.5283 -0.0744
 8779TIP3    H150532   6.188   1.961   3.518  1.0549  0.9817 -1.9078
 8779TIP3    H250533   6.204   1.857   3.410  1.1075 -1.2561  0.1692
 8780TIP3   OH250534   5.608   0.553   5.016 -0.0325 -0.3017 -0.1963
 8780TIP3    H150535   5.639   0.466   5.038  3.8902  0.5604 -1.4861
 8780TIP3    H250536   5.666   0.613   5.062 -1.3505  1.6335 -0.8718
 8781TIP3   OH250537   5.822   6.563   4.778  0.4589  0.0202 -0.0841
 8781TIP3    H150538   5.887   6.521   4.836 -1.4075 -1.8040  0.8155
 8781TIP3    H250539   5.766   6.613   4.838 -0.9219 -1.1220 -0.3655
 8782TIP3   OH250540   0.046   4.264   4.790  0.1357 -0.0531  0.3871
 8782TIP3    H150541   0.005   4.327   4.850 -1.9934 -0.4612 -0.5481
 8782TIP3    H250542   0.047   4.182   4.840 -0.3937 -0.0818  0.3616
 8783TIP3   OH250543   4.630   5.078   2.251  0.1990  0.4369 -0.5267
 8783TIP3    H150544   4.660   4.987   2.255  0.6343  0.5633 -0.9361
 8783TIP3    H250545   4.543   5.073   2.210  0.1792  0.1989 -0.4580
 8784TIP3   OH250546   5.210   6.749   4.736 -0.2011  0.0983 -0.2237
 8784TIP3    H150547   5.205   6.821   4.673 -1.1567 -1.3325 -1.8825
 8784TIP3    H250548   5.215   6.792   4.821 -0.1517  2.1127 -1.1728
 8785TIP3   OH250549   0.774   2.672   2.971 -0.5956  0.3275  0.1910
 8785TIP3    H150550   0.861   2.676   3.012  0.5378 -0.5868 -1.9946
 8785TIP3    H250551   0.715   2.653   3.044  1.1524 -0.0886  1.5838
 8786TIP3   OH250552   0.529   2.769   3.843  0.1918  0.1285  0.2902
 8786TIP3    H150553   0.609   2.749   3.891  2.0585  2.4454 -1.5793
 8786TIP3    H250554   0.509   2.860   3.865 -1.3264 -0.0657 -0.1155
 8787TIP3   OH250555   1.362   4.032   4.120 -0.3645 -0.1180  0.8163
 8787TIP3    H150556   1.341   3.944   4.151 -0.2934 -0.7837 -0.8985
 8787TIP3    H250557   1.321   4.091   4.183 -1.4466 -1.3827  1.3299
 8788TIP3   OH250558   0.606   6.494   3.122 -0.2065  0.3060 -0.7757
 8788TIP3    H150559   0.511   6.488   3.127 -0.0460 -1.7752  1.9174
 8788TIP3    H250560   0.631   6.425   3.061 -0.3424 -0.0843 -0.3882
 8789TIP3   OH250561   6.110   1.867   4.321 -0.4076  0.2279 -0.5828
 8789TIP3    H150562   6.203   1.877   4.300 -0.5755  1.4875 -0.8451
 8789TIP3    H250563   6.067   1.855   4.237 -0.5380  0.1945 -0.5112
 8790TIP3   OH250564   3.864   3.021   2.499 -0.1926 -0.1722  0.1044
 8790TIP3    H150565   3.817   2.946   2.462  1.6548 -0.7658 -1.1751
 8790TIP3    H250566   3.880   3.079   2.424  1.5731 -0.2634  0.3757
 8791TIP3   OH250567   2.042   1.444   4.080  0.0670  0.2978  0.1926
 8791TIP3    H150568   2.129   1.430   4.042 -0.6613  0.0694 -1.4906
 8791TIP3    H250569   2.005   1.356   4.084  0.0978  0.3341  1.4024
 8792TIP3   OH250570   0.021   3.228   3.415 -0.1598 -0.7895  0.6791
 8792TIP3    H150571  -0.056   3.278   3.386  0.6910 -0.1274 -0.5372
 8792TIP3    H250572   0.077   3.225   3.338  0.4872 -2.3564  1.1936
 8793TIP3   OH250573   0.221   6.809   2.195  0.0505  0.2118  0.5485
 8793TIP3    H150574   0.192   6.897   2.218  4.1921  1.5852  1.3366
 8793TIP3    H250575   0.166   6.751   2.248  0.2080  2.5960  3.5930
 8794TIP3   OH250576   5.991   2.625   5.936 -0.4626  0.0869 -0.1444
 8794TIP3    H150577   5.997   2.541   5.982  1.4974  0.9996  1.4485
 8794TIP3    H250578   5.977   2.601   5.844  0.0369 -1.9840  0.2583
 8795TIP3   OH250579   4.693   1.433   3.164  0.2501 -0.3643  0.3229
 8795TIP3    H150580   4.652   1.346   3.166  1.8840 -1.1810  0.8255
 8795TIP3    H250581   4.634   1.489   3.214 -0.5624 -1.3241  0.4654
 8796TIP3   OH250582   1.583   4.736   2.274 -0.1577 -0.1949 -0.1599
 8796TIP3    H150583   1.622   4.685   2.203  0.6605 -0.4462  0.4531
 8796TIP3    H250584   1.525   4.675   2.319  0.6151 -0.5257  0.4083
 8797TIP3   OH250585   2.486   3.759   5.115 -0.2006  0.6189 -0.5078
 8797TIP3    H150586   2.569   3.765   5.163  0.2514 -0.9207 -1.0247
 8797TIP3    H250587   2.449   3.675   5.141 -1.2133  0.9158 -0.9190
 8798TIP3   OH250588   3.774   4.020   2.439 -0.6514 -0.1665  0.3438
 8798TIP3    H150589   3.760   4.112   2.417 -0.6471 -0.1259  0.5049
 8798TIP3    H250590   3.764   4.017   2.534 -1.7988 -0.5443  0.2282
 8799TIP3   OH250591   4.561   3.521   2.350  0.3177 -0.0438  0.1016
 8799TIP3    H150592   4.502   3.596   2.353 -0.9512 -1.0443  1.8593
 8799TIP3    H250593   4.503   3.445   2.348  1.5361 -1.0375  1.1476
 8800TIP3   OH250594   1.116   3.017   3.994  0.0485  0.2092 -0.7465
 8800TIP3    H150595   1.110   2.922   4.007 -0.7289  0.4343  0.6289
 8800TIP3    H250596   1.209   3.036   4.003  0.2489 -0.4351 -1.2796
 8801TIP3   OH250597   5.447   6.164   3.844  0.1726  0.0610 -0.1596
 8801TIP3    H150598   5.356   6.183   3.822 -0.0405  0.0016  0.6649
 8801TIP3    H250599   5.461   6.206   3.929  0.7857 -0.3016 -0.0754
 8802TIP3   OH250600   5.173   1.020   3.042  0.8987  0.4163 -0.0540
 8802TIP3    H150601   5.109   1.049   3.107 -0.5411  0.3232 -1.3670
 8802TIP3    H250602   5.177   0.925   3.053  0.1518  0.3239 -0.5190
 8803TIP3   OH250603   5.644   1.210   2.568 -0.0508 -0.4342 -0.1079
 8803TIP3    H150604   5.706   1.169   2.628 -0.4301 -0.4668  0.2708
 8803TIP3    H250605   5.598   1.275   2.621  0.1572  0.0930 -0.5658
 8804TIP3   OH250606   2.617   2.481   4.192 -0.7167 -0.2157  0.0559
 8804TIP3    H150607   2.673   2.557   4.176 -0.0515 -0.7648 -0.2589
 8804TIP3    H250608   2.672   2.406   4.174 -1.5664 -0.7770 -0.2820
 8805TIP3   OH250609   4.633   3.911   2.104  0.5400 -0.0459  0.0918
 8805TIP3    H150610   4.575   3.964   2.050  1.3449  0.4330 -0.3226
 8805TIP3    H250611   4.647   3.963   2.183 -1.3647 -1.1407  1.2161
 8806TIP3   OH250612   3.863   0.609   4.183 -0.3397 -0.4189  0.0096
 8806TIP3    H150613   3.843   0.517   4.204 -1.0647 -0.1756  0.4065
 8806TIP3    H250614   3.959   0.613   4.186 -0.2356 -1.4264 -1.1741
 8807TIP3   OH250615   4.528   5.282   1.930  0.3486 -0.5889  0.5127
 8807TIP3    H150616   4.598   5.309   1.870 -0.8043  0.5870 -0.3439
 8807TIP3    H250617   4.530   5.347   2.000 -0.4388 -0.0432  0.0364
 8808TIP3   OH250618   5.943   2.588   4.237 -0.6770 -0.3260  0.1629
 8808TIP3    H150619   6.032   2.593   4.203 -0.9961 -1.2522 -0.8360
 8808TIP3    H250620   5.921   2.495   4.235 -1.6897 -0.1047  0.3513
 8809TIP3   OH250621   2.459   5.968   2.637 -0.2683  0.0825 -0.1259
 8809TIP3    H150622   2.520   5.894   2.638 -1.1587 -0.6589  0.5991
 8809TIP3    H250623   2.427   5.974   2.727 -0.9615  0.7227 -0.4086
 8810TIP3   OH250624   1.804   4.147   4.552  0.1274 -0.1421  0.2767
 8810TIP3    H150625   1.820   4.083   4.483 -1.4154 -0.3736  0.0983
 8810TIP3    H250626   1.845   4.228   4.519  0.9939 -0.6996 -0.0583
 8811TIP3   OH250627   4.068   5.860   1.862 -0.5269 -0.3845  0.2823
 8811TIP3    H150628   4.124   5.806   1.807  0.1051  0.8035 -0.2711
 8811TIP3    H250629   4.107   5.853   1.949 -0.6608 -1.0963  0.2883
 8812TIP3   OH250630   1.889   3.715   3.603 -0.2819 -0.3868  0.0090
 8812TIP3    H150631   1.800   3.749   3.601 -0.0925  0.5871  3.0226
 8812TIP3    H250632   1.944   3.792   3.614  0.4841 -1.2462  2.9298
 8813TIP3   OH250633   2.816   0.159   2.068 -0.0161 -0.3980 -0.2385
 8813TIP3    H150634   2.753   0.230   2.081  0.2830 -0.0848 -0.4711
 8813TIP3    H250635   2.859   0.149   2.153 -0.4320 -0.6683 -0.0554
 8814TIP3   OH250636   3.495   5.165   3.211  0.3334  0.5252  0.3290
 8814TIP3    H150637   3.423   5.133   3.157  0.0691  1.1737  0.2891
 8814TIP3    H250638   3.549   5.088   3.228 -0.8317 -0.1601  1.0739
 8815TIP3   OH250639   2.068   4.402   2.334  0.4192  0.6247 -0.2712
 8815TIP3    H150640   2.006   4.380   2.403 -0.1650 -0.8048 -1.1975
 8815TIP3    H250641   2.027   4.476   2.288  0.3768  0.9848  0.3397
 8816TIP3   OH250642   5.966   6.014   2.605  0.1313  0.0339 -0.5602
 8816TIP3    H150643   5.875   5.993   2.627  0.2834 -1.6826 -1.3870
 8816TIP3    H250644   5.972   5.999   2.510  1.4932 -0.8238 -0.3623
 8817TIP3   OH250645   6.267   2.386   4.537  0.1492 -0.1618  0.1705
 8817TIP3    H150646   6.335   2.340   4.587 -1.0006 -1.1127  0.9041
 8817TIP3    H250647   6.241   2.458   4.594 -0.5789 -0.7569  0.6070
 8818TIP3   OH250648   0.425   6.186   2.746 -0.1537 -0.2046  0.3087
 8818TIP3    H150649   0.450   6.115   2.686 -0.9728  0.4074 -0.8006
 8818TIP3    H250650   0.407   6.141   2.829 -1.6704 -1.4741 -0.6364
 8819TIP3   OH250651   6.100   1.962   3.802  0.2073  0.3580  0.2804
 8819TIP3    H150652   6.042   1.926   3.735  1.3684 -2.0304  0.4252
 8819TIP3    H250653   6.185   1.970   3.759  0.5268  0.6092  0.9426
 8820TIP3   OH250654   5.584   6.344   4.498  0.7510  0.5924  0.3177
 8820TIP3    H150655   5.667   6.318   4.537 -0.7022 -1.9663  2.0166
 8820TIP3    H250656   5.542   6.399   4.564  0.2701  0.2102  0.3374
 8821TIP3   OH250657   2.990   6.248   2.785 -0.1081 -0.0199  0.1525
 8821TIP3    H150658   2.926   6.256   2.856  0.5998  3.0870  0.5793
 8821TIP3    H250659   3.065   6.300   2.815  0.5454  0.6808 -2.4886
 8822TIP3   OH250660   4.465   3.013   3.989 -0.0181 -0.0593  0.0262
 8822TIP3    H150661   4.377   2.980   4.007 -0.3072  0.2014 -0.8281
 8822TIP3    H250662   4.470   3.013   3.893  1.0751 -0.4900  0.0717
 8823TIP3   OH250663   0.146   5.083   4.287  0.3233  0.6287  0.3382
 8823TIP3    H150664   0.051   5.082   4.276  0.4555 -1.4684 -1.0134
 8823TIP3    H250665   0.175   5.159   4.236 -0.6645  2.2501  2.0092
 8824TIP3   OH250666   6.375   2.728   3.606 -0.1385 -0.5702  0.0649
 8824TIP3    H150667   6.461   2.705   3.640 -0.3473  0.4146  1.3819
 8824TIP3    H250668   6.359   2.667   3.534  1.1794 -1.4834  0.5204
 8825TIP3   OH250669   4.316   0.365   3.509 -0.1047 -0.1520 -0.5466
 8825TIP3    H150670   4.302   0.426   3.582  0.1014 -0.9041  0.1315
 8825TIP3    H250671   4.353   0.287   3.549  0.0326 -0.5762 -1.4673
 8826TIP3   OH250672   1.425   0.150   4.667  0.4642 -0.4866 -0.4700
 8826TIP3    H150673   1.508   0.117   4.632 -0.0652 -0.0420 -2.2702
 8826TIP3    H250674   1.398   0.084   4.731  1.2621 -1.6207 -1.2533
 8827TIP3   OH250675   6.217   6.729   3.204 -0.9450 -0.4967  0.0859
 8827TIP3    H150676   6.276   6.726   3.279 -0.2297 -0.5358 -0.4686
 8827TIP3    H250677   6.167   6.647   3.209 -2.9124  0.7165  2.0897
 8828TIP3   OH250678   6.153   3.474   4.401  0.1982  0.7808 -0.0341
 8828TIP3    H150679   6.196   3.554   4.372 -0.7941  1.9547  1.5213
 8828TIP3    H250680   6.076   3.466   4.344  1.2219 -0.1168 -1.3700
 8829TIP3   OH250681   1.199   0.649   3.619  0.3878 -0.0160 -0.1109
 8829TIP3    H150682   1.249   0.697   3.685  0.5403  0.3278 -0.4676
 8829TIP3    H250683   1.254   0.653   3.541  0.3869 -0.7481 -0.1561
 8830TIP3   OH250684   4.382   6.553   2.428 -0.4003 -0.3030 -0.3887
 8830TIP3    H150685   4.368   6.584   2.339 -0.7000 -1.8477 -0.8965
 8830TIP3    H250686   4.439   6.477   2.418 -1.0234 -0.9216  0.6735
 8831TIP3   OH250687   1.658   5.675   2.425 -0.0416  0.1666  0.2340
 8831TIP3    H150688   1.617   5.623   2.495  1.2022 -1.5417 -0.2443
 8831TIP3    H250689   1.739   5.708   2.465 -0.4223  1.0938  0.2713
 8832TIP3   OH250690   2.646   4.237   4.796 -0.0554 -0.2611 -0.1223
 8832TIP3    H150691   2.605   4.172   4.739 -0.7053 -1.5917  1.7878
 8832TIP3    H250692   2.579   4.305   4.807 -0.0061 -0.1046 -0.7082
 8833TIP3   OH250693   0.217   2.032   5.158 -0.1473  0.3829 -0.6122
 8833TIP3    H150694   0.293   2.085   5.181 -0.5590  0.7875 -0.1585
 8833TIP3    H250695   0.204   1.974   5.232 -0.1263  0.1363 -0.8008
 8834TIP3   OH250696   5.765   6.539   5.740 -0.2684 -0.2326 -0.1705
 8834TIP3    H150697   5.837   6.590   5.703 -2.1086  0.5536 -2.9722
 8834TIP3    H250698   5.729   6.595   5.809  0.4992  0.2572 -0.1489
 8835TIP3   OH250699   6.414   6.328   3.940  0.4071 -0.5402 -0.5601
 8835TIP3    H150700   6.421   6.302   3.848 -0.4320  0.1398 -0.8400
 8835TIP3    H250701   6.319   6.331   3.957  0.5137  0.4227 -0.0118
 8836TIP3   OH250702   3.749   1.301   3.479  0.2632  0.5208 -0.3840
 8836TIP3    H150703   3.702   1.362   3.422 -0.2418  1.1592  0.6877
 8836TIP3    H250704   3.680   1.254   3.525  0.6646  0.3547  0.0507
 8837TIP3   OH250705   6.189   4.733   4.219  0.0955 -0.2772  0.7227
 8837TIP3    H150706   6.130   4.742   4.144  0.4533  0.3000  0.5087
 8837TIP3    H250707   6.132   4.747   4.295 -0.0326  0.3843  0.5127
 8838TIP3   OH250708   1.657   1.056   3.441  0.3915 -0.3249  0.8408
 8838TIP3    H150709   1.738   1.099   3.467  1.5247 -2.0134  0.2102
 8838TIP3    H250710   1.588   1.106   3.486  1.5282  2.5111 -0.3318
 8839TIP3   OH250711   5.729   1.504   5.143  0.3320  0.4562 -1.1747
 8839TIP3    H150712   5.813   1.526   5.184  0.7133 -1.6505 -0.7176
 8839TIP3    H250713   5.665   1.510   5.214  0.1494  1.5547 -1.4094
 8840TIP3   OH250714   2.485   3.599   4.392  0.2070 -0.4030 -0.2254
 8840TIP3    H150715   2.533   3.519   4.413 -0.5671 -0.6799  0.5158
 8840TIP3    H250716   2.549   3.653   4.345  1.5486 -0.3991  1.4917
 8841TIP3   OH250717   0.545   2.898   2.753 -0.0181 -0.1691  0.2055
 8841TIP3    H150718   0.461   2.875   2.714  0.9360 -0.8771 -1.5440
 8841TIP3    H250719   0.552   2.840   2.830 -0.2003 -1.6884 -0.8737
 8842TIP3   OH250720   1.405   2.486   3.569 -0.6715 -0.1049 -0.2974
 8842TIP3    H150721   1.451   2.535   3.501  0.6749  0.6662  1.1007
 8842TIP3    H250722   1.325   2.454   3.526  0.9146 -1.1058 -2.6679
 8843TIP3   OH250723   4.691   2.750   3.115  0.2577 -0.1001  0.0724
 8843TIP3    H150724   4.731   2.831   3.083  0.7671 -0.6609 -0.7485
 8843TIP3    H250725   4.714   2.684   3.049 -0.6596 -0.7874  0.4178
 8844TIP3   OH250726   2.643   3.931   3.687 -0.1801 -0.1985 -1.3260
 8844TIP3    H150727   2.661   3.842   3.716  0.3193 -0.2188 -1.6871
 8844TIP3    H250728   2.627   3.980   3.768  2.3159  0.0056 -0.8667
 8845TIP3   OH250729   0.544   1.800   3.308  0.0902 -0.0351  0.5808
 8845TIP3    H150730   0.480   1.752   3.255 -0.8786  0.3729  1.3556
 8845TIP3    H250731   0.557   1.882   3.262 -1.6334  0.8159  1.5280
 8846TIP3   OH250732   1.565   0.773   4.830  0.4812  0.4372  0.0004
 8846TIP3    H150733   1.609   0.694   4.797  0.6600 -0.1695  1.5922
 8846TIP3    H250734   1.541   0.822   4.752 -0.2343 -1.5254 -1.0740
 8847TIP3   OH250735   4.186   4.552   5.728  0.0041 -0.1827 -0.6116
 8847TIP3    H150736   4.181   4.565   5.633  0.2440  1.9521 -0.3978
 8847TIP3    H250737   4.272   4.585   5.752  0.2036 -1.3171  0.2958
 8848TIP3   OH250738   0.901   1.220   5.216 -0.2546  0.2352 -0.3277
 8848TIP3    H150739   0.917   1.146   5.273  0.6488  1.1012  0.5905
 8848TIP3    H250740   0.896   1.183   5.128 -3.4656 -1.3687  0.4039
 8849TIP3   OH250741   4.354   3.407   4.791 -0.1555  0.0740 -0.2982
 8849TIP3    H150742   4.400   3.328   4.762 -1.2909 -0.2928 -1.2017
 8849TIP3    H250743   4.309   3.438   4.713 -0.7808  0.8802  0.3656
 8850TIP3   OH250744   4.544   6.565   3.421 -0.1729  0.7436 -0.4982
 8850TIP3    H150745   4.469   6.624   3.419 -0.1916  0.7180 -0.5600
 8850TIP3    H250746   4.554   6.537   3.330  1.1680  2.3122 -0.8822
 8851TIP3   OH250747   1.477   4.007   3.606  0.3463 -0.1335 -0.3232
 8851TIP3    H150748   1.528   3.991   3.527  2.3015 -1.0808  1.0420
 8851TIP3    H250749   1.529   4.070   3.656 -0.4868 -0.1063  0.5378
 8852TIP3   OH250750   0.316   4.290   3.165 -0.5261 -0.5952  0.1604
 8852TIP3    H150751   0.344   4.278   3.256 -0.2978 -1.3530 -0.0025
 8852TIP3    H250752   0.393   4.325   3.120 -0.8345  0.4201  0.3822
 8853TIP3   OH250753   5.339   3.682   3.704  0.6158  0.0620  0.3051
 8853TIP3    H150754   5.263   3.630   3.730  0.1258  0.9835  0.7776
 8853TIP3    H250755   5.379   3.632   3.633 -0.5751 -0.3234 -0.1211
 8854TIP3   OH250756   5.359   6.286   5.021 -0.2259  0.2938  0.2718
 8854TIP3    H150757   5.310   6.367   5.034  0.6574  0.8130  0.4331
 8854TIP3    H250758   5.443   6.314   4.985 -0.2509 -0.6256 -0.5651
 8855TIP3   OH250759   3.041   5.669   2.454  0.6439 -0.7278  0.0311
 8855TIP3    H150760   3.104   5.639   2.519  0.7200  0.0134  0.3097
 8855TIP3    H250761   2.980   5.723   2.503 -0.7103 -2.0866 -0.0902
 8856TIP3   OH250762   3.100   5.968   2.774  0.6390  1.0864 -0.4601
 8856TIP3    H150763   3.062   6.056   2.771 -1.0377  0.4116  0.1656
 8856TIP3    H250764   3.037   5.913   2.728  1.7360  0.1986 -0.9564
 8857TIP3   OH250765   1.941   3.879   3.363  0.1641 -0.0727 -0.5981
 8857TIP3    H150766   1.904   3.900   3.278 -0.7394 -1.9122 -0.7202
 8857TIP3    H250767   1.974   3.789   3.353  0.3772 -0.1800  0.8676
 8858TIP3   OH250768   1.341   0.656   2.089  0.2109  0.0937 -0.1797
 8858TIP3    H150769   1.407   0.666   2.157  0.3357  2.2644 -0.5381
 8858TIP3    H250770   1.377   0.593   2.028  1.1946 -0.0167  0.5071
 8859TIP3   OH250771   4.704   2.185   4.615  0.5717  0.1625  0.0233
 8859TIP3    H150772   4.792   2.205   4.647  0.1997  0.8171  0.6804
 8859TIP3    H250773   4.651   2.176   4.694 -0.0288  0.1685 -0.3706
 8860TIP3   OH250774   6.321   4.936   5.394 -0.3618 -0.1330 -0.0846
 8860TIP3    H150775   6.304   4.858   5.342 -0.0670  0.9735 -1.9087
 8860TIP3    H250776   6.372   4.904   5.469 -0.1671 -1.6529 -0.8318
 8861TIP3   OH250777   3.894   1.062   4.462 -0.1147 -0.4785 -0.0133
 8861TIP3    H150778   3.988   1.047   4.475 -0.5366 -2.4540  1.1511
 8861TIP3    H250779   3.865   1.105   4.542 -0.1641  0.4315 -0.5106
 8862TIP3   OH250780   2.748   0.140   3.851  0.6757  0.1720  0.1561
 8862TIP3    H150781   2.759   0.091   3.770 -3.4681 -1.8368  0.5903
 8862TIP3    H250782   2.795   0.088   3.917  2.3529  0.7647 -0.4967
 8863TIP3   OH250783   0.304   3.847   3.088 -0.3606  0.8421  0.3224
 8863TIP3    H150784   0.227   3.825   3.140 -0.2462 -1.4126 -0.3672
 8863TIP3    H250785   0.269   3.881   3.006 -0.7907 -2.2330 -0.8913
 8864TIP3   OH250786   5.589   4.577   3.376 -0.2355 -0.5273 -0.1483
 8864TIP3    H150787   5.513   4.615   3.419  0.7274  0.6640  0.5547
 8864TIP3    H250788   5.585   4.484   3.399 -0.0168 -0.0277  2.2109
 8865TIP3   OH250789   1.080   3.711   3.844  0.0588  0.1550  0.4021
 8865TIP3    H150790   1.146   3.659   3.889 -0.8872 -0.0290  1.6279
 8865TIP3    H250791   1.045   3.770   3.911 -1.5194 -0.2554 -0.0052
 8866TIP3   OH250792   6.085   3.297   2.847 -0.7352 -0.2119 -0.0878
 8866TIP3    H150793   6.114   3.295   2.756 -0.7505 -1.9435 -0.0818
 8866TIP3    H250794   5.990   3.309   2.841 -0.8029 -0.8243 -0.3336
 8867TIP3   OH250795   4.432   4.739   2.983  0.2960  0.2188  0.0855
 8867TIP3    H150796   4.505   4.688   3.017  0.2048  0.4358  0.6112
 8867TIP3    H250797   4.385   4.769   3.060 -1.5690 -1.6155 -0.2393
 8868TIP3   OH250798   1.582   2.994   4.637 -0.1553  0.4999  0.5609
 8868TIP3    H150799   1.628   3.052   4.698 -2.5785  0.8440  2.2217
 8868TIP3    H250800   1.557   2.919   4.691 -0.3866 -0.2833 -0.6060
 8869TIP3   OH250801   2.953   5.106   2.133 -0.0082 -0.2599  0.2852
 8869TIP3    H150802   3.035   5.061   2.111 -0.2033  0.0103 -1.1199
 8869TIP3    H250803   2.967   5.196   2.105 -0.5216 -0.0324  0.7481
 8870TIP3   OH250804   4.573   2.156   2.989  0.4122 -0.6878 -0.4293
 8870TIP3    H150805   4.585   2.126   3.080  5.4169 -0.0072 -0.5759
 8870TIP3    H250806   4.562   2.251   2.996 -1.5084 -0.8714 -0.5278
 8871TIP3   OH250807   3.162   6.376   2.509  0.8915  0.2510  0.4534
 8871TIP3    H150808   3.171   6.461   2.551  1.6087 -0.3256  1.5202
 8871TIP3    H250809   3.245   6.332   2.527  0.5018 -0.7020 -0.0116
 8872TIP3   OH250810   2.230   5.904   4.598 -0.6837 -0.0654 -0.1327
 8872TIP3    H150811   2.162   5.961   4.633 -0.0906  0.0501  0.8652
 8872TIP3    H250812   2.253   5.846   4.670 -0.5183 -0.8602 -0.8021
 8873TIP3   OH250813   2.453   4.375   5.224 -0.2855  0.0092 -0.1863
 8873TIP3    H150814   2.456   4.324   5.305 -1.8060  0.7914  0.4143
 8873TIP3    H250815   2.544   4.393   5.202  0.2393 -2.0373  0.1551
 8874TIP3   OH250816   3.567   2.877   4.044 -0.6476 -0.0367  0.1230
 8874TIP3    H150817   3.656   2.889   4.012 -0.3702 -0.0740  0.8562
 8874TIP3    H250818   3.538   2.795   4.004  0.3883 -1.0985  1.4319
 8875TIP3   OH250819   1.208   5.898   2.012  0.3587  0.5485  0.3990
 8875TIP3    H150820   1.150   5.960   2.058 -1.0759 -0.9276  0.6705
 8875TIP3    H250821   1.241   5.841   2.082  0.7647  0.3138  0.0138
 8876TIP3   OH250822   2.921   4.766   3.531 -0.0721 -0.1695 -0.0549
 8876TIP3    H150823   2.908   4.725   3.617 -1.3623 -0.5725 -0.4145
 8876TIP3    H250824   3.011   4.799   3.534 -0.6167  1.3405  2.0899
 8877TIP3   OH250825   2.112   2.229   3.788 -0.0240 -0.0434  0.0333
 8877TIP3    H150826   2.168   2.207   3.862  3.0887  1.6857 -1.6249
 8877TIP3    H250827   2.053   2.297   3.822  0.9682  0.3330  1.0583
 8878TIP3   OH250828   2.180   0.109   5.225 -0.3241  0.0425  0.7509
 8878TIP3    H150829   2.161   0.202   5.211  0.6185  0.2139  0.5282
 8878TIP3    H250830   2.164   0.068   5.140 -0.8708 -0.0271  0.8847
 8879TIP3   OH250831   4.552   0.682   3.490  0.5116  0.6496  0.8548
 8879TIP3    H150832   4.547   0.706   3.583  3.0766  0.9411  0.9835
 8879TIP3    H250833   4.586   0.593   3.491  0.9067  0.7935  0.1849
 8880TIP3   OH250834   2.023   3.104   2.558  0.1415 -0.1820 -0.3881
 8880TIP3    H150835   1.949   3.100   2.619 -1.2246 -1.0896 -2.0084
 8880TIP3    H250836   2.061   3.191   2.571  0.9771 -0.9028  2.8967
 8881TIP3   OH250837   2.503   0.668   4.699 -0.1222  0.4485 -0.3055
 8881TIP3    H150838   2.451   0.627   4.768 -1.2947 -2.4196 -2.6781
 8881TIP3    H250839   2.463   0.754   4.686 -2.3737 -0.4945  0.0089
 8882TIP3   OH250840   2.054   3.910   3.702 -0.0542 -0.0944 -0.3796
 8882TIP3    H150841   2.043   3.955   3.786  0.5558  1.6400 -1.1816
 8882TIP3    H250842   2.145   3.879   3.704  0.5398  1.5190 -1.0901
 8883TIP3   OH250843   5.357   3.374   5.337 -0.3950  0.0554 -0.1084
 8883TIP3    H150844   5.300   3.433   5.287  0.7510  0.9535 -0.3922
 8883TIP3    H250845   5.320   3.374   5.426 -0.9906  0.4044 -0.3530
 8884TIP3   OH250846   5.188   0.027   2.867 -0.2449 -0.4383 -0.4474
 8884TIP3    H150847   5.109   0.062   2.825 -0.5319 -0.4873  0.0356
 8884TIP3    H250848   5.256   0.092   2.848 -0.9349  0.7754  1.0145
 8885TIP3   OH250849   1.573   4.148   1.877  0.6015 -0.3757 -0.2943
 8885TIP3    H150850   1.621   4.231   1.873 -0.7492  0.3781 -2.4404
 8885TIP3    H250851   1.613   4.093   1.810 -1.6841  0.4642 -2.5352
 8886TIP3   OH250852   0.274   5.076   4.767 -0.4707 -0.1006  0.2848
 8886TIP3    H150853   0.229   5.143   4.716  1.1349  1.0823  0.3380
 8886TIP3    H250854   0.212   5.053   4.836 -1.2103  1.0712  0.0458
 8887TIP3   OH250855   5.703   3.342   3.239 -0.4114 -0.0244  0.3596
 8887TIP3    H150856   5.620   3.303   3.268 -0.2754  0.2701  1.1489
 8887TIP3    H250857   5.717   3.416   3.298 -0.1054  0.5589 -0.4241
 8888TIP3   OH250858   4.747   3.917   4.370 -0.6222 -0.4267 -0.1965
 8888TIP3    H150859   4.788   3.986   4.423  0.1289 -0.3358 -0.8853
 8888TIP3    H250860   4.789   3.836   4.400 -1.5266 -0.6011  0.6339
 8889TIP3   OH250861   4.580   4.757   4.526 -0.6318  0.1554 -0.1887
 8889TIP3    H150862   4.543   4.836   4.565 -1.6049 -0.3406 -0.0719
 8889TIP3    H250863   4.518   4.687   4.550 -0.4675 -0.4175 -1.3603
 8890TIP3   OH250864   5.103   3.205   4.268  0.4557 -0.0448  0.0495
 8890TIP3    H150865   5.076   3.215   4.359  2.2012 -0.4643  0.6557
 8890TIP3    H250866   5.086   3.113   4.248  2.4285 -0.6262  0.8253
 8891TIP3   OH250867   6.476   4.292   2.115 -0.1716  0.1035  0.3250
 8891TIP3    H150868   6.517   4.211   2.084  2.5388  1.5434 -0.1710
 8891TIP3    H250869   6.400   4.304   2.057  0.7158 -0.8974 -1.1104
 8892TIP3   OH250870   3.535   6.142   2.198 -0.3983  0.2566  0.2526
 8892TIP3    H150871   3.560   6.207   2.264  0.9241  0.4240 -0.3662
 8892TIP3    H250872   3.459   6.097   2.235 -1.2049  1.9916  0.8093
 8893TIP3   OH250873   6.017   1.534   2.699 -0.2917 -0.3376 -0.1336
 8893TIP3    H150874   6.018   1.568   2.788 -1.3478 -1.8547  0.4988
 8893TIP3    H250875   6.081   1.463   2.699 -1.2177 -1.2090 -0.1682
 8894TIP3   OH250876   0.619   1.325   5.506 -0.1917  0.4231 -0.8237
 8894TIP3    H150877   0.638   1.232   5.495 -0.2527  0.5862 -2.6551
 8894TIP3    H250878   0.703   1.368   5.493  0.0818  0.6041  1.1921
 8895TIP3   OH250879   2.413   0.105   4.263 -0.4999 -0.0488  0.2980
 8895TIP3    H150880   2.404   0.013   4.236 -2.0745  0.3436 -0.5933
 8895TIP3    H250881   2.350   0.152   4.209 -0.3618  1.4420  1.3922
 8896TIP3   OH250882   2.674   5.227   2.643 -0.1294 -0.1269 -0.0822
 8896TIP3    H150883   2.679   5.264   2.555 -0.9146  0.6684  0.1905
 8896TIP3    H250884   2.721   5.144   2.637 -0.5363 -0.2870 -1.3680
 8897TIP3   OH250885   1.593   0.702   3.653 -0.3018 -0.6462 -0.2193
 8897TIP3    H150886   1.675   0.662   3.683 -0.7929 -0.6046  1.2599
 8897TIP3    H250887   1.596   0.695   3.558  0.8935 -1.6841 -0.1276
 8898TIP3   OH250888   5.022   5.348   2.882 -0.8403 -0.0517  0.0116
 8898TIP3    H150889   5.100   5.294   2.870 -1.8902 -1.4766 -0.5509
 8898TIP3    H250890   4.958   5.313   2.821 -1.3780  2.2706 -0.8719
 8899TIP3   OH250891   4.467   5.595   5.165 -0.3555 -0.4768  0.1787
 8899TIP3    H150892   4.519   5.562   5.238 -0.4959  1.3949  1.1688
 8899TIP3    H250893   4.522   5.661   5.124 -1.5840  0.9503  0.7403
 8900TIP3   OH250894   0.914   3.465   3.335  1.0441 -0.0226 -0.3380
 8900TIP3    H150895   0.872   3.493   3.254  0.2986 -1.3277 -0.4321
 8900TIP3    H250896   0.941   3.547   3.378 -2.7820  1.0740  0.3678
 8901TIP3   OH250897   4.128   2.628   4.898 -0.4258  0.0377 -0.0151
 8901TIP3    H150898   4.038   2.602   4.875  0.4563 -1.2994 -2.3332
 8901TIP3    H250899   4.181   2.553   4.875  1.3823  1.0035  0.8154
 8902TIP3   OH250900   0.154   0.837   3.413  0.1312 -0.4335  0.4552
 8902TIP3    H150901   0.127   0.847   3.322 -0.6949 -0.2343  0.7149
 8902TIP3    H250902   0.174   0.926   3.443  1.0859 -0.5752  0.2720
 8903TIP3   OH250903   4.036   5.641   2.304 -0.1369 -0.0686  0.4540
 8903TIP3    H150904   3.943   5.665   2.296  0.1738  0.8139 -0.8255
 8903TIP3    H250905   4.050   5.576   2.236  0.3902  0.5198 -0.0153
 8904TIP3   OH250906   3.227   4.693   5.504  0.5850 -0.1475  0.1230
 8904TIP3    H150907   3.156   4.752   5.529 -1.7621 -1.5737 -2.6101
 8904TIP3    H250908   3.230   4.629   5.575 -0.3336  0.3946  0.6795
 8905TIP3   OH250909   0.703   5.031   4.308 -0.5303  1.1049 -0.2935
 8905TIP3    H150910   0.656   5.093   4.251  2.0075  2.3891 -1.1670
 8905TIP3    H250911   0.795   5.050   4.292  0.3273 -1.2977  1.2939
 8906TIP3   OH250912   4.926   6.140   3.633  0.3088 -0.2745 -0.0105
 8906TIP3    H150913   4.850   6.170   3.583  0.1492  0.8303  0.8488
 8906TIP3    H250914   4.893   6.067   3.686  0.1067 -0.4734 -0.4073
 8907TIP3   OH250915   5.859   0.433   4.600  0.0538 -0.2094 -0.4259
 8907TIP3    H150916   5.768   0.446   4.625  0.4343 -0.8806  1.4526
 8907TIP3    H250917   5.856   0.420   4.505 -1.5980  1.3485 -0.6404
 8908TIP3   OH250918   5.328   3.172   2.232 -0.5025 -0.2844  0.3603
 8908TIP3    H150919   5.236   3.191   2.211 -0.7326  0.9024  2.2271
 8908TIP3    H250920   5.333   3.076   2.234 -1.6249 -0.3648 -0.0239
 8909TIP3   OH250921   0.160   3.072   2.589 -0.3571 -0.4218 -0.0022
 8909TIP3    H150922   0.221   3.001   2.607 -0.6254 -1.3362 -2.3213
 8909TIP3    H250923   0.086   3.030   2.544 -1.4436  1.0535  0.3182
 8910TIP3   OH250924   4.256   4.365   3.766 -0.0262  0.0300  0.2015
 8910TIP3    H150925   4.308   4.373   3.846 -0.0201  0.8367  0.1239
 8910TIP3    H250926   4.219   4.452   3.752 -0.7823 -0.3422 -0.1634
 8911TIP3   OH250927   1.359   0.672   3.393 -0.2425 -0.2300 -0.8432
 8911TIP3    H150928   1.440   0.623   3.387  0.0164  0.1453 -0.4795
 8911TIP3    H250929   1.340   0.699   3.303  0.1541 -0.1353 -0.9018
 8912TIP3   OH250930   4.160   2.916   4.390 -0.2158  0.3508 -0.0614
 8912TIP3    H150931   4.188   3.002   4.359  2.1388 -0.1642  0.4544
 8912TIP3    H250932   4.068   2.911   4.365 -0.5671  3.1906  0.3311
 8913TIP3   OH250933   0.689   2.616   2.684  0.4516  0.4189 -0.3702
 8913TIP3    H150934   0.690   2.676   2.759 -0.4548 -0.6050  0.4935
 8913TIP3    H250935   0.632   2.544   2.711 -0.7044  0.4900 -2.4370
 8914TIP3   OH250936   1.070   5.059   4.714 -0.1216 -0.0792 -0.2341
 8914TIP3    H150937   1.019   5.136   4.689  1.0723  0.7956 -0.0754
 8914TIP3    H250938   1.076   5.007   4.634 -2.0641 -0.7048 -0.0170
 8915TIP3   OH250939   5.505   0.493   2.968 -0.0472  0.3805  0.4125
 8915TIP3    H150940   5.550   0.509   2.884  0.4020  0.5977  0.6883
 8915TIP3    H250941   5.423   0.450   2.944  0.6978 -0.8212 -0.0531
 8916TIP3   OH250942   2.576   1.988   4.662 -0.6973  0.0404  0.3340
 8916TIP3    H150943   2.645   1.948   4.715 -0.7295 -0.3310  0.0974
 8916TIP3    H250944   2.609   1.984   4.573 -1.7694 -1.7577 -0.0256
 8917TIP3   OH250945   1.693   1.847   3.901  0.3375  0.2835  0.8214
 8917TIP3    H150946   1.697   1.840   3.997 -0.1330  1.2886  0.9288
 8917TIP3    H250947   1.648   1.768   3.874 -0.8433  0.6560  1.5747
 8918TIP3   OH250948   4.127   1.576   2.112  0.1834  0.0576  0.1927
 8918TIP3    H150949   4.126   1.504   2.175  1.8312 -0.2853 -0.1190
 8918TIP3    H250950   4.181   1.543   2.040  2.2684  2.1419  0.7130
 8919TIP3   OH250951   1.031   5.825   4.912  0.2475  0.3960 -0.0250
 8919TIP3    H150952   0.996   5.861   4.993  0.1337  0.0109  0.0986
 8919TIP3    H250953   1.015   5.731   4.918  0.9881  0.2578 -0.1244
 8920TIP3   OH250954   6.093   4.490   3.818 -0.1106  0.0551  0.3055
 8920TIP3    H150955   6.187   4.506   3.809  0.1887 -1.5155  0.2557
 8920TIP3    H250956   6.053   4.576   3.809  1.3008  0.7204  0.0386
 8921TIP3   OH250957   4.705   1.849   4.888 -0.4377  0.2613 -0.3903
 8921TIP3    H150958   4.783   1.902   4.905  0.3665 -0.8113 -0.6095
 8921TIP3    H250959   4.632   1.906   4.911  0.4305  0.9761  0.7121
 8922TIP3   OH250960   5.462   1.367   2.737 -0.4095  0.0798 -0.1235
 8922TIP3    H150961   5.417   1.446   2.768 -0.2235  0.1131  0.0672
 8922TIP3    H250962   5.513   1.337   2.813 -0.7908 -0.4554 -0.0746
 8923TIP3   OH250963   0.521   1.978   3.901  1.0132 -0.4857 -0.1711
 8923TIP3    H150964   0.495   2.068   3.882  0.0652 -0.1983  2.1580
 8923TIP3    H250965   0.617   1.979   3.896  1.1325  1.1236  1.4482
 8924TIP3   OH250966   0.070   6.014   4.953  0.5515  0.0354 -0.1402
 8924TIP3    H150967   0.117   6.090   4.918  1.4786 -0.4729 -0.0294
 8924TIP3    H250968   0.111   5.999   5.039 -0.6743  0.3506  0.5142
 8925TIP3   OH250969   1.753   1.515   4.623 -0.0656 -0.1131  0.1327
 8925TIP3    H150970   1.724   1.553   4.706 -2.8573 -1.2152 -0.2187
 8925TIP3    H250971   1.696   1.555   4.557 -0.3789 -1.8500 -0.7366
 8926TIP3   OH250972   6.623   1.902   4.846  0.4684  0.1930  0.3019
 8926TIP3    H150973   6.571   1.874   4.771 -0.5524 -1.3259  1.5042
 8926TIP3    H250974   6.598   1.842   4.916 -1.2178  3.5284  2.9054
 8927TIP3   OH250975   5.061   2.913   4.222 -0.7355  0.2649  0.0504
 8927TIP3    H150976   5.050   2.893   4.315 -1.1406  0.4378  0.0403
 8927TIP3    H250977   4.975   2.943   4.193 -1.3272 -2.2524 -1.0170
 8928TIP3   OH250978   6.485   0.243   3.237 -0.0064 -0.8848 -1.0153
 8928TIP3    H150979   6.484   0.293   3.155 -1.0219 -1.0282 -1.1083
 8928TIP3    H250980   6.508   0.154   3.210  1.3761 -0.5778 -0.9059
 8929TIP3   OH250981   5.432   1.960   3.538 -0.0507  0.0430  0.0909
 8929TIP3    H150982   5.364   1.894   3.527 -0.0603  0.0696 -0.0130
 8929TIP3    H250983   5.431   1.981   3.631  0.5555 -0.7645  0.2981
 8930TIP3   OH250984   5.932   5.044   3.706 -0.0746  0.6842  0.9461
 8930TIP3    H150985   5.917   5.064   3.613  0.3065 -1.1773  0.4379
 8930TIP3    H250986   5.846   5.052   3.747 -0.5799 -0.1808  0.0740
 8931TIP3   OH250987   1.452   6.513   1.761  0.0287  0.0055 -0.0636
 8931TIP3    H150988   1.514   6.544   1.695 -0.2294  0.6619 -0.0068
 8931TIP3    H250989   1.494   6.534   1.844  0.0850 -0.2744 -0.0213
 8932TIP3   OH250990   2.048   6.030   3.543  0.2795  0.2614 -0.0299
 8932TIP3    H150991   2.043   6.099   3.477 -1.3338  0.6495  0.4373
 8932TIP3    H250992   2.089   5.956   3.498 -0.9034  0.4664 -1.5301
 8933TIP3   OH250993   1.686   3.043   1.891 -0.4632 -0.0489  0.3564
 8933TIP3    H150994   1.591   3.053   1.897 -0.2793  1.5642  0.9157
 8933TIP3    H250995   1.715   3.114   1.833  0.3799 -0.7410 -0.1053
 8934TIP3   OH250996   2.413   2.422   3.687 -0.1508 -0.5127 -0.1230
 8934TIP3    H150997   2.437   2.487   3.753  0.3758 -1.1219  0.2961
 8934TIP3    H250998   2.383   2.347   3.738  0.9107 -1.2418 -0.5510
 8935TIP3   OH250999   3.144   4.904   2.160 -0.4354  0.0894  0.0781
 8935TIP3    H151000   3.217   4.872   2.214  1.1228  1.8154 -0.8805
 8935TIP3    H251001   3.066   4.887   2.213  0.7141 -1.0726  1.5086
 8936TIP3   OH251002   5.697   1.272   3.531 -0.0317  0.1805 -0.0421
 8936TIP3    H151003   5.740   1.356   3.516  2.8882 -1.2185 -0.0752
 8936TIP3    H251004   5.678   1.271   3.625 -0.2056  0.8961 -0.0640
 8937TIP3   OH251005   4.314   0.819   2.882  0.8308  0.3557  0.6407
 8937TIP3    H151006   4.348   0.873   2.952 -0.7069  0.5378  1.2923
 8937TIP3    H251007   4.381   0.752   2.868  0.6517 -0.4195  3.1321
 8938TIP3   OH251008   4.701   1.477   4.868  0.1387  0.2207 -0.2140
 8938TIP3    H151009   4.626   1.425   4.897 -0.8168  0.7898 -1.5375
 8938TIP3    H251010   4.776   1.439   4.913 -0.6760 -1.5996 -0.3025
 8939TIP3   OH251011   0.784   6.309   4.097 -0.6379 -0.4847  0.1375
 8939TIP3    H151012   0.707   6.365   4.096 -1.2130 -1.1048  2.4264
 8939TIP3    H251013   0.857   6.368   4.117 -1.1737 -0.4057  2.0815
 8940TIP3   OH251014   2.037   0.882   2.379  0.1593 -0.3584 -0.7342
 8940TIP3    H151015   1.972   0.812   2.369 -1.2448  0.8385 -0.3544
 8940TIP3    H251016   2.026   0.935   2.301 -0.4093  0.6990  0.0379
 8941TIP3   OH251017   5.447   6.539   4.670  0.4532 -0.1943 -0.1832
 8941TIP3    H151018   5.439   6.615   4.612  1.3340 -0.3906 -0.5772
 8941TIP3    H251019   5.364   6.493   4.660  0.4400 -0.0118 -0.9932
 8942TIP3   OH251020   2.082   6.114   2.258 -0.2248  0.0341  0.2379
 8942TIP3    H151021   2.135   6.058   2.201 -1.2709  0.4202 -1.1532
 8942TIP3    H251022   2.006   6.061   2.280  0.7638 -0.6072  2.4359
 8943TIP3   OH251023   0.572   4.972   3.068 -0.2685  0.1079 -0.5483
 8943TIP3    H151024   0.566   4.933   2.981  1.1459  0.4299 -0.8061
 8943TIP3    H251025   0.605   4.901   3.124 -0.1801  0.2025 -0.4809
 8944TIP3   OH251026   6.718   1.995   2.442 -0.5138  0.2813 -0.1863
 8944TIP3    H151027   6.665   2.002   2.363 -1.7283 -2.1624  0.3298
 8944TIP3    H251028   6.656   1.973   2.512  0.3535  3.3329  1.7565
 8945TIP3   OH251029   1.445   1.346   1.831 -0.8206  0.5042 -0.4293
 8945TIP3    H151030   1.357   1.363   1.864 -1.2221 -1.8588 -0.1710
 8945TIP3    H251031   1.437   1.267   1.779  1.0881  0.4913 -0.7837
 8946TIP3   OH251032   1.822   4.648   3.426  0.3558  0.0714  0.3038
 8946TIP3    H151033   1.871   4.594   3.488  0.7678  0.8621  0.6701
 8946TIP3    H251034   1.887   4.707   3.388 -0.4619  1.8655  1.5688
 8947TIP3   OH251035   5.039   2.358   3.105 -0.2198  0.2803 -0.5408
 8947TIP3    H151036   5.039   2.369   3.200 -0.8689 -0.2411 -0.4748
 8947TIP3    H251037   4.974   2.421   3.073  0.8191  1.2716 -0.7514
 8948TIP3   OH251038   3.436   5.073   2.385 -0.0457  0.2000 -0.0087
 8948TIP3    H151039   3.375   5.047   2.454  1.2948 -1.4359  0.6359
 8948TIP3    H251040   3.521   5.076   2.428  0.7212 -0.1358 -1.4333
 8949TIP3   OH251041   6.189   5.072   4.073 -0.2240 -0.0787  0.0365
 8949TIP3    H151042   6.115   5.058   4.132 -0.2376 -2.7979 -0.4988
 8949TIP3    H251043   6.178   5.006   4.005  0.6915  1.8899 -2.1566
 8950TIP3   OH251044   2.751   6.390   5.110  0.3985  0.2384 -0.1372
 8950TIP3    H151045   2.818   6.451   5.141 -0.6718  1.9094 -0.9935
 8950TIP3    H251046   2.683   6.392   5.178  0.3093  0.0621 -0.2199
 8951TIP3   OH251047   1.541   5.757   1.966  0.3062 -0.0794  0.0771
 8951TIP3    H151048   1.615   5.753   2.026  0.3706  1.2789  0.1150
 8951TIP3    H251049   1.481   5.689   1.997  0.2358  0.7220  1.8166
 8952TIP3   OH251050   6.151   0.586   4.169  0.0654 -0.5753 -0.8438
 8952TIP3    H151051   6.064   0.573   4.130 -1.3665 -0.6848  2.1131
 8952TIP3    H251052   6.136   0.651   4.238  1.6133 -2.7690  1.7573
 8953TIP3   OH251053   3.558   1.475   4.256  0.0241 -0.0210 -0.4143
 8953TIP3    H151054   3.567   1.551   4.197  1.5414  0.3484  0.2514
 8953TIP3    H251055   3.574   1.510   4.343  1.4227 -1.1961 -0.1531
 8954TIP3   OH251056   0.143   4.986   2.771  0.0552 -0.3717 -0.4624
 8954TIP3    H151057   0.121   4.964   2.861  0.6916  0.8316 -0.0009
 8954TIP3    H251058   0.235   5.011   2.774 -0.1356  0.4740 -1.2954
 8955TIP3   OH251059   5.612   0.821   4.282 -0.1530  0.5840  0.2764
 8955TIP3    H151060   5.558   0.803   4.205 -0.5369  1.4715  0.3284
 8955TIP3    H251061   5.656   0.903   4.262 -0.1906  0.7801  0.9765
 8956TIP3   OH251062   4.333   6.572   5.409  0.6901 -0.2436 -0.1484
 8956TIP3    H151063   4.244   6.535   5.409 -0.5308  2.4200 -1.4415
 8956TIP3    H251064   4.390   6.496   5.417 -1.6576 -2.2013 -0.6684
 8957TIP3   OH251065   2.710   3.502   3.043  0.3206  0.1694  0.6293
 8957TIP3    H151066   2.619   3.499   3.073  0.7703 -0.7581  1.9713
 8957TIP3    H251067   2.705   3.548   2.959 -1.7774 -2.3686 -0.7732
 8958TIP3   OH251068   5.878   2.144   2.501  0.6684 -0.4196  0.1264
 8958TIP3    H151069   5.861   2.227   2.456 -0.9663 -0.7681  0.0157
 8958TIP3    H251070   5.920   2.089   2.435 -1.9578 -1.0255 -1.1983
 8959TIP3   OH251071   1.144   1.561   3.255  0.1182  0.1766 -0.1233
 8959TIP3    H151072   1.204   1.612   3.309  0.1299 -0.0115  0.0474
 8959TIP3    H251073   1.197   1.529   3.182  0.8161 -1.8063  1.1459
 8960TIP3   OH251074   2.134   6.525   4.818 -0.0829  0.2310 -0.3984
 8960TIP3    H151075   2.114   6.491   4.906  0.7700  0.0258 -0.2704
 8960TIP3    H251076   2.230   6.524   4.814  0.0447  3.1647 -0.1852
 8961TIP3   OH251077   0.544   4.126   2.265  0.0960  0.1271 -0.0669
 8961TIP3    H151078   0.544   4.163   2.353  1.0718  0.3565 -0.1506
 8961TIP3    H251079   0.463   4.158   2.226 -0.7393 -0.6032  0.9895
 8962TIP3   OH251080   4.085   2.108   2.181  0.1455 -0.4369 -0.5924
 8962TIP3    H151081   4.031   2.109   2.102  0.8161 -0.9031 -1.0625
 8962TIP3    H251082   4.058   2.187   2.229  0.1689  0.1882 -1.5763
 8963TIP3   OH251083   2.432   4.421   4.787  0.1611  0.2050  0.3505
 8963TIP3    H151084   2.376   4.377   4.723  0.8447  0.1276 -0.2092
 8963TIP3    H251085   2.375   4.484   4.830 -0.5523 -0.4315  0.3605
 8964TIP3   OH251086   0.616   6.251   4.481 -0.4677 -0.0871 -0.4893
 8964TIP3    H151087   0.535   6.224   4.526 -1.6767  0.8632 -2.0096
 8964TIP3    H251088   0.620   6.197   4.403 -1.0000  1.5282 -1.7015
 8965TIP3   OH251089   5.442   5.380   3.484 -0.5132 -0.0932 -0.3151
 8965TIP3    H151090   5.530   5.357   3.515 -0.3794 -1.8297 -1.8190
 8965TIP3    H251091   5.386   5.370   3.561  0.4989  0.3560  0.4945
 8966TIP3   OH251092   4.919   3.588   3.158  0.3656  0.5204  0.2921
 8966TIP3    H151093   4.843   3.571   3.214  1.0705 -0.6673  0.9176
 8966TIP3    H251094   4.922   3.513   3.099  0.7227  0.8522 -0.1174
 8967TIP3   OH251095   4.261   4.643   4.024  0.1642 -0.1073  0.0604
 8967TIP3    H151096   4.329   4.710   4.020  0.2008 -0.2075 -1.2425
 8967TIP3    H251097   4.234   4.630   3.933 -0.8131 -0.8725  0.4396
 8968TIP3   OH251098   5.992   2.074   5.441  0.0970  0.4488 -0.2804
 8968TIP3    H151099   5.926   2.026   5.491 -0.1189  0.3547 -0.6612
 8968TIP3    H251100   6.010   2.152   5.494  0.2761  0.0734  0.2222
 8969TIP3   OH251101   2.963   0.272   2.277 -0.1610 -1.0685 -0.0781
 8969TIP3    H151102   2.968   0.342   2.212 -0.6127 -1.3562 -0.4236
 8969TIP3    H251103   3.050   0.271   2.317 -0.3925  0.2365  0.5010
 8970TIP3   OH251104   1.270   5.257   4.035  0.1223 -0.0004 -0.4671
 8970TIP3    H151105   1.241   5.288   4.120 -2.4028  1.9439 -1.8699
 8970TIP3    H251106   1.324   5.181   4.054 -1.7011 -0.6843  2.7820
 8971TIP3   OH251107   3.137   2.734   4.686  0.4779  0.0402 -0.2260
 8971TIP3    H151108   3.057   2.747   4.636  2.1761  0.5839 -3.0117
 8971TIP3    H251109   3.124   2.649   4.729 -1.1439 -0.4477 -1.5435
 8972TIP3   OH251110   3.046   6.324   2.107  0.4626  0.2041 -0.0099
 8972TIP3    H151111   3.051   6.367   2.022 -0.5957 -1.3483 -0.9119
 8972TIP3    H251112   3.125   6.351   2.153  1.9130 -0.2372 -2.1375
 8973TIP3   OH251113   4.594   6.513   2.714  0.7737 -0.1992 -0.3971
 8973TIP3    H151114   4.532   6.477   2.650  1.2893 -0.3353 -0.8281
 8973TIP3    H251115   4.633   6.435   2.754  2.6200 -0.1882 -2.0294
 8974TIP3   OH251116   4.905   2.021   3.390  1.2835 -0.3717 -0.0330
 8974TIP3    H151117   4.923   1.981   3.305 -0.8358 -3.0251  0.6424
 8974TIP3    H251118   4.985   2.008   3.440  1.8490 -0.6022 -0.9715
 8975TIP3   OH251119   0.918   4.283   1.992  0.5827 -0.0201 -0.2363
 8975TIP3    H151120   0.910   4.248   2.080  0.9412  0.9844  0.2095
 8975TIP3    H251121   0.892   4.211   1.935  0.1758 -0.6221  0.6911
 8976TIP3   OH251122   5.734   1.314   3.231  0.2189  0.8052 -0.4899
 8976TIP3    H151123   5.775   1.401   3.228 -0.4936  1.1572 -0.1327
 8976TIP3    H251124   5.702   1.306   3.320  1.9827 -0.6300  0.0674
 8977TIP3   OH251125   3.712   3.514   5.088  0.1318  0.6025  0.2045
 8977TIP3    H151126   3.773   3.558   5.147  0.3016  1.5296 -0.6176
 8977TIP3    H251127   3.760   3.507   5.005  0.3223 -1.7172  0.4456
 8978TIP3   OH251128   4.697   5.768   4.269 -0.0908 -0.1601  0.4414
 8978TIP3    H151129   4.767   5.746   4.331 -0.4789 -0.5451  0.7466
 8978TIP3    H251130   4.703   5.700   4.201 -0.9332 -0.9055  1.0950
 8979TIP3   OH251131   3.848   3.078   4.658  0.0012 -0.0901 -0.0170
 8979TIP3    H151132   3.783   3.091   4.589 -1.8339  0.3511  1.6870
 8979TIP3    H251133   3.804   3.022   4.722  0.7129  1.3710  1.8581
 8980TIP3   OH251134   4.893   4.131   3.981 -0.2340  0.6746  0.3675
 8980TIP3    H151135   4.874   4.039   3.965  0.2854  0.9799 -2.6342
 8980TIP3    H251136   4.949   4.131   4.058 -0.0094 -1.5652  0.2595
 8981TIP3   OH251137   4.066   4.220   5.682 -0.3445  0.1619 -0.1988
 8981TIP3    H151138   3.982   4.206   5.639 -1.3950 -0.2491  1.8909
 8981TIP3    H251139   4.054   4.301   5.732  1.4782  1.7075 -2.0515
 8982TIP3   OH251140   4.572   2.158   4.866  0.1619  0.0063 -0.6372
 8982TIP3    H151141   4.482   2.174   4.836 -0.2174 -1.2860 -0.2496
 8982TIP3    H251142   4.568   2.172   4.961  0.6428  1.0119 -0.7467
 8983TIP3   OH251143   5.879   2.306   4.123  0.2483 -0.2261 -0.2824
 8983TIP3    H151144   5.869   2.223   4.077 -0.3864 -1.4742  1.9879
 8983TIP3    H251145   5.962   2.341   4.090  0.9128 -2.1185 -0.7325
 8984TIP3   OH251146   5.231   1.248   2.229 -0.0288  0.1670  0.8939
 8984TIP3    H151147   5.296   1.215   2.291  0.5723  0.4543  0.4243
 8984TIP3    H251148   5.282   1.290   2.160 -0.7024  0.1688  0.3820
 8985TIP3   OH251149   5.447   1.949   4.804 -0.0952  0.2461  0.1489
 8985TIP3    H151150   5.461   1.920   4.714 -0.7339  2.4903 -0.7395
 8985TIP3    H251151   5.475   1.875   4.858  0.9224 -0.9130 -1.8634
 8986TIP3   OH251152   3.330   5.656   3.242  0.4505 -0.0586 -0.2255
 8986TIP3    H151153   3.279   5.594   3.190  0.7076 -0.5159  0.0585
 8986TIP3    H251154   3.302   5.641   3.332  1.3855 -0.6230 -0.0157
 8987TIP3   OH251155   4.620   6.800   2.321 -0.0987 -0.3179 -0.3429
 8987TIP3    H151156   4.564   6.833   2.391  0.0443 -0.6139 -0.0882
 8987TIP3    H251157   4.580   6.834   2.241 -1.4291 -1.6301 -0.2773
 8988TIP3   OH251158   1.046   1.678   2.768 -0.9100 -0.1249  0.7188
 8988TIP3    H151159   1.106   1.728   2.712 -1.0962  0.1985  0.8049
 8988TIP3    H251160   1.003   1.744   2.822 -2.9428 -0.0519 -0.8157
 8989TIP3   OH251161   6.306   1.434   2.701 -0.2642  0.6764 -0.0245
 8989TIP3    H151162   6.365   1.426   2.626  0.8762 -1.1569  0.9917
 8989TIP3    H251163   6.346   1.503   2.755 -0.5132  1.2707 -0.5976
 8990TIP3   OH251164   3.703   2.364   4.260  0.1119  0.4115 -0.3158
 8990TIP3    H151165   3.642   2.353   4.187  1.5442 -0.1558 -1.4761
 8990TIP3    H251166   3.786   2.387   4.219  1.1078 -0.5135  1.0770
 8991TIP3   OH251167   1.798   6.036   2.216 -0.0277  0.0175  0.1726
 8991TIP3    H151168   1.709   6.041   2.180  0.3566  1.5420 -0.6579
 8991TIP3    H251169   1.830   5.950   2.187 -0.8711 -0.1293 -0.3899
 8992TIP3   OH251170   0.808   4.002   3.860  0.2215  0.3878 -0.1289
 8992TIP3    H151171   0.728   4.019   3.810 -0.1714  0.5659  0.5492
 8992TIP3    H251172   0.862   4.080   3.846  0.6196 -0.0641 -1.2173
 8993TIP3   OH251173   3.337   5.342   2.021  0.0144  0.0671 -0.6152
 8993TIP3    H151174   3.264   5.372   1.967  0.5714  0.2625 -1.2752
 8993TIP3    H251175   3.407   5.323   1.958 -0.0052 -1.7243 -0.1586
 8994TIP3   OH251176   1.730   3.833   2.602  0.4599  0.3704  0.2916
 8994TIP3    H151177   1.653   3.780   2.622 -0.0659  0.2537 -1.7932
 8994TIP3    H251178   1.717   3.914   2.651 -1.1029  0.4324 -0.1777
 8995TIP3   OH251179   4.738   0.969   2.702  0.2254 -0.2286 -0.5743
 8995TIP3    H151180   4.818   0.916   2.705  0.7323  0.5306 -0.4451
 8995TIP3    H251181   4.763   1.052   2.743 -0.9150 -0.3484  0.4015
 8996TIP3   OH251182   5.936   3.233   4.550 -0.2364  0.7518 -0.0918
 8996TIP3    H151183   5.889   3.150   4.559 -2.1723  1.8305  0.3719
 8996TIP3    H251184   6.021   3.209   4.513 -0.1659 -1.5806  1.3833
 8997TIP3   OH251185   5.993   2.002   5.744 -0.2159 -0.2208  0.3464
 8997TIP3    H151186   5.949   2.062   5.805  0.3593 -0.4843  1.0279
 8997TIP3    H251187   5.923   1.973   5.686 -0.3821  1.6727 -0.4768
 8998TIP3   OH251188   0.531   2.369   2.878  0.4173 -0.0398 -0.0560
 8998TIP3    H151189   0.543   2.327   2.793 -1.0692 -2.1251  0.6986
 8998TIP3    H251190   0.484   2.305   2.930 -0.6144  2.0178  1.6835
 8999TIP3   OH251191   1.628   1.756   2.298 -0.2728  0.0424 -0.3480
 8999TIP3    H151192   1.587   1.716   2.375  0.1732 -0.0206 -0.1412
 8999TIP3    H251193   1.576   1.725   2.224  0.7196 -1.8410 -0.3076
 9000TIP3   OH251194   5.847   4.037   3.231 -0.0327 -0.0140 -0.2393
 9000TIP3    H151195   5.811   3.982   3.300 -0.1072 -0.1916 -0.4187
 9000TIP3    H251196   5.785   4.029   3.158  0.5255 -0.5677 -0.6590
 9001TIP3   OH251197   0.449   6.353   3.666  0.4025 -0.5984 -0.3759
 9001TIP3    H151198   0.426   6.316   3.751  1.3741 -1.1938 -0.3494
 9001TIP3    H251199   0.522   6.298   3.636  1.0522  0.5351 -0.9061
 9002TIP3   OH251200   1.338   6.132   3.910  0.1516  0.4381  0.2178
 9002TIP3    H151201   1.394   6.195   3.956 -1.5412  2.2049 -0.0090
 9002TIP3    H251202   1.381   6.048   3.923  0.9465  1.1766  3.1554
 9003TIP3   OH251203   5.604   1.956   3.097 -0.9058 -0.1719 -0.0858
 9003TIP3    H151204   5.592   1.913   3.182 -2.1034 -1.1957 -0.7461
 9003TIP3    H251205   5.699   1.968   3.089 -0.6139 -1.8694  0.5286
 9004TIP3   OH251206   2.762   6.515   2.736 -0.0191  0.0921  0.0274
 9004TIP3    H151207   2.839   6.560   2.769 -0.8308  0.8798  0.8910
 9004TIP3    H251208   2.692   6.580   2.738 -1.2342 -1.1700  1.3403
 9005TIP3   OH251209   1.103   5.498   3.960 -0.7611  0.5980 -0.8497
 9005TIP3    H151210   1.165   5.504   4.034  0.3255  2.4400 -1.8316
 9005TIP3    H251211   1.127   5.417   3.916 -1.9248 -0.9568  1.1711
 9006TIP3   OH251212   0.073   5.475   2.926  0.3449 -0.2754  0.0049
 9006TIP3    H151213   0.132   5.404   2.952 -1.0452 -1.2967  0.4862
 9006TIP3    H251214   0.101   5.499   2.838  2.7553  0.6669  0.9424
 9007TIP3   OH251215   5.543   3.396   2.462  0.7810  0.3949 -0.0554
 9007TIP3    H151216   5.606   3.369   2.396 -0.3980 -1.8572 -0.3662
 9007TIP3    H251217   5.543   3.492   2.458  1.2835  0.3629 -2.8015
 9008TIP3   OH251218   2.092   0.345   3.013  0.5969  0.4078  0.3857
 9008TIP3    H151219   2.083   0.440   3.012  0.6673  0.4495  1.6345
 9008TIP3    H251220   2.009   0.312   2.978 -0.2056  0.9167  1.7346
 9009TIP3   OH251221   0.396   2.090   4.411 -0.3744  0.1914 -0.0062
 9009TIP3    H151222   0.317   2.142   4.398 -0.6728  0.1800  1.6070
 9009TIP3    H251223   0.369   2.019   4.469  0.8905  0.3754  0.8411
 9010TIP3   OH251224   1.655   0.655   2.503 -0.2705 -0.5737 -0.0868
 9010TIP3    H151225   1.622   0.695   2.583  0.4429 -1.5887  0.7402
 9010TIP3    H251226   1.619   0.566   2.503  0.1225 -0.7398 -0.6379
 9011TIP3   OH251227   1.883   1.464   3.396 -0.6043 -0.2204 -0.2255
 9011TIP3    H151228   1.841   1.525   3.456  0.4196 -0.1634  0.4561
 9011TIP3    H251229   1.830   1.469   3.316 -2.5481 -1.0078  0.9501
 9012TIP3   OH251230   1.197   3.211   3.153  0.2269 -0.3749 -0.3318
 9012TIP3    H151231   1.271   3.257   3.192  1.2133 -2.3683  0.2752
 9012TIP3    H251232   1.141   3.188   3.228 -0.0315 -0.5372 -0.5728
 9013TIP3   OH251233   1.973   2.821   1.970  0.1306  0.3521 -0.0548
 9013TIP3    H151234   1.954   2.914   1.982 -0.4868  0.4218 -1.4253
 9013TIP3    H251235   2.067   2.814   1.988  0.0049  1.0640  0.9582
 9014TIP3   OH251236   0.824   5.376   2.148 -0.1313  0.0754  0.4595
 9014TIP3    H151237   0.842   5.464   2.180  0.4652  0.3822 -0.6589
 9014TIP3    H251238   0.878   5.368   2.069 -0.3490 -1.2106  0.4199
 9015TIP3   OH251239   2.174   4.381   3.070  0.0633 -0.1143 -0.2773
 9015TIP3    H151240   2.248   4.326   3.095 -0.3063  0.1586  1.5925
 9015TIP3    H251241   2.199   4.419   2.986  1.5845 -0.8464 -0.1811
 9016TIP3   OH251242   6.206   3.905   4.433  0.3167  0.5331  0.2611
 9016TIP3    H151243   6.120   3.918   4.472 -0.1765  1.2190 -0.9892
 9016TIP3    H251244   6.267   3.947   4.493 -0.3521  1.0590  0.5772
 9017TIP3   OH251245   4.846   2.504   2.238  0.4407 -0.8697 -0.5965
 9017TIP3    H151246   4.912   2.453   2.191  2.0066 -1.8691  2.3620
 9017TIP3    H251247   4.897   2.563   2.293 -1.2929  1.3039 -1.2019
 9018TIP3   OH251248   0.166   2.639   2.817  0.2288  0.1355 -0.1562
 9018TIP3    H151249   0.089   2.594   2.782 -1.0881  1.9763  0.2211
 9018TIP3    H251250   0.140   2.665   2.906  0.9906  1.4441 -0.2953
 9019TIP3   OH251251   5.177   0.465   4.071 -0.0391 -0.3434  0.0352
 9019TIP3    H151252   5.237   0.462   3.997 -0.8158 -1.3505 -0.5609
 9019TIP3    H251253   5.134   0.551   4.064  0.1409 -0.2945 -0.4727
 9020TIP3   OH251254   3.063   3.312   5.460  0.8564  0.2848  0.2915
 9020TIP3    H151255   3.123   3.341   5.392 -0.8851  0.1360 -1.3891
 9020TIP3    H251256   2.981   3.357   5.440  0.2781  0.2229  2.3068
 9021TIP3   OH251257   4.177   0.588   4.063  0.1120 -0.3950 -0.1193
 9021TIP3    H151258   4.267   0.557   4.073  0.3701  0.3951  0.1258
 9021TIP3    H251259   4.129   0.545   4.134  0.0727 -1.5890 -0.8532
 9022TIP3   OH251260   1.371   6.193   4.273  0.0540  0.5319 -0.3816
 9022TIP3    H151261   1.391   6.278   4.233 -0.0719 -0.6572 -3.1819
 9022TIP3    H251262   1.432   6.132   4.232 -1.1819 -1.0774  0.0757
 9023TIP3   OH251263   6.074   4.016   2.554  0.1660 -0.4430 -0.3108
 9023TIP3    H151264   6.024   3.981   2.480 -0.3565  0.3482 -0.3336
 9023TIP3    H251265   6.165   4.014   2.524 -0.1496  1.0741 -1.4882
 9024TIP3   OH251266   1.542   6.359   4.628  0.0676 -0.4441 -0.7838
 9024TIP3    H151267   1.555   6.435   4.570 -0.1407  0.1319 -0.0853
 9024TIP3    H251268   1.554   6.393   4.716  0.8557 -1.4238 -0.4976
 9025TIP3   OH251269   2.649   5.120   4.185  0.8081 -0.0619  0.2095
 9025TIP3    H151270   2.565   5.077   4.204  1.4978 -0.9383  1.4218
 9025TIP3    H251271   2.626   5.212   4.170 -0.1837  0.0814  2.3011
 9026TIP3   OH251272   3.932   5.207   3.231 -0.1499 -0.0580 -0.0211
 9026TIP3    H151273   3.961   5.281   3.179  0.6935 -0.1062  0.3665
 9026TIP3    H251274   4.011   5.174   3.273 -0.7266 -0.3044  0.9263
 9027TIP3   OH251275   0.615   4.020   4.458 -0.0951 -0.1731  0.1059
 9027TIP3    H151276   0.659   3.936   4.466 -3.0471 -1.6872  2.5683
 9027TIP3    H251277   0.542   4.005   4.398  0.1331  1.0578 -0.5295
 9028TIP3   OH251278   1.455   5.472   4.022 -0.0485  0.0022 -0.5712
 9028TIP3    H151279   1.429   5.385   3.991  0.6183 -0.7378  0.8590
 9028TIP3    H251280   1.380   5.503   4.072 -0.4059  0.3924 -1.3404
 9029TIP3   OH251281   5.239   3.662   4.984 -0.7547  0.3644 -0.4367
 9029TIP3    H151282   5.309   3.708   5.030  0.0592  0.6580 -1.8861
 9029TIP3    H251283   5.244   3.572   5.016 -1.1154  0.8311  1.0167
 9030TIP3   OH251284   2.416   1.642   2.442 -0.1861  0.4296  0.2840
 9030TIP3    H151285   2.483   1.579   2.416 -1.8246 -0.5982 -1.8180
 9030TIP3    H251286   2.461   1.703   2.501  2.2894 -0.7933 -0.2199
 9031TIP3   OH251287   5.042   4.303   2.190 -0.2202 -0.4732  0.3500
 9031TIP3    H151288   5.125   4.278   2.149 -0.2095  0.7414 -0.4301
 9031TIP3    H251289   5.021   4.230   2.247  0.1675 -1.9201 -1.2519
 9032TIP3   OH251290   2.298   3.766   3.537  0.0180  0.2794 -0.1171
 9032TIP3    H151291   2.355   3.738   3.610 -0.3308  1.3790  0.6015
 9032TIP3    H251292   2.358   3.809   3.476  0.6153 -2.1433 -1.3781
 9033TIP3   OH251293   0.044   1.998   4.773 -0.0433  0.3270 -0.6641
 9033TIP3    H151294  -0.051   1.998   4.780 -0.0180  0.4935 -0.2834
 9033TIP3    H251295   0.064   2.073   4.717 -0.1967 -0.4228 -1.7547
 9034TIP3   OH251296   3.907   4.126   2.913  0.4804  0.0167 -0.4635
 9034TIP3    H151297   3.865   4.212   2.915 -2.4261 -1.2776  1.8697
 9034TIP3    H251298   3.993   4.141   2.952  0.0419  1.8729 -0.0954
 9035TIP3   OH251299   0.085   6.051   3.295 -0.2163 -0.0629 -0.1959
 9035TIP3    H151300   0.152   6.116   3.275  0.4540 -0.3625  0.9721
 9035TIP3    H251301   0.032   6.092   3.363  0.2986 -0.7693  0.6522
 9036TIP3   OH251302   5.216   3.872   3.342  0.6386 -0.3046  0.4294
 9036TIP3    H151303   5.182   3.838   3.259 -0.8954  1.9273  0.0471
 9036TIP3    H251304   5.157   3.836   3.409  0.5704 -0.4077  0.3137
 9037TIP3   OH251305   5.170   6.592   2.740  0.5356  0.1289 -0.3834
 9037TIP3    H151306   5.078   6.579   2.762  0.1634 -1.4614 -2.5089
 9037TIP3    H251307   5.180   6.687   2.732 -0.3775  0.4558  1.7823
 9038TIP3   OH251308   3.319   3.237   4.656 -0.2865 -0.3157 -0.4216
 9038TIP3    H151309   3.364   3.284   4.586 -1.7501  1.0423 -0.4784
 9038TIP3    H251310   3.290   3.155   4.615  1.6651 -1.0315 -0.4967
 9039TIP3   OH251311   2.562   6.505   2.272 -0.0564 -0.3435  0.2452
 9039TIP3    H151312   2.528   6.416   2.282 -2.7239  0.5994  0.4480
 9039TIP3    H251313   2.519   6.539   2.194  0.9577  0.7650  0.1337
 9040TIP3   OH251314   4.772   1.204   2.989 -0.0121  0.7113 -0.4011
 9040TIP3    H151315   4.770   1.290   3.031  1.3454  0.1614  0.8953
 9040TIP3    H251316   4.827   1.217   2.912 -0.1093  1.0985 -0.4070
 9041TIP3   OH251317   0.019   1.898   2.887  0.4481  0.3686  0.4539
 9041TIP3    H151318   0.010   1.809   2.918  0.5809  0.2028  0.0295
 9041TIP3    H251319  -0.065   1.917   2.844  0.3591  0.5078  0.6842
 9042TIP3   OH251320   4.188   0.787   4.337  0.2706  0.7353 -0.0165
 9042TIP3    H151321   4.267   0.737   4.318 -0.4994 -0.4991 -0.1083
 9042TIP3    H251322   4.158   0.752   4.421 -0.0058  1.4066  0.1637
 9043TIP3   OH251323   4.373   3.556   5.017  0.1333  0.2445  0.1732
 9043TIP3    H151324   4.331   3.499   4.952  0.7449 -1.1849  0.9955
 9043TIP3    H251325   4.317   3.549   5.094  1.0725 -0.5181  0.7977
 9044TIP3   OH251326   6.049   5.896   4.098 -0.8176  0.0885 -0.2557
 9044TIP3    H151327   5.989   5.971   4.098 -0.3726  0.4683  0.7910
 9044TIP3    H251328   6.015   5.839   4.167 -2.0860 -1.4865 -2.0839
 9045TIP3   OH251329   2.286   3.689   2.087 -0.2551  0.2219 -0.4599
 9045TIP3    H151330   2.253   3.601   2.104 -0.2808  0.0757 -1.2439
 9045TIP3    H251331   2.217   3.732   2.037  0.5319  0.0480 -1.7489
 9046TIP3   OH251332   0.050   1.580   2.746  0.2892  0.5626 -0.0709
 9046TIP3    H151333   0.051   1.655   2.686 -1.8555 -0.5010 -1.5561
 9046TIP3    H251334   0.096   1.511   2.698 -1.0595 -0.1658 -0.3498
 9047TIP3   OH251335   0.104   1.829   4.427 -0.0175  0.5752  0.0663
 9047TIP3    H151336   0.031   1.884   4.399  0.9759  0.2874 -3.6240
 9047TIP3    H251337   0.150   1.882   4.492 -0.6953  2.9544 -1.2538
 9048TIP3   OH251338   2.047   6.401   2.908 -1.2037  0.0300 -0.5505
 9048TIP3    H151339   2.053   6.464   2.980  1.4064 -1.4035  0.6688
 9048TIP3    H251340   2.048   6.454   2.829 -1.0653  1.5756  0.4483
 9049TIP3   OH251341   1.113   4.584   2.130  0.2503 -0.0369 -0.2565
 9049TIP3    H151342   1.151   4.499   2.149  0.1094  0.0944  0.6640
 9049TIP3    H251343   1.152   4.643   2.195  0.0377  0.5135 -0.6211
 9050TIP3   OH251344   3.014   2.469   2.877  0.0982 -0.6135 -0.1506
 9050TIP3    H151345   3.037   2.377   2.885  1.7804 -0.0728  2.6694
 9050TIP3    H251346   2.943   2.482   2.940  0.8802  0.2737  0.5795
 9051TIP3   OH251347   1.846   0.072   4.063  0.0944 -0.4962  0.5075
 9051TIP3    H151348   1.851  -0.015   4.103 -0.2318 -0.5225  0.4918
 9051TIP3    H251349   1.823   0.056   3.972 -1.6276 -0.3224  0.8838
 9052TIP3   OH251350   1.752   5.826   4.196 -0.4389  0.7173 -0.8126
 9052TIP3    H151351   1.754   5.752   4.136 -0.1817  0.4234 -0.4418
 9052TIP3    H251352   1.683   5.805   4.259  0.9839 -0.1796  0.5175
 9053TIP3   OH251353   6.216   5.414   4.400 -0.6565 -0.0336 -0.3737
 9053TIP3    H151354   6.225   5.431   4.306 -2.4331  1.4631 -0.3165
 9053TIP3    H251355   6.305   5.425   4.435  0.2072 -1.5147 -1.9636
 9054TIP3   OH251356   0.032   5.394   3.252  0.1817 -0.1152  0.0355
 9054TIP3    H151357   0.120   5.373   3.219  0.5357  1.5471 -0.2068
 9054TIP3    H251358  -0.026   5.333   3.207  1.2584 -1.5789  0.5787
 9055TIP3   OH251359   5.984   1.491   4.244  0.3922 -0.2439 -0.8581
 9055TIP3    H151360   5.920   1.473   4.176  0.9060 -0.8594 -1.1898
 9055TIP3    H251361   5.937   1.545   4.308 -0.1749  0.0966 -1.5539
 9056TIP3   OH251362   6.235   3.289   3.071  0.3215  0.1489 -0.6929
 9056TIP3    H151363   6.181   3.296   2.993  1.4407 -2.3925 -1.8082
 9056TIP3    H251364   6.185   3.232   3.130 -0.2818  1.6333  0.2898
 9057TIP3   OH251365   5.522   1.059   3.566 -0.2337 -0.4076 -0.2186
 9057TIP3    H151366   5.462   1.061   3.492 -0.8568  0.8488  0.2881
 9057TIP3    H251367   5.582   1.132   3.551  0.9881 -1.4545 -0.5558
 9058TIP3   OH251368   1.827   0.306   4.758  0.3779  0.3270  0.1695
 9058TIP3    H151369   1.917   0.332   4.738  0.6909 -1.6527 -1.2907
 9058TIP3    H251370   1.834   0.250   4.835  0.4264  0.0573 -0.0293
 9059TIP3   OH251371   2.400   6.820   5.358  0.4491  0.0596 -0.2141
 9059TIP3    H151372   2.405   6.726   5.339  0.0853  0.1311 -0.6985
 9059TIP3    H251373   2.319   6.848   5.316  0.5566  0.5944 -0.0733
 9060TIP3   OH251374   3.143   4.365   4.407  0.4311  0.5229  0.2576
 9060TIP3    H151375   3.073   4.383   4.470 -0.9519 -3.0945 -0.0193
 9060TIP3    H251376   3.222   4.359   4.460 -0.2765  0.1230  1.3009
 9061TIP3   OH251377   3.483   3.309   2.982 -0.2318 -0.8427  0.4010
 9061TIP3    H151378   3.482   3.364   2.905 -1.9706  0.4587  1.2828
 9061TIP3    H251379   3.575   3.306   3.009 -0.1925  3.0253  1.2209
 9062TIP3   OH251380   1.404   3.391   4.433  0.2940  0.3186 -0.1733
 9062TIP3    H151381   1.426   3.458   4.368  0.0375  0.0598 -0.5303
 9062TIP3    H251382   1.358   3.439   4.502  0.3957  0.5616 -0.2737
 9063TIP3   OH251383   3.257   2.583   4.385 -0.3043 -0.2485 -0.0539
 9063TIP3    H151384   3.291   2.550   4.468 -1.5711 -0.7560  0.2849
 9063TIP3    H251385   3.325   2.562   4.321 -0.0343 -1.3607  0.5758
 9064TIP3   OH251386   0.067   1.065   4.485  0.5271 -0.5287 -0.5701
 9064TIP3    H151387   0.121   1.035   4.412  0.1836 -0.3476 -0.9037
 9064TIP3    H251388   0.091   1.157   4.496 -0.3719 -0.1797 -1.3374
 9065TIP3   OH251389   6.623   5.034   2.420  0.5197 -0.0602  0.1221
 9065TIP3    H151390   6.706   4.995   2.447  0.8569  0.7976  0.3391
 9065TIP3    H251391   6.558   4.965   2.436  1.1580 -0.6721  0.1153
 9066TIP3   OH251392   4.327   4.836   4.659 -0.2958 -0.3042  0.2374
 9066TIP3    H151393   4.312   4.852   4.753  1.6142 -2.0419  0.9061
 9066TIP3    H251394   4.357   4.745   4.655  0.5938  0.0397 -1.9471
 9067TIP3   OH251395   0.006   1.129   3.448 -0.1504 -0.0155 -1.0151
 9067TIP3    H151396   0.018   1.179   3.529  0.6467 -0.7314 -0.6795
 9067TIP3    H251397   0.047   1.183   3.380  1.4718 -0.5683 -0.5206
 9068TIP3   OH251398   6.664   6.039   2.949 -0.6770  0.3933  0.2357
 9068TIP3    H151399   6.605   6.113   2.940 -0.3011  0.7691  0.8053
 9068TIP3    H251400   6.689   6.017   2.859 -1.1638  0.6475  0.0370
 9069TIP3   OH251401   5.428   0.605   2.365 -0.0576 -0.2285  0.1513
 9069TIP3    H151402   5.392   0.628   2.451 -0.0979  0.2945 -0.0021
 9069TIP3    H251403   5.513   0.566   2.384 -0.8810 -1.9352  0.5586
 9070TIP3   OH251404   3.125   6.720   5.444 -0.3978  0.5909  0.3405
 9070TIP3    H151405   3.030   6.725   5.438 -0.3743  0.7992  0.0766
 9070TIP3    H251406   3.144   6.626   5.451 -0.6046  0.5228  0.0245
 9071TIP3   OH251407   2.495   0.151   2.602  0.0793  0.0274 -0.4216
 9071TIP3    H151408   2.416   0.138   2.549  0.3784  0.1361 -0.9018
 9071TIP3    H251409   2.523   0.240   2.581 -0.7066  0.6873  1.1515
 9072TIP3   OH251410   6.732   1.012   2.470  0.2754  0.8358  0.1672
 9072TIP3    H151411   6.638   0.993   2.474  0.6937 -1.3993  2.0827
 9072TIP3    H251412   6.753   1.012   2.377 -1.4904  0.5987 -0.2649
 9073TIP3   OH251413   3.610   6.571   4.016  0.1452  0.3921  0.7214
 9073TIP3    H151414   3.647   6.532   3.937 -0.9105  0.5807  0.1047
 9073TIP3    H251415   3.612   6.501   4.081 -0.0467 -0.1316  0.1731
 9074TIP3   OH251416   4.806   3.223   3.985 -0.6201 -0.0912  0.3381
 9074TIP3    H151417   4.798   3.170   4.064 -0.2307 -0.4733  0.1284
 9074TIP3    H251418   4.893   3.264   3.992 -1.1912  1.0896  0.8374
 9075TIP3   OH251419   1.999   1.944   4.072  0.1824 -0.2591 -0.5111
 9075TIP3    H151420   2.039   1.857   4.067  0.1045 -0.3358  0.1322
 9075TIP3    H251421   1.973   1.964   3.981 -0.2042 -1.0949 -0.5902
 9076TIP3   OH251422   0.546   3.517   3.363  0.0804 -0.2306  0.6194
 9076TIP3    H151423   0.614   3.471   3.411  0.9939 -1.4337 -1.6776
 9076TIP3    H251424   0.586   3.600   3.338  0.0705 -0.1643  0.8255
 9077TIP3   OH251425   4.459   1.102   4.910  0.0981  0.3378  0.2209
 9077TIP3    H151426   4.392   1.160   4.946 -1.0838 -0.7806 -0.0980
 9077TIP3    H251427   4.531   1.106   4.974 -0.3471  1.3960  0.6824
 9078TIP3   OH251428   3.514   6.806   1.928  0.1438 -0.2900  0.0990
 9078TIP3    H151429   3.591   6.852   1.893  0.1002 -0.6763 -0.5381
 9078TIP3    H251430   3.537   6.786   2.018  1.7910 -2.4336 -0.6967
 9079TIP3   OH251431   1.108   6.670   2.589 -0.2957 -0.3785  0.2891
 9079TIP3    H151432   1.160   6.750   2.599  4.3732 -3.1536  1.1347
 9079TIP3    H251433   1.107   6.631   2.677 -2.6384 -1.2703 -0.0607
 9080TIP3   OH251434   5.113   6.312   3.296 -0.5632  0.2316  0.2606
 9080TIP3    H151435   5.125   6.388   3.352  1.8246  0.8454 -0.9703
 9080TIP3    H251436   5.022   6.318   3.266 -0.9667  1.5201  1.6676
 9081TIP3   OH251437   0.047   0.772   4.033 -0.5683  0.4506  0.2261
 9081TIP3    H151438   0.047   0.690   3.982  0.3433  0.8603 -0.4668
 9081TIP3    H251439   0.062   0.744   4.123 -0.7571 -0.1844  0.0657
 9082TIP3   OH251440   6.229   0.652   2.302 -0.4290 -0.4373 -0.2395
 9082TIP3    H151441   6.314   0.617   2.329  0.2461  2.2737  1.5996
 9082TIP3    H251442   6.221   0.627   2.210  2.2569 -1.0050 -0.4027
 9083TIP3   OH251443   3.400   5.841   3.054 -0.0361  0.3906 -0.1707
 9083TIP3    H151444   3.372   5.781   3.124  1.3197  0.5618  0.5353
 9083TIP3    H251445   3.428   5.783   2.983  2.9755  0.0595  1.1636
 9084TIP3   OH251446   1.833   0.260   2.920  0.0667 -0.0842 -0.6089
 9084TIP3    H151447   1.788   0.177   2.936 -1.0702  0.7228  0.6413
 9084TIP3    H251448   1.846   0.263   2.826 -0.5732 -1.3193 -0.7571
 9085TIP3   OH251449   3.898   4.016   3.309  0.1350 -0.6712 -0.4513
 9085TIP3    H151450   3.992   4.022   3.323  0.0252 -1.4622  0.7761
 9085TIP3    H251451   3.864   3.972   3.387 -1.2353 -0.5474 -0.9362
 9086TIP3   OH251452   6.077   4.886   2.450 -0.3406  0.0466  0.8413
 9086TIP3    H151453   6.152   4.910   2.504  0.6131  0.3103 -0.5633
 9086TIP3    H251454   6.097   4.797   2.420 -0.4681  0.2228  0.2362
 9087TIP3   OH251455   0.930   5.637   2.168  0.1854  0.2586 -0.3627
 9087TIP3    H151456   0.926   5.698   2.241  0.5160  1.1159 -1.0506
 9087TIP3    H251457   0.923   5.691   2.090  0.9476 -0.5227 -1.0029
 9088TIP3   OH251458   4.368   6.105   4.856  0.3393  0.2630  0.1146
 9088TIP3    H151459   4.401   6.195   4.859  0.6197  0.1735 -0.2200
 9088TIP3    H251460   4.429   6.056   4.911  0.4118  0.2098 -0.0120
 9089TIP3   OH251461   2.441   1.023   4.454 -0.3145 -0.1931 -0.2425
 9089TIP3    H151462   2.374   1.075   4.499 -0.7700  0.6716 -1.8646
 9089TIP3    H251463   2.483   0.973   4.524 -0.9137  1.1908  1.1531
 9090TIP3   OH251464   5.765   0.114   4.792  0.8310 -0.1907  0.2101
 9090TIP3    H151465   5.705   0.043   4.815  2.2913 -1.4333  0.3263
 9090TIP3    H251466   5.721   0.159   4.719  0.7059 -2.4223 -1.1992
 9091TIP3   OH251467   5.237   6.750   3.664  0.5346 -0.1869  0.3819
 9091TIP3    H151468   5.206   6.664   3.693 -3.5260  1.3144  1.1793
 9091TIP3    H251469   5.212   6.754   3.571  1.3603 -0.0684  0.1528
 9092TIP3   OH251470   3.958   4.142   4.849 -0.3102 -0.0762  0.1282
 9092TIP3    H151471   4.026   4.203   4.823 -0.1098 -0.7644 -1.0124
 9092TIP3    H251472   3.893   4.196   4.894  0.7629  0.6533  0.8517
 9093TIP3   OH251473   4.003   5.177   4.411 -0.7680 -0.6588 -0.2072
 9093TIP3    H151474   3.921   5.164   4.363 -0.7433  1.1784 -0.8349
 9093TIP3    H251475   4.061   5.108   4.380 -1.1951 -0.3090 -1.8563
 9094TIP3   OH251476   1.086   5.432   3.378  0.2268  0.0929 -0.0233
 9094TIP3    H151477   1.130   5.435   3.463  0.5002 -2.9340  0.0562
 9094TIP3    H251478   1.157   5.432   3.314  0.4486 -2.9537  0.0470
 9095TIP3   OH251479   5.695   4.948   4.692 -0.1343 -0.2520  0.1830
 9095TIP3    H151480   5.767   4.942   4.630 -1.2829 -3.2857 -1.0616
 9095TIP3    H251481   5.736   4.938   4.778  1.0734 -0.0593 -0.3577
 9096TIP3   OH251482   5.243   6.112   2.841  0.7835 -0.0942 -0.6395
 9096TIP3    H151483   5.275   6.065   2.918 -0.1842 -1.3469 -0.9768
 9096TIP3    H251484   5.214   6.197   2.875  4.6700  1.3300 -0.3591
 9097TIP3   OH251485   5.975   0.082   3.314 -0.2946  0.8622  0.1352
 9097TIP3    H151486   5.909   0.022   3.279 -1.1478  0.6929  1.8950
 9097TIP3    H251487   6.050   0.072   3.256 -0.6799 -1.3663 -0.0642
 9098TIP3   OH251488   0.284   3.379   2.722 -0.0587 -0.4604 -0.5441
 9098TIP3    H151489   0.195   3.363   2.691 -0.8418 -0.2443  1.4147
 9098TIP3    H251490   0.302   3.470   2.700 -0.6176 -0.2938 -0.3340
 9099TIP3   OH251491   3.155   5.286   4.919 -0.3305 -0.6838  0.0575
 9099TIP3    H151492   3.126   5.369   4.956  1.0741 -1.3200  2.9446
 9099TIP3    H251493   3.077   5.231   4.920 -0.9493  0.1647 -0.5350
 9100TIP3   OH251494   4.892   4.316   2.932  0.1407 -0.4951  0.3012
 9100TIP3    H151495   4.869   4.337   2.841  0.1948  0.7379  0.5593
 9100TIP3    H251496   4.890   4.220   2.935 -0.5395 -0.5428 -0.8262
 9101TIP3   OH251497   2.104   0.941   3.510  0.1229 -0.6051  0.4790
 9101TIP3    H151498   2.136   0.854   3.484  0.5873 -0.2299 -0.2547
 9101TIP3    H251499   2.053   0.971   3.435 -0.6929 -0.5664  1.0473
 9102TIP3   OH251500   2.830   1.322   2.842 -0.5222  0.5131 -0.0217
 9102TIP3    H151501   2.823   1.410   2.878  0.3856 -0.1379  1.9109
 9102TIP3    H251502   2.750   1.278   2.871 -0.4043  0.3571  0.0670
 9103TIP3   OH251503   1.177   0.250   4.101 -0.0404  0.0863  0.1756
 9103TIP3    H151504   1.165   0.220   4.191  2.5174  1.1781  0.9703
 9103TIP3    H251505   1.144   0.340   4.101  1.1225  0.5198  0.3730
 9104TIP3   OH251506   0.180   4.713   4.796  0.2420  0.1656 -0.1003
 9104TIP3    H151507   0.104   4.711   4.854  0.6164 -0.5152  0.3821
 9104TIP3    H251508   0.170   4.635   4.742  0.7744 -0.1148  0.2019
 9105TIP3   OH251509   0.835   2.102   4.742  0.1766 -0.1973  0.0542
 9105TIP3    H151510   0.848   2.195   4.763 -0.4183  0.3359 -1.7102
 9105TIP3    H251511   0.913   2.058   4.776  0.7645  1.0433  0.3725
 9106TIP3   OH251512   2.797   0.924   2.631 -0.2905  0.6528 -0.3446
 9106TIP3    H151513   2.723   0.954   2.684  0.7227  0.3640  1.3056
 9106TIP3    H251514   2.794   0.829   2.637  0.8937  0.6568  0.7691
 9107TIP3   OH251515   0.590   2.442   2.354  0.1262 -0.0754 -0.0232
 9107TIP3    H151516   0.557   2.357   2.324 -1.1366  0.6069 -0.6278
 9107TIP3    H251517   0.561   2.447   2.446  2.3342 -1.3269  0.8142
 9108TIP3   OH251518   2.252   4.847   4.068  0.0250 -0.1592 -0.2247
 9108TIP3    H151519   2.275   4.762   4.031 -0.3420  0.5374 -2.1603
 9108TIP3    H251520   2.172   4.830   4.119  0.2526 -1.0618 -0.1593
 9109TIP3   OH251521   0.082   0.625   4.274 -0.5406  0.3077 -0.6370
 9109TIP3    H151522   0.066   0.674   4.356  0.7291  2.0059 -1.3420
 9109TIP3    H251523   0.070   0.533   4.299 -0.1235  0.7563  1.4889
 9110TIP3   OH251524   2.250   0.388   2.785  0.2796 -0.0783 -0.0637
 9110TIP3    H151525   2.219   0.476   2.805  1.1156  0.3246 -0.4960
 9110TIP3    H251526   2.210   0.333   2.852 -1.7682  0.3126 -0.8720
 9111TIP3   OH251527   6.418   6.195   4.301 -0.3047 -0.1205  0.1544
 9111TIP3    H151528   6.366   6.272   4.276 -0.9063 -0.5263  0.1255
 9111TIP3    H251529   6.434   6.149   4.219  0.5874  0.2902  0.0885
 9112TIP3   OH251530   5.596   2.817   4.170 -0.4612 -0.1325  0.3161
 9112TIP3    H151531   5.645   2.890   4.207  0.0631 -0.4671  0.3066
 9112TIP3    H251532   5.520   2.857   4.128 -1.1523  0.2330  1.8815
 9113TIP3   OH251533   6.645   3.478   2.676 -0.2135  0.5611  0.4806
 9113TIP3    H151534   6.698   3.398   2.673 -2.9621 -1.3805  0.3903
 9113TIP3    H251535   6.610   3.486   2.588 -2.6317 -0.1313  1.3111
 9114TIP3   OH251536   3.222   1.279   2.807 -0.5313 -0.3233  0.0144
 9114TIP3    H151537   3.254   1.245   2.724  0.4943 -0.1239  0.3123
 9114TIP3    H251538   3.162   1.350   2.783 -0.0525 -0.1042 -0.5507
 9115TIP3   OH251539   2.798   2.942   2.834  0.5644 -0.3101 -0.2641
 9115TIP3    H151540   2.871   2.880   2.830  0.8266 -0.0804  0.7100
 9115TIP3    H251541   2.828   3.010   2.894 -0.4504 -0.2210  0.1649
 9116TIP3   OH251542   4.380   4.749   2.428 -0.2495 -0.2421 -0.3270
 9116TIP3    H151543   4.465   4.717   2.395 -2.0272 -2.1478 -3.5568
 9116TIP3    H251544   4.363   4.695   2.505  0.7006 -1.0967 -0.6766
 9117TIP3   OH251545   1.797   5.697   2.838 -0.5865  0.1498 -0.2510
 9117TIP3    H151546   1.846   5.685   2.756 -0.4508  1.3438 -0.3591
 9117TIP3    H251547   1.810   5.615   2.885  0.8488  0.1200 -0.6405
 9118TIP3   OH251548   3.494   0.006   3.391 -0.0532  0.0536  0.0483
 9118TIP3    H151549   3.454  -0.073   3.355  0.7424 -0.1637 -0.3799
 9118TIP3    H251550   3.470   0.075   3.329  2.1273 -0.4898 -1.5224
 9119TIP3   OH251551   1.136   3.665   3.032  0.2487 -0.0523  0.0224
 9119TIP3    H151552   1.067   3.608   2.997 -0.3787  1.2342 -0.9410
 9119TIP3    H251553   1.088   3.735   3.078  1.0263 -1.3946  3.1618
 9120TIP3   OH251554   1.159   2.983   3.044  0.0208 -0.1944  0.5274
 9120TIP3    H151555   1.067   2.978   3.021  0.5747  0.0985 -2.0604
 9120TIP3    H251556   1.175   3.076   3.060  0.6048  0.4869 -3.0795
 9121TIP3   OH251557   5.849   2.461   3.287  0.0102  0.4112  0.0612
 9121TIP3    H151558   5.829   2.425   3.373 -0.5732  1.0964  0.2208
 9121TIP3    H251559   5.900   2.393   3.243 -1.5066 -0.8327  0.1481
 9122TIP3   OH251560   4.588   2.702   3.640 -0.2200 -0.1577  0.2988
 9122TIP3    H151561   4.576   2.632   3.704 -1.3280  0.0222  0.3087
 9122TIP3    H251562   4.625   2.659   3.563  1.7533 -0.2765  1.2472
 9123TIP3   OH251563   1.142   0.115   2.938  0.1326  0.6262 -0.1734
 9123TIP3    H151564   1.136   0.146   3.028 -1.1358  0.0724 -0.0378
 9123TIP3    H251565   1.108   0.187   2.886  0.2416  0.6923 -0.1542
 9124TIP3   OH251566   0.296   5.621   4.027 -0.9425 -0.2310 -0.1241
 9124TIP3    H151567   0.270   5.639   4.117  0.4952  0.4862  0.1636
 9124TIP3    H251568   0.216   5.637   3.976 -1.0775  2.1085  0.6992
 9125TIP3   OH251569   1.117   1.269   4.230  0.8797 -0.0264 -0.0032
 9125TIP3    H151570   1.135   1.212   4.304 -2.0957  2.4860  2.9469
 9125TIP3    H251571   1.083   1.210   4.162  0.2015 -2.0371  1.9797
 9126TIP3   OH251572   5.483   0.166   1.995 -0.1923  0.1259 -0.1436
 9126TIP3    H151573   5.468   0.135   1.905 -0.6717 -0.5231  0.1557
 9126TIP3    H251574   5.548   0.105   2.031  0.9090  1.0922 -0.4239
 9127TIP3   OH251575   1.486   0.841   5.083  0.4367 -0.1457 -0.1359
 9127TIP3    H151576   1.484   0.825   4.988 -0.4327 -2.1440  0.1604
 9127TIP3    H251577   1.503   0.754   5.121  0.7867  0.6257  1.5425
 9128TIP3   OH251578   4.402   0.973   2.670 -0.5744 -0.5332 -0.1919
 9128TIP3    H151579   4.389   0.910   2.741  0.8578 -0.9977 -0.2905
 9128TIP3    H251580   4.496   0.968   2.651 -0.8829 -0.3015 -1.9996
 9129TIP3   OH251581   1.233   2.589   2.844  0.5152 -0.0059  0.1720
 9129TIP3    H151582   1.154   2.613   2.795  0.6653 -0.4622 -0.2976
 9129TIP3    H251583   1.305   2.611   2.784  0.7494  0.4378  0.6113
 9130TIP3   OH251584   4.804   4.031   2.954  0.8478 -0.1036  0.0427
 9130TIP3    H151585   4.859   4.050   3.029  3.3647 -2.5725 -1.0271
 9130TIP3    H251586   4.724   3.993   2.991  1.3286  0.2505  1.4784
 9131TIP3   OH251587   3.250   3.322   5.276  0.1969 -0.3526 -0.1955
 9131TIP3    H151588   3.320   3.345   5.215 -1.2483  0.4731 -1.6038
 9131TIP3    H251589   3.203   3.250   5.233 -0.1400 -0.5526  0.4931
 9132TIP3   OH251590   5.639   2.253   3.067 -0.6459  0.6386 -0.0614
 9132TIP3    H151591   5.656   2.328   3.010  0.1242 -0.0051 -0.7109
 9132TIP3    H251592   5.700   2.185   3.036 -1.3994 -0.2902  0.4364
 9133TIP3   OH251593   1.671   3.561   2.419 -0.1788  0.1942 -0.5161
 9133TIP3    H151594   1.608   3.558   2.347  0.0709 -0.5921 -0.7173
 9133TIP3    H251595   1.620   3.590   2.495 -0.7683 -0.3269 -0.7010
 9134TIP3   OH251596   6.740   4.576   2.478 -0.2480  0.3124  0.0896
 9134TIP3    H151597   6.813   4.531   2.522 -0.5813 -0.9842 -0.6237
 9134TIP3    H251598   6.676   4.592   2.548 -0.9079 -1.9936  0.1194
 9135TIP3   OH251599   5.144   3.345   4.793  0.1485 -0.1425  0.3799
 9135TIP3    H151600   5.079   3.410   4.820  0.6830  0.3785  0.4297
 9135TIP3    H251601   5.161   3.365   4.701  0.4225 -0.1163  0.4349
 9136TIP3   OH251602   5.796   3.970   4.273  0.0720 -0.0094  0.0456
 9136TIP3    H151603   5.850   4.039   4.234  0.9964 -1.0626 -0.5664
 9136TIP3    H251604   5.813   3.976   4.367  0.6286  0.1885 -0.0667
 9137TIP3   OH251605   1.563   0.382   2.670  0.3713 -0.2955  0.5647
 9137TIP3    H151606   1.533   0.371   2.580 -0.6111 -0.7895  0.9332
 9137TIP3    H251607   1.658   0.388   2.664  0.2423  0.8856 -0.6153
 9138TIP3   OH251608   5.865   0.668   3.853  1.5159  0.4505  0.4578
 9138TIP3    H151609   5.811   0.658   3.774 -1.6837  2.1973  2.2073
 9138TIP3    H251610   5.920   0.744   3.836  0.7873  0.8674 -0.0822
 9139TIP3   OH251611   6.755   3.332   2.928  0.0487  0.4336  0.5585
 9139TIP3    H151612   6.696   3.406   2.914 -0.8241 -0.3035  0.2015
 9139TIP3    H251613   6.740   3.275   2.853  1.4242  0.3483  0.3351
 9140TIP3   OH251614   0.247   5.627   3.211 -0.4936  0.0628  0.5669
 9140TIP3    H151615   0.281   5.591   3.294  0.8431 -0.6511 -0.2535
 9140TIP3    H251616   0.198   5.555   3.172  0.5873 -0.2835 -0.1896
 9141TIP3   OH251617   4.847   2.540   3.608 -0.4941  0.7317  0.2621
 9141TIP3    H151618   4.928   2.505   3.569 -0.8467  0.7005 -0.4524
 9141TIP3    H251619   4.787   2.550   3.535 -0.6496  2.1711  0.5587
 9142TIP3   OH251620   3.628   5.742   5.528 -0.1686  0.1834 -0.1328
 9142TIP3    H151621   3.577   5.662   5.538 -0.2687  0.2235 -0.3169
 9142TIP3    H251622   3.719   5.713   5.534 -0.2155  0.2082  0.8959
 9143TIP3   OH251623   6.212   0.476   5.704  0.0699 -0.0642  0.2601
 9143TIP3    H151624   6.193   0.558   5.749  1.6135 -0.3186  1.4827
 9143TIP3    H251625   6.190   0.492   5.613  1.5554  2.1772  0.2228
 9144TIP3   OH251626   6.524   6.200   3.708  0.2659  0.0442  0.7479
 9144TIP3    H151627   6.570   6.117   3.696 -0.9050 -0.3665 -1.2954
 9144TIP3    H251628   6.441   6.189   3.662  0.1232  2.4071  0.2916
 9145TIP3   OH251629   0.511   5.793   3.484  0.1835  0.3309 -0.0669
 9145TIP3    H151630   0.600   5.798   3.448  0.5744 -1.6860  0.4874
 9145TIP3    H251631   0.458   5.845   3.424  1.6802  1.3076 -0.5981
 9146TIP3   OH251632   1.053   1.285   2.003  0.1299  0.2756  0.2058
 9146TIP3    H151633   1.145   1.292   2.030  0.0765  0.5257  0.3243
 9146TIP3    H251634   1.003   1.299   2.084 -0.0144  0.2594  0.1192
 9147TIP3   OH251635   5.898   4.508   4.294  0.0083 -0.4152  0.9090
 9147TIP3    H151636   5.838   4.578   4.268  1.7485  0.6193 -0.5766
 9147TIP3    H251637   5.874   4.434   4.239 -0.4678 -0.3209  0.9786
 9148TIP3   OH251638   2.632   6.203   4.237  0.8393 -0.5393  0.5985
 9148TIP3    H151639   2.642   6.196   4.142  0.7635 -0.5339  0.5901
 9148TIP3    H251640   2.716   6.175   4.272  1.0675  0.0211  0.5089
 9149TIP3   OH251641   4.706   5.711   5.043  0.1799  0.1216 -0.1729
 9149TIP3    H151642   4.673   5.673   4.962 -0.1927 -1.2272  0.5902
 9149TIP3    H251643   4.786   5.662   5.062 -0.1641 -0.1262  0.6841
 9150TIP3   OH251644   5.250   1.780   3.577 -0.5690  0.6754  0.2880
 9150TIP3    H151645   5.254   1.743   3.665 -1.3072 -0.3159 -0.0790
 9150TIP3    H251646   5.222   1.708   3.521  1.1480  0.9275 -0.9878
 9151TIP3   OH251647   3.252   0.006   2.381 -0.2248  0.0746 -0.1555
 9151TIP3    H151648   3.264   0.094   2.347  1.2040 -0.2203 -0.4742
 9151TIP3    H251649   3.164  -0.019   2.353  0.7322 -0.0403 -3.3940
 9152TIP3   OH251650   1.664   1.715   3.451  0.4281  0.4100 -0.0676
 9152TIP3    H151651   1.649   1.802   3.489  0.6995  0.1149  0.7453
 9152TIP3    H251652   1.648   1.726   3.357 -1.4230  0.9016  0.2674
 9153TIP3   OH251653   3.699   4.827   4.302 -0.1989 -0.5453  0.3258
 9153TIP3    H151654   3.662   4.890   4.363 -0.3197  0.5925 -0.8783
 9153TIP3    H251655   3.671   4.741   4.335 -0.7970  0.0768  1.4700
 9154TIP3   OH251656   5.406   3.854   4.007 -0.6726  0.1039 -0.2251
 9154TIP3    H151657   5.428   3.762   4.015 -0.3301  0.2151  0.1399
 9154TIP3    H251658   5.345   3.871   4.078 -0.7364  0.1564 -0.2917
 9155TIP3   OH251659   1.580   0.154   4.960 -0.0889 -0.3696  0.1548
 9155TIP3    H151660   1.555   0.093   5.029 -2.8050 -1.0275 -1.2480
 9155TIP3    H251661   1.625   0.100   4.895  0.8567 -0.0924  0.5534
 9156TIP3   OH251662   1.254   1.840   2.228  0.2011  0.8269 -0.3545
 9156TIP3    H151663   1.243   1.931   2.202  1.6554  1.7344  1.9224
 9156TIP3    H251664   1.334   1.812   2.183 -1.3448 -0.1066 -2.7447
 9157TIP3   OH251665   2.357   4.814   3.250 -0.1803 -0.1119 -0.2430
 9157TIP3    H151666   2.390   4.888   3.301 -1.3509 -0.6365  1.3411
 9157TIP3    H251667   2.388   4.737   3.297  0.0100 -0.6479 -1.2102
 9158TIP3   OH251668   4.656   6.228   5.887 -0.2735 -0.4674  0.0985
 9158TIP3    H151669   4.582   6.209   5.829 -0.9721  2.9832 -0.3683
 9158TIP3    H251670   4.619   6.281   5.957  1.5824  0.7332  0.2508
 9159TIP3   OH251671   4.885   0.556   4.876  0.2226 -0.0602  0.3622
 9159TIP3    H151672   4.796   0.526   4.891  1.0094 -2.9913 -0.1429
 9159TIP3    H251673   4.926   0.554   4.962  0.2947 -0.5707  0.3182
 9160TIP3   OH251674   5.747   0.779   4.519 -0.0581 -0.1892  0.0855
 9160TIP3    H151675   5.693   0.777   4.440  0.8915 -2.0291 -0.5850
 9160TIP3    H251676   5.773   0.688   4.533  0.3287  0.1942  2.1708
 9161TIP3   OH251677   5.315   2.211   3.363 -0.2789  0.1045  0.0054
 9161TIP3    H151678   5.319   2.171   3.449 -3.7514  1.1026  0.8188
 9161TIP3    H251679   5.362   2.293   3.371 -0.6769  0.2387  0.9894
 9162TIP3   OH251680   1.152   0.195   2.005  0.1935 -0.4075 -0.4212
 9162TIP3    H151681   1.210   0.223   1.934 -1.0165  1.0843 -0.8744
 9162TIP3    H251682   1.208   0.195   2.083  0.9974  0.2219 -0.9831
 9163TIP3   OH251683   3.759   1.359   2.878  0.9118 -0.6269  0.0592
 9163TIP3    H151684   3.798   1.421   2.940  1.4481 -1.6377  0.7641
 9163TIP3    H251685   3.670   1.346   2.910  0.9000 -0.4787  0.0904
 9164TIP3   OH251686   5.274   5.621   2.258  0.0307 -0.0613  0.3308
 9164TIP3    H151687   5.180   5.640   2.254 -0.2731 -1.5522 -1.2190
 9164TIP3    H251688   5.298   5.605   2.167  1.5443 -0.8280  0.8360
 9165TIP3   OH251689   6.540   5.869   5.263 -0.2200  0.6374  0.3616
 9165TIP3    H151690   6.577   5.849   5.349  3.0587 -2.7082 -1.5272
 9165TIP3    H251691   6.485   5.793   5.242  0.6043  0.4390 -1.2224
 9166TIP3   OH251692   3.207   2.097   3.906 -0.1329  0.0064 -0.5200
 9166TIP3    H151693   3.266   2.069   3.977  0.3300  1.3304 -0.3583
 9166TIP3    H251694   3.257   2.161   3.856 -0.0058 -1.7874 -2.8290
 9167TIP3   OH251695   3.131   1.050   2.142 -0.1760  0.0852  0.6601
 9167TIP3    H151696   3.179   1.008   2.213 -0.1367  0.9747  1.1755
 9167TIP3    H251697   3.099   1.132   2.180 -1.2255 -0.0171  0.0221
 9168TIP3   OH251698   0.903   5.207   5.569 -0.0754 -0.3677  1.0782
 9168TIP3    H151699   0.854   5.182   5.647 -0.7481  0.1544  0.8345
 9168TIP3    H251700   0.884   5.138   5.505  1.5622 -1.5416  1.7711
 9169TIP3   OH251701   2.633   5.030   2.014  0.2475  0.0486  0.6543
 9169TIP3    H151702   2.549   5.024   1.969  0.1250 -0.2871  0.9149
 9169TIP3    H251703   2.612   5.008   2.105  0.9287 -2.0899  0.3582
 9170TIP3   OH251704   6.146   2.731   5.578 -0.0972  0.1199 -0.2095
 9170TIP3    H151705   6.222   2.678   5.600 -0.3734 -0.2985 -0.2444
 9170TIP3    H251706   6.071   2.673   5.595 -0.3146 -0.8026 -3.6821
 9171TIP3   OH251707   5.603   3.631   4.048  0.0586  0.7069  0.1104
 9171TIP3    H151708   5.578   3.697   4.113  0.8897  1.3613 -0.2186
 9171TIP3    H251709   5.690   3.602   4.075 -0.2621 -0.2170  0.2044
 9172TIP3   OH251710   5.878   3.710   4.106  0.2812 -0.2491 -0.2165
 9172TIP3    H151711   5.930   3.759   4.042  1.9440 -0.3587  0.9907
 9172TIP3    H251712   5.873   3.768   4.182  0.0203 -0.9075  0.2738
 9173TIP3   OH251713   6.620   3.195   2.414 -0.4399 -0.1290  0.0382
 9173TIP3    H151714   6.696   3.232   2.369  0.0901  0.4284  1.3198
 9173TIP3    H251715   6.584   3.269   2.464 -1.4339 -0.5484 -0.0495
 9174TIP3   OH251716   0.706   6.806   4.298  0.4233 -0.4730  0.1740
 9174TIP3    H151717   0.723   6.898   4.279  1.0165 -0.5770  0.1766
 9174TIP3    H251718   0.755   6.758   4.231 -0.1602 -0.7833 -0.0400
 9175TIP3   OH251719   6.163   1.028   3.333  0.2059 -0.4464 -0.2242
 9175TIP3    H151720   6.077   1.010   3.371 -0.0025 -0.7909 -0.8387
 9175TIP3    H251721   6.203   1.092   3.393  0.5147 -2.0751  1.3826
 9176TIP3   OH251722   6.464   3.890   3.623 -0.3185  0.2565 -0.1756
 9176TIP3    H151723   6.440   3.805   3.586  2.5757 -0.7288 -0.0705
 9176TIP3    H251724   6.407   3.953   3.579  0.0001 -1.3402 -3.1491
 9177TIP3   OH251725   5.038   3.515   4.243  0.0465 -0.1489  0.2838
 9177TIP3    H151726   5.057   3.422   4.256 -1.2576 -0.2548  1.6520
 9177TIP3    H251727   5.037   3.552   4.331  1.5261  1.3943 -0.2924
 9178TIP3   OH251728   2.695   0.468   2.154 -0.4093  0.1424 -0.9430
 9178TIP3    H151729   2.718   0.539   2.214  0.2880 -0.0066 -1.0203
 9178TIP3    H251730   2.610   0.438   2.183 -0.7541  1.0710 -0.9636
 9179TIP3   OH251731   3.244   3.898   3.084 -0.0795 -0.0687  0.0630
 9179TIP3    H151732   3.295   3.979   3.083 -1.6604  0.9532 -0.4710
 9179TIP3    H251733   3.304   3.832   3.049  1.3379  0.7726  0.7929
 9180TIP3   OH251734   2.997   1.081   4.307  0.4899  0.0438 -0.3492
 9180TIP3    H151735   2.990   0.998   4.261 -2.2361  0.3611 -0.6774
 9180TIP3    H251736   3.027   1.057   4.395 -2.0171 -1.6100  0.1655
 9181TIP3   OH251737   1.508   2.278   1.952 -0.2695  0.5835  0.2046
 9181TIP3    H151738   1.482   2.331   1.877  0.7633  1.2064  0.2736
 9181TIP3    H251739   1.602   2.292   1.960 -0.4733  1.0990  2.0571
 9182TIP3   OH251740   6.345   6.427   3.027 -0.0957 -0.8165  0.6596
 9182TIP3    H151741   6.262   6.452   3.069  0.1266  3.4865 -0.9669
 9182TIP3    H251742   6.320   6.402   2.938  0.2332 -0.8959  0.5880
 9183TIP3   OH251743   3.113   6.040   3.696 -0.2326 -0.1476 -0.4945
 9183TIP3    H151744   3.029   6.002   3.672 -0.2558 -0.7244  0.4324
 9183TIP3    H251745   3.139   5.993   3.776  0.7560  0.3243 -0.5157
 9184TIP3   OH251746   4.005   6.595   4.705  0.4194  0.5395 -0.2778
 9184TIP3    H151747   3.912   6.594   4.681  0.3067  0.5186  0.1614
 9184TIP3    H251748   4.031   6.502   4.704  0.8894  0.6352 -2.1149
 9185TIP3   OH251749   6.378   3.502   4.123 -0.1571  0.5049  0.4679
 9185TIP3    H151750   6.458   3.553   4.137  0.0464  0.2165  0.3660
 9185TIP3    H251751   6.312   3.545   4.178  0.0813  0.7111  0.5939
 9186TIP3   OH251752   4.673   0.745   4.821  0.0034  0.4129  0.4409
 9186TIP3    H151753   4.717   0.780   4.744  0.0922 -2.6433 -1.0743
 9186TIP3    H251754   4.741   0.743   4.888 -0.4966  4.7120  1.3620
 9187TIP3   OH251755   5.596   4.059   4.082 -0.1961 -0.3370 -0.0526
 9187TIP3    H151756   5.532   3.991   4.059  0.6513 -0.8946 -0.8400
 9187TIP3    H251757   5.652   4.018   4.149  0.0076 -0.2343 -0.1595
 9188TIP3   OH251758   4.627   6.133   3.083  0.0518  0.1768  0.6337
 9188TIP3    H151759   4.602   6.073   3.153  0.7054 -0.6147  0.2078
 9188TIP3    H251760   4.544   6.169   3.052 -0.3938 -0.7776  0.6671
 9189TIP3   OH251761   5.281   2.168   4.847  0.0436 -0.0265 -0.1474
 9189TIP3    H151762   5.198   2.120   4.855  0.1008 -0.0258  0.4381
 9189TIP3    H251763   5.345   2.100   4.828 -0.0426 -0.0615 -0.3162
 9190TIP3   OH251764   5.164   0.982   4.121  0.1931 -0.3448 -0.1726
 9190TIP3    H151765   5.165   0.903   4.067 -0.4509 -1.2374  1.0785
 9190TIP3    H251766   5.091   1.034   4.086  0.1083 -0.6682 -0.4860
 9191TIP3   OH251767   0.530   5.424   5.147 -0.6828  0.5057  0.1542
 9191TIP3    H151768   0.517   5.514   5.177  0.5593  0.4392  0.9596
 9191TIP3    H251769   0.510   5.369   5.222 -2.0723  0.0424 -0.5218
 9192TIP3   OH251770   5.789   4.332   2.705 -0.2134 -0.3426  0.4673
 9192TIP3    H151771   5.751   4.413   2.737 -2.1991 -1.4879  1.2018
 9192TIP3    H251772   5.793   4.342   2.610 -2.5036 -0.1828  0.3373
 9193TIP3   OH251773   6.540   2.262   5.442 -0.2176  0.1119 -0.2078
 9193TIP3    H151774   6.572   2.262   5.532  0.6364  4.2167 -0.3125
 9193TIP3    H251775   6.460   2.313   5.445  0.2473  1.0072 -1.8430
 9194TIP3   OH251776   3.836   6.472   3.815 -0.2588  0.4657 -0.7937
 9194TIP3    H151777   3.819   6.451   3.723 -0.9393  1.3468 -0.8799
 9194TIP3    H251778   3.874   6.559   3.813  0.4993  0.1510 -0.2918
 9195TIP3   OH251779   5.942   3.103   3.941  0.6532  0.5484 -0.0668
 9195TIP3    H151780   6.036   3.086   3.937  0.8270  1.2971  0.5228
 9195TIP3    H251781   5.930   3.147   4.025 -0.4222 -0.6875  0.4653
 9196TIP3   OH251782   6.352   5.539   5.027 -0.0626 -0.3028  0.4331
 9196TIP3    H151783   6.360   5.585   5.111  1.6420 -0.9740  0.6575
 9196TIP3    H251784   6.373   5.448   5.047  0.2454 -0.4940 -0.7113
 9197TIP3   OH251785   5.715   0.722   3.619  1.0073 -0.3883 -0.0229
 9197TIP3    H151786   5.632   0.689   3.653  1.5855 -0.6695  1.1689
 9197TIP3    H251787   5.699   0.737   3.526 -0.0660 -1.4186 -0.0194
 9198TIP3   OH251788   5.225   1.998   4.100  0.5716  0.3023 -0.1970
 9198TIP3    H151789   5.141   2.006   4.055  0.6199 -2.0223 -0.8355
 9198TIP3    H251790   5.215   2.052   4.179 -2.0645 -0.9847  0.4783
 9199TIP3   OH251791   3.952   2.132   2.945  0.4764 -0.7443 -0.4753
 9199TIP3    H151792   3.898   2.170   2.875  0.3464 -2.3874 -1.3215
 9199TIP3    H251793   4.035   2.111   2.901  1.9985  1.9605  0.8507
 9200TIP3   OH251794   6.414   3.964   4.603 -1.0567  0.2402  0.2944
 9200TIP3    H151795   6.392   3.984   4.693 -1.1616  0.1513  0.2880
 9200TIP3    H251796   6.458   4.043   4.570  0.6347 -0.3570  0.9790
 9201TIP3   OH251797   2.505   3.205   3.907 -0.2985 -0.5081  0.0803
 9201TIP3    H151798   2.423   3.159   3.924 -0.5294 -0.3332 -0.5287
 9201TIP3    H251799   2.529   3.245   3.990 -3.3234  3.5114 -0.7051
 9202TIP3   OH251800   3.834   2.668   4.072 -0.6163 -0.1067 -0.0896
 9202TIP3    H151801   3.849   2.751   4.026  0.5657 -0.6157 -0.6623
 9202TIP3    H251802   3.785   2.614   4.009 -1.9680  0.3570  0.5223
 9203TIP3   OH251803   5.609   3.123   2.711  0.1208  0.5046  0.6933
 9203TIP3    H151804   5.528   3.162   2.679 -0.4638 -0.4381  0.9687
 9203TIP3    H251805   5.668   3.127   2.637 -0.6559 -0.0898  0.0211
 9204TIP3   OH251806   0.632   6.809   3.318 -0.1899  0.3157 -0.1922
 9204TIP3    H151807   0.629   6.860   3.237 -0.3916 -2.2136 -1.8972
 9204TIP3    H251808   0.689   6.860   3.376  1.1527  1.5445 -2.4242
 9205TIP3   OH251809   3.985   6.137   2.728  0.1307 -0.4064  0.1894
 9205TIP3    H151810   3.892   6.140   2.749  0.2425  0.7312  0.5979
 9205TIP3    H251811   3.994   6.195   2.652  0.8359  1.3880  1.5812
 9206TIP3   OH251812   0.450   1.184   4.528 -0.0525  0.1073 -0.0222
 9206TIP3    H151813   0.480   1.264   4.571  2.2322 -0.7337  0.1264
 9206TIP3    H251814   0.449   1.118   4.598  2.2220 -0.9151 -0.8262
 9207TIP3   OH251815   2.036   1.550   4.613  0.1056  0.3635  0.0373
 9207TIP3    H151816   2.065   1.478   4.557  0.0268 -1.0696  1.7212
 9207TIP3    H251817   1.949   1.522   4.643  0.0096  1.2392  0.5922
 9208TIP3   OH251818   2.494   2.740   2.146 -0.1764 -0.3136 -0.2305
 9208TIP3    H151819   2.481   2.645   2.150  0.4611 -0.4549 -1.1659
 9208TIP3    H251820   2.585   2.752   2.175  1.4892 -0.5249 -4.5787
 9209TIP3   OH251821   1.057   3.936   5.143  0.1915 -0.2430 -0.5159
 9209TIP3    H151822   0.963   3.928   5.160  0.2383 -1.6912 -0.8211
 9209TIP3    H251823   1.073   3.880   5.067  1.1014  0.9780 -1.2654
 9210TIP3   OH251824   0.610   1.597   4.758  0.0192  0.0356  0.3450
 9210TIP3    H151825   0.622   1.517   4.809 -0.4976 -0.9449 -1.0164
 9210TIP3    H251826   0.694   1.610   4.714 -0.3107 -0.5506 -0.4908
 9211TIP3   OH251827   4.340   3.079   4.770 -0.5991 -0.3701 -0.6433
 9211TIP3    H151828   4.326   3.026   4.849 -0.9428 -0.3494 -0.6903
 9211TIP3    H251829   4.252   3.097   4.738 -0.4479 -1.2212 -1.5950
 9212TIP3   OH251830   1.568   6.412   4.930 -0.0519 -0.4371  0.1724
 9212TIP3    H151831   1.549   6.475   5.000 -0.9830 -1.4554  0.8537
 9212TIP3    H251832   1.508   6.339   4.945 -0.4114 -0.6148 -1.8032
 9213TIP3   OH251833   5.568   0.327   2.205 -0.2225 -0.0383  0.3880
 9213TIP3    H151834   5.538   0.285   2.125 -0.4742 -1.0852  1.0192
 9213TIP3    H251835   5.572   0.257   2.269 -0.0211  0.7865  1.3018
 9214TIP3   OH251836   1.455   6.743   2.350  0.0080 -0.5221 -0.8775
 9214TIP3    H151837   1.403   6.811   2.308 -1.5585 -0.8320  0.4622
 9214TIP3    H251838   1.470   6.678   2.280 -0.4369  0.1079 -1.5727
 9215TIP3   OH251839   3.944   4.682   2.208 -0.3172 -0.7061 -0.1366
 9215TIP3    H151840   3.975   4.592   2.216 -1.0976 -0.9112  0.7040
 9215TIP3    H251841   3.953   4.719   2.296 -0.6499 -0.1772 -0.3159
 9216TIP3   OH251842   0.343   1.744   3.619  0.3648 -0.1543  0.5484
 9216TIP3    H151843   0.348   1.750   3.714  1.0218  0.1052  0.5022
 9216TIP3    H251844   0.432   1.722   3.591  0.5054  1.1232 -0.0916
 9217TIP3   OH251845   1.918   4.915   3.723  0.6854 -0.6157 -0.3250
 9217TIP3    H151846   1.858   4.943   3.653 -0.5172  0.6730  1.1288
 9217TIP3    H251847   1.863   4.863   3.781  1.0171  0.3529  0.8979
 9218TIP3   OH251848   1.706   6.791   5.443  1.0737 -0.3029 -0.2439
 9218TIP3    H151849   1.796   6.765   5.428  0.8004 -1.0629 -0.5988
 9218TIP3    H251850   1.661   6.711   5.472  0.6758  0.2268  0.6704
 9219TIP3   OH251851   2.592   6.432   3.453 -0.5208  0.1113 -0.0391
 9219TIP3    H151852   2.563   6.522   3.438  0.2051  0.1768 -1.1076
 9219TIP3    H251853   2.560   6.411   3.541 -0.6206  1.4427  0.2591
 9220TIP3   OH251854   6.482   1.356   4.826 -0.2373  0.1028 -0.1161
 9220TIP3    H151855   6.491   1.417   4.752  1.8100  1.6600  1.2925
 9220TIP3    H251856   6.514   1.273   4.792 -1.7197  0.1244 -1.6731
 9221TIP3   OH251857   1.320   1.123   1.671 -0.2109 -0.0252  0.2389
 9221TIP3    H151858   1.237   1.145   1.712  0.0702  0.7776  0.3933
 9221TIP3    H251859   1.295   1.082   1.588 -0.7609 -0.2424  0.5062
 9222TIP3   OH251860   6.535   5.715   3.915 -0.7072 -0.2721 -0.0286
 9222TIP3    H151861   6.464   5.697   3.976 -1.1986  2.0417  0.1593
 9222TIP3    H251862   6.499   5.779   3.854  0.6343 -0.4701 -1.0782
 9223TIP3   OH251863   3.567   5.020   4.460 -0.0352  0.0740  0.1171
 9223TIP3    H151864   3.602   5.054   4.542  0.9324  1.4615 -0.8361
 9223TIP3    H251865   3.473   5.038   4.466 -0.0388 -0.1692  1.0538
 9224TIP3   OH251866   4.298   1.932   3.366 -0.3693 -0.2494 -0.2743
 9224TIP3    H151867   4.338   1.967   3.287  1.3131  0.8663  1.0092
 9224TIP3    H251868   4.207   1.962   3.363 -0.0202  0.7520 -1.2133
 9225TIP3   OH251869   3.307   0.100   1.846  0.1445 -0.2979  0.0482
 9225TIP3    H151870   3.359   0.020   1.836 -1.1123 -0.9371 -2.0354
 9225TIP3    H251871   3.322   0.127   1.937  1.0381 -2.5899  0.6588
 9226TIP3   OH251872   1.334   6.167   1.690 -0.1695  0.8699 -0.0371
 9226TIP3    H151873   1.259   6.175   1.748 -1.3156  0.1253 -1.3555
 9226TIP3    H251874   1.381   6.089   1.722 -0.5057  0.7610  0.1988
 9227TIP3   OH251875   5.757   2.147   2.125  0.2835  0.0389  0.5057
 9227TIP3    H151876   5.789   2.212   2.187  2.3863  0.6777 -1.1261
 9227TIP3    H251877   5.737   2.197   2.045 -1.8968 -0.8205  0.4345
 9228TIP3   OH251878   0.135   4.045   2.740 -0.1996  0.2384  0.1323
 9228TIP3    H151879   0.159   4.123   2.789  1.3176  0.4348 -0.8402
 9228TIP3    H251880   0.039   4.049   2.733 -0.0867  2.8715 -1.2117
 9229TIP3   OH251881   0.210   4.240   2.899 -0.3658 -0.0604 -0.1728
 9229TIP3    H151882   0.260   4.318   2.873 -1.4327  1.2895  1.5315
 9229TIP3    H251883   0.227   4.232   2.993 -1.2899 -1.1266 -0.0889
 9230TIP3   OH251884   3.214   4.355   3.532 -0.0207  0.0507  0.5923
 9230TIP3    H151885   3.200   4.281   3.474 -0.7334 -0.1155  0.9707
 9230TIP3    H251886   3.228   4.316   3.618  0.7332  0.3080  0.5935
 9231TIP3   OH251887   3.442   5.737   4.039  0.0620 -0.4703 -0.6046
 9231TIP3    H151888   3.499   5.689   4.098 -0.3922  0.8669  1.0203
 9231TIP3    H251889   3.372   5.676   4.018 -0.2269 -0.7241  0.9790
 9232TIP3   OH251890   5.358   4.747   3.994 -0.4920 -0.4282 -0.0282
 9232TIP3    H151891   5.453   4.738   3.991 -0.4328  0.0380  0.3185
 9232TIP3    H251892   5.333   4.717   4.082 -0.6214 -0.2077  0.0135
 9233TIP3   OH251893   5.447   0.780   5.705  0.3603  0.0119  0.8276
 9233TIP3    H151894   5.522   0.758   5.649 -0.8391  0.5789 -1.0978
 9233TIP3    H251895   5.421   0.697   5.744  1.2806 -0.3902  0.6088
 9234TIP3   OH251896   2.630   6.529   4.166  0.7791 -0.1055 -0.0413
 9234TIP3    H151897   2.629   6.575   4.082 -0.3486  0.6956  0.3898
 9234TIP3    H251898   2.710   6.476   4.163  1.0597  0.3482 -1.3738
 9235TIP3   OH251899   6.399   6.048   4.734  0.0993 -0.3140  0.4988
 9235TIP3    H151900   6.332   5.984   4.758  1.0304 -2.0943 -1.3023
 9235TIP3    H251901   6.457   6.052   4.810  0.1904 -1.8879  0.5389
 9236TIP3   OH251902   5.408   2.333   5.287  0.3017 -0.2004  0.4332
 9236TIP3    H151903   5.406   2.331   5.192  1.0892 -0.3106  0.4105
 9236TIP3    H251904   5.412   2.242   5.314 -0.8921 -0.2144  0.6127
 9237TIP3   OH251905   0.755   0.611   1.930  0.4194 -0.3829  0.0967
 9237TIP3    H151906   0.665   0.635   1.910  0.1113 -0.1529  1.6617
 9237TIP3    H251907   0.753   0.515   1.936  0.4928 -0.4474 -0.7922
 9238TIP3   OH251908   6.261   0.931   2.698 -0.1013 -0.1043 -0.7436
 9238TIP3    H151909   6.201   1.001   2.675 -0.9837 -0.7097 -0.3322
 9238TIP3    H251910   6.209   0.869   2.749  1.2245  0.0676  0.9177
 9239TIP3   OH251911   5.374   0.420   5.562  0.3753  0.2093 -0.0718
 9239TIP3    H151912   5.427   0.488   5.520  0.2450  0.2785 -0.1241
 9239TIP3    H251913   5.386   0.343   5.506  1.7513 -0.2679  0.8106
 9240TIP3   OH251914   2.491   6.034   3.447 -0.4077  0.9546 -0.4876
 9240TIP3    H151915   2.552   5.998   3.383 -1.7081 -0.1550 -1.1561
 9240TIP3    H251916   2.526   6.005   3.532  0.6193  1.3385 -0.7640
 9241TIP3   OH251917   6.140   5.957   5.208  0.0692 -0.2873 -0.0015
 9241TIP3    H151918   6.114   5.970   5.300  0.0902 -1.1124  0.1334
 9241TIP3    H251919   6.221   6.007   5.199 -0.8704  1.2768 -0.0771
 9242TIP3   OH251920   0.384   0.840   4.366 -0.4391  0.0906  0.3447
 9242TIP3    H151921   0.358   0.930   4.348 -2.3227 -0.1106  1.7619
 9242TIP3    H251922   0.354   0.790   4.290 -0.2573  0.5006 -0.0001
 9243TIP3   OH251923   4.183   4.073   3.817 -0.1791  0.0733  0.0029
 9243TIP3    H151924   4.236   4.013   3.763  0.0626  0.3520 -0.0728
 9243TIP3    H251925   4.213   4.160   3.791  1.1133  0.1956  1.7644
 9244TIP3   OH251926   5.100   2.047   3.568  0.3256  0.2005  0.6136
 9244TIP3    H151927   5.080   1.973   3.626 -1.6042  0.8080  0.7983
 9244TIP3    H251928   5.141   2.111   3.626 -0.2121  0.2056  1.0018
 9245TIP3   OH251929   3.532   4.835   4.730  0.2845  0.2077 -0.3090
 9245TIP3    H151930   3.601   4.791   4.780  1.3875  0.2722 -1.7068
 9245TIP3    H251931   3.577   4.906   4.685 -1.1380  1.6679  0.4856
 9246TIP3   OH251932   5.047   3.535   2.154 -0.2437  0.3313 -0.4646
 9246TIP3    H151933   5.050   3.440   2.150 -0.5800  0.2349  0.9775
 9246TIP3    H251934   4.954   3.557   2.149 -0.6353  0.2574  3.4053
 9247TIP3   OH251935   6.324   5.210   5.353 -0.5921 -0.0073 -0.6191
 9247TIP3    H151936   6.317   5.128   5.402  1.5718  0.3691  0.4369
 9247TIP3    H251937   6.248   5.261   5.382 -0.0014 -0.2420  1.5307
 9248TIP3   OH251938   1.748   2.390   2.016 -0.0562  0.3986 -0.6438
 9248TIP3    H151939   1.702   2.456   2.068  1.5213 -1.1031  3.0350
 9248TIP3    H251940   1.824   2.436   1.981 -0.5789  1.2311 -0.7021
 9249TIP3   OH251941   2.022   3.740   2.003 -0.1326 -0.0697 -0.0109
 9249TIP3    H151942   1.942   3.789   1.987  0.6524  1.0970 -0.4290
 9249TIP3    H251943   1.992   3.650   2.015 -1.5810  0.4658  0.6233
 9250TIP3   OH251944   2.408   3.943   4.889 -0.4093  0.2732  0.4306
 9250TIP3    H151945   2.399   4.014   4.952 -0.1586 -0.2211  1.0380
 9250TIP3    H251946   2.422   3.865   4.943  0.6770 -0.0299 -0.2558
 9251TIP3   OH251947   5.074   0.449   2.554 -0.0584 -0.5614  0.5112
 9251TIP3    H151948   5.016   0.415   2.486  0.2022 -0.2047  0.1019
 9251TIP3    H251949   5.014   0.477   2.624 -0.3450 -0.7052  0.3268
 9252TIP3   OH251950   2.440   2.977   4.710 -0.0485  0.2843 -0.3495
 9252TIP3    H151951   2.382   2.921   4.761 -0.1613 -1.4678 -2.2627
 9252TIP3    H251952   2.452   3.055   4.764  0.0822 -1.5332  2.4070
 9253TIP3   OH251953   0.164   0.216   4.047  0.2845 -0.1981 -0.2173
 9253TIP3    H151954   0.190   0.162   4.122 -1.5515 -0.6767  0.1263
 9253TIP3    H251955   0.069   0.216   4.049  0.0897 -1.3572 -3.3280
 9254TIP3   OH251956   6.154   1.774   5.073  0.2328  0.1962 -0.6682
 9254TIP3    H151957   6.191   1.793   5.159  1.4420 -0.9831 -0.8962
 9254TIP3    H251958   6.121   1.685   5.079  1.0757 -0.2037 -1.6388
 9255TIP3   OH251959   2.377   1.006   3.392  0.4567  0.0805 -0.0339
 9255TIP3    H151960   2.294   1.050   3.413 -1.0019 -2.7695  0.7406
 9255TIP3    H251961   2.419   0.993   3.477  0.2518 -1.0617 -0.0913
 9256TIP3   OH251962   3.346   3.379   4.105 -0.5988  0.3393  0.6355
 9256TIP3    H151963   3.377   3.397   4.193  1.7478  0.0681 -0.0788
 9256TIP3    H251964   3.348   3.284   4.097 -2.1209  0.2782  0.7064
 9257TIP3   OH251965   4.849   5.430   2.498  0.1112 -0.4914  0.2733
 9257TIP3    H151966   4.940   5.404   2.483  0.6333  1.1507  0.4061
 9257TIP3    H251967   4.801   5.394   2.423  1.2449  0.4610 -0.9551
 9258TIP3   OH251968   2.430   0.460   3.504 -1.3551  0.0583 -0.0268
 9258TIP3    H151969   2.470   0.533   3.552 -2.1966  1.2090 -0.9876
 9258TIP3    H251970   2.336   0.477   3.510 -1.5747 -1.0413 -0.1572
 9259TIP3   OH251971   2.630   0.101   3.287  0.1227  0.2436 -0.2220
 9259TIP3    H151972   2.653   0.190   3.263  1.7316  0.1554  0.8189
 9259TIP3    H251973   2.649   0.049   3.209 -0.1817  0.7194 -0.6120
 9260TIP3   OH251974   5.347   5.489   2.961 -0.0748  0.5770  0.0860
 9260TIP3    H151975   5.273   5.547   2.981 -0.1235  0.7820 -0.6671
 9260TIP3    H251976   5.373   5.513   2.872 -0.3164 -0.7930 -0.3725
 9261TIP3   OH251977   2.403   4.920   4.652 -0.3498  0.2145  0.0793
 9261TIP3    H151978   2.466   4.959   4.591  1.8380  1.2725  2.7564
 9261TIP3    H251979   2.425   4.827   4.654  0.2658  0.3558  0.0258
 9262TIP3   OH251980   4.670   2.605   3.403 -0.2147 -0.0996  0.0605
 9262TIP3    H151981   4.614   2.664   3.353 -0.3568 -1.0734 -0.9777
 9262TIP3    H251982   4.752   2.602   3.353 -0.4322 -1.2454 -0.2542
 9263TIP3   OH251983   1.350   0.270   2.776 -0.0893 -0.0427  0.0417
 9263TIP3    H151984   1.439   0.288   2.745 -1.0436  1.0969 -2.3895
 9263TIP3    H251985   1.335   0.334   2.845  0.8693 -0.0659  0.2851
 9264TIP3   OH251986   4.266   5.965   3.591 -0.6109  0.3712 -0.3481
 9264TIP3    H151987   4.172   5.975   3.607 -0.6849 -1.4759  0.6630
 9264TIP3    H251988   4.272   5.888   3.534  0.2549  0.9451 -1.0433
 9265TIP3   OH251989   4.000   1.822   2.121 -0.1324  0.4568 -0.4851
 9265TIP3    H151990   4.081   1.864   2.149  0.2352  1.6888 -3.0864
 9265TIP3    H251991   4.028   1.748   2.067 -0.7194  0.4092 -0.7403
 9266TIP3   OH251992   2.694   3.209   1.995 -0.0997 -0.2463  0.2955
 9266TIP3    H151993   2.655   3.233   2.079  0.4139 -0.5616  0.6304
 9266TIP3    H251994   2.638   3.249   1.930 -0.6982 -0.2776  0.7852
 9267TIP3   OH251995   5.191   0.544   4.394  0.2153 -0.1398  0.0095
 9267TIP3    H151996   5.132   0.586   4.457 -0.3246  0.3359 -0.8003
 9267TIP3    H251997   5.165   0.580   4.309  2.0653  0.5287 -0.3088
 9268TIP3   OH251998   6.210   4.676   2.312 -0.0357 -0.1646  0.1101
 9268TIP3    H151999   6.129   4.636   2.279 -0.4378 -1.0494  2.0461
 9268TIP3    H252000   6.280   4.635   2.261 -0.5163 -2.6067  1.2776
 9269TIP3   OH252001   1.699   4.016   3.419 -0.1334 -0.1621  0.6877
 9269TIP3    H152002   1.782   3.974   3.442 -0.2203 -2.4940 -2.5625
 9269TIP3    H252003   1.682   3.988   3.329 -3.2842  2.2034  0.3627
 9270TIP3   OH252004   1.094   0.484   4.389 -0.3573 -0.1763  0.2825
 9270TIP3    H152005   1.173   0.463   4.438 -0.1323 -0.6159 -0.2487
 9270TIP3    H252006   1.030   0.419   4.416  0.1434 -1.1962 -0.8905
 9271TIP3   OH252007   0.623   2.796   2.460 -0.7305 -0.2239  0.0491
 9271TIP3    H152008   0.630   2.701   2.454  0.8745 -0.2211  1.3633
 9271TIP3    H252009   0.601   2.814   2.551 -1.1221  0.6714 -0.2024
 9272TIP3   OH252010   3.712   0.555   2.028 -0.2679  0.0135  0.0547
 9272TIP3    H152011   3.632   0.548   1.977 -0.4021 -0.1434  0.2828
 9272TIP3    H252012   3.729   0.649   2.033 -0.1912  0.0239 -0.3692
 9273TIP3   OH252013   5.945   1.114   3.460 -0.1769  0.0020  0.1873
 9273TIP3    H152014   6.007   1.183   3.483 -0.6677  0.3089  0.5955
 9273TIP3    H252015   5.860   1.147   3.489 -0.7042  0.0451 -1.2975
 9274TIP3   OH252016   2.347   4.224   3.926  0.2560  0.5055  0.5816
 9274TIP3    H152017   2.324   4.314   3.949 -2.7795  0.9152 -3.0606
 9274TIP3    H252018   2.303   4.171   3.992 -0.5557  1.6390  0.9903
 9275TIP3   OH252019   6.728   2.992   3.222  0.0898 -0.0250 -0.1894
 9275TIP3    H152020   6.656   2.986   3.284 -2.2999  1.8843 -2.5389
 9275TIP3    H252021   6.788   2.922   3.247 -2.3392 -1.4189  2.1663
 9276TIP3   OH252022   3.155   5.992   2.180 -0.7517 -0.8175  0.6968
 9276TIP3    H152023   3.115   6.076   2.202  0.2213 -0.5269  1.4176
 9276TIP3    H252024   3.083   5.929   2.185 -1.6286  0.0432 -0.4787
 9277TIP3   OH252025   1.131   1.779   3.618 -0.3678  0.1642  0.0787
 9277TIP3    H152026   1.203   1.794   3.679  0.1180 -1.3468 -0.0942
 9277TIP3    H252027   1.090   1.865   3.608  0.1657  0.6409  1.7337
 9278TIP3   OH252028   0.477   5.159   4.164  0.2129  0.2322 -0.1366
 9278TIP3    H152029   0.420   5.165   4.088  0.0509 -1.7597 -0.2196
 9278TIP3    H252030   0.440   5.089   4.217  2.4223 -0.9888 -0.0719
 9279TIP3   OH252031   0.107   6.594   2.689  0.1913 -0.2822  0.1240
 9279TIP3    H152032   0.040   6.552   2.635  0.9406  0.4124 -1.3961
 9279TIP3    H252033   0.173   6.526   2.702  0.5897 -0.1069 -0.8952
 9280TIP3   OH252034   3.737   3.270   3.084  0.1937  0.0913  0.1844
 9280TIP3    H152035   3.758   3.335   3.151  2.3947 -0.6564  0.2878
 9280TIP3    H252036   3.800   3.286   3.014 -0.4701 -0.7188 -0.6299
 9281TIP3   OH252037   2.754   5.409   2.870  0.0751 -0.8301 -0.4312
 9281TIP3    H152038   2.844   5.435   2.847 -0.7230  0.5893 -2.2864
 9281TIP3    H252039   2.750   5.316   2.848  0.8026 -0.6536 -1.4335
 9282TIP3   OH252040   4.868   4.769   3.417  0.3883 -0.0719  0.5701
 9282TIP3    H152041   4.928   4.829   3.461  1.4388 -0.5318 -0.1917
 9282TIP3    H252042   4.893   4.683   3.449  0.7177 -0.3494 -0.3977
 9283TIP3   OH252043   2.668   4.887   4.942  0.0176 -0.0842 -0.0765
 9283TIP3    H152044   2.721   4.938   4.880  0.0807  1.0065  0.8385
 9283TIP3    H252045   2.723   4.812   4.965  0.6846  0.4099 -0.0460
 9284TIP3   OH252046   5.601   5.360   3.888 -0.0237 -0.3684  0.2163
 9284TIP3    H152047   5.680   5.358   3.835 -2.1110 -0.2441 -3.2318
 9284TIP3    H252048   5.579   5.453   3.896  0.7427 -0.3043  2.2715
 9285TIP3   OH252049   2.126   2.263   2.210 -0.4785 -0.6116 -0.7284
 9285TIP3    H152050   2.185   2.241   2.282 -1.3656  0.4118  0.3576
 9285TIP3    H252051   2.095   2.351   2.231 -0.2605 -0.0214 -2.7238
 9286TIP3   OH252052   2.565   1.823   2.590  0.1905  0.2602 -0.3080
 9286TIP3    H152053   2.504   1.892   2.619 -0.3102  0.1280 -1.0370
 9286TIP3    H252054   2.598   1.785   2.672  2.1941  2.8255  0.2137
 9287TIP3   OH252055   0.374   0.990   3.556 -0.4707  0.0880 -0.5889
 9287TIP3    H152056   0.312   0.940   3.609  0.2768  0.2527  0.4681
 9287TIP3    H252057   0.456   0.987   3.605  0.3766 -0.1153 -1.9490
 9288TIP3   OH252058   0.152   1.359   2.601  0.0863 -0.2250  0.2188
 9288TIP3    H152059   0.148   1.272   2.640 -0.2347  0.2948  1.4034
 9288TIP3    H252060   0.207   1.348   2.524  0.2447 -1.4265  0.4806
 9289TIP3   OH252061   2.174   2.946   3.543 -0.6171 -0.0684 -0.1652
 9289TIP3    H152062   2.214   2.974   3.461 -0.1126 -0.9716 -0.2402
 9289TIP3    H252063   2.246   2.949   3.607 -1.0214  0.7000  0.2673
 9290TIP3   OH252064   2.564   0.661   3.656  0.2975  0.1738 -0.0260
 9290TIP3    H152065   2.603   0.680   3.742  0.7233  0.2446 -0.2310
 9290TIP3    H252066   2.613   0.715   3.595 -0.3056  0.4594 -0.2604
 9291TIP3   OH252067   2.863   2.787   4.602  0.0881 -0.3600  0.3472
 9291TIP3    H152068   2.846   2.878   4.628 -1.4771 -0.6295  0.3796
 9291TIP3    H252069   2.845   2.786   4.508  2.1079 -0.2183 -0.0891
 9292TIP3   OH252070   3.983   5.692   3.745 -0.0419  0.3769  0.4735
 9292TIP3    H152071   3.976   5.729   3.657 -0.8236 -1.4917 -0.3022
 9292TIP3    H252072   3.893   5.672   3.770  0.3694 -1.6260  0.5280
 9293TIP3   OH252073   0.769   2.706   3.967  0.0053  0.3390 -0.0859
 9293TIP3    H152074   0.860   2.715   3.993  0.1708  0.8594 -0.8119
 9293TIP3    H252075   0.741   2.622   4.004  1.4530 -0.9604 -1.7772
 9294TIP3   OH252076   2.114   1.695   4.175  0.3104  0.0808  0.1069
 9294TIP3    H152077   2.198   1.694   4.130  1.7257 -0.9297  2.6047
 9294TIP3    H252078   2.074   1.611   4.154  0.9547 -0.3784  0.6629
 9295TIP3   OH252079   3.852   4.234   5.298 -0.1137 -0.3063  0.0110
 9295TIP3    H152080   3.772   4.286   5.292 -0.7838 -1.0627  1.5434
 9295TIP3    H252081   3.917   4.283   5.249 -1.9115 -0.5102 -2.8249
 9296TIP3   OH252082   6.324   4.376   4.573  0.1757  0.0197 -0.0365
 9296TIP3    H152083   6.244   4.342   4.612  0.1658 -0.4284 -0.4348
 9296TIP3    H252084   6.395   4.346   4.630  0.1046 -0.0311  0.0244
 9297TIP3   OH252085   5.972   4.122   2.792 -0.0678 -0.0149 -0.5010
 9297TIP3    H152086   6.001   4.087   2.707  1.0449  2.0173 -1.0157
 9297TIP3    H252087   5.897   4.177   2.770 -0.3862 -0.2507 -0.0163
 9298TIP3   OH252088   4.108   3.429   3.325 -0.8177 -0.0200 -0.6779
 9298TIP3    H152089   4.136   3.411   3.414 -1.6846  1.3484 -0.0984
 9298TIP3    H252090   4.176   3.390   3.270  0.1198 -0.2309  0.5921
 9299TIP3   OH252091   2.827   4.089   5.289  0.7914  0.5417 -0.2762
 9299TIP3    H152092   2.762   4.127   5.230 -0.5014  0.1618  0.8493
 9299TIP3    H252093   2.871   4.022   5.237  2.0460  2.4442 -1.8179
 9300TIP3   OH252094   2.343   6.755   1.772  0.4807 -0.2067 -0.0807
 9300TIP3    H152095   2.394   6.779   1.849  0.7969  2.5398 -1.0301
 9300TIP3    H252096   2.255   6.741   1.805  0.6248  0.8514  0.8314
 9301TIP3   OH252097   4.709   6.223   3.448  0.2077 -0.5004 -0.0522
 9301TIP3    H152098   4.706   6.142   3.397 -1.0126  1.0633 -2.6399
 9301TIP3    H252099   4.617   6.244   3.465  0.4744  0.6720  0.0148
 9302TIP3   OH252100   6.499   4.716   3.289 -0.2578  0.0873 -0.4711
 9302TIP3    H152101   6.525   4.802   3.257 -1.2846  0.5231 -0.1888
 9302TIP3    H252102   6.512   4.657   3.215  0.5721  0.4562 -0.6293
 9303TIP3   OH252103   5.389   5.020   3.636 -0.2994  0.1753  0.0080
 9303TIP3    H152104   5.402   5.092   3.697 -1.9725 -0.3464  1.0356
 9303TIP3    H252105   5.298   4.994   3.648 -0.4153 -0.5843 -2.0316
 9304TIP3   OH252106   1.240   4.014   3.117  0.3013 -0.0144 -0.1924
 9304TIP3    H152107   1.187   3.944   3.154 -0.9564  1.0957  0.2133
 9304TIP3    H252108   1.217   4.015   3.024 -0.6531  0.6551  0.0372
 9305TIP3   OH252109   5.165   6.319   5.544  0.1464  0.0047  0.2231
 9305TIP3    H152110   5.243   6.320   5.488 -0.0416  0.4909 -0.0399
 9305TIP3    H252111   5.146   6.412   5.560 -0.9838 -0.0618 -0.5787
 9306TIP3   OH252112   0.984   4.742   3.343  0.0752  0.2570 -0.0828
 9306TIP3    H152113   0.929   4.789   3.406  0.6365 -1.0508  1.4677
 9306TIP3    H252114   1.065   4.793   3.338 -0.9526  1.8398 -1.8893
 9307TIP3   OH252115   6.182   4.153   3.780 -0.7651 -0.0651  0.2889
 9307TIP3    H152116   6.095   4.112   3.777 -0.8435  0.1578 -0.5283
 9307TIP3    H252117   6.217   4.143   3.691  0.0734 -0.1962  0.6183
 9308TIP3   OH252118   0.618   3.351   2.516 -0.4427 -0.1091  0.0265
 9308TIP3    H152119   0.537   3.361   2.566 -0.1652 -0.3399  0.5311
 9308TIP3    H252120   0.603   3.275   2.461 -0.2725 -0.6678  0.7303
 9309TIP3   OH252121   4.066   1.004   4.830  0.0097  0.3804 -0.7557
 9309TIP3    H152122   4.139   0.979   4.774  1.4439  1.2144  0.6518
 9309TIP3    H252123   4.008   1.055   4.774  2.0430  2.3255 -1.2559
 9310TIP3   OH252124   2.671   3.285   4.715  0.2221 -0.2975 -0.1195
 9310TIP3    H152125   2.591   3.295   4.765  0.9587  1.3025  0.8432
 9310TIP3    H252126   2.706   3.374   4.708  3.7456 -1.2197  2.6612
 9311TIP3   OH252127   3.049   0.382   4.729  0.4931 -0.6714  0.6033
 9311TIP3    H152128   2.985   0.444   4.764 -2.1024 -2.3258 -0.8568
 9311TIP3    H252129   3.024   0.298   4.768  1.3419 -1.4934 -0.5629
 9312TIP3   OH252130   4.895   6.060   3.022  0.4838  0.0942 -0.1294
 9312TIP3    H152131   4.929   6.146   2.994  1.0148  0.1774  0.7407
 9312TIP3    H252132   4.804   6.078   3.048  0.2824  0.1954 -0.8678
 9313TIP3   OH252133   4.005   3.563   2.579  0.0938 -0.2659  0.0213
 9313TIP3    H152134   3.950   3.592   2.506  0.4399  1.6291  0.4504
 9313TIP3    H252135   3.944   3.550   2.651  0.0338  0.6479  0.1556
 9314TIP3   OH252136   4.394   6.226   3.467 -0.3552 -0.3001  0.3472
 9314TIP3    H152137   4.327   6.276   3.513 -0.1232 -0.3760  0.7662
 9314TIP3    H252138   4.410   6.149   3.522 -0.9382 -1.0177 -0.4418
 9315TIP3   OH252139   1.120   6.658   2.236 -0.1326 -0.2076 -0.0407
 9315TIP3    H152140   1.066   6.593   2.280 -0.0587 -0.3708 -0.1880
 9315TIP3    H252141   1.207   6.618   2.232  0.1149  0.2524  0.6277
 9316TIP3   OH252142   3.243   4.814   3.902  0.6570 -0.4775 -0.0332
 9316TIP3    H152143   3.148   4.804   3.894  0.5487  0.8039 -0.5662
 9316TIP3    H252144   3.279   4.733   3.867 -0.2691 -1.7385  1.7984
 9317TIP3   OH252145   5.399   5.860   4.641  0.3844 -0.3958  0.1993
 9317TIP3    H152146   5.396   5.782   4.697  0.6806  0.1885  1.0571
 9317TIP3    H252147   5.340   5.840   4.569  1.1020 -1.7519 -0.0415
 9318TIP3   OH252148   5.378   4.701   3.476 -0.1586 -0.0117 -0.0546
 9318TIP3    H152149   5.372   4.673   3.567 -1.1071  0.3127 -0.0147
 9318TIP3    H252150   5.293   4.739   3.456  0.5468  1.3314 -0.6209
 9319TIP3   OH252151   4.108   0.613   2.521 -0.4861  0.1447 -0.0710
 9319TIP3    H152152   4.115   0.702   2.555  0.6918  0.2270 -0.4761
 9319TIP3    H252153   4.099   0.625   2.426  1.7080 -0.1724 -0.3753
 9320TIP3   OH252154   3.015   3.497   2.047  0.1392  0.3417 -0.5031
 9320TIP3    H152155   3.082   3.557   2.014  0.6413 -0.1841 -0.4389
 9320TIP3    H252156   3.033   3.490   2.141 -0.0163  0.2077 -0.4834
 9321TIP3   OH252157   6.711   6.543   5.592 -0.9383  0.6715  0.2687
 9321TIP3    H152158   6.725   6.563   5.500 -1.7656  1.8606  0.3931
 9321TIP3    H252159   6.783   6.587   5.638 -0.1175 -0.4881  0.1736
 9322TIP3   OH252160   5.262   3.026   3.394  0.1066 -0.1308 -0.1281
 9322TIP3    H152161   5.259   2.946   3.446  0.3104  0.1712  0.3534
 9322TIP3    H252162   5.254   3.097   3.458  2.2115  0.3105 -0.3018
 9323TIP3   OH252163   3.166   2.456   2.277  0.2588  0.2849  0.0663
 9323TIP3    H152164   3.202   2.544   2.283 -2.2862  1.3935  0.1107
 9323TIP3    H252165   3.171   2.421   2.366  1.8501  0.1057 -0.0712
 9324TIP3   OH252166   3.937   6.593   2.598  0.2040 -0.0468  0.3145
 9324TIP3    H152167   3.876   6.535   2.645 -0.0966  0.5219  0.6338
 9324TIP3    H252168   4.020   6.547   2.600  0.0849 -0.2448  1.0067
 9325TIP3   OH252169   4.074   2.806   2.593 -0.9113 -0.1244  0.4914
 9325TIP3    H152170   4.002   2.869   2.603 -1.6441 -0.8621  0.0066
 9325TIP3    H252171   4.143   2.856   2.550 -1.3969  0.4164  0.3193
 9326TIP3   OH252172   0.650   3.769   3.331 -0.2489  0.1953  0.4633
 9326TIP3    H152173   0.648   3.834   3.261 -1.7192  0.2747  0.5627
 9326TIP3    H252174   0.581   3.797   3.392 -2.4100 -2.5781 -0.5399
 9327TIP3   OH252175   6.477   6.549   4.077  0.1198 -0.4395  0.6588
 9327TIP3    H152176   6.554   6.516   4.123 -0.0949  0.1309  1.4546
 9327TIP3    H252177   6.438   6.472   4.036 -0.1674 -1.1283  2.1646
 9328TIP3   OH252178   2.338   6.395   3.011 -0.4953 -0.0546 -0.3997
 9328TIP3    H152179   2.312   6.384   2.919  0.1895 -0.2536 -0.5740
 9328TIP3    H252180   2.382   6.313   3.033 -3.0355 -1.1848  0.9428
 9329TIP3   OH252181   4.467   2.981   3.033  0.0560 -0.0358 -0.3568
 9329TIP3    H152182   4.468   3.066   2.990  0.5543  0.2187  0.1510
 9329TIP3    H252183   4.405   2.991   3.106 -0.0385 -0.1658 -0.4188
 9330TIP3   OH252184   1.995   2.267   3.196  0.1833  0.6098  0.1440
 9330TIP3    H152185   2.008   2.255   3.290 -0.3919  1.1838  0.3031
 9330TIP3    H252186   1.987   2.178   3.161 -2.1584  0.4219  1.0122
 9331TIP3   OH252187   5.067   1.738   4.059  0.4497  0.0616  0.0365
 9331TIP3    H152188   4.987   1.770   4.101 -1.0524 -1.3440 -1.5918
 9331TIP3    H252189   5.069   1.645   4.082  2.5057  0.3625  1.3193
 9332TIP3   OH252190   0.068   2.275   5.025  0.5455  0.1980 -0.5127
 9332TIP3    H152191   0.100   2.345   4.968 -0.8427  0.4392 -1.0277
 9332TIP3    H252192   0.134   2.206   5.018  2.1449  1.5844  0.3109
 9333TIP3   OH252193   0.774   0.630   3.815 -0.3330  0.2278  0.6206
 9333TIP3    H152194   0.830   0.626   3.738 -3.0487  1.6386 -1.6210
 9333TIP3    H252195   0.700   0.573   3.794 -1.5295  1.2825  1.7969
 9334TIP3   OH252196   2.253   1.687   2.670 -0.9831 -0.3108 -0.1113
 9334TIP3    H152197   2.235   1.610   2.615 -0.1600 -1.0270  0.5956
 9334TIP3    H252198   2.177   1.693   2.728 -0.6381 -1.1679  0.4544
 9335TIP3   OH252199   6.147   6.305   4.707  0.6041 -0.1615  0.0427
 9335TIP3    H152200   6.084   6.310   4.779  2.3747 -2.4542  1.9108
 9335TIP3    H252201   6.228   6.273   4.748  2.3891  0.6639 -2.5961
 9336TIP3   OH252202   5.275   5.753   3.946  0.2847  0.3820 -0.8516
 9336TIP3    H152203   5.244   5.827   3.893 -0.7712 -0.5449 -1.5855
 9336TIP3    H252204   5.229   5.677   3.909  1.0487 -0.5818  0.1328
 9337TIP3   OH252205   4.053   6.218   4.190  0.4743 -0.2131  0.1769
 9337TIP3    H152206   4.013   6.135   4.166 -2.5487  0.9249  0.8783
 9337TIP3    H252207   4.051   6.270   4.110  0.3975 -0.0975  0.2535
 9338TIP3   OH252208   3.986   3.060   2.249 -0.4253 -0.2362  0.1321
 9338TIP3    H152209   4.039   2.997   2.199 -0.3704 -1.0721  1.2038
 9338TIP3    H252210   3.905   3.068   2.199 -0.0275 -0.3520 -0.5586
 9339TIP3   OH252211   3.785   3.559   3.580  0.1306 -0.2970  0.4461
 9339TIP3    H152212   3.718   3.525   3.521  0.4048  0.4026 -0.2779
 9339TIP3    H252213   3.829   3.481   3.614 -0.3575 -0.7221  0.1120
 9340TIP3   OH252214   3.636   4.525   5.022  0.5672 -0.2379 -0.7400
 9340TIP3    H152215   3.557   4.536   5.074  0.1999 -0.9134 -1.1436
 9340TIP3    H252216   3.647   4.608   4.975  1.3295  0.6808  0.9579
 9341TIP3   OH252217   2.025   0.134   4.580  0.0980  0.4410  0.3730
 9341TIP3    H152218   2.045   0.227   4.594 -1.3356  1.3583 -2.7733
 9341TIP3    H252219   2.106   0.097   4.545 -0.0117  1.1382 -0.6623
 9342TIP3   OH252220   5.912   1.169   5.432 -0.6482  0.5058  0.1370
 9342TIP3    H152221   5.959   1.252   5.428 -0.9626  0.7201  0.7817
 9342TIP3    H252222   5.981   1.102   5.428 -0.4522  0.7725 -1.2045
 9343TIP3   OH252223   0.608   4.967   2.316 -0.2306 -0.9051 -0.2896
 9343TIP3    H152224   0.605   4.888   2.369 -0.3401 -0.6216  0.1325
 9343TIP3    H252225   0.645   4.939   2.232  1.3216 -1.0721  0.4236
 9344TIP3   OH252226   6.748   1.616   4.717 -0.3756  0.5226  0.0053
 9344TIP3    H152227   6.704   1.693   4.681 -0.4584 -0.6373 -2.6242
 9344TIP3    H252228   6.705   1.542   4.674 -1.0332 -1.1567  3.2235
 9345TIP3   OH252229   6.354   4.573   3.789  0.2431  0.4610 -0.2303
 9345TIP3    H152230   6.375   4.568   3.696 -0.8879 -0.0695 -0.4679
 9345TIP3    H252231   6.440   4.581   3.832  0.8366 -0.1452 -1.2575
 9346TIP3   OH252232   3.364   6.090   5.170 -0.2350  0.0370  0.1210
 9346TIP3    H152233   3.409   6.012   5.203 -1.4663 -1.0812 -0.7405
 9346TIP3    H252234   3.329   6.132   5.248  1.1627  0.2243  0.6835
 9347TIP3   OH252235   1.693   3.291   4.550 -0.2112  0.2689 -0.3798
 9347TIP3    H152236   1.688   3.385   4.564  3.1872  0.7981 -1.8136
 9347TIP3    H252237   1.732   3.281   4.464  0.6488 -2.4332  0.2215
 9348TIP3   OH252238   2.063   2.816   4.632  0.1035  0.5420  0.5738
 9348TIP3    H152239   2.037   2.734   4.591  1.1834  0.5212 -0.1175
 9348TIP3    H252240   2.114   2.789   4.709 -0.4720  0.5773  0.9737
 9349TIP3   OH252241   4.203   6.458   2.598 -0.4798  0.1934 -0.5540
 9349TIP3    H152242   4.259   6.420   2.666 -1.4112  0.5186  0.4103
 9349TIP3    H252243   4.265   6.496   2.536  0.3864  0.8986  0.6974
 9350TIP3   OH252244   6.227   2.608   4.206 -0.0338  0.2046 -0.6170
 9350TIP3    H152245   6.209   2.663   4.130  0.0863 -0.0250 -0.8136
 9350TIP3    H252246   6.313   2.637   4.237 -0.1602  0.4187 -0.4596
 9351TIP3   OH252247   2.271   0.697   2.411 -0.4098 -0.1293  0.2027
 9351TIP3    H152248   2.239   0.641   2.340  0.0183 -2.5620  1.8019
 9351TIP3    H252249   2.194   0.744   2.441 -0.6322  0.8074 -1.6991
 9352TIP3   OH252250   3.638   3.568   4.228 -0.2040  0.3668  0.4110
 9352TIP3    H152251   3.697   3.644   4.225  2.2559 -1.4466  0.2065
 9352TIP3    H252252   3.565   3.593   4.172  0.1762  2.8443  0.9037
 9353TIP3   OH252253   3.703   4.238   4.921  0.2805 -0.4017 -0.4081
 9353TIP3    H152254   3.681   4.329   4.941 -1.4981 -0.9900  0.5605
 9353TIP3    H252255   3.693   4.231   4.826  0.3003  0.3881 -0.4743
 9354TIP3   OH252256   6.599   5.170   4.441 -0.4269 -0.2291 -0.2215
 9354TIP3    H152257   6.668   5.161   4.375  0.3626  0.6176  0.4510
 9354TIP3    H252258   6.520   5.187   4.390  0.2085  0.6350 -0.9680
 9355TIP3   OH252259   5.254   5.241   2.971  0.1112  0.2326  0.0035
 9355TIP3    H152260   5.223   5.242   3.062 -3.0676 -2.2735 -0.8789
 9355TIP3    H252261   5.307   5.320   2.964 -0.5986  1.2544  3.6660
 9356TIP3   OH252262   3.182   6.461   4.256  0.5778  0.2196 -0.2493
 9356TIP3    H152263   3.261   6.443   4.206  0.0284  1.4046 -1.6372
 9356TIP3    H252264   3.161   6.379   4.300  2.3415 -0.2156 -0.1725
 9357TIP3   OH252265   5.350   5.202   2.653 -0.3289 -0.1653 -0.0655
 9357TIP3    H152266   5.300   5.167   2.727 -0.0931 -0.3258  0.0196
 9357TIP3    H252267   5.384   5.124   2.609  0.3767 -0.0428  0.2428
 9358TIP3   OH252268   5.049   6.778   5.241  0.1677  0.1385  0.0700
 9358TIP3    H152269   5.046   6.766   5.336 -0.4773 -0.6506 -0.0346
 9358TIP3    H252270   4.964   6.746   5.210 -0.0101  1.2883 -0.6840
 9359TIP3   OH252271   2.110   0.098   2.641 -0.0997 -0.3888  0.2026
 9359TIP3    H152272   2.043   0.164   2.625  0.2920  0.1876  0.8655
 9359TIP3    H252273   2.176   0.114   2.574 -0.1482 -0.3023  0.1750
 9360TIP3   OH252274   5.213   0.198   3.399 -0.4053  0.2666  0.7354
 9360TIP3    H152275   5.238   0.202   3.307 -3.6412  0.2903 -0.2533
 9360TIP3    H252276   5.200   0.104   3.416 -0.6149  0.3300  0.9281
 9361TIP3   OH252277   1.544   6.531   5.180 -0.0722  0.3537  0.0257
 9361TIP3    H152278   1.590   6.473   5.241  0.1578  0.6687  0.1525
 9361TIP3    H252279   1.456   6.493   5.173 -0.4662  0.9251  1.4072
 9362TIP3   OH252280   2.457   4.633   3.434  0.4184  0.4906 -0.4909
 9362TIP3    H152281   2.403   4.591   3.501  0.1859  0.9027 -0.4223
 9362TIP3    H252282   2.450   4.726   3.452  0.8510  0.5671 -0.7135
 9363TIP3   OH252283   5.341   6.484   2.548 -0.1711  0.4542 -0.4544
 9363TIP3    H152284   5.284   6.535   2.606 -0.6215  0.4540 -0.8929
 9363TIP3    H252285   5.362   6.405   2.599 -0.5342  0.4714 -0.2738
 9364TIP3   OH252286   4.981   1.182   5.175  0.6049 -0.0288  0.5863
 9364TIP3    H152287   4.970   1.254   5.238  2.4355  0.8585 -0.0305
 9364TIP3    H252288   5.010   1.108   5.229  2.5353  0.8306  0.8106
 9365TIP3   OH252289   6.241   4.235   4.033  0.0077  0.1216  0.0258
 9365TIP3    H152290   6.194   4.172   4.087  0.4477 -0.3293 -0.1070
 9365TIP3    H252291   6.201   4.227   3.947  0.9177 -0.9335 -0.3247
 9366TIP3   OH252292   4.726   2.988   3.323  0.1188  0.1106  0.0601
 9366TIP3    H152293   4.766   3.068   3.356  0.5274 -0.1171  0.1186
 9366TIP3    H252294   4.775   2.967   3.244  0.2489 -0.2785  0.2393
 9367TIP3   OH252295   4.621   1.478   3.941  0.3719  0.5427 -0.1514
 9367TIP3    H152296   4.696   1.425   3.966 -0.9053 -0.4941  1.7903
 9367TIP3    H252297   4.587   1.437   3.861  0.6142 -0.3149  0.1801
 9368TIP3   OH252298   2.412   6.654   4.246  1.0420 -0.0672  0.1667
 9368TIP3    H152299   2.497   6.610   4.251  0.2460 -1.5258  2.4837
 9368TIP3    H252300   2.363   6.605   4.180  0.8763 -1.4232  1.2611
 9369TIP3   OH252301   3.869   6.233   2.186 -0.2243  0.2194  0.0061
 9369TIP3    H152302   3.866   6.321   2.224 -1.0462  0.1476  0.1207
 9369TIP3    H252303   3.832   6.243   2.099 -0.7971 -0.0948  0.2040
 9370TIP3   OH252304   3.056   5.016   4.813 -0.2673 -0.4787  0.1678
 9370TIP3    H152305   3.138   4.980   4.845 -0.3770  0.6322  1.8410
 9370TIP3    H252306   2.992   4.945   4.823  0.2208 -0.9421  0.0281
 9371TIP3   OH252307   2.765   2.255   4.183  0.4132  0.7085 -0.3374
 9371TIP3    H152308   2.791   2.194   4.253  1.7496  3.0951  1.3629
 9371TIP3    H252309   2.829   2.240   4.113  1.2621  0.7459  0.4137
 9372TIP3   OH252310   6.467   4.517   2.262 -0.1464  0.1160 -0.5294
 9372TIP3    H152311   6.531   4.566   2.210  0.9865 -0.5699  0.1785
 9372TIP3    H252312   6.481   4.425   2.238 -0.1938 -0.1312  0.3428
 9373TIP3   OH252313   1.847   0.486   2.130 -0.2702  0.0747 -0.3211
 9373TIP3    H152314   1.867   0.411   2.074 -1.4242 -0.6717  0.2356
 9373TIP3    H252315   1.829   0.558   2.068  1.2526  0.0454 -0.8550
 9374TIP3   OH252316   6.240   4.749   2.745 -0.0900  0.2721 -0.2521
 9374TIP3    H152317   6.149   4.728   2.724 -0.0576  0.7092 -0.8608
 9374TIP3    H252318   6.251   4.840   2.717  0.6824  0.0572 -0.6896
 9375TIP3   OH252319   3.316   1.642   3.313  0.2176  0.2153  0.4565
 9375TIP3    H152320   3.244   1.703   3.330  1.7622  2.4754 -0.5312
 9375TIP3    H252321   3.332   1.650   3.219  0.1497 -2.2095  0.1726
 9376TIP3   OH252322   4.464   1.708   3.371  0.0418 -0.4901 -1.0587
 9376TIP3    H152323   4.392   1.764   3.400 -0.8871 -1.6887 -0.9781
 9376TIP3    H252324   4.426   1.620   3.365  2.1491 -1.7579  1.7706
 9377TIP3   OH252325   6.663   3.870   4.290  0.7713  0.3548 -0.0038
 9377TIP3    H152326   6.569   3.886   4.303  0.8702 -0.0332  1.2690
 9377TIP3    H252327   6.687   3.930   4.219 -1.0392 -1.5617 -2.4504
 9378TIP3   OH252328   5.730   4.631   4.605 -0.3671 -0.3084 -0.0032
 9378TIP3    H152329   5.741   4.659   4.514  0.7814 -1.0956 -0.1242
 9378TIP3    H252330   5.808   4.579   4.624  0.1576  1.0565  1.9022
 9379TIP3   OH252331   0.179   4.152   4.082 -0.2796  0.4607  0.7151
 9379TIP3    H152332   0.145   4.239   4.104  1.3247  1.2725  0.2160
 9379TIP3    H252333   0.274   4.161   4.093  0.1009 -0.6440 -1.2778
 9380TIP3   OH252334   4.462   3.757   2.445 -0.3815  0.4200 -0.0707
 9380TIP3    H152335   4.540   3.805   2.472  0.1865  1.2610 -2.8337
 9380TIP3    H252336   4.389   3.812   2.473  0.0568  0.3680  1.2172
 9381TIP3   OH252337   3.589   2.282   2.046  0.3094 -0.4859  0.8716
 9381TIP3    H152338   3.665   2.225   2.038  1.4152  1.0174  0.2434
 9381TIP3    H252339   3.545   2.275   1.961  1.0362  0.3695  0.4074
 9382TIP3   OH252340   2.513   4.048   2.055  0.0129 -0.4361 -0.7815
 9382TIP3    H152341   2.553   3.963   2.043 -1.3753 -1.0529 -1.1885
 9382TIP3    H252342   2.543   4.077   2.142  0.7052 -1.2126 -0.7606
 9383TIP3   OH252343   1.698   5.607   4.011 -0.3281  0.3975 -0.8834
 9383TIP3    H152344   1.607   5.588   4.034 -0.2296  0.0390 -0.7770
 9383TIP3    H252345   1.738   5.520   4.000  0.2565  0.5366  0.0461
 9384TIP3   OH252346   1.398   3.834   4.499  0.4663  0.2646 -0.5560
 9384TIP3    H152347   1.357   3.920   4.491 -2.3772 -0.9695 -0.3868
 9384TIP3    H252348   1.479   3.851   4.548 -1.1391  2.5451  1.5876
 9385TIP3   OH252349   0.746   0.131   3.710  0.3725  0.2380  0.0925
 9385TIP3    H152350   0.704   0.049   3.683  1.3428 -0.0565 -0.6078
 9385TIP3    H252351   0.839   0.115   3.696  0.4669  2.1951 -2.2210
 9386TIP3   OH252352   4.065   3.397   4.806 -0.0210 -0.8584 -0.2009
 9386TIP3    H152353   4.073   3.331   4.738  1.3889 -1.8270  0.8348
 9386TIP3    H252354   4.148   3.392   4.854 -0.5956  0.4409  1.0056
 9387TIP3   OH252355   2.173   1.261   2.109 -0.1027  0.0431 -0.0001
 9387TIP3    H152356   2.125   1.303   2.038  0.0565  0.7298  0.2942
 9387TIP3    H252357   2.220   1.189   2.066  0.1811  0.5988 -0.6371
 9388TIP3   OH252358   2.977   0.149   4.580 -0.1645  0.5316  0.4447
 9388TIP3    H152359   2.982   0.242   4.559  1.1418  0.1072 -1.3980
 9388TIP3    H252360   2.991   0.144   4.674  0.9863  2.1249  0.3845
 9389TIP3   OH252361   2.867   5.822   2.634  0.0577 -0.3907 -0.1170
 9389TIP3    H152362   2.836   5.910   2.613  0.2507 -0.1064  0.7232
 9389TIP3    H252363   2.799   5.764   2.601  0.7263 -0.0451 -2.1922
 9390TIP3   OH252364   1.756   2.250   2.269 -0.2569  0.6019  0.2819
 9390TIP3    H152365   1.688   2.184   2.258 -0.9418  0.9299  2.2343
 9390TIP3    H252366   1.756   2.297   2.186 -1.5874 -0.1650 -0.1920
 9391TIP3   OH252367   5.090   5.221   3.651 -0.2610  0.4649  0.0339
 9391TIP3    H152368   5.122   5.131   3.651 -1.3547 -0.0239 -3.1683
 9391TIP3    H252369   5.166   5.273   3.676  0.4119 -1.2553  1.9147
 9392TIP3   OH252370   3.720   3.104   2.716 -0.6568  0.3077  0.5783
 9392TIP3    H152371   3.773   3.096   2.637  0.3054 -0.4765  1.2731
 9392TIP3    H252372   3.784   3.103   2.788 -1.5839 -0.4569  1.4251
 9393TIP3   OH252373   0.762   4.466   2.971 -0.5143  0.5308 -0.0077
 9393TIP3    H152374   0.800   4.536   2.918 -1.4791  0.8993 -0.2496
 9393TIP3    H252375   0.802   4.477   3.057  0.9605  0.0188 -0.5994
 9394TIP3   OH252376   3.189   6.690   3.885 -0.2665  0.0066 -0.0927
 9394TIP3    H152377   3.268   6.712   3.935  0.7258 -1.1387 -1.1026
 9394TIP3    H252378   3.220   6.678   3.795 -1.8201  0.8318 -0.7608
 9395TIP3   OH252379   3.001   2.471   4.099  0.0682  0.3382 -0.0585
 9395TIP3    H152380   3.050   2.402   4.054  2.8729  2.4450 -0.4756
 9395TIP3    H252381   2.927   2.489   4.041  1.7215  0.6314 -2.1790
 9396TIP3   OH252382   6.178   5.018   3.071 -0.2293  0.0619 -0.4541
 9396TIP3    H152383   6.246   5.074   3.107  0.0356  0.3667 -1.4085
 9396TIP3    H252384   6.219   4.932   3.065 -0.3627 -0.0534  0.2124
 9397TIP3   OH252385   0.568   2.177   2.670  0.2133 -0.3882  0.8857
 9397TIP3    H152386   0.517   2.185   2.590 -0.0795  2.8860  1.2733
 9397TIP3    H252387   0.569   2.083   2.688 -1.1777 -1.0683 -1.9708
 9398TIP3   OH252388   1.370   2.975   4.320  0.3958 -0.3480  0.0959
 9398TIP3    H152389   1.299   2.936   4.370  0.3200 -0.0383  0.2351
 9398TIP3    H252390   1.425   2.901   4.294  0.1435 -0.5650  0.1771
 9399TIP3   OH252391   5.357   1.474   3.621  0.7804  0.1560  0.2548
 9399TIP3    H152392   5.314   1.533   3.682  0.6298 -0.0557  0.3571
 9399TIP3    H252393   5.316   1.389   3.638  0.3656  0.1963 -0.5006
 9400TIP3   OH252394   0.898   6.699   4.619  0.2275  0.5281 -0.1470
 9400TIP3    H152395   0.968   6.638   4.596 -0.5366  0.8559 -3.8484
 9400TIP3    H252396   0.934   6.748   4.693  2.1517 -2.1241  0.8656
 9401TIP3   OH252397   3.903   4.730   1.891  0.5961 -0.3243  0.4786
 9401TIP3    H152398   3.841   4.752   1.960  1.1129  2.5073  0.1434
 9401TIP3    H252399   3.983   4.705   1.937  0.4565  0.0129  0.9053
 9402TIP3   OH252400   6.776   4.580   3.108  0.1397 -0.0579  0.1699
 9402TIP3    H152401   6.722   4.529   3.168 -0.4125 -0.3961 -0.5907
 9402TIP3    H252402   6.811   4.515   3.047 -2.0626  0.5937 -1.9571
 9403TIP3   OH252403   0.612   1.662   3.573  0.6593 -0.0921  1.3492
 9403TIP3    H152404   0.673   1.705   3.633  0.2043  0.3775  1.4862
 9403TIP3    H252405   0.621   1.712   3.491  0.6053 -0.1529  1.3061
 9404TIP3   OH252406   0.269   6.437   4.640 -0.5691 -0.7219 -0.4784
 9404TIP3    H152407   0.334   6.499   4.672 -1.0507 -1.2041  1.6173
 9404TIP3    H252408   0.188   6.488   4.632 -0.6011 -0.7342 -0.2510
 9405TIP3   OH252409   6.630   6.353   4.647  0.0677 -0.0864 -0.2402
 9405TIP3    H152410   6.648   6.316   4.734 -2.0307 -0.3679  0.1303
 9405TIP3    H252411   6.614   6.446   4.663 -2.2767 -0.4750  0.0508
 9406TIP3   OH252412   6.545   6.616   4.720 -0.1658 -0.1447  0.1786
 9406TIP3    H152413   6.554   6.707   4.749 -0.7014  0.5962 -1.8184
 9406TIP3    H252414   6.451   6.603   4.710 -0.1208 -1.0703  0.8643
 9407TIP3   OH252415   0.372   5.363   4.901  0.0516 -0.0195 -0.5377
 9407TIP3    H152416   0.290   5.317   4.916  0.8754 -1.7418 -1.0241
 9407TIP3    H252417   0.405   5.382   4.989  0.2829 -1.5307 -0.2682
 9408TIP3   OH252418   3.855   2.362   2.783  0.2992  0.0247 -0.3925
 9408TIP3    H152419   3.790   2.418   2.824 -2.2979 -2.6343 -0.5923
 9408TIP3    H252420   3.826   2.354   2.692  0.1214 -2.1644 -0.1939
 9409TIP3   OH252421   1.744   6.140   2.842 -0.0870  0.0373 -0.6156
 9409TIP3    H152422   1.688   6.062   2.850 -0.8717  0.6113 -0.3609
 9409TIP3    H252423   1.696   6.198   2.783 -0.7186  1.3383  1.0880
 9410TIP3   OH252424   6.801   1.465   2.387 -0.0626 -0.0676  0.4358
 9410TIP3    H152425   6.811   1.552   2.348  0.4719 -0.8705 -1.3411
 9410TIP3    H252426   6.852   1.468   2.467  0.9411  0.8928 -0.2120
 9411TIP3   OH252427   1.442   3.411   4.812  0.2350  0.0155  0.4688
 9411TIP3    H152428   1.400   3.432   4.896  0.3780 -0.9017  0.7772
 9411TIP3    H252429   1.368   3.392   4.754  0.1911 -1.8645  1.0834
 9412TIP3   OH252430   0.214   5.659   4.332 -0.3252 -0.8184 -0.2655
 9412TIP3    H152431   0.253   5.572   4.328 -0.8356 -1.1423  1.4148
 9412TIP3    H252432   0.122   5.644   4.354 -0.3736  0.1554  0.2499
 9413TIP3   OH252433   3.707   6.052   2.792  0.1161  0.3989  0.3774
 9413TIP3    H152434   3.737   5.967   2.823  0.7409  0.2462 -0.6022
 9413TIP3    H252435   3.657   6.033   2.713 -0.9076  0.8352  0.8939
 9414TIP3   OH252436   0.805   4.377   2.356 -0.2811 -0.4881 -0.6158
 9414TIP3    H152437   0.844   4.454   2.398 -0.5105 -0.8994  0.3976
 9414TIP3    H252438   0.744   4.344   2.422  1.6731 -3.0390  0.0514
 9415TIP3   OH252439   4.015   2.810   3.280 -0.1794  0.1088  0.4011
 9415TIP3    H152440   4.042   2.746   3.345  0.1189 -1.1651 -0.9320
 9415TIP3    H252441   3.995   2.759   3.202 -1.1578  1.5302 -0.3295
 9416TIP3   OH252442   6.384   5.225   3.135 -0.9035 -0.1790 -0.0658
 9416TIP3    H152443   6.385   5.258   3.225 -0.6443 -1.8089  0.5548
 9416TIP3    H252444   6.311   5.272   3.094  0.0790  1.9163  0.4288
 9417TIP3   OH252445   3.764   5.181   4.295  0.0350 -0.1685  0.3841
 9417TIP3    H152446   3.707   5.113   4.331 -0.0494  0.2843  1.1463
 9417TIP3    H252447   3.731   5.196   4.207 -0.7016 -0.2898  0.6272
 9418TIP3   OH252448   5.797   6.768   2.563  0.3685 -0.7398 -0.2328
 9418TIP3    H152449   5.737   6.694   2.574  0.1072 -0.7637 -1.6534
 9418TIP3    H252450   5.864   6.737   2.502 -0.5569  0.5982 -2.0482
 9419TIP3   OH252451   2.117   0.583   3.480  0.6623  0.4120 -0.3120
 9419TIP3    H152452   2.099   0.496   3.443 -1.1723  0.0858  1.1987
 9419TIP3    H252453   2.075   0.644   3.420  0.4726  0.1222 -0.4764
 9420TIP3   OH252454   6.492   3.826   4.893 -0.7386  0.3760 -0.3021
 9420TIP3    H152455   6.554   3.797   4.961 -1.7056 -0.7081  0.1611
 9420TIP3    H252456   6.449   3.745   4.865 -0.7163  0.8726 -1.8827
 9421TIP3   OH252457   5.742   2.288   4.358  0.2484  0.0579 -0.4269
 9421TIP3    H152458   5.648   2.291   4.345  0.3919 -1.5106 -2.3965
 9421TIP3    H252459   5.779   2.318   4.275  1.4497 -0.6793 -0.1865
 9422TIP3   OH252460   6.729   5.321   4.645 -0.5679 -0.1894  0.7132
 9422TIP3    H152461   6.817   5.307   4.608 -0.6334  0.2748  0.3693
 9422TIP3    H252462   6.671   5.271   4.587 -0.5865 -0.0752  0.6329
 9423TIP3   OH252463   3.275   0.126   2.795 -0.0433 -0.3495 -0.3330
 9423TIP3    H152464   3.214   0.123   2.869  1.4935 -0.8102  0.9772
 9423TIP3    H252465   3.337   0.196   2.816  1.8783 -2.0602  0.0903
 9424TIP3   OH252466   1.231   4.557   4.713  0.1841 -0.0815 -0.2325
 9424TIP3    H152467   1.275   4.563   4.797  0.2021 -0.2232 -0.2312
 9424TIP3    H252468   1.225   4.648   4.682 -1.2934  0.1659  0.6749
 9425TIP3   OH252469   6.153   0.246   1.901  0.2119 -0.5327 -0.1454
 9425TIP3    H152470   6.248   0.242   1.896  0.2610 -0.0872  0.3165
 9425TIP3    H252471   6.126   0.162   1.938  0.5234 -0.1760  0.9187
 9426TIP3   OH252472   3.132   3.569   4.149  0.4590  0.1490  0.2351
 9426TIP3    H152473   3.177   3.641   4.193  1.1118 -0.3248  0.3585
 9426TIP3    H252474   3.202   3.508   4.125 -0.0388 -0.2454 -0.2417
 9427TIP3   OH252475   2.917   3.410   2.817  0.4517 -0.1616  0.0566
 9427TIP3    H152476   2.908   3.506   2.813  2.1620 -0.0093 -2.5961
 9427TIP3    H252477   2.834   3.380   2.855 -1.4688  2.2254 -1.8761
 9428TIP3   OH252478   0.062   6.274   3.785  0.2431 -0.2149 -0.4184
 9428TIP3    H152479  -0.020   6.308   3.821  0.5991 -0.9054  1.0987
 9428TIP3    H252480   0.087   6.339   3.718 -1.1072  0.4218 -0.3361
 9429TIP3   OH252481   4.677   4.683   2.368  0.1955 -0.4663 -0.9289
 9429TIP3    H152482   4.766   4.679   2.333 -0.3875  0.0347 -2.5790
 9429TIP3    H252483   4.621   4.668   2.292 -1.1369 -1.9822  0.2982
 9430TIP3   OH252484   3.674   4.431   3.096  0.6476  0.0681 -0.3403
 9430TIP3    H152485   3.623   4.371   3.150 -0.1513  0.7684 -0.2904
 9430TIP3    H252486   3.628   4.433   3.012  1.1379 -0.0144 -0.6168
 9431TIP3   OH252487   6.207   2.034   4.679 -0.2921  0.3839  0.5856
 9431TIP3    H152488   6.173   2.061   4.593 -1.4620  0.6142  1.1015
 9431TIP3    H252489   6.222   1.940   4.670 -0.0557  0.4680  0.0196
 9432TIP3   OH252490   6.454   3.778   4.051  0.4209  0.0291 -0.0272
 9432TIP3    H152491   6.442   3.869   4.024  0.6988 -0.4046 -1.7178
 9432TIP3    H252492   6.546   3.758   4.029  0.8598 -0.1994  1.8284
 9433TIP3   OH252493   0.200   6.697   3.634  0.1165 -0.3425 -0.1219
 9433TIP3    H152494   0.211   6.723   3.542  0.2737 -0.0801 -0.0316
 9433TIP3    H252495   0.143   6.764   3.671 -2.2068 -1.8993 -0.6706
 9434TIP3   OH252496   0.686   0.855   4.971 -0.1925 -0.8406 -0.6435
 9434TIP3    H152497   0.741   0.853   4.893  0.7773 -0.8441  0.0254
 9434TIP3    H252498   0.736   0.807   5.037 -0.5931 -0.0837  0.2364
 9435TIP3   OH252499   0.305   5.889   3.329  0.3069  0.4911 -0.4578
 9435TIP3    H152500   0.226   5.942   3.339 -0.3377 -0.7598  1.6728
 9435TIP3    H252501   0.273   5.801   3.312  1.2672  0.1184 -0.4086
 9436TIP3   OH252502   4.494   3.721   5.302  0.8299 -0.2268  0.3423
 9436TIP3    H152503   4.422   3.658   5.300  0.5709  0.0532  0.7124
 9436TIP3    H252504   4.561   3.681   5.357  0.2517  0.2573  1.4169
 9437TIP3   OH252505   1.817   5.002   4.397  0.1289  0.1737 -0.2475
 9437TIP3    H152506   1.845   4.925   4.447 -1.8469 -0.6260 -0.2549
 9437TIP3    H252507   1.747   4.969   4.340 -0.0142  1.7612 -1.0426
 9438TIP3   OH252508   1.538   5.780   3.065  0.7507 -0.3876  0.4809
 9438TIP3    H152509   1.503   5.848   3.006  1.4978 -0.4647 -0.0668
 9438TIP3    H252510   1.525   5.698   3.017  1.4797 -0.4381  0.3585
 9439TIP3   OH252511   4.645   6.299   2.866 -0.9147  0.1355  0.1435
 9439TIP3    H152512   4.618   6.218   2.911 -2.6529 -0.7863 -2.3230
 9439TIP3    H252513   4.739   6.304   2.880 -0.9763 -1.5512  1.5435
 9440TIP3   OH252514   5.787   5.619   2.819 -0.0699 -0.0558 -0.0268
 9440TIP3    H152515   5.844   5.680   2.866  0.6196 -0.7614  0.0807
 9440TIP3    H252516   5.806   5.635   2.726  0.3482 -0.3235  0.0103
 9441TIP3   OH252517   5.176   3.183   5.600 -0.1468 -0.2033  0.1031
 9441TIP3    H152518   5.105   3.145   5.653  1.3782 -0.3163  2.1632
 9441TIP3    H252519   5.172   3.134   5.518 -3.2177  0.6420 -0.4168
 9442TIP3   OH252520   1.765   4.810   2.490 -0.4587 -0.1837  0.4590
 9442TIP3    H152521   1.711   4.773   2.420  1.5827 -1.0143 -0.7629
 9442TIP3    H252522   1.780   4.901   2.464 -1.0287 -0.0340  0.6535
 9443TIP3   OH252523   6.250   0.056   4.442  0.2746 -0.7634 -0.6129
 9443TIP3    H152524   6.163   0.039   4.407  0.2097 -2.1841  0.1318
 9443TIP3    H252525   6.304  -0.014   4.406  0.6010 -1.1735  0.6147
 9444TIP3   OH252526   1.465   3.940   2.712  0.3790 -0.3400  0.0418
 9444TIP3    H152527   1.517   3.908   2.786  1.6946  0.0165 -0.7077
 9444TIP3    H252528   1.425   3.862   2.675 -0.8281 -0.4621  1.4883
 9445TIP3   OH252529   6.754   2.943   3.530  0.4641  0.2214 -0.1466
 9445TIP3    H152530   6.716   2.934   3.617 -1.0779 -1.2557 -0.9044
 9445TIP3    H252531   6.768   3.037   3.519 -0.5516  0.5603  1.1914
 9446TIP3   OH252532   1.828   5.512   3.466  0.7466  0.1250 -0.3242
 9446TIP3    H152533   1.773   5.536   3.391  2.5234 -0.8654 -2.0403
 9446TIP3    H252534   1.891   5.584   3.473  0.0926  0.6122  0.7836
 9447TIP3   OH252535   3.306   0.930   2.740  0.2756 -0.2967  0.1577
 9447TIP3    H152536   3.377   0.946   2.678 -0.0383 -1.1082 -0.4223
 9447TIP3    H252537   3.291   0.836   2.736 -1.9242  0.0222 -0.9733
 9448TIP3   OH252538   4.898   0.971   4.815 -0.6400 -0.0390  0.7905
 9448TIP3    H152539   4.951   0.937   4.743 -0.1473  0.8201  0.7378
 9448TIP3    H252540   4.902   0.903   4.882 -0.1864 -0.3552  0.4458
 9449TIP3   OH252541   6.073   3.857   4.804  0.6406 -0.0190 -0.4303
 9449TIP3    H152542   6.006   3.796   4.835  1.2712 -0.9486 -0.8805
 9449TIP3    H252543   6.031   3.903   4.731  0.0719  0.2916  0.0852
 9450TIP3   OH252544   6.766   3.974   2.536  0.3129 -0.3787  0.1760
 9450TIP3    H152545   6.858   3.998   2.527  0.7484 -1.8895  0.3789
 9450TIP3    H252546   6.767   3.879   2.549 -1.3847 -0.8200 -2.1728
 9451TIP3   OH252547   3.706   5.334   2.368 -0.4056  0.0851  0.2331
 9451TIP3    H152548   3.689   5.259   2.311  0.6979  1.0555 -1.4616
 9451TIP3    H252549   3.657   5.407   2.328 -2.2240  0.1442  2.3637
 9452TIP3   OH252550   3.728   5.473   2.711 -0.2622  0.0078  0.4391
 9452TIP3    H152551   3.650   5.429   2.677  0.2450 -1.2202  0.8478
 9452TIP3    H252552   3.747   5.541   2.645 -0.9518 -0.4787 -0.2798
 9453TIP3   OH252553   1.891   1.199   3.485 -0.4759  0.0970  0.0703
 9453TIP3    H152554   1.972   1.176   3.440  0.4533  0.4532  1.4849
 9453TIP3    H252555   1.886   1.294   3.477 -0.5901  0.1062  0.2467
 9454TIP3   OH252556   3.871   0.361   2.219  0.7154 -0.0610  0.6166
 9454TIP3    H152557   3.812   0.301   2.266 -1.4105 -2.0016 -3.9538
 9454TIP3    H252558   3.814   0.432   2.189  1.8116  0.7026  0.2708
 9455TIP3   OH252559   3.424   0.507   3.889  0.9867  0.6332 -0.3622
 9455TIP3    H152560   3.470   0.587   3.914  0.6712  1.6838 -2.8586
 9455TIP3    H252561   3.331   0.527   3.903  0.6166  1.9857 -3.8769
 9456TIP3   OH252562   6.692   5.159   3.457  0.3377 -0.1658  0.3364
 9456TIP3    H152563   6.762   5.201   3.506  1.3327  0.0288 -1.2023
 9456TIP3    H252564   6.694   5.067   3.486  1.9147 -0.3932 -0.4024
 9457TIP3   OH252565   3.487   1.861   2.675 -0.2216 -0.5632  0.0270
 9457TIP3    H152566   3.504   1.794   2.740  1.4468 -0.9433 -0.7418
 9457TIP3    H252567   3.453   1.814   2.599 -1.5276 -0.2039  0.3709
 9458TIP3   OH252568   2.572   0.947   4.935  0.6751  0.6602 -0.1342
 9458TIP3    H152569   2.539   1.033   4.963  0.5744  1.2115 -1.8077
 9458TIP3    H252570   2.509   0.918   4.869  0.3671 -1.0263  0.8475
 9459TIP3   OH252571   4.542   5.796   3.496  0.2087  0.3392  0.0505
 9459TIP3    H152572   4.452   5.770   3.478  0.5497 -0.6384 -0.2771
 9459TIP3    H252573   4.553   5.783   3.590 -0.4380  1.9153  0.3820
 9460TIP3   OH252574   6.574   6.296   2.842  0.0437 -0.5401 -0.8464
 9460TIP3    H152575   6.551   6.389   2.841  1.5005 -0.0863  1.3048
 9460TIP3    H252576   6.490   6.251   2.847 -0.6777  0.8584  1.8534
 9461TIP3   OH252577   2.392   2.533   2.724 -0.0683 -0.2759  0.3386
 9461TIP3    H152578   2.297   2.531   2.727 -0.1998 -2.3500 -2.2326
 9461TIP3    H252579   2.414   2.626   2.735 -2.5959  0.7515 -2.0758
 9462TIP3   OH252580   6.560   2.312   3.310 -0.3970 -0.1441  0.0474
 9462TIP3    H152581   6.619   2.355   3.249 -1.4257 -0.3019 -1.1083
 9462TIP3    H252582   6.557   2.220   3.281 -0.3922 -0.3779  0.7522
 9463TIP3   OH252583   3.533   1.809   3.813 -0.2059 -0.2502 -0.7784
 9463TIP3    H152584   3.604   1.873   3.824 -1.2027  0.4930  2.4685
 9463TIP3    H252585   3.461   1.860   3.773 -0.7903  0.5892  1.2396
 9464TIP3   OH252586   5.260   5.999   4.225 -0.0464 -0.0851  0.1436
 9464TIP3    H152587   5.323   5.979   4.155  0.2472 -0.4865  0.5153
 9464TIP3    H252588   5.291   6.082   4.262  1.1550 -1.0007  1.2967
 9465TIP3   OH252589   5.333   3.890   4.402 -0.8634  0.1663  0.3993
 9465TIP3    H152590   5.328   3.965   4.461 -0.5552  1.5997 -1.3354
 9465TIP3    H252591   5.241   3.870   4.381 -0.8905  1.1933 -0.5009
 9466TIP3   OH252592   2.495   1.534   2.751  0.3562  0.3445 -0.3748
 9466TIP3    H152593   2.564   1.469   2.739  0.3666  0.2191  0.2981
 9466TIP3    H252594   2.458   1.547   2.664 -0.8553 -1.9193 -0.2800
 9467TIP3   OH252595   4.714   0.251   4.753 -0.3445 -0.1545  0.1113
 9467TIP3    H152596   4.709   0.320   4.819 -0.2924  1.3407 -1.3468
 9467TIP3    H252597   4.646   0.189   4.777 -0.9171  0.7997  1.0660
 9468TIP3   OH252598   0.555   2.052   4.684  0.0922 -0.0531 -0.3211
 9468TIP3    H152599   0.650   2.066   4.679  0.0358  0.9825  1.0382
 9468TIP3    H252600   0.522   2.084   4.600  0.5064  3.9734  0.8231
 9469TIP3   OH252601   3.902   5.026   2.701 -0.8271  0.0699  1.2033
 9469TIP3    H152602   3.915   4.994   2.790 -0.0785 -0.1219  1.0309
 9469TIP3    H252603   3.947   5.110   2.699 -3.0225  1.3569  1.7384
 9470TIP3   OH252604   6.415   0.896   4.212 -0.1142  0.2211 -0.4406
 9470TIP3    H152605   6.379   0.884   4.124  1.5637  0.8792 -1.2501
 9470TIP3    H252606   6.475   0.822   4.223 -1.3604 -0.6776  0.7665
 9471TIP3   OH252607   3.154   5.452   3.156  0.2113 -0.4002 -0.9858
 9471TIP3    H152608   3.060   5.465   3.146  0.0402 -0.5012  0.2481
 9471TIP3    H252609   3.167   5.358   3.146 -0.3367 -0.8931  2.0541
 9472TIP3   OH252610   0.909   4.612   4.889 -0.5201 -0.3140 -0.1461
 9472TIP3    H152611   0.834   4.630   4.832 -0.0898 -0.7456 -0.8670
 9472TIP3    H252612   0.971   4.682   4.871 -1.2014  0.7092  1.3073
 9473TIP3   OH252613   1.695   2.618   2.151  0.5645 -0.3276 -0.1955
 9473TIP3    H152614   1.613   2.656   2.182  0.0263 -1.7032  0.1578
 9473TIP3    H252615   1.763   2.675   2.185 -0.2180  0.5237 -0.0302
 9474TIP3   OH252616   1.871   2.305   4.651 -0.4836 -0.3180  0.5921
 9474TIP3    H152617   1.908   2.261   4.727 -0.1883 -1.2388 -0.0798
 9474TIP3    H252618   1.780   2.323   4.676 -0.9798 -2.4178  0.4317
 9475TIP3   OH252619   4.390   1.203   4.669  0.1165 -0.2749 -0.0582
 9475TIP3    H152620   4.410   1.171   4.757  0.1103 -1.2782 -0.4134
 9475TIP3    H252621   4.467   1.253   4.643  0.7444 -1.2059 -0.0505
 9476TIP3   OH252622   1.109   4.205   5.107  0.2036 -0.0264  0.2278
 9476TIP3    H152623   1.051   4.216   5.182 -0.1351 -0.8142  0.0946
 9476TIP3    H252624   1.131   4.112   5.107  0.1750 -0.0488 -0.6578
 9477TIP3   OH252625   3.585   3.899   2.710  0.3976 -0.3825  0.1078
 9477TIP3    H152626   3.544   3.971   2.662  2.1448  1.1086  0.7515
 9477TIP3    H252627   3.546   3.820   2.672 -0.4963  0.8348 -1.6479
 9478TIP3   OH252628   4.387   6.293   2.718 -0.1812 -0.2915 -0.1722
 9478TIP3    H152629   4.333   6.241   2.778 -2.8348  1.4810 -0.8629
 9478TIP3    H252630   4.477   6.270   2.741 -1.1412 -1.6557  2.6608
 9479TIP3   OH252631   6.743   2.015   4.346  0.7351  0.4396  0.2677
 9479TIP3    H152632   6.650   2.034   4.352  0.6087  0.0267 -0.4424
 9479TIP3    H252633   6.768   2.039   4.257  1.0050 -0.7714 -0.0056
 9480TIP3   OH252634   4.792   4.263   2.692  0.0961  0.0336  0.2764
 9480TIP3    H152635   4.755   4.175   2.686  0.4680 -0.0919 -0.2558
 9480TIP3    H252636   4.847   4.271   2.614 -0.2718  0.8963  0.0991
 9481TIP3   OH252637   2.854   0.987   2.068  0.0645 -0.6468  0.1812
 9481TIP3    H152638   2.933   1.026   2.104 -0.5819  2.4107 -1.3605
 9481TIP3    H252639   2.884   0.934   1.994  0.7235 -0.0389  0.0070
 9482TIP3   OH252640   3.384   0.661   5.504  0.4989  0.0378 -0.5401
 9482TIP3    H152641   3.421   0.733   5.454 -0.7898  0.2307 -1.2639
 9482TIP3    H252642   3.352   0.600   5.438 -0.2752 -0.2099  0.0531
 9483TIP3   OH252643   4.516   3.994   2.692 -0.3380  0.1867 -0.0109
 9483TIP3    H152644   4.507   3.990   2.787  0.1464  1.2299  0.0880
 9483TIP3    H252645   4.427   3.983   2.659 -0.5060 -0.2267  0.5507
 9484TIP3   OH252646   5.180   2.346   4.632  0.1004  0.3907 -0.6434
 9484TIP3    H152647   5.200   2.437   4.654 -0.4510  0.1717  0.8689
 9484TIP3    H252648   5.228   2.295   4.697 -3.8916 -0.2056  2.2146
 9485TIP3   OH252649   0.551   1.875   1.961 -0.0676  0.0508 -0.3651
 9485TIP3    H152650   0.566   1.936   1.888  2.1124 -0.7335 -0.6416
 9485TIP3    H252651   0.540   1.790   1.919  1.4860 -0.4571  0.1863
 9486TIP3   OH252652   3.839   5.864   2.958  0.3931 -0.1634 -0.4356
 9486TIP3    H152653   3.933   5.871   2.944  0.4527 -0.4412 -0.1639
 9486TIP3    H252654   3.829   5.806   3.033  0.1062  1.8462  1.1659
 9487TIP3   OH252655   5.585   2.265   4.045  0.0704 -0.0349  0.8892
 9487TIP3    H152656   5.622   2.353   4.042  0.7798 -0.3537 -0.0271
 9487TIP3    H252657   5.493   2.277   4.022  0.6154  0.2502 -1.3356
 9488TIP3   OH252658   3.879   2.555   5.349 -0.3605 -0.1861  0.5429
 9488TIP3    H152659   3.908   2.639   5.313 -3.0527  0.5107 -0.2347
 9488TIP3    H252660   3.924   2.548   5.433  2.1507  0.5838 -0.6212
 9489TIP3   OH252661   1.470   3.895   3.237 -0.3206  0.4821  0.2787
 9489TIP3    H152662   1.423   3.841   3.300 -0.6448  0.6994  0.2262
 9489TIP3    H252663   1.403   3.926   3.176  0.0039  0.1914 -0.2339
 9490TIP3   OH252664   5.598   5.209   5.488 -0.3745  0.0259  0.0762
 9490TIP3    H152665   5.608   5.135   5.428  1.2311  0.5301 -0.3271
 9490TIP3    H252666   5.559   5.171   5.567 -1.0992 -0.9276 -0.7238
 9491TIP3   OH252667   3.033   0.091   3.920 -0.6075  0.2208 -0.1731
 9491TIP3    H152668   3.105   0.028   3.913 -0.6774  0.1952 -0.7434
 9491TIP3    H252669   2.985   0.065   3.999 -0.6886 -0.4978 -0.4517
 9492TIP3   OH252670   1.234   1.529   3.778  0.3358  0.3772 -0.7697
 9492TIP3    H152671   1.183   1.565   3.706  0.2353  1.2752 -0.2668
 9492TIP3    H252672   1.201   1.574   3.856  2.8561  2.1105 -0.5830
 9493TIP3   OH252673   2.048   0.308   2.469 -0.1954 -0.1288  0.0186
 9493TIP3    H152674   2.048   0.280   2.378  0.5551  0.6116 -0.2226
 9493TIP3    H252675   2.140   0.323   2.490 -0.1597 -2.0199  1.4560
 9494TIP3   OH252676   6.750   5.966   4.698 -0.2538  0.1928  0.9294
 9494TIP3    H152677   6.683   6.011   4.750  0.4901  0.8048  1.3856
 9494TIP3    H252678   6.728   5.988   4.608 -1.3810 -0.6282  0.9937
 9495TIP3   OH252679   0.631   4.914   3.426 -0.2646  0.6115  0.3081
 9495TIP3    H152680   0.725   4.903   3.441 -0.2856  0.3307  0.2304
 9495TIP3    H252681   0.594   4.827   3.438 -0.4200  0.5746 -0.3665
 9496TIP3   OH252682   1.390   6.089   2.978 -0.5373 -0.0089  0.3760
 9496TIP3    H152683   1.427   6.144   2.909  2.0659 -1.0689  0.7812
 9496TIP3    H252684   1.411   6.135   3.060  1.9724 -1.5889  0.7412
 9497TIP3   OH252685   2.392   1.908   4.148 -0.5714 -0.1230  0.3744
 9497TIP3    H152686   2.384   1.814   4.163 -1.0046 -0.0561  0.5715
 9497TIP3    H252687   2.430   1.916   4.060 -2.7334 -0.4570 -0.6468
 9498TIP3   OH252688   3.510   0.547   1.859  0.6286 -0.6623  0.4704
 9498TIP3    H152689   3.537   0.591   1.778 -0.5270 -2.2065 -0.8129
 9498TIP3    H252690   3.495   0.456   1.834 -2.4396 -0.6461  1.7501
 9499TIP3   OH252691   1.350   1.115   2.064  0.2412  0.0246 -0.1117
 9499TIP3    H152692   1.295   1.042   2.037  1.0522 -0.5651 -0.2193
 9499TIP3    H252693   1.421   1.075   2.114  0.7181  0.7331 -0.1972
 9500TIP3   OH252694   0.717   5.497   2.997 -0.5083  0.5107  0.5740
 9500TIP3    H152695   0.649   5.496   3.065 -0.8299 -2.2265  0.3185
 9500TIP3    H252696   0.773   5.570   3.020 -1.7361  0.8785  2.6423
 9501TIP3   OH252697   2.484   0.811   2.974 -0.7419 -0.1365  0.3215
 9501TIP3    H152698   2.511   0.869   3.046  1.3916  0.2175 -0.6950
 9501TIP3    H252699   2.520   0.726   2.997  1.3474  0.3254 -1.0215
 9502TIP3   OH252700   6.462   1.193   2.405  0.1228 -0.0236  0.2384
 9502TIP3    H152701   6.402   1.127   2.372 -0.5720  0.3010  0.8001
 9502TIP3    H252702   6.521   1.212   2.332 -2.4989  2.0455 -1.5607
 9503TIP3   OH252703   3.640   2.814   2.756  0.2585 -0.4704  0.0376
 9503TIP3    H152704   3.629   2.870   2.833 -0.4994 -0.1940 -0.2711
 9503TIP3    H252705   3.585   2.854   2.689 -1.2548 -2.2387  0.1576
 9504TIP3   OH252706   0.750   3.259   3.389  0.0813  0.3996  0.1018
 9504TIP3    H152707   0.829   3.312   3.380 -0.3968  0.9901 -0.8371
 9504TIP3    H252708   0.718   3.249   3.299 -1.6550  1.3408  0.5769
 9505TIP3   OH252709   0.636   1.102   3.125  0.3812  0.0808  0.5280
 9505TIP3    H152710   0.727   1.093   3.099 -0.0523 -0.6655 -0.8792
 9505TIP3    H252711   0.610   1.188   3.092 -0.1942 -0.8983 -1.8605
 9506TIP3   OH252712   3.166   4.695   5.246  0.2456 -0.0365  0.0167
 9506TIP3    H152713   3.191   4.704   5.337 -0.5150 -0.3255  0.2675
 9506TIP3    H252714   3.093   4.633   5.247 -0.4827  0.7706 -0.6650
 9507TIP3   OH252715   5.183   5.935   5.255 -0.7850 -0.1811 -0.5039
 9507TIP3    H152716   5.131   5.854   5.261  1.7053 -1.9065 -0.7311
 9507TIP3    H252717   5.179   5.959   5.162 -0.0671 -1.1279 -0.7961
 9508TIP3   OH252718   5.314   1.556   4.456 -0.3984 -0.0552  0.0600
 9508TIP3    H152719   5.352   1.629   4.406  0.4576 -1.0748 -0.8246
 9508TIP3    H252720   5.227   1.586   4.480 -0.3462  0.9677 -0.9505
 9509TIP3   OH252721   2.969   1.418   2.162 -0.1450  0.1317 -0.1011
 9509TIP3    H152722   3.000   1.504   2.133 -1.2100  0.9991  1.1891
 9509TIP3    H252723   2.878   1.413   2.130 -0.6234  0.2065  1.1914
 9510TIP3   OH252724   2.453   3.610   2.986  0.0016  0.5673  0.5780
 9510TIP3    H152725   2.458   3.692   2.937  1.8665  0.4658  0.5091
 9510TIP3    H252726   2.461   3.636   3.078 -1.8913  0.6232  0.7705
 9511TIP3   OH252727   0.738   1.410   3.483  0.4933  0.6586 -0.8706
 9511TIP3    H152728   0.754   1.475   3.551 -1.0646  0.5278 -0.3245
 9511TIP3    H252729   0.687   1.457   3.417 -0.6481  0.0443 -0.4727
 9512TIP3   OH252730   2.748   2.749   2.571 -0.1865  0.3131  1.2589
 9512TIP3    H152731   2.841   2.765   2.590 -0.2248  0.0086  1.7025
 9512TIP3    H252732   2.740   2.654   2.565 -0.4476  0.3437  1.1185
 9513TIP3   OH252733   0.355   6.714   4.422  0.0265  0.6434 -0.4108
 9513TIP3    H152734   0.368   6.735   4.514 -0.0166  0.6811 -0.4128
 9513TIP3    H252735   0.416   6.643   4.404  0.0446  0.6455 -0.3566
 9514TIP3   OH252736   2.439   6.753   5.045  0.1447 -0.2025 -0.9752
 9514TIP3    H152737   2.345   6.743   5.033  0.1299 -1.4535  0.0328
 9514TIP3    H252738   2.456   6.721   5.134  1.8485 -2.3365 -1.9856
 9515TIP3   OH252739   1.853   4.974   2.171  0.3630  0.3113  0.5827
 9515TIP3    H152740   1.802   4.894   2.157 -0.2337  0.6566  0.7584
 9515TIP3    H252741   1.830   5.002   2.259  0.2301  0.9237  0.3556
 9516TIP3   OH252742   1.140   6.276   3.436  0.5565  0.4545  0.5698
 9516TIP3    H152743   1.048   6.291   3.415  0.7406  0.5289 -0.2229
 9516TIP3    H252744   1.181   6.362   3.425  1.0050  0.0928 -0.6769
 9517TIP3   OH252745   1.158   2.743   4.259 -0.0859  0.3500 -0.0647
 9517TIP3    H152746   1.178   2.786   4.342 -1.9493  1.2810 -0.0394
 9517TIP3    H252747   1.217   2.668   4.256  1.0052  1.0911  1.4228
 9518TIP3   OH252748   5.705   6.515   2.579  0.1844 -0.2467 -0.1013
 9518TIP3    H152749   5.656   6.452   2.525 -0.5075  1.4563 -1.5565
 9518TIP3    H252750   5.789   6.524   2.534  0.2533 -0.0978  0.0592
 9519TIP3   OH252751   1.223   2.905   3.456 -0.2208  0.5516 -0.3080
 9519TIP3    H152752   1.297   2.964   3.474  0.5340 -0.4885  0.0845
 9519TIP3    H252753   1.259   2.838   3.398 -1.0191  0.3436 -0.5835
 9520TIP3   OH252754   2.333   5.292   5.040 -0.3659 -0.2425 -0.2621
 9520TIP3    H152755   2.392   5.354   5.082 -0.8129  0.9609 -1.3149
 9520TIP3    H252756   2.381   5.210   5.038 -0.3782 -0.4179  2.6394
 9521TIP3   OH252757   0.118   2.591   4.552  0.3048 -0.0237 -0.1009
 9521TIP3    H152758   0.213   2.577   4.559  0.2222 -0.5104  0.1403
 9521TIP3    H252759   0.080   2.505   4.573 -0.2154  0.3908  0.6783
 9522TIP3   OH252760   4.524   5.177   3.416  0.2628  0.4566 -0.0440
 9522TIP3    H152761   4.482   5.262   3.432 -1.2601 -0.2832  0.0515
 9522TIP3    H252762   4.590   5.196   3.348 -0.0915  1.6982 -0.0710
 9523TIP3   OH252763   0.004   2.443   5.233  0.3804 -0.1952  0.1762
 9523TIP3    H152764   0.062   2.519   5.234  0.5131 -0.2942  1.5167
 9523TIP3    H252765   0.034   2.391   5.159  0.6381  0.7894 -0.4288
 9524TIP3   OH252766   5.704   1.520   4.850  0.0443 -0.2816 -0.6565
 9524TIP3    H152767   5.675   1.506   4.940 -0.5057  0.2127 -0.7515
 9524TIP3    H252768   5.625   1.514   4.797  0.4408 -1.1431 -1.1875
 9525TIP3   OH252769   5.002   1.677   2.949 -0.3878 -0.1078 -0.8311
 9525TIP3    H152770   5.089   1.716   2.941 -0.1512 -0.6993 -1.2618
 9525TIP3    H252771   4.994   1.653   3.041 -0.2110  0.2040 -0.7328
 9526TIP3   OH252772   0.133   3.795   3.670  0.3506  0.5599 -0.6645
 9526TIP3    H152773   0.113   3.771   3.580  3.3010  0.9234 -1.5226
 9526TIP3    H252774   0.171   3.716   3.709  0.3916  0.8038 -0.1975
 9527TIP3   OH252775   5.028   5.685   2.389 -0.0067 -0.0411 -0.1755
 9527TIP3    H152776   5.039   5.636   2.470 -0.6144 -0.2987 -0.2477
 9527TIP3    H252777   5.113   5.729   2.377  0.0042  0.2274  0.7427
 9528TIP3   OH252778   3.379   0.291   4.377 -0.6816 -0.4669  0.6122
 9528TIP3    H152779   3.318   0.240   4.324  0.1436  0.0634 -0.8862
 9528TIP3    H252780   3.460   0.294   4.326 -0.0294  0.5502  1.6448
 9529TIP3   OH252781   5.660   0.401   3.689 -0.2461  0.2785 -0.1500
 9529TIP3    H152782   5.749   0.369   3.671 -0.4553 -0.7926  0.6584
 9529TIP3    H252783   5.607   0.369   3.616 -0.6766 -2.2764  1.1618
 9530TIP3   OH252784   6.075   0.711   3.163  0.1406  0.3877 -0.1926
 9530TIP3    H152785   6.079   0.663   3.246 -0.2204 -0.3835 -0.6065
 9530TIP3    H252786   6.100   0.801   3.185 -0.0419  0.2084  0.7606
 9531TIP3   OH252787   1.025   5.827   3.308 -0.7195  0.0558  0.3639
 9531TIP3    H152788   1.004   5.782   3.390  1.4756  1.3545  1.7340
 9531TIP3    H252789   1.099   5.884   3.330 -0.1707  0.5967 -2.4958
 9532TIP3   OH252790   3.000   2.272   2.174  0.2603  0.0226  0.1198
 9532TIP3    H152791   3.013   2.198   2.233  0.2178 -0.4565 -0.4645
 9532TIP3    H252792   3.077   2.327   2.188 -0.1576  0.3521  1.2434
 9533TIP3   OH252793   6.791   4.123   3.332  0.3738  0.0223  0.4280
 9533TIP3    H152794   6.843   4.046   3.307 -0.7814 -0.7010  0.1589
 9533TIP3    H252795   6.746   4.097   3.412 -1.4473 -0.3075 -0.6371
 9534TIP3   OH252796   3.693   3.733   4.664 -0.3704  0.1782  0.3745
 9534TIP3    H152797   3.761   3.675   4.630  1.0802  1.2203  1.3411
 9534TIP3    H252798   3.716   3.819   4.629 -2.2915  0.2831 -0.7773
 9535TIP3   OH252799   1.763   6.581   2.197 -0.7440 -0.3048  0.1174
 9535TIP3    H152800   1.807   6.497   2.186 -2.4310 -1.6011  2.4862
 9535TIP3    H252801   1.726   6.578   2.285 -1.2244  2.7760  0.1397
 9536TIP3   OH252802   5.558   2.424   3.299  0.3247 -0.4763  0.1397
 9536TIP3    H152803   5.558   2.371   3.219  0.9443  1.8782 -1.5091
 9536TIP3    H252804   5.644   2.466   3.301 -0.6029  1.5308  0.5937
 9537TIP3   OH252805   5.095   2.978   2.425  0.0394  0.1986 -0.5711
 9537TIP3    H152806   5.014   2.966   2.377  0.5101 -0.9038 -1.1222
 9537TIP3    H252807   5.068   3.018   2.508 -1.1458 -0.7388 -0.4691
 9538TIP3   OH252808   4.714   5.163   3.213  0.3658 -0.1671  0.3575
 9538TIP3    H152809   4.650   5.160   3.142  0.6115 -0.8530  0.1528
 9538TIP3    H252810   4.758   5.247   3.202 -0.3322  0.2069  0.3548
 9539TIP3   OH252811   1.349   2.534   4.075 -0.3047  0.2549 -0.1103
 9539TIP3    H152812   1.333   2.462   4.136 -0.8488 -0.9819 -1.6470
 9539TIP3    H252813   1.367   2.492   3.991 -0.1654  1.9029 -0.9588
 9540TIP3   OH252814   2.313   1.357   3.999  0.7444  0.0279 -0.8120
 9540TIP3    H152815   2.335   1.268   3.970  0.8724 -1.3852  3.0722
 9540TIP3    H252816   2.397   1.402   4.003  1.4256 -1.2861  1.6815
 9541TIP3   OH252817   6.076   3.837   3.936  0.2379 -0.3772 -0.0299
 9541TIP3    H152818   6.152   3.780   3.920  0.2696 -0.1626 -0.6997
 9541TIP3    H252819   6.033   3.844   3.851 -0.0377  0.2105  0.1485
 9542TIP3   OH252820   5.878   2.230   4.595  0.0227  0.0054  0.0780
 9542TIP3    H152821   5.838   2.269   4.517  2.3051  0.1416 -1.1327
 9542TIP3    H252822   5.955   2.184   4.561  0.7395 -0.4611  2.1999
 9543TIP3   OH252823   5.158   6.481   4.200  0.2020  0.4429  0.0360
 9543TIP3    H152824   5.145   6.394   4.238 -0.7057  0.0017 -1.2041
 9543TIP3    H252825   5.083   6.532   4.229  0.7616  0.8374  0.8052
 9544TIP3   OH252826   0.731   1.825   4.466  0.2582  0.0012  0.1563
 9544TIP3    H152827   0.756   1.768   4.539 -0.5779  0.1905  0.5992
 9544TIP3    H252828   0.706   1.765   4.396  0.1734 -0.1840  0.3438
 9545TIP3   OH252829   4.422   1.261   3.100  0.4424 -0.2076 -0.7550
 9545TIP3    H152830   4.411   1.248   3.005 -2.5135 -1.5975 -0.3435
 9545TIP3    H252831   4.447   1.174   3.132 -0.0141 -0.1033 -0.1128
 9546TIP3   OH252832   4.061   0.490   4.318 -0.0743  0.5137  0.3541
 9546TIP3    H152833   4.131   0.425   4.321  1.7428  2.3407 -0.0309
 9546TIP3    H252834   4.012   0.477   4.399 -0.2597 -1.7676 -0.0560
 9547TIP3   OH252835   3.574   1.351   2.453  1.0217  0.0794 -0.7619
 9547TIP3    H152836   3.620   1.276   2.416 -1.3978 -2.2187  0.5740
 9547TIP3    H252837   3.634   1.387   2.518  2.0041 -1.0574 -1.0129
 9548TIP3   OH252838   6.013   2.913   2.552  0.0097  0.1439  0.1997
 9548TIP3    H152839   5.985   2.890   2.464 -1.5343 -0.6322  0.8587
 9548TIP3    H252840   5.961   2.991   2.573 -0.4454 -0.3100  0.8023
 9549TIP3   OH252841   6.413   3.242   4.314 -0.4792  0.5899  0.3010
 9549TIP3    H152842   6.347   3.256   4.246 -0.9691 -0.5838  0.5188
 9549TIP3    H252843   6.480   3.188   4.273 -0.6610  0.0726  0.6708
 9550TIP3   OH252844   0.331   6.031   3.744  0.9179 -0.2667  1.1456
 9550TIP3    H152845   0.350   5.947   3.787 -0.1350 -0.8816  0.4520
 9550TIP3    H252846   0.236   6.031   3.733  0.9544  0.8193  0.7083
 9551TIP3   OH252847   6.515   0.909   2.008 -0.7830  0.0716  0.0246
 9551TIP3    H152848   6.563   0.834   1.972 -0.1596  0.8831 -0.9134
 9551TIP3    H252849   6.456   0.935   1.937 -1.2959  0.2050  0.5000
 9552TIP3   OH252850   6.377   0.658   2.038  0.1657  0.1643 -0.2917
 9552TIP3    H152851   6.454   0.697   2.080  0.1593  0.6930 -0.7483
 9552TIP3    H252852   6.317   0.732   2.025 -0.5441 -0.2949  0.3223
 9553TIP3   OH252853   6.019   2.664   2.664 -0.2833  0.0680 -0.4412
 9553TIP3    H152854   5.943   2.670   2.722  1.5424 -0.6194  2.2192
 9553TIP3    H252855   6.046   2.755   2.650 -0.1398  0.2223  0.7197
 9554TIP3   OH252856   3.845   3.930   2.730  0.4235 -0.4071 -0.4132
 9554TIP3    H152857   3.750   3.919   2.729  0.3769 -0.2231  0.6029
 9554TIP3    H252858   3.860   4.002   2.791  1.2233 -0.5325 -0.4545
 9555TIP3   OH252859   1.190   4.472   3.376  0.1815 -0.1397  1.0897
 9555TIP3    H152860   1.122   4.442   3.436 -0.8889  2.3343  1.2427
 9555TIP3    H252861   1.155   4.456   3.289  0.4345 -0.9994  1.1424
 9556TIP3   OH252862   0.041   0.199   2.162  0.0773  0.0613  0.1847
 9556TIP3    H152863   0.009   0.289   2.153 -0.2199 -0.0683 -0.0737
 9556TIP3    H252864  -0.011   0.162   2.233 -0.2862 -0.1226 -0.1772
 9557TIP3   OH252865   4.826   4.616   4.521 -0.2995 -0.1328 -0.4724
 9557TIP3    H152866   4.840   4.640   4.429 -0.2556  1.8771  0.0034
 9557TIP3    H252867   4.746   4.664   4.545  1.3827  1.9652  1.3430
 9558TIP3   OH252868   4.528   0.284   5.155  0.3160  0.5378 -0.1977
 9558TIP3    H152869   4.449   0.237   5.129  1.2866 -0.9199 -0.6408
 9558TIP3    H252870   4.504   0.329   5.236 -1.0766  0.4677 -0.5420
 9559TIP3   OH252871   5.331   2.927   4.090 -0.0035  0.0302  0.7559
 9559TIP3    H152872   5.308   2.980   4.014 -1.5773 -1.7806 -0.1138
 9559TIP3    H252873   5.255   2.933   4.148  0.0712 -0.7198  0.9452
 9560TIP3   OH252874   3.892   2.489   4.497 -0.1325 -0.0833  0.1996
 9560TIP3    H152875   3.915   2.499   4.404 -1.0024 -3.2300 -0.4754
 9560TIP3    H252876   3.956   2.426   4.530 -0.3748  0.3446  1.5362
 9561TIP3   OH252877   4.660   3.974   3.488 -0.5060 -0.4130  0.1612
 9561TIP3    H152878   4.687   3.901   3.544 -1.2957  0.5775  1.8931
 9561TIP3    H252879   4.737   4.030   3.482 -0.6266 -0.1814  0.8057
 9562TIP3   OH252880   2.649   3.648   3.730 -0.8522 -0.1965 -0.1493
 9562TIP3    H152881   2.555   3.635   3.729 -0.9206  0.2037 -1.7969
 9562TIP3    H252882   2.685   3.559   3.728 -1.1258 -0.4145  1.9132
 9563TIP3   OH252883   4.035   6.745   3.518  0.1204  0.0024 -0.6428
 9563TIP3    H152884   4.036   6.804   3.442  0.1344 -0.1654 -0.7738
 9563TIP3    H252885   3.942   6.730   3.536  0.1164 -0.3504 -0.9363
 9564TIP3   OH252886   6.301   6.026   3.191 -0.4159 -0.0473 -0.0086
 9564TIP3    H152887   6.366   6.079   3.146 -1.0092 -1.1376 -2.2880
 9564TIP3    H252888   6.233   6.088   3.217  1.2593  1.0478  2.0836
 9565TIP3   OH252889   5.570   5.496   4.946 -0.5033 -0.2187  0.2174
 9565TIP3    H152890   5.614   5.580   4.955 -1.4653  0.3173  0.1294
 9565TIP3    H252891   5.491   5.516   4.896 -0.4803 -1.2758 -0.2719
 9566TIP3   OH252892   4.320   6.664   2.185  0.4576  0.2809 -0.5328
 9566TIP3    H152893   4.336   6.648   2.092  0.0020  0.9996 -0.7422
 9566TIP3    H252894   4.235   6.624   2.201 -0.3727  1.8104 -0.9009
 9567TIP3   OH252895   5.630   5.601   2.553 -0.0037 -0.1838 -0.0733
 9567TIP3    H152896   5.544   5.561   2.542 -1.8243  3.4563 -0.4562
 9567TIP3    H252897   5.665   5.607   2.464 -0.3994  0.3537 -0.1995
 9568TIP3   OH252898   5.195   0.010   4.998 -0.2955 -0.0757  0.4857
 9568TIP3    H152899   5.122   0.057   4.958 -1.4455 -1.6787  0.5996
 9568TIP3    H252900   5.172   0.004   5.091  0.9309  1.0317  0.9046
 9569TIP3   OH252901   3.444   6.798   3.662 -0.0733 -0.1865  0.2204
 9569TIP3    H152902   3.487   6.880   3.689 -1.3124  0.4919  0.2107
 9569TIP3    H252903   3.455   6.795   3.567  0.7739 -0.5133  0.3205
 9570TIP3   OH252904   5.320   0.868   2.496  0.4638 -0.0191  0.0323
 9570TIP3    H152905   5.324   0.848   2.589 -0.4220 -1.8327 -0.2728
 9570TIP3    H252906   5.388   0.934   2.482  1.6387 -0.8217  1.6805
 9571TIP3   OH252907   6.678   6.176   4.453  0.0872 -0.3647 -0.0375
 9571TIP3    H152908   6.696   6.246   4.516  1.3536 -0.2028 -0.5658
 9571TIP3    H252909   6.588   6.192   4.425  0.3402  1.0368 -0.1167
 9572TIP3   OH252910   3.383   2.675   3.965 -0.2220 -0.1716 -0.1700
 9572TIP3    H152911   3.332   2.653   4.043  0.2745 -0.4920  0.0726
 9572TIP3    H252912   3.324   2.656   3.892 -0.0646 -1.6782  0.0631
 9573TIP3   OH252913   0.136   3.250   4.007  0.1170 -0.5891 -0.0920
 9573TIP3    H152914   0.099   3.166   4.034 -0.2237 -0.4330 -0.0603
 9573TIP3    H252915   0.140   3.245   3.912 -0.4973 -0.4004 -0.1302
 9574TIP3   OH252916   3.853   3.109   4.376  0.2438  0.5494 -1.0753
 9574TIP3    H152917   3.788   3.147   4.317 -2.1986 -0.8408  0.5561
 9574TIP3    H252918   3.860   3.018   4.350  1.0415  0.5235 -0.8016
 9575TIP3   OH252919   1.584   1.052   1.695  0.2299  0.2620  0.1149
 9575TIP3    H152920   1.559   0.967   1.731  0.8506  0.9746  2.4124
 9575TIP3    H252921   1.501   1.099   1.685  0.0207 -0.0120  0.5440
 9576TIP3   OH252922   1.509   3.912   2.001  0.2564 -0.0092 -0.3317
 9576TIP3    H152923   1.453   3.939   2.074 -1.0772 -0.4099 -1.1780
 9576TIP3    H252924   1.536   3.994   1.960  2.0583  0.2932  1.3133
 9577TIP3   OH252925   2.520   4.410   3.234 -0.5606 -0.3496 -0.2015
 9577TIP3    H152926   2.527   4.475   3.304  0.5533  1.7157 -2.0706
 9577TIP3    H252927   2.474   4.336   3.274 -3.6609  2.2737  1.6404
 9578TIP3   OH252928   3.750   6.220   3.964  0.6022  0.2987 -0.1066
 9578TIP3    H152929   3.815   6.215   3.894 -0.3275  1.6593 -1.1202
 9578TIP3    H252930   3.671   6.252   3.921 -0.2352  0.3867  1.4210
 9579TIP3   OH252931   4.041   1.174   3.463 -0.1462  0.0551  0.2363
 9579TIP3    H152932   4.008   1.194   3.375 -0.3596 -0.9385  0.0774
 9579TIP3    H252933   3.963   1.171   3.518 -0.1287 -0.4225  0.2365
 9580TIP3   OH252934   0.145   0.953   1.919 -0.7604 -0.2108 -0.3877
 9580TIP3    H152935   0.222   0.897   1.911 -0.7583 -0.2521 -0.1029
 9580TIP3    H252936   0.140   0.973   2.013 -0.1961  1.0650 -0.6075
 9581TIP3   OH252937   0.392   1.399   3.209 -0.0065 -0.1583  0.6949
 9581TIP3    H152938   0.390   1.314   3.253 -0.3141  0.0170  1.0158
 9581TIP3    H252939   0.478   1.401   3.166 -1.0529 -1.8546 -1.7001
 9582TIP3   OH252940   3.802   5.296   3.854  0.0247 -0.1222 -0.2284
 9582TIP3    H152941   3.709   5.288   3.873  0.1622 -1.6950 -0.0502
 9582TIP3    H252942   3.832   5.369   3.909 -1.0705  0.3529 -0.2371
 9583TIP3   OH252943   1.144   3.421   2.398  0.2773 -1.0268 -0.1025
 9583TIP3    H152944   1.076   3.468   2.446 -0.9134 -1.3832 -1.3781
 9583TIP3    H252945   1.097   3.351   2.352  1.7825 -2.5667  0.5521
 9584TIP3   OH252946   0.419   1.326   2.754  0.3199 -0.7136 -0.3536
 9584TIP3    H152947   0.382   1.382   2.685 -2.1134 -1.5879  0.1523
 9584TIP3    H252948   0.453   1.388   2.819 -0.7177  0.1864 -0.6386
 9585TIP3   OH252949   2.722   4.165   5.063 -0.2163  0.3688 -0.0711
 9585TIP3    H152950   2.763   4.249   5.086  0.4955  0.0830 -0.2654
 9585TIP3    H252951   2.675   4.182   4.982 -0.3850  0.6683  0.0848
 9586TIP3   OH252952   3.707   2.182   3.202 -0.3215  0.4624 -0.5200
 9586TIP3    H152953   3.688   2.190   3.108  1.2635 -0.9652 -1.0049
 9586TIP3    H252954   3.681   2.093   3.224 -0.2260  0.6311  0.3071
 9587TIP3   OH252955   2.751   4.947   3.282  0.4423  0.0251 -0.3780
 9587TIP3    H152956   2.823   4.949   3.344 -0.3126 -2.0472  0.6396
 9587TIP3    H252957   2.677   4.985   3.331  0.3746  0.4249 -0.7822
 9588TIP3   OH252958   3.321   1.100   3.808 -0.1623  0.5733  0.3299
 9588TIP3    H152959   3.293   1.188   3.780  1.6079  0.7536 -1.0464
 9588TIP3    H252960   3.275   1.041   3.748  0.3400  0.7138 -0.2060
 9589TIP3   OH252961   2.928   3.751   4.559 -0.0753  0.0304 -0.1867
 9589TIP3    H152962   2.986   3.814   4.602 -2.3146  1.4780  0.9377
 9589TIP3    H252963   2.914   3.787   4.472 -0.5880  0.5968  0.1224
 9590TIP3   OH252964   2.706   3.059   2.428  0.3622 -0.1486  0.1027
 9590TIP3    H152965   2.778   3.016   2.474 -0.7695 -0.2413  1.8945
 9590TIP3    H252966   2.642   2.990   2.414 -0.8114  0.5622  1.6223
 9591TIP3   OH252967   6.000   5.540   2.338  0.1410  0.2985  1.2253
 9591TIP3    H152968   6.037   5.469   2.285 -0.1455  0.6130  0.5898
 9591TIP3    H252969   6.075   5.575   2.386  1.0781  2.0309 -1.3045
 9592TIP3   OH252970   1.377   3.542   2.323 -0.2363 -0.2215  0.0174
 9592TIP3    H152971   1.291   3.501   2.338 -0.7972  1.1228  0.6493
 9592TIP3    H252972   1.359   3.612   2.260  0.4930 -0.2057 -0.1768
 9593TIP3   OH252973   6.664   0.967   4.038  0.3505  0.6310  0.5092
 9593TIP3    H152974   6.687   1.012   4.119  1.4075  1.1949 -0.0837
 9593TIP3    H252975   6.721   0.891   4.035 -0.4968 -0.0329  0.8483
 9594TIP3   OH252976   0.786   2.634   4.438 -0.7403 -0.4260  0.1370
 9594TIP3    H152977   0.836   2.715   4.444  0.7598 -1.3346  0.5727
 9594TIP3    H252978   0.805   2.588   4.520  0.3589 -2.2407 -1.0626
 9595TIP3   OH252979   0.701   3.668   2.299  0.0158  0.6757 -0.0798
 9595TIP3    H152980   0.741   3.754   2.313  2.3001 -0.5156  1.0796
 9595TIP3    H252981   0.762   3.622   2.241 -1.6984  0.1272 -1.5672
 9596TIP3   OH252982   4.089   6.355   5.191 -0.0557 -0.4847  0.2100
 9596TIP3    H152983   4.077   6.319   5.278  0.6867 -0.9019  0.1469
 9596TIP3    H252984   4.040   6.296   5.134 -1.9586  0.7254  0.4981
 9597TIP3   OH252985   5.542   4.979   4.334 -0.3881  0.2620  0.0446
 9597TIP3    H152986   5.528   4.985   4.240 -0.0336 -1.3848 -0.1330
 9597TIP3    H252987   5.609   5.045   4.352 -0.3358  0.4779 -0.8787
 9598TIP3   OH252988   4.501   5.300   3.841 -0.1119 -0.1522  0.3051
 9598TIP3    H152989   4.560   5.265   3.907  1.3400 -1.1450 -1.4243
 9598TIP3    H252990   4.430   5.340   3.891  1.6756  0.5185  2.4668
 9599TIP3   OH252991   5.426   4.570   5.312 -0.1563  0.2585  0.3440
 9599TIP3    H152992   5.520   4.562   5.325  0.0996 -0.1145 -1.4623
 9599TIP3    H252993   5.398   4.485   5.279 -1.2846  0.1134  1.5803
 9600TIP3   OH252994   6.445   4.255   4.317  0.0277 -0.1984  0.0662
 9600TIP3    H152995   6.452   4.345   4.284  1.5489  0.3386  1.7092
 9600TIP3    H252996   6.401   4.263   4.401  0.0421 -1.0129  0.1571
 9601TIP3   OH252997   5.747   2.488   4.669 -0.2217 -0.1546  0.0756
 9601TIP3    H152998   5.810   2.421   4.643  0.7137  0.4808  0.6472
 9601TIP3    H252999   5.747   2.551   4.596  1.4181  0.9382  0.9421
 9602TIP3   OH253000   2.525   1.336   3.168  0.2094  0.0390 -0.5586
 9602TIP3    H153001   2.577   1.256   3.167  0.3766  0.1432 -0.2188
 9602TIP3    H253002   2.436   1.307   3.145  0.5766 -0.0168 -1.9661
 9603TIP3   OH253003   2.636   3.478   4.008  0.0772 -0.5286  0.0901
 9603TIP3    H153004   2.643   3.478   3.912  1.8078 -0.4052  0.1848
 9603TIP3    H253005   2.647   3.387   4.033 -2.0618 -0.8423  0.1326
 9604TIP3   OH253006   2.348   6.239   4.198 -0.1331 -0.8377  0.4172
 9604TIP3    H153007   2.440   6.219   4.216 -0.4105 -0.4123  2.6113
 9604TIP3    H253008   2.300   6.193   4.266 -1.1975  2.3375  2.0435
 9605TIP3   OH253009   4.184   5.395   4.433  0.1338  0.0858 -0.3669
 9605TIP3    H153010   4.257   5.385   4.373 -0.7922  1.0239 -1.7019
 9605TIP3    H253011   4.120   5.330   4.406  0.7337 -1.2635  1.2809
 9606TIP3   OH253012   5.930   2.789   4.640 -0.5304  0.0988  0.0295
 9606TIP3    H153013   5.921   2.769   4.733  1.2348 -1.8176 -0.1336
 9606TIP3    H253014   6.014   2.750   4.616 -0.7356  0.9554 -2.2743
 9607TIP3   OH253015   2.439   4.748   1.878  0.3594  0.5722 -0.0274
 9607TIP3    H153016   2.419   4.842   1.881 -0.1068  0.4857 -0.4014
 9607TIP3    H253017   2.476   4.735   1.790 -0.9307  0.1440 -0.5328
 9608TIP3   OH253018   3.229   2.544   3.282 -0.4169 -0.2415 -0.0001
 9608TIP3    H153019   3.143   2.573   3.251  0.0840 -0.2805 -1.5285
 9608TIP3    H253020   3.229   2.449   3.265 -0.0787 -0.2429  0.0027
 9609TIP3   OH253021   4.884   0.001   4.858 -0.0746 -0.3909 -0.3237
 9609TIP3    H153022   4.914   0.080   4.905  0.6946 -0.5081 -0.6152
 9609TIP3    H253023   4.868  -0.063   4.928 -1.2571  0.1850 -0.0323
 9610TIP3   OH253024   1.874   6.529   2.708 -0.3823  0.1765  0.4497
 9610TIP3    H153025   1.863   6.540   2.802  0.6968 -1.4222  0.7981
 9610TIP3    H253026   1.955   6.576   2.687 -0.9564  1.0766  0.1761
 9611TIP3   OH253027   3.040   1.075   2.632 -0.3067  0.0594  0.1985
 9611TIP3    H153028   3.060   1.075   2.726  1.6850 -3.5193 -0.0682
 9611TIP3    H253029   2.965   1.016   2.623 -0.4014  0.2786 -0.4791
 9612TIP3   OH253030   2.161   1.577   2.928  0.7013  0.1451  0.9983
 9612TIP3    H153031   2.147   1.487   2.897  0.6752  0.4310  0.1594
 9612TIP3    H253032   2.255   1.592   2.915  0.1858  1.4250 -2.2620
 9613TIP3   OH253033   3.339   3.007   3.223  0.0081 -0.2387  0.0350
 9613TIP3    H153034   3.349   2.916   3.248 -0.8564 -0.0888  0.9829
 9613TIP3    H253035   3.259   3.010   3.171 -1.0510  0.2387  1.5990
 9614TIP3   OH253036   3.546   1.025   2.588  0.0353  0.1970 -0.3269
 9614TIP3    H153037   3.611   1.065   2.530  0.3097  0.0337 -0.1383
 9614TIP3    H253038   3.595   1.008   2.669  0.0374 -0.9105 -0.5474
 9615TIP3   OH253039   4.804   6.668   5.079 -0.0339  0.2360  0.5865
 9615TIP3    H153040   4.773   6.643   5.166  1.0688 -0.4984  0.7873
 9615TIP3    H253041   4.804   6.587   5.029  1.3366  0.2470  0.5402
 9616TIP3   OH253042   3.486   0.107   5.011  0.2116  0.7446 -0.6360
 9616TIP3    H153043   3.401   0.145   4.987 -1.2430 -0.3994  2.2530
 9616TIP3    H253044   3.500   0.135   5.101  1.8870 -0.8459 -0.3473
 9617TIP3   OH253045   2.729   3.339   2.340 -0.1134 -0.1431 -0.4331
 9617TIP3    H153046   2.649   3.305   2.301 -1.2687  0.4584  1.2965
 9617TIP3    H253047   2.768   3.265   2.386 -1.9405  0.4082  2.2305
 9618TIP3   OH253048   3.349   0.575   2.088  0.2223  0.5138 -0.0129
 9618TIP3    H153049   3.377   0.558   1.998 -0.1199 -1.7343  0.2550
 9618TIP3    H253050   3.291   0.652   2.081  1.0340  1.0235 -1.5259
 9619TIP3   OH253051   6.579   4.079   2.329 -0.0931 -0.1773 -0.1198
 9619TIP3    H153052   6.561   4.170   2.353 -0.1716  0.0255 -0.8944
 9619TIP3    H253053   6.638   4.046   2.397 -0.4021  0.3250  0.3910
 9620TIP3   OH253054   6.762   1.140   1.953 -0.8876 -0.2591  0.0429
 9620TIP3    H153055   6.829   1.082   1.918 -1.4759 -0.5971 -0.5462
 9620TIP3    H253056   6.711   1.168   1.876 -0.1084  1.7100  0.1875
 9621TIP3   OH253057   6.699   5.594   3.033  0.3507 -0.1116  0.0887
 9621TIP3    H153058   6.776   5.543   3.007  1.5020  1.1563  0.8687
 9621TIP3    H253059   6.733   5.681   3.052 -1.5488  1.0174 -1.2772
 9622TIP3   OH253060   0.630   6.549   3.414 -0.6714  0.4007 -0.0540
 9622TIP3    H153061   0.638   6.640   3.386 -1.1391  0.1032 -1.2200
 9622TIP3    H253062   0.613   6.501   3.333 -0.9059 -0.6648  0.6108
 9623TIP3   OH253063   4.430   3.409   4.389 -0.0591 -0.5774 -0.1823
 9623TIP3    H153064   4.433   3.504   4.386 -0.5214 -0.3084  3.6287
 9623TIP3    H253065   4.521   3.382   4.396 -0.0081 -0.3085  0.1865
 9624TIP3   OH253066   1.117   1.390   3.544  0.1080  0.3756  0.5766
 9624TIP3    H153067   1.062   1.317   3.517  0.8452 -0.5204  1.4719
 9624TIP3    H253068   1.180   1.401   3.472  0.5426 -0.4353  0.8291
 9625TIP3   OH253069   2.758   4.253   4.208 -0.0736  0.5954 -0.4670
 9625TIP3    H153070   2.732   4.331   4.258  0.0911 -1.0515  2.3825
 9625TIP3    H253071   2.684   4.193   4.217 -1.2296  1.1015 -4.6077
 9626TIP3   OH253072   3.095   1.298   5.340  0.3765  0.5110  0.3897
 9626TIP3    H153073   3.015   1.271   5.384 -0.8803  1.9143 -0.9224
 9626TIP3    H253074   3.108   1.233   5.271 -0.0280  0.6295  0.1948
 9627TIP3   OH253075   0.247   1.473   5.062 -0.0757 -0.1535 -0.0235
 9627TIP3    H153076   0.204   1.548   5.103 -1.6697  0.1258 -2.0105
 9627TIP3    H253077   0.211   1.396   5.107 -0.8817  0.1874 -0.0728
 9628TIP3   OH253078   0.854   6.541   4.353 -0.4269  0.3714  0.6169
 9628TIP3    H153079   0.947   6.523   4.369 -0.6233 -0.6455  0.7138
 9628TIP3    H253080   0.848   6.552   4.258 -0.2908 -0.1903  0.5352
 9629TIP3   OH253081   2.734   1.255   4.817  0.4180 -0.3064  0.5008
 9629TIP3    H153082   2.686   1.224   4.894 -0.2156 -2.0267 -0.5142
 9629TIP3    H253083   2.669   1.253   4.747  0.8119  1.8556  0.0236
 9630TIP3   OH253084   3.825   4.124   5.549  0.8644  0.3121 -0.1110
 9630TIP3    H153085   3.828   4.173   5.467 -0.8031  1.3068  0.3698
 9630TIP3    H253086   3.732   4.113   5.567  1.1725 -2.4557  0.1870
 9631TIP3   OH253087   4.520   1.389   5.079  0.2811  0.5995 -0.1998
 9631TIP3    H153088   4.432   1.420   5.102 -0.9187 -2.5479 -0.0903
 9631TIP3    H253089   4.561   1.369   5.163  0.2251 -0.1352 -0.3477
 9632TIP3   OH253090   6.506   1.431   3.496  0.7340 -0.2997 -0.0626
 9632TIP3    H153091   6.434   1.381   3.456  1.3205 -1.6326  0.4881
 9632TIP3    H253092   6.580   1.419   3.436  0.4588  1.3018 -0.7723
 9633TIP3   OH253093   1.238   6.744   4.089  0.3977 -0.4238 -0.1113
 9633TIP3    H153094   1.289   6.692   4.027  0.3634 -0.2638 -0.2749
 9633TIP3    H253095   1.151   6.751   4.048  0.6254  0.4292 -0.4663
 9634TIP3   OH253096   6.761   5.362   4.212  0.4008 -0.0354 -1.0948
 9634TIP3    H153097   6.675   5.404   4.219  0.8378  0.7169  0.2775
 9634TIP3    H253098   6.759   5.315   4.129 -1.5114 -0.4273 -0.8726
 9635TIP3   OH253099   2.679   6.169   1.817 -0.3818 -0.8105  0.6990
 9635TIP3    H153100   2.725   6.173   1.734 -1.1906  1.6219  0.2668
 9635TIP3    H253101   2.745   6.141   1.880  1.1836  0.6050 -0.2239
 9636TIP3   OH253102   4.964   0.062   2.698  0.4778 -0.4126 -0.0448
 9636TIP3    H153103   4.923  -0.006   2.644  1.2327 -1.3115  0.4993
 9636TIP3    H253104   4.950   0.143   2.648 -0.1465 -1.0035 -0.8613
 9637TIP3   OH253105   1.990   3.726   4.198 -0.0335 -0.0076 -0.6707
 9637TIP3    H153106   2.018   3.635   4.205 -2.1274 -0.8877 -2.5557
 9637TIP3    H253107   1.935   3.728   4.120  0.6418  3.0892 -1.1915
 9638TIP3   OH253108   4.556   3.773   2.895  0.2107 -0.1555 -0.2589
 9638TIP3    H153109   4.476   3.750   2.848  0.7654 -2.9609 -0.0132
 9638TIP3    H253110   4.526   3.831   2.965 -1.4035 -0.1162 -0.9350
 9639TIP3   OH253111   0.021   4.770   4.344  0.1522 -0.2534 -0.0732
 9639TIP3    H153112  -0.022   4.830   4.283 -0.0002  1.2714  1.4545
 9639TIP3    H253113   0.101   4.815   4.369 -0.2825 -0.3669  1.6179
 9640TIP3   OH253114   5.879   2.595   3.859  0.6716  0.2525  0.1608
 9640TIP3    H153115   5.869   2.666   3.923 -0.3820  1.2504 -1.0515
 9640TIP3    H253116   5.912   2.639   3.781  2.9510 -1.1047  0.2795
 9641TIP3   OH253117   4.328   0.179   4.921 -0.5204 -0.3443  0.0138
 9641TIP3    H153118   4.308   0.196   5.013 -1.6497 -0.4093 -0.2076
 9641TIP3    H253119   4.418   0.148   4.921  0.0646  1.2659  0.9137
 9642TIP3   OH253120   5.403   6.205   2.632 -0.2423  0.1374 -0.3369
 9642TIP3    H153121   5.350   6.172   2.560 -0.3652  1.1218 -0.7042
 9642TIP3    H253122   5.378   6.150   2.707  0.3257 -1.2812 -1.1548
 9643TIP3   OH253123   2.914   0.030   2.954  0.6511 -0.1692 -1.0928
 9643TIP3    H153124   2.964   0.112   2.954  0.2969  0.0488 -1.3517
 9643TIP3    H253125   2.864   0.032   2.873  1.4559 -1.1531 -1.6463
 9644TIP3   OH253126   5.310   2.066   5.919  0.5628 -0.2768  0.2376
 9644TIP3    H153127   5.340   2.124   5.849 -1.3075  1.5321  0.8227
 9644TIP3    H253128   5.334   2.112   6.000 -1.2297 -0.1020  0.7130
 9645TIP3   OH253129   4.486   6.144   2.073  0.0929 -0.4060 -0.4775
 9645TIP3    H153130   4.429   6.189   2.010 -0.8223 -0.2462  0.4278
 9645TIP3    H253131   4.553   6.209   2.095 -1.6600  0.9092  1.4074
 9646TIP3   OH253132   1.350   2.466   1.791 -0.0558 -0.3123 -0.5415
 9646TIP3    H153133   1.437   2.498   1.767 -0.0559  0.0986 -0.0122
 9646TIP3    H253134   1.313   2.534   1.847 -1.0960 -0.0620 -1.5003
 9647TIP3   OH253135   5.498   3.344   3.719  0.4413  0.4302  0.0742
 9647TIP3    H153136   5.557   3.279   3.681  1.3315  1.3965 -0.2376
 9647TIP3    H253137   5.534   3.428   3.691 -1.3802  1.0416 -0.5466
 9648TIP3   OH253138   5.979   5.464   3.218 -0.5111  0.0029 -0.0983
 9648TIP3    H153139   5.925   5.536   3.249  1.5949  0.9344  1.6712
 9648TIP3    H253140   6.020   5.497   3.138 -1.7664 -0.3768 -0.9356
 9649TIP3   OH253141   3.164   3.873   4.198  0.0679 -0.3478 -0.4084
 9649TIP3    H153142   3.250   3.913   4.180  0.7322 -1.7897 -0.5487
 9649TIP3    H253143   3.120   3.870   4.114 -0.4305  1.0208 -0.2281
 9650TIP3   OH253144   3.495   6.475   2.047  0.0991  0.8682 -0.2691
 9650TIP3    H153145   3.502   6.411   1.976  0.8250 -0.1302  0.6659
 9650TIP3    H253146   3.586   6.501   2.064 -0.0476  0.9275  0.4335
 9651TIP3   OH253147   4.260   5.613   1.947 -0.6300  0.5667 -0.4206
 9651TIP3    H153148   4.171   5.624   1.980  0.0718  0.9367  1.4739
 9651TIP3    H253149   4.311   5.682   1.990  0.5261  0.5592 -1.7011
 9652TIP3   OH253150   1.265   6.007   5.129  0.2161 -0.1671  0.6966
 9652TIP3    H153151   1.189   5.953   5.149 -1.6705  2.2250  0.5162
 9652TIP3    H253152   1.263   6.077   5.195  1.2342  0.8922 -0.3292
 9653TIP3   OH253153   6.393   0.365   2.108  0.8056 -0.5067 -0.0696
 9653TIP3    H153154   6.397   0.444   2.055 -0.3567 -0.4916 -0.1509
 9653TIP3    H253155   6.455   0.381   2.179  1.0943  0.1832 -0.4662
 9654TIP3   OH253156   4.458   5.421   3.545 -0.2682 -0.1838  0.0027
 9654TIP3    H153157   4.418   5.508   3.544  0.2892  0.0826  0.5185
 9654TIP3    H253158   4.488   5.410   3.635 -1.2281 -1.3323  0.2065
 9655TIP3   OH253159   0.831   3.177   1.978  0.2063 -0.1832 -0.0588
 9655TIP3    H153160   0.823   3.250   2.039  1.5420  0.1148 -0.2104
 9655TIP3    H253161   0.912   3.195   1.930  1.4870 -2.5565  1.0187
 9656TIP3   OH253162   1.449   1.716   2.071  0.4651 -0.1149  0.2266
 9656TIP3    H153163   1.454   1.646   2.006 -0.3172 -0.6087  0.6845
 9656TIP3    H253164   1.459   1.796   2.021 -0.6277 -0.4607 -0.5899
 9657TIP3   OH253165   1.994   1.828   2.870  0.2061 -0.0973 -0.4524
 9657TIP3    H153166   1.923   1.777   2.831 -0.5957  0.7187 -0.0946
 9657TIP3    H253167   2.032   1.769   2.936 -0.5313 -0.3414 -0.2301
 9658TIP3   OH253168   1.678   3.973   2.330 -0.4680 -0.3530  0.2660
 9658TIP3    H153169   1.598   3.979   2.382  0.7054 -1.4322  2.3542
 9658TIP3    H253170   1.719   3.891   2.358  0.5218 -0.7240 -2.0410
 9659TIP3   OH253171   3.215   4.972   3.275  0.3756  0.0370  0.5864
 9659TIP3    H153172   3.174   4.886   3.266 -0.3905  0.4519 -0.0676
 9659TIP3    H253173   3.298   4.965   3.228  1.0831 -0.8114  1.9109
 9660TIP3   OH253174   1.831   6.602   5.062 -0.6099  0.9390 -0.1996
 9660TIP3    H153175   1.841   6.536   5.131 -0.6041 -1.0838 -2.0398
 9660TIP3    H253176   1.818   6.684   5.110  2.0206  0.1097  2.2201
 9661TIP3   OH253177   4.956   2.848   2.810  0.0053 -0.3290 -0.4028
 9661TIP3    H153178   4.942   2.836   2.904 -2.5212  1.8084 -0.3898
 9661TIP3    H253179   5.038   2.897   2.805  0.5140 -1.0288  0.6115
 9662TIP3   OH253180   0.342   3.335   4.180  0.0482  0.6376  0.3688
 9662TIP3    H153181   0.343   3.253   4.230 -0.4628  0.1884 -0.3277
 9662TIP3    H253182   0.318   3.308   4.091 -0.2636  1.5661  0.1614
 9663TIP3   OH253183   2.941   6.292   3.957  0.3412  0.3471  0.0894
 9663TIP3    H153184   2.931   6.315   3.865  0.9759  1.1451  0.2126
 9663TIP3    H253185   3.024   6.246   3.962  1.7362  2.7602  0.6678
 9664TIP3   OH253186   4.957   6.316   5.334 -0.5697  0.0821 -0.4156
 9664TIP3    H153187   4.992   6.333   5.246 -0.5830  0.2470 -0.3895
 9664TIP3    H253188   5.033   6.295   5.387 -0.3268  1.8202 -0.0232
 9665TIP3   OH253189   0.721   2.227   4.157 -0.1672 -0.1215  0.0608
 9665TIP3    H153190   0.812   2.200   4.162  0.0965  0.8786  0.9798
 9665TIP3    H253191   0.671   2.145   4.166  0.6248 -0.4826  1.4202
 9666TIP3   OH253192   2.321   6.828   3.084 -0.1679  0.2874  0.1575
 9666TIP3    H153193   2.414   6.806   3.090 -0.2786  0.0323  1.1427
 9666TIP3    H253194   2.311   6.870   2.999  1.0941  1.4941  0.5715
 9667TIP3   OH253195   6.060   1.007   2.923  0.2345 -0.0934  0.5295
 9667TIP3    H153196   5.980   1.059   2.913 -0.3675 -0.9411  0.8039
 9667TIP3    H253197   6.041   0.925   2.879  0.2870 -0.9950  2.1193
 9668TIP3   OH253198   3.539   5.480   3.634 -0.6653 -0.4664  0.1363
 9668TIP3    H153199   3.567   5.435   3.554 -1.3957 -2.5804  0.9941
 9668TIP3    H253200   3.447   5.454   3.645 -0.7612  0.3205  1.3070
 9669TIP3   OH253201   4.501   6.090   5.705  0.5197  0.1391 -0.0751
 9669TIP3    H153202   4.548   6.008   5.719 -1.4071 -0.5845  3.3132
 9669TIP3    H253203   4.429   6.067   5.646 -1.5887 -1.4549  2.8888
 9670TIP3   OH253204   4.117   0.618   4.973  0.4540 -0.0848  0.4711
 9670TIP3    H153205   4.210   0.595   4.965  1.1736  1.7960  2.2138
 9670TIP3    H253206   4.085   0.562   5.043  0.7942  0.4757  1.0954
 9671TIP3   OH253207   1.622   1.455   2.138  0.1166  0.2107 -0.2397
 9671TIP3    H153208   1.529   1.432   2.134 -0.0042  0.8443 -1.5190
 9671TIP3    H253209   1.658   1.398   2.207 -1.5424  1.1761  1.5410
 9672TIP3   OH253210   1.609   0.089   2.908 -0.2827 -0.6393 -0.8000
 9672TIP3    H153211   1.531   0.033   2.919 -0.3183 -0.8598 -1.9710
 9672TIP3    H253212   1.623   0.090   2.813 -0.0250  1.0133 -0.7630
 9673TIP3   OH253213   2.893   5.674   4.866 -0.0326  0.0914  0.0507
 9673TIP3    H153214   2.804   5.647   4.841  0.3404 -1.5665  0.4366
 9673TIP3    H253215   2.907   5.755   4.817 -1.9148  0.6273  0.2976
 9674TIP3   OH253216   4.649   3.849   3.767  0.1131  0.1359  0.1063
 9674TIP3    H153217   4.632   3.761   3.735 -1.4696  0.3371  0.3168
 9674TIP3    H253218   4.576   3.868   3.825  1.5503  0.7713  1.8222
 9675TIP3   OH253219   0.754   1.831   3.717 -0.1634  0.4036  0.2181
 9675TIP3    H153220   0.759   1.922   3.749 -0.1223  0.5463 -0.1864
 9675TIP3    H253221   0.802   1.780   3.783  0.9728  0.8627 -0.2227
 9676TIP3   OH253222   5.271   4.239   2.929 -0.5303  0.3013  0.3434
 9676TIP3    H153223   5.282   4.247   3.023  3.2160  0.0687  0.0764
 9676TIP3    H253224   5.219   4.159   2.917  1.9037 -1.7014  2.2154
 9677TIP3   OH253225   1.547   3.214   2.755  0.6437 -0.8026 -0.2074
 9677TIP3    H153226   1.489   3.212   2.679 -0.0555 -3.4675  0.2817
 9677TIP3    H253227   1.489   3.196   2.829  1.7966 -1.5180  0.5373
 9678TIP3   OH253228   1.629   3.874   2.924  0.3681  0.8326 -0.0927
 9678TIP3    H153229   1.566   3.803   2.936 -0.1751  1.3290  0.0497
 9678TIP3    H253230   1.707   3.844   2.970  0.6596 -0.3168 -1.2831
 9679TIP3   OH253231   5.893   6.572   3.941  0.0073  0.2840 -0.0434
 9679TIP3    H153232   5.859   6.483   3.932  2.2668 -0.4693 -2.1299
 9679TIP3    H253233   5.917   6.578   4.034  0.3887 -1.5211  0.0249
 9680TIP3   OH253234   0.027   1.130   2.678 -0.4343  0.0754 -0.0570
 9680TIP3    H153235  -0.011   1.096   2.597  0.6203  2.2692 -1.5670
 9680TIP3    H253236  -0.040   1.190   2.712  0.0750  1.0052 -0.6511
 9681TIP3   OH253237   4.093   0.272   2.528 -0.5731  0.0238 -0.1544
 9681TIP3    H153238   4.181   0.287   2.492 -0.3937 -1.0061 -0.1797
 9681TIP3    H253239   4.087   0.332   2.602 -0.2158  0.7955 -0.7336
 9682TIP3   OH253240   6.487   0.817   3.136 -0.1945 -0.6212  0.1332
 9682TIP3    H153241   6.510   0.903   3.170 -0.5951 -0.4451 -0.0425
 9682TIP3    H253242   6.471   0.764   3.214 -0.1048 -0.4943  0.2382
 9683TIP3   OH253243   4.509   6.648   2.939 -0.0717 -0.3863 -0.3833
 9683TIP3    H153244   4.522   6.615   2.850 -0.3131  0.5010 -0.7692
 9683TIP3    H253245   4.504   6.743   2.928 -1.4305 -0.3401  0.4158
 9684TIP3   OH253246   3.863   0.396   2.822  0.2613 -0.1856 -0.0820
 9684TIP3    H153247   3.861   0.307   2.857 -0.8816 -0.1654 -0.0820
 9684TIP3    H253248   3.861   0.453   2.899  2.5020 -0.1173  0.0055
 9685TIP3   OH253249   1.525   6.069   2.615 -0.3560 -0.3213 -0.0501
 9685TIP3    H153250   1.524   6.023   2.531  0.2277 -0.1731 -0.1416
 9685TIP3    H253251   1.553   6.002   2.678  1.4749  0.1151 -0.3306
 9686TIP3   OH253252   4.311   1.430   5.438  0.4791 -0.3391  0.0130
 9686TIP3    H153253   4.370   1.451   5.366 -0.3782 -0.2779 -0.7010
 9686TIP3    H253254   4.356   1.362   5.488  1.6753  0.5719  0.2074
 9687TIP3   OH253255   5.304   4.595   2.842 -0.1716  0.0875  0.1027
 9687TIP3    H153256   5.227   4.589   2.899  0.3247  0.3673  0.8233
 9687TIP3    H253257   5.320   4.688   2.833 -1.1618  0.1135 -1.8003
 9688TIP3   OH253258   1.538   5.778   4.372  0.1119  0.0196  0.2706
 9688TIP3    H153259   1.504   5.691   4.352 -0.0632  0.3283 -0.8144
 9688TIP3    H253260   1.460   5.833   4.381  0.1855 -0.0541  1.6637
 9689TIP3   OH253261   4.459   3.022   3.367  0.3646  0.3133 -0.0707
 9689TIP3    H153262   4.432   2.937   3.332  1.3052 -0.2372  0.5089
 9689TIP3    H253263   4.551   3.011   3.388  0.0418  0.8845  1.7828
 9690TIP3   OH253264   1.480   1.961   3.520  0.3234  0.5260 -0.5160
 9690TIP3    H153265   1.511   1.996   3.603  0.7118  1.5331 -1.0640
 9690TIP3    H253266   1.430   2.033   3.481  0.8103  0.3546 -1.4922
 9691TIP3   OH253267   1.291   0.571   3.996 -0.6260 -0.5812  0.5741
 9691TIP3    H153268   1.358   0.504   4.002 -1.0674 -1.0232  0.6477
 9691TIP3    H253269   1.315   0.623   3.919 -1.1966 -1.8529 -0.5010
 9692TIP3   OH253270   2.070   0.388   4.662 -0.3013 -0.6735  0.3098
 9692TIP3    H153271   2.126   0.386   4.739  0.5462  0.5019 -0.2559
 9692TIP3    H253272   2.079   0.477   4.628 -0.1525 -1.3439 -1.5003
 9693TIP3   OH253273   0.405   5.113   2.773 -0.0988  0.1692 -0.0837
 9693TIP3    H153274   0.419   5.116   2.678  2.2665  1.5262  0.2076
 9693TIP3    H253275   0.475   5.056   2.805 -1.2770 -0.8135  0.8122
 9694TIP3   OH253276   0.037   5.824   5.366  0.2756  0.2632  0.2396
 9694TIP3    H153277   0.130   5.809   5.385 -0.3604 -1.9767  2.0176
 9694TIP3    H253278  -0.006   5.743   5.393 -2.1139  0.8770 -1.4376
 9695TIP3   OH253279   3.759   2.076   1.894 -0.5578 -0.5771 -0.2038
 9695TIP3    H153280   3.779   2.042   1.807  1.5278  1.8189 -0.7746
 9695TIP3    H253281   3.818   2.150   1.905  0.3240 -1.6279  3.8723
 9696TIP3   OH253282   2.951   2.879   2.380 -0.5452  0.7580  0.3097
 9696TIP3    H153283   2.938   2.938   2.307 -1.2049  0.8478  0.4939
 9696TIP3    H253284   2.970   2.936   2.455  0.9443  0.6328  0.0544
 9697TIP3   OH253285   1.712   0.396   3.138 -0.4075  0.1327 -0.7129
 9697TIP3    H153286   1.629   0.349   3.142  0.4137 -1.3748 -0.5361
 9697TIP3    H253287   1.749   0.373   3.053  0.1371  0.2319 -0.5082
 9698TIP3   OH253288   3.496   6.263   3.335 -0.1293 -0.3581  0.2066
 9698TIP3    H153289   3.580   6.273   3.290  0.6044 -1.3756  1.2691
 9698TIP3    H253290   3.490   6.338   3.394  0.5235 -0.7839  0.8339
 9699TIP3   OH253291   6.052   0.356   4.794 -0.6033  0.0548  0.1966
 9699TIP3    H153292   5.980   0.377   4.734 -1.6114 -3.8029 -0.2158
 9699TIP3    H253293   6.043   0.420   4.865 -3.5049  0.6946 -0.5984
 9700TIP3   OH253294   3.294   5.800   3.540  0.0039 -0.0046  0.1419
 9700TIP3    H153295   3.215   5.778   3.490  0.4141 -0.0243 -0.5197
 9700TIP3    H253296   3.326   5.881   3.501 -0.2471  0.5546  1.0829
 9701TIP3   OH253297   0.604   5.932   4.008  0.0257  0.1429 -0.0060
 9701TIP3    H153298   0.637   5.846   4.033  2.6196  0.3479 -2.2133
 9701TIP3    H253299   0.542   5.915   3.938  0.9269  0.0321 -0.8023
 9702TIP3   OH253300   0.270   2.572   3.495 -0.2488 -0.5400  0.2404
 9702TIP3    H153301   0.275   2.515   3.418  2.0799  0.7714 -0.6790
 9702TIP3    H253302   0.230   2.652   3.463  1.6756  0.4057  0.0490
 9703TIP3   OH253303   1.679   2.341   4.854 -0.2669 -0.0107 -0.2945
 9703TIP3    H153304   1.598   2.349   4.904 -0.2931  3.0848 -0.6519
 9703TIP3    H253305   1.748   2.340   4.920 -0.4596  0.8481 -0.0694
 9704TIP3   OH253306   6.054   3.072   4.252  0.3081 -0.3802 -0.0304
 9704TIP3    H153307   6.089   3.159   4.228  1.3237 -0.4859  0.9789
 9704TIP3    H253308   6.116   3.039   4.317 -0.0230 -1.9103 -0.4545
 9705TIP3   OH253309   2.625   3.910   5.446  0.3784  0.2809 -0.6573
 9705TIP3    H153310   2.702   3.945   5.401  0.3487  0.3243 -0.6743
 9705TIP3    H253311   2.550   3.944   5.397  0.3516  0.0714 -0.7642
 9706TIP3   OH253312   0.048   0.466   2.080 -0.2075  0.1608 -0.6585
 9706TIP3    H153313   0.130   0.439   2.121  0.1644 -1.1917 -2.2117
 9706TIP3    H253314   0.076   0.515   2.002 -0.8950  2.7761  0.6390
 9707TIP3   OH253315   3.356   3.405   3.580 -0.2449  0.0432  0.3096
 9707TIP3    H153316   3.337   3.312   3.587  0.7018 -0.1962 -0.1380
 9707TIP3    H253317   3.271   3.448   3.584 -0.6354 -0.7896  1.2946
 9708TIP3   OH253318   2.008   5.373   2.702 -0.6585  0.5137 -0.3063
 9708TIP3    H153319   2.009   5.334   2.789  0.4319  2.1828  0.4734
 9708TIP3    H253320   1.916   5.398   2.688 -0.7371  0.7539  0.6120
 9709TIP3   OH253321   1.730   2.782   1.808  0.0352 -0.4498 -0.1056
 9709TIP3    H153322   1.749   2.795   1.901  0.6960 -0.5065 -0.2310
 9709TIP3    H253323   1.733   2.871   1.771 -0.7511 -0.3649  0.0189
 9710TIP3   OH253324   0.976   5.280   4.568  0.7343 -0.4352  0.5472
 9710TIP3    H153325   0.949   5.250   4.481  2.1488  1.0868 -0.4932
 9710TIP3    H253326   0.906   5.251   4.626 -1.6989  0.8629 -1.5127
 9711TIP3   OH253327   5.150   3.424   3.709 -1.0715 -0.3357 -0.6124
 9711TIP3    H153328   5.065   3.468   3.700 -0.4847  1.3328  1.3603
 9711TIP3    H253329   5.145   3.380   3.794  0.3156  0.4914 -0.0784
 9712TIP3   OH253330   4.387   3.904   4.398  0.0398 -0.2315 -0.5271
 9712TIP3    H153331   4.401   3.992   4.363 -1.2829  0.4168  0.4411
 9712TIP3    H253332   4.461   3.889   4.457 -1.0242  1.3741  1.3369
 9713TIP3   OH253333   2.112   4.081   3.428  0.7407  0.5456 -0.2691
 9713TIP3    H153334   2.147   4.073   3.517  1.6447  0.3672 -0.6269
 9713TIP3    H253335   2.064   4.000   3.414 -1.5848  1.6220  0.9502
 9714TIP3   OH253336   1.621   0.601   1.632 -0.0687 -0.6831 -0.1670
 9714TIP3    H153337   1.615   0.577   1.539  1.0780  0.7346 -0.6394
 9714TIP3    H253338   1.710   0.575   1.657  0.0201 -0.0202  0.2155
 9715TIP3   OH253339   4.381   3.292   2.301 -0.0565  0.1488 -0.2454
 9715TIP3    H153340   4.300   3.264   2.344 -0.1933  1.3901  0.3529
 9715TIP3    H253341   4.443   3.221   2.316 -0.6549 -0.2398  0.4235
 9716TIP3   OH253342   6.175   1.525   4.899  0.2852  0.7189 -0.2931
 9716TIP3    H153343   6.201   1.615   4.879  0.4140  0.9462  0.8327
 9716TIP3    H253344   6.117   1.500   4.827  0.8284  1.4378 -1.0028
 9717TIP3   OH253345   4.086   6.178   4.471 -0.3412  0.4077  0.0175
 9717TIP3    H153346   4.171   6.141   4.494 -0.8930 -1.7141 -1.0283
 9717TIP3    H253347   4.090   6.190   4.376 -1.0927  0.5730 -0.0040
 9718TIP3   OH253348   5.062   0.398   3.224  0.0818 -0.4156  0.2564
 9718TIP3    H153349   5.088   0.435   3.308  0.5288 -0.1687  0.0144
 9718TIP3    H253350   5.139   0.349   3.194  1.4135  2.5927 -1.7785
 9719TIP3   OH253351   6.562   6.800   3.199 -0.1972 -0.0488 -0.3989
 9719TIP3    H153352   6.542   6.769   3.287  0.9790  0.0167 -0.0924
 9719TIP3    H253353   6.550   6.723   3.143 -0.2319 -0.2776 -0.0792
 9720TIP3   OH253354   2.249   5.447   1.714 -0.4138  1.2671  0.2710
 9720TIP3    H153355   2.239   5.419   1.623 -1.5727 -2.8774  1.4644
 9720TIP3    H253356   2.316   5.389   1.751  0.2310  3.0173  2.0497
 9721TIP3   OH253357   0.214   0.884   2.190  0.1483  0.2260  0.5088
 9721TIP3    H153358   0.213   0.956   2.253  0.3289  0.7380 -0.0515
 9721TIP3    H253359   0.291   0.832   2.213  1.0492  1.2157 -0.1471
 9722TIP3   OH253360   2.576   5.015   4.467 -0.6364 -0.7202  0.5636
 9722TIP3    H153361   2.589   4.973   4.382 -3.4524 -0.2806 -0.1998
 9722TIP3    H253362   2.596   5.107   4.451 -1.8743 -0.5037  0.1091
 9723TIP3   OH253363   4.948   1.189   2.774  0.2386  0.2920  0.1760
 9723TIP3    H153364   5.001   1.160   2.700 -0.0984 -2.0896  0.7724
 9723TIP3    H253365   5.003   1.251   2.821  1.5591 -0.3324 -0.5132
 9724TIP3   OH253366   4.488   6.314   5.511  0.2007 -0.2877  0.0637
 9724TIP3    H153367   4.481   6.281   5.421 -2.6632  1.5688 -0.5446
 9724TIP3    H253368   4.456   6.242   5.565 -1.6915 -0.1870 -0.8268
 9725TIP3   OH253369   1.367   6.783   2.926  0.2165 -0.9534  0.1081
 9725TIP3    H153370   1.311   6.816   2.855 -0.0273 -1.8963 -0.1599
 9725TIP3    H253371   1.320   6.805   3.006  0.1244 -0.5405 -0.0576
 9726TIP3   OH253372   4.754   1.122   2.390 -0.1799 -0.0956 -0.2683
 9726TIP3    H153373   4.833   1.107   2.338  0.1962 -0.6191  0.4449
 9726TIP3    H253374   4.775   1.198   2.443 -0.8489  0.9255 -1.4215
 9727TIP3   OH253375   1.122   6.496   1.977  0.3140 -0.0195  0.4310
 9727TIP3    H153376   1.057   6.559   2.008  0.1496  0.7192 -1.2802
 9727TIP3    H253377   1.102   6.484   1.884  0.5499 -2.3953  0.6317
 9728TIP3   OH253378   0.945   1.274   2.798 -0.4410 -0.2134  0.5367
 9728TIP3    H153379   0.861   1.272   2.753 -1.0045 -0.5603  1.5713
 9728TIP3    H253380   0.999   1.334   2.747 -1.6911  0.9213  0.5025
 9729TIP3   OH253381   1.081   1.023   3.989  0.3531  0.2178 -0.1364
 9729TIP3    H153382   0.996   0.985   3.968  0.2305 -0.5558  1.5917
 9729TIP3    H253383   1.133   0.948   4.021  0.5118  1.2183  2.1561
 9730TIP3   OH253384   2.824   1.513   4.200  0.2151 -0.1740  0.5105
 9730TIP3    H153385   2.862   1.474   4.278  0.7546  0.5568  0.6227
 9730TIP3    H253386   2.830   1.444   4.133 -0.4046 -0.8539  1.1515
 9731TIP3   OH253387   4.555   3.237   3.167 -0.2773  0.1042 -0.0763
 9731TIP3    H153388   4.639   3.253   3.124 -0.9445  1.4329 -0.9578
 9731TIP3    H253389   4.575   3.175   3.237  1.2871 -0.2131 -0.7613
 9732TIP3   OH253390   3.874   3.322   2.467 -0.4476 -0.1483  0.0451
 9732TIP3    H153391   3.779   3.330   2.460 -0.7997 -3.2230 -0.3443
 9732TIP3    H253392   3.898   3.381   2.539 -2.8823 -0.4469  1.2103
 9733TIP3   OH253393   3.671   4.292   2.456 -0.6039  0.3350  0.0096
 9733TIP3    H153394   3.631   4.261   2.537 -1.2189 -1.2965 -0.8440
 9733TIP3    H253395   3.601   4.342   2.413 -0.3171  1.0984  0.4283
 9734TIP3   OH253396   1.110   1.936   2.663  0.4020 -0.5892  0.1292
 9734TIP3    H153397   1.119   1.923   2.568  0.7371 -1.0367  0.2198
 9734TIP3    H253398   1.025   1.979   2.673 -0.3635 -1.9576 -0.2644
 9735TIP3   OH253399   5.659   2.047   3.890 -0.3880 -0.3022  0.2710
 9735TIP3    H153400   5.658   2.132   3.934 -1.1716 -0.2651  0.1966
 9735TIP3    H253401   5.574   2.041   3.847 -0.3950 -1.1825  0.3872
 9736TIP3   OH253402   6.319   3.970   2.385 -0.7635  0.3289  0.3497
 9736TIP3    H153403   6.407   4.007   2.375  0.2022 -1.4320  1.9030
 9736TIP3    H253404   6.328   3.903   2.452 -2.7699 -1.7004 -1.2773
 9737TIP3   OH253405   2.110   0.079   3.379 -0.2557  0.0328 -0.7057
 9737TIP3    H153406   2.188   0.134   3.382 -0.7189  0.6507  0.9235
 9737TIP3    H253407   2.144  -0.011   3.382  0.4002  0.2877  1.6567
 9738TIP3   OH253408   1.635   4.314   2.494 -0.4418  0.4691  0.0288
 9738TIP3    H153409   1.619   4.401   2.530  0.2467  1.2385 -1.4244
 9738TIP3    H253410   1.697   4.273   2.555  1.0973  1.9258 -0.4806
 9739TIP3   OH253411   6.432   4.281   5.057  0.2165 -0.2530  0.0704
 9739TIP3    H153412   6.366   4.214   5.072  0.5577 -0.3669  1.1041
 9739TIP3    H253413   6.511   4.233   5.033  0.2814 -0.1805  0.1396
 9740TIP3   OH253414   5.331   5.770   2.573 -0.5959 -0.1004  0.4306
 9740TIP3    H153415   5.254   5.724   2.607 -0.0798 -0.9132  0.5146
 9740TIP3    H253416   5.387   5.783   2.649 -0.4015  0.0010  0.2709
 9741TIP3   OH253417   0.294   1.910   4.644  0.0523  0.1325 -0.4723
 9741TIP3    H153418   0.363   1.934   4.705  0.7563 -0.9008 -0.8191
 9741TIP3    H253419   0.215   1.903   4.697  0.6017 -0.4995  0.2759
 9742TIP3   OH253420   4.664   0.108   4.026 -0.3194 -0.3315 -0.3948
 9742TIP3    H153421   4.747   0.100   4.073 -0.7587  2.4308  1.0471
 9742TIP3    H253422   4.603   0.052   4.076  0.6460 -2.7083 -1.7017
 9743TIP3   OH253423   5.371   3.859   2.882 -0.3592 -0.6608  0.0356
 9743TIP3    H153424   5.300   3.921   2.898  1.0508  1.5757 -1.7750
 9743TIP3    H253425   5.427   3.867   2.959 -0.1631  0.4270 -0.1996
 9744TIP3   OH253426   5.598   4.137   2.215  0.3297  0.0742 -0.0206
 9744TIP3    H153427   5.526   4.155   2.276 -0.3712  2.2450 -1.3818
 9744TIP3    H253428   5.624   4.048   2.236 -1.8514 -0.3177  1.4519
 9745TIP3   OH253429   3.846   1.456   2.296 -0.5881  0.0655  0.3097
 9745TIP3    H153430   3.902   1.532   2.277 -1.7272  0.1899 -3.4860
 9745TIP3    H253431   3.762   1.494   2.321 -0.7968  0.0571 -0.3592
 9746TIP3   OH253432   4.353   3.430   5.280  0.1265 -0.2900  0.8068
 9746TIP3    H153433   4.310   3.345   5.289 -1.0809  0.2389  0.2230
 9746TIP3    H253434   4.283   3.490   5.256  1.4183  0.3225 -1.7840
 9747TIP3   OH253435   3.227   5.607   2.245  0.4786  0.2193  0.0899
 9747TIP3    H153436   3.172   5.666   2.297  2.4726  0.2361  2.3318
 9747TIP3    H253437   3.252   5.659   2.169  0.2572  1.4350  0.8130
 9748TIP3   OH253438   5.728   5.728   4.992  0.0402  0.4037 -0.2982
 9748TIP3    H153439   5.806   5.726   5.048 -0.0747 -1.0108 -0.1507
 9748TIP3    H253440   5.690   5.814   5.008  0.3066  0.2454  1.4047
 9749TIP3   OH253441   1.431   6.207   3.447  0.0981  0.3210  0.0215
 9749TIP3    H153442   1.347   6.182   3.487 -0.2890  0.2896 -0.7807
 9749TIP3    H253443   1.494   6.146   3.485 -0.5645 -0.8797 -0.7164
 9750TIP3   OH253444   1.738   3.449   3.399  0.0268  0.6548  0.1686
 9750TIP3    H153445   1.720   3.540   3.377 -1.1827  0.6595  1.0997
 9750TIP3    H253446   1.755   3.449   3.493 -0.2366 -0.1178  0.2290
 9751TIP3   OH253447   2.627   6.223   4.690 -0.2153 -0.5324  0.5907
 9751TIP3    H153448   2.547   6.233   4.639  1.1174 -0.2567 -1.6083
 9751TIP3    H253449   2.673   6.150   4.648  1.8128  0.9170  0.1416
 9752TIP3   OH253450   3.317   2.710   2.684 -0.0126 -0.4668 -0.0079
 9752TIP3    H153451   3.300   2.633   2.738  1.1094 -0.2423  0.6886
 9752TIP3    H253452   3.391   2.684   2.628 -0.1290 -0.1473 -0.3127
 9753TIP3   OH253453   1.871   5.774   5.069 -0.7240 -0.4935  0.3987
 9753TIP3    H153454   1.877   5.699   5.010 -0.4207  0.4894 -0.8620
 9753TIP3    H253455   1.960   5.788   5.100 -0.9362 -1.2004  1.3553
 9754TIP3   OH253456   0.913   1.204   3.474  0.3834 -0.3719 -0.1440
 9754TIP3    H153457   0.852   1.275   3.455  0.4726 -0.3792 -0.4699
 9754TIP3    H253458   0.878   1.161   3.552  2.6489  2.7476  2.8748
 9755TIP3   OH253459   5.403   3.167   2.510 -0.3451 -0.1083 -0.3541
 9755TIP3    H153460   5.432   3.257   2.495 -0.3131  0.5122  2.6466
 9755TIP3    H253461   5.325   3.157   2.456  0.3870  1.2666 -1.7182
 9756TIP3   OH253462   3.512   4.520   1.907  0.3232  0.1733 -0.0523
 9756TIP3    H153463   3.572   4.578   1.861  1.1675  0.4805  1.3722
 9756TIP3    H253464   3.444   4.579   1.942  0.6919  0.2018  0.6346
 9757TIP3   OH253465   4.991   0.347   2.322 -0.2081  0.1127  0.7592
 9757TIP3    H153466   5.013   0.261   2.285 -2.2211  0.4547 -1.4191
 9757TIP3    H253467   5.046   0.409   2.275 -1.5691  0.3751 -0.5471
 9758TIP3   OH253468   1.595   2.065   4.775 -0.6613  0.1054 -0.1458
 9758TIP3    H153469   1.641   2.131   4.827  0.9157  0.2864 -1.6983
 9758TIP3    H253470   1.635   1.982   4.802 -0.6218  0.0776 -0.2939
 9759TIP3   OH253471   1.067   3.262   3.401  0.4008  0.6811  0.1524
 9759TIP3    H153472   1.041   3.341   3.354 -2.4398  0.2823  0.8930
 9759TIP3    H253473   1.066   3.287   3.493 -1.8525 -0.4580  0.5093
 9760TIP3   OH253474   2.620   6.649   4.891  0.1492 -0.3133 -0.7942
 9760TIP3    H153475   2.673   6.722   4.859 -0.8801  1.3426  1.0537
 9760TIP3    H253476   2.562   6.688   4.956 -2.3270 -2.3119 -1.6357
 9761TIP3   OH253477   4.358   5.865   3.950  0.9189 -0.5096 -0.0797
 9761TIP3    H153478   4.402   5.844   4.032 -0.5148  2.6292  1.7224
 9761TIP3    H253479   4.265   5.858   3.971  0.5005 -1.1512 -1.9669
 9762TIP3   OH253480   3.923   6.786   1.701  0.8836 -0.4052  0.2167
 9762TIP3    H153481   4.008   6.793   1.744  0.2447  0.5135  1.3713
 9762TIP3    H253482   3.919   6.862   1.643  0.6615 -0.2093  0.4911
 9763TIP3   OH253483   1.138   0.756   5.524 -0.2049 -0.9204  0.0601
 9763TIP3    H153484   1.078   0.729   5.454 -2.5921 -1.1830  2.0873
 9763TIP3    H253485   1.166   0.674   5.565 -0.8792 -0.6682  1.0328
 9764TIP3   OH253486   6.133   2.376   5.023  0.6641 -0.2191 -0.2102
 9764TIP3    H153487   6.134   2.304   4.960 -0.5859 -0.6022  0.1698
 9764TIP3    H253488   6.165   2.337   5.105  1.4143  0.0503 -0.3630
 9765TIP3   OH253489   6.118   5.433   4.067 -0.1556 -0.0204  0.1415
 9765TIP3    H153490   6.204   5.443   4.026  0.2420  0.7598  1.1216
 9765TIP3    H253491   6.091   5.344   4.045 -1.0343  1.0453 -3.7404
 9766TIP3   OH253492   2.713   2.707   2.286 -0.0168 -0.0129  0.2866
 9766TIP3    H153493   2.701   2.743   2.374 -0.5910 -0.5818  0.4557
 9766TIP3    H253494   2.802   2.673   2.286  0.6740  1.7243 -0.0083
 9767TIP3   OH253495   6.705   2.855   2.197  0.3700 -0.1282 -0.1516
 9767TIP3    H153496   6.799   2.869   2.201  0.5023 -1.1145  1.0700
 9767TIP3    H253497   6.691   2.805   2.117  0.7219  0.9667 -0.9204
 9768TIP3   OH253498   1.125   5.363   5.141  0.5508  0.0430 -0.2620
 9768TIP3    H153499   1.063   5.292   5.156 -0.1403  0.4668 -1.0433
 9768TIP3    H253500   1.131   5.407   5.226 -0.6376  0.3141 -0.2985
 9769TIP3   OH253501   3.539   2.382   4.008 -0.2331 -0.3010  0.1408
 9769TIP3    H153502   3.565   2.303   3.960 -0.9795 -1.0687  0.9751
 9769TIP3    H253503   3.491   2.434   3.944 -1.3723 -1.3987  0.0702
 9770TIP3   OH253504   0.408   0.678   5.070  0.2838 -0.1312  0.7072
 9770TIP3    H153505   0.494   0.720   5.069 -0.0248  0.5257 -0.4962
 9770TIP3    H253506   0.404   0.633   5.154  1.6082  0.2295  0.9855
 9771TIP3   OH253507   5.270   3.139   3.672  0.4667  0.1383 -0.4195
 9771TIP3    H153508   5.309   3.076   3.733 -1.0685 -0.3547  0.1182
 9771TIP3    H253509   5.299   3.224   3.705  1.2729 -0.2124 -0.1957
 9772TIP3   OH253510   0.781   4.248   2.773 -0.1416  0.4668  0.3927
 9772TIP3    H153511   0.828   4.196   2.838 -1.1227 -0.1199  0.6637
 9772TIP3    H253512   0.788   4.338   2.805  0.5561  0.3588  0.5631
 9773TIP3   OH253513   0.912   5.683   3.078  0.9573  0.3297 -0.6177
 9773TIP3    H153514   0.919   5.737   3.157 -0.5089 -0.8284  0.3474
 9773TIP3    H253515   0.895   5.746   3.008  0.0365  1.2013  0.3554
 9774TIP3   OH253516   5.583   1.028   5.760 -0.5757 -0.0360 -0.0189
 9774TIP3    H153517   5.674   0.999   5.767 -0.0760  1.3262 -0.5590
 9774TIP3    H253518   5.533   0.948   5.746  0.6085 -0.7398 -0.3260
 9775TIP3   OH253519   1.706   2.568   4.035 -0.0817  0.4358 -0.4153
 9775TIP3    H153520   1.668   2.551   3.949 -1.5115  2.5199 -0.2723
 9775TIP3    H253521   1.772   2.635   4.020  0.5640 -0.0969 -0.0358
 9776TIP3   OH253522   5.020   1.226   4.305  0.8744 -0.1138  0.7312
 9776TIP3    H153523   5.033   1.239   4.398  1.4618  0.4345  0.5752
 9776TIP3    H253524   4.931   1.189   4.298  0.7961 -0.0751  1.4896
 9777TIP3   OH253525   4.961   2.228   2.448  0.0947 -0.2633 -0.1848
 9777TIP3    H153526   4.919   2.276   2.376 -1.3344 -0.0475  0.7623
 9777TIP3    H253527   4.930   2.272   2.527 -0.3455 -2.0415  0.6747
 9778TIP3   OH253528   2.148   3.920   4.507 -0.6952  0.1928 -0.1428
 9778TIP3    H153529   2.165   3.834   4.545 -1.0600 -0.1356 -0.7169
 9778TIP3    H253530   2.192   3.981   4.566 -1.7847 -0.2446  1.2004
 9779TIP3   OH253531   2.981   3.593   3.062 -0.2980  0.2719 -0.5776
 9779TIP3    H153532   2.886   3.583   3.052 -0.2746  0.8132 -1.5253
 9779TIP3    H253533   2.992   3.633   3.148 -0.9528  0.5274 -0.6034
 9780TIP3   OH253534   2.255   5.635   3.633  0.5129  0.0692  0.1549
 9780TIP3    H153535   2.291   5.714   3.594  0.6997 -0.3557 -0.5412
 9780TIP3    H253536   2.183   5.666   3.688  0.0656  0.6581 -0.7350
 9781TIP3   OH253537   1.586   0.391   4.629 -0.5194 -0.2429 -0.2289
 9781TIP3    H153538   1.513   0.331   4.645 -0.2977 -1.0083 -1.8462
 9781TIP3    H253539   1.660   0.351   4.675 -1.0829  0.5409  1.4221
 9782TIP3   OH253540   1.694   6.617   3.225 -0.2378  0.9669 -0.0758
 9782TIP3    H153541   1.632   6.560   3.271 -1.4674  0.4995 -2.1880
 9782TIP3    H253542   1.661   6.706   3.240  2.0684  1.4207  3.8140
 9783TIP3   OH253543   4.564   3.959   4.608 -0.3153  0.4125 -0.2572
 9783TIP3    H153544   4.613   4.015   4.668 -0.2730  0.5605 -0.4295
 9783TIP3    H253545   4.603   3.975   4.522  0.7356 -1.0606 -0.0782
 9784TIP3   OH253546   2.068   3.201   3.690  0.5175  0.8325 -0.6538
 9784TIP3    H153547   2.009   3.126   3.678 -0.8854  1.7091  0.4302
 9784TIP3    H253548   2.049   3.258   3.616  1.2176  0.3555 -1.2045
 9785TIP3   OH253549   5.206   2.297   2.550  0.0427 -0.3260 -0.2431
 9785TIP3    H153550   5.297   2.273   2.534  0.2174 -0.5374  0.9469
 9785TIP3    H253551   5.160   2.276   2.469  0.8756 -1.1661 -0.5093
 9786TIP3   OH253552   2.811   1.987   4.047 -0.2543  0.0279 -0.0031
 9786TIP3    H153553   2.870   1.912   4.036 -0.1229  0.3698 -1.9435
 9786TIP3    H253554   2.791   1.987   4.141  1.2068 -1.3124  0.3688
 9787TIP3   OH253555   4.500   5.349   4.480 -0.4113 -0.4846 -0.0826
 9787TIP3    H153556   4.430   5.382   4.536  0.6992 -0.4928  1.3902
 9787TIP3    H253557   4.482   5.386   4.394 -2.6878 -1.1902  0.0332
 9788TIP3   OH253558   2.456   3.444   1.929  0.3608  0.4483 -0.7922
 9788TIP3    H153559   2.393   3.456   1.999  0.0874 -0.9753 -0.7670
 9788TIP3    H253560   2.539   3.477   1.965  0.4573 -1.1855  0.6239
 9789TIP3   OH253561   3.154   0.730   2.578 -0.0300 -0.3103  0.2752
 9789TIP3    H153562   3.092   0.669   2.539  0.0224 -1.3063  1.6511
 9789TIP3    H253563   3.212   0.674   2.631  0.5927  0.8366  0.8500
 9790TIP3   OH253564   3.063   5.179   3.117  0.5210 -0.2009  0.2353
 9790TIP3    H153565   3.106   5.127   3.185 -0.5757 -0.0762  1.0476
 9790TIP3    H253566   2.970   5.158   3.126  0.3905 -0.5538 -1.5604
 9791TIP3   OH253567   2.088   1.340   2.822  0.5414 -0.3570 -0.3182
 9791TIP3    H153568   2.030   1.405   2.784 -0.6938 -1.1795  0.1045
 9791TIP3    H253569   2.150   1.319   2.752 -1.6437 -1.8277 -1.9154
 9792TIP3   OH253570   6.005   4.457   2.922  0.3672  0.0805  0.4171
 9792TIP3    H153571   6.035   4.442   2.832 -1.2486  0.4220 -0.2204
 9792TIP3    H253572   5.947   4.533   2.916 -2.3638 -1.7803  1.0983
 9793TIP3   OH253573   6.050   4.534   2.541 -0.1207 -0.5859 -0.3976
 9793TIP3    H153574   6.093   4.519   2.457  2.5192 -1.1483  0.9463
 9793TIP3    H253575   6.069   4.456   2.592 -0.2385  0.4326  1.2733
 9794TIP3   OH253576   2.160   0.616   4.071  0.2312 -0.3865 -0.0765
 9794TIP3    H153577   2.179   0.648   3.983 -0.3763  0.0404 -0.0605
 9794TIP3    H253578   2.065   0.600   4.071 -0.5392  3.0518  1.5263
 9795TIP3   OH253579   4.177   3.605   3.129  0.3926 -0.2574 -0.0911
 9795TIP3    H153580   4.207   3.535   3.071 -0.2261 -0.0621 -0.6658
 9795TIP3    H253581   4.120   3.561   3.193  0.4460 -0.3591 -0.1138
 9796TIP3   OH253582   2.175   6.606   4.391 -0.6688  0.0512 -0.0717
 9796TIP3    H153583   2.241   6.604   4.322  0.4251  1.1009  0.8960
 9796TIP3    H253584   2.094   6.577   4.349  0.2039 -0.3409 -1.5162
 9797TIP3   OH253585   3.008   1.489   3.857  0.2460 -0.1901  0.8035
 9797TIP3    H153586   2.970   1.440   3.930 -1.1488  0.4113  0.5255
 9797TIP3    H253587   3.089   1.525   3.892  0.5393 -1.4486  1.4646
 9798TIP3   OH253588   4.776   5.882   5.494  0.1628  1.0148  0.2597
 9798TIP3    H153589   4.866   5.853   5.484 -0.0744 -0.3430  1.7128
 9798TIP3    H253590   4.772   5.965   5.447  2.0847  0.9521 -0.0739
 9799TIP3   OH253591   5.606   2.023   2.747  0.1663 -0.5379  0.3104
 9799TIP3    H153592   5.686   2.061   2.784  0.6172 -1.4192  0.2659
 9799TIP3    H253593   5.553   2.098   2.722 -0.2024  0.1138  2.8152
 9800TIP3   OH253594   4.985   4.454   3.388  0.3378  0.2642  0.1622
 9800TIP3    H153595   4.919   4.450   3.319 -2.2151  1.3160  2.3769
 9800TIP3    H253596   5.055   4.508   3.352 -0.8359  0.6479 -1.6432
 9801TIP3   OH253597   3.169   5.978   3.128 -0.1750  0.1958  1.0209
 9801TIP3    H153598   3.188   6.065   3.163  0.8194  0.0124  0.9596
 9801TIP3    H253599   3.255   5.942   3.105 -0.5851 -0.7533  0.9337
 9802TIP3   OH253600   0.742   5.251   2.380 -0.0248  0.1878  0.0409
 9802TIP3    H153601   0.717   5.168   2.340  1.1970 -0.8077  1.2508
 9802TIP3    H253602   0.784   5.301   2.309  1.4840 -1.2554 -0.1306
 9803TIP3   OH253603   1.018   4.887   4.906  0.1867  0.3266 -0.0659
 9803TIP3    H153604   0.928   4.907   4.932 -0.2691  0.1507 -1.4033
 9803TIP3    H253605   1.034   4.945   4.832  1.0534  0.1077 -0.0540
 9804TIP3   OH253606   1.140   2.428   3.480  0.2489  0.4995 -0.1739
 9804TIP3    H153607   1.106   2.442   3.392 -0.9520 -1.1412 -0.0123
 9804TIP3    H253608   1.081   2.478   3.537  0.9620  1.4729 -0.2577
 9805TIP3   OH253609   6.664   5.271   3.067 -0.1354  0.1556  0.0846
 9805TIP3    H153610   6.662   5.237   2.978 -0.7166 -2.9686  1.1476
 9805TIP3    H253611   6.575   5.258   3.100  0.7027 -1.5566  1.9550
 9806TIP3   OH253612   2.713   6.744   3.114 -0.4910  0.7427  0.7282
 9806TIP3    H153613   2.768   6.702   3.181  0.0396 -2.0084 -1.2800
 9806TIP3    H253614   2.776   6.784   3.053 -0.4704 -2.5248 -1.6490
 9807TIP3   OH253615   3.793   2.766   5.082 -0.5912 -0.0521  0.1793
 9807TIP3    H153616   3.819   2.723   5.001  0.6082  2.7435 -1.0274
 9807TIP3    H253617   3.866   2.752   5.142 -0.3411  0.0795 -0.0973
 9808TIP3   OH253618   1.831   3.452   2.654  0.0094 -0.0478  0.3342
 9808TIP3    H153619   1.817   3.473   2.562 -0.9154  1.6683  0.8144
 9808TIP3    H253620   1.914   3.405   2.656 -0.9287 -1.9346 -1.5748
 9809TIP3   OH253621   4.638   2.860   4.154  0.0633 -0.2885 -0.0534
 9809TIP3    H153622   4.578   2.833   4.224 -0.0318 -1.2234 -0.4842
 9809TIP3    H253623   4.583   2.911   4.094 -0.3833 -1.3533 -0.5795
 9810TIP3   OH253624   1.704   1.243   3.728  0.5906  0.0473  0.2361
 9810TIP3    H153625   1.789   1.230   3.686  1.5199  0.4560  1.8930
 9810TIP3    H253626   1.647   1.179   3.686  1.1230  1.1582 -2.4045
 9811TIP3   OH253627   5.153   2.220   5.167  0.1979  0.5594 -0.5468
 9811TIP3    H153628   5.195   2.134   5.167  0.1705  0.5426 -0.1293
 9811TIP3    H253629   5.064   2.203   5.137  0.4330  0.5686 -1.2607
 9812TIP3   OH253630   5.315   5.372   4.647 -0.3480 -0.1864 -0.4233
 9812TIP3    H153631   5.378   5.302   4.666 -1.5785 -1.2422 -0.0423
 9812TIP3    H253632   5.230   5.333   4.668 -1.2430  0.7828 -2.0550
 9813TIP3   OH253633   1.506   0.217   3.136 -0.2344 -0.8026 -0.9485
 9813TIP3    H153634   1.528   0.182   3.050 -0.5733  0.8679 -1.7617
 9813TIP3    H253635   1.428   0.271   3.121  0.2928  0.3360  0.1834
 9814TIP3   OH253636   1.816   2.003   3.078 -0.1475 -0.8207 -0.5091
 9814TIP3    H153637   1.748   2.041   3.134 -0.6170 -1.0435 -0.9293
 9814TIP3    H253638   1.847   1.926   3.126  2.2024  1.0671  1.3357
 9815TIP3   OH253639   1.229   2.901   1.979  0.0013  0.4246 -0.0952
 9815TIP3    H153640   1.174   2.884   2.055  1.3762  0.4133  0.9296
 9815TIP3    H253641   1.268   2.816   1.959  0.6710  0.6940  0.0322
 9816TIP3   OH253642   5.146   5.509   3.963  0.3036  0.1695 -0.4517
 9816TIP3    H153643   5.134   5.415   3.949 -1.2242  0.3946 -0.8276
 9816TIP3    H253644   5.069   5.536   4.012  0.0447  1.4568 -1.5118
 9817TIP3   OH253645   3.059   2.999   3.230  0.5559 -0.0383 -0.5417
 9817TIP3    H153646   3.129   3.057   3.260  0.8821 -0.4043 -0.5890
 9817TIP3    H253647   3.053   2.931   3.297 -0.1163  0.2853 -0.2694
 9818TIP3   OH253648   5.764   0.090   3.621 -0.4564  0.5903  0.4645
 9818TIP3    H153649   5.692   0.053   3.568  1.3417 -0.2650 -1.5384
 9818TIP3    H253650   5.748   0.056   3.709 -2.2519  0.0653 -0.0063
 9819TIP3   OH253651   3.798   1.608   3.812  0.1381 -0.2721  0.3777
 9819TIP3    H153652   3.785   1.608   3.907  0.3951 -0.9130  0.4165
 9819TIP3    H253653   3.711   1.624   3.776  0.0093 -0.1991  0.7161
 9820TIP3   OH253654   0.941   1.868   2.940  0.2350 -0.0202 -0.5992
 9820TIP3    H153655   0.848   1.874   2.961  0.3479 -1.2222  0.3277
 9820TIP3    H253656   0.985   1.901   3.018  0.6082 -1.6346 -0.0967
 9821TIP3   OH253657   5.279   0.250   3.130 -0.4280 -0.1300 -1.1561
 9821TIP3    H153658   5.319   0.163   3.130 -0.8343 -0.3267 -0.4415
 9821TIP3    H253659   5.293   0.283   3.042  2.0080  0.1466 -0.7247
 9822TIP3   OH253660   5.337   4.359   2.706 -0.4969 -0.2937 -0.3077
 9822TIP3    H153661   5.328   4.294   2.776  1.6300  0.0842  0.3900
 9822TIP3    H253662   5.341   4.443   2.752 -0.2828  0.0692 -0.9846
 9823TIP3   OH253663   4.911   1.993   4.397  0.0340  0.4110  0.3358
 9823TIP3    H153664   4.819   1.974   4.415 -0.3797  1.7916 -0.1965
 9823TIP3    H253665   4.926   1.956   4.310 -0.7167  2.2519 -0.6194
 9824TIP3   OH253666   5.267   6.597   5.361  0.2580  0.4912  0.0797
 9824TIP3    H153667   5.333   6.666   5.373  3.7911 -2.6792  0.4657
 9824TIP3    H253668   5.210   6.605   5.438  0.2942  3.1119 -0.0721
 9825TIP3   OH253669   0.859   1.635   4.642 -0.0913 -0.2383 -0.4510
 9825TIP3    H153670   0.913   1.556   4.638 -0.3851 -0.3751 -2.2048
 9825TIP3    H253671   0.901   1.688   4.710 -0.7033 -2.4483  1.7821
 9826TIP3   OH253672   4.784   6.510   5.326 -0.6064 -0.8963  0.6401
 9826TIP3    H153673   4.812   6.422   5.298 -0.1957 -0.7978  0.7403
 9826TIP3    H253674   4.816   6.518   5.416  0.0938 -0.3158  0.3407
 9827TIP3   OH253675   3.280   3.079   4.054 -0.0439  0.3163  0.0168
 9827TIP3    H153676   3.207   3.038   4.099 -0.0648  1.7611  1.4156
 9827TIP3    H253677   3.356   3.060   4.109 -0.1622  2.5756  1.0745
 9828TIP3   OH253678   1.644   3.037   4.048  0.1856 -0.0789  0.1837
 9828TIP3    H153679   1.668   2.951   4.081 -0.2296 -0.6121 -0.8608
 9828TIP3    H253680   1.693   3.047   3.967  1.6547  1.4666  1.1766
 9829TIP3   OH253681   5.498   0.611   4.412  0.0608 -0.2888  0.4856
 9829TIP3    H153682   5.538   0.682   4.361  0.2356 -0.7811 -0.0729
 9829TIP3    H253683   5.490   0.539   4.350  1.0498 -1.1893  1.3696
 9830TIP3   OH253684   6.387   3.855   3.324  0.1537  0.1571  0.1602
 9830TIP3    H153685   6.348   3.879   3.240 -2.3845 -0.4411  1.0788
 9830TIP3    H253686   6.481   3.863   3.310 -0.1652 -0.3209 -2.8569
 9831TIP3   OH253687   3.192   0.667   4.034  0.5282  0.1302 -0.4709
 9831TIP3    H153688   3.144   0.589   4.062  0.4818  0.0051 -0.8845
 9831TIP3    H253689   3.178   0.670   3.939  1.3606  0.0812 -0.5975
 9832TIP3   OH253690   1.676   5.506   2.215 -0.6412 -0.3108  0.0021
 9832TIP3    H153691   1.592   5.508   2.169 -0.5701 -1.8124 -0.2457
 9832TIP3    H253692   1.667   5.573   2.283 -1.4637  0.5953 -0.9520
 9833TIP3   OH253693   0.271   3.073   3.719 -0.2563  0.7484 -0.0265
 9833TIP3    H153694   0.229   3.020   3.786  0.4478  0.4139  0.1554
 9833TIP3    H253695   0.323   3.138   3.767 -1.9072  2.3176 -0.2208
 9834TIP3   OH253696   2.062   4.907   3.405  0.2580 -0.4542 -0.8784
 9834TIP3    H153697   2.093   4.855   3.479 -2.6159 -0.8272  0.2094
 9834TIP3    H253698   2.099   4.994   3.421 -0.4907 -0.4511  1.2264
 9835TIP3   OH253699   6.823   3.732   4.668  0.0246 -0.1536  0.1117
 9835TIP3    H153700   6.847   3.750   4.577  1.6942  3.5942  1.0852
 9835TIP3    H253701   6.760   3.801   4.690  1.0866  0.2017  2.2737
 9836TIP3   OH253702   5.695   1.813   4.651 -0.0486 -0.3603  0.1574
 9836TIP3    H153703   5.704   1.875   4.579  0.2740 -1.6712 -0.9849
 9836TIP3    H253704   5.684   1.728   4.607  2.9352 -1.6259  1.5943
 9837TIP3   OH253705   0.677   0.081   3.052  0.1436  0.5312  0.4182
 9837TIP3    H153706   0.709   0.104   2.965  0.0266 -0.2995  0.1466
 9837TIP3    H253707   0.661   0.165   3.095  0.4395  0.9467 -0.2715
 9838TIP3   OH253708   5.714   1.929   2.519  0.1028  0.1772 -0.1468
 9838TIP3    H153709   5.761   2.005   2.483  1.6277 -0.1831  0.9529
 9838TIP3    H253710   5.680   1.959   2.603  1.5180 -0.5625  0.7363
 9839TIP3   OH253711   6.237   2.673   4.938 -0.3379 -0.0142 -0.1157
 9839TIP3    H153712   6.221   2.750   4.992 -0.8670 -0.4577  0.3690
 9839TIP3    H253713   6.198   2.600   4.987  0.4794 -0.6483 -0.3895
 9840TIP3   OH253714   0.697   3.356   3.912  0.0979 -0.4967 -0.2995
 9840TIP3    H153715   0.731   3.395   3.832 -0.3540 -1.4525 -0.9755
 9840TIP3    H253716   0.739   3.405   3.983  0.2370  0.5923 -1.1108
 9841TIP3   OH253717   5.936   4.326   3.170 -0.1508  0.1768  0.2827
 9841TIP3    H153718   5.869   4.265   3.141  1.8548 -2.0970  0.0941
 9841TIP3    H253719   5.953   4.381   3.093  1.3530 -2.2790 -1.2708
 9842TIP3   OH253720   6.791   0.392   4.372  0.1620 -0.0855  0.2907
 9842TIP3    H153721   6.701   0.377   4.402  0.5825  0.4660  1.9543
 9842TIP3    H253722   6.834   0.306   4.382  0.0469 -0.1364  0.3474
 9843TIP3   OH253723   1.445   4.736   2.728  0.7609 -0.4323  0.3234
 9843TIP3    H153724   1.434   4.785   2.647 -1.5718 -0.2001  0.7262
 9843TIP3    H253725   1.438   4.802   2.797  2.3497 -0.6863  0.7776
 9844TIP3   OH253726   5.168   2.703   2.878  0.2753  0.0464  0.2227
 9844TIP3    H153727   5.078   2.713   2.849  0.2549  1.3635  0.7133
 9844TIP3    H253728   5.221   2.733   2.804  0.3698 -1.4100 -0.3520
 9845TIP3   OH253729   1.552   6.555   5.469  0.2332  0.2885 -0.4632
 9845TIP3    H153730   1.467   6.541   5.428 -0.0862  1.1682 -0.1129
 9845TIP3    H253731   1.603   6.478   5.444 -0.2679  0.3325 -1.6844
 9846TIP3   OH253732   3.790   0.329   4.164  0.3827 -0.2216 -0.5448
 9846TIP3    H153733   3.706   0.284   4.156 -0.0973  0.6545 -0.5083
 9846TIP3    H253734   3.827   0.294   4.246 -0.2747 -0.0738 -0.1779
 9847TIP3   OH253735   4.364   5.515   2.774 -0.1603 -0.2991  0.2770
 9847TIP3    H153736   4.323   5.549   2.695  1.1666  0.8988  0.0677
 9847TIP3    H253737   4.437   5.463   2.743 -1.1956 -2.0489  0.6601
 9848TIP3   OH253738   3.555   0.711   2.911  0.4914 -0.0173 -0.1935
 9848TIP3    H153739   3.572   0.717   3.005 -0.2939 -0.3603 -0.0207
 9848TIP3    H253740   3.584   0.795   2.876  1.8739 -0.3152  0.1714
 9849TIP3   OH253741   2.560   2.307   2.051 -0.1931 -0.1437  0.5962
 9849TIP3    H153742   2.521   2.221   2.040  1.1866 -0.9911  1.8455
 9849TIP3    H253743   2.486   2.368   2.051 -1.0883 -1.0925 -1.9126
 9850TIP3   OH253744   3.235   0.238   3.686  0.5547  0.0460 -0.5777
 9850TIP3    H153745   3.194   0.158   3.653 -0.5244 -0.1944  1.2320
 9850TIP3    H253746   3.161   0.296   3.706  1.2126  0.5841  0.3556
 9851TIP3   OH253747   4.451   1.194   5.556  0.0296  0.6957  0.1418
 9851TIP3    H153748   4.477   1.125   5.618  0.3344  0.9126  0.2590
 9851TIP3    H253749   4.506   1.269   5.580 -1.7061  1.6489  1.3241
 9852TIP3   OH253750   1.551   6.697   3.962 -0.5767  0.4069  0.4532
 9852TIP3    H153751   1.512   6.738   3.885 -0.8932  1.5185  1.1749
 9852TIP3    H253752   1.511   6.611   3.967  0.7982 -0.4372 -1.6421
 9853TIP3   OH253753   3.643   3.346   4.502 -0.1778 -0.1197  0.0581
 9853TIP3    H153754   3.647   3.306   4.416 -0.2440  1.2165 -0.5946
 9853TIP3    H253755   3.717   3.407   4.503  0.5932 -1.0157  1.4358
 9854TIP3   OH253756   1.868   0.524   4.131  0.4360  0.1686 -0.0538
 9854TIP3    H153757   1.830   0.441   4.159 -0.4740 -0.1734 -2.1268
 9854TIP3    H253758   1.802   0.590   4.155  1.8069  0.5827  2.9772
 9855TIP3   OH253759   6.084   3.663   2.400 -0.3015  0.3193 -0.1146
 9855TIP3    H153760   6.169   3.625   2.423 -0.3086  0.1362 -0.3855
 9855TIP3    H253761   6.026   3.638   2.471 -0.2363  0.0672 -0.1498
 9856TIP3   OH253762   2.707   5.450   3.639  0.0073 -0.1903  0.3664
 9856TIP3    H153763   2.786   5.426   3.686 -1.0085 -2.1013  1.1911
 9856TIP3    H253764   2.640   5.461   3.707  0.2958  5.5626  0.2111
 9857TIP3   OH253765   6.520   4.104   3.044 -0.5288  0.2022 -0.6575
 9857TIP3    H153766   6.479   4.139   3.123 -0.9671 -0.7510 -0.4462
 9857TIP3    H253767   6.515   4.009   3.054 -0.4681  0.0635 -1.7638
 9858TIP3   OH253768   0.594   2.058   3.236  0.4453 -0.4439 -0.0977
 9858TIP3    H153769   0.546   2.083   3.315  2.6682  0.9720  0.9093
 9858TIP3    H253770   0.669   2.117   3.234  1.3410 -1.5363 -2.4110
 9859TIP3   OH253771   1.355   2.612   2.209  0.1846 -0.0557  0.0407
 9859TIP3    H153772   1.323   2.578   2.293 -1.1735  0.7857 -0.0895
 9859TIP3    H253773   1.334   2.544   2.146 -1.0666  0.3037  0.0282
 9860TIP3   OH253774   0.175   3.087   2.849  0.3328  0.2360  0.0728
 9860TIP3    H153775   0.132   3.096   2.764  2.4274 -0.2419 -1.1237
 9860TIP3    H253776   0.166   3.172   2.891  1.6742  1.4200 -1.8898
 9861TIP3   OH253777   5.708   5.919   3.089 -0.5994 -0.2652  0.0157
 9861TIP3    H153778   5.621   5.897   3.121 -0.7261  1.7166  1.1963
 9861TIP3    H253779   5.693   5.993   3.029  0.1566 -0.7825 -0.8466
 9862TIP3   OH253780   3.519   2.584   2.548  0.1638  0.2666  0.4421
 9862TIP3    H153781   3.491   2.512   2.492 -0.2610  0.0936  0.8757
 9862TIP3    H253782   3.587   2.628   2.497 -1.6423  1.3813 -1.1622
 9863TIP3   OH253783   4.978   1.665   3.576 -0.2328  0.2045  0.1175
 9863TIP3    H153784   5.037   1.632   3.508  1.0877  0.7814  0.9428
 9863TIP3    H253785   4.893   1.629   3.553 -0.2224  1.8275 -2.8781
 9864TIP3   OH253786   3.546   0.299   1.794  0.1739 -0.3161 -0.4892
 9864TIP3    H153787   3.612   0.235   1.820 -0.3416 -0.4912  0.4301
 9864TIP3    H253788   3.464   0.249   1.791  0.0246 -0.0313 -1.2932
 9865TIP3   OH253789   2.703   3.899   4.937  0.2587  0.0463 -0.0328
 9865TIP3    H153790   2.711   3.977   4.991  1.1693  1.9212 -2.6707
 9865TIP3    H253791   2.609   3.892   4.918 -0.1580 -0.9537  2.0550
 9866TIP3   OH253792   0.227   0.024   4.223  0.2220  0.0219 -0.3918
 9866TIP3    H153793   0.303   0.035   4.166  0.5736  0.0913  0.0884
 9866TIP3    H253794   0.231  -0.067   4.251  0.6937  0.2827  0.4249
 9867TIP3   OH253795   0.279   4.526   5.636  0.2482 -0.4710  0.4536
 9867TIP3    H153796   0.273   4.622   5.632 -1.0354 -0.5595 -3.0224
 9867TIP3    H253797   0.369   4.507   5.609  0.3622 -0.2470  0.6765
 9868TIP3   OH253798   3.331   0.166   3.197 -0.0463  0.2352 -0.0540
 9868TIP3    H153799   3.373   0.248   3.172 -2.2660  1.2756 -0.5775
 9868TIP3    H253800   3.238   0.183   3.189 -0.5898 -2.7335 -1.3708
 9869TIP3   OH253801   0.797   6.687   3.030 -0.2237 -0.5207 -0.1179
 9869TIP3    H153802   0.729   6.625   3.055 -0.6325 -0.1705 -0.3560
 9869TIP3    H253803   0.758   6.773   3.044  0.6834 -0.2862  1.1917
 9870TIP3   OH253804   3.937   1.386   3.707 -0.4405 -0.3713  0.3311
 9870TIP3    H153805   3.900   1.470   3.734  1.5263  0.8082 -0.3594
 9870TIP3    H253806   3.891   1.364   3.626 -2.5051 -1.1310  1.6504
 9871TIP3   OH253807   3.518   5.939   5.338  0.0024  0.2806 -0.2711
 9871TIP3    H153808   3.554   5.861   5.381  0.4433  0.8404  0.3913
 9871TIP3    H253809   3.456   5.975   5.401  2.3839  2.4566  1.0136
 9872TIP3   OH253810   1.858   6.182   3.363  0.4104  0.3925 -0.0628
 9872TIP3    H153811   1.904   6.263   3.387  0.9277  0.4331 -1.1296
 9872TIP3    H253812   1.843   6.191   3.268  1.3233 -1.1797 -0.3848
 9873TIP3   OH253813   5.040   3.821   4.749 -0.0933 -0.3323 -0.0318
 9873TIP3    H153814   4.957   3.856   4.780  0.2657  0.3983  0.1202
 9873TIP3    H253815   5.105   3.886   4.775  0.4198 -0.4800 -0.9135
 9874TIP3   OH253816   4.090   4.702   3.319  0.4488 -0.2336 -0.4383
 9874TIP3    H153817   4.038   4.687   3.397  1.0810  1.7048  0.4150
 9874TIP3    H253818   4.058   4.637   3.256 -0.0964 -1.8224  1.3776
 9875TIP3   OH253819   0.395   4.836   4.898  0.5462  0.0596  0.1387
 9875TIP3    H153820   0.380   4.931   4.888 -0.3825  0.2034  2.3064
 9875TIP3    H253821   0.322   4.796   4.850  0.8588  0.4124 -0.6668
 9876TIP3   OH253822   5.481   2.709   3.566 -0.1064  0.2583 -0.4697
 9876TIP3    H153823   5.414   2.661   3.517  0.0325  1.0185 -1.4350
 9876TIP3    H253824   5.432   2.765   3.626 -0.3343  0.6806 -1.0474
 9877TIP3   OH253825   2.957   5.647   2.059  0.4027 -0.1890  0.2992
 9877TIP3    H153826   2.944   5.709   2.130 -0.8133 -1.3840  1.1721
 9877TIP3    H253827   2.870   5.611   2.042  1.0100 -1.3824 -0.4293
 9878TIP3   OH253828   2.887   3.793   2.398 -0.5091 -0.0095 -0.3914
 9878TIP3    H153829   2.962   3.756   2.351 -1.6218  0.0395 -2.3097
 9878TIP3    H253830   2.873   3.878   2.357 -0.9478  0.4581  0.7008
 9879TIP3   OH253831   1.796   0.283   4.241  0.3944  0.2819 -0.4507
 9879TIP3    H153832   1.821   0.232   4.164  1.0337 -0.7358  0.4010
 9879TIP3    H253833   1.761   0.218   4.302 -0.0978  1.0696  0.1173
 9880TIP3   OH253834   1.120   3.747   4.924  0.0865  0.1907 -0.2034
 9880TIP3    H153835   1.191   3.764   4.863 -0.7872  0.1859 -1.2446
 9880TIP3    H253836   1.099   3.654   4.913 -0.7183  0.4129 -0.6070
 9881TIP3   OH253837   2.601   4.697   1.640 -0.3849  0.0078 -0.1629
 9881TIP3    H153838   2.690   4.679   1.671 -0.5298  1.9361  1.5905
 9881TIP3    H253839   2.593   4.646   1.559  1.0736 -2.9737  1.4203
 9882TIP3   OH253840   5.451   4.570   4.654 -0.3323 -0.0835 -0.0280
 9882TIP3    H153841   5.489   4.535   4.734  2.2070  1.3371 -0.5130
 9882TIP3    H253842   5.512   4.638   4.626 -2.4927  1.2852 -1.7688
 9883TIP3   OH253843   4.769   6.108   5.339  0.1040 -0.3604  0.5515
 9883TIP3    H153844   4.732   6.146   5.259 -0.4956  2.5537  2.0968
 9883TIP3    H253845   4.841   6.166   5.363  1.0265 -1.8417  1.5462
 9884TIP3   OH253846   3.820   5.040   2.285 -0.1626 -0.0449  0.2318
 9884TIP3    H153847   3.765   5.074   2.214  0.0411  0.1789  0.1793
 9884TIP3    H253848   3.895   5.098   2.287  0.7040 -1.1042 -0.5479
 9885TIP3   OH253849   2.459   3.229   2.193  0.1097  0.4267  0.2447
 9885TIP3    H153850   2.424   3.188   2.271 -0.0701  1.8460  0.9435
 9885TIP3    H253851   2.383   3.272   2.152  0.3885  0.5598 -0.1417
 9886TIP3   OH253852   5.012   3.821   5.096 -0.6682  0.1389 -0.2447
 9886TIP3    H153853   5.101   3.824   5.060 -1.4281  0.5000 -2.2274
 9886TIP3    H253854   4.989   3.728   5.095 -0.4324  0.0780 -0.0302
 9887TIP3   OH253855   1.908   2.436   3.481  0.3208 -0.4656  0.3651
 9887TIP3    H153856   2.003   2.423   3.471  0.2443 -0.4648 -0.4285
 9887TIP3    H253857   1.900   2.525   3.515  0.5786 -0.2260 -0.1897
 9888TIP3   OH253858   3.698   0.147   3.925  0.2888  0.8187  0.0834
 9888TIP3    H153859   3.700   0.097   4.007 -0.0741 -0.6852 -0.7970
 9888TIP3    H253860   3.606   0.171   3.914  0.1313 -0.0134 -0.4756
 9889TIP3   OH253861   5.540   4.771   2.604  0.0092  0.3126 -0.5378
 9889TIP3    H153862   5.518   4.799   2.693  0.2901 -2.0623  0.3766
 9889TIP3    H253863   5.631   4.798   2.592  0.0544  0.4223  0.0207
 9890TIP3   OH253864   2.994   1.797   4.088  0.3682  0.9169  0.3175
 9890TIP3    H153865   2.931   1.726   4.077  3.0875 -1.4032 -1.8361
 9890TIP3    H253866   3.029   1.785   4.176  2.1013 -1.7760 -0.6145
 9891TIP3   OH253867   3.829   3.280   3.994  0.3485  0.8177 -0.9531
 9891TIP3    H153868   3.901   3.233   3.951  0.6886  1.4927 -1.1316
 9891TIP3    H253869   3.868   3.364   4.020 -0.0211  0.6697  0.1152
 9892TIP3   OH253870   5.179   4.993   4.432  0.3953 -0.8845 -0.0592
 9892TIP3    H153871   5.266   5.011   4.395  0.6042 -3.1992 -0.8502
 9892TIP3    H253872   5.197   4.963   4.521  0.4068 -1.3172 -0.2068
 9893TIP3   OH253873   4.486   0.918   4.501  0.7337  0.4914 -0.4789
 9893TIP3    H153874   4.577   0.932   4.528  0.2190  0.8275  1.2288
 9893TIP3    H253875   4.451   0.859   4.567  0.4325 -2.0218 -2.6948
 9894TIP3   OH253876   1.055   1.435   2.592  0.3999 -0.1661 -0.0544
 9894TIP3    H153877   1.100   1.516   2.615  0.9374  0.3402 -2.5848
 9894TIP3    H253878   1.125   1.374   2.571 -0.0229 -0.3747 -0.9171
 9895TIP3   OH253879   4.367   6.261   5.239 -0.4473 -0.2663 -0.2688
 9895TIP3    H153880   4.299   6.310   5.194  0.3497 -0.4130 -1.6921
 9895TIP3    H253881   4.320   6.191   5.284 -1.3366  0.2581 -0.3679
 9896TIP3   OH253882   0.956   4.163   4.254 -0.3074 -0.6049 -0.1786
 9896TIP3    H153883   0.892   4.232   4.270 -0.0726 -0.3157 -0.4766
 9896TIP3    H253884   0.907   4.096   4.206 -0.3442 -0.2943 -0.5904
 9897TIP3   OH253885   6.827   2.858   4.431  0.0842  0.4163  0.6567
 9897TIP3    H153886   6.752   2.805   4.404  0.8365 -0.1037 -0.5101
 9897TIP3    H253887   6.898   2.794   4.444  1.2393  1.1235 -1.5614
 9898TIP3   OH253888   5.161   2.199   3.780  0.5173  0.6058  0.8836
 9898TIP3    H153889   5.125   2.135   3.842 -0.6599 -0.2717 -0.6399
 9898TIP3    H253890   5.119   2.281   3.802  0.5015  0.4141  1.5809
 9899TIP3   OH253891   0.673   2.889   3.243  0.7643 -0.1379  0.5929
 9899TIP3    H153892   0.741   2.915   3.306  0.3958 -1.0728  1.3971
 9899TIP3    H253893   0.627   2.818   3.286 -0.8362  0.5725  0.1179
 9900TIP3   OH253894   3.447   4.762   3.296  0.3528  0.4708  0.1359
 9900TIP3    H153895   3.536   4.744   3.327  0.0829 -0.1343  0.5630
 9900TIP3    H253896   3.390   4.720   3.360 -0.2251 -0.5776 -1.0238
 9901TIP3   OH253897   1.195   0.798   4.144 -0.2123  0.5077  0.3846
 9901TIP3    H153898   1.128   0.776   4.209 -0.3320 -1.3589 -0.3290
 9901TIP3    H253899   1.205   0.719   4.092  0.9258  1.5041 -0.9737
 9902TIP3   OH253900   5.722   4.746   4.355  0.5296  0.2015 -0.2365
 9902TIP3    H153901   5.646   4.689   4.348  0.9270 -0.3414 -0.1587
 9902TIP3    H253902   5.686   4.834   4.360 -0.1754 -0.1648  1.7579
 9903TIP3   OH253903   4.920   4.398   2.467  0.0914 -0.2138 -0.0814
 9903TIP3    H153904   4.985   4.431   2.529  2.0785 -1.8301 -1.1601
 9903TIP3    H253905   4.938   4.446   2.386 -0.2581 -0.4523 -0.3048
 9904TIP3   OH253906   6.737   2.589   3.461 -0.0940  0.0144 -0.0587
 9904TIP3    H153907   6.819   2.637   3.467  0.3135 -0.8692  2.2722
 9904TIP3    H253908   6.701   2.615   3.376  1.0724  2.8207  0.1763
 9905TIP3   OH253909   0.441   1.966   2.833 -0.2448 -0.1231  0.0053
 9905TIP3    H153910   0.433   1.943   2.926  0.6221 -2.7653 -0.4939
 9905TIP3    H253911   0.351   1.964   2.800 -0.6053  1.2333  0.8178
 9906TIP3   OH253912   0.941   2.256   3.769 -0.4097  0.3794  0.3751
 9906TIP3    H153913   0.859   2.304   3.766 -0.5397  0.1151 -0.9085
 9906TIP3    H253914   1.007   2.322   3.790 -1.0164  0.4732  2.0570
 9907TIP3   OH253915   3.168   2.729   2.328 -0.2943 -0.0859  0.4319
 9907TIP3    H153916   3.206   2.707   2.413  0.7561  0.7167  0.1938
 9907TIP3    H253917   3.081   2.761   2.348 -0.1349 -0.1173  1.1888
 9908TIP3   OH253918   2.704   6.259   3.290  0.1571  0.4128 -0.4967
 9908TIP3    H153919   2.638   6.296   3.348  1.4134  2.4677 -0.2708
 9908TIP3    H253920   2.655   6.232   3.212 -1.5035 -2.0793  1.2820
 9909TIP3   OH253921   2.464   4.255   5.471  0.4768  0.1485  0.8289
 9909TIP3    H153922   2.542   4.251   5.526  0.8431 -0.9340  0.2734
 9909TIP3    H253923   2.416   4.175   5.492  0.3387  0.0028 -0.0033
 9910TIP3   OH253924   3.969   4.966   2.957  0.1134  0.0851  0.2008
 9910TIP3    H153925   3.894   4.908   2.976 -0.3717  0.6121 -0.0777
 9910TIP3    H253926   3.995   5.000   3.043  1.5104 -1.8514  0.6117
 9911TIP3   OH253927   2.282   1.907   4.451 -0.0158 -0.5359  0.0311
 9911TIP3    H153928   2.256   1.965   4.379 -0.0233 -1.1885 -0.4995
 9911TIP3    H253929   2.375   1.926   4.465 -0.0863 -0.1996  0.0462
 9912TIP3   OH253930   5.741   1.043   4.214  0.2636 -0.0618  0.3419
 9912TIP3    H153931   5.766   1.040   4.122 -0.7889 -1.2548  0.0689
 9912TIP3    H253932   5.671   1.108   4.218  1.8021  1.6377  0.7203
 9913TIP3   OH253933   3.928   3.532   3.843 -0.6242 -0.0474 -0.0413
 9913TIP3    H153934   3.920   3.452   3.792 -0.9530  0.1416 -0.2860
 9913TIP3    H253935   3.838   3.557   3.863 -0.5035 -0.0935  0.5900
 9914TIP3   OH253936   1.939   4.334   2.605 -0.7677 -0.4048 -0.0187
 9914TIP3    H153937   1.914   4.303   2.692  0.9062  2.2996  1.5604
 9914TIP3    H253938   1.922   4.428   2.607  1.5198  0.1436 -1.7224
 9915TIP3   OH253939   1.988   2.628   2.886 -0.1305  0.5408 -0.2252
 9915TIP3    H153940   1.965   2.543   2.924  3.5924  0.2926  2.0666
 9915TIP3    H253941   2.026   2.607   2.801  1.2085 -0.2553  0.5261
 9916TIP3   OH253942   5.505   5.036   2.487 -0.7138 -0.2316  0.3121
 9916TIP3    H153943   5.486   4.949   2.521 -0.1232 -1.0282 -1.3326
 9916TIP3    H253944   5.561   5.022   2.411  0.7643  1.6760  0.9593
 9917TIP3   OH253945   1.840   2.024   2.792 -0.3714  0.2399 -0.0658
 9917TIP3    H153946   1.820   2.051   2.882 -1.0476  0.9892 -0.4330
 9917TIP3    H253947   1.902   1.952   2.802 -1.9304 -0.9952  1.0579
 9918TIP3   OH253948   2.172   4.758   2.202  0.0891 -0.5639  0.1101
 9918TIP3    H153949   2.161   4.809   2.122 -1.1065 -0.1632  0.5109
 9918TIP3    H253950   2.258   4.785   2.235 -0.0238  0.3353 -0.2961
 9919TIP3   OH253951   0.920   0.725   2.814  0.1677  0.0410  0.4993
 9919TIP3    H153952   0.859   0.754   2.746  0.9812  1.3720  0.3063
 9919TIP3    H253953   0.991   0.683   2.765  0.9402  1.3380  0.4623
 9920TIP3   OH253954   5.755   0.292   5.038  0.9538  0.6423  0.3793
 9920TIP3    H153955   5.765   0.254   4.950  0.6331  1.5337 -0.0531
 9920TIP3    H253956   5.793   0.227   5.097  0.7528 -0.1714 -0.3781
 9921TIP3   OH253957   2.910   6.730   3.380  0.2379 -0.1282 -0.2673
 9921TIP3    H153958   2.904   6.716   3.475 -1.6999 -0.5145 -0.3986
 9921TIP3    H253959   2.965   6.808   3.371  1.5434 -0.8313  1.0813
 9922TIP3   OH253960   5.526   4.493   3.742 -0.3872 -0.2568  0.1909
 9922TIP3    H153961   5.601   4.551   3.727 -0.6382 -0.4144 -2.0544
 9922TIP3    H253962   5.561   4.420   3.794  0.3156  1.0395  1.6076
 9923TIP3   OH253963   3.702   2.842   2.324  0.3234 -0.3615 -0.0828
 9923TIP3    H153964   3.712   2.760   2.276  1.0436 -0.7447  0.6801
 9923TIP3    H253965   3.684   2.908   2.257  0.9216 -0.9444 -0.8376
 9924TIP3   OH253966   5.784   4.885   2.533  0.5733 -0.1949  1.1222
 9924TIP3    H153967   5.723   4.951   2.499 -0.3604 -1.6447 -0.1064
 9924TIP3    H253968   5.869   4.913   2.501  0.3149  0.8595  1.3125
 9925TIP3   OH253969   5.636   5.238   4.374 -0.0952  0.2199  0.0996
 9925TIP3    H153970   5.704   5.289   4.329  0.3568 -1.4027 -1.1518
 9925TIP3    H253971   5.562   5.240   4.314 -0.5918  0.5998  0.7145
 9926TIP3   OH253972   6.810   5.864   3.114 -0.7844  0.2693  0.0512
 9926TIP3    H153973   6.849   5.935   3.165  1.1060 -0.1790 -0.6777
 9926TIP3    H253974   6.754   5.907   3.050 -1.0913  0.9853  0.7954
 9927TIP3   OH253975   0.082   0.630   3.024  0.6653 -0.2532  0.2643
 9927TIP3    H153976   0.044   0.643   2.937  2.3901 -0.8422 -0.6356
 9927TIP3    H253977   0.098   0.719   3.056  1.3316 -0.0124 -0.6691
 9928TIP3   OH253978   4.591   0.718   3.772 -0.3742 -0.3451  0.2008
 9928TIP3    H153979   4.530   0.700   3.843 -1.7387  2.3018 -0.1883
 9928TIP3    H253980   4.665   0.761   3.815 -0.6423  0.1424  0.1773
 9929TIP3   OH253981   2.850   6.474   3.231  0.1922 -0.3314 -0.3892
 9929TIP3    H153982   2.853   6.531   3.308 -0.5002 -1.6273  0.6345
 9929TIP3    H253983   2.788   6.406   3.254 -0.6181 -0.3445 -2.4155
 9930TIP3   OH253984   0.066   1.942   3.434 -0.1593  0.2615  0.8423
 9930TIP3    H153985   0.140   1.884   3.452  0.4698  0.6706 -0.3041
 9930TIP3    H253986   0.003   1.886   3.389  1.0805  0.7313 -1.6583
 9931TIP3   OH253987   0.253   0.410   3.350  0.2882 -0.3459  0.1431
 9931TIP3    H153988   0.267   0.421   3.444 -0.7475  0.2786  0.2365
 9931TIP3    H253989   0.166   0.445   3.334  1.4301  2.0438 -1.4806
 9932TIP3   OH253990   0.942   4.135   3.407  0.2245  0.0212  0.3689
 9932TIP3    H153991   0.954   4.102   3.496  0.6371 -0.3929  0.1647
 9932TIP3    H253992   1.027   4.121   3.365  0.1677  0.6257  0.0443
 9933TIP3   OH253993   3.168   1.435   3.468  0.0453 -0.5407  0.3928
 9933TIP3    H153994   3.215   1.489   3.404  0.8133 -1.3555  0.2480
 9933TIP3    H253995   3.075   1.448   3.447  0.2942 -1.9410 -1.9023
 9934TIP3   OH253996   1.560   4.275   3.391 -0.1202 -0.0872  0.4494
 9934TIP3    H153997   1.612   4.197   3.376 -0.5587 -0.1166 -1.1411
 9934TIP3    H253998   1.476   4.256   3.349 -0.0075  1.4760 -0.5516
 9935TIP3   OH253999   2.685   6.247   2.238  0.9341  0.1603 -0.0124
 9935TIP3    H154000   2.595   6.233   2.267  0.9372 -0.6276 -0.3731
 9935TIP3    H254001   2.718   6.317   2.295  0.7694 -0.9833  1.5372
 9936TIP3   OH254002   3.287   5.381   3.804 -0.0925 -0.4328 -0.2114
 9936TIP3    H154003   3.251   5.292   3.811  0.8371 -0.7457  0.9531
 9936TIP3    H254004   3.276   5.417   3.892  1.2369 -0.0761 -0.1809
 9937TIP3   OH254005   4.050   4.960   3.549  0.3230  0.2731  0.0949
 9937TIP3    H154006   4.097   4.942   3.468  1.8395  0.6463  0.8608
 9937TIP3    H254007   4.064   5.054   3.565  1.0607 -0.0292  1.3826
 9938TIP3   OH254008   3.133   4.388   1.903 -0.2603  0.1575 -0.3118
 9938TIP3    H154009   3.150   4.466   1.851 -1.0038  2.1359  2.2101
 9938TIP3    H254010   3.191   4.396   1.979 -0.3846 -1.7519  0.0393
 9939TIP3   OH254011   0.757   1.133   4.991  0.4303 -0.3757  0.0363
 9939TIP3    H154012   0.766   1.189   4.914 -1.3389  0.3676  0.3135
 9939TIP3    H254013   0.761   1.044   4.958 -2.5444 -0.1194 -1.3234
 9940TIP3   OH254014   2.256   2.836   1.998  0.0644 -0.3805 -0.0864
 9940TIP3    H154015   2.282   2.927   1.981 -0.8836  0.3855  2.1438
 9940TIP3    H254016   2.339   2.791   2.017  0.5547 -0.0478 -1.3398
 9941TIP3   OH254017   4.673   5.983   3.352  1.0118  0.1207  0.2106
 9941TIP3    H154018   4.713   5.919   3.293 -0.9821 -1.5199  0.5444
 9941TIP3    H254019   4.633   5.931   3.421  1.0109  1.8674  1.6152
 9942TIP3   OH254020   4.662   5.511   4.154 -0.7313 -0.0601  0.2693
 9942TIP3    H154021   4.567   5.521   4.151 -1.0525 -2.1809  1.6268
 9942TIP3    H254022   4.677   5.417   4.159  1.5416  0.1049 -1.5434
 9943TIP3   OH254023   6.533   5.930   4.425  0.3699  0.3968  0.3448
 9943TIP3    H154024   6.583   6.010   4.444 -1.7816  1.5002  1.8086
 9943TIP3    H254025   6.479   5.916   4.503 -0.4519 -1.6131 -0.5171
 9944TIP3   OH254026   2.648   3.504   2.637 -0.2750 -0.1603 -0.5432
 9944TIP3    H154027   2.632   3.421   2.684  0.3386 -0.1960 -0.3829
 9944TIP3    H254028   2.638   3.481   2.545 -0.2811 -0.3773 -0.4908
 9945TIP3   OH254029   2.673   5.679   2.536  0.4075  0.9409 -0.0949
 9945TIP3    H154030   2.644   5.600   2.582  0.7042  0.7446 -0.2460
 9945TIP3    H254031   2.625   5.678   2.453 -0.6789  1.6716  0.4999
 9946TIP3   OH254032   3.620   0.714   4.027  0.1029  0.3304 -0.1750
 9946TIP3    H154033   3.707   0.689   4.058  0.2407 -0.2887 -1.0371
 9946TIP3    H254034   3.567   0.720   4.107  0.9975  1.0213  0.3897
 9947TIP3   OH254035   6.336   0.997   2.211  0.0776 -0.0338  0.4086
 9947TIP3    H154036   6.404   0.966   2.151  0.1752  1.9321 -0.5585
 9947TIP3    H254037   6.330   0.928   2.278  1.5653 -1.2035 -0.6011
 9948TIP3   OH254038   2.855   1.063   3.796  0.0925 -0.3958 -0.0791
 9948TIP3    H154039   2.942   1.057   3.836 -0.3201 -0.2738  0.8623
 9948TIP3    H254040   2.845   0.981   3.748  0.6051 -0.5397  0.0540
 9949TIP3   OH254041   0.563   0.342   5.262 -0.2035  0.2085 -0.0054
 9949TIP3    H154042   0.567   0.400   5.339 -0.1632 -0.2210  0.3190
 9949TIP3    H254043   0.612   0.264   5.288 -0.5794 -0.1315 -0.3062
 9950TIP3   OH254044   3.231   5.948   4.364  0.0502 -0.1297  0.2480
 9950TIP3    H154045   3.145   5.922   4.397 -1.1198 -2.3204 -3.8421
 9950TIP3    H254046   3.232   6.043   4.371 -2.4230 -0.0981  1.0628
 9951TIP3   OH254047   4.157   5.185   3.632  0.9685  0.0010  0.1271
 9951TIP3    H154048   4.124   5.216   3.717 -0.3407  1.2586 -0.8006
 9951TIP3    H254049   4.250   5.171   3.647  1.2735  2.5020  1.2018
 9952TIP3   OH254050   3.591   0.913   3.847 -0.8688 -0.3475  0.0898
 9952TIP3    H154051   3.588   0.835   3.902  1.8564 -0.5883  0.0416
 9952TIP3    H254052   3.659   0.967   3.886 -1.1515  0.9846 -1.1849
 9953TIP3   OH254053   5.218   6.521   3.898 -0.5707  0.4957  0.5919
 9953TIP3    H154054   5.223   6.488   3.987 -0.9341  0.9931  0.8042
 9953TIP3    H254055   5.302   6.497   3.858  0.1938  1.5070  1.5146
 9954TIP3   OH254056   0.081   2.811   3.345  0.0206 -0.2374 -0.4510
 9954TIP3    H154057   0.017   2.858   3.399 -1.4762 -0.5393 -1.8765
 9954TIP3    H254058   0.150   2.876   3.328 -1.9145  1.5171 -2.2557
 9955TIP3   OH254059   4.170   0.280   4.081 -0.5771 -0.4688  0.2423
 9955TIP3    H154060   4.090   0.316   4.043 -0.1515  0.2848  0.0457
 9955TIP3    H254061   4.148   0.265   4.173 -0.0760  2.5930  0.9799
 9956TIP3   OH254062   1.413   0.276   4.237  0.3474  0.1131  0.0906
 9956TIP3    H154063   1.455   0.194   4.263  1.3661  0.8468  0.8257
 9956TIP3    H254064   1.340   0.249   4.181 -0.6008 -1.4295  1.9603
 9957TIP3   OH254065   3.407   6.549   3.370  0.1784 -0.7345 -0.2095
 9957TIP3    H154066   3.442   6.536   3.282 -0.5801  1.9155 -0.9958
 9957TIP3    H254067   3.319   6.512   3.366 -0.7490  1.4258 -1.3839
 9958TIP3   OH254068   2.149   1.734   5.205  0.1678 -0.1695 -0.0002
 9958TIP3    H154069   2.188   1.689   5.280 -1.3468  1.4320  1.8668
 9958TIP3    H254070   2.223   1.780   5.164  0.8953 -0.3473  1.0549
 9959TIP3   OH254071   0.531   5.414   3.235  0.2210  0.4588 -0.6503
 9959TIP3    H154072   0.568   5.328   3.256  2.7962  0.7773 -3.2537
 9959TIP3    H254073   0.568   5.473   3.301 -1.1876 -0.3005  0.8660
 9960TIP3   OH254074   3.348   1.794   4.569 -0.1104 -0.0645 -0.2021
 9960TIP3    H154075   3.374   1.884   4.553 -1.0442  0.2358 -0.1229
 9960TIP3    H254076   3.311   1.764   4.486 -1.8580  0.3838  0.3696
 9961TIP3   OH254077   3.963   4.207   4.420 -0.0634  0.4396  0.4616
 9961TIP3    H154078   3.879   4.222   4.462 -0.4844  1.2607 -0.6500
 9961TIP3    H254079   4.004   4.137   4.473 -0.6966  1.2083  2.0278
 9962TIP3   OH254080   5.108   1.191   3.914 -0.0115 -0.3629  0.3033
 9962TIP3    H154081   5.195   1.163   3.885  0.6084 -0.2429  1.9449
 9962TIP3    H254082   5.115   1.285   3.926  0.1311 -0.5541  1.9539
 9963TIP3   OH254083   1.886   5.143   4.148  0.5605 -0.2066 -0.0833
 9963TIP3    H154084   1.898   5.107   4.236  2.3711 -1.2385 -0.6764
 9963TIP3    H254085   1.946   5.091   4.093 -0.0712  0.8034 -1.8171
 9964TIP3   OH254086   1.777   1.182   2.638 -0.4283 -0.5918 -0.1272
 9964TIP3    H154087   1.796   1.257   2.696 -0.4474 -1.2317  0.7288
 9964TIP3    H254088   1.683   1.187   2.623 -0.2660  0.1828 -0.9806
 9965TIP3   OH254089   1.746   6.695   3.529 -0.1828 -0.4066 -0.5994
 9965TIP3    H154090   1.782   6.743   3.454 -1.0130  0.3916 -0.5001
 9965TIP3    H254091   1.652   6.692   3.513 -0.4329  0.1877  0.6262
 9966TIP3   OH254092   4.826   5.793   3.551 -0.3822 -0.2982 -0.2349
 9966TIP3    H154093   4.826   5.851   3.627 -1.2618 -0.2755 -0.2458
 9966TIP3    H254094   4.737   5.757   3.548 -1.3360  1.9274 -2.9121
 9967TIP3   OH254095   5.660   0.163   3.143 -0.2386 -0.4796 -0.1826
 9967TIP3    H154096   5.681   0.182   3.235  0.7465 -2.2575  0.0080
 9967TIP3    H254097   5.609   0.238   3.114 -0.4346  0.2022  1.7770
 9968TIP3   OH254098   1.129   5.961   4.613  0.0308 -0.8898 -0.0457
 9968TIP3    H154099   1.037   5.948   4.589 -0.1230 -1.2856  0.7301
 9968TIP3    H254100   1.129   5.964   4.709  0.5284  1.3912 -0.0597
 9969TIP3   OH254101   6.000   0.943   5.132  0.1592  0.1363  0.5177
 9969TIP3    H154102   6.025   0.966   5.221 -0.5987  0.4711  0.6457
 9969TIP3    H254103   6.074   0.890   5.100  0.5987  0.3154  1.2096
 9970TIP3   OH254104   5.707   2.798   2.534 -0.0626  0.7295 -0.2172
 9970TIP3    H154105   5.708   2.840   2.620  1.5599 -1.1211  0.7249
 9970TIP3    H254106   5.798   2.799   2.505 -0.1750 -1.0483 -0.7099
 9971TIP3   OH254107   3.564   3.850   2.378  0.0835  0.0860  0.1259
 9971TIP3    H154108   3.494   3.906   2.345 -0.6794  1.0859  3.1392
 9971TIP3    H254109   3.641   3.908   2.382  0.3746 -0.2408 -0.5343
 9972TIP3   OH254110   5.774   2.211   3.613  0.5272  0.1642 -0.4952
 9972TIP3    H154111   5.768   2.128   3.565  1.0242  0.3520 -0.8908
 9972TIP3    H254112   5.692   2.217   3.662  0.3740 -0.4298 -0.6797
 9973TIP3   OH254113   1.392   6.552   2.545 -0.0276 -0.3338  0.2691
 9973TIP3    H154114   1.329   6.486   2.514 -1.2442  1.2554 -0.7881
 9973TIP3    H254115   1.405   6.609   2.469  1.8011  0.0698  0.8484
 9974TIP3   OH254116   5.099   5.659   3.668 -0.9710 -0.0077 -0.2097
 9974TIP3    H154117   5.052   5.665   3.585 -2.8514  0.7178  0.8278
 9974TIP3    H254118   5.161   5.732   3.667 -1.1670  0.1542 -0.8532
 9975TIP3   OH254119   6.224   5.179   3.481  0.8332  0.1073 -0.5489
 9975TIP3    H154120   6.313   5.197   3.451  1.0300 -0.9076 -0.6048
 9975TIP3    H254121   6.205   5.091   3.450  0.9220 -0.8789  1.9717
 9976TIP3   OH254122   1.366   6.583   2.093  0.3797  0.5746 -0.4451
 9976TIP3    H154123   1.285   6.542   2.063 -0.5149  1.6802  0.3660
 9976TIP3    H254124   1.430   6.512   2.096 -0.5591 -0.3225 -1.0840
 9977TIP3   OH254125   5.945   5.545   4.500 -0.5033  0.1209 -0.1861
 9977TIP3    H154126   6.017   5.505   4.550 -0.7458 -0.6520 -0.4453
 9977TIP3    H254127   5.866   5.511   4.541 -0.7041 -0.6407 -1.1884
 9978TIP3   OH254128   1.672   3.646   4.292  0.5905  0.2843  0.6379
 9978TIP3    H154129   1.649   3.729   4.250  0.6718  0.4714  0.9629
 9978TIP3    H254130   1.660   3.661   4.385 -1.7195 -0.7993  0.5931
 9979TIP3   OH254131   6.719   2.457   4.420  0.0233 -0.2427 -0.2458
 9979TIP3    H154132   6.786   2.481   4.356 -0.7706  0.2201 -0.9196
 9979TIP3    H254133   6.644   2.432   4.367 -0.3173 -0.8391  0.5024
 9980TIP3   OH254134   2.822   0.346   4.448  0.4548  1.0446  0.8522
 9980TIP3    H154135   2.780   0.405   4.510 -1.5502  0.1046  0.4685
 9980TIP3    H254136   2.750   0.294   4.412  1.8255  0.1543 -0.7374
 9981TIP3   OH254137   3.780   1.906   4.107 -0.3995  0.1730  0.3862
 9981TIP3    H154138   3.740   1.836   4.158 -0.5647  0.7055  1.0083
 9981TIP3    H254139   3.716   1.977   4.108 -1.0715 -0.3185 -1.8636
 9982TIP3   OH254140   4.286   1.357   4.091 -0.2912  0.7054  0.7972
 9982TIP3    H154141   4.380   1.351   4.106 -0.5575 -1.5373  1.9209
 9982TIP3    H254142   4.276   1.429   4.028  2.1443  0.9956  0.6737
 9983TIP3   OH254143   3.221   1.035   3.000 -0.4740  0.8655  0.1613
 9983TIP3    H154144   3.239   1.032   2.906 -0.1390 -1.3824  0.2322
 9983TIP3    H254145   3.130   1.062   3.007 -0.4990  1.0633 -0.8072
 9984TIP3   OH254146   6.308   0.897   3.959 -0.2772 -0.2094 -0.1893
 9984TIP3    H154147   6.309   0.853   3.874 -1.2666 -0.7648  0.0780
 9984TIP3    H254148   6.318   0.990   3.937 -0.3962 -0.3586 -0.9004
 9985TIP3   OH254149   1.314   4.416   2.628 -0.2602 -0.1851 -0.7664
 9985TIP3    H154150   1.403   4.400   2.658  0.3071 -0.9171 -2.6763
 9985TIP3    H254151   1.259   4.369   2.690  0.6285  0.5067  0.6060
 9986TIP3   OH254152   1.796   4.415   3.035  0.6441 -0.0972 -0.1896
 9986TIP3    H154153   1.829   4.370   3.113  0.7751  0.4883  0.0989
 9986TIP3    H254154   1.709   4.444   3.059  0.3267 -0.7012 -0.5803
 9987TIP3   OH254155   6.608   5.757   5.516  0.6498  0.1351 -0.2035
 9987TIP3    H154156   6.648   5.789   5.597 -0.5833  0.6744  0.2275
 9987TIP3    H254157   6.527   5.714   5.545 -0.4157  1.3538 -1.2067
 9988TIP3   OH254158   5.790   1.748   4.249  0.4433 -0.0522 -0.3144
 9988TIP3    H154159   5.777   1.840   4.273 -1.6024 -0.8995  2.2952
 9988TIP3    H254160   5.854   1.751   4.178  1.3124  3.2933  0.4281
 9989TIP3   OH254161   2.069   5.988   3.126 -0.1641 -0.7019 -0.2701
 9989TIP3    H154162   2.063   6.046   3.049  2.7699 -2.4938 -2.0397
 9989TIP3    H254163   1.989   5.936   3.123 -0.3333 -0.4191 -1.8922
 9990TIP3   OH254164   0.436   2.492   2.580  0.3067 -0.1548 -0.3115
 9990TIP3    H154165   0.345   2.478   2.553  0.2121  2.5573 -1.8158
 9990TIP3    H254166   0.429   2.533   2.666  0.0985 -0.3087 -0.2556
 9991TIP3   OH254167   6.801   4.667   2.237  0.1285 -0.0648 -0.1327
 9991TIP3    H154168   6.788   4.641   2.329 -0.9848 -0.4271 -0.3808
 9991TIP3    H254169   6.769   4.593   2.186  0.0831  0.4281 -0.8284
 9992TIP3   OH254170   5.280   1.406   3.980  0.4367 -0.4050 -0.3263
 9992TIP3    H154171   5.285   1.384   4.073  1.4389  1.8292  0.2031
 9992TIP3    H254172   5.346   1.351   3.939 -0.4157 -1.8464  0.1509
 9993TIP3   OH254173   4.953   5.873   4.676  0.3419  0.1918  0.0502
 9993TIP3    H154174   4.876   5.924   4.653  1.3071  1.5347 -0.3538
 9993TIP3    H254175   4.954   5.801   4.613  0.7466  1.5578 -1.5834
 9994TIP3   OH254176   2.116   5.822   2.817 -0.4531  0.3197  0.1862
 9994TIP3    H154177   2.094   5.906   2.857 -1.4388  0.1407  0.0314
 9994TIP3    H254178   2.178   5.782   2.878 -1.0273  0.5631  0.9418
 9995TIP3   OH254179   3.658   1.536   4.519  0.5880 -0.1159 -0.1684
 9995TIP3    H154180   3.683   1.455   4.563  0.2996 -0.2920 -0.3228
 9995TIP3    H254181   3.630   1.594   4.590  0.7330 -0.1748 -0.0626
 9996TIP3   OH254182   3.119   4.299   4.829 -0.1464  0.2451 -0.1834
 9996TIP3    H154183   3.030   4.331   4.817 -0.1809  0.3944  0.4010
 9996TIP3    H254184   3.170   4.377   4.851  0.0338  0.0948 -0.0545
 9997TIP3   OH254185   6.545   0.357   4.516  0.6002  0.1968  0.2432
 9997TIP3    H154186   6.483   0.382   4.447  0.8530 -0.9803 -0.4423
 9997TIP3    H254187   6.524   0.415   4.589  0.1062  1.2554 -0.7041
 9998TIP3   OH254188   1.380   1.255   3.794 -0.5138  0.2599 -0.1565
 9998TIP3    H154189   1.431   1.281   3.717 -0.7934 -2.0165 -1.1771
 9998TIP3    H254190   1.296   1.299   3.783 -0.5420 -0.0323 -1.1343
 9999TIP3   OH254191   2.534   3.642   4.792 -0.2690  0.9664  0.5654
 9999TIP3    H154192   2.471   3.570   4.792  2.7894 -1.9422 -0.5338
 9999TIP3    H254193   2.577   3.636   4.877 -1.3573  2.9645  1.3287
10000TIP3   OH254194   6.774   0.267   5.084 -0.3075  0.9889  0.2909
10000TIP3    H154195   6.832   0.322   5.137 -1.1679  2.3285 -0.0998
10000TIP3    H254196   6.781   0.180   5.123  2.8585  0.7972 -0.4611
10001TIP3   OH254197   0.252   5.267   3.715  0.5214 -0.1107 -0.1355
10001TIP3    H154198   0.297   5.271   3.630 -0.1354  1.0526 -0.4455
10001TIP3    H254199   0.159   5.274   3.693  0.1180 -2.6472  0.4921
10002TIP3   OH254200   2.515   1.251   4.648  0.6937 -1.0073  0.2423
10002TIP3    H154201   2.504   1.328   4.592  1.2960  1.4049  3.1502
10002TIP3    H254202   2.430   1.207   4.645 -0.1174  0.5086 -0.5315
10003TIP3   OH254203   4.103   0.048   2.359  0.0823  0.1648 -0.1804
10003TIP3    H154204   4.169   0.034   2.427  0.5634  0.2197 -0.6263
10003TIP3    H254205   4.063   0.132   2.381 -0.2998 -0.1738  0.4620
10004TIP3   OH254206   1.398   4.990   4.075  0.0464  0.1602  0.4804
10004TIP3    H154207   1.382   4.924   4.008  2.0573  1.3517 -1.3330
10004TIP3    H254208   1.430   4.941   4.151 -2.3246 -1.2232  0.6692
10005TIP3   OH254209   2.387   3.595   3.728  0.6698  0.3337 -0.3516
10005TIP3    H154210   2.322   3.527   3.710  1.2350 -0.2665 -0.1584
10005TIP3    H254211   2.359   3.633   3.811  2.1814 -1.9559  1.3356
10006TIP3   OH254212   3.633   5.968   4.621 -0.4732  0.2662  0.0706
10006TIP3    H154213   3.664   6.052   4.586  1.6966 -0.7837 -0.6760
10006TIP3    H254214   3.634   5.981   4.716  0.8186  0.8018  0.0132
10007TIP3   OH254215   3.340   2.782   1.889 -0.0733  0.2004 -0.7456
10007TIP3    H154216   3.380   2.842   1.952 -0.4044 -0.6159  0.2579
10007TIP3    H254217   3.251   2.815   1.876 -0.2273 -0.0206 -0.2600
10008TIP3   OH254218   4.753   5.919   3.786 -0.3310  0.0767 -0.2227
10008TIP3    H154219   4.662   5.941   3.804 -0.4717 -0.1711 -0.5999
10008TIP3    H254220   4.793   5.907   3.872 -0.3285  1.4306 -0.0227
10009TIP3   OH254221   3.037   1.738   2.214  0.9605  0.5356  0.2733
10009TIP3    H154222   3.050   1.833   2.221 -1.7848  0.9540  0.7780
10009TIP3    H254223   2.978   1.727   2.139  0.5522 -0.6909  0.7500
10010TIP3   OH254224   4.328   1.829   2.904 -0.7856  0.1427  0.1655
10010TIP3    H154225   4.275   1.751   2.924 -1.6654  0.3223 -1.2845
10010TIP3    H254226   4.400   1.826   2.967 -1.1685 -1.4751  0.5818
10011TIP3   OH254227   4.998   1.493   4.213 -0.2994 -0.0435  0.3621
10011TIP3    H154228   5.030   1.407   4.236  0.3897 -0.0547 -0.5575
10011TIP3    H254229   4.943   1.520   4.286 -0.5177 -1.2563  0.6556
10012TIP3   OH254230   4.319   2.263   3.639 -0.5560  0.3980  0.4875
10012TIP3    H154231   4.248   2.223   3.588 -0.2952  0.2618  0.2224
10012TIP3    H254232   4.390   2.274   3.575 -0.0943 -0.1188  0.9000
10013TIP3   OH254233   5.052   4.994   4.735 -0.0137 -0.2249 -0.1345
10013TIP3    H154234   4.993   4.986   4.660  0.7774  2.1155 -1.1020
10013TIP3    H254235   5.121   4.930   4.718  0.4258  0.6197 -1.7049
10014TIP3   OH254236   2.674   2.551   4.471 -0.1711 -0.0525  0.3340
10014TIP3    H154237   2.634   2.532   4.385  0.2000  2.2172 -0.3936
10014TIP3    H254238   2.611   2.608   4.515  0.8836  1.1156  0.3891
10015TIP3   OH254239   2.376   5.886   5.370  0.1145 -0.3161 -0.1731
10015TIP3    H154240   2.300   5.901   5.426  0.3215  0.9953 -0.1940
10015TIP3    H254241   2.367   5.796   5.338  0.9330 -1.8019  3.3483
10016TIP3   OH254242   5.519   2.296   3.665 -0.2557 -0.1834 -0.2229
10016TIP3    H154243   5.485   2.215   3.705  0.3511  0.0116  0.7299
10016TIP3    H254244   5.497   2.365   3.728  1.1137  0.0668  0.0237
10017TIP3   OH254245   3.471   4.118   2.588 -0.0426 -0.1363 -0.3129
10017TIP3    H154246   3.413   4.105   2.513 -0.2947 -2.1799  0.1521
10017TIP3    H254247   3.413   4.150   2.657  0.0114  0.8648 -0.7277
10018TIP3   OH254248   5.931   4.449   3.478 -0.0248  0.5942 -0.2070
10018TIP3    H154249   5.981   4.503   3.417  1.5243 -0.0687  0.4348
10018TIP3    H254250   5.888   4.512   3.537 -1.1547  1.2188 -1.6389
10019TIP3   OH254251   3.641   5.764   4.411 -0.0113  0.0375  0.0669
10019TIP3    H154252   3.598   5.768   4.497 -0.9466 -1.6722 -0.2758
10019TIP3    H254253   3.678   5.851   4.399  0.4544  0.2331  2.3636
10020TIP3   OH254254   6.795   5.533   3.457  0.1941 -0.1477  0.5487
10020TIP3    H154255   6.829   5.487   3.380 -0.7165 -0.3839  0.2795
10020TIP3    H254256   6.757   5.613   3.423 -2.6815 -1.4786  0.3215
10021TIP3   OH254257   4.118   1.582   3.229  0.1101 -0.1737  0.0327
10021TIP3    H154258   4.087   1.620   3.311 -0.7726 -1.0990  0.1546
10021TIP3    H254259   4.172   1.508   3.255 -1.2187 -1.2661 -0.1914
10022TIP3   OH254260   1.375   3.079   4.048  0.3265 -0.2329  0.1729
10022TIP3    H154261   1.370   3.051   4.140  0.9939 -1.0965 -0.0483
10022TIP3    H254262   1.467   3.096   4.033  0.1315  0.5768 -0.1593
10023TIP3   OH254263   1.743   3.337   3.127 -0.1164 -0.4007 -0.4029
10023TIP3    H154264   1.720   3.395   3.199  0.6406  0.2152 -0.6427
10023TIP3    H254265   1.708   3.381   3.049 -1.0725 -1.1384 -0.4178
10024TIP3   OH254266   2.475   2.891   2.384 -0.3765 -0.4971 -0.3258
10024TIP3    H154267   2.382   2.908   2.399 -0.7803 -0.9069 -2.1230
10024TIP3    H254268   2.478   2.844   2.301  1.3962 -1.1806  0.0753
10025TIP3   OH254269   6.455   3.212   3.993  0.0674  0.4198 -0.3589
10025TIP3    H154270   6.447   3.192   3.899  0.0252  0.8841 -0.4564
10025TIP3    H254271   6.403   3.145   4.036  1.0340 -0.5017 -0.5908
10026TIP3   OH254272   3.825   6.732   2.865  0.0842  0.1706  0.2864
10026TIP3    H154273   3.849   6.784   2.789  0.2243  1.0739  0.9310
10026TIP3    H254274   3.880   6.654   2.860 -0.2306  0.0027 -0.7701
10027TIP3   OH254275   4.494   4.812   4.007 -0.1365 -0.6386 -0.0129
10027TIP3    H154276   4.534   4.755   3.941  0.8934  1.2993 -1.1636
10027TIP3    H254277   4.518   4.773   4.091 -1.0838 -2.9171 -0.7254
10028TIP3   OH254278   2.630   2.391   2.796  0.1871 -0.3111  0.0738
10028TIP3    H154279   2.541   2.394   2.761  0.7224 -0.0394 -1.3613
10028TIP3    H254280   2.659   2.483   2.797  0.2845 -0.3428  1.0167
10029TIP3   OH254281   0.405   1.324   2.439 -0.5184 -0.4370  0.5881
10029TIP3    H154282   0.461   1.392   2.402 -0.1687 -0.5831  0.8500
10029TIP3    H254283   0.465   1.264   2.483 -0.8214 -0.9230  0.3478
10030TIP3   OH254284   2.703   3.256   5.497  0.3269 -0.1645  0.5061
10030TIP3    H154285   2.734   3.342   5.466  0.0935  0.6728  2.4468
10030TIP3    H254286   2.782   3.212   5.527  0.2279  0.1131  1.1859
10031TIP3   OH254287   5.158   3.344   3.990 -0.1948  0.6047  0.0733
10031TIP3    H154288   5.145   3.307   4.077 -3.3466  0.8495 -0.1739
10031TIP3    H254289   5.236   3.399   3.999 -0.3693  0.5654  2.7295
10032TIP3   OH254290   0.116   3.877   4.128 -0.6471 -0.2889 -0.0114
10032TIP3    H154291   0.166   3.957   4.110 -2.0996 -0.1174 -4.5448
10032TIP3    H254292   0.025   3.907   4.133 -1.0287 -1.4699  0.3798
10033TIP3   OH254293   0.123   1.847   5.700  0.4925 -0.5840 -0.0946
10033TIP3    H154294   0.152   1.764   5.737  0.6263 -1.0193 -1.1357
10033TIP3    H254295   0.130   1.835   5.605 -1.4078 -0.0911 -0.3432
10034TIP3   OH254296   5.806   6.137   5.158 -0.1106  0.6058 -0.0543
10034TIP3    H154297   5.859   6.177   5.227  0.4963  1.6920 -1.1153
10034TIP3    H254298   5.870   6.109   5.093 -0.5550 -1.7302  0.4219
10035TIP3   OH254299   3.696   5.626   3.792  0.2886  0.1003  0.0074
10035TIP3    H154300   3.645   5.587   3.721  1.5870 -0.8589 -0.4249
10035TIP3    H254301   3.716   5.553   3.851  1.5355  0.3618 -0.0654
10036TIP3   OH254302   3.232   6.226   1.686  0.7292 -0.0779  0.5090
10036TIP3    H154303   3.249   6.158   1.751  0.9967 -1.3543 -0.8418
10036TIP3    H254304   3.218   6.178   1.604  1.0462  1.5105 -0.5195
10037TIP3   OH254305   2.743   3.794   3.997  0.1400  0.1843  0.5667
10037TIP3    H154306   2.667   3.847   4.020 -0.8536 -1.0716  0.2932
10037TIP3    H254307   2.706   3.710   3.970  1.7078 -1.2016  2.4553
10038TIP3   OH254308   3.583   3.442   2.479  0.1082  0.2569  0.1783
10038TIP3    H154309   3.556   3.496   2.553  1.4444  0.0711  0.8403
10038TIP3    H254310   3.510   3.446   2.418 -0.5084  1.4242  0.9603
10039TIP3   OH254311   4.450   2.786   4.347 -0.3639  0.5983 -0.0253
10039TIP3    H154312   4.358   2.776   4.325 -0.6144 -0.0365  1.2113
10039TIP3    H254313   4.451   2.852   4.417  0.2824  1.6820 -1.0097
10040TIP3   OH254314   4.409   5.073   3.669  0.0927  0.0704  0.0110
10040TIP3    H154315   4.439   5.139   3.732  0.9184 -1.0013  0.7874
10040TIP3    H254316   4.430   5.110   3.583 -1.4705  1.7684  0.3037
10041TIP3   OH254317   4.101   3.035   3.653 -0.0362  0.9091 -0.1455
10041TIP3    H154318   4.144   2.955   3.622 -0.9896 -0.0270  0.8673
10041TIP3    H254319   4.018   3.038   3.606 -0.2593  0.9892  0.2469
10042TIP3   OH254320   2.427   2.489   2.216 -0.0928 -0.4286  0.2336
10042TIP3    H154321   2.365   2.424   2.250 -0.3561 -0.0027  0.6014
10042TIP3    H254322   2.476   2.517   2.294 -0.8482  0.7187  0.3224
10043TIP3   OH254323   1.559   6.668   4.345 -0.1052  0.6974  0.4255
10043TIP3    H154324   1.576   6.703   4.433 -1.4988 -0.5257  1.2194
10043TIP3    H254325   1.555   6.746   4.289  0.2288  1.5432  1.5328
10044TIP3   OH254326   5.508   5.926   2.432 -0.3421  0.0598 -0.0100
10044TIP3    H154327   5.465   5.852   2.475  1.1091 -1.0249 -0.3387
10044TIP3    H254328   5.437   5.971   2.386 -1.2917 -1.0401  0.3226
10045TIP3   OH254329   3.425   1.931   2.309 -0.1974 -0.0919 -0.0815
10045TIP3    H154330   3.352   1.879   2.344  0.2988 -0.3945  0.5240
10045TIP3    H254331   3.432   2.005   2.369  0.4407 -0.4360  0.2828
10046TIP3   OH254332   4.701   3.381   4.392 -0.1760  0.7451  0.3327
10046TIP3    H154333   4.722   3.290   4.414 -1.8019  0.2594  0.0666
10046TIP3    H254334   4.741   3.432   4.461 -0.4479 -0.3069  1.3051
10047TIP3   OH254335   4.258   0.218   3.206 -0.5482  0.1651  0.1242
10047TIP3    H154336   4.331   0.157   3.213 -0.1397  0.6012 -0.2932
10047TIP3    H254337   4.296   0.304   3.224 -0.7310  0.5335 -1.1173
10048TIP3   OH254338   6.078   2.412   2.518  0.2765  0.0315  0.4936
10048TIP3    H154339   5.989   2.397   2.489  0.0270 -0.9877  1.6913
10048TIP3    H254340   6.073   2.492   2.570  0.0403 -0.0365  0.5781
10049TIP3   OH254341   5.887   4.305   3.872 -0.0693 -0.0805  0.1683
10049TIP3    H154342   5.944   4.375   3.839 -1.0831  1.4148  1.4397
10049TIP3    H254343   5.902   4.232   3.812 -0.1886  1.7479 -2.2676
10050TIP3   OH254344   4.311   5.429   4.709 -0.2172  0.3061  0.0586
10050TIP3    H154345   4.236   5.390   4.665 -0.1467 -1.4396  1.3700
10050TIP3    H254346   4.273   5.488   4.774 -0.3644  1.1921 -0.8067
10051TIP3   OH254347   0.568   5.439   5.591 -0.1417  0.1043 -0.1619
10051TIP3    H154348   0.567   5.451   5.686 -0.2144  0.6949 -0.2325
10051TIP3    H254349   0.574   5.344   5.578  2.6083  0.0909  0.4503
10052TIP3   OH254350   1.260   0.313   4.517 -0.0116 -0.1897 -0.0102
10052TIP3    H154351   1.330   0.267   4.562 -0.3239 -0.1508  0.5147
10052TIP3    H254352   1.229   0.251   4.451 -0.1660 -0.5830  0.4312
10053TIP3   OH254353   4.254   3.173   5.284  0.0898  0.7754  0.7122
10053TIP3    H154354   4.338   3.127   5.282 -0.4649 -0.2645  0.6903
10053TIP3    H254355   4.189   3.106   5.264 -0.6439  1.8457 -0.6493
10054TIP3   OH254356   3.403   0.448   4.873  0.0406  0.1965  0.0463
10054TIP3    H154357   3.424   0.471   4.783  1.2308  1.1491  0.5390
10054TIP3    H254358   3.422   0.528   4.923 -0.6753 -0.2884  1.1330
10055TIP3   OH254359   4.547   2.526   4.711  0.3348  0.5341 -0.0112
10055TIP3    H154360   4.602   2.572   4.648  0.2720 -1.3954 -1.5532
10055TIP3    H254361   4.531   2.591   4.780  1.9037  2.1365 -1.0650
10056TIP3   OH254362   3.842   6.034   3.260 -0.4137 -0.7465  0.3316
10056TIP3    H154363   3.866   6.056   3.171  1.3131 -0.0899  0.9203
10056TIP3    H254364   3.747   6.044   3.262 -0.4758 -0.7088 -1.4030
10057TIP3   OH254365   2.976   4.761   4.878  0.3500  0.1823 -0.3837
10057TIP3    H154366   2.950   4.724   4.794  0.0911  0.2447 -0.3319
10057TIP3    H254367   2.932   4.706   4.943 -0.6139  0.9928 -0.3159
10058TIP3   OH254368   1.546   5.853   5.263 -0.1285  0.3890  0.2749
10058TIP3    H154369   1.507   5.920   5.320 -0.7192  0.7970 -0.5881
10058TIP3    H254370   1.478   5.787   5.254 -0.7007  1.1506 -1.3201
10059TIP3   OH254371   3.877   0.175   4.380  0.3187 -0.3257  0.1948
10059TIP3    H154372   3.835   0.089   4.380 -0.9648  0.2539  1.7178
10059TIP3    H254373   3.912   0.184   4.469 -0.4347  1.1084  0.3726
10060TIP3   OH254374   0.124   1.390   3.005  0.0322 -0.1249 -0.2649
10060TIP3    H154375   0.104   1.452   2.934 -0.7172 -0.6902 -0.5568
10060TIP3    H254376   0.169   1.317   2.961 -1.4489 -1.0102 -0.3697
10061TIP3   OH254377   4.438   4.173   4.311  0.5174 -0.3242 -0.4781
10061TIP3    H154378   4.527   4.141   4.293  1.4620  1.0870  1.2977
10061TIP3    H254379   4.426   4.247   4.251  1.2570  0.5311  0.3750
10062TIP3   OH254380   1.513   1.006   2.560  0.1311 -0.1080 -0.2525
10062TIP3    H154381   1.518   1.094   2.596  2.5044 -0.4107  0.3443
10062TIP3    H254382   1.482   0.951   2.633  0.5473 -0.0544 -0.0355
10063TIP3   OH254383   4.781   6.650   4.358  0.3846  0.2538  0.4608
10063TIP3    H154384   4.808   6.647   4.450  0.6129  0.4349  0.3991
10063TIP3    H254385   4.689   6.676   4.361 -0.5472 -2.7287  0.8203
10064TIP3   OH254386   4.922   5.584   5.122 -0.1207  0.0104  0.2149
10064TIP3    H154387   4.999   5.560   5.072 -1.1788 -0.6303 -1.1964
10064TIP3    H254388   4.938   5.550   5.210  1.1058 -0.2804 -0.1136
10065TIP3   OH254389   1.830   3.676   3.021  0.0210 -0.4606  0.6087
10065TIP3    H154390   1.898   3.622   3.063  0.8584  0.2614  0.2165
10065TIP3    H254391   1.791   3.619   2.955  2.1009 -0.1085 -1.0314
10066TIP3   OH254392   2.156   5.431   4.404  0.5246  0.2303 -0.6945
10066TIP3    H154393   2.084   5.368   4.400 -1.5290  2.4369 -0.5574
10066TIP3    H254394   2.235   5.377   4.396 -1.0296 -2.4659  0.6430
10067TIP3   OH254395   4.610   6.266   4.340 -0.1767  0.3681  0.4168
10067TIP3    H154396   4.602   6.175   4.369  0.5487  0.8586  2.2695
10067TIP3    H254397   4.535   6.279   4.281 -0.2058 -1.4482  0.0023
10068TIP3   OH254398   3.164   2.134   3.456  0.6973 -0.0997 -0.2968
10068TIP3    H154399   3.128   2.219   3.432  0.9666 -0.2744 -1.3562
10068TIP3    H254400   3.117   2.072   3.401  0.5405 -0.6415  0.4327
10069TIP3   OH254401   5.414   5.572   6.017  0.0823  0.2424  0.3555
10069TIP3    H154402   5.366   5.652   5.994 -0.2027  0.1969  0.7906
10069TIP3    H254403   5.497   5.580   5.969 -0.6501 -0.0313 -1.0246
10070TIP3   OH254404   0.263   4.587   3.870 -0.1232  0.2119 -0.0351
10070TIP3    H154405   0.338   4.529   3.856 -1.9699 -2.0201 -1.3012
10070TIP3    H254406   0.288   4.641   3.945  2.1335 -1.5067  0.5541
10071TIP3   OH254407   0.075   5.735   4.844 -0.1267  0.7311 -0.5219
10071TIP3    H154408   0.001   5.723   4.783 -2.3989  1.7042  1.8353
10071TIP3    H254409   0.063   5.823   4.878  0.6911  0.0268  1.7547
10072TIP3   OH254410   5.748   2.531   2.616  0.2395 -0.4577 -0.0482
10072TIP3    H154411   5.720   2.622   2.600  0.0910 -0.7632 -1.7654
10072TIP3    H254412   5.745   2.490   2.529  0.4072 -2.0869  0.6822
10073TIP3   OH254413   4.079   3.441   4.176  0.2421  0.2408  0.3115
10073TIP3    H154414   4.134   3.438   4.097  0.0327  0.1946  0.1657
10073TIP3    H254415   4.094   3.528   4.212  1.6280 -0.3180  1.1563
10074TIP3   OH254416   0.975   4.530   2.535 -0.3004  0.4867 -0.0577
10074TIP3    H154417   1.024   4.561   2.612 -0.5218 -0.1685  0.3513
10074TIP3    H254418   1.039   4.481   2.484 -0.2098  0.7279 -0.1761
10075TIP3   OH254419   3.974   5.611   3.273 -0.1136 -0.4720  0.1039
10075TIP3    H154420   3.999   5.533   3.321  1.3792 -0.2149 -0.1979
10075TIP3    H254421   4.056   5.659   3.261 -1.1505  1.7479  1.3344
10076TIP3   OH254422   6.187   2.210   2.898  0.2384  0.1048 -0.3135
10076TIP3    H154423   6.178   2.194   2.804  1.4637 -0.3164 -0.3870
10076TIP3    H254424   6.204   2.304   2.905  0.9957  0.0041 -0.6135
10077TIP3   OH254425   0.712   0.724   2.386 -0.3568  0.6389 -0.3843
10077TIP3    H154426   0.704   0.647   2.329 -1.3224  0.9734 -0.7143
10077TIP3    H254427   0.720   0.687   2.474 -2.2692  0.1524 -0.3709
10078TIP3   OH254428   0.291   5.929   2.460 -0.3042  0.3046 -0.2214
10078TIP3    H154429   0.250   5.844   2.475 -1.1872  0.9299  1.1477
10078TIP3    H254430   0.218   5.991   2.458  0.4266  1.2135  0.3092
10079TIP3   OH254431   2.860   0.804   3.013 -0.1186  0.5909 -0.5286
10079TIP3    H154432   2.915   0.767   2.944 -2.4444  1.4450 -3.0742
10079TIP3    H254433   2.819   0.728   3.055 -0.8019  0.0447 -2.0888
10080TIP3   OH254434   5.168   4.005   2.796  0.6759  0.3101 -0.1911
10080TIP3    H154435   5.190   4.046   2.713 -0.8038  2.4718  0.3890
10080TIP3    H254436   5.092   3.950   2.777  0.9194  0.0558 -0.4372
10081TIP3   OH254437   5.083   4.534   4.633 -0.0037  0.0228  0.2259
10081TIP3    H154438   5.014   4.584   4.589  0.0737 -0.5530 -0.5633
10081TIP3    H254439   5.114   4.471   4.567 -0.1689 -1.1340  1.2034
10082TIP3   OH254440   3.899   1.860   2.689 -0.1435  0.0372  0.1033
10082TIP3    H154441   3.875   1.951   2.671  1.1293  0.1707 -1.1400
10082TIP3    H254442   3.911   1.856   2.784 -2.2984  0.6079  0.4436
10083TIP3   OH254443   3.990   2.472   4.243 -0.4192 -0.0339 -0.4942
10083TIP3    H154444   4.074   2.518   4.252 -0.1330 -0.6359 -0.0507
10083TIP3    H254445   3.948   2.514   4.168  0.0861  0.5702 -0.4492
10084TIP3   OH254446   3.208   3.000   4.753 -0.2697 -0.1911 -0.2364
10084TIP3    H154447   3.144   3.041   4.812 -0.9512 -0.1060 -1.0144
10084TIP3    H254448   3.169   2.916   4.730  0.3105 -0.5165 -0.0274
10085TIP3   OH254449   6.694   3.714   5.022 -1.1684  0.1773 -0.2888
10085TIP3    H154450   6.763   3.655   4.993 -1.1176 -0.0678  0.3210
10085TIP3    H254451   6.721   3.742   5.110 -2.2678 -0.6240  0.3341
10086TIP3   OH254452   3.608   5.569   2.157  0.1349  0.2029  0.1309
10086TIP3    H154453   3.653   5.526   2.085  0.0630 -0.0619  0.2395
10086TIP3    H254454   3.525   5.597   2.120 -0.7191 -1.5884  0.5500
10087TIP3   OH254455   4.195   0.520   3.767  0.2952 -0.6073  0.5166
10087TIP3    H154456   4.140   0.443   3.755 -0.0450 -0.2764 -0.0796
10087TIP3    H254457   4.151   0.572   3.834  0.1180 -0.5612  0.3649
10088TIP3   OH254458   6.286   2.955   2.466  0.2609  0.4904  0.1684
10088TIP3    H154459   6.192   2.965   2.477 -0.1937 -0.8390 -1.9486
10088TIP3    H254460   6.309   2.878   2.518  0.2596  1.0112  0.9521
10089TIP3   OH254461   3.788   6.260   2.524  0.6694  0.2537 -0.2532
10089TIP3    H154462   3.873   6.264   2.480  0.0885  0.3932 -1.4169
10089TIP3    H254463   3.798   6.314   2.602  1.0505  1.9886 -1.4605
10090TIP3   OH254464   2.599   1.842   3.251 -0.2763 -0.2604 -0.0999
10090TIP3    H154465   2.524   1.866   3.196  1.0371  1.3351 -1.2734
10090TIP3    H254466   2.674   1.848   3.193  0.7028 -2.9086  0.7675
10091TIP3   OH254467   5.913   6.603   3.634 -0.3945  0.1246 -0.1125
10091TIP3    H154468   5.881   6.687   3.667 -1.6068 -0.1566 -0.5266
10091TIP3    H254469   5.956   6.563   3.710  0.5590  1.2817 -0.0222
10092TIP3   OH254470   0.561   5.798   5.715  0.0737 -0.2382 -0.0488
10092TIP3    H154471   0.656   5.806   5.718 -0.0171  0.7828  1.5793
10092TIP3    H254472   0.539   5.804   5.622  1.6309 -1.2058 -0.5141
10093TIP3   OH254473   2.225   2.872   2.522  0.1466  0.1175  0.4674
10093TIP3    H154474   2.177   2.809   2.468  0.5625  1.9380 -2.2389
10093TIP3    H254475   2.158   2.935   2.549  0.1400 -0.1767  1.1509
10094TIP3   OH254476   3.772   6.817   3.541  0.9000 -0.4351 -0.4717
10094TIP3    H154477   3.771   6.842   3.634  0.0755  1.0231 -0.8422
10094TIP3    H254478   3.682   6.789   3.524  1.6227 -3.1512 -0.2558
10095TIP3   OH254479   1.697   6.143   4.446  0.7588 -0.3313  0.4284
10095TIP3    H154480   1.635   6.077   4.414  1.0940 -1.2834  1.6948
10095TIP3    H254481   1.659   6.227   4.418 -0.5982 -0.9479  0.3558
10096TIP3   OH254482   6.560   3.819   2.097  0.4915 -0.0270 -0.2937
10096TIP3    H154483   6.624   3.880   2.060  0.1496  2.6932  3.0302
10096TIP3    H254484   6.475   3.858   2.077  0.1218 -0.8995 -0.4409
10097TIP3   OH254485   1.564   2.122   5.347 -0.0067  0.4037 -0.1382
10097TIP3    H154486   1.568   2.218   5.351 -0.3756  0.4094  0.1562
10097TIP3    H254487   1.655   2.095   5.334 -0.0913  0.8485 -1.8930
10098TIP3   OH254488   5.887   2.009   4.057  0.2628  0.0926 -0.7103
10098TIP3    H154489   5.938   1.936   4.023 -0.5992 -0.5979 -0.5640
10098TIP3    H254490   5.799   1.995   4.022  0.0460  0.9612 -0.5338
10099TIP3   OH254491   2.301   0.382   2.519  0.1182 -0.4211 -0.1801
10099TIP3    H154492   2.303   0.339   2.605 -2.2512  0.1517  0.2379
10099TIP3    H254493   2.271   0.471   2.537  2.9648  0.8678 -1.2738
10100TIP3   OH254494   5.927   2.661   3.582  0.1137  0.2648  0.1489
10100TIP3    H154495   5.846   2.610   3.577  1.4605 -2.1187  0.9975
10100TIP3    H254496   5.962   2.658   3.493 -0.1924  0.3834  0.0217
10101TIP3   OH254497   0.653   4.907   4.535  0.0252  0.3832 -0.4517
10101TIP3    H154498   0.637   4.976   4.600  1.9936  0.6831 -0.2395
10101TIP3    H254499   0.679   4.953   4.456 -0.1287 -0.0807 -0.7822
10102TIP3   OH254500   1.924   6.253   4.611  0.0411  0.0398  0.5798
10102TIP3    H154501   1.840   6.233   4.569  0.6689  1.7015 -1.6709
10102TIP3    H254502   1.909   6.337   4.655  0.2195 -0.2419  1.1852
10103TIP3   OH254503   3.200   3.289   3.188  0.3610  0.0159  0.3165
10103TIP3    H154504   3.202   3.358   3.122 -1.0237  1.8476  2.0741
10103TIP3    H254505   3.282   3.300   3.237 -0.2301  0.9889  1.1133
10104TIP3   OH254506   1.704   0.262   2.236  0.7912  0.2833  0.3069
10104TIP3    H154507   1.761   0.191   2.265  1.2914 -0.6693 -2.6543
10104TIP3    H254508   1.763   0.336   2.223  0.7131  0.4345  0.7876
10105TIP3   OH254509   4.685   1.333   4.549 -0.0355 -0.4006 -0.6034
10105TIP3    H154510   4.678   1.252   4.600  0.4412 -0.3657 -0.4815
10105TIP3    H254511   4.775   1.362   4.561 -0.8831  1.6771  1.6726
10106TIP3   OH254512   4.448   1.629   4.766 -0.0606 -0.2108  0.2271
10106TIP3    H154513   4.401   1.634   4.849 -0.2950 -0.1127  0.0898
10106TIP3    H254514   4.534   1.668   4.784  0.0417 -0.5710  0.5298
10107TIP3   OH254515   5.885   3.384   2.494  0.5232  0.3674 -0.2006
10107TIP3    H154516   5.863   3.452   2.558 -0.4392 -0.7403  0.6998
10107TIP3    H254517   5.820   3.396   2.424  0.3185  0.3436 -0.0167
10108TIP3   OH254518   6.456   0.892   2.481 -0.5921  0.3546 -0.0952
10108TIP3    H154519   6.406   0.899   2.562 -0.9905  0.4118 -0.3408
10108TIP3    H254520   6.442   0.801   2.452 -1.0940  0.5551 -0.5017
10109TIP3   OH254521   0.829   5.933   4.689  0.2482 -0.2252 -0.3416
10109TIP3    H154522   0.828   5.992   4.764 -0.3525  0.1529 -0.6363
10109TIP3    H254523   0.797   5.849   4.723 -1.5584  0.3547 -0.4811
10110TIP3   OH254524   0.854   4.501   3.232  0.9296  0.0519 -0.2926
10110TIP3    H154525   0.893   4.582   3.264  0.6687  0.7664 -1.6833
10110TIP3    H254526   0.927   4.448   3.202  1.0274  0.2550 -0.4140
10111TIP3   OH254527   4.328   5.051   2.653  0.0054  0.0388 -0.7634
10111TIP3    H154528   4.284   5.015   2.576  2.1371 -2.0026 -1.1193
10111TIP3    H254529   4.385   4.981   2.683  2.0709  2.0943  0.4066
10112TIP3   OH254530   6.679   4.917   3.567 -0.5376 -0.0349  0.6429
10112TIP3    H154531   6.721   4.841   3.527  0.4418  0.3315  0.9596
10112TIP3    H254532   6.683   4.900   3.661 -1.7602 -0.3249  0.6693
10113TIP3   OH254533   3.714   2.640   3.827 -0.1368  0.1418  0.2043
10113TIP3    H154534   3.676   2.726   3.809 -0.8783 -0.4389 -1.1366
10113TIP3    H254535   3.641   2.579   3.818 -0.4790 -0.3958  4.5380
10114TIP3   OH254536   3.370   1.433   3.956 -0.1753  0.2799  0.1673
10114TIP3    H154537   3.439   1.385   4.003 -3.8730 -2.6517  3.2363
10114TIP3    H254538   3.333   1.368   3.896 -0.5757  1.6673 -1.1237
10115TIP3   OH254539   0.447   3.589   4.221 -0.2265  0.1021 -0.3137
10115TIP3    H154540   0.387   3.618   4.290  0.6602 -0.3325  0.6729
10115TIP3    H254541   0.468   3.499   4.244  0.4541  0.1057 -0.8755
10116TIP3   OH254542   5.410   0.738   4.837  0.6018  0.1305  0.2945
10116TIP3    H154543   5.472   0.678   4.795  0.0009 -0.9951  0.9709
10116TIP3    H254544   5.349   0.760   4.767  1.7837  1.3363 -0.4092
10117TIP3   OH254545   5.686   1.189   4.833 -0.2351  0.4543  0.4777
10117TIP3    H154546   5.731   1.172   4.750 -1.3289  0.0561 -0.0567
10117TIP3    H254547   5.605   1.138   4.827  0.0777 -0.2988  2.1711
10118TIP3   OH254548   0.934   3.937   4.830  0.0897 -0.4210  0.3202
10118TIP3    H154549   0.989   3.878   4.882  1.1944  0.6772  0.4639
10118TIP3    H254550   0.905   4.003   4.893 -0.6932 -0.5059  0.0559
10119TIP3   OH254551   1.590   1.532   2.806 -0.0178  0.0227  0.4259
10119TIP3    H154552   1.619   1.536   2.715 -1.9053  0.1046 -0.2083
10119TIP3    H254553   1.499   1.560   2.804  0.5610  2.4601  2.7063
10120TIP3   OH254554   3.394   5.836   4.573  0.1400  0.3455  0.0968
10120TIP3    H154555   3.361   5.860   4.486  1.0716 -0.4525 -0.5017
10120TIP3    H254556   3.457   5.905   4.595 -1.6414  1.7232  1.1219
10121TIP3   OH254557   1.856   5.380   4.036 -0.0695  0.2567 -0.3017
10121TIP3    H154558   1.884   5.362   3.946 -2.3582 -0.0591 -1.0305
10121TIP3    H254559   1.850   5.294   4.076  1.8139  0.4548  0.4866
10122TIP3   OH254560   5.757   5.614   3.342 -0.1475  0.3652 -0.6654
10122TIP3    H154561   5.671   5.628   3.382 -1.1621 -0.6395 -2.3594
10122TIP3    H254562   5.738   5.579   3.255  1.9947  0.0349 -1.0730
10123TIP3   OH254563   0.764   4.354   4.310  0.8114  0.2000 -0.3895
10123TIP3    H154564   0.694   4.314   4.258  0.2935 -0.9874  1.1587
10123TIP3    H254565   0.739   4.446   4.316 -2.4757 -0.6913  2.7788
10124TIP3   OH254566   5.254   2.574   4.771  0.2251  0.1596 -0.1141
10124TIP3    H154567   5.242   2.606   4.861 -2.4397 -0.6847 -0.0885
10124TIP3    H254568   5.347   2.590   4.752  0.5971  1.4065  2.3609
10125TIP3   OH254569   5.886   1.831   3.669  0.1336  0.1496 -0.2851
10125TIP3    H154570   5.816   1.768   3.690  1.7037 -0.6908  3.0587
10125TIP3    H254571   5.851   1.880   3.595 -3.3840 -1.1832  0.2552
10126TIP3   OH254572   5.299   2.520   2.330 -0.4426  0.1423 -0.0111
10126TIP3    H154573   5.268   2.448   2.275 -2.1561 -0.3507  1.4901
10126TIP3    H254574   5.374   2.484   2.377 -1.7108 -0.9952  1.2563
10127TIP3   OH254575   6.227   1.720   2.518  0.1416  0.0732  0.0856
10127TIP3    H154576   6.162   1.650   2.522 -0.7055  0.7946 -0.5871
10127TIP3    H254577   6.199   1.775   2.444  0.6675  1.2239  0.7070
10128TIP3   OH254578   5.625   1.035   2.249  0.3729  0.3365  0.2522
10128TIP3    H154579   5.719   1.015   2.255  0.3416  0.2842  0.5882
10128TIP3    H254580   5.586   0.954   2.215  0.6515  0.8941 -1.5202
10129TIP3   OH254581   4.147   6.162   3.311 -0.3263  0.3215  0.3790
10129TIP3    H154582   4.218   6.180   3.372 -0.7098  1.9684  0.4031
10129TIP3    H254583   4.165   6.075   3.277 -0.4940 -1.0286  3.3848
10130TIP3   OH254584   5.040   5.795   3.386 -0.1643  0.2776 -0.1378
10130TIP3    H154585   5.112   5.848   3.419  1.0710 -1.4941  0.1279
10130TIP3    H254586   4.966   5.817   3.443  1.3892 -1.2376  2.6038
10131TIP3   OH254587   2.946   3.655   3.581  0.1279 -0.5541  0.4600
10131TIP3    H154588   3.032   3.623   3.609  0.6499  0.2580 -0.1514
10131TIP3    H254589   2.908   3.695   3.659 -0.8551 -3.1984  1.4476
10132TIP3   OH254590   4.278   6.567   5.019 -0.5313  0.8164  0.3007
10132TIP3    H154591   4.301   6.536   4.932 -0.8592 -0.4470  0.6411
10132TIP3    H254592   4.279   6.488   5.073 -3.1770  1.0793  0.8424
10133TIP3   OH254593   0.641   0.118   5.373 -0.4166  0.3597 -0.1176
10133TIP3    H154594   0.729   0.085   5.352 -1.0477 -0.7398 -1.1181
10133TIP3    H254595   0.605   0.055   5.435 -1.3828 -0.5162 -1.5330
10134TIP3   OH254596   0.991   2.634   2.719 -0.1686  0.2357 -0.2181
10134TIP3    H154597   0.922   2.696   2.740 -1.1221 -0.5172 -0.9969
10134TIP3    H254598   0.980   2.616   2.625 -0.3643 -1.5952  0.1085
10135TIP3   OH254599   1.397   2.016   4.305  0.1249  0.4072 -0.0531
10135TIP3    H154600   1.407   1.944   4.367 -0.4543  0.6966  0.3871
10135TIP3    H254601   1.303   2.033   4.302  0.3464  2.0756  0.9424
10136TIP3   OH254602   4.238   0.938   3.681  0.0859 -0.5330 -0.2738
10136TIP3    H154603   4.147   0.964   3.695 -0.1940  0.1463 -2.8273
10136TIP3    H254604   4.233   0.864   3.621  1.1880 -1.5738  0.8661
10137TIP3   OH254605   2.669   5.283   4.488 -0.5034 -0.3866 -0.5471
10137TIP3    H154606   2.662   5.377   4.472 -1.5685 -0.2815  0.4475
10137TIP3    H254607   2.756   5.260   4.456 -0.1748  0.9613 -0.6749
10138TIP3   OH254608   4.407   4.909   3.440  0.0515  0.0687  0.2010
10138TIP3    H154609   4.495   4.933   3.471  0.6252  0.3648 -1.5580
10138TIP3    H254610   4.365   4.993   3.422 -0.6221 -0.0717  1.0596
10139TIP3   OH254611   0.020   1.697   3.063 -0.5602  0.0904  0.5677
10139TIP3    H154612   0.091   1.679   3.125  0.1105  1.3242  0.1829
10139TIP3    H254613  -0.008   1.610   3.033  1.4682 -0.4013 -0.0336
10140TIP3   OH254614   4.894   1.633   3.212  0.0016  0.6525  0.5122
10140TIP3    H154615   4.853   1.679   3.285 -2.3318  2.8210 -1.9136
10140TIP3    H254616   4.837   1.559   3.194 -1.1356  1.7833 -0.8043
10141TIP3   OH254617   2.578   4.640   2.625  0.1016  0.2432  1.1626
10141TIP3    H154618   2.653   4.581   2.633 -0.4965 -0.6561  0.3352
10141TIP3    H254619   2.503   4.588   2.654 -0.2286  1.1106  1.9210
10142TIP3   OH254620   3.840   1.768   2.927 -0.2422 -0.0109 -0.2974
10142TIP3    H154621   3.753   1.807   2.944 -0.1558  0.1633 -0.2471
10142TIP3    H254622   3.889   1.786   3.007 -0.4017 -0.7977 -0.0121
10143TIP3   OH254623   3.630   3.016   3.217 -0.0033 -0.2565 -0.1635
10143TIP3    H154624   3.536   3.003   3.212 -0.1168  0.8334 -3.1827
10143TIP3    H254625   3.655   3.048   3.130  3.3402 -1.5432  0.1559
10144TIP3   OH254626   3.072   3.137   3.658  0.9705 -0.1173 -0.1341
10144TIP3    H154627   3.165   3.149   3.677  0.8613 -2.0652  2.1207
10144TIP3    H254628   3.051   3.050   3.693 -1.5050 -0.1259 -1.4164
10145TIP3   OH254629   1.270   3.342   4.146  0.5639 -0.0602  0.0915
10145TIP3    H154630   1.184   3.301   4.133  0.5574 -0.4694  1.2555
10145TIP3    H254631   1.308   3.294   4.220  0.7351  1.7534  1.2498
10146TIP3   OH254632   2.942   4.144   1.957  0.0812  0.1826 -0.3320
10146TIP3    H154633   2.974   4.215   1.902  0.2346 -0.6233 -1.3071
10146TIP3    H254634   2.851   4.168   1.977  0.5282  1.2869  0.4496
10147TIP3   OH254635   6.298   4.840   3.912  0.2774  0.3390  0.1138
10147TIP3    H154636   6.305   4.745   3.924 -0.3469  0.4353  1.3755
10147TIP3    H254637   6.284   4.851   3.818  2.2533 -0.6926 -0.3536
10148TIP3   OH254638   5.569   6.197   3.555  0.2292 -0.0511 -0.4581
10148TIP3    H154639   5.582   6.115   3.508 -0.2233  0.5431 -1.6683
10148TIP3    H254640   5.529   6.171   3.639  0.7547 -1.1044 -0.5259
10149TIP3   OH254641   2.870   4.669   3.779 -0.1573 -0.0677 -0.6504
10149TIP3    H154642   2.851   4.596   3.839  3.2375 -1.8468 -1.4888
10149TIP3    H254643   2.891   4.743   3.837  0.5722 -1.0261  0.3477
10150TIP3   OH254644   5.190   1.603   3.804 -0.0470 -0.4332  0.0919
10150TIP3    H154645   5.228   1.538   3.862 -0.0400 -1.5535 -1.1156
10150TIP3    H254646   5.098   1.607   3.830  0.6328  1.8112  2.5828
10151TIP3   OH254647   5.955   5.213   4.346  0.2811 -0.5583 -1.0383
10151TIP3    H154648   5.911   5.279   4.293 -1.4695 -0.3295  0.5978
10151TIP3    H254649   6.033   5.258   4.379 -1.4213  1.1516  0.9176
10152TIP3   OH254650   0.279   6.379   2.646  0.0683  0.4611 -0.1198
10152TIP3    H154651   0.277   6.362   2.552  1.2541 -0.4166 -0.0061
10152TIP3    H254652   0.360   6.338   2.676 -1.1405 -0.7786  1.5779
10153TIP3   OH254653   1.179   6.395   3.822  0.2919 -0.1235  0.2335
10153TIP3    H154654   1.124   6.316   3.817 -0.2145  0.2578 -0.3937
10153TIP3    H254655   1.154   6.446   3.745 -0.6041  1.4537  1.5274
10154TIP3   OH254656   2.217   4.578   1.880 -0.2844 -0.1678 -0.5388
10154TIP3    H154657   2.290   4.639   1.865  0.1789 -0.8975 -1.3635
10154TIP3    H254658   2.259   4.494   1.898 -0.8582  0.1414  2.8221
10155TIP3   OH254659   3.437   2.163   2.464 -0.3235 -0.2873 -0.2639
10155TIP3    H154660   3.472   2.221   2.397 -0.4199 -0.1387 -0.1853
10155TIP3    H254661   3.345   2.187   2.471 -0.8257 -1.6445 -1.5040
10156TIP3   OH254662   3.142   6.632   2.602  0.5986  0.1370  0.0111
10156TIP3    H154663   3.226   6.664   2.568  0.8039  0.0938  0.4753
10156TIP3    H254664   3.080   6.649   2.531  0.6181  1.9767  0.3886
10157TIP3   OH254665   3.454   0.632   2.319 -0.1446  0.1450 -0.5312
10157TIP3    H154666   3.392   0.701   2.341  1.7150  1.5959  0.4824
10157TIP3    H254667   3.421   0.594   2.237 -2.3330  0.7966 -0.0165
10158TIP3   OH254668   3.713   6.810   4.138  0.6171 -0.3307  0.0700
10158TIP3    H154669   3.703   6.735   4.080  1.7109 -0.2988 -0.1846
10158TIP3    H254670   3.768   6.779   4.210 -1.5051 -0.6400  1.6416
10159TIP3   OH254671   2.850   6.515   2.176 -0.6141 -0.5984  0.4080
10159TIP3    H154672   2.906   6.439   2.160 -0.4415 -0.3744 -0.0965
10159TIP3    H254673   2.848   6.525   2.271  1.7586  0.5267  0.4096
10160TIP3   OH254674   0.358   3.622   2.604 -0.0527 -0.3826 -0.2130
10160TIP3    H154675   0.298   3.694   2.586 -1.3916 -1.3039  0.4466
10160TIP3    H254676   0.388   3.593   2.517 -0.4664  0.1497 -0.5355
10161TIP3   OH254677   1.404   0.890   2.779  0.3028  1.0416 -0.2123
10161TIP3    H154678   1.314   0.903   2.808 -0.1989  0.9593 -1.6581
10161TIP3    H254679   1.414   0.795   2.774  0.4095  1.0560 -0.2704
10162TIP3   OH254680   5.880   3.459   4.687  1.2303 -0.2061  0.7353
10162TIP3    H154681   5.928   3.397   4.632  0.7423  0.6470 -0.6939
10162TIP3    H254682   5.803   3.410   4.716  2.0246 -1.0012  1.5819
10163TIP3   OH254683   3.998   3.347   4.425 -0.2903 -0.2886  0.3157
10163TIP3    H154684   3.936   3.276   4.406 -1.5972  1.2629 -1.5263
10163TIP3    H254685   4.043   3.363   4.343  1.4534 -0.2804  1.2243
10164TIP3   OH254686   1.883   6.323   2.091 -0.5349  0.5779 -0.2876
10164TIP3    H154687   1.812   6.288   2.037  0.5239 -0.5703 -0.9892
10164TIP3    H254688   1.898   6.257   2.159  0.1163  0.6104 -0.3880
10165TIP3   OH254689   0.627   6.736   3.632  0.4045  0.9142  0.1459
10165TIP3    H154690   0.603   6.677   3.560 -0.9166  1.0726  0.4302
10165TIP3    H254691   0.584   6.698   3.709 -0.0395  1.9510  0.4269
10166TIP3   OH254692   6.135   2.352   4.302 -0.5190  0.9963 -0.4354
10166TIP3    H154693   6.164   2.434   4.262  0.9398  0.9327  0.4227
10166TIP3    H254694   6.166   2.358   4.393 -1.2937 -0.0704 -0.0871
10167TIP3   OH254695   3.866   0.655   3.266 -0.0147  0.2786 -0.1504
10167TIP3    H154696   3.778   0.693   3.267  0.5612  1.7073 -1.0508
10167TIP3    H254697   3.881   0.628   3.176  0.4715  0.0170 -0.0006
10168TIP3   OH254698   6.377   3.294   2.673 -0.0780  0.4885  0.1897
10168TIP3    H154699   6.387   3.377   2.717 -0.8857  0.2470  0.8651
10168TIP3    H254700   6.289   3.298   2.634  0.2102  0.2872 -0.4990
10169TIP3   OH254701   1.974   5.673   2.639 -0.3759 -0.2353  0.0103
10169TIP3    H154702   2.042   5.703   2.699  0.7300  0.8129 -1.6636
10169TIP3    H254703   1.991   5.580   2.627 -0.9802 -0.5987  1.7175
10170TIP3   OH254704   0.816   3.951   4.140  0.0891 -0.3176  0.1409
10170TIP3    H154705   0.832   3.938   4.046 -0.2512  0.1129  0.0222
10170TIP3    H254706   0.727   3.987   4.145  0.5591  0.8429  0.5398
10171TIP3   OH254707   4.246   5.333   2.236 -0.6654 -0.1479  0.1217
10171TIP3    H154708   4.171   5.280   2.208 -0.3278  0.1333 -1.3780
10171TIP3    H254709   4.309   5.269   2.270 -0.4448 -0.6778 -1.2415
10172TIP3   OH254710   1.356   1.562   4.513 -0.1503 -0.6525  0.5678
10172TIP3    H154711   1.362   1.516   4.597  1.2578  0.9187  1.3801
10172TIP3    H254712   1.438   1.539   4.468  0.9379  1.5587  1.2988
10173TIP3   OH254713   5.873   3.679   4.872  0.7277  0.0764 -0.2498
10173TIP3    H154714   5.864   3.595   4.829  0.0445  0.0865 -0.1425
10173TIP3    H254715   5.884   3.658   4.965  0.1199  0.1120 -0.1650
10174TIP3   OH254716   0.021   4.004   4.607  0.1204 -0.8174  0.4379
10174TIP3    H154717  -0.018   3.933   4.557 -1.6555 -1.1586  2.1787
10174TIP3    H254718  -0.039   4.078   4.595  2.3439  0.7696 -2.0090
10175TIP3   OH254719   0.234   5.508   2.696  0.2062  0.3228 -0.2337
10175TIP3    H154720   0.321   5.483   2.729 -0.0142 -1.3681 -0.8239
10175TIP3    H254721   0.210   5.437   2.636 -1.8489  0.4616  0.3573
10176TIP3   OH254722   3.964   5.429   2.486  0.3360  0.2604  0.0125
10176TIP3    H154723   3.897   5.392   2.429  1.1137 -1.3489  0.0882
10176TIP3    H254724   3.929   5.514   2.512 -1.3129 -0.2036 -0.5661
10177TIP3   OH254725   2.424   5.220   3.303 -0.1525 -0.0813 -1.1213
10177TIP3    H154726   2.484   5.228   3.377  0.1823 -0.6983 -1.3224
10177TIP3    H254727   2.471   5.262   3.230 -1.0057  1.6989 -0.7130
10178TIP3   OH254728   1.304   3.060   2.753  0.4588  0.3090  0.5541
10178TIP3    H154729   1.243   3.022   2.817  1.0325 -0.5298  0.6216
10178TIP3    H254730   1.250   3.073   2.674  0.0456  0.1467  0.8054
10179TIP3   OH254731   2.755   4.955   2.628  0.7162 -0.3336 -0.9124
10179TIP3    H154732   2.668   4.928   2.655 -0.1268  1.5397 -1.6155
10179TIP3    H254733   2.813   4.917   2.694 -0.7467 -0.5741  0.2924
10180TIP3   OH254734   3.275   1.171   3.391  0.6442  0.3299 -0.7829
10180TIP3    H154735   3.220   1.249   3.402  0.5610  0.1911 -0.1676
10180TIP3    H254736   3.213   1.098   3.392  0.5543  0.3384 -2.9499
10181TIP3   OH254737   1.775   4.556   4.139 -0.1100  0.0959  0.5953
10181TIP3    H154738   1.852   4.570   4.196 -0.6271  1.0225  1.0921
10181TIP3    H254739   1.721   4.633   4.154 -0.3267  0.2997 -1.0752
10182TIP3   OH254740   3.156   5.705   2.903  0.8689 -0.2782  0.1783
10182TIP3    H154741   3.246   5.671   2.895  1.1456  0.8213 -2.7248
10182TIP3    H254742   3.164   5.797   2.877 -0.9634  0.0985  0.8646
10183TIP3   OH254743   3.451   2.411   3.019 -0.1698 -0.0362  0.0848
10183TIP3    H154744   3.499   2.493   3.034  1.4629 -0.5369 -1.9466
10183TIP3    H254745   3.371   2.439   2.974  0.6205  0.4372 -1.0766
10184TIP3   OH254746   0.150   4.670   3.638 -0.0485 -0.5122 -0.4254
10184TIP3    H154747   0.177   4.641   3.725 -1.2722 -1.2805 -0.2709
10184TIP3    H254748   0.213   4.738   3.614  0.3485 -0.3442  1.0231
10185TIP3   OH254749   1.556   4.842   3.366 -0.1453  0.0794  0.5895
10185TIP3    H154750   1.623   4.804   3.423 -0.6717 -0.5358  0.8094
10185TIP3    H254751   1.605   4.880   3.293  0.3457 -1.9134 -0.1639
10186TIP3   OH254752   0.162   2.236   4.357  0.2336  0.4316  0.0280
10186TIP3    H154753   0.163   2.249   4.452  0.9025  0.3692  0.0383
10186TIP3    H254754   0.086   2.180   4.341 -0.5801  1.4114  0.3858
10187TIP3   OH254755   1.256   5.885   2.795 -0.1018 -0.4237  0.0115
10187TIP3    H154756   1.267   5.945   2.869  1.5431 -0.8848  0.1850
10187TIP3    H254757   1.302   5.926   2.722 -1.8636  0.1091 -0.8527
10188TIP3   OH254758   4.121   1.189   4.224 -0.1779 -0.4226  0.3168
10188TIP3    H154759   4.157   1.244   4.153  0.0581  0.6884  1.2562
10188TIP3    H254760   4.199   1.151   4.265 -0.3097 -0.9943  0.0383
10189TIP3   OH254761   1.474   1.616   4.828  0.0519  0.0713  0.2483
10189TIP3    H154762   1.461   1.698   4.877 -0.0600  1.1420 -1.5055
10189TIP3    H254763   1.386   1.590   4.802  0.2692  0.6511 -1.1365
10190TIP3   OH254764   6.171   4.243   1.884 -0.2273 -0.2208  0.1970
10190TIP3    H154765   6.115   4.315   1.854 -0.4147 -0.2158  0.5528
10190TIP3    H254766   6.127   4.209   1.962 -0.2064 -0.8140 -0.0502
10191TIP3   OH254767   6.175   0.124   5.523 -0.5207 -0.7319 -0.0765
10191TIP3    H154768   6.115   0.128   5.598 -1.1786  2.3834 -0.6141
10191TIP3    H254769   6.128   0.074   5.457 -1.2538 -0.8927  0.5582
10192TIP3   OH254770   4.134   3.864   3.029 -0.0989 -0.3103  0.5114
10192TIP3    H154771   4.080   3.825   2.960  1.2279 -0.9230 -0.2231
10192TIP3    H254772   4.170   3.790   3.077  0.7823  0.0415  0.4235
10193TIP3   OH254773   0.656   6.315   2.903  0.2482  0.6568  0.5460
10193TIP3    H154774   0.562   6.302   2.896 -0.2872  2.8613  2.3182
10193TIP3    H254775   0.684   6.331   2.813 -0.8917 -0.8139 -0.1132
10194TIP3   OH254776   3.148   1.504   5.158 -0.4566  0.2588 -0.1477
10194TIP3    H154777   3.077   1.504   5.094 -1.5899 -1.1423  1.0532
10194TIP3    H254778   3.125   1.436   5.221  2.2478 -0.6778 -0.0047
10195TIP3   OH254779   3.858   1.509   3.134  0.3943 -0.1820 -0.2783
10195TIP3    H154780   3.928   1.519   3.199  1.1823 -1.1185 -0.9477
10195TIP3    H254781   3.792   1.574   3.159  0.8945 -0.2009  1.1614
10196TIP3   OH254782   3.798   4.698   2.633 -0.0566  0.0129 -0.2979
10196TIP3    H154783   3.705   4.721   2.629  0.0710  0.5795 -0.0683
10196TIP3    H254784   3.834   4.730   2.550  0.3726  1.8254  0.5343
10197TIP3   OH254785   1.171   2.498   2.406  0.2650 -0.3189  0.1344
10197TIP3    H154786   1.079   2.510   2.430  0.3852 -0.8690  0.9056
10197TIP3    H254787   1.177   2.405   2.382 -0.0652  0.3654 -3.1094
10198TIP3   OH254788   5.943   5.759   5.174 -0.4140 -0.0412 -0.0269
10198TIP3    H154789   5.984   5.678   5.203 -0.0765 -0.1677 -0.8146
10198TIP3    H254790   6.013   5.824   5.173 -0.9850  0.6884  2.0677
10199TIP3   OH254791   6.277   6.319   3.387 -0.4024  0.0005  0.1878
10199TIP3    H154792   6.221   6.357   3.318 -0.9429 -0.5591  0.3108
10199TIP3    H254793   6.348   6.382   3.397  0.0430 -0.2186 -1.3430
10200TIP3   OH254794   5.683   5.497   4.613  0.2462 -0.1417  0.4067
10200TIP3    H154795   5.604   5.551   4.618  0.5610  0.2739  0.9977
10200TIP3    H254796   5.651   5.410   4.589 -0.0619  0.7872 -3.1080
10201TIP3   OH254797   1.337   6.768   4.820 -0.3147  0.7567  0.7781
10201TIP3    H154798   1.286   6.692   4.848  0.6734 -0.7060 -1.1450
10201TIP3    H254799   1.426   6.748   4.847 -0.1374  1.5685  0.8269
10202TIP3   OH254800   1.815   0.434   4.468 -0.3149  0.2030 -0.3235
10202TIP3    H154801   1.756   0.388   4.527 -1.2714  0.3296 -1.1647
10202TIP3    H254802   1.846   0.367   4.408 -1.0235  0.4760 -1.0037
10203TIP3   OH254803   0.133   5.806   3.850 -0.3167  0.6784  0.6667
10203TIP3    H154804   0.066   5.801   3.918 -0.9725  2.2394  0.1754
10203TIP3    H254805   0.105   5.877   3.793  0.4524 -0.2922 -1.0038
10204TIP3   OH254806   2.896   6.472   2.453 -0.1203  0.6146  0.5015
10204TIP3    H154807   2.971   6.417   2.475  0.1893  0.2243 -1.4003
10204TIP3    H254808   2.829   6.447   2.517  0.5864 -0.7117  0.7688
10205TIP3   OH254809   2.972   3.120   2.198  0.9451  0.0026  0.0919
10205TIP3    H154810   2.997   3.193   2.141  0.1381 -0.1826 -0.5170
10205TIP3    H254811   2.901   3.076   2.151  0.0189  0.0457  1.3910
10206TIP3   OH254812   2.648   4.762   3.603  0.2496  0.0030 -0.6239
10206TIP3    H154813   2.727   4.778   3.551  1.3261 -1.6177  0.4417
10206TIP3    H254814   2.667   4.682   3.652 -1.7708  0.0028  0.2442
10207TIP3   OH254815   3.448   4.618   5.387 -0.4034 -0.6517  0.4161
10207TIP3    H154816   3.381   4.667   5.434 -0.8844 -0.2340 -0.6725
10207TIP3    H254817   3.470   4.672   5.312  0.7999 -1.0211  0.4767
10208TIP3   OH254818   2.191   2.186   2.632  0.0740  0.4076 -0.5295
10208TIP3    H154819   2.102   2.168   2.599  0.2819  0.0599 -0.9206
10208TIP3    H254820   2.182   2.182   2.727 -0.6171  1.8071 -0.5082
10209TIP3   OH254821   0.197   3.339   4.475 -0.3567  0.3790 -0.1066
10209TIP3    H154822   0.177   3.320   4.567  1.1370 -1.0522 -0.0328
10209TIP3    H254823   0.171   3.260   4.428  0.0782  0.5992 -0.7289
10210TIP3   OH254824   2.909   1.806   3.621  0.1258 -0.4873  0.0494
10210TIP3    H154825   2.949   1.888   3.649 -1.2378 -0.2362  1.3903
10210TIP3    H254826   2.815   1.820   3.631 -0.2226 -1.7041 -1.1636
10211TIP3   OH254827   0.270   0.069   2.971 -0.0688  0.3321  0.1054
10211TIP3    H154828   0.331   0.104   3.036  1.0934  1.4118 -1.4808
10211TIP3    H254829   0.192   0.123   2.979  0.5314  1.2679 -0.2042
10212TIP3   OH254830   4.225   5.806   2.558  0.4634  0.5610  0.2848
10212TIP3    H154831   4.237   5.832   2.467  0.2634  1.2493  0.4471
10212TIP3    H254832   4.242   5.712   2.559  0.3147  0.5227 -0.4883
10213TIP3   OH254833   4.523   0.178   4.457 -0.1626  0.1524 -0.1845
10213TIP3    H154834   4.618   0.180   4.446 -0.3794  0.8469 -2.3168
10213TIP3    H254835   4.504   0.088   4.482  0.9581 -0.2491 -0.7088
10214TIP3   OH254836   0.417   3.760   3.504  0.8161  0.4682 -0.5399
10214TIP3    H154837   0.431   3.750   3.599 -0.2535  0.6373 -0.3571
10214TIP3    H254838   0.378   3.677   3.477 -3.9931  2.1567  0.1980
10215TIP3   OH254839   4.398   4.581   4.640 -0.0297 -0.3727  0.2410
10215TIP3    H154840   4.403   4.512   4.707  0.8249 -1.2748 -0.7184
10215TIP3    H254841   4.397   4.534   4.557  3.0762  0.7737 -0.5666
10216TIP3   OH254842   1.029   3.206   4.712  0.3545  0.1683  0.0772
10216TIP3    H154843   0.944   3.179   4.676  1.0766  0.7700 -2.2171
10216TIP3    H254844   1.012   3.291   4.753  0.0204  0.7690 -1.2572
10217TIP3   OH254845   1.615   6.707   4.862 -0.4679  0.2716 -0.0561
10217TIP3    H154846   1.697   6.746   4.892 -0.5798  0.0953  0.4777
10217TIP3    H254847   1.579   6.663   4.939 -1.8631  1.6895  0.1546
10218TIP3   OH254848   4.814   2.961   4.891 -0.4726  0.7729  0.2835
10218TIP3    H154849   4.910   2.958   4.895 -0.4582 -2.3190 -0.3498
10218TIP3    H254850   4.785   2.901   4.960 -1.9246  0.7470 -0.3206
10219TIP3   OH254851   2.542   0.773   4.148  0.4751 -0.5576 -0.2848
10219TIP3    H154852   2.568   0.697   4.200  1.2508 -0.0940  0.0112
10219TIP3    H254853   2.623   0.820   4.129 -0.0308  0.4783 -0.0239
10220TIP3   OH254854   2.442   5.257   2.432 -0.1392  0.2045 -0.6270
10220TIP3    H154855   2.421   5.170   2.465  0.4884 -0.2727 -1.4265
10220TIP3    H254856   2.450   5.311   2.510 -0.1924 -0.5364 -0.0949
10221TIP3   OH254857   1.559   5.018   2.254  0.6336 -0.4161  0.9150
10221TIP3    H154858   1.572   4.927   2.227 -0.0289 -0.7520  1.6798
10221TIP3    H254859   1.609   5.026   2.336  0.3664 -0.2154  1.0613
10222TIP3   OH254860   6.112   4.705   3.254 -0.2283 -0.1098  0.3549
10222TIP3    H154861   6.021   4.702   3.225 -0.9225 -0.1122  2.3529
10222TIP3    H254862   6.158   4.752   3.185 -1.8666  0.4625 -0.4015
10223TIP3   OH254863   4.414   0.852   4.800  0.1587 -0.3340  0.3776
10223TIP3    H154864   4.409   0.934   4.850 -0.8558  0.5663 -1.1310
10223TIP3    H254865   4.505   0.824   4.809  0.0080 -0.3255  2.8282
10224TIP3   OH254866   6.762   2.246   3.831 -0.5693  0.5310  0.3139
10224TIP3    H154867   6.768   2.291   3.747  1.1195 -0.3895 -0.1000
10224TIP3    H254868   6.852   2.247   3.865 -0.7822 -1.1362  1.0099
10225TIP3   OH254869   3.879   2.825   4.318  0.2142 -0.6759  0.1264
10225TIP3    H154870   3.798   2.802   4.362 -0.5541 -0.0967 -0.9533
10225TIP3    H254871   3.886   2.763   4.245 -0.6774  0.9331 -1.3980
10226TIP3   OH254872   3.906   6.355   4.550 -0.2098  0.3923 -0.1750
10226TIP3    H154873   3.967   6.287   4.521 -0.0473  1.0648 -1.5157
10226TIP3    H254874   3.875   6.395   4.468  1.3254  3.3724  0.5607
10227TIP3   OH254875   4.779   3.640   2.180 -0.4498  0.0598 -0.2425
10227TIP3    H154876   4.700   3.608   2.223  0.2973  0.1470  1.2280
10227TIP3    H254877   4.759   3.732   2.161 -0.1723  0.5212  1.5249
10228TIP3   OH254878   0.794   2.055   3.859 -0.1740  0.6412 -0.0117
10228TIP3    H154879   0.820   2.002   3.934 -0.5848  1.4629  0.7368
10228TIP3    H254880   0.866   2.117   3.847  0.0888  0.2291 -0.5756
10229TIP3   OH254881   1.134   6.089   4.903  0.1907 -0.4335 -0.0845
10229TIP3    H154882   1.063   6.025   4.898 -2.0095  1.7039  1.4634
10229TIP3    H254883   1.181   6.066   4.984  1.3563 -1.8199 -1.0871
10230TIP3   OH254884   3.931   1.216   3.174 -0.1046 -0.1198  0.0803
10230TIP3    H154885   3.902   1.291   3.122  1.0170 -1.6079 -2.9360
10230TIP3    H254886   3.863   1.150   3.160 -0.1216 -0.3447  1.1290
10231TIP3   OH254887   1.106   2.797   2.203 -0.2385 -0.0657 -0.2181
10231TIP3    H154888   1.149   2.712   2.210  0.7056  0.2168 -1.9161
10231TIP3    H254889   1.032   2.782   2.145 -2.3182 -0.4557  2.3666
10232TIP3   OH254890   0.005   4.852   2.987 -0.5007  0.2883 -0.3346
10232TIP3    H154891  -0.027   4.925   3.041 -0.1639  0.2823 -0.1307
10232TIP3    H254892   0.003   4.776   3.045  1.6359  0.6280  0.2496
10233TIP3   OH254893   0.096   2.257   4.637  0.0325  0.4875 -0.0377
10233TIP3    H154894   0.035   2.312   4.688 -0.1832  0.8570 -0.6865
10233TIP3    H254895   0.166   2.237   4.699 -0.5564  0.3737  0.6099
10234TIP3   OH254896   0.969   4.903   2.323 -0.0021  0.7204  0.2444
10234TIP3    H154897   0.914   4.873   2.251  1.4701 -0.5831 -0.3911
10234TIP3    H254898   0.987   4.995   2.304 -0.3299  0.6145 -0.6000
10235TIP3   OH254899   5.780   3.866   2.550 -0.0849  0.3887  0.7848
10235TIP3    H154900   5.869   3.853   2.583 -0.3158  0.1211  1.3040
10235TIP3    H254901   5.724   3.817   2.610 -0.5425  0.1535  0.1768
10236TIP3   OH254902   3.104   4.443   2.757 -0.1570 -0.6920  0.8718
10236TIP3    H154903   3.067   4.454   2.669  0.6203 -0.6347  0.5422
10236TIP3    H254904   3.028   4.437   2.815 -0.6961  1.0531  0.4130
10237TIP3   OH254905   0.571   6.209   4.812 -0.2561 -0.0341  0.1190
10237TIP3    H154906   0.505   6.198   4.880 -0.6838 -1.2638 -0.4561
10237TIP3    H254907   0.520   6.219   4.731  0.2581 -0.4195 -0.2595
10238TIP3   OH254908   2.253   5.950   2.440 -0.3725 -0.0393 -0.0094
10238TIP3    H154909   2.292   5.958   2.527 -1.5777 -1.2775  0.7042
10238TIP3    H254910   2.203   6.031   2.429  1.8507  1.3182 -0.7156
10239TIP3   OH254911   2.199   2.659   3.824  0.3671  0.1406  0.1457
10239TIP3    H154912   2.250   2.596   3.875 -0.2789  1.9552  3.3671
10239TIP3    H254913   2.256   2.736   3.817  0.6823 -0.2520 -2.6172
10240TIP3   OH254914   3.739   1.020   3.162 -0.0068  0.1315  0.2451
10240TIP3    H154915   3.679   1.095   3.158 -0.1195  0.0235 -0.0563
10240TIP3    H254916   3.687   0.951   3.204  0.2436  0.3613  0.9443
10241TIP3   OH254917   3.520   3.205   2.354 -0.2724 -0.1043  0.6995
10241TIP3    H154918   3.425   3.214   2.351 -0.1833  0.9929  0.7264
10241TIP3    H254919   3.549   3.277   2.409  0.6070 -0.1925  0.3679
10242TIP3   OH254920   2.232   0.999   3.062 -0.1657 -0.4929  0.1817
10242TIP3    H154921   2.316   0.968   3.098 -0.0923  0.4100  0.8228
10242TIP3    H254922   2.247   1.092   3.044 -0.7629 -0.5290 -0.5438
10243TIP3   OH254923   0.508   3.047   3.093  0.1932  0.5451  0.0840
10243TIP3    H154924   0.571   2.980   3.120  1.2342 -0.0144 -3.2382
10243TIP3    H254925   0.428   2.997   3.075  0.0233  0.6597  0.5197
10244TIP3   OH254926   4.676   1.906   2.843  0.0130 -0.8424 -0.0201
10244TIP3    H154927   4.745   1.909   2.910  0.0138  0.0754 -0.0523
10244TIP3    H254928   4.626   1.986   2.856  1.1678  0.3503 -2.3255
10245TIP3   OH254929   3.667   5.913   3.875 -0.2695 -0.0435 -0.1829
10245TIP3    H154930   3.689   5.830   3.833 -0.0064  0.9178 -2.0805
10245TIP3    H254931   3.586   5.940   3.833  1.0440  1.9160 -1.6669
10246TIP3   OH254932   0.722   3.399   3.615 -0.1237 -1.0830 -0.4185
10246TIP3    H154933   0.734   3.332   3.547 -0.2496 -1.2967 -0.2313
10246TIP3    H254934   0.796   3.459   3.603 -0.1160 -1.1504 -0.7089
10247TIP3   OH254935   2.266   6.464   4.100  0.4071 -0.5448 -0.2286
10247TIP3    H154936   2.320   6.388   4.122 -0.0433 -0.6739  0.4827
10247TIP3    H254937   2.256   6.460   4.005  0.6373 -1.2048 -0.2318
10248TIP3   OH254938   5.280   1.346   4.278  0.2733 -0.2795  0.3178
10248TIP3    H154939   5.196   1.301   4.287  0.3400 -0.4967 -0.1126
10248TIP3    H254940   5.293   1.389   4.362 -0.5956  0.3293  0.1561
10249TIP3   OH254941   2.054   3.947   2.926  0.0040  0.6276 -0.3563
10249TIP3    H154942   2.092   3.871   2.972  2.5221  2.0991  0.2102
10249TIP3    H254943   2.111   3.958   2.849  0.0681  2.2740 -0.0993
10250TIP3   OH254944   1.256   3.362   2.793  0.1534 -0.4978 -0.2795
10250TIP3    H154945   1.184   3.299   2.804 -1.4715  1.1058 -1.3421
10250TIP3    H254946   1.235   3.434   2.853  1.6522 -0.6054  0.4417
10251TIP3   OH254947   2.635   1.160   2.938  0.3734 -0.6787 -0.1907
10251TIP3    H154948   2.643   1.091   3.004  2.0269 -2.1815 -1.8422
10251TIP3    H254949   2.546   1.150   2.904 -0.5032  0.1044  1.7160
10252TIP3   OH254950   6.503   5.341   2.274  0.0367  0.2820  0.1000
10252TIP3    H154951   6.417   5.340   2.315 -0.1172 -1.2553 -0.2306
10252TIP3    H254952   6.486   5.317   2.183  0.8112  0.0348  0.0154
10253TIP3   OH254953   5.629   3.544   2.925 -0.4878  0.7257 -0.0881
10253TIP3    H154954   5.675   3.580   3.001 -0.0127  0.2588 -0.1565
10253TIP3    H254955   5.542   3.522   2.958 -0.7602  1.8362 -0.0167
10254TIP3   OH254956   6.789   6.080   4.079 -0.0862 -0.2463 -0.1833
10254TIP3    H154957   6.794   5.985   4.087  1.4885 -0.4444 -2.4594
10254TIP3    H254958   6.880   6.109   4.084 -0.4403  1.0103 -0.7427
10255TIP3   OH254959   3.582   4.251   3.280  0.0878  0.2478 -0.1597
10255TIP3    H154960   3.490   4.243   3.254  0.2634  0.8291 -0.9835
10255TIP3    H254961   3.579   4.269   3.374 -0.6892  1.3482 -0.3773
10256TIP3   OH254962   0.668   1.972   2.469 -0.0253  0.1887  0.5924
10256TIP3    H154963   0.581   1.946   2.438  0.4214 -1.2025  0.4036
10256TIP3    H254964   0.687   1.912   2.541  1.2465 -0.3512 -0.1438
10257TIP3   OH254965   6.664   1.528   3.933  0.3634 -0.1084 -0.7492
10257TIP3    H154966   6.717   1.449   3.924  0.1934 -0.3226  0.1183
10257TIP3    H254967   6.717   1.587   3.987 -0.6856 -0.7191  1.0276
10258TIP3   OH254968   3.233   3.777   2.736  0.1197  0.2007  0.5742
10258TIP3    H154969   3.297   3.788   2.807  0.5504  0.8221  0.0949
10258TIP3    H254970   3.157   3.828   2.763 -0.0984 -0.3570  1.0400
10259TIP3   OH254971   1.019   0.068   3.601 -0.1307 -0.1498  0.0406
10259TIP3    H154972   1.074   0.065   3.679 -1.1025 -1.6920  0.7185
10259TIP3    H254973   1.021   0.160   3.573  1.4937  0.1138  0.9448
10260TIP3   OH254974   4.863   4.766   3.923  0.1602 -0.3350  0.1112
10260TIP3    H154975   4.806   4.690   3.929 -0.7119  0.2569 -0.3968
10260TIP3    H254976   4.907   4.756   3.839 -0.0762 -0.2011 -0.0299
10261TIP3   OH254977   1.289   4.773   3.917 -0.2338  0.0285 -0.0792
10261TIP3    H154978   1.205   4.760   3.961  0.9948 -1.1242  2.0811
10261TIP3    H254979   1.276   4.740   3.829 -2.0420 -0.1008  0.2106
10262TIP3   OH254980   2.405   1.791   5.083 -0.7547  0.1725  0.2461
10262TIP3    H154981   2.449   1.841   5.152  1.2213  0.8730 -1.4246
10262TIP3    H254982   2.461   1.801   5.006 -3.2640  0.1240 -1.7357
10263TIP3   OH254983   1.915   3.959   4.360  0.1232  0.1157 -0.0644
10263TIP3    H154984   1.981   3.932   4.424  0.2562 -0.8307 -0.5892
10263TIP3    H254985   1.914   3.890   4.295 -1.3226  0.1483 -0.1210
10264TIP3   OH254986   1.588   4.480   2.721 -0.3475 -0.4325 -0.0772
10264TIP3    H154987   1.570   4.569   2.751  0.1809  0.0402 -1.0952
10264TIP3    H254988   1.638   4.440   2.792 -1.6176 -0.3355  0.9062
10265TIP3   OH254989   6.507   4.622   2.681  0.1709 -0.0722  0.0948
10265TIP3    H154990   6.549   4.569   2.749 -0.2464 -0.4363  0.0768
10265TIP3    H254991   6.417   4.636   2.713 -0.1991 -0.7186 -0.6274
10266TIP3   OH254992   0.858   0.063   2.251  0.0019  0.1626 -0.1530
10266TIP3    H154993   0.820  -0.024   2.270  0.4919 -0.1592 -0.6205
10266TIP3    H254994   0.797   0.102   2.188  0.5323 -0.4315 -1.0515
10267TIP3   OH254995   3.115   5.147   3.874  0.3030 -0.1929 -0.7440
10267TIP3    H154996   3.061   5.165   3.951 -0.4702  0.1669 -1.3554
10267TIP3    H254997   3.119   5.051   3.870 -0.1824 -0.2224 -0.6113
10268TIP3   OH254998   2.533   5.926   3.683  0.3155 -0.4504 -0.1094
10268TIP3    H154999   2.451   5.968   3.708  0.8180  0.3364  0.2580
10268TIP3    H255000   2.582   5.917   3.765  1.4576  1.0093 -0.5788
10269TIP3   OH255001   1.351   2.198   2.429  0.4897  0.0337  0.1536
10269TIP3    H155002   1.406   2.236   2.360  0.2494 -1.7670 -1.1024
10269TIP3    H255003   1.263   2.198   2.391 -0.1410  1.4556  1.5390
10270TIP3   OH255004   6.775   5.258   2.319  0.0160 -0.1098 -0.2483
10270TIP3    H155005   6.740   5.172   2.342 -0.0701  0.3136  1.3543
10270TIP3    H255006   6.698   5.314   2.310  0.0529 -0.2570 -1.6191
10271TIP3   OH255007   1.316   0.765   4.514 -0.3065  0.6364 -0.4174
10271TIP3    H155008   1.365   0.698   4.467 -0.9145  0.8885 -1.4682
10271TIP3    H255009   1.382   0.830   4.540  0.3709 -0.6315  1.1560
10272TIP3   OH255010   6.474   1.851   2.564  0.0327  0.5830 -0.3045
10272TIP3    H155011   6.381   1.836   2.584  0.3924 -0.0524  1.0303
10272TIP3    H255012   6.491   1.797   2.487 -0.2759 -0.7971  0.5582
10273TIP3   OH255013   0.994   1.002   5.355 -0.0843 -0.0839 -0.2030
10273TIP3    H155014   1.071   0.986   5.410 -0.7509  1.2770  1.2243
10273TIP3    H255015   1.001   0.938   5.284  1.8471 -0.6229  0.4048
10274TIP3   OH255016   3.054   0.397   2.043 -0.2514  0.2688 -0.2415
10274TIP3    H155017   3.002   0.366   1.969 -0.2862  4.0892 -2.0764
10274TIP3    H255018   3.142   0.407   2.008 -0.3197  2.3731  0.0476
10275TIP3   OH255019   5.895   0.886   4.733 -0.0015 -0.3788 -0.5135
10275TIP3    H155020   5.841   0.878   4.654 -0.5971 -0.3577 -0.1148
10275TIP3    H255021   5.833   0.880   4.805  0.4028  0.7257 -0.0635
10276TIP3   OH255022   6.363   5.931   2.470 -0.1761 -0.1584 -0.1311
10276TIP3    H155023   6.452   5.914   2.500 -0.0676  2.2532  1.1908
10276TIP3    H255024   6.310   5.928   2.550 -1.2754 -1.3460 -0.8675
10277TIP3   OH255025   2.729   0.008   1.870 -0.0536  0.0915  0.2576
10277TIP3    H155026   2.772  -0.074   1.848 -0.1932  0.5953 -2.1333
10277TIP3    H255027   2.784   0.046   1.939  0.2361 -1.7759  1.0979
10278TIP3   OH255028   2.153   4.004   4.054 -0.8049  0.2135  0.2366
10278TIP3    H155029   2.162   3.914   4.024 -0.7578  0.7944 -1.6798
10278TIP3    H255030   2.104   3.999   4.136  0.0281 -1.5975  0.6623
10279TIP3   OH255031   6.489   2.665   4.222 -0.1323 -0.7932 -0.3738
10279TIP3    H155032   6.550   2.676   4.150  0.7255 -0.9137  0.3225
10279TIP3    H255033   6.493   2.572   4.242 -1.2426 -0.9751 -0.9140
10280TIP3   OH255034   4.274   1.031   3.958  0.2536  0.0951  0.1473
10280TIP3    H155035   4.195   1.085   3.954  0.1532 -0.1001 -0.7597
10280TIP3    H255036   4.253   0.955   3.904  1.0657  0.0536 -0.1170
10281TIP3   OH255037   5.684   5.059   2.930 -0.0027 -1.1025  0.0095
10281TIP3    H155038   5.671   5.103   2.846  1.1917 -0.8799 -0.0757
10281TIP3    H255039   5.774   5.028   2.927 -0.9433 -4.2048 -0.2343
10282TIP3   OH255040   6.217   6.661   2.760 -0.1917  0.1421  0.5608
10282TIP3    H155041   6.140   6.648   2.815 -1.8017  0.1663 -1.5619
10282TIP3    H255042   6.222   6.755   2.747  2.2479  0.5384  3.3223
10283TIP3   OH255043   1.530   3.651   2.653 -0.1790  0.2809 -0.3277
10283TIP3    H155044   1.536   3.574   2.709  0.3796  0.6949  0.1939
10283TIP3    H255045   1.439   3.681   2.663 -0.7027 -0.8879 -1.3387
10284TIP3   OH255046   4.130   3.222   2.442  0.5840  0.1185  0.6397
10284TIP3    H155047   4.110   3.160   2.371  0.3525  1.3580 -0.4077
10284TIP3    H255048   4.044   3.247   2.475  0.6915 -0.4004  1.3268
10285TIP3   OH255049   0.992   3.249   2.938  0.1483  0.3988 -0.4821
10285TIP3    H155050   0.917   3.192   2.956  0.8017 -0.9461 -1.7635
10285TIP3    H255051   1.048   3.239   3.015  0.2525 -0.7327 -0.6819
10286TIP3   OH255052   4.469   4.343   2.997 -0.4135 -0.0417 -0.0391
10286TIP3    H155053   4.382   4.383   3.000 -0.4196 -0.0853  0.5071
10286TIP3    H255054   4.515   4.378   3.074 -0.5187 -1.2772  0.6208
10287TIP3   OH255055   4.877   6.623   2.832 -0.7156  0.5147 -0.2349
10287TIP3    H155056   4.788   6.635   2.799 -1.4433  0.8638  1.7546
10287TIP3    H255057   4.869   6.633   2.926  1.4263  0.4049 -0.0065
10288TIP3   OH255058   3.805   5.245   2.932 -0.2678 -0.0690 -0.3673
10288TIP3    H155059   3.854   5.168   2.961  0.9024  1.2009  1.2310
10288TIP3    H255060   3.720   5.211   2.905  0.3255 -1.9387 -0.0085
10289TIP3   OH255061   3.925   1.706   2.482 -0.5530  0.0300  0.1517
10289TIP3    H155062   3.842   1.719   2.437 -0.5086  0.8864  0.3064
10289TIP3    H255063   3.927   1.773   2.550 -0.1788 -0.6142  0.7979
10290TIP3   OH255064   2.104   5.055   3.933 -0.4706  0.1717  0.1416
10290TIP3    H155065   2.170   4.995   3.967 -0.1296  0.3772 -0.1481
10290TIP3    H255066   2.046   5.000   3.881 -1.2222 -0.2101  1.3506
10291TIP3   OH255067   5.682   6.746   4.380  0.3247  0.1204  0.1309
10291TIP3    H155068   5.714   6.835   4.366  1.0465 -0.2464 -0.6702
10291TIP3    H255069   5.588   6.756   4.395  0.3895  1.0091  0.0143
10292TIP3   OH255070   1.946   0.761   3.341 -0.2583  0.4239  0.1025
10292TIP3    H155071   1.886   0.698   3.381 -1.1013  1.6335  0.7908
10292TIP3    H255072   1.888   0.823   3.296  0.4136  1.9666  1.2936
10293TIP3   OH255073   6.638   4.529   3.616 -0.4422  0.4525  0.0162
10293TIP3    H155074   6.602   4.443   3.636 -2.3817  1.1142 -0.3468
10293TIP3    H255075   6.568   4.573   3.567  0.9930  1.7787 -0.9268
10294TIP3   OH255076   1.053   5.737   4.261 -0.2662  0.9385 -0.1178
10294TIP3    H155077   1.084   5.799   4.195 -0.6260  0.7495 -0.4699
10294TIP3    H255078   1.017   5.792   4.330  0.2808  1.1423  0.0066
10295TIP3   OH255079   4.680   5.106   2.774  0.0627 -0.0827  0.4631
10295TIP3    H155080   4.634   5.164   2.837 -2.1764  0.1015 -1.2018
10295TIP3    H255081   4.630   5.025   2.776 -0.6031  0.2152 -1.6370
10296TIP3   OH255082   0.398   3.334   4.796 -0.1086  0.1683 -0.0636
10296TIP3    H155083   0.447   3.252   4.806  0.6645  0.4420 -1.2900
10296TIP3    H255084   0.315   3.308   4.756 -1.1550 -0.3326  2.2640
10297TIP3   OH255085   2.533   3.021   2.804 -0.0646  0.6828 -0.2884
10297TIP3    H155086   2.512   2.944   2.751 -1.1284  1.3566 -0.8675
10297TIP3    H255087   2.628   3.027   2.801  0.0222 -0.5051 -0.3772
10298TIP3   OH255088   4.220   3.135   3.357 -0.2270 -0.4429  0.2844
10298TIP3    H155089   4.205   3.140   3.452  1.5270 -0.5006  0.5966
10298TIP3    H255090   4.303   3.088   3.348  0.1309  0.4149 -1.2464
10299TIP3   OH255091   3.879   4.429   2.599  0.3397  0.2753  0.8932
10299TIP3    H155092   3.814   4.397   2.537  0.7776  1.1379 -0.0307
10299TIP3    H255093   3.834   4.498   2.648 -0.3439 -1.1149  2.3184
10300TIP3   OH255094   6.625   1.133   2.201 -0.2332  0.4393 -0.0858
10300TIP3    H155095   6.662   1.045   2.211 -2.7913 -0.5706  1.7164
10300TIP3    H255096   6.625   1.148   2.107 -3.8562 -3.6044 -1.0663
10301TIP3   OH255097   1.446   4.190   2.826 -0.1517 -0.3904  0.2881
10301TIP3    H155098   1.353   4.191   2.850 -0.7112 -3.0651 -1.4219
10301TIP3    H255099   1.451   4.131   2.751  2.7028  1.0927 -0.8330
10302TIP3   OH255100   6.764   0.735   2.510 -0.1118  0.6532 -0.0784
10302TIP3    H155101   6.762   0.830   2.498 -0.9497  0.8009  1.0587
10302TIP3    H255102   6.787   0.724   2.603  0.0062 -0.2613 -0.2105
10303TIP3   OH255103   3.638   6.245   4.606  0.1794  0.3466 -0.6674
10303TIP3    H155104   3.576   6.308   4.642  1.2045  0.7985  0.3490
10303TIP3    H255105   3.717   6.296   4.587  2.3208 -1.0329  3.3629
10304TIP3   OH255106   1.338   3.732   4.752  0.4469  0.3088  0.8595
10304TIP3    H155107   1.391   3.785   4.812  3.6699 -0.3429 -1.1633
10304TIP3    H255108   1.348   3.775   4.667  0.1809 -1.5227 -0.1507
10305TIP3   OH255109   4.734   2.191   4.176  0.4418  0.3256  0.0552
10305TIP3    H155110   4.734   2.122   4.242  1.3173  0.5514  0.3116
10305TIP3    H255111   4.693   2.266   4.218  0.2816  0.2255  0.0754
10306TIP3   OH255112   3.275   5.077   4.476  0.2193  0.4166 -0.5411
10306TIP3    H155113   3.226   4.995   4.472  0.5200  0.2447 -0.7864
10306TIP3    H255114   3.225   5.133   4.535 -0.7410  0.5505 -1.4441
10307TIP3   OH255115   5.954   3.081   2.258 -0.2773 -0.4421  0.0470
10307TIP3    H155116   6.039   3.089   2.216  0.2051 -3.9783  0.0506
10307TIP3    H255117   5.910   3.011   2.210 -1.8735 -0.9087  2.0472
10308TIP3   OH255118   2.591   3.023   4.485  0.6027  0.2271  0.2538
10308TIP3    H155119   2.679   3.030   4.523  0.2449 -2.9128  1.9856
10308TIP3    H255120   2.532   3.021   4.561 -0.8533  0.7711 -0.8193
10309TIP3   OH255121   0.606   3.424   2.910  0.5667  0.1239 -0.2288
10309TIP3    H155122   0.642   3.512   2.904 -0.2533  0.5326  0.5305
10309TIP3    H255123   0.523   3.428   2.862  0.1895 -0.0291  0.3901
10310TIP3   OH255124   1.742   4.594   2.117 -0.8305  0.3991  0.0695
10310TIP3    H155125   1.704   4.520   2.164  0.8129 -2.1658 -2.3245
10310TIP3    H255126   1.831   4.602   2.152 -1.5889  2.7454  1.7571
10311TIP3   OH255127   6.358   1.160   5.459 -0.1335  0.4547 -0.3141
10311TIP3    H155128   6.451   1.148   5.475 -0.1373  0.8532  0.0538
10311TIP3    H255129   6.335   1.238   5.510 -1.4809 -1.7580  2.7824
10312TIP3   OH255130   4.224   5.956   5.148  0.6308 -0.0114  0.0691
10312TIP3    H155131   4.157   5.958   5.217  0.7370 -0.1066  0.1763
10312TIP3    H255132   4.301   5.920   5.192  0.9198  0.6325  0.0951
10313TIP3   OH255133   0.330   5.544   3.454  0.0554  0.2005  0.0598
10313TIP3    H155134   0.268   5.565   3.524  0.2883 -0.5042  0.4909
10313TIP3    H255135   0.413   5.580   3.484  0.3343 -0.7946  0.5447
10314TIP3   OH255136   0.816   5.610   4.482 -0.2997  0.6002  0.9601
10314TIP3    H155137   0.758   5.541   4.451  1.1709 -0.1068 -0.3726
10314TIP3    H255138   0.794   5.686   4.429 -2.6612  1.5792  3.1523
10315TIP3   OH255139   6.697   6.220   4.877 -0.2806 -0.0584  0.3019
10315TIP3    H155140   6.764   6.156   4.853  0.5330  0.3112  1.5276
10315TIP3    H255141   6.647   6.178   4.947 -0.7437  0.0386  0.0337
10316TIP3   OH255142   3.710   1.184   4.320 -0.0050  0.1287 -0.3211
10316TIP3    H155143   3.742   1.236   4.247  0.7378  1.2396  0.7589
10316TIP3    H255144   3.788   1.161   4.370 -0.6218  0.7905  1.0121
10317TIP3   OH255145   1.595   1.852   3.209 -0.1984 -0.5842 -0.1162
10317TIP3    H155146   1.615   1.820   3.121  0.5627 -0.9942  0.1953
10317TIP3    H255147   1.508   1.891   3.202  0.1194 -0.0416 -1.1950
10318TIP3   OH255148   6.613   2.027   3.846 -0.3849 -0.2100 -0.8202
10318TIP3    H155149   6.669   2.104   3.836 -0.1148 -0.4775 -1.4367
10318TIP3    H255150   6.654   1.961   3.790  0.1286 -1.2167  0.6767
10319TIP3   OH255151   6.582   4.623   4.050 -0.2503 -0.1831  0.0652
10319TIP3    H155152   6.590   4.718   4.063  1.4729 -0.0641 -1.5176
10319TIP3    H255153   6.671   4.594   4.031 -1.2135 -1.5085 -2.9992
10320TIP3   OH255154   4.046   5.618   4.574  0.0885 -0.3671  0.6840
10320TIP3    H155155   4.107   5.545   4.565 -0.4471 -0.6114 -1.6163
10320TIP3    H255156   3.971   5.594   4.519  0.9100  2.8876 -2.2309
10321TIP3   OH255157   6.652   3.726   2.829 -0.2174 -0.0861  0.2442
10321TIP3    H155158   6.606   3.689   2.905  0.2881 -0.5569  0.3263
10321TIP3    H255159   6.678   3.649   2.778  0.0565  0.2004 -0.0485
10322TIP3   OH255160   0.973   3.140   4.359  0.0813 -0.1109 -0.5999
10322TIP3    H155161   0.955   3.192   4.438  1.5789  0.0306 -0.3171
10322TIP3    H255162   0.994   3.206   4.293 -1.8187 -0.1884 -1.3508
10323TIP3   OH255163   5.341   0.202   3.693 -0.0136  0.3452  0.2344
10323TIP3    H155164   5.302   0.121   3.659 -1.8633  1.9129 -1.6851
10323TIP3    H255165   5.397   0.233   3.623 -1.1488  1.8690 -0.0530
10324TIP3   OH255166   6.112   6.450   3.199 -0.1018  0.0118 -0.3295
10324TIP3    H155167   6.046   6.483   3.261  0.2320  0.0344  0.0192
10324TIP3    H255168   6.074   6.368   3.166 -1.7720  1.5760 -2.5931
10325TIP3   OH255169   0.431   2.076   3.452  0.1156 -0.8364  0.0537
10325TIP3    H155170   0.392   1.989   3.460 -0.6016 -0.3853  1.6775
10325TIP3    H255171   0.378   2.132   3.508 -0.2776  0.9656 -1.9983
10326TIP3   OH255172   6.160   4.144   2.975  0.5818  0.3880 -0.1947
10326TIP3    H155173   6.080   4.121   2.928  1.9192 -1.2750 -1.8426
10326TIP3    H255174   6.159   4.240   2.979 -0.7941  0.4679 -1.4651
10327TIP3   OH255175   2.431   1.894   3.878 -0.3060 -0.4014  0.9106
10327TIP3    H155176   2.465   1.952   3.810  1.8743 -1.9365  0.5987
10327TIP3    H255177   2.386   1.825   3.830  1.8202 -1.8588  0.8829
10328TIP3   OH255178   6.756   4.719   2.751  0.1837 -0.5038  0.1530
10328TIP3    H155179   6.820   4.729   2.822  0.2869  1.2019 -0.1457
10328TIP3    H255180   6.680   4.769   2.780 -1.1516 -2.6271  0.5736
10329TIP3   OH255181   1.118   6.454   4.326  0.5914  0.4517 -0.3681
10329TIP3    H155182   1.084   6.430   4.240  0.8193  0.1142 -0.3627
10329TIP3    H255183   1.209   6.480   4.310 -0.3668  4.1761 -0.8798
10330TIP3   OH255184   5.556   6.361   5.753 -0.3964 -0.2816 -0.4077
10330TIP3    H155185   5.478   6.416   5.748  1.3704  2.3386 -1.3096
10330TIP3    H255186   5.629   6.423   5.748  1.7692 -2.5954  0.5389
10331TIP3   OH255187   4.745   1.737   3.398  0.2549  0.1871 -0.1872
10331TIP3    H155188   4.650   1.726   3.401  0.3566 -0.9425 -0.7093
10331TIP3    H255189   4.759   1.829   3.421 -1.1096  0.9989 -2.3831
10332TIP3   OH255190   4.335   5.620   3.020 -0.0513 -0.3674 -0.2429
10332TIP3    H155191   4.319   5.714   3.018  1.6202 -0.0667 -0.4953
10332TIP3    H255192   4.345   5.595   2.929 -1.4697 -1.0167 -0.2645
10333TIP3   OH255193   0.658   1.175   2.269 -0.1397 -0.2721  0.2161
10333TIP3    H155194   0.751   1.184   2.290 -0.0838  0.0617 -0.1659
10333TIP3    H255195   0.634   1.259   2.231 -0.1938 -0.9062 -1.2376
10334TIP3   OH255196   2.541   1.981   4.382 -0.8543  0.2530 -0.3636
10334TIP3    H155197   2.503   2.068   4.384  0.3325  0.8472 -1.8954
10334TIP3    H255198   2.511   1.942   4.300  1.6513  0.7381 -1.6268
10335TIP3   OH255199   5.270   1.047   2.802 -0.5084 -0.6583  0.2269
10335TIP3    H155200   5.225   1.061   2.885  1.6153 -1.6628  1.6428
10335TIP3    H255201   5.293   0.954   2.803  1.2224 -0.2806 -0.5594
10336TIP3   OH255202   0.019   6.542   4.607 -0.1083 -0.2554  0.2224
10336TIP3    H155203  -0.057   6.599   4.618 -0.4048 -0.6708  0.3312
10336TIP3    H255204   0.011   6.509   4.517  0.7192  0.8139 -0.2789
10337TIP3   OH255205   6.802   1.471   1.743 -0.5808 -0.1219 -0.4750
10337TIP3    H155206   6.791   1.529   1.667 -0.3541 -0.2059 -0.5729
10337TIP3    H255207   6.773   1.385   1.712 -0.6269 -0.1247 -0.4234
10338TIP3   OH255208   2.471   0.385   2.278 -0.3001  0.0103  0.7413
10338TIP3    H155209   2.490   0.297   2.310 -1.8597 -0.4679  0.4352
10338TIP3    H255210   2.387   0.408   2.318 -0.1932  1.1328  0.3673
10339TIP3   OH255211   3.136   4.933   3.537 -0.2332  0.1558 -0.4002
10339TIP3    H155212   3.152   4.952   3.445 -0.0172 -1.6233 -0.7690
10339TIP3    H255213   3.215   4.965   3.582 -0.6477  1.6864 -0.6898
10340TIP3   OH255214   1.612   5.160   5.372 -0.1846  0.5845  0.3693
10340TIP3    H155215   1.554   5.090   5.342  2.1840 -1.5164  0.3814
10340TIP3    H255216   1.628   5.213   5.294 -2.0779  1.2558  0.3770
10341TIP3   OH255217   4.542   4.126   3.913  0.0589  0.5041 -0.2235
10341TIP3    H155218   4.494   4.050   3.946  1.2754 -0.6855 -1.1130
10341TIP3    H255219   4.537   4.118   3.817  1.0759  0.9675 -0.3239
10342TIP3   OH255220   4.312   2.961   2.714 -1.2114  0.2611 -0.0762
10342TIP3    H155221   4.394   2.917   2.735 -0.7017  0.5272 -1.3720
10342TIP3    H255222   4.253   2.938   2.785 -0.2501 -0.5770  0.4762
10343TIP3   OH255223   2.653   1.297   2.544  0.5367  0.3302  0.0728
10343TIP3    H155224   2.610   1.218   2.512 -1.5112  0.8893  1.2344
10343TIP3    H255225   2.715   1.265   2.610 -0.3098 -0.3412  0.5712
10344TIP3   OH255226   1.697   6.405   4.385 -0.3042 -0.0455 -0.3171
10344TIP3    H155227   1.788   6.429   4.364 -0.2024 -0.2385 -0.1042
10344TIP3    H255228   1.654   6.488   4.402  0.6481 -0.0734  2.9041
10345TIP3   OH255229   5.025   4.969   4.209  0.6700 -0.0569 -0.5206
10345TIP3    H155230   5.037   5.060   4.181  0.8937  0.4032  0.9746
10345TIP3    H255231   5.073   4.963   4.292 -1.1651 -0.9159  0.5449
10346TIP3   OH255232   1.119   6.136   4.192  0.4310 -0.2470 -0.0080
10346TIP3    H155233   1.057   6.100   4.255 -1.3512  0.4286 -1.2895
10346TIP3    H255234   1.191   6.171   4.245  0.9379 -3.1379  1.4184
10347TIP3   OH255235   6.531   1.766   5.064  0.2113 -0.4208  0.1841
10347TIP3    H155236   6.520   1.673   5.045  1.8563 -1.0685  2.0325
10347TIP3    H255237   6.503   1.775   5.155 -0.2153  0.9740 -0.0576
10348TIP3   OH255238   6.764   5.664   2.480 -0.4326 -0.1628 -0.2055
10348TIP3    H155239   6.669   5.651   2.485 -0.7501  1.3420 -1.5702
10348TIP3    H255240   6.790   5.617   2.401  0.1485 -1.4070  0.6992
10349TIP3   OH255241   0.861   2.878   2.785  0.1309  0.1248  0.3056
10349TIP3    H155242   0.834   2.967   2.805 -0.5387 -0.1257  0.5605
10349TIP3    H255243   0.867   2.835   2.870  0.2949 -0.1162  0.1748
10350TIP3   OH255244   1.602   0.683   4.024 -0.0396 -0.3991  0.3566
10350TIP3    H155245   1.551   0.718   3.951  0.1914 -0.5149  0.1381
10350TIP3    H255246   1.571   0.593   4.035 -1.0090  0.0177  1.2589
10351TIP3   OH255247   1.709   2.055   2.568 -0.4683 -0.4646  0.7896
10351TIP3    H155248   1.773   2.061   2.639  0.8803  0.9043 -0.4594
10351TIP3    H255249   1.658   2.135   2.575 -0.5466 -0.4799  0.4071
10352TIP3   OH255250   5.956   4.522   2.191 -0.0822 -0.1790  0.4706
10352TIP3    H155251   5.933   4.431   2.172  1.5067 -0.2719 -1.3089
10352TIP3    H255252   5.872   4.565   2.206 -1.1954 -1.2533 -2.0162
10353TIP3   OH255253   0.251   1.380   4.738 -0.0060 -0.0402 -0.3067
10353TIP3    H155254   0.324   1.333   4.779 -0.8253 -0.7964  0.3166
10353TIP3    H255255   0.288   1.465   4.714  1.1186 -0.4681 -0.1457
10354TIP3   OH255256   5.796   3.262   4.165  0.7427  0.7317  0.7621
10354TIP3    H155257   5.781   3.170   4.189  0.2640  0.2447 -1.2676
10354TIP3    H255258   5.709   3.296   4.144  1.2029  0.9089 -0.9449
10355TIP3   OH255259   2.278   4.689   4.311  0.2700 -0.3228  0.4209
10355TIP3    H155260   2.299   4.631   4.238  0.5968 -0.2923  0.4895
10355TIP3    H255261   2.283   4.777   4.275  0.9855 -0.2775  0.6083
10356TIP3   OH255262   3.593   5.771   2.732 -0.3217  0.2464  0.0075
10356TIP3    H155263   3.592   5.848   2.675 -1.5845 -0.0911 -0.4467
10356TIP3    H255264   3.679   5.732   2.717  0.4985  1.7613  0.5248
10357TIP3   OH255265   1.401   6.026   4.719 -0.3157 -0.3103  0.6637
10357TIP3    H155266   1.383   5.935   4.696 -1.0570  0.0024 -0.0163
10357TIP3    H255267   1.365   6.077   4.647 -0.5380  0.5653  1.3808
10358TIP3   OH255268   0.582   5.865   4.492 -0.1911 -0.7909  0.1850
10358TIP3    H155269   0.495   5.851   4.455  0.0729 -1.6626 -0.1371
10358TIP3    H255270   0.611   5.777   4.519  0.6245 -0.5323  0.1933
10359TIP3   OH255271   4.366   2.539   2.058  0.2227 -0.3305 -0.1222
10359TIP3    H155272   4.438   2.595   2.088  0.0897 -0.9189  1.3308
10359TIP3    H255273   4.391   2.451   2.085  0.1841 -0.9419 -1.9413
10360TIP3   OH255274   3.483   0.403   2.483  0.9308 -0.1908  0.3574
10360TIP3    H155275   3.506   0.420   2.574  0.3911 -0.3168  0.5240
10360TIP3    H255276   3.520   0.476   2.434  0.1229  0.5638  0.8445
10361TIP3   OH255277   3.022   3.101   4.479 -0.1918  0.4720  0.1425
10361TIP3    H155278   3.115   3.119   4.464  0.1595 -1.3041 -0.0549
10361TIP3    H255279   3.006   3.019   4.434 -1.5455  0.0596  1.2887
10362TIP3   OH255280   1.400   1.812   4.069  0.1366  0.3698 -0.1651
10362TIP3    H155281   1.394   1.860   4.151  2.5466  1.1177 -0.3423
10362TIP3    H255282   1.390   1.878   4.001  1.6682  0.4075 -0.4098
10363TIP3   OH255283   6.769   3.921   3.825 -0.1264  0.1432 -0.2196
10363TIP3    H155284   6.854   3.881   3.809  0.4616  1.3977 -0.3477
10363TIP3    H255285   6.716   3.851   3.864  0.7209 -0.8613 -0.8286
10364TIP3   OH255286   0.120   4.478   4.136  0.5582 -0.4834 -0.4935
10364TIP3    H155287   0.082   4.509   4.218 -0.4413  1.3288 -1.5860
10364TIP3    H255288   0.048   4.483   4.073  1.5176 -1.0529 -1.6719
10365TIP3   OH255289   2.097   6.431   2.187 -0.4414 -0.0199 -0.7154
10365TIP3    H155290   2.015   6.401   2.149 -0.9630  1.4084 -0.7441
10365TIP3    H255291   2.090   6.407   2.280 -0.6589 -0.3499 -0.8141
10366TIP3   OH255292   6.003   6.615   2.921 -0.0651  0.6451 -0.5476
10366TIP3    H155293   5.971   6.702   2.946  0.5770  0.5932  0.5276
10366TIP3    H255294   5.929   6.557   2.941  0.0867  0.7394  0.3369
10367TIP3   OH255295   1.152   2.828   4.519  0.1245 -0.0097  0.0380
10367TIP3    H155296   1.193   2.825   4.605 -0.1647 -0.4717  0.1632
10367TIP3    H255297   1.064   2.860   4.536 -0.1152 -0.6276 -0.0086
10368TIP3   OH255298   5.354   5.974   3.098 -0.6058  0.4226 -0.1232
10368TIP3    H155299   5.393   5.893   3.130 -0.8463  1.0960  2.0391
10368TIP3    H255300   5.260   5.963   3.116 -1.3861 -0.5683 -3.8927
10369TIP3   OH255301   0.845   6.412   3.724 -0.5573 -0.5971  0.0405
10369TIP3    H155302   0.762   6.375   3.695 -1.1326 -1.6671  2.7151
10369TIP3    H255303   0.892   6.338   3.762  0.6589  0.4159  0.5894
10370TIP3   OH255304   0.185   1.107   2.912  0.0926  0.4411  0.1078
10370TIP3    H155305   0.275   1.083   2.892  0.0142 -0.1759  0.4839
10370TIP3    H255306   0.138   1.094   2.829  0.3336  0.6945 -0.0698
10371TIP3   OH255307   3.248   6.417   2.846  0.0305 -0.3405 -0.1942
10371TIP3    H155308   3.224   6.384   2.932  2.2896  0.1297  0.6911
10371TIP3    H255309   3.248   6.513   2.856 -1.2597 -0.1936 -1.2168
10372TIP3   OH255310   4.897   4.863   3.012 -0.0280 -0.3542 -0.2248
10372TIP3    H155311   4.834   4.842   3.081  1.0373 -0.4905  0.7352
10372TIP3    H255312   4.897   4.958   3.007  0.4355 -0.3114  0.4964
10373TIP3   OH255313   5.077   3.753   3.531 -0.1088 -0.4230  0.0780
10373TIP3    H155314   5.110   3.792   3.612  0.4647 -0.9323  0.0943
10373TIP3    H255315   4.999   3.705   3.558  0.9355 -1.8849  0.6280
10374TIP3   OH255316   2.139   5.207   2.519  0.1061 -0.1785  0.1736
10374TIP3    H155317   2.099   5.235   2.601  0.5397 -1.6077  0.9105
10374TIP3    H255318   2.099   5.262   2.453 -0.3058  0.9710  1.3313
10375TIP3   OH255319   4.911   2.107   2.886 -0.8199  0.0685 -0.8194
10375TIP3    H155320   4.887   2.055   2.963  1.2499  0.2650  0.0505
10375TIP3    H255321   4.958   2.046   2.830  1.8203  0.9089  0.3065
10376TIP3   OH255322   0.830   6.707   2.561 -0.3635  0.2409  0.0412
10376TIP3    H155323   0.803   6.794   2.591  0.1119  0.0184  1.1617
10376TIP3    H255324   0.925   6.711   2.560 -0.3052 -0.5313  0.9653
10377TIP3   OH255325   4.152   5.841   2.125 -0.4012  0.0323  0.0828
10377TIP3    H155326   4.247   5.832   2.138 -0.6643  0.3861  2.5913
10377TIP3    H255327   4.113   5.797   2.200 -2.2098  1.3485 -0.0325
10378TIP3   OH255328   3.723   1.928   2.140  0.1853  0.1451 -0.0166
10378TIP3    H155329   3.818   1.913   2.133  0.3217  0.7436  0.4293
10378TIP3    H255330   3.700   1.976   2.061  0.2224 -0.1475 -0.2060
10379TIP3   OH255331   4.523   1.724   3.822  0.3628  0.0457 -0.1493
10379TIP3    H155332   4.428   1.717   3.836  0.3645  0.4591  0.0841
10379TIP3    H255333   4.558   1.642   3.855  0.4081  1.1233  2.7526
10380TIP3   OH255334   2.026   5.736   4.085  0.3748 -0.0274 -0.8081
10380TIP3    H155335   2.019   5.726   4.180  2.6488 -0.3495 -0.6090
10380TIP3    H255336   1.972   5.812   4.065 -0.3068 -0.0677  0.7147
10381TIP3   OH255337   2.634   3.022   3.767 -0.2888  0.1174 -0.0453
10381TIP3    H155338   2.591   3.097   3.808 -0.5327  0.0965 -0.2615
10381TIP3    H255339   2.656   3.051   3.679 -2.3533 -0.7556 -0.9018
10382TIP3   OH255340   0.376   4.895   3.607  0.1200  0.2916 -0.1219
10382TIP3    H155341   0.435   4.833   3.564 -0.5425  0.5804 -1.4856
10382TIP3    H255342   0.432   4.944   3.667  1.0102 -0.3218 -0.4384
10383TIP3   OH255343   5.440   2.277   4.620 -0.4942 -0.2274  0.2060
10383TIP3    H155344   5.482   2.362   4.614  0.3946 -0.4776  2.0516
10383TIP3    H255345   5.421   2.266   4.714 -1.8007 -1.4964 -0.1596
10384TIP3   OH255346   3.783   3.946   3.089 -0.6533  0.1289 -0.4214
10384TIP3    H155347   3.822   3.969   3.173  1.5454 -0.9765 -1.0722
10384TIP3    H255348   3.823   4.006   3.027 -1.3891  0.1670 -0.8715
10385TIP3   OH255349   3.938   2.626   1.969  0.0831 -0.3454  0.5626
10385TIP3    H155350   3.864   2.567   1.986  0.5240 -1.1425 -0.1803
10385TIP3    H255351   4.003   2.571   1.925  1.5533  0.0859  2.1033
10386TIP3   OH255352   1.957   4.902   3.051  0.6697 -0.4681  0.2764
10386TIP3    H155353   1.869   4.908   3.088  0.4993  1.3284 -0.3527
10386TIP3    H255354   1.948   4.930   2.960  1.6750 -1.5785 -0.2032
10387TIP3   OH255355   5.041   2.873   4.495 -0.1223  0.0784 -0.1939
10387TIP3    H155356   5.114   2.913   4.541  0.7376 -1.0122 -0.5861
10387TIP3    H255357   5.063   2.780   4.490 -1.7622 -0.3552  0.1088
10388TIP3   OH255358   3.919   2.677   2.774 -0.0301 -0.0316 -0.3610
10388TIP3    H155359   3.979   2.718   2.711 -0.0034  0.9210  0.2517
10388TIP3    H255360   3.839   2.730   2.769 -0.7916 -1.2112 -1.0692
10389TIP3   OH255361   1.983   4.269   3.255  0.4275 -0.3483  0.6650
10389TIP3    H155362   2.025   4.196   3.301  1.6019 -0.4968 -0.5816
10389TIP3    H255363   2.042   4.289   3.183 -0.1723  1.4637  0.6334
10390TIP3   OH255364   3.910   6.215   4.766 -0.6017  0.2762 -0.0776
10390TIP3    H155365   3.903   6.290   4.707 -1.2575  1.6005  1.6043
10390TIP3    H255366   3.894   6.139   4.710 -0.1802  1.3757 -1.7868
10391TIP3   OH255367   4.217   5.186   3.347  0.0972 -0.1904  0.3920
10391TIP3    H155368   4.258   5.268   3.321 -2.1663  1.3890  1.4413
10391TIP3    H255369   4.186   5.202   3.436 -3.5110 -0.8108 -0.5549
10392TIP3   OH255370   0.742   5.969   2.919 -0.3716  0.0190  0.3152
10392TIP3    H155371   0.785   6.037   2.867  1.1743 -0.9669  0.2519
10392TIP3    H255372   0.708   6.015   2.996  1.1974  0.7881  0.5800
10393TIP3   OH255373   4.549   1.645   2.835 -0.4025 -0.3638  0.2079
10393TIP3    H155374   4.560   1.637   2.930  0.4192 -1.8961  0.0089
10393TIP3    H255375   4.584   1.732   2.815  0.1566 -0.3371  1.2111
10394TIP3   OH255376   2.820   2.935   3.942  0.4151 -0.1860  0.2455
10394TIP3    H155377   2.741   2.964   3.895 -0.0814 -0.9158  0.5997
10394TIP3    H255378   2.887   2.927   3.874 -0.3379 -1.3923 -0.3881
10395TIP3   OH255379   5.303   5.679   4.217  0.7563 -0.3993  0.4430
10395TIP3    H155380   5.289   5.703   4.125 -0.2638  0.1189  0.7177
10395TIP3    H255381   5.262   5.593   4.225  1.1626 -0.6054  0.3322
10396TIP3   OH255382   1.436   0.702   2.343  0.7576  1.0687 -0.0052
10396TIP3    H155383   1.368   0.692   2.410  0.1264  0.7087 -0.6926
10396TIP3    H255384   1.494   0.769   2.379 -0.0832  1.5561  0.4911
10397TIP3   OH255385   0.292   0.506   4.164  0.0568  0.1090  0.3867
10397TIP3    H155386   0.224   0.564   4.198 -1.8368 -1.8250  0.1089
10397TIP3    H255387   0.287   0.515   4.069 -0.6833 -0.9265  0.3120
10398TIP3   OH255388   3.466   0.236   3.839 -0.2286 -0.3082  0.3284
10398TIP3    H155389   3.462   0.328   3.863 -1.6294 -0.3594  0.3407
10398TIP3    H255390   3.378   0.214   3.808  0.5308 -1.2022 -1.3380
10399TIP3   OH255391   5.413   1.577   2.327 -0.0365  0.2289 -0.4283
10399TIP3    H155392   5.477   1.513   2.293 -0.1268  0.6782 -1.4607
10399TIP3    H255393   5.347   1.523   2.370  0.5356 -0.2979 -0.1765
10400TIP3   OH255394   2.729   3.563   4.629  0.3473  0.1508 -0.2347
10400TIP3    H155395   2.772   3.631   4.578  0.6629 -0.6199 -1.0137
10400TIP3    H255396   2.661   3.609   4.678  0.5155  1.0136 -0.7974
10401TIP3   OH255397   0.348   4.470   2.814  0.2806 -0.7348  0.2020
10401TIP3    H155398   0.302   4.545   2.852  2.8729  0.1137  1.9199
10401TIP3    H255399   0.399   4.506   2.742  0.0290 -1.2194 -0.2210
10402TIP3   OH255400   4.483   1.704   5.398  0.3549  0.3863  0.2597
10402TIP3    H155401   4.569   1.744   5.408 -0.6761  2.5640  1.0678
10402TIP3    H255402   4.474   1.647   5.474  1.7888 -1.4358 -0.8345
10403TIP3   OH255403   3.462   5.410   4.607 -0.2391  0.2865 -0.3509
10403TIP3    H155404   3.550   5.391   4.576 -0.4993 -0.8313 -0.4370
10403TIP3    H255405   3.472   5.488   4.662  0.9582 -0.3252  0.3394
10404TIP3   OH255406   3.907   6.227   5.035 -0.4534  0.4776  0.0780
10404TIP3    H155407   3.845   6.155   5.048 -0.0425 -0.3152 -1.9616
10404TIP3    H255408   3.917   6.233   4.940  3.1566  0.0777  0.2874
10405TIP3   OH255409   1.998   5.538   2.026  0.2682 -0.1517  0.2209
10405TIP3    H155410   2.034   5.484   2.096  0.8902  1.3805  1.1442
10405TIP3    H255411   1.905   5.515   2.023  0.4238 -0.9211  0.9053
10406TIP3   OH255412   3.557   1.714   4.726 -0.0387  0.1674 -0.4726
10406TIP3    H155413   3.577   1.791   4.778  0.2677 -0.0450 -0.2763
10406TIP3    H255414   3.471   1.733   4.687 -0.9734 -0.2684  1.2808
10407TIP3   OH255415   3.381   4.420   4.122  0.0424 -0.4020  0.0373
10407TIP3    H155416   3.415   4.331   4.120 -1.2237 -0.9014 -0.2429
10407TIP3    H255417   3.419   4.463   4.045  0.8687 -0.6151  0.3275
10408TIP3   OH255418   0.404   4.265   3.436  0.0871  0.0282  0.3505
10408TIP3    H155419   0.328   4.232   3.485 -0.3004 -0.6412 -0.6780
10408TIP3    H255420   0.479   4.217   3.472 -0.4104 -1.7428 -0.8431
10409TIP3   OH255421   6.010   2.334   2.061  0.1016 -0.2596 -0.2776
10409TIP3    H155422   5.971   2.380   2.135 -0.2196 -0.5207 -0.2848
10409TIP3    H255423   6.085   2.389   2.035 -0.4953  0.4556 -0.5214
10410TIP3   OH255424   0.071   3.340   2.551  0.2738  0.4348 -0.2771
10410TIP3    H155425   0.046   3.360   2.461  0.0053 -0.8367 -0.5132
10410TIP3    H255426   0.082   3.245   2.552 -0.7639  0.2825  1.2709
10411TIP3   OH255427   3.368   5.714   1.809  0.7449 -0.4009 -0.2127
10411TIP3    H155428   3.289   5.762   1.832  0.3998 -0.6954 -0.7720
10411TIP3    H255429   3.439   5.765   1.848  0.3972  0.6056 -0.8498
10412TIP3   OH255430   0.519   4.646   3.097  0.7899 -0.0609  0.1811
10412TIP3    H155431   0.521   4.568   3.153  0.3835  1.6076  2.7082
10412TIP3    H255432   0.606   4.650   3.058  1.2291 -1.1346  0.9853
10413TIP3   OH255433   6.407   0.466   4.316  0.5220  0.3056  0.0393
10413TIP3    H155434   6.363   0.482   4.232 -0.3784  0.5341  0.5450
10413TIP3    H255435   6.340   0.485   4.382  0.6928 -1.4850  0.7830
10414TIP3   OH255436   3.838   3.471   3.229 -0.5722 -0.3364  0.0170
10414TIP3    H155437   3.867   3.561   3.214  0.4467 -0.8610 -1.4417
10414TIP3    H255438   3.910   3.431   3.278 -1.2443 -0.2556  1.1117
10415TIP3   OH255439   3.295   1.092   4.476 -0.2103 -0.1196 -0.3825
10415TIP3    H155440   3.371   1.073   4.532 -0.2796 -3.0726 -1.1336
10415TIP3    H255441   3.332   1.130   4.396  0.1748  0.9704  0.2845
10416TIP3   OH255442   3.533   4.761   2.643  0.0961  0.0074 -0.2982
10416TIP3    H155443   3.489   4.839   2.676  0.6012  1.4646 -2.8390
10416TIP3    H255444   3.473   4.689   2.663 -0.3288  0.9733  2.1953
10417TIP3   OH255445   5.068   4.469   2.676 -0.4007  0.1575  0.1094
10417TIP3    H155446   5.131   4.448   2.744 -0.0675 -1.2887 -0.6147
10417TIP3    H255447   4.998   4.516   2.722  0.4345  0.3618  1.2014
10418TIP3   OH255448   3.405   0.760   4.191  0.7839  0.5641  0.5916
10418TIP3    H155449   3.398   0.854   4.177 -0.2462  0.5055  0.6582
10418TIP3    H255450   3.332   0.723   4.142  2.1358 -0.3565 -0.7961
10419TIP3   OH255451   2.213   2.480   4.189  0.4523 -0.7212  0.9117
10419TIP3    H155452   2.120   2.495   4.207  0.4656  0.5153  0.1122
10419TIP3    H255453   2.215   2.398   4.140 -0.1662 -1.0016  1.3378
10420TIP3   OH255454   2.647   3.237   3.354 -0.4750  0.0055  0.4932
10420TIP3    H155455   2.679   3.216   3.441 -0.0282  3.5688  1.3698
10420TIP3    H255456   2.724   3.236   3.298 -0.2794  0.3028  0.7533
10421TIP3   OH255457   4.619   0.861   2.441  0.1422 -0.5984 -0.1204
10421TIP3    H155458   4.647   0.950   2.419 -1.3857 -0.1301 -0.2526
10421TIP3    H255459   4.701   0.810   2.443  1.0067  0.7374 -0.3091
10422TIP3   OH255460   1.399   4.508   3.934  0.0319 -0.4583 -0.4564
10422TIP3    H155461   1.413   4.486   4.026  0.1428 -0.0174 -0.3633
10422TIP3    H255462   1.382   4.602   3.934  1.1687 -0.2276 -0.9922
10423TIP3   OH255463   5.878   3.154   3.129 -0.6079 -0.1411  0.0236
10423TIP3    H155464   5.823   3.223   3.166 -0.6720 -0.2168  0.0685
10423TIP3    H255465   5.844   3.140   3.041 -0.4188  0.0795 -0.0875
10424TIP3   OH255466   0.189   6.327   2.912  0.4795 -0.0746  0.3481
10424TIP3    H155467   0.198   6.324   2.817 -0.1273  0.5685  0.2664
10424TIP3    H255468   0.223   6.243   2.942 -0.7604 -0.9309 -0.5532
10425TIP3   OH255469   6.759   0.343   2.671 -0.0419  0.1441 -0.3337
10425TIP3    H155470   6.776   0.388   2.588 -0.0392  1.7015  0.4857
10425TIP3    H255471   6.844   0.308   2.696 -0.0728 -0.4855 -1.0470
10426TIP3   OH255472   1.513   2.820   5.222  0.0483 -0.1422  0.4312
10426TIP3    H155473   1.482   2.855   5.139 -0.0729 -0.6614  0.2508
10426TIP3    H255474   1.591   2.769   5.199  1.1361  1.2436  0.8901
10427TIP3   OH255475   2.260   6.686   3.329 -0.4060  0.1274  0.1746
10427TIP3    H155476   2.332   6.626   3.347 -1.0868 -0.4009  1.2139
10427TIP3    H255477   2.284   6.728   3.246  1.0616 -0.0699  0.4671
10428TIP3   OH255478   0.089   1.388   3.665  0.2003  0.3634  0.2186
10428TIP3    H155479   0.176   1.358   3.638  2.4815  3.3445  3.4082
10428TIP3    H255480   0.103   1.430   3.750 -4.2570  1.7814  0.5090
10429TIP3   OH255481   5.019   6.473   2.267  0.2499  0.9503 -0.1275
10429TIP3    H155482   5.014   6.386   2.229  0.2726  0.3655  1.1537
10429TIP3    H255483   4.943   6.479   2.325  1.8987  0.5420  2.2091
10430TIP3   OH255484   0.915   6.086   3.504  0.1987 -0.3151 -0.1711
10430TIP3    H155485   0.973   6.140   3.557  1.0401 -0.3631 -1.0033
10430TIP3    H255486   0.890   6.014   3.561 -0.3879  0.5766  0.7263
10431TIP3   OH255487   5.175   0.384   4.989  0.0549  0.6337 -0.3746
10431TIP3    H155488   5.245   0.319   4.992  0.4157  0.9091 -2.0442
10431TIP3    H255489   5.151   0.397   5.081  1.7486  0.0574  0.1883
10432TIP3   OH255490   4.195   2.675   3.837 -0.0487  0.1917  0.0095
10432TIP3    H155491   4.242   2.723   3.768  1.0101 -1.8862 -0.7990
10432TIP3    H255492   4.111   2.652   3.797 -1.2714  2.6346  0.9547
10433TIP3   OH255493   2.798   0.309   3.137 -0.7528  0.2297  0.1633
10433TIP3    H155494   2.820   0.338   3.226 -1.6860  0.0470  0.4684
10433TIP3    H255495   2.816   0.384   3.081 -0.7138  0.5425  0.5951
10434TIP3   OH255496   1.549   2.363   4.427  0.5933  0.1632  0.1615
10434TIP3    H155497   1.603   2.286   4.444 -0.3175 -1.0643 -2.1372
10434TIP3    H255498   1.562   2.382   4.335  1.0867  3.0681  0.7251
10435TIP3   OH255499   2.891   4.277   3.286 -0.3094 -0.0963 -0.2548
10435TIP3    H155500   2.974   4.229   3.287 -0.1963  0.0671 -1.1646
10435TIP3    H255501   2.907   4.353   3.342  0.0678 -0.2057 -0.2112
10436TIP3   OH255502   3.785   2.264   3.838  0.8199  0.2381 -0.0312
10436TIP3    H155503   3.751   2.326   3.773 -0.5451 -0.4425 -0.0173
10436TIP3    H255504   3.874   2.246   3.810  0.6012  0.7680 -1.1164
10437TIP3   OH255505   5.979   2.323   3.090  0.0758  0.2906 -0.1367
10437TIP3    H155506   6.015   2.270   3.019 -0.6957 -1.9459  1.0431
10437TIP3    H255507   6.053   2.336   3.150 -0.2561 -1.7112  0.7977
10438TIP3   OH255508   2.956   1.348   4.667  0.5453  0.4060  0.1266
10438TIP3    H155509   2.883   1.305   4.711 -0.2020  0.7955 -0.6842
10438TIP3    H255510   2.948   1.440   4.692  0.8676  0.4179  0.1849
10439TIP3   OH255511   5.222   0.757   3.144 -0.2377 -0.2510 -0.3931
10439TIP3    H155512   5.314   0.749   3.119  0.3178  1.2563  0.9972
10439TIP3    H255513   5.223   0.776   3.237 -1.7078  3.0432 -0.8754
   6.83854   6.83854  30.00000
