;;
;; Generated by CHARMM-GUI (http://www.charmm-gui.org) v1.7
;;
;; psf2itp_mol.py
;;
;; Correspondance:
;; jul316@lehigh.edu or wonpil@lehigh.edu
;;
;; GROMACS topology file for LIG
;;


[ moleculetype ]
; name	nrexcl
LIG	     3

[ atoms ]
; nr	type	resnr	residu	atom	cgnr	charge	mass
     1      SG311      1      LIG     S1      1     -0.184    32.0600   ; qtot -0.184
     2      SG311      1      LIG     S2      2     -0.165    32.0600   ; qtot -0.349
     3      SG311      1      LIG     S3      3     -0.241    32.0600   ; qtot -0.590
     4      SG311      1      LIG     S4      4     -0.026    32.0600   ; qtot -0.616
     5      OG2D1      1      LIG     O1      5     -0.469    15.9994   ; qtot -1.085
     6      OG2D1      1      LIG     O2      6     -0.520    15.9994   ; qtot -1.605
     7      OG311      1      LIG     O3      7     -0.671    15.9994   ; qtot -2.276
     8      OG2D1      1      LIG    OXT      8     -0.461    15.9994   ; qtot -2.737
     9      OG2D1      1      LIG     O4      9     -0.477    15.9994   ; qtot -3.214
    10     NG2R43      1      LIG     N1     10     -0.125    14.0070   ; qtot -3.339
    11      NG2S1      1      LIG     N2     11     -0.532    14.0070   ; qtot -3.871
    12     NG2R51      1      LIG     N3     12      0.247    14.0070   ; qtot -3.624
    13     NG2R50      1      LIG     N4     13     -0.583    14.0070   ; qtot -4.207
    14     NG2R50      1      LIG     N5     14     -0.321    14.0070   ; qtot -4.528
    15     NG2R50      1      LIG     N6     15     -0.093    14.0070   ; qtot -4.621
    16     CG3RC1      1      LIG     C1     16     -0.015    12.0110   ; qtot -4.636
    17     CG3C41      1      LIG    CA1     17      0.313    12.0110   ; qtot -4.323
    18     CG2R53      1      LIG     C2     18      0.254    12.0110   ; qtot -4.069
    19     CG2D1O      1      LIG    CA2     19      0.381    12.0110   ; qtot -3.688
    20     CG2DC1      1      LIG     C3     20      0.107    12.0110   ; qtot -3.581
    21      CG321      1      LIG     C4     21     -0.079    12.0110   ; qtot -3.660
    22      CG2O1      1      LIG     C5     22      0.545    12.0110   ; qtot -3.115
    23      CG321      1      LIG     C6     23     -0.080    12.0110   ; qtot -3.195
    24      CG321      1      LIG     C7     24     -0.111    12.0110   ; qtot -3.306
    25      CG2O2      1      LIG     C8     25      0.393    12.0110   ; qtot -2.913
    26     CG3C51      1      LIG     C9     26      0.131    12.0110   ; qtot -2.782
    27     CG3C52      1      LIG    C10     27     -0.170    12.0110   ; qtot -2.952
    28     CG2R53      1      LIG    C11     28      0.473    12.0110   ; qtot -2.479
    29     CG2R53      1      LIG    C12     29      0.670    12.0110   ; qtot -1.809
    30      CG331      1      LIG    C13     30     -0.180    12.0110   ; qtot -1.989
    31       HGA1      1      LIG     H1     31      0.090     1.0080   ; qtot -1.899
    32       HGA1      1      LIG     HA     32      0.090     1.0080   ; qtot -1.809
    33       HGP1      1      LIG     H2     33      0.316     1.0080   ; qtot -1.493
    34       HGA2      1      LIG     H3     34      0.090     1.0080   ; qtot -1.403
    35       HGA2      1      LIG     H4     35      0.090     1.0080   ; qtot -1.313
    36       HGA2      1      LIG     H5     36      0.090     1.0080   ; qtot -1.223
    37       HGA2      1      LIG     H6     37      0.090     1.0080   ; qtot -1.133
    38       HGA2      1      LIG     H7     38      0.090     1.0080   ; qtot -1.043
    39       HGA2      1      LIG     H8     39      0.090     1.0080   ; qtot -0.953
    40       HGA1      1      LIG     H9     40      0.064     1.0080   ; qtot -0.889
    41       HGA2      1      LIG    H10     41      0.090     1.0080   ; qtot -0.799
    42       HGA2      1      LIG    H11     42      0.090     1.0080   ; qtot -0.709
    43       HGP1      1      LIG    H12     43      0.439     1.0080   ; qtot -0.270
    44       HGA3      1      LIG    H13     44      0.090     1.0080   ; qtot -0.180
    45       HGA3      1      LIG    H14     45      0.090     1.0080   ; qtot -0.090
    46       HGA3      1      LIG    H15     46      0.090     1.0080   ; qtot  0.000

[ bonds ]
; ai	aj	funct	b0	Kb
    1    16     1
    1    21     1
    2    23     1
    2    29     1
    3    26     1
    3    28     1
    4    27     1
    4    28     1
    5    18     1
    6    22     1
    7    25     1
    7    43     1
    8    25     1
    9    28     1
   10    16     1
   10    18     1
   10    19     1
   11    17     1
   11    22     1
   11    33     1
   12    14     1
   12    29     1
   12    30     1
   13    15     1
   13    29     1
   14    15     1
   16    17     1
   16    31     1
   17    18     1
   17    32     1
   19    20     1
   19    25     1
   20    21     1
   20    23     1
   21    34     1
   21    35     1
   22    24     1
   23    36     1
   23    37     1
   24    26     1
   24    38     1
   24    39     1
   26    27     1
   26    40     1
   27    41     1
   27    42     1
   30    44     1
   30    45     1
   30    46     1

[ pairs ]
; ai	aj	funct	c6	c12
    1    11     1 
    1    18     1 
    1    19     1 
    1    23     1 
    1    32     1 
    2    14     1 
    2    15     1 
    2    19     1 
    2    21     1 
    2    30     1 
    3    22     1 
    3    38     1 
    3    39     1 
    3    41     1 
    3    42     1 
    4    24     1 
    4    40     1 
    5    11     1 
    5    16     1 
    5    19     1 
    5    32     1 
    6    17     1 
    6    26     1 
    6    33     1 
    6    38     1 
    6    39     1 
    7    10     1 
    7    20     1 
    8    10     1 
    8    20     1 
    8    43     1 
    9    26     1 
    9    27     1 
   10    11     1 
   10    16     1 
   10    18     1 
   10    21     1 
   10    23     1 
   10    32     1 
   11    26     1 
   11    31     1 
   11    38     1 
   11    39     1 
   12    23     1 
   13    23     1 
   13    30     1 
   14    44     1 
   14    45     1 
   14    46     1 
   15    30     1 
   16    17     1 
   16    20     1 
   16    22     1 
   16    25     1 
   16    33     1 
   16    34     1 
   16    35     1 
   17    18     1 
   17    19     1 
   17    21     1 
   17    24     1 
   18    20     1 
   18    22     1 
   18    25     1 
   18    31     1 
   18    33     1 
   19    31     1 
   19    34     1 
   19    35     1 
   19    36     1 
   19    37     1 
   19    43     1 
   20    29     1 
   21    25     1 
   21    31     1 
   21    36     1 
   21    37     1 
   22    27     1 
   22    32     1 
   22    40     1 
   23    25     1 
   23    34     1 
   23    35     1 
   24    28     1 
   24    33     1 
   24    41     1 
   24    42     1 
   27    38     1 
   27    39     1 
   28    40     1 
   28    41     1 
   28    42     1 
   29    36     1 
   29    37     1 
   29    44     1 
   29    45     1 
   29    46     1 
   31    32     1 
   32    33     1 
   38    40     1 
   39    40     1 
   40    41     1 
   40    42     1 

[ angles ] 
; ai	aj	ak	funct	th0	cth	S0	Kub
   16     1    21     5
   23     2    29     5
   26     3    28     5
   27     4    28     5
   25     7    43     5
   16    10    18     5
   16    10    19     5
   18    10    19     5
   17    11    22     5
   17    11    33     5
   22    11    33     5
   14    12    29     5
   14    12    30     5
   29    12    30     5
   15    13    29     5
   12    14    15     5
   13    15    14     5
    1    16    10     5
    1    16    17     5
    1    16    31     5
   10    16    17     5
   10    16    31     5
   17    16    31     5
   11    17    16     5
   11    17    18     5
   11    17    32     5
   16    17    18     5
   16    17    32     5
   18    17    32     5
    5    18    10     5
    5    18    17     5
   10    18    17     5
   10    19    20     5
   10    19    25     5
   20    19    25     5
   19    20    21     5
   19    20    23     5
   21    20    23     5
    1    21    20     5
    1    21    34     5
    1    21    35     5
   20    21    34     5
   20    21    35     5
   34    21    35     5
    6    22    11     5
    6    22    24     5
   11    22    24     5
    2    23    20     5
    2    23    36     5
    2    23    37     5
   20    23    36     5
   20    23    37     5
   36    23    37     5
   22    24    26     5
   22    24    38     5
   22    24    39     5
   26    24    38     5
   26    24    39     5
   38    24    39     5
    7    25     8     5
    7    25    19     5
    8    25    19     5
    3    26    24     5
    3    26    27     5
    3    26    40     5
   24    26    27     5
   24    26    40     5
   27    26    40     5
    4    27    26     5
    4    27    41     5
    4    27    42     5
   26    27    41     5
   26    27    42     5
   41    27    42     5
    3    28     4     5
    3    28     9     5
    4    28     9     5
    2    29    12     5
    2    29    13     5
   12    29    13     5
   12    30    44     5
   12    30    45     5
   12    30    46     5
   44    30    45     5
   44    30    46     5
   45    30    46     5

[ dihedrals ]
; ai	aj	ak	al	funct	phi0	cp	mult
   21     1    16    31     9
   16     1    21    20     9
   16     1    21    34     9
   16     1    21    35     9
   29     2    23    36     9
   29     2    23    37     9
   28     3    26    40     9
   28     4    27    41     9
   28     4    27    42     9
   18    10    16    31     9
   19    10    16    31     9
   16    10    18    17     9
   16    10    19    20     9
   16    10    19    25     9
   18    10    19    20     9
   18    10    19    25     9
   22    11    17    32     9
   17    11    22    24     9
   14    12    30    44     9
   14    12    30    45     9
   14    12    30    46     9
   29    12    30    44     9
   29    12    30    45     9
   29    12    30    46     9
   15    14    12    29     9
   15    14    12    30     9
   12    14    15    13     9
   14    15    13    29     9
   10    16     1    21     9
   17    16     1    21     9
    1    16    10    18     9
    1    16    10    19     9
   17    16    10    18     9
   17    16    10    19     9
    1    16    17    11     9
    1    16    17    18     9
    1    16    17    32     9
   10    16    17    11     9
   10    16    17    18     9
   10    16    17    32     9
   31    16    17    32     9
   16    17    11    22     9
   16    17    11    33     9
   18    17    11    22     9
   18    17    11    33     9
   32    17    11    33     9
   11    17    16    31     9
   18    17    16    31     9
    5    18    10    16     9
    5    18    10    19     9
   17    18    10    19     9
    5    18    17    11     9
    5    18    17    16     9
    5    18    17    32     9
   10    18    17    11     9
   10    18    17    16     9
   10    18    17    32     9
   10    19    20    21     9
   10    19    20    23     9
   21    20    19    25     9
   23    20    19    25     9
   19    20    21    34     9
   19    20    21    35     9
   23    20    21    34     9
   23    20    21    35     9
   19    20    23    36     9
   19    20    23    37     9
   21    20    23    36     9
   21    20    23    37     9
    1    21    20    19     9
    1    21    20    23     9
    6    22    11    17     9
    6    22    11    33     9
   24    22    11    33     9
    6    22    24    26     9
    6    22    24    38     9
    6    22    24    39     9
   11    22    24    26     9
   11    22    24    38     9
   11    22    24    39     9
   20    23     2    29     9
    2    23    20    19     9
    2    23    20    21     9
   22    24    26    27     9
   22    24    26    40     9
   38    24    26    40     9
   39    24    26    40     9
    8    25     7    43     9
   19    25     7    43     9
    7    25    19    10     9
    7    25    19    20     9
    8    25    19    10     9
    8    25    19    20     9
   24    26     3    28     9
   27    26     3    28     9
    3    26    24    22     9
    3    26    24    38     9
    3    26    24    39     9
   27    26    24    38     9
   27    26    24    39     9
    3    26    27     4     9
    3    26    27    41     9
    3    26    27    42     9
   24    26    27    41     9
   24    26    27    42     9
   40    26    27    41     9
   40    26    27    42     9
   26    27     4    28     9
    4    27    26    24     9
    4    27    26    40     9
    4    28     3    26     9
    9    28     3    26     9
    3    28     4    27     9
    9    28     4    27     9
   12    29     2    23     9
   13    29     2    23     9
    2    29    12    14     9
    2    29    12    30     9
   13    29    12    14     9
   13    29    12    30     9
    2    29    13    15     9
   12    29    13    15     9

[ dihedrals ]
; ai	aj	ak	al	funct	q0	cq
   18    17    10     5     2
   19    20    25    10     2
   22    24    11     6     2
   25    19     8     7     2
   28     3     4     9     2
