;;
;; Generated by CHARMM-GUI (http://www.charmm-gui.org) v1.7
;;
;; psf2itp_mol.py
;;
;; Correspondance:
;; jul316@lehigh.edu or wonpil@lehigh.edu
;;
;; GROMACS topology file for LIG
;;


[ moleculetype ]
; name	nrexcl
LIG	     3

[ atoms ]
; nr	type	resnr	residu	atom	cgnr	charge	mass
     1      SG311      1      LIG     S1      1     -0.184    32.0600   ; qtot -0.184
     2      SG311      1      LIG     S2      2     -0.165    32.0600   ; qtot -0.349
     3      OG2D1      1      LIG     O1      3     -0.469    15.9994   ; qtot -0.818
     4      OG2D1      1      LIG     O2      4     -0.521    15.9994   ; qtot -1.339
     5      OG311      1      LIG     O3      5     -0.671    15.9994   ; qtot -2.010
     6      OG2D1      1      LIG    OXT      6     -0.461    15.9994   ; qtot -2.471
     7     NG2R43      1      LIG     N1      7     -0.125    14.0070   ; qtot -2.596
     8      NG2S1      1      LIG     N2      8     -0.556    14.0070   ; qtot -3.152
     9     NG2R51      1      LIG     N3      9     -0.079    14.0070   ; qtot -3.231
    10     NG2R51      1      LIG     N4     10      0.247    14.0070   ; qtot -2.984
    11     NG2R50      1      LIG     N5     11     -0.583    14.0070   ; qtot -3.567
    12     NG2R50      1      LIG     N6     12     -0.321    14.0070   ; qtot -3.888
    13     NG2R50      1      LIG     N7     13     -0.093    14.0070   ; qtot -3.981
    14     CG3RC1      1      LIG     C1     14     -0.015    12.0110   ; qtot -3.996
    15     CG3C41      1      LIG    CA1     15      0.313    12.0110   ; qtot -3.683
    16     CG2R53      1      LIG     C2     16      0.254    12.0110   ; qtot -3.429
    17     CG2D1O      1      LIG    CA2     17      0.381    12.0110   ; qtot -3.048
    18     CG2DC1      1      LIG     C3     18      0.107    12.0110   ; qtot -2.941
    19      CG321      1      LIG     C4     19     -0.079    12.0110   ; qtot -3.020
    20      CG311      1      LIG     C5     20      0.282    12.0110   ; qtot -2.738
    21      CG2O1      1      LIG     C6     21      0.524    12.0110   ; qtot -2.214
    22      CG321      1      LIG     C7     22     -0.268    12.0110   ; qtot -2.482
    23      CG321      1      LIG     C8     23     -0.080    12.0110   ; qtot -2.562
    24      CG2O2      1      LIG     C9     24      0.393    12.0110   ; qtot -2.169
    25      CG321      1      LIG    C10     25     -0.193    12.0110   ; qtot -2.362
    26     CG2R51      1      LIG    C11     26     -0.037    12.0110   ; qtot -2.399
    27     CG2R51      1      LIG    C12     27     -0.037    12.0110   ; qtot -2.436
    28      CG331      1      LIG    C13     28     -0.273    12.0110   ; qtot -2.709
    29     CG2R51      1      LIG    C14     29     -0.304    12.0110   ; qtot -3.013
    30     CG2R51      1      LIG    C15     30     -0.304    12.0110   ; qtot -3.317
    31     CG2R53      1      LIG    C16     31      0.670    12.0110   ; qtot -2.647
    32      CG331      1      LIG    C17     32     -0.180    12.0110   ; qtot -2.827
    33       HGA1      1      LIG     H1     33      0.090     1.0080   ; qtot -2.737
    34       HGA1      1      LIG     HA     34      0.090     1.0080   ; qtot -2.647
    35       HGP1      1      LIG     H2     35      0.302     1.0080   ; qtot -2.345
    36       HGA2      1      LIG     H3     36      0.090     1.0080   ; qtot -2.255
    37       HGA2      1      LIG     H4     37      0.090     1.0080   ; qtot -2.165
    38       HGA1      1      LIG     H5     38      0.090     1.0080   ; qtot -2.075
    39       HGA2      1      LIG     H6     39      0.090     1.0080   ; qtot -1.985
    40       HGA2      1      LIG     H7     40      0.090     1.0080   ; qtot -1.895
    41       HGA2      1      LIG     H8     41      0.090     1.0080   ; qtot -1.805
    42       HGA2      1      LIG     H9     42      0.090     1.0080   ; qtot -1.715
    43       HGA2      1      LIG    H10     43      0.090     1.0080   ; qtot -1.625
    44       HGA2      1      LIG    H11     44      0.090     1.0080   ; qtot -1.535
    45      HGR52      1      LIG    H12     45      0.111     1.0080   ; qtot -1.424
    46      HGR52      1      LIG    H13     46      0.111     1.0080   ; qtot -1.313
    47       HGA3      1      LIG    H14     47      0.090     1.0080   ; qtot -1.223
    48       HGA3      1      LIG    H15     48      0.090     1.0080   ; qtot -1.133
    49       HGA3      1      LIG    H16     49      0.090     1.0080   ; qtot -1.043
    50      HGR51      1      LIG    H17     50      0.167     1.0080   ; qtot -0.876
    51      HGR51      1      LIG    H18     51      0.167     1.0080   ; qtot -0.709
    52       HGP1      1      LIG    H19     52      0.439     1.0080   ; qtot -0.270
    53       HGA3      1      LIG    H20     53      0.090     1.0080   ; qtot -0.180
    54       HGA3      1      LIG    H21     54      0.090     1.0080   ; qtot -0.090
    55       HGA3      1      LIG    H22     55      0.090     1.0080   ; qtot -0.000

[ bonds ]
; ai	aj	funct	b0	Kb
    1    14     1
    1    19     1
    2    23     1
    2    31     1
    3    16     1
    4    21     1
    5    24     1
    5    52     1
    6    24     1
    7    14     1
    7    16     1
    7    17     1
    8    15     1
    8    21     1
    8    35     1
    9    20     1
    9    26     1
    9    27     1
   10    12     1
   10    31     1
   10    32     1
   11    13     1
   11    31     1
   12    13     1
   14    15     1
   14    33     1
   15    16     1
   15    34     1
   17    18     1
   17    24     1
   18    19     1
   18    23     1
   19    36     1
   19    37     1
   20    21     1
   20    22     1
   20    38     1
   22    25     1
   22    39     1
   22    40     1
   23    41     1
   23    42     1
   25    28     1
   25    43     1
   25    44     1
   26    29     1
   26    45     1
   27    30     1
   27    46     1
   28    47     1
   28    48     1
   28    49     1
   29    30     1
   29    50     1
   30    51     1
   32    53     1
   32    54     1
   32    55     1

[ pairs ]
; ai	aj	funct	c6	c12
    1     8     1 
    1    16     1 
    1    17     1 
    1    23     1 
    1    34     1 
    2    12     1 
    2    13     1 
    2    17     1 
    2    19     1 
    2    32     1 
    3     8     1 
    3    14     1 
    3    17     1 
    3    34     1 
    4     9     1 
    4    15     1 
    4    22     1 
    4    35     1 
    4    38     1 
    5     7     1 
    5    18     1 
    6     7     1 
    6    18     1 
    6    52     1 
    7     8     1 
    7    14     1 
    7    16     1 
    7    19     1 
    7    23     1 
    7    34     1 
    8     9     1 
    8    22     1 
    8    33     1 
    8    38     1 
    9    25     1 
    9    39     1 
    9    40     1 
    9    50     1 
    9    51     1 
   10    23     1 
   11    23     1 
   11    32     1 
   12    53     1 
   12    54     1 
   12    55     1 
   13    32     1 
   14    15     1 
   14    18     1 
   14    21     1 
   14    24     1 
   14    35     1 
   14    36     1 
   14    37     1 
   15    16     1 
   15    17     1 
   15    19     1 
   15    20     1 
   16    18     1 
   16    21     1 
   16    24     1 
   16    33     1 
   16    35     1 
   17    33     1 
   17    36     1 
   17    37     1 
   17    41     1 
   17    42     1 
   17    52     1 
   18    31     1 
   19    24     1 
   19    33     1 
   19    41     1 
   19    42     1 
   20    28     1 
   20    29     1 
   20    30     1 
   20    35     1 
   20    43     1 
   20    44     1 
   20    45     1 
   20    46     1 
   21    25     1 
   21    26     1 
   21    27     1 
   21    34     1 
   21    39     1 
   21    40     1 
   22    26     1 
   22    27     1 
   22    47     1 
   22    48     1 
   22    49     1 
   23    24     1 
   23    36     1 
   23    37     1 
   25    38     1 
   26    38     1 
   26    46     1 
   26    51     1 
   27    38     1 
   27    45     1 
   27    50     1 
   28    39     1 
   28    40     1 
   29    46     1 
   30    45     1 
   31    41     1 
   31    42     1 
   31    53     1 
   31    54     1 
   31    55     1 
   33    34     1 
   34    35     1 
   38    39     1 
   38    40     1 
   39    43     1 
   39    44     1 
   40    43     1 
   40    44     1 
   43    47     1 
   43    48     1 
   43    49     1 
   44    47     1 
   44    48     1 
   44    49     1 
   45    50     1 
   46    51     1 
   50    51     1 

[ angles ] 
; ai	aj	ak	funct	th0	cth	S0	Kub
   14     1    19     5
   23     2    31     5
   24     5    52     5
   14     7    16     5
   14     7    17     5
   16     7    17     5
   15     8    21     5
   15     8    35     5
   21     8    35     5
   20     9    26     5
   20     9    27     5
   26     9    27     5
   12    10    31     5
   12    10    32     5
   31    10    32     5
   13    11    31     5
   10    12    13     5
   11    13    12     5
    1    14     7     5
    1    14    15     5
    1    14    33     5
    7    14    15     5
    7    14    33     5
   15    14    33     5
    8    15    14     5
    8    15    16     5
    8    15    34     5
   14    15    16     5
   14    15    34     5
   16    15    34     5
    3    16     7     5
    3    16    15     5
    7    16    15     5
    7    17    18     5
    7    17    24     5
   18    17    24     5
   17    18    19     5
   17    18    23     5
   19    18    23     5
    1    19    18     5
    1    19    36     5
    1    19    37     5
   18    19    36     5
   18    19    37     5
   36    19    37     5
    9    20    21     5
    9    20    22     5
    9    20    38     5
   21    20    22     5
   21    20    38     5
   22    20    38     5
    4    21     8     5
    4    21    20     5
    8    21    20     5
   20    22    25     5
   20    22    39     5
   20    22    40     5
   25    22    39     5
   25    22    40     5
   39    22    40     5
    2    23    18     5
    2    23    41     5
    2    23    42     5
   18    23    41     5
   18    23    42     5
   41    23    42     5
    5    24     6     5
    5    24    17     5
    6    24    17     5
   22    25    28     5
   22    25    43     5
   22    25    44     5
   28    25    43     5
   28    25    44     5
   43    25    44     5
    9    26    29     5
    9    26    45     5
   29    26    45     5
    9    27    30     5
    9    27    46     5
   30    27    46     5
   25    28    47     5
   25    28    48     5
   25    28    49     5
   47    28    48     5
   47    28    49     5
   48    28    49     5
   26    29    30     5
   26    29    50     5
   30    29    50     5
   27    30    29     5
   27    30    51     5
   29    30    51     5
    2    31    10     5
    2    31    11     5
   10    31    11     5
   10    32    53     5
   10    32    54     5
   10    32    55     5
   53    32    54     5
   53    32    55     5
   54    32    55     5

[ dihedrals ]
; ai	aj	ak	al	funct	phi0	cp	mult
   19     1    14    33     9
   14     1    19    18     9
   14     1    19    36     9
   14     1    19    37     9
   31     2    23    41     9
   31     2    23    42     9
   16     7    14    33     9
   17     7    14    33     9
   14     7    16    15     9
   14     7    17    18     9
   14     7    17    24     9
   16     7    17    18     9
   16     7    17    24     9
   21     8    15    34     9
   15     8    21    20     9
   26     9    20    38     9
   27     9    20    38     9
   20     9    26    29     9
   20     9    26    45     9
   27     9    26    29     9
   27     9    26    45     9
   20     9    27    30     9
   20     9    27    46     9
   26     9    27    30     9
   26     9    27    46     9
   12    10    32    53     9
   12    10    32    54     9
   12    10    32    55     9
   31    10    32    53     9
   31    10    32    54     9
   31    10    32    55     9
   13    12    10    31     9
   13    12    10    32     9
   10    12    13    11     9
   12    13    11    31     9
    7    14     1    19     9
   15    14     1    19     9
    1    14     7    16     9
    1    14     7    17     9
   15    14     7    16     9
   15    14     7    17     9
    1    14    15     8     9
    1    14    15    16     9
    1    14    15    34     9
    7    14    15     8     9
    7    14    15    16     9
    7    14    15    34     9
   33    14    15    34     9
   14    15     8    21     9
   14    15     8    35     9
   16    15     8    21     9
   16    15     8    35     9
   34    15     8    35     9
    8    15    14    33     9
   16    15    14    33     9
    3    16     7    14     9
    3    16     7    17     9
   15    16     7    17     9
    3    16    15     8     9
    3    16    15    14     9
    3    16    15    34     9
    7    16    15     8     9
    7    16    15    14     9
    7    16    15    34     9
    7    17    18    19     9
    7    17    18    23     9
   19    18    17    24     9
   23    18    17    24     9
   17    18    19    36     9
   17    18    19    37     9
   23    18    19    36     9
   23    18    19    37     9
   17    18    23    41     9
   17    18    23    42     9
   19    18    23    41     9
   19    18    23    42     9
    1    19    18    17     9
    1    19    18    23     9
   21    20     9    26     9
   21    20     9    27     9
   22    20     9    26     9
   22    20     9    27     9
    9    20    22    25     9
    9    20    22    39     9
    9    20    22    40     9
   21    20    22    25     9
   21    20    22    39     9
   21    20    22    40     9
   38    20    22    39     9
   38    20    22    40     9
    4    21     8    15     9
    4    21     8    35     9
   20    21     8    35     9
    4    21    20     9     9
    4    21    20    22     9
    4    21    20    38     9
    8    21    20     9     9
    8    21    20    22     9
    8    21    20    38     9
   25    22    20    38     9
   20    22    25    28     9
   20    22    25    43     9
   20    22    25    44     9
   39    22    25    43     9
   39    22    25    44     9
   40    22    25    43     9
   40    22    25    44     9
   18    23     2    31     9
    2    23    18    17     9
    2    23    18    19     9
    6    24     5    52     9
   17    24     5    52     9
    5    24    17     7     9
    5    24    17    18     9
    6    24    17     7     9
    6    24    17    18     9
   28    25    22    39     9
   28    25    22    40     9
   22    25    28    47     9
   22    25    28    48     9
   22    25    28    49     9
   43    25    28    47     9
   43    25    28    48     9
   43    25    28    49     9
   44    25    28    47     9
   44    25    28    48     9
   44    25    28    49     9
    9    26    29    30     9
    9    26    29    50     9
   45    26    29    50     9
    9    27    30    29     9
    9    27    30    51     9
   46    27    30    51     9
   30    29    26    45     9
   26    29    30    27     9
   26    29    30    51     9
   50    29    30    51     9
   29    30    27    46     9
   27    30    29    50     9
   10    31     2    23     9
   11    31     2    23     9
    2    31    10    12     9
    2    31    10    32     9
   11    31    10    12     9
   11    31    10    32     9
    2    31    11    13     9
   10    31    11    13     9

[ dihedrals ]
; ai	aj	ak	al	funct	q0	cq
   16    15     7     3     2
   17    18    24     7     2
   21    20     8     4     2
   24    17     6     5     2
