Title
82273
    1SAPS     N    1   2.520   1.834  11.137 -0.2516  0.1576  0.7507
    1SAPS   HN1    2   2.440   1.783  11.094 -0.5182 -0.6519  2.1659
    1SAPS   HN2    3   2.554   1.900  11.064 -1.6074 -3.0758 -3.0564
    1SAPS   HN3    4   2.591   1.758  11.136  0.5890  0.9122  2.2971
    1SAPS   C12    5   2.492   1.894  11.263  0.2987 -0.5789 -0.4338
    1SAPS  H12A    6   2.412   1.966  11.252  1.1261  0.4706  0.2606
    1SAPS   C13    7   2.452   1.796  11.370  0.2921 -0.8957 -0.1587
    1SAPS  O13A    8   2.427   1.675  11.346 -0.4762  0.0448 -0.0167
    1SAPS  O13B    9   2.413   1.850  11.478  0.1795  0.1675  0.5935
    1SAPS   C11   10   2.622   1.969  11.314  0.1045 -0.0455 -0.1473
    1SAPS  H11A   11   2.694   1.901  11.364  2.2611  0.6075 -2.2592
    1SAPS  H11B   12   2.585   2.042  11.389 -0.9033 -1.7188  1.0032
    1SAPS     P   13   2.651   2.149  11.114  0.0907 -0.1270  0.6499
    1SAPS   O13   14   2.538   2.219  11.173 -0.1646  0.0521  0.5528
    1SAPS   O14   15   2.770   2.230  11.073  0.1156  0.4870  0.5959
    1SAPS   O12   16   2.697   2.030  11.212 -0.2249  0.0984 -0.3893
    1SAPS   O11   17   2.591   2.070  10.992 -0.5630 -0.5813  0.1307
    1SAPS    C1   18   2.569   2.126  10.863  0.0629 -0.6000  0.1866
    1SAPS    HA   19   2.467   2.172  10.860 -0.3197 -1.4980 -1.3679
    1SAPS    HB   20   2.624   2.219  10.836  0.3206 -0.2454  1.8914
    1SAPS    C2   21   2.591   2.027  10.739  0.4283  0.5897 -0.3114
    1SAPS    HS   22   2.576   2.082  10.644 -0.3662 -0.6369 -0.9033
    1SAPS   O21   23   2.505   1.914  10.742  0.4184 -0.3431  0.5341
    1SAPS   C21   24   2.376   1.942  10.722 -0.1852  0.0132  0.0866
    1SAPS   O22   25   2.324   2.050  10.712  0.3232 -0.9837 -0.1813
    1SAPS   C22   26   2.304   1.810  10.679 -0.8309 -0.5350 -0.4044
    1SAPS   H2R   27   2.309   1.805  10.568  0.3257 -1.5243 -0.3182
    1SAPS   H2S   28   2.365   1.724  10.713 -0.5047 -0.4126 -0.6802
    1SAPS    C3   29   2.745   1.980  10.733  0.4459 -0.1073 -0.0974
    1SAPS    HX   30   2.766   1.907  10.814  2.6641  0.3804 -0.1952
    1SAPS    HY   31   2.817   2.064  10.749 -0.7344  1.1892 -1.4480
    1SAPS   O31   32   2.779   1.911  10.603 -0.5497  0.3155  0.1558
    1SAPS   C31   33   2.797   1.994  10.500 -0.2560  0.4240  0.1999
    1SAPS   O32   34   2.808   2.116  10.508  0.7626  1.0790  0.7497
    1SAPS   C32   35   2.822   1.918  10.380 -0.1916 -0.1360  0.8198
    1SAPS   H2X   36   2.721   1.894  10.338  0.1772 -0.5691  0.1720
    1SAPS   H2Y   37   2.883   1.829  10.407 -0.2165  0.0531  1.4901
    1SAPS   C23   38   2.154   1.805  10.722  0.5103  0.0286 -0.3065
    1SAPS   H3R   39   2.111   1.904  10.696 -0.4770 -0.6474 -1.3172
    1SAPS   H3S   40   2.124   1.807  10.829  0.0584 -1.2419 -0.4031
    1SAPS   C24   41   2.081   1.683  10.662  0.5805 -0.4306  0.6892
    1SAPS   H4R   42   2.081   1.697  10.552  1.2044  0.7232  0.8331
    1SAPS   H4S   43   1.974   1.691  10.692 -0.2101 -3.1397 -1.1493
    1SAPS   C25   44   2.136   1.554  10.723 -0.0685 -0.3738 -0.3293
    1SAPS   H5R   45   2.118   1.557  10.832  2.3495  1.9307  0.0838
    1SAPS   C26   46   2.203   1.454  10.657 -0.0847 -1.2200 -0.2772
    1SAPS   H6R   47   2.237   1.364  10.711 -1.5384 -0.6703  1.6394
    1SAPS   C27   48   2.224   1.463  10.507  0.0670  0.0963 -0.1406
    1SAPS   H7R   49   2.294   1.546  10.484 -0.5555  0.1945 -1.7683
    1SAPS   H7S   50   2.131   1.491  10.452  0.9461  1.1639 -1.1126
    1SAPS   C28   51   2.281   1.330  10.458 -0.3198  0.5710 -0.0062
    1SAPS   H8R   52   2.383   1.307  10.495 -0.0806  1.7183  0.0584
    1SAPS   C29   53   2.225   1.247  10.367 -0.4269  0.3276 -0.5728
    1SAPS   H9R   54   2.272   1.149  10.348 -0.1434 -0.7126  4.7259
    1SAPS  C210   55   2.092   1.264  10.304 -0.0208 -0.2381  0.1004
    1SAPS  H10R   56   2.026   1.323  10.371 -0.0977 -0.6297  0.3752
    1SAPS  H10S   57   2.040   1.166  10.293  0.4919 -0.5506  0.3786
    1SAPS  C211   58   2.113   1.339  10.177  0.4974 -0.7664 -0.1618
    1SAPS  H11R   59   2.168   1.434  10.183  0.0160 -0.4871 -0.0697
    1SAPS  C212   60   2.064   1.308  10.056 -0.4742  0.7194 -0.8974
    1SAPS  H12R   61   2.090   1.369   9.969 -1.0819  2.7318  0.3092
    1SAPS  C213   62   1.981   1.181  10.021  1.1344  0.2617 -0.7624
    1SAPS  H13R   63   1.898   1.161  10.092  2.8794 -2.4192  0.6421
    1SAPS  H13S   64   2.044   1.091  10.006 -3.0167 -3.1125  0.9015
    1SAPS  C214   65   1.928   1.204   9.883  0.0176 -0.1615  0.2872
    1SAPS  H14R   66   1.821   1.230   9.880  0.6898  2.6538 -2.5708
    1SAPS  C215   67   1.995   1.222   9.765 -0.2590  0.1412  0.2540
    1SAPS  H15R   68   1.938   1.220   9.671 -0.4075 -1.1216  0.3638
    1SAPS  C216   69   2.144   1.220   9.746  0.8005  0.2431 -0.2463
    1SAPS  H16R   70   2.168   1.163   9.655 -1.9372 -3.0454  0.9821
    1SAPS  H16S   71   2.194   1.177   9.836 -0.6554 -2.4299 -0.6904
    1SAPS  C217   72   2.181   1.368   9.708 -0.6378  0.3315 -0.7116
    1SAPS  H17R   73   2.290   1.353   9.688 -0.0951 -0.8716  2.7878
    1SAPS  H17S   74   2.156   1.442   9.787  0.7229 -1.5161  1.5063
    1SAPS  C218   75   2.110   1.422   9.581  0.6013 -0.2163  0.1530
    1SAPS  H18R   76   2.120   1.532   9.589 -1.2829  0.1261 -1.7379
    1SAPS  H18S   77   2.001   1.398   9.586  0.6489 -0.2842  0.8777
    1SAPS  C219   78   2.181   1.365   9.456  0.1267 -0.7311  0.5658
    1SAPS  H19R   79   2.176   1.254   9.454  3.4656 -0.9232 -0.3331
    1SAPS  H19S   80   2.291   1.379   9.464 -0.0382  0.7976  0.3413
    1SAPS  C220   81   2.133   1.428   9.329  0.1534  0.0480 -0.4538
    1SAPS  H20R   82   2.152   1.537   9.341  1.3660 -0.0267 -1.6024
    1SAPS  H20S   83   2.023   1.410   9.320  0.5895 -1.8682 -2.6438
    1SAPS  H20T   84   2.186   1.406   9.234  0.2956  0.5024 -0.4807
    1SAPS   C33   85   2.892   2.004  10.265 -0.4488 -0.3113 -0.2567
    1SAPS   H3X   86   3.000   2.016  10.289  0.0274 -3.1480 -0.7627
    1SAPS   H3Y   87   2.842   2.103  10.260  0.6063  0.2588  0.5296
    1SAPS   C34   88   2.855   1.948  10.131  0.5355 -0.2268 -0.3985
    1SAPS   H4X   89   2.744   1.955  10.131  0.6810  3.0855  0.1537
    1SAPS   H4Y   90   2.877   1.839  10.124 -0.1510 -0.5044  1.5200
    1SAPS   C35   91   2.915   2.031  10.015  0.9566 -0.3094  0.4255
    1SAPS   H5X   92   3.023   2.047  10.030  1.3047  0.7642 -2.7284
    1SAPS   H5Y   93   2.863   2.129  10.017  0.3241 -0.6212 -0.3326
    1SAPS   C36   94   2.888   1.953   9.880 -0.3541  0.5891  0.1991
    1SAPS   H6X   95   2.791   1.899   9.887  0.1042 -0.1570  0.9763
    1SAPS   H6Y   96   2.962   1.871   9.865 -1.4982 -0.2614 -0.8981
    1SAPS   C37   97   2.896   2.051   9.753 -0.4139  0.7428 -0.0147
    1SAPS   H7X   98   2.999   2.037   9.714  0.3905  1.6327  1.7285
    1SAPS   H7Y   99   2.878   2.158   9.776  2.1476  0.7932  2.0210
    1SAPS   C38  100   2.793   2.017   9.637  0.9130 -0.9337 -1.4393
    1SAPS   H8X  101   2.702   2.080   9.646 -0.3125 -2.5733 -2.2866
    1SAPS   H8Y  102   2.771   1.908   9.636 -1.2300 -0.5225 -1.1234
    1SAPS   C39  103   2.837   2.046   9.499  0.1068 -0.5210 -0.7329
    1SAPS   H9X  104   2.937   2.004   9.474  0.5852  0.7255 -0.9270
    1SAPS   H9Y  105   2.841   2.156   9.483  0.0078 -0.3483  0.3790
    1SAPS  C310  106   2.750   1.995   9.384 -0.2853  0.1490 -0.1755
    1SAPS  H10X  107   2.651   2.045   9.396  0.8401  1.8160  2.8380
    1SAPS  H10Y  108   2.741   1.886   9.401  1.0609  0.0101 -0.2829
    1SAPS  C311  109   2.813   2.024   9.244  0.5563  0.5234  0.2043
    1SAPS  H11X  110   2.911   1.971   9.236  1.1207  1.1349  2.6057
    1SAPS  H11Y  111   2.825   2.133   9.226  1.5657  0.1778 -1.3664
    1SAPS  C312  112   2.718   1.977   9.129  0.1057  0.6537  0.2590
    1SAPS  H12X  113   2.620   2.027   9.139 -0.9204 -1.1225 -0.6821
    1SAPS  H12Y  114   2.695   1.868   9.135 -0.6933  0.8557  0.8446
    1SAPS  C313  115   2.776   2.013   8.992  0.2372  0.0229  0.0385
    1SAPS  H13X  116   2.880   1.972   8.991 -0.8285 -2.8315 -2.1705
    1SAPS  H13Y  117   2.770   2.123   8.975 -0.4268 -0.1341 -0.7920
    1SAPS  C314  118   2.701   1.937   8.889  0.5941  0.2220  0.3813
    1SAPS  H14X  119   2.596   1.970   8.879 -0.1399 -1.5060  2.1521
    1SAPS  H14Y  120   2.703   1.829   8.916 -0.3196 -0.0931 -0.7783
    1SAPS  C315  121   2.766   1.950   8.745 -0.6975 -0.5738  0.1165
    1SAPS  H15X  122   2.868   1.909   8.755  0.0091  1.0533 -0.3079
    1SAPS  H15Y  123   2.765   2.057   8.715  1.5127 -1.1479 -2.0874
    1SAPS  C316  124   2.692   1.860   8.649 -0.1917 -0.3809  0.3299
    1SAPS  H16X  125   2.593   1.906   8.629 -0.6075 -0.9529  1.0906
    1SAPS  H16Y  126   2.683   1.758   8.692 -0.5595 -1.1793 -1.5864
    1SAPS  C317  127   2.778   1.839   8.520  0.1711 -0.3328  0.1861
    1SAPS  H17X  128   2.725   1.782   8.441  0.1412  3.6753 -2.8366
    1SAPS  H17Y  129   2.863   1.779   8.560  0.4039 -0.8621 -1.0725
    1SAPS  C318  130   2.823   1.967   8.448 -0.2903 -0.3787 -0.0065
    1SAPS  H18X  131   2.750   2.000   8.372  1.5082 -1.3272 -2.2031
    1SAPS  H18Y  132   2.910   1.934   8.388  1.2289  0.8667  1.4426
    1SAPS  H18Z  133   2.861   2.050   8.513  0.8655 -0.2104 -0.8735
    2SAPS     N  134   1.144   2.251  10.883 -0.7314 -0.0533  0.9367
    2SAPS   HN1  135   1.153   2.346  10.924  0.6868 -0.0420  0.6080
    2SAPS   HN2  136   1.238   2.218  10.853 -0.7397  1.6112 -0.9840
    2SAPS   HN3  137   1.084   2.241  10.798  0.8683 -2.1175  0.0041
    2SAPS   C12  138   1.097   2.152  10.986 -0.4032 -0.0053 -0.1308
    2SAPS  H12A  139   1.175   2.164  11.059  0.1553  1.6835 -0.9832
    2SAPS   C13  140   0.969   2.180  11.054 -0.6847  0.0271 -0.1400
    2SAPS  O13A  141   0.916   2.294  11.053 -0.2504  0.5083  0.1286
    2SAPS  O13B  142   0.946   2.111  11.155 -0.5577 -0.2366  0.1763
    2SAPS   C11  143   1.110   2.006  10.916 -0.3532 -0.7705 -0.4782
    2SAPS  H11A  144   1.067   1.940  10.994 -2.4432 -0.3098 -1.2033
    2SAPS  H11B  145   1.214   1.980  10.889 -0.0678 -1.4594  1.2578
    2SAPS     P  146   0.930   1.904  10.758  0.1300  0.4058  0.0168
    2SAPS   O13  147   0.891   1.830  10.881 -0.3272  0.1854  0.2980
    2SAPS   O14  148   0.826   1.985  10.689  0.1062 -0.2404  0.1137
    2SAPS   O12  149   1.041   2.010  10.795 -0.2513 -0.5185 -0.1084
    2SAPS   O11  150   1.003   1.812  10.655  0.5008  0.1708 -0.6246
    2SAPS    C1  151   1.111   1.868  10.573  0.0411 -0.4987 -0.1310
    2SAPS    HA  152   1.109   1.977  10.551  1.2406  0.0136  2.1623
    2SAPS    HB  153   1.205   1.839  10.624  1.7597  3.0659 -1.0956
    2SAPS    C2  154   1.100   1.792  10.434 -0.6322 -0.4526 -0.4329
    2SAPS    HS  155   1.200   1.804  10.386 -1.8428  1.5963 -2.5284
    2SAPS   O21  156   1.003   1.854  10.345 -0.1457  0.4715 -0.1958
    2SAPS   C21  157   1.039   1.967  10.290 -0.4811  0.0498 -0.4500
    2SAPS   O22  158   1.155   2.011  10.293 -0.3915  0.2030 -1.0277
    2SAPS   C22  159   0.911   2.034  10.224 -1.0059  0.4574 -0.0546
    2SAPS   H2R  160   0.839   2.079  10.296  0.3989  3.7164 -0.5703
    2SAPS   H2S  161   0.940   2.131  10.177  0.5830  1.3174  2.5625
    2SAPS    C3  162   1.079   1.637  10.459 -0.6393  0.0370  0.0830
    2SAPS    HX  163   0.982   1.612  10.507  0.2071 -1.6881  0.9872
    2SAPS    HY  164   1.141   1.612  10.548 -0.9309  1.5969  0.7266
    2SAPS   O31  165   1.116   1.544  10.353 -0.0775  0.5088 -0.1000
    2SAPS   C31  166   1.015   1.507  10.282 -0.0155  0.1722  0.5948
    2SAPS   O32  167   0.899   1.529  10.300 -0.2413  0.8000 -0.1367
    2SAPS   C32  168   1.069   1.432  10.160  0.3086  0.1338 -0.2510
    2SAPS   H2X  169   0.999   1.350  10.133 -1.2582  0.4998  2.5284
    2SAPS   H2Y  170   1.171   1.396  10.187 -0.0736 -0.5665  0.2555
    2SAPS   C23  171   0.826   1.955  10.124  0.4248 -0.2680 -0.2378
    2SAPS   H3R  172   0.731   2.003  10.095 -1.1980 -1.4840  2.9060
    2SAPS   H3S  173   0.795   1.857  10.167 -2.2196  1.3051  1.4880
    2SAPS   C24  174   0.907   1.926   9.983  0.3660  0.1627 -0.2059
    2SAPS   H4R  175   0.859   1.836   9.939 -2.5241  2.7625 -2.6465
    2SAPS   H4S  176   1.003   1.885  10.021  0.3099 -0.3846 -0.6318
    2SAPS   C25  177   0.930   2.043   9.888 -0.3057  0.3736  0.3534
    2SAPS   H5R  178   1.018   2.107   9.903  0.6987 -0.9809  0.3458
    2SAPS   C26  179   0.847   2.072   9.780 -0.2825  0.4686 -0.0785
    2SAPS   H6R  180   0.861   2.151   9.705  0.3472  1.2630  0.8640
    2SAPS   C27  181   0.734   1.972   9.748  0.1938  0.7916 -0.1257
    2SAPS   H7R  182   0.659   1.982   9.830 -1.4964 -0.9523 -1.4134
    2SAPS   H7S  183   0.772   1.868   9.754 -1.9838 -0.1590 -1.8768
    2SAPS   C28  184   0.676   2.003   9.608  0.4782  0.2711  0.2350
    2SAPS   H8R  185   0.578   2.052   9.609 -0.8640 -2.3464 -0.7588
    2SAPS   C29  186   0.720   1.964   9.489 -0.4058 -0.6206  0.4170
    2SAPS   H9R  187   0.681   2.014   9.399  0.8061  2.0818  1.3412
    2SAPS  C210  188   0.850   1.887   9.478  0.1142 -0.0600  0.0597
    2SAPS  H10R  189   0.830   1.805   9.407  0.8474  0.2111 -0.4669
    2SAPS  H10S  190   0.878   1.842   9.576  0.6497 -0.0960 -0.1066
    2SAPS  C211  191   0.964   1.977   9.426  0.1724 -0.2724  0.0471
    2SAPS  H11R  192   1.015   2.024   9.512 -1.8558 -0.7642  1.5421
    2SAPS  C212  193   1.000   1.999   9.302 -0.1207 -0.2911  0.1907
    2SAPS  H12R  194   1.081   2.068   9.275 -0.6490  0.2520 -0.0242
    2SAPS  C213  195   0.923   1.955   9.182  0.1015 -0.0319 -0.5990
    2SAPS  H13R  196   0.874   1.856   9.196  0.8670 -0.3870 -0.4163
    2SAPS  H13S  197   0.984   1.928   9.093  0.0035 -0.6567 -0.4832
    2SAPS  C214  198   0.817   2.055   9.134 -1.1109  0.4369  0.2355
    2SAPS  H14R  199   0.813   2.155   9.180  0.6544 -0.2249  1.9125
    2SAPS  C215  200   0.717   2.021   9.046 -0.5618  0.4542 -0.5383
    2SAPS  H15R  201   0.636   2.094   9.032 -1.2209 -0.5071 -1.8325
    2SAPS  C216  202   0.699   1.882   8.981  0.0882  0.0806  0.2802
    2SAPS  H16R  203   0.597   1.838   8.976  0.5046 -0.7336 -1.4276
    2SAPS  H16S  204   0.760   1.801   9.027 -2.1759 -1.0547  1.3415
    2SAPS  C217  205   0.742   1.893   8.831  0.1907 -0.0499  0.1386
    2SAPS  H17R  206   0.852   1.908   8.827 -0.0512  1.7575 -0.0989
    2SAPS  H17S  207   0.685   1.976   8.785  0.2602  0.5259  1.0805
    2SAPS  C218  208   0.716   1.767   8.752  0.5234  0.6187 -0.8178
    2SAPS  H18R  209   0.610   1.736   8.754  0.3647  1.1803  1.9270
    2SAPS  H18S  210   0.777   1.691   8.804  2.5070  3.3741  1.0643
    2SAPS  C219  211   0.751   1.766   8.607  0.0273  0.1859 -0.5083
    2SAPS  H19R  212   0.690   1.842   8.553  1.4014  0.8924 -1.0921
    2SAPS  H19S  213   0.725   1.664   8.573 -1.0235 -0.0411  0.9165
    2SAPS  C220  214   0.899   1.792   8.582 -0.4162 -0.4928 -0.3045
    2SAPS  H20R  215   0.907   1.777   8.472 -0.9285 -0.1520 -0.3887
    2SAPS  H20S  216   0.954   1.713   8.638 -1.9934 -1.2146  0.2399
    2SAPS  H20T  217   0.932   1.894   8.614 -0.6005 -0.9844  1.5053
    2SAPS   C33  218   1.092   1.535  10.043 -0.6716  0.2421  1.4607
    2SAPS   H3X  219   1.166   1.615  10.062 -1.4709  1.3930 -0.1580
    2SAPS   H3Y  220   0.997   1.587  10.017 -0.0161  0.7027 -0.0238
    2SAPS   C34  221   1.141   1.471   9.907 -0.3294  0.6656 -0.3182
    2SAPS   H4X  222   1.074   1.383   9.894  1.6620 -0.9968  0.3468
    2SAPS   H4Y  223   1.245   1.438   9.928  0.2368  1.4205 -1.9135
    2SAPS   C35  224   1.131   1.571   9.793 -0.2171 -0.0086  0.8249
    2SAPS   H5X  225   1.202   1.655   9.780 -2.0387  1.4636  0.1104
    2SAPS   H5Y  226   1.032   1.620   9.806  0.2074  0.7864  1.0640
    2SAPS   C36  227   1.137   1.492   9.660  0.2166  0.1973  0.1515
    2SAPS   H6X  228   1.042   1.437   9.647  0.8523 -0.7097 -0.7565
    2SAPS   H6Y  229   1.224   1.424   9.649  1.7037  2.1960 -0.8339
    2SAPS   C37  230   1.149   1.583   9.537  0.1436  0.7507 -0.4707
    2SAPS   H7X  231   1.239   1.645   9.558  0.9262 -1.3512  2.8592
    2SAPS   H7Y  232   1.059   1.647   9.523 -1.1990 -1.2656 -1.3015
    2SAPS   C38  233   1.186   1.518   9.406  0.4284 -0.4251  0.2430
    2SAPS   H8X  234   1.101   1.454   9.373  0.4480 -0.4721  0.2842
    2SAPS   H8Y  235   1.278   1.457   9.408  0.8656  0.2124 -0.2561
    2SAPS   C39  236   1.182   1.626   9.296  0.1077  0.2390  0.3058
    2SAPS   H9X  237   1.254   1.710   9.314  1.2904 -0.0851 -2.6235
    2SAPS   H9Y  238   1.089   1.686   9.307  0.9596  1.7386 -0.3550
    2SAPS  C310  239   1.208   1.558   9.157  0.2476 -0.7024 -0.0052
    2SAPS  H10X  240   1.139   1.471   9.152 -0.7606 -0.0630  1.8294
    2SAPS  H10Y  241   1.314   1.531   9.142 -0.3469 -2.0281 -1.8878
    2SAPS  C311  242   1.159   1.645   9.040 -0.3207 -0.1086  0.1304
    2SAPS  H11X  243   1.063   1.695   9.064 -0.3114  0.1404 -0.3459
    2SAPS  H11Y  244   1.116   1.579   8.963  0.6627 -1.9364  1.1207
    2SAPS  C312  245   1.260   1.739   8.978 -0.0711 -0.0788  0.1637
    2SAPS  H12X  246   1.341   1.673   8.940  1.7388  1.8532  0.5627
    2SAPS  H12Y  247   1.295   1.804   9.061 -0.3984 -0.0422  0.2727
    2SAPS  C313  248   1.207   1.816   8.860  0.3611  0.4378  1.0271
    2SAPS  H13X  249   1.108   1.859   8.888 -0.0616 -0.3829  0.8141
    2SAPS  H13Y  250   1.190   1.739   8.782  1.7180 -0.8552  1.9886
    2SAPS  C314  251   1.310   1.912   8.802 -0.4246 -0.0180 -0.8113
    2SAPS  H14X  252   1.414   1.873   8.797 -1.2498 -2.0350 -2.6612
    2SAPS  H14Y  253   1.324   2.002   8.866  2.7879  0.4787 -2.1006
    2SAPS  C315  254   1.263   1.949   8.659 -0.0357 -0.3606 -0.3889
    2SAPS  H15X  255   1.153   1.960   8.666  0.0586 -0.5849  1.6209
    2SAPS  H15Y  256   1.284   1.868   8.586  3.5883 -1.8789  2.2071
    2SAPS  C316  257   1.339   2.072   8.604 -0.1319  0.4876 -0.1294
    2SAPS  H16X  258   1.448   2.056   8.615 -0.0131  0.0406 -1.8132
    2SAPS  H16Y  259   1.320   2.154   8.677  1.5815  0.2591  0.5893
    2SAPS  C317  260   1.292   2.098   8.464 -0.7198 -0.3891  0.2260
    2SAPS  H17X  261   1.184   2.073   8.459 -0.6989 -0.0092 -3.7220
    2SAPS  H17Y  262   1.348   2.036   8.391  0.7269  1.4931 -0.2859
    2SAPS  C318  263   1.315   2.247   8.430 -0.4051  0.0630  0.4738
    2SAPS  H18X  264   1.421   2.270   8.454 -0.0630 -1.1321  0.1066
    2SAPS  H18Y  265   1.252   2.307   8.499  0.1246 -0.5398  1.4877
    2SAPS  H18Z  266   1.282   2.272   8.327  1.7255 -0.7870 -0.4433
    3SAPS     N  267   0.379   3.975  10.841 -0.0212  0.9121  0.1059
    3SAPS   HN1  268   0.454   3.966  10.769 -0.4157 -0.6163 -0.1180
    3SAPS   HN2  269   0.368   3.883  10.888  0.0106  0.6333 -0.4298
    3SAPS   HN3  270   0.287   3.987  10.794 -0.4779 -0.0887  0.7385
    3SAPS   C12  271   0.423   4.070  10.941 -0.4725  0.2048  0.6092
    3SAPS  H12A  272   0.470   4.150  10.886  0.2670 -0.4215  0.3190
    3SAPS   C13  273   0.320   4.147  11.023 -0.4602  0.1035  0.4804
    3SAPS  O13A  274   0.194   4.129  11.016  0.1563  0.0097 -0.0947
    3SAPS  O13B  275   0.374   4.233  11.095  0.2131  0.2936  0.0151
    3SAPS   C11  276   0.519   4.005  11.046  0.3814 -0.5298 -0.2962
    3SAPS  H11A  277   0.457   3.949  11.119  1.0522 -0.3563  0.4005
    3SAPS  H11B  278   0.572   4.084  11.102  1.9310 -0.1132 -2.2562
    3SAPS     P  279   0.767   3.917  10.992  0.5001  0.0969 -0.3445
    3SAPS   O13  280   0.805   4.059  10.966  0.3473  0.5657 -0.7579
    3SAPS   O14  281   0.812   3.855  11.122  0.0142  0.5396 -0.2110
    3SAPS   O12  282   0.609   3.908  10.981 -0.0734 -0.0923 -0.0128
    3SAPS   O11  283   0.822   3.813  10.883 -0.2602  1.0081  0.1512
    3SAPS    C1  284   0.765   3.678  10.875  0.0572  0.7425  0.3762
    3SAPS    HA  285   0.767   3.635  10.978  0.0582  2.6128  1.1776
    3SAPS    HB  286   0.657   3.691  10.853 -0.2301 -1.3177  0.4630
    3SAPS    C2  287   0.832   3.581  10.772  0.5864  0.1509  0.0976
    3SAPS    HS  288   0.943   3.583  10.776  0.6556 -1.0801 -0.8916
    3SAPS   O21  289   0.782   3.619  10.643 -0.9000 -0.3362 -0.4466
    3SAPS   C21  290   0.871   3.632  10.545 -1.1905  0.5877 -1.2191
    3SAPS   O22  291   0.993   3.626  10.566  0.5451  0.2501  0.4693
    3SAPS   C22  292   0.797   3.662  10.418 -0.2484 -0.3551  0.0497
    3SAPS   H2R  293   0.736   3.570  10.408 -0.1182 -0.5262  0.8690
    3SAPS   H2S  294   0.738   3.756  10.431 -0.7453 -0.5617 -0.6505
    3SAPS    C3  295   0.795   3.434  10.801 -0.0299  0.1125 -0.6455
    3SAPS    HX  296   0.685   3.429  10.812 -0.2528  0.8463 -2.4334
    3SAPS    HY  297   0.828   3.398  10.901 -3.2746  0.6704  0.6935
    3SAPS   O31  298   0.851   3.338  10.711  0.1902  0.2894  0.1332
    3SAPS   C31  299   0.766   3.301  10.617 -0.2457  0.1413 -0.4596
    3SAPS   O32  300   0.653   3.351  10.593 -0.0808  0.1516 -0.0951
    3SAPS   C32  301   0.814   3.176  10.546  0.2958 -0.0554 -0.2312
    3SAPS   H2X  302   0.745   3.156  10.462  2.1924  1.3930 -2.1949
    3SAPS   H2Y  303   0.818   3.096  10.623  0.1457  1.4567  1.3879
    3SAPS   C23  304   0.880   3.680  10.285  0.8534 -0.2580  0.1327
    3SAPS   H3R  305   0.836   3.612  10.209  3.0722 -0.2447 -1.2143
    3SAPS   H3S  306   0.980   3.632  10.296  0.5452 -0.8859  0.1890
    3SAPS   C24  307   0.909   3.822  10.247  0.0504 -0.2028 -0.3757
    3SAPS   H4R  308   0.988   3.820  10.169 -0.1132  1.6471 -0.6039
    3SAPS   H4S  309   0.956   3.872  10.335 -0.0827 -3.5873  1.7336
    3SAPS   C25  310   0.795   3.907  10.195  0.4450  0.4920 -0.0761
    3SAPS   H5R  311   0.731   3.943  10.277 -1.2530 -0.1480 -1.0865
    3SAPS   C26  312   0.765   3.952  10.071 -0.5857  0.1299  0.5346
    3SAPS   H6R  313   0.676   4.016  10.055  0.0303  0.6458 -0.9183
    3SAPS   C27  314   0.839   3.917   9.946 -0.4493  0.1322 -0.0687
    3SAPS   H7R  315   0.945   3.910   9.978 -0.6699  1.2518  0.9709
    3SAPS   H7S  316   0.831   4.005   9.879 -1.4609  2.9250  3.5427
    3SAPS   C28  317   0.796   3.791   9.873  0.3476 -0.1580 -0.3516
    3SAPS   H8R  318   0.759   3.711   9.938 -0.0754 -0.3759 -0.8605
    3SAPS   C29  319   0.791   3.774   9.737 -0.3901  0.0744 -0.4418
    3SAPS   H9R  320   0.772   3.674   9.695 -1.3846  0.3573 -0.6835
    3SAPS  C210  321   0.828   3.880   9.638 -0.3301 -0.5677 -0.1278
    3SAPS  H10R  322   0.893   3.961   9.678 -0.9626 -0.3168  0.4208
    3SAPS  H10S  323   0.735   3.933   9.608  0.4991  1.6129  1.0346
    3SAPS  C211  324   0.905   3.833   9.522 -0.2371 -0.3464  0.0418
    3SAPS  H11R  325   0.996   3.772   9.534  0.2972 -0.0320 -2.2293
    3SAPS  C212  326   0.886   3.869   9.393 -0.0965 -0.3765 -0.7104
    3SAPS  H12R  327   0.945   3.819   9.315 -1.3127  0.1943 -2.0191
    3SAPS  C213  328   0.776   3.961   9.345  0.3808  0.3210 -0.5837
    3SAPS  H13R  329   0.676   3.922   9.376  0.8339 -1.1005 -0.8460
    3SAPS  H13S  330   0.772   3.963   9.234 -1.9891  0.0201 -0.5304
    3SAPS  C214  331   0.786   4.105   9.391  0.3854  0.5034  0.7951
    3SAPS  H14R  332   0.831   4.114   9.491  3.0513  2.4815 -0.5198
    3SAPS  C215  333   0.755   4.218   9.334  0.5496 -0.2652  0.3148
    3SAPS  H15R  334   0.780   4.312   9.384  0.8198 -0.9630  1.4949
    3SAPS  C216  335   0.689   4.232   9.198 -0.0013 -0.8587 -0.6976
    3SAPS  H16R  336   0.617   4.316   9.199 -1.4226 -2.0544 -0.7560
    3SAPS  H16S  337   0.633   4.141   9.169 -1.4958 -0.1535 -0.0723
    3SAPS  C217  338   0.792   4.254   9.085 -0.0601  0.0928  0.4930
    3SAPS  H17R  339   0.879   4.187   9.104 -1.3076 -1.0906  2.1090
    3SAPS  H17S  340   0.814   4.363   9.080  1.0223 -0.0653  1.5997
    3SAPS  C218  341   0.742   4.213   8.944  0.0523 -0.0451  0.5476
    3SAPS  H18R  342   0.832   4.243   8.886 -0.1871  0.3436  0.3767
    3SAPS  H18S  343   0.662   4.279   8.906  0.1504 -0.4534 -0.3736
    3SAPS  C219  344   0.711   4.068   8.911 -0.1391  0.3685  0.3186
    3SAPS  H19R  345   0.627   4.026   8.969 -1.5476 -2.7438 -3.7010
    3SAPS  H19S  346   0.799   4.003   8.930 -0.6710 -1.0258 -1.7754
    3SAPS  C220  347   0.677   4.063   8.762 -0.8707  0.1052 -0.3536
    3SAPS  H20R  348   0.594   4.133   8.741  0.5684  2.2220  0.7954
    3SAPS  H20S  349   0.672   3.956   8.733  3.1672 -0.1256 -0.5351
    3SAPS  H20T  350   0.761   4.111   8.708 -0.0081  1.7444  2.3623
    3SAPS   C33  351   0.948   3.190  10.475 -0.1548 -0.3052 -0.5172
    3SAPS   H3X  352   0.984   3.094  10.431  0.8436 -0.1639 -0.0296
    3SAPS   H3Y  353   1.021   3.210  10.556 -2.2887 -1.8492  1.8711
    3SAPS   C34  354   0.936   3.299  10.369 -0.5538  0.3390 -0.2868
    3SAPS   H4X  355   1.028   3.360  10.365 -0.1323 -0.3225 -0.8322
    3SAPS   H4Y  356   0.859   3.376  10.388  0.2310  1.1007 -0.1596
    3SAPS   C35  357   0.926   3.243  10.230 -0.4091 -0.9695  0.0768
    3SAPS   H5X  358   0.824   3.203  10.215  0.0018 -2.5212  1.2614
    3SAPS   H5Y  359   1.003   3.162  10.227  3.8472  2.7392  2.2091
    3SAPS   C36  360   0.949   3.345  10.120  0.0545 -0.2416  0.5915
    3SAPS   H6X  361   1.036   3.409  10.146 -0.3855  1.5341 -2.1755
    3SAPS   H6Y  362   0.866   3.419  10.120 -1.8940 -2.3836  0.3979
    3SAPS   C37  363   0.966   3.275   9.978  0.5543 -0.0475 -0.1837
    3SAPS   H7X  364   0.873   3.215   9.967 -0.1685  1.0239 -0.0744
    3SAPS   H7Y  365   1.055   3.210   9.971  1.3697  1.2120 -1.8453
    3SAPS   C38  366   0.986   3.379   9.871 -0.3225 -0.0161 -0.6265
    3SAPS   H8X  367   1.092   3.408   9.887 -1.1323  2.4057  0.6307
    3SAPS   H8Y  368   0.916   3.465   9.879 -0.3299 -0.0938  0.1757
    3SAPS   C39  369   0.976   3.323   9.735  0.8707  0.7457 -0.1395
    3SAPS   H9X  370   0.875   3.284   9.710  0.9610 -0.2545  1.0337
    3SAPS   H9Y  371   1.049   3.239   9.728 -0.8858 -0.6585 -2.0442
    3SAPS  C310  372   1.008   3.433   9.633  0.2731  0.0653 -0.0658
    3SAPS  H10X  373   1.104   3.473   9.670  0.0032  0.4261  0.2512
    3SAPS  H10Y  374   0.948   3.526   9.643  1.5117  0.6235  2.8193
    3SAPS  C311  375   1.015   3.382   9.489  0.2707  0.2476  0.0786
    3SAPS  H11X  376   0.912   3.393   9.447  0.6863 -1.9894 -1.6531
    3SAPS  H11Y  377   1.041   3.274   9.488 -1.7331 -0.2522  0.1511
    3SAPS  C312  378   1.088   3.475   9.390  0.1616  0.1453  0.0779
    3SAPS  H12X  379   1.194   3.484   9.423 -0.4432  0.7577  1.9615
    3SAPS  H12Y  380   1.040   3.576   9.386 -1.6565 -0.7201 -0.5470
    3SAPS  C313  381   1.092   3.413   9.250 -0.7012 -0.7951  1.0100
    3SAPS  H13X  382   0.990   3.403   9.206 -0.9922  1.3113  1.1330
    3SAPS  H13Y  383   1.143   3.314   9.252 -1.2177 -1.0732  0.6310
    3SAPS  C314  384   1.177   3.488   9.144 -0.6105  0.0352 -0.3476
    3SAPS  H14X  385   1.197   3.410   9.068  0.5330 -0.6022  0.6108
    3SAPS  H14Y  386   1.275   3.519   9.186  0.2023 -0.2541 -1.9944
    3SAPS  C315  387   1.113   3.614   9.084 -0.0413 -0.4778 -0.0600
    3SAPS  H15X  388   1.068   3.675   9.165 -2.6107 -0.6140 -1.3575
    3SAPS  H15Y  389   1.034   3.566   9.023  0.5686 -1.9311  0.2542
    3SAPS  C316  390   1.222   3.687   8.999 -0.1579 -0.7802  0.1875
    3SAPS  H16X  391   1.232   3.630   8.904  0.7367 -1.7722  0.8625
    3SAPS  H16Y  392   1.325   3.682   9.040  0.4741 -1.9259 -1.5042
    3SAPS  C317  393   1.182   3.829   8.968 -0.5222  0.2840 -0.3008
    3SAPS  H17X  394   1.249   3.865   8.887  1.2391 -0.9323  0.6024
    3SAPS  H17Y  395   1.213   3.898   9.049 -2.3377  0.8431 -0.0504
    3SAPS  C318  396   1.045   3.862   8.911  0.7188  0.1562  0.4422
    3SAPS  H18X  397   1.026   3.971   8.907  1.9410  0.3479 -0.4758
    3SAPS  H18Y  398   0.977   3.818   8.987 -0.8598  0.0101 -1.0209
    3SAPS  H18Z  399   1.035   3.810   8.814  0.1364  0.5302  0.2997
    4SAPS     N  400   4.005   4.240  10.844  0.7445 -0.3134  0.7311
    4SAPS   HN1  401   3.992   4.183  10.759 -0.0594 -2.1516  2.0572
    4SAPS   HN2  402   4.061   4.327  10.835  0.6516 -0.4483 -1.2613
    4SAPS   HN3  403   4.060   4.183  10.910  0.7290  1.2004  2.0866
    4SAPS   C12  404   3.868   4.276  10.904 -0.0042  0.5968 -0.8679
    4SAPS  H12A  405   3.843   4.199  10.975  0.7642  0.9804 -0.1566
    4SAPS   C13  406   3.870   4.412  10.981 -0.7961  0.1505  0.3379
    4SAPS  O13A  407   3.981   4.465  11.013 -0.6146  0.1705 -0.2423
    4SAPS  O13B  408   3.763   4.450  11.037  0.1832 -0.4753 -0.0232
    4SAPS   C11  409   3.759   4.295  10.793  0.4483  0.6738 -0.4429
    4SAPS  H11A  410   3.786   4.382  10.730 -1.1166  0.4033 -1.5189
    4SAPS  H11B  411   3.663   4.323  10.843  1.6441  4.2413  0.0009
    4SAPS     P  412   3.629   4.150  10.605  0.0216  0.0325 -0.0636
    4SAPS   O13  413   3.653   4.033  10.523  0.2391 -0.0956  0.4525
    4SAPS   O14  414   3.495   4.161  10.669 -0.2657 -0.5976 -0.7779
    4SAPS   O12  415   3.745   4.172  10.720 -0.0114  0.1292  0.4566
    4SAPS   O11  416   3.667   4.282  10.517 -0.1896 -0.5802  0.2981
    4SAPS    C1  417   3.573   4.398  10.520 -0.4787 -0.0317  0.2581
    4SAPS    HA  418   3.541   4.425  10.623 -1.7168  0.8046 -0.3293
    4SAPS    HB  419   3.630   4.485  10.480  1.3687 -1.2147  0.2583
    4SAPS    C2  420   3.437   4.373  10.446  0.4750 -1.3982 -0.3762
    4SAPS    HS  421   3.405   4.275  10.487 -1.3737 -0.8614 -0.4848
    4SAPS   O21  422   3.469   4.367  10.304 -0.2832  0.0583  0.4863
    4SAPS   C21  423   3.425   4.268  10.227 -0.7012 -0.0961 -0.5327
    4SAPS   O22  424   3.355   4.175  10.269 -0.0866 -0.5501 -0.0017
    4SAPS   C22  425   3.477   4.281  10.091  1.1411  0.8345  0.2591
    4SAPS   H2R  426   3.438   4.367  10.031  0.0254 -1.1464 -1.9584
    4SAPS   H2S  427   3.588   4.288  10.084  1.4530 -1.8929  1.7202
    4SAPS    C3  428   3.342   4.487  10.466  0.3417  0.3801 -0.6917
    4SAPS    HX  429   3.397   4.584  10.465  2.0738 -0.5632  0.5753
    4SAPS    HY  430   3.291   4.481  10.565  0.2675 -0.2939 -0.7695
    4SAPS   O31  431   3.250   4.496  10.352 -0.2226  0.6710  0.1708
    4SAPS   C31  432   3.135   4.419  10.368  1.3030  0.7918  0.3520
    4SAPS   O32  433   3.116   4.344  10.460  0.2633  0.1986 -0.1150
    4SAPS   C32  434   3.050   4.433  10.241 -0.3354 -0.6890  0.3543
    4SAPS   H2X  435   3.025   4.538  10.215  1.5116 -0.4383 -0.4968
    4SAPS   H2Y  436   2.950   4.395  10.271 -1.0513 -0.1975 -1.3840
    4SAPS   C23  437   3.458   4.150  10.006 -0.4180  0.0384  0.1340
    4SAPS   H3R  438   3.349   4.127  10.007 -0.5652  0.2891 -3.4611
    4SAPS   H3S  439   3.504   4.067  10.063  0.5664  3.0664  3.9217
    4SAPS   C24  440   3.523   4.158   9.864 -0.5955  0.2452  0.6638
    4SAPS   H4R  441   3.630   4.179   9.885 -0.5633  0.3335  0.4092
    4SAPS   H4S  442   3.472   4.249   9.826 -0.9594 -1.2097 -2.4795
    4SAPS   C25  443   3.514   4.039   9.769 -0.4739 -0.0220  0.4014
    4SAPS   H5R  444   3.509   3.942   9.822 -2.6143 -0.7359 -1.0377
    4SAPS   C26  445   3.513   4.038   9.636 -0.3426 -0.0962  0.8144
    4SAPS   H6R  446   3.505   3.944   9.580  0.3819  1.6900 -2.4087
    4SAPS   C27  447   3.502   4.166   9.552  0.1761 -0.4328  0.1390
    4SAPS   H7R  448   3.600   4.191   9.508 -0.5320 -0.0287 -1.2486
    4SAPS   H7S  449   3.467   4.250   9.615 -3.1232 -0.0876 -1.9898
    4SAPS   C28  450   3.403   4.138   9.435  0.3487 -0.4631 -0.4395
    4SAPS   H8R  451   3.296   4.134   9.459  0.4749  0.2229  0.2427
    4SAPS   C29  452   3.448   4.118   9.307  0.1068 -0.2783 -0.0323
    4SAPS   H9R  453   3.363   4.102   9.239 -0.0615  0.8548 -0.1029
    4SAPS  C210  454   3.593   4.123   9.260  0.0836 -0.2736 -0.7217
    4SAPS  H10R  455   3.657   4.059   9.325  0.7143  0.6967 -0.3842
    4SAPS  H10S  456   3.636   4.223   9.279 -1.9189  0.3347  0.8058
    4SAPS  C211  457   3.610   4.089   9.110  0.0400  0.2229 -0.5738
    4SAPS  H11R  458   3.641   3.985   9.093 -2.0040 -0.4760 -0.0360
    4SAPS  C212  459   3.600   4.173   9.001 -0.4055 -0.3885 -0.3071
    4SAPS  H12R  460   3.619   4.132   8.901 -1.4906 -1.6994  0.0043
    4SAPS  C213  461   3.565   4.322   8.987 -0.2915 -0.1417 -0.3434
    4SAPS  H13R  462   3.607   4.381   9.072 -0.0386 -2.5196  1.2255
    4SAPS  H13S  463   3.457   4.333   9.012  0.4365  1.7882  2.1667
    4SAPS  C214  464   3.594   4.408   8.870 -0.8086 -0.4414  0.0171
    4SAPS  H14R  465   3.698   4.442   8.859 -1.2002  0.3654 -1.2625
    4SAPS  C215  466   3.510   4.448   8.777  0.3459  0.0904  0.3461
    4SAPS  H15R  467   3.545   4.512   8.695  0.2969 -3.2856 -2.4319
    4SAPS  C216  468   3.360   4.425   8.782  0.2912 -0.1726 -0.7166
    4SAPS  H16R  469   3.316   4.407   8.882 -0.3586 -0.2408 -1.0102
    4SAPS  H16S  470   3.337   4.328   8.732  0.2209 -0.7824  0.4957
    4SAPS  C217  471   3.279   4.522   8.698 -0.1236  0.1655 -0.8981
    4SAPS  H17R  472   3.188   4.464   8.669 -0.2917 -0.6650  1.2366
    4SAPS  H17S  473   3.326   4.551   8.601 -0.8081  1.6452 -0.8078
    4SAPS  C218  474   3.235   4.648   8.767 -0.5355 -0.2218  0.1830
    4SAPS  H18R  475   3.328   4.698   8.801 -0.1094 -1.7458  1.3117
    4SAPS  H18S  476   3.174   4.626   8.857  1.7332  1.8216  2.2901
    4SAPS  C219  477   3.163   4.746   8.675  0.1692 -0.9161 -0.1942
    4SAPS  H19R  478   3.082   4.691   8.621  0.3165 -1.7489  0.4066
    4SAPS  H19S  479   3.238   4.770   8.597 -1.0020 -0.5243 -1.2177
    4SAPS  C220  480   3.118   4.876   8.741  0.1058 -0.2471  0.5174
    4SAPS  H20R  481   3.190   4.923   8.812 -2.6484 -0.2641  3.4160
    4SAPS  H20S  482   3.031   4.855   8.806  0.6981  0.1081  1.4306
    4SAPS  H20T  483   3.088   4.955   8.669 -0.7541 -1.5671 -0.5977
    4SAPS   C33  484   3.110   4.356  10.129 -0.5350 -0.1979 -1.1686
    4SAPS   H3X  485   3.114   4.246  10.147  1.9021  0.2114  0.9997
    4SAPS   H3Y  486   3.207   4.398  10.096 -0.3279 -0.1001 -0.4420
    4SAPS   C34  487   3.035   4.375   9.998  0.4754 -0.3823 -0.0135
    4SAPS   H4X  488   2.998   4.479   9.982  0.9813 -0.6673 -3.3512
    4SAPS   H4Y  489   2.948   4.306  10.007  1.4854 -1.8206 -1.1122
    4SAPS   C35  490   3.125   4.338   9.882  0.2498  0.0434 -0.0428
    4SAPS   H5X  491   3.168   4.236   9.880 -1.4692 -0.6858 -0.1238
    4SAPS   H5Y  492   3.212   4.407   9.877 -1.2409  1.8392 -2.4975
    4SAPS   C36  493   3.060   4.373   9.744  0.3311 -0.5375 -0.4998
    4SAPS   H6X  494   3.005   4.470   9.750 -0.2061 -0.9737  2.6225
    4SAPS   H6Y  495   2.973   4.303   9.737  1.8350 -2.5518  0.5657
    4SAPS   C37  496   3.152   4.362   9.625 -0.0599  0.5312 -0.8538
    4SAPS   H7X  497   3.248   4.306   9.632  0.1139  0.5107 -3.1339
    4SAPS   H7Y  498   3.191   4.463   9.601  2.5046 -0.4447 -0.9640
    4SAPS   C38  499   3.070   4.310   9.508  0.5584 -0.2526  0.0754
    4SAPS   H8X  500   2.964   4.342   9.518  0.7156  0.8817 -1.6100
    4SAPS   H8Y  501   3.074   4.199   9.504 -3.4098 -0.5350  1.6117
    4SAPS   C39  502   3.126   4.353   9.371 -0.2102 -0.3326 -0.1559
    4SAPS   H9X  503   3.233   4.329   9.354  0.1122 -0.6390  2.1092
    4SAPS   H9Y  504   3.130   4.464   9.379 -1.1677 -0.0851 -2.6656
    4SAPS  C310  505   3.043   4.312   9.262  0.2739 -0.5807  0.8709
    4SAPS  H10X  506   2.942   4.358   9.275 -0.2812 -0.8986 -1.8828
    4SAPS  H10Y  507   3.016   4.205   9.279  0.8039 -0.8033  0.3040
    4SAPS  C311  508   3.107   4.331   9.124  0.3859  0.2431 -0.2375
    4SAPS  H11X  509   3.216   4.311   9.127  0.5212  0.4903 -2.8398
    4SAPS  H11Y  510   3.110   4.438   9.093 -3.2272  0.9330  1.5508
    4SAPS  C312  511   3.046   4.252   9.010 -0.2038  0.5029  0.4750
    4SAPS  H12X  512   3.019   4.156   9.060  0.9028 -0.2283 -0.3055
    4SAPS  H12Y  513   3.126   4.230   8.936  0.1851 -1.1397  1.3475
    4SAPS  C313  514   2.913   4.317   8.950 -0.0961  0.1288 -0.2210
    4SAPS  H13X  515   2.943   4.406   8.890 -0.0199  0.3575  0.1598
    4SAPS  H13Y  516   2.845   4.352   9.030  1.2118  0.7137  0.6453
    4SAPS  C314  517   2.835   4.224   8.862 -0.3640  0.1678  0.1094
    4SAPS  H14X  518   2.748   4.285   8.831  0.1587  0.6524 -0.4136
    4SAPS  H14Y  519   2.789   4.137   8.914 -0.8301  1.1381  1.3324
    4SAPS  C315  520   2.923   4.175   8.744  0.0470  0.2733  0.5214
    4SAPS  H15X  521   3.008   4.110   8.773 -2.1939 -2.6501  0.7539
    4SAPS  H15Y  522   2.973   4.270   8.716 -0.3132  0.2333 -0.2744
    4SAPS  C316  523   2.834   4.124   8.641  0.0589 -0.1233 -0.4581
    4SAPS  H16X  524   2.898   4.125   8.550  0.5916 -0.7540 -0.0993
    4SAPS  H16Y  525   2.755   4.190   8.601  0.3155  1.5301  1.6941
    4SAPS  C317  526   2.783   3.979   8.663 -0.0740 -0.2544 -0.4181
    4SAPS  H17X  527   2.712   3.983   8.748  1.6429  0.5843  1.0197
    4SAPS  H17Y  528   2.868   3.915   8.695 -0.0279 -2.2273 -4.1624
    4SAPS  C318  529   2.716   3.918   8.536  0.1265 -0.2407  0.7146
    4SAPS  H18X  530   2.792   3.907   8.456 -0.4259 -1.2741  0.3258
    4SAPS  H18Y  531   2.626   3.979   8.512 -1.0603 -1.8485  1.0107
    4SAPS  H18Z  532   2.694   3.813   8.564 -1.1319 -0.2393 -0.2030
    5SAPS     N  533   0.066   3.450  11.266  0.6999  0.6257  0.1568
    5SAPS   HN1  534  -0.023   3.443  11.213  1.2107 -1.1966 -0.5101
    5SAPS   HN2  535   0.064   3.438  11.369  1.0916  0.4431  0.1456
    5SAPS   HN3  536   0.105   3.545  11.244  0.0560  0.9644  0.4703
    5SAPS   C12  537   0.155   3.349  11.206 -0.3777 -0.6929 -1.0119
    5SAPS  H12A  538   0.252   3.359  11.254 -0.1509 -0.2646 -1.5455
    5SAPS   C13  539   0.098   3.211  11.212  0.4939  0.3170  0.2124
    5SAPS  O13A  540  -0.014   3.191  11.267  0.3821  0.3183  0.1817
    5SAPS  O13B  541   0.163   3.116  11.168 -0.3351 -0.6306 -0.3698
    5SAPS   C11  542   0.180   3.399  11.054 -0.2694 -0.1031  0.3093
    5SAPS  H11A  543   0.091   3.374  10.992  0.6170  0.4278 -1.2019
    5SAPS  H11B  544   0.271   3.345  11.019 -0.6308 -1.0801  0.8719
    5SAPS     P  545   0.311   3.602  10.950 -0.1226 -0.4195 -0.1178
    5SAPS   O13  546   0.291   3.748  10.948 -0.3201 -0.7255  0.0303
    5SAPS   O14  547   0.446   3.555  10.990 -0.1747  0.1470  0.1502
    5SAPS   O12  548   0.208   3.546  11.055 -0.2648  0.8568 -0.1462
    5SAPS   O11  549   0.273   3.532  10.817  0.4658  0.0602 -0.1227
    5SAPS    C1  550   0.373   3.517  10.716  0.8468 -0.2178  0.2933
    5SAPS    HA  551   0.469   3.573  10.729  0.6997  0.8033 -2.8241
    5SAPS    HB  552   0.396   3.410  10.697 -0.6018 -0.3419 -0.7830
    5SAPS    C2  553   0.321   3.586  10.585  0.2378  0.9226 -0.7644
    5SAPS    HS  554   0.311   3.694  10.610 -0.6462  0.8651 -0.8314
    5SAPS   O21  555   0.194   3.527  10.554  0.0171  0.1653  0.3579
    5SAPS   C21  556   0.099   3.606  10.495  0.1056 -0.5078 -0.4227
    5SAPS   O22  557   0.117   3.722  10.463 -0.1638 -1.1160 -0.1925
    5SAPS   C22  558  -0.036   3.528  10.475 -0.2266 -0.2108  0.6289
    5SAPS   H2R  559  -0.005   3.426  10.444 -1.4960 -0.4372  0.0668
    5SAPS   H2S  560  -0.090   3.527  10.572 -3.4391  1.1924 -1.0656
    5SAPS    C3  561   0.428   3.580  10.474  0.0741  0.4309  0.6907
    5SAPS    HX  562   0.451   3.472  10.468 -4.1670 -0.4954 -1.0000
    5SAPS    HY  563   0.521   3.625  10.514  1.5693 -0.1776 -2.0240
    5SAPS   O31  564   0.385   3.618  10.342 -0.1531  0.1716 -0.0022
    5SAPS   C31  565   0.405   3.747  10.313 -0.5653 -0.1474  0.0877
    5SAPS   O32  566   0.471   3.825  10.377  0.4098  0.6457 -0.8538
    5SAPS   C32  567   0.336   3.791  10.187  0.7739  0.1618  0.0237
    5SAPS   H2X  568   0.258   3.862  10.219 -0.2313 -0.2767 -1.3994
    5SAPS   H2Y  569   0.284   3.699  10.150  0.5798  0.3945 -0.2868
    5SAPS   C23  570  -0.124   3.601  10.374  0.2680  0.4736 -0.2489
    5SAPS   H3R  571  -0.158   3.695  10.422  2.5214  1.8323 -1.2571
    5SAPS   H3S  572  -0.223   3.550  10.372  2.2433 -3.5940  1.3143
    5SAPS   C24  573  -0.062   3.624  10.232 -0.1333  0.3805 -0.5499
    5SAPS   H4R  574   0.036   3.674  10.251 -0.6276  1.9078 -1.8976
    5SAPS   H4S  575  -0.131   3.694  10.179  0.0789  0.6620 -0.4605
    5SAPS   C25  576  -0.040   3.494  10.164 -0.1279 -0.3538 -0.2140
    5SAPS   H5R  577  -0.036   3.413  10.237  0.5660 -0.1104  0.0238
    5SAPS   C26  578  -0.042   3.476  10.032 -0.4384 -0.3433  0.6111
    5SAPS   H6R  579  -0.029   3.370  10.003  1.6110 -0.3823  1.6315
    5SAPS   C27  580  -0.042   3.583   9.919 -0.8590 -0.3154 -0.2514
    5SAPS   H7R  581  -0.078   3.681   9.959  0.3204 -0.6236  1.6668
    5SAPS   H7S  582  -0.120   3.557   9.845 -2.1977 -0.7708  1.2888
    5SAPS   C28  583   0.095   3.600   9.855  0.4599  0.0825  0.4282
    5SAPS   H8R  584   0.179   3.620   9.922  0.5863  0.1193  0.2582
    5SAPS   C29  585   0.125   3.568   9.725  0.0390  0.0085  0.4230
    5SAPS   H9R  586   0.229   3.577   9.690  0.4740 -1.0088  1.3980
    5SAPS  C210  587   0.021   3.519   9.627 -0.3799  0.1280  0.5347
    5SAPS  H10R  588  -0.025   3.604   9.572 -1.4285 -0.2366  0.8292
    5SAPS  H10S  589  -0.066   3.470   9.676 -2.5004  2.8312 -0.3993
    5SAPS  C211  590   0.086   3.424   9.541  0.4283  0.5922  0.0701
    5SAPS  H11R  591   0.119   3.331   9.590 -1.2965  1.4364  2.8825
    5SAPS  C212  592   0.117   3.444   9.411  0.1124 -0.9798  0.6423
    5SAPS  H12R  593   0.175   3.366   9.361  2.4419 -0.4153  2.3904
    5SAPS  C213  594   0.084   3.563   9.331 -0.0609 -0.1625  0.0302
    5SAPS  H13R  595   0.054   3.655   9.386 -1.6068  0.2706 -1.5043
    5SAPS  H13S  596   0.007   3.533   9.257 -0.2497 -0.2931  0.2817
    5SAPS  C214  597   0.203   3.614   9.246 -0.3170  0.7023  0.2635
    5SAPS  H14R  598   0.259   3.699   9.289 -1.2468  0.9799  0.9512
    5SAPS  C215  599   0.252   3.561   9.133 -0.0595  0.8284  0.3880
    5SAPS  H15R  600   0.349   3.593   9.094  1.7105 -4.4590  0.0310
    5SAPS  C216  601   0.194   3.434   9.061 -0.1720  0.2697 -1.1313
    5SAPS  H16R  602   0.099   3.464   9.013 -0.0235  1.4263 -0.7154
    5SAPS  H16S  603   0.169   3.351   9.130  0.0750  0.9406 -0.2347
    5SAPS  C217  604   0.277   3.371   8.945 -0.0027  0.7739 -0.5321
    5SAPS  H17R  605   0.300   3.451   8.872  1.6395 -0.7914 -1.7789
    5SAPS  H17S  606   0.222   3.294   8.885 -1.0221  1.2583 -0.2273
    5SAPS  C218  607   0.406   3.311   8.995 -0.1612 -0.2905 -0.3021
    5SAPS  H18R  608   0.476   3.376   9.051  1.3303 -0.7553 -1.5628
    5SAPS  H18S  609   0.380   3.222   9.057 -0.9087  0.6178  0.7042
    5SAPS  C219  610   0.500   3.259   8.878 -0.0650  0.0030 -0.2781
    5SAPS  H19R  611   0.548   3.346   8.830 -0.8837  0.2163 -0.7117
    5SAPS  H19S  612   0.444   3.208   8.797 -0.2057 -2.7390  1.4531
    5SAPS  C220  613   0.599   3.147   8.911  0.5863 -0.1457 -0.1272
    5SAPS  H20R  614   0.550   3.074   8.979 -3.4489  2.2234 -0.3640
    5SAPS  H20S  615   0.687   3.191   8.963 -0.4657 -0.5051  2.0311
    5SAPS  H20T  616   0.619   3.095   8.815  2.6901  0.2607  0.0533
    5SAPS   C33  617   0.419   3.842  10.070 -0.1869 -0.5686 -0.0312
    5SAPS   H3X  618   0.494   3.771  10.027 -0.4041 -0.6210 -0.3240
    5SAPS   H3Y  619   0.481   3.930  10.100 -0.8216  0.0697 -0.5721
    5SAPS   C34  620   0.335   3.882   9.943 -0.3583  0.4147  0.0287
    5SAPS   H4X  621   0.296   3.986   9.949 -0.4306  0.4529 -1.0412
    5SAPS   H4Y  622   0.251   3.812   9.926 -0.7390  1.0870 -0.8858
    5SAPS   C35  623   0.422   3.876   9.821 -0.2568 -0.3308  0.2326
    5SAPS   H5X  624   0.467   3.775   9.815  1.7835  0.7049 -3.7220
    5SAPS   H5Y  625   0.509   3.942   9.844  0.8640 -1.3712 -0.9114
    5SAPS   C36  626   0.352   3.916   9.689 -0.3474 -0.3132 -0.5648
    5SAPS   H6X  627   0.271   3.989   9.706 -1.3508 -1.9732  1.9177
    5SAPS   H6Y  628   0.313   3.824   9.640 -1.0077 -1.0194  1.2777
    5SAPS   C37  629   0.454   3.988   9.590 -0.1589 -0.1956 -0.2441
    5SAPS   H7X  630   0.536   3.920   9.559  3.2100  2.9285  1.4128
    5SAPS   H7Y  631   0.514   4.060   9.649 -1.7771 -1.0164  2.5149
    5SAPS   C38  632   0.395   4.068   9.467 -0.2571  0.5206 -0.3415
    5SAPS   H8X  633   0.476   4.138   9.438  0.4168 -0.3274 -0.5404
    5SAPS   H8Y  634   0.306   4.127   9.495 -1.4277 -0.7741 -1.2438
    5SAPS   C39  635   0.349   3.979   9.353  0.2138 -0.8544  0.2632
    5SAPS   H9X  636   0.251   3.927   9.365 -0.3838  0.0804 -0.4740
    5SAPS   H9Y  637   0.431   3.906   9.335 -0.6079 -1.2524 -2.0074
    5SAPS  C310  638   0.340   4.058   9.232  0.4099 -0.4991  0.9576
    5SAPS  H10X  639   0.423   4.130   9.219 -0.0986 -0.5878 -3.3039
    5SAPS  H10Y  640   0.256   4.126   9.259  1.3620  0.9865  0.1905
    5SAPS  C311  641   0.342   3.972   9.100 -0.7404  0.1868  0.5946
    5SAPS  H11X  642   0.261   3.897   9.108 -2.0756  1.3961 -1.2476
    5SAPS  H11Y  643   0.442   3.926   9.087 -1.4485 -1.2699  0.2099
    5SAPS  C312  644   0.320   4.047   8.972  0.1950  0.3657  0.1373
    5SAPS  H12X  645   0.303   3.975   8.890 -1.3043  0.4041  0.3948
    5SAPS  H12Y  646   0.397   4.117   8.936  1.0412 -0.9517 -0.6609
    5SAPS  C313  647   0.183   4.130   8.982  0.0372 -0.1164  0.3120
    5SAPS  H13X  648   0.190   4.207   9.062  0.4410 -1.0610  1.1968
    5SAPS  H13Y  649   0.105   4.059   9.017  0.4559 -2.4176 -3.2066
    5SAPS  C314  650   0.125   4.193   8.854  0.4457  0.0093  0.0005
    5SAPS  H14X  651   0.057   4.266   8.902 -1.6732 -1.2852 -0.9771
    5SAPS  H14Y  652   0.070   4.115   8.798  2.2376 -1.2888  0.0133
    5SAPS  C315  653   0.231   4.263   8.775 -0.0499  0.6549  0.2733
    5SAPS  H15X  654   0.267   4.187   8.702 -1.7613  0.6655 -0.5985
    5SAPS  H15Y  655   0.321   4.296   8.830 -0.5918 -0.7777  2.0430
    5SAPS  C316  656   0.187   4.384   8.710 -0.7649  0.2178 -0.3935
    5SAPS  H16X  657   0.131   4.450   8.780  0.0957 -0.1303  0.6361
    5SAPS  H16Y  658   0.110   4.349   8.637  0.8435 -2.0998 -1.0441
    5SAPS  C317  659   0.288   4.461   8.628 -0.0999 -0.2539  0.2478
    5SAPS  H17X  660   0.352   4.398   8.562  0.8609 -0.9019  1.7921
    5SAPS  H17Y  661   0.360   4.502   8.702 -0.7192  0.4109  0.4904
    5SAPS  C318  662   0.226   4.573   8.541 -0.1990  0.1654 -0.2508
    5SAPS  H18X  663   0.145   4.533   8.477  0.1846 -1.2774  0.1337
    5SAPS  H18Y  664   0.299   4.610   8.465 -0.6769  0.3682 -0.6097
    5SAPS  H18Z  665   0.186   4.658   8.600 -0.9659  0.1273 -0.7169
    6SAPS     N  666   0.356   3.084  10.973  0.4025  0.6675  0.3128
    6SAPS   HN1  667   0.446   3.134  10.989  1.9138 -1.5717 -0.8485
    6SAPS   HN2  668   0.312   3.144  10.900  1.3815  0.6170 -0.3351
    6SAPS   HN3  669   0.301   3.085  11.061 -1.1448 -1.2464 -0.5951
    6SAPS   C12  670   0.386   2.941  10.941 -0.3212 -0.6856 -0.4383
    6SAPS  H12A  671   0.451   2.941  10.855  1.3379 -3.8570  0.7142
    6SAPS   C13  672   0.462   2.868  11.048  0.5956 -0.1345  0.4977
    6SAPS  O13A  673   0.501   2.935  11.153  0.7524 -0.8342  0.2063
    6SAPS  O13B  674   0.478   2.746  11.050  0.3202  0.1984 -0.2062
    6SAPS   C11  675   0.256   2.861  10.908  0.4452  0.1641 -0.6472
    6SAPS  H11A  676   0.205   2.854  11.006  1.3709  0.8286 -0.1077
    6SAPS  H11B  677   0.281   2.760  10.870  1.6684 -0.1703  1.0127
    6SAPS     P  678   0.017   2.903  10.811  0.2400  0.2615  0.2293
    6SAPS   O13  679  -0.042   2.902  10.943 -0.0507  0.0221 -0.1592
    6SAPS   O14  680  -0.046   2.985  10.707 -0.3195 -0.2356  0.4159
    6SAPS   O12  681   0.176   2.936  10.814  0.5135 -0.0443  1.0440
    6SAPS   O11  682   0.021   2.746  10.770  0.1718 -0.0994 -0.2429
    6SAPS    C1  683   0.101   2.697  10.660 -0.7193 -0.0686 -0.4742
    6SAPS    HA  684   0.180   2.772  10.634  0.6095 -1.1645  0.3443
    6SAPS    HB  685   0.161   2.609  10.690  2.0483  2.1304  0.7491
    6SAPS    C2  686   0.019   2.663  10.537 -0.4133 -0.6373  0.0091
    6SAPS    HS  687   0.081   2.635  10.449 -0.2162  0.9560 -0.3855
    6SAPS   O21  688  -0.063   2.775  10.500  0.2784 -0.4416 -0.5151
    6SAPS   C21  689  -0.003   2.879  10.445 -0.8806 -0.7869 -0.2954
    6SAPS   O22  690   0.119   2.887  10.430  0.1952 -0.3699  0.7794
    6SAPS   C22  691  -0.101   2.976  10.382  0.1269  0.6783 -0.2598
    6SAPS   H2R  692  -0.157   2.906  10.317  0.5765 -0.8346  0.9548
    6SAPS   H2S  693  -0.170   3.017  10.460  1.0155  2.3004 -0.3173
    6SAPS    C3  694  -0.080   2.551  10.567  0.4706 -0.3290 -0.1322
    6SAPS    HX  695  -0.142   2.575  10.656 -1.1608  0.4259 -1.4382
    6SAPS    HY  696  -0.023   2.461  10.599 -0.9933 -0.5343  2.0195
    6SAPS   O31  697  -0.171   2.522  10.459 -0.0150  0.6165 -0.5066
    6SAPS   C31  698  -0.277   2.445  10.491 -0.9946 -0.0985 -0.5580
    6SAPS   O32  699  -0.298   2.396  10.600 -0.0702  0.1321  0.1383
    6SAPS   C32  700  -0.363   2.412  10.364  0.0749  0.4658  0.0435
    6SAPS   H2X  701  -0.407   2.506  10.323 -2.8781 -1.9672 -2.7222
    6SAPS   H2Y  702  -0.448   2.360  10.413 -1.4446  1.2615 -1.6717
    6SAPS   C23  703  -0.034   3.098  10.323 -0.0648  0.2631 -0.0569
    6SAPS   H3R  704   0.026   3.151  10.400  0.2461 -1.6698  1.0808
    6SAPS   H3S  705  -0.111   3.176  10.308  1.3066  1.4466 -1.0406
    6SAPS   C24  706   0.047   3.068  10.200  0.4801 -0.4046  0.5158
    6SAPS   H4R  707   0.141   3.012  10.216 -0.2016 -1.5326  0.6681
    6SAPS   H4S  708   0.073   3.168  10.159 -0.4763 -0.6722 -0.7805
    6SAPS   C25  709  -0.023   3.001  10.086 -0.4874  0.0359  0.6916
    6SAPS   H5R  710  -0.102   2.928  10.111  0.9420 -1.8750 -0.2876
    6SAPS   C26  711  -0.008   3.024   9.950 -0.2133  0.6746  0.5090
    6SAPS   H6R  712  -0.074   2.958   9.891 -0.9595  1.9492 -0.0946
    6SAPS   C27  713   0.090   3.115   9.878 -0.0819  0.6586 -0.2442
    6SAPS   H7R  714   0.172   3.152   9.943  2.7222 -0.2333 -3.1889
    6SAPS   H7S  715   0.039   3.205   9.839  1.8813  1.2218 -1.5586
    6SAPS   C28  716   0.131   3.030   9.761  0.2490 -0.0526 -0.2721
    6SAPS   H8R  717   0.221   2.970   9.779  1.1254  0.1936 -3.4381
    6SAPS   C29  718   0.063   3.021   9.640  0.2996  0.0926 -0.6747
    6SAPS   H9R  719   0.095   2.943   9.570 -0.6878 -0.8387 -0.1051
    6SAPS  C210  720  -0.066   3.086   9.598 -0.4278  0.4867  0.0062
    6SAPS  H10R  721  -0.063   3.117   9.491 -1.3270 -2.5863 -0.9900
    6SAPS  H10S  722  -0.083   3.180   9.654 -0.8939 -0.2272  1.0814
    6SAPS  C211  723  -0.176   2.979   9.628  0.2981 -0.9663 -0.0187
    6SAPS  H11R  724  -0.185   2.968   9.737  1.3657 -0.1106  0.1634
    6SAPS  C212  725  -0.252   2.908   9.541  0.3316  0.8736  0.0550
    6SAPS  H12R  726  -0.329   2.836   9.572  1.4497  0.3085  1.5391
    6SAPS  C213  727  -0.258   2.926   9.391  0.6285 -0.1073 -0.3822
    6SAPS  H13R  728  -0.191   2.848   9.349 -0.2924 -1.3751  0.4602
    6SAPS  H13S  729  -0.207   3.020   9.360  1.5676 -0.6361 -0.4263
    6SAPS  C214  730  -0.400   2.922   9.336 -0.0876  0.0641  0.5412
    6SAPS  H14R  731  -0.470   2.982   9.396 -0.3640 -2.1236  2.4387
    6SAPS  C215  732  -0.453   2.848   9.239  0.7172 -0.0930 -0.1878
    6SAPS  H15R  733  -0.560   2.853   9.214  1.0092 -2.4174 -2.1338
    6SAPS  C216  734  -0.367   2.760   9.152  0.6703  0.7113  0.1440
    6SAPS  H16R  735  -0.343   2.665   9.205  0.0739  0.3161 -0.2698
    6SAPS  H16S  736  -0.263   2.793   9.133  0.3070  1.4384 -0.6002
    6SAPS  C217  737  -0.438   2.707   9.017 -0.8084 -0.2414  0.4226
    6SAPS  H17R  738  -0.535   2.662   9.047 -1.4941  0.3174 -0.8883
    6SAPS  H17S  739  -0.373   2.626   8.977 -1.2122 -0.5552  0.4009
    6SAPS  C218  740  -0.451   2.807   8.905 -1.1438  0.1070  0.0413
    6SAPS  H18R  741  -0.348   2.825   8.868 -1.2142 -0.8746 -0.6378
    6SAPS  H18S  742  -0.481   2.905   8.948  0.2472  1.3552 -1.7450
    6SAPS  C219  743  -0.548   2.767   8.792 -0.5863  0.3093  0.2905
    6SAPS  H19R  744  -0.555   2.848   8.715 -1.1221  1.2679  1.3219
    6SAPS  H19S  745  -0.649   2.760   8.838 -0.9098 -2.0346 -0.7236
    6SAPS  C220  746  -0.521   2.635   8.729  0.1383  0.1396  0.6270
    6SAPS  H20R  747  -0.599   2.622   8.651 -0.8632 -0.7225  1.7493
    6SAPS  H20S  748  -0.533   2.553   8.804 -1.3709 -0.5714 -0.3792
    6SAPS  H20T  749  -0.422   2.642   8.678 -0.9679  2.6578 -1.2893
    6SAPS   C33  750  -0.283   2.330  10.263 -0.0355 -0.2591  0.0096
    6SAPS   H3X  751  -0.180   2.314  10.303  0.3611 -2.0227 -1.6274
    6SAPS   H3Y  752  -0.261   2.393  10.174 -0.8410  0.1529  0.0996
    6SAPS   C34  753  -0.340   2.187  10.253  0.3492  0.1843  0.1295
    6SAPS   H4X  754  -0.429   2.186  10.187 -0.5566  0.9194  1.3064
    6SAPS   H4Y  755  -0.371   2.141  10.350 -0.0680 -0.1584 -0.1654
    6SAPS   C35  756  -0.233   2.094  10.192  0.5094  0.3277 -0.3751
    6SAPS   H5X  757  -0.250   1.991  10.230  0.2623  0.0478 -1.2199
    6SAPS   H5Y  758  -0.133   2.133  10.219  0.4175  1.7603 -2.0527
    6SAPS   C36  759  -0.227   2.103  10.040 -0.7233  0.8893  0.3097
    6SAPS   H6X  760  -0.197   2.207  10.013 -0.4934 -0.1168 -3.6783
    6SAPS   H6Y  761  -0.331   2.086  10.003 -1.0593  0.4933  1.4067
    6SAPS   C37  762  -0.129   2.013   9.967 -0.2679 -0.1739  0.3852
    6SAPS   H7X  763  -0.171   1.912   9.983  0.5913 -0.6289 -0.1908
    6SAPS   H7Y  764  -0.026   2.003  10.007 -0.0694 -1.1529 -0.3511
    6SAPS   C38  765  -0.121   2.046   9.819  0.4817 -0.1946  0.3238
    6SAPS   H8X  766  -0.214   2.011   9.769  1.0283 -2.2986  0.7328
    6SAPS   H8Y  767  -0.038   1.981   9.784  0.7198 -0.5542  1.5260
    6SAPS   C39  768  -0.090   2.191   9.774  0.0754  0.3396 -0.8503
    6SAPS   H9X  769  -0.010   2.232   9.839 -0.2388  2.8322 -1.9698
    6SAPS   H9Y  770  -0.179   2.255   9.794  0.7783  0.5896  1.6614
    6SAPS  C310  771  -0.058   2.214   9.629 -0.3121 -0.8140 -0.4978
    6SAPS  H10X  772  -0.077   2.322   9.610  0.1544 -0.2342  2.1030
    6SAPS  H10Y  773  -0.142   2.178   9.567 -1.1821  0.3711 -0.0297
    6SAPS  C311  774   0.080   2.155   9.597 -0.4026 -0.3551 -0.3943
    6SAPS  H11X  775   0.070   2.047   9.572  0.3984 -0.6199  0.4127
    6SAPS  H11Y  776   0.147   2.159   9.685  0.7829  3.3272 -1.3620
    6SAPS  C312  777   0.141   2.225   9.474 -0.2972 -0.0426 -0.1567
    6SAPS  H12X  778   0.251   2.217   9.482 -0.4195 -0.3717  1.3710
    6SAPS  H12Y  779   0.132   2.335   9.488  2.7366 -0.0007  1.8305
    6SAPS  C313  780   0.091   2.197   9.331  0.0126  0.4540 -0.6084
    6SAPS  H13X  781   0.019   2.272   9.291 -0.1248 -0.6175 -2.4029
    6SAPS  H13Y  782   0.039   2.100   9.343 -2.7526  1.0731 -5.7280
    6SAPS  C314  783   0.207   2.175   9.232  0.0430  0.4901 -0.3716
    6SAPS  H14X  784   0.293   2.128   9.285  0.3003 -0.8468 -1.9128
    6SAPS  H14Y  785   0.235   2.274   9.191 -0.2344  0.8685  0.3478
    6SAPS  C315  786   0.157   2.069   9.135 -0.2254  0.4059  1.3080
    6SAPS  H15X  787   0.134   1.966   9.171  1.8482 -0.6062 -0.1127
    6SAPS  H15Y  788   0.234   2.048   9.057 -1.3358 -0.2281  0.3642
    6SAPS  C316  789   0.042   2.129   9.054 -0.1886  0.3523  0.2480
    6SAPS  H16X  790   0.077   2.230   9.023  1.3797 -0.1960  0.2200
    6SAPS  H16Y  791  -0.051   2.132   9.115  0.0009 -0.3676  0.5700
    6SAPS  C317  792   0.016   2.045   8.934 -0.0880 -0.1349  0.0433
    6SAPS  H17X  793  -0.003   1.944   8.976 -4.5065 -0.5127 -2.5346
    6SAPS  H17Y  794   0.100   2.044   8.861  0.6611 -3.5229  0.8521
    6SAPS  C318  795  -0.108   2.103   8.868  0.1657 -0.6430 -0.4948
    6SAPS  H18X  796  -0.131   2.070   8.765  1.6446  1.2072 -1.4538
    6SAPS  H18Y  797  -0.092   2.213   8.878  0.3565 -0.6541 -0.6845
    6SAPS  H18Z  798  -0.201   2.079   8.924  0.6720  0.4223  0.8318
    7SAPS     N  799   1.983   4.071  10.694  0.1766  0.1888 -0.7175
    7SAPS   HN1  800   2.028   3.978  10.687 -0.9749 -0.4777  0.4889
    7SAPS   HN2  801   1.883   4.066  10.665 -0.1098  0.1161  0.2547
    7SAPS   HN3  802   2.021   4.149  10.637  0.6551 -0.0608 -0.7345
    7SAPS   C12  803   1.994   4.126  10.831  0.4256  0.5053  0.1589
    7SAPS  H12A  804   1.928   4.073  10.898 -0.5460  0.8101 -0.5598
    7SAPS   C13  805   2.139   4.110  10.901  0.1973 -0.7040 -0.2322
    7SAPS  O13A  806   2.219   4.028  10.849  0.2114 -0.9963 -0.0583
    7SAPS  O13B  807   2.135   4.119  11.027 -0.9645 -0.3489  0.5073
    7SAPS   C11  808   1.956   4.277  10.846 -0.7103  0.2122  0.7274
    7SAPS  H11A  809   2.040   4.318  10.786 -0.7827  0.4196  0.7698
    7SAPS  H11B  810   1.979   4.303  10.952 -0.7683 -0.7127  0.9722
    7SAPS     P  811   1.785   4.448  10.735  0.1792 -0.0463  0.5324
    7SAPS   O13  812   1.663   4.431  10.653 -0.2451 -0.3301 -0.3895
    7SAPS   O14  813   1.773   4.528  10.859  0.3125 -0.3275  0.0460
    7SAPS   O12  814   1.824   4.304  10.795 -0.0704 -0.0920  0.1179
    7SAPS   O11  815   1.903   4.497  10.639  0.2676 -0.3690 -0.3274
    7SAPS    C1  816   1.947   4.636  10.631  0.7199 -0.1970  0.3714
    7SAPS    HA  817   1.921   4.699  10.719 -0.6541 -0.4826  0.1871
    7SAPS    HB  818   2.055   4.631  10.610  0.8893  0.7387  0.9417
    7SAPS    C2  819   1.901   4.713  10.504  0.1918 -0.1730 -0.0926
    7SAPS    HS  820   1.969   4.799  10.487  0.0148  0.2188  1.1028
    7SAPS   O21  821   1.760   4.745  10.534  0.2578 -0.0387  0.7462
    7SAPS   C21  822   1.726   4.863  10.487  0.3704  0.3188 -0.2119
    7SAPS   O22  823   1.796   4.958  10.453  0.2656  0.0244 -0.5799
    7SAPS   C22  824   1.575   4.883  10.497  0.9241  0.0942 -0.0587
    7SAPS   H2R  825   1.553   4.877  10.606 -0.2768 -0.8154 -0.3312
    7SAPS   H2S  826   1.551   4.985  10.460  0.7512 -0.3306 -1.1333
    7SAPS    C3  827   1.893   4.626  10.372 -0.1039 -0.3723 -0.2409
    7SAPS    HX  828   1.826   4.540  10.391  0.3945 -1.0585 -1.5762
    7SAPS    HY  829   1.993   4.582  10.355  0.6427  1.4395 -0.6545
    7SAPS   O31  830   1.858   4.718  10.265 -0.5689 -0.0369  0.0179
    7SAPS   C31  831   1.954   4.786  10.202  0.1322  0.1092 -0.6086
    7SAPS   O32  832   2.073   4.751  10.214  0.1818  0.3926 -0.3724
    7SAPS   C32  833   1.895   4.892  10.117 -0.2529  0.5178  0.1313
    7SAPS   H2X  834   1.981   4.960  10.099 -0.4773  0.4291 -1.2888
    7SAPS   H2Y  835   1.827   4.948  10.185 -2.7416  2.0010 -3.4606
    7SAPS   C23  836   1.500   4.763  10.435  0.0643 -0.4275 -0.8627
    7SAPS   H3R  837   1.393   4.750  10.463  1.1286 -1.8953  2.7425
    7SAPS   H3S  838   1.553   4.669  10.462 -1.0707 -0.1266  2.5806
    7SAPS   C24  839   1.498   4.774  10.280 -0.1682 -0.2125  0.0727
    7SAPS   H4R  840   1.597   4.798  10.236  0.6938 -1.1047  1.4693
    7SAPS   H4S  841   1.420   4.847  10.248  1.0411  1.1281  0.1010
    7SAPS   C25  842   1.461   4.639  10.222  0.0063 -0.0957 -0.7795
    7SAPS   H5R  843   1.526   4.559  10.260 -0.3045 -0.4992 -1.0948
    7SAPS   C26  844   1.356   4.616  10.137 -0.1129  0.3813 -0.3072
    7SAPS   H6R  845   1.337   4.514  10.102  1.2697  0.4812 -1.3741
    7SAPS   C27  846   1.266   4.724  10.080  0.0497 -0.7892  0.8455
    7SAPS   H7R  847   1.321   4.800  10.020 -4.5758  1.3228 -0.9590
    7SAPS   H7S  848   1.229   4.775  10.171 -0.3848  1.8004 -0.7529
    7SAPS   C28  849   1.146   4.671   9.999  0.2753  0.1576 -0.5237
    7SAPS   H8R  850   1.073   4.621  10.065  1.8730  0.2964  1.4034
    7SAPS   C29  851   1.126   4.680   9.866 -0.2180 -0.6142 -0.1262
    7SAPS   H9R  852   1.038   4.641   9.814  1.4296 -2.8418 -1.2960
    7SAPS  C210  853   1.224   4.754   9.777  0.4312  0.0680 -0.4635
    7SAPS  H10R  854   1.244   4.857   9.813  1.2746  0.3984 -1.8330
    7SAPS  H10S  855   1.159   4.771   9.688 -2.3085 -0.9269  1.2658
    7SAPS  C211  856   1.358   4.679   9.738  0.3495 -0.0057 -0.5174
    7SAPS  H11R  857   1.398   4.602   9.806  2.3014 -0.6886 -2.3727
    7SAPS  C212  858   1.436   4.711   9.627  0.3464  0.0690 -0.8616
    7SAPS  H12R  859   1.536   4.666   9.621  0.2685 -0.2995  0.4065
    7SAPS  C213  860   1.395   4.814   9.525 -0.3856 -0.2323 -0.5690
    7SAPS  H13R  861   1.329   4.894   9.567 -0.7227 -0.6598 -0.2763
    7SAPS  H13S  862   1.339   4.763   9.444  0.3761 -0.7788 -0.7503
    7SAPS  C214  863   1.515   4.867   9.453 -0.0885  0.1961  0.4618
    7SAPS  H14R  864   1.574   4.944   9.505 -0.3820  0.5370  0.2907
    7SAPS  C215  865   1.564   4.834   9.334 -0.0950 -0.1255 -0.0306
    7SAPS  H15R  866   1.659   4.879   9.302 -1.0205  1.0434 -1.2042
    7SAPS  C216  867   1.511   4.735   9.241  0.6467  0.2365  0.1622
    7SAPS  H16R  868   1.427   4.676   9.283 -1.1613  0.4529 -2.9586
    7SAPS  H16S  869   1.574   4.653   9.201  0.4810 -0.0656  0.5178
    7SAPS  C217  870   1.451   4.818   9.131 -0.5286  0.5700  0.8062
    7SAPS  H17R  871   1.517   4.897   9.089 -1.4803  0.0388 -1.7572
    7SAPS  H17S  872   1.359   4.871   9.164 -1.8810 -0.6141 -0.9762
    7SAPS  C218  873   1.408   4.734   9.004  0.3485 -0.2800  0.4909
    7SAPS  H18R  874   1.338   4.800   8.948  0.1035 -0.4407  0.6092
    7SAPS  H18S  875   1.342   4.653   9.040 -0.2347 -0.1635 -0.2967
    7SAPS  C219  876   1.525   4.686   8.919  0.1941  0.3523 -0.0308
    7SAPS  H19R  877   1.549   4.580   8.943  1.1741  1.0436  2.1581
    7SAPS  H19S  878   1.615   4.746   8.945 -0.4493  0.5677  1.7649
    7SAPS  C220  879   1.479   4.709   8.775  0.4013 -0.0009 -0.4068
    7SAPS  H20R  880   1.442   4.812   8.759 -1.1092 -0.5366 -0.4274
    7SAPS  H20S  881   1.390   4.647   8.754 -1.0574  2.1323 -0.6804
    7SAPS  H20T  882   1.558   4.673   8.706  2.4009  1.4450  1.0736
    7SAPS   C33  883   1.830   4.842   9.989  0.0331 -0.3776  0.6136
    7SAPS   H3X  884   1.781   4.924   9.933  2.3095 -0.5665 -1.7203
    7SAPS   H3Y  885   1.746   4.774  10.016 -2.0141  2.4888  1.7899
    7SAPS   C34  886   1.935   4.773   9.898 -0.1128  0.4705  0.6422
    7SAPS   H4X  887   1.983   4.688   9.952  1.3151  0.0796 -1.2128
    7SAPS   H4Y  888   2.021   4.841   9.883  0.3136 -0.4410 -1.1392
    7SAPS   C35  889   1.877   4.732   9.761 -0.1123 -0.1504 -0.2674
    7SAPS   H5X  890   1.839   4.821   9.708  3.2841  1.4267 -0.1216
    7SAPS   H5Y  891   1.802   4.651   9.778  0.9392 -1.4237 -1.5143
    7SAPS   C36  892   1.994   4.665   9.679  0.3313 -0.3238  0.1052
    7SAPS   H6X  893   2.032   4.572   9.726  0.2911 -1.5369 -2.1982
    7SAPS   H6Y  894   2.090   4.722   9.678 -0.0002  0.3709  2.9152
    7SAPS   C37  895   1.962   4.636   9.533 -0.0108  0.4856  0.2585
    7SAPS   H7X  896   1.871   4.572   9.533  0.2066  0.1782 -0.0832
    7SAPS   H7Y  897   2.036   4.570   9.484 -1.0970  0.7644 -1.8118
    7SAPS   C38  898   1.939   4.767   9.453  0.4233 -0.2078  0.1694
    7SAPS   H8X  899   2.021   4.835   9.484 -1.0547  1.4546  0.4898
    7SAPS   H8Y  900   1.838   4.810   9.473  0.4426  0.6274 -1.5034
    7SAPS   C39  901   1.941   4.725   9.305  0.1255 -0.2606 -0.3780
    7SAPS   H9X  902   1.862   4.650   9.284 -2.1928  1.7055  0.8831
    7SAPS   H9Y  903   2.038   4.688   9.268  1.4809  2.3876  0.4069
    7SAPS  C310  904   1.921   4.850   9.219  0.4187 -0.0849 -0.2221
    7SAPS  H10X  905   2.006   4.921   9.226 -1.2587  1.7534  2.6352
    7SAPS  H10Y  906   1.848   4.926   9.252  1.9323  2.4475 -2.5505
    7SAPS  C311  907   1.885   4.821   9.067 -1.4437  0.1945  0.1298
    7SAPS  H11X  908   1.787   4.769   9.062 -0.2456 -2.1165  0.3164
    7SAPS  H11Y  909   1.959   4.748   9.029 -0.6129  0.7960  0.5892
    7SAPS  C312  910   1.884   4.951   8.985  0.9334  0.4001 -0.1107
    7SAPS  H12X  911   1.981   5.004   8.999  0.6137  0.3040  2.6131
    7SAPS  H12Y  912   1.801   5.019   9.011 -0.2494  0.2107 -3.1624
    7SAPS  C313  913   1.865   4.923   8.836  0.1651  0.2990  0.2091
    7SAPS  H13X  914   1.761   4.885   8.821  0.0494  0.8413 -0.4249
    7SAPS  H13Y  915   1.935   4.839   8.814 -1.0314 -0.3883 -1.0300
    7SAPS  C314  916   1.878   5.044   8.745 -0.3543  0.0668 -0.0245
    7SAPS  H14X  917   1.977   5.089   8.768  0.9391 -1.4950 -2.3598
    7SAPS  H14Y  918   1.797   5.112   8.780  0.3909  0.4443  1.0162
    7SAPS  C315  919   1.867   5.017   8.598  1.0761  0.2169  0.3581
    7SAPS  H15X  920   1.962   4.974   8.559 -0.7964 -1.3630 -2.6232
    7SAPS  H15Y  921   1.846   5.112   8.546  2.4889  0.9526  1.0912
    7SAPS  C316  922   1.750   4.918   8.563  0.3413 -0.5739  0.0042
    7SAPS  H16X  923   1.659   4.956   8.615  0.2119 -0.5402 -0.2496
    7SAPS  H16Y  924   1.781   4.819   8.603 -0.6790 -1.3768 -1.1320
    7SAPS  C317  925   1.729   4.914   8.413  0.4305  0.1884  0.7420
    7SAPS  H17X  926   1.829   4.901   8.366 -1.1712 -1.4657 -2.3757
    7SAPS  H17Y  927   1.674   5.004   8.379  0.0452 -0.9447 -1.7889
    7SAPS  C318  928   1.656   4.792   8.361  0.1938  0.2765  0.2788
    7SAPS  H18X  929   1.710   4.698   8.387 -1.0480 -0.0750  1.6935
    7SAPS  H18Y  930   1.649   4.784   8.251 -0.3360  1.4816  0.2171
    7SAPS  H18Z  931   1.550   4.791   8.395 -0.6097  3.1057 -1.9937
    8SAPS     N  932   5.452   5.169  11.154 -0.1176  0.2626  0.1418
    8SAPS   HN1  933   5.484   5.084  11.204 -0.5885  1.9421  3.3797
    8SAPS   HN2  934   5.349   5.174  11.165 -0.5453 -2.1663 -2.1138
    8SAPS   HN3  935   5.481   5.170  11.054  0.7022  1.2728  0.3760
    8SAPS   C12  936   5.515   5.283  11.225  0.5585  0.0334  0.2321
    8SAPS  H12A  937   5.497   5.378  11.176 -1.1368  0.3239  1.3770
    8SAPS   C13  938   5.474   5.301  11.372  0.3392  0.5660 -0.3415
    8SAPS  O13A  939   5.375   5.234  11.416 -0.5521 -0.4305 -0.4325
    8SAPS  O13B  940   5.521   5.403  11.430  0.3541 -0.2015  0.1495
    8SAPS   C11  941   5.664   5.261  11.213 -0.4240 -0.7112  0.3504
    8SAPS  H11A  942   5.691   5.180  11.284  1.4670  0.0024  0.4991
    8SAPS  H11B  943   5.728   5.342  11.256  1.3879 -1.1111 -1.4538
    8SAPS     P  944   5.854   5.168  11.063  0.1841  0.3817  0.3886
    8SAPS   O13  945   5.947   5.262  11.132 -0.2091  0.2727  0.1088
    8SAPS   O14  946   5.847   5.032  11.121 -0.8180 -0.1061  0.0564
    8SAPS   O12  947   5.707   5.232  11.079 -0.4456 -0.3419 -0.0121
    8SAPS   O11  948   5.888   5.148  10.908  0.2218  0.1106 -0.2926
    8SAPS    C1  949   5.778   5.161  10.814  0.7293  0.5502 -0.6395
    8SAPS    HA  950   5.726   5.063  10.808  1.6169  0.0981 -0.9752
    8SAPS    HB  951   5.710   5.246  10.834  0.7274  0.1072  1.3585
    8SAPS    C2  952   5.820   5.199  10.667  0.2486  0.3391 -0.8661
    8SAPS    HS  953   5.727   5.202  10.607 -0.8483 -0.6192  0.7677
    8SAPS   O21  954   5.917   5.109  10.615  0.0192 -0.2482 -0.4099
    8SAPS   C21  955   5.866   4.995  10.564 -0.0382  0.1884 -0.1284
    8SAPS   O22  956   5.753   4.952  10.581 -0.1374  0.5276  0.2169
    8SAPS   C22  957   5.961   4.915  10.481 -0.7341 -0.2139 -0.0616
    8SAPS   H2R  958   6.057   4.971  10.471 -0.9060 -0.2379 -1.9670
    8SAPS   H2S  959   5.989   4.816  10.523 -1.7628 -1.5520 -2.4204
    8SAPS    C3  960   5.888   5.339  10.659  0.0656 -0.1232 -0.0367
    8SAPS    HX  961   5.974   5.337  10.730  0.9422 -1.2648 -1.1121
    8SAPS    HY  962   5.806   5.408  10.689 -0.6417 -1.2948  0.7757
    8SAPS   O31  963   5.918   5.369  10.525 -0.0885  0.3455 -0.3844
    8SAPS   C31  964   6.051   5.379  10.504  0.5467 -0.7423  0.4761
    8SAPS   O32  965   6.138   5.372  10.589 -0.1273 -0.1528  0.3409
    8SAPS   C32  966   6.073   5.389  10.353  0.2399  0.2425  0.2277
    8SAPS   H2X  967   6.089   5.497  10.335 -0.1156  0.4206  0.9678
    8SAPS   H2Y  968   5.978   5.362  10.301  0.2389  0.8506 -0.0958
    8SAPS   C23  969   5.896   4.899  10.344 -0.1043  0.0766 -0.4716
    8SAPS   H3R  970   5.874   4.995  10.293 -2.9870 -0.2988 -0.0630
    8SAPS   H3S  971   5.794   4.855  10.348 -0.2900  0.6172  1.1383
    8SAPS   C24  972   5.969   4.816  10.234  0.2586  0.6141  0.2084
    8SAPS   H4R  973   5.900   4.806  10.147  0.1333 -2.3300  0.5831
    8SAPS   H4S  974   5.982   4.718  10.286 -1.8984 -0.0834 -0.5245
    8SAPS   C25  975   6.095   4.882  10.186 -0.1416 -0.6084 -0.1995
    8SAPS   H5R  976   6.159   4.923  10.265  1.4739 -1.4472 -1.0387
    8SAPS   C26  977   6.140   4.911  10.061 -0.0051 -0.5187 -0.5585
    8SAPS   H6R  978   6.233   4.969  10.057 -0.0313 -0.4494 -0.2016
    8SAPS   C27  979   6.073   4.869   9.936 -0.0496  0.2267  0.3093
    8SAPS   H7R  980   5.991   4.941   9.918  1.1310  1.2191 -1.2104
    8SAPS   H7S  981   6.025   4.770   9.950 -0.1995  0.1735 -0.5502
    8SAPS   C28  982   6.162   4.866   9.813  0.0775  1.1741  0.5018
    8SAPS   H8R  983   6.194   4.962   9.771  1.1124  0.6138  0.0012
    8SAPS   C29  984   6.203   4.758   9.752  0.1042  0.1979 -0.2842
    8SAPS   H9R  985   6.260   4.768   9.658 -0.5987  0.1357 -0.7158
    8SAPS  C210  986   6.168   4.612   9.785 -0.4085 -0.7174 -0.6974
    8SAPS  H10R  987   6.091   4.577   9.713 -1.1257  1.9896 -1.3049
    8SAPS  H10S  988   6.138   4.604   9.891 -3.8688  2.4694 -1.3360
    8SAPS  C211  989   6.304   4.544   9.766 -0.8477  1.0967  0.6324
    8SAPS  H11R  990   6.386   4.579   9.831  0.6523 -1.1947  0.0537
    8SAPS  C212  991   6.335   4.431   9.695 -0.1952 -0.4640  0.0305
    8SAPS  H12R  992   6.439   4.397   9.703 -0.7829 -1.6822  3.4561
    8SAPS  C213  993   6.246   4.345   9.603 -0.4531 -0.3346  0.4674
    8SAPS  H13R  994   6.177   4.412   9.547 -1.0698  1.2459  3.0195
    8SAPS  H13S  995   6.180   4.284   9.667  1.7102 -1.4718  1.6600
    8SAPS  C214  996   6.327   4.264   9.509 -0.0649 -0.9314 -0.7138
    8SAPS  H14R  997   6.413   4.219   9.560 -0.3400 -0.8927 -0.2115
    8SAPS  C215  998   6.301   4.243   9.377 -0.0300 -0.1818 -0.5064
    8SAPS  H15R  999   6.372   4.188   9.314 -0.3964 -1.0489 -0.1593
    8SAPS  C216 1000   6.181   4.296   9.307 -0.7683 -0.4145  0.8697
    8SAPS  H16R 1001   6.159   4.401   9.336  2.4583  0.6182 -0.1382
    8SAPS  H16S 1002   6.089   4.245   9.341 -1.2457 -0.3015 -0.2360
    8SAPS  C217 1003   6.188   4.294   9.153 -0.3064 -0.1248 -0.0782
    8SAPS  H17R 1004   6.278   4.352   9.124 -0.0720 -0.5614 -0.2262
    8SAPS  H17S 1005   6.098   4.353   9.123  1.5404  2.0938 -1.3613
    8SAPS  C218 1006   6.199   4.156   9.085  0.0771 -0.5281  0.5917
    8SAPS  H18R 1007   6.126   4.087   9.132 -3.1226  0.9089 -2.0576
    8SAPS  H18S 1008   6.293   4.104   9.112 -0.6645 -2.5625 -0.6730
    8SAPS  C219 1009   6.179   4.153   8.933 -0.4796 -0.3155 -0.9080
    8SAPS  H19R 1010   6.251   4.222   8.883  0.2069 -0.5619 -0.2667
    8SAPS  H19S 1011   6.072   4.181   8.917 -0.8598 -1.4406 -0.4072
    8SAPS  C220 1012   6.201   4.014   8.878 -0.9305  0.2413 -0.2155
    8SAPS  H20R 1013   6.132   3.945   8.931 -1.3571  1.2395  0.5586
    8SAPS  H20S 1014   6.306   3.986   8.901 -1.0106  0.3149  0.2514
    8SAPS  H20T 1015   6.189   4.010   8.768  0.0778  1.2940 -0.3771
    8SAPS   C33 1016   6.199   5.328  10.285 -0.4599 -0.0463  0.3301
    8SAPS   H3X 1017   6.236   5.232  10.326 -1.2994 -0.2582  0.6087
    8SAPS   H3Y 1018   6.281   5.401  10.304  0.8486 -0.9459 -1.6946
    8SAPS   C34 1019   6.191   5.316  10.135 -0.1256  0.3690  0.4752
    8SAPS   H4X 1020   6.149   5.401  10.077  0.1174 -0.2341 -0.5893
    8SAPS   H4Y 1021   6.134   5.228  10.099  2.4612 -1.4456  0.6938
    8SAPS   C35 1022   6.323   5.299  10.059 -0.5559 -0.1736  0.4698
    8SAPS   H5X 1023   6.385   5.229  10.119 -0.9380  0.4933  1.6422
    8SAPS   H5Y 1024   6.376   5.397  10.067  0.4939 -0.9311  3.2481
    8SAPS   C36 1025   6.307   5.266   9.918  0.8004 -0.3086 -0.3765
    8SAPS   H6X 1026   6.248   5.343   9.863  1.3788  0.6495  0.3423
    8SAPS   H6Y 1027   6.260   5.165   9.910  0.5852 -0.2427  0.0173
    8SAPS   C37 1028   6.439   5.252   9.845  0.5894  0.7513 -0.9575
    8SAPS   H7X 1029   6.480   5.153   9.874 -2.1574 -0.2216 -0.2263
    8SAPS   H7Y 1030   6.505   5.330   9.889  0.9617  0.8322 -1.6506
    8SAPS   C38 1031   6.429   5.265   9.696 -0.2151 -0.4973  0.7821
    8SAPS   H8X 1032   6.533   5.266   9.656 -0.2854  0.0641  0.6113
    8SAPS   H8Y 1033   6.393   5.367   9.673  2.0922  0.4940  1.3878
    8SAPS   C39 1034   6.361   5.146   9.622 -0.2033  0.1400 -0.1513
    8SAPS   H9X 1035   6.256   5.145   9.658 -0.7527 -0.0062 -1.7200
    8SAPS   H9Y 1036   6.406   5.051   9.661 -0.6178  0.3049  0.7544
    8SAPS  C310 1037   6.345   5.161   9.471 -0.4069 -1.0056  0.2943
    8SAPS  H10X 1038   6.448   5.180   9.435 -1.0195  0.3964 -0.7640
    8SAPS  H10Y 1039   6.287   5.252   9.446  1.0605 -0.3913 -0.9591
    8SAPS  C311 1040   6.296   5.036   9.396  0.2941  0.0756  0.4285
    8SAPS  H11X 1041   6.186   5.031   9.381  0.4077 -0.0099 -0.4429
    8SAPS  H11Y 1042   6.326   4.945   9.452  0.8982  1.8072  2.9915
    8SAPS  C312 1043   6.362   5.023   9.250  0.6326 -0.7002  0.6648
    8SAPS  H12X 1044   6.472   5.036   9.257  1.2148 -3.6213 -2.0109
    8SAPS  H12Y 1045   6.326   5.109   9.189 -1.0034 -1.5886  0.3278
    8SAPS  C313 1046   6.336   4.893   9.185 -0.3382 -0.7702  1.3710
    8SAPS  H13X 1047   6.232   4.867   9.212  0.0035 -1.9339  1.5571
    8SAPS  H13Y 1048   6.395   4.809   9.227  0.7943 -0.6784  0.0337
    8SAPS  C314 1049   6.340   4.888   9.031 -0.2772 -0.8434  0.3525
    8SAPS  H14X 1050   6.314   4.784   9.006  1.3705 -0.7626 -1.8205
    8SAPS  H14Y 1051   6.437   4.904   8.979 -2.7294 -0.5940 -4.4438
    8SAPS  C315 1052   6.245   4.978   8.960  0.2652  0.3951 -0.1519
    8SAPS  H15X 1053   6.227   5.074   9.014 -1.9392  0.4204 -0.8835
    8SAPS  H15Y 1054   6.142   4.936   8.964 -0.9075  3.2505  0.8148
    8SAPS  C316 1055   6.292   5.013   8.822  0.6862  0.0942  0.4246
    8SAPS  H16X 1056   6.325   4.924   8.764 -0.3625  0.0611 -0.1299
    8SAPS  H16Y 1057   6.377   5.084   8.828  1.1645 -0.5287  1.1645
    8SAPS  C317 1058   6.178   5.080   8.745 -0.3248  0.2038  0.1987
    8SAPS  H17X 1059   6.088   5.015   8.755  1.8137 -2.8373  0.5721
    8SAPS  H17Y 1060   6.203   5.093   8.638 -0.9979  0.0950  0.0295
    8SAPS  C318 1061   6.142   5.216   8.803  0.5502  0.1293 -0.2920
    8SAPS  H18X 1062   6.059   5.266   8.748  1.1644  0.4493 -0.9307
    8SAPS  H18Y 1063   6.229   5.285   8.806 -0.1695  0.9893  2.1817
    8SAPS  H18Z 1064   6.110   5.208   8.910  0.8895 -1.0209 -0.2685
    9SAPS     N 1065   2.064   1.433   6.426  0.2686 -0.6291 -0.0246
    9SAPS   HN1 1066   2.087   1.368   6.504 -0.8866 -0.8893  0.1051
    9SAPS   HN2 1067   2.039   1.524   6.469 -2.5235  0.5891 -3.8893
    9SAPS   HN3 1068   1.984   1.399   6.368 -0.7075 -1.7371  1.9283
    9SAPS   C12 1069   2.179   1.462   6.335 -0.4837 -0.4267  0.5780
    9SAPS  H12A 1070   2.227   1.369   6.309  0.5549  0.0322  0.8418
    9SAPS   C13 1071   2.138   1.513   6.194 -0.3105 -0.4753 -0.6658
    9SAPS  O13A 1072   2.019   1.498   6.160  0.0951 -0.1067 -0.2001
    9SAPS  O13B 1073   2.229   1.556   6.118 -0.4050 -0.0811 -0.1609
    9SAPS   C11 1074   2.272   1.570   6.403  0.5251 -0.8085  0.4674
    9SAPS  H11A 1075   2.230   1.672   6.397  1.4267 -0.4881 -0.6833
    9SAPS  H11B 1076   2.363   1.571   6.338  0.6059 -0.9347  0.5792
    9SAPS     P 1077   2.441   1.541   6.603  0.1397 -0.3757 -0.1021
    9SAPS   O13 1078   2.492   1.402   6.625  0.3852 -0.4752 -0.3936
    9SAPS   O14 1079   2.523   1.629   6.518  0.0868 -0.0647 -0.2693
    9SAPS   O12 1080   2.300   1.530   6.536 -0.1787 -0.0990 -0.2366
    9SAPS   O11 1081   2.410   1.600   6.747  1.2755 -0.3268  0.1655
    9SAPS    C1 1082   2.350   1.731   6.776 -0.1722  0.4393 -0.3005
    9SAPS    HA 1083   2.273   1.748   6.698  0.3066  1.9400 -0.4504
    9SAPS    HB 1084   2.308   1.738   6.879 -1.0218 -2.3768 -0.3978
    9SAPS    C2 1085   2.453   1.848   6.749 -0.1074 -0.0705 -0.1065
    9SAPS    HS 1086   2.490   1.830   6.646 -1.1072 -3.3729  0.0531
    9SAPS   O21 1087   2.549   1.835   6.854 -0.5675 -0.9335 -0.2306
    9SAPS   C21 1088   2.667   1.870   6.820 -0.3003 -0.0065  0.1137
    9SAPS   O22 1089   2.703   1.907   6.709  0.5424 -0.8794 -0.3015
    9SAPS   C22 1090   2.756   1.869   6.949  0.0613 -0.2788  0.1094
    9SAPS   H2R 1091   2.708   1.905   7.042 -1.3357  1.1410 -1.1190
    9SAPS   H2S 1092   2.779   1.762   6.969  2.4133  0.1706  0.0153
    9SAPS    C3 1093   2.383   1.987   6.774  0.4664  0.4650 -0.6896
    9SAPS    HX 1094   2.309   1.974   6.856  1.1031  0.3271 -0.1307
    9SAPS    HY 1095   2.326   2.015   6.683  0.6722  0.8843 -0.6890
    9SAPS   O31 1096   2.479   2.079   6.816 -0.0793 -1.1044 -0.5967
    9SAPS   C31 1097   2.428   2.195   6.857 -0.1110 -0.1286  0.6257
    9SAPS   O32 1098   2.309   2.225   6.864  0.3585 -0.1234  0.0635
    9SAPS   C32 1099   2.541   2.286   6.901 -0.4064 -0.0359  0.1867
    9SAPS   H2X 1100   2.517   2.378   6.844  1.6505 -0.4039 -1.3261
    9SAPS   H2Y 1101   2.636   2.243   6.862 -0.3914  2.7959 -3.0667
    9SAPS   C23 1102   2.884   1.948   6.929 -0.3971 -0.0551 -0.6415
    9SAPS   H3R 1103   2.863   2.056   6.925 -0.8209 -0.1731 -1.8278
    9SAPS   H3S 1104   2.936   1.916   6.836  0.0750  0.1834 -0.4589
    9SAPS   C24 1105   2.989   1.944   7.045 -1.2162  0.2901 -0.2688
    9SAPS   H4R 1106   2.942   1.975   7.141 -2.3479 -0.9453 -0.4007
    9SAPS   H4S 1107   3.068   2.020   7.029  0.1984 -0.6687  1.9854
    9SAPS   C25 1108   3.043   1.804   7.048  0.4298  0.3718 -0.0781
    9SAPS   H5R 1109   3.088   1.778   6.951 -2.6596 -0.6142 -1.2979
    9SAPS   C26 1110   3.037   1.715   7.146 -0.5144 -0.5736 -0.5341
    9SAPS   H6R 1111   3.061   1.611   7.120  2.5294 -0.9020  3.0548
    9SAPS   C27 1112   2.977   1.743   7.287  0.5732 -0.0400 -0.3207
    9SAPS   H7R 1113   2.914   1.655   7.312 -0.5259  0.7173 -0.4129
    9SAPS   H7S 1114   2.906   1.828   7.285 -1.3669 -1.6232 -0.9425
    9SAPS   C28 1115   3.069   1.779   7.400  0.8538 -1.0934 -0.5923
    9SAPS   H8R 1116   3.164   1.829   7.377  0.0248  1.4145  1.1861
    9SAPS   C29 1117   3.048   1.761   7.531  0.0164 -0.1196  0.0103
    9SAPS   H9R 1118   3.137   1.780   7.593 -0.8076  2.8072  0.3696
    9SAPS  C210 1119   2.927   1.705   7.604 -0.1359 -0.2395  0.5706
    9SAPS  H10R 1120   2.962   1.607   7.644 -0.3181 -1.0353 -1.1777
    9SAPS  H10S 1121   2.842   1.689   7.535  0.1641  2.1025 -0.3940
    9SAPS  C211 1122   2.868   1.797   7.708 -0.1502  0.4142  0.1528
    9SAPS  H11R 1123   2.814   1.882   7.663 -3.1998 -2.0653 -1.0652
    9SAPS  C212 1124   2.882   1.788   7.842  0.0700 -0.4995 -0.1418
    9SAPS  H12R 1125   2.832   1.864   7.904  2.0010  0.1350  0.6625
    9SAPS  C213 1126   2.953   1.677   7.909  0.3584  0.2019  0.7379
    9SAPS  H13R 1127   2.998   1.604   7.839  2.1016  2.1543 -0.2079
    9SAPS  H13S 1128   2.875   1.618   7.964 -2.0907  2.0755 -0.6150
    9SAPS  C214 1129   3.062   1.719   8.006 -0.2298  0.4552 -0.7236
    9SAPS  H14R 1130   3.141   1.777   7.955 -1.4994  1.8038 -1.1982
    9SAPS  C215 1131   3.076   1.702   8.137 -0.2617  0.1721 -0.5903
    9SAPS  H15R 1132   3.165   1.741   8.188 -0.6109 -0.1623  0.2939
    9SAPS  C216 1133   2.995   1.614   8.225  0.1461 -0.5930 -0.0038
    9SAPS  H16R 1134   2.958   1.525   8.170 -0.1442  1.1280 -2.7198
    9SAPS  H16S 1135   2.910   1.670   8.269 -0.0583  1.0366 -2.3358
    9SAPS  C217 1136   3.089   1.578   8.344 -0.5301  0.6746 -0.4928
    9SAPS  H17R 1137   3.117   1.665   8.407 -0.2887  0.8899 -0.8896
    9SAPS  H17S 1138   3.176   1.521   8.303 -1.9071 -0.5345 -1.7963
    9SAPS  C218 1139   3.013   1.466   8.427 -1.0631 -0.9950 -0.2946
    9SAPS  H18R 1140   2.937   1.426   8.357 -0.7737  2.3515 -2.6812
    9SAPS  H18S 1141   2.963   1.515   8.514 -3.0190 -3.0610 -0.1998
    9SAPS  C219 1142   3.112   1.359   8.469 -0.4807  0.3048 -0.0310
    9SAPS  H19R 1143   3.188   1.402   8.536  0.7635 -0.3041 -1.0371
    9SAPS  H19S 1144   3.162   1.323   8.376  1.1141  3.3194 -0.3652
    9SAPS  C220 1145   3.033   1.249   8.545 -0.0931  0.4239 -0.4237
    9SAPS  H20R 1146   2.995   1.299   8.636 -0.3979  0.9144 -0.8173
    9SAPS  H20S 1147   3.094   1.165   8.584 -1.5651 -0.6919 -0.4715
    9SAPS  H20T 1148   2.954   1.198   8.485  0.9530 -0.3741 -1.1394
    9SAPS   C33 1149   2.534   2.314   7.051 -0.5420  0.5643 -0.5155
    9SAPS   H3X 1150   2.428   2.326   7.081 -0.2092  4.4338 -0.5655
    9SAPS   H3Y 1151   2.598   2.401   7.079 -0.5432  0.1018  0.9729
    9SAPS   C34 1152   2.600   2.192   7.128 -0.3877 -0.5479  0.5051
    9SAPS   H4X 1153   2.706   2.173   7.099 -1.0993 -0.7997 -2.0703
    9SAPS   H4Y 1154   2.539   2.102   7.103 -1.0224  0.1279 -0.4219
    9SAPS   C35 1155   2.599   2.208   7.285  0.6630 -0.2250  0.3866
    9SAPS   H5X 1156   2.496   2.218   7.324  0.2748 -0.2179 -0.6219
    9SAPS   H5Y 1157   2.650   2.304   7.307  1.9768 -1.2502  1.9615
    9SAPS   C36 1158   2.652   2.089   7.355 -0.4128 -0.1224 -0.5894
    9SAPS   H6X 1159   2.762   2.074   7.344 -0.3079  1.9562 -2.8458
    9SAPS   H6Y 1160   2.599   1.998   7.321 -0.5580 -0.7234  1.1824
    9SAPS   C37 1161   2.632   2.105   7.506  0.1430 -0.6079 -0.4179
    9SAPS   H7X 1162   2.669   2.207   7.531  0.1015 -0.1267 -2.2166
    9SAPS   H7Y 1163   2.683   2.017   7.549 -0.0611 -0.6674 -0.2954
    9SAPS   C38 1164   2.487   2.079   7.555 -0.1072 -0.4952  0.2174
    9SAPS   H8X 1165   2.449   1.977   7.536 -1.3782 -0.0521  0.3492
    9SAPS   H8Y 1166   2.418   2.144   7.496 -0.2576  0.1215  1.0727
    9SAPS   C39 1167   2.476   2.117   7.705 -0.4289  0.5138  0.3476
    9SAPS   H9X 1168   2.374   2.096   7.743 -1.3800 -0.3667 -2.5534
    9SAPS   H9Y 1169   2.482   2.228   7.716 -0.1400  0.2800  2.8861
    9SAPS  C310 1170   2.571   2.051   7.802  0.4341  0.4044 -0.1906
    9SAPS  H10X 1171   2.674   2.085   7.779  0.8762  2.0870  3.9401
    9SAPS  H10Y 1172   2.572   1.941   7.787 -1.5661  0.1411  1.4086
    9SAPS  C311 1173   2.575   2.078   7.945  0.4499  0.7697  0.1806
    9SAPS  H11X 1174   2.581   2.186   7.968  0.1912  1.0787 -1.1386
    9SAPS  H11Y 1175   2.672   2.039   7.982  0.6781  2.2117  1.1141
    9SAPS  C312 1176   2.467   1.999   8.026  0.1113  0.5151 -0.3790
    9SAPS  H12X 1177   2.464   1.896   7.986 -1.0583 -0.1940  1.4269
    9SAPS  H12Y 1178   2.367   2.038   7.995 -0.0731  0.6313  0.3350
    9SAPS  C313 1179   2.499   1.999   8.174 -0.4432 -0.0034  0.5570
    9SAPS  H13X 1180   2.525   2.104   8.201 -1.3469  0.1526  0.8204
    9SAPS  H13Y 1181   2.591   1.937   8.186 -0.9322 -0.7858  0.3266
    9SAPS  C314 1182   2.381   1.958   8.268 -0.6260  0.2802 -0.2308
    9SAPS  H14X 1183   2.408   1.889   8.350 -0.8290  3.1283  2.3236
    9SAPS  H14Y 1184   2.332   1.898   8.188  2.5866  0.1468 -2.1489
    9SAPS  C315 1185   2.286   2.075   8.309  0.0852 -0.3215 -0.5391
    9SAPS  H15X 1186   2.266   2.138   8.220  0.9837 -1.9117 -1.9020
    9SAPS  H15Y 1187   2.340   2.138   8.383 -1.6216  1.0951 -0.4835
    9SAPS  C316 1188   2.149   2.026   8.359 -0.3043  0.0395 -0.2166
    9SAPS  H16X 1189   2.129   1.934   8.300  3.1171 -0.5952 -0.5273
    9SAPS  H16Y 1190   2.060   2.089   8.339 -2.4211 -3.1031 -1.2058
    9SAPS  C317 1191   2.153   2.002   8.505  0.2292  0.3565  0.4924
    9SAPS  H17X 1192   2.240   1.941   8.539  0.8002  1.5637  1.2187
    9SAPS  H17Y 1193   2.067   1.934   8.521  0.7209  0.4723  4.0731
    9SAPS  C318 1194   2.132   2.125   8.593 -0.6010 -0.2260 -0.6500
    9SAPS  H18X 1195   2.212   2.200   8.576  0.7727 -1.6687 -0.6064
    9SAPS  H18Y 1196   2.119   2.103   8.701  0.0463 -1.6116 -0.8448
    9SAPS  H18Z 1197   2.039   2.178   8.561  0.5940  0.8845 -2.3605
   10SAPS     N 1198   3.081   0.815   6.081 -0.5694  0.0176  0.4552
   10SAPS   HN1 1199   3.098   0.914   6.107 -0.1529  0.4492 -1.3678
   10SAPS   HN2 1200   3.178   0.780   6.067 -0.0628  0.8952  1.6834
   10SAPS   HN3 1201   3.034   0.809   5.988 -0.2611 -0.0896  0.3059
   10SAPS   C12 1202   3.009   0.738   6.185  0.2590 -0.0015  0.2235
   10SAPS  H12A 1203   2.906   0.769   6.192  0.0305 -0.9115  0.9447
   10SAPS   C13 1204   2.994   0.589   6.160 -1.1810 -0.1204  0.3155
   10SAPS  O13A 1205   3.055   0.531   6.063 -0.1753 -0.3875 -0.2640
   10SAPS  O13B 1206   2.946   0.514   6.251 -0.2713  0.0482 -0.1032
   10SAPS   C11 1207   3.078   0.763   6.324  0.4097 -0.6592  0.3871
   10SAPS  H11A 1208   3.182   0.726   6.314  0.7901  1.0203 -2.4602
   10SAPS  H11B 1209   3.019   0.700   6.394  1.7724 -1.2768  0.9746
   10SAPS     P 1210   2.949   0.978   6.420  0.1355  0.2441 -0.2178
   10SAPS   O13 1211   2.993   1.114   6.450  0.1105  0.1558 -0.1574
   10SAPS   O14 1212   2.820   0.971   6.341  0.0922 -0.3830 -0.4786
   10SAPS   O12 1213   3.070   0.905   6.356  0.1454 -0.3588 -0.0797
   10SAPS   O11 1214   2.920   0.899   6.555  0.2936  0.0128  0.0167
   10SAPS    C1 1215   3.028   0.876   6.652  0.5442 -0.0686 -0.6159
   10SAPS    HA 1216   3.071   0.774   6.643  1.5324 -0.0246  2.7590
   10SAPS    HB 1217   3.115   0.942   6.631  0.5865  0.7076  1.8020
   10SAPS    C2 1218   2.986   0.914   6.795  0.7700 -0.2318  0.3110
   10SAPS    HS 1219   3.082   0.921   6.851  0.3081  1.4143  0.9456
   10SAPS   O21 1220   2.898   0.812   6.846  0.1462 -0.8531  0.1447
   10SAPS   C21 1221   2.974   0.701   6.888  0.0365 -0.5296 -0.3908
   10SAPS   O22 1222   3.094   0.709   6.902 -0.2116 -0.5498 -0.1385
   10SAPS   C22 1223   2.898   0.576   6.928  0.2906 -0.4368 -0.1418
   10SAPS   H2R 1224   2.902   0.504   6.843 -0.8425 -3.2091  2.0872
   10SAPS   H2S 1225   2.936   0.521   7.016  0.2722 -2.3429 -1.3081
   10SAPS    C3 1226   2.923   1.051   6.798  0.3834  0.2993  0.1334
   10SAPS    HX 1227   2.832   1.050   6.735  0.7251  0.8583 -0.3684
   10SAPS    HY 1228   2.987   1.128   6.750  1.2357 -0.1607  0.5227
   10SAPS   O31 1229   2.894   1.091   6.933 -0.4333  0.8163 -0.2099
   10SAPS   C31 1230   2.776   1.057   6.978  0.1852 -1.0132  0.5604
   10SAPS   O32 1231   2.679   1.031   6.904 -0.0341 -0.5796  0.0885
   10SAPS   C32 1232   2.779   1.063   7.136 -0.8662 -0.1788 -0.5833
   10SAPS   H2X 1233   2.713   1.148   7.164  0.0625  1.2301 -2.4914
   10SAPS   H2Y 1234   2.877   1.097   7.176  0.0345 -1.5314 -1.5616
   10SAPS   C23 1235   2.747   0.596   6.957 -1.1753 -0.3753 -0.0790
   10SAPS   H3R 1236   2.696   0.638   6.867 -0.1414 -1.2009 -1.0826
   10SAPS   H3S 1237   2.731   0.674   7.034  1.3905 -0.7685  0.8962
   10SAPS   C24 1238   2.677   0.468   6.993 -0.3240  0.2119 -1.1594
   10SAPS   H4R 1239   2.724   0.430   7.086 -0.0811  1.0257 -0.9429
   10SAPS   H4S 1240   2.685   0.396   6.909 -0.5139 -2.5755  1.1470
   10SAPS   C25 1241   2.534   0.501   7.034 -0.1227 -1.1122  0.4281
   10SAPS   H5R 1242   2.475   0.520   6.943 -1.7342  1.4710  1.9645
   10SAPS   C26 1243   2.480   0.519   7.152 -0.5133  0.1111 -0.8929
   10SAPS   H6R 1244   2.379   0.563   7.155  0.1750  1.5571  2.1315
   10SAPS   C27 1245   2.546   0.495   7.285  0.6822 -0.3434  0.3714
   10SAPS   H7R 1246   2.541   0.586   7.349 -0.9147 -0.8503  1.0078
   10SAPS   H7S 1247   2.651   0.461   7.276  0.0405 -2.0465 -1.0334
   10SAPS   C28 1248   2.474   0.381   7.353  0.0076 -0.2283 -0.0494
   10SAPS   H8R 1249   2.487   0.287   7.298 -1.1365 -1.7804  2.2649
   10SAPS   C29 1250   2.422   0.381   7.480 -0.0917  0.0767  0.1944
   10SAPS   H9R 1251   2.387   0.284   7.515  1.0595 -1.3975 -2.5609
   10SAPS  C210 1252   2.410   0.491   7.587 -0.1012 -0.4226  0.7905
   10SAPS  H10R 1253   2.450   0.586   7.547  1.8592 -1.6037 -0.1133
   10SAPS  H10S 1254   2.470   0.473   7.679 -1.5243 -0.6904  1.6892
   10SAPS  C211 1255   2.270   0.527   7.627  0.0681  0.1893 -0.4790
   10SAPS  H11R 1256   2.203   0.541   7.541  0.2552 -1.5663 -0.9474
   10SAPS  C212 1257   2.219   0.546   7.751 -0.5058 -0.3726 -0.4060
   10SAPS  H12R 1258   2.110   0.553   7.762 -0.5623 -2.2536  0.4693
   10SAPS  C213 1259   2.297   0.529   7.883  0.0624  0.1452 -0.1907
   10SAPS  H13R 1260   2.395   0.579   7.869  0.6239 -1.0197 -0.4379
   10SAPS  H13S 1261   2.306   0.419   7.893  0.8179 -0.1065 -3.0233
   10SAPS  C214 1262   2.224   0.585   8.002 -0.2682 -0.4131 -0.1451
   10SAPS  H14R 1263   2.142   0.655   7.981  0.2462  0.0018 -0.7906
   10SAPS  C215 1264   2.256   0.571   8.132  0.7505  0.3115 -0.1070
   10SAPS  H15R 1265   2.197   0.617   8.212 -0.9035  0.8296 -1.5885
   10SAPS  C216 1266   2.367   0.481   8.174  0.7579  0.3682  0.2177
   10SAPS  H16R 1267   2.429   0.533   8.249  0.3977 -0.8582  1.3839
   10SAPS  H16S 1268   2.433   0.458   8.087  0.1850  0.2315 -0.1796
   10SAPS  C217 1269   2.326   0.349   8.243  0.2391 -0.3004 -0.1092
   10SAPS  H17R 1270   2.417   0.285   8.253 -1.2756 -2.6773 -1.0507
   10SAPS  H17S 1271   2.266   0.275   8.185 -1.1216 -0.4910  1.5166
   10SAPS  C218 1272   2.246   0.360   8.368  0.7858 -0.3080  0.0277
   10SAPS  H18R 1273   2.210   0.260   8.400 -1.2604  1.0556  2.1340
   10SAPS  H18S 1274   2.153   0.417   8.349  2.6194  2.8085 -0.0821
   10SAPS  C219 1275   2.311   0.421   8.492 -0.0818 -0.0222  0.5671
   10SAPS  H19R 1276   2.333   0.528   8.473 -0.4328  0.1390  1.0524
   10SAPS  H19S 1277   2.410   0.371   8.499 -0.5408 -0.9044  0.8080
   10SAPS  C220 1278   2.230   0.403   8.623  0.0075  0.1984  0.3903
   10SAPS  H20R 1279   2.297   0.452   8.697  1.2241 -3.1898  1.6294
   10SAPS  H20S 1280   2.213   0.299   8.658  2.7690  0.4230  2.6201
   10SAPS  H20T 1281   2.133   0.458   8.623 -0.0513  0.1563 -2.3380
   10SAPS   C33 1282   2.743   0.934   7.210  0.2719  0.3892 -1.0106
   10SAPS   H3X 1283   2.690   0.861   7.145  3.7466 -1.7869 -1.5391
   10SAPS   H3Y 1284   2.674   0.956   7.294 -0.5194  1.2727 -1.8618
   10SAPS   C34 1285   2.863   0.871   7.272  0.5087  0.3026 -0.5224
   10SAPS   H4X 1286   2.900   0.954   7.336 -0.2649  0.0794  0.2281
   10SAPS   H4Y 1287   2.948   0.849   7.204  0.8135  0.3506 -0.1629
   10SAPS   C35 1288   2.833   0.748   7.353  1.2634  0.4342 -0.7915
   10SAPS   H5X 1289   2.925   0.693   7.379 -1.0745 -2.4705  1.8567
   10SAPS   H5Y 1290   2.771   0.678   7.293 -0.8747  0.0698  1.7092
   10SAPS   C36 1291   2.767   0.779   7.492  0.6696  0.0484 -0.2487
   10SAPS   H6X 1292   2.671   0.836   7.488  0.8778  0.3266 -1.4857
   10SAPS   H6Y 1293   2.841   0.827   7.560  1.1933 -1.5430  0.3193
   10SAPS   C37 1294   2.754   0.644   7.575 -0.1987  0.3514  0.2790
   10SAPS   H7X 1295   2.843   0.582   7.553 -0.4798  0.1946 -0.4389
   10SAPS   H7Y 1296   2.657   0.602   7.540  0.1861 -1.2869  1.1643
   10SAPS   C38 1297   2.757   0.675   7.724 -0.6233 -0.9244  0.2587
   10SAPS   H8X 1298   2.679   0.752   7.745 -1.7456 -2.4332  1.7948
   10SAPS   H8Y 1299   2.852   0.729   7.742 -0.6615 -1.5608  2.6454
   10SAPS   C39 1300   2.749   0.553   7.812 -1.0146  0.6057 -0.5910
   10SAPS   H9X 1301   2.826   0.480   7.778 -2.4498 -1.6461  0.8790
   10SAPS   H9Y 1302   2.650   0.506   7.828 -0.5039  0.3295  1.8968
   10SAPS  C310 1303   2.791   0.601   7.952 -0.5811 -0.9006  0.1058
   10SAPS  H10X 1304   2.713   0.673   7.984 -1.7610 -2.3819  0.6408
   10SAPS  H10Y 1305   2.891   0.649   7.947 -1.4309  0.9254  0.3647
   10SAPS  C311 1306   2.802   0.491   8.061  0.0283 -0.3469 -1.3138
   10SAPS  H11X 1307   2.897   0.434   8.055  0.4004 -0.4614  3.6398
   10SAPS  H11Y 1308   2.711   0.427   8.059 -0.2259 -0.0920  0.9602
   10SAPS  C312 1309   2.806   0.560   8.200  0.5238 -0.1728 -0.3308
   10SAPS  H12X 1310   2.741   0.649   8.188  2.6888  1.3707 -0.9063
   10SAPS  H12Y 1311   2.911   0.592   8.215  1.0818 -0.3581 -3.4382
   10SAPS  C313 1312   2.763   0.477   8.324  0.0507 -0.5431  0.4283
   10SAPS  H13X 1313   2.836   0.393   8.330  1.0787  0.3107  0.1057
   10SAPS  H13Y 1314   2.661   0.447   8.292 -0.0887 -0.1769  0.5353
   10SAPS  C314 1315   2.759   0.549   8.461  0.5728 -0.3485  0.0475
   10SAPS  H14X 1316   2.689   0.634   8.455  2.1231  0.8451 -1.9842
   10SAPS  H14Y 1317   2.860   0.597   8.465  0.2861  0.3375 -0.9774
   10SAPS  C315 1318   2.727   0.453   8.575  0.3566  0.2088  0.8678
   10SAPS  H15X 1319   2.646   0.390   8.531 -1.0629  1.9386  0.9152
   10SAPS  H15Y 1320   2.684   0.509   8.661 -0.7171  0.8369 -0.0568
   10SAPS  C316 1321   2.845   0.370   8.625 -0.1545  0.5985 -0.1548
   10SAPS  H16X 1322   2.887   0.305   8.546 -0.5203 -0.5724  0.6077
   10SAPS  H16Y 1323   2.800   0.300   8.699  1.4372 -2.5654 -2.0790
   10SAPS  C317 1324   2.949   0.441   8.700  0.2544 -0.1570  0.2549
   10SAPS  H17X 1325   2.894   0.473   8.791 -1.3094 -1.1920 -0.3178
   10SAPS  H17Y 1326   2.979   0.528   8.638  0.7727 -1.2284 -1.0340
   10SAPS  C318 1327   3.070   0.349   8.735 -0.2465 -0.2058  0.6483
   10SAPS  H18X 1328   3.106   0.284   8.652 -1.1324  0.0491  0.0579
   10SAPS  H18Y 1329   3.047   0.291   8.827 -1.9835 -1.0195 -0.2700
   10SAPS  H18Z 1330   3.155   0.414   8.763  0.1185  0.0531 -1.0384
   11SAPS     N 1331   4.650   4.153   5.956 -0.4124  0.0788  0.7609
   11SAPS   HN1 1332   4.630   4.251   5.986  0.2848  0.3672  0.2955
   11SAPS   HN2 1333   4.612   4.094   6.033  0.3740 -0.5248  0.6791
   11SAPS   HN3 1334   4.750   4.137   5.933 -1.2386 -0.2433 -2.9283
   11SAPS   C12 1335   4.573   4.143   5.827  0.3563  0.4679  0.8295
   11SAPS  H12A 1336   4.474   4.186   5.835 -1.2713 -2.6856 -1.3705
   11SAPS   C13 1337   4.650   4.207   5.711  0.2404  0.2181 -0.0711
   11SAPS  O13A 1338   4.765   4.255   5.728  0.5696  0.0231  0.2492
   11SAPS  O13B 1339   4.584   4.223   5.608  0.0714  0.0193 -0.1105
   11SAPS   C11 1340   4.565   3.991   5.796 -0.3980 -0.0647 -0.1399
   11SAPS  H11A 1341   4.671   3.958   5.800  0.8255  3.8901  2.7219
   11SAPS  H11B 1342   4.524   3.967   5.696  1.0633  2.9487 -1.5267
   11SAPS     P 1343   4.378   3.822   5.855 -0.4386  0.1105 -0.5163
   11SAPS   O13 1344   4.289   3.876   5.745 -0.2694 -0.7133 -0.3233
   11SAPS   O14 1345   4.465   3.710   5.821  0.0190  0.0419  0.0514
   11SAPS   O12 1346   4.485   3.929   5.896 -0.1413 -0.6663 -0.5616
   11SAPS   O11 1347   4.288   3.789   5.981  0.1454 -0.1051  0.1147
   11SAPS    C1 1348   4.357   3.756   6.104  0.4480  0.1332  0.5111
   11SAPS    HA 1349   4.463   3.790   6.104  0.0689  1.3739 -0.3054
   11SAPS    HB 1350   4.316   3.802   6.196  0.8136 -2.2133  1.8574
   11SAPS    C2 1351   4.351   3.604   6.133 -0.1284  0.4723  0.3199
   11SAPS    HS 1352   4.382   3.553   6.039 -0.7333  1.9141 -0.6837
   11SAPS   O21 1353   4.209   3.573   6.172 -0.2338 -0.1506 -0.6610
   11SAPS   C21 1354   4.179   3.444   6.209 -0.3916 -0.3981  0.0136
   11SAPS   O22 1355   4.247   3.346   6.186  0.5215 -0.0420 -0.7269
   11SAPS   C22 1356   4.033   3.445   6.257  1.2207 -0.4611 -0.2092
   11SAPS   H2R 1357   3.983   3.539   6.226  2.0363  0.6029  1.6089
   11SAPS   H2S 1358   3.976   3.360   6.214 -1.2535  1.4018 -0.7006
   11SAPS    C3 1359   4.454   3.558   6.243  0.0309 -0.2969 -0.1427
   11SAPS    HX 1360   4.551   3.570   6.191  0.0322 -0.5616 -0.2007
   11SAPS    HY 1361   4.441   3.451   6.270  1.4378 -0.3342  0.4204
   11SAPS   O31 1362   4.449   3.641   6.365 -0.7890 -0.5458 -0.2613
   11SAPS   C31 1363   4.390   3.581   6.471  0.1414  0.1603  0.0576
   11SAPS   O32 1364   4.349   3.464   6.473  0.4599 -0.0374 -0.3986
   11SAPS   C32 1365   4.393   3.676   6.590  0.0004  0.0248  0.3268
   11SAPS   H2X 1366   4.383   3.780   6.552 -0.8985  0.5221  1.8596
   11SAPS   H2Y 1367   4.496   3.654   6.624  0.1156 -1.3332 -0.8633
   11SAPS   C23 1368   4.019   3.446   6.409 -0.3201  0.8103  0.1167
   11SAPS   H3R 1369   4.089   3.514   6.463  1.9024 -1.4790  0.1811
   11SAPS   H3S 1370   4.036   3.341   6.440  2.0822  1.4053  0.9273
   11SAPS   C24 1371   3.879   3.494   6.459 -0.0748  0.3523 -0.0665
   11SAPS   H4R 1372   3.866   3.478   6.568  2.7410  2.5617  0.6665
   11SAPS   H4S 1373   3.797   3.429   6.421  0.1177  0.3697 -0.5144
   11SAPS   C25 1374   3.833   3.629   6.414  0.3463  0.0534  0.1493
   11SAPS   H5R 1375   3.831   3.651   6.306 -1.5619  0.0923  0.1797
   11SAPS   C26 1376   3.808   3.731   6.494  0.7178  0.0285  0.1281
   11SAPS   H6R 1377   3.789   3.829   6.447  0.8582  0.2976  0.6222
   11SAPS   C27 1378   3.808   3.722   6.644 -0.0550  0.0283 -0.3049
   11SAPS   H7R 1379   3.913   3.721   6.679 -0.4219 -1.5037  0.7795
   11SAPS   H7S 1380   3.757   3.630   6.678 -0.4724 -0.1248 -1.3337
   11SAPS   C28 1381   3.735   3.842   6.707  0.3804 -0.1756  0.2302
   11SAPS   H8R 1382   3.685   3.918   6.645  0.5434 -1.0773 -1.0077
   11SAPS   C29 1383   3.732   3.867   6.838  0.2191 -0.2955 -0.4122
   11SAPS   H9R 1384   3.666   3.949   6.872 -0.5076 -1.3804  0.8110
   11SAPS  C210 1385   3.797   3.782   6.942 -0.4220  0.0977 -0.0167
   11SAPS  H10R 1386   3.866   3.852   6.994  0.3148 -2.0776  2.0003
   11SAPS  H10S 1387   3.864   3.702   6.904  0.2586 -0.1886  1.7455
   11SAPS  C211 1388   3.704   3.720   7.036  0.0360  1.0958 -0.1413
   11SAPS  H11R 1389   3.638   3.648   6.986  0.3605 -0.0845  1.1062
   11SAPS  C212 1390   3.698   3.744   7.167  0.2980  0.8096 -0.3083
   11SAPS  H12R 1391   3.623   3.693   7.229  0.2195  2.3951  0.9533
   11SAPS  C213 1392   3.797   3.828   7.247 -0.0937  0.7701  0.2966
   11SAPS  H13R 1393   3.746   3.885   7.327  1.1693  0.3939  1.3954
   11SAPS  H13S 1394   3.849   3.904   7.184  3.2436 -1.3271  0.3998
   11SAPS  C214 1395   3.910   3.744   7.309 -0.3944  0.1192  0.5295
   11SAPS  H14R 1396   3.965   3.682   7.237  1.5989  0.5478  1.6627
   11SAPS  C215 1397   3.962   3.755   7.436  0.7337  0.2348 -0.3334
   11SAPS  H15R 1398   4.056   3.704   7.464  0.2356  0.3483  1.6535
   11SAPS  C216 1399   3.909   3.853   7.540  0.2561  0.3510 -0.3422
   11SAPS  H16R 1400   3.843   3.929   7.491  0.6548  1.0631  0.2235
   11SAPS  H16S 1401   3.990   3.903   7.597  1.8367 -1.4451 -0.9549
   11SAPS  C217 1402   3.829   3.778   7.641 -0.6430  0.3163 -0.5088
   11SAPS  H17R 1403   3.731   3.747   7.600 -1.5121 -1.5944  2.8283
   11SAPS  H17S 1404   3.809   3.847   7.726 -0.6779 -0.4646  0.1222
   11SAPS  C218 1405   3.904   3.661   7.712  0.3331  0.4280 -0.1604
   11SAPS  H18R 1406   4.004   3.692   7.748 -0.1029  0.0789  1.3724
   11SAPS  H18S 1407   3.913   3.577   7.640  0.0732 -0.4031  0.7731
   11SAPS  C219 1408   3.851   3.588   7.840 -0.6303  0.6079 -0.1457
   11SAPS  H19R 1409   3.862   3.653   7.930 -1.2786  0.8199 -0.2156
   11SAPS  H19S 1410   3.911   3.495   7.852  0.7610  1.5880  0.5897
   11SAPS  C220 1411   3.706   3.551   7.834 -0.2798 -0.5719  1.0139
   11SAPS  H20R 1412   3.682   3.494   7.742  3.9095 -2.3410  0.9157
   11SAPS  H20S 1413   3.632   3.633   7.830  0.4189  0.0464  0.7790
   11SAPS  H20T 1414   3.676   3.486   7.920 -1.3604 -0.5101  0.6933
   11SAPS   C33 1415   4.290   3.642   6.700  0.0913 -0.0160 -0.2405
   11SAPS   H3X 1416   4.297   3.536   6.733 -1.6074  0.5307  2.0495
   11SAPS   H3Y 1417   4.185   3.651   6.664 -0.2233  1.1800  0.9042
   11SAPS   C34 1418   4.294   3.732   6.825 -0.0317 -0.0867 -1.3322
   11SAPS   H4X 1419   4.190   3.725   6.865  0.7350  0.5240  0.8404
   11SAPS   H4Y 1420   4.306   3.838   6.791  0.0089  1.1189  2.2303
   11SAPS   C35 1421   4.409   3.695   6.927 -0.6114 -0.6204 -0.3859
   11SAPS   H5X 1422   4.509   3.726   6.892 -0.3264 -0.8751  0.1881
   11SAPS   H5Y 1423   4.410   3.584   6.939 -0.2441 -0.3864  2.0235
   11SAPS   C36 1424   4.373   3.751   7.068  0.2384 -0.0858 -0.0401
   11SAPS   H6X 1425   4.268   3.729   7.094 -0.8287  1.4117 -2.9700
   11SAPS   H6Y 1426   4.357   3.861   7.065  1.6455  0.1630  0.7502
   11SAPS   C37 1427   4.465   3.727   7.181  0.7783  0.0195 -0.2791
   11SAPS   H7X 1428   4.558   3.784   7.162 -1.1706  2.7672 -1.9545
   11SAPS   H7Y 1429   4.488   3.618   7.184  0.6555 -0.0644 -1.7700
   11SAPS   C38 1430   4.419   3.790   7.316  0.6101 -0.6844  0.5528
   11SAPS   H8X 1431   4.313   3.766   7.338 -0.0929  0.2301 -1.7536
   11SAPS   H8Y 1432   4.421   3.898   7.291 -0.7007 -0.9773 -0.8999
   11SAPS   C39 1433   4.512   3.742   7.431  0.2466  0.3997  0.0501
   11SAPS   H9X 1434   4.622   3.749   7.415 -0.0657 -0.2193 -2.6528
   11SAPS   H9Y 1435   4.503   3.634   7.453  1.6285  0.4749  1.1250
   11SAPS  C310 1436   4.475   3.806   7.559  0.5383 -0.3505 -0.0870
   11SAPS  H10X 1437   4.477   3.916   7.547 -2.5418 -0.5244 -2.7958
   11SAPS  H10Y 1438   4.563   3.801   7.626  0.3170 -0.7952  0.1775
   11SAPS  C311 1439   4.347   3.765   7.625  0.6068 -0.0499 -0.8522
   11SAPS  H11X 1440   4.344   3.654   7.613 -1.4593 -0.0363 -0.6330
   11SAPS  H11Y 1441   4.255   3.799   7.573 -1.1660 -0.6099  1.7858
   11SAPS  C312 1442   4.324   3.803   7.774 -0.1350 -0.3283 -0.1886
   11SAPS  H12X 1443   4.226   3.768   7.814  0.5869 -1.3475  0.7046
   11SAPS  H12Y 1444   4.333   3.913   7.790  1.2571 -0.5429  0.6224
   11SAPS  C313 1445   4.429   3.734   7.870 -0.3229  0.0703  0.1904
   11SAPS  H13X 1446   4.527   3.775   7.839  0.2258 -0.7826  0.7598
   11SAPS  H13Y 1447   4.430   3.627   7.839  0.1451  0.3108 -0.6312
   11SAPS  C314 1448   4.401   3.759   8.025  0.4970 -0.3827  1.1380
   11SAPS  H14X 1449   4.359   3.861   8.042  2.0985  0.8404 -1.9242
   11SAPS  H14Y 1450   4.503   3.753   8.069  0.5482 -0.7272  0.9785
   11SAPS  C315 1451   4.314   3.644   8.091  0.3267 -0.4135  0.5261
   11SAPS  H15X 1452   4.320   3.561   8.017  0.5149  0.5129 -0.5154
   11SAPS  H15Y 1453   4.205   3.667   8.091  0.1692 -1.1180 -0.3143
   11SAPS  C316 1454   4.361   3.584   8.224 -0.6838  0.2485 -0.3230
   11SAPS  H16X 1455   4.470   3.562   8.219 -0.4582  1.1182  0.7269
   11SAPS  H16Y 1456   4.323   3.479   8.225  0.2706 -0.0961  2.2590
   11SAPS  C317 1457   4.318   3.660   8.354 -0.3160 -0.0608  0.2257
   11SAPS  H17X 1458   4.211   3.683   8.333 -0.0408  2.0606  1.0153
   11SAPS  H17Y 1459   4.374   3.755   8.359 -1.9137  1.0090 -1.5923
   11SAPS  C318 1460   4.341   3.567   8.478  0.4192  0.1995  0.0731
   11SAPS  H18X 1461   4.280   3.595   8.566 -0.3887 -2.3692  0.3571
   11SAPS  H18Y 1462   4.449   3.567   8.505  0.5100 -2.0979 -0.2370
   11SAPS  H18Z 1463   4.305   3.465   8.456 -1.3424  0.7174  0.4931
   12SAPS     N 1464   3.747   4.647   5.978 -0.8164 -0.3875 -0.6831
   12SAPS   HN1 1465   3.690   4.573   6.024 -1.9457  0.6379 -0.4169
   12SAPS   HN2 1466   3.809   4.614   5.901 -0.4087  1.4620 -1.1641
   12SAPS   HN3 1467   3.806   4.684   6.055 -0.7134  0.3256 -1.1010
   12SAPS   C12 1468   3.649   4.745   5.925 -0.0625 -0.2324  0.1503
   12SAPS  H12A 1469   3.701   4.826   5.876 -0.6879  0.1622  0.1406
   12SAPS   C13 1470   3.564   4.682   5.812 -0.5240  0.8927  0.0934
   12SAPS  O13A 1471   3.610   4.576   5.755  0.3158 -0.8009  0.3052
   12SAPS  O13B 1472   3.458   4.740   5.777  0.6011  0.3447 -0.1204
   12SAPS   C11 1473   3.549   4.796   6.040 -0.3209  0.5242 -0.1174
   12SAPS  H11A 1474   3.511   4.709   6.097 -0.4161 -0.1532 -1.1975
   12SAPS  H11B 1475   3.463   4.851   5.997 -3.2871 -2.8941  1.2312
   12SAPS     P 1476   3.544   4.954   6.246 -0.5239 -0.3942  0.3002
   12SAPS   O13 1477   3.629   5.005   6.355  0.4722 -0.1033  0.7164
   12SAPS   O14 1478   3.478   5.057   6.170  0.4195  0.2290 -0.2378
   12SAPS   O12 1479   3.622   4.864   6.143 -0.1538 -0.1749 -0.4165
   12SAPS   O11 1480   3.423   4.867   6.305  0.1193  0.5661  0.0528
   12SAPS    C1 1481   3.437   4.750   6.387  0.6873 -0.5832  0.0934
   12SAPS    HA 1482   3.369   4.669   6.353 -0.4103  1.2147 -2.0991
   12SAPS    HB 1483   3.541   4.712   6.384  0.4660 -1.3072  1.1164
   12SAPS    C2 1484   3.405   4.794   6.529 -0.6523 -0.2534 -0.4778
   12SAPS    HS 1485   3.470   4.880   6.554  0.0162 -0.6204 -0.9353
   12SAPS   O21 1486   3.437   4.690   6.623  0.1882  0.2673  0.2682
   12SAPS   C21 1487   3.557   4.669   6.643 -0.2814 -0.2151 -0.4086
   12SAPS   O22 1488   3.654   4.742   6.612  0.6509  0.2049 -0.2274
   12SAPS   C22 1489   3.569   4.552   6.743 -0.1524  0.1868  0.7014
   12SAPS   H2R 1490   3.593   4.597   6.842  2.2630 -1.0996  0.7606
   12SAPS   H2S 1491   3.477   4.490   6.737 -0.2584  0.5256 -1.6501
   12SAPS    C3 1492   3.255   4.835   6.548 -0.4720  0.1653 -0.4798
   12SAPS    HX 1493   3.200   4.743   6.516  1.7051 -0.7083 -1.8188
   12SAPS    HY 1494   3.221   4.909   6.472 -1.0420 -0.3955 -0.7836
   12SAPS   O31 1495   3.221   4.860   6.682 -0.6266 -0.0311  0.1368
   12SAPS   C31 1496   3.220   4.988   6.715  0.1339 -0.6668  0.2871
   12SAPS   O32 1497   3.267   5.077   6.644  0.0880 -0.1200 -0.6473
   12SAPS   C32 1498   3.165   5.008   6.858  0.3567 -0.5920 -0.5595
   12SAPS   H2X 1499   3.072   4.948   6.855 -0.6193  0.8564  0.2414
   12SAPS   H2Y 1500   3.133   5.115   6.858  2.1216 -0.0196  2.2922
   12SAPS   C23 1501   3.688   4.462   6.709  0.1991  0.3594 -0.8025
   12SAPS   H3R 1502   3.786   4.514   6.701 -0.2490  1.0838 -1.5318
   12SAPS   H3S 1503   3.668   4.416   6.610  3.5320 -2.6440 -0.2230
   12SAPS   C24 1504   3.710   4.338   6.803  0.1095  0.5493 -0.3018
   12SAPS   H4R 1505   3.752   4.379   6.897  1.2176 -1.5600  0.1412
   12SAPS   H4S 1506   3.786   4.268   6.764  0.2416  0.0717  0.7847
   12SAPS   C25 1507   3.590   4.254   6.836  0.0641 -0.0479 -0.1639
   12SAPS   H5R 1508   3.522   4.232   6.753 -0.1597 -1.7967  0.4490
   12SAPS   C26 1509   3.556   4.209   6.962  0.8242  0.2762  0.0491
   12SAPS   H6R 1510   3.463   4.153   6.976 -0.0323  1.8817  0.8744
   12SAPS   C27 1511   3.637   4.216   7.088  0.2493  0.7357 -0.0713
   12SAPS   H7R 1512   3.713   4.297   7.081  0.1628  0.8409  0.1997
   12SAPS   H7S 1513   3.694   4.121   7.097 -0.6272  0.1150 -0.9690
   12SAPS   C28 1514   3.542   4.234   7.204 -0.1652  0.3392 -0.1299
   12SAPS   H8R 1515   3.456   4.165   7.197  0.0901 -0.4104  3.0994
   12SAPS   C29 1516   3.553   4.312   7.311 -0.0224  0.5155  0.9846
   12SAPS   H9R 1517   3.484   4.310   7.396  0.0549  0.4383  1.0455
   12SAPS  C210 1518   3.671   4.405   7.338 -0.8344  0.2549  0.1814
   12SAPS  H10R 1519   3.716   4.435   7.241 -1.3389 -0.6644 -0.3431
   12SAPS  H10S 1520   3.745   4.338   7.387 -1.3282  0.8339  1.7729
   12SAPS  C211 1521   3.635   4.527   7.414  0.1358 -0.3490  0.4857
   12SAPS  H11R 1522   3.656   4.621   7.360  0.2339 -0.5790  0.1185
   12SAPS  C212 1523   3.597   4.526   7.546 -0.1204  0.4716 -0.2263
   12SAPS  H12R 1524   3.592   4.620   7.603  1.9454  1.0194 -0.8831
   12SAPS  C213 1525   3.578   4.405   7.636  0.0388  0.1703  0.0659
   12SAPS  H13R 1526   3.641   4.322   7.597  0.3219 -0.1126  1.1105
   12SAPS  H13S 1527   3.471   4.376   7.628  0.4706 -0.8434 -2.9604
   12SAPS  C214 1528   3.604   4.434   7.782  0.5812 -0.2045 -0.5345
   12SAPS  H14R 1529   3.528   4.497   7.830  0.9757  0.2078 -0.4455
   12SAPS  C215 1530   3.698   4.374   7.854  0.2837 -0.1422 -0.6106
   12SAPS  H15R 1531   3.711   4.398   7.961 -2.2157 -1.0185 -0.0544
   12SAPS  C216 1532   3.806   4.279   7.811 -0.2151  0.4940 -0.0850
   12SAPS  H16R 1533   3.906   4.308   7.850  0.0781 -0.7201  0.0963
   12SAPS  H16S 1534   3.827   4.282   7.702 -1.2813 -0.0835 -0.3145
   12SAPS  C217 1535   3.777   4.135   7.856  0.0478 -0.8236 -0.8046
   12SAPS  H17R 1536   3.857   4.066   7.821  1.2423  0.3932 -0.5286
   12SAPS  H17S 1537   3.687   4.108   7.798  0.6231  0.3614 -2.2654
   12SAPS  C218 1538   3.745   4.121   8.005  0.8573  0.3400 -0.4768
   12SAPS  H18R 1539   3.656   4.184   8.030 -1.2070 -2.9236  0.6493
   12SAPS  H18S 1540   3.829   4.166   8.064  0.7490 -1.7431  1.3239
   12SAPS  C219 1541   3.728   3.969   8.036  0.7279  0.1521  0.0745
   12SAPS  H19R 1542   3.816   3.914   7.995  0.9847  1.4275 -1.1305
   12SAPS  H19S 1543   3.639   3.938   7.977  0.4950  1.7277 -0.4294
   12SAPS  C220 1544   3.709   3.947   8.184  0.4274  0.8491 -0.5936
   12SAPS  H20R 1545   3.601   3.955   8.207 -0.2249 -0.6388 -2.9330
   12SAPS  H20S 1546   3.773   4.020   8.238  0.4313  0.8810 -0.6396
   12SAPS  H20T 1547   3.745   3.847   8.215 -1.8172 -0.0817 -0.9075
   12SAPS   C33 1548   3.255   4.961   6.977  0.2374  0.2516 -0.7221
   12SAPS   H3X 1549   3.362   4.980   6.957  1.3309 -2.7613  1.8426
   12SAPS   H3Y 1550   3.243   4.851   6.986 -0.7857  0.4434  0.3810
   12SAPS   C34 1551   3.215   5.023   7.110  0.6784  0.0134  0.0831
   12SAPS   H4X 1552   3.238   4.976   7.207  0.7040  1.6895  0.9020
   12SAPS   H4Y 1553   3.104   5.030   7.102  0.4806 -2.1960  0.5139
   12SAPS   C35 1554   3.262   5.166   7.131 -0.2640  0.5854  0.0371
   12SAPS   H5X 1555   3.205   5.226   7.057 -0.2455  0.4288 -0.1030
   12SAPS   H5Y 1556   3.366   5.190   7.102 -0.4930  1.3866 -0.1248
   12SAPS   C36 1557   3.235   5.228   7.274  0.2217 -0.3839  0.3625
   12SAPS   H6X 1558   3.264   5.334   7.258 -1.9712  0.3070  0.8798
   12SAPS   H6Y 1559   3.306   5.181   7.346  0.7403 -0.0127  0.1004
   12SAPS   C37 1560   3.092   5.234   7.327 -0.0233 -0.0820  0.0874
   12SAPS   H7X 1561   3.039   5.137   7.325 -0.5727  0.1654  1.6734
   12SAPS   H7Y 1562   3.033   5.306   7.266 -1.3875 -0.4884  0.8956
   12SAPS   C38 1563   3.082   5.277   7.475 -0.6888  0.2158 -0.8581
   12SAPS   H8X 1564   2.977   5.272   7.512 -0.5216  0.4579 -0.3466
   12SAPS   H8Y 1565   3.130   5.375   7.496  2.0822 -1.4600  0.9691
   12SAPS   C39 1566   3.156   5.179   7.568 -0.4586 -0.7865 -0.1472
   12SAPS   H9X 1567   3.266   5.184   7.551 -0.4954  0.1416 -0.1532
   12SAPS   H9Y 1568   3.126   5.072   7.563 -0.3001 -0.8530  0.2731
   12SAPS  C310 1569   3.138   5.221   7.711 -0.4166  0.1990 -0.8310
   12SAPS  H10X 1570   3.029   5.238   7.721 -0.4047  0.2672 -0.8094
   12SAPS  H10Y 1571   3.182   5.323   7.720 -3.0641  1.2905  0.4948
   12SAPS  C311 1572   3.191   5.121   7.820  0.1473 -0.4942  0.5590
   12SAPS  H11X 1573   3.293   5.095   7.787  0.9242  1.3358  1.4645
   12SAPS  H11Y 1574   3.138   5.025   7.803  3.5388 -1.9752 -2.2569
   12SAPS  C312 1575   3.192   5.176   7.965  0.0603 -0.2762 -0.1311
   12SAPS  H12X 1576   3.249   5.269   7.946  1.8201 -1.4422 -0.7013
   12SAPS  H12Y 1577   3.249   5.101   8.024 -1.5465  0.7933  2.8913
   12SAPS  C313 1578   3.064   5.205   8.036  0.3829  0.6985 -0.9481
   12SAPS  H13X 1579   3.009   5.112   8.062  2.2070 -0.5703 -1.4789
   12SAPS  H13Y 1580   2.990   5.262   7.976 -0.9999 -0.9429 -0.8292
   12SAPS  C314 1581   3.085   5.291   8.163 -0.2934 -0.1014  0.1713
   12SAPS  H14X 1582   2.988   5.320   8.208 -0.4012  0.0438 -0.1500
   12SAPS  H14Y 1583   3.141   5.385   8.143 -1.6704  0.8574  0.7535
   12SAPS  C315 1584   3.156   5.208   8.276 -0.5104 -0.3461 -0.2596
   12SAPS  H15X 1585   3.248   5.162   8.233 -0.7833 -0.0121 -1.2111
   12SAPS  H15Y 1586   3.094   5.117   8.289 -0.9331 -0.5461 -3.2381
   12SAPS  C316 1587   3.186   5.289   8.401 -0.2587 -0.4000 -0.2765
   12SAPS  H16X 1588   3.085   5.316   8.437  0.7665  0.9228  1.6891
   12SAPS  H16Y 1589   3.229   5.387   8.371 -0.6135  0.8038  2.9560
   12SAPS  C317 1590   3.280   5.217   8.501  0.5838 -0.2317  0.5584
   12SAPS  H17X 1591   3.365   5.173   8.443 -0.4533  2.6927 -3.4008
   12SAPS  H17Y 1592   3.220   5.149   8.565 -0.8433  0.0294 -0.4854
   12SAPS  C318 1593   3.334   5.322   8.602 -0.5019 -0.5336 -0.0492
   12SAPS  H18X 1594   3.398   5.255   8.663 -2.7148 -1.4582  1.3301
   12SAPS  H18Y 1595   3.259   5.375   8.665  1.5866  1.7227  0.6155
   12SAPS  H18Z 1596   3.398   5.400   8.555 -2.7789  1.5526  0.2125
   13SAPS     N 1597   4.776   2.287   6.285 -0.3071 -0.5411  0.1625
   13SAPS   HN1 1598   4.870   2.263   6.246  0.4331  0.5560  1.2109
   13SAPS   HN2 1599   4.784   2.382   6.326  1.9838 -0.5056 -0.2499
   13SAPS   HN3 1600   4.732   2.215   6.345  2.3641 -1.0778  1.5764
   13SAPS   C12 1601   4.705   2.299   6.145 -0.3302 -0.2781  1.0725
   13SAPS  H12A 1602   4.610   2.350   6.153 -0.8217 -1.3440  2.1211
   13SAPS   C13 1603   4.786   2.362   6.032  0.4167  0.3662  0.2605
   13SAPS  O13A 1604   4.910   2.374   6.041 -0.5690 -0.1361  0.1775
   13SAPS  O13B 1605   4.725   2.397   5.927 -0.1739  0.0299  0.7644
   13SAPS   C11 1606   4.674   2.152   6.108 -0.3144  0.2728 -0.5571
   13SAPS  H11A 1607   4.767   2.093   6.093  0.0733  0.3915  1.2686
   13SAPS  H11B 1608   4.625   2.148   6.009  1.5406 -0.1272 -1.4847
   13SAPS     P 1609   4.547   1.933   6.192  0.2531 -0.4529 -0.0016
   13SAPS   O13 1610   4.406   1.929   6.238 -0.2379  0.3567  1.2052
   13SAPS   O14 1611   4.585   1.873   6.063  0.2406  0.2764  0.5348
   13SAPS   O12 1612   4.591   2.087   6.203  0.4244 -0.3528  0.0119
   13SAPS   O11 1613   4.631   1.870   6.304  0.0959 -0.5761  0.2945
   13SAPS    C1 1614   4.758   1.914   6.351  0.5100  0.0588 -0.0255
   13SAPS    HA 1615   4.825   1.826   6.364 -1.7381 -1.4943  1.4619
   13SAPS    HB 1616   4.810   1.979   6.278  0.8951  1.3120  1.3340
   13SAPS    C2 1617   4.748   1.989   6.490 -0.6341  0.6036 -0.0234
   13SAPS    HS 1618   4.691   1.921   6.556 -0.5923  0.4083 -0.1861
   13SAPS   O21 1619   4.676   2.108   6.466 -0.0388  0.0261  0.5585
   13SAPS   C21 1620   4.557   2.118   6.521  0.3689  0.2893 -0.9192
   13SAPS   O22 1621   4.498   2.025   6.582 -0.0161  0.2205 -0.2289
   13SAPS   C22 1622   4.499   2.252   6.493  0.0904 -0.0880 -0.0566
   13SAPS   H2R 1623   4.570   2.327   6.452 -2.6215  1.5277 -1.9114
   13SAPS   H2S 1624   4.421   2.238   6.415  1.8303  0.4287 -1.9601
   13SAPS    C3 1625   4.885   2.014   6.567 -0.1959 -0.1526  0.5239
   13SAPS    HX 1626   4.951   2.065   6.494 -1.5278  2.5554  1.1637
   13SAPS    HY 1627   4.938   1.918   6.586  0.6386 -0.0656 -1.2867
   13SAPS   O31 1628   4.874   2.098   6.686  0.4451  0.3466 -0.3500
   13SAPS   C31 1629   4.997   2.142   6.727  0.0855  0.5942  0.6934
   13SAPS   O32 1630   5.101   2.108   6.674 -0.3063 -0.2759 -0.6539
   13SAPS   C32 1631   4.988   2.211   6.866  0.3011  0.2455  0.3649
   13SAPS   H2X 1632   4.916   2.294   6.848 -0.6197 -0.6804 -0.3191
   13SAPS   H2Y 1633   5.091   2.247   6.889  0.3692  0.2624  0.0347
   13SAPS   C23 1634   4.440   2.317   6.614  0.1617  0.6375 -0.1945
   13SAPS   H3R 1635   4.508   2.326   6.701  1.3805  1.8970 -1.2370
   13SAPS   H3S 1636   4.356   2.262   6.661  0.4703 -0.3654 -0.8208
   13SAPS   C24 1637   4.385   2.455   6.582  0.5755  0.9941  0.9510
   13SAPS   H4R 1638   4.325   2.462   6.488 -0.9898  0.2473  1.8817
   13SAPS   H4S 1639   4.465   2.530   6.563  2.1286 -0.2892  2.2922
   13SAPS   C25 1640   4.302   2.512   6.700 -0.2995  0.7300 -0.7534
   13SAPS   H5R 1641   4.206   2.459   6.700  0.8651 -1.4925 -2.5809
   13SAPS   C26 1642   4.317   2.606   6.797  0.0384  0.2121  0.1945
   13SAPS   H6R 1643   4.234   2.627   6.866  1.1044  1.2043  1.1894
   13SAPS   C27 1644   4.443   2.699   6.817  0.0270  0.8317 -0.2418
   13SAPS   H7R 1645   4.418   2.753   6.910 -1.6717 -0.9024  0.3352
   13SAPS   H7S 1646   4.453   2.774   6.736  2.7694  0.1552 -0.6056
   13SAPS   C28 1647   4.569   2.612   6.826 -0.1190  0.4392 -0.5532
   13SAPS   H8R 1648   4.590   2.553   6.736  3.8205 -0.7649  1.0318
   13SAPS   C29 1649   4.646   2.597   6.934 -0.2642 -0.1104  0.4685
   13SAPS   H9R 1650   4.731   2.528   6.921  0.3878  0.6821  0.4471
   13SAPS  C210 1651   4.643   2.666   7.067  0.1902  0.4039 -0.0899
   13SAPS  H10R 1652   4.581   2.598   7.129  1.3664 -0.6848 -0.0992
   13SAPS  H10S 1653   4.594   2.766   7.059  0.0340  0.2739 -0.7793
   13SAPS  C211 1654   4.779   2.661   7.142 -0.2714  0.1139  0.0038
   13SAPS  H11R 1655   4.862   2.640   7.073  1.2483  0.0031  1.8425
   13SAPS  C212 1656   4.804   2.677   7.267  0.0686 -0.4715  0.1567
   13SAPS  H12R 1657   4.907   2.674   7.306  0.4379 -0.2547 -0.7907
   13SAPS  C213 1658   4.695   2.700   7.375 -0.0208  1.2594  0.2884
   13SAPS  H13R 1659   4.729   2.661   7.474  0.3952  0.5270 -0.1350
   13SAPS  H13S 1660   4.602   2.645   7.351 -0.2450  0.7240  2.2744
   13SAPS  C214 1661   4.673   2.846   7.390 -0.0486  0.4858 -0.0365
   13SAPS  H14R 1662   4.665   2.911   7.302 -2.4834  1.0729  0.5646
   13SAPS  C215 1663   4.660   2.913   7.507 -0.1429  0.1498  0.3601
   13SAPS  H15R 1664   4.633   3.020   7.502  2.4303  0.8864  1.0767
   13SAPS  C216 1665   4.667   2.856   7.644 -0.2972 -0.5551 -0.2290
   13SAPS  H16R 1666   4.770   2.815   7.655 -0.1227 -0.2076 -0.5322
   13SAPS  H16S 1667   4.600   2.769   7.657  1.9915 -2.6876 -2.0462
   13SAPS  C217 1668   4.641   2.940   7.764 -0.9898 -0.2423  0.3018
   13SAPS  H17R 1669   4.532   2.949   7.783 -1.0744 -1.6739  0.5157
   13SAPS  H17S 1670   4.687   3.039   7.742 -1.8532  0.2964  0.8878
   13SAPS  C218 1671   4.712   2.898   7.892 -0.2504 -0.2326 -0.0342
   13SAPS  H18R 1672   4.674   2.956   7.978  1.2065 -2.0210  1.8632
   13SAPS  H18S 1673   4.819   2.925   7.881  0.0609 -0.5743  1.9542
   13SAPS  C219 1674   4.694   2.752   7.933  0.3323 -0.1796  0.2817
   13SAPS  H19R 1675   4.731   2.728   8.035 -1.5865 -0.8379  0.8655
   13SAPS  H19S 1676   4.751   2.690   7.861 -0.0139  0.1091 -0.2453
   13SAPS  C220 1677   4.556   2.694   7.917  0.1056  0.3080 -0.8700
   13SAPS  H20R 1678   4.560   2.585   7.894 -0.1815  0.2114 -0.4678
   13SAPS  H20S 1679   4.503   2.736   7.828  1.8271 -1.1295 -2.6158
   13SAPS  H20T 1680   4.495   2.701   8.010  0.3466 -0.3156 -0.6603
   13SAPS   C33 1681   4.933   2.133   6.989  0.0811 -0.3223 -0.4730
   13SAPS   H3X 1682   4.966   2.185   7.082  1.9421 -1.0367 -0.7178
   13SAPS   H3Y 1683   4.980   2.033   6.999 -0.3965 -0.5470 -0.4872
   13SAPS   C34 1684   4.783   2.117   6.994  0.1897  0.2434 -0.2703
   13SAPS   H4X 1685   4.755   2.055   6.907 -0.5038  0.5033 -0.2420
   13SAPS   H4Y 1686   4.746   2.221   6.979  1.4347  0.7368  0.0254
   13SAPS   C35 1687   4.738   2.047   7.124  0.0720  0.0626 -0.3759
   13SAPS   H5X 1688   4.805   1.960   7.141 -0.8422 -0.2167  2.0752
   13SAPS   H5Y 1689   4.636   2.004   7.112 -0.2502  0.7989 -0.3129
   13SAPS   C36 1690   4.745   2.125   7.251 -0.1173  0.1569 -0.5057
   13SAPS   H6X 1691   4.851   2.135   7.283 -0.0393 -2.6794  0.2362
   13SAPS   H6Y 1692   4.701   2.074   7.339  0.2671  0.7887  0.0539
   13SAPS   C37 1693   4.690   2.264   7.265 -0.5831  1.0448  0.4025
   13SAPS   H7X 1694   4.587   2.261   7.223  0.2051  1.4306 -1.6127
   13SAPS   H7Y 1695   4.752   2.340   7.212  1.5010 -0.1901  1.0406
   13SAPS   C38 1696   4.680   2.302   7.413  0.0689  0.3748  0.5975
   13SAPS   H8X 1697   4.679   2.412   7.421 -0.9383  0.6164 -2.1781
   13SAPS   H8Y 1698   4.760   2.270   7.483  0.2894  1.0925  0.6685
   13SAPS   C39 1699   4.547   2.240   7.476  0.5860  0.8812 -0.0333
   13SAPS   H9X 1700   4.548   2.131   7.455 -0.2780  0.1139  3.5209
   13SAPS   H9Y 1701   4.461   2.281   7.419 -0.9698  1.1876  2.4698
   13SAPS  C310 1702   4.536   2.268   7.623  0.8953 -0.7244 -0.0745
   13SAPS  H10X 1703   4.580   2.367   7.648  0.7311 -0.3855 -1.1314
   13SAPS  H10Y 1704   4.598   2.193   7.677 -0.4142 -0.9423  1.1717
   13SAPS  C311 1705   4.394   2.252   7.676 -0.1602 -0.5820 -1.0470
   13SAPS  H11X 1706   4.363   2.146   7.663 -2.4601 -0.2691  1.5875
   13SAPS  H11Y 1707   4.325   2.317   7.617  0.7568  2.4834  1.1329
   13SAPS  C312 1708   4.392   2.291   7.824 -0.2793  1.2473  0.5144
   13SAPS  H12X 1709   4.425   2.395   7.846  1.2902  0.4856  1.8763
   13SAPS  H12Y 1710   4.471   2.230   7.872  1.8080  0.7576 -3.3529
   13SAPS  C313 1711   4.255   2.277   7.903  0.5121  0.9325  0.0192
   13SAPS  H13X 1712   4.195   2.187   7.875  0.4411  1.1238 -0.4526
   13SAPS  H13Y 1713   4.203   2.369   7.871  0.2224  0.4641 -0.8798
   13SAPS  C314 1714   4.281   2.290   8.054  0.2856  0.4288 -0.1228
   13SAPS  H14X 1715   4.360   2.366   8.071  0.9199 -0.2897  0.1457
   13SAPS  H14Y 1716   4.313   2.187   8.082  0.6131  0.3811 -0.6593
   13SAPS  C315 1717   4.161   2.321   8.141  0.8541  0.5180 -0.0458
   13SAPS  H15X 1718   4.161   2.268   8.238 -1.2092  1.5268  0.5380
   13SAPS  H15Y 1719   4.072   2.281   8.087  2.3154  1.4816 -3.3524
   13SAPS  C316 1720   4.128   2.468   8.162  0.2308 -0.7533 -0.3211
   13SAPS  H16X 1721   4.128   2.535   8.073  0.5004 -0.8301 -0.3811
   13SAPS  H16Y 1722   4.212   2.517   8.217 -1.4844 -0.3178  1.9697
   13SAPS  C317 1723   4.001   2.491   8.246  0.5040  0.3684 -0.0024
   13SAPS  H17X 1724   4.018   2.485   8.356  0.2090  1.2175  0.0930
   13SAPS  H17Y 1725   3.938   2.403   8.222 -0.9823  1.2643  0.5663
   13SAPS  C318 1726   3.920   2.627   8.208  0.1141 -0.3301 -0.2665
   13SAPS  H18X 1727   3.904   2.631   8.099  1.3432  0.5573 -0.4253
   13SAPS  H18Y 1728   3.983   2.716   8.232  1.2213 -0.2671 -3.2755
   13SAPS  H18Z 1729   3.820   2.630   8.256 -1.5234 -1.1303 -3.5026
   14SAPS     N 1730   4.394   4.385   5.511  0.0175  0.4350 -0.1403
   14SAPS   HN1 1731   4.383   4.375   5.408  1.9710 -0.4523 -0.2743
   14SAPS   HN2 1732   4.473   4.324   5.540 -1.7471 -0.8868  2.0849
   14SAPS   HN3 1733   4.305   4.349   5.553  0.4656  1.0262  1.3307
   14SAPS   C12 1734   4.410   4.534   5.535 -0.1563  0.3912  0.2959
   14SAPS  H12A 1735   4.514   4.557   5.522 -0.2038  0.3280 -0.2094
   14SAPS   C13 1736   4.326   4.629   5.448  0.2749 -0.4945  0.5643
   14SAPS  O13A 1737   4.226   4.594   5.381 -0.0226 -0.3465 -0.1983
   14SAPS  O13B 1738   4.345   4.753   5.454 -0.0033  0.2638 -0.2660
   14SAPS   C11 1739   4.366   4.557   5.685 -0.3008  0.3231 -0.1346
   14SAPS  H11A 1740   4.263   4.513   5.688 -0.8001  1.2078 -2.8743
   14SAPS  H11B 1741   4.362   4.667   5.694 -1.8918  0.1901  1.0914
   14SAPS     P 1742   4.403   4.473   5.923  0.2649  0.0196  0.2708
   14SAPS   O13 1743   4.512   4.413   5.998  0.1559  0.3745  0.3597
   14SAPS   O14 1744   4.341   4.602   5.976 -0.2116  0.2858  0.2853
   14SAPS   O12 1745   4.445   4.481   5.769 -0.5711  0.4199  0.3643
   14SAPS   O11 1746   4.292   4.361   5.904  0.3343 -0.4582 -0.7220
   14SAPS    C1 1747   4.183   4.367   5.997 -0.5867  0.3304  0.1489
   14SAPS    HA 1748   4.157   4.472   6.023 -1.1332  0.3846 -0.5789
   14SAPS    HB 1749   4.091   4.326   5.951 -1.7090  0.6679  2.0280
   14SAPS    C2 1750   4.202   4.280   6.123  0.4118  0.6113  0.1068
   14SAPS    HS 1751   4.105   4.279   6.177  0.7253 -0.5924  0.6648
   14SAPS   O21 1752   4.303   4.338   6.207 -0.4201 -0.0824 -0.3982
   14SAPS   C21 1753   4.259   4.449   6.267  0.0811 -0.2234  0.1484
   14SAPS   O22 1754   4.143   4.492   6.265 -0.4631 -0.4387 -0.4285
   14SAPS   C22 1755   4.369   4.514   6.338 -0.3553  0.2630  0.4034
   14SAPS   H2R 1756   4.428   4.434   6.387 -3.5435 -3.4126 -1.4261
   14SAPS   H2S 1757   4.442   4.564   6.270  0.2802 -3.3148 -1.6740
   14SAPS    C3 1758   4.237   4.130   6.085  0.1600 -0.3277 -0.9092
   14SAPS    HX 1759   4.331   4.142   6.028  1.9389  0.1530  2.0500
   14SAPS    HY 1760   4.160   4.080   6.022 -1.5298 -1.3236  1.8194
   14SAPS   O31 1761   4.250   4.053   6.209 -0.2131  0.4744 -0.2179
   14SAPS   C31 1762   4.135   4.025   6.281 -0.5238  0.8082 -0.5584
   14SAPS   O32 1763   4.025   4.069   6.255  0.2899 -0.2395  0.6368
   14SAPS   C32 1764   4.176   3.931   6.396  0.4254 -0.4520 -0.4333
   14SAPS   H2X 1765   4.286   3.933   6.410  0.0240 -0.5792  3.3732
   14SAPS   H2Y 1766   4.155   3.828   6.359  1.3111 -1.0391  0.6768
   14SAPS   C23 1767   4.328   4.608   6.453  0.9095 -0.2438 -0.4767
   14SAPS   H3R 1768   4.249   4.561   6.514  1.2406 -1.3235 -0.8662
   14SAPS   H3S 1769   4.294   4.703   6.406 -1.0069 -1.4488 -1.5800
   14SAPS   C24 1770   4.441   4.640   6.549  0.1782  0.0208  0.8467
   14SAPS   H4R 1771   4.529   4.663   6.485 -0.7897 -0.2733 -0.6130
   14SAPS   H4S 1772   4.473   4.555   6.614  2.3768  0.1887  0.0290
   14SAPS   C25 1773   4.408   4.763   6.625 -0.3817  0.5012  0.1987
   14SAPS   H5R 1774   4.398   4.849   6.558  2.0874  1.6112  1.2186
   14SAPS   C26 1775   4.377   4.786   6.755  0.5338 -0.6071 -0.5626
   14SAPS   H6R 1776   4.352   4.886   6.792  0.6894 -0.6674 -0.2948
   14SAPS   C27 1777   4.362   4.680   6.863 -0.1771  0.8519 -0.5362
   14SAPS   H7R 1778   4.411   4.689   6.962 -1.8254 -2.8533  0.6887
   14SAPS   H7S 1779   4.420   4.589   6.838  1.0346  1.1863  0.9820
   14SAPS   C28 1780   4.216   4.647   6.884  0.0925  0.0141 -0.3878
   14SAPS   H8R 1781   4.151   4.632   6.796 -0.1450 -2.7548  0.2347
   14SAPS   C29 1782   4.157   4.639   7.005 -0.2243  0.2879  0.4674
   14SAPS   H9R 1783   4.052   4.608   7.007 -0.4327  1.0693  2.1845
   14SAPS  C210 1784   4.205   4.656   7.143 -0.4462  0.1881 -0.1084
   14SAPS  H10R 1785   4.118   4.694   7.202 -0.9796  1.2553 -1.5725
   14SAPS  H10S 1786   4.283   4.734   7.140  0.9163 -1.1865 -2.4239
   14SAPS  C211 1787   4.265   4.533   7.203 -0.1529 -0.4130 -0.7210
   14SAPS  H11R 1788   4.315   4.466   7.132 -2.3548  0.0621 -2.7751
   14SAPS  C212 1789   4.267   4.502   7.330  0.2266 -0.3449  0.1542
   14SAPS  H12R 1790   4.304   4.402   7.354 -0.4205 -0.9756 -1.4173
   14SAPS  C213 1791   4.210   4.583   7.446  0.3949 -0.5473  0.8307
   14SAPS  H13R 1792   4.202   4.690   7.419 -0.3664 -0.2096  2.3501
   14SAPS  H13S 1793   4.273   4.566   7.536  1.4963  3.9576  0.9942
   14SAPS  C214 1794   4.060   4.554   7.478 -0.8629  0.1098  0.4856
   14SAPS  H14R 1795   4.016   4.487   7.403 -0.5760  0.5945 -0.1243
   14SAPS  C215 1796   3.996   4.592   7.590 -0.0739  0.3843 -0.0315
   14SAPS  H15R 1797   3.889   4.569   7.598  0.0965 -0.2364  0.5633
   14SAPS  C216 1798   4.061   4.662   7.696 -0.3891 -0.7640 -0.3457
   14SAPS  H16R 1799   4.007   4.756   7.719 -1.2448 -0.8976 -1.7734
   14SAPS  H16S 1800   4.164   4.687   7.664 -0.4256 -0.1073  0.0473
   14SAPS  C217 1801   4.067   4.595   7.837 -0.0319  0.6914  0.4605
   14SAPS  H17R 1802   4.111   4.494   7.823 -0.8184  0.1062  2.0764
   14SAPS  H17S 1803   3.965   4.573   7.875 -0.8822  2.6276 -0.6388
   14SAPS  C218 1804   4.152   4.659   7.945 -0.1276 -0.3060 -0.4433
   14SAPS  H18R 1805   4.133   4.768   7.949  1.0975 -0.0883 -0.4946
   14SAPS  H18S 1806   4.259   4.650   7.916  0.3350 -0.6794  1.2925
   14SAPS  C219 1807   4.146   4.600   8.084  0.1359  0.7483  0.0141
   14SAPS  H19R 1808   4.219   4.641   8.157  1.6704 -1.1741 -0.4053
   14SAPS  H19S 1809   4.176   4.494   8.069 -0.8059  0.6484 -1.2401
   14SAPS  C220 1810   4.005   4.608   8.146  0.1832 -0.2125 -0.4009
   14SAPS  H20R 1811   4.011   4.564   8.248 -0.2200  2.1242  0.6450
   14SAPS  H20S 1812   3.932   4.545   8.091  1.1405 -2.3397  0.7021
   14SAPS  H20T 1813   3.966   4.712   8.151  0.1753 -0.2286 -0.1315
   14SAPS   C33 1814   4.104   3.968   6.529  0.6163 -0.6345 -0.4644
   14SAPS   H3X 1815   4.113   3.881   6.596 -0.0124 -1.6621 -1.7007
   14SAPS   H3Y 1816   3.997   3.979   6.503  1.1249  1.8235 -1.6945
   14SAPS   C34 1817   4.172   4.084   6.608  0.1372  0.6576 -0.6213
   14SAPS   H4X 1818   4.183   4.176   6.547 -1.6252  1.8465  0.8018
   14SAPS   H4Y 1819   4.272   4.047   6.640 -0.6697 -0.8570  0.2193
   14SAPS   C35 1820   4.096   4.140   6.731 -0.3628  0.2234 -0.4895
   14SAPS   H5X 1821   3.987   4.130   6.714 -0.3280 -2.1368  0.4418
   14SAPS   H5Y 1822   4.136   4.243   6.740  2.5116 -0.9004  0.1569
   14SAPS   C36 1823   4.136   4.060   6.872  0.0717  0.0540  0.3106
   14SAPS   H6X 1824   4.247   4.060   6.870  0.1189 -0.8071  2.1086
   14SAPS   H6Y 1825   4.097   3.957   6.861  1.0068 -0.4592  1.7378
   14SAPS   C37 1826   4.076   4.130   6.997 -0.6431 -0.0270 -0.0738
   14SAPS   H7X 1827   3.965   4.134   6.991 -0.6758 -0.1592  0.4297
   14SAPS   H7Y 1828   4.123   4.230   6.998  1.4426 -0.8945 -2.8384
   14SAPS   C38 1829   4.113   4.056   7.126 -0.8423 -0.4393 -0.3803
   14SAPS   H8X 1830   4.222   4.034   7.123 -1.1750 -2.1360 -0.2061
   14SAPS   H8Y 1831   4.063   3.957   7.131 -0.3460 -0.6836 -0.2282
   14SAPS   C39 1832   4.076   4.128   7.259 -0.5441  0.8714 -0.5667
   14SAPS   H9X 1833   3.970   4.112   7.289 -1.4987  1.1167 -3.5789
   14SAPS   H9Y 1834   4.085   4.238   7.248 -1.6947  0.9202 -1.1430
   14SAPS  C310 1835   4.175   4.089   7.375 -0.4961 -0.2392  0.7424
   14SAPS  H10X 1836   4.274   4.109   7.330 -0.9492  0.3119 -0.0229
   14SAPS  H10Y 1837   4.168   3.978   7.384 -3.3572 -0.1018  0.7147
   14SAPS  C311 1838   4.148   4.156   7.506 -1.0737 -0.7369 -0.3151
   14SAPS  H11X 1839   4.042   4.144   7.537 -1.2908  0.9802 -0.3534
   14SAPS  H11Y 1840   4.165   4.262   7.478 -3.8569 -0.2499 -0.3000
   14SAPS  C312 1841   4.239   4.112   7.626  0.1024  0.3384 -0.4184
   14SAPS  H12X 1842   4.341   4.074   7.606 -0.1768 -0.8928  0.3801
   14SAPS  H12Y 1843   4.179   4.031   7.674 -0.0024  0.5835 -0.1331
   14SAPS  C313 1844   4.257   4.233   7.716 -0.3452 -0.5379 -0.4735
   14SAPS  H13X 1845   4.175   4.306   7.732  0.1473 -0.0447 -0.1930
   14SAPS  H13Y 1846   4.341   4.291   7.673 -0.0670  1.4369  2.5633
   14SAPS  C314 1847   4.309   4.202   7.865  0.1683 -0.1190 -0.1193
   14SAPS  H14X 1848   4.347   4.299   7.903  1.2969  1.1508 -4.2129
   14SAPS  H14Y 1849   4.399   4.138   7.859  0.2668  0.1492 -1.5858
   14SAPS  C315 1850   4.194   4.154   7.949 -0.5088 -0.2015 -0.1440
   14SAPS  H15X 1851   4.169   4.052   7.915  0.9492 -0.7244  0.3449
   14SAPS  H15Y 1852   4.109   4.223   7.929 -0.6357 -0.5467 -0.8097
   14SAPS  C316 1853   4.236   4.151   8.098  0.2388  0.3413 -0.4282
   14SAPS  H16X 1854   4.277   4.249   8.132 -0.5064  1.0054 -1.3866
   14SAPS  H16Y 1855   4.321   4.080   8.096  0.9622  1.2099 -1.7748
   14SAPS  C317 1856   4.129   4.094   8.194  0.3386  0.0409  0.4817
   14SAPS  H17X 1857   4.035   4.153   8.184 -0.3410 -1.0511  0.2825
   14SAPS  H17Y 1858   4.173   4.106   8.295 -0.0740  2.9019  0.3586
   14SAPS  C318 1859   4.080   3.948   8.160  0.0766  0.3887 -0.6466
   14SAPS  H18X 1860   4.042   3.947   8.056  2.3806  1.6225 -1.5396
   14SAPS  H18Y 1861   4.008   3.915   8.237 -1.3456  0.9433 -1.7093
   14SAPS  H18Z 1862   4.166   3.878   8.156 -0.2317 -0.0578  0.3868
   15SAPS     N 1863   4.637   3.559   5.696  0.4253  0.3235  0.5947
   15SAPS   HN1 1864   4.679   3.600   5.610  1.1182 -0.3749  0.5924
   15SAPS   HN2 1865   4.583   3.471   5.678  0.7008  0.4785 -1.0953
   15SAPS   HN3 1866   4.567   3.621   5.741  0.0874  0.5980 -0.2966
   15SAPS   C12 1867   4.741   3.512   5.785 -0.1469  1.1444  0.4939
   15SAPS  H12A 1868   4.699   3.527   5.883 -1.8808  1.1440 -0.2227
   15SAPS   C13 1869   4.774   3.364   5.754 -0.5080 -0.7757  0.2683
   15SAPS  O13A 1870   4.720   3.304   5.655 -0.1426  0.7369  0.0309
   15SAPS  O13B 1871   4.837   3.304   5.845 -0.2982 -0.0429 -0.1792
   15SAPS   C11 1872   4.861   3.604   5.763  0.1129  0.1570  0.5550
   15SAPS  H11A 1873   4.894   3.618   5.658 -0.3056  1.8079  0.6412
   15SAPS  H11B 1874   4.952   3.569   5.817  0.0700 -1.0915 -0.1568
   15SAPS     P 1875   4.944   3.831   5.866 -0.1269  0.0174  0.0258
   15SAPS   O13 1876   5.060   3.802   5.779  0.2918  0.2615  0.2428
   15SAPS   O14 1877   4.900   3.970   5.880  0.6526 -0.1134 -0.0437
   15SAPS   O12 1878   4.831   3.733   5.814 -0.0371  0.4402 -0.1998
   15SAPS   O11 1879   4.986   3.776   6.010  0.1014  0.2240 -0.0960
   15SAPS    C1 1880   4.903   3.739   6.118  0.4156 -0.0297 -0.1882
   15SAPS    HA 1881   4.821   3.673   6.084  0.5998  0.2256 -1.1358
   15SAPS    HB 1882   4.970   3.693   6.195 -0.5916  1.5358  1.6646
   15SAPS    C2 1883   4.834   3.868   6.176 -0.6540 -0.2025 -0.1411
   15SAPS    HS 1884   4.786   3.923   6.093 -1.1028 -0.1531  0.1475
   15SAPS   O21 1885   4.943   3.949   6.244  0.4835  0.0392 -0.0856
   15SAPS   C21 1886   4.925   4.083   6.250 -0.4063 -0.9423 -0.0476
   15SAPS   O22 1887   4.860   4.147   6.174 -0.0590  0.3385  0.5508
   15SAPS   C22 1888   4.999   4.129   6.369 -0.9194 -0.2861  0.1843
   15SAPS   H2R 1889   4.941   4.090   6.456  0.9600 -0.3284  1.4548
   15SAPS   H2S 1890   5.106   4.099   6.370 -0.3159  1.7245 -2.0495
   15SAPS    C3 1891   4.726   3.827   6.280 -0.1472 -0.0855  0.2097
   15SAPS    HX 1892   4.772   3.745   6.339  0.1238  0.2856  0.5135
   15SAPS    HY 1893   4.638   3.785   6.226  1.1096  0.5495 -2.4565
   15SAPS   O31 1894   4.677   3.931   6.367 -0.6097  0.2744 -0.0548
   15SAPS   C31 1895   4.602   4.025   6.302 -0.3132 -0.3728  0.9882
   15SAPS   O32 1896   4.574   4.023   6.185  0.0139 -0.4077  0.2256
   15SAPS   C32 1897   4.565   4.136   6.402 -0.2032  0.5764 -0.0161
   15SAPS   H2X 1898   4.463   4.164   6.369  0.7069  1.5618 -2.1156
   15SAPS   H2Y 1899   4.640   4.217   6.387  1.5242 -0.8810  0.5809
   15SAPS   C23 1900   5.014   4.283   6.387  0.0981 -0.7013  0.0691
   15SAPS   H3R 1901   5.055   4.334   6.297  1.9598 -3.6866 -0.8801
   15SAPS   H3S 1902   5.088   4.297   6.469 -0.0146  0.1949  0.0181
   15SAPS   C24 1903   4.884   4.357   6.421  0.4648  0.1063  0.2855
   15SAPS   H4R 1904   4.829   4.312   6.506 -0.8419 -1.0214 -1.1112
   15SAPS   H4S 1905   4.816   4.332   6.337  0.6039 -0.7310  0.4144
   15SAPS   C25 1906   4.909   4.509   6.424  0.8628  0.2785 -0.2912
   15SAPS   H5R 1907   4.900   4.559   6.327 -0.2115  2.9947  1.1681
   15SAPS   C26 1908   4.947   4.574   6.537  0.3735  0.2260  0.3580
   15SAPS   H6R 1909   4.990   4.675   6.525  0.8218  0.2771  2.2803
   15SAPS   C27 1910   4.971   4.514   6.678 -0.3308 -0.2701 -0.2267
   15SAPS   H7R 1911   5.058   4.560   6.731 -2.6813  2.3665  1.4623
   15SAPS   H7S 1912   4.996   4.406   6.666  1.8616  0.0565  0.9696
   15SAPS   C28 1913   4.850   4.531   6.766 -0.3613 -0.1343 -0.0599
   15SAPS   H8R 1914   4.754   4.507   6.718 -1.5631  2.3782  0.9878
   15SAPS   C29 1915   4.847   4.588   6.887 -0.1318  0.6419 -0.0862
   15SAPS   H9R 1916   4.746   4.604   6.928  0.6617 -1.0168  2.7051
   15SAPS  C210 1917   4.957   4.649   6.961 -0.0836  0.7939  0.7760
   15SAPS  H10R 1918   5.049   4.623   6.905 -1.8482 -1.7529 -1.0981
   15SAPS  H10S 1919   4.971   4.604   7.062  1.3899 -1.5287 -0.4172
   15SAPS  C211 1920   4.939   4.803   6.960 -0.3870  0.6968  0.0133
   15SAPS  H11R 1921   4.902   4.852   6.869  0.3116  1.0473 -0.0882
   15SAPS  C212 1922   4.972   4.890   7.060 -0.1085  0.4501 -0.3289
   15SAPS  H12R 1923   4.958   4.997   7.040  2.4412  1.2124  1.6288
   15SAPS  C213 1924   5.035   4.854   7.191  0.5821  0.1525 -0.5141
   15SAPS  H13R 1925   5.097   4.945   7.205  1.2797  0.1556 -3.2556
   15SAPS  H13S 1926   5.103   4.767   7.174  1.9665  1.4748 -1.9311
   15SAPS  C214 1927   4.935   4.824   7.301 -0.4839 -0.4044 -0.4468
   15SAPS  H14R 1928   4.856   4.749   7.287  0.8250 -1.8780 -0.0550
   15SAPS  C215 1929   4.947   4.871   7.425 -0.0377 -0.3392  0.1907
   15SAPS  H15R 1930   4.866   4.849   7.495  0.4300  0.7734  1.0948
   15SAPS  C216 1931   5.054   4.957   7.484  0.3796 -0.8951  0.0925
   15SAPS  H16R 1932   5.082   5.031   7.406  2.9355 -1.5325  0.3626
   15SAPS  H16S 1933   5.146   4.896   7.494  0.1048 -1.7195 -2.0321
   15SAPS  C217 1934   5.016   5.017   7.621  0.1227  0.0090 -0.3627
   15SAPS  H17R 1935   4.915   5.063   7.620 -0.1233 -0.2884  3.0800
   15SAPS  H17S 1936   5.086   5.100   7.644  0.6049 -0.6172  0.4875
   15SAPS  C218 1937   5.011   4.909   7.733 -0.0846 -0.5995 -0.0246
   15SAPS  H18R 1938   5.108   4.855   7.724 -0.1698 -0.7809  0.1552
   15SAPS  H18S 1939   4.929   4.836   7.715  1.3823 -1.7175 -2.4185
   15SAPS  C219 1940   5.003   4.977   7.874 -0.2084 -0.5933  0.0391
   15SAPS  H19R 1941   5.076   5.060   7.890  0.2153 -0.9762  0.1224
   15SAPS  H19S 1942   5.060   4.906   7.939  2.3523  1.0703 -0.3219
   15SAPS  C220 1943   4.866   5.013   7.923  0.5880 -0.9121 -0.0147
   15SAPS  H20R 1944   4.885   5.084   8.006  1.4794 -1.0331 -0.1127
   15SAPS  H20S 1945   4.807   4.921   7.945 -2.4431  0.8404 -0.5303
   15SAPS  H20T 1946   4.819   5.072   7.841  1.6517  1.2185  0.8585
   15SAPS   C33 1947   4.579   4.091   6.544 -0.2640 -0.8244  0.3417
   15SAPS   H3X 1948   4.674   4.039   6.570 -0.0816 -0.3568  0.6001
   15SAPS   H3Y 1949   4.501   4.013   6.556 -0.8952 -0.3858 -0.8502
   15SAPS   C34 1950   4.562   4.202   6.649  0.5466  0.8848 -0.1250
   15SAPS   H4X 1951   4.467   4.259   6.645 -0.1920 -0.3888 -1.1635
   15SAPS   H4Y 1952   4.634   4.285   6.638 -0.5485  2.1382  1.8905
   15SAPS   C35 1953   4.572   4.138   6.791  0.6149 -0.4095 -0.2345
   15SAPS   H5X 1954   4.674   4.092   6.795  1.3791  1.2461 -0.2237
   15SAPS   H5Y 1955   4.490   4.065   6.802 -0.1013  0.2570 -1.1400
   15SAPS   C36 1956   4.564   4.250   6.896 -0.3645  0.7962  0.5919
   15SAPS   H6X 1957   4.480   4.322   6.885  0.5213  1.5968 -1.1391
   15SAPS   H6Y 1958   4.652   4.318   6.894  0.4403 -0.1996  1.8442
   15SAPS   C37 1959   4.557   4.192   7.040 -0.2949 -0.8969  0.4638
   15SAPS   H7X 1960   4.612   4.097   7.054 -0.1950 -1.0776 -1.0446
   15SAPS   H7Y 1961   4.450   4.164   7.048  0.1854 -3.2387 -0.9755
   15SAPS   C38 1962   4.603   4.303   7.135 -0.0018 -0.7616  0.4963
   15SAPS   H8X 1963   4.556   4.399   7.105 -0.3030  0.1064  3.5082
   15SAPS   H8Y 1964   4.710   4.330   7.125 -0.1449 -0.5683 -0.5086
   15SAPS   C39 1965   4.570   4.284   7.288  0.4928  0.0434 -0.7820
   15SAPS   H9X 1966   4.606   4.187   7.329  1.4327  0.9626  0.5985
   15SAPS   H9Y 1967   4.460   4.283   7.300  0.5600  1.8118  0.1114
   15SAPS  C310 1968   4.635   4.399   7.373 -0.1365  0.0305  0.1124
   15SAPS  H10X 1969   4.592   4.499   7.350 -0.6238  0.4329  2.6610
   15SAPS  H10Y 1970   4.745   4.402   7.356 -0.1572 -1.7740 -0.4926
   15SAPS  C311 1971   4.601   4.374   7.519 -0.7833  0.2997  0.5709
   15SAPS  H11X 1972   4.601   4.273   7.565 -0.1012  0.2161  0.3977
   15SAPS  H11Y 1973   4.497   4.412   7.531 -0.7345 -0.1873  2.8720
   15SAPS  C312 1974   4.696   4.443   7.626  0.3193  0.1440  0.0070
   15SAPS  H12X 1975   4.704   4.546   7.587 -2.3651 -0.4376 -2.2445
   15SAPS  H12Y 1976   4.799   4.400   7.628  0.4723  0.4133 -1.6334
   15SAPS  C313 1977   4.651   4.448   7.769  0.9358  0.0578 -0.2801
   15SAPS  H13X 1978   4.678   4.353   7.821  2.3141 -0.0808 -1.2398
   15SAPS  H13Y 1979   4.541   4.441   7.785  0.9328 -0.8644 -0.6365
   15SAPS  C314 1980   4.711   4.569   7.844 -0.3494  0.1369 -0.2257
   15SAPS  H14X 1981   4.708   4.648   7.766  0.2981 -0.1480 -0.5390
   15SAPS  H14Y 1982   4.817   4.547   7.866 -0.5281  0.2019  0.6821
   15SAPS  C315 1983   4.619   4.608   7.957  0.9626  0.3990 -0.6249
   15SAPS  H15X 1984   4.518   4.628   7.915  0.5113  0.1892  0.3488
   15SAPS  H15Y 1985   4.645   4.700   8.014  0.4810  1.0784 -1.4946
   15SAPS  C316 1986   4.606   4.494   8.064  0.4994  0.6914 -0.6268
   15SAPS  H16X 1987   4.708   4.466   8.099  0.1029  1.4998  1.2606
   15SAPS  H16Y 1988   4.567   4.406   8.009  1.2434 -0.7713  1.1404
   15SAPS  C317 1989   4.525   4.514   8.188  0.5188  0.6773  0.7161
   15SAPS  H17X 1990   4.426   4.543   8.145 -0.5379 -1.9798  1.2549
   15SAPS  H17Y 1991   4.572   4.603   8.235  1.8473  0.2619  0.1819
   15SAPS  C318 1992   4.515   4.399   8.283 -0.6292 -0.5666 -0.3632
   15SAPS  H18X 1993   4.616   4.381   8.325 -0.2735 -0.4707 -1.1889
   15SAPS  H18Y 1994   4.482   4.304   8.237  0.9748 -0.9078 -0.8245
   15SAPS  H18Z 1995   4.443   4.434   8.360 -1.1297 -0.7857 -0.7267
   16SAPS     N 1996   6.050   6.067   6.529 -1.0159  0.3006  0.0306
   16SAPS   HN1 1997   6.030   5.966   6.546 -0.3416  0.2825  0.7671
   16SAPS   HN2 1998   6.085   6.109   6.618 -1.4026  0.7376 -0.0218
   16SAPS   HN3 1999   5.976   6.128   6.490  0.3445  2.4342  0.6542
   16SAPS   C12 2000   6.183   6.073   6.453 -0.0761 -0.8804  0.0342
   16SAPS  H12A 2001   6.256   6.018   6.511  1.4705  2.7140  1.6634
   16SAPS   C13 2002   6.183   6.010   6.314 -0.4473  0.9117 -0.0620
   16SAPS  O13A 2003   6.082   5.942   6.283 -0.1928 -0.2021  0.1559
   16SAPS  O13B 2004   6.291   5.982   6.261 -0.5992 -0.0554 -0.3265
   16SAPS   C11 2005   6.210   6.226   6.451 -0.9289 -0.6695 -0.0420
   16SAPS  H11A 2006   6.117   6.274   6.414 -0.4090  0.9819  0.7432
   16SAPS  H11B 2007   6.279   6.258   6.371 -2.7580  1.3000 -0.8969
   16SAPS     P 2008   6.387   6.302   6.632 -0.4781  0.0768  0.2641
   16SAPS   O13 2009   6.491   6.202   6.592 -0.4547  0.4072 -0.2327
   16SAPS   O14 2010   6.412   6.448   6.606 -0.3958 -0.3400 -0.0165
   16SAPS   O12 2011   6.244   6.271   6.579 -0.2366  1.1374 -0.3938
   16SAPS   O11 2012   6.357   6.290   6.776 -0.2447  0.2122 -0.6840
   16SAPS    C1 2013   6.439   6.347   6.877 -0.1437 -0.2158 -0.1700
   16SAPS    HA 2014   6.528   6.281   6.876 -0.0770 -0.1226 -0.3220
   16SAPS    HB 2015   6.475   6.450   6.854  2.3033 -1.2235 -1.0404
   16SAPS    C2 2016   6.372   6.343   7.016 -0.0855  0.5940 -0.1813
   16SAPS    HS 2017   6.447   6.394   7.080 -0.0881  0.6854 -0.2506
   16SAPS   O21 2018   6.339   6.211   7.059 -0.5682 -0.5492  0.0199
   16SAPS   C21 2019   6.450   6.143   7.087  0.1045  0.3445 -0.4751
   16SAPS   O22 2020   6.564   6.184   7.088  0.0057 -0.2077  0.8205
   16SAPS   C22 2021   6.416   5.995   7.128 -0.2695  0.3023  0.0488
   16SAPS   H2R 2022   6.401   5.938   7.034 -0.3048  0.5928 -0.1202
   16SAPS   H2S 2023   6.499   5.950   7.187 -1.7708  1.4963  3.1768
   16SAPS    C3 2024   6.242   6.425   7.016  0.7063  0.1705 -0.7250
   16SAPS    HX 2025   6.176   6.392   6.932 -1.8643  2.6660  0.2274
   16SAPS    HY 2026   6.263   6.533   7.000 -0.1756  0.7991  2.0943
   16SAPS   O31 2027   6.183   6.411   7.150  0.4595  0.8299 -0.0033
   16SAPS   C31 2028   6.090   6.317   7.153 -0.1945 -0.1922 -0.8468
   16SAPS   O32 2029   6.049   6.243   7.063 -0.0702 -0.2876 -0.2519
   16SAPS   C32 2030   6.056   6.305   7.302 -0.2869  0.1506  0.4047
   16SAPS   H2X 2031   6.148   6.305   7.363 -0.4278 -1.6596  0.6462
   16SAPS   H2Y 2032   6.000   6.209   7.313  1.4521 -1.0502 -0.9033
   16SAPS   C23 2033   6.290   5.974   7.221 -0.2607  0.5191  0.1557
   16SAPS   H3R 2034   6.278   5.866   7.244 -2.5746  0.9139  0.8791
   16SAPS   H3S 2035   6.195   6.015   7.181 -0.7391 -0.5950  0.1290
   16SAPS   C24 2036   6.310   6.052   7.354 -0.1098  0.1003 -0.2774
   16SAPS   H4R 2037   6.309   6.160   7.329  0.1736  0.1343 -0.1419
   16SAPS   H4S 2038   6.413   6.036   7.391 -0.5721 -0.8884  0.6354
   16SAPS   C25 2039   6.207   6.025   7.463 -0.2972 -0.1152 -0.4917
   16SAPS   H5R 2040   6.105   6.033   7.422 -0.0375  1.8148 -0.8120
   16SAPS   C26 2041   6.224   5.981   7.589  0.2661 -0.4751  0.2422
   16SAPS   H6R 2042   6.128   5.959   7.638 -0.3467  1.4237 -0.0649
   16SAPS   C27 2043   6.343   5.949   7.671  0.1704  0.3786 -0.4284
   16SAPS   H7R 2044   6.333   6.015   7.760 -2.5116 -1.0020  0.3295
   16SAPS   H7S 2045   6.435   5.974   7.613  1.2905 -1.6017  0.4496
   16SAPS   C28 2046   6.368   5.812   7.734  0.2964 -0.6801 -0.5736
   16SAPS   H8R 2047   6.439   5.745   7.682 -0.1359 -1.3998 -0.2387
   16SAPS   C29 2048   6.335   5.765   7.856  0.1308 -0.0920 -0.9214
   16SAPS   H9R 2049   6.369   5.661   7.872 -0.8799 -0.2318  0.4738
   16SAPS  C210 2050   6.240   5.829   7.956  0.0469 -0.6088  0.5146
   16SAPS  H10R 2051   6.163   5.757   7.993 -0.2333 -0.1899  0.7520
   16SAPS  H10S 2052   6.183   5.916   7.917  0.2145 -0.7954 -0.1383
   16SAPS  C211 2053   6.310   5.881   8.077  0.3225  0.3938 -0.2353
   16SAPS  H11R 2054   6.416   5.910   8.065  0.1879  0.8747 -0.2712
   16SAPS  C212 2055   6.253   5.898   8.198  0.1352  0.4074  0.4278
   16SAPS  H12R 2056   6.325   5.924   8.277 -0.5537  0.0260  1.1881
   16SAPS  C213 2057   6.102   5.875   8.219 -0.1229 -0.1436 -0.2374
   16SAPS  H13R 2058   6.073   5.773   8.188 -0.5104 -0.3218  0.7153
   16SAPS  H13S 2059   6.043   5.922   8.138  0.9418  0.3546 -0.7458
   16SAPS  C214 2060   6.052   5.913   8.357  0.0269  0.5277 -0.7456
   16SAPS  H14R 2061   6.096   6.008   8.392  2.3709 -1.4903  2.0941
   16SAPS  C215 2062   5.953   5.860   8.432  0.3119 -0.0520  0.1673
   16SAPS  H15R 2063   5.948   5.894   8.537 -2.8373  1.7817 -0.5290
   16SAPS  C216 2064   5.875   5.737   8.394 -0.1190 -0.1366 -0.5089
   16SAPS  H16R 2065   5.883   5.717   8.285 -2.5900 -0.7592 -0.6085
   16SAPS  H16S 2066   5.772   5.771   8.420  0.0942  2.1630 -2.5205
   16SAPS  C217 2067   5.925   5.615   8.478 -0.3888 -0.5827 -0.1237
   16SAPS  H17R 2068   6.025   5.576   8.448  0.0697  1.1185 -0.8585
   16SAPS  H17S 2069   5.867   5.526   8.446  0.2387 -0.8859 -0.4198
   16SAPS  C218 2070   5.906   5.639   8.630  0.8505 -0.3576 -0.1294
   16SAPS  H18R 2071   5.810   5.693   8.645  1.3997 -0.0924  2.6656
   16SAPS  H18S 2072   5.986   5.710   8.660  1.2416 -0.2827 -1.3292
   16SAPS  C219 2073   5.918   5.518   8.718 -0.6293 -0.5647 -0.1876
   16SAPS  H19R 2074   6.008   5.459   8.693 -1.6433 -1.8464 -0.8487
   16SAPS  H19S 2075   5.832   5.451   8.695  0.1905 -2.4718  2.1248
   16SAPS  C220 2076   5.908   5.558   8.859 -0.6620  0.1807 -0.0552
   16SAPS  H20R 2077   5.804   5.583   8.890 -0.2329  0.1564  1.4428
   16SAPS  H20S 2078   5.979   5.642   8.867 -0.4629 -0.1384  1.7557
   16SAPS  H20T 2079   5.936   5.476   8.929 -0.3050  0.5477  0.2268
   16SAPS   C33 2080   5.956   6.412   7.349  0.2240  0.0980 -0.1194
   16SAPS   H3X 2081   5.860   6.390   7.297 -0.0832 -0.0915  0.5109
   16SAPS   H3Y 2082   5.987   6.514   7.317  1.7519 -0.8552 -1.7300
   16SAPS   C34 2083   5.928   6.408   7.501  0.5016  0.0019  0.2551
   16SAPS   H4X 2084   5.832   6.459   7.522  1.0257  1.1759 -0.1515
   16SAPS   H4Y 2085   6.013   6.466   7.543  1.0304 -0.3825 -0.2816
   16SAPS   C35 2086   5.925   6.259   7.561  0.1548 -0.5270 -0.3880
   16SAPS   H5X 2087   6.033   6.235   7.555  0.4877  1.0588 -0.9590
   16SAPS   H5Y 2088   5.865   6.201   7.488  1.7010 -2.8348  0.1387
   16SAPS   C36 2089   5.863   6.259   7.707  0.5483  0.2287  0.8115
   16SAPS   H6X 2090   5.761   6.302   7.712  0.2167 -0.6386  1.5751
   16SAPS   H6Y 2091   5.936   6.324   7.760  1.7819 -0.6751  0.2404
   16SAPS   C37 2092   5.849   6.109   7.765 -0.1406 -0.0255  0.4029
   16SAPS   H7X 2093   5.944   6.052   7.762 -0.8887 -1.5220  3.1215
   16SAPS   H7Y 2094   5.778   6.046   7.708 -1.6911  2.2356 -0.2550
   16SAPS   C38 2095   5.809   6.108   7.913  0.2717 -0.2068 -0.2676
   16SAPS   H8X 2096   5.772   6.009   7.948  1.7557 -0.3891  0.8163
   16SAPS   H8Y 2097   5.716   6.170   7.915  0.6506  0.5032 -2.8442
   16SAPS   C39 2098   5.911   6.164   8.013 -0.3083  0.3838  0.0705
   16SAPS   H9X 2099   5.923   6.272   7.994 -3.3221  0.9095  0.8483
   16SAPS   H9Y 2100   6.008   6.112   7.998 -1.6240 -1.9402 -0.6350
   16SAPS  C310 2101   5.866   6.128   8.151  0.0345  0.0261  0.9492
   16SAPS  H10X 2102   5.955   6.149   8.215  0.1165 -1.5173  1.3559
   16SAPS  H10Y 2103   5.849   6.018   8.150 -0.6607  0.1230 -2.0713
   16SAPS  C311 2104   5.752   6.207   8.209 -0.0722 -1.1945 -0.4073
   16SAPS  H11X 2105   5.656   6.186   8.158 -0.4399  0.5384 -0.4602
   16SAPS  H11Y 2106   5.775   6.315   8.204  0.9629 -1.3287  0.9858
   16SAPS  C312 2107   5.736   6.193   8.363 -0.3431  0.1065 -0.3729
   16SAPS  H12X 2108   5.835   6.196   8.414 -1.0170 -0.4488  0.9720
   16SAPS  H12Y 2109   5.688   6.098   8.393  1.6430 -0.5579  0.8361
   16SAPS  C313 2110   5.657   6.313   8.431  0.3481 -0.1585 -0.1434
   16SAPS  H13X 2111   5.556   6.318   8.385  1.0046 -1.1490 -1.7112
   16SAPS  H13Y 2112   5.702   6.408   8.395 -1.7047 -0.0123 -2.4632
   16SAPS  C314 2113   5.655   6.316   8.583  0.4611  0.5515 -0.2751
   16SAPS  H14X 2114   5.763   6.315   8.610  0.2459  2.8919  0.7739
   16SAPS  H14Y 2115   5.624   6.217   8.625  0.4061  1.7444  2.6414
   16SAPS  C315 2116   5.569   6.432   8.643  0.2072  0.6223 -0.3423
   16SAPS  H15X 2117   5.462   6.412   8.622  0.8068 -2.3043 -0.8456
   16SAPS  H15Y 2118   5.592   6.527   8.589  1.3019 -0.0231 -1.0328
   16SAPS  C316 2119   5.587   6.461   8.793  0.0691  0.6225  0.5605
   16SAPS  H16X 2120   5.692   6.487   8.820  0.9617 -0.1005 -2.0819
   16SAPS  H16Y 2121   5.542   6.372   8.842 -0.7089  0.8440  0.2518
   16SAPS  C317 2122   5.486   6.575   8.831  0.5585 -0.3499 -0.2420
   16SAPS  H17X 2123   5.386   6.563   8.783 -0.3310  0.6833  1.2999
   16SAPS  H17Y 2124   5.524   6.673   8.794 -1.2812  0.4431 -0.0862
   16SAPS  C318 2125   5.471   6.591   8.978 -0.1445 -0.0632 -0.2675
   16SAPS  H18X 2126   5.454   6.496   9.033  1.2017 -0.1543  0.0080
   16SAPS  H18Y 2127   5.386   6.663   8.987  1.3961  1.5754  1.4680
   16SAPS  H18Z 2128   5.550   6.650   9.029 -0.5470 -1.2198  1.7511
   17SAPC     N 2129   4.467   2.423  10.505  0.0356  0.3072 -0.2150
   17SAPC   C12 2130   4.337   2.357  10.459 -0.0627  0.1652  0.3496
   17SAPC  H12A 2131   4.294   2.301  10.541 -0.0156 -0.8521 -0.3099
   17SAPC  H12B 2132   4.356   2.278  10.387  2.9022 -0.4961  1.7900
   17SAPC   C13 2133   4.523   2.514  10.399 -0.6246 -0.2692  0.6874
   17SAPC  H13A 2134   4.528   2.457  10.307 -1.2716  1.4720 -0.4506
   17SAPC  H13B 2135   4.447   2.589  10.390 -1.4219 -1.0379  0.8878
   17SAPC  H13C 2136   4.623   2.552  10.410 -1.2988  1.6862  0.1400
   17SAPC   C14 2137   4.444   2.495  10.631 -0.2043 -0.0775  0.6298
   17SAPC  H14A 2138   4.369   2.570  10.609  0.1691 -0.0031 -0.4120
   17SAPC  H14B 2139   4.404   2.441  10.715 -2.0056  0.2987  0.0482
   17SAPC  H14C 2140   4.527   2.558  10.659 -0.6068  0.9678 -0.4946
   17SAPC   C15 2141   4.568   2.321  10.536 -0.3272 -0.3251  0.2146
   17SAPC  H15A 2142   4.515   2.252  10.600 -1.5136  2.8347  2.7585
   17SAPC  H15B 2143   4.606   2.268  10.449  1.1434  0.2679  0.4723
   17SAPC  H15C 2144   4.653   2.357  10.593 -1.1956 -0.0706  1.3525
   17SAPC   C11 2145   4.229   2.460  10.407  0.1017  0.6776 -0.3924
   17SAPC  H11A 2146   4.160   2.410  10.336 -0.3247  0.6308  0.0569
   17SAPC  H11B 2147   4.274   2.528  10.332 -0.9241  1.7954 -0.0056
   17SAPC     P 2148   4.014   2.464  10.555  0.0156  0.3317 -0.0060
   17SAPC   O13 2149   4.039   2.384  10.679 -0.0731 -0.7036 -0.4287
   17SAPC   O14 2150   3.917   2.576  10.562 -0.0879 -0.3088 -0.0778
   17SAPC   O12 2151   4.158   2.525  10.513 -0.3421  0.4136 -0.1605
   17SAPC   O11 2152   3.970   2.379  10.423  0.0036  0.1378 -0.1007
   17SAPC    C1 2153   3.880   2.267  10.449 -0.7936 -0.6279 -0.2109
   17SAPC    HA 2154   3.934   2.193  10.511  1.0603  0.6031 -0.3175
   17SAPC    HB 2155   3.789   2.303  10.502 -0.5904 -0.9294  0.3489
   17SAPC    C2 2156   3.826   2.212  10.319 -0.4913 -0.7406 -0.1522
   17SAPC    HS 2157   3.762   2.122  10.334 -0.2495 -1.1868 -1.6658
   17SAPC   O21 2158   3.930   2.185  10.220 -0.1455  0.6366  0.3031
   17SAPC   C21 2159   3.991   2.070  10.247 -0.5523  0.0186 -0.5506
   17SAPC   O22 2160   3.973   2.000  10.343 -0.2111 -0.1743  0.3152
   17SAPC   C22 2161   4.085   2.034  10.133  0.1636  0.3238  0.4006
   17SAPC   H2R 2162   4.115   1.929  10.156 -0.8456 -0.9598 -3.7163
   17SAPC   H2S 2163   4.030   2.035  10.037 -0.4945 -1.4221  0.7281
   17SAPC    C3 2164   3.731   2.316  10.257 -0.1448  0.0543 -0.2587
   17SAPC    HX 2165   3.770   2.418  10.274  0.4970  0.0476 -1.5908
   17SAPC    HY 2166   3.640   2.309  10.320  1.0209  3.4006  1.9295
   17SAPC   O31 2167   3.695   2.280  10.126 -0.2392 -0.5746  0.2041
   17SAPC   C31 2168   3.753   2.341  10.030 -0.0472 -0.0092 -0.7843
   17SAPC   O32 2169   3.848   2.422  10.041 -0.5186  0.3921  0.2605
   17SAPC   C32 2170   3.690   2.299   9.892  0.4653 -0.5993 -0.5578
   17SAPC   H2X 2171   3.582   2.287   9.911  0.3257  0.8956 -0.3431
   17SAPC   H2Y 2172   3.738   2.200   9.874  2.6609  0.2710  0.2225
   17SAPC   C23 2173   4.222   2.106  10.130 -0.4901  0.1660 -0.1348
   17SAPC   H3R 2174   4.290   2.058  10.057 -1.3311 -0.7542 -0.3137
   17SAPC   H3S 2175   4.257   2.099  10.235  1.5118  1.2115 -0.6969
   17SAPC   C24 2176   4.207   2.255  10.096  0.0193 -0.1504 -0.0150
   17SAPC   H4R 2177   4.302   2.310  10.114  0.3177 -1.0217  1.1050
   17SAPC   H4S 2178   4.130   2.294  10.167 -0.4163 -0.4344 -0.3276
   17SAPC   C25 2179   4.153   2.313   9.976 -0.8588 -0.4274  0.2497
   17SAPC   H5R 2180   4.063   2.373   9.996 -1.2405 -1.2158  0.9052
   17SAPC   C26 2181   4.203   2.309   9.849  0.1999  0.6262 -0.5078
   17SAPC   H6R 2182   4.132   2.345   9.772  0.3954 -0.7154 -1.3349
   17SAPC   C27 2183   4.325   2.238   9.804  0.1552  0.7105  0.1661
   17SAPC   H7R 2184   4.403   2.230   9.882 -0.7464  2.1847  1.2432
   17SAPC   H7S 2185   4.368   2.297   9.720 -0.8063  0.2614 -0.6555
   17SAPC   C28 2186   4.284   2.101   9.754  0.3609 -0.0238  0.0997
   17SAPC   H8R 2187   4.277   2.018   9.825  0.0119  1.0010  1.2932
   17SAPC   C29 2188   4.270   2.070   9.624 -0.5082  0.2855  0.4042
   17SAPC   H9R 2189   4.236   1.967   9.603  0.8764  0.3645 -2.4452
   17SAPC  C210 2190   4.291   2.151   9.505 -0.0136  0.7380 -0.2068
   17SAPC  H10R 2191   4.333   2.089   9.423 -0.4874  1.3271 -0.8993
   17SAPC  H10S 2192   4.368   2.231   9.510  1.7578 -0.7321 -2.8489
   17SAPC  C211 2193   4.167   2.218   9.452 -0.4681 -0.3378 -0.4572
   17SAPC  H11R 2194   4.126   2.281   9.532 -0.6353  0.5714 -1.2645
   17SAPC  C212 2195   4.108   2.199   9.333 -0.1367  0.2459 -0.2948
   17SAPC  H12R 2196   4.011   2.243   9.304  0.6991  1.0342 -1.9441
   17SAPC  C213 2197   4.144   2.095   9.232 -0.3560  0.2114  0.3096
   17SAPC  H13R 2198   4.059   2.039   9.188 -0.1811  2.1200 -2.5867
   17SAPC  H13S 2199   4.196   2.006   9.274 -0.8500  0.1478  0.7921
   17SAPC  C214 2200   4.245   2.156   9.130  0.0245 -0.0011 -0.0374
   17SAPC  H14R 2201   4.319   2.227   9.171 -0.3450 -1.1770  2.8099
   17SAPC  C215 2202   4.244   2.115   9.000  0.3899 -0.1862  0.4503
   17SAPC  H15R 2203   4.330   2.144   8.937 -0.4170  0.0549 -0.5672
   17SAPC  C216 2204   4.159   2.022   8.921  0.4206 -0.3141  0.0578
   17SAPC  H16R 2205   4.113   1.945   8.987 -1.1974  2.7799  2.6603
   17SAPC  H16S 2206   4.217   1.968   8.844 -0.6845 -0.8502 -0.4100
   17SAPC  C217 2207   4.055   2.098   8.845 -0.0452  0.0143 -0.0451
   17SAPC  H17R 2208   4.097   2.149   8.756  0.4810 -0.6522 -0.1819
   17SAPC  H17S 2209   4.011   2.181   8.904  0.3313 -0.1344  0.4501
   17SAPC  C218 2210   3.934   2.009   8.810  0.1228  0.1332 -1.4508
   17SAPC  H18R 2211   3.902   1.951   8.899  0.6009  0.5159 -1.0231
   17SAPC  H18S 2212   3.971   1.934   8.738  1.4599 -0.0277 -0.6234
   17SAPC  C219 2213   3.815   2.087   8.757 -0.3249 -0.9043 -0.4214
   17SAPC  H19R 2214   3.768   2.145   8.839  0.0157  0.6701 -1.3213
   17SAPC  H19S 2215   3.731   2.022   8.724  0.1928 -1.1376 -1.3006
   17SAPC  C220 2216   3.841   2.177   8.635 -0.5451  0.2283  0.8549
   17SAPC  H20R 2217   3.919   2.135   8.568 -1.1776 -1.5316  1.2095
   17SAPC  H20S 2218   3.885   2.273   8.672  1.7948 -0.8628  1.0065
   17SAPC  H20T 2219   3.748   2.204   8.581 -0.6942  1.2472  1.6042
   17SAPC   C33 2220   3.730   2.384   9.773  0.5330  0.0970 -0.1684
   17SAPC   H3X 2221   3.838   2.408   9.787  0.6859 -0.2258 -0.7618
   17SAPC   H3Y 2222   3.674   2.480   9.778  0.1579  0.0536 -2.6544
   17SAPC   C34 2223   3.721   2.303   9.637 -0.8443  0.7888 -0.1960
   17SAPC   H4X 2224   3.612   2.283   9.625 -1.0112  0.9755  0.9741
   17SAPC   H4Y 2225   3.770   2.204   9.644  0.8200  1.3460 -2.9871
   17SAPC   C35 2226   3.785   2.369   9.513 -0.3108  0.1142  0.4431
   17SAPC   H5X 2227   3.893   2.381   9.536  0.7730 -0.5368 -3.9622
   17SAPC   H5Y 2228   3.725   2.463   9.509 -1.3244 -0.4160  2.2800
   17SAPC   C36 2229   3.767   2.309   9.380 -0.5630  0.2248 -0.1585
   17SAPC   H6X 2230   3.659   2.287   9.390 -0.5636  0.4334  0.3299
   17SAPC   H6Y 2231   3.829   2.217   9.369 -0.4563  0.0403  1.7880
   17SAPC   C37 2232   3.789   2.401   9.255 -0.2931 -0.6342  0.1444
   17SAPC   H7X 2233   3.897   2.426   9.258 -0.0718 -1.6156  0.3947
   17SAPC   H7Y 2234   3.723   2.491   9.256  1.3170  0.5914  2.7110
   17SAPC   C38 2235   3.773   2.335   9.117 -0.1289  0.1938  0.2807
   17SAPC   H8X 2236   3.671   2.291   9.111  0.2922 -0.9696  1.4278
   17SAPC   H8Y 2237   3.842   2.248   9.120 -1.9447 -1.2493  1.1063
   17SAPC   C39 2238   3.809   2.417   8.996 -0.5262  0.1784 -0.2331
   17SAPC   H9X 2239   3.760   2.517   8.994  0.7623  0.8773  1.7616
   17SAPC   H9Y 2240   3.771   2.367   8.905  0.9254 -0.5909 -0.4137
   17SAPC  C310 2241   3.957   2.440   8.990  0.8121  0.3894 -0.1928
   17SAPC  H10X 2242   4.026   2.363   9.032 -2.1281 -1.0155  2.2871
   17SAPC  H10Y 2243   3.969   2.531   9.053 -0.5964 -0.0261  0.7009
   17SAPC  C311 2244   4.005   2.470   8.851 -0.1641 -0.9268 -0.1522
   17SAPC  H11X 2245   4.007   2.379   8.787  1.7613 -0.4709 -0.7719
   17SAPC  H11Y 2246   4.108   2.511   8.858 -0.2602 -0.0408 -3.1789
   17SAPC  C312 2247   3.930   2.580   8.776  0.4422 -0.0829  0.1693
   17SAPC  H12X 2248   3.948   2.677   8.827 -0.1233  1.2066 -1.9940
   17SAPC  H12Y 2249   3.820   2.567   8.783  0.6330 -1.5558  0.4748
   17SAPC  C313 2250   3.997   2.588   8.639 -0.6673 -0.4478 -0.3407
   17SAPC  H13X 2251   3.921   2.636   8.574 -1.2765 -2.0563 -0.8464
   17SAPC  H13Y 2252   4.016   2.486   8.599  2.7564 -0.2129  0.5807
   17SAPC  C314 2253   4.119   2.678   8.644 -0.1405 -0.2485  0.4242
   17SAPC  H14X 2254   4.209   2.627   8.684 -0.2999 -0.6499  0.2693
   17SAPC  H14Y 2255   4.100   2.767   8.708 -0.7906  0.5718 -0.8884
   17SAPC  C315 2256   4.171   2.727   8.503 -0.3942 -0.7685  0.1692
   17SAPC  H15X 2257   4.079   2.772   8.461 -0.2177 -2.5788 -2.2770
   17SAPC  H15Y 2258   4.200   2.642   8.437  0.5357 -0.5922  0.3431
   17SAPC  C316 2259   4.294   2.819   8.520 -0.0139  0.3719  0.2596
   17SAPC  H16X 2260   4.386   2.761   8.545 -0.8845 -1.2550 -0.2065
   17SAPC  H16Y 2261   4.266   2.893   8.598  0.5622 -0.0895  0.9125
   17SAPC  C317 2262   4.324   2.897   8.393 -0.3149  0.5382  0.4039
   17SAPC  H17X 2263   4.373   2.995   8.410  2.5228 -1.1533  2.4652
   17SAPC  H17Y 2264   4.226   2.938   8.360 -0.7758 -0.2926  0.7287
   17SAPC  C318 2265   4.390   2.821   8.284 -0.3640 -0.0293 -0.3677
   17SAPC  H18X 2266   4.321   2.740   8.249  0.1432  0.4516 -2.5640
   17SAPC  H18Y 2267   4.415   2.887   8.199  1.2878 -0.1883 -0.0274
   17SAPC  H18Z 2268   4.485   2.770   8.310  1.2955  3.5383  0.7603
   18SAPC     N 2269   5.586   2.734  10.720  0.0761 -0.8276  0.4182
   18SAPC   C12 2270   5.645   2.595  10.691 -0.5598 -0.3761 -0.2021
   18SAPC  H12A 2271   5.585   2.517  10.735  1.0201 -0.7164  1.4175
   18SAPC  H12B 2272   5.746   2.585  10.728  0.0216 -1.5558 -2.0555
   18SAPC   C13 2273   5.640   2.837  10.621 -0.0835 -0.2852  0.2394
   18SAPC  H13A 2274   5.748   2.847  10.617 -0.1841  0.3867 -1.3808
   18SAPC  H13B 2275   5.593   2.805  10.529 -0.5611  0.7925  0.1007
   18SAPC  H13C 2276   5.605   2.936  10.645  0.3425 -0.4890  1.7094
   18SAPC   C14 2277   5.438   2.728  10.687  0.2813  0.9551 -0.5699
   18SAPC  H14A 2278   5.400   2.827  10.705  1.0497  1.6433 -2.5530
   18SAPC  H14B 2279   5.421   2.705  10.583  2.4504 -0.4762 -0.6564
   18SAPC  H14C 2280   5.383   2.657  10.747  0.6837  0.4836 -0.7556
   18SAPC   C15 2281   5.596   2.765  10.867 -0.0651 -0.2727 -0.1652
   18SAPC  H15A 2282   5.553   2.858  10.903 -0.7843 -1.3806  1.9199
   18SAPC  H15B 2283   5.546   2.685  10.919  0.3027  1.3739  2.8295
   18SAPC  H15C 2284   5.702   2.772  10.885 -0.0957  0.1864 -0.1456
   18SAPC   C11 2285   5.646   2.563  10.538 -0.1487 -0.0943  0.1724
   18SAPC  H11A 2286   5.691   2.462  10.527 -1.5946 -0.6603 -0.8017
   18SAPC  H11B 2287   5.712   2.636  10.488  1.5049 -1.1920  0.6909
   18SAPC     P 2288   5.427   2.451  10.453  0.3587  0.1631 -0.0058
   18SAPC   O13 2289   5.375   2.397  10.581  0.7903  0.0468  0.5504
   18SAPC   O14 2290   5.321   2.497  10.357  0.4102 -0.0919 -0.4572
   18SAPC   O12 2291   5.519   2.571  10.473 -0.1302  0.3762 -0.6704
   18SAPC   O11 2292   5.512   2.346  10.371 -0.3533 -0.5043 -0.0183
   18SAPC    C1 2293   5.543   2.217  10.418  0.4967  1.4090 -0.4316
   18SAPC    HA 2294   5.634   2.188  10.362  1.5274  0.4254  1.6944
   18SAPC    HB 2295   5.564   2.212  10.527  2.3312  3.1130 -0.6724
   18SAPC    C2 2296   5.442   2.103  10.382 -0.4934 -0.1807  0.2080
   18SAPC    HS 2297   5.501   2.016  10.417  1.5623  0.9540 -0.3487
   18SAPC   O21 2298   5.426   2.101  10.239 -0.0810 -0.3450 -0.3907
   18SAPC   C21 2299   5.525   2.057  10.163 -0.3547 -0.2988 -0.0000
   18SAPC   O22 2300   5.616   1.990  10.209 -0.7682  0.3084  0.8317
   18SAPC   C22 2301   5.499   2.104  10.024 -0.2111  0.3354 -0.2735
   18SAPC   H2R 2302   5.397   2.146  10.011  0.3353  1.4010 -1.2634
   18SAPC   H2S 2303   5.565   2.190   9.998 -0.2365  0.8338  1.2454
   18SAPC    C3 2304   5.306   2.112  10.457  0.0579 -0.1282 -0.4753
   18SAPC    HX 2305   5.251   2.203  10.426  0.3249  0.0464 -0.4326
   18SAPC    HY 2306   5.326   2.109  10.566  2.1334  0.0253 -0.8395
   18SAPC   O31 2307   5.235   1.986  10.448 -0.2773  0.2439  0.3993
   18SAPC   C31 2308   5.134   1.981  10.356 -0.1228 -0.7047 -0.1156
   18SAPC   O32 2309   5.092   2.081  10.302 -0.2544 -0.0476  0.0088
   18SAPC   C32 2310   5.075   1.842  10.350 -0.5041 -0.6625 -0.6758
   18SAPC   H2X 2311   4.976   1.821  10.395 -1.0041  1.8847 -0.5377
   18SAPC   H2Y 2312   5.148   1.775  10.401 -1.1931 -0.4082  0.6590
   18SAPC   C23 2313   5.544   2.000   9.919 -0.1052 -0.7788 -0.9257
   18SAPC   H3R 2314   5.476   1.912   9.922 -0.7848 -0.2462 -0.8130
   18SAPC   H3S 2315   5.646   1.964   9.945 -0.1402 -0.8887 -0.9372
   18SAPC   C24 2316   5.543   2.042   9.766  0.3072 -0.1377 -0.0019
   18SAPC   H4R 2317   5.593   1.961   9.708 -0.9576 -3.4061  3.2951
   18SAPC   H4S 2318   5.612   2.128   9.751  1.7139 -0.8977  1.9874
   18SAPC   C25 2319   5.403   2.075   9.720  0.1090 -0.8137  0.1722
   18SAPC   H5R 2320   5.325   2.114   9.786  1.9085  3.3241  0.0528
   18SAPC   C26 2321   5.365   2.040   9.594  0.8665 -0.1672 -0.3894
   18SAPC   H6R 2322   5.259   2.063   9.576  0.1238 -1.6966  1.7446
   18SAPC   C27 2323   5.455   1.974   9.493 -0.1133  0.7322  0.1379
   18SAPC   H7R 2324   5.458   1.870   9.532 -4.2218  0.7419  0.7863
   18SAPC   H7S 2325   5.561   2.006   9.503  0.6247 -0.4730 -3.1915
   18SAPC   C28 2326   5.402   1.961   9.355  0.8130  0.4350 -0.1142
   18SAPC   H8R 2327   5.319   2.031   9.338  0.0351 -0.5318 -0.3387
   18SAPC   C29 2328   5.426   1.865   9.265  0.2445 -0.0673  0.0852
   18SAPC   H9R 2329   5.385   1.884   9.165 -0.3281 -1.0954  0.1191
   18SAPC  C210 2330   5.524   1.745   9.269  0.4652 -0.4747 -0.3638
   18SAPC  H10R 2331   5.607   1.742   9.344  1.0561 -3.6673 -1.0690
   18SAPC  H10S 2332   5.576   1.745   9.171  0.2401 -1.5923 -0.4870
   18SAPC  C211 2333   5.452   1.614   9.289  0.2418  0.3189 -0.5804
   18SAPC  H11R 2334   5.452   1.585   9.395  2.0288  0.2939 -0.5746
   18SAPC  C212 2335   5.396   1.544   9.196 -0.6475  0.0995  0.2394
   18SAPC  H12R 2336   5.338   1.456   9.226  0.8743 -1.2487 -0.6523
   18SAPC  C213 2337   5.402   1.582   9.048 -0.3970  0.6698 -0.2522
   18SAPC  H13R 2338   5.441   1.685   9.033 -0.0366  0.7513  1.0965
   18SAPC  H13S 2339   5.303   1.582   8.999 -0.9138  1.0778  0.7653
   18SAPC  C214 2340   5.493   1.482   8.983  0.4928 -0.8286 -0.6067
   18SAPC  H14R 2341   5.600   1.499   8.999 -0.5066  4.3403  1.4447
   18SAPC  C215 2342   5.457   1.387   8.887  0.5314 -0.6898 -1.0277
   18SAPC  H15R 2343   5.541   1.326   8.851  0.7946 -1.2262  0.4797
   18SAPC  C216 2344   5.323   1.363   8.830 -1.0239  0.2274 -0.2039
   18SAPC  H16R 2345   5.254   1.444   8.862 -0.7488 -0.7548  3.0350
   18SAPC  H16S 2346   5.295   1.260   8.861  0.7016 -1.3420 -3.5796
   18SAPC  C217 2347   5.319   1.354   8.671 -0.1679  0.8901 -0.2811
   18SAPC  H17R 2348   5.377   1.274   8.620 -1.4481 -0.1343 -0.1615
   18SAPC  H17S 2349   5.368   1.443   8.627 -0.8922  0.7083 -1.4715
   18SAPC  C218 2350   5.173   1.344   8.612  0.0587  0.1988 -0.5203
   18SAPC  H18R 2351   5.106   1.427   8.644  0.8122 -0.2378  2.3737
   18SAPC  H18S 2352   5.123   1.254   8.656  3.9634 -2.3442 -1.0362
   18SAPC  C219 2353   5.176   1.349   8.460 -0.2195  0.7735  0.6218
   18SAPC  H19R 2354   5.275   1.314   8.424 -0.6115 -0.3077  0.5734
   18SAPC  H19S 2355   5.175   1.458   8.440  3.1391  0.6039 -0.8760
   18SAPC  C220 2356   5.057   1.275   8.397  0.7755 -0.2328  0.3622
   18SAPC  H20R 2357   4.961   1.316   8.435  0.3090 -1.5121  0.5919
   18SAPC  H20S 2358   5.059   1.173   8.441  0.0725 -0.4366 -0.0724
   18SAPC  H20T 2359   5.078   1.284   8.288  2.2798  0.7068  0.7126
   18SAPC   C33 2360   5.071   1.795  10.209 -0.3868  0.2945  1.3669
   18SAPC   H3X 2361   5.028   1.878  10.149  0.0607  0.3385  1.1050
   18SAPC   H3Y 2362   4.997   1.716  10.183  1.3867 -1.3352  1.1304
   18SAPC   C34 2363   5.206   1.744  10.149  0.6392  0.2978  0.5057
   18SAPC   H4X 2364   5.223   1.637  10.173  0.1897 -0.4646 -2.3026
   18SAPC   H4Y 2365   5.290   1.803  10.192  0.5697 -0.1514  1.2526
   18SAPC   C35 2366   5.191   1.747   9.995  0.6940 -0.0852 -0.1457
   18SAPC   H5X 2367   5.192   1.853   9.959 -1.0863 -0.2878 -0.8568
   18SAPC   H5Y 2368   5.097   1.702   9.959  0.2591  0.9819 -0.3717
   18SAPC   C36 2369   5.310   1.670   9.933 -0.3349  0.0375 -0.0656
   18SAPC   H6X 2370   5.295   1.562   9.956 -0.5881  0.4287  1.6876
   18SAPC   H6Y 2371   5.408   1.708   9.967 -0.9535  1.0029  0.6613
   18SAPC   C37 2372   5.300   1.681   9.776 -0.6006  0.0728  0.0551
   18SAPC   H7X 2373   5.396   1.640   9.738  0.7868  1.2368  2.1951
   18SAPC   H7Y 2374   5.288   1.786   9.742 -0.0863 -0.0179 -0.4068
   18SAPC   C38 2375   5.188   1.594   9.718 -0.0380  0.1517  0.2823
   18SAPC   H8X 2376   5.089   1.643   9.734  0.4031  1.1840 -0.0838
   18SAPC   H8Y 2377   5.190   1.491   9.760 -1.3819  0.9212  2.3094
   18SAPC   C39 2378   5.186   1.587   9.564  0.1081  0.1107  0.4132
   18SAPC   H9X 2379   5.277   1.529   9.540  0.3057 -0.2844  2.0319
   18SAPC   H9Y 2380   5.192   1.693   9.531  1.7009  0.4939  1.8257
   18SAPC  C310 2381   5.056   1.514   9.516  0.0306 -0.0860  0.3989
   18SAPC  H10X 2382   4.965   1.577   9.530  0.3663  0.7132 -0.9216
   18SAPC  H10Y 2383   5.047   1.419   9.573 -1.1693 -1.8279 -2.5351
   18SAPC  C311 2384   5.062   1.481   9.366 -0.1394 -0.1802  0.1547
   18SAPC  H11X 2385   5.145   1.412   9.341  0.4486  0.0989  1.3018
   18SAPC  H11Y 2386   5.069   1.576   9.310 -0.1236 -0.6899 -0.7170
   18SAPC  C312 2387   4.933   1.425   9.306 -0.4448  0.1432 -0.4650
   18SAPC  H12X 2388   4.848   1.494   9.322  0.3403  1.0015  0.0091
   18SAPC  H12Y 2389   4.910   1.332   9.362  1.2939 -0.9065 -1.4297
   18SAPC  C313 2390   4.948   1.383   9.149 -0.1584  0.7627 -0.1782
   18SAPC  H13X 2391   5.045   1.331   9.136  0.0483  0.8137  1.1673
   18SAPC  H13Y 2392   4.964   1.479   9.094 -0.8212  1.6986  1.2377
   18SAPC  C314 2393   4.834   1.310   9.087  0.4253  0.0743  0.0864
   18SAPC  H14X 2394   4.741   1.367   9.108  1.3258  1.1086  1.4437
   18SAPC  H14Y 2395   4.820   1.211   9.135  2.6379 -0.6466 -0.6994
   18SAPC  C315 2396   4.857   1.278   8.942 -1.0368 -0.5311 -0.5525
   18SAPC  H15X 2397   4.952   1.220   8.935  0.3182  1.2833  1.8585
   18SAPC  H15Y 2398   4.862   1.376   8.889 -3.6933 -0.3345 -0.4774
   18SAPC  C316 2399   4.744   1.201   8.886 -0.5326  0.5162  0.0097
   18SAPC  H16X 2400   4.652   1.263   8.882  1.0467  2.8011 -2.5515
   18SAPC  H16Y 2401   4.713   1.116   8.950 -1.5299  0.4427 -0.5691
   18SAPC  C317 2402   4.776   1.153   8.740  0.2168  0.3856  0.6750
   18SAPC  H17X 2403   4.869   1.092   8.740  0.2837  0.3107 -3.8085
   18SAPC  H17Y 2404   4.805   1.245   8.684 -2.0998  0.6446 -0.1416
   18SAPC  C318 2405   4.659   1.082   8.661  0.2267  1.1971  0.0757
   18SAPC  H18X 2406   4.596   1.016   8.724  2.5939  0.7162  2.0286
   18SAPC  H18Y 2407   4.713   1.031   8.577  0.4186 -0.6320  1.2917
   18SAPC  H18Z 2408   4.593   1.160   8.619 -0.2568  0.6148 -0.2526
   19SAPC     N 2409   3.698   2.944  10.521  0.8907 -0.6044 -0.4025
   19SAPC   C12 2410   3.656   3.037  10.409 -0.0998 -0.7580 -0.4163
   19SAPC  H12A 2411   3.569   3.089  10.446  0.4927 -1.2791  1.7886
   19SAPC  H12B 2412   3.609   2.988  10.325  0.8784 -1.6092 -0.4808
   19SAPC   C13 2413   3.753   3.022  10.637 -0.8640  0.9591  0.1380
   19SAPC  H13A 2414   3.812   2.952  10.695  2.1850  1.0336 -2.7349
   19SAPC  H13B 2415   3.827   3.091  10.599 -0.2249  0.0334 -0.3012
   19SAPC  H13C 2416   3.672   3.067  10.693 -2.7904 -0.1891 -1.6795
   19SAPC   C14 2417   3.585   2.858  10.567  0.3212  0.0490  0.0744
   19SAPC  H14A 2418   3.500   2.911  10.609 -0.4743 -2.2604  1.4721
   19SAPC  H14B 2419   3.544   2.799  10.487  0.3407  2.6994 -1.9760
   19SAPC  H14C 2420   3.627   2.786  10.636 -0.6093  0.0753  0.6825
   19SAPC   C15 2421   3.801   2.851  10.464 -0.5804 -0.6513  0.5422
   19SAPC  H15A 2422   3.874   2.888  10.394  0.8004 -0.1962  2.1748
   19SAPC  H15B 2423   3.863   2.800  10.536  2.7814  2.0453 -0.3210
   19SAPC  H15C 2424   3.755   2.766  10.415  2.1247 -0.9879 -1.5182
   19SAPC   C11 2425   3.761   3.140  10.360  0.4393 -0.3297  0.5395
   19SAPC  H11A 2426   3.730   3.183  10.262  2.4411 -2.1359 -0.9316
   19SAPC  H11B 2427   3.856   3.094  10.328  0.7059  2.1644 -2.5374
   19SAPC     P 2428   3.930   3.318  10.459 -0.1632 -0.4725 -0.1521
   19SAPC   O13 2429   3.944   3.403  10.579  0.0943 -0.1014  0.2556
   19SAPC   O14 2430   4.042   3.224  10.436  0.5716  0.3562  0.2944
   19SAPC   O12 2431   3.789   3.239  10.455  0.1895 -0.1023  0.2502
   19SAPC   O11 2432   3.926   3.424  10.335 -0.5179 -0.5964 -0.1210
   19SAPC    C1 2433   3.837   3.537  10.350 -0.6877 -0.0741 -0.5244
   19SAPC    HA 2434   3.736   3.497  10.372 -0.8760  0.0353 -1.1772
   19SAPC    HB 2435   3.858   3.608  10.432  1.8310 -0.6023 -0.6687
   19SAPC    C2 2436   3.820   3.608  10.206 -0.3783 -0.1538 -0.2529
   19SAPC    HS 2437   3.748   3.693  10.210 -0.2327 -0.0579  0.3442
   19SAPC   O21 2438   3.767   3.512  10.115 -0.1640  0.5055 -0.2950
   19SAPC   C21 2439   3.643   3.487  10.130 -0.0518 -0.4171  0.3340
   19SAPC   O22 2440   3.562   3.547  10.196 -0.2219 -0.3080  0.1164
   19SAPC   C22 2441   3.616   3.366  10.038  0.0326  0.3227 -0.0052
   19SAPC   H2R 2442   3.644   3.392   9.935  1.0699  0.7487  0.3840
   19SAPC   H2S 2443   3.680   3.286  10.080 -2.3788 -0.5338  2.2405
   19SAPC    C3 2444   3.961   3.655  10.155 -0.5954  0.1650  0.3198
   19SAPC    HX 2445   4.006   3.561  10.118 -2.7140 -1.0166  0.6967
   19SAPC    HY 2446   4.038   3.684  10.230  1.2925  1.0822 -1.9105
   19SAPC   O31 2447   3.943   3.751  10.045 -0.3525 -0.2604  0.1710
   19SAPC   C31 2448   3.941   3.877  10.079 -0.0445 -0.5282 -0.3668
   19SAPC   O32 2449   3.952   3.919  10.197 -0.3558  0.5372 -0.1866
   19SAPC   C32 2450   3.923   3.963   9.953  0.1011 -0.6378  0.6569
   19SAPC   H2X 2451   3.937   4.073   9.962  0.4569 -0.6274  0.0066
   19SAPC   H2Y 2452   3.821   3.942   9.915  0.1214 -0.6149  0.5883
   19SAPC   C23 2453   3.467   3.314  10.025  0.3751  0.0656  0.4284
   19SAPC   H3R 2454   3.420   3.326  10.125 -1.9343  0.3370 -0.6576
   19SAPC   H3S 2455   3.466   3.209   9.991  2.3007  0.8468 -2.2200
   19SAPC   C24 2456   3.396   3.391   9.913 -0.1128  0.0125 -0.2126
   19SAPC   H4R 2457   3.291   3.355   9.909 -0.0032 -0.5850  1.8763
   19SAPC   H4S 2458   3.433   3.359   9.813  0.3440  0.0235 -0.0475
   19SAPC   C25 2459   3.381   3.543   9.936  0.9241  0.3149  0.2787
   19SAPC   H5R 2460   3.325   3.565  10.028 -1.8883  0.2046 -1.3864
   19SAPC   C26 2461   3.443   3.641   9.861  0.2250  0.9693 -0.9525
   19SAPC   H6R 2462   3.404   3.741   9.886 -0.7737  0.1040  1.0436
   19SAPC   C27 2463   3.518   3.623   9.735 -0.4612 -0.7664 -0.1376
   19SAPC   H7R 2464   3.497   3.698   9.656 -0.1439  0.9696  1.4010
   19SAPC   H7S 2465   3.493   3.527   9.683 -0.9294 -0.6544 -0.1200
   19SAPC   C28 2466   3.673   3.623   9.750 -0.0029 -0.2831  0.1745
   19SAPC   H8R 2467   3.715   3.632   9.851  1.0483 -0.8319 -0.2083
   19SAPC   C29 2468   3.750   3.605   9.644  0.1690  0.8702 -0.5844
   19SAPC   H9R 2469   3.859   3.603   9.656 -0.0706 -1.2852  1.5840
   19SAPC  C210 2470   3.709   3.583   9.496  0.0048 -0.9460 -0.3467
   19SAPC  H10R 2471   3.620   3.643   9.465 -1.7202 -2.9984  0.5099
   19SAPC  H10S 2472   3.670   3.479   9.485  1.3553 -1.6224  1.0492
   19SAPC  C211 2473   3.808   3.615   9.386  0.2761 -0.3290 -0.2619
   19SAPC  H11R 2474   3.898   3.665   9.427  1.0554 -1.1393 -0.9475
   19SAPC  C212 2475   3.800   3.587   9.258  0.3273 -0.3191 -0.5815
   19SAPC  H12R 2476   3.882   3.614   9.190  1.4058 -1.8216  0.1082
   19SAPC  C213 2477   3.685   3.518   9.178  0.3062 -0.5603 -0.8796
   19SAPC  H13R 2478   3.615   3.474   9.253  0.9687 -0.2247 -0.0627
   19SAPC  H13S 2479   3.729   3.427   9.132 -2.3479 -3.1648  1.4818
   19SAPC  C214 2480   3.611   3.603   9.074 -0.2114  0.4562  0.5623
   19SAPC  H14R 2481   3.509   3.631   9.107 -0.5748 -1.3584  1.0042
   19SAPC  C215 2482   3.641   3.644   8.949  0.2252  0.2795  0.9480
   19SAPC  H15R 2483   3.569   3.709   8.898 -1.1533 -1.2435  0.9108
   19SAPC  C216 2484   3.769   3.624   8.873  0.7080 -0.1670 -0.2801
   19SAPC  H16R 2485   3.844   3.569   8.934 -2.0291 -1.4186  2.0913
   19SAPC  H16S 2486   3.827   3.712   8.838  0.9811  0.5885  2.0214
   19SAPC  C217 2487   3.732   3.519   8.767 -0.5714  0.8046 -0.0051
   19SAPC  H17R 2488   3.675   3.572   8.687 -1.1929 -0.1284 -0.1923
   19SAPC  H17S 2489   3.665   3.437   8.801 -0.4654  0.4744 -0.5890
   19SAPC  C218 2490   3.863   3.456   8.697  0.0423 -0.5534 -0.6451
   19SAPC  H18R 2491   3.831   3.367   8.639 -0.2548  0.7522 -2.5565
   19SAPC  H18S 2492   3.920   3.411   8.781 -1.3880  0.2805  0.7968
   19SAPC  C219 2493   3.936   3.561   8.609  0.2116 -0.0823  0.3397
   19SAPC  H19R 2494   4.019   3.509   8.557  0.2176 -0.3343  0.5965
   19SAPC  H19S 2495   3.986   3.630   8.680  1.6599 -1.0540  0.2790
   19SAPC  C220 2496   3.861   3.644   8.506  0.5729 -0.6045  0.3381
   19SAPC  H20R 2497   3.926   3.716   8.452  0.2736  1.3420  2.4950
   19SAPC  H20S 2498   3.771   3.695   8.548 -0.7765 -0.6025 -2.4127
   19SAPC  H20T 2499   3.815   3.581   8.427  1.3917 -0.4699 -0.2466
   19SAPC   C33 2500   4.008   3.910   9.835  0.2098  0.0401  0.1854
   19SAPC   H3X 2501   4.015   3.800   9.825 -0.8339  0.0742 -1.0435
   19SAPC   H3Y 2502   4.113   3.940   9.852  0.6638 -1.7566  0.6417
   19SAPC   C34 2503   3.958   3.959   9.696  0.0255  0.1322  0.2637
   19SAPC   H4X 2504   3.964   4.069   9.684  1.8808  0.1204  0.9145
   19SAPC   H4Y 2505   3.850   3.935   9.685  0.3858 -2.3673  1.8736
   19SAPC   C35 2506   4.037   3.895   9.578  0.1965  0.1819 -0.1444
   19SAPC   H5X 2507   4.026   3.784   9.576  2.2494 -0.0624  1.6087
   19SAPC   H5Y 2508   4.141   3.926   9.602  0.0020  0.3771  0.4497
   19SAPC   C36 2509   3.984   3.941   9.440 -1.0638  0.7014  0.7793
   19SAPC   H6X 2510   3.988   4.052   9.446  2.0445  0.6228  0.9246
   19SAPC   H6Y 2511   3.881   3.905   9.421 -0.6450  0.8178 -1.8791
   19SAPC   C37 2512   4.083   3.907   9.321  0.3143  0.0887 -0.3832
   19SAPC   H7X 2513   4.074   3.800   9.293  0.0792 -0.2787  1.0817
   19SAPC   H7Y 2514   4.185   3.920   9.361 -0.8292  0.2184  2.5903
   19SAPC   C38 2515   4.056   3.976   9.190 -0.4026  1.0022 -0.4744
   19SAPC   H8X 2516   4.066   4.087   9.198 -0.2435  0.9863 -0.4624
   19SAPC   H8Y 2517   3.957   3.950   9.147  0.1389 -1.8554 -0.0546
   19SAPC   C39 2518   4.153   3.911   9.082  0.6568  0.0825  0.8592
   19SAPC   H9X 2519   4.150   3.800   9.079 -1.9410  0.1667 -1.2677
   19SAPC   H9Y 2520   4.252   3.956   9.106  0.0499  2.6283 -1.1939
   19SAPC  C310 2521   4.127   3.952   8.937  0.9375  0.1861  0.7507
   19SAPC  H10X 2522   4.206   3.914   8.869 -0.9055  0.8951 -1.8492
   19SAPC  H10Y 2523   4.149   4.060   8.933 -0.5210  0.3938 -3.3099
   19SAPC  C311 2524   3.990   3.916   8.881 -0.1674  0.0782  0.6978
   19SAPC  H11X 2525   3.907   3.960   8.939 -0.0366  0.3928  0.6471
   19SAPC  H11Y 2526   3.979   3.807   8.899  1.9617 -0.3106 -0.2055
   19SAPC  C312 2527   3.966   3.931   8.730 -0.2486 -1.0054  0.4593
   19SAPC  H12X 2528   3.892   3.859   8.689  1.5368 -1.8502 -1.4064
   19SAPC  H12Y 2529   4.064   3.924   8.678 -0.8618  2.4388 -1.3443
   19SAPC  C313 2530   3.921   4.074   8.703  0.5600  0.1099 -0.6711
   19SAPC  H13X 2531   4.010   4.138   8.722  1.3202 -0.9360 -0.6266
   19SAPC  H13Y 2532   3.845   4.119   8.771 -1.0120  1.5923 -3.3281
   19SAPC  C314 2533   3.872   4.092   8.560 -0.7949 -0.3250 -0.1667
   19SAPC  H14X 2534   3.786   4.024   8.539  0.3466 -1.2777 -1.8965
   19SAPC  H14Y 2535   3.949   4.066   8.485  0.9058  0.1822  1.3665
   19SAPC  C315 2536   3.827   4.247   8.551 -0.2924  0.0041 -0.1214
   19SAPC  H15X 2537   3.914   4.310   8.577 -0.9831  1.6708 -1.7061
   19SAPC  H15Y 2538   3.757   4.272   8.634 -0.7917  1.3385 -0.9384
   19SAPC  C316 2539   3.774   4.282   8.408  0.1568 -0.5310 -0.6504
   19SAPC  H16X 2540   3.699   4.211   8.368 -1.2322  0.3147  0.4097
   19SAPC  H16Y 2541   3.857   4.279   8.334 -0.1691 -1.3552 -0.9740
   19SAPC  C317 2542   3.698   4.419   8.388 -0.4155 -0.2373  0.7250
   19SAPC  H17X 2543   3.758   4.511   8.368 -0.2921 -0.9013 -2.1998
   19SAPC  H17Y 2544   3.640   4.448   8.478  0.3663 -1.0337  1.5022
   19SAPC  C318 2545   3.608   4.425   8.264  0.3434 -0.3401  0.3339
   19SAPC  H18X 2546   3.661   4.425   8.167  1.0234  1.5545  0.6827
   19SAPC  H18Y 2547   3.560   4.525   8.255 -0.9209 -0.7972  1.7954
   19SAPC  H18Z 2548   3.530   4.346   8.257 -1.0791  0.8512  2.2595
   20SAPC     N 2549   3.547   0.678  11.164  0.0233 -0.4243  0.6215
   20SAPC   C12 2550   3.630   0.771  11.249 -0.5280 -0.5042 -0.4145
   20SAPC  H12A 2551   3.730   0.732  11.247  0.2313  1.2560  1.8410
   20SAPC  H12B 2552   3.598   0.772  11.352 -0.9796  2.0207 -0.5391
   20SAPC   C13 2553   3.571   0.538  11.203  0.7370  0.0243  0.2633
   20SAPC  H13A 2554   3.581   0.530  11.310  3.1189 -0.3782  0.0342
   20SAPC  H13B 2555   3.487   0.474  11.179  1.4333 -1.2924  1.2942
   20SAPC  H13C 2556   3.667   0.509  11.164  1.0683  1.3107  0.1127
   20SAPC   C14 2557   3.408   0.715  11.192  1.0487  0.2223 -0.1819
   20SAPC  H14A 2558   3.334   0.671  11.127 -0.5493  0.7498  1.2295
   20SAPC  H14B 2559   3.391   0.684  11.294 -1.7012  1.1736 -0.3045
   20SAPC  H14C 2560   3.387   0.821  11.193 -0.1299 -0.0047  1.0243
   20SAPC   C15 2561   3.578   0.695  11.016 -0.8418 -0.1163 -0.4641
   20SAPC  H15A 2562   3.592   0.798  10.987 -1.5957  0.7035  1.9322
   20SAPC  H15B 2563   3.669   0.642  10.995 -0.2812  0.4781  0.4434
   20SAPC  H15C 2564   3.493   0.663  10.957 -0.5650  1.6432 -1.8783
   20SAPC   C11 2565   3.657   0.909  11.186  0.0223  0.2758 -0.1124
   20SAPC  H11A 2566   3.715   0.894  11.093 -0.2010  3.0470 -0.7492
   20SAPC  H11B 2567   3.720   0.979  11.245 -0.5670  1.2855 -0.6752
   20SAPC     P 2568   3.520   1.078  11.044  0.3009 -0.2033  0.6042
   20SAPC   O13 2569   3.377   1.127  11.019  0.0618 -0.1357 -0.4598
   20SAPC   O14 2570   3.630   1.172  11.055 -0.6668  0.3463 -0.3116
   20SAPC   O12 2571   3.529   0.978  11.166  0.2896 -0.3274 -0.0923
   20SAPC   O11 2572   3.560   0.978  10.929 -0.3342  0.4618  0.3689
   20SAPC    C1 2573   3.485   0.982  10.811 -0.0908  0.0119  0.4958
   20SAPC    HA 2574   3.398   0.913  10.825 -0.5065  0.5428  0.5431
   20SAPC    HB 2575   3.445   1.080  10.779 -3.2573 -1.4806 -0.3479
   20SAPC    C2 2576   3.564   0.924  10.689  0.2781 -0.2084  0.4654
   20SAPC    HS 2577   3.595   0.820  10.711 -1.4192 -0.3235  2.4958
   20SAPC   O21 2578   3.676   1.013  10.666 -0.0943  0.3023 -0.7229
   20SAPC   C21 2579   3.794   0.953  10.622  0.4681  0.7809  0.0134
   20SAPC   O22 2580   3.801   0.830  10.596  0.3921 -0.3355 -0.2640
   20SAPC   C22 2581   3.902   1.055  10.610  0.5423  0.0928  0.0645
   20SAPC   H2R 2582   3.878   1.151  10.660 -2.5085 -0.4033 -0.3953
   20SAPC   H2S 2583   3.993   1.011  10.656 -0.3848 -0.2782  1.5626
   20SAPC    C3 2584   3.483   0.923  10.561  0.1540 -0.3825  0.2170
   20SAPC    HX 2585   3.453   1.025  10.528  1.9417  0.6051  1.5268
   20SAPC    HY 2586   3.388   0.869  10.579 -0.6600  0.4135 -1.5352
   20SAPC   O31 2587   3.564   0.871  10.454  0.5301 -0.3987  0.1525
   20SAPC   C31 2588   3.571   0.738  10.447  0.0371 -0.2231  0.7406
   20SAPC   O32 2589   3.520   0.653  10.522  0.2893  0.5076  0.1889
   20SAPC   C32 2590   3.651   0.693  10.326 -0.6039 -0.3509  0.0927
   20SAPC   H2X 2591   3.757   0.708  10.354 -1.3896  0.4664  2.8521
   20SAPC   H2Y 2592   3.629   0.753  10.235  0.8690  2.2393  1.3737
   20SAPC   C23 2593   3.925   1.091  10.448  0.0911 -0.5238 -0.3552
   20SAPC   H3R 2594   3.965   1.003  10.394 -0.7735 -2.1609  1.6364
   20SAPC   H3S 2595   4.007   1.165  10.456  1.5464 -2.2967  1.3178
   20SAPC   C24 2596   3.799   1.156  10.389 -0.4041  0.4069  0.1038
   20SAPC   H4R 2597   3.762   1.228  10.466 -0.5502 -0.1018  0.5111
   20SAPC   H4S 2598   3.712   1.088  10.383 -0.6597  0.5334  2.0654
   20SAPC   C25 2599   3.842   1.226  10.262 -0.6163 -0.5378 -0.1588
   20SAPC   H5R 2600   3.909   1.311  10.279 -2.4306  1.1264 -1.2127
   20SAPC   C26 2601   3.804   1.187  10.137  0.4277 -0.2150  0.1328
   20SAPC   H6R 2602   3.827   1.252  10.052  0.5130 -0.9575 -0.4192
   20SAPC   C27 2603   3.719   1.062  10.097 -0.0140  0.3316  0.1644
   20SAPC   H7R 2604   3.635   1.099  10.034  0.6383 -1.0648 -1.5662
   20SAPC   H7S 2605   3.675   1.001  10.179 -0.8168  2.0261  1.0425
   20SAPC   C28 2606   3.793   0.970  10.007  0.0509 -0.0887 -0.0803
   20SAPC   H8R 2607   3.901   0.989   9.996 -0.3084  0.7598 -2.6844
   20SAPC   C29 2608   3.730   0.881   9.928  0.3570  0.2593 -0.7315
   20SAPC   H9R 2609   3.785   0.808   9.866  2.6143  0.7465  0.6676
   20SAPC  C210 2610   3.583   0.850   9.936  0.7473 -0.2425 -0.8036
   20SAPC  H10R 2611   3.529   0.946   9.928 -0.2724 -0.8781 -1.7231
   20SAPC  H10S 2612   3.558   0.785  10.023 -0.4785  1.4712  0.1671
   20SAPC  C211 2613   3.528   0.773   9.817  0.5990  0.5507  0.0288
   20SAPC  H11R 2614   3.491   0.673   9.842 -0.5046  1.2008  1.0401
   20SAPC  C212 2615   3.520   0.814   9.687 -0.6513 -0.5161  0.1824
   20SAPC  H12R 2616   3.480   0.746   9.610  0.2894  1.6447 -2.3081
   20SAPC  C213 2617   3.568   0.945   9.632 -0.4002  0.1938 -0.2977
   20SAPC  H13R 2618   3.654   0.912   9.569  0.0825  0.0338  0.4350
   20SAPC  H13S 2619   3.614   1.006   9.713 -0.7349  1.0204 -0.7314
   20SAPC  C214 2620   3.489   1.045   9.555 -0.0669 -0.6264 -0.2112
   20SAPC  H14R 2621   3.428   1.105   9.624 -1.4878 -2.6417  0.3159
   20SAPC  C215 2622   3.512   1.087   9.432 -0.2390  0.2299 -0.4319
   20SAPC  H15R 2623   3.451   1.170   9.393  0.2984  0.3018 -1.1312
   20SAPC  C216 2624   3.608   1.023   9.339  0.1207  0.7975  0.6401
   20SAPC  H16R 2625   3.716   1.025   9.364  0.5281 -0.1867 -0.9239
   20SAPC  H16S 2626   3.608   1.088   9.249  2.2822  1.6556  1.2382
   20SAPC  C217 2627   3.576   0.878   9.289 -0.5510  0.1372 -0.2342
   20SAPC  H17R 2628   3.563   0.803   9.370  1.1625 -0.2521 -0.3071
   20SAPC  H17S 2629   3.659   0.844   9.224  1.2800 -1.0375  2.6231
   20SAPC  C218 2630   3.439   0.868   9.209 -0.4916 -0.1187 -0.7152
   20SAPC  H18R 2631   3.455   0.930   9.119 -0.2294 -2.3086 -2.2220
   20SAPC  H18S 2632   3.359   0.912   9.273  0.2546 -0.9077  0.8119
   20SAPC  C219 2633   3.399   0.728   9.155 -0.7354  0.0440 -0.2634
   20SAPC  H19R 2634   3.316   0.754   9.085 -2.8050 -1.0167  1.7302
   20SAPC  H19S 2635   3.356   0.673   9.241 -1.8302  1.4439  0.1111
   20SAPC  C220 2636   3.509   0.647   9.078  0.9838  0.2739  0.3408
   20SAPC  H20R 2637   3.581   0.601   9.149 -0.1395  1.0978  2.0565
   20SAPC  H20S 2638   3.564   0.714   9.008 -0.4826 -0.1797 -1.2587
   20SAPC  H20T 2639   3.463   0.573   9.010  0.4738  0.4757  0.4655
   20SAPC   C33 2640   3.628   0.534  10.304  0.3546  0.2630 -0.3099
   20SAPC   H3X 2641   3.519   0.516  10.317  0.3296  1.0590  0.6794
   20SAPC   H3Y 2642   3.673   0.473  10.385 -1.7111 -1.3573 -0.3316
   20SAPC   C34 2643   3.656   0.488  10.163  0.5927  0.1446  0.3292
   20SAPC   H4X 2644   3.766   0.469  10.159  0.2005 -2.2516 -0.1402
   20SAPC   H4Y 2645   3.633   0.560  10.081  0.2120 -2.0662 -1.5754
   20SAPC   C35 2646   3.589   0.352  10.135 -0.5306 -0.1212 -0.3097
   20SAPC   H5X 2647   3.478   0.353  10.142 -0.4745  0.8096  0.4276
   20SAPC   H5Y 2648   3.616   0.279  10.214  0.3874  0.2103 -0.3022
   20SAPC   C36 2649   3.621   0.274  10.003 -0.0808 -0.4889  0.9968
   20SAPC   H6X 2650   3.613   0.164  10.014  1.9254 -0.5379  2.2807
   20SAPC   H6Y 2651   3.729   0.297   9.986  0.0340 -0.6184  1.5331
   20SAPC   C37 2652   3.523   0.328   9.894 -0.2163  0.7800  0.6236
   20SAPC   H7X 2653   3.524   0.439   9.887  0.8439  0.7226 -0.3998
   20SAPC   H7Y 2654   3.422   0.290   9.921 -1.5463  1.9611 -2.5086
   20SAPC   C38 2655   3.560   0.273   9.760  0.0667  0.1370  0.5009
   20SAPC   H8X 2656   3.512   0.173   9.751 -1.2257  0.8211 -0.3882
   20SAPC   H8Y 2657   3.668   0.258   9.741 -0.2542 -0.2987 -1.0730
   20SAPC   C39 2658   3.500   0.361   9.648 -0.5460 -0.6017 -0.1112
   20SAPC   H9X 2659   3.554   0.458   9.643 -1.1151 -0.3010 -0.4984
   20SAPC   H9Y 2660   3.398   0.391   9.680 -0.4802  0.3867 -0.7943
   20SAPC  C310 2661   3.500   0.292   9.506  0.3433  0.3379  0.0928
   20SAPC  H10X 2662   3.445   0.196   9.513 -0.0792  0.6257  0.7917
   20SAPC  H10Y 2663   3.604   0.260   9.485  0.8912  1.3079  1.2603
   20SAPC  C311 2664   3.437   0.371   9.396  0.4286 -0.2523 -1.0150
   20SAPC  H11X 2665   3.484   0.471   9.380 -0.8210  0.2454 -1.6453
   20SAPC  H11Y 2666   3.328   0.388   9.412  0.5553 -2.4512  2.7593
   20SAPC  C312 2667   3.444   0.313   9.254  0.1835  0.8451  0.4860
   20SAPC  H12X 2668   3.413   0.385   9.176  0.3231  0.9385  0.5147
   20SAPC  H12Y 2669   3.379   0.224   9.241  0.9868  0.4286 -0.8410
   20SAPC  C313 2670   3.587   0.275   9.226  0.0907  0.0232  0.8587
   20SAPC  H13X 2671   3.637   0.197   9.287  2.4065 -1.0901 -2.3396
   20SAPC  H13Y 2672   3.640   0.372   9.240 -2.8928  1.6915  1.0360
   20SAPC  C314 2673   3.611   0.221   9.084  0.0068 -0.0953  0.6118
   20SAPC  H14X 2674   3.547   0.280   9.015  2.2778  0.2035 -1.2798
   20SAPC  H14Y 2675   3.576   0.115   9.086 -1.2962  0.3011 -0.3744
   20SAPC  C315 2676   3.756   0.238   9.031  0.0659 -0.1413 -0.0520
   20SAPC  H15X 2677   3.816   0.163   9.088  0.9333 -0.3481 -1.2292
   20SAPC  H15Y 2678   3.788   0.337   9.068  0.9478 -1.4472  2.8601
   20SAPC  C316 2679   3.766   0.210   8.875  0.2302  0.1379 -0.3427
   20SAPC  H16X 2680   3.862   0.246   8.832  0.4311  1.0937  0.8811
   20SAPC  H16Y 2681   3.684   0.274   8.835  0.0342 -0.4126 -0.8324
   20SAPC  C317 2682   3.750   0.059   8.842  1.0501 -0.0559  0.2625
   20SAPC  H17X 2683   3.682   0.006   8.912  2.7046 -0.8667  1.3066
   20SAPC  H17Y 2684   3.848   0.007   8.848  0.6915 -0.9380 -1.3990
   20SAPC  C318 2685   3.693   0.039   8.704 -0.1155 -0.0404 -0.5065
   20SAPC  H18X 2686   3.759   0.090   8.630 -0.5195 -0.9177 -1.4945
   20SAPC  H18Y 2687   3.586   0.069   8.696 -0.0041 -0.2559 -3.3838
   20SAPC  H18Z 2688   3.695  -0.070   8.682 -1.3088 -0.3403  0.8270
   21SAPC     N 2689   4.404   0.367  10.821 -0.1871 -0.8250  0.7123
   21SAPC   C12 2690   4.350   0.349  10.673 -0.1288  0.0471 -0.0503
   21SAPC  H12A 2691   4.429   0.303  10.615 -0.8589 -0.9169 -0.2962
   21SAPC  H12B 2692   4.319   0.446  10.636 -1.1561 -0.2726 -0.0418
   21SAPC   C13 2693   4.519   0.464  10.825  0.7242 -0.1722 -0.3398
   21SAPC  H13A 2694   4.599   0.404  10.785 -0.0995 -2.1462  0.8976
   21SAPC  H13B 2695   4.497   0.549  10.762  1.0486  1.3711  1.5799
   21SAPC  H13C 2696   4.538   0.495  10.927 -2.0500 -3.1875  1.2039
   21SAPC   C14 2697   4.297   0.434  10.900  0.4755 -0.4787 -0.5121
   21SAPC  H14A 2698   4.272   0.526  10.850 -1.4675 -0.2353  0.8687
   21SAPC  H14B 2699   4.203   0.382  10.889 -0.4177  0.8407  0.7506
   21SAPC  H14C 2700   4.334   0.442  11.001 -0.5323 -3.3609  0.1260
   21SAPC   C15 2701   4.439   0.237  10.887  0.4210  0.4962 -0.0463
   21SAPC  H15A 2702   4.439   0.247  10.995  1.2783  1.8154 -0.1505
   21SAPC  H15B 2703   4.366   0.166  10.853  0.2933 -0.2935  1.8198
   21SAPC  H15C 2704   4.533   0.193  10.857  0.2022  0.4942 -0.7280
   21SAPC   C11 2705   4.230   0.260  10.644 -0.2076  0.2973  0.1934
   21SAPC  H11A 2706   4.249   0.156  10.680 -1.3503  0.2730  0.7614
   21SAPC  H11B 2707   4.223   0.265  10.534 -0.5410  1.4217  0.2625
   21SAPC     P 2708   3.975   0.260  10.699 -0.3374 -0.0248  0.1228
   21SAPC   O13 2709   3.974   0.145  10.789  0.6540  0.5719  0.1655
   21SAPC   O14 2710   3.873   0.369  10.724  0.1715  0.2917  0.4412
   21SAPC   O12 2711   4.121   0.324  10.709  0.3733  0.9566 -0.1271
   21SAPC   O11 2712   3.975   0.209  10.551 -0.4965  0.0337 -0.5437
   21SAPC    C1 2713   3.866   0.241  10.465 -0.0174 -0.4445 -0.6976
   21SAPC    HA 2714   3.772   0.274  10.514  0.1800 -0.9960  0.0592
   21SAPC    HB 2715   3.893   0.330  10.405  0.4777 -1.2430 -1.6729
   21SAPC    C2 2716   3.839   0.119  10.368 -0.3257 -0.0937 -0.2356
   21SAPC    HS 2717   3.778   0.152  10.281 -0.8092  2.2040  0.9392
   21SAPC   O21 2718   3.778   0.005  10.431  0.2267  0.2137  0.0692
   21SAPC   C21 2719   3.645   0.019  10.450 -0.7349  0.0248 -0.1158
   21SAPC   O22 2720   3.581   0.122  10.432 -0.1815  0.0829 -0.2928
   21SAPC   C22 2721   3.586  -0.111  10.497 -0.0466 -0.5016 -0.5159
   21SAPC   H2R 2722   3.634  -0.147  10.590 -1.6333 -2.3278 -0.3552
   21SAPC   H2S 2723   3.478  -0.091  10.518  0.1790 -0.0713  0.2391
   21SAPC    C3 2724   3.971   0.083  10.303  0.2387 -0.3318 -0.0522
   21SAPC    HX 2725   4.041   0.057  10.385 -0.0792 -2.1752 -0.3361
   21SAPC    HY 2726   4.017   0.177  10.268  0.7698 -0.7944 -0.6004
   21SAPC   O31 2727   3.961  -0.022  10.201 -0.0967  0.3370  0.0041
   21SAPC   C31 2728   3.928   0.031  10.087 -0.3532  0.3634 -0.2179
   21SAPC   O32 2729   3.905   0.145  10.059  0.2099 -0.4600 -0.0407
   21SAPC   C32 2730   3.917  -0.082   9.995 -0.7258 -0.0594  0.3499
   21SAPC   H2X 2731   3.816  -0.077   9.948  0.1610 -2.3082 -1.9249
   21SAPC   H2Y 2732   3.914  -0.178  10.051  0.5405 -0.4833 -0.2953
   21SAPC   C23 2733   3.600  -0.225  10.399 -0.7719 -0.1897  0.2326
   21SAPC   H3R 2734   3.558  -0.315  10.449 -2.8580  1.0762  0.8035
   21SAPC   H3S 2735   3.707  -0.244  10.377  0.9087  5.8847  2.2718
   21SAPC   C24 2736   3.526  -0.210  10.266  0.2967  1.2897 -0.1262
   21SAPC   H4R 2737   3.578  -0.118  10.232 -1.2309  3.0657  2.1536
   21SAPC   H4S 2738   3.419  -0.182  10.272  0.0143  0.1503  0.3180
   21SAPC   C25 2739   3.540  -0.328  10.168 -0.2688 -0.1821 -0.4044
   21SAPC   H5R 2740   3.569  -0.420  10.219 -0.1944  0.3198  0.4548
   21SAPC   C26 2741   3.548  -0.326  10.038 -0.3011 -0.1013 -0.0768
   21SAPC   H6R 2742   3.592  -0.414   9.989 -1.3129 -0.5332 -0.2322
   21SAPC   C27 2743   3.528  -0.206   9.952  0.7321 -0.0958 -1.1201
   21SAPC   H7R 2744   3.630  -0.172   9.922  0.8917 -0.0583 -0.5426
   21SAPC   H7S 2745   3.504  -0.116  10.011  2.0255 -1.0532  0.9056
   21SAPC   C28 2746   3.434  -0.212   9.830  0.3736  0.1941 -0.0387
   21SAPC   H8R 2747   3.329  -0.209   9.860  0.1075 -1.1063 -0.7980
   21SAPC   C29 2748   3.472  -0.219   9.698 -0.3059 -0.0865  0.0552
   21SAPC   H9R 2749   3.391  -0.224   9.623 -0.3452  0.3488  0.0632
   21SAPC  C210 2750   3.607  -0.213   9.647  0.7343  0.0240  0.8735
   21SAPC  H10R 2751   3.624  -0.307   9.589  0.7106  0.1963  0.5821
   21SAPC  H10S 2752   3.683  -0.217   9.728  4.4363 -0.2753 -2.4319
   21SAPC  C211 2753   3.639  -0.099   9.558 -0.4139 -0.0546  0.0899
   21SAPC  H11R 2754   3.677  -0.015   9.617  1.9187 -2.1665  1.6778
   21SAPC  C212 2755   3.650  -0.100   9.423 -0.1880  1.0779  0.6451
   21SAPC  H12R 2756   3.690  -0.008   9.376 -0.1127  0.5000 -0.4354
   21SAPC  C213 2757   3.649  -0.217   9.322 -0.1904 -0.5695  0.2606
   21SAPC  H13R 2758   3.545  -0.215   9.284  0.2493 -1.3144 -1.0243
   21SAPC  H13S 2759   3.661  -0.317   9.369  1.7097 -0.5878 -0.2218
   21SAPC  C214 2760   3.750  -0.193   9.210 -0.1041 -0.1751 -0.5416
   21SAPC  H14R 2761   3.852  -0.191   9.251  0.0530 -1.6857 -0.8282
   21SAPC  C215 2762   3.733  -0.209   9.078  0.3338  0.5585 -0.4146
   21SAPC  H15R 2763   3.821  -0.187   9.016  2.5735 -0.2184  2.3579
   21SAPC  C216 2764   3.600  -0.254   9.013  1.1859  0.2810  0.9398
   21SAPC  H16R 2765   3.586  -0.193   8.921 -0.0183 -2.8384 -1.0181
   21SAPC  H16S 2766   3.511  -0.246   9.079  1.2639  1.2223  0.9339
   21SAPC  C217 2767   3.612  -0.407   8.959 -0.6763  0.1911  0.3343
   21SAPC  H17R 2768   3.517  -0.441   9.006 -0.4939 -0.4519  0.2546
   21SAPC  H17S 2769   3.702  -0.451   9.008 -0.8552 -0.2652  0.2614
   21SAPC  C218 2770   3.622  -0.430   8.808  0.2565 -0.0779 -0.1994
   21SAPC  H18R 2771   3.531  -0.373   8.781 -1.3662 -0.2768  4.3796
   21SAPC  H18S 2772   3.603  -0.539   8.797 -0.1783 -0.2417  1.9476
   21SAPC  C219 2773   3.750  -0.398   8.746 -0.0759  1.0316  0.4506
   21SAPC  H19R 2774   3.840  -0.422   8.807 -0.3186 -0.7062  0.1206
   21SAPC  H19S 2775   3.743  -0.289   8.726  1.0756  1.2506  1.2121
   21SAPC  C220 2776   3.751  -0.458   8.600 -0.7837  0.5850  0.0027
   21SAPC  H20R 2777   3.726  -0.566   8.606  1.9361 -0.1490 -1.1839
   21SAPC  H20S 2778   3.856  -0.443   8.566 -1.7505 -1.1075 -4.0270
   21SAPC  H20T 2779   3.685  -0.410   8.524 -0.4430  0.7945 -0.1603
   21SAPC   C33 2780   4.034  -0.075   9.893  0.3877 -0.2890 -0.5211
   21SAPC   H3X 2781   4.025  -0.175   9.846  1.4361 -0.4153 -0.4699
   21SAPC   H3Y 2782   4.141  -0.076   9.922  0.1154 -1.4673  0.4621
   21SAPC   C34 2783   4.022   0.018   9.768 -0.0742  0.0296 -0.7365
   21SAPC   H4X 2784   4.046   0.121   9.802  1.4487 -0.3359 -0.6770
   21SAPC   H4Y 2785   3.918   0.023   9.731 -0.6076 -1.3474  0.5377
   21SAPC   C35 2786   4.120  -0.023   9.656  0.5157  0.0257  0.2835
   21SAPC   H5X 2787   4.089  -0.128   9.635  2.5683 -1.1299  2.7137
   21SAPC   H5Y 2788   4.220  -0.024   9.705 -0.0609 -0.6457  1.4712
   21SAPC   C36 2789   4.109   0.058   9.522 -0.2294  0.1051  0.3034
   21SAPC   H6X 2790   4.152   0.160   9.530  0.7387 -0.3566  1.1226
   21SAPC   H6Y 2791   4.002   0.084   9.507  0.7209  2.4068 -2.9337
   21SAPC   C37 2792   4.176  -0.019   9.403  0.1861 -0.7336  0.0390
   21SAPC   H7X 2793   4.128  -0.118   9.416 -3.9244  1.3518  1.8365
   21SAPC   H7Y 2794   4.285  -0.030   9.418  0.4921  0.9126 -0.8677
   21SAPC   C38 2795   4.144   0.047   9.265  0.3536  0.0692  0.3567
   21SAPC   H8X 2796   4.189   0.148   9.254  1.2621 -0.3983 -0.2787
   21SAPC   H8Y 2797   4.034   0.061   9.262  0.2774 -0.0798  1.7222
   21SAPC   C39 2798   4.201  -0.044   9.154 -0.2949 -0.2088 -0.2544
   21SAPC   H9X 2799   4.176  -0.148   9.184 -0.2039  0.3147  1.7717
   21SAPC   H9Y 2800   4.312  -0.041   9.164 -0.3832  0.6939  0.6013
   21SAPC  C310 2801   4.146  -0.017   9.007 -0.1898 -0.3267  1.1530
   21SAPC  H10X 2802   4.182   0.082   8.970  0.7149 -1.9323 -2.4596
   21SAPC  H10Y 2803   4.035  -0.019   9.013 -0.2299 -0.2682  0.4358
   21SAPC  C311 2804   4.195  -0.126   8.919 -0.0777 -0.7099 -0.1045
   21SAPC  H11X 2805   4.179  -0.222   8.972 -0.4550  0.4564  1.9290
   21SAPC  H11Y 2806   4.303  -0.127   8.891  0.0067 -0.1984  0.2121
   21SAPC  C312 2807   4.119  -0.131   8.779 -0.0213 -0.2469 -0.1871
   21SAPC  H12X 2808   4.121  -0.026   8.743 -1.3397  0.5728  1.9858
   21SAPC  H12Y 2809   4.012  -0.149   8.807 -0.1096 -0.0749 -0.4217
   21SAPC  C313 2810   4.167  -0.253   8.702 -0.0000 -1.0824  0.8238
   21SAPC  H13X 2811   4.139  -0.342   8.761 -0.8076 -0.3931  1.4964
   21SAPC  H13Y 2812   4.277  -0.246   8.689 -0.2947  1.3478 -0.6897
   21SAPC  C314 2813   4.119  -0.248   8.555  0.1354  0.8705  0.5311
   21SAPC  H14X 2814   4.176  -0.166   8.505 -0.2938  0.9678  0.2057
   21SAPC  H14Y 2815   4.013  -0.214   8.551 -0.2663 -0.3367  0.7833
   21SAPC  C315 2816   4.142  -0.377   8.473  0.1898 -0.1949 -0.6081
   21SAPC  H15X 2817   4.057  -0.395   8.403 -0.7969 -2.4780  1.0849
   21SAPC  H15Y 2818   4.137  -0.464   8.542 -1.1805  1.2087  1.1034
   21SAPC  C316 2819   4.270  -0.361   8.378 -0.3725 -0.0482 -0.2144
   21SAPC  H16X 2820   4.351  -0.337   8.450 -2.4942 -0.9622  2.5380
   21SAPC  H16Y 2821   4.269  -0.283   8.299 -1.7706 -0.8869 -1.0452
   21SAPC  C317 2822   4.289  -0.499   8.312 -0.4183  0.0006 -0.0971
   21SAPC  H17X 2823   4.277  -0.576   8.391  0.2187 -1.0208 -0.9942
   21SAPC  H17Y 2824   4.390  -0.516   8.270  0.2009 -2.6400  2.3497
   21SAPC  C318 2825   4.198  -0.533   8.193  0.3187 -0.5148  0.6965
   21SAPC  H18X 2826   4.213  -0.475   8.099 -0.9613 -1.1812  0.0712
   21SAPC  H18Y 2827   4.093  -0.520   8.228  0.6702 -0.1171  1.5988
   21SAPC  H18Z 2828   4.214  -0.641   8.174  2.5339 -0.2138  0.7536
   22SAPC     N 2829   2.425   3.203  11.044  0.6877  0.4899  0.1757
   22SAPC   C12 2830   2.454   3.200  10.897 -0.3544  0.2969 -0.1583
   22SAPC  H12A 2831   2.363   3.207  10.839 -0.2640 -1.9891 -0.6258
   22SAPC  H12B 2832   2.492   3.100  10.882 -1.6366 -0.4032  1.1075
   22SAPC   C13 2833   2.369   3.338  11.090 -0.1314  0.3602  0.3819
   22SAPC  H13A 2834   2.281   3.363  11.033  1.4079  2.1029 -1.2619
   22SAPC  H13B 2835   2.341   3.336  11.194  1.0354  0.4894  0.7127
   22SAPC  H13C 2836   2.453   3.406  11.080 -0.7607  1.4886  2.4865
   22SAPC   C14 2837   2.328   3.093  11.084 -0.7436  0.6913 -0.0764
   22SAPC  H14A 2838   2.239   3.103  11.024 -0.9685 -0.7084 -0.0058
   22SAPC  H14B 2839   2.375   3.003  11.046  1.3716  1.5254  0.4905
   22SAPC  H14C 2840   2.318   3.088  11.191 -1.7909  0.0601 -0.2027
   22SAPC   C15 2841   2.552   3.176  11.126 -0.5693 -0.9983 -0.1081
   22SAPC  H15A 2842   2.636   3.238  11.098 -1.9186  1.5241  1.2986
   22SAPC  H15B 2843   2.535   3.191  11.232 -0.9631 -2.7313  0.0913
   22SAPC  H15C 2844   2.574   3.071  11.116  0.0697 -0.8414 -0.3990
   22SAPC   C11 2845   2.556   3.299  10.838  0.0988 -0.1915 -0.1106
   22SAPC  H11A 2846   2.517   3.403  10.849  0.6241 -0.1165  1.2006
   22SAPC  H11B 2847   2.559   3.274  10.730 -1.0026  0.8075 -0.3914
   22SAPC     P 2848   2.795   3.221  10.821 -0.1866  0.6000  0.1692
   22SAPC   O13 2849   2.926   3.240  10.887 -0.2326  0.4043 -0.0782
   22SAPC   O14 2850   2.762   3.075  10.793 -0.0436  0.1564  0.4348
   22SAPC   O12 2851   2.681   3.286  10.902 -0.1098  1.0435  0.3247
   22SAPC   O11 2852   2.784   3.307  10.686  0.9696  0.6223 -0.5564
   22SAPC    C1 2853   2.828   3.442  10.690  0.0604 -0.6769  0.2379
   22SAPC    HA 2854   2.762   3.517  10.738  1.0812  1.5378 -1.6943
   22SAPC    HB 2855   2.921   3.453  10.749  0.7830  0.0853 -1.0114
   22SAPC    C2 2856   2.860   3.507  10.556  0.4683  0.6627  0.1149
   22SAPC    HS 2857   2.902   3.607  10.579 -0.7365  0.8471  1.5537
   22SAPC   O21 2858   2.746   3.516  10.473  0.0952  0.4670  0.6112
   22SAPC   C21 2859   2.736   3.627  10.393  0.3644 -0.5604 -0.7715
   22SAPC   O22 2860   2.806   3.729  10.396  0.3632 -0.1046 -0.1221
   22SAPC   C22 2861   2.605   3.600  10.310 -0.5030 -0.2303  0.5258
   22SAPC   H2R 2862   2.538   3.558  10.387 -0.5722 -0.8911  0.1105
   22SAPC   H2S 2863   2.582   3.702  10.273 -0.1448  0.0956  1.1813
   22SAPC    C3 2864   2.964   3.433  10.468  0.3022  0.1231 -0.1501
   22SAPC    HX 2865   2.930   3.334  10.434 -1.5645  1.0333 -0.9975
   22SAPC    HY 2866   3.056   3.404  10.524 -0.4879 -1.2936  0.4332
   22SAPC   O31 2867   3.000   3.499  10.346  0.2050  0.7945 -0.0708
   22SAPC   C31 2868   3.093   3.590  10.371  0.3733  0.2475 -0.1029
   22SAPC   O32 2869   3.124   3.630  10.480 -0.1454  0.1281  0.4033
   22SAPC   C32 2870   3.171   3.640  10.245  0.1161 -0.1755  0.0107
   22SAPC   H2X 2871   3.117   3.601  10.156 -1.0254 -0.1907  0.6996
   22SAPC   H2Y 2872   3.274   3.599  10.248 -0.2627 -1.0148  3.5768
   22SAPC   C23 2873   2.618   3.492  10.196 -0.0397 -0.3780 -0.1626
   22SAPC   H3R 2874   2.515   3.476  10.156 -0.9429  0.6327  1.6736
   22SAPC   H3S 2875   2.658   3.399  10.242 -0.4870 -0.7050 -0.4330
   22SAPC   C24 2876   2.708   3.534  10.086  0.0512 -0.4587  0.1344
   22SAPC   H4R 2877   2.712   3.452  10.011  2.8523  1.2856 -1.6971
   22SAPC   H4S 2878   2.808   3.556  10.129 -1.5981  1.5499  3.0587
   22SAPC   C25 2879   2.677   3.663  10.019  0.5694  0.1589 -0.3615
   22SAPC   H5R 2880   2.700   3.756  10.073 -4.5947  2.3576 -1.6716
   22SAPC   C26 2881   2.608   3.661   9.898 -0.1371 -0.2529  0.3891
   22SAPC   H6R 2882   2.586   3.759   9.853 -0.3331  0.2832  1.6144
   22SAPC   C27 2883   2.561   3.545   9.817 -0.1079 -0.4020  0.3567
   22SAPC   H7R 2884   2.628   3.459   9.838 -0.1534 -0.9984 -1.7840
   22SAPC   H7S 2885   2.578   3.573   9.711 -0.4887 -2.4579 -0.2798
   22SAPC   C28 2886   2.415   3.526   9.845 -0.3460  0.0535  0.0548
   22SAPC   H8R 2887   2.395   3.527   9.953  1.2451  0.0593  0.3543
   22SAPC   C29 2888   2.311   3.522   9.760 -0.8318  1.1136 -0.7362
   22SAPC   H9R 2889   2.215   3.495   9.806 -0.4810 -1.3676 -1.4264
   22SAPC  C210 2890   2.304   3.519   9.613  0.4808  0.6163 -0.1665
   22SAPC  H10R 2891   2.224   3.449   9.580 -0.0204 -0.5586  3.3038
   22SAPC  H10S 2892   2.393   3.473   9.564 -0.7701  0.2334 -2.1288
   22SAPC  C211 2893   2.289   3.660   9.568  0.6729 -0.1011  0.3795
   22SAPC  H11R 2894   2.202   3.704   9.618  0.0021 -0.9552 -0.0188
   22SAPC  C212 2895   2.353   3.729   9.471 -0.8416 -1.1448  0.3878
   22SAPC  H12R 2896   2.322   3.832   9.448 -0.2842 -0.5335  2.2559
   22SAPC  C213 2897   2.461   3.664   9.385 -0.5324 -0.3363 -0.9715
   22SAPC  H13R 2898   2.452   3.712   9.285 -2.3252  1.0087 -0.2057
   22SAPC  H13S 2899   2.448   3.555   9.368 -1.2166 -0.1000 -2.0901
   22SAPC  C214 2900   2.596   3.698   9.443 -0.4917 -1.1858  0.8589
   22SAPC  H14R 2901   2.605   3.805   9.465 -1.7996 -0.5381 -1.5467
   22SAPC  C215 2902   2.704   3.624   9.448 -0.4656 -0.6703 -0.2017
   22SAPC  H15R 2903   2.798   3.670   9.483 -0.6977 -0.6068  0.3472
   22SAPC  C216 2904   2.714   3.480   9.407 -0.1324 -0.2442 -0.3089
   22SAPC  H16R 2905   2.615   3.432   9.395  0.5384 -1.8220  0.2239
   22SAPC  H16S 2906   2.772   3.417   9.478  1.6468  0.3359 -1.2150
   22SAPC  C217 2907   2.801   3.489   9.279 -0.3322  0.1843  0.0039
   22SAPC  H17R 2908   2.898   3.539   9.297  0.5267 -0.7045 -1.9534
   22SAPC  H17S 2909   2.758   3.547   9.194  1.1708 -0.7430 -1.4122
   22SAPC  C218 2910   2.833   3.349   9.215  0.0038 -0.6456  0.8264
   22SAPC  H18R 2911   2.841   3.270   9.292 -2.6031 -1.0886  0.6981
   22SAPC  H18S 2912   2.936   3.350   9.173 -0.3203  0.8708  0.0169
   22SAPC  C219 2913   2.733   3.319   9.098 -0.1981 -0.6286 -0.1834
   22SAPC  H19R 2914   2.781   3.248   9.028  0.1465 -1.1549  0.5787
   22SAPC  H19S 2915   2.724   3.411   9.037  1.8229  0.3529  0.9593
   22SAPC  C220 2916   2.591   3.277   9.134 -0.3425  0.0448 -0.5977
   22SAPC  H20R 2917   2.602   3.196   9.210 -0.3569  0.0442 -0.5959
   22SAPC  H20S 2918   2.529   3.255   9.045 -1.3877 -0.1997  0.1735
   22SAPC  H20T 2919   2.544   3.364   9.185  1.0008  0.0401  0.6850
   22SAPC   C33 2920   3.196   3.790  10.245  0.0567 -0.4290 -0.4599
   22SAPC   H3X 2921   3.300   3.816  10.215 -0.3650  2.1302  0.2009
   22SAPC   H3Y 2922   3.176   3.838  10.343  0.6346  2.1748 -1.5620
   22SAPC   C34 2923   3.114   3.864  10.139 -0.0880 -0.3228  0.1491
   22SAPC   H4X 2924   3.123   3.970  10.170 -3.6764 -0.1193  0.7876
   22SAPC   H4Y 2925   3.006   3.836  10.148 -0.4825  0.8802 -0.7435
   22SAPC   C35 2926   3.169   3.836  10.004  0.3613 -0.5842  0.3463
   22SAPC   H5X 2927   3.177   3.726   9.994  0.0801 -0.5931  0.2405
   22SAPC   H5Y 2928   3.264   3.887   9.974  1.2930 -1.3172  1.9902
   22SAPC   C36 2929   3.078   3.894   9.890 -0.4108 -0.1470 -0.2610
   22SAPC   H6X 2930   3.073   4.005   9.897 -1.9678 -0.2979  1.3712
   22SAPC   H6Y 2931   2.976   3.851   9.899  0.4019 -2.0047  0.2178
   22SAPC   C37 2932   3.124   3.859   9.752 -0.1699 -0.3031  0.3572
   22SAPC   H7X 2933   3.140   3.749   9.745 -3.8760 -0.8880 -0.2877
   22SAPC   H7Y 2934   3.222   3.910   9.740  0.0522 -0.5600  1.0581
   22SAPC   C38 2935   3.032   3.911   9.645 -0.0486 -0.2258  0.0547
   22SAPC   H8X 2936   3.029   4.022   9.644 -0.0683 -0.2193  0.8090
   22SAPC   H8Y 2937   2.929   3.871   9.654 -0.6367  1.1106 -0.5679
   22SAPC   C39 2938   3.088   3.881   9.503  0.0476  0.1785 -0.8481
   22SAPC   H9X 2939   3.116   3.773   9.504  1.6392  0.5694  2.0663
   22SAPC   H9Y 2940   3.176   3.945   9.483 -1.0511  1.9688 -0.0919
   22SAPC  C310 2941   2.987   3.908   9.389  0.5621  0.3130 -0.4731
   22SAPC  H10X 2942   2.984   4.019   9.378  0.8158  0.3919  0.2162
   22SAPC  H10Y 2943   2.882   3.877   9.410  1.6044 -1.1417  3.0287
   22SAPC  C311 2944   3.034   3.847   9.259 -1.3278 -0.2199 -0.0857
   22SAPC  H11X 2945   2.956   3.834   9.182 -0.4188 -0.5529 -0.9658
   22SAPC  H11Y 2946   3.082   3.746   9.269  0.0729  0.4990  0.7035
   22SAPC  C312 2947   3.163   3.919   9.199 -0.4337 -0.7835 -0.7800
   22SAPC  H12X 2948   3.243   3.884   9.268 -0.5606  1.9197  0.8181
   22SAPC  H12Y 2949   3.147   4.027   9.223  1.8278 -0.7657  0.8323
   22SAPC  C313 2950   3.191   3.878   9.056  0.7630 -0.1454 -0.2315
   22SAPC  H13X 2951   3.102   3.908   8.996  0.3026 -1.3756 -0.1835
   22SAPC  H13Y 2952   3.188   3.768   9.043  0.1758 -0.1026 -0.4915
   22SAPC  C314 2953   3.324   3.923   8.999 -0.0209  0.3647  0.1506
   22SAPC  H14X 2954   3.407   3.881   9.060  0.3058  1.7757  0.7121
   22SAPC  H14Y 2955   3.338   4.033   9.005 -1.7665  0.6009  0.0393
   22SAPC  C315 2956   3.342   3.875   8.852  0.7798  0.4674 -0.2316
   22SAPC  H15X 2957   3.343   3.764   8.848 -0.4501  0.4859 -1.3573
   22SAPC  H15Y 2958   3.441   3.907   8.814  0.9614 -1.2720 -1.2722
   22SAPC  C316 2959   3.243   3.935   8.753  0.5875 -0.0055  1.0062
   22SAPC  H16X 2960   3.242   4.046   8.763  1.1658  0.1922 -1.0301
   22SAPC  H16Y 2961   3.145   3.886   8.765  1.0084 -1.4519 -1.2560
   22SAPC  C317 2962   3.298   3.914   8.607  0.6167  0.2701 -0.5373
   22SAPC  H17X 2963   3.215   3.926   8.533 -0.8692 -0.4866  0.9742
   22SAPC  H17Y 2964   3.321   3.806   8.603  2.9250  0.6876  0.8462
   22SAPC  C318 2965   3.411   4.010   8.569 -0.0090 -0.1306 -0.2205
   22SAPC  H18X 2966   3.503   4.006   8.632 -0.6485  1.6655  0.8630
   22SAPC  H18Y 2967   3.379   4.115   8.586  1.7905  0.7368 -1.9786
   22SAPC  H18Z 2968   3.424   3.996   8.459 -1.2802 -0.4503 -0.3360
   23SAPC     N 2969   3.730   5.934  10.494  0.2370  0.5919  0.1302
   23SAPC   C12 2970   3.642   5.862  10.597 -0.5678  0.1283  1.0914
   23SAPC  H12A 2971   3.583   5.786  10.547 -1.8700  0.6510  1.8109
   23SAPC  H12B 2972   3.562   5.925  10.635 -2.8338 -1.4136 -0.9789
   23SAPC   C13 2973   3.807   5.837  10.413 -0.7828  0.4639  0.1685
   23SAPC  H13A 2974   3.870   5.890  10.343 -0.3440  1.6210  1.4380
   23SAPC  H13B 2975   3.873   5.777  10.474 -0.8226 -1.3926 -1.5161
   23SAPC  H13C 2976   3.747   5.763  10.361 -0.9810  1.4797 -1.0737
   23SAPC   C14 2977   3.647   6.002  10.387 -0.1983  0.2184  0.5518
   23SAPC  H14A 2978   3.601   6.092  10.426 -0.7158  0.2360 -0.0911
   23SAPC  H14B 2979   3.708   6.034  10.304 -0.3374 -3.2949 -0.9927
   23SAPC  H14C 2980   3.572   5.928  10.362 -0.4923 -0.2702  2.7050
   23SAPC   C15 2981   3.819   6.029  10.563  0.0427  0.5754  0.2910
   23SAPC  H15A 2982   3.881   6.086  10.494 -0.5382  0.6009 -0.2067
   23SAPC  H15B 2983   3.761   6.090  10.630  0.2206 -0.8050  1.7194
   23SAPC  H15C 2984   3.893   5.973  10.618 -0.6151  1.1738  1.7809
   23SAPC   C11 2985   3.729   5.802  10.707 -0.3106  0.3935  0.8307
   23SAPC  H11A 2986   3.670   5.760  10.791  0.8859  0.8697  1.9111
   23SAPC  H11B 2987   3.784   5.884  10.757  0.1831  0.6213 -0.0766
   23SAPC     P 2988   3.965   5.690  10.728  0.4035 -0.2225  0.0538
   23SAPC   O13 2989   4.017   5.819  10.757  0.3600 -0.3018  0.0878
   23SAPC   O14 2990   3.957   5.592  10.843 -0.6566 -0.0786  0.8292
   23SAPC   O12 2991   3.822   5.697  10.666 -0.0275 -0.0750 -0.1259
   23SAPC   O11 2992   4.038   5.619  10.610  1.4887 -0.9624 -0.2225
   23SAPC    C1 2993   4.000   5.493  10.566  0.2994  0.6642  0.4533
   23SAPC    HA 2994   3.998   5.422  10.652 -1.9888  0.5073  0.3073
   23SAPC    HB 2995   3.897   5.487  10.524 -0.0543 -1.7099  1.5883
   23SAPC    C2 2996   4.090   5.446  10.445 -0.0516 -0.2788  0.6674
   23SAPC    HS 2997   4.117   5.536  10.386 -0.4524 -1.3303 -1.1764
   23SAPC   O21 2998   4.019   5.356  10.361  0.3925  0.1113  0.0971
   23SAPC   C21 2999   3.938   5.415  10.279  0.4849  0.7044 -0.2110
   23SAPC   O22 3000   3.912   5.533  10.266 -0.1008  0.1417  0.1757
   23SAPC   C22 3001   3.867   5.303  10.188  0.1840 -0.1444  0.7349
   23SAPC   H2R 3002   3.952   5.254  10.136 -0.0076 -0.9000  1.1320
   23SAPC   H2S 3003   3.820   5.241  10.267 -1.6651  3.9169  2.9903
   23SAPC    C3 3004   4.223   5.382  10.504  0.4422  0.7507  0.8291
   23SAPC    HX 3005   4.204   5.278  10.538  0.5562  1.2076  2.3205
   23SAPC    HY 3006   4.252   5.436  10.596 -2.4673  2.4386  0.8071
   23SAPC   O31 3007   4.325   5.376  10.396  0.5475 -0.0607  0.3493
   23SAPC   C31 3008   4.413   5.472  10.401  0.2202  0.5794 -0.6791
   23SAPC   O32 3009   4.418   5.561  10.485  0.3531  0.6479  0.5190
   23SAPC   C32 3010   4.514   5.442  10.290 -0.3005  0.7156  0.1457
   23SAPC   H2X 3011   4.455   5.450  10.196 -0.8993  0.9836  0.5423
   23SAPC   H2Y 3012   4.529   5.333  10.300 -0.6256  0.7664  1.2529
   23SAPC   C23 3013   3.773   5.357  10.074  0.6402 -0.3845 -0.5562
   23SAPC   H3R 3014   3.839   5.402   9.997  1.8887 -2.5628 -0.7804
   23SAPC   H3S 3015   3.715   5.442  10.116  1.4568  0.3923 -0.9823
   23SAPC   C24 3016   3.696   5.244  10.005 -0.8950 -0.3695  0.1577
   23SAPC   H4R 3017   3.616   5.300   9.952 -0.8331 -0.0580  0.3834
   23SAPC   H4S 3018   3.649   5.176  10.080 -1.3868 -2.8056 -2.2868
   23SAPC   C25 3019   3.778   5.158   9.914  0.5465 -0.7687 -0.1978
   23SAPC   H5R 3020   3.853   5.099   9.968  2.0261 -0.0338 -1.3945
   23SAPC   C26 3021   3.755   5.141   9.786 -0.1015 -0.0501  0.5525
   23SAPC   H6R 3022   3.824   5.072   9.734 -1.8952 -0.4549 -1.3315
   23SAPC   C27 3023   3.631   5.199   9.711  0.0493  0.0134  0.2783
   23SAPC   H7R 3024   3.648   5.306   9.688 -0.7455 -0.1529 -1.1872
   23SAPC   H7S 3025   3.545   5.181   9.780  0.2775  0.7408  0.7465
   23SAPC   C28 3026   3.596   5.123   9.586  0.0432 -0.1036 -0.0493
   23SAPC   H8R 3027   3.555   5.022   9.599 -1.0748  0.3126 -0.3105
   23SAPC   C29 3028   3.615   5.163   9.460 -0.1605 -0.2023 -0.2415
   23SAPC   H9R 3029   3.600   5.091   9.377  1.9040 -0.5373 -0.3647
   23SAPC  C210 3030   3.671   5.287   9.402 -0.0198 -0.1140 -0.6041
   23SAPC  H10R 3031   3.635   5.376   9.458  1.9072 -0.0303  0.5329
   23SAPC  H10S 3032   3.624   5.295   9.302 -0.9480 -0.5382 -0.2079
   23SAPC  C211 3033   3.821   5.298   9.398 -0.1660  0.4677  0.0147
   23SAPC  H11R 3034   3.875   5.319   9.492  1.9492  2.5604 -1.5722
   23SAPC  C212 3035   3.895   5.290   9.282  0.3055 -0.1975 -0.2087
   23SAPC  H12R 3036   4.004   5.303   9.283  0.1057  1.6358 -0.7829
   23SAPC  C213 3037   3.831   5.270   9.153  0.5372  0.3060  0.3887
   23SAPC  H13R 3038   3.766   5.356   9.126 -0.9348 -1.0918 -0.5979
   23SAPC  H13S 3039   3.758   5.186   9.147  1.3492 -0.3950  0.1189
   23SAPC  C214 3040   3.931   5.254   9.043  0.4137  0.0736 -0.1715
   23SAPC  H14R 3041   3.961   5.149   9.029  2.0795  0.2187  2.0123
   23SAPC  C215 3042   3.988   5.353   8.969  0.2555  0.3493  0.8792
   23SAPC  H15R 3043   4.046   5.317   8.883 -0.4375  0.8175  0.2103
   23SAPC  C216 3044   3.957   5.502   8.985  1.2373  0.0646  0.3562
   23SAPC  H16R 3045   4.008   5.544   9.074  1.5878  0.0334  0.1716
   23SAPC  H16S 3046   3.849   5.527   8.999  1.1220 -0.7665  0.9763
   23SAPC  C217 3047   4.012   5.583   8.872 -0.2607 -0.3249 -0.1999
   23SAPC  H17R 3048   4.120   5.569   8.851 -0.1605 -1.0385  0.7604
   23SAPC  H17S 3049   4.012   5.688   8.910  0.3437 -1.3700  2.8078
   23SAPC  C218 3050   3.934   5.571   8.746  0.6376  0.6573  0.1643
   23SAPC  H18R 3051   3.823   5.577   8.743  0.7816  3.6996 -0.2012
   23SAPC  H18S 3052   3.963   5.474   8.701 -0.6540  1.0663 -1.6078
   23SAPC  C219 3053   3.984   5.653   8.630  0.6126  0.2578  0.0903
   23SAPC  H19R 3054   4.095   5.642   8.628  0.3787 -2.4448 -2.9514
   23SAPC  H19S 3055   3.949   5.753   8.661  0.6728 -0.1654  1.5608
   23SAPC  C220 3056   3.927   5.606   8.495 -0.5989 -0.6491 -0.0354
   23SAPC  H20R 3057   3.952   5.680   8.416 -1.4653  0.9654  1.1469
   23SAPC  H20S 3058   3.816   5.613   8.499 -0.6811 -1.7225 -0.2825
   23SAPC  H20T 3059   3.954   5.504   8.460 -0.0534 -1.3656  2.3900
   23SAPC   C33 3060   4.642   5.527  10.297  0.0514  0.3598 -0.2547
   23SAPC   H3X 3061   4.728   5.481  10.245  0.9746 -0.5352  1.9850
   23SAPC   H3Y 3062   4.683   5.533  10.401 -2.1014 -1.2552  0.7135
   23SAPC   C34 3063   4.608   5.666  10.237 -0.2641 -0.2051 -0.2864
   23SAPC   H4X 3064   4.674   5.747  10.275 -0.1168 -0.5107  0.1120
   23SAPC   H4Y 3065   4.516   5.701  10.289 -0.7765 -0.4597 -1.0062
   23SAPC   C35 3066   4.603   5.673  10.082  0.2769  0.8318 -0.4609
   23SAPC   H5X 3067   4.513   5.613  10.056  1.3416 -0.7050 -0.6850
   23SAPC   H5Y 3068   4.684   5.623  10.025  0.5711  1.9998 -1.0729
   23SAPC   C36 3069   4.602   5.812  10.026 -0.4419  0.0471  1.2215
   23SAPC   H6X 3070   4.538   5.881  10.086 -0.4117 -0.3853  1.7615
   23SAPC   H6Y 3071   4.591   5.824   9.917  2.3745 -0.0650  0.8978
   23SAPC   C37 3072   4.744   5.872  10.037 -0.0207 -1.0302  0.3907
   23SAPC   H7X 3073   4.776   5.863  10.143 -0.4421  3.8091  1.0407
   23SAPC   H7Y 3074   4.732   5.978  10.004 -0.2240 -0.9414  0.7459
   23SAPC   C38 3075   4.862   5.824   9.951 -0.1329 -0.3475  0.3262
   23SAPC   H8X 3076   4.890   5.735  10.011  0.8286  0.4049  1.0058
   23SAPC   H8Y 3077   4.944   5.898   9.966  0.8600 -1.4676  0.4207
   23SAPC   C39 3078   4.831   5.799   9.804  0.5269 -0.3160 -0.5196
   23SAPC   H9X 3079   4.767   5.877   9.758 -2.4325 -1.8514  0.7989
   23SAPC   H9Y 3080   4.773   5.704   9.806 -1.1195  0.6769 -0.4290
   23SAPC  C310 3081   4.950   5.784   9.712 -0.3634 -0.9024 -0.2422
   23SAPC  H10X 3082   5.031   5.731   9.766  0.4717 -0.7280 -1.2950
   23SAPC  H10Y 3083   4.986   5.886   9.686  0.1046 -0.5768  1.5788
   23SAPC  C311 3084   4.921   5.705   9.581  0.0600  0.5466 -0.9564
   23SAPC  H11X 3085   4.842   5.761   9.526 -1.8665 -0.1368  1.0464
   23SAPC  H11Y 3086   4.885   5.601   9.595  1.2968  0.0297 -1.5569
   23SAPC  C312 3087   5.054   5.706   9.512 -0.1769  0.6256  0.2620
   23SAPC  H12X 3088   5.134   5.683   9.586 -0.0188  1.0477  0.2233
   23SAPC  H12Y 3089   5.097   5.803   9.480 -0.3026  1.2238  1.8242
   23SAPC  C313 3090   5.058   5.607   9.396  0.3302  0.2390  0.4495
   23SAPC  H13X 3091   4.978   5.630   9.323 -0.3483 -0.6852  0.8967
   23SAPC  H13Y 3092   5.040   5.505   9.436 -2.3198  0.8505  0.8959
   23SAPC  C314 3093   5.193   5.613   9.324 -0.5875  0.2439  0.1351
   23SAPC  H14X 3094   5.282   5.583   9.383  0.7761  0.0900 -1.9686
   23SAPC  H14Y 3095   5.213   5.710   9.272 -1.6570 -0.2591 -1.2521
   23SAPC  C315 3096   5.196   5.522   9.193 -0.0340  0.0218 -0.5397
   23SAPC  H15X 3097   5.115   5.552   9.123  0.1167  0.1372 -0.6662
   23SAPC  H15Y 3098   5.175   5.418   9.227 -0.9297  0.4112  0.0999
   23SAPC  C316 3099   5.337   5.525   9.127 -0.3204 -0.5649 -0.1145
   23SAPC  H16X 3100   5.397   5.450   9.182 -0.0366 -0.5867 -0.4514
   23SAPC  H16Y 3101   5.401   5.614   9.144  1.1081 -1.5556 -0.2539
   23SAPC  C317 3102   5.338   5.504   8.978 -0.3842  0.1375 -0.3409
   23SAPC  H17X 3103   5.264   5.579   8.943  0.1227  1.0196  0.4505
   23SAPC  H17Y 3104   5.299   5.401   8.959  0.8520 -0.1197 -1.6017
   23SAPC  C318 3105   5.471   5.536   8.918 -0.2388  0.5435  0.2472
   23SAPC  H18X 3106   5.503   5.642   8.921  2.3053 -0.1503 -0.9277
   23SAPC  H18Y 3107   5.490   5.485   8.822 -0.4905 -1.4585  1.2232
   23SAPC  H18Z 3108   5.541   5.484   8.987 -0.8474 -1.2843 -0.5000
   24SAPC     N 3109   6.268   5.841  11.340  0.4601  0.0202 -0.0187
   24SAPC   C12 3110   6.221   5.943  11.245 -0.3063  0.7685  0.4261
   24SAPC  H12A 3111   6.255   6.041  11.274 -0.0137  0.9794 -0.6178
   24SAPC  H12B 3112   6.116   5.950  11.268 -0.6226  0.6939 -0.9342
   24SAPC   C13 3113   6.414   5.854  11.347  0.5359 -0.1036  0.5057
   24SAPC  H13A 3114   6.434   5.947  11.398 -2.2567  1.2444 -0.7909
   24SAPC  H13B 3115   6.455   5.780  11.414  0.4372 -0.6363 -0.0160
   24SAPC  H13C 3116   6.471   5.837  11.257  1.5251  0.2660  1.0533
   24SAPC   C14 3117   6.219   5.859  11.482  0.6154  0.2146 -0.4622
   24SAPC  H14A 3118   6.112   5.846  11.476  0.6874 -0.5362 -0.2517
   24SAPC  H14B 3119   6.252   5.784  11.553  1.8666  0.8154 -0.4052
   24SAPC  H14C 3120   6.241   5.956  11.524  2.8623 -1.3340  2.1032
   24SAPC   C15 3121   6.231   5.698  11.285 -0.4390  0.2656 -0.2146
   24SAPC  H15A 3122   6.124   5.689  11.274 -0.3176 -1.1217 -0.3412
   24SAPC  H15B 3123   6.269   5.674  11.187 -0.9798 -1.1984 -0.0723
   24SAPC  H15C 3124   6.264   5.628  11.360 -1.0791  1.1801  0.9272
   24SAPC   C11 3125   6.244   5.922  11.093 -0.0130  0.0895  0.1632
   24SAPC  H11A 3126   6.202   6.013  11.045 -0.7354  0.0148  0.6413
   24SAPC  H11B 3127   6.184   5.838  11.053  1.9866 -0.6712 -1.2568
   24SAPC     P 3128   6.497   5.993  11.030  0.3247 -0.1502 -0.2001
   24SAPC   O13 3129   6.443   6.125  10.993 -0.6418  0.4013 -0.1499
   24SAPC   O14 3130   6.598   5.977  11.141 -0.3641  0.0232 -0.0171
   24SAPC   O12 3131   6.379   5.891  11.058 -0.0040 -0.4862  0.1892
   24SAPC   O11 3132   6.566   5.922  10.907  0.3630 -0.3898 -0.0073
   24SAPC    C1 3133   6.502   5.909  10.779 -0.1898 -0.7407 -0.0902
   24SAPC    HA 3134   6.399   5.868  10.784 -1.2649  1.8287 -0.4098
   24SAPC    HB 3135   6.484   6.009  10.735 -3.7590 -0.0507  2.7259
   24SAPC    C2 3136   6.577   5.818  10.681  0.3423 -0.5845 -0.4909
   24SAPC    HS 3137   6.665   5.879  10.652 -0.7069  0.7882 -0.8413
   24SAPC   O21 3138   6.497   5.771  10.567  0.2217 -0.7413 -0.0103
   24SAPC   C21 3139   6.530   5.832  10.452  0.2893  0.0870 -1.3255
   24SAPC   O22 3140   6.619   5.917  10.440  0.2730  0.7789 -0.1647
   24SAPC   C22 3141   6.430   5.792  10.344  0.3953 -0.4707 -0.4270
   24SAPC   H2R 3142   6.344   5.740  10.391 -0.9333  3.0466  1.1694
   24SAPC   H2S 3143   6.389   5.886  10.301 -1.5765 -1.1291 -0.0734
   24SAPC    C3 3144   6.629   5.701  10.744  0.0533  0.7605 -0.2431
   24SAPC    HX 3145   6.540   5.656  10.793 -0.7882  1.7690 -0.8382
   24SAPC    HY 3146   6.688   5.726  10.835 -2.0836  2.7657  0.6355
   24SAPC   O31 3147   6.698   5.619  10.648  0.4510  0.1236 -0.4977
   24SAPC   C31 3148   6.816   5.566  10.692 -0.1195  0.0675  0.1817
   24SAPC   O32 3149   6.851   5.564  10.807  0.0390  0.0469 -0.3037
   24SAPC   C32 3150   6.891   5.518  10.565 -0.0320  0.0561 -0.0705
   24SAPC   H2X 3151   6.920   5.613  10.514  1.3514 -0.0248  0.5522
   24SAPC   H2Y 3152   6.820   5.458  10.504  1.0294 -0.5668 -0.7075
   24SAPC   C23 3153   6.493   5.707  10.232 -0.2951 -0.1920 -0.6468
   24SAPC   H3R 3154   6.433   5.617  10.208  0.1905  0.0830 -2.9690
   24SAPC   H3S 3155   6.592   5.671  10.266 -0.9790 -0.4150  1.1533
   24SAPC   C24 3156   6.526   5.794  10.109 -0.2073  0.2343  0.4083
   24SAPC   H4R 3157   6.593   5.881  10.128 -1.0089  1.1640 -0.8972
   24SAPC   H4S 3158   6.438   5.841  10.060 -1.1092 -1.1677  0.6700
   24SAPC   C25 3159   6.596   5.718  10.000  0.5288  0.3390  0.2079
   24SAPC   H5R 3160   6.534   5.639   9.955  0.2803  0.6365  0.0200
   24SAPC   C26 3161   6.717   5.736   9.943  0.7260  0.5609 -0.1740
   24SAPC   H6R 3162   6.738   5.668   9.858 -0.2943 -0.0790  0.0749
   24SAPC   C27 3163   6.826   5.839   9.967 -0.0664 -0.0571  0.0687
   24SAPC   H7R 3164   6.815   5.901  10.058 -0.5509 -0.5076  0.3190
   24SAPC   H7S 3165   6.809   5.915   9.888 -1.3121 -0.0949  0.2926
   24SAPC   C28 3166   6.966   5.778   9.953  0.1286  0.6079  0.3118
   24SAPC   H8R 3167   6.989   5.740  10.053 -1.8209 -0.6402  0.3021
   24SAPC   C29 3168   7.050   5.776   9.848  0.6386  0.3980 -0.0498
   24SAPC   H9R 3169   7.147   5.726   9.858  0.5810  0.2854 -0.0492
   24SAPC  C210 3170   7.031   5.832   9.707 -0.3835 -0.7748  0.5205
   24SAPC  H10R 3171   6.921   5.832   9.689 -0.2767  0.6010 -0.1937
   24SAPC  H10S 3172   7.063   5.752   9.637 -3.2794  1.5259 -3.6534
   24SAPC  C211 3173   7.099   5.966   9.678  0.1998 -0.3516  0.0627
   24SAPC  H11R 3174   7.097   6.029   9.768 -3.2837  1.6257 -1.3044
   24SAPC  C212 3175   7.174   5.999   9.567  1.0887  1.0480  0.2955
   24SAPC  H12R 3176   7.220   6.098   9.556 -0.1174  1.5199 -0.5035
   24SAPC  C213 3177   7.192   5.905   9.453  0.7420  0.6980 -0.2772
   24SAPC  H13R 3178   7.172   5.957   9.357  3.1289 -1.5151 -2.0227
   24SAPC  H13S 3179   7.123   5.819   9.449 -1.5608  2.4270  1.1748
   24SAPC  C214 3180   7.326   5.862   9.460 -0.0910 -0.0872 -0.0225
   24SAPC  H14R 3181   7.362   5.839   9.561 -1.7365  0.0009  0.6049
   24SAPC  C215 3182   7.414   5.836   9.365  0.0449 -0.3840 -0.3995
   24SAPC  H15R 3183   7.515   5.811   9.402 -0.5453  0.4682  1.8623
   24SAPC  C216 3184   7.394   5.845   9.219 -0.4508 -0.3103 -0.5025
   24SAPC  H16R 3185   7.297   5.795   9.200 -0.9757 -0.3817  2.1070
   24SAPC  H16S 3186   7.482   5.810   9.161 -0.5868 -3.3097  1.0248
   24SAPC  C217 3187   7.383   5.998   9.179  0.2264 -0.1757  0.6165
   24SAPC  H17R 3188   7.293   6.035   9.232  0.2509 -0.9127  1.1941
   24SAPC  H17S 3189   7.368   6.001   9.069  0.4018 -2.4184  0.5129
   24SAPC  C218 3190   7.503   6.087   9.214  0.2587  0.0173 -0.1731
   24SAPC  H18R 3191   7.591   6.083   9.147 -0.3974  3.0794 -1.3082
   24SAPC  H18S 3192   7.529   6.059   9.319  2.3598 -0.9314 -0.9161
   24SAPC  C219 3193   7.453   6.233   9.223 -0.0177  0.3987  0.1795
   24SAPC  H19R 3194   7.544   6.297   9.236  0.3920  0.0529 -0.9417
   24SAPC  H19S 3195   7.385   6.245   9.309  1.1369 -2.1780  1.5034
   24SAPC  C220 3196   7.373   6.278   9.100 -0.3312  0.3839  0.1446
   24SAPC  H20R 3197   7.432   6.301   9.009  1.1472  0.5565  1.1278
   24SAPC  H20S 3198   7.329   6.379   9.119 -0.1090  1.2683 -3.6123
   24SAPC  H20T 3199   7.290   6.207   9.080  0.1583 -0.1657  0.0572
   24SAPC   C33 3200   6.997   5.430  10.615 -0.2711  0.2856  0.1202
   24SAPC   H3X 3201   6.970   5.358  10.695  0.6768  0.9455  1.0378
   24SAPC   H3Y 3202   7.071   5.497  10.664  0.1520  0.6280 -0.9757
   24SAPC   C34 3203   7.063   5.343  10.507 -0.4751  0.1153 -0.2572
   24SAPC   H4X 3204   6.983   5.272  10.477 -0.6333 -0.3750  1.2568
   24SAPC   H4Y 3205   7.139   5.274  10.548 -0.2253  0.4932 -0.0836
   24SAPC   C35 3206   7.131   5.417  10.389 -0.4521 -0.3845 -0.1379
   24SAPC   H5X 3207   7.215   5.484  10.417  0.7914 -2.2566  0.7405
   24SAPC   H5Y 3208   7.059   5.477  10.330  1.1734  2.4663  0.6845
   24SAPC   C36 3209   7.199   5.309  10.296  0.1039 -0.4460  0.4347
   24SAPC   H6X 3210   7.120   5.242  10.256 -1.3148  0.1106  2.2159
   24SAPC   H6Y 3211   7.267   5.243  10.354 -0.9729 -0.5840  1.5480
   24SAPC   C37 3212   7.274   5.373  10.173  0.3103 -0.0042 -0.0918
   24SAPC   H7X 3213   7.362   5.433  10.203 -0.3682  1.5615 -1.1891
   24SAPC   H7Y 3214   7.200   5.425  10.108  0.4462  0.2555 -0.0396
   24SAPC   C38 3215   7.321   5.251  10.090  0.5371  0.2999 -1.1462
   24SAPC   H8X 3216   7.233   5.184  10.076  1.4253 -1.0302 -0.4999
   24SAPC   H8Y 3217   7.406   5.205  10.145  0.8106 -0.3783 -2.1060
   24SAPC   C39 3218   7.370   5.283   9.944  0.1055 -0.1199 -0.6378
   24SAPC   H9X 3219   7.274   5.300   9.890 -0.4248  1.5638  0.7721
   24SAPC   H9Y 3220   7.414   5.191   9.899  1.0448  0.0591 -0.0809
   24SAPC  C310 3221   7.463   5.407   9.925 -0.4245 -0.1837  0.1811
   24SAPC  H10X 3222   7.559   5.391   9.979  0.4279  1.7663 -0.6883
   24SAPC  H10Y 3223   7.414   5.494   9.972 -1.8125 -1.0857  0.4349
   24SAPC  C311 3224   7.493   5.432   9.776  0.1734  0.3008  0.4106
   24SAPC  H11X 3225   7.402   5.469   9.725 -1.5526 -3.5703  0.5685
   24SAPC  H11Y 3226   7.518   5.334   9.732 -0.7601 -1.1756  3.0543
   24SAPC  C312 3227   7.600   5.540   9.737 -0.2784 -0.0827 -0.7354
   24SAPC  H12X 3228   7.694   5.530   9.795 -1.3772  1.1808  1.3029
   24SAPC  H12Y 3229   7.548   5.638   9.745  0.7756  0.6259 -2.3059
   24SAPC  C313 3230   7.642   5.536   9.592 -0.4231 -0.0780  0.2227
   24SAPC  H13X 3231   7.541   5.547   9.549 -1.2942  0.4430  2.3279
   24SAPC  H13Y 3232   7.681   5.439   9.554  0.8828  0.2367  0.7073
   24SAPC  C314 3233   7.747   5.647   9.562  0.0068 -0.1528  0.2591
   24SAPC  H14X 3234   7.822   5.638   9.643  1.9306 -0.4684 -1.5033
   24SAPC  H14Y 3235   7.709   5.751   9.571 -1.4032 -0.4149 -2.0308
   24SAPC  C315 3236   7.812   5.627   9.425 -0.2827  0.4950  0.1778
   24SAPC  H15X 3237   7.888   5.548   9.444  1.0956  2.3037  2.5028
   24SAPC  H15Y 3238   7.870   5.720   9.405  3.5843 -1.7750  0.2896
   24SAPC  C316 3239   7.716   5.591   9.310 -0.7440  0.3530  0.2840
   24SAPC  H16X 3240   7.630   5.661   9.312  0.4646  1.8748 -0.1291
   24SAPC  H16Y 3241   7.670   5.490   9.319 -0.4353  0.3350  1.7228
   24SAPC  C317 3242   7.786   5.593   9.172 -0.2266  0.2440  0.2571
   24SAPC  H17X 3243   7.716   5.551   9.096 -1.5197 -1.4471  2.3181
   24SAPC  H17Y 3244   7.871   5.521   9.177 -0.7273 -0.7822 -4.1710
   24SAPC  C318 3245   7.836   5.726   9.107 -0.3440  0.1814  0.1310
   24SAPC  H18X 3246   7.882   5.718   9.006 -0.1115  0.6960  0.1941
   24SAPC  H18Y 3247   7.917   5.770   9.169  0.1921  0.8706 -1.0293
   24SAPC  H18Z 3248   7.750   5.796   9.098 -1.1940 -0.7124  1.2942
   25SAPC     N 3249   2.997   3.023   5.733  0.2385 -0.3556 -0.4441
   25SAPC   C12 3250   3.115   2.989   5.816  0.0685 -0.0641  0.3220
   25SAPC  H12A 3251   3.201   2.972   5.754 -1.8995 -0.5045 -2.3674
   25SAPC  H12B 3252   3.100   2.894   5.866  0.6164  0.0860  0.7798
   25SAPC   C13 3253   2.873   3.004   5.815 -0.1802  0.4523 -0.4061
   25SAPC  H13A 3254   2.872   3.040   5.917  0.5072  1.0095 -0.5946
   25SAPC  H13B 3255   2.795   3.051   5.757  0.1503  0.1544 -1.0832
   25SAPC  H13C 3256   2.856   2.898   5.827  2.0767  0.0879 -0.2314
   25SAPC   C14 3257   3.017   3.162   5.690 -0.2506 -0.6683  0.3346
   25SAPC  H14A 3258   3.096   3.171   5.616  0.4195  0.1955  1.1343
   25SAPC  H14B 3259   2.927   3.195   5.641 -0.0758 -0.8400 -0.1080
   25SAPC  H14C 3260   3.042   3.222   5.777 -0.4247 -3.4517  2.3871
   25SAPC   C15 3261   2.976   2.932   5.611  0.8333  0.3867 -0.0741
   25SAPC  H15A 3262   3.060   2.911   5.547  1.3854  0.7633  0.5115
   25SAPC  H15B 3263   2.934   2.837   5.643 -0.4646  0.2098 -2.2299
   25SAPC  H15C 3264   2.902   2.988   5.557 -0.3924 -0.8851  0.2481
   25SAPC   C11 3265   3.159   3.088   5.929 -0.7376 -0.2125  0.2782
   25SAPC  H11A 3266   3.182   3.190   5.893 -0.0954 -0.5656 -0.3170
   25SAPC  H11B 3267   3.257   3.051   5.965  0.9221  3.0533 -0.7045
   25SAPC     P 3268   3.054   3.231   6.115  0.0227  0.5920  0.2853
   25SAPC   O13 3269   3.024   3.335   6.012 -0.2982 -0.0561  0.1773
   25SAPC   O14 3270   2.961   3.219   6.228 -0.2437  0.2093 -0.3849
   25SAPC   O12 3271   3.077   3.084   6.044  0.5879 -0.6893  0.1769
   25SAPC   O11 3272   3.198   3.261   6.169 -0.3268 -0.2921 -0.3920
   25SAPC    C1 3273   3.294   3.171   6.218 -0.5579 -0.3715 -0.3501
   25SAPC    HA 3274   3.250   3.069   6.217 -2.8148  0.5847 -0.9393
   25SAPC    HB 3275   3.384   3.162   6.154 -0.5929 -1.5315 -0.2539
   25SAPC    C2 3276   3.339   3.211   6.361  0.4567  0.5833 -0.4663
   25SAPC    HS 3277   3.403   3.132   6.406  0.6514 -0.1064 -1.9235
   25SAPC   O21 3278   3.219   3.222   6.441 -0.1770 -0.1556  0.0716
   25SAPC   C21 3279   3.171   3.111   6.483 -0.2665  0.0561 -0.7431
   25SAPC   O22 3280   3.225   3.000   6.468 -0.1172  0.2644  0.2070
   25SAPC   C22 3281   3.034   3.130   6.544  1.0034 -0.2031 -0.0607
   25SAPC   H2R 3282   2.970   3.185   6.473 -2.5037 -0.8566  2.4667
   25SAPC   H2S 3283   3.007   3.029   6.581 -2.0888  0.0665 -1.4310
   25SAPC    C3 3284   3.423   3.339   6.365 -0.1586 -0.9853 -0.3499
   25SAPC    HX 3285   3.350   3.416   6.333 -1.0354 -0.6820  2.2584
   25SAPC    HY 3286   3.505   3.335   6.290 -0.2870  1.0191 -0.6357
   25SAPC   O31 3287   3.466   3.378   6.494 -0.4472  0.4220 -0.0171
   25SAPC   C31 3288   3.411   3.485   6.555  0.0154  0.4316 -0.0299
   25SAPC   O32 3289   3.320   3.554   6.507  0.1881 -0.2657 -0.1074
   25SAPC   C32 3290   3.467   3.503   6.697 -0.3836 -0.2153 -0.2293
   25SAPC   H2X 3291   3.577   3.492   6.703 -0.1514  1.3990 -1.2655
   25SAPC   H2Y 3292   3.427   3.424   6.765  0.5799 -0.9292 -0.4808
   25SAPC   C23 3293   3.047   3.228   6.661  0.0137 -0.3154 -0.5798
   25SAPC   H3R 3294   3.000   3.320   6.621 -0.9183 -0.7729 -0.5588
   25SAPC   H3S 3295   3.152   3.245   6.694 -0.6898 -0.2844  1.7311
   25SAPC   C24 3296   2.958   3.193   6.775  0.3531  0.9487 -0.3237
   25SAPC   H4R 3297   2.995   3.107   6.835  0.1892  0.8597 -0.3490
   25SAPC   H4S 3298   2.852   3.168   6.750  0.5878  0.2879 -0.6614
   25SAPC   C25 3299   2.946   3.312   6.873 -0.2048  0.7441 -0.0593
   25SAPC   H5R 3300   2.891   3.396   6.829 -1.4442 -0.4193 -0.7618
   25SAPC   C26 3301   2.995   3.323   7.000 -0.5315  0.9092  0.4965
   25SAPC   H6R 3302   2.970   3.415   7.055 -1.9999 -0.1170  1.5975
   25SAPC   C27 3303   3.066   3.229   7.084  0.3170 -0.7500  0.6361
   25SAPC   H7R 3304   3.004   3.140   7.111  0.4824 -1.0037  0.1875
   25SAPC   H7S 3305   3.082   3.271   7.185  1.3237 -1.3959  0.7500
   25SAPC   C28 3306   3.195   3.174   7.037 -0.8998 -0.3949  0.1310
   25SAPC   H8R 3307   3.230   3.221   6.944  1.4734 -1.2823  0.5281
   25SAPC   C29 3308   3.271   3.072   7.091 -0.3300  1.3424 -0.0652
   25SAPC   H9R 3309   3.362   3.039   7.038  0.0732  1.8480  0.2990
   25SAPC  C210 3310   3.243   2.990   7.215  0.3560  0.6912 -0.4008
   25SAPC  H10R 3311   3.183   2.899   7.191  0.6118 -0.0451  1.6259
   25SAPC  H10S 3312   3.166   3.042   7.276  0.0291  1.0960 -1.1595
   25SAPC  C211 3313   3.364   2.948   7.293  0.3889  0.0397  1.0969
   25SAPC  H11R 3314   3.462   2.964   7.246  0.6531 -0.0189  1.6252
   25SAPC  C212 3315   3.360   2.904   7.418  0.0557  0.1455  0.5046
   25SAPC  H12R 3316   3.455   2.868   7.460 -0.2364 -2.7412 -1.1418
   25SAPC  C213 3317   3.242   2.889   7.510  0.0098 -0.1980  0.6333
   25SAPC  H13R 3318   3.200   2.787   7.519  0.9525 -0.5212  1.4425
   25SAPC  H13S 3319   3.158   2.945   7.463 -2.1515 -2.8205  1.2701
   25SAPC  C214 3320   3.268   2.937   7.644  0.9181 -1.5848 -0.3259
   25SAPC  H14R 3321   3.249   3.044   7.661  0.6870 -1.7810  0.7035
   25SAPC  C215 3322   3.303   2.864   7.755 -0.4282 -0.7529  0.1010
   25SAPC  H15R 3323   3.306   2.918   7.851 -0.1277  1.3732 -1.0702
   25SAPC  C216 3324   3.346   2.724   7.755  0.3136 -0.0863  0.0673
   25SAPC  H16R 3325   3.453   2.711   7.782  0.6448  0.5752 -0.9271
   25SAPC  H16S 3326   3.323   2.666   7.664 -0.6786 -1.1024  0.9512
   25SAPC  C217 3327   3.250   2.664   7.862 -0.4699 -0.9957  0.3862
   25SAPC  H17R 3328   3.144   2.694   7.844 -0.1368  1.0704  1.7155
   25SAPC  H17S 3329   3.273   2.712   7.959 -1.7650  0.5170 -0.0238
   25SAPC  C218 3330   3.260   2.516   7.875 -0.8189 -0.2618 -0.1076
   25SAPC  H18R 3331   3.271   2.462   7.779 -0.1044 -1.6917  0.7658
   25SAPC  H18S 3332   3.164   2.482   7.920 -0.3633  0.1908  1.2453
   25SAPC  C219 3333   3.374   2.476   7.970 -0.2199  0.0289 -0.9495
   25SAPC  H19R 3334   3.355   2.533   8.063  1.0360  3.2715 -2.5915
   25SAPC  H19S 3335   3.476   2.503   7.935  0.2937  0.9235  1.1683
   25SAPC  C220 3336   3.376   2.330   8.008 -0.1020  0.2565 -0.2496
   25SAPC  H20R 3337   3.457   2.296   8.077  0.2421 -0.0063 -0.7788
   25SAPC  H20S 3338   3.389   2.280   7.910  1.3807 -0.3626  0.2358
   25SAPC  H20T 3339   3.285   2.283   8.052  1.0777  1.2911  3.4505
   25SAPC   C33 3340   3.426   3.631   6.775 -0.4116 -0.1880  0.2708
   25SAPC   H3X 3341   3.455   3.718   6.712 -3.2447  1.2148  0.8449
   25SAPC   H3Y 3342   3.484   3.641   6.869  1.9394  1.3208 -1.2948
   25SAPC   C34 3343   3.277   3.646   6.812  0.1117  0.2388  0.1163
   25SAPC   H4X 3344   3.244   3.586   6.899 -2.1141  0.6964 -0.3770
   25SAPC   H4Y 3345   3.206   3.614   6.733 -0.7309  0.0287  0.9566
   25SAPC   C35 3346   3.228   3.789   6.850  0.1290  1.2823  0.0382
   25SAPC   H5X 3347   3.122   3.791   6.882  0.3194  1.2209  0.6799
   25SAPC   H5Y 3348   3.237   3.860   6.765 -0.0847  2.4765  0.9962
   25SAPC   C36 3349   3.310   3.846   6.969  0.1233 -0.1546  0.3449
   25SAPC   H6X 3350   3.306   3.957   6.970  0.7294 -0.1328  0.7251
   25SAPC   H6Y 3351   3.417   3.836   6.943 -0.0403  2.1258 -1.3518
   25SAPC   C37 3352   3.281   3.787   7.101 -0.7112 -0.4461 -0.0112
   25SAPC   H7X 3353   3.327   3.687   7.103 -1.4875 -0.7878  1.4534
   25SAPC   H7Y 3354   3.174   3.759   7.116 -1.1815  0.9827 -0.6035
   25SAPC   C38 3355   3.325   3.880   7.213  0.4263  1.0776  0.1171
   25SAPC   H8X 3356   3.266   3.974   7.206 -0.9982  0.0489 -2.1084
   25SAPC   H8Y 3357   3.431   3.911   7.203  1.8245 -3.3752  0.1284
   25SAPC   C39 3358   3.307   3.802   7.351 -0.8602 -0.4576  0.0297
   25SAPC   H9X 3359   3.366   3.710   7.367  0.3927  0.5645  1.4206
   25SAPC   H9Y 3360   3.197   3.786   7.353 -0.9173 -0.0614  0.1134
   25SAPC  C310 3361   3.344   3.893   7.477  0.7833 -0.3434 -0.2692
   25SAPC  H10X 3362   3.449   3.928   7.464  0.7177 -0.0591 -0.0554
   25SAPC  H10Y 3363   3.336   3.844   7.576 -0.3715 -0.0249 -0.2003
   25SAPC  C311 3364   3.259   4.020   7.485  0.0830 -0.3944  0.0602
   25SAPC  H11X 3365   3.155   3.982   7.485  0.0484 -0.3289 -0.8118
   25SAPC  H11Y 3366   3.277   4.073   7.388 -0.4680 -1.3704 -0.5822
   25SAPC  C312 3367   3.281   4.109   7.607  0.3179  0.5851 -0.6830
   25SAPC  H12X 3368   3.193   4.175   7.620 -1.3605 -1.7080 -0.0628
   25SAPC  H12Y 3369   3.375   4.164   7.584  1.1031 -0.1335  0.7051
   25SAPC  C313 3370   3.311   4.049   7.740 -1.1810  0.2555 -0.2440
   25SAPC  H13X 3371   3.403   3.988   7.739 -1.4361 -0.1678  0.7814
   25SAPC  H13Y 3372   3.233   3.974   7.764  2.7619 -3.7596  0.6140
   25SAPC  C314 3373   3.298   4.159   7.848 -0.5910 -1.0299 -0.5157
   25SAPC  H14X 3374   3.195   4.199   7.848 -0.2544 -0.1409 -0.4855
   25SAPC  H14Y 3375   3.362   4.249   7.839  0.7330 -1.6871  1.8526
   25SAPC  C315 3376   3.329   4.097   7.985 -0.2016 -0.5161  0.4297
   25SAPC  H15X 3377   3.440   4.090   7.997 -0.3566 -0.6848  1.9077
   25SAPC  H15Y 3378   3.279   3.997   7.985 -1.0351 -0.1233  1.8699
   25SAPC  C316 3379   3.272   4.173   8.096  0.0113  0.0336 -0.1569
   25SAPC  H16X 3380   3.161   4.166   8.102 -0.0576 -0.2484 -1.3941
   25SAPC  H16Y 3381   3.281   4.275   8.053 -2.4791 -0.1707 -1.3223
   25SAPC  C317 3382   3.333   4.154   8.233 -0.2378  0.3297 -0.3629
   25SAPC  H17X 3383   3.442   4.161   8.215 -0.2675 -0.1591 -0.7461
   25SAPC  H17Y 3384   3.309   4.053   8.273 -0.3290 -0.5000 -2.4475
   25SAPC  C318 3385   3.295   4.266   8.330 -0.7348 -0.3589 -0.9047
   25SAPC  H18X 3386   3.185   4.260   8.347 -0.4163 -2.3725  0.6258
   25SAPC  H18Y 3387   3.328   4.363   8.289  1.4143 -1.9361 -3.0428
   25SAPC  H18Z 3388   3.341   4.257   8.431 -1.2630  0.7825 -0.5587
   26SAPC     N 3389   2.594   5.781   5.943  0.1716  0.2755  0.1135
   26SAPC   C12 3390   2.538   5.661   6.010  0.0512 -0.3373  0.3209
   26SAPC  H12A 3391   2.596   5.579   5.970  0.8201  1.6897 -2.9227
   26SAPC  H12B 3392   2.437   5.644   5.974  0.2730 -1.4153  0.1905
   26SAPC   C13 3393   2.740   5.799   5.989 -0.6580  0.1956  0.6103
   26SAPC  H13A 3394   2.755   5.772   6.093 -0.7855  0.3360  0.6654
   26SAPC  H13B 3395   2.800   5.733   5.929  0.4294  2.0241 -0.3616
   26SAPC  H13C 3396   2.783   5.898   5.987 -0.2515 -0.0003 -2.6252
   26SAPC   C14 3397   2.593   5.779   5.796  0.4288 -0.1132 -0.5473
   26SAPC  H14A 3398   2.494   5.783   5.753  0.8066 -0.1339 -1.4319
   26SAPC  H14B 3399   2.664   5.851   5.758  3.6624 -3.0827 -0.3797
   26SAPC  H14C 3400   2.644   5.692   5.757  0.2750 -1.2564  1.7085
   26SAPC   C15 3401   2.512   5.903   5.978 -0.0283  0.1552 -0.1540
   26SAPC  H15A 3402   2.534   5.983   5.910 -1.8406 -0.3397 -1.3593
   26SAPC  H15B 3403   2.406   5.890   5.966 -0.2579  1.9972 -0.1160
   26SAPC  H15C 3404   2.540   5.934   6.078 -0.5027 -1.2580  0.4467
   26SAPC   C11 3405   2.542   5.644   6.162  0.3539 -0.7390  0.1802
   26SAPC  H11A 3406   2.623   5.712   6.200  0.2623  0.4156 -1.6375
   26SAPC  H11B 3407   2.564   5.543   6.203 -0.3427 -0.9261  0.0938
   26SAPC     P 3408   2.299   5.630   6.216  0.6934 -0.0686 -0.0858
   26SAPC   O13 3409   2.194   5.700   6.137 -0.4798 -0.5642 -0.5736
   26SAPC   O14 3410   2.326   5.487   6.194  0.0867  0.0744 -0.0727
   26SAPC   O12 3411   2.427   5.711   6.217  0.0162 -0.4114 -0.5928
   26SAPC   O11 3412   2.254   5.643   6.365  0.5872 -1.0479 -0.0894
   26SAPC    C1 3413   2.274   5.750   6.453 -0.5474 -0.3314 -1.2148
   26SAPC    HA 3414   2.315   5.845   6.415  3.2429 -1.2036  0.4913
   26SAPC    HB 3415   2.189   5.761   6.524  2.7850 -4.0691  3.6918
   26SAPC    C2 3416   2.394   5.706   6.547  0.5554 -0.4323  0.6812
   26SAPC    HS 3417   2.479   5.699   6.475 -0.5040 -2.8389 -0.4011
   26SAPC   O21 3418   2.360   5.578   6.597  0.2703 -0.2167 -0.2665
   26SAPC   C21 3419   2.454   5.508   6.652 -0.2329  0.2481  0.1456
   26SAPC   O22 3420   2.575   5.514   6.645  0.8579 -0.6576 -0.0548
   26SAPC   C22 3421   2.381   5.400   6.740 -1.0836  0.1632 -0.1196
   26SAPC   H2R 3422   2.339   5.456   6.826  0.6636 -0.4761  1.1538
   26SAPC   H2S 3423   2.296   5.366   6.677 -0.9985  1.6284 -1.0514
   26SAPC    C3 3424   2.416   5.816   6.656 -0.5321 -0.5169 -0.0934
   26SAPC    HX 3425   2.446   5.914   6.612 -2.9585  0.1392 -0.3213
   26SAPC    HY 3426   2.501   5.781   6.718  1.1054 -1.2645 -2.6637
   26SAPC   O31 3427   2.294   5.844   6.729 -0.6089  0.4460 -0.9390
   26SAPC   C31 3428   2.281   5.782   6.845 -0.0395  0.4170  0.1916
   26SAPC   O32 3429   2.371   5.714   6.900  0.5141 -0.1144  0.1238
   26SAPC   C32 3430   2.146   5.806   6.907  0.2279  0.2256  0.3934
   26SAPC   H2X 3431   2.098   5.706   6.899  0.5551  0.0511  0.6079
   26SAPC   H2Y 3432   2.095   5.884   6.846  1.3206  1.3676  0.9005
   26SAPC   C23 3433   2.469   5.287   6.800  0.0355 -0.0812 -0.2963
   26SAPC   H3R 3434   2.555   5.323   6.862 -1.1343 -2.7757  3.0466
   26SAPC   H3S 3435   2.516   5.238   6.713 -0.9318  1.0439 -1.4730
   26SAPC   C24 3436   2.380   5.194   6.881  0.0987 -0.2017  0.1059
   26SAPC   H4R 3437   2.439   5.103   6.905  0.4926  0.1934  0.6754
   26SAPC   H4S 3438   2.292   5.161   6.822 -0.1706 -0.6926  0.7828
   26SAPC   C25 3439   2.345   5.256   7.015  0.1444 -0.5503 -0.4235
   26SAPC   H5R 3440   2.428   5.302   7.071 -0.7728  0.9195 -0.2132
   26SAPC   C26 3441   2.216   5.254   7.071  0.2273 -0.1775  0.6394
   26SAPC   H6R 3442   2.204   5.310   7.166  3.7112  1.6021  0.1215
   26SAPC   C27 3443   2.086   5.197   7.020 -0.2382 -0.4673 -1.3706
   26SAPC   H7R 3444   2.101   5.129   6.933  0.2223 -0.6575 -1.1418
   26SAPC   H7S 3445   2.029   5.276   6.968  1.0762  0.4126 -1.4998
   26SAPC   C28 3446   1.989   5.126   7.111 -0.1514 -0.6637 -0.1065
   26SAPC   H8R 3447   1.888   5.117   7.068 -0.4867 -2.1068  0.9357
   26SAPC   C29 3448   2.008   5.059   7.229  0.1432  0.1500  0.6364
   26SAPC   H9R 3449   1.917   5.006   7.263 -1.4625  2.1689 -0.4340
   26SAPC  C210 3450   2.139   5.040   7.305  0.9390 -0.5153  0.0532
   26SAPC  H10R 3451   2.225   5.091   7.255 -0.7233  1.0066 -1.3386
   26SAPC  H10S 3452   2.172   4.934   7.309  1.5056 -0.3546 -0.3009
   26SAPC  C211 3453   2.123   5.098   7.443  0.7746 -0.0464  0.2151
   26SAPC  H11R 3454   2.061   5.188   7.453  0.4126  0.0098 -2.1897
   26SAPC  C212 3455   2.163   5.050   7.560  0.9486  0.4827  0.0138
   26SAPC  H12R 3456   2.133   5.105   7.650  1.2904  1.4006 -0.4318
   26SAPC  C213 3457   2.230   4.917   7.573  0.0794 -0.2499  0.5719
   26SAPC  H13R 3458   2.269   4.884   7.474 -1.9195 -0.5467 -0.1472
   26SAPC  H13S 3459   2.154   4.841   7.603 -1.4753  1.3323  0.6692
   26SAPC  C214 3460   2.343   4.927   7.676  0.2232 -0.4685 -0.6237
   26SAPC  H14R 3461   2.411   5.013   7.669  0.3331 -0.6356 -1.7946
   26SAPC  C215 3462   2.347   4.850   7.788  0.4557 -0.2678  0.1537
   26SAPC  H15R 3463   2.434   4.860   7.854 -0.3619  2.0666  0.9250
   26SAPC  C216 3464   2.254   4.735   7.835 -0.1170 -0.9493  0.1803
   26SAPC  H16R 3465   2.299   4.637   7.808  0.0353 -0.8987  0.2472
   26SAPC  H16S 3466   2.152   4.747   7.792  0.9879 -0.0114 -2.2412
   26SAPC  C217 3467   2.255   4.741   7.991 -0.0430 -0.5756 -0.1138
   26SAPC  H17R 3468   2.223   4.842   8.025  0.5002 -0.6364  0.5953
   26SAPC  H17S 3469   2.360   4.734   8.026 -0.6934 -0.8479  1.8483
   26SAPC  C218 3470   2.174   4.630   8.063  0.4091  0.3996 -0.9423
   26SAPC  H18R 3471   2.214   4.538   8.015  2.2849  0.2558  0.7944
   26SAPC  H18S 3472   2.066   4.652   8.053  0.3329 -0.5674 -2.4565
   26SAPC  C219 3473   2.209   4.615   8.213 -0.3575 -0.0214 -0.2153
   26SAPC  H19R 3474   2.168   4.701   8.271 -2.3672 -0.6328 -0.6995
   26SAPC  H19S 3475   2.318   4.621   8.233 -0.3571 -1.4787  0.2848
   26SAPC  C220 3476   2.151   4.489   8.280  0.3818 -0.8858  0.1228
   26SAPC  H20R 3477   2.053   4.472   8.231  0.0162  3.0476 -0.7068
   26SAPC  H20S 3478   2.152   4.509   8.390 -0.0291  1.5093 -0.2766
   26SAPC  H20T 3479   2.221   4.403   8.274  1.4347 -0.1189  1.0600
   26SAPC   C33 3480   2.154   5.842   7.056 -0.9662 -0.3795 -0.1750
   26SAPC   H3X 3481   2.203   5.756   7.107 -1.6222 -1.7188 -1.7559
   26SAPC   H3Y 3482   2.053   5.861   7.099 -0.7994  0.2939 -0.0787
   26SAPC   C34 3483   2.238   5.971   7.083 -0.0143  0.1634  1.3174
   26SAPC   H4X 3484   2.182   6.052   7.032 -0.2981 -1.1678 -0.5250
   26SAPC   H4Y 3485   2.343   5.975   7.046 -0.0071 -1.7292  1.0551
   26SAPC   C35 3486   2.233   6.011   7.229 -0.2934  0.6017 -0.7689
   26SAPC   H5X 3487   2.127   6.020   7.262  0.0830  0.1397  0.6036
   26SAPC   H5Y 3488   2.275   6.113   7.242 -2.7391  1.4597  0.8059
   26SAPC   C36 3489   2.309   5.912   7.313 -0.1518  0.2432 -0.4598
   26SAPC   H6X 3490   2.416   5.933   7.297 -0.4248  3.8404  1.8888
   26SAPC   H6Y 3491   2.291   5.809   7.276 -0.1633  0.1197 -0.1086
   26SAPC   C37 3492   2.285   5.928   7.458  0.2035  0.5520  0.4975
   26SAPC   H7X 3493   2.179   5.910   7.487 -0.4258 -0.6964 -2.3463
   26SAPC   H7Y 3494   2.307   6.035   7.481  0.6639 -0.1635  3.5165
   26SAPC   C38 3495   2.374   5.824   7.534  0.2735  0.0161  0.1735
   26SAPC   H8X 3496   2.466   5.814   7.472  0.4407  1.3547  0.2060
   26SAPC   H8Y 3497   2.317   5.728   7.534 -1.1326  0.8488 -0.7890
   26SAPC   C39 3498   2.414   5.857   7.683  0.0702 -0.0057  0.4046
   26SAPC   H9X 3499   2.432   5.966   7.693 -0.9224  0.1367  0.7447
   26SAPC   H9Y 3500   2.507   5.800   7.706 -0.5498 -1.0581  0.3355
   26SAPC  C310 3501   2.303   5.822   7.790 -0.4142  0.4088  0.5153
   26SAPC  H10X 3502   2.310   5.712   7.806 -0.8331  0.3611  0.3597
   26SAPC  H10Y 3503   2.207   5.836   7.737  1.2954  1.7305 -2.3670
   26SAPC  C311 3504   2.310   5.890   7.922  0.4832 -0.1164  0.2910
   26SAPC  H11X 3505   2.206   5.886   7.959 -0.5470 -2.4147 -2.6609
   26SAPC  H11Y 3506   2.342   5.994   7.898 -0.8006  0.1905 -0.1473
   26SAPC  C312 3507   2.409   5.832   8.023  0.4920 -0.3547  0.1187
   26SAPC  H12X 3508   2.510   5.840   7.978  0.6377  0.2346  0.5374
   26SAPC  H12Y 3509   2.384   5.724   8.037  2.0151 -0.9401 -1.5013
   26SAPC  C313 3510   2.417   5.911   8.153 -0.6473  0.1460  0.1288
   26SAPC  H13X 3511   2.345   5.873   8.229  0.8658 -1.9231  0.5915
   26SAPC  H13Y 3512   2.387   6.015   8.131 -2.2194  0.4382  3.3848
   26SAPC  C314 3513   2.565   5.898   8.205  0.1184 -0.5336  1.2665
   26SAPC  H14X 3514   2.636   5.946   8.135 -0.3946  0.4696  1.4304
   26SAPC  H14Y 3515   2.593   5.790   8.203  1.1849 -0.2753  1.9105
   26SAPC  C315 3516   2.584   5.964   8.338 -0.1613 -0.2191 -0.7891
   26SAPC  H15X 3517   2.535   5.911   8.423 -1.1195 -0.5905 -1.5657
   26SAPC  H15Y 3518   2.541   6.065   8.350 -0.1253 -0.5600  3.0569
   26SAPC  C316 3519   2.730   5.994   8.367 -0.3109 -0.2024  0.7812
   26SAPC  H16X 3520   2.770   6.073   8.300 -2.8522  0.6339  0.1825
   26SAPC  H16Y 3521   2.794   5.905   8.349 -0.3260 -0.7950  3.5321
   26SAPC  C317 3522   2.750   6.005   8.517 -0.2222 -0.7200 -0.4416
   26SAPC  H17X 3523   2.855   6.000   8.554 -1.1935 -3.5551  2.1452
   26SAPC  H17Y 3524   2.701   5.921   8.571 -1.0207  1.0941  1.7171
   26SAPC  C318 3525   2.699   6.138   8.578  0.0332 -0.0912 -0.1058
   26SAPC  H18X 3526   2.754   6.221   8.528  0.0742  0.6746  1.2022
   26SAPC  H18Y 3527   2.720   6.138   8.687  1.6345  1.1097 -0.4039
   26SAPC  H18Z 3528   2.591   6.150   8.557 -0.1941  0.4690  1.3307
   27SAPC     N 3529   0.298   6.061   6.453 -0.1677 -0.1856  0.4921
   27SAPC   C12 3530   0.270   6.124   6.595 -0.1449  0.1822  0.0199
   27SAPC  H12A 3531   0.211   6.213   6.587  0.0867  0.2617 -0.8226
   27SAPC  H12B 3532   0.366   6.160   6.629 -0.7092  2.5537 -0.8301
   27SAPC   C13 3533   0.409   5.967   6.459  0.3351  0.2859  0.4530
   27SAPC  H13A 3534   0.436   5.936   6.359 -1.1340 -1.1271  0.4666
   27SAPC  H13B 3535   0.492   6.007   6.515 -0.1468  0.4387  1.0613
   27SAPC  H13C 3536   0.380   5.876   6.508 -0.0948  0.5133  0.6227
   27SAPC   C14 3537   0.181   5.997   6.391 -0.1586 -0.4197  0.7583
   27SAPC  H14A 3538   0.153   5.908   6.447 -0.2129 -1.2538 -0.5609
   27SAPC  H14B 3539   0.099   6.062   6.366  0.7817  0.0181 -1.3310
   27SAPC  H14C 3540   0.200   5.981   6.286 -0.0277  0.7745  0.6012
   27SAPC   C15 3541   0.345   6.173   6.364 -0.4986  0.1643  0.3201
   27SAPC  H15A 3542   0.368   6.137   6.265  1.1234 -1.4190  1.2488
   27SAPC  H15B 3543   0.274   6.254   6.358 -1.2974 -0.6682 -1.9326
   27SAPC  H15C 3544   0.437   6.205   6.412 -0.4046  0.3260  0.0328
   27SAPC   C11 3545   0.200   6.032   6.701 -0.7635  0.5816  0.7963
   27SAPC  H11A 3546   0.107   6.003   6.648  0.1463  0.3233 -0.7045
   27SAPC  H11B 3547   0.179   6.101   6.785  0.8346  0.6127  1.1763
   27SAPC     P 3548   0.394   5.891   6.820  0.6962 -0.3464 -0.7107
   27SAPC   O13 3549   0.499   5.804   6.757  0.4174 -0.1070  0.4943
   27SAPC   O14 3550   0.447   6.024   6.853 -0.4527  0.2308  0.0116
   27SAPC   O12 3551   0.263   5.904   6.726 -0.0449  0.4224 -0.0329
   27SAPC   O11 3552   0.349   5.822   6.953 -0.2709  0.7377 -0.1890
   27SAPC    C1 3553   0.258   5.708   6.948  0.1434 -0.1079 -0.5758
   27SAPC    HA 3554   0.171   5.733   6.884 -0.4463 -0.5550  0.0397
   27SAPC    HB 3555   0.300   5.620   6.894 -1.0556 -1.0017 -0.0712
   27SAPC    C2 3556   0.224   5.658   7.091  0.4178 -0.5135  0.0907
   27SAPC    HS 3557   0.147   5.579   7.076  0.4805 -0.8130  1.3496
   27SAPC   O21 3558   0.163   5.767   7.172 -0.7160 -0.0683 -0.2029
   27SAPC   C21 3559   0.041   5.797   7.139  0.2208  0.2907  0.2488
   27SAPC   O22 3560  -0.027   5.742   7.060 -0.0396 -0.5618  0.4122
   27SAPC   C22 3561   0.003   5.926   7.214 -0.1560  0.9647  0.1057
   27SAPC   H2R 3562   0.084   5.988   7.258  1.5627 -1.1945  0.0887
   27SAPC   H2S 3563  -0.055   5.993   7.147 -0.9980 -1.6755 -1.9178
   27SAPC    C3 3564   0.349   5.594   7.148 -0.6367  0.2726  0.3421
   27SAPC    HX 3565   0.434   5.665   7.136 -0.0628 -0.6816 -1.4687
   27SAPC    HY 3566   0.371   5.508   7.082 -3.4562  1.1794 -1.8977
   27SAPC   O31 3567   0.323   5.536   7.277 -0.1725 -0.2943  0.1681
   27SAPC   C31 3568   0.330   5.634   7.368  0.0232 -0.6424  0.3330
   27SAPC   O32 3569   0.380   5.745   7.349  0.3387  0.3135 -0.2173
   27SAPC   C32 3570   0.283   5.579   7.504  0.6717  0.1288 -0.3232
   27SAPC   H2X 3571   0.302   5.470   7.506  0.8226  0.1616  1.3577
   27SAPC   H2Y 3572   0.174   5.598   7.516  0.5492 -1.0372  0.4737
   27SAPC   C23 3573  -0.100   5.885   7.324  0.1916  0.2778 -0.1995
   27SAPC   H3R 3574  -0.194   5.836   7.293  0.2811 -0.0396  0.0298
   27SAPC   H3S 3575  -0.135   5.982   7.366  0.6815  0.2289  0.3390
   27SAPC   C24 3576  -0.053   5.795   7.438 -1.0261  0.1700 -0.0227
   27SAPC   H4R 3577  -0.024   5.695   7.398 -0.2756  0.6668 -0.7474
   27SAPC   H4S 3578  -0.132   5.791   7.515 -0.5242 -0.1017  0.4804
   27SAPC   C25 3579   0.068   5.861   7.501 -0.5083  0.5551 -0.1638
   27SAPC   H5R 3580   0.161   5.854   7.441 -1.9780 -1.1981 -2.3375
   27SAPC   C26 3581   0.068   5.913   7.626  0.3829 -0.2935  0.4816
   27SAPC   H6R 3582   0.158   5.969   7.656  1.8156 -1.7791 -0.9044
   27SAPC   C27 3583  -0.034   5.916   7.730 -0.4328 -0.0743 -0.0720
   27SAPC   H7R 3584  -0.137   5.929   7.689  0.2762 -0.7147 -2.0981
   27SAPC   H7S 3585  -0.027   6.012   7.784  2.4422  0.0555 -0.5981
   27SAPC   C28 3586  -0.033   5.794   7.817 -0.0858 -0.5472 -0.1050
   27SAPC   H8R 3587  -0.010   5.701   7.763  0.5789 -0.2243 -0.3809
   27SAPC   C29 3588  -0.022   5.786   7.953 -0.3287 -0.1113 -0.2473
   27SAPC   H9R 3589  -0.009   5.685   7.993 -2.6784 -0.6888 -0.8293
   27SAPC  C210 3590  -0.026   5.893   8.056  0.3279 -0.5657 -0.5585
   27SAPC  H10R 3591  -0.062   5.986   8.008  1.4168 -0.3824 -1.0501
   27SAPC  H10S 3592   0.078   5.909   8.092  0.5445 -1.2059 -0.8906
   27SAPC  C211 3593  -0.113   5.857   8.176 -0.7799 -0.1694  0.2148
   27SAPC  H11R 3594  -0.186   5.777   8.153  1.4269 -2.5028  1.0651
   27SAPC  C212 3595  -0.106   5.919   8.295 -0.7059 -0.1793 -0.0685
   27SAPC  H12R 3596  -0.175   5.885   8.374 -0.4758  0.1308  0.2659
   27SAPC  C213 3597  -0.005   6.027   8.330 -0.8320  0.4037  0.3433
   27SAPC  H13R 3598   0.036   6.084   8.244  0.3430  0.8832  1.2174
   27SAPC  H13S 3599   0.080   5.988   8.389  0.8413  3.1448 -0.1676
   27SAPC  C214 3600  -0.073   6.137   8.409 -0.2020 -0.4221  0.2763
   27SAPC  H14R 3601  -0.115   6.218   8.348  1.4964 -0.6899 -1.2978
   27SAPC  C215 3602  -0.104   6.143   8.541  0.0444  0.3977 -0.2810
   27SAPC  H15R 3603  -0.140   6.239   8.580  3.4285  0.6952  2.2905
   27SAPC  C216 3604  -0.073   6.052   8.658 -0.0165 -0.8053 -0.9223
   27SAPC  H16R 3605   0.001   5.980   8.617  2.0674 -0.4128  1.9445
   27SAPC  H16S 3606  -0.158   5.987   8.685  0.8882 -2.2887 -1.5747
   27SAPC  C217 3607   0.014   6.110   8.779  0.6085  0.4914  0.0227
   27SAPC  H17R 3608   0.103   6.173   8.760 -0.6855  2.5832  0.7729
   27SAPC  H17S 3609   0.037   6.017   8.835 -2.2230  1.4057  2.8191
   27SAPC  C218 3610  -0.075   6.204   8.873 -0.5491 -0.2111 -0.3080
   27SAPC  H18R 3611  -0.163   6.146   8.910 -1.2305  0.3650 -1.0235
   27SAPC  H18S 3612  -0.108   6.291   8.814  0.8856  0.0844 -0.6777
   27SAPC  C219 3613   0.005   6.266   8.989 -0.1735  0.1594  0.0701
   27SAPC  H19R 3614   0.055   6.181   9.040  1.7598  2.1916  1.6681
   27SAPC  H19S 3615  -0.060   6.309   9.069  1.1388  1.5298  0.4194
   27SAPC  C220 3616   0.112   6.367   8.954 -0.1225  0.2889  0.4463
   27SAPC  H20R 3617   0.182   6.380   9.040  3.4640 -2.0386 -1.9480
   27SAPC  H20S 3618   0.064   6.462   8.924  2.1202  0.7431 -1.8957
   27SAPC  H20T 3619   0.182   6.345   8.871 -1.0209  0.7271 -0.4364
   27SAPC   C33 3620   0.345   5.645   7.630 -0.6986  0.2481  0.1654
   27SAPC   H3X 3621   0.324   5.754   7.625 -2.4721 -0.0773  0.3821
   27SAPC   H3Y 3622   0.456   5.636   7.629 -0.7806 -0.8879  0.6099
   27SAPC   C34 3623   0.297   5.564   7.757 -0.2802  0.3217 -0.1779
   27SAPC   H4X 3624   0.328   5.457   7.756  0.5256  0.5429  0.3388
   27SAPC   H4Y 3625   0.186   5.566   7.753 -0.3420 -2.7375 -2.0040
   27SAPC   C35 3626   0.350   5.630   7.885 -0.3528 -0.2516 -0.2736
   27SAPC   H5X 3627   0.315   5.736   7.885  0.2029 -0.0645 -1.0739
   27SAPC   H5Y 3628   0.461   5.631   7.886 -0.3559  1.0864  2.0767
   27SAPC   C36 3629   0.300   5.563   8.011 -0.7668  0.1184 -0.7557
   27SAPC   H6X 3630   0.315   5.454   8.001  0.0777  0.1012  0.4675
   27SAPC   H6Y 3631   0.190   5.562   8.023 -0.7845 -0.8128 -1.0030
   27SAPC   C37 3632   0.376   5.598   8.142 -0.1663 -0.7941  0.5190
   27SAPC   H7X 3633   0.380   5.709   8.146 -2.5385 -0.6046 -1.2015
   27SAPC   H7Y 3634   0.480   5.559   8.148 -0.1660 -0.6665  1.4122
   27SAPC   C38 3635   0.300   5.557   8.277 -0.6820 -0.2040 -0.3727
   27SAPC   H8X 3636   0.256   5.458   8.251  0.5910 -0.2688 -2.3825
   27SAPC   H8Y 3637   0.216   5.623   8.308 -0.7041 -0.9270  1.1414
   27SAPC   C39 3638   0.396   5.546   8.392  0.9520  0.0612  0.6863
   27SAPC   H9X 3639   0.454   5.639   8.407  4.3839 -1.7439 -0.6955
   27SAPC   H9Y 3640   0.472   5.470   8.362  0.0989 -0.1714 -0.9107
   27SAPC  C310 3641   0.327   5.493   8.522 -0.6233  0.1737 -0.1899
   27SAPC  H10X 3642   0.238   5.545   8.564  0.0949  0.6186  0.7886
   27SAPC  H10Y 3643   0.409   5.489   8.596 -0.1128 -1.2022 -0.8081
   27SAPC  C311 3644   0.285   5.341   8.504  0.1333  0.3603 -0.3547
   27SAPC  H11X 3645   0.359   5.277   8.451 -0.5991 -0.8051  0.0176
   27SAPC  H11Y 3646   0.191   5.343   8.445  1.0646  2.4413 -1.8424
   27SAPC  C312 3647   0.247   5.275   8.635 -0.7140 -0.2617  0.0466
   27SAPC  H12X 3648   0.178   5.191   8.611 -1.5477  0.4545 -0.0769
   27SAPC  H12Y 3649   0.197   5.347   8.704  0.8778 -0.5951  1.5849
   27SAPC  C313 3650   0.362   5.227   8.724  0.1084  0.5854  0.2272
   27SAPC  H13X 3651   0.424   5.317   8.746 -0.3676  0.7533  0.8792
   27SAPC  H13Y 3652   0.434   5.169   8.662  0.5505  0.8362  0.5012
   27SAPC  C314 3653   0.328   5.150   8.850  0.3698  0.4530  0.3665
   27SAPC  H14X 3654   0.250   5.077   8.820  1.0344 -1.0339  2.1205
   27SAPC  H14Y 3655   0.286   5.212   8.931  2.0365  0.8738  0.9338
   27SAPC  C315 3656   0.446   5.071   8.910 -0.5842 -1.0971 -0.4421
   27SAPC  H15X 3657   0.480   4.988   8.845  0.5312 -0.7184 -0.3441
   27SAPC  H15Y 3658   0.411   5.023   9.004  1.3940 -0.1331  0.8130
   27SAPC  C316 3659   0.563   5.156   8.964 -0.6155  0.0681  0.3225
   27SAPC  H16X 3660   0.534   5.232   9.039 -0.4300  0.5941 -0.1318
   27SAPC  H16Y 3661   0.587   5.228   8.883  2.6725 -1.6068 -0.2845
   27SAPC  C317 3662   0.694   5.085   8.990  0.1792  0.0344 -0.2402
   27SAPC  H17X 3663   0.728   5.035   8.896  1.0883  1.3578 -0.6397
   27SAPC  H17Y 3664   0.688   5.002   9.064  0.3232  0.7750  0.6064
   27SAPC  C318 3665   0.799   5.182   9.036 -0.2952 -0.3493 -0.1658
   27SAPC  H18X 3666   0.762   5.216   9.135  0.4822  2.4171 -0.7857
   27SAPC  H18Y 3667   0.777   5.268   8.969 -2.5586  0.0500  1.0372
   27SAPC  H18Z 3668   0.903   5.142   9.038 -0.6856 -1.2698  2.7363
   28SAPC     N 3669   6.116   2.696   6.146  0.3219 -0.3168  0.6685
   28SAPC   C12 3670   6.133   2.805   6.245 -0.0709 -0.1734 -0.0766
   28SAPC  H12A 3671   6.046   2.812   6.309  0.0611 -2.9626  0.4784
   28SAPC  H12B 3672   6.145   2.895   6.187 -0.5785  1.1139  1.7651
   28SAPC   C13 3673   6.001   2.728   6.062  0.2800  0.4039  0.0782
   28SAPC  H13A 3674   5.989   2.646   5.993 -1.0373 -1.6382  2.6260
   28SAPC  H13B 3675   5.903   2.730   6.107 -0.6977 -0.6438 -1.9218
   28SAPC  H13C 3676   6.007   2.822   6.010  1.4208  0.3902  0.1831
   28SAPC   C14 3677   6.231   2.705   6.055 -0.6222 -0.6530  0.8503
   28SAPC  H14A 3678   6.204   2.657   5.962  0.7905  1.8066 -0.8807
   28SAPC  H14B 3679   6.260   2.806   6.029 -2.5242 -0.5612 -1.0496
   28SAPC  H14C 3680   6.325   2.657   6.078  0.0744 -0.2999 -1.1762
   28SAPC   C15 3681   6.108   2.561   6.201  0.5679  0.2244  0.0279
   28SAPC  H15A 3682   6.019   2.559   6.262  0.9026  1.2384  0.5611
   28SAPC  H15B 3683   6.102   2.478   6.132  0.5468 -0.3470  0.7230
   28SAPC  H15C 3684   6.191   2.541   6.267  0.3578 -0.1429  0.1776
   28SAPC   C11 3685   6.257   2.791   6.344  0.0808 -0.1780  0.0018
   28SAPC  H11A 3686   6.245   2.694   6.396  1.2115  1.0874  2.6957
   28SAPC  H11B 3687   6.241   2.865   6.425 -2.6016 -0.3556 -0.3173
   28SAPC     P 3688   6.514   2.799   6.357 -0.0311 -0.1072 -0.2221
   28SAPC   O13 3689   6.625   2.768   6.263 -0.2359  0.4354 -0.0281
   28SAPC   O14 3690   6.523   2.920   6.442 -0.2844  0.0107  0.6191
   28SAPC   O12 3691   6.383   2.796   6.273 -0.3996 -0.1591  0.1889
   28SAPC   O11 3692   6.497   2.673   6.457 -0.1484  0.5633  0.1379
   28SAPC    C1 3693   6.493   2.537   6.411 -0.6199 -0.2213 -0.4017
   28SAPC    HA 3694   6.389   2.514   6.382 -0.1257 -2.9709 -0.1096
   28SAPC    HB 3695   6.542   2.530   6.311 -1.0958  0.6617 -0.7043
   28SAPC    C2 3696   6.558   2.437   6.513 -0.0115  0.0818  0.7522
   28SAPC    HS 3697   6.533   2.331   6.493 -3.9820  0.5036  3.0312
   28SAPC   O21 3698   6.518   2.459   6.643 -0.0455  0.6250 -0.1824
   28SAPC   C21 3699   6.387   2.448   6.675  0.4892  0.2755  0.1821
   28SAPC   O22 3700   6.302   2.402   6.603  0.3855  0.1390 -0.5518
   28SAPC   C22 3701   6.370   2.477   6.831 -0.5389  0.1819 -0.6047
   28SAPC   H2R 3702   6.339   2.583   6.840 -2.6487 -0.4048 -0.6807
   28SAPC   H2S 3703   6.284   2.418   6.871 -0.7224  0.7800 -0.1055
   28SAPC    C3 3704   6.716   2.442   6.510 -0.5522  0.4034 -0.2599
   28SAPC    HX 3705   6.742   2.549   6.527 -0.5690  0.1843  1.1855
   28SAPC    HY 3706   6.766   2.405   6.418  0.2112 -3.7501  1.7064
   28SAPC   O31 3707   6.763   2.351   6.617 -0.6504 -1.0414 -0.3481
   28SAPC   C31 3708   6.812   2.404   6.726  0.5071 -0.0369  0.6006
   28SAPC   O32 3709   6.819   2.518   6.764  0.2691  0.3764 -0.1989
   28SAPC   C32 3710   6.852   2.282   6.804  0.3246 -0.0054 -0.4122
   28SAPC   H2X 3711   6.944   2.235   6.761 -0.5678  0.6102 -3.0423
   28SAPC   H2Y 3712   6.780   2.199   6.788 -0.4492  0.7014 -0.6266
   28SAPC   C23 3713   6.487   2.440   6.921 -0.6518 -0.7266 -0.3732
   28SAPC   H3R 3714   6.583   2.485   6.886 -1.1158 -0.7862 -1.7562
   28SAPC   H3S 3715   6.504   2.330   6.932  0.2006 -0.5785 -0.1793
   28SAPC   C24 3716   6.462   2.501   7.060 -0.0736  0.9294 -0.9758
   28SAPC   H4R 3717   6.560   2.502   7.112 -0.1403  2.4617 -0.8627
   28SAPC   H4S 3718   6.412   2.601   7.060  2.3429  2.2130  1.2226
   28SAPC   C25 3719   6.367   2.413   7.143  0.5018  0.3717 -0.8868
   28SAPC   H5R 3720   6.287   2.385   7.073  0.7325  0.9198 -1.3749
   28SAPC   C26 3721   6.368   2.371   7.271  0.0973  0.1871 -0.4947
   28SAPC   H6R 3722   6.289   2.297   7.292  0.8908 -0.7823 -0.8865
   28SAPC   C27 3723   6.467   2.415   7.373 -0.2898  0.2017  0.6663
   28SAPC   H7R 3724   6.553   2.462   7.321 -0.5122  0.5138  0.5816
   28SAPC   H7S 3725   6.500   2.329   7.435 -0.4111  0.3763  0.9716
   28SAPC   C28 3726   6.408   2.520   7.465  0.1119 -0.1292  0.2857
   28SAPC   H8R 3727   6.371   2.610   7.412 -0.6687  0.1272  1.2629
   28SAPC   C29 3728   6.413   2.508   7.600  0.2668  0.4099 -0.4270
   28SAPC   H9R 3729   6.365   2.586   7.661 -2.1803 -1.8730  0.6518
   28SAPC  C210 3730   6.467   2.400   7.682  0.1268  1.1487 -0.2928
   28SAPC  H10R 3731   6.526   2.322   7.629 -0.0795 -0.4019  1.6879
   28SAPC  H10S 3732   6.378   2.355   7.730  0.7540 -3.3617 -3.0621
   28SAPC  C211 3733   6.545   2.441   7.801 -0.0206 -0.2888  0.3511
   28SAPC  H11R 3734   6.652   2.455   7.784 -0.0084 -0.2792  0.4360
   28SAPC  C212 3735   6.501   2.468   7.930 -0.2157 -0.2078  0.5719
   28SAPC  H12R 3736   6.575   2.494   8.007 -1.0208  1.5877  0.7718
   28SAPC  C213 3737   6.363   2.456   7.981 -0.7075  0.4743 -0.4738
   28SAPC  H13R 3738   6.312   2.373   7.927 -0.0547 -0.0401 -0.3119
   28SAPC  H13S 3739   6.299   2.545   7.962 -0.9868  0.4909  0.5244
   28SAPC  C214 3740   6.379   2.428   8.128  0.8524  0.1179  0.1501
   28SAPC  H14R 3741   6.455   2.489   8.180  0.0646  0.5072  0.8664
   28SAPC  C215 3742   6.300   2.356   8.208  0.1048 -0.4525 -0.2311
   28SAPC  H15R 3743   6.322   2.353   8.316  1.8626 -3.1288 -0.6215
   28SAPC  C216 3744   6.188   2.265   8.170  0.0662  0.1492  0.3985
   28SAPC  H16R 3745   6.140   2.295   8.075 -2.4499  1.7099  2.0961
   28SAPC  H16S 3746   6.112   2.275   8.250 -0.0314  0.2256  0.2950
   28SAPC  C217 3747   6.220   2.112   8.172  0.1831 -0.7886 -0.1740
   28SAPC  H17R 3748   6.269   2.075   8.265  0.9708 -0.6315 -0.5147
   28SAPC  H17S 3749   6.295   2.094   8.092  0.8108  0.6727  0.0587
   28SAPC  C218 3750   6.096   2.026   8.135  0.1167 -0.1621  0.2803
   28SAPC  H18R 3751   6.054   2.072   8.043 -0.4424  0.5300  0.8837
   28SAPC  H18S 3752   6.024   2.035   8.219  1.0735  2.5048  0.8464
   28SAPC  C219 3753   6.135   1.881   8.100  0.0622 -0.1051  0.3038
   28SAPC  H19R 3754   6.043   1.825   8.073  0.3912  0.0921 -1.2426
   28SAPC  H19S 3755   6.167   1.821   8.188 -1.4932  0.7346  1.4759
   28SAPC  C220 3756   6.230   1.869   7.980  0.2614 -0.2770 -0.0601
   28SAPC  H20R 3757   6.328   1.903   8.021  1.6794 -2.6724 -1.3150
   28SAPC  H20S 3758   6.206   1.929   7.890  0.3775 -1.4223 -0.8702
   28SAPC  H20T 3759   6.251   1.764   7.949 -0.4367 -1.0727  2.0462
   28SAPC   C33 3760   6.867   2.299   6.956 -0.3017  0.6765 -0.2620
   28SAPC   H3X 3761   6.786   2.369   6.987 -3.4495 -1.9111 -2.2191
   28SAPC   H3Y 3762   6.966   2.345   6.973  0.4437 -0.3329 -1.8235
   28SAPC   C34 3763   6.868   2.166   7.034  0.0588  0.2754 -0.1460
   28SAPC   H4X 3764   6.956   2.102   7.009  0.3571  0.3336  0.7335
   28SAPC   H4Y 3765   6.780   2.112   6.994  0.5738  1.2234 -2.6693
   28SAPC   C35 3766   6.849   2.190   7.183  0.0813 -0.0313 -0.0932
   28SAPC   H5X 3767   6.740   2.208   7.196  0.5904  2.4454  0.9971
   28SAPC   H5Y 3768   6.907   2.275   7.226  2.1731 -0.3195 -2.2011
   28SAPC   C36 3769   6.885   2.073   7.269 -0.1159  0.6788  0.3169
   28SAPC   H6X 3770   6.989   2.041   7.246 -0.7663 -0.4291 -1.1906
   28SAPC   H6Y 3771   6.823   1.989   7.231 -1.2956  1.0312  1.4504
   28SAPC   C37 3772   6.859   2.086   7.419  1.5223  0.5221  0.1018
   28SAPC   H7X 3773   6.833   1.990   7.468 -0.2198 -0.0007 -1.7540
   28SAPC   H7Y 3774   6.783   2.165   7.436  1.9414  0.4348  2.6003
   28SAPC   C38 3775   6.980   2.135   7.497  0.0012 -0.3120 -0.4807
   28SAPC   H8X 3776   7.008   2.227   7.442  0.4722  0.3504  0.8546
   28SAPC   H8Y 3777   7.060   2.058   7.502  1.3983  1.1032 -0.5694
   28SAPC   C39 3778   6.941   2.152   7.651 -0.6793  0.6392 -0.6252
   28SAPC   H9X 3779   6.874   2.067   7.674 -1.9214  2.1585  1.5128
   28SAPC   H9Y 3780   6.883   2.248   7.655  0.1869  1.1916 -1.1506
   28SAPC  C310 3781   7.056   2.157   7.747 -0.0811  0.2746 -0.4996
   28SAPC  H10X 3782   7.113   2.248   7.717 -0.6998  1.1971  1.0903
   28SAPC  H10Y 3783   7.112   2.063   7.727 -1.4067  0.0066 -3.2358
   28SAPC  C311 3784   7.012   2.167   7.886 -0.6475  0.1836  0.1432
   28SAPC  H11X 3785   6.980   2.070   7.929 -1.1243  1.5919  3.1136
   28SAPC  H11Y 3786   6.933   2.245   7.890  0.1654  1.0145  0.0412
   28SAPC  C312 3787   7.131   2.208   7.976  0.1061  0.2575  0.0424
   28SAPC  H12X 3788   7.163   2.309   7.942 -2.3552  0.7116 -1.0018
   28SAPC  H12Y 3789   7.213   2.134   7.960 -1.9526 -1.7083 -1.7148
   28SAPC  C313 3790   7.088   2.223   8.123  0.3718  0.0191  0.4214
   28SAPC  H13X 3791   7.034   2.128   8.147 -1.1050  0.0821 -2.4450
   28SAPC  H13Y 3792   7.012   2.303   8.133 -0.4995 -0.8302  0.6998
   28SAPC  C314 3793   7.194   2.232   8.228 -0.6558 -0.1399 -0.3430
   28SAPC  H14X 3794   7.268   2.309   8.197 -0.3827 -0.5106 -0.6288
   28SAPC  H14Y 3795   7.248   2.134   8.224 -0.0499  0.0494  2.4203
   28SAPC  C315 3796   7.125   2.265   8.364  0.5143  0.2281  0.7071
   28SAPC  H15X 3797   7.017   2.238   8.358  0.0986  1.3719  2.5789
   28SAPC  H15Y 3798   7.112   2.375   8.375  1.2172  0.4677 -0.7743
   28SAPC  C316 3799   7.202   2.220   8.490 -0.4808  0.1220 -0.2564
   28SAPC  H16X 3800   7.300   2.271   8.494 -0.6435  0.3411  1.2404
   28SAPC  H16Y 3801   7.225   2.113   8.469  1.1107 -0.0403  2.2042
   28SAPC  C317 3802   7.122   2.243   8.610 -0.2592  0.4730 -0.3528
   28SAPC  H17X 3803   7.026   2.190   8.595  0.0604 -0.6269  1.3527
   28SAPC  H17Y 3804   7.115   2.354   8.618 -1.2327  0.2289  3.0463
   28SAPC  C318 3805   7.164   2.184   8.747 -0.1729  0.0580 -0.1478
   28SAPC  H18X 3806   7.218   2.087   8.740 -1.0041 -0.2825 -2.3576
   28SAPC  H18Y 3807   7.073   2.184   8.811  0.0661  0.1587  0.1930
   28SAPC  H18Z 3808   7.234   2.252   8.800 -0.2441  0.0613 -0.0590
   29SAPC     N 3809   2.086   6.518   6.170  0.2245  0.3006  0.7225
   29SAPC   C12 3810   2.195   6.445   6.088  0.0220 -0.4784 -0.5662
   29SAPC  H12A 3811   2.286   6.502   6.095  0.0322 -0.6305  0.6614
   29SAPC  H12B 3812   2.163   6.466   5.987  3.9556  1.5132 -1.4887
   29SAPC   C13 3813   1.950   6.452   6.145 -0.6735 -0.2060 -0.4279
   29SAPC  H13A 3814   1.871   6.516   6.181 -1.2316 -1.6945  1.0120
   29SAPC  H13B 3815   1.943   6.437   6.038  0.9420 -0.9851 -0.4432
   29SAPC  H13C 3816   1.937   6.356   6.190  0.0694  1.0361  2.5326
   29SAPC   C14 3817   2.109   6.517   6.318 -0.4203  0.2256  0.4266
   29SAPC  H14A 3818   2.192   6.583   6.341 -0.5065  0.5646 -0.2262
   29SAPC  H14B 3819   2.025   6.564   6.368  0.6246  1.9723  0.5769
   29SAPC  H14C 3820   2.127   6.417   6.355 -0.9169 -0.1771 -0.4198
   29SAPC   C15 3821   2.073   6.657   6.129 -0.5611  0.0301  0.7209
   29SAPC  H15A 3822   1.982   6.690   6.178 -1.6980 -0.6793 -0.8574
   29SAPC  H15B 3823   2.155   6.721   6.156 -0.9730  1.4592 -1.3188
   29SAPC  H15C 3824   2.053   6.671   6.024  2.1862  0.2480  0.1874
   29SAPC   C11 3825   2.228   6.305   6.120  0.3695  0.7070  0.5356
   29SAPC  H11A 3826   2.303   6.260   6.052 -0.7130  0.0832 -0.2580
   29SAPC  H11B 3827   2.131   6.254   6.100 -0.1707  1.8746  0.1269
   29SAPC     P 3828   2.231   6.182   6.346 -0.0191 -0.5731  0.5136
   29SAPC   O13 3829   2.096   6.224   6.399  0.3222  0.1954  0.1987
   29SAPC   O14 3830   2.235   6.056   6.267 -0.2581 -0.0682  0.2260
   29SAPC   O12 3831   2.278   6.297   6.252 -0.8244 -0.0697 -0.0044
   29SAPC   O11 3832   2.345   6.183   6.452  0.3676 -0.0624 -0.2175
   29SAPC    C1 3833   2.313   6.159   6.587  0.3707 -0.4333 -0.5846
   29SAPC    HA 3834   2.223   6.097   6.602 -0.0956  0.6365  1.1269
   29SAPC    HB 3835   2.400   6.114   6.638  0.2212  0.4426  0.4639
   29SAPC    C2 3836   2.283   6.286   6.656  0.6537 -0.4651 -0.5915
   29SAPC    HS 3837   2.195   6.337   6.612  0.2973  0.1558  0.7931
   29SAPC   O21 3838   2.395   6.379   6.647 -0.2028  0.5825 -0.3438
   29SAPC   C21 3839   2.376   6.505   6.636  0.0701 -0.0593  0.4846
   29SAPC   O22 3840   2.275   6.562   6.654 -0.1500 -0.0538  0.2344
   29SAPC   C22 3841   2.503   6.572   6.604  0.2777 -0.0005  0.3049
   29SAPC   H2R 3842   2.582   6.511   6.652 -0.6351 -0.4602  1.2229
   29SAPC   H2S 3843   2.535   6.559   6.498  0.5098  1.7991  0.1292
   29SAPC    C3 3844   2.236   6.262   6.804  0.3040 -0.0044 -0.1684
   29SAPC    HX 3845   2.226   6.362   6.852  0.3705 -0.9111  1.7707
   29SAPC    HY 3846   2.325   6.216   6.852  0.6119  1.9862  1.2444
   29SAPC   O31 3847   2.115   6.181   6.820 -0.0823 -0.4946 -0.3577
   29SAPC   C31 3848   2.001   6.247   6.801 -0.3342  0.3952  0.1818
   29SAPC   O32 3849   1.994   6.364   6.768  0.3566  0.3765 -0.5311
   29SAPC   C32 3850   1.888   6.143   6.829  0.0580  0.1875  0.4954
   29SAPC   H2X 3851   1.917   6.053   6.888  0.9577  2.2682  3.3910
   29SAPC   H2Y 3852   1.861   6.125   6.723 -1.5927 -0.6298  1.0382
   29SAPC   C23 3853   2.509   6.722   6.641  0.8420  0.5053  0.4453
   29SAPC   H3R 3854   2.426   6.777   6.591  0.1165 -0.4417  0.5996
   29SAPC   H3S 3855   2.600   6.772   6.600  1.0053  1.1979  1.6155
   29SAPC   C24 3856   2.516   6.765   6.789 -0.1669 -0.2806 -0.0929
   29SAPC   H4R 3857   2.413   6.770   6.831 -0.5420 -0.9155 -0.9059
   29SAPC   H4S 3858   2.557   6.868   6.790  2.0588 -1.0975 -1.8450
   29SAPC   C25 3859   2.599   6.684   6.892  0.3879  1.1504 -0.2286
   29SAPC   H5R 3860   2.701   6.675   6.851 -0.5080 -1.5357 -2.0163
   29SAPC   C26 3861   2.566   6.631   7.008 -0.0156 -0.4310 -0.6093
   29SAPC   H6R 3862   2.645   6.580   7.066 -0.8150  0.2923  1.1598
   29SAPC   C27 3863   2.429   6.653   7.079 -0.4880  0.6502 -0.0216
   29SAPC   H7R 3864   2.349   6.676   7.005 -1.5025 -0.2328  0.7705
   29SAPC   H7S 3865   2.430   6.744   7.142 -0.7235  0.5824  0.0799
   29SAPC   C28 3866   2.383   6.536   7.165 -0.2428  0.0927  0.2079
   29SAPC   H8R 3867   2.321   6.465   7.109 -0.2400 -1.7801  2.5009
   29SAPC   C29 3868   2.417   6.512   7.295  0.3727 -0.5663  0.0461
   29SAPC   H9R 3869   2.380   6.427   7.354  1.4635  0.9810  3.0742
   29SAPC  C210 3870   2.502   6.606   7.376  0.4844 -0.3490 -0.0639
   29SAPC  H10R 3871   2.526   6.701   7.324  1.8428 -0.0578  1.0589
   29SAPC  H10S 3872   2.603   6.565   7.397  2.1320  2.8863 -1.3434
   29SAPC  C211 3873   2.424   6.644   7.505  0.1862  0.2245  0.5329
   29SAPC  H11R 3874   2.346   6.718   7.485 -0.0714 -0.1568  0.1274
   29SAPC  C212 3875   2.442   6.596   7.628 -0.5660 -0.3503 -0.5077
   29SAPC  H12R 3876   2.376   6.638   7.705 -0.9433  0.8607 -1.4715
   29SAPC  C213 3877   2.542   6.499   7.676 -0.0231  0.3343 -0.7596
   29SAPC  H13R 3878   2.581   6.435   7.594 -0.0502  0.5562 -0.9437
   29SAPC  H13S 3879   2.492   6.440   7.756 -1.3596  0.9860 -1.1020
   29SAPC  C214 3880   2.666   6.570   7.737  0.5733 -0.1584  0.5519
   29SAPC  H14R 3881   2.706   6.648   7.671 -1.7343  1.7725  1.3618
   29SAPC  C215 3882   2.718   6.537   7.856 -0.2003 -0.1185  0.5175
   29SAPC  H15R 3883   2.806   6.596   7.885 -0.0552  1.4112 -2.8150
   29SAPC  C216 3884   2.682   6.436   7.953 -1.0824  0.0723 -0.4735
   29SAPC  H16R 3885   2.667   6.336   7.907  1.9738  1.0991 -3.9604
   29SAPC  H16S 3886   2.582   6.465   7.992 -0.1964 -0.0142  1.9646
   29SAPC  C217 3887   2.783   6.393   8.063 -0.2711  0.2669  0.1194
   29SAPC  H17R 3888   2.875   6.352   8.017  0.3678  1.1720  0.5658
   29SAPC  H17S 3889   2.740   6.309   8.121  0.7831 -0.3125  0.0660
   29SAPC  C218 3890   2.813   6.504   8.166  0.6971 -0.2254 -0.1505
   29SAPC  H18R 3891   2.721   6.553   8.204  0.6148 -1.8981  1.9061
   29SAPC  H18S 3892   2.868   6.577   8.104  0.4128 -0.6157 -0.8735
   29SAPC  C219 3893   2.893   6.457   8.294  0.0747  0.2860 -0.7340
   29SAPC  H19R 3894   2.978   6.395   8.257  0.9393  0.8612  0.2357
   29SAPC  H19S 3895   2.821   6.407   8.362 -1.1544  2.0884 -0.6808
   29SAPC  C220 3896   2.921   6.593   8.362  0.3382 -0.1102 -0.9006
   29SAPC  H20R 3897   2.985   6.659   8.300  0.5903 -0.9091 -1.5026
   29SAPC  H20S 3898   2.972   6.570   8.458  0.0953  0.3767 -0.6526
   29SAPC  H20T 3899   2.823   6.635   8.394  0.5909 -0.5056  0.4243
   29SAPC   C33 3900   1.767   6.214   6.892 -0.4495  0.0019 -1.1796
   29SAPC   H3X 3901   1.683   6.147   6.864  0.2061 -0.6426 -1.6230
   29SAPC   H3Y 3902   1.748   6.317   6.856 -0.1067  0.0856 -1.1280
   29SAPC   C34 3903   1.761   6.210   7.045  0.5775 -0.2721  0.1527
   29SAPC   H4X 3904   1.655   6.236   7.066  0.8484  0.6160  0.4542
   29SAPC   H4Y 3905   1.821   6.295   7.085 -0.5334  0.0208  1.2512
   29SAPC   C35 3906   1.795   6.076   7.118 -0.4204  0.5328  0.5649
   29SAPC   H5X 3907   1.893   6.036   7.084  0.8343  2.1498  2.2262
   29SAPC   H5Y 3908   1.724   5.997   7.086 -0.1508  0.4701  0.1174
   29SAPC   C36 3909   1.814   6.093   7.264  0.2067  0.0652 -1.1624
   29SAPC   H6X 3910   1.734   6.146   7.320  1.3915 -0.2860  0.9459
   29SAPC   H6Y 3911   1.902   6.161   7.272  0.3375 -0.1142 -1.0814
   29SAPC   C37 3912   1.851   5.960   7.333 -0.6933  0.2359 -0.0271
   29SAPC   H7X 3913   1.920   5.896   7.274  1.1619  1.3695  0.8878
   29SAPC   H7Y 3914   1.755   5.904   7.339 -0.1813 -0.5436  1.0751
   29SAPC   C38 3915   1.927   5.974   7.468 -0.2428  0.2913  0.1128
   29SAPC   H8X 3916   2.016   6.040   7.468 -0.9689  1.3143  1.4406
   29SAPC   H8Y 3917   1.966   5.872   7.487 -2.8011 -0.6623  0.4061
   29SAPC   C39 3918   1.834   6.004   7.586  0.5076  0.3788 -0.0244
   29SAPC   H9X 3919   1.731   5.966   7.569 -0.0069  2.0312 -0.7867
   29SAPC   H9Y 3920   1.810   6.113   7.586  1.1709  0.5693 -2.5112
   29SAPC  C310 3921   1.891   5.957   7.721 -0.4217  0.2642 -0.5939
   29SAPC  H10X 3922   2.000   5.976   7.725 -0.3976  0.4078 -1.9784
   29SAPC  H10Y 3923   1.884   5.848   7.737  0.6441  0.2568 -0.1468
   29SAPC  C311 3924   1.818   6.024   7.831  0.9532 -0.2870 -0.3826
   29SAPC  H11X 3925   1.715   5.982   7.835  0.6450  0.4118 -0.9144
   29SAPC  H11Y 3926   1.821   6.134   7.821 -1.6258 -0.3015 -1.4925
   29SAPC  C312 3927   1.887   6.001   7.963 -0.2765  0.5960  0.3766
   29SAPC  H12X 3928   1.993   6.032   7.964  0.5495 -2.1127  0.1445
   29SAPC  H12Y 3929   1.885   5.893   7.988 -0.3478  0.6685  0.6839
   29SAPC  C313 3930   1.821   6.075   8.074  0.4348 -0.8063 -0.3953
   29SAPC  H13X 3931   1.711   6.058   8.078  0.5296 -1.4403 -0.4417
   29SAPC  H13Y 3932   1.837   6.185   8.063 -0.1924 -0.6412  0.3303
   29SAPC  C314 3933   1.889   6.038   8.210 -0.8092 -0.4319  0.9312
   29SAPC  H14X 3934   1.999   6.052   8.215 -0.9684  0.9439  0.5876
   29SAPC  H14Y 3935   1.880   5.927   8.219 -3.9908 -0.5427 -2.2320
   29SAPC  C315 3936   1.817   6.105   8.325 -0.7467 -0.4842 -0.0138
   29SAPC  H15X 3937   1.786   6.203   8.284 -0.2765 -0.6088 -0.6900
   29SAPC  H15Y 3938   1.892   6.129   8.404  1.4934 -3.4864 -1.0875
   29SAPC  C316 3939   1.701   6.028   8.378  0.1218 -0.2383  0.0129
   29SAPC  H16X 3940   1.729   5.923   8.401  2.5480  1.2481  4.4787
   29SAPC  H16Y 3941   1.626   6.023   8.296  0.1798 -0.4166 -0.0300
   29SAPC  C317 3942   1.623   6.089   8.499  0.0328 -0.0367 -0.4411
   29SAPC  H17X 3943   1.517   6.057   8.492 -0.1906  0.1769  1.5216
   29SAPC  H17Y 3944   1.629   6.200   8.498 -0.9194  0.0123 -1.4400
   29SAPC  C318 3945   1.677   6.044   8.633 -0.4730  0.2819  0.7884
   29SAPC  H18X 3946   1.635   6.105   8.716 -3.6028  0.8237 -1.0965
   29SAPC  H18Y 3947   1.787   6.054   8.633 -0.4939  0.7544 -0.8415
   29SAPC  H18Z 3948   1.652   5.936   8.632  0.4539  0.0662  0.0896
   30SAPC     N 3949   3.971   6.251   5.843 -0.4334  0.6642  0.1733
   30SAPC   C12 3950   3.901   6.118   5.865  0.6755 -0.1305 -0.4193
   30SAPC  H12A 3951   3.970   6.042   5.830  1.2712 -0.1447  0.7696
   30SAPC  H12B 3952   3.815   6.109   5.801  0.8932 -2.6967 -0.4317
   30SAPC   C13 3953   4.018   6.262   5.702 -0.7310 -0.3198  0.0282
   30SAPC  H13A 3954   4.054   6.165   5.671 -1.2154 -1.1496  2.0174
   30SAPC  H13B 3955   3.955   6.301   5.624  1.3036 -0.3688 -1.6794
   30SAPC  H13C 3956   4.104   6.326   5.701  0.0707 -1.3860 -1.1782
   30SAPC   C14 3957   3.883   6.366   5.877  0.4307  0.2529  0.5035
   30SAPC  H14A 3958   3.931   6.463   5.872 -1.3930  1.1469 -0.4243
   30SAPC  H14B 3959   3.797   6.380   5.813 -0.6572  1.3242  2.1709
   30SAPC  H14C 3960   3.856   6.368   5.981  3.0816 -0.4977  1.2236
   30SAPC   C15 3961   4.104   6.259   5.918  0.3152 -0.1272 -0.2965
   30SAPC  H15A 3962   4.146   6.358   5.911 -0.5589  0.3060  0.5185
   30SAPC  H15B 3963   4.087   6.248   6.024  0.2480 -1.1083 -0.3973
   30SAPC  H15C 3964   4.167   6.180   5.879  0.4770  1.3808 -3.1737
   30SAPC   C11 3965   3.866   6.079   6.007 -0.1347 -0.5573 -0.5955
   30SAPC  H11A 3966   3.943   6.086   6.087  0.3354  0.9481 -1.1727
   30SAPC  H11B 3967   3.847   5.970   6.007  1.6578 -0.8699 -0.9807
   30SAPC     P 3968   3.609   6.139   5.996 -0.1390 -0.3001  0.0389
   30SAPC   O13 3969   3.534   6.263   6.028 -0.0170  0.4501  0.7453
   30SAPC   O14 3970   3.614   6.088   5.853 -0.0806 -0.2150  0.0150
   30SAPC   O12 3971   3.758   6.154   6.057  0.6826 -0.1059 -0.4686
   30SAPC   O11 3972   3.543   6.024   6.081 -0.3825 -0.5241 -0.0397
   30SAPC    C1 3973   3.604   5.987   6.203 -0.3776 -0.1416  0.2197
   30SAPC    HA 3974   3.688   5.919   6.178 -0.5962 -0.4243  0.2414
   30SAPC    HB 3975   3.640   6.070   6.267 -0.6196 -1.6439  2.3585
   30SAPC    C2 3976   3.513   5.906   6.305  0.0625 -0.0006  0.4737
   30SAPC    HS 3977   3.461   5.823   6.254  0.5334 -0.9693  1.5526
   30SAPC   O21 3978   3.428   6.014   6.357  0.1293  0.2370  0.3627
   30SAPC   C21 3979   3.299   5.982   6.374 -1.2123 -0.8973 -0.3678
   30SAPC   O22 3980   3.239   5.886   6.339 -0.5039 -0.2301 -0.1711
   30SAPC   C22 3981   3.225   6.095   6.459 -0.2158 -0.8574 -0.1149
   30SAPC   H2R 3982   3.311   6.165   6.468 -0.3824  0.0033 -4.3434
   30SAPC   H2S 3983   3.143   6.149   6.407 -0.8551 -0.3320  1.3961
   30SAPC    C3 3984   3.589   5.838   6.429 -0.1792  0.9232 -0.0013
   30SAPC    HX 3985   3.663   5.772   6.379 -1.0848 -0.3721  0.3526
   30SAPC    HY 3986   3.513   5.778   6.483  0.1022 -0.9265 -1.6152
   30SAPC   O31 3987   3.667   5.938   6.507 -0.4524  0.2129  0.8481
   30SAPC   C31 3988   3.609   5.976   6.620  0.3231  0.4869  0.1418
   30SAPC   O32 3989   3.504   5.933   6.657 -0.2121 -0.1587 -0.3640
   30SAPC   C32 3990   3.696   6.079   6.692  0.2034 -0.0794 -0.8157
   30SAPC   H2X 3991   3.649   6.180   6.691 -0.8022 -0.4985  0.8182
   30SAPC   H2Y 3992   3.789   6.092   6.634 -0.3295  0.8699 -1.4722
   30SAPC   C23 3993   3.171   6.047   6.604 -0.2686 -0.2399 -0.1353
   30SAPC   H3R 3994   3.256   5.988   6.643  2.1512  0.7747 -3.6426
   30SAPC   H3S 3995   3.078   5.990   6.585  0.9559 -2.0930 -0.6495
   30SAPC   C24 3996   3.147   6.160   6.702  0.8537  0.0965 -0.0160
   30SAPC   H4R 3997   3.099   6.117   6.792  1.2018 -0.8102 -0.2616
   30SAPC   H4S 3998   3.067   6.225   6.659  0.8628 -1.2463 -2.1401
   30SAPC   C25 3999   3.267   6.248   6.729  0.4659 -0.1538 -0.4209
   30SAPC   H5R 4000   3.301   6.316   6.650 -0.2113  1.1077  0.3462
   30SAPC   C26 4001   3.331   6.250   6.850 -0.7490  0.2021  0.8093
   30SAPC   H6R 4002   3.414   6.323   6.856  0.1146 -0.7180  0.1591
   30SAPC   C27 4003   3.301   6.173   6.975 -0.3361 -0.2544 -0.5054
   30SAPC   H7R 4004   3.390   6.113   7.005 -0.4350 -0.3884 -0.4790
   30SAPC   H7S 4005   3.226   6.096   6.950  1.4621 -2.0986 -0.3557
   30SAPC   C28 4006   3.259   6.267   7.081 -0.8947  0.3309 -0.6614
   30SAPC   H8R 4007   3.165   6.321   7.064 -0.1341  2.0772  0.5901
   30SAPC   C29 4008   3.321   6.286   7.198 -0.7669  0.1814 -0.6619
   30SAPC   H9R 4009   3.283   6.365   7.265 -1.1948 -0.5444 -0.0433
   30SAPC  C210 4010   3.443   6.220   7.254  0.0878 -0.1077  0.0516
   30SAPC  H10R 4011   3.496   6.299   7.312  0.8949 -1.2416  0.8780
   30SAPC  H10S 4012   3.512   6.201   7.169  1.4207 -0.8169  1.2644
   30SAPC  C211 4013   3.402   6.099   7.337 -0.4749  0.5834 -0.3153
   30SAPC  H11R 4014   3.310   6.053   7.298 -0.3850 -0.1620  0.3234
   30SAPC  C212 4015   3.460   6.054   7.448 -0.2987  0.6939  0.8064
   30SAPC  H12R 4016   3.414   5.973   7.506 -1.7848  1.5113  0.7825
   30SAPC  C213 4017   3.585   6.111   7.513 -0.1738  0.3159 -0.6633
   30SAPC  H13R 4018   3.546   6.177   7.593  1.0086 -0.1391  0.3072
   30SAPC  H13S 4019   3.652   6.169   7.446  0.7106 -0.4426 -0.4513
   30SAPC  C214 4020   3.665   5.989   7.567  0.1562 -0.1561  0.1567
   30SAPC  H14R 4021   3.722   5.951   7.481  0.8968 -0.1504  0.6402
   30SAPC  C215 4022   3.672   5.956   7.698 -0.1361 -0.5847  0.6205
   30SAPC  H15R 4023   3.729   5.865   7.723 -1.3794 -2.1995 -2.1213
   30SAPC  C216 4024   3.599   6.023   7.815  0.2948  0.1333  0.0637
   30SAPC  H16R 4025   3.537   6.107   7.776  0.1553  0.5322  1.1493
   30SAPC  H16S 4026   3.663   6.061   7.897 -0.5611 -0.9620  1.2572
   30SAPC  C217 4027   3.510   5.918   7.899  0.4365  0.5807  0.3885
   30SAPC  H17R 4028   3.435   5.870   7.833  0.3237  2.4186 -0.8435
   30SAPC  H17S 4029   3.456   5.980   7.973 -0.5576  2.5460 -1.8887
   30SAPC  C218 4030   3.596   5.806   7.955  0.0840  1.0548 -0.0315
   30SAPC  H18R 4031   3.700   5.838   7.975  0.7514 -1.7593  1.2443
   30SAPC  H18S 4032   3.601   5.724   7.880  2.1309  1.0010  0.1513
   30SAPC  C219 4033   3.545   5.749   8.085 -0.2654 -0.7928  0.1666
   30SAPC  H19R 4034   3.521   5.838   8.146 -4.7929 -0.8436 -1.3583
   30SAPC  H19S 4035   3.624   5.686   8.131 -0.6498 -2.0092 -0.7946
   30SAPC  C220 4036   3.416   5.666   8.062  0.2498 -0.2061  0.0690
   30SAPC  H20R 4037   3.347   5.725   7.998  0.9163 -0.1383 -0.6029
   30SAPC  H20S 4038   3.356   5.637   8.151  1.4483  5.6409  3.0005
   30SAPC  H20T 4039   3.439   5.571   8.008  2.0054  0.1217  0.2060
   30SAPC   C33 4040   3.728   6.047   6.846  0.1911 -0.5328  0.4095
   30SAPC   H3X 4041   3.733   5.941   6.877  0.8961 -0.6418 -0.0584
   30SAPC   H3Y 4042   3.659   6.086   6.924  1.4976 -1.7027  2.1802
   30SAPC   C34 4043   3.867   6.111   6.877 -0.5175  0.1001 -0.6075
   30SAPC   H4X 4044   3.857   6.218   6.905  0.0218  0.1538 -0.6177
   30SAPC   H4Y 4045   3.943   6.103   6.796 -1.9306 -0.1440 -1.9413
   30SAPC   C35 4046   3.921   6.030   6.992 -0.1361 -0.8250 -0.2208
   30SAPC   H5X 4047   4.030   6.051   6.997 -0.0239 -1.2475 -0.7724
   30SAPC   H5Y 4048   3.912   5.923   6.963  0.8015 -0.9680  0.0146
   30SAPC   C36 4049   3.852   6.069   7.129 -0.5819 -0.8400 -0.0686
   30SAPC   H6X 4050   3.751   6.024   7.138 -0.5257 -0.8018  0.8223
   30SAPC   H6Y 4051   3.842   6.179   7.130 -0.8452 -0.8608  1.9863
   30SAPC   C37 4052   3.933   6.017   7.251  0.7791 -0.3012 -0.0924
   30SAPC   H7X 4053   3.880   6.044   7.345 -0.6302 -2.5731 -0.1818
   30SAPC   H7Y 4054   4.028   6.074   7.258  0.5596  0.1896 -1.1311
   30SAPC   C38 4055   3.969   5.864   7.247  0.0071  0.9193 -0.7188
   30SAPC   H8X 4056   4.029   5.847   7.155 -0.1691 -0.9700 -0.4915
   30SAPC   H8Y 4057   3.873   5.808   7.253  1.2145 -1.1268 -0.0309
   30SAPC   C39 4058   4.068   5.812   7.355  0.1231  0.6101  0.6626
   30SAPC   H9X 4059   4.158   5.877   7.361  0.7974 -0.4366  2.1706
   30SAPC   H9Y 4060   4.114   5.713   7.335  0.5079  1.1602 -1.2527
   30SAPC  C310 4061   4.001   5.792   7.486 -0.0829 -0.1115  0.0258
   30SAPC  H10X 4062   3.920   5.719   7.465  0.1079 -0.2963 -0.0714
   30SAPC  H10Y 4063   3.964   5.891   7.519  0.3109 -0.8369  2.7063
   30SAPC  C311 4064   4.101   5.728   7.581 -0.1858  0.8144 -0.5863
   30SAPC  H11X 4065   4.125   5.802   7.661  0.3401  0.5011 -0.4553
   30SAPC  H11Y 4066   4.190   5.695   7.525  0.3413 -0.2548  0.8568
   30SAPC  C312 4067   4.042   5.601   7.655  0.1171  0.4130 -0.3016
   30SAPC  H12X 4068   4.039   5.512   7.588 -1.2774 -1.4754  2.2217
   30SAPC  H12Y 4069   3.949   5.629   7.709  1.4495  2.4078  0.9952
   30SAPC  C313 4070   4.135   5.541   7.758  0.1442 -0.2377  0.0983
   30SAPC  H13X 4071   4.128   5.600   7.852 -1.3429 -1.0852  0.5240
   30SAPC  H13Y 4072   4.243   5.540   7.731  0.2799  0.3787  0.6050
   30SAPC  C314 4073   4.105   5.397   7.797 -0.5137 -0.0967 -0.2660
   30SAPC  H14X 4074   3.996   5.377   7.794 -0.4101 -0.5434 -0.8957
   30SAPC  H14Y 4075   4.140   5.369   7.899 -1.7972 -0.1949  0.1577
   30SAPC  C315 4076   4.171   5.287   7.707  0.1740 -0.2082 -1.2587
   30SAPC  H15X 4077   4.275   5.319   7.688  1.2575 -1.2723  2.5232
   30SAPC  H15Y 4078   4.115   5.282   7.610 -1.0280  0.6212 -0.6300
   30SAPC  C316 4079   4.183   5.150   7.761  0.5692 -0.7317 -0.0029
   30SAPC  H16X 4080   4.222   5.162   7.864  1.4237 -1.5658 -0.2249
   30SAPC  H16Y 4081   4.255   5.090   7.702  1.4952  0.4051 -0.0524
   30SAPC  C317 4082   4.050   5.075   7.757  0.3610  0.3195  0.0028
   30SAPC  H17X 4083   3.969   5.128   7.810  0.6652 -0.2355  1.0322
   30SAPC  H17Y 4084   4.053   4.975   7.805 -0.5457 -0.4211 -1.4499
   30SAPC  C318 4085   4.013   5.046   7.612  0.5667  0.4894 -0.0663
   30SAPC  H18X 4086   4.094   4.987   7.564  1.3896  0.4823  1.3091
   30SAPC  H18Y 4087   3.990   5.128   7.540  0.5422 -0.4403 -1.1275
   30SAPC  H18Z 4088   3.926   4.977   7.618  1.8370 -1.0228  1.1982
   31SAPC     N 4089   5.083   6.536   6.099 -0.1415 -0.6904 -0.3606
   31SAPC   C12 4090   5.039   6.492   6.232 -0.8645 -0.0384  0.8407
   31SAPC  H12A 4091   5.059   6.387   6.249 -0.7566  0.3227  3.0810
   31SAPC  H12B 4092   4.933   6.498   6.252 -0.9799 -1.2882  0.6713
   31SAPC   C13 4093   5.231   6.535   6.102 -0.3658 -0.3677 -0.0791
   31SAPC  H13A 4094   5.266   6.433   6.115 -1.1620 -0.4987  1.0841
   31SAPC  H13B 4095   5.273   6.564   6.007 -1.6874  1.0850 -0.2372
   31SAPC  H13C 4096   5.281   6.585   6.184  2.3686 -0.7255 -1.4726
   31SAPC   C14 4097   5.048   6.434   6.002 -0.2714  0.6749  0.4334
   31SAPC  H14A 4098   5.066   6.334   6.039  0.0720  0.5005 -0.1986
   31SAPC  H14B 4099   4.943   6.438   5.976  0.1156  0.5995 -1.2475
   31SAPC  H14C 4100   5.103   6.452   5.910  0.6551  0.5875  0.9603
   31SAPC   C15 4101   5.029   6.670   6.061  0.1949  0.1988 -0.0450
   31SAPC  H15A 4102   5.027   6.742   6.141 -1.4365 -1.0584  1.0673
   31SAPC  H15B 4103   5.091   6.711   5.982 -0.2257  0.5345 -0.2004
   31SAPC  H15C 4104   4.931   6.671   6.016  0.7942 -0.0519 -1.4027
   31SAPC   C11 4105   5.082   6.573   6.358 -0.6691  0.1856 -0.0787
   31SAPC  H11A 4106   5.193   6.567   6.356 -0.6726  0.1380 -0.2638
   31SAPC  H11B 4107   5.057   6.527   6.456 -1.5086  2.0888  0.6073
   31SAPC     P 4108   4.891   6.738   6.398  0.1849 -0.2698  0.1160
   31SAPC   O13 4109   4.842   6.847   6.316  0.1216 -0.1087 -0.5072
   31SAPC   O14 4110   4.807   6.611   6.387 -0.4436 -0.7032  0.6661
   31SAPC   O12 4111   5.040   6.713   6.364 -0.7712 -0.1022  0.0615
   31SAPC   O11 4112   4.889   6.796   6.549 -0.1480 -0.1432 -0.1010
   31SAPC    C1 4113   4.991   6.891   6.586 -0.0539  0.1840 -0.2485
   31SAPC    HA 4114   5.026   6.954   6.501  0.9511 -1.6585 -1.2486
   31SAPC    HB 4115   4.946   6.961   6.659 -2.5336 -2.2869  0.6813
   31SAPC    C2 4116   5.113   6.827   6.649 -0.5005 -0.0338  0.2028
   31SAPC    HS 4117   5.175   6.796   6.562  1.0948  0.6212  1.0764
   31SAPC   O21 4118   5.060   6.725   6.734 -0.4887  0.1532 -0.0938
   31SAPC   C21 4119   5.142   6.621   6.730  0.0575  0.2616  0.1212
   31SAPC   O22 4120   5.240   6.604   6.658  0.0337 -0.5818 -0.3232
   31SAPC   C22 4121   5.090   6.512   6.819  0.7550 -0.0501  0.3891
   31SAPC   H2R 4122   4.980   6.505   6.809  0.6675 -0.7450  1.6676
   31SAPC   H2S 4123   5.119   6.409   6.789  0.5596 -0.2367  0.8402
   31SAPC    C3 4124   5.204   6.930   6.731 -0.5490  0.6919  0.2641
   31SAPC    HX 4125   5.232   7.007   6.657  2.0420 -1.8273 -1.4772
   31SAPC    HY 4126   5.293   6.866   6.749 -1.1889 -0.9543 -2.0338
   31SAPC   O31 4127   5.141   6.988   6.844  0.8018  0.4309  0.0787
   31SAPC   C31 4128   5.165   6.933   6.958  0.8957 -0.0641  0.8145
   31SAPC   O32 4129   5.241   6.840   6.979  0.0018  0.0576 -0.6069
   31SAPC   C32 4130   5.096   7.001   7.070  0.4111 -0.1719 -0.7810
   31SAPC   H2X 4131   4.987   6.984   7.053  0.2760 -1.4227  1.2481
   31SAPC   H2Y 4132   5.122   7.108   7.056 -1.8279  0.5953  0.7000
   31SAPC   C23 4133   5.124   6.535   6.973  0.1375 -0.0066  0.0136
   31SAPC   H3R 4134   5.083   6.636   6.995  0.2914  0.5521 -2.1891
   31SAPC   H3S 4135   5.234   6.543   6.977  0.0097  3.5679 -1.7619
   31SAPC   C24 4136   5.080   6.411   7.065  0.0116 -0.1929  0.1881
   31SAPC   H4R 4137   5.129   6.319   7.027 -1.0190 -0.5813 -0.2210
   31SAPC   H4S 4138   4.973   6.387   7.051 -0.4433  0.6132  2.0794
   31SAPC   C25 4139   5.108   6.443   7.209  0.6122 -0.0342 -1.1686
   31SAPC   H5R 4140   5.166   6.536   7.214  1.2122 -0.4875  0.9999
   31SAPC   C26 4141   5.082   6.364   7.321 -0.8894  0.2917  0.1511
   31SAPC   H6R 4142   5.137   6.387   7.414  0.1441 -0.5071 -0.2534
   31SAPC   C27 4143   5.016   6.232   7.316 -0.2911  0.9216  0.3283
   31SAPC   H7R 4144   5.081   6.151   7.277 -0.3820  1.5621 -1.1949
   31SAPC   H7S 4145   4.939   6.242   7.236  2.6308  1.8056 -2.4704
   31SAPC   C28 4146   4.976   6.180   7.457  1.4185 -0.0029 -0.5238
   31SAPC   H8R 4147   5.054   6.173   7.535 -0.4182 -1.8677  1.2141
   31SAPC   C29 4148   4.866   6.107   7.480  0.4160 -0.1128  0.2760
   31SAPC   H9R 4149   4.851   6.081   7.586 -0.6335 -3.7387 -0.6672
   31SAPC  C210 4150   4.745   6.075   7.393 -0.3357 -0.6517 -0.3441
   31SAPC  H10R 4151   4.733   6.138   7.303 -1.3184 -0.8009 -0.3274
   31SAPC  H10S 4152   4.649   6.100   7.444  0.1840 -1.5557  1.0926
   31SAPC  C211 4153   4.736   5.927   7.358  0.6879 -0.2663 -0.5265
   31SAPC  H11R 4154   4.775   5.905   7.258 -1.8753  0.1804 -1.6578
   31SAPC  C212 4155   4.680   5.836   7.437  0.0058  0.4883  0.0229
   31SAPC  H12R 4156   4.667   5.738   7.388  2.4546  1.2801 -2.3498
   31SAPC  C213 4157   4.613   5.846   7.571 -0.0929  0.4451  0.0885
   31SAPC  H13R 4158   4.681   5.912   7.630  1.2014  0.2059 -1.0883
   31SAPC  H13S 4159   4.615   5.753   7.630 -1.3271  0.5607  0.3253
   31SAPC  C214 4160   4.474   5.902   7.567 -0.4426  0.8119  0.1620
   31SAPC  H14R 4161   4.411   5.890   7.478  0.2729  0.9854 -0.3697
   31SAPC  C215 4162   4.416   5.967   7.669  0.6133 -0.2710  0.3454
   31SAPC  H15R 4163   4.311   5.998   7.652  1.2880  1.9960  0.1984
   31SAPC  C216 4164   4.469   6.014   7.799 -0.0903  0.5548 -0.7135
   31SAPC  H16R 4165   4.561   5.955   7.820  0.3114  1.4206 -0.0354
   31SAPC  H16S 4166   4.403   5.989   7.885  2.0354  0.1338  0.8381
   31SAPC  C217 4167   4.516   6.155   7.808 -0.2861 -0.0131 -0.1082
   31SAPC  H17R 4168   4.422   6.209   7.832 -0.9145 -2.6094  3.6251
   31SAPC  H17S 4169   4.556   6.189   7.710 -0.8832  0.5627 -0.1580
   31SAPC  C218 4170   4.613   6.186   7.921 -0.2964  0.3441 -0.4535
   31SAPC  H18R 4171   4.585   6.127   8.011  0.3500 -0.8969 -1.0611
   31SAPC  H18S 4172   4.601   6.293   7.950 -1.6931 -0.3564  1.7230
   31SAPC  C219 4173   4.762   6.167   7.879 -0.0860 -0.5472 -0.4390
   31SAPC  H19R 4174   4.799   6.241   7.805 -1.2643 -0.5558 -1.0632
   31SAPC  H19S 4175   4.749   6.071   7.823 -0.3118  0.2387 -1.7708
   31SAPC  C220 4176   4.847   6.159   8.003  0.4198 -0.1924  0.3129
   31SAPC  H20R 4177   4.816   6.074   8.067 -0.4249  0.2116  0.4493
   31SAPC  H20S 4178   4.822   6.241   8.074 -2.3762  0.6670 -1.5587
   31SAPC  H20T 4179   4.954   6.147   7.979  0.6457 -0.8000  1.5763
   31SAPC   C33 4180   5.136   6.943   7.212  0.3300  0.0106 -0.0536
   31SAPC   H3X 4181   5.247   6.933   7.214  0.3694  0.1317 -1.2171
   31SAPC   H3Y 4182   5.094   6.840   7.216  2.0645 -0.6698  1.5880
   31SAPC   C34 4183   5.067   7.019   7.326 -0.2144 -0.1984 -0.3626
   31SAPC   H4X 4184   4.957   7.001   7.320 -0.5417  1.7468 -0.3750
   31SAPC   H4Y 4185   5.086   7.128   7.322  0.1995 -0.2646 -0.1510
   31SAPC   C35 4186   5.122   6.970   7.460 -0.2143 -0.3847 -0.0164
   31SAPC   H5X 4187   5.230   6.988   7.479 -0.1667 -0.4878 -0.1814
   31SAPC   H5Y 4188   5.124   6.859   7.457  0.7186 -0.3859  0.4028
   31SAPC   C36 4189   5.043   7.027   7.580  0.6044 -0.2707 -0.5281
   31SAPC   H6X 4190   4.934   7.017   7.563  0.0835  1.5570  1.5700
   31SAPC   H6Y 4191   5.060   7.136   7.580 -1.7227  0.1559  2.4623
   31SAPC   C37 4192   5.074   6.961   7.714 -0.3502  1.2537 -0.1038
   31SAPC   H7X 4193   5.181   6.961   7.742 -0.0741  0.3909 -1.1388
   31SAPC   H7Y 4194   5.052   6.855   7.692  1.3890  1.0755 -1.0805
   31SAPC   C38 4195   4.983   7.006   7.839 -0.0029 -0.6876 -0.4717
   31SAPC   H8X 4196   4.990   6.929   7.919 -1.4149 -0.0409  0.2762
   31SAPC   H8Y 4197   4.875   7.001   7.815 -1.1227  2.9337  3.4006
   31SAPC   C39 4198   5.017   7.148   7.890  0.3009  0.7525  0.3554
   31SAPC   H9X 4199   5.025   7.209   7.797  1.3396 -1.5102 -1.0700
   31SAPC   H9Y 4200   5.122   7.153   7.926  0.7041  1.3322 -0.8552
   31SAPC  C310 4201   4.909   7.202   7.982 -0.1193  0.1056 -0.2370
   31SAPC  H10X 4202   4.899   7.140   8.074 -1.5248 -0.4928 -0.7727
   31SAPC  H10Y 4203   4.814   7.184   7.926 -0.7037  0.4097  0.6392
   31SAPC  C311 4204   4.920   7.353   8.010 -0.3028  0.1328  0.3933
   31SAPC  H11X 4205   4.927   7.391   7.906  1.6993 -3.4155 -0.8686
   31SAPC  H11Y 4206   5.017   7.362   8.064 -0.3964  0.5375  0.4985
   31SAPC  C312 4207   4.804   7.407   8.090  0.1445 -0.3046 -0.9877
   31SAPC  H12X 4208   4.705   7.381   8.046  0.3276 -0.6679 -1.1827
   31SAPC  H12Y 4209   4.813   7.518   8.094 -0.0349 -0.2743 -1.4286
   31SAPC  C313 4210   4.792   7.353   8.238 -0.8477  0.6931 -0.0104
   31SAPC  H13X 4211   4.877   7.404   8.289 -1.2798  0.5354  0.8571
   31SAPC  H13Y 4212   4.812   7.243   8.243  0.8793  1.0735  2.8197
   31SAPC  C314 4213   4.671   7.408   8.312  0.0298 -0.6380  0.4515
   31SAPC  H14X 4214   4.579   7.353   8.281 -2.1928  3.0408  0.1846
   31SAPC  H14Y 4215   4.658   7.517   8.297 -0.0335 -0.3122  2.7608
   31SAPC  C315 4216   4.685   7.387   8.465  0.3565 -0.1068  0.1069
   31SAPC  H15X 4217   4.784   7.422   8.501  0.8284 -0.5272 -0.7550
   31SAPC  H15Y 4218   4.681   7.277   8.484 -1.0584 -0.2585 -0.9779
   31SAPC  C316 4219   4.576   7.449   8.557 -0.0659  0.7578 -0.1595
   31SAPC  H16X 4220   4.489   7.381   8.561 -2.1374  3.1023 -2.9216
   31SAPC  H16Y 4221   4.536   7.546   8.520 -0.8295  0.0617 -1.1614
   31SAPC  C317 4222   4.633   7.464   8.703 -0.0513 -0.8822 -0.1372
   31SAPC  H17X 4223   4.708   7.546   8.700 -1.8993  0.8081 -1.0316
   31SAPC  H17Y 4224   4.685   7.372   8.738  0.9516 -0.3065 -0.0813
   31SAPC  C318 4225   4.518   7.506   8.796 -0.0619 -0.2541 -0.0083
   31SAPC  H18X 4226   4.429   7.444   8.772  0.0040  0.5641 -2.4362
   31SAPC  H18Y 4227   4.486   7.612   8.796  0.0244 -0.2256 -0.4821
   31SAPC  H18Z 4228   4.561   7.483   8.896  0.8275  0.8478 -0.1282
   32SAPC     N 4229   6.602   0.860   6.018  0.5653 -0.1061  0.2507
   32SAPC   C12 4230   6.679   0.872   6.149  0.2995 -0.5760 -0.4114
   32SAPC  H12A 4231   6.787   0.874   6.136  0.3578 -0.0518  0.1326
   32SAPC  H12B 4232   6.663   0.783   6.209 -0.1743  0.9471  1.7888
   32SAPC   C13 4233   6.456   0.830   6.044  0.3259 -0.3308  0.0626
   32SAPC  H13A 4234   6.423   0.734   6.078  2.1575 -0.3040  1.9919
   32SAPC  H13B 4235   6.419   0.902   6.116 -0.0880  0.2796 -0.7454
   32SAPC  H13C 4236   6.385   0.847   5.964 -1.4079 -0.4445  1.5487
   32SAPC   C14 4237   6.613   0.980   5.943 -0.5008  0.5317  0.2250
   32SAPC  H14A 4238   6.714   0.981   5.905 -0.3141  0.0438  0.7042
   32SAPC  H14B 4239   6.554   0.988   5.853 -0.1867  0.9578  0.0606
   32SAPC  H14C 4240   6.604   1.070   6.002  0.4240  1.8454 -1.5845
   32SAPC   C15 4241   6.651   0.744   5.943  1.1933  0.6048 -0.0159
   32SAPC  H15A 4242   6.597   0.732   5.850  1.7157  0.8301 -0.3528
   32SAPC  H15B 4243   6.756   0.753   5.919  1.6207  0.8884  1.8722
   32SAPC  H15C 4244   6.634   0.653   5.999  0.7884  1.1838  0.7996
   32SAPC   C11 4245   6.652   0.987   6.249  0.1651 -0.6923  0.5941
   32SAPC  H11A 4246   6.695   1.084   6.218 -0.4780  0.2073  2.4226
   32SAPC  H11B 4247   6.697   0.971   6.350 -1.5092 -0.3011  1.4100
   32SAPC     P 4248   6.440   0.924   6.378  0.2412 -0.3395 -0.3804
   32SAPC   O13 4249   6.292   0.937   6.354 -0.1238  0.2573 -0.5875
   32SAPC   O14 4250   6.503   0.790   6.384  0.4345  0.6398 -0.0654
   32SAPC   O12 4251   6.510   1.008   6.263  0.4830 -0.5914 -0.1773
   32SAPC   O11 4252   6.477   0.997   6.509  0.6070 -1.0637  0.0771
   32SAPC    C1 4253   6.489   1.139   6.521  0.1490 -0.4326 -0.3408
   32SAPC    HA 4254   6.596   1.167   6.508 -0.5895  1.2021 -3.7429
   32SAPC    HB 4255   6.437   1.195   6.440  0.7991  1.6056  0.6094
   32SAPC    C2 4256   6.425   1.189   6.645  0.5598  0.2041  0.1744
   32SAPC    HS 4257   6.415   1.300   6.640 -0.1672  0.2516  2.2563
   32SAPC   O21 4258   6.495   1.142   6.762  0.4414  0.5411  0.4170
   32SAPC   C21 4259   6.593   1.224   6.799  0.5088 -0.7636 -0.0952
   32SAPC   O22 4260   6.619   1.331   6.742  0.4983  0.9126  0.2847
   32SAPC   C22 4261   6.678   1.160   6.909 -0.1350  1.1637 -0.0683
   32SAPC   H2R 4262   6.598   1.118   6.973 -0.4770  0.9934 -0.6000
   32SAPC   H2S 4263   6.727   1.080   6.849 -0.0629  0.6152  0.7255
   32SAPC    C3 4264   6.282   1.133   6.654  0.1946 -0.3129 -0.6581
   32SAPC    HX 4265   6.283   1.024   6.632  0.4142 -0.0487 -2.0254
   32SAPC    HY 4266   6.215   1.184   6.582 -3.5046 -1.2131  2.0369
   32SAPC   O31 4267   6.230   1.154   6.786 -0.0275 -0.0037 -0.2227
   32SAPC   C31 4268   6.103   1.116   6.796 -0.8338 -0.3213  0.6356
   32SAPC   O32 4269   6.036   1.054   6.717  0.1121  0.2374  0.8260
   32SAPC   C32 4270   6.057   1.170   6.935  0.0669 -0.3597  0.8660
   32SAPC   H2X 4271   6.144   1.211   6.991  0.7256 -4.4500  3.1151
   32SAPC   H2Y 4272   6.022   1.080   6.991 -1.2584  0.1568  0.8663
   32SAPC   C23 4273   6.775   1.253   6.986  0.0297  0.7778  0.7715
   32SAPC   H3R 4274   6.711   1.326   7.039 -1.8685 -0.6101  0.4165
   32SAPC   H3S 4275   6.841   1.310   6.917 -2.6727  2.1829 -0.6936
   32SAPC   C24 4276   6.868   1.174   7.085 -0.5627 -1.1293  0.4034
   32SAPC   H4R 4277   6.800   1.098   7.130 -2.3944  0.5470  0.5099
   32SAPC   H4S 4278   6.904   1.241   7.166  0.3740  0.7391 -1.5079
   32SAPC   C25 4279   6.991   1.118   7.016 -0.5525  0.4436 -0.6064
   32SAPC   H5R 4280   7.042   1.175   6.937 -1.6306  0.8668 -1.0076
   32SAPC   C26 4281   7.056   1.001   7.052 -0.0760 -0.2606 -0.0515
   32SAPC   H6R 4282   7.155   0.978   7.009  1.4942  2.4474  1.9867
   32SAPC   C27 4283   7.018   0.907   7.163  0.0400 -0.9794  0.2144
   32SAPC   H7R 4284   6.976   0.967   7.247 -1.3985 -0.2273 -1.0125
   32SAPC   H7S 4285   7.109   0.856   7.203  1.3579  0.8202 -0.4409
   32SAPC   C28 4286   6.912   0.800   7.128  0.5973  0.1873 -0.1314
   32SAPC   H8R 4287   6.925   0.753   7.030 -0.9701 -1.6057  0.4895
   32SAPC   C29 4288   6.802   0.754   7.199 -0.3215 -0.0662 -0.8751
   32SAPC   H9R 4289   6.735   0.676   7.159  0.9701 -1.9332  0.4631
   32SAPC  C210 4290   6.763   0.801   7.337  0.1933  0.2113  0.0011
   32SAPC  H10R 4291   6.666   0.857   7.336  0.4099  0.5939  0.1435
   32SAPC  H10S 4292   6.840   0.870   7.378 -0.7561 -0.2995  2.7838
   32SAPC  C211 4293   6.741   0.686   7.439  0.3957 -0.4317 -0.7123
   32SAPC  H11R 4294   6.735   0.587   7.392 -0.2802 -0.8768  0.2985
   32SAPC  C212 4295   6.723   0.699   7.569 -1.3926  0.2478 -0.8858
   32SAPC  H12R 4296   6.704   0.604   7.622 -2.1352 -0.2163 -1.9452
   32SAPC  C213 4297   6.722   0.831   7.639 -0.7044  0.1327 -1.1591
   32SAPC  H13R 4298   6.620   0.839   7.683  0.1082  0.9805  0.6526
   32SAPC  H13S 4299   6.739   0.919   7.573  1.2800  1.6007  1.2315
   32SAPC  C214 4300   6.810   0.835   7.756 -0.1009  0.3634 -0.2322
   32SAPC  H14R 4301   6.914   0.868   7.738  0.1818  0.0959  0.8308
   32SAPC  C215 4302   6.785   0.822   7.884  0.1085  0.3964  0.4779
   32SAPC  H15R 4303   6.870   0.839   7.952  2.0303 -1.2745 -1.4716
   32SAPC  C216 4304   6.653   0.810   7.945  0.8857 -0.6408 -0.0953
   32SAPC  H16R 4305   6.575   0.820   7.868  0.1117 -1.8103  0.5250
   32SAPC  H16S 4306   6.644   0.894   8.017  0.3428 -0.7354 -0.0512
   32SAPC  C217 4307   6.639   0.681   8.015  0.4582 -0.3313 -0.6135
   32SAPC  H17R 4308   6.711   0.672   8.099 -1.4027 -0.1832  1.0355
   32SAPC  H17S 4309   6.659   0.590   7.955 -1.1723  0.3514 -2.2340
   32SAPC  C218 4310   6.497   0.668   8.077 -0.7112 -0.4922 -0.5469
   32SAPC  H18R 4311   6.441   0.607   8.002 -1.2313  0.0534 -0.6013
   32SAPC  H18S 4312   6.445   0.766   8.083  0.7093  0.2661 -0.4148
   32SAPC  C219 4313   6.486   0.607   8.217  0.3151  1.1009  0.1024
   32SAPC  H19R 4314   6.519   0.501   8.218 -1.3718  0.4898 -2.7037
   32SAPC  H19S 4315   6.377   0.605   8.240 -0.1539  3.2090 -1.7975
   32SAPC  C220 4316   6.552   0.690   8.328  0.2895  1.0981  0.3841
   32SAPC  H20R 4317   6.660   0.700   8.306  0.5078 -0.4950  0.6696
   32SAPC  H20S 4318   6.544   0.641   8.428  0.5773  1.4553  0.5836
   32SAPC  H20T 4319   6.510   0.791   8.346  1.1285  1.5372 -0.0681
   32SAPC   C33 4320   5.922   1.250   6.915 -0.2387 -0.5977  0.2220
   32SAPC   H3X 4321   5.849   1.187   6.860  1.0742 -2.8632  0.9874
   32SAPC   H3Y 4322   5.956   1.334   6.851  2.3548 -0.5377  1.6310
   32SAPC   C34 4323   5.869   1.294   7.051 -0.9585 -1.0080 -0.2877
   32SAPC   H4X 4324   5.782   1.361   7.033 -1.0869 -0.6063  1.7161
   32SAPC   H4Y 4325   5.940   1.362   7.102  0.9703 -3.5965  0.5855
   32SAPC   C35 4326   5.833   1.192   7.153 -0.1861  0.2841  0.1722
   32SAPC   H5X 4327   5.785   1.108   7.099 -1.6278  1.0724  0.2003
   32SAPC   H5Y 4328   5.752   1.224   7.222  0.8548  1.3424  0.9087
   32SAPC   C36 4329   5.946   1.136   7.240 -0.2495 -0.4844 -0.0994
   32SAPC   H6X 4330   6.021   1.083   7.177 -0.6201 -1.5139  0.3184
   32SAPC   H6Y 4331   5.898   1.060   7.305 -1.1893 -1.3189 -1.7307
   32SAPC   C37 4332   6.015   1.245   7.327  0.4813  0.5567 -0.0054
   32SAPC   H7X 4333   6.053   1.328   7.263 -1.9794  2.0743  0.4037
   32SAPC   H7Y 4334   6.105   1.197   7.369  0.4979 -0.8067 -1.5399
   32SAPC   C38 4335   5.935   1.308   7.439  0.1589  0.5210  0.6053
   32SAPC   H8X 4336   5.939   1.237   7.524  3.3820  0.6119  0.5787
   32SAPC   H8Y 4337   5.833   1.342   7.409  0.6718  0.9015 -0.7767
   32SAPC   C39 4338   6.017   1.435   7.481  0.4092  0.2398  0.1892
   32SAPC   H9X 4339   6.022   1.484   7.382 -2.0911 -2.7132 -1.5128
   32SAPC   H9Y 4340   6.118   1.394   7.503 -0.1318 -1.9377 -1.1430
   32SAPC  C310 4341   5.948   1.522   7.589 -0.0153  0.2029  0.3938
   32SAPC  H10X 4342   5.838   1.519   7.574  0.0276  2.0224 -0.3783
   32SAPC  H10Y 4343   5.969   1.628   7.564 -0.9255  0.5767  1.1994
   32SAPC  C311 4344   5.993   1.479   7.729 -0.2441 -0.7513  0.5819
   32SAPC  H11X 4345   6.103   1.478   7.743 -0.2802 -0.3160  0.8937
   32SAPC  H11Y 4346   5.957   1.374   7.733 -3.0397  0.0815 -1.4646
   32SAPC  C312 4347   5.912   1.552   7.835  0.7087  0.8299 -0.9753
   32SAPC  H12X 4348   5.804   1.532   7.817  0.9638 -1.3556 -0.1600
   32SAPC  H12Y 4349   5.929   1.662   7.826 -0.8888  1.2611  0.8301
   32SAPC  C313 4350   5.956   1.524   7.981 -0.4425  0.0648 -0.3547
   32SAPC  H13X 4351   5.891   1.571   8.058  2.2185  0.6966  1.5623
   32SAPC  H13Y 4352   6.052   1.578   7.989 -0.5283  0.5096 -2.1307
   32SAPC  C314 4353   5.973   1.376   8.014  0.3569 -0.5201  0.6682
   32SAPC  H14X 4354   6.065   1.334   7.968  0.6428  1.0602 -0.2461
   32SAPC  H14Y 4355   5.887   1.328   7.961  0.6686  0.2901 -0.5749
   32SAPC  C315 4356   5.966   1.354   8.165 -0.2386  0.3713 -0.3784
   32SAPC  H15X 4357   5.940   1.247   8.184 -0.4025  0.4005 -0.4336
   32SAPC  H15Y 4358   5.891   1.419   8.215  1.2024  1.0904  0.8633
   32SAPC  C316 4359   6.098   1.364   8.240 -0.1712 -0.3082  0.2438
   32SAPC  H16X 4360   6.172   1.286   8.211  0.1999  0.6219 -1.4135
   32SAPC  H16Y 4361   6.081   1.335   8.346  0.0651 -1.3560  0.0023
   32SAPC  C317 4362   6.152   1.509   8.253 -0.5662  0.1182 -0.1088
   32SAPC  H17X 4363   6.186   1.540   8.152  1.3562  0.9682  0.7758
   32SAPC  H17Y 4364   6.247   1.510   8.310 -0.6775  1.1137  0.0598
   32SAPC  C318 4365   6.054   1.603   8.310 -0.0910  0.6644 -0.1181
   32SAPC  H18X 4366   6.097   1.695   8.356  3.2610  0.1178 -2.0242
   32SAPC  H18Y 4367   6.003   1.545   8.389 -1.7345  0.4754 -1.3005
   32SAPC  H18Z 4368   5.976   1.636   8.238 -1.8388  3.1218  2.7955
   33POPC     N 4369   3.265   2.269  11.047 -0.2860  0.2250  0.0862
   33POPC   C12 4370   3.249   2.185  10.918  0.1027  0.6650 -1.1798
   33POPC  H12A 4371   3.216   2.246  10.836  2.1517  0.8173 -1.9292
   33POPC  H12B 4372   3.178   2.106  10.939  1.3993  0.5048  3.0707
   33POPC   C13 4373   3.294   2.185  11.167  0.6215  0.5321  0.1195
   33POPC  H13A 4374   3.218   2.111  11.187  0.5837  0.4175 -0.4416
   33POPC  H13B 4375   3.386   2.132  11.153 -0.8358 -2.1101  0.2024
   33POPC  H13C 4376   3.297   2.247  11.256 -0.3802  1.2457 -0.3282
   33POPC   C14 4377   3.371   2.366  11.041 -0.4057 -0.5791  0.7110
   33POPC  H14A 4378   3.391   2.420  11.132  1.4516  0.3917 -0.2604
   33POPC  H14B 4379   3.459   2.311  11.013  1.1679  1.7877  0.9043
   33POPC  H14C 4380   3.338   2.439  10.969 -0.8178 -1.4762 -0.0122
   33POPC   C15 4381   3.132   2.339  11.079 -0.2203 -0.1620 -0.5576
   33POPC  H15A 4382   3.122   2.424  11.014 -0.3052 -1.4426 -2.2613
   33POPC  H15B 4383   3.130   2.362  11.184  0.4725  2.0152 -0.9968
   33POPC  H15C 4384   3.046   2.282  11.047 -0.3034  0.2138 -1.0018
   33POPC   C11 4385   3.377   2.109  10.871 -0.1673  0.3132 -0.6795
   33POPC  H11A 4386   3.354   2.023  10.804  1.8317  0.1885 -1.2205
   33POPC  H11B 4387   3.412   2.054  10.961  0.1300 -1.1378 -1.6784
   33POPC     P 4388   3.469   2.253  10.665 -0.7004  0.5361  0.0837
   33POPC   O13 4389   3.534   2.143  10.584 -0.1912 -0.0608 -0.1072
   33POPC   O14 4390   3.540   2.377  10.666 -0.6613  0.0160  0.2365
   33POPC   O12 4391   3.475   2.201  10.816  0.2160  0.1035 -0.1278
   33POPC   O11 4392   3.311   2.274  10.637 -0.0484  0.3282 -0.3035
   33POPC    C1 4393   3.236   2.171  10.574  1.2993  0.2089 -1.4392
   33POPC    HA 4394   3.275   2.074  10.610  0.8815 -0.0621 -1.7038
   33POPC    HB 4395   3.133   2.166  10.614  1.5882  1.3021 -0.5367
   33POPC    C2 4396   3.220   2.192  10.421  0.1355  0.4334  0.7892
   33POPC    HS 4397   3.142   2.119  10.390 -1.5801  2.1806  0.8859
   33POPC   O21 4398   3.343   2.170  10.347 -0.0616 -0.5260 -0.2399
   33POPC   C21 4399   3.375   2.039  10.335  0.8233  0.4544 -0.3811
   33POPC   O22 4400   3.308   1.956  10.392  0.8974  0.3536 -0.1183
   33POPC   C22 4401   3.499   2.019  10.249  0.3926  0.1456  0.5225
   33POPC   H2R 4402   3.580   1.973  10.309 -1.4235 -1.1311  2.0652
   33POPC   H2S 4403   3.535   2.118  10.215  2.8558 -1.2491 -1.0970
   33POPC    C3 4404   3.157   2.335  10.402  0.1400  0.7943  0.3096
   33POPC    HX 4405   3.234   2.395  10.454 -0.1026  3.1054 -1.9095
   33POPC    HY 4406   3.055   2.332  10.446 -0.1612 -0.2368 -0.4225
   33POPC   O31 4407   3.128   2.362  10.263 -0.1803 -0.4222 -0.3569
   33POPC   C31 4408   3.226   2.412  10.192  0.3870 -0.2745  0.1145
   33POPC   O32 4409   3.340   2.442  10.225 -0.1749  0.3110 -0.2671
   33POPC   C32 4410   3.184   2.451  10.051 -0.3560 -0.1574 -0.3621
   33POPC   H2X 4411   3.150   2.557  10.050 -1.8799 -0.6151  0.6688
   33POPC   H2Y 4412   3.099   2.384  10.022 -0.1893 -1.1022  1.2939
   33POPC   C23 4413   3.478   1.928  10.123 -0.4106  0.1590 -0.2675
   33POPC   H3R 4414   3.417   1.836  10.141 -0.8787  0.3934 -0.6685
   33POPC   H3S 4415   3.581   1.886  10.121 -0.5198 -0.1614  0.4436
   33POPC   C24 4416   3.451   2.016   9.992 -0.0795  0.1208  0.4261
   33POPC   H4R 4417   3.539   2.077   9.967  0.9262 -0.6659  1.9590
   33POPC   H4S 4418   3.359   2.072  10.019  0.6671  1.1118  0.9382
   33POPC   C25 4419   3.433   1.917   9.871 -0.6917 -0.0170  0.5501
   33POPC   H5R 4420   3.350   1.847   9.893  1.3399 -3.3874 -2.0874
   33POPC   H5S 4421   3.531   1.866   9.863 -1.4422 -1.3319 -0.3782
   33POPC   C26 4422   3.408   1.995   9.736  0.2273  0.6606 -0.6465
   33POPC   H6R 4423   3.490   2.053   9.689  1.0245 -0.1422 -0.2699
   33POPC   H6S 4424   3.331   2.066   9.772  0.2557 -0.1211  1.0101
   33POPC   C27 4425   3.349   1.901   9.621  0.1098 -0.2949 -0.1856
   33POPC   H7R 4426   3.280   1.827   9.666  0.2056 -1.0946 -1.3495
   33POPC   H7S 4427   3.424   1.842   9.564 -0.1303 -0.0518 -0.7497
   33POPC   C28 4428   3.273   1.988   9.519  0.0686  0.1961 -0.2670
   33POPC   H8R 4429   3.354   2.052   9.477 -0.8296  0.4028 -1.7347
   33POPC   H8S 4430   3.194   2.047   9.570 -1.8859  0.6182 -3.6612
   33POPC   C29 4431   3.209   1.897   9.415  0.7725  0.0940 -0.3828
   33POPC   H91 4432   3.181   1.794   9.437 -3.1586  1.1181 -0.3186
   33POPC  C210 4433   3.170   1.943   9.294  0.3497  0.0073 -0.0241
   33POPC  H101 4434   3.111   1.884   9.223 -0.5991  2.4524 -1.3446
   33POPC  C211 4435   3.165   2.087   9.250  0.2073  0.1826 -0.3232
   33POPC  H11R 4436   3.242   2.150   9.298 -0.4664 -1.7492  3.4677
   33POPC  H11S 4437   3.068   2.128   9.285  2.3213  1.2701  4.7054
   33POPC  C212 4438   3.178   2.083   9.095 -0.0001 -0.1604 -0.3032
   33POPC  H12R 4439   3.141   2.184   9.064 -2.7671 -1.2131 -0.5754
   33POPC  H12S 4440   3.116   2.005   9.046 -2.2828  0.4805  1.4495
   33POPC  C213 4441   3.311   2.067   9.029 -0.1908 -0.0988 -0.1334
   33POPC  H13R 4442   3.348   1.963   9.035  1.0980  0.3490 -0.1108
   33POPC  H13S 4443   3.389   2.126   9.082  0.0169 -2.5003  2.3408
   33POPC  C214 4444   3.313   2.104   8.878 -0.1385  0.4103 -0.6004
   33POPC  H14R 4445   3.299   2.214   8.874  1.4781  0.7221  1.4363
   33POPC  H14S 4446   3.217   2.066   8.835  0.9530  0.2809 -3.0081
   33POPC  C215 4447   3.423   2.034   8.808 -0.1237 -0.5553  1.0625
   33POPC  H15R 4448   3.425   1.923   8.817  0.5605 -0.7106 -0.6315
   33POPC  H15S 4449   3.516   2.073   8.854 -0.7480  2.1178  0.1069
   33POPC  C216 4450   3.430   2.053   8.653 -0.4862  0.9843  0.4034
   33POPC  H16R 4451   3.528   2.013   8.618 -1.7707 -1.3999 -0.5493
   33POPC  H16S 4452   3.439   2.164   8.642  2.1133  0.7378 -0.3032
   33POPC  C217 4453   3.308   1.997   8.575 -0.9342 -0.1459 -0.2383
   33POPC  H17R 4454   3.214   2.040   8.616  0.1780  2.8080 -0.6991
   33POPC  H17S 4455   3.314   1.890   8.603  0.0793 -0.2875 -0.9635
   33POPC  C218 4456   3.321   2.008   8.423  0.5948  0.0196 -0.1870
   33POPC  H18R 4457   3.219   2.022   8.382  0.7799 -0.5230 -0.8250
   33POPC  H18S 4458   3.367   1.913   8.390 -1.2341 -1.5541  1.6175
   33POPC  H18T 4459   3.393   2.092   8.410  1.8382 -0.2305  4.2298
   33POPC   C33 4460   3.289   2.432   9.943  0.3553  0.5850  0.1784
   33POPC   H3X 4461   3.344   2.336   9.957  1.5639  1.2098 -0.1716
   33POPC   H3Y 4462   3.364   2.513   9.955 -0.7137  1.4651  1.0078
   33POPC   C34 4463   3.217   2.439   9.808  0.6299 -0.9604  0.2853
   33POPC   H4X 4464   3.165   2.535   9.790  1.6015 -0.4455  0.1930
   33POPC   H4Y 4465   3.152   2.350   9.792  0.7204 -0.6416 -2.0716
   33POPC   C35 4466   3.322   2.441   9.700  0.1123  0.1914  0.8917
   33POPC   H5X 4467   3.367   2.339   9.693  0.1105  0.1806  1.0187
   33POPC   H5Y 4468   3.408   2.510   9.715 -1.2979  1.5841  2.8222
   33POPC   C36 4469   3.264   2.455   9.556 -0.1701 -0.2095  0.1299
   33POPC   H6X 4470   3.221   2.557   9.541 -1.8103 -0.6052  1.8817
   33POPC   H6Y 4471   3.172   2.393   9.548 -0.9950  0.8593  1.0082
   33POPC   C37 4472   3.366   2.430   9.449  0.0459  0.2435  0.0858
   33POPC   H7X 4473   3.415   2.331   9.461  0.7259  0.4869 -0.5956
   33POPC   H7Y 4474   3.447   2.505   9.459  1.4025 -1.0371 -0.9796
   33POPC   C38 4475   3.297   2.441   9.317 -0.2450 -0.2262  0.1561
   33POPC   H8X 4476   3.251   2.542   9.313 -0.2313 -0.2186  0.1880
   33POPC   H8Y 4477   3.215   2.367   9.298  0.0707 -0.5117 -0.1148
   33POPC   C39 4478   3.400   2.448   9.197  0.1207 -0.7672 -0.1873
   33POPC   H9X 4479   3.454   2.352   9.183 -0.5385 -0.9687 -1.4080
   33POPC   H9Y 4480   3.472   2.528   9.225 -0.1537 -0.5399 -0.1311
   33POPC  C310 4481   3.336   2.484   9.057  0.0838 -0.0584 -0.7948
   33POPC  H10X 4482   3.265   2.567   9.073 -0.2418 -0.1889 -1.5215
   33POPC  H10Y 4483   3.274   2.396   9.029 -1.7032 -0.0409  2.8360
   33POPC  C311 4484   3.443   2.520   8.945  1.0577  0.0648 -0.1259
   33POPC  H11X 4485   3.510   2.433   8.928  1.5401 -0.0645  2.2070
   33POPC  H11Y 4486   3.515   2.590   8.993 -0.0543  1.7593 -0.8823
   33POPC  C312 4487   3.386   2.576   8.811  0.1466  0.2235 -0.4156
   33POPC  H12X 4488   3.329   2.670   8.829 -1.5848 -0.1844 -3.4053
   33POPC  H12Y 4489   3.306   2.512   8.768 -1.3166  1.3132  0.6106
   33POPC  C313 4490   3.493   2.592   8.716  0.2792 -0.1674 -0.0996
   33POPC  H13X 4491   3.546   2.496   8.698  0.5231  0.0268 -0.4177
   33POPC  H13Y 4492   3.567   2.672   8.740  0.9454 -0.5821 -0.7341
   33POPC  C314 4493   3.438   2.611   8.570 -0.3900  0.6664 -0.3252
   33POPC  H14X 4494   3.380   2.706   8.570 -1.8078 -0.1732  0.3662
   33POPC  H14Y 4495   3.361   2.532   8.558 -1.3492  1.3707  1.0529
   33POPC  C315 4496   3.542   2.609   8.463 -0.6520  0.4501  0.4158
   33POPC  H15X 4497   3.620   2.674   8.507 -1.2695  1.5993 -0.1723
   33POPC  H15Y 4498   3.501   2.650   8.369 -1.1778 -0.9961 -0.0011
   33POPC  C316 4499   3.586   2.471   8.422  0.4040 -0.6802 -0.1399
   33POPC  H16X 4500   3.629   2.465   8.320 -2.3394 -1.6063 -1.2667
   33POPC  H16Y 4501   3.493   2.411   8.430 -1.6164  2.4180  0.4183
   33POPC  H16Z 4502   3.648   2.427   8.503  1.5312 -1.7444 -1.5448
   34POPC     N 4503   2.108   2.679  10.764  0.1108 -0.3353  0.0837
   34POPC   C12 4504   2.224   2.731  10.675  0.5446  0.4274 -1.0195
   34POPC  H12A 4505   2.294   2.650  10.665  0.7610  0.3102  1.1771
   34POPC  H12B 4506   2.277   2.806  10.732 -1.0435 -0.2857  1.5236
   34POPC   C13 4507   2.032   2.579  10.691  0.5657  0.3526 -0.2076
   34POPC  H13A 4508   2.092   2.489  10.688 -0.8688 -0.5909 -1.5383
   34POPC  H13B 4509   1.935   2.564  10.736  0.0658  2.4099 -0.5469
   34POPC  H13C 4510   2.014   2.622  10.594  1.7227  2.5171  0.5160
   34POPC   C14 4511   2.158   2.622  10.883 -0.4997 -0.5853 -0.0465
   34POPC  H14A 4512   2.241   2.682  10.917 -2.5081  2.3526 -0.2560
   34POPC  H14B 4513   2.082   2.618  10.959  1.4046 -0.2528  1.9438
   34POPC  H14C 4514   2.203   2.524  10.871  1.6212  0.3994 -0.4670
   34POPC   C15 4515   2.022   2.805  10.800  0.4341  0.0534 -0.4969
   34POPC  H15A 4516   2.082   2.877  10.854  1.7415 -1.2569 -0.1626
   34POPC  H15B 4517   1.925   2.787  10.842  0.2004  0.6863 -0.7469
   34POPC  H15C 4518   2.007   2.852  10.704  0.6819  1.8542  0.3062
   34POPC   C11 4519   2.194   2.791  10.538 -0.4961  0.2875 -0.5036
   34POPC  H11A 4520   2.108   2.741  10.488 -0.2602 -1.8276  1.1421
   34POPC  H11B 4521   2.274   2.775  10.462  1.1216 -0.0721  1.2308
   34POPC     P 4522   2.282   3.029  10.592  0.1202 -0.0796 -0.2169
   34POPC   O13 4523   2.386   2.952  10.664  0.2586 -0.5770  0.0710
   34POPC   O14 4524   2.226   3.146  10.664 -0.7189 -0.1620  0.2518
   34POPC   O12 4525   2.163   2.925  10.555 -0.1900 -0.0102  0.4370
   34POPC   O11 4526   2.349   3.079  10.453 -0.5552 -0.3575 -0.4415
   34POPC    C1 4527   2.264   3.122  10.344  0.4177 -0.4156  0.0844
   34POPC    HA 4528   2.237   3.229  10.351 -0.2609 -0.7177  2.9837
   34POPC    HB 4529   2.168   3.065  10.339  1.1968 -1.5496 -3.3412
   34POPC    C2 4530   2.328   3.097  10.205  0.4160 -0.3653  0.1655
   34POPC    HS 4531   2.263   3.137  10.124  1.8989  1.4788 -0.1447
   34POPC   O21 4532   2.372   2.962  10.186  0.2477 -0.1417  0.1438
   34POPC   C21 4533   2.305   2.873  10.117 -0.3175  0.3108  0.1751
   34POPC   O22 4534   2.193   2.884  10.072  0.5730 -0.2305  0.2015
   34POPC   C22 4535   2.382   2.739  10.120  0.5771 -0.7025 -0.3565
   34POPC   H2R 4536   2.340   2.682  10.205  0.5215 -0.3727 -0.1609
   34POPC   H2S 4537   2.491   2.762  10.130  0.1567  0.5587  1.7318
   34POPC    C3 4538   2.448   3.194  10.190  0.2799 -0.1339  0.3900
   34POPC    HX 4539   2.524   3.170  10.267  0.6961  2.8134  0.9722
   34POPC    HY 4540   2.413   3.297  10.213 -1.2647 -1.2472  3.2436
   34POPC   O31 4541   2.492   3.212  10.054 -0.7081 -0.1161  0.2615
   34POPC   C31 4542   2.590   3.129  10.009 -0.2505  0.0227 -0.1534
   34POPC   O32 4543   2.662   3.058  10.083  0.3844 -0.2852  0.4973
   34POPC   C32 4544   2.601   3.135   9.869 -0.4406 -0.0691  0.1669
   34POPC   H2X 4545   2.632   3.237   9.839 -1.9897  1.1383  2.5717
   34POPC   H2Y 4546   2.500   3.119   9.827  0.2645 -1.4942 -1.0532
   34POPC   C23 4547   2.341   2.651   9.998 -0.1810 -0.0045 -0.1242
   34POPC   H3R 4548   2.231   2.632  10.003  0.0359 -1.6665 -1.2134
   34POPC   H3S 4549   2.370   2.553  10.042 -2.6858 -0.2579  1.0800
   34POPC   C24 4550   2.404   2.678   9.864  0.0587  0.6272  0.2954
   34POPC   H4R 4551   2.514   2.662   9.861 -0.0478  0.2159 -2.9644
   34POPC   H4S 4552   2.377   2.785   9.855 -1.8728  0.1243 -0.0081
   34POPC   C25 4553   2.325   2.597   9.763 -0.0356 -0.5969  0.2696
   34POPC   H5R 4554   2.217   2.623   9.766  0.2258  0.3873  1.2207
   34POPC   H5S 4555   2.332   2.489   9.788  0.7523 -0.7021 -0.3896
   34POPC   C26 4556   2.362   2.613   9.615  0.1159 -0.3093 -0.5057
   34POPC   H6R 4557   2.466   2.573   9.613  0.3726  0.3380 -0.1858
   34POPC   H6S 4558   2.370   2.721   9.591 -0.8272 -0.2364 -0.5041
   34POPC   C27 4559   2.273   2.544   9.516  0.0953 -0.3402 -0.3696
   34POPC   H7R 4560   2.167   2.561   9.545  0.3965  1.4821 -0.2550
   34POPC   H7S 4561   2.290   2.436   9.538  0.8044 -0.1743 -0.1069
   34POPC   C28 4562   2.308   2.573   9.364 -0.7270 -0.1677  0.2080
   34POPC   H8R 4563   2.321   2.680   9.341 -1.0724 -0.5471 -1.8064
   34POPC   H8S 4564   2.233   2.529   9.295  0.6715 -0.6948 -1.0025
   34POPC   C29 4565   2.446   2.515   9.336 -0.2565  0.7325 -0.0887
   34POPC   H91 4566   2.513   2.490   9.420  3.3203 -1.4485 -3.3820
   34POPC  C210 4567   2.484   2.479   9.210 -1.0173 -0.2072  0.1265
   34POPC  H101 4568   2.585   2.441   9.193 -0.1396  2.2324 -0.3248
   34POPC  C211 4569   2.399   2.497   9.087  0.9320 -0.1885  0.1442
   34POPC  H11R 4570   2.368   2.602   9.068  0.8265 -0.4688 -1.3159
   34POPC  H11S 4571   2.309   2.432   9.090  2.0008 -1.8730 -2.2877
   34POPC  C212 4572   2.481   2.456   8.965 -0.1971 -0.6410  0.7684
   34POPC  H12R 4573   2.525   2.356   8.986 -0.1056 -0.8573 -0.4426
   34POPC  H12S 4574   2.570   2.513   8.932 -0.9184 -1.1066 -2.1232
   34POPC  C213 4575   2.378   2.441   8.847 -0.2411  0.1454 -0.7721
   34POPC  H13R 4576   2.317   2.533   8.837 -0.5409  0.2489  1.8065
   34POPC  H13S 4577   2.310   2.357   8.870 -0.4773  0.6518  0.4185
   34POPC  C214 4578   2.441   2.403   8.713 -0.1658  0.5610 -0.0684
   34POPC  H14R 4579   2.510   2.485   8.684  1.8613  0.5871  4.2753
   34POPC  H14S 4580   2.360   2.381   8.640  0.1291 -1.7806  0.2620
   34POPC  C215 4581   2.522   2.269   8.702 -0.2935  0.2077  0.8178
   34POPC  H15R 4582   2.458   2.191   8.748  2.4237 -2.3037  0.4828
   34POPC  H15S 4583   2.612   2.271   8.767  0.3529 -2.5223  0.0391
   34POPC  C216 4584   2.569   2.234   8.556 -0.0272  0.1957  0.3394
   34POPC  H16R 4585   2.484   2.218   8.487  1.3814 -1.6252 -1.0178
   34POPC  H16S 4586   2.617   2.134   8.563  1.4456  0.7094 -2.1989
   34POPC  C217 4587   2.651   2.338   8.484 -0.1445 -0.5957  0.2976
   34POPC  H17R 4588   2.758   2.321   8.509  0.0505  1.2687  0.7496
   34POPC  H17S 4589   2.634   2.445   8.507  0.2144 -0.6649  0.8880
   34POPC  C218 4590   2.647   2.311   8.330 -0.0116 -0.5894  0.3246
   34POPC  H18R 4591   2.540   2.321   8.302  0.1510  1.4832  0.3818
   34POPC  H18S 4592   2.670   2.204   8.310  0.0462 -0.6519  0.7094
   34POPC  H18T 4593   2.720   2.368   8.270 -2.6245  0.1843 -2.2609
   34POPC   C33 4594   2.697   3.026   9.811  0.0793 -0.0523 -0.2905
   34POPC   H3X 4595   2.671   2.923   9.842  0.2492 -0.6224 -2.0261
   34POPC   H3Y 4596   2.796   3.051   9.856  0.0535 -2.0076  0.8978
   34POPC   C34 4597   2.703   3.027   9.660  0.0622 -0.1486  0.3186
   34POPC   H4X 4598   2.725   3.132   9.632  1.1288  0.1719  2.2579
   34POPC   H4Y 4599   2.605   2.987   9.627  0.4373 -1.3096  0.5889
   34POPC   C35 4600   2.812   2.940   9.600  0.5179 -1.1827 -0.7527
   34POPC   H5X 4601   2.802   2.831   9.620 -1.8023 -0.8147  0.2575
   34POPC   H5Y 4602   2.912   2.954   9.647 -0.7918 -0.2740  1.8803
   34POPC   C36 4603   2.816   2.973   9.449  0.5029 -0.3331  0.5819
   34POPC   H6X 4604   2.893   2.914   9.395 -0.6489  0.9777 -2.5997
   34POPC   H6Y 4605   2.822   3.082   9.426 -1.6802 -0.0921  1.0580
   34POPC   C37 4606   2.683   2.933   9.381 -0.0758 -0.2383  0.2683
   34POPC   H7X 4607   2.606   3.006   9.413  2.8000  2.5722  0.9544
   34POPC   H7Y 4608   2.655   2.836   9.428  1.2001  0.7755  3.2843
   34POPC   C38 4609   2.680   2.919   9.231  0.1386 -0.4155  0.2596
   34POPC   H8X 4610   2.740   2.836   9.187  2.0969  1.7638 -1.2963
   34POPC   H8Y 4611   2.726   3.008   9.184  1.3113  0.6546  3.3346
   34POPC   C39 4612   2.536   2.913   9.163 -0.1559  0.4073  0.2892
   34POPC   H9X 4613   2.480   3.001   9.203  1.7216  1.5655  0.4291
   34POPC   H9Y 4614   2.491   2.813   9.180 -1.3689  0.3098 -3.1665
   34POPC  C310 4615   2.546   2.921   9.009  0.0060 -0.2655 -0.2218
   34POPC  H10X 4616   2.595   2.832   8.965  0.7083  0.3485 -0.7074
   34POPC  H10Y 4617   2.610   3.006   8.976  1.1105 -1.0196 -0.0585
   34POPC  C311 4618   2.413   2.924   8.930 -0.2350 -0.2062 -0.0539
   34POPC  H11X 4619   2.339   2.999   8.965 -1.1410 -2.2011  2.3634
   34POPC  H11Y 4620   2.377   2.819   8.937  1.5384 -0.8641 -0.4532
   34POPC  C312 4621   2.438   2.962   8.781 -0.8048  0.6722 -0.0637
   34POPC  H12X 4622   2.525   2.905   8.741 -0.1196  0.7851  1.2381
   34POPC  H12Y 4623   2.456   3.071   8.773 -1.1420  0.7458  0.1660
   34POPC  C313 4624   2.305   2.924   8.706 -0.1972 -0.3403  0.3499
   34POPC  H13X 4625   2.229   2.969   8.774  0.0384 -0.0813  0.4428
   34POPC  H13Y 4626   2.298   2.813   8.712 -1.0926 -0.2906  0.1958
   34POPC  C314 4627   2.292   2.977   8.562 -0.0461  0.4597  0.3677
   34POPC  H14X 4628   2.370   2.939   8.493 -2.0190  1.1522 -2.3013
   34POPC  H14Y 4629   2.307   3.086   8.576  1.0014  0.4346 -0.5534
   34POPC  C315 4630   2.152   2.960   8.495  0.3704  0.3546 -0.0206
   34POPC  H15X 4631   2.077   3.029   8.538  1.3261  0.6609  1.2049
   34POPC  H15Y 4632   2.130   2.852   8.504  2.5183 -0.3011 -2.1216
   34POPC  C316 4633   2.164   3.005   8.348  0.4140 -0.1250 -0.4957
   34POPC  H16X 4634   2.239   2.945   8.293  0.0495  0.3809 -1.5598
   34POPC  H16Y 4635   2.195   3.111   8.342  0.3639 -0.0213  0.8666
   34POPC  H16Z 4636   2.063   3.006   8.301 -0.5851 -0.7492  1.5381
   35POPC     N 4637   2.936   0.152  11.111  0.3921 -0.0972 -0.7121
   35POPC   C12 4638   2.846   0.218  11.215  0.5299 -0.3247  0.1568
   35POPC  H12A 4639   2.870   0.322  11.234 -1.0946  0.0616  0.1620
   35POPC  H12B 4640   2.865   0.173  11.311 -0.3568  1.0040  0.9640
   35POPC   C13 4641   2.932   0.226  10.981  0.3219 -0.8402  0.0872
   35POPC  H13A 4642   2.955   0.332  10.985 -1.2782 -0.5435  2.9498
   35POPC  H13B 4643   2.989   0.174  10.906  0.1086  0.1633 -0.7796
   35POPC  H13C 4644   2.828   0.227  10.951 -0.2471  0.4478  1.9938
   35POPC   C14 4645   3.085   0.154  11.156 -0.3213  0.2738 -0.1294
   35POPC  H14A 4646   3.149   0.139  11.071  0.7682  1.1354  0.5331
   35POPC  H14B 4647   3.105   0.247  11.208  0.9923 -2.2481  4.0345
   35POPC  H14C 4648   3.113   0.083  11.232  1.7941  0.1096 -1.0270
   35POPC   C15 4649   2.901   0.011  11.082 -0.2237 -0.6868 -0.3144
   35POPC  H15A 4650   2.953  -0.038  11.000  1.4268  0.2093  0.1831
   35POPC  H15B 4651   2.797   0.003  11.053 -0.0123  1.8240 -1.8700
   35POPC  H15C 4652   2.899  -0.062  11.161  0.7564 -2.1711 -1.6151
   35POPC   C11 4653   2.691   0.221  11.194  0.1501 -0.6616  0.1172
   35POPC  H11A 4654   2.673   0.271  11.096  0.8624 -1.7527 -0.5850
   35POPC  H11B 4655   2.642   0.282  11.273  0.3492  0.4345 -0.5914
   35POPC     P 4656   2.499   0.036  11.146  0.3881 -0.1473  0.3863
   35POPC   O13 4657   2.423   0.000  11.264 -0.5671  0.3306 -0.0954
   35POPC   O14 4658   2.516  -0.072  11.048 -0.1819 -0.0689  0.1952
   35POPC   O12 4659   2.645   0.086  11.196  0.3483 -0.2641  0.1158
   35POPC   O11 4660   2.433   0.159  11.083 -0.2609  0.4082 -0.1417
   35POPC    C1 4661   2.315   0.161  11.000 -0.2713  0.3446  1.0230
   35POPC    HA 4662   2.255   0.246  11.040 -2.2656  0.8443 -2.8182
   35POPC    HB 4663   2.251   0.071  11.010 -1.1820  0.9621  0.7382
   35POPC    C2 4664   2.341   0.193  10.849  0.0942  1.0939 -0.2300
   35POPC    HS 4665   2.401   0.107  10.812 -2.9771 -1.3601  0.2629
   35POPC   O21 4666   2.412   0.315  10.829 -0.2677  0.1812 -0.0041
   35POPC   C21 4667   2.534   0.313  10.783  0.7683 -0.1903  0.1961
   35POPC   O22 4668   2.595   0.217  10.746  0.4149 -0.6478  0.0429
   35POPC   C22 4669   2.585   0.455  10.775  0.4055 -0.0256  0.3865
   35POPC   H2R 4670   2.658   0.476  10.856  0.6527  2.2711 -0.3931
   35POPC   H2S 4671   2.499   0.519  10.803  0.0673 -0.4478  0.3135
   35POPC    C3 4672   2.215   0.199  10.768  0.8357  0.1724 -0.2993
   35POPC    HX 4673   2.152   0.280  10.811 -0.0929 -1.6959  1.9974
   35POPC    HY 4674   2.166   0.100  10.783  1.4786 -0.0033  0.7282
   35POPC   O31 4675   2.243   0.210  10.621  0.1076  0.4202 -0.1326
   35POPC   C31 4676   2.188   0.309  10.553  0.0963 -0.6977  0.0712
   35POPC   O32 4677   2.116   0.394  10.602  0.6281  0.0474  0.0923
   35POPC   C32 4678   2.244   0.304  10.416 -0.5985 -0.2573 -0.2917
   35POPC   H2X 4679   2.250   0.199  10.379  0.2227 -0.6834  0.9887
   35POPC   H2Y 4680   2.348   0.341  10.412 -0.6319  0.0039  0.8465
   35POPC   C23 4681   2.644   0.489  10.640  0.4183  0.8956  0.0638
   35POPC   H3R 4682   2.571   0.464  10.560  1.5131  0.9806 -0.9657
   35POPC   H3S 4683   2.736   0.429  10.630 -0.5630 -0.6125 -0.0129
   35POPC   C24 4684   2.704   0.624  10.611 -1.1317  0.3263 -1.1224
   35POPC   H4R 4685   2.771   0.648  10.696 -2.3592  1.5082 -0.4558
   35POPC   H4S 4686   2.636   0.712  10.608 -0.3786  1.0129  1.2937
   35POPC   C25 4687   2.797   0.619  10.491 -0.6133  0.0602  0.2930
   35POPC   H5R 4688   2.889   0.563  10.520 -1.7330 -1.5048  0.8862
   35POPC   H5S 4689   2.827   0.723  10.467  0.6324  0.2019  2.2934
   35POPC   C26 4690   2.729   0.556  10.361 -0.4622  0.2362 -0.1142
   35POPC   H6R 4691   2.713   0.448  10.381  1.8132 -0.2263 -0.6613
   35POPC   H6S 4692   2.795   0.581  10.275  0.9260 -1.9298  0.2986
   35POPC   C27 4693   2.593   0.615  10.327 -0.0521  0.4608 -0.2330
   35POPC   H7R 4694   2.611   0.721  10.300  0.2046  0.8434  1.3721
   35POPC   H7S 4695   2.534   0.609  10.422  2.9234 -0.6424  1.6058
   35POPC   C28 4696   2.516   0.533  10.224  0.1119  0.4331 -0.2417
   35POPC   H8R 4697   2.420   0.586  10.211 -0.8722 -1.7158 -1.9542
   35POPC   H8S 4698   2.495   0.428  10.253 -0.7386  0.3293 -1.1951
   35POPC   C29 4699   2.580   0.540  10.085 -0.8348  0.2831  0.0508
   35POPC   H91 4700   2.660   0.615  10.080 -1.6734  1.1206 -1.4062
   35POPC  C210 4701   2.547   0.469   9.973 -0.3348  0.2736  0.5801
   35POPC  H101 4702   2.598   0.491   9.878 -1.1246  0.5426  0.2130
   35POPC  C211 4703   2.438   0.362   9.968 -0.7201 -0.0664  0.4876
   35POPC  H11R 4704   2.392   0.346  10.068  3.3803  1.1096  2.6770
   35POPC  H11S 4705   2.488   0.265   9.952 -1.4919 -0.4609  0.4292
   35POPC  C212 4706   2.336   0.384   9.857 -0.6004 -0.5367  0.5087
   35POPC  H12R 4707   2.287   0.483   9.867  1.7146  0.5569  1.3613
   35POPC  H12S 4708   2.254   0.318   9.894 -0.7140 -0.9180 -0.4243
   35POPC  C213 4709   2.371   0.366   9.711  0.2115  0.2023  0.0412
   35POPC  H13R 4710   2.444   0.283   9.703  2.0404  1.7344  0.3310
   35POPC  H13S 4711   2.436   0.453   9.687 -0.2727  0.4891 -0.2097
   35POPC  C214 4712   2.255   0.346   9.620  0.1282 -0.2447  0.2997
   35POPC  H14R 4713   2.190   0.436   9.621 -0.4255 -0.6362  0.0519
   35POPC  H14S 4714   2.190   0.262   9.652 -0.4001  1.0469  2.7140
   35POPC  C215 4715   2.303   0.342   9.468 -0.4190  0.3346 -0.1778
   35POPC  H15R 4716   2.377   0.260   9.472  0.5407  1.2683  2.0966
   35POPC  H15S 4717   2.358   0.434   9.438  2.0618 -0.7550  0.9414
   35POPC  C216 4718   2.181   0.306   9.371 -0.1436 -0.4397  0.2087
   35POPC  H16R 4719   2.088   0.360   9.399  1.1368  2.8283 -1.5630
   35POPC  H16S 4720   2.160   0.197   9.370  0.1474 -0.5107  1.0368
   35POPC  C217 4721   2.197   0.336   9.223 -0.4075 -0.7688 -0.4568
   35POPC  H17R 4722   2.189   0.446   9.211  1.5344 -0.7230 -1.4145
   35POPC  H17S 4723   2.109   0.293   9.171 -0.5236  0.2614 -1.1368
   35POPC  C218 4724   2.323   0.284   9.152  0.2762 -0.1096 -0.7925
   35POPC  H18R 4725   2.326   0.176   9.177  1.0037 -0.0985 -0.8418
   35POPC  H18S 4726   2.413   0.329   9.197  0.3845 -1.5879  0.4940
   35POPC  H18T 4727   2.331   0.289   9.041  1.1872  0.4505 -0.7069
   35POPC   C33 4728   2.153   0.379  10.312 -0.5806 -0.5852  0.3048
   35POPC   H3X 4729   2.214   0.399  10.222 -3.2724 -2.0078 -1.8955
   35POPC   H3Y 4730   2.119   0.476  10.354  0.2863  0.8389 -2.2065
   35POPC   C34 4731   2.030   0.300  10.267  0.5297  0.8715  0.1374
   35POPC   H4X 4732   1.941   0.331  10.327  0.9222 -0.5597  1.4989
   35POPC   H4Y 4733   2.045   0.191  10.279 -2.1844  0.4173 -0.3087
   35POPC   C35 4734   2.003   0.320  10.114 -0.0943 -0.0713  0.3398
   35POPC   H5X 4735   1.922   0.248  10.091 -0.7546  0.3883  1.1706
   35POPC   H5Y 4736   2.099   0.293  10.065 -0.7856  0.2758 -1.2456
   35POPC   C36 4737   1.959   0.457  10.071  0.0671 -0.1954  1.0042
   35POPC   H6X 4738   2.026   0.524  10.127 -0.6542 -0.6261  2.3975
   35POPC   H6Y 4739   1.854   0.479  10.099  0.1649  1.1563  0.3664
   35POPC   C37 4740   1.969   0.475   9.926  1.0480  0.7479  0.3658
   35POPC   H7X 4741   2.039   0.398   9.885  1.2930 -0.7868  3.5181
   35POPC   H7Y 4742   2.015   0.573   9.901  2.2040  0.0192 -0.4311
   35POPC   C38 4743   1.831   0.477   9.842 -0.4863  0.1283  0.5122
   35POPC   H8X 4744   1.777   0.561   9.891 -1.7080 -0.0577 -0.4967
   35POPC   H8Y 4745   1.765   0.390   9.860 -0.0173 -0.5382 -0.8873
   35POPC   C39 4746   1.870   0.506   9.690  0.5226  0.5526  0.2121
   35POPC   H9X 4747   1.943   0.432   9.649  0.7037  1.0841 -0.4245
   35POPC   H9Y 4748   1.919   0.604   9.674 -2.8128  2.3376  0.4603
   35POPC  C310 4749   1.739   0.515   9.617  0.0662 -0.1615  0.6787
   35POPC  H10X 4750   1.673   0.599   9.647 -0.6719 -1.8486  4.0328
   35POPC  H10Y 4751   1.685   0.418   9.631  1.5970 -1.3921 -1.6133
   35POPC  C311 4752   1.762   0.525   9.460  0.4062 -0.3350 -0.9854
   35POPC  H11X 4753   1.824   0.436   9.434  0.6519 -0.1370 -1.0835
   35POPC  H11Y 4754   1.834   0.605   9.432  0.2419  0.0230 -0.3772
   35POPC  C312 4755   1.639   0.545   9.383  0.2130 -0.3346 -1.9479
   35POPC  H12X 4756   1.607   0.643   9.424  2.3568 -0.4795  0.1515
   35POPC  H12Y 4757   1.564   0.467   9.411  0.4007  0.6964  1.6920
   35POPC  C313 4758   1.674   0.556   9.237 -0.7233  0.9090  0.4258
   35POPC  H13X 4759   1.697   0.455   9.198 -0.5932  0.6888  1.0678
   35POPC  H13Y 4760   1.749   0.636   9.217 -2.6407  3.0575  1.5755
   35POPC  C314 4761   1.540   0.594   9.161 -0.2035 -0.5166  0.6345
   35POPC  H14X 4762   1.499   0.689   9.201  3.0561  0.1822  2.5597
   35POPC  H14Y 4763   1.465   0.516   9.188  0.7511 -1.1655  1.4658
   35POPC  C315 4764   1.557   0.599   9.008 -0.3066 -0.1928 -0.3214
   35POPC  H15X 4765   1.463   0.594   8.949 -0.1224 -0.0644 -0.6253
   35POPC  H15Y 4766   1.618   0.514   8.971  0.2337  0.4789 -0.9977
   35POPC  C316 4767   1.638   0.722   8.978  0.0134 -0.4499 -0.1873
   35POPC  H16X 4768   1.629   0.729   8.868 -3.2909  0.0106  0.0507
   35POPC  H16Y 4769   1.741   0.714   9.018  0.5459 -0.0419 -1.4559
   35POPC  H16Z 4770   1.572   0.802   9.017  1.4961 -0.0486  1.5985
   36POPC     N 4771   2.844   5.672  10.926 -0.4143  0.2311 -0.2364
   36POPC   C12 4772   2.928   5.725  10.814 -0.3381  0.4774 -0.0552
   36POPC  H12A 4773   2.990   5.661  10.752  1.7076  2.7789 -0.4748
   36POPC  H12B 4774   3.003   5.789  10.858  1.4173 -0.1820 -1.9941
   36POPC   C13 4775   2.714   5.600  10.883  0.1845 -0.3236 -0.8858
   36POPC  H13A 4776   2.741   5.498  10.860  1.4671  0.5199 -3.3211
   36POPC  H13B 4777   2.637   5.587  10.957  2.0498 -2.1667  0.8040
   36POPC  H13C 4778   2.661   5.656  10.808 -0.2467  0.1274 -0.2515
   36POPC   C14 4779   2.923   5.571  11.007  0.6186 -0.1069 -0.1540
   36POPC  H14A 4780   3.016   5.605  11.049 -0.3952  0.4597  1.6758
   36POPC  H14B 4781   2.874   5.538  11.097  1.8347 -0.6070  0.3303
   36POPC  H14C 4782   2.950   5.487  10.944 -2.4201  0.8045 -2.8606
   36POPC   C15 4783   2.795   5.781  11.016 -0.1566  0.9443  0.8694
   36POPC  H15A 4784   2.717   5.750  11.085 -0.3774  0.3907  0.3691
   36POPC  H15B 4785   2.752   5.859  10.956  0.1943 -0.8468 -1.7585
   36POPC  H15C 4786   2.871   5.817  11.084  0.5024 -0.8659  1.1247
   36POPC   C11 4787   2.851   5.829  10.727 -0.0893  0.2546  0.1303
   36POPC  H11A 4788   2.762   5.777  10.685  1.1538 -0.8094 -1.2539
   36POPC  H11B 4789   2.910   5.860  10.638  1.0045  2.5757  1.6059
   36POPC     P 4790   2.896   6.072  10.804  0.5405 -0.0455 -0.2085
   36POPC   O13 4791   3.018   6.034  10.880 -0.2137 -0.3908 -0.2655
   36POPC   O14 4792   2.812   6.169  10.878  0.3030  0.0639  1.2452
   36POPC   O12 4793   2.813   5.945  10.796  0.1790  0.5261  0.2712
   36POPC   O11 4794   2.928   6.114  10.656  0.1172  0.6119  0.0715
   36POPC    C1 4795   2.859   6.218  10.586  0.2027  0.8633 -0.2021
   36POPC    HA 4796   2.936   6.282  10.538  0.6127  1.7562  1.6026
   36POPC    HB 4797   2.808   6.290  10.654  1.1282  1.5831 -0.2553
   36POPC    C2 4798   2.756   6.159  10.486  0.4382 -1.2758  0.1896
   36POPC    HS 4799   2.679   6.117  10.554 -0.6077  0.7956  0.3332
   36POPC   O21 4800   2.822   6.065  10.402  0.3299  0.6781  0.5782
   36POPC   C21 4801   2.783   5.933  10.410 -0.4153 -0.1337 -1.0857
   36POPC   O22 4802   2.674   5.896  10.456 -0.5390  0.4173 -0.8221
   36POPC   C22 4803   2.886   5.851  10.335 -0.7493  0.2601 -0.0801
   36POPC   H2R 4804   2.939   5.800  10.419 -3.3815 -1.4004  0.6283
   36POPC   H2S 4805   2.959   5.913  10.278  1.3477 -0.9494  1.2023
   36POPC    C3 4806   2.689   6.271  10.400  0.4183  0.5140 -0.2548
   36POPC    HX 4807   2.763   6.314  10.331 -0.3113  1.8926 -0.2012
   36POPC    HY 4808   2.634   6.347  10.460  1.9712  2.5954 -1.4172
   36POPC   O31 4809   2.586   6.205  10.320 -0.0582  0.4662 -0.5517
   36POPC   C31 4810   2.500   6.292  10.269 -0.0661  0.1381 -0.5099
   36POPC   O32 4811   2.512   6.414  10.273 -0.5130  0.0105 -0.0151
   36POPC   C32 4812   2.382   6.221  10.209  0.6929  0.1879  0.2198
   36POPC   H2X 4813   2.295   6.233  10.277  1.8959  0.7215  1.6851
   36POPC   H2Y 4814   2.417   6.116  10.208 -0.3047 -0.1391 -1.5079
   36POPC   C23 4815   2.821   5.739  10.243  0.4714  0.5101  0.3808
   36POPC   H3R 4816   2.740   5.679  10.289 -2.0073  2.9023 -0.7279
   36POPC   H3S 4817   2.910   5.676  10.221 -0.9721 -1.0179 -1.2224
   36POPC   C24 4818   2.761   5.798  10.112  0.3696  0.8299  0.1917
   36POPC   H4R 4819   2.684   5.871  10.146  0.1361  0.6853 -0.0278
   36POPC   H4S 4820   2.719   5.712  10.057 -0.5703  0.8274  0.9077
   36POPC   C25 4821   2.865   5.860  10.010  0.9300 -0.4560 -0.0576
   36POPC   H5R 4822   2.969   5.827  10.034  1.1274  0.5197  0.4392
   36POPC   H5S 4823   2.855   5.969  10.028  0.2820 -0.6691  0.8917
   36POPC   C26 4824   2.816   5.823   9.869  0.4309 -0.8100  0.7013
   36POPC   H6R 4825   2.705   5.815   9.867  0.2100  0.3004  4.1508
   36POPC   H6S 4826   2.857   5.721   9.853  0.2724 -0.3588 -2.9954
   36POPC   C27 4827   2.867   5.917   9.755  0.0440 -0.2840  0.0107
   36POPC   H7R 4828   2.975   5.902   9.733 -0.0779 -1.3874  0.1704
   36POPC   H7S 4829   2.846   6.022   9.785 -1.1020 -0.2140 -1.0315
   36POPC   C28 4830   2.798   5.907   9.620 -0.3625  0.3824  0.5026
   36POPC   H8R 4831   2.839   5.991   9.560  1.2478  0.6913  2.0297
   36POPC   H8S 4832   2.688   5.923   9.631 -1.1652 -3.0022 -1.6316
   36POPC   C29 4833   2.816   5.778   9.547 -0.2766 -0.7756  0.2528
   36POPC   H91 4834   2.788   5.692   9.609 -2.6225 -2.1701 -2.6096
   36POPC  C210 4835   2.854   5.768   9.423  0.9872  0.0475 -0.3699
   36POPC  H101 4836   2.856   5.665   9.384  0.9243 -0.0009 -0.2454
   36POPC  C211 4837   2.869   5.881   9.323  0.7136 -0.1420  0.5650
   36POPC  H11R 4838   2.956   5.950   9.331 -1.6944  3.2408 -1.5028
   36POPC  H11S 4839   2.792   5.956   9.352  0.9030  0.6004 -0.7963
   36POPC  C212 4840   2.852   5.841   9.178  0.0368 -0.0073 -0.2812
   36POPC  H12R 4841   2.806   5.929   9.128 -0.8349  0.2435  0.9118
   36POPC  H12S 4842   2.781   5.758   9.159 -0.5540  0.1919  0.9914
   36POPC  C213 4843   2.984   5.817   9.104  0.0843  0.8988 -0.2052
   36POPC  H13R 4844   3.032   5.720   9.131  0.9229  1.7618  1.5472
   36POPC  H13S 4845   3.056   5.902   9.110  0.2685  0.7285  0.0437
   36POPC  C214 4846   2.954   5.793   8.953 -0.7448 -0.4307 -0.1070
   36POPC  H14R 4847   2.926   5.885   8.899  0.4352 -0.2606 -0.4569
   36POPC  H14S 4848   2.886   5.706   8.940  2.7867 -3.4326  0.4402
   36POPC  C215 4849   3.089   5.756   8.886 -0.1189 -0.6695 -0.2956
   36POPC  H15R 4850   3.150   5.691   8.952  1.9008 -0.9749 -2.3702
   36POPC  H15S 4851   3.156   5.844   8.871 -1.7728  0.6630  0.0634
   36POPC  C216 4852   3.070   5.680   8.748  0.0551 -0.0391 -0.3465
   36POPC  H16R 4853   2.988   5.607   8.767  0.5295 -1.3626 -3.1776
   36POPC  H16S 4854   3.166   5.630   8.721  0.5976  1.6775 -1.6414
   36POPC  C217 4855   3.029   5.770   8.628 -0.2631 -0.1362 -0.0080
   36POPC  H17R 4856   2.922   5.797   8.641 -0.1566 -1.2093  3.5736
   36POPC  H17S 4857   3.047   5.711   8.536 -1.1507  1.5208 -1.2680
   36POPC  C218 4858   3.101   5.902   8.615 -0.1338 -0.3803 -0.1396
   36POPC  H18R 4859   3.068   5.952   8.521 -1.8302  0.6132  0.9473
   36POPC  H18S 4860   3.208   5.879   8.595 -0.8118 -2.5477 -1.4604
   36POPC  H18T 4861   3.089   5.979   8.694  1.4962 -0.2688  0.0110
   36POPC   C33 4862   2.347   6.258  10.064  0.1636  0.0572  0.2584
   36POPC   H3X 4863   2.330   6.368  10.067  0.0885  0.0218  1.6944
   36POPC   H3Y 4864   2.251   6.211  10.033  0.2180  0.0684  0.0782
   36POPC   C34 4865   2.458   6.237   9.970 -0.0708  0.1217 -0.3370
   36POPC   H4X 4866   2.536   6.171  10.013  0.8273  0.1904 -1.8046
   36POPC   H4Y 4867   2.509   6.334   9.950 -1.3423  1.0287  0.7840
   36POPC   C35 4868   2.419   6.172   9.839  0.4818  0.0454  0.5335
   36POPC   H5X 4869   2.346   6.237   9.786  2.4489  1.7690 -0.1036
   36POPC   H5Y 4870   2.363   6.078   9.860  0.1944  0.6125  2.4467
   36POPC   C36 4871   2.535   6.126   9.758  0.5549  0.6601  0.2904
   36POPC   H6X 4872   2.495   6.061   9.677  2.4835  0.4225 -0.5040
   36POPC   H6Y 4873   2.610   6.068   9.817  0.1406  1.2223  1.3700
   36POPC   C37 4874   2.592   6.254   9.684  0.4983  1.0665  0.3523
   36POPC   H7X 4875   2.691   6.233   9.637 -0.4045 -1.0191 -0.6877
   36POPC   H7Y 4876   2.617   6.329   9.762 -0.0188  0.2392  1.3226
   36POPC   C38 4877   2.514   6.323   9.574 -0.5264 -0.5198 -0.5713
   36POPC   H8X 4878   2.575   6.400   9.523  0.7952 -0.4799  1.0409
   36POPC   H8Y 4879   2.425   6.375   9.614 -0.4239 -1.1193  0.4476
   36POPC   C39 4880   2.470   6.245   9.454  0.4967 -0.3373 -0.3813
   36POPC   H9X 4881   2.369   6.200   9.468  0.5882 -0.6017 -0.5622
   36POPC   H9Y 4882   2.545   6.164   9.442 -1.5002 -2.2798 -0.0597
   36POPC  C310 4883   2.478   6.327   9.325  0.0708  0.6060  0.3680
   36POPC  H10X 4884   2.587   6.348   9.315  0.0125  1.0443  0.6636
   36POPC  H10Y 4885   2.408   6.412   9.318  0.1472  0.7975  1.8627
   36POPC  C311 4886   2.436   6.238   9.204  0.0676 -0.4425 -0.0567
   36POPC  H11X 4887   2.337   6.191   9.220  0.3962 -1.7965 -1.9083
   36POPC  H11Y 4888   2.508   6.154   9.193  0.6460 -0.3048  2.3569
   36POPC  C312 4889   2.445   6.310   9.068  0.1147  1.2893  0.4924
   36POPC  H12X 4890   2.432   6.420   9.070 -1.1564  1.2215 -2.0945
   36POPC  H12Y 4891   2.361   6.280   9.002  1.2504 -0.7867 -0.0395
   36POPC  C313 4892   2.584   6.297   9.011  0.4035  0.9691 -0.5008
   36POPC  H13X 4893   2.611   6.192   8.988 -0.2348  0.8415 -0.6642
   36POPC  H13Y 4894   2.652   6.340   9.088  2.0325 -0.1818 -1.2581
   36POPC  C314 4895   2.599   6.367   8.872 -0.8586  0.2895  0.9324
   36POPC  H14X 4896   2.495   6.396   8.846 -0.7532 -0.7215 -0.6410
   36POPC  H14Y 4897   2.640   6.307   8.789  0.0716 -0.6517  2.0474
   36POPC  C315 4898   2.681   6.498   8.858 -0.5652 -1.1177  0.5014
   36POPC  H15X 4899   2.687   6.560   8.950 -0.1326 -1.2572  0.5692
   36POPC  H15Y 4900   2.623   6.573   8.801 -1.1888 -1.5106  0.6150
   36POPC  C316 4901   2.819   6.462   8.801  0.2841 -0.3518 -0.0096
   36POPC  H16X 4902   2.874   6.559   8.800  0.0385 -0.2143 -1.6722
   36POPC  H16Y 4903   2.820   6.432   8.694 -0.0923 -0.5375  0.0392
   36POPC  H16Z 4904   2.887   6.410   8.872 -0.5626 -0.1853  0.9417
   37POPC     N 4905   0.885   1.633   6.280 -0.4189 -0.0429 -0.1169
   37POPC   C12 4906   0.901   1.705   6.410  0.2195  0.2206 -0.9705
   37POPC  H12A 4907   0.828   1.785   6.407  2.5583  2.4412 -0.2226
   37POPC  H12B 4908   0.999   1.749   6.414  0.0204  0.7778 -2.0494
   37POPC   C13 4909   0.741   1.632   6.248  0.6778 -0.0680 -0.6414
   37POPC  H13A 4910   0.688   1.599   6.336  3.2583 -0.5975  0.7418
   37POPC  H13B 4911   0.698   1.730   6.233 -1.6380 -1.1666 -1.4060
   37POPC  H13C 4912   0.723   1.564   6.166  2.3515  0.3886 -1.4070
   37POPC   C14 4913   0.952   1.704   6.172  0.2256  0.5250 -0.4629
   37POPC  H14A 4914   1.059   1.692   6.180 -0.0982 -2.0135  0.5307
   37POPC  H14B 4915   0.924   1.656   6.080 -1.1888  0.2317  0.1006
   37POPC  H14C 4916   0.927   1.808   6.160 -0.3890  0.1938 -2.1660
   37POPC   C15 4917   0.929   1.484   6.289  0.1014 -0.1582  0.2885
   37POPC  H15A 4918   0.880   1.436   6.372 -0.1303  1.3081  1.0246
   37POPC  H15B 4919   1.035   1.477   6.307  0.5095  1.3821 -1.3452
   37POPC  H15C 4920   0.917   1.433   6.195  4.7891  0.2749 -0.6733
   37POPC   C11 4921   0.877   1.631   6.543 -0.2366  0.1709 -0.6593
   37POPC  H11A 4922   0.919   1.694   6.624 -0.3810  0.4082 -0.7662
   37POPC  H11B 4923   0.941   1.541   6.544 -0.4133  0.0415 -0.8736
   37POPC     P 4924   0.680   1.473   6.617  0.1555  0.1556  0.0115
   37POPC   O13 4925   0.778   1.362   6.607  0.4965 -0.2877 -0.5335
   37POPC   O14 4926   0.548   1.439   6.565  0.4468 -0.2994 -0.2836
   37POPC   O12 4927   0.741   1.597   6.549  0.7737 -0.4977 -0.2481
   37POPC   O11 4928   0.653   1.514   6.763 -0.0314 -0.1791  0.7848
   37POPC    C1 4929   0.769   1.559   6.838  0.1153  0.2440 -1.0982
   37POPC    HA 4930   0.820   1.643   6.787  3.8669 -0.8533  0.7080
   37POPC    HB 4931   0.843   1.477   6.850  0.7904  1.3151  2.5799
   37POPC    C2 4932   0.731   1.610   6.983 -0.3023 -0.8471  0.6698
   37POPC    HS 4933   0.822   1.587   7.043 -0.8347  0.7933  2.1138
   37POPC   O21 4934   0.620   1.549   7.042  0.8242 -0.0557 -0.0064
   37POPC   C21 4935   0.642   1.419   7.084 -0.0626  0.4696  0.6673
   37POPC   O22 4936   0.757   1.368   7.081  0.1720  0.3920  0.1435
   37POPC   C22 4937   0.513   1.354   7.135 -0.8388 -0.7558 -0.2258
   37POPC   H2R 4938   0.467   1.284   7.062 -0.8791 -0.8035 -0.1557
   37POPC   H2S 4939   0.433   1.429   7.154  0.1524  0.7923 -2.1186
   37POPC    C3 4940   0.700   1.763   6.986  0.4266  0.8814 -0.0032
   37POPC    HX 4941   0.606   1.791   6.934  0.1910 -0.3676 -0.2691
   37POPC    HY 4942   0.769   1.817   6.918  0.0899  2.5946  1.0004
   37POPC   O31 4943   0.698   1.822   7.113  0.5065 -0.3293 -0.3132
   37POPC   C31 4944   0.578   1.847   7.177 -0.3575 -0.5996 -0.1832
   37POPC   O32 4945   0.465   1.821   7.135  0.9858  0.1286 -0.7427
   37POPC   C32 4946   0.608   1.916   7.307  0.2901 -0.0451  0.0297
   37POPC   H2X 4947   0.636   2.023   7.293 -0.0871  0.2251  1.2197
   37POPC   H2Y 4948   0.699   1.867   7.348  0.2428  0.0631  0.2676
   37POPC   C23 4949   0.547   1.279   7.264  0.2441  0.6934 -0.0310
   37POPC   H3R 4950   0.639   1.222   7.243 -0.0108  0.5200 -0.6990
   37POPC   H3S 4951   0.474   1.199   7.290  1.8207 -1.4845 -2.0406
   37POPC   C24 4952   0.564   1.375   7.376 -1.0581 -0.0025  0.2826
   37POPC   H4R 4953   0.473   1.430   7.405 -1.8054 -0.9098 -0.2941
   37POPC   H4S 4954   0.642   1.449   7.346  0.4989 -0.9749  1.8755
   37POPC   C25 4955   0.617   1.303   7.502  0.2788 -0.2038 -0.1670
   37POPC   H5R 4956   0.721   1.271   7.483  0.4179  1.5479 -2.5793
   37POPC   H5S 4957   0.568   1.210   7.539  1.1175 -0.2171  0.9401
   37POPC   C26 4958   0.614   1.392   7.627  0.2055  0.0184 -0.5285
   37POPC   H6R 4959   0.507   1.411   7.648  1.1432  3.4747  1.5538
   37POPC   H6S 4960   0.653   1.493   7.604 -1.2075  1.2219  2.0616
   37POPC   C27 4961   0.685   1.330   7.744 -0.0441 -0.1636  0.2786
   37POPC   H7R 4962   0.796   1.326   7.732 -0.2691  0.1945 -2.2003
   37POPC   H7S 4963   0.644   1.227   7.736  0.4000 -0.3177 -0.0351
   37POPC   C28 4964   0.650   1.401   7.880 -0.7599 -0.2931  0.0922
   37POPC   H8R 4965   0.540   1.418   7.876 -0.8869 -0.9355  0.7474
   37POPC   H8S 4966   0.705   1.497   7.883 -0.0741 -0.7045  1.0286
   37POPC   C29 4967   0.689   1.315   7.999 -0.2312  0.0428  0.2842
   37POPC   H91 4968   0.614   1.237   8.018  2.4690 -2.7428 -0.2083
   37POPC  C210 4969   0.782   1.341   8.097  0.2532  0.5176 -0.1027
   37POPC  H101 4970   0.790   1.254   8.165 -0.9176 -0.4589 -1.1740
   37POPC  C211 4971   0.879   1.453   8.116 -0.3236  0.1122  0.2006
   37POPC  H11R 4972   0.906   1.495   8.017 -2.1856 -1.0644 -0.8602
   37POPC  H11S 4973   0.969   1.424   8.173 -2.0574  0.8597  3.4764
   37POPC  C212 4974   0.825   1.559   8.203  0.0822  0.1031  0.1848
   37POPC  H12R 4975   0.904   1.638   8.208  2.0267 -1.6961 -1.2161
   37POPC  H12S 4976   0.794   1.528   8.305 -0.4477  2.2651  0.7042
   37POPC  C213 4977   0.701   1.633   8.148 -0.8425  0.2299  0.2573
   37POPC  H13R 4978   0.610   1.578   8.182  0.8029 -3.4507 -0.9662
   37POPC  H13S 4979   0.726   1.640   8.040 -1.4625  0.7198  0.1460
   37POPC  C214 4980   0.688   1.774   8.212  0.2085  0.6713  0.6802
   37POPC  H14R 4981   0.787   1.823   8.199  0.3484 -0.1294 -1.4869
   37POPC  H14S 4982   0.655   1.762   8.317  2.2114  0.5896  1.3236
   37POPC  C215 4983   0.576   1.855   8.144  0.2430 -0.3125 -0.8242
   37POPC  H15R 4984   0.592   1.953   8.194  0.3395 -0.3371 -0.8063
   37POPC  H15S 4985   0.486   1.796   8.171  0.8952 -0.6393  0.6976
   37POPC  C216 4986   0.592   1.885   7.991 -0.3267  0.3824  0.2496
   37POPC  H16R 4987   0.500   1.927   7.945 -0.2344  0.5466  0.2125
   37POPC  H16S 4988   0.598   1.784   7.945  1.2380  1.1004 -1.1643
   37POPC  C217 4989   0.702   1.984   7.949 -0.6298  0.7856  0.6653
   37POPC  H17R 4990   0.799   1.951   7.991 -1.4694 -2.1645  0.4044
   37POPC  H17S 4991   0.683   2.076   8.008  0.0572  1.8917 -0.7939
   37POPC  C218 4992   0.708   1.993   7.794  0.0892 -1.1622 -0.2867
   37POPC  H18R 4993   0.776   2.074   7.762  1.2503 -1.7217  0.7324
   37POPC  H18S 4994   0.605   2.001   7.753  0.5265 -0.2040 -1.2060
   37POPC  H18T 4995   0.759   1.903   7.753 -0.7312 -0.1868 -3.5638
   37POPC   C33 4996   0.489   1.907   7.404 -0.0627 -0.2143  0.3972
   37POPC   H3X 4997   0.395   1.928   7.349  0.7991 -0.3509 -1.1765
   37POPC   H3Y 4998   0.511   1.985   7.480  0.4883  1.5984 -1.5614
   37POPC   C34 4999   0.475   1.779   7.490 -0.1700  0.0107  0.6873
   37POPC   H4X 5000   0.574   1.765   7.540 -0.7819 -3.2341  1.1146
   37POPC   H4Y 5001   0.441   1.697   7.424  1.7814 -0.8079  0.6509
   37POPC   C35 5002   0.369   1.801   7.599  0.2096  0.2570  0.3364
   37POPC   H5X 5003   0.265   1.789   7.562  0.3399  1.9710 -0.6130
   37POPC   H5Y 5004   0.393   1.905   7.631  2.5575  0.2885 -1.4454
   37POPC   C36 5005   0.375   1.707   7.723 -0.1681  0.6390 -0.1432
   37POPC   H6X 5006   0.482   1.719   7.752  0.5624  2.2632 -3.3031
   37POPC   H6Y 5007   0.350   1.603   7.691  0.0896  0.5519 -0.0662
   37POPC   C37 5008   0.285   1.738   7.838  0.0023  0.4799 -0.7526
   37POPC   H7X 5009   0.283   1.849   7.851  2.1075  0.4772 -0.1642
   37POPC   H7Y 5010   0.329   1.685   7.925  0.0204  1.7628  0.0341
   37POPC   C38 5011   0.140   1.692   7.820  0.6644 -0.6968  0.1454
   37POPC   H8X 5012   0.120   1.583   7.816 -0.3184 -0.5399  0.4282
   37POPC   H8Y 5013   0.113   1.733   7.720 -0.9635 -4.1986 -0.9299
   37POPC   C39 5014   0.051   1.730   7.937  0.5184  0.4820 -0.1254
   37POPC   H9X 5015  -0.054   1.698   7.920  0.7482 -1.1211  1.3532
   37POPC   H9Y 5016   0.035   1.840   7.931 -2.4016  0.2935  2.6107
   37POPC  C310 5017   0.107   1.692   8.075 -0.3160 -0.6644 -0.9275
   37POPC  H10X 5018   0.035   1.723   8.154  1.0694 -1.0404  0.4965
   37POPC  H10Y 5019   0.207   1.732   8.101 -0.7191 -0.3292  0.1000
   37POPC  C311 5020   0.119   1.548   8.088  0.1186  0.5582  0.8083
   37POPC  H11X 5021   0.198   1.511   8.020 -1.4678 -1.7435  0.1593
   37POPC  H11Y 5022   0.027   1.491   8.065  1.5198 -1.7293  0.7183
   37POPC  C312 5023   0.157   1.486   8.235 -0.0861  0.5684 -0.0504
   37POPC  H12X 5024   0.148   1.375   8.232  2.2341  0.3527  0.2490
   37POPC  H12Y 5025   0.084   1.522   8.310 -1.7428 -1.7678 -0.4643
   37POPC  C313 5026   0.302   1.518   8.275  0.3278  0.1631  0.7856
   37POPC  H13X 5027   0.306   1.628   8.291 -1.5967  0.0580  2.1243
   37POPC  H13Y 5028   0.365   1.491   8.187 -1.2784  0.1135 -0.3740
   37POPC  C314 5029   0.351   1.425   8.386 -0.3101  0.0345  0.3388
   37POPC  H14X 5030   0.345   1.320   8.351  1.2391  0.3523 -0.9354
   37POPC  H14Y 5031   0.267   1.435   8.457 -1.2568  0.7483 -0.8678
   37POPC  C315 5032   0.490   1.465   8.439 -0.1645 -0.3743  0.9542
   37POPC  H15X 5033   0.507   1.573   8.458  0.5896 -0.5610  1.3287
   37POPC  H15Y 5034   0.552   1.433   8.353 -0.4029  1.3263  0.1061
   37POPC  C316 5035   0.538   1.398   8.576 -0.4024 -0.0412  0.5856
   37POPC  H16X 5036   0.638   1.441   8.600 -0.7185  0.4595  1.0117
   37POPC  H16Y 5037   0.542   1.288   8.564  2.1063 -0.0272  1.0870
   37POPC  H16Z 5038   0.456   1.420   8.647 -1.8975  1.1600 -1.4425
   38POPC     N 5039   1.860   5.382   6.104  0.2146  0.0042  0.0868
   38POPC   C12 5040   1.894   5.283   6.214  0.1909  0.4206 -0.4932
   38POPC  H12A 5041   1.969   5.325   6.278 -1.1842  1.2442  0.6077
   38POPC  H12B 5042   1.947   5.199   6.172  0.2413  0.1357  0.1473
   38POPC   C13 5043   1.794   5.505   6.169 -0.0898 -0.3234  0.7321
   38POPC  H13A 5044   1.700   5.471   6.211  0.0049 -0.2921  0.9676
   38POPC  H13B 5045   1.853   5.553   6.246  0.6032 -0.5800  0.3590
   38POPC  H13C 5046   1.778   5.585   6.098  0.6569  1.2884  2.3390
   38POPC   C14 5047   1.990   5.423   6.047  0.8663  0.1501  0.3692
   38POPC  H14A 5048   2.039   5.340   6.000  0.7553 -1.2741  2.6974
   38POPC  H14B 5049   1.975   5.498   5.970 -0.3927  1.1467  1.5342
   38POPC  H14C 5050   2.061   5.461   6.119  2.7077 -2.5391  0.0095
   38POPC   C15 5051   1.773   5.323   5.997  0.0115  0.1703  0.3657
   38POPC  H15A 5052   1.832   5.280   5.917 -0.5188 -1.3237  0.7736
   38POPC  H15B 5053   1.716   5.406   5.958 -2.2471 -1.4612  0.1694
   38POPC  H15C 5054   1.703   5.260   6.048  0.8370 -1.0326  0.0344
   38POPC   C11 5055   1.774   5.248   6.306  0.6429  0.2492 -0.3405
   38POPC  H11A 5056   1.743   5.335   6.367 -0.5845  0.5702 -1.3954
   38POPC  H11B 5057   1.818   5.177   6.379 -0.1666 -0.2996 -0.3781
   38POPC     P 5058   1.531   5.150   6.317  0.0171  0.6304 -0.0428
   38POPC   O13 5059   1.448   5.066   6.224  0.1035  0.2526  0.4150
   38POPC   O14 5060   1.461   5.268   6.368  0.6045  0.1894  0.2567
   38POPC   O12 5061   1.659   5.186   6.240 -0.6133  0.3622  0.5629
   38POPC   O11 5062   1.578   5.061   6.443  0.5242 -0.0874 -0.1139
   38POPC    C1 5063   1.575   4.917   6.418  0.9641  0.0980 -0.3974
   38POPC    HA 5064   1.601   4.885   6.315 -0.7828 -0.5338 -0.6477
   38POPC    HB 5065   1.471   4.880   6.433  0.7027  1.1224  0.3371
   38POPC    C2 5066   1.674   4.843   6.510 -0.4404  0.6575 -0.1557
   38POPC    HS 5067   1.671   4.735   6.483  0.5423  0.6864 -0.3970
   38POPC   O21 5068   1.632   4.867   6.646  0.3559 -0.3533 -0.1097
   38POPC   C21 5069   1.532   4.797   6.697 -0.1752 -0.8242  0.0605
   38POPC   O22 5070   1.474   4.707   6.648 -0.2273  0.3726  0.6017
   38POPC   C22 5071   1.511   4.849   6.842  0.1644 -0.2580 -0.1271
   38POPC   H2R 5072   1.425   4.916   6.862  0.3515 -0.7172  2.3704
   38POPC   H2S 5073   1.598   4.912   6.870 -3.0018  2.8698  3.1457
   38POPC    C3 5074   1.823   4.886   6.486 -0.1734  0.1664 -0.0603
   38POPC    HX 5075   1.830   4.996   6.506  1.4480 -0.2279  1.6904
   38POPC    HY 5076   1.848   4.882   6.378  0.4231 -0.3691  0.1009
   38POPC   O31 5077   1.918   4.812   6.571  0.3364  0.2005 -0.3387
   38POPC   C31 5078   2.021   4.890   6.620 -0.9609  0.6720 -0.0840
   38POPC   O32 5079   2.030   5.009   6.614  0.3802 -0.0759  0.3421
   38POPC   C32 5080   2.121   4.795   6.677 -0.9466 -0.1836  0.3038
   38POPC   H2X 5081   2.213   4.805   6.615 -1.4799 -1.9573 -0.8117
   38POPC   H2Y 5082   2.081   4.692   6.682 -4.1912  1.1103  2.8220
   38POPC   C23 5083   1.499   4.740   6.959 -0.5415 -1.1121  0.0256
   38POPC   H3R 5084   1.596   4.687   6.959  0.2605  0.3023 -0.4090
   38POPC   H3S 5085   1.419   4.665   6.940 -1.1395 -0.4038 -0.2867
   38POPC   C24 5086   1.476   4.807   7.093  1.0580 -0.1204 -0.4925
   38POPC   H4R 5087   1.458   4.724   7.165 -1.9183 -0.0415 -1.0859
   38POPC   H4S 5088   1.381   4.863   7.082  0.0758 -0.9959  2.7588
   38POPC   C25 5089   1.593   4.894   7.149 -0.2344 -0.5507  0.1427
   38POPC   H5R 5090   1.627   4.956   7.062 -2.1670 -1.2745 -1.1451
   38POPC   H5S 5091   1.676   4.827   7.181  2.6938  2.7404 -0.2130
   38POPC   C26 5092   1.549   4.989   7.255  0.7875 -0.6794  0.2031
   38POPC   H6R 5093   1.477   5.063   7.212  0.1874 -2.0062 -1.0939
   38POPC   H6S 5094   1.634   5.053   7.287 -1.5191  1.5795  2.1028
   38POPC   C27 5095   1.493   4.923   7.382 -0.0612 -0.2161  0.1270
   38POPC   H7R 5096   1.439   4.828   7.361 -1.6447  0.5126  0.8645
   38POPC   H7S 5097   1.415   4.987   7.428 -0.7820 -1.1436  0.2106
   38POPC   C28 5098   1.601   4.888   7.486  0.6599 -0.0756 -0.4597
   38POPC   H8R 5099   1.619   4.974   7.555  0.8500 -0.3574 -0.1549
   38POPC   H8S 5100   1.692   4.868   7.425  0.8878  1.2848 -0.5826
   38POPC   C29 5101   1.581   4.759   7.560 -0.0501  0.1915 -0.2888
   38POPC   H91 5102   1.557   4.676   7.492  0.9672  0.9118 -1.5297
   38POPC  C210 5103   1.594   4.745   7.695 -0.2078 -0.1648 -0.6938
   38POPC  H101 5104   1.583   4.647   7.744  0.9706  0.8281  1.5997
   38POPC  C211 5105   1.633   4.856   7.794 -0.5024 -0.1889  0.1976
   38POPC  H11R 5106   1.596   4.824   7.894 -0.4346  1.2390  0.6877
   38POPC  H11S 5107   1.587   4.956   7.778 -0.8850 -0.6424 -1.6585
   38POPC  C212 5108   1.788   4.876   7.817  0.3256  0.0124  0.7148
   38POPC  H12R 5109   1.828   4.912   7.720 -1.6695 -2.0355 -0.9122
   38POPC  H12S 5110   1.845   4.787   7.852  1.1741  0.2718  0.0078
   38POPC  C213 5111   1.816   4.994   7.909 -0.0115  0.5215  0.3905
   38POPC  H13R 5112   1.798   4.950   8.009 -1.7602 -0.1373 -0.1973
   38POPC  H13S 5113   1.754   5.085   7.899  1.4005  1.2422 -2.3190
   38POPC  C214 5114   1.963   5.040   7.893 -0.1693  0.1086 -0.7482
   38POPC  H14R 5115   1.964   5.136   7.838 -1.2071 -0.2645 -1.4428
   38POPC  H14S 5116   2.022   4.960   7.843 -0.5875 -0.3739 -0.4706
   38POPC  C215 5117   2.027   5.072   8.030 -0.2085 -0.2820  0.4682
   38POPC  H15R 5118   2.021   4.977   8.086  1.8840 -0.6920  0.0346
   38POPC  H15S 5119   1.967   5.154   8.074 -0.8284  0.2353 -1.2703
   38POPC  C216 5120   2.169   5.131   8.026  0.3734  0.3061  0.2601
   38POPC  H16R 5121   2.170   5.226   7.969 -0.1495 -1.1063 -2.1867
   38POPC  H16S 5122   2.233   5.060   7.969  0.9046  0.7053  0.3566
   38POPC  C217 5123   2.218   5.156   8.172 -0.1555  0.2553  0.0691
   38POPC  H17R 5124   2.217   5.057   8.221 -3.9779  0.9614  1.6161
   38POPC  H17S 5125   2.148   5.223   8.226 -0.5642  1.5947 -2.0532
   38POPC  C218 5126   2.352   5.224   8.191 -0.3103  0.8145  0.4150
   38POPC  H18R 5127   2.437   5.178   8.136  1.5961  2.8691  1.5871
   38POPC  H18S 5128   2.384   5.235   8.297 -3.1691 -0.5818  1.4640
   38POPC  H18T 5129   2.336   5.320   8.136 -1.6940 -0.6013 -1.7343
   38POPC   C33 5130   2.142   4.832   6.823 -0.2036  0.0282  0.1137
   38POPC   H3X 5131   2.044   4.856   6.871 -1.0234 -0.0753 -1.4723
   38POPC   H3Y 5132   2.199   4.927   6.827  0.9233 -0.5144 -2.3447
   38POPC   C34 5133   2.216   4.721   6.904 -0.3740 -0.0472  0.0906
   38POPC   H4X 5134   2.308   4.698   6.847  1.2574  2.4095  1.5906
   38POPC   H4Y 5135   2.160   4.626   6.910 -1.1806  0.4235  0.1203
   38POPC   C35 5136   2.247   4.775   7.040 -0.1194 -0.2946  0.0447
   38POPC   H5X 5137   2.157   4.806   7.098 -1.6590 -2.2868 -1.1904
   38POPC   H5Y 5138   2.305   4.870   7.045  0.0410 -0.2164 -2.6767
   38POPC   C36 5139   2.325   4.671   7.123 -0.4087 -0.3705  0.9217
   38POPC   H6X 5140   2.420   4.654   7.068 -0.5943 -0.1615  0.5377
   38POPC   H6Y 5141   2.277   4.571   7.132  1.7151 -1.6220 -1.0463
   38POPC   C37 5142   2.349   4.713   7.268 -0.1099 -0.0990 -0.5468
   38POPC   H7X 5143   2.257   4.718   7.330 -0.3950 -0.7724 -0.9126
   38POPC   H7Y 5144   2.390   4.816   7.275 -1.6649  0.6240 -1.8142
   38POPC   C38 5145   2.441   4.616   7.338 -0.4748  0.3038 -0.7183
   38POPC   H8X 5146   2.533   4.602   7.276  0.3331 -1.4661  0.8544
   38POPC   H8Y 5147   2.393   4.516   7.342  0.6288 -0.2745 -1.6630
   38POPC   C39 5148   2.491   4.679   7.474  0.2711  0.3291  0.1629
   38POPC   H9X 5149   2.403   4.662   7.540 -0.4023 -0.3800 -0.8904
   38POPC   H9Y 5150   2.514   4.786   7.454  1.8145 -0.3000 -1.6142
   38POPC  C310 5151   2.621   4.613   7.523  0.4921 -0.0119 -0.9602
   38POPC  H10X 5152   2.705   4.661   7.469 -0.0220  1.0102 -0.8678
   38POPC  H10Y 5153   2.628   4.506   7.494  3.4119  0.2148 -1.1666
   38POPC  C311 5154   2.662   4.631   7.670 -0.1960  0.0878  0.3019
   38POPC  H11X 5155   2.623   4.728   7.709 -0.5575 -0.6406  1.7424
   38POPC  H11Y 5156   2.773   4.628   7.676 -0.1918  0.6771  0.6164
   38POPC  C312 5157   2.591   4.533   7.765  0.1557 -0.1065 -0.2678
   38POPC  H12X 5158   2.587   4.428   7.731  0.0666  0.3920 -1.8075
   38POPC  H12Y 5159   2.487   4.566   7.785 -0.6438 -1.9014 -1.4440
   38POPC  C313 5160   2.673   4.521   7.902 -0.3367 -1.2077 -0.3140
   38POPC  H13X 5161   2.683   4.620   7.952 -0.0477 -0.9644 -0.8457
   38POPC  H13Y 5162   2.773   4.490   7.865 -0.1434 -1.7311  0.6408
   38POPC  C314 5163   2.627   4.414   8.004  0.1446 -0.0661  0.0255
   38POPC  H14X 5164   2.633   4.316   7.952  0.2687  1.6844 -3.3942
   38POPC  H14Y 5165   2.523   4.437   8.035 -0.2654 -1.4952 -0.2761
   38POPC  C315 5166   2.723   4.421   8.120 -0.6533 -0.0052 -0.6605
   38POPC  H15X 5167   2.741   4.528   8.141  0.2958 -0.0814 -1.0754
   38POPC  H15Y 5168   2.821   4.373   8.101 -1.6807 -2.7665  0.7754
   38POPC  C316 5169   2.659   4.365   8.243  0.2013 -0.5031  0.3371
   38POPC  H16X 5170   2.717   4.396   8.333 -0.5719 -0.8805  0.9773
   38POPC  H16Y 5171   2.655   4.254   8.238  1.0556 -0.4270 -2.8150
   38POPC  H16Z 5172   2.560   4.406   8.272  0.0523  0.1268 -1.0532
   39POPC     N 5173   5.545   1.874   5.989 -0.2204  0.1427  0.7687
   39POPC   C12 5174   5.665   1.865   6.082  0.0377 -0.1481 -1.0649
   39POPC  H12A 5175   5.759   1.855   6.029 -0.3891 -0.9847 -1.6832
   39POPC  H12B 5176   5.653   1.779   6.146  0.7019  1.3969  1.1848
   39POPC   C13 5177   5.524   2.001   5.916  0.2897 -0.4005  0.1704
   39POPC  H13A 5178   5.597   2.016   5.837 -0.9235 -0.3199 -0.9415
   39POPC  H13B 5179   5.425   2.006   5.873  1.4992 -3.2330 -3.2557
   39POPC  H13C 5180   5.533   2.080   5.988  0.5467 -1.4274  1.2877
   39POPC   C14 5181   5.561   1.767   5.876 -0.2950 -0.1330  0.3057
   39POPC  H14A 5182   5.490   1.777   5.795 -0.6836 -2.3334  0.3384
   39POPC  H14B 5183   5.661   1.774   5.835 -0.6297 -0.6471 -0.6029
   39POPC  H14C 5184   5.546   1.665   5.907 -1.2249  0.7955  3.0567
   39POPC   C15 5185   5.417   1.834   6.055  0.5943 -0.7297 -0.5776
   39POPC  H15A 5186   5.334   1.827   5.986 -1.6376 -2.4897  2.1631
   39POPC  H15B 5187   5.392   1.899   6.138  1.9553  1.5005 -1.8634
   39POPC  H15C 5188   5.424   1.736   6.101  3.8293  0.3594  1.4727
   39POPC   C11 5189   5.665   1.987   6.180  0.3896 -0.1472  0.3419
   39POPC  H11A 5190   5.737   1.957   6.259 -0.9433  0.4809  1.8415
   39POPC  H11B 5191   5.567   1.998   6.232  0.5322 -1.3158  0.8705
   39POPC     P 5192   5.655   2.243   6.170 -0.5024  0.4627  0.3319
   39POPC   O13 5193   5.521   2.252   6.105  0.4375  0.2278  0.0822
   39POPC   O14 5194   5.756   2.346   6.129 -0.6163 -0.4345 -0.2273
   39POPC   O12 5195   5.715   2.106   6.124 -0.2383 -0.6813 -0.2071
   39POPC   O11 5196   5.653   2.243   6.331 -0.3153 -0.4415 -0.8475
   39POPC    C1 5197   5.774   2.222   6.403  0.4467 -0.3422  0.0022
   39POPC    HA 5198   5.803   2.322   6.443  0.1659 -0.8695  1.5779
   39POPC    HB 5199   5.858   2.179   6.345  0.3832 -0.3503 -0.0819
   39POPC    C2 5200   5.753   2.125   6.520 -0.1390 -0.6239 -0.4939
   39POPC    HS 5201   5.744   2.028   6.466  0.8696 -1.3325  0.5791
   39POPC   O21 5202   5.638   2.170   6.589  0.0662 -0.0424  0.4182
   39POPC   C21 5203   5.563   2.070   6.639  0.2742  0.2887  0.7946
   39POPC   O22 5204   5.582   1.952   6.623  0.2560  0.0705  0.2092
   39POPC   C22 5205   5.447   2.138   6.711 -0.1959  0.2874 -0.4664
   39POPC   H2R 5206   5.354   2.128   6.651  0.4140 -0.5337 -1.3116
   39POPC   H2S 5207   5.470   2.246   6.712  1.5994 -0.0633 -0.7695
   39POPC    C3 5208   5.877   2.107   6.619  0.0061  0.2631 -0.4800
   39POPC    HX 5209   5.887   2.207   6.667  1.4325  0.3475 -0.9093
   39POPC    HY 5210   5.969   2.090   6.558 -0.0736 -1.9709 -0.0077
   39POPC   O31 5211   5.855   2.001   6.708 -0.4535 -0.3901 -0.4825
   39POPC   C31 5212   5.861   1.878   6.656  0.1414  0.4774 -0.6603
   39POPC   O32 5213   5.890   1.859   6.538  0.2476 -0.1487  0.0779
   39POPC   C32 5214   5.849   1.764   6.758  0.2319 -0.0042 -0.5908
   39POPC   H2X 5215   5.830   1.669   6.703 -1.3086 -0.2330  0.3065
   39POPC   H2Y 5216   5.953   1.752   6.795  0.4424  2.3808 -0.3643
   39POPC   C23 5217   5.450   2.086   6.863  0.2321  0.2576 -1.2495
   39POPC   H3R 5218   5.439   1.975   6.864  0.1908  0.2601 -1.3755
   39POPC   H3S 5219   5.358   2.130   6.907 -0.1542 -2.3626  0.6834
   39POPC   C24 5220   5.570   2.138   6.941 -0.7644  0.1795 -0.4981
   39POPC   H4R 5221   5.564   2.249   6.941 -0.7093  0.1824 -0.5901
   39POPC   H4S 5222   5.671   2.109   6.904  0.0261 -0.6982  2.1728
   39POPC   C25 5223   5.563   2.081   7.087  0.1475  0.2453 -0.2036
   39POPC   H5R 5224   5.650   2.125   7.141  0.7102 -2.0391  0.8190
   39POPC   H5S 5225   5.585   1.972   7.086  2.1402  0.5969 -3.4432
   39POPC   C26 5226   5.434   2.118   7.160 -0.1246  0.5257 -0.2587
   39POPC   H6R 5227   5.337   2.077   7.124  0.3694  0.4757 -1.5353
   39POPC   H6S 5228   5.412   2.225   7.141  0.5227  0.8153  0.5882
   39POPC   C27 5229   5.427   2.089   7.309 -0.6416 -0.2624 -0.2600
   39POPC   H7R 5230   5.439   1.980   7.330  2.1864  0.1864  0.7333
   39POPC   H7S 5231   5.329   2.112   7.355  0.4990 -0.3871  2.3446
   39POPC   C28 5232   5.534   2.158   7.398 -0.1058  0.2559 -0.3987
   39POPC   H8R 5233   5.636   2.126   7.366 -0.3507 -0.1152 -0.8196
   39POPC   H8S 5234   5.520   2.127   7.503 -1.7001  1.3649 -0.2743
   39POPC   C29 5235   5.524   2.310   7.392  0.1695  0.0233  0.4439
   39POPC   H91 5236   5.502   2.356   7.294  3.2099  0.2743 -0.1570
   39POPC  C210 5237   5.539   2.390   7.497 -0.7874 -0.0289 -0.0457
   39POPC  H101 5238   5.538   2.496   7.468  1.5656 -0.5867 -2.3181
   39POPC  C211 5239   5.553   2.346   7.637  0.1703  0.7676  0.6878
   39POPC  H11R 5240   5.652   2.301   7.660  0.2935  0.6164 -0.1177
   39POPC  H11S 5241   5.472   2.274   7.662  1.5120  0.0443  3.1303
   39POPC  C212 5242   5.530   2.457   7.746  0.2485 -0.7592  0.1283
   39POPC  H12R 5243   5.424   2.486   7.735  0.2832 -1.3617 -1.8905
   39POPC  H12S 5244   5.606   2.537   7.731 -0.2751  0.1869  2.2945
   39POPC  C213 5245   5.543   2.405   7.889 -0.4635 -0.2189  0.1611
   39POPC  H13R 5246   5.486   2.312   7.906 -0.4775 -0.3255 -0.4726
   39POPC  H13S 5247   5.516   2.489   7.956  1.8730 -0.4554  1.4681
   39POPC  C214 5248   5.692   2.371   7.937  0.2006 -0.3714  0.2057
   39POPC  H14R 5249   5.749   2.464   7.918 -1.8305  0.9684  0.4351
   39POPC  H14S 5250   5.730   2.287   7.876  2.7038  0.5521  0.4309
   39POPC  C215 5251   5.693   2.339   8.084 -0.6220  0.0138 -0.3790
   39POPC  H15R 5252   5.790   2.290   8.107  0.2472  1.0610 -1.7635
   39POPC  H15S 5253   5.611   2.270   8.113  0.1843 -0.6756  0.2903
   39POPC  C216 5254   5.687   2.462   8.171 -0.0733 -0.7907 -0.4891
   39POPC  H16R 5255   5.580   2.489   8.184  0.3170  1.3643 -1.4642
   39POPC  H16S 5256   5.728   2.548   8.114  0.7556 -0.0386  1.2170
   39POPC  C217 5257   5.763   2.451   8.307 -0.2248 -0.5803 -0.1867
   39POPC  H17R 5258   5.754   2.556   8.342 -2.6044 -0.1957 -1.8168
   39POPC  H17S 5259   5.870   2.426   8.295 -0.4081 -0.9017 -1.2044
   39POPC  C218 5260   5.703   2.359   8.409 -0.0575  0.4568 -0.2877
   39POPC  H18R 5261   5.722   2.259   8.365 -4.4666 -0.0640 -1.3136
   39POPC  H18S 5262   5.595   2.385   8.416  0.1773  2.0783 -2.2049
   39POPC  H18T 5263   5.753   2.372   8.507  0.1531 -1.7159 -0.0745
   39POPC   C33 5264   5.756   1.789   6.879  0.6934 -0.1410  0.6661
   39POPC   H3X 5265   5.650   1.779   6.850  0.7301  1.8613 -0.2214
   39POPC   H3Y 5266   5.771   1.891   6.920 -2.0262 -0.0686  1.5587
   39POPC   C34 5267   5.771   1.695   6.993 -0.6141  0.2830 -0.9956
   39POPC   H4X 5268   5.867   1.712   7.046 -2.1468 -1.5064  2.5362
   39POPC   H4Y 5269   5.781   1.592   6.952 -0.5089 -0.2685  0.3752
   39POPC   C35 5270   5.663   1.718   7.100  0.2479  0.0051 -0.5625
   39POPC   H5X 5271   5.567   1.718   7.043  0.3085  1.9091 -0.6795
   39POPC   H5Y 5272   5.688   1.808   7.160  0.9315  0.5086 -1.5874
   39POPC   C36 5273   5.664   1.610   7.212 -0.6365 -0.0233 -0.3251
   39POPC   H6X 5274   5.759   1.623   7.269 -0.5928 -1.1054 -0.1331
   39POPC   H6Y 5275   5.655   1.506   7.173 -2.5836  0.6640 -1.7861
   39POPC   C37 5276   5.548   1.633   7.300 -0.9041 -0.0226 -0.2423
   39POPC   H7X 5277   5.461   1.598   7.241  0.0038  0.2072 -1.7523
   39POPC   H7Y 5278   5.534   1.740   7.328  1.7066  0.1386  0.5752
   39POPC   C38 5279   5.554   1.553   7.431 -0.0417  0.3420 -0.1347
   39POPC   H8X 5280   5.657   1.519   7.455 -0.4613 -0.8249  0.0650
   39POPC   H8Y 5281   5.490   1.463   7.427 -0.4205  0.5633  0.8228
   39POPC   C39 5282   5.510   1.630   7.556  0.2565  0.3410 -0.0889
   39POPC   H9X 5283   5.477   1.557   7.633  2.9976  1.5884  2.3896
   39POPC   H9Y 5284   5.413   1.680   7.536  1.2711  2.4790  0.1877
   39POPC  C310 5285   5.610   1.735   7.619 -0.0733 -0.1186  0.1248
   39POPC  H10X 5286   5.643   1.803   7.538  0.9793 -0.2631  0.4249
   39POPC  H10Y 5287   5.692   1.665   7.648  1.2798  1.1452 -0.5580
   39POPC  C311 5288   5.550   1.814   7.743 -0.5591 -0.0253  0.2309
   39POPC  H11X 5289   5.466   1.750   7.778 -0.8422 -0.0773 -0.5314
   39POPC  H11Y 5290   5.506   1.908   7.704 -0.5004 -0.0133  0.1926
   39POPC  C312 5291   5.651   1.831   7.862 -0.5256 -0.2696  0.8406
   39POPC  H12X 5292   5.742   1.887   7.833 -0.5218  0.6231  2.5140
   39POPC  H12Y 5293   5.678   1.729   7.896  1.7720 -0.5277 -1.5802
   39POPC  C313 5294   5.594   1.920   7.976 -0.5090  0.2282 -0.6399
   39POPC  H13X 5295   5.496   1.881   8.009  0.1968  0.1882  1.4916
   39POPC  H13Y 5296   5.568   2.019   7.932 -0.3257  0.0741 -1.0953
   39POPC  C314 5297   5.692   1.932   8.100  0.0961  0.7950  0.5892
   39POPC  H14X 5298   5.655   2.006   8.173 -0.5733  2.3616 -1.2966
   39POPC  H14Y 5299   5.794   1.938   8.055  0.5571 -1.7453  1.2120
   39POPC  C315 5300   5.693   1.802   8.185 -0.2518 -0.1962  0.1296
   39POPC  H15X 5301   5.757   1.725   8.136  1.9156  1.0437  0.9365
   39POPC  H15Y 5302   5.594   1.752   8.193  0.2422 -1.1530  0.3956
   39POPC  C316 5303   5.730   1.804   8.333  0.1942 -0.4989 -0.3162
   39POPC  H16X 5304   5.831   1.763   8.354 -0.4081 -1.3916  0.8826
   39POPC  H16Y 5305   5.670   1.735   8.397 -0.2732  0.8874  0.7577
   39POPC  H16Z 5306   5.716   1.907   8.371 -1.9740 -1.0306  0.4229
   40POPC     N 5307   5.027   5.729   6.393  0.1090 -0.4485  0.7348
   40POPC   C12 5308   5.103   5.863   6.372  0.9553  0.8709 -0.7483
   40POPC  H12A 5309   5.052   5.905   6.286  1.7028  0.2798 -1.4821
   40POPC  H12B 5310   5.204   5.831   6.353  1.3944 -0.0775  2.8447
   40POPC   C13 5311   4.892   5.749   6.460  0.5151 -0.0061  0.3740
   40POPC  H13A 5312   4.831   5.821   6.407  2.9638  0.1034 -2.4438
   40POPC  H13B 5313   4.840   5.655   6.472  0.9657 -0.0065  2.3789
   40POPC  H13C 5314   4.907   5.801   6.553 -0.7591  0.6154  0.2484
   40POPC   C14 5315   5.006   5.661   6.257  0.2229  0.2135  0.3852
   40POPC  H14A 5316   5.093   5.659   6.193 -1.0780 -3.2562 -1.3473
   40POPC  H14B 5317   4.976   5.559   6.272 -1.6781  0.9323  1.6320
   40POPC  H14C 5318   4.935   5.727   6.210 -1.1271  1.0148  3.4106
   40POPC   C15 5319   5.110   5.637   6.473 -0.6080  0.3179 -0.2721
   40POPC  H15A 5320   5.206   5.651   6.425 -0.7051  0.0609 -0.5434
   40POPC  H15B 5321   5.072   5.536   6.477  0.9783 -0.2579  1.2647
   40POPC  H15C 5322   5.130   5.673   6.573 -1.1129 -0.7138  0.2071
   40POPC   C11 5323   5.112   5.971   6.485  0.9717 -0.3723  0.1175
   40POPC  H11A 5324   5.183   6.046   6.445  0.2347 -1.4127 -3.2871
   40POPC  H11B 5325   5.170   5.936   6.574  2.8453 -1.4123 -1.4652
   40POPC     P 5326   4.927   6.159   6.440  0.0644 -0.2695 -0.0845
   40POPC   O13 5327   4.817   6.126   6.351 -0.9133  0.5298 -0.3183
   40POPC   O14 5328   5.033   6.236   6.374  0.0255  0.6945 -0.2256
   40POPC   O12 5329   4.977   6.027   6.515 -0.0646  0.1761 -0.4508
   40POPC   O11 5330   4.875   6.239   6.565 -0.0710 -0.6454 -0.2048
   40POPC    C1 5331   4.887   6.201   6.702  0.7584  0.2416  0.3773
   40POPC    HA 5332   4.869   6.291   6.763 -0.4168  0.3682 -0.1278
   40POPC    HB 5333   4.991   6.170   6.723  1.0778 -1.3531 -3.1259
   40POPC    C2 5334   4.777   6.101   6.745  0.2571  0.0594  0.1799
   40POPC    HS 5335   4.788   6.000   6.700  1.2128  0.2237  0.0321
   40POPC   O21 5336   4.653   6.162   6.740 -0.3459 -0.7849 -0.6175
   40POPC   C21 5337   4.582   6.119   6.640 -0.6244 -0.5246  0.3757
   40POPC   O22 5338   4.601   6.026   6.567  0.2019  0.3957  0.9198
   40POPC   C22 5339   4.444   6.199   6.644 -0.3375  1.4515 -0.4381
   40POPC   H2R 5340   4.438   6.270   6.558  3.0548  0.4954 -1.5464
   40POPC   H2S 5341   4.445   6.260   6.737  4.7469  0.3719  0.3709
   40POPC    C3 5342   4.799   6.081   6.897  0.0417  0.3231 -0.7100
   40POPC    HX 5343   4.719   6.026   6.951 -0.2119  0.3105 -1.0930
   40POPC    HY 5344   4.780   6.183   6.937 -0.4585 -0.2397  0.5109
   40POPC   O31 5345   4.940   6.055   6.937  0.2297  0.0502  0.6626
   40POPC   C31 5346   4.980   5.933   6.905  0.5851 -0.0066  0.8641
   40POPC   O32 5347   4.908   5.844   6.863 -0.0760  0.0928  0.2511
   40POPC   C32 5348   5.123   5.921   6.943 -0.1735 -0.3128 -0.2712
   40POPC   H2X 5349   5.182   6.006   6.901  0.0176 -0.0263  0.5798
   40POPC   H2Y 5350   5.153   5.822   6.901 -0.7219  0.4676 -2.5688
   40POPC   C23 5351   4.328   6.098   6.654  0.8251  0.1579  0.3616
   40POPC   H3R 5352   4.319   6.036   6.562  0.5614  0.8902 -0.1150
   40POPC   H3S 5353   4.228   6.147   6.653  1.6573  1.8821  0.9051
   40POPC   C24 5354   4.333   5.998   6.773 -0.3004 -0.1971  0.4057
   40POPC   H4R 5355   4.420   5.932   6.754 -0.5175 -0.3391 -0.1106
   40POPC   H4S 5356   4.243   5.934   6.789 -0.7553  0.5371  0.8403
   40POPC   C25 5357   4.365   6.063   6.907 -0.8054 -0.2990 -0.4000
   40POPC   H5R 5358   4.307   6.158   6.914 -1.8341 -1.0274  1.0586
   40POPC   H5S 5359   4.470   6.100   6.910 -0.4587 -1.4349  2.8905
   40POPC   C26 5360   4.326   5.974   7.021 -0.6047  0.3186  0.2849
   40POPC   H6R 5361   4.392   5.884   7.022 -2.1544 -0.8212  2.0114
   40POPC   H6S 5362   4.221   5.940   7.011 -0.4082  0.4291 -2.7443
   40POPC   C27 5363   4.355   6.034   7.159  0.2398 -0.4104  0.1217
   40POPC   H7R 5364   4.465   6.028   7.170  0.2059 -4.0531 -0.8393
   40POPC   H7S 5365   4.319   5.959   7.232 -1.4670 -1.5369 -1.8219
   40POPC   C28 5366   4.302   6.176   7.183 -0.7562 -0.6977 -0.1687
   40POPC   H8R 5367   4.191   6.178   7.186 -0.7561 -1.2756  0.2169
   40POPC   H8S 5368   4.333   6.244   7.100 -2.2554 -1.5643 -1.4806
   40POPC   C29 5369   4.363   6.222   7.315 -0.5420  0.4968 -0.6241
   40POPC   H91 5370   4.472   6.233   7.306 -0.4973  0.3228 -0.2825
   40POPC  C210 5371   4.303   6.262   7.430 -0.1309 -1.0259  0.3676
   40POPC  H101 5372   4.354   6.294   7.522 -1.5664 -0.7045  1.0639
   40POPC  C211 5373   4.149   6.272   7.453 -0.4712 -0.3473  0.3163
   40POPC  H11R 5374   4.101   6.214   7.372  2.0434  0.2247 -1.6379
   40POPC  H11S 5375   4.120   6.379   7.446  1.4143  0.1925  0.4733
   40POPC  C212 5376   4.094   6.206   7.583 -0.1953  0.1174  0.4802
   40POPC  H12R 5377   4.115   6.097   7.585  1.2765  0.3321 -1.8375
   40POPC  H12S 5378   3.983   6.206   7.576 -0.2316  2.0267  0.7917
   40POPC  C213 5379   4.126   6.264   7.720  0.3845 -0.3100  0.2420
   40POPC  H13R 5380   4.106   6.373   7.719  0.7947 -0.2247  1.0758
   40POPC  H13S 5381   4.234   6.251   7.746  0.2892  0.2064  0.8827
   40POPC  C214 5382   4.033   6.204   7.832 -0.4222 -0.5421 -0.1297
   40POPC  H14R 5383   3.928   6.226   7.806 -0.5012  1.3815  1.6754
   40POPC  H14S 5384   4.050   6.255   7.929 -1.5951 -1.8918  0.8050
   40POPC  C215 5385   4.044   6.053   7.851 -0.0284  0.5927 -0.0031
   40POPC  H15R 5386   4.150   6.030   7.875  0.1323  3.9409  3.0050
   40POPC  H15S 5387   4.018   5.998   7.759 -0.1055 -0.0036  0.3721
   40POPC  C216 5388   3.967   6.003   7.978  0.1928 -0.6111 -0.6265
   40POPC  H16R 5389   3.861   6.034   7.972  0.2965  0.0501  0.8569
   40POPC  H16S 5390   4.015   6.058   8.062 -1.3195 -0.0350 -0.1151
   40POPC  C217 5391   3.966   5.849   8.009 -0.1339 -0.5667  0.2139
   40POPC  H17R 5392   3.931   5.788   7.923  0.1616  0.6447 -0.7671
   40POPC  H17S 5393   3.903   5.839   8.100 -0.0317  0.6059  0.4147
   40POPC  C218 5394   4.100   5.783   8.050  0.1779  0.5611 -0.4592
   40POPC  H18R 5395   4.140   5.829   8.142 -1.4664 -2.1229  1.6832
   40POPC  H18S 5396   4.169   5.810   7.967 -0.3908  1.2265 -0.7191
   40POPC  H18T 5397   4.090   5.673   8.067 -2.7913  0.4739 -2.2897
   40POPC   C33 5398   5.136   5.914   7.097  0.7806  0.5770 -0.3339
   40POPC   H3X 5399   5.092   5.999   7.154  1.4345  1.2910 -0.8882
   40POPC   H3Y 5400   5.241   5.911   7.134 -0.2889  0.7869  2.8669
   40POPC   C34 5401   5.068   5.791   7.154 -0.7751 -0.4432  0.2549
   40POPC   H4X 5402   5.128   5.708   7.112  1.4026 -0.1964  2.6875
   40POPC   H4Y 5403   4.966   5.778   7.113 -0.0618  1.4512 -2.2840
   40POPC   C35 5404   5.068   5.775   7.301 -0.5549 -0.1620 -0.1728
   40POPC   H5X 5405   5.011   5.852   7.357 -0.6835 -0.3506 -0.0446
   40POPC   H5Y 5406   5.174   5.796   7.328 -1.2792  1.7705  1.2656
   40POPC   C36 5407   5.034   5.636   7.353  0.2919 -0.2207 -0.1026
   40POPC   H6X 5408   5.087   5.565   7.286  0.8695 -1.0169  1.1545
   40POPC   H6Y 5409   4.925   5.627   7.337 -0.5355  1.3697  3.8588
   40POPC   C37 5410   5.053   5.610   7.508 -1.0300  0.9550 -0.2490
   40POPC   H7X 5411   5.153   5.657   7.523  0.4869 -1.2996 -2.7460
   40POPC   H7Y 5412   5.043   5.500   7.521 -2.0410  1.1164  0.3762
   40POPC   C38 5413   4.946   5.676   7.600 -0.0194 -0.1394 -0.1571
   40POPC   H8X 5414   4.844   5.639   7.573 -2.0368  4.6875  0.4453
   40POPC   H8Y 5415   4.947   5.779   7.560  1.0516  0.6845  1.9174
   40POPC   C39 5416   4.961   5.658   7.758 -0.2763  0.2342  0.2030
   40POPC   H9X 5417   5.071   5.660   7.772 -0.2289 -2.1952  0.3650
   40POPC   H9Y 5418   4.939   5.552   7.782  0.5827  0.4476  2.0354
   40POPC  C310 5419   4.886   5.762   7.846  0.3460  0.2181 -0.5274
   40POPC  H10X 5420   4.776   5.742   7.841  0.0620  1.4480  0.5800
   40POPC  H10Y 5421   4.911   5.860   7.801 -0.3922 -0.0325 -1.5131
   40POPC  C311 5422   4.913   5.744   8.000  0.0577 -0.2265 -0.3196
   40POPC  H11X 5423   4.904   5.637   8.031  2.5858  0.0200  1.3773
   40POPC  H11Y 5424   4.827   5.795   8.049 -0.0397 -0.1884 -0.5294
   40POPC  C312 5425   5.048   5.813   8.038 -0.1737  0.0863 -0.7651
   40POPC  H12X 5426   5.056   5.915   7.994 -0.5534 -0.2916 -1.7261
   40POPC  H12Y 5427   5.128   5.748   7.996 -0.2418 -1.3757  1.3273
   40POPC  C313 5428   5.066   5.834   8.192  0.0035  0.9350  0.6733
   40POPC  H13X 5429   5.158   5.892   8.209 -0.0152  2.1561 -2.9877
   40POPC  H13Y 5430   5.074   5.741   8.252 -0.2702  0.3153 -0.2290
   40POPC  C314 5431   4.961   5.918   8.265  0.2981 -0.2241  0.5990
   40POPC  H14X 5432   4.861   5.875   8.244  0.3058  0.2429 -0.4203
   40POPC  H14Y 5433   4.951   6.015   8.212 -1.8339 -0.1729  1.0645
   40POPC  C315 5434   4.987   5.941   8.415 -0.5709 -0.1431 -0.0018
   40POPC  H15X 5435   4.914   6.021   8.441 -0.5559  0.5681 -2.0787
   40POPC  H15Y 5436   5.089   5.984   8.413 -0.7175  0.1677 -2.0378
   40POPC  C316 5437   4.970   5.817   8.505 -0.4132  0.4907  0.7154
   40POPC  H16X 5438   4.881   5.758   8.475 -0.1661  1.0814 -1.3005
   40POPC  H16Y 5439   4.955   5.840   8.613 -2.6654 -1.3652  0.8345
   40POPC  H16Z 5440   5.059   5.752   8.490  1.3733  2.6178  1.8626
   41CHL1    C3 5441   4.273   3.304  10.184  0.1814 -0.1782  0.9535
   41CHL1    H3 5442   4.285   3.413  10.163 -0.9698  0.3053  2.7356
   41CHL1    O3 5443   4.275   3.290  10.322  0.0891  0.4667  0.1277
   41CHL1   H3' 5444   4.186   3.271  10.352  0.8229 -0.6464  1.6623
   41CHL1    C4 5445   4.136   3.260  10.130  0.3607  0.2673  0.0227
   41CHL1   H4A 5446   4.108   3.157  10.162 -1.1845  0.3807 -0.9047
   41CHL1   H4B 5447   4.057   3.329  10.165  0.9656  1.3077 -0.6508
   41CHL1    C5 5448   4.137   3.271   9.980  0.3466 -0.7654  0.3707
   41CHL1    C6 5449   4.054   3.349   9.903 -0.8170 -0.4026 -0.7658
   41CHL1    H6 5450   3.985   3.409   9.964 -1.9291 -0.2118 -2.1779
   41CHL1    C7 5451   4.045   3.354   9.758 -0.1392 -0.0096 -0.0577
   41CHL1   H7A 5452   3.941   3.356   9.721  0.2896  1.6026 -1.2603
   41CHL1   H7B 5453   4.079   3.459   9.740  0.0295 -0.0906 -0.2127
   41CHL1    C8 5454   4.122   3.241   9.682 -0.6397  0.7229  0.2606
   41CHL1    H8 5455   4.057   3.151   9.679 -1.3454  1.3040 -2.4634
   41CHL1   C14 5456   4.154   3.297   9.541  0.5801  0.1051  0.0447
   41CHL1   H14 5457   4.221   3.382   9.563  0.5070  0.1058  0.2686
   41CHL1   C15 5458   4.032   3.347   9.458 -0.2608 -0.5504  0.4543
   41CHL1  H15A 5459   3.943   3.283   9.438 -1.5475  1.0001  1.0847
   41CHL1  H15B 5460   3.995   3.445   9.495  1.5080 -0.0178  0.8823
   41CHL1   C16 5461   4.087   3.374   9.318  0.6049 -0.2343 -0.2255
   41CHL1  H16A 5462   4.018   3.348   9.235  0.9146 -0.7173 -0.3305
   41CHL1  H16B 5463   4.116   3.480   9.300 -2.1718  0.2629 -1.9804
   41CHL1   C17 5464   4.230   3.300   9.322 -0.3874  0.4441 -0.0587
   41CHL1   H17 5465   4.299   3.381   9.353 -0.4626 -0.5061  2.7092
   41CHL1   C13 5466   4.222   3.199   9.442 -0.1751 -0.5148  0.1615
   41CHL1   C18 5467   4.134   3.085   9.401 -0.0755  0.2027 -0.6271
   41CHL1  H18A 5468   4.190   3.013   9.337 -2.5685 -2.3330 -0.0705
   41CHL1  H18B 5469   4.093   3.029   9.487  1.8175  1.3707  1.0948
   41CHL1  H18C 5470   4.058   3.124   9.331 -0.2417  0.4834 -0.2911
   41CHL1   C12 5471   4.354   3.158   9.511 -0.4008  0.3248  0.1676
   41CHL1  H12A 5472   4.389   3.073   9.448 -1.4877  1.2262 -1.7143
   41CHL1  H12B 5473   4.424   3.243   9.498 -0.5733  0.4712  0.1876
   41CHL1   C11 5474   4.336   3.121   9.662  0.4811  0.4805  0.0026
   41CHL1  H11A 5475   4.299   3.017   9.675 -0.7354  0.7073 -1.4595
   41CHL1  H11B 5476   4.439   3.107   9.702  0.5140 -0.4932 -0.4061
   41CHL1    C9 5477   4.256   3.216   9.751  0.1605 -0.0083 -0.4342
   41CHL1    H9 5478   4.313   3.312   9.754 -0.8571  0.5653  2.0894
   41CHL1   C10 5479   4.252   3.192   9.908  0.3522  0.0393  0.0587
   41CHL1   C19 5480   4.230   3.041   9.933  0.5662  0.1092 -0.4056
   41CHL1  H19A 5481   4.202   3.011  10.036 -0.7037  2.3816 -0.0660
   41CHL1  H19B 5482   4.144   2.996   9.878  0.0349 -1.8794  2.0023
   41CHL1  H19C 5483   4.324   2.987   9.911  0.4717 -0.1044 -0.2863
   41CHL1    C1 5484   4.383   3.240   9.967  0.0975 -0.6461  0.2571
   41CHL1   H1A 5485   4.469   3.177   9.938  0.7670 -0.9717  2.7750
   41CHL1   H1B 5486   4.405   3.343   9.933 -1.0635 -0.0001  1.4148
   41CHL1    C2 5487   4.387   3.233  10.122 -0.0190 -0.2720  0.2744
   41CHL1   H2A 5488   4.488   3.266  10.154  0.3488 -0.8833 -0.2516
   41CHL1   H2B 5489   4.376   3.128  10.155  1.0039  0.3027  2.5018
   41CHL1   C20 5490   4.275   3.238   9.186 -0.1611  0.0420 -0.1688
   41CHL1   H20 5491   4.216   3.146   9.165  1.7536 -0.8358 -1.9472
   41CHL1   C21 5492   4.425   3.199   9.208  0.0726  0.7095 -0.2200
   41CHL1  H21A 5493   4.489   3.278   9.252  1.0331 -0.5142  0.6034
   41CHL1  H21B 5494   4.476   3.171   9.113 -0.0537 -2.0186  0.4727
   41CHL1  H21C 5495   4.432   3.099   9.255 -2.2955  0.6128  0.0004
   41CHL1   C22 5496   4.240   3.333   9.066 -0.2470  0.0215 -0.0841
   41CHL1  H22A 5497   4.144   3.389   9.067  1.5082  3.1858 -1.9413
   41CHL1  H22B 5498   4.321   3.408   9.062 -0.1280 -0.1056 -0.0278
   41CHL1   C23 5499   4.245   3.252   8.941 -0.7658 -0.1298 -0.5246
   41CHL1  H23A 5500   4.344   3.202   8.936  0.3830  2.0132 -0.1459
   41CHL1  H23B 5501   4.173   3.168   8.949 -0.3877 -0.4010 -0.0072
   41CHL1   C24 5502   4.225   3.336   8.813 -0.3787  0.8149 -0.0271
   41CHL1  H24A 5503   4.125   3.384   8.823 -0.0342  1.8393 -1.2646
   41CHL1  H24B 5504   4.297   3.420   8.816  2.7771 -1.8485  1.6208
   41CHL1   C25 5505   4.230   3.261   8.678  0.4614  0.0442  0.0448
   41CHL1   H25 5506   4.218   3.333   8.594  0.5449  0.5981  0.5040
   41CHL1   C26 5507   4.359   3.183   8.642  0.1385  0.6518 -0.0329
   41CHL1  H26A 5508   4.369   3.173   8.532 -0.7095 -2.7005  0.1520
   41CHL1  H26B 5509   4.455   3.224   8.682  1.0497 -1.8315  0.3797
   41CHL1  H26C 5510   4.341   3.083   8.686  0.9949  0.4235 -0.2017
   41CHL1   C27 5511   4.103   3.173   8.664 -0.1216 -0.4125 -0.6296
   41CHL1  H27A 5512   4.104   3.132   8.561 -0.5943 -1.3669 -0.2663
   41CHL1  H27B 5513   4.111   3.084   8.730  1.2857 -0.8198 -1.3341
   41CHL1  H27C 5514   4.010   3.232   8.676 -0.8652 -1.0962 -2.8380
   42CHL1    C3 5515   3.846   2.953   9.968 -0.6789 -0.6407  0.2008
   42CHL1    H3 5516   3.926   3.029   9.956  0.0200 -1.2406  1.0423
   42CHL1    O3 5517   3.836   2.933  10.109 -0.0652  0.3419  0.2922
   42CHL1   H3' 5518   3.747   2.901  10.122 -0.1498  1.4775  2.9475
   42CHL1    C4 5519   3.715   3.002   9.906  0.4100  0.2860 -0.2127
   42CHL1   H4A 5520   3.640   2.933   9.949  0.8930  0.4088  0.8442
   42CHL1   H4B 5521   3.692   3.100   9.953 -0.5781  0.6642 -1.4488
   42CHL1    C5 5522   3.695   3.003   9.757 -0.0350  0.5039  0.2712
   42CHL1    C6 5523   3.648   3.122   9.700  0.1098 -0.0631  0.1215
   42CHL1    H6 5524   3.613   3.209   9.758 -2.7498  0.7729 -2.7093
   42CHL1    C7 5525   3.626   3.133   9.551 -0.2116 -0.2412  0.4199
   42CHL1   H7A 5526   3.524   3.160   9.518  0.4328  1.0481 -0.5668
   42CHL1   H7B 5527   3.695   3.215   9.521 -1.5774 -0.5999 -4.0858
   42CHL1    C8 5528   3.671   3.012   9.458 -0.4979 -0.4231 -0.2909
   42CHL1    H8 5529   3.584   2.943   9.454  2.3256 -4.2701  1.4134
   42CHL1   C14 5530   3.708   3.058   9.319  0.1469 -0.1440 -0.0021
   42CHL1   H14 5531   3.804   3.109   9.342 -0.2823  0.9150 -0.5474
   42CHL1   C15 5532   3.620   3.143   9.229  0.2571 -0.7057 -0.2354
   42CHL1  H15A 5533   3.515   3.105   9.234 -0.0252  0.2922  2.7569
   42CHL1  H15B 5534   3.624   3.249   9.262 -0.5796 -1.3406  2.0016
   42CHL1   C16 5535   3.673   3.129   9.084 -0.6898  1.0478 -0.2649
   42CHL1  H16A 5536   3.590   3.090   9.022 -0.7306  0.0117  0.4219
   42CHL1  H16B 5537   3.706   3.225   9.040 -2.9938  1.9171 -0.1225
   42CHL1   C17 5538   3.784   3.013   9.095 -0.2624  0.4371 -0.8526
   42CHL1   H17 5539   3.876   3.068   9.126  0.7463 -0.6613 -1.8523
   42CHL1   C13 5540   3.742   2.939   9.228 -0.4448 -0.0430  0.0015
   42CHL1   C18 5541   3.612   2.860   9.195  0.1890  0.3220  0.4416
   42CHL1  H18A 5542   3.558   2.832   9.288 -0.1488  0.7671  0.3831
   42CHL1  H18B 5543   3.541   2.922   9.136 -0.5499  2.1240  3.1406
   42CHL1  H18C 5544   3.630   2.767   9.137  1.3036  0.7345  0.1292
   42CHL1   C12 5545   3.847   2.846   9.284  0.2221  0.2107 -0.1450
   42CHL1  H12A 5546   3.871   2.756   9.223 -1.7052 -0.2649 -0.2439
   42CHL1  H12B 5547   3.940   2.904   9.297  0.8479 -0.4476 -1.5982
   42CHL1   C11 5548   3.818   2.801   9.427  0.1310 -0.5445  0.3602
   42CHL1  H11A 5549   3.724   2.742   9.433 -0.4722  0.3216 -0.4141
   42CHL1  H11B 5550   3.900   2.737   9.467  1.3824 -0.5563 -2.0950
   42CHL1    C9 5551   3.781   2.927   9.522 -0.1025  0.1895 -0.0431
   42CHL1    H9 5552   3.871   2.992   9.518 -1.9106  2.9183  1.5356
   42CHL1   C10 5553   3.760   2.893   9.673  0.3480  0.5399 -0.7214
   42CHL1   C19 5554   3.635   2.795   9.687  0.0382  0.7553 -0.1274
   42CHL1  H19A 5555   3.540   2.834   9.646 -0.6891  0.0551  0.8602
   42CHL1  H19B 5556   3.649   2.700   9.630 -5.4491 -0.3345  0.0292
   42CHL1  H19C 5557   3.608   2.770   9.792 -0.9932 -2.0132 -0.9948
   42CHL1    C1 5558   3.876   2.817   9.743 -0.6451 -0.1054 -0.2841
   42CHL1   H1A 5559   3.893   2.716   9.699  1.2277 -0.3532  0.9412
   42CHL1   H1B 5560   3.967   2.875   9.718 -0.8814  0.0722 -0.7424
   42CHL1    C2 5561   3.878   2.818   9.899  0.7003 -0.9277  0.6612
   42CHL1   H2A 5562   3.977   2.778   9.930  2.1348  1.3359 -0.8298
   42CHL1   H2B 5563   3.803   2.745   9.937 -0.3080 -1.6630 -2.5868
   42CHL1   C20 5564   3.810   2.930   8.966 -0.7665  0.7623 -0.8368
   42CHL1   H20 5565   3.825   2.823   8.996  2.3728  0.8328 -1.9657
   42CHL1   C21 5566   3.946   2.979   8.910 -0.8985  0.1434  0.6394
   42CHL1  H21A 5567   4.026   2.956   8.983 -1.1321 -0.4771  0.7019
   42CHL1  H21B 5568   3.942   3.089   8.892  1.2123  0.1128 -0.2043
   42CHL1  H21C 5569   3.977   2.934   8.813  0.8413  1.0775  0.7502
   42CHL1   C22 5570   3.703   2.926   8.856 -0.1719  0.1225 -0.5012
   42CHL1  H22A 5571   3.739   2.833   8.807  0.9983 -0.0527  0.6811
   42CHL1  H22B 5572   3.598   2.893   8.869  0.2073 -0.6051  0.7596
   42CHL1   C23 5573   3.692   3.027   8.741 -0.2635  0.4866 -0.0598
   42CHL1  H23A 5574   3.646   3.125   8.767  0.2447  0.1476  2.2058
   42CHL1  H23B 5575   3.795   3.054   8.711  0.6547 -1.7766  0.9558
   42CHL1   C24 5576   3.626   2.973   8.611 -0.3735  0.5865  0.2229
   42CHL1  H24A 5577   3.672   2.880   8.571 -1.6155  0.4007 -0.7897
   42CHL1  H24B 5578   3.521   2.951   8.640 -1.4033  4.0950 -0.5790
   42CHL1   C25 5579   3.628   3.071   8.494 -0.6999 -0.4869 -0.0702
   42CHL1   H25 5580   3.574   3.161   8.532  0.3788 -0.9662  2.7302
   42CHL1   C26 5581   3.772   3.112   8.454 -0.0187  0.2643 -0.0602
   42CHL1  H26A 5582   3.800   3.195   8.522 -1.7295  0.3879  0.4989
   42CHL1  H26B 5583   3.846   3.028   8.453 -1.4568 -1.1345  2.9070
   42CHL1  H26C 5584   3.775   3.152   8.351  1.5796  1.6585  0.5026
   42CHL1   C27 5585   3.551   3.027   8.369  1.0884  0.6553 -0.1253
   42CHL1  H27A 5586   3.536   3.114   8.301  1.2301 -0.7206 -1.9507
   42CHL1  H27B 5587   3.607   2.948   8.313 -0.8131  0.6192 -2.0461
   42CHL1  H27C 5588   3.463   2.968   8.400  0.1699  2.5072  0.8649
   43CHL1    C3 5589   4.526   2.805  10.168 -0.5153 -0.1030  0.7824
   43CHL1    H3 5590   4.452   2.887  10.155  1.2499  0.8806 -3.9456
   43CHL1    O3 5591   4.564   2.817  10.305 -0.1690 -0.8932 -0.0274
   43CHL1   H3' 5592   4.646   2.768  10.313  0.7921  0.7785  0.7664
   43CHL1    C4 5593   4.457   2.676  10.129 -0.0846  0.2520  0.1984
   43CHL1   H4A 5594   4.533   2.597  10.148  0.3677  0.2381 -1.5993
   43CHL1   H4B 5595   4.372   2.668  10.200 -0.5695 -0.8065 -0.4993
   43CHL1    C5 5596   4.429   2.686   9.980  0.1803  0.5067 -0.3771
   43CHL1    C6 5597   4.300   2.676   9.951  0.0445 -1.0279  0.4417
   43CHL1    H6 5598   4.224   2.663  10.029  1.4833  1.8720  2.4296
   43CHL1    C7 5599   4.248   2.679   9.809 -0.0146 -0.1000  0.4087
   43CHL1   H7A 5600   4.183   2.590   9.799  0.2697 -0.4559  1.6846
   43CHL1   H7B 5601   4.191   2.772   9.785 -0.7846 -0.6121  0.2469
   43CHL1    C8 5602   4.367   2.651   9.710  0.7991 -0.8842 -0.1274
   43CHL1    H8 5603   4.401   2.545   9.721 -0.3675 -1.1131  1.3979
   43CHL1   C14 5604   4.328   2.671   9.560  0.3259  0.2532 -0.6393
   43CHL1   H14 5605   4.298   2.778   9.563 -0.7985 -0.0754  0.3186
   43CHL1   C15 5606   4.198   2.602   9.509 -0.6628  0.4592  0.0731
   43CHL1  H15A 5607   4.223   2.495   9.527  0.1665  0.3815 -1.4420
   43CHL1  H15B 5608   4.104   2.639   9.554 -0.8151  2.3507 -1.7121
   43CHL1   C16 5609   4.213   2.625   9.355 -0.3120  1.3776 -0.4427
   43CHL1  H16A 5610   4.220   2.529   9.299  0.4304  0.6137  0.9256
   43CHL1  H16B 5611   4.146   2.699   9.306  0.4049  3.2105  1.2927
   43CHL1   C17 5612   4.350   2.698   9.332 -0.2008 -0.1852 -0.0003
   43CHL1   H17 5613   4.322   2.805   9.341  0.0671 -0.2140  1.3393
   43CHL1   C13 5614   4.433   2.659   9.452  0.9260  0.1712  0.1269
   43CHL1   C18 5615   4.491   2.513   9.440  0.6338 -0.1577  0.5909
   43CHL1  H18A 5616   4.525   2.476   9.540  2.3394 -0.8025 -0.1902
   43CHL1  H18B 5617   4.409   2.444   9.410  1.3888  0.4042 -2.9023
   43CHL1  H18C 5618   4.566   2.499   9.359  0.0233 -1.3829  0.2345
   43CHL1   C12 5619   4.542   2.758   9.489 -0.6035 -0.2742  0.6491
   43CHL1  H12A 5620   4.627   2.758   9.418  0.0189 -0.6614  1.3873
   43CHL1  H12B 5621   4.501   2.861   9.494 -0.4445 -0.1836  0.0962
   43CHL1   C11 5622   4.598   2.724   9.626  0.2455 -0.5587  0.2776
   43CHL1  H11A 5623   4.648   2.625   9.623 -0.5823 -0.9275 -1.8174
   43CHL1  H11B 5624   4.679   2.798   9.641 -0.3938  0.0994  0.5484
   43CHL1    C9 5625   4.490   2.734   9.741 -0.4694  0.2944 -0.0734
   43CHL1    H9 5626   4.449   2.837   9.747 -0.1186  0.5486 -1.7399
   43CHL1   C10 5627   4.544   2.706   9.881 -0.6347  0.2843  0.8114
   43CHL1   C19 5628   4.623   2.571   9.876 -0.3927  0.0395 -0.8519
   43CHL1  H19A 5629   4.567   2.481   9.845 -0.4109 -1.0772  2.3160
   43CHL1  H19B 5630   4.710   2.585   9.808  1.7919  2.3787  2.2699
   43CHL1  H19C 5631   4.661   2.550   9.978  0.5241 -2.5574 -1.6973
   43CHL1    C1 5632   4.637   2.825   9.926  0.5361 -0.5113 -0.2973
   43CHL1   H1A 5633   4.735   2.826   9.874  0.0430 -0.5627 -1.2398
   43CHL1   H1B 5634   4.590   2.923   9.904 -0.0162 -0.3230  1.6345
   43CHL1    C2 5635   4.650   2.834  10.083 -0.6029 -0.5305 -0.6546
   43CHL1   H2A 5636   4.685   2.936  10.109 -3.0234  0.5008 -1.2678
   43CHL1   H2B 5637   4.712   2.750  10.121 -1.2741 -0.7998 -0.1331
   43CHL1   C20 5638   4.430   2.689   9.198 -0.3064  0.2911  0.4110
   43CHL1   H20 5639   4.538   2.697   9.222 -0.3760 -2.1067  1.6940
   43CHL1   C21 5640   4.393   2.812   9.119 -0.5013  0.1341 -0.4283
   43CHL1  H21A 5641   4.441   2.812   9.019 -0.8071 -1.3723 -0.5897
   43CHL1  H21B 5642   4.422   2.907   9.169  0.4402 -0.1096 -0.5050
   43CHL1  H21C 5643   4.285   2.817   9.094  0.0426  2.4260 -2.5162
   43CHL1   C22 5644   4.403   2.557   9.113  0.5605 -0.0075  0.2597
   43CHL1  H22A 5645   4.452   2.475   9.171  0.2875 -1.2154 -1.1988
   43CHL1  H22B 5646   4.294   2.537   9.109  0.5734 -0.0685  0.2369
   43CHL1   C23 5647   4.475   2.550   8.979  0.0976  0.2216 -0.3673
   43CHL1  H23A 5648   4.444   2.631   8.908 -0.7211 -1.4315 -1.9370
   43CHL1  H23B 5649   4.581   2.566   9.009  0.5129 -0.4859 -1.4452
   43CHL1   C24 5650   4.451   2.417   8.908 -0.8520 -0.6662  0.0734
   43CHL1  H24A 5651   4.476   2.324   8.964  0.5462 -1.6594 -2.1169
   43CHL1  H24B 5652   4.344   2.418   8.881 -0.7049 -0.7852 -0.5241
   43CHL1   C25 5653   4.542   2.418   8.778  0.8877  0.2132 -0.2443
   43CHL1   H25 5654   4.643   2.455   8.806 -0.0751  1.5073  1.6157
   43CHL1   C26 5655   4.542   2.273   8.716 -0.2090 -0.7556 -0.0861
   43CHL1  H26A 5656   4.597   2.204   8.784 -0.9682 -1.5743 -0.3000
   43CHL1  H26B 5657   4.440   2.235   8.694  0.0151 -0.7034 -1.2065
   43CHL1  H26C 5658   4.589   2.280   8.616  0.2838  3.9937  0.3370
   43CHL1   C27 5659   4.486   2.515   8.673 -0.3961 -0.9858 -0.4558
   43CHL1  H27A 5660   4.544   2.497   8.580  0.2230  1.6085 -0.6095
   43CHL1  H27B 5661   4.377   2.494   8.664 -0.0475 -2.9125 -0.3147
   43CHL1  H27C 5662   4.503   2.622   8.697 -1.8282 -0.5064 -1.5037
   44CHL1    C3 5663   4.393   3.661  10.076 -0.3782  0.4309 -0.0780
   44CHL1    H3 5664   4.321   3.581  10.048  0.3333 -0.8851  1.7214
   44CHL1    O3 5665   4.388   3.692  10.214  0.0483 -0.0679 -0.1186
   44CHL1   H3' 5666   4.440   3.772  10.224 -1.2450  0.7037  0.5596
   44CHL1    C4 5667   4.536   3.620  10.031  0.4152  0.1839 -0.3924
   44CHL1   H4A 5668   4.609   3.699  10.060 -0.1797  0.3333  0.7208
   44CHL1   H4B 5669   4.556   3.530  10.091  1.7746  0.3223 -0.6178
   44CHL1    C5 5670   4.555   3.602   9.889 -0.0131  0.4376 -0.0568
   44CHL1    C6 5671   4.608   3.486   9.841 -0.2143  0.9754 -0.4375
   44CHL1    H6 5672   4.647   3.414   9.914 -0.3006  1.5814  0.2077
   44CHL1    C7 5673   4.640   3.447   9.699  0.0058  0.2370 -0.2826
   44CHL1   H7A 5674   4.745   3.412   9.703 -0.5043 -1.1994  0.7960
   44CHL1   H7B 5675   4.573   3.363   9.671 -0.4250  0.1710  0.9307
   44CHL1    C8 5676   4.624   3.575   9.608  0.8526 -0.3136  0.1514
   44CHL1    H8 5677   4.718   3.633   9.619  1.4578 -1.5234  1.5942
   44CHL1   C14 5678   4.609   3.525   9.461 -0.7623  0.9477  0.5848
   44CHL1   H14 5679   4.514   3.468   9.466  0.3094 -0.6444  3.3728
   44CHL1   C15 5680   4.706   3.426   9.400 -0.2743  0.6117 -0.1682
   44CHL1  H15A 5681   4.810   3.441   9.438 -1.2910  3.0604  1.8426
   44CHL1  H15B 5682   4.690   3.325   9.442  0.8247  1.1993  1.7751
   44CHL1   C16 5683   4.701   3.451   9.249  0.4443  0.0159  0.1145
   44CHL1  H16A 5684   4.798   3.480   9.204  1.3855 -0.9215  1.5497
   44CHL1  H16B 5685   4.667   3.361   9.193 -0.1526  0.3858 -0.1351
   44CHL1   C17 5686   4.595   3.564   9.221 -0.2236  0.2442 -0.6875
   44CHL1   H17 5687   4.495   3.518   9.209 -0.3322  1.2325 -4.0605
   44CHL1   C13 5688   4.596   3.642   9.356 -0.2143  0.6136 -0.6485
   44CHL1   C18 5689   4.714   3.746   9.369 -0.4673 -0.1524 -0.0657
   44CHL1  H18A 5690   4.807   3.691   9.346 -1.0422 -1.4382  0.6138
   44CHL1  H18B 5691   4.704   3.823   9.289 -0.7872 -0.4794 -0.3396
   44CHL1  H18C 5692   4.712   3.775   9.476  0.9805  0.2952 -0.1472
   44CHL1   C12 5693   4.462   3.709   9.388 -0.8556 -0.4456  0.7615
   44CHL1  H12A 5694   4.446   3.797   9.323 -0.7247  0.3790  1.8400
   44CHL1  H12B 5695   4.377   3.638   9.377 -0.3298 -0.9287 -0.2163
   44CHL1   C11 5696   4.460   3.763   9.534  0.0683  0.1686 -0.1148
   44CHL1  H11A 5697   4.520   3.855   9.549 -0.6712  0.8680 -1.3495
   44CHL1  H11B 5698   4.354   3.778   9.563  0.6036  1.6276  1.1080
   44CHL1    C9 5699   4.504   3.655   9.644  0.2244 -0.6029 -0.2548
   44CHL1    H9 5700   4.419   3.582   9.643 -0.1322 -0.2600  2.3239
   44CHL1   C10 5701   4.512   3.711   9.792 -0.1303 -1.0384 -1.0577
   44CHL1   C19 5702   4.613   3.831   9.794  0.5239 -0.5545  1.0788
   44CHL1  H19A 5703   4.654   3.858   9.894  2.9695  2.9366 -0.7678
   44CHL1  H19B 5704   4.690   3.819   9.715  0.1051 -1.4618  0.8086
   44CHL1  H19C 5705   4.558   3.921   9.761  2.9809  1.1991  1.6055
   44CHL1    C1 5706   4.370   3.738   9.836  0.3576 -0.2200  0.4928
   44CHL1   H1A 5707   4.336   3.822   9.772 -2.4230 -1.6687  0.0098
   44CHL1   H1B 5708   4.299   3.655   9.820 -1.1701  0.9634  1.0390
   44CHL1    C2 5709   4.352   3.779   9.988 -0.1692 -0.1360  0.1879
   44CHL1   H2A 5710   4.247   3.813  10.000 -0.2348 -0.2053 -0.1733
   44CHL1   H2B 5711   4.414   3.866  10.019 -0.6786 -0.4097  2.0322
   44CHL1   C20 5712   4.623   3.645   9.089  0.0046  0.3021 -0.2891
   44CHL1   H20 5713   4.717   3.703   9.097 -0.6255  1.2138  0.7410
   44CHL1   C21 5714   4.516   3.746   9.075  0.2338 -0.6643 -0.8770
   44CHL1  H21A 5715   4.515   3.790   8.973 -1.3283  2.2281  0.3287
   44CHL1  H21B 5716   4.512   3.840   9.134 -0.7348 -0.1785 -1.7085
   44CHL1  H21C 5717   4.421   3.691   9.084  0.9514 -1.6924  0.5746
   44CHL1   C22 5718   4.621   3.552   8.962 -0.0370 -0.8260 -0.7331
   44CHL1  H22A 5719   4.679   3.461   8.986 -0.1481 -0.9500 -0.9321
   44CHL1  H22B 5720   4.521   3.509   8.939 -0.0129 -1.8683  1.0695
   44CHL1   C23 5721   4.687   3.622   8.843  0.0727  0.0205 -0.0582
   44CHL1  H23A 5722   4.609   3.690   8.803  1.4949  0.5909 -1.9425
   44CHL1  H23B 5723   4.774   3.677   8.885  1.3140 -1.1659 -1.0022
   44CHL1   C24 5724   4.738   3.525   8.731  0.0194  0.0724  0.2842
   44CHL1  H24A 5725   4.645   3.487   8.683 -1.0186 -0.6464  2.7810
   44CHL1  H24B 5726   4.805   3.569   8.654  0.8110 -1.1645  0.2544
   44CHL1   C25 5727   4.820   3.400   8.761 -0.5623  0.7653  0.2372
   44CHL1   H25 5728   4.757   3.329   8.820 -0.1612  1.0797  1.0600
   44CHL1   C26 5729   4.861   3.325   8.627 -0.1479  0.7171  0.0727
   44CHL1  H26A 5730   4.905   3.228   8.658  0.7216  1.7021  2.0061
   44CHL1  H26B 5731   4.770   3.319   8.563 -1.8133 -1.1236  2.5160
   44CHL1  H26C 5732   4.931   3.389   8.569  1.6834 -1.4747 -0.2240
   44CHL1   C27 5733   4.948   3.424   8.848  0.2778  0.0358  0.4863
   44CHL1  H27A 5734   4.973   3.331   8.903 -0.0418  1.1972  2.6535
   44CHL1  H27B 5735   5.029   3.472   8.789  0.7371 -1.5118 -0.1797
   44CHL1  H27C 5736   4.915   3.491   8.930 -0.2339 -1.6295  1.6566
   45CHL1    C3 5737   1.486   1.916  10.198  0.0184  0.2484 -0.1669
   45CHL1    H3 5738   1.594   1.891  10.195 -0.0132 -0.0205  0.7987
   45CHL1    O3 5739   1.461   1.915  10.335  0.3333  0.2711 -0.4265
   45CHL1   H3' 5740   1.366   1.930  10.331  0.3441  1.0706  1.6795
   45CHL1    C4 5741   1.476   2.060  10.149  0.5908  0.3658  0.2189
   45CHL1   H4A 5742   1.373   2.090  10.175  0.7728  1.0240  0.1937
   45CHL1   H4B 5743   1.531   2.134  10.211  0.4022  3.7272 -3.4272
   45CHL1    C5 5744   1.521   2.062  10.003  0.7241 -0.2652  1.1062
   45CHL1    C6 5745   1.621   2.148   9.967  0.3879  0.4886  0.0648
   45CHL1    H6 5746   1.675   2.214  10.036  3.2007 -1.0376 -0.5826
   45CHL1    C7 5747   1.679   2.151   9.826  0.7524 -0.7379 -0.7704
   45CHL1   H7A 5748   1.676   2.257   9.792 -2.9556 -0.1287  1.2051
   45CHL1   H7B 5749   1.787   2.122   9.825  0.9308 -0.0716 -0.6434
   45CHL1    C8 5750   1.605   2.059   9.714  0.1447 -0.0223  0.7044
   45CHL1    H8 5751   1.684   2.004   9.658 -0.6732  0.4145 -0.9050
   45CHL1   C14 5752   1.544   2.137   9.600  0.4223 -0.2877  0.0318
   45CHL1   H14 5753   1.468   2.205   9.645 -0.8856 -2.9166  1.8673
   45CHL1   C15 5754   1.646   2.216   9.525 -0.6683 -0.0304  0.1994
   45CHL1  H15A 5755   1.649   2.318   9.569 -3.4793  0.8084 -1.3774
   45CHL1  H15B 5756   1.742   2.163   9.538  0.0660  1.1428 -0.4115
   45CHL1   C16 5757   1.609   2.233   9.379  0.6252  0.4350  0.2948
   45CHL1  H16A 5758   1.539   2.318   9.372 -1.2686 -1.1888 -0.9814
   45CHL1  H16B 5759   1.692   2.255   9.309  0.0098 -0.7832 -0.8435
   45CHL1   C17 5760   1.526   2.099   9.353 -0.9906 -0.1795 -0.2366
   45CHL1   H17 5761   1.614   2.032   9.345 -0.7600  0.1041 -0.0809
   45CHL1   C13 5762   1.472   2.048   9.491  0.0929  0.3569  0.3260
   45CHL1   C18 5763   1.321   2.087   9.498  0.0887  0.6574 -0.0690
   45CHL1  H18A 5764   1.279   2.101   9.600  1.8218  0.0416  0.7357
   45CHL1  H18B 5765   1.307   2.191   9.460 -2.3436  2.0585  4.3106
   45CHL1  H18C 5766   1.272   2.000   9.450  3.4618 -1.4103  0.0954
   45CHL1   C12 5767   1.489   1.896   9.521 -0.5732 -0.5339 -0.3149
   45CHL1  H12A 5768   1.424   1.837   9.452  0.0129  0.6087 -1.8642
   45CHL1  H12B 5769   1.593   1.858   9.507 -0.8739 -0.9354 -1.5486
   45CHL1   C11 5770   1.444   1.865   9.660  0.8863 -0.4162  0.6275
   45CHL1  H11A 5771   1.334   1.883   9.670  1.3882  1.5284  3.1245
   45CHL1  H11B 5772   1.460   1.758   9.684  1.2854 -1.0908 -2.4602
   45CHL1    C9 5773   1.516   1.948   9.766  0.0980  1.3668 -0.2526
   45CHL1    H9 5774   1.599   1.874   9.775  0.0716  1.2958 -0.5944
   45CHL1   C10 5775   1.451   1.965   9.908  0.1664  0.0647 -0.5778
   45CHL1   C19 5776   1.316   2.032   9.887 -0.3091  0.6502  0.2453
   45CHL1  H19A 5777   1.246   1.967   9.831  0.3044 -0.3081  0.5683
   45CHL1  H19B 5778   1.262   2.070   9.976 -1.7858  0.0645 -0.3910
   45CHL1  H19C 5779   1.332   2.120   9.821  0.0388 -0.2709 -0.9236
   45CHL1    C1 5780   1.422   1.826   9.965 -0.2528  0.6803  0.5622
   45CHL1   H1A 5781   1.343   1.769   9.912  0.2600 -0.3861  0.9184
   45CHL1   H1B 5782   1.516   1.770   9.944  0.1048  1.9706 -1.3900
   45CHL1    C2 5783   1.405   1.813  10.113 -0.1846  0.0547 -0.9281
   45CHL1   H2A 5784   1.431   1.713  10.154 -3.9974 -0.1359  1.2883
   45CHL1   H2B 5785   1.297   1.816  10.139 -0.2919 -0.6761 -1.2677
   45CHL1   C20 5786   1.441   2.101   9.231  0.1876 -0.2742  0.3270
   45CHL1   H20 5787   1.354   2.035   9.251  0.6124 -0.7217  0.7108
   45CHL1   C21 5788   1.528   2.033   9.116  0.0846 -0.4539 -1.2266
   45CHL1  H21A 5789   1.448   2.012   9.042 -1.0200  1.4168 -0.6279
   45CHL1  H21B 5790   1.561   1.933   9.150  1.2389 -0.1062 -1.3257
   45CHL1  H21C 5791   1.606   2.095   9.066  0.7134 -1.2776 -1.2588
   45CHL1   C22 5792   1.386   2.236   9.183 -0.3124 -0.4946 -0.2397
   45CHL1  H22A 5793   1.361   2.299   9.271  2.5683 -2.7899  2.3112
   45CHL1  H22B 5794   1.470   2.291   9.136 -1.5274  2.0849  0.5134
   45CHL1   C23 5795   1.277   2.223   9.074  0.9186  0.4820 -0.0656
   45CHL1  H23A 5796   1.309   2.166   8.984 -0.2701  1.4848 -1.1521
   45CHL1  H23B 5797   1.195   2.169   9.125  1.6624  1.1110  1.8532
   45CHL1   C24 5798   1.214   2.359   9.025 -0.0132 -0.4634  0.5255
   45CHL1  H24A 5799   1.142   2.404   9.097 -0.0160  0.7221 -0.2035
   45CHL1  H24B 5800   1.304   2.424   9.020 -0.5781  0.3302  0.6266
   45CHL1   C25 5801   1.149   2.352   8.887  0.3195 -0.7576 -0.1234
   45CHL1   H25 5802   1.221   2.298   8.821  0.3371  0.0983 -0.8062
   45CHL1   C26 5803   1.018   2.274   8.893 -0.4194  0.7357 -0.3803
   45CHL1  H26A 5804   1.033   2.189   8.963  0.3482  0.2299 -1.1537
   45CHL1  H26B 5805   0.934   2.332   8.939  0.0012  0.1193  1.2143
   45CHL1  H26C 5806   0.988   2.225   8.799 -0.4099  0.1691 -0.0875
   45CHL1   C27 5807   1.130   2.497   8.828  0.0751 -0.3618  0.5654
   45CHL1  H27A 5808   1.061   2.564   8.884  0.5339  0.9680 -0.4295
   45CHL1  H27B 5809   1.233   2.537   8.819 -0.4421  1.1108  0.9951
   45CHL1  H27C 5810   1.102   2.499   8.721  0.0469  1.7190  0.5926
   46CHL1    C3 5811   4.304   6.382  10.091 -0.3046 -0.3424  0.2011
   46CHL1    H3 5812   4.212   6.321  10.090 -2.1056  2.2574  1.1142
   46CHL1    O3 5813   4.340   6.409  10.229 -0.3490 -0.4174  0.0967
   46CHL1   H3' 5814   4.373   6.325  10.261 -0.3674 -1.2455 -2.0024
   46CHL1    C4 5815   4.432   6.310  10.037  0.7886 -0.2869 -0.0941
   46CHL1   H4A 5816   4.513   6.381  10.064 -1.4548  2.4953 -0.4506
   46CHL1   H4B 5817   4.453   6.216  10.092  1.9763 -0.3183 -0.5826
   46CHL1    C5 5818   4.437   6.293   9.885  0.3351  0.2972  0.0489
   46CHL1    C6 5819   4.463   6.173   9.825  0.0590  0.3928  0.5370
   46CHL1    H6 5820   4.481   6.083   9.884 -0.9770 -0.5717 -0.5805
   46CHL1    C7 5821   4.476   6.157   9.679 -0.5681 -0.2957 -0.2855
   46CHL1   H7A 5822   4.564   6.093   9.659  0.9264  1.7975 -0.5767
   46CHL1   H7B 5823   4.386   6.106   9.639 -0.6265 -1.5865  1.4485
   46CHL1    C8 5824   4.486   6.291   9.599 -0.0024  0.5032 -0.9968
   46CHL1    H8 5825   4.587   6.333   9.621 -0.2484  0.0267  1.0896
   46CHL1   C14 5826   4.459   6.268   9.455  0.7825  0.0079  0.6074
   46CHL1   H14 5827   4.349   6.254   9.445  0.3925  3.6278 -1.2945
   46CHL1   C15 5828   4.530   6.155   9.386 -0.0154 -0.7268 -0.1023
   46CHL1  H15A 5829   4.638   6.136   9.409  0.3722 -0.4088 -1.6134
   46CHL1  H15B 5830   4.485   6.060   9.423 -0.9411 -0.6282 -0.9650
   46CHL1   C16 5831   4.507   6.175   9.235 -0.1695 -0.2006 -0.1169
   46CHL1  H16A 5832   4.603   6.152   9.185 -0.1337  0.0828 -0.1769
   46CHL1  H16B 5833   4.425   6.110   9.198  0.1202 -0.0721 -1.0093
   46CHL1   C17 5834   4.456   6.318   9.226 -0.5385 -0.1239  0.3328
   46CHL1   H17 5835   4.346   6.326   9.218 -0.5098  2.1621  1.6552
   46CHL1   C13 5836   4.482   6.386   9.365 -0.0100  1.2671 -0.2520
   46CHL1   C18 5837   4.628   6.440   9.366 -0.6382 -0.3820 -0.1745
   46CHL1  H18A 5838   4.692   6.361   9.321 -0.4343 -1.2305  1.5780
   46CHL1  H18B 5839   4.636   6.532   9.304 -1.2857 -1.8055 -2.4492
   46CHL1  H18C 5840   4.658   6.478   9.466  2.7226 -1.6376 -0.6136
   46CHL1   C12 5841   4.383   6.503   9.410  0.1891  0.4093  0.4665
   46CHL1  H12A 5842   4.397   6.597   9.351 -0.0479  0.0967 -0.0948
   46CHL1  H12B 5843   4.284   6.462   9.381  0.5307  1.2881 -2.0487
   46CHL1   C11 5844   4.391   6.523   9.564  0.2040  0.4124  0.5912
   46CHL1  H11A 5845   4.488   6.576   9.565  0.1405  0.5248  0.8902
   46CHL1  H11B 5846   4.307   6.588   9.598 -0.3641  1.5882 -2.8231
   46CHL1    C9 5847   4.386   6.391   9.651  0.8229 -0.1780 -0.0757
   46CHL1    H9 5848   4.290   6.339   9.632  0.5761 -0.1144  0.9544
   46CHL1   C10 5849   4.402   6.417   9.801 -0.5436  0.0204  0.3224
   46CHL1   C19 5850   4.516   6.519   9.823  0.6507  0.0235 -0.1569
   46CHL1  H19A 5851   4.500   6.619   9.777  0.0406 -0.6103 -1.3422
   46CHL1  H19B 5852   4.545   6.532   9.929 -0.3649 -1.7265  0.3538
   46CHL1  H19C 5853   4.607   6.473   9.779 -0.0557 -1.1226 -0.4649
   46CHL1    C1 5854   4.274   6.482   9.859 -0.0886 -0.9425 -0.8257
   46CHL1   H1A 5855   4.251   6.573   9.799 -0.5120  0.9675  2.1187
   46CHL1   H1B 5856   4.178   6.429   9.843 -0.9856 -0.2242  1.9297
   46CHL1    C2 5857   4.280   6.515  10.014  0.2525  0.7989  0.4143
   46CHL1   H2A 5858   4.177   6.544  10.045  0.0202  1.5375 -0.9865
   46CHL1   H2B 5859   4.358   6.593  10.027 -0.0500  0.9786  1.2255
   46CHL1   C20 5860   4.513   6.382   9.097 -0.2028 -0.3246 -0.0936
   46CHL1   H20 5861   4.624   6.394   9.105 -0.0690 -0.8498 -1.1171
   46CHL1   C21 5862   4.472   6.531   9.069 -0.7179 -0.3878 -0.5512
   46CHL1  H21A 5863   4.535   6.574   8.988  3.8325 -2.2036  1.8486
   46CHL1  H21B 5864   4.506   6.587   9.158 -1.6283 -1.5554  0.5481
   46CHL1  H21C 5865   4.362   6.545   9.074 -0.2432  2.6539  4.3265
   46CHL1   C22 5866   4.477   6.313   8.965  0.2679 -0.0264  0.2034
   46CHL1  H22A 5867   4.492   6.204   8.974  0.1502 -0.0282  0.3713
   46CHL1  H22B 5868   4.367   6.322   8.951  0.3319  0.8727  0.2140
   46CHL1   C23 5869   4.548   6.350   8.842 -0.2419  0.2199 -1.2000
   46CHL1  H23A 5870   4.504   6.444   8.802 -1.8944 -0.7724 -1.7426
   46CHL1  H23B 5871   4.655   6.376   8.861  0.0341 -0.8310 -1.2852
   46CHL1   C24 5872   4.530   6.235   8.742 -0.2104 -0.1288  0.1636
   46CHL1  H24A 5873   4.596   6.152   8.775  0.0697 -0.7159 -1.7845
   46CHL1  H24B 5874   4.423   6.209   8.729  0.0005 -0.8889 -0.0263
   46CHL1   C25 5875   4.577   6.278   8.600 -0.6044  0.0772  0.5342
   46CHL1   H25 5876   4.496   6.339   8.555 -1.3484 -1.0767  0.3154
   46CHL1   C26 5877   4.709   6.348   8.612  0.2727  0.2031  0.5857
   46CHL1  H26A 5878   4.735   6.367   8.506 -1.4833 -0.2280  0.0603
   46CHL1  H26B 5879   4.699   6.445   8.665  2.5358  0.3059  0.9058
   46CHL1  H26C 5880   4.785   6.284   8.662  0.5037  0.7706  0.9657
   46CHL1   C27 5881   4.593   6.155   8.509  0.3520 -0.0922  0.1467
   46CHL1  H27A 5882   4.645   6.071   8.560 -0.4016 -0.1755  0.7744
   46CHL1  H27B 5883   4.490   6.119   8.487 -0.3811 -0.3154  3.7702
   46CHL1  H27C 5884   4.642   6.167   8.409 -1.8796  3.0263 -0.6565
   47CHL1    C3 5885   5.146   2.653  10.127  0.1414  0.3712 -0.4491
   47CHL1    H3 5886   5.099   2.552  10.134 -2.3019  1.4529 -0.6318
   47CHL1    O3 5887   5.190   2.707  10.251 -0.0256  0.9864 -0.5687
   47CHL1   H3' 5888   5.228   2.627  10.288 -0.2184  1.4043  0.5598
   47CHL1    C4 5889   5.270   2.642  10.034  0.1033  0.1022  0.1925
   47CHL1   H4A 5890   5.314   2.742  10.014  0.4421  0.3956  2.2407
   47CHL1   H4B 5891   5.339   2.575  10.090 -2.5950 -1.5470  1.6575
   47CHL1    C5 5892   5.233   2.579   9.900  0.1904  0.6274 -0.4412
   47CHL1    C6 5893   5.290   2.472   9.847  0.2602  0.0436  0.3529
   47CHL1    H6 5894   5.359   2.416   9.912 -1.2378 -0.1517  1.7905
   47CHL1    C7 5895   5.267   2.412   9.705  0.3655  0.0504  0.4710
   47CHL1   H7A 5896   5.364   2.397   9.651  0.4765 -1.6124  1.1048
   47CHL1   H7B 5897   5.213   2.315   9.713  1.3334 -0.3669  2.1018
   47CHL1    C8 5898   5.193   2.508   9.624  0.4636  0.6584 -0.1056
   47CHL1    H8 5899   5.256   2.588   9.580  1.5105  0.7473  1.4959
   47CHL1   C14 5900   5.122   2.437   9.505 -0.6704 -0.3254 -0.7801
   47CHL1   H14 5901   5.041   2.378   9.551 -0.5250 -0.4173 -0.6418
   47CHL1   C15 5902   5.213   2.345   9.428 -0.7650 -0.0257 -0.8882
   47CHL1  H15A 5903   5.307   2.396   9.397  0.3779 -0.8158  1.1972
   47CHL1  H15B 5904   5.240   2.254   9.485 -0.1696  0.7087  0.0087
   47CHL1   C16 5905   5.131   2.315   9.299 -0.5416 -0.0452  0.6158
   47CHL1  H16A 5906   5.184   2.321   9.202  1.6416  1.0553  1.8442
   47CHL1  H16B 5907   5.079   2.221   9.326 -0.5230  0.1474  1.3310
   47CHL1   C17 5908   5.018   2.429   9.292  0.0700 -0.0725  1.2425
   47CHL1   H17 5909   4.927   2.373   9.323 -0.1968  1.4355  3.2761
   47CHL1   C13 5910   5.050   2.525   9.406  0.0176  0.5036  0.4428
   47CHL1   C18 5911   5.144   2.628   9.350  0.3683 -0.4058  0.9534
   47CHL1  H18A 5912   5.169   2.707   9.424  1.8104  0.3620 -0.3374
   47CHL1  H18B 5913   5.238   2.579   9.317 -1.3041 -1.5943 -2.2523
   47CHL1  H18C 5914   5.096   2.681   9.265 -2.4548 -1.3340  1.8963
   47CHL1   C12 5915   4.935   2.587   9.480  0.0519  0.3820 -0.1481
   47CHL1  H12A 5916   4.907   2.668   9.410  1.5725  1.5099  0.5130
   47CHL1  H12B 5917   4.858   2.507   9.492  0.3196 -0.0798 -1.4851
   47CHL1   C11 5918   4.979   2.659   9.611 -0.2013 -0.1857 -0.0144
   47CHL1  H11A 5919   5.012   2.764   9.595  1.0051 -0.5661 -0.0597
   47CHL1  H11B 5920   4.877   2.676   9.652 -0.7468 -0.1707 -1.3281
   47CHL1    C9 5921   5.079   2.582   9.706  0.3206 -0.7327  0.9347
   47CHL1    H9 5922   5.011   2.505   9.747  0.8010 -2.0053 -0.6291
   47CHL1   C10 5923   5.121   2.660   9.826 -0.3839 -0.2866 -0.2632
   47CHL1   C19 5924   5.197   2.781   9.777 -0.0623 -0.8568 -0.0070
   47CHL1  H19A 5925   5.119   2.854   9.745 -0.5141 -1.3519 -0.0461
   47CHL1  H19B 5926   5.243   2.845   9.855 -1.1008 -0.0158 -0.0787
   47CHL1  H19C 5927   5.276   2.774   9.699 -2.6280  1.3874 -2.9298
   47CHL1    C1 5928   5.001   2.686   9.921 -0.6554 -0.4216 -0.5879
   47CHL1   H1A 5929   4.930   2.753   9.869  0.0534  1.7428  1.1446
   47CHL1   H1B 5930   4.946   2.591   9.937  1.0571 -1.3695 -0.1567
   47CHL1    C2 5931   5.038   2.741  10.059 -0.1382  0.1204  0.1728
   47CHL1   H2A 5932   4.946   2.746  10.121 -0.8398 -2.1798 -0.6413
   47CHL1   H2B 5933   5.071   2.847  10.057 -0.2945  0.1670 -0.0788
   47CHL1   C20 5934   4.981   2.469   9.147  0.3221 -0.5437 -1.1307
   47CHL1   H20 5935   5.071   2.518   9.105  1.4556 -1.2118  0.4640
   47CHL1   C21 5936   4.865   2.567   9.147 -0.3098 -0.6606 -0.1058
   47CHL1  H21A 5937   4.891   2.659   9.203 -0.5881 -0.4936 -0.2495
   47CHL1  H21B 5938   4.776   2.519   9.194 -0.0254 -1.2929 -0.2051
   47CHL1  H21C 5939   4.841   2.590   9.041  1.9797  1.0927 -0.2660
   47CHL1   C22 5940   4.947   2.351   9.048 -0.4486 -0.6637  0.3987
   47CHL1  H22A 5941   4.991   2.256   9.085  0.7653 -1.4005 -2.7788
   47CHL1  H22B 5942   4.836   2.345   9.047 -0.5965  1.9308 -1.1907
   47CHL1   C23 5943   5.005   2.366   8.907  0.1628  0.4504  0.0653
   47CHL1  H23A 5944   4.958   2.458   8.868 -0.9868 -0.4638 -0.7383
   47CHL1  H23B 5945   5.116   2.367   8.914  0.4378  1.0822 -3.3387
   47CHL1   C24 5946   4.948   2.271   8.797 -0.2992  0.1165  0.8206
   47CHL1  H24A 5947   4.957   2.169   8.841 -4.0397 -1.3623 -1.5995
   47CHL1  H24B 5948   4.839   2.289   8.786 -0.5498  0.3109  3.2552
   47CHL1   C25 5949   5.023   2.288   8.661 -0.5037  0.0864 -0.5462
   47CHL1   H25 5950   5.132   2.282   8.685 -1.0973 -1.0513  2.0513
   47CHL1   C26 5951   4.988   2.167   8.572 -0.1658 -0.2780  0.1220
   47CHL1  H26A 5952   4.879   2.168   8.554 -0.3106  4.8856  0.6190
   47CHL1  H26B 5953   5.034   2.080   8.625 -2.9406 -1.4087  0.7333
   47CHL1  H26C 5954   5.041   2.183   8.475 -1.2662 -2.0271 -0.7805
   47CHL1   C27 5955   4.985   2.421   8.597 -0.3073 -0.4684 -0.6871
   47CHL1  H27A 5956   5.053   2.438   8.511  4.0088 -1.3279  2.4157
   47CHL1  H27B 5957   4.883   2.424   8.552 -2.6090  0.8255  4.3175
   47CHL1  H27C 5958   5.006   2.501   8.671  1.0043  0.1184 -1.6711
   48CHL1    C3 5959   5.489   3.382  10.191 -0.6838  0.4068  0.4898
   48CHL1    H3 5960   5.520   3.278  10.215  1.8319  0.3470 -2.5966
   48CHL1    O3 5961   5.417   3.427  10.308  0.1668 -0.0556  0.7891
   48CHL1   H3' 5962   5.359   3.495  10.273 -1.0712 -1.9378 -0.9906
   48CHL1    C4 5963   5.609   3.473  10.162  0.1071 -0.5497  0.2984
   48CHL1   H4A 5964   5.587   3.582  10.161  0.9996 -0.3674 -0.3163
   48CHL1   H4B 5965   5.690   3.454  10.236 -0.8659  2.0408  2.1011
   48CHL1    C5 5966   5.668   3.442  10.019 -0.1834  0.6316 -0.1718
   48CHL1    C6 5967   5.800   3.422  10.006 -0.7741 -0.0884  0.0023
   48CHL1    H6 5968   5.869   3.432  10.091  1.1846 -0.8737 -1.4528
   48CHL1    C7 5969   5.872   3.416   9.873  0.7398  0.4845  0.8131
   48CHL1   H7A 5970   5.942   3.502   9.875  0.1059  0.9775  2.2141
   48CHL1   H7B 5971   5.918   3.316   9.860  2.1658  1.1257  0.7948
   48CHL1    C8 5972   5.779   3.434   9.754 -0.0375 -0.7331 -0.2751
   48CHL1    H8 5973   5.772   3.544   9.742 -0.2305 -0.8132 -0.9429
   48CHL1   C14 5974   5.845   3.375   9.630  0.6992 -0.2786 -0.1902
   48CHL1   H14 5975   5.860   3.270   9.663 -1.8385 -0.3584  0.8383
   48CHL1   C15 5976   5.979   3.435   9.593 -0.6391 -0.2714 -0.1230
   48CHL1  H15A 5977   5.963   3.545   9.590 -2.5526 -0.4724  1.6356
   48CHL1  H15B 5978   6.056   3.412   9.670  0.6725  1.6669 -0.8072
   48CHL1   C16 5979   6.013   3.385   9.457  0.0571  0.2882 -0.4326
   48CHL1  H16A 5980   6.071   3.463   9.402 -1.5095  4.1268  3.0935
   48CHL1  H16B 5981   6.078   3.295   9.452 -0.7039 -0.3170  0.6616
   48CHL1   C17 5982   5.872   3.340   9.400 -0.0131  0.2519 -0.1596
   48CHL1   H17 5983   5.866   3.229   9.403 -0.0903  0.2409 -0.7047
   48CHL1   C13 5984   5.762   3.381   9.501  1.2254 -0.0705  0.5216
   48CHL1   C18 5985   5.715   3.529   9.468  0.6470  1.0782  1.0585
   48CHL1  H18A 5986   5.801   3.593   9.437  0.7815 -0.0593 -0.9965
   48CHL1  H18B 5987   5.642   3.527   9.385  1.4514 -0.0466  0.3499
   48CHL1  H18C 5988   5.672   3.564   9.564 -0.8453  1.7161  0.1772
   48CHL1   C12 5989   5.641   3.288   9.523 -0.0314 -0.5284  0.8970
   48CHL1  H12A 5990   5.576   3.304   9.435 -0.5341 -0.5642  1.2571
   48CHL1  H12B 5991   5.668   3.184   9.551  3.0744 -1.1011 -3.7138
   48CHL1   C11 5992   5.558   3.347   9.646  0.3427 -0.1962  0.4459
   48CHL1  H11A 5993   5.523   3.449   9.620 -0.6014 -0.9072 -1.1665
   48CHL1  H11B 5994   5.478   3.273   9.671  0.6686 -0.4551  0.7265
   48CHL1    C9 5995   5.642   3.365   9.776  0.7229  0.0668 -0.4097
   48CHL1    H9 5996   5.661   3.259   9.805 -0.5398  0.0800  0.4906
   48CHL1   C10 5997   5.568   3.425   9.898 -0.0732 -0.7339  0.2030
   48CHL1   C19 5998   5.504   3.559   9.867 -0.1457 -0.2464 -0.0883
   48CHL1  H19A 5999   5.468   3.610   9.959 -0.8074  2.4261 -1.7825
   48CHL1  H19B 6000   5.575   3.625   9.813  0.4490 -1.3730 -0.7014
   48CHL1  H19C 6001   5.420   3.550   9.795  0.5176  0.1755 -0.9197
   48CHL1    C1 6002   5.449   3.338   9.944  0.4940 -0.0767  0.4535
   48CHL1   H1A 6003   5.367   3.350   9.870 -0.9554 -0.2159  1.9810
   48CHL1   H1B 6004   5.490   3.235   9.947  3.0519  0.9042  0.3396
   48CHL1    C2 6005   5.388   3.378  10.069 -0.3567 -0.3083  0.1120
   48CHL1   H2A 6006   5.299   3.319  10.101 -0.9603 -0.0089 -0.9872
   48CHL1   H2B 6007   5.342   3.476  10.046 -0.3399 -0.4140 -0.3920
   48CHL1   C20 6008   5.852   3.380   9.253  0.4190 -0.2741 -0.2804
   48CHL1   H20 6009   5.843   3.490   9.241 -2.2629 -0.3897  0.3903
   48CHL1   C21 6010   5.725   3.306   9.195 -0.4038  0.1501  0.3359
   48CHL1  H21A 6011   5.700   3.343   9.093  1.7027 -1.1456 -0.7019
   48CHL1  H21B 6012   5.636   3.348   9.245 -0.3095  1.6927 -0.7490
   48CHL1  H21C 6013   5.723   3.196   9.210  0.4819  0.1111  0.2388
   48CHL1   C22 6014   5.967   3.350   9.148 -0.8340  0.6115  0.3187
   48CHL1  H22A 6015   5.927   3.392   9.054 -1.4412 -0.6721 -0.0059
   48CHL1  H22B 6016   6.043   3.426   9.178 -1.3911  2.5802 -2.9918
   48CHL1   C23 6017   6.023   3.206   9.153 -0.0606 -0.1960  0.0196
   48CHL1  H23A 6018   6.046   3.192   9.261  1.5816 -0.6602 -0.3633
   48CHL1  H23B 6019   5.940   3.137   9.127 -2.4601  2.2734  0.9933
   48CHL1   C24 6020   6.151   3.189   9.069  0.2746  0.7661 -0.3448
   48CHL1  H24A 6021   6.211   3.279   9.094  0.7152  0.4441 -0.2413
   48CHL1  H24B 6022   6.208   3.100   9.103 -2.0969 -1.0320 -0.9176
   48CHL1   C25 6023   6.132   3.178   8.920 -0.5132  0.3952  0.7436
   48CHL1   H25 6024   6.077   3.268   8.886  0.6934  1.0237  0.4407
   48CHL1   C26 6025   6.263   3.170   8.845 -0.5034  0.0091  0.1130
   48CHL1  H26A 6026   6.247   3.156   8.736 -1.5848 -2.1605  0.5196
   48CHL1  H26B 6027   6.318   3.266   8.854 -0.1250 -0.1651 -0.3092
   48CHL1  H26C 6028   6.331   3.087   8.875 -0.3713  0.9847  2.5621
   48CHL1   C27 6029   6.047   3.057   8.876 -0.2795  0.4951 -1.1361
   48CHL1  H27A 6030   6.011   3.076   8.773  1.3602 -1.0829 -2.0492
   48CHL1  H27B 6031   6.112   2.968   8.892  1.4491  1.8547 -0.3083
   48CHL1  H27C 6032   5.952   3.050   8.933  0.3842 -0.0016 -0.0755
   49CHL1    C3 6033   3.896   6.294   9.916  0.5463 -0.5966 -0.7024
   49CHL1    H3 6034   3.996   6.339   9.935 -0.8212  2.7690 -1.1879
   49CHL1    O3 6035   3.814   6.300  10.032  0.6746  0.5942 -0.0691
   49CHL1   H3' 6036   3.857   6.355  10.097 -0.5897  1.1412  0.3283
   49CHL1    C4 6037   3.828   6.380   9.810  0.2861  0.8643 -0.8618
   49CHL1   H4A 6038   3.722   6.351   9.798  0.4128  1.0329 -2.4215
   49CHL1   H4B 6039   3.824   6.486   9.842 -0.3640  0.2905  1.0386
   49CHL1    C5 6040   3.893   6.349   9.682 -0.0131  0.3198  0.2409
   49CHL1    C6 6041   3.937   6.451   9.607 -0.2976 -0.5633 -1.0677
   49CHL1    H6 6042   3.916   6.555   9.638 -1.2015 -1.0711  0.0668
   49CHL1    C7 6043   3.976   6.434   9.462  0.0241 -0.9880 -0.0156
   49CHL1   H7A 6044   3.944   6.512   9.390 -1.1721 -3.7924 -2.6275
   49CHL1   H7B 6045   4.086   6.445   9.478 -0.2500 -0.5453  1.6910
   49CHL1    C8 6046   3.945   6.296   9.404 -0.8227 -0.1173  0.4793
   49CHL1    H8 6047   3.837   6.291   9.376 -0.9103  0.2561  0.7513
   49CHL1   C14 6048   4.027   6.264   9.290  0.2260 -0.1930 -0.3024
   49CHL1   H14 6049   4.134   6.258   9.318  0.6425 -1.6353 -2.0866
   49CHL1   C15 6050   4.017   6.376   9.172 -0.7307 -0.0042 -0.0835
   49CHL1  H15A 6051   3.915   6.405   9.140 -1.0345 -0.5434  0.3737
   49CHL1  H15B 6052   4.064   6.467   9.213 -2.4685  0.4002  1.0737
   49CHL1   C16 6053   4.090   6.308   9.058  0.5071 -0.7408  0.0349
   49CHL1  H16A 6054   4.039   6.343   8.966 -0.3081 -0.8383  0.4461
   49CHL1  H16B 6055   4.194   6.347   9.053 -0.8398  3.1160 -0.2820
   49CHL1   C17 6056   4.099   6.159   9.090 -0.3194  0.0967 -0.4920
   49CHL1   H17 6057   4.205   6.149   9.123  0.3259  2.5741 -1.7329
   49CHL1   C13 6058   4.006   6.134   9.213 -0.0591 -0.8182  0.8810
   49CHL1   C18 6059   3.854   6.128   9.168  0.5100 -0.4614 -0.6761
   49CHL1  H18A 6060   3.816   6.221   9.121 -0.3015 -0.7525 -0.5895
   49CHL1  H18B 6061   3.831   6.041   9.102 -1.8698 -0.6939  0.4099
   49CHL1  H18C 6062   3.794   6.118   9.261 -0.2625  1.7121 -0.9282
   49CHL1   C12 6063   4.046   6.016   9.307  0.1011 -0.0540 -0.1199
   49CHL1  H12A 6064   4.015   5.913   9.278  2.1574 -0.5122 -0.7919
   49CHL1  H12B 6065   4.155   6.004   9.323 -0.1973  0.4371  2.4592
   49CHL1   C11 6066   3.979   6.043   9.445 -0.5308  0.3993  0.4069
   49CHL1  H11A 6067   3.868   6.038   9.438 -0.5039 -0.4551  0.5251
   49CHL1  H11B 6068   4.026   5.966   9.509  1.3636  0.3201 -1.0428
   49CHL1    C9 6069   3.986   6.191   9.508 -0.0691  0.6367  0.6574
   49CHL1    H9 6070   4.095   6.207   9.523 -0.3024  0.8258  2.3404
   49CHL1   C10 6071   3.909   6.202   9.639 -0.5022  0.8124  0.2862
   49CHL1   C19 6072   3.772   6.149   9.628  0.1810 -0.3165 -0.5691
   49CHL1  H19A 6073   3.721   6.198   9.542  2.4314  0.1149 -1.7013
   49CHL1  H19B 6074   3.766   6.043   9.595  0.3616 -0.1305 -1.2141
   49CHL1  H19C 6075   3.698   6.171   9.708  1.2476  1.5939 -0.0645
   49CHL1    C1 6076   3.971   6.111   9.755  0.3024 -0.2463 -0.1283
   49CHL1   H1A 6077   3.969   6.000   9.752 -1.2501 -0.3424  2.6375
   49CHL1   H1B 6078   4.078   6.136   9.775  0.0400  0.3134  0.6405
   49CHL1    C2 6079   3.901   6.142   9.892  0.6737  0.5962 -0.2327
   49CHL1   H2A 6080   3.953   6.091   9.975  0.4662 -3.9120 -2.7095
   49CHL1   H2B 6081   3.798   6.100   9.884  1.3991 -1.3091  0.1190
   49CHL1   C20 6082   4.087   6.063   8.969 -0.4568 -0.5341 -0.2298
   49CHL1   H20 6083   3.981   6.070   8.935  0.0172  3.0867 -1.1344
   49CHL1   C21 6084   4.123   5.921   9.008  0.1470  0.3473  0.3435
   49CHL1  H21A 6085   4.159   5.854   8.927 -1.9963 -1.5006  0.8810
   49CHL1  H21B 6086   4.029   5.882   9.052  0.5533 -0.7821  0.2292
   49CHL1  H21C 6087   4.193   5.918   9.094  0.7334 -0.9234 -0.1667
   49CHL1   C22 6088   4.169   6.107   8.846 -0.3414 -0.3124  0.1880
   49CHL1  H22A 6089   4.150   6.216   8.830 -1.5306 -0.3602  1.2085
   49CHL1  H22B 6090   4.272   6.079   8.877  0.3218  1.7692 -0.0055
   49CHL1   C23 6091   4.130   6.035   8.714 -0.0884 -0.1877 -0.2435
   49CHL1  H23A 6092   4.116   5.925   8.723 -0.0101 -0.3059 -1.6058
   49CHL1  H23B 6093   4.032   6.081   8.689 -1.3334 -1.8003  1.4881
   49CHL1   C24 6094   4.228   6.032   8.599 -0.5467  1.0674 -0.1229
   49CHL1  H24A 6095   4.241   6.136   8.563  0.7413  0.4089 -1.6000
   49CHL1  H24B 6096   4.319   6.000   8.654 -2.2161 -0.9644  1.5734
   49CHL1   C25 6097   4.189   5.932   8.487 -0.1928  0.1081 -0.1725
   49CHL1   H25 6098   4.162   5.830   8.522  0.1987  0.3122  0.7637
   49CHL1   C26 6099   4.075   5.993   8.410  0.4828 -0.3365 -0.1117
   49CHL1  H26A 6100   3.987   6.012   8.475  0.4775  1.5370 -0.6365
   49CHL1  H26B 6101   4.108   6.089   8.364  2.0929 -1.3191 -1.0636
   49CHL1  H26C 6102   4.058   5.913   8.335  0.5071  0.2721 -0.7693
   49CHL1   C27 6103   4.307   5.905   8.390  0.6141  0.2805  0.9128
   49CHL1  H27A 6104   4.267   5.869   8.293 -1.1714  1.1396  1.3037
   49CHL1  H27B 6105   4.362   5.996   8.359  0.6414  0.4918  1.5878
   49CHL1  H27C 6106   4.378   5.829   8.430  1.3475  0.7231  0.4511
   50CHL1    C3 6107   0.156   0.589  10.218  0.6144 -1.0152  0.8439
   50CHL1    H3 6108   0.108   0.504  10.167 -0.5658 -0.0962  0.4043
   50CHL1    O3 6109   0.099   0.612  10.345  0.4789 -0.5787 -0.1461
   50CHL1   H3' 6110   0.129   0.698  10.375  1.0992 -0.9398  0.2812
   50CHL1    C4 6111   0.307   0.577  10.231 -0.5474  0.3373 -0.4759
   50CHL1   H4A 6112   0.346   0.659  10.296  2.8319 -2.3265  0.9977
   50CHL1   H4B 6113   0.325   0.486  10.292 -0.5489  0.6924  0.0679
   50CHL1    C5 6114   0.377   0.566  10.092 -0.0768 -0.0400 -0.1521
   50CHL1    C6 6115   0.451   0.465  10.062  0.7093 -0.0427 -0.2188
   50CHL1    H6 6116   0.484   0.395  10.140 -1.6590 -1.0025 -0.0338
   50CHL1    C7 6117   0.537   0.453   9.943 -0.2763 -0.4524  0.2479
   50CHL1   H7A 6118   0.642   0.433   9.974 -0.4932 -0.5954  0.8884
   50CHL1   H7B 6119   0.494   0.376   9.876 -1.2521  1.1397 -1.0025
   50CHL1    C8 6120   0.541   0.597   9.869  0.4944  0.0860 -0.2673
   50CHL1    H8 6121   0.609   0.663   9.926  1.9578  0.3497 -2.2489
   50CHL1   C14 6122   0.610   0.578   9.732  0.2798  0.7188  0.3736
   50CHL1   H14 6123   0.552   0.497   9.682  0.5574  0.4450  0.4913
   50CHL1   C15 6124   0.760   0.519   9.724 -0.6457 -0.2530 -0.2695
   50CHL1  H15A 6125   0.824   0.573   9.798 -2.6937  1.5970  0.2372
   50CHL1  H15B 6126   0.766   0.410   9.742  0.2024 -0.6044 -2.5603
   50CHL1   C16 6127   0.797   0.567   9.580 -0.0623  0.2008 -0.0157
   50CHL1  H16A 6128   0.889   0.630   9.582  1.4400 -1.9819  1.9191
   50CHL1  H16B 6129   0.820   0.483   9.511 -0.3792 -2.2041  2.7112
   50CHL1   C17 6130   0.675   0.640   9.511 -0.8428  0.0755 -0.0551
   50CHL1   H17 6131   0.612   0.567   9.455  0.4812 -0.5937 -0.6719
   50CHL1   C13 6132   0.598   0.696   9.627  0.4438  0.5464 -0.0809
   50CHL1   C18 6133   0.674   0.817   9.683 -0.6511  0.1393  0.5249
   50CHL1  H18A 6134   0.647   0.847   9.787  0.0268  0.6435  0.5640
   50CHL1  H18B 6135   0.781   0.791   9.700 -0.4440  1.0681  0.6806
   50CHL1  H18C 6136   0.671   0.906   9.617  1.9947  0.0463  0.1977
   50CHL1   C12 6137   0.447   0.724   9.611 -0.7916  0.0740  0.1271
   50CHL1  H12A 6138   0.430   0.817   9.553  0.7431 -0.8528 -1.8922
   50CHL1  H12B 6139   0.402   0.637   9.557  0.8571 -0.1766 -0.9152
   50CHL1   C11 6140   0.377   0.755   9.745 -1.3536  0.3195 -0.2861
   50CHL1  H11A 6141   0.421   0.851   9.780 -0.9194 -0.3495  1.0657
   50CHL1  H11B 6142   0.269   0.774   9.733 -1.3368  3.1102  3.3404
   50CHL1    C9 6143   0.400   0.647   9.849  0.1135 -0.1000 -0.5635
   50CHL1    H9 6144   0.339   0.565   9.806 -1.1243  0.7924 -0.5496
   50CHL1   C10 6145   0.336   0.678   9.988 -0.1135  0.0896 -0.2323
   50CHL1   C19 6146   0.380   0.814  10.038  0.2799  0.2076 -0.2721
   50CHL1  H19A 6147   0.342   0.892   9.969 -1.4022 -0.4674 -0.1409
   50CHL1  H19B 6148   0.340   0.846  10.136 -1.0835 -0.8923 -0.4488
   50CHL1  H19C 6149   0.491   0.822  10.046  0.2994  1.6645 -1.6809
   50CHL1    C1 6150   0.180   0.678   9.980  0.6358  0.1521  0.5940
   50CHL1   H1A 6151   0.147   0.765   9.919  0.5690 -0.9203 -0.9032
   50CHL1   H1B 6152   0.134   0.588   9.935  0.0928 -1.2072  3.7166
   50CHL1    C2 6153   0.122   0.704  10.118  0.2640 -0.1013 -0.0543
   50CHL1   H2A 6154   0.012   0.701  10.104  0.3022  1.0176 -0.6445
   50CHL1   H2B 6155   0.146   0.805  10.159  2.2818 -1.3405  1.9435
   50CHL1   C20 6156   0.733   0.742   9.399 -0.4558  0.0300 -0.7375
   50CHL1   H20 6157   0.805   0.810   9.448 -0.3321 -0.0692 -0.7804
   50CHL1   C21 6158   0.618   0.832   9.341 -0.5693  0.1347  0.3723
   50CHL1  H21A 6159   0.578   0.898   9.421  0.1692 -0.4377  1.2368
   50CHL1  H21B 6160   0.536   0.783   9.285 -0.1643 -0.2980  0.1572
   50CHL1  H21C 6161   0.655   0.894   9.257 -1.7326 -1.8437 -1.6306
   50CHL1   C22 6162   0.803   0.661   9.286  0.1905 -0.8068  0.3713
   50CHL1  H22A 6163   0.862   0.582   9.338  1.2608 -0.4093 -0.2244
   50CHL1  H22B 6164   0.736   0.603   9.220  1.5195  0.2585 -1.9760
   50CHL1   C23 6165   0.896   0.739   9.197  0.3311  0.5299 -0.0731
   50CHL1  H23A 6166   0.839   0.828   9.162  0.8343  1.3631  1.2191
   50CHL1  H23B 6167   0.987   0.771   9.252 -0.2161  0.5798  0.8210
   50CHL1   C24 6168   0.932   0.650   9.080 -0.5625  1.0428 -0.0532
   50CHL1  H24A 6169   0.971   0.551   9.114  1.3098  1.6445 -0.3537
   50CHL1  H24B 6170   0.850   0.635   9.007 -0.9670 -2.2009  0.9972
   50CHL1   C25 6171   1.046   0.706   8.997  0.0351  0.3206 -0.6637
   50CHL1   H25 6172   1.139   0.699   9.057 -0.4923  0.0154  0.1132
   50CHL1   C26 6173   1.075   0.631   8.861 -0.2460  0.2715 -0.5684
   50CHL1  H26A 6174   1.175   0.652   8.817 -1.0932 -0.6530 -3.0159
   50CHL1  H26B 6175   1.071   0.520   8.870  1.4956  0.3962  2.3269
   50CHL1  H26C 6176   1.005   0.665   8.782 -0.8567 -0.2148 -0.2351
   50CHL1   C27 6177   1.022   0.853   8.957  0.1266  0.5478 -0.4018
   50CHL1  H27A 6178   0.915   0.865   8.928 -0.4321  3.0522  2.4806
   50CHL1  H27B 6179   1.013   0.905   9.054  2.2476 -0.9539  0.6212
   50CHL1  H27C 6180   1.092   0.900   8.885  0.2588  1.5522  0.3764
   51CHL1    C3 6181   1.318   3.785  10.212 -0.0003  0.3979 -0.3958
   51CHL1    H3 6182   1.250   3.873  10.204 -1.3599 -0.5782  0.1829
   51CHL1    O3 6183   1.304   3.725  10.340 -0.9553  0.9349 -0.0585
   51CHL1   H3' 6184   1.225   3.670  10.333 -0.7466  0.7267 -0.8443
   51CHL1    C4 6185   1.276   3.679  10.113 -0.1385 -0.2531 -0.0727
   51CHL1   H4A 6186   1.347   3.594  10.123  0.5183  0.3717  0.7029
   51CHL1   H4B 6187   1.172   3.644  10.129 -1.3857  3.0903 -0.5084
   51CHL1    C5 6188   1.295   3.731   9.972 -0.0320  0.1629 -0.1760
   51CHL1    C6 6189   1.189   3.741   9.887 -0.0736  0.2900  0.0288
   51CHL1    H6 6190   1.089   3.706   9.920 -0.2194 -0.1573 -0.8698
   51CHL1    C7 6191   1.202   3.788   9.745  0.1734 -0.8182 -0.8117
   51CHL1   H7A 6192   1.132   3.728   9.682  0.1343 -0.9704 -0.6232
   51CHL1   H7B 6193   1.168   3.894   9.745 -0.3028 -0.9480  1.2345
   51CHL1    C8 6194   1.357   3.780   9.703 -0.2564  0.1317 -0.0363
   51CHL1    H8 6195   1.380   3.671   9.703  0.2004  0.2290  0.1569
   51CHL1   C14 6196   1.391   3.823   9.558 -0.1388 -0.6184 -0.4666
   51CHL1   H14 6197   1.350   3.926   9.556 -3.1385 -1.7775 -2.8862
   51CHL1   C15 6198   1.315   3.759   9.442 -0.2954 -0.3899 -0.2420
   51CHL1  H15A 6199   1.316   3.651   9.465 -0.4478 -0.0192  1.5893
   51CHL1  H15B 6200   1.208   3.789   9.440 -0.8979 -2.4965 -1.0863
   51CHL1   C16 6201   1.400   3.805   9.317 -0.3966  0.7869  0.6431
   51CHL1  H16A 6202   1.421   3.717   9.253  0.7659  0.0178  2.0494
   51CHL1  H16B 6203   1.343   3.887   9.270  0.5209 -0.3419 -2.5258
   51CHL1   C17 6204   1.531   3.876   9.375 -0.3731  0.1776  0.5839
   51CHL1   H17 6205   1.515   3.986   9.383  0.0766  0.1476  1.8848
   51CHL1   C13 6206   1.544   3.831   9.515 -0.2575  0.6239 -0.2112
   51CHL1   C18 6207   1.601   3.680   9.512 -0.3657 -0.0374  0.4428
   51CHL1  H18A 6208   1.708   3.667   9.486 -0.4174 -0.4846  0.4519
   51CHL1  H18B 6209   1.579   3.634   9.611 -0.6946 -2.7745 -0.8663
   51CHL1  H18C 6210   1.537   3.626   9.440  1.1830  1.8126 -2.3997
   51CHL1   C12 6211   1.609   3.934   9.610  0.2357 -0.1409 -0.9167
   51CHL1  H12A 6212   1.717   3.951   9.587 -0.2923  2.6928 -1.5200
   51CHL1  H12B 6213   1.556   4.032   9.602  0.2111 -0.1390 -0.7253
   51CHL1   C11 6214   1.592   3.889   9.758  0.6081  0.2338  0.5638
   51CHL1  H11A 6215   1.654   3.797   9.756 -2.0539 -1.6868  2.3136
   51CHL1  H11B 6216   1.629   3.963   9.832 -3.0126  1.0792  1.6007
   51CHL1    C9 6217   1.444   3.855   9.803 -0.1937 -0.8791 -0.0301
   51CHL1    H9 6218   1.410   3.960   9.797  0.5679 -0.6496 -0.3769
   51CHL1   C10 6219   1.432   3.785   9.937 -0.8862 -0.7206  0.9446
   51CHL1   C19 6220   1.531   3.670   9.936 -0.3717 -0.2797 -0.3149
   51CHL1  H19A 6221   1.516   3.601  10.022 -2.7099 -0.4745 -0.8493
   51CHL1  H19B 6222   1.529   3.616   9.839 -0.9071  2.2572 -1.7493
   51CHL1  H19C 6223   1.631   3.719   9.938 -1.4407  1.9409  0.2666
   51CHL1    C1 6224   1.472   3.890  10.046  0.1724 -0.8629 -0.3187
   51CHL1   H1A 6225   1.576   3.926  10.031  0.2419 -0.1616  1.6883
   51CHL1   H1B 6226   1.404   3.977  10.037  3.4799  1.8206 -0.2488
   51CHL1    C2 6227   1.460   3.844  10.192 -0.3808  0.2451 -0.3678
   51CHL1   H2A 6228   1.479   3.920  10.271 -0.0716 -1.1744  0.9662
   51CHL1   H2B 6229   1.523   3.753  10.201  0.6960  1.1879  2.1819
   51CHL1   C20 6230   1.647   3.852   9.269  0.2998 -0.0159 -0.4294
   51CHL1   H20 6231   1.664   3.743   9.251  2.4084  0.1985  0.1568
   51CHL1   C21 6232   1.787   3.908   9.315  0.4691  0.2623 -0.3639
   51CHL1  H21A 6233   1.812   3.844   9.403 -2.4710 -2.1274 -1.2094
   51CHL1  H21B 6234   1.788   4.016   9.340 -0.5952  0.1678  0.1059
   51CHL1  H21C 6235   1.865   3.906   9.236  1.3263  1.4102  0.4198
   51CHL1   C22 6236   1.618   3.917   9.132  0.5069 -0.4578  0.3822
   51CHL1  H22A 6237   1.510   3.909   9.105 -0.2729  3.5146  1.9903
   51CHL1  H22B 6238   1.629   4.026   9.145 -0.7948 -0.3206  0.4443
   51CHL1   C23 6239   1.714   3.867   9.015  0.7607  0.7329 -0.0047
   51CHL1  H23A 6240   1.812   3.917   9.028  1.2558  0.2008 -1.5844
   51CHL1  H23B 6241   1.730   3.757   9.020  0.1485  0.5530 -1.6828
   51CHL1   C24 6242   1.661   3.916   8.883 -0.0812  0.7527  0.8676
   51CHL1  H24A 6243   1.559   3.875   8.866 -0.0759  1.2924 -0.5716
   51CHL1  H24B 6244   1.638   4.024   8.889  0.2807  0.9374 -0.7944
   51CHL1   C25 6245   1.757   3.906   8.760 -0.0542  0.2132 -0.4753
   51CHL1   H25 6246   1.859   3.945   8.780 -0.6761  1.5113  0.2128
   51CHL1   C26 6247   1.756   3.768   8.696 -0.3202  0.3019  0.0187
   51CHL1  H26A 6248   1.649   3.740   8.680 -0.7696  2.0333 -0.0749
   51CHL1  H26B 6249   1.801   3.783   8.596  0.0559  0.5836  0.2304
   51CHL1  H26C 6250   1.804   3.688   8.757 -1.0225 -0.2120 -0.0912
   51CHL1   C27 6251   1.707   4.004   8.645 -0.0647 -0.5289  0.0448
   51CHL1  H27A 6252   1.669   4.097   8.693  1.6609 -0.1192  0.6737
   51CHL1  H27B 6253   1.796   4.041   8.589 -0.8031  0.6458 -0.3541
   51CHL1  H27C 6254   1.633   3.962   8.574 -0.0517 -1.1921  0.4244
   52CHL1    C3 6255   4.934   2.255   9.937  0.4849 -0.2312  0.4759
   52CHL1    H3 6256   4.976   2.335   9.873  3.2162 -2.5939 -0.8310
   52CHL1    O3 6257   4.935   2.285  10.076 -0.0101  0.3570 -0.2805
   52CHL1   H3' 6258   5.026   2.291  10.105  0.3142  0.6579 -1.3429
   52CHL1    C4 6259   4.791   2.218   9.893  0.4229  0.0260  0.1109
   52CHL1   H4A 6260   4.757   2.139   9.964  0.5211  1.2168  1.5160
   52CHL1   H4B 6261   4.731   2.309   9.915 -1.4769 -1.4621  1.2667
   52CHL1    C5 6262   4.787   2.180   9.752  0.5213  0.6530  0.1483
   52CHL1    C6 6263   4.713   2.252   9.659 -0.3862 -0.1582 -0.1046
   52CHL1    H6 6264   4.641   2.328   9.693 -1.5305 -0.5921 -1.5465
   52CHL1    C7 6265   4.702   2.221   9.516  0.6440  0.3001  0.0710
   52CHL1   H7A 6266   4.596   2.233   9.485  0.8958 -0.8553 -1.2924
   52CHL1   H7B 6267   4.763   2.294   9.459 -2.0148  2.8320  0.3461
   52CHL1    C8 6268   4.749   2.079   9.486 -0.1867 -0.0181  0.0859
   52CHL1    H8 6269   4.666   2.019   9.529  0.3835 -0.3875  0.6916
   52CHL1   C14 6270   4.773   2.064   9.339  0.8140  1.1112 -0.3710
   52CHL1   H14 6271   4.858   2.132   9.316 -0.1451  2.2858 -0.5436
   52CHL1   C15 6272   4.662   2.112   9.247 -0.7060 -0.2058  0.2833
   52CHL1  H15A 6273   4.569   2.066   9.286 -0.6070 -2.4862 -2.0378
   52CHL1  H15B 6274   4.655   2.223   9.242 -0.0036 -0.1481  0.5493
   52CHL1   C16 6275   4.696   2.055   9.106  0.8803  0.0374  0.4267
   52CHL1  H16A 6276   4.604   1.997   9.084 -0.2232  1.1050  2.1482
   52CHL1  H16B 6277   4.708   2.121   9.017 -1.7447 -0.2968 -0.2232
   52CHL1   C17 6278   4.815   1.963   9.136 -0.2808 -0.1257 -0.3046
   52CHL1   H17 6279   4.903   2.025   9.111 -1.4410  1.3943 -0.6501
   52CHL1   C13 6280   4.820   1.933   9.285 -0.1975  1.1506 -0.1337
   52CHL1   C18 6281   4.714   1.822   9.317  0.6143 -0.0028  0.1523
   52CHL1  H18A 6282   4.686   1.816   9.425  0.9619  0.6905  0.2816
   52CHL1  H18B 6283   4.621   1.837   9.259  0.6359  2.1509  0.6437
   52CHL1  H18C 6284   4.754   1.722   9.290 -2.4002 -1.0763 -0.5413
   52CHL1   C12 6285   4.950   1.888   9.354  0.3493 -0.3454 -0.1166
   52CHL1  H12A 6286   4.967   1.782   9.327 -0.6731 -0.2822 -1.0299
   52CHL1  H12B 6287   5.033   1.939   9.299  0.4643 -2.4253 -1.9154
   52CHL1   C11 6288   4.942   1.904   9.503 -0.1862  0.1610 -0.3056
   52CHL1  H11A 6289   4.880   1.816   9.531  0.1959  0.3195  1.0495
   52CHL1  H11B 6290   5.046   1.889   9.539  0.5798 -0.4760 -2.6692
   52CHL1    C9 6291   4.883   2.045   9.554 -0.3449  0.9495  0.4127
   52CHL1    H9 6292   4.952   2.121   9.511 -0.9200  0.9288 -0.5783
   52CHL1   C10 6293   4.881   2.059   9.713  1.1048  0.7501  0.5835
   52CHL1   C19 6294   4.803   1.940   9.775 -0.2381 -0.0700 -0.0475
   52CHL1  H19A 6295   4.782   1.957   9.882 -2.2484 -1.6081 -0.1560
   52CHL1  H19B 6296   4.709   1.931   9.717 -0.3153  2.8133 -0.4374
   52CHL1  H19C 6297   4.847   1.839   9.763 -0.4198 -0.1122 -0.3700
   52CHL1    C1 6298   5.013   2.079   9.769  0.2567  0.0682  0.1152
   52CHL1   H1A 6299   5.066   1.981   9.770 -0.1409 -0.1548  1.5698
   52CHL1   H1B 6300   5.068   2.153   9.707  0.8915 -1.0807 -0.7126
   52CHL1    C2 6301   5.018   2.130   9.916  0.7287  0.2061  0.4484
   52CHL1   H2A 6302   5.125   2.157   9.936  1.3253  0.5217 -2.9698
   52CHL1   H2B 6303   4.985   2.044   9.978  0.9951 -0.1065  0.1620
   52CHL1   C20 6304   4.817   1.841   9.036 -0.2218  0.4439  0.1705
   52CHL1   H20 6305   4.728   1.779   9.063  0.2378 -1.6712 -2.9210
   52CHL1   C21 6306   4.947   1.759   9.056 -0.3705  0.4415 -0.3396
   52CHL1  H21A 6307   4.925   1.701   9.148  3.1310 -0.3153  0.1045
   52CHL1  H21B 6308   5.044   1.812   9.067  0.2610 -0.5579 -0.9661
   52CHL1  H21C 6309   4.973   1.683   8.979  0.7287  2.0977 -1.6629
   52CHL1   C22 6310   4.812   1.870   8.882  0.0542  0.0679 -0.4889
   52CHL1  H22A 6311   4.732   1.945   8.862 -1.2081 -0.9232  0.7934
   52CHL1  H22B 6312   4.907   1.920   8.851 -1.1249  1.4436 -1.9770
   52CHL1   C23 6313   4.780   1.746   8.804  0.2498 -0.6285  0.6012
   52CHL1  H23A 6314   4.868   1.679   8.806  1.3209  0.7258 -0.0251
   52CHL1  H23B 6315   4.710   1.682   8.861 -1.3819  0.5589 -0.0175
   52CHL1   C24 6316   4.746   1.783   8.655  0.0925 -0.0232  0.0698
   52CHL1  H24A 6317   4.665   1.859   8.653  0.0250 -0.0923  0.1599
   52CHL1  H24B 6318   4.830   1.837   8.607 -1.4733  1.1393 -1.4158
   52CHL1   C25 6319   4.705   1.664   8.572  0.3139  0.2182 -0.1548
   52CHL1   H25 6320   4.611   1.627   8.617 -0.0190  0.0542 -0.9759
   52CHL1   C26 6321   4.671   1.705   8.433 -0.6395  0.0595  0.1011
   52CHL1  H26A 6322   4.655   1.620   8.364  2.2945 -2.9567  3.0012
   52CHL1  H26B 6323   4.578   1.765   8.422 -0.1538  1.1084  1.4836
   52CHL1  H26C 6324   4.752   1.773   8.397  1.2063 -1.9984  0.2801
   52CHL1   C27 6325   4.815   1.560   8.565 -0.2597  0.2683  0.9340
   52CHL1  H27A 6326   4.785   1.473   8.503 -0.2808  0.6232  0.4426
   52CHL1  H27B 6327   4.896   1.611   8.508 -1.5163  0.1361 -1.0135
   52CHL1  H27C 6328   4.855   1.512   8.657  0.9536  1.5009  1.0539
   53CHL1    C3 6329   6.331   1.634   9.942  0.4243  0.8459  0.8880
   53CHL1    H3 6330   6.348   1.525   9.932  0.0546  0.9114 -0.6757
   53CHL1    O3 6331   6.317   1.646  10.080  0.5272 -0.1488 -0.2391
   53CHL1   H3' 6332   6.387   1.596  10.122  0.3005  1.2153  1.8484
   53CHL1    C4 6333   6.467   1.709   9.913  0.3816 -1.3966  0.9256
   53CHL1   H4A 6334   6.453   1.813   9.947 -0.2973 -0.7770 -1.2105
   53CHL1   H4B 6335   6.553   1.680   9.977  1.3604 -1.4853 -0.4037
   53CHL1    C5 6336   6.485   1.692   9.761  0.2319 -0.2051  0.0032
   53CHL1    C6 6337   6.587   1.622   9.704  0.2182 -1.2163 -0.2957
   53CHL1    H6 6338   6.672   1.577   9.757  0.0231  0.4458  1.4563
   53CHL1    C7 6339   6.610   1.620   9.555  0.3246  0.2565  0.2232
   53CHL1   H7A 6340   6.717   1.638   9.532  1.0094 -1.5767  1.8464
   53CHL1   H7B 6341   6.596   1.513   9.526 -0.6053  0.8526 -1.5894
   53CHL1    C8 6342   6.535   1.729   9.475 -0.3235 -0.2209  0.3869
   53CHL1    H8 6343   6.560   1.835   9.495 -0.8107  0.2728 -1.5595
   53CHL1   C14 6344   6.544   1.703   9.327 -0.1022 -0.8193  0.1280
   53CHL1   H14 6345   6.494   1.606   9.308 -2.8635  1.2393 -3.9676
   53CHL1   C15 6346   6.682   1.707   9.251 -0.0523  0.9101 -0.1030
   53CHL1  H15A 6347   6.754   1.789   9.271  1.6746 -0.9452  1.6026
   53CHL1  H15B 6348   6.745   1.617   9.269 -0.3794  0.3355 -1.7395
   53CHL1   C16 6349   6.643   1.691   9.105 -0.0332 -0.3464 -0.0537
   53CHL1  H16A 6350   6.697   1.770   9.049 -1.0785  0.3729 -0.0674
   53CHL1  H16B 6351   6.664   1.590   9.062  0.8944 -0.4316  0.5936
   53CHL1   C17 6352   6.488   1.725   9.098  0.2778 -0.8427 -0.2086
   53CHL1   H17 6353   6.446   1.622   9.091 -0.4814 -0.5487 -0.0777
   53CHL1   C13 6354   6.451   1.792   9.232 -0.0779  0.8363  0.6049
   53CHL1   C18 6355   6.510   1.935   9.226 -0.3025 -1.1558  0.0908
   53CHL1  H18A 6356   6.603   1.947   9.167 -0.7264 -1.6404 -0.6866
   53CHL1  H18B 6357   6.427   1.998   9.187  1.5377  0.6217 -0.9984
   53CHL1  H18C 6358   6.531   1.971   9.329 -0.0665  0.2958 -0.4612
   53CHL1   C12 6359   6.303   1.787   9.282 -0.3877  0.6342  0.3602
   53CHL1  H12A 6360   6.244   1.862   9.226  0.6741  0.6307 -0.7914
   53CHL1  H12B 6361   6.263   1.687   9.256  1.1371 -0.1062  0.7989
   53CHL1   C11 6362   6.291   1.806   9.441 -0.2125  0.3192 -1.1774
   53CHL1  H11A 6363   6.317   1.914   9.449  2.5254 -0.3694 -0.2420
   53CHL1  H11B 6364   6.183   1.791   9.464  0.1657  0.9555  1.1026
   53CHL1    C9 6365   6.394   1.721   9.522 -0.3189 -0.1618 -0.3739
   53CHL1    H9 6366   6.369   1.614   9.504  1.1122 -0.4459 -0.7598
   53CHL1   C10 6367   6.376   1.746   9.672 -0.2608 -0.3819  0.0615
   53CHL1   C19 6368   6.366   1.906   9.696  0.0515 -0.4306 -0.3597
   53CHL1  H19A 6369   6.384   1.937   9.801  1.1376  0.7757 -0.8912
   53CHL1  H19B 6370   6.442   1.954   9.631  0.8241 -1.6054 -0.3365
   53CHL1  H19C 6371   6.261   1.936   9.675  0.1906  0.6072  0.3723
   53CHL1    C1 6372   6.239   1.682   9.715 -0.2498  0.1246  0.3396
   53CHL1   H1A 6373   6.163   1.738   9.658  0.2447 -0.0669 -0.5149
   53CHL1   H1B 6374   6.245   1.585   9.661 -2.2893  0.0994  0.1507
   53CHL1    C2 6375   6.204   1.667   9.862  1.2424 -0.0763 -0.2483
   53CHL1   H2A 6376   6.124   1.593   9.886  2.1972 -1.1107 -0.2459
   53CHL1   H2B 6377   6.156   1.761   9.898  0.7327 -0.5710  0.3682
   53CHL1   C20 6378   6.436   1.788   8.964 -0.0951 -0.2934  0.0832
   53CHL1   H20 6379   6.482   1.889   8.970 -1.0250  0.1850 -0.7075
   53CHL1   C21 6380   6.282   1.799   8.965 -0.0695  0.5453  0.1241
   53CHL1  H21A 6381   6.254   1.877   9.039 -2.4910 -1.5998  1.5841
   53CHL1  H21B 6382   6.227   1.707   8.994 -2.0290  1.4314 -0.6827
   53CHL1  H21C 6383   6.240   1.824   8.866 -1.9098  0.2708  0.8216
   53CHL1   C22 6384   6.493   1.719   8.836  1.0861 -0.4106  0.3804
   53CHL1  H22A 6385   6.599   1.684   8.832  0.0586 -3.8309  1.0385
   53CHL1  H22B 6386   6.429   1.630   8.819  0.3836  0.1503  0.0643
   53CHL1   C23 6387   6.489   1.802   8.712 -0.6021  0.6589 -0.1735
   53CHL1  H23A 6388   6.382   1.813   8.684 -0.8517 -1.4148 -0.0910
   53CHL1  H23B 6389   6.533   1.904   8.710 -1.4255  1.0091 -1.8658
   53CHL1   C24 6390   6.541   1.713   8.594 -0.1447  0.4543 -0.5345
   53CHL1  H24A 6391   6.645   1.684   8.622  0.7854  1.3595 -2.9399
   53CHL1  H24B 6392   6.468   1.630   8.593  0.4348 -0.0746  0.4104
   53CHL1   C25 6393   6.548   1.774   8.457  0.0369  0.4244  0.0516
   53CHL1   H25 6394   6.596   1.874   8.469 -1.8148  1.3627 -0.1717
   53CHL1   C26 6395   6.631   1.681   8.364 -0.0627 -0.4149 -0.4941
   53CHL1  H26A 6396   6.706   1.632   8.428  0.0850  1.9641  1.2301
   53CHL1  H26B 6397   6.564   1.609   8.312  0.5553 -0.5104 -1.1741
   53CHL1  H26C 6398   6.682   1.744   8.288  0.2077 -1.1919 -0.9639
   53CHL1   C27 6399   6.406   1.799   8.396  0.0716 -0.1850 -0.4003
   53CHL1  H27A 6400   6.421   1.837   8.293  1.2105  1.5497  0.3809
   53CHL1  H27B 6401   6.340   1.710   8.394 -1.5168  0.9833 -1.9705
   53CHL1  H27C 6402   6.359   1.881   8.454 -1.2007 -0.9378 -0.3375
   54CHL1    C3 6403   6.330   2.705  10.054  0.1806  0.2052  0.3651
   54CHL1    H3 6404   6.289   2.800  10.014 -0.5230 -0.4160 -0.3853
   54CHL1    O3 6405   6.341   2.721  10.194 -0.0015  0.1495  0.3485
   54CHL1   H3' 6406   6.255   2.754  10.222 -0.3478 -0.1705 -0.3207
   54CHL1    C4 6407   6.231   2.588  10.038  0.3445 -0.4617  1.0768
   54CHL1   H4A 6408   6.258   2.497  10.097  0.2612 -0.3065  1.3522
   54CHL1   H4B 6409   6.136   2.625  10.082  0.2476 -0.0999  0.5683
   54CHL1    C5 6410   6.213   2.564   9.885  0.5282  0.0548  0.1854
   54CHL1    C6 6411   6.100   2.562   9.819 -0.8012 -0.0985  0.1660
   54CHL1    H6 6412   6.005   2.567   9.874 -1.1733  0.8670 -0.5382
   54CHL1    C7 6413   6.088   2.538   9.674 -0.5251 -0.3881 -0.1208
   54CHL1   H7A 6414   5.991   2.489   9.651 -0.4359  0.0477 -1.4313
   54CHL1   H7B 6415   6.084   2.636   9.623 -1.5252 -1.4296 -2.1054
   54CHL1    C8 6416   6.208   2.462   9.613 -0.4874  0.0765 -0.9432
   54CHL1    H8 6417   6.193   2.360   9.653  1.0573 -0.3697 -1.4797
   54CHL1   C14 6418   6.202   2.456   9.467 -0.2186 -0.2553  0.4453
   54CHL1   H14 6419   6.215   2.562   9.437 -0.4544 -0.6861 -1.2056
   54CHL1   C15 6420   6.072   2.410   9.389 -0.9470  0.0667  0.3876
   54CHL1  H15A 6421   6.014   2.329   9.439 -0.9519 -0.8924 -1.1217
   54CHL1  H15B 6422   6.012   2.503   9.389 -0.2543  0.5138  0.6968
   54CHL1   C16 6423   6.126   2.362   9.260 -0.2456 -0.2832  0.0168
   54CHL1  H16A 6424   6.122   2.252   9.243 -0.0713  0.1102 -2.8816
   54CHL1  H16B 6425   6.079   2.415   9.175  1.2561 -1.0292 -1.2983
   54CHL1   C17 6426   6.280   2.396   9.253 -0.3651 -0.6375 -0.5541
   54CHL1   H17 6427   6.290   2.501   9.216  1.7159 -0.9625 -0.9986
   54CHL1   C13 6428   6.323   2.379   9.399 -0.9928 -0.6205 -0.5557
   54CHL1   C18 6429   6.319   2.226   9.429 -0.2642 -0.2845 -0.2659
   54CHL1  H18A 6430   6.334   2.216   9.539  0.6671 -3.0380 -0.6027
   54CHL1  H18B 6431   6.222   2.183   9.398 -1.2891  2.0997 -0.5009
   54CHL1  H18C 6432   6.404   2.169   9.386  0.4854  0.3191  0.3911
   54CHL1   C12 6433   6.454   2.445   9.441 -0.0255 -0.2012 -0.4530
   54CHL1  H12A 6434   6.549   2.404   9.400  0.9471 -1.6837  3.1213
   54CHL1  H12B 6435   6.456   2.550   9.404  0.4996 -0.2148 -0.4737
   54CHL1   C11 6436   6.470   2.454   9.596  0.3102  0.3326 -0.0169
   54CHL1  H11A 6437   6.474   2.349   9.633  1.9405  0.1150 -0.7659
   54CHL1  H11B 6438   6.565   2.496   9.637  1.0642 -0.0867 -1.3006
   54CHL1    C9 6439   6.339   2.519   9.658 -0.4953  0.0363 -0.6003
   54CHL1    H9 6440   6.338   2.621   9.616 -0.4532  0.3671  0.2026
   54CHL1   C10 6441   6.350   2.537   9.809  0.6541  0.1146 -0.3124
   54CHL1   C19 6442   6.404   2.403   9.861 -0.2088 -0.6904 -0.4673
   54CHL1  H19A 6443   6.359   2.316   9.811  1.6293 -1.4893 -0.7873
   54CHL1  H19B 6444   6.513   2.394   9.842  0.1567 -0.7327  1.5726
   54CHL1  H19C 6445   6.386   2.388   9.969 -1.1065  1.4174 -0.2939
   54CHL1    C1 6446   6.450   2.654   9.839 -0.4927 -0.7037 -0.2327
   54CHL1   H1A 6447   6.545   2.634   9.786  0.6133  0.8725  1.0842
   54CHL1   H1B 6448   6.400   2.740   9.789 -0.2809 -1.1763 -1.2708
   54CHL1    C2 6449   6.470   2.688   9.987 -0.3899 -0.0365  0.1681
   54CHL1   H2A 6450   6.539   2.774  10.000  0.6114 -0.8363  0.1911
   54CHL1   H2B 6451   6.519   2.594  10.021 -0.7114 -0.2080  0.1603
   54CHL1   C20 6452   6.341   2.310   9.138  0.4490  0.3586  0.9804
   54CHL1   H20 6453   6.328   2.203   9.166  1.1074 -0.5997 -2.2190
   54CHL1   C21 6454   6.492   2.344   9.125 -0.4958 -0.1714  0.2468
   54CHL1  H21A 6455   6.555   2.319   9.214  1.1180 -1.4192 -1.2018
   54CHL1  H21B 6456   6.503   2.454   9.112  1.7213 -0.6806 -2.6934
   54CHL1  H21C 6457   6.527   2.288   9.036 -0.1323  0.3784  0.0423
   54CHL1   C22 6458   6.264   2.325   9.002 -0.0928  0.0325 -0.0822
   54CHL1  H22A 6459   6.169   2.269   9.016 -0.1877  0.6214  1.7766
   54CHL1  H22B 6460   6.245   2.430   8.972  0.8770  0.1639 -0.2663
   54CHL1   C23 6461   6.331   2.255   8.881  0.5819 -0.6499  0.2810
   54CHL1  H23A 6462   6.405   2.328   8.841  0.2282 -0.9623 -0.9618
   54CHL1  H23B 6463   6.382   2.163   8.918  1.4142  0.1079  1.0187
   54CHL1   C24 6464   6.212   2.232   8.771 -0.1910 -0.3605 -0.6598
   54CHL1  H24A 6465   6.118   2.202   8.823 -0.8081 -1.3240 -2.2820
   54CHL1  H24B 6466   6.190   2.334   8.734 -0.4313  0.7098  2.3160
   54CHL1   C25 6467   6.248   2.138   8.658  0.2819  0.5071 -0.2278
   54CHL1   H25 6468   6.242   2.030   8.684 -3.0270  1.2451  2.4763
   54CHL1   C26 6469   6.137   2.132   8.551  0.3578 -0.2401  0.0739
   54CHL1  H26A 6470   6.125   2.230   8.501 -1.0641 -0.8969 -0.9058
   54CHL1  H26B 6471   6.161   2.048   8.482 -0.4432 -0.0008 -0.5012
   54CHL1  H26C 6472   6.048   2.106   8.611  0.3317  0.1080  0.1860
   54CHL1   C27 6473   6.388   2.153   8.605 -0.2063  0.6054  0.5006
   54CHL1  H27A 6474   6.414   2.069   8.538  0.9166  0.7009  0.7966
   54CHL1  H27B 6475   6.412   2.249   8.555  0.2864 -0.1347 -0.6814
   54CHL1  H27C 6476   6.453   2.127   8.692 -1.4070 -3.4740  0.2692
   55CHL1    C3 6477   6.774   6.793  10.129 -0.1255  0.2569  0.5001
   55CHL1    H3 6478   6.683   6.749  10.083  0.6005  0.3261 -1.0195
   55CHL1    O3 6479   6.809   6.731  10.256 -0.2094 -0.0404 -0.0727
   55CHL1   H3' 6480   6.891   6.682  10.251 -1.4119 -2.0230 -1.5115
   55CHL1    C4 6481   6.901   6.783  10.043 -0.1492  0.2366 -0.5642
   55CHL1   H4A 6482   6.990   6.832  10.087 -1.1349  0.2024  1.5327
   55CHL1   H4B 6483   6.919   6.674  10.035  1.2558  0.5750 -2.2329
   55CHL1    C5 6484   6.888   6.856   9.906  0.2879  0.8114 -0.0880
   55CHL1    C6 6485   6.889   6.785   9.794 -0.2530  0.9404 -0.0623
   55CHL1    H6 6486   6.917   6.679   9.803 -1.0481  0.6675 -0.7775
   55CHL1    C7 6487   6.859   6.844   9.661  0.0681 -0.3349  0.2477
   55CHL1   H7A 6488   6.938   6.803   9.595  0.2510 -1.0404  0.8960
   55CHL1   H7B 6489   6.753   6.819   9.639  0.1376  0.5896 -1.2115
   55CHL1    C8 6490   6.873   6.999   9.656  0.2595  0.0467 -0.1349
   55CHL1    H8 6491   6.978   7.034   9.651  1.0604 -2.4422 -2.3989
   55CHL1   C14 6492   6.806   7.049   9.526  0.4301  0.1810 -0.6774
   55CHL1   H14 6493   6.700   7.017   9.528  0.4571  0.1359  0.1124
   55CHL1   C15 6494   6.879   7.006   9.394 -0.7283 -0.2759 -0.4900
   55CHL1  H15A 6495   6.989   7.014   9.410 -0.7379  1.1272 -1.1533
   55CHL1  H15B 6496   6.849   6.903   9.365  2.6728 -1.6177  0.5083
   55CHL1   C16 6497   6.837   7.106   9.294  0.7080 -0.6672  0.2276
   55CHL1  H16A 6498   6.924   7.155   9.246 -0.1573 -2.5495 -3.4917
   55CHL1  H16B 6499   6.778   7.051   9.217  0.3494 -2.6131  1.8412
   55CHL1   C17 6500   6.751   7.211   9.378  0.2524  0.5857 -0.0510
   55CHL1   H17 6501   6.650   7.167   9.390  1.4880 -1.8994  1.5265
   55CHL1   C13 6502   6.804   7.202   9.521 -1.3087  0.3858 -0.0957
   55CHL1   C18 6503   6.944   7.258   9.525 -0.3018 -0.5936 -0.4160
   55CHL1  H18A 6504   6.928   7.365   9.551 -3.2609 -0.3589 -2.8825
   55CHL1  H18B 6505   7.011   7.221   9.605 -1.8737 -1.4824  0.5200
   55CHL1  H18C 6506   7.007   7.252   9.434  0.0886  1.2564 -0.2728
   55CHL1   C12 6507   6.716   7.250   9.633  0.2501  0.6410  0.1643
   55CHL1  H12A 6508   6.709   7.361   9.628 -1.6223  0.5135 -0.2983
   55CHL1  H12B 6509   6.614   7.207   9.631  1.0466 -1.3327  1.1473
   55CHL1   C11 6510   6.777   7.209   9.766  0.0846 -0.3115 -0.5479
   55CHL1  H11A 6511   6.877   7.256   9.778 -0.4582  0.3431  1.5842
   55CHL1  H11B 6512   6.714   7.253   9.846 -0.7795  2.4294 -2.6323
   55CHL1    C9 6513   6.793   7.057   9.776 -0.0393  0.3606  0.7074
   55CHL1    H9 6514   6.689   7.021   9.760 -0.0694 -0.1064  1.8718
   55CHL1   C10 6515   6.836   7.004   9.917 -0.3232 -0.1925 -0.1380
   55CHL1   C19 6516   6.955   7.086   9.969  0.0939 -0.3005 -0.5441
   55CHL1  H19A 6517   7.000   7.050  10.064  0.6806 -0.8007 -1.0000
   55CHL1  H19B 6518   7.039   7.093   9.896  2.1593 -1.8624  1.6090
   55CHL1  H19C 6519   6.914   7.188   9.985 -0.7186 -0.7056 -0.0064
   55CHL1    C1 6520   6.711   7.012  10.019  0.5408 -0.1542  0.0574
   55CHL1   H1A 6521   6.669   7.114  10.033 -1.0691 -1.0481  2.0241
   55CHL1   H1B 6522   6.630   6.955   9.969  2.0076 -0.9957 -1.4286
   55CHL1    C2 6523   6.736   6.939  10.158 -0.3092  0.3760  0.7940
   55CHL1   H2A 6524   6.646   6.945  10.223 -0.4925  1.8449  0.4051
   55CHL1   H2B 6525   6.825   6.982  10.208 -0.7310  2.1056  0.0901
   55CHL1   C20 6526   6.741   7.352   9.306  0.0547 -0.0760 -0.7753
   55CHL1   H20 6527   6.841   7.397   9.322 -0.3255 -0.0046  1.6445
   55CHL1   C21 6528   6.628   7.441   9.364 -0.7434  0.3628 -0.6598
   55CHL1  H21A 6529   6.662   7.482   9.462  0.1336 -0.2032 -0.7282
   55CHL1  H21B 6530   6.535   7.380   9.369 -1.0004  0.8508  0.8344
   55CHL1  H21C 6531   6.598   7.531   9.306 -1.4485  0.0674 -0.7546
   55CHL1   C22 6532   6.723   7.331   9.148  0.0588 -0.2004 -0.3177
   55CHL1  H22A 6533   6.803   7.263   9.111  1.5270  0.2679  1.8220
   55CHL1  H22B 6534   6.634   7.270   9.125  0.9150 -1.6331  0.0687
   55CHL1   C23 6535   6.713   7.461   9.077 -0.4105  0.0791 -0.0367
   55CHL1  H23A 6536   6.621   7.518   9.102  0.0530  0.5595  0.5937
   55CHL1  H23B 6537   6.801   7.520   9.108 -0.0408  1.1505 -2.9195
   55CHL1   C24 6538   6.738   7.441   8.921  0.2263  0.3649 -0.7247
   55CHL1  H24A 6539   6.841   7.404   8.900  0.1305  0.4467 -1.3378
   55CHL1  H24B 6540   6.668   7.362   8.888 -0.6662  2.2258 -3.4394
   55CHL1   C25 6541   6.708   7.560   8.832  0.3402 -0.0383  1.0569
   55CHL1   H25 6542   6.757   7.650   8.875  0.1058 -0.0489  1.3506
   55CHL1   C26 6543   6.765   7.525   8.692 -0.2540  0.1698  0.0448
   55CHL1  H26A 6544   6.870   7.489   8.689 -0.2063  0.1727  1.3960
   55CHL1  H26B 6545   6.703   7.438   8.658  0.2980  0.1398 -0.8796
   55CHL1  H26C 6546   6.754   7.605   8.616 -0.3364 -1.2597 -1.4824
   55CHL1   C27 6547   6.560   7.592   8.826 -0.1103  0.0302 -0.2922
   55CHL1  H27A 6548   6.541   7.672   8.751  0.4194  0.6702  0.2495
   55CHL1  H27B 6549   6.500   7.505   8.791 -0.2275  0.0828 -0.2196
   55CHL1  H27C 6550   6.510   7.612   8.923  0.7475 -0.3550  0.2369
   56CHL1    C3 6551   4.053   5.796  10.090  0.3086 -0.4960 -0.1622
   56CHL1    H3 6552   3.981   5.875  10.059 -0.1923 -1.5337 -1.7468
   56CHL1    O3 6553   4.023   5.770  10.228 -0.0872 -0.8287  0.1731
   56CHL1   H3' 6554   4.000   5.677  10.228 -0.4233 -0.7754 -2.1159
   56CHL1    C4 6555   4.014   5.670  10.019 -0.3401  0.6506  0.3567
   56CHL1   H4A 6556   4.057   5.581  10.069 -0.8183  1.1702  1.7128
   56CHL1   H4B 6557   3.904   5.661  10.026 -0.5631  2.4536 -0.5728
   56CHL1    C5 6558   4.057   5.661   9.874  0.0088 -0.1610  0.4525
   56CHL1    C6 6559   3.976   5.641   9.768  0.2735  0.3628 -0.0114
   56CHL1    H6 6560   3.870   5.627   9.795  0.4598 -0.9172  0.0792
   56CHL1    C7 6561   4.015   5.640   9.619  0.3299 -0.0501 -0.7809
   56CHL1   H7A 6562   3.970   5.554   9.565 -2.2990  1.8291 -1.7279
   56CHL1   H7B 6563   3.981   5.737   9.577 -0.5838  0.7841  1.7771
   56CHL1    C8 6564   4.166   5.634   9.596 -0.3064 -0.8242 -0.0183
   56CHL1    H8 6565   4.204   5.532   9.615 -0.7402 -1.0910 -0.5694
   56CHL1   C14 6566   4.205   5.671   9.451 -0.3397 -0.2982  0.1575
   56CHL1   H14 6567   4.156   5.768   9.429 -1.1596 -0.0386  2.9426
   56CHL1   C15 6568   4.153   5.586   9.324  0.4294 -0.2877 -0.3018
   56CHL1  H15A 6569   4.170   5.478   9.343  2.5624  0.0968  0.0159
   56CHL1  H15B 6570   4.044   5.610   9.316  0.7695  1.0513 -0.9867
   56CHL1   C16 6571   4.240   5.639   9.210  0.2349  0.3383 -0.2015
   56CHL1  H16A 6572   4.270   5.552   9.147 -0.0207  0.6631 -0.7738
   56CHL1  H16B 6573   4.186   5.710   9.145  1.5782  2.2900  0.7900
   56CHL1   C17 6574   4.360   5.708   9.281  0.3716 -0.8062 -0.1025
   56CHL1   H17 6575   4.335   5.812   9.250 -1.2030 -1.2293 -0.3159
   56CHL1   C13 6576   4.350   5.683   9.426 -0.4671  0.3528  0.0939
   56CHL1   C18 6577   4.431   5.558   9.467 -0.4693 -0.3916  0.1173
   56CHL1  H18A 6578   4.423   5.467   9.405  0.0921  0.6284 -1.4757
   56CHL1  H18B 6579   4.537   5.592   9.456 -0.6958  0.4780  0.5491
   56CHL1  H18C 6580   4.403   5.527   9.570 -1.5165 -1.3129 -0.4438
   56CHL1   C12 6581   4.396   5.799   9.510 -0.4796 -0.3553 -0.3660
   56CHL1  H12A 6582   4.503   5.824   9.492 -0.2256 -0.7401  0.5498
   56CHL1  H12B 6583   4.335   5.886   9.480  0.5956 -0.2359 -2.2800
   56CHL1   C11 6584   4.376   5.774   9.661  0.3660  0.1718 -0.3721
   56CHL1  H11A 6585   4.453   5.700   9.691 -0.4357  0.3317  2.1822
   56CHL1  H11B 6586   4.398   5.869   9.715  2.4765 -0.5126  0.0194
   56CHL1    C9 6587   4.228   5.736   9.694 -0.0455 -0.0427  0.0296
   56CHL1    H9 6588   4.171   5.826   9.664  1.0811 -0.4053 -3.4497
   56CHL1   C10 6589   4.199   5.707   9.841  0.3868  0.0828 -0.0861
   56CHL1   C19 6590   4.295   5.593   9.882 -0.3606  0.7956 -0.2363
   56CHL1  H19A 6591   4.283   5.503   9.819 -2.1924 -2.0512  3.9231
   56CHL1  H19B 6592   4.399   5.629   9.869 -0.2436  0.6740  0.3632
   56CHL1  H19C 6593   4.269   5.563   9.986 -0.6409  0.2217 -0.4689
   56CHL1    C1 6594   4.223   5.839   9.920 -0.4471 -0.0371 -0.5737
   56CHL1   H1A 6595   4.327   5.875   9.909 -0.5125  0.4605  0.3499
   56CHL1   H1B 6596   4.165   5.920   9.871  1.5121  1.7883  0.0725
   56CHL1    C2 6597   4.198   5.833  10.069 -0.2197 -0.3227 -0.6781
   56CHL1   H2A 6598   4.215   5.931  10.118 -0.8775 -1.6419  2.2805
   56CHL1   H2B 6599   4.267   5.765  10.124  0.1518 -0.0135 -0.7616
   56CHL1   C20 6600   4.488   5.670   9.196  0.6609  0.4058 -0.2561
   56CHL1   H20 6601   4.519   5.565   9.213  0.3993  0.4227  0.3228
   56CHL1   C21 6602   4.601   5.769   9.233 -0.1760  0.1973  0.2567
   56CHL1  H21A 6603   4.679   5.776   9.153  0.3375  0.9696  0.8221
   56CHL1  H21B 6604   4.662   5.741   9.321 -2.4998 -0.5398  1.6669
   56CHL1  H21C 6605   4.544   5.862   9.254 -1.3924 -0.0297 -1.8215
   56CHL1   C22 6606   4.475   5.678   9.041 -0.5000 -0.8194  0.5594
   56CHL1  H22A 6607   4.370   5.659   9.011 -0.7606  2.4095 -0.7245
   56CHL1  H22B 6608   4.491   5.783   9.009 -0.9970  0.2157  3.5765
   56CHL1   C23 6609   4.573   5.586   8.967 -0.2037  0.4697  0.4948
   56CHL1  H23A 6610   4.674   5.632   8.966  0.0834 -0.1576  0.3322
   56CHL1  H23B 6611   4.574   5.490   9.021  1.2867 -0.3634 -0.9876
   56CHL1   C24 6612   4.527   5.557   8.816  0.2219  0.2083  0.4238
   56CHL1  H24A 6613   4.482   5.648   8.771 -0.6651  0.1243  1.1093
   56CHL1  H24B 6614   4.610   5.523   8.751  0.6258 -2.5441  2.2821
   56CHL1   C25 6615   4.413   5.458   8.809 -0.2169  0.3310  0.1728
   56CHL1   H25 6616   4.334   5.503   8.873  0.2534  0.6989  0.5011
   56CHL1   C26 6617   4.342   5.448   8.669  0.3871 -0.1802  0.4471
   56CHL1  H26A 6618   4.299   5.545   8.637 -0.6054 -0.3735  1.1699
   56CHL1  H26B 6619   4.403   5.417   8.581 -0.1652  1.0808 -0.3894
   56CHL1  H26C 6620   4.261   5.372   8.682 -1.3120  2.1828  4.5318
   56CHL1   C27 6621   4.455   5.315   8.843  0.0016 -0.2647  0.7301
   56CHL1  H27A 6622   4.501   5.268   8.753 -0.6450 -2.2745  1.4150
   56CHL1  H27B 6623   4.526   5.318   8.929  2.2115  0.4794 -1.0692
   56CHL1  H27C 6624   4.372   5.258   8.890 -0.1773  0.3713  1.1896
   57CHL1    C3 6625   0.623   1.274  10.278 -0.5231 -0.6344  0.5508
   57CHL1    H3 6626   0.720   1.327  10.286  0.5475 -2.4741  0.0780
   57CHL1    O3 6627   0.573   1.268  10.414 -0.6583  0.7848  0.1421
   57CHL1   H3' 6628   0.490   1.220  10.408 -0.1616  0.0587 -1.2574
   57CHL1    C4 6629   0.530   1.368  10.198  0.5262 -0.1937  0.1991
   57CHL1   H4A 6630   0.428   1.323  10.199  1.0007 -1.3055  3.4832
   57CHL1   H4B 6631   0.521   1.468  10.246  0.3714  0.2177 -0.6729
   57CHL1    C5 6632   0.584   1.367  10.060 -0.7341 -0.5129  0.3674
   57CHL1    C6 6633   0.610   1.486  10.006 -0.0177 -0.0765 -0.1619
   57CHL1    H6 6634   0.589   1.581  10.058 -0.5254 -1.4532  2.2223
   57CHL1    C7 6635   0.661   1.507   9.864 -0.4356 -0.0779 -0.5276
   57CHL1   H7A 6636   0.613   1.592   9.811 -3.0609  0.2024  2.2050
   57CHL1   H7B 6637   0.769   1.534   9.871 -0.4497 -0.3814  1.0376
   57CHL1    C8 6638   0.651   1.385   9.774  0.0173 -0.3313  0.4082
   57CHL1    H8 6639   0.542   1.377   9.756 -0.1086  1.5631  0.1744
   57CHL1   C14 6640   0.724   1.400   9.633 -0.1192  0.0138 -0.0958
   57CHL1   H14 6641   0.830   1.421   9.658  0.9953 -2.7302 -2.1773
   57CHL1   C15 6642   0.684   1.524   9.542 -0.7679  1.0894 -0.1882
   57CHL1  H15A 6643   0.573   1.526   9.553 -0.7843  2.3425 -0.4375
   57CHL1  H15B 6644   0.723   1.622   9.578  0.5448 -0.2116  2.0076
   57CHL1   C16 6645   0.735   1.481   9.404  0.3008 -0.3389  0.0061
   57CHL1  H16A 6646   0.651   1.477   9.330 -0.2653  1.8629  0.4956
   57CHL1  H16B 6647   0.816   1.548   9.369 -4.4258  5.0279 -1.4993
   57CHL1   C17 6648   0.791   1.330   9.415  0.5010  0.4158  0.2475
   57CHL1   H17 6649   0.896   1.351   9.443  1.5776 -3.4476 -0.6463
   57CHL1   C13 6650   0.726   1.274   9.549  0.7010  0.5568 -0.5623
   57CHL1   C18 6651   0.584   1.232   9.509 -0.0529  0.7514 -0.2061
   57CHL1  H18A 6652   0.527   1.181   9.589 -0.4059 -1.7600 -2.0066
   57CHL1  H18B 6653   0.520   1.316   9.474  0.0958  1.1245  0.4090
   57CHL1  H18C 6654   0.581   1.167   9.419 -0.0675 -1.1228  1.1306
   57CHL1   C12 6655   0.801   1.170   9.634 -0.2114  0.6988 -0.4420
   57CHL1  H12A 6656   0.811   1.084   9.565 -0.4234  2.3444 -2.5795
   57CHL1  H12B 6657   0.904   1.201   9.662 -0.6456  0.1185  1.8557
   57CHL1   C11 6658   0.727   1.135   9.765 -0.1400  0.3509  0.2863
   57CHL1  H11A 6659   0.630   1.082   9.751  0.1283 -0.0727  0.0204
   57CHL1  H11B 6660   0.797   1.066   9.817  1.4701 -0.3024 -2.6605
   57CHL1    C9 6661   0.694   1.258   9.857 -0.4306 -0.4166 -0.2387
   57CHL1    H9 6662   0.795   1.281   9.897 -1.4856 -1.4103  3.1304
   57CHL1   C10 6663   0.607   1.233   9.983 -1.3347 -0.1267  0.2386
   57CHL1   C19 6664   0.467   1.178   9.946  1.0233  0.6975  0.0238
   57CHL1  H19A 6665   0.387   1.203  10.019  0.9239 -2.2376  0.9621
   57CHL1  H19B 6666   0.430   1.210   9.846 -1.3458 -0.3363  0.5262
   57CHL1  H19C 6667   0.465   1.068   9.936  1.6451  0.8288 -1.6427
   57CHL1    C1 6668   0.686   1.130  10.075 -0.0850  0.5795  0.7196
   57CHL1   H1A 6669   0.675   1.031  10.027  0.6470  1.8657 -2.1617
   57CHL1   H1B 6670   0.790   1.169  10.084  0.6024 -1.0707  0.0307
   57CHL1    C2 6671   0.628   1.134  10.213  0.8014 -0.7317 -0.1740
   57CHL1   H2A 6672   0.690   1.068  10.277  2.1884 -0.5186 -1.2692
   57CHL1   H2B 6673   0.525   1.092  10.216 -0.2091  1.6075 -0.9053
   57CHL1   C20 6674   0.800   1.251   9.273  0.3438  0.2951 -0.1560
   57CHL1   H20 6675   0.696   1.236   9.235  0.2582  0.4532  0.0164
   57CHL1   C21 6676   0.873   1.120   9.299 -0.4727 -0.0151  0.1462
   57CHL1  H21A 6677   0.962   1.133   9.365 -0.1117 -0.7384 -0.1904
   57CHL1  H21B 6678   0.903   1.070   9.205  0.2136  1.4997 -0.4570
   57CHL1  H21C 6679   0.804   1.048   9.348 -0.6883  1.2456  1.7315
   57CHL1   C22 6680   0.880   1.333   9.167 -0.7897  0.2716  0.2071
   57CHL1  H22A 6681   0.844   1.438   9.165  0.7056  0.7841 -0.6198
   57CHL1  H22B 6682   0.986   1.347   9.196 -0.6323  1.9255 -1.1321
   57CHL1   C23 6683   0.877   1.271   9.031 -0.1009 -0.2245  0.3281
   57CHL1  H23A 6684   0.896   1.161   9.028  2.0891  0.0995  1.5161
   57CHL1  H23B 6685   0.775   1.288   8.990  0.8467  1.7208 -1.3072
   57CHL1   C24 6686   0.973   1.338   8.924 -0.8393  0.5779 -0.1648
   57CHL1  H24A 6687   0.952   1.447   8.918 -1.7517  0.3042 -2.4630
   57CHL1  H24B 6688   1.078   1.333   8.958 -0.3329  4.0950 -1.0270
   57CHL1   C25 6689   0.940   1.285   8.786  0.4894 -0.0640  0.5006
   57CHL1   H25 6690   0.832   1.307   8.771  0.4934  0.2436  0.9294
   57CHL1   C26 6691   1.020   1.359   8.678  0.0220 -0.6910  0.5251
   57CHL1  H26A 6692   1.028   1.315   8.577  2.4372  0.5423  0.1318
   57CHL1  H26B 6693   0.969   1.457   8.677 -0.1978 -0.7707  1.9090
   57CHL1  H26C 6694   1.121   1.384   8.718 -0.9484  0.5153  2.3154
   57CHL1   C27 6695   0.958   1.134   8.764  0.1134 -1.4710 -0.0877
   57CHL1  H27A 6696   0.974   1.115   8.656  1.1613  2.1852 -0.6306
   57CHL1  H27B 6697   1.050   1.118   8.825 -1.2900  1.0356  2.8169
   57CHL1  H27C 6698   0.878   1.072   8.811 -0.7940  1.2291  2.1131
   58CHL1    C3 6699   3.212   0.687  10.082  0.1824  0.3869 -0.0401
   58CHL1    H3 6700   3.246   0.780  10.031 -1.0019 -0.0699 -1.7167
   58CHL1    O3 6701   3.264   0.689  10.213 -0.3739 -0.4269  0.1415
   58CHL1   H3' 6702   3.233   0.769  10.257 -2.2826 -1.0099 -0.0763
   58CHL1    C4 6703   3.052   0.677  10.091  0.4091  0.0444  0.0887
   58CHL1   H4A 6704   3.033   0.585  10.150  0.0742 -0.7225 -1.1918
   58CHL1   H4B 6705   3.006   0.762  10.144 -2.7497 -1.4223 -0.2230
   58CHL1    C5 6706   2.987   0.669   9.953 -0.5822 -0.0555  0.1492
   58CHL1    C6 6707   2.896   0.760   9.913  0.6546 -0.1766  0.7389
   58CHL1    H6 6708   2.859   0.837   9.983 -1.1394  0.1066 -0.5056
   58CHL1    C7 6709   2.823   0.747   9.780 -0.0683 -0.4128 -0.2464
   58CHL1   H7A 6710   2.715   0.743   9.803 -0.0855  1.8371  0.1224
   58CHL1   H7B 6711   2.834   0.838   9.718  0.2663 -1.1927 -1.3580
   58CHL1    C8 6712   2.851   0.615   9.700  0.0484 -0.6409  0.5837
   58CHL1    H8 6713   2.797   0.533   9.754 -0.0289 -0.0703  1.3909
   58CHL1   C14 6714   2.810   0.631   9.553 -0.7928 -0.2201  0.2123
   58CHL1   H14 6715   2.879   0.708   9.511  0.5677 -1.6466 -0.2235
   58CHL1   C15 6716   2.668   0.678   9.519 -0.6663 -0.2490  0.2622
   58CHL1  H15A 6717   2.610   0.620   9.594 -1.9329  0.2683 -0.3030
   58CHL1  H15B 6718   2.659   0.787   9.538 -0.6901 -0.3906  1.0913
   58CHL1   C16 6719   2.647   0.633   9.372  0.2582 -0.6008  0.9273
   58CHL1  H16A 6720   2.554   0.571   9.373 -0.1997  0.0431 -0.4964
   58CHL1  H16B 6721   2.632   0.725   9.312 -0.6035 -1.3975 -0.1101
   58CHL1   C17 6722   2.773   0.561   9.327  0.2843 -0.2406 -0.5588
   58CHL1   H17 6723   2.838   0.643   9.289  0.1129  0.0564 -0.2265
   58CHL1   C13 6724   2.836   0.512   9.458 -0.0125 -0.2174 -0.5104
   58CHL1   C18 6725   2.750   0.387   9.514 -0.0180 -0.5135 -0.1892
   58CHL1  H18A 6726   2.791   0.340   9.606  0.1716 -0.0139 -0.0208
   58CHL1  H18B 6727   2.645   0.417   9.536  0.1087 -0.8407  0.8795
   58CHL1  H18C 6728   2.748   0.311   9.433 -1.5377 -0.0280 -0.6374
   58CHL1   C12 6729   2.981   0.484   9.469 -0.5077 -0.4163  0.1309
   58CHL1  H12A 6730   2.993   0.390   9.411 -1.5495 -0.7347  0.4210
   58CHL1  H12B 6731   3.047   0.564   9.429 -1.2791 -0.4273 -1.1738
   58CHL1   C11 6732   3.036   0.467   9.611 -0.2575  0.0309  0.4608
   58CHL1  H11A 6733   2.993   0.375   9.655 -0.1075  0.1534  0.8728
   58CHL1  H11B 6734   3.147   0.457   9.610 -0.4644 -2.8924  2.0001
   58CHL1    C9 6735   3.005   0.582   9.718 -0.1359  0.1624  0.3079
   58CHL1    H9 6736   3.056   0.672   9.676  1.4494 -0.7076  0.3515
   58CHL1   C10 6737   3.053   0.556   9.865  0.1391  0.4752  0.3262
   58CHL1   C19 6738   3.009   0.419   9.919  0.3616 -0.0402  0.3289
   58CHL1  H19A 6739   2.902   0.391   9.911  0.3742  0.5361 -2.9036
   58CHL1  H19B 6740   3.058   0.336   9.865 -1.5713 -0.1161 -1.3559
   58CHL1  H19C 6741   3.030   0.411  10.027 -0.2610  2.6827  0.7080
   58CHL1    C1 6742   3.210   0.562   9.868  0.2707  0.6034  0.3718
   58CHL1   H1A 6743   3.246   0.473   9.811 -1.6024 -0.2501  0.4745
   58CHL1   H1B 6744   3.241   0.650   9.808  2.5644  0.8612  1.8486
   58CHL1    C2 6745   3.266   0.567  10.013 -0.7538  0.4716 -0.1102
   58CHL1   H2A 6746   3.377   0.567  10.001 -0.4953 -0.0841  2.1360
   58CHL1   H2B 6747   3.243   0.478  10.075  1.4115  0.0891  0.1713
   58CHL1   C20 6748   2.747   0.464   9.214  0.0954  0.0033 -0.0272
   58CHL1   H20 6749   2.680   0.387   9.258  2.1726 -1.3975  0.7827
   58CHL1   C21 6750   2.880   0.397   9.176 -0.5186  0.4731 -0.1884
   58CHL1  H21A 6751   2.961   0.463   9.138  1.3564 -0.7571  1.5380
   58CHL1  H21B 6752   2.865   0.326   9.091 -0.5147  0.0898  0.1294
   58CHL1  H21C 6753   2.904   0.327   9.259  0.7924  0.2441 -0.7320
   58CHL1   C22 6754   2.678   0.525   9.091 -0.1108  0.2907 -0.1233
   58CHL1  H22A 6755   2.660   0.439   9.023  0.4640  0.1383 -0.0877
   58CHL1  H22B 6756   2.582   0.577   9.112  0.0833  1.2568 -1.5145
   58CHL1   C23 6757   2.749   0.625   9.013  0.3518 -0.0380 -0.8347
   58CHL1  H23A 6758   2.789   0.698   9.088  0.5372 -0.7750 -0.2095
   58CHL1  H23B 6759   2.836   0.579   8.962  1.1956 -0.2517  0.7363
   58CHL1   C24 6760   2.663   0.708   8.918 -0.5282 -0.0830 -0.5167
   58CHL1  H24A 6761   2.645   0.637   8.834  0.2268 -0.3137 -0.4852
   58CHL1  H24B 6762   2.568   0.721   8.975 -0.2584 -1.9061  0.3488
   58CHL1   C25 6763   2.724   0.832   8.846 -0.0626  0.1068  0.0374
   58CHL1   H25 6764   2.736   0.917   8.916  0.1568  1.1263 -1.2080
   58CHL1   C26 6765   2.863   0.808   8.789 -0.1229 -0.1448  0.6258
   58CHL1  H26A 6766   2.865   0.730   8.710 -0.7131 -0.2849  0.7527
   58CHL1  H26B 6767   2.897   0.908   8.753  1.8745 -1.4518 -1.2761
   58CHL1  H26C 6768   2.923   0.756   8.867  0.3964 -0.9569 -0.2993
   58CHL1   C27 6769   2.617   0.893   8.747  1.4998  0.6381  0.9777
   58CHL1  H27A 6770   2.649   0.974   8.678  0.6509 -0.1347 -0.3552
   58CHL1  H27B 6771   2.594   0.810   8.676  1.1482  3.2265 -2.0588
   58CHL1  H27C 6772   2.522   0.927   8.794  0.4030  2.6245 -2.4742
   59CHL1    C3 6773   2.156   6.528  10.388 -0.5781 -0.2227 -0.3153
   59CHL1    H3 6774   2.233   6.451  10.363  1.4469  1.9468 -1.0203
   59CHL1    O3 6775   2.146   6.539  10.525 -0.2421 -0.1723  0.3975
   59CHL1   H3' 6776   2.100   6.622  10.539  1.7396  0.5127  3.0803
   59CHL1    C4 6777   2.204   6.671  10.339  0.5580  0.0926 -0.2317
   59CHL1   H4A 6778   2.145   6.762  10.364 -1.4539 -0.7054 -1.9228
   59CHL1   H4B 6779   2.304   6.685  10.386  0.4003 -1.6711  0.6566
   59CHL1    C5 6780   2.210   6.680  10.183  0.5553 -0.7964 -0.9421
   59CHL1    C6 6781   2.316   6.729  10.122  0.2225 -0.0697  0.1221
   59CHL1    H6 6782   2.404   6.757  10.183 -0.0254  1.8148 -0.3479
   59CHL1    C7 6783   2.333   6.734   9.972  0.5623  0.2924  0.1256
   59CHL1   H7A 6784   2.391   6.823   9.939  2.0506 -0.2602  1.1643
   59CHL1   H7B 6785   2.382   6.642   9.932  1.2165  0.2066  1.0936
   59CHL1    C8 6786   2.198   6.716   9.901 -0.3284  0.2135 -0.9908
   59CHL1    H8 6787   2.143   6.811   9.912  0.3514  0.5543 -0.4855
   59CHL1   C14 6788   2.231   6.686   9.754  0.3207  0.3730  1.2870
   59CHL1   H14 6789   2.276   6.586   9.737 -1.8057  0.0754 -3.2112
   59CHL1   C15 6790   2.327   6.785   9.685  0.2037 -0.4402  0.1558
   59CHL1  H15A 6791   2.295   6.890   9.695 -0.3748 -0.3817 -2.0824
   59CHL1  H15B 6792   2.431   6.781   9.724  0.3392  1.8101  0.0881
   59CHL1   C16 6793   2.307   6.743   9.541  0.2733 -0.4623 -0.0039
   59CHL1  H16A 6794   2.297   6.834   9.478  2.2103 -0.8427 -0.9148
   59CHL1  H16B 6795   2.396   6.695   9.494  1.0409  1.2070 -0.3054
   59CHL1   C17 6796   2.177   6.660   9.531 -0.2030  1.2022  0.1752
   59CHL1   H17 6797   2.204   6.553   9.523 -0.8373  1.1981 -2.5946
   59CHL1   C13 6798   2.103   6.677   9.668 -0.2009  0.0847  0.4911
   59CHL1   C18 6799   2.026   6.811   9.676 -0.0376  0.2118  0.3258
   59CHL1  H18A 6800   1.999   6.828   9.782  1.5600  0.1803  0.7609
   59CHL1  H18B 6801   2.098   6.893   9.653 -0.1733  0.4766  0.8314
   59CHL1  H18C 6802   1.932   6.811   9.617 -0.8303  3.4754  1.4812
   59CHL1   C12 6803   2.024   6.562   9.711  0.1498 -0.0860 -0.5091
   59CHL1  H12A 6804   1.925   6.554   9.662 -0.4280  1.3772  0.3646
   59CHL1  H12B 6805   2.086   6.471   9.698 -0.4071 -0.4470 -0.6215
   59CHL1   C11 6806   1.993   6.575   9.864  0.4293 -0.4833 -1.0074
   59CHL1  H11A 6807   1.925   6.663   9.864 -0.5267 -1.1863 -2.8004
   59CHL1  H11B 6808   1.933   6.490   9.903 -1.9844  1.1236 -1.0548
   59CHL1    C9 6809   2.119   6.603   9.956  0.3635  0.1418  0.2421
   59CHL1    H9 6810   2.187   6.517   9.946 -2.1281 -1.7521 -1.1330
   59CHL1   C10 6811   2.084   6.624  10.107 -0.3042 -0.5038 -0.0376
   59CHL1   C19 6812   1.964   6.711  10.121 -0.3478 -0.4233 -0.5043
   59CHL1  H19A 6813   1.875   6.651  10.091  0.5063 -1.7063 -0.5376
   59CHL1  H19B 6814   1.938   6.739  10.226  1.1660  1.6617 -0.6655
   59CHL1  H19C 6815   1.969   6.808  10.068  1.4355 -0.0960  0.2333
   59CHL1    C1 6816   2.053   6.484  10.170 -0.2032  0.2845  0.0857
   59CHL1   H1A 6817   1.950   6.458  10.139 -1.1655  1.6256  2.1044
   59CHL1   H1B 6818   2.121   6.409  10.123  0.0225  0.9361 -0.6467
   59CHL1    C2 6819   2.030   6.485  10.320 -0.1788 -0.4971  0.0645
   59CHL1   H2A 6820   2.000   6.386  10.359  2.0089 -1.6070 -1.0266
   59CHL1   H2B 6821   1.950   6.558  10.346 -1.2779 -1.4791 -0.5121
   59CHL1   C20 6822   2.096   6.685   9.400  0.1148  0.0707 -0.2490
   59CHL1   H20 6823   2.068   6.792   9.396 -2.1361 -0.5010 -0.0645
   59CHL1   C21 6824   1.967   6.594   9.396  0.0730  0.1437 -1.1102
   59CHL1  H21A 6825   1.890   6.626   9.469  1.9240 -0.6713  1.2927
   59CHL1  H21B 6826   1.988   6.486   9.411  0.4142  0.3347 -0.1746
   59CHL1  H21C 6827   1.923   6.600   9.294 -1.5956 -0.6498 -0.4613
   59CHL1   C22 6828   2.189   6.639   9.280  0.0780  0.3273  0.7402
   59CHL1  H22A 6829   2.289   6.685   9.290 -0.0410  0.5558  0.9029
   59CHL1  H22B 6830   2.179   6.528   9.280  0.6195  0.2363 -2.9689
   59CHL1   C23 6831   2.144   6.686   9.141  0.3130  0.4629  0.6540
   59CHL1  H23A 6832   2.047   6.645   9.106 -0.1680  0.9246  1.4431
   59CHL1  H23B 6833   2.133   6.793   9.167 -1.0240  0.5105 -0.0820
   59CHL1   C24 6834   2.259   6.674   9.034 -0.1274 -0.4795 -0.3232
   59CHL1  H24A 6835   2.354   6.715   9.075 -0.6947  2.1651 -1.5403
   59CHL1  H24B 6836   2.280   6.566   9.018 -0.4375 -0.5687 -0.1217
   59CHL1   C25 6837   2.228   6.736   8.896  0.0984  0.3797 -0.2015
   59CHL1   H25 6838   2.128   6.693   8.870  0.0086 -0.3112  1.2228
   59CHL1   C26 6839   2.231   6.884   8.887 -0.0452  0.0221  0.3590
   59CHL1  H26A 6840   2.221   6.912   8.780  2.0944  0.0781  0.1513
   59CHL1  H26B 6841   2.153   6.940   8.943 -1.3735 -0.5328 -0.9150
   59CHL1  H26C 6842   2.335   6.920   8.903  0.1748 -0.5681  0.2644
   59CHL1   C27 6843   2.324   6.676   8.796 -0.3299 -0.2749  0.5305
   59CHL1  H27A 6844   2.319   6.565   8.786 -0.0771 -0.2394 -0.0584
   59CHL1  H27B 6845   2.297   6.720   8.698 -0.4468  0.6591  0.9777
   59CHL1  H27C 6846   2.424   6.716   8.821 -0.5740  0.4956  0.2808
   60CHL1    C3 6847   2.227   5.573  10.351  0.5226 -0.0705  0.9999
   60CHL1    H3 6848   2.142   5.644  10.340  1.9448  1.2541 -1.8883
   60CHL1    O3 6849   2.223   5.535  10.482 -0.3083 -0.3725 -0.7799
   60CHL1   H3' 6850   2.304   5.484  10.492 -0.4113 -0.5558 -0.8704
   60CHL1    C4 6851   2.209   5.456  10.258 -0.5100 -0.1134 -0.6971
   60CHL1   H4A 6852   2.293   5.389  10.287 -1.0163 -0.0256  1.0095
   60CHL1   H4B 6853   2.116   5.398  10.279 -0.4908 -0.1557 -0.7316
   60CHL1    C5 6854   2.218   5.485  10.109 -0.5985  0.5317  0.4280
   60CHL1    C6 6855   2.114   5.453  10.028 -0.1700  0.3162 -0.1008
   60CHL1    H6 6856   2.027   5.395  10.062  0.0269 -0.0657 -0.2494
   60CHL1    C7 6857   2.124   5.475   9.886  0.0477  0.0975 -1.2141
   60CHL1   H7A 6858   2.092   5.387   9.827 -0.5655  0.4503 -1.4191
   60CHL1   H7B 6859   2.041   5.546   9.862 -0.0206  0.2896 -0.4347
   60CHL1    C8 6860   2.258   5.526   9.827  0.1069  0.0300  0.3801
   60CHL1    H8 6861   2.323   5.436   9.815  2.8518  1.9035  0.8187
   60CHL1   C14 6862   2.236   5.591   9.696 -0.5374  0.0923  0.0895
   60CHL1   H14 6863   2.167   5.677   9.709  0.9729  1.1296  1.4010
   60CHL1   C15 6864   2.167   5.501   9.589  0.7342 -0.5408  0.9277
   60CHL1  H15A 6865   2.213   5.399   9.593 -0.0853 -0.9732 -0.7033
   60CHL1  H15B 6866   2.057   5.486   9.589  0.7075 -0.4349 -1.7010
   60CHL1   C16 6867   2.212   5.575   9.461  0.2757  0.2046 -0.1660
   60CHL1  H16A 6868   2.260   5.499   9.396 -0.0900  1.1829 -1.6066
   60CHL1  H16B 6869   2.128   5.622   9.406 -0.7821 -0.0657  1.1767
   60CHL1   C17 6870   2.323   5.683   9.495  0.5098  0.0932 -0.1238
   60CHL1   H17 6871   2.280   5.785   9.495 -3.9178 -1.6432  1.5283
   60CHL1   C13 6872   2.375   5.645   9.635  0.6440 -0.7292 -0.5484
   60CHL1   C18 6873   2.469   5.523   9.617 -0.2479  0.8880  0.1295
   60CHL1  H18A 6874   2.505   5.489   9.716 -1.0409 -1.4924 -0.3505
   60CHL1  H18B 6875   2.422   5.431   9.576 -3.2871  1.6407  1.7686
   60CHL1  H18C 6876   2.559   5.552   9.560 -0.7397 -0.4465 -1.3804
   60CHL1   C12 6877   2.431   5.754   9.722  0.5128  0.4860  0.5842
   60CHL1  H12A 6878   2.535   5.781   9.693  1.3105 -0.0485  2.8484
   60CHL1  H12B 6879   2.374   5.849   9.717 -1.0537 -0.4520  0.3409
   60CHL1   C11 6880   2.444   5.700   9.866 -0.1898 -0.1697 -0.1926
   60CHL1  H11A 6881   2.524   5.623   9.862  0.2756  0.2752  0.4939
   60CHL1  H11B 6882   2.480   5.782   9.932  0.5252  1.3912 -2.4542
   60CHL1    C9 6883   2.320   5.631   9.928  0.0080 -0.3258 -0.3039
   60CHL1    H9 6884   2.241   5.708   9.930  0.4575  0.2132 -2.0633
   60CHL1   C10 6885   2.343   5.567  10.069 -0.1845  0.5059  0.2142
   60CHL1   C19 6886   2.465   5.468  10.073 -1.0390 -0.3065  0.9349
   60CHL1  H19A 6887   2.554   5.528  10.046 -1.6535  1.2271  2.2408
   60CHL1  H19B 6888   2.477   5.434  10.178  0.4010 -0.3614  0.7629
   60CHL1  H19C 6889   2.451   5.379  10.008 -0.6736  0.1180  0.2693
   60CHL1    C1 6890   2.367   5.686  10.175 -0.4875 -0.8066  0.6143
   60CHL1   H1A 6891   2.463   5.736  10.150 -1.4987 -0.2701 -2.4539
   60CHL1   H1B 6892   2.283   5.757  10.158 -0.5655 -0.6500  1.6192
   60CHL1    C2 6893   2.367   5.634  10.317 -0.4893 -0.5140  0.5021
   60CHL1   H2A 6894   2.391   5.723  10.379  1.3270 -0.4903 -0.1995
   60CHL1   H2B 6895   2.449   5.561  10.332  0.2933 -0.0169 -1.1847
   60CHL1   C20 6896   2.428   5.709   9.375 -0.8634  0.2935  0.3922
   60CHL1   H20 6897   2.516   5.641   9.382  0.6170  1.8880 -1.9410
   60CHL1   C21 6898   2.493   5.847   9.394 -0.2643  0.2564  1.2570
   60CHL1  H21A 6899   2.412   5.923   9.392  0.6992  1.2693 -0.4249
   60CHL1  H21B 6900   2.573   5.873   9.321 -1.8148  3.7319  0.6778
   60CHL1  H21C 6901   2.545   5.849   9.493  1.9164 -2.0790  0.1985
   60CHL1   C22 6902   2.373   5.695   9.233 -0.1272 -0.0286 -0.0572
   60CHL1  H22A 6903   2.320   5.601   9.209 -2.7620  0.5368  3.1968
   60CHL1  H22B 6904   2.294   5.772   9.226  1.7342  2.4050  3.7084
   60CHL1   C23 6905   2.478   5.718   9.114 -0.0733  0.8399  0.6661
   60CHL1  H23A 6906   2.496   5.828   9.113  1.8952  0.5556 -1.3115
   60CHL1  H23B 6907   2.570   5.659   9.136 -0.8234 -0.3610  0.6344
   60CHL1   C24 6908   2.429   5.667   8.974 -0.6800 -0.3706 -0.6693
   60CHL1  H24A 6909   2.451   5.559   8.960 -2.4417 -0.6925 -1.1626
   60CHL1  H24B 6910   2.320   5.691   8.969 -0.3042  1.2344 -1.7249
   60CHL1   C25 6911   2.500   5.731   8.856  0.1049  0.2381 -0.3397
   60CHL1   H25 6912   2.607   5.740   8.885  0.4591 -0.6269 -1.3885
   60CHL1   C26 6913   2.499   5.641   8.730  0.4450  0.4943  0.6432
   60CHL1  H26A 6914   2.548   5.547   8.761  0.1135 -0.1946 -0.8945
   60CHL1  H26B 6915   2.391   5.625   8.709  0.0562  1.4711  1.8223
   60CHL1  H26C 6916   2.555   5.699   8.652 -1.6423 -0.1655 -1.3945
   60CHL1   C27 6917   2.447   5.869   8.830 -0.0442  0.1130  0.2314
   60CHL1  H27A 6918   2.494   5.889   8.731  1.2024 -0.5721  0.6892
   60CHL1  H27B 6919   2.336   5.868   8.815 -0.3583 -1.7934  2.4600
   60CHL1  H27C 6920   2.471   5.951   8.900 -4.5573  2.1364 -0.3671
   61CHL1    C3 6921   5.327   4.514  10.355  0.1668  0.0514 -0.4295
   61CHL1    H3 6922   5.403   4.434  10.347  0.1052 -0.2931  1.9763
   61CHL1    O3 6923   5.274   4.500  10.487  0.1539 -0.4334  0.3958
   61CHL1   H3' 6924   5.192   4.550  10.483 -1.2060 -2.5859  0.5825
   61CHL1    C4 6925   5.385   4.650  10.342  0.2295  1.2022 -0.2522
   61CHL1   H4A 6926   5.309   4.720  10.383 -0.4499  0.4524 -0.2435
   61CHL1   H4B 6927   5.469   4.651  10.415 -0.5225  0.4709  0.6220
   61CHL1    C5 6928   5.425   4.694  10.196 -0.1061  0.0499 -0.1622
   61CHL1    C6 6929   5.543   4.749  10.170 -0.1943 -0.1667  0.0447
   61CHL1    H6 6930   5.605   4.788  10.252 -0.1808  1.7537 -0.8686
   61CHL1    C7 6931   5.597   4.783  10.038  0.3163 -0.0214  0.2880
   61CHL1   H7A 6932   5.640   4.885  10.044  1.5399 -0.5869  1.3520
   61CHL1   H7B 6933   5.657   4.695  10.005  0.6136  0.6483 -1.0014
   61CHL1    C8 6934   5.486   4.792   9.930 -0.1385  0.4617 -0.3808
   61CHL1    H8 6935   5.428   4.885   9.940  0.6486  0.8164  1.0864
   61CHL1   C14 6936   5.542   4.792   9.790 -0.6559 -0.4309  0.0261
   61CHL1   H14 6937   5.597   4.697   9.771  0.3101 -0.0006  0.6219
   61CHL1   C15 6938   5.645   4.904   9.756  0.8082  0.2333  0.2674
   61CHL1  H15A 6939   5.619   5.000   9.806 -0.7249 -1.6183  3.1736
   61CHL1  H15B 6940   5.751   4.882   9.782  0.1927 -1.9686  1.0321
   61CHL1   C16 6941   5.648   4.905   9.601 -0.0298  0.1890 -0.0030
   61CHL1  H16A 6942   5.641   5.000   9.544 -0.1232  1.0150  1.3529
   61CHL1  H16B 6943   5.742   4.861   9.562 -0.0613  0.7058 -0.6580
   61CHL1   C17 6944   5.532   4.810   9.556 -0.0594 -0.0670  0.1321
   61CHL1   H17 6945   5.575   4.708   9.545 -0.9013 -0.3993 -0.1832
   61CHL1   C13 6946   5.437   4.804   9.679 -0.8409 -0.0942 -0.8911
   61CHL1   C18 6947   5.363   4.936   9.687  0.3092  0.3921  1.0000
   61CHL1  H18A 6948   5.434   5.021   9.693  1.3097 -0.3117 -0.6305
   61CHL1  H18B 6949   5.296   4.953   9.600  0.0263  0.6373  1.2648
   61CHL1  H18C 6950   5.295   4.938   9.775 -1.4936 -0.2547 -0.3588
   61CHL1   C12 6951   5.344   4.682   9.693 -1.2646  0.0317  0.7296
   61CHL1  H12A 6952   5.263   4.681   9.617 -1.4911  0.3117  0.9654
   61CHL1  H12B 6953   5.403   4.591   9.670 -0.8893  0.5736 -0.5128
   61CHL1   C11 6954   5.279   4.680   9.832  0.1889 -0.5371  0.3640
   61CHL1  H11A 6955   5.210   4.767   9.841 -0.4880 -0.9831 -0.5075
   61CHL1  H11B 6956   5.208   4.595   9.834  1.0788 -1.2739  1.2070
   61CHL1    C9 6957   5.383   4.679   9.950  0.1570  0.1444 -0.1579
   61CHL1    H9 6958   5.441   4.587   9.927  2.2677  0.3225  4.0945
   61CHL1   C10 6959   5.325   4.654  10.086 -0.1146 -0.1380  0.1943
   61CHL1   C19 6960   5.205   4.745  10.098  0.8392  0.0296  0.0106
   61CHL1  H19A 6961   5.165   4.762  10.200  0.0561 -3.1564  0.2626
   61CHL1  H19B 6962   5.206   4.847  10.053  0.9688 -0.8034 -1.9277
   61CHL1  H19C 6963   5.121   4.689  10.052  2.0483 -1.8028  0.0201
   61CHL1    C1 6964   5.266   4.517  10.106  0.0412  0.0683 -0.8731
   61CHL1   H1A 6965   5.184   4.496  10.034 -0.0681  0.2642 -0.8073
   61CHL1   H1B 6966   5.347   4.444  10.085  1.3264  0.6861  1.6668
   61CHL1    C2 6967   5.220   4.485  10.255 -0.0156 -0.2798  0.9402
   61CHL1   H2A 6968   5.204   4.375  10.254  2.4763 -0.7144  3.3632
   61CHL1   H2B 6969   5.122   4.526  10.289 -1.9970 -4.5484  0.6502
   61CHL1   C20 6970   5.485   4.848   9.411 -0.6842 -0.7438 -0.3444
   61CHL1   H20 6971   5.443   4.951   9.419  2.6854  0.8622 -2.6010
   61CHL1   C21 6972   5.376   4.749   9.361  0.1280 -0.1540 -0.0637
   61CHL1  H21A 6973   5.284   4.756   9.423  0.8346 -0.2461  1.0086
   61CHL1  H21B 6974   5.423   4.649   9.368  0.3152  0.0531  1.6902
   61CHL1  H21C 6975   5.348   4.777   9.257 -0.0212 -1.3882 -0.3651
   61CHL1   C22 6976   5.600   4.849   9.307  0.6914 -0.3835 -0.1396
   61CHL1  H22A 6977   5.549   4.863   9.209 -1.6015  0.3519  1.1078
   61CHL1  H22B 6978   5.675   4.929   9.326  0.8074 -0.0913 -1.7981
   61CHL1   C23 6979   5.683   4.718   9.299  0.0058 -0.1964  0.2480
   61CHL1  H23A 6980   5.743   4.714   9.392 -2.7200 -4.0268  2.0007
   61CHL1  H23B 6981   5.620   4.626   9.303 -0.8915  0.3266 -1.3394
   61CHL1   C24 6982   5.781   4.729   9.186 -0.0321  0.5425  0.0935
   61CHL1  H24A 6983   5.841   4.822   9.181  0.3569  0.3828  1.4339
   61CHL1  H24B 6984   5.850   4.645   9.209 -2.9443 -1.5099  1.7219
   61CHL1   C25 6985   5.718   4.685   9.043  0.7518 -0.4639 -0.3342
   61CHL1   H25 6986   5.652   4.767   9.009  1.8408  0.3871 -0.4334
   61CHL1   C26 6987   5.834   4.673   8.949 -0.5432  0.0663  0.0702
   61CHL1  H26A 6988   5.927   4.645   9.003  0.5800 -0.5416 -2.0812
   61CHL1  H26B 6989   5.805   4.589   8.882  1.0632 -0.1719 -0.3625
   61CHL1  H26C 6990   5.855   4.768   8.895  1.6369 -1.7642 -2.4302
   61CHL1   C27 6991   5.636   4.553   9.050 -0.2003  0.4088  0.2889
   61CHL1  H27A 6992   5.543   4.582   9.104 -0.7548 -2.1900  0.7980
   61CHL1  H27B 6993   5.622   4.503   8.952 -1.8950  1.1377  0.1364
   61CHL1  H27C 6994   5.695   4.481   9.111  1.0219 -0.3787 -1.7762
   62CHL1    C3 6995   0.051   1.311  10.147  0.9681 -0.3258 -0.2892
   62CHL1    H3 6996   0.158   1.318  10.120  0.7533  1.7210 -0.7213
   62CHL1    O3 6997   0.027   1.359  10.276  0.7253  0.4149 -0.7225
   62CHL1   H3' 6998  -0.063   1.337  10.299  1.2220 -0.7325  0.2133
   62CHL1    C4 6999  -0.011   1.396  10.038  0.3779 -0.7463  0.6442
   62CHL1   H4A 7000  -0.122   1.400  10.045  0.1260  1.7340 -3.2849
   62CHL1   H4B 7001   0.020   1.502  10.049 -0.3969 -0.4953  0.4423
   62CHL1    C5 7002   0.015   1.351   9.897 -0.4152 -0.1252  0.2481
   62CHL1    C6 7003   0.075   1.423   9.800 -0.0548  0.1196  0.0584
   62CHL1    H6 7004   0.074   1.530   9.825 -3.0683 -0.3105  2.0454
   62CHL1    C7 7005   0.123   1.384   9.664  1.0204  0.0644 -0.3657
   62CHL1   H7A 7006   0.090   1.452   9.582 -0.3743  1.4146  1.2786
   62CHL1   H7B 7007   0.234   1.385   9.674  0.8025 -2.7317  3.7553
   62CHL1    C8 7008   0.064   1.245   9.620  0.5938  0.3520 -0.1741
   62CHL1    H8 7009  -0.044   1.263   9.599  0.0445 -0.2477  2.0066
   62CHL1   C14 7010   0.133   1.179   9.508 -0.2599 -0.0088  0.3543
   62CHL1   H14 7011   0.241   1.164   9.533 -0.6004  1.3714  2.7629
   62CHL1   C15 7012   0.151   1.264   9.377  0.0651  0.6003 -0.0966
   62CHL1  H15A 7013   0.051   1.312   9.373 -0.2084 -0.0298 -0.8858
   62CHL1  H15B 7014   0.230   1.340   9.391  1.8475 -1.2845  0.3446
   62CHL1   C16 7015   0.168   1.156   9.261  0.2314  0.4192 -0.0255
   62CHL1  H16A 7016   0.085   1.161   9.188 -0.4840  0.5269  0.7902
   62CHL1  H16B 7017   0.267   1.166   9.210 -0.2591 -0.1840 -1.0984
   62CHL1   C17 7018   0.169   1.016   9.336 -0.9332  0.6127  0.3230
   62CHL1   H17 7019   0.275   1.014   9.369 -0.0241 -2.4795 -2.4079
   62CHL1   C13 7020   0.083   1.040   9.464  0.8396  0.4248  0.0690
   62CHL1   C18 7021  -0.070   1.047   9.416  0.4237  0.5663  0.7170
   62CHL1  H18A 7022  -0.092   1.130   9.345 -1.0096  1.6593  2.3850
   62CHL1  H18B 7023  -0.102   0.959   9.357  0.1159  0.8116  0.5135
   62CHL1  H18C 7024  -0.128   1.064   9.509 -0.9959 -0.1635 -0.0097
   62CHL1   C12 7025   0.111   0.944   9.579 -0.2657 -0.0998 -0.7915
   62CHL1  H12A 7026   0.079   0.840   9.557  0.0258 -0.3696  0.0373
   62CHL1  H12B 7027   0.220   0.944   9.598 -0.4453 -1.5903  0.3764
   62CHL1   C11 7028   0.044   1.001   9.708 -0.3463  0.0850 -0.6464
   62CHL1  H11A 7029  -0.066   0.994   9.691 -0.6579  0.6515  0.9723
   62CHL1  H11B 7030   0.065   0.928   9.790 -2.3693 -1.1449 -1.1819
   62CHL1    C9 7031   0.073   1.147   9.739  0.1244  0.2393 -0.0038
   62CHL1    H9 7032   0.181   1.160   9.763  0.5502  0.8693 -2.2234
   62CHL1   C10 7033  -0.002   1.201   9.872  0.0466  0.2797  0.6161
   62CHL1   C19 7034  -0.156   1.161   9.859  0.6851  0.0486 -0.1932
   62CHL1  H19A 7035  -0.213   1.203   9.773  1.3841  1.5738  0.0814
   62CHL1  H19B 7036  -0.157   1.050   9.863  0.5527  0.0305 -0.6327
   62CHL1  H19C 7037  -0.208   1.201   9.949  2.3408  1.0174  0.3454
   62CHL1    C1 7038   0.058   1.115   9.987 -0.0017  0.6247  0.4010
   62CHL1   H1A 7039   0.057   1.004   9.973 -0.4322  0.5169  1.2334
   62CHL1   H1B 7040   0.167   1.134   9.982  0.4042 -1.6488  0.0808
   62CHL1    C2 7041   0.013   1.159  10.125 -0.2981  0.2364  0.8113
   62CHL1   H2A 7042   0.053   1.096  10.207  1.1935 -0.4151 -0.3933
   62CHL1   H2B 7043  -0.098   1.153  10.132 -0.1836 -1.7871  1.3492
   62CHL1   C20 7044   0.155   0.902   9.235  0.8093 -0.0697 -0.2632
   62CHL1   H20 7045   0.045   0.885   9.226  0.8476 -0.4368 -0.0531
   62CHL1   C21 7046   0.218   0.771   9.289  0.1263  0.0123  0.4822
   62CHL1  H21A 7047   0.174   0.747   9.389  2.3114  0.5355  1.6029
   62CHL1  H21B 7048   0.327   0.792   9.299  0.4234 -0.8820 -0.7045
   62CHL1  H21C 7049   0.202   0.681   9.225 -0.9653 -2.3406  3.9228
   62CHL1   C22 7050   0.211   0.925   9.087 -0.2776 -0.7062  0.6003
   62CHL1  H22A 7051   0.165   0.843   9.028  0.0913 -1.4654  1.3665
   62CHL1  H22B 7052   0.146   1.007   9.048  0.5204  0.2041  1.1570
   62CHL1   C23 7053   0.359   0.933   9.054  0.3884  0.3577  0.1176
   62CHL1  H23A 7054   0.400   1.000   9.133  0.1778 -0.0092  0.5405
   62CHL1  H23B 7055   0.392   0.831   9.081  1.5604 -0.1281 -2.9736
   62CHL1   C24 7056   0.384   0.965   8.900 -0.5191 -0.2143 -0.8568
   62CHL1  H24A 7057   0.309   0.902   8.847 -2.3005  1.2455 -0.1113
   62CHL1  H24B 7058   0.357   1.072   8.887 -0.3050 -0.2044 -1.2218
   62CHL1   C25 7059   0.533   0.942   8.864 -0.4988 -0.0021  0.1623
   62CHL1   H25 7060   0.560   0.835   8.880 -1.7908 -0.4199 -0.4124
   62CHL1   C26 7061   0.558   0.976   8.716  0.0725 -0.6177 -0.4264
   62CHL1  H26A 7062   0.480   0.925   8.656 -2.2633  0.1521  1.8595
   62CHL1  H26B 7063   0.553   1.086   8.698 -2.8111 -0.4353  1.1835
   62CHL1  H26C 7064   0.659   0.946   8.681 -0.0511 -0.8685 -0.5687
   62CHL1   C27 7065   0.628   1.025   8.957  0.5056  0.2729 -0.4010
   62CHL1  H27A 7066   0.728   1.010   8.913  0.6168  0.0539 -0.0740
   62CHL1  H27B 7067   0.602   1.132   8.971  1.2339  0.4311 -0.2631
   62CHL1  H27C 7068   0.613   0.987   9.061  1.9217  1.3203  0.1939
   63CHL1    C3 7069   1.401   2.994  10.426  0.3212 -0.2023  0.5955
   63CHL1    H3 7070   1.491   3.057  10.442  0.9941 -1.0675  0.2947
   63CHL1    O3 7071   1.338   2.938  10.544 -0.3830 -0.0574  0.4076
   63CHL1   H3' 7072   1.248   2.919  10.518 -0.7272 -1.2262  2.3613
   63CHL1    C4 7073   1.286   3.075  10.360 -0.3065  0.6169  1.0803
   63CHL1   H4A 7074   1.189   3.021  10.359  0.5079 -0.8508 -0.3069
   63CHL1   H4B 7075   1.259   3.160  10.426  0.0042  0.7141  1.0830
   63CHL1    C5 7076   1.323   3.118  10.218 -0.0775 -0.2534 -1.3008
   63CHL1    C6 7077   1.316   3.250  10.184 -0.2340  0.0857  0.5610
   63CHL1    H6 7078   1.268   3.313  10.261 -0.7130  1.0707 -0.5333
   63CHL1    C7 7079   1.356   3.303  10.050  0.4285  0.5404  0.3891
   63CHL1   H7A 7080   1.275   3.373  10.018  1.2315  0.6898 -1.3465
   63CHL1   H7B 7081   1.445   3.369  10.050  0.9280 -0.1282  0.4298
   63CHL1    C8 7082   1.370   3.186   9.943  0.3989  0.2296 -0.5462
   63CHL1    H8 7083   1.266   3.148   9.930  0.1969 -0.1826  1.8591
   63CHL1   C14 7084   1.431   3.239   9.817 -0.0684 -0.2006  0.2810
   63CHL1   H14 7085   1.531   3.283   9.837  0.0324  0.5038 -1.6158
   63CHL1   C15 7086   1.363   3.357   9.744 -0.4131  0.5160 -0.6822
   63CHL1  H15A 7087   1.256   3.335   9.721 -0.1389  1.5978 -3.1391
   63CHL1  H15B 7088   1.360   3.450   9.805 -1.5342  0.8626 -1.2453
   63CHL1   C16 7089   1.458   3.364   9.622 -0.4202  0.5028  0.3043
   63CHL1  H16A 7090   1.410   3.405   9.530  2.5462  1.5569 -0.8193
   63CHL1  H16B 7091   1.541   3.435   9.642 -0.2260 -0.3301  2.6433
   63CHL1   C17 7092   1.520   3.221   9.604 -0.6677  0.3053  0.8237
   63CHL1   H17 7093   1.628   3.232   9.628 -0.5112 -1.8946  1.2470
   63CHL1   C13 7094   1.463   3.134   9.711  0.5802  0.3541  0.2264
   63CHL1   C18 7095   1.335   3.055   9.665 -1.4508  0.2965 -0.7804
   63CHL1  H18A 7096   1.282   3.018   9.755  1.6610 -1.0532  0.5969
   63CHL1  H18B 7097   1.269   3.126   9.612 -0.2999  1.5839 -0.5125
   63CHL1  H18C 7098   1.362   2.964   9.606 -0.0992  1.1236 -1.4786
   63CHL1   C12 7099   1.566   3.041   9.771 -0.5937 -0.2790 -0.2501
   63CHL1  H12A 7100   1.593   2.960   9.699 -0.1321 -3.2443  3.1089
   63CHL1  H12B 7101   1.661   3.094   9.794 -0.3782 -0.4802 -0.6516
   63CHL1   C11 7102   1.518   2.972   9.896  0.1265  0.0133  0.6778
   63CHL1  H11A 7103   1.443   2.897   9.864 -1.1075  1.2354  0.6332
   63CHL1  H11B 7104   1.603   2.917   9.941  1.6995  2.8649  1.3442
   63CHL1    C9 7105   1.458   3.069  10.000  0.2800  0.4007 -0.2160
   63CHL1    H9 7106   1.552   3.117  10.037  0.4390 -0.2015  0.1692
   63CHL1   C10 7107   1.389   3.006  10.127  0.1315  0.0422 -0.1287
   63CHL1   C19 7108   1.268   2.920  10.081 -0.5447 -0.1336 -0.4224
   63CHL1  H19A 7109   1.218   2.861  10.161  0.9474  0.0090  0.6368
   63CHL1  H19B 7110   1.196   2.987  10.030 -0.2548  2.0664  1.9568
   63CHL1  H19C 7111   1.305   2.840  10.013 -0.9773 -0.2691 -0.5024
   63CHL1    C1 7112   1.491   2.930  10.201 -0.2739 -0.6143 -0.5556
   63CHL1   H1A 7113   1.530   2.846  10.140  1.2368 -1.4449  1.5045
   63CHL1   H1B 7114   1.581   2.991  10.223 -0.4243 -0.8156  0.6933
   63CHL1    C2 7115   1.436   2.877  10.336 -0.3060  0.4886  0.5062
   63CHL1   H2A 7116   1.521   2.827  10.388  2.2698  2.2986 -1.8474
   63CHL1   H2B 7117   1.353   2.805  10.318 -0.5276  0.7644  0.4241
   63CHL1   C20 7118   1.522   3.184   9.456 -0.2964  0.3593 -0.4041
   63CHL1   H20 7119   1.414   3.175   9.431 -0.0927 -2.2709 -0.4350
   63CHL1   C21 7120   1.589   3.050   9.442 -0.3114 -0.8974  0.1798
   63CHL1  H21A 7121   1.695   3.060   9.472 -0.4291  2.1929 -0.2594
   63CHL1  H21B 7122   1.585   3.025   9.334 -0.7260 -1.1947  0.2627
   63CHL1  H21C 7123   1.539   2.971   9.502  0.4410 -1.5002  0.0165
   63CHL1   C22 7124   1.595   3.281   9.363 -0.2682  0.1141 -0.2609
   63CHL1  H22A 7125   1.570   3.385   9.392  0.8543  0.0013  1.1386
   63CHL1  H22B 7126   1.705   3.268   9.362 -0.3702 -0.8091  0.0420
   63CHL1   C23 7127   1.573   3.265   9.206 -0.2908  0.4129 -1.2890
   63CHL1  H23A 7128   1.605   3.167   9.165  0.2736 -0.1521  0.4618
   63CHL1  H23B 7129   1.463   3.251   9.198 -0.1866 -0.6693 -0.9579
   63CHL1   C24 7130   1.608   3.388   9.120  0.3777  0.2943  0.0487
   63CHL1  H24A 7131   1.560   3.473   9.172  2.2625  1.5258 -0.1917
   63CHL1  H24B 7132   1.719   3.397   9.129  0.1189  0.7606  3.2616
   63CHL1   C25 7133   1.566   3.383   8.970  0.1716 -0.0485 -0.3790
   63CHL1   H25 7134   1.455   3.374   8.967  0.1290 -0.2478  1.4911
   63CHL1   C26 7135   1.601   3.525   8.904  0.3168  0.5039 -0.5273
   63CHL1  H26A 7136   1.710   3.544   8.901  1.0985 -3.1059  1.6108
   63CHL1  H26B 7137   1.546   3.523   8.808  0.4537 -1.7480 -0.5957
   63CHL1  H26C 7138   1.549   3.602   8.965  2.1071  0.8676  0.5478
   63CHL1   C27 7139   1.645   3.281   8.890  0.3083 -0.6562  0.6166
   63CHL1  H27A 7140   1.613   3.176   8.911  2.4692 -1.1688  1.5409
   63CHL1  H27B 7141   1.627   3.281   8.781 -0.7995 -2.0425  0.7724
   63CHL1  H27C 7142   1.751   3.290   8.921  0.7125 -0.3126 -0.8374
   64CHL1    C3 7143   0.666   2.339  10.035  0.2775  0.2610  0.6549
   64CHL1    H3 7144   0.707   2.237  10.028  0.8060  0.4297  1.2638
   64CHL1    O3 7145   0.647   2.370  10.173  0.3768 -0.0388 -0.1729
   64CHL1   H3' 7146   0.584   2.443  10.172  0.8334  0.4640  3.1786
   64CHL1    C4 7147   0.757   2.450   9.969  0.9351 -0.6029 -0.3643
   64CHL1   H4A 7148   0.720   2.553   9.987  1.0729 -0.3311 -1.6109
   64CHL1   H4B 7149   0.856   2.442  10.018  0.2938 -0.2554  1.0051
   64CHL1    C5 7150   0.772   2.435   9.817 -0.0301 -0.7386  0.3297
   64CHL1    C6 7151   0.891   2.423   9.755 -0.3064 -0.9029  0.2638
   64CHL1    H6 7152   0.984   2.408   9.810 -0.1692 -0.2176  0.2229
   64CHL1    C7 7153   0.895   2.412   9.600 -0.3535  0.5876  0.4521
   64CHL1   H7A 7154   0.984   2.469   9.565 -0.8222 -0.0294 -1.7724
   64CHL1   H7B 7155   0.907   2.305   9.574  0.3825 -0.1311  3.5574
   64CHL1    C8 7156   0.770   2.465   9.529 -0.2009  0.3021  0.0719
   64CHL1    H8 7157   0.774   2.575   9.538 -0.9213  0.2672  0.8836
   64CHL1   C14 7158   0.769   2.438   9.377 -0.8962 -0.2164  0.3917
   64CHL1   H14 7159   0.766   2.330   9.351 -0.0395 -0.1140 -0.1707
   64CHL1   C15 7160   0.886   2.503   9.285  0.3510 -0.2450 -0.0245
   64CHL1  H15A 7161   0.898   2.605   9.326 -3.8229 -0.0505  0.9474
   64CHL1  H15B 7162   0.984   2.452   9.294 -0.0069 -1.0883 -0.7241
   64CHL1   C16 7163   0.821   2.519   9.145  0.4223 -0.1263  0.3417
   64CHL1  H16A 7164   0.824   2.626   9.115 -2.6283  0.7932  3.0754
   64CHL1  H16B 7165   0.872   2.468   9.060  1.6331 -0.6017  1.3286
   64CHL1   C17 7166   0.675   2.466   9.152 -0.3876  0.2165 -0.2318
   64CHL1   H17 7167   0.665   2.357   9.135 -2.1614  0.0578  1.6616
   64CHL1   C13 7168   0.645   2.491   9.305  0.5753  0.2788  0.3302
   64CHL1   C18 7169   0.618   2.639   9.328 -0.3419 -0.0755 -0.9210
   64CHL1  H18A 7170   0.640   2.674   9.431  2.2172 -2.1946 -0.6718
   64CHL1  H18B 7171   0.683   2.709   9.270  0.4558  2.1009  2.4121
   64CHL1  H18C 7172   0.509   2.648   9.314 -0.4531 -2.0168 -1.4674
   64CHL1   C12 7173   0.523   2.411   9.366  0.4881 -0.2394  0.2375
   64CHL1  H12A 7174   0.426   2.454   9.332 -2.2256 -3.7159  3.2082
   64CHL1  H12B 7175   0.539   2.303   9.341 -0.6510 -0.9780  2.5574
   64CHL1   C11 7176   0.508   2.434   9.521  0.5392  0.7902  0.2992
   64CHL1  H11A 7177   0.484   2.542   9.530  2.0434  1.1262  0.5141
   64CHL1  H11B 7178   0.421   2.383   9.566 -0.6153  0.6562 -1.9888
   64CHL1    C9 7179   0.641   2.405   9.596 -0.9858  0.1190 -0.7033
   64CHL1    H9 7180   0.653   2.297   9.570  0.8078 -0.1040  0.9334
   64CHL1   C10 7181   0.631   2.433   9.743 -0.4960 -0.0791  0.2097
   64CHL1   C19 7182   0.565   2.575   9.758  0.3189 -0.1961 -0.2780
   64CHL1  H19A 7183   0.604   2.655   9.691 -0.5396  0.1426 -0.3883
   64CHL1  H19B 7184   0.456   2.564   9.741 -0.2144  1.0806  2.1127
   64CHL1  H19C 7185   0.563   2.610   9.864  1.1548  2.3605 -1.0650
   64CHL1    C1 7186   0.547   2.326   9.820  0.2794 -0.6452 -0.7099
   64CHL1   H1A 7187   0.445   2.316   9.776 -0.9605  1.0985  1.6844
   64CHL1   H1B 7188   0.595   2.228   9.798  2.2717 -0.0904  1.0961
   64CHL1    C2 7189   0.536   2.335   9.968  0.0533 -0.5886  0.4070
   64CHL1   H2A 7190   0.488   2.241  10.002  0.2020 -0.6459  0.4605
   64CHL1   H2B 7191   0.479   2.427   9.995  1.0372  0.1868 -0.1509
   64CHL1   C20 7192   0.594   2.540   9.053  0.6534  0.4792  0.5419
   64CHL1   H20 7193   0.596   2.650   9.071  0.8407  0.7021 -0.7964
   64CHL1   C21 7194   0.446   2.493   9.050  0.2199 -0.3950 -0.1174
   64CHL1  H21A 7195   0.395   2.517   9.146 -1.9153 -1.8390 -0.8572
   64CHL1  H21B 7196   0.451   2.383   9.037 -1.2071 -0.5251  0.3517
   64CHL1  H21C 7197   0.377   2.537   8.976  0.8163  2.0535  0.7266
   64CHL1   C22 7198   0.656   2.520   8.911 -0.1703  0.4764  0.2937
   64CHL1  H22A 7199   0.765   2.543   8.901  0.2093 -2.1903 -2.5078
   64CHL1  H22B 7200   0.653   2.413   8.883 -1.6571  1.2583 -2.6512
   64CHL1   C23 7201   0.579   2.584   8.803  0.5295  0.0704 -0.1848
   64CHL1  H23A 7202   0.469   2.569   8.812  0.7651 -0.0784  3.5315
   64CHL1  H23B 7203   0.588   2.694   8.820 -0.4916  0.2433 -0.7521
   64CHL1   C24 7204   0.632   2.559   8.663  1.4325 -0.5776  0.8604
   64CHL1  H24A 7205   0.736   2.596   8.650  0.0099  3.0141 -1.4522
   64CHL1  H24B 7206   0.634   2.450   8.646  0.0626 -0.5045  0.0579
   64CHL1   C25 7207   0.538   2.621   8.556 -0.0319  0.1880 -0.4513
   64CHL1   H25 7208   0.444   2.567   8.580  1.9870 -3.0128  0.7529
   64CHL1   C26 7209   0.529   2.775   8.552 -0.3771 -0.1670 -0.8447
   64CHL1  H26A 7210   0.457   2.809   8.475 -0.3757  1.5265 -0.1077
   64CHL1  H26B 7211   0.493   2.812   8.650  1.1040  1.2206 -0.8035
   64CHL1  H26C 7212   0.635   2.803   8.532  0.1683 -1.1226  0.5419
   64CHL1   C27 7213   0.581   2.572   8.416  0.4875  0.1362  0.0154
   64CHL1  H27A 7214   0.487   2.573   8.356 -0.3447  4.2827  1.1626
   64CHL1  H27B 7215   0.658   2.636   8.369  0.4037  1.2093  1.3055
   64CHL1  H27C 7216   0.619   2.468   8.423 -0.1423 -0.0180  1.1617
   65CHL1    C3 7217   3.149   6.197  10.198 -0.7279  0.0855 -0.3100
   65CHL1    H3 7218   3.162   6.088  10.187 -0.7356  0.1261 -0.7072
   65CHL1    O3 7219   3.140   6.244  10.333 -0.1159  0.0812 -0.3138
   65CHL1   H3' 7220   3.117   6.337  10.326  0.9923  0.1807 -2.9096
   65CHL1    C4 7221   3.270   6.263  10.132 -0.5362 -0.0556 -0.1540
   65CHL1   H4A 7222   3.265   6.372  10.151 -0.6741  0.1706 -1.4143
   65CHL1   H4B 7223   3.363   6.226  10.180  1.0520  2.3485 -1.2726
   65CHL1    C5 7224   3.275   6.245   9.980  1.0057  1.1611 -0.0558
   65CHL1    C6 7225   3.384   6.192   9.918 -0.5389 -0.0486  0.5717
   65CHL1    H6 7226   3.476   6.180   9.976  0.2072  1.7136 -0.2189
   65CHL1    C7 7227   3.385   6.160   9.774 -0.5773  0.5050 -0.4294
   65CHL1   H7A 7228   3.485   6.195   9.741 -1.4575  1.0539 -2.5834
   65CHL1   H7B 7229   3.372   6.051   9.754  0.1939  0.5547 -1.1979
   65CHL1    C8 7230   3.278   6.239   9.698  0.4079  0.3509  0.2843
   65CHL1    H8 7231   3.303   6.347   9.703 -0.1456  0.5399 -0.9774
   65CHL1   C14 7232   3.270   6.197   9.552 -0.0418 -0.6415  0.1488
   65CHL1   H14 7233   3.240   6.090   9.544 -3.8568  0.3217  0.7726
   65CHL1   C15 7234   3.403   6.217   9.477 -0.0280  0.0928 -0.1921
   65CHL1  H15A 7235   3.459   6.307   9.511 -0.0581  0.4552 -1.0725
   65CHL1  H15B 7236   3.471   6.129   9.485 -1.0926 -0.8573 -1.4899
   65CHL1   C16 7237   3.354   6.230   9.326  0.0968  0.3300 -0.5025
   65CHL1  H16A 7238   3.385   6.331   9.290  1.1039 -0.5369 -2.0972
   65CHL1  H16B 7239   3.403   6.150   9.267 -0.1890 -0.5022  0.3883
   65CHL1   C17 7240   3.200   6.223   9.331  0.1640 -0.4960  0.2570
   65CHL1   H17 7241   3.176   6.115   9.337  1.4252 -0.7138  1.8199
   65CHL1   C13 7242   3.160   6.269   9.470 -0.6786  0.3015 -0.2837
   65CHL1   C18 7243   3.184   6.427   9.473  0.2702 -0.9267 -0.1641
   65CHL1  H18A 7244   3.274   6.455   9.414  0.2766  1.2850  0.8476
   65CHL1  H18B 7245   3.088   6.473   9.439  1.5208  1.4999 -0.5013
   65CHL1  H18C 7246   3.195   6.468   9.575 -0.9727 -0.1000 -0.3475
   65CHL1   C12 7247   3.028   6.230   9.530  0.3246  0.5235 -0.0891
   65CHL1  H12A 7248   2.939   6.275   9.480  0.5347  1.6322  0.4999
   65CHL1  H12B 7249   3.012   6.122   9.510  0.7217 -0.0212  2.3482
   65CHL1   C11 7250   3.014   6.269   9.679  0.7395  0.4308  0.7364
   65CHL1  H11A 7251   3.016   6.380   9.678  0.3701  0.4550  1.6082
   65CHL1  H11B 7252   2.923   6.226   9.726 -0.3867  0.0545 -1.7278
   65CHL1    C9 7253   3.140   6.226   9.765  0.1007 -0.2289  0.1978
   65CHL1    H9 7254   3.135   6.115   9.763 -1.7412 -0.2031  1.7799
   65CHL1   C10 7255   3.140   6.276   9.911  0.5430 -0.2715 -0.5627
   65CHL1   C19 7256   3.101   6.427   9.914 -0.1120  0.5515  0.0740
   65CHL1  H19A 7257   2.998   6.442   9.876 -0.1668 -0.0526 -0.0285
   65CHL1  H19B 7258   3.106   6.476  10.013  0.5030 -0.1555  0.4024
   65CHL1  H19C 7259   3.169   6.487   9.849 -2.2822  3.2311  0.2214
   65CHL1    C1 7260   3.025   6.199   9.984 -0.3760  0.5729 -0.1626
   65CHL1   H1A 7261   2.927   6.215   9.936 -0.0084  0.2749 -1.0220
   65CHL1   H1B 7262   3.043   6.090   9.968 -1.9643  0.2748  0.0756
   65CHL1    C2 7263   3.019   6.231  10.133  0.6341  0.1783 -0.0504
   65CHL1   H2A 7264   2.942   6.157  10.165  0.8224 -0.6554 -1.4743
   65CHL1   H2B 7265   2.991   6.333  10.166 -2.4257 -0.6185 -0.0747
   65CHL1   C20 7266   3.140   6.275   9.204 -0.2096 -0.4678  0.6005
   65CHL1   H20 7267   3.156   6.385   9.204  0.3321 -0.5457  0.8456
   65CHL1   C21 7268   2.988   6.258   9.199  0.2351 -0.5917 -0.3253
   65CHL1  H21A 7269   2.945   6.308   9.288  1.6656  1.2260 -0.6244
   65CHL1  H21B 7270   2.966   6.150   9.189  1.7584 -0.8735 -0.8064
   65CHL1  H21C 7271   2.955   6.308   9.105 -1.9748  1.6427  1.5731
   65CHL1   C22 7272   3.210   6.217   9.077  0.4054  0.2358  0.3754
   65CHL1  H22A 7273   3.320   6.212   9.089  0.5584  0.8329 -0.7081
   65CHL1  H22B 7274   3.177   6.111   9.066  1.1740  0.1851 -1.6670
   65CHL1   C23 7275   3.170   6.286   8.944 -0.5210  0.0578 -0.6647
   65CHL1  H23A 7276   3.061   6.277   8.927 -0.3395  1.8996 -2.9655
   65CHL1  H23B 7277   3.191   6.394   8.963 -0.1630  0.1185 -1.4048
   65CHL1   C24 7278   3.260   6.244   8.833  0.2639  0.1526 -0.7387
   65CHL1  H24A 7279   3.361   6.245   8.880 -1.2179 -0.6444  2.6301
   65CHL1  H24B 7280   3.239   6.142   8.794  3.1384 -0.2226 -1.4384
   65CHL1   C25 7281   3.258   6.333   8.703  0.5728  0.6223  0.3184
   65CHL1   H25 7282   3.301   6.427   8.742 -1.3186  1.3724  0.6640
   65CHL1   C26 7283   3.358   6.276   8.599  0.1665  0.3829 -0.1452
   65CHL1  H26A 7284   3.316   6.187   8.547 -1.0952  1.4146 -0.9238
   65CHL1  H26B 7285   3.378   6.357   8.525  0.3767  1.4354  1.0519
   65CHL1  H26C 7286   3.454   6.248   8.646 -1.6156  0.6309  3.8469
   65CHL1   C27 7287   3.120   6.355   8.643  0.1068  0.0060  0.0837
   65CHL1  H27A 7288   3.124   6.381   8.535 -1.9137 -1.1201 -0.2846
   65CHL1  H27B 7289   3.053   6.267   8.650  0.5779 -0.5304 -2.0018
   65CHL1  H27C 7290   3.067   6.431   8.705  2.6107  1.1679  0.8371
   66CHL1    C3 7291   0.335   4.315  10.608 -0.4497 -0.3482  0.2975
   66CHL1    H3 7292   0.253   4.387  10.584 -0.3725 -0.2495  0.3320
   66CHL1    O3 7293   0.322   4.280  10.742 -0.2638 -0.0331 -0.6621
   66CHL1   H3' 7294   0.390   4.333  10.782  0.8020 -2.1356  0.3959
   66CHL1    C4 7295   0.318   4.186  10.520 -0.5684 -0.0364 -0.4041
   66CHL1   H4A 7296   0.387   4.110  10.561  1.4884  1.7747 -0.4004
   66CHL1   H4B 7297   0.220   4.137  10.540 -0.0793 -1.0601 -0.5320
   66CHL1    C5 7298   0.345   4.227  10.375  0.6048  0.3048  0.9863
   66CHL1    C6 7299   0.248   4.202  10.281 -0.0336 -0.4389  0.6024
   66CHL1    H6 7300   0.155   4.157  10.319  0.5670 -0.9050  1.5792
   66CHL1    C7 7301   0.255   4.243  10.133 -0.2663  0.2136  0.4675
   66CHL1   H7A 7302   0.213   4.174  10.057 -0.7298  0.4956  0.4698
   66CHL1   H7B 7303   0.207   4.341  10.114  2.4814  2.0538  2.5356
   66CHL1    C8 7304   0.403   4.276  10.084 -0.0066 -0.2780 -0.0477
   66CHL1    H8 7305   0.461   4.181  10.084  1.1664  0.4020  3.3101
   66CHL1   C14 7306   0.401   4.349   9.949  0.5268 -0.1841 -0.1488
   66CHL1   H14 7307   0.348   4.444   9.971 -0.3516 -0.6576 -0.2206
   66CHL1   C15 7308   0.326   4.280   9.832 -0.2898  0.5809 -1.0729
   66CHL1  H15A 7309   0.349   4.172   9.837  2.5804  1.2329  1.4890
   66CHL1  H15B 7310   0.216   4.290   9.843 -0.3311  0.0311 -0.9803
   66CHL1   C16 7311   0.394   4.344   9.713  0.1447  0.1470 -0.8368
   66CHL1  H16A 7312   0.449   4.261   9.664  0.6970 -1.7412  2.7602
   66CHL1  H16B 7313   0.317   4.386   9.646 -0.7876 -1.0510 -0.5346
   66CHL1   C17 7314   0.488   4.450   9.765 -1.2338 -0.2429 -0.4937
   66CHL1   H17 7315   0.425   4.536   9.795  0.6290  0.1899  2.3839
   66CHL1   C13 7316   0.540   4.391   9.902  0.8563  0.0567  0.1576
   66CHL1   C18 7317   0.638   4.274   9.886  0.2713 -0.1340 -0.3452
   66CHL1  H18A 7318   0.651   4.226   9.986  0.2986  0.1915 -0.1905
   66CHL1  H18B 7319   0.601   4.195   9.818  1.8286 -0.8913 -0.3192
   66CHL1  H18C 7320   0.736   4.296   9.839 -0.1848  0.2145 -1.1518
   66CHL1   C12 7321   0.601   4.487  10.009  0.6912  0.7258  0.2328
   66CHL1  H12A 7322   0.708   4.505   9.984  1.6013 -1.6614  2.1939
   66CHL1  H12B 7323   0.548   4.585  10.004 -3.1005 -1.1778  1.7325
   66CHL1   C11 7324   0.615   4.421  10.149  0.5620 -0.4785 -0.5278
   66CHL1  H11A 7325   0.700   4.349  10.150  0.7103 -0.3201 -1.3958
   66CHL1  H11B 7326   0.639   4.499  10.223 -0.5000 -1.3125  0.7235
   66CHL1    C9 7327   0.476   4.354  10.191 -0.3667  0.1936 -0.5805
   66CHL1    H9 7328   0.403   4.436  10.207  0.4424  0.9018 -0.5265
   66CHL1   C10 7329   0.477   4.296  10.335 -0.5023  0.6703  0.4891
   66CHL1   C19 7330   0.590   4.190  10.342  0.1794  0.3274  0.1153
   66CHL1  H19A 7331   0.576   4.111  10.265 -0.1586 -0.0614  0.5753
   66CHL1  H19B 7332   0.693   4.228  10.324  1.3839 -1.8472  2.0778
   66CHL1  H19C 7333   0.601   4.154  10.447 -2.1502  0.7239  0.5176
   66CHL1    C1 7334   0.496   4.408  10.438 -0.0078  1.0740 -0.4054
   66CHL1   H1A 7335   0.600   4.445  10.425  0.7570 -0.4088  1.1640
   66CHL1   H1B 7336   0.427   4.489  10.410 -1.0152  0.3737  0.0060
   66CHL1    C2 7337   0.478   4.367  10.586 -0.4376 -0.3940  0.6172
   66CHL1   H2A 7338   0.506   4.449  10.656 -1.8042  0.0425  0.6716
   66CHL1   H2B 7339   0.555   4.293  10.617  0.7353  1.3751  2.0942
   66CHL1   C20 7340   0.597   4.494   9.663  0.0931  0.2414 -0.5444
   66CHL1   H20 7341   0.683   4.424   9.659 -0.2654 -0.2401  0.0379
   66CHL1   C21 7342   0.649   4.631   9.691 -0.0917  0.1513  0.1020
   66CHL1  H21A 7343   0.715   4.662   9.607  0.8324 -2.1918 -0.0752
   66CHL1  H21B 7344   0.715   4.634   9.781  1.2851 -0.5554 -0.8622
   66CHL1  H21C 7345   0.558   4.691   9.715 -0.4605  0.8712 -2.9407
   66CHL1   C22 7346   0.531   4.504   9.516  0.4675 -0.0440 -0.0606
   66CHL1  H22A 7347   0.613   4.544   9.452 -0.7775 -0.1031 -1.7377
   66CHL1  H22B 7348   0.510   4.400   9.482 -0.9718  0.3417 -0.4005
   66CHL1   C23 7349   0.419   4.606   9.505 -0.2645  0.0412 -0.2467
   66CHL1  H23A 7350   0.352   4.608   9.594 -1.0668  1.3832 -0.8773
   66CHL1  H23B 7351   0.451   4.711   9.488 -1.2639  0.4925  0.6337
   66CHL1   C24 7352   0.322   4.573   9.388  0.5678  0.0623 -1.1828
   66CHL1  H24A 7353   0.269   4.478   9.412 -0.5598  0.9501 -0.0636
   66CHL1  H24B 7354   0.254   4.660   9.396  0.2759 -0.3168  1.0647
   66CHL1   C25 7355   0.389   4.562   9.252  0.0140 -0.3342  0.2949
   66CHL1   H25 7356   0.456   4.473   9.255  0.4117 -0.0587 -0.3641
   66CHL1   C26 7357   0.285   4.519   9.139 -1.2048  0.6120  0.3951
   66CHL1  H26A 7358   0.340   4.496   9.046 -2.8332 -1.0638 -0.2000
   66CHL1  H26B 7359   0.232   4.426   9.172 -1.2306  0.6104  0.3486
   66CHL1  H26C 7360   0.213   4.600   9.118 -0.1222  0.8879 -2.4359
   66CHL1   C27 7361   0.478   4.687   9.221 -0.3999  0.1159 -0.1469
   66CHL1  H27A 7362   0.527   4.667   9.124  0.3747  0.9373  0.0699
   66CHL1  H27B 7363   0.407   4.772   9.210  1.4078  1.4401 -1.7477
   66CHL1  H27C 7364   0.555   4.699   9.299 -1.0842  0.6779  0.4499
   67CHL1    C3 7365   4.836   4.957  10.285  0.3664 -0.5794  0.9387
   67CHL1    H3 7366   4.880   4.861  10.252  0.3658 -0.7155  1.3337
   67CHL1    O3 7367   4.839   4.968  10.432  0.0814 -0.3370  0.5649
   67CHL1   H3' 7368   4.785   5.043  10.458  0.3217 -0.1694  0.5809
   67CHL1    C4 7369   4.915   5.073  10.236 -0.0338 -0.4922  0.0930
   67CHL1   H4A 7370   4.864   5.164  10.274  0.5794  0.5393 -1.5027
   67CHL1   H4B 7371   5.014   5.067  10.285 -0.4115  0.4228  1.0011
   67CHL1    C5 7372   4.912   5.074  10.088 -0.1214  0.8594  0.1669
   67CHL1    C6 7373   5.027   5.052  10.020 -0.4811  0.4571  0.0827
   67CHL1    H6 7374   5.121   5.041  10.076 -0.1152 -0.5639 -0.7312
   67CHL1    C7 7375   5.026   5.055   9.871 -0.5641  0.6421  0.6161
   67CHL1   H7A 7376   5.103   5.122   9.827 -0.2312  0.3760  0.7920
   67CHL1   H7B 7377   5.017   4.955   9.826  0.5070  1.1977 -0.8698
   67CHL1    C8 7378   4.903   5.129   9.808  0.1612 -0.5395  0.0026
   67CHL1    H8 7379   4.916   5.234   9.840 -1.0910 -0.8490  1.6198
   67CHL1   C14 7380   4.895   5.119   9.659  0.8885  0.3026 -0.6118
   67CHL1   H14 7381   4.896   5.012   9.628  3.4445  0.0662  0.1299
   67CHL1   C15 7382   5.000   5.182   9.570  0.2981 -0.6871 -0.1512
   67CHL1  H15A 7383   5.034   5.280   9.611  0.4550 -0.3348 -1.1192
   67CHL1  H15B 7384   5.094   5.123   9.564  0.0877 -1.4016  2.6043
   67CHL1   C16 7385   4.937   5.205   9.426 -0.3130 -0.1274 -0.2083
   67CHL1  H16A 7386   4.953   5.312   9.400 -1.2114  0.2607  0.8037
   67CHL1  H16B 7387   4.988   5.131   9.360  0.9796  0.7230 -0.1912
   67CHL1   C17 7388   4.790   5.169   9.438  0.4248 -0.1925 -0.2569
   67CHL1   H17 7389   4.782   5.061   9.415  1.9907 -0.0223 -1.6945
   67CHL1   C13 7390   4.766   5.176   9.596  0.2299  0.1237  0.6286
   67CHL1   C18 7391   4.752   5.328   9.635  0.3000 -0.1366  0.3142
   67CHL1  H18A 7392   4.749   5.335   9.746 -0.1511  1.4590  0.2148
   67CHL1  H18B 7393   4.840   5.388   9.604 -0.7103  1.0306 -0.3146
   67CHL1  H18C 7394   4.658   5.370   9.595  0.3742 -0.4108 -0.1642
   67CHL1   C12 7395   4.643   5.099   9.653  0.0161 -0.0123  0.2475
   67CHL1  H12A 7396   4.542   5.131   9.621 -1.4411 -1.6077  3.0080
   67CHL1  H12B 7397   4.653   4.994   9.617 -0.5338 -0.1239  0.4167
   67CHL1   C11 7398   4.645   5.100   9.805  1.4928 -0.4066  0.2895
   67CHL1  H11A 7399   4.607   5.202   9.830 -1.0840 -1.4993  1.0048
   67CHL1  H11B 7400   4.567   5.031   9.843 -0.5116  1.2958 -0.6110
   67CHL1    C9 7401   4.779   5.073   9.873 -0.3146 -0.1437  0.1914
   67CHL1    H9 7402   4.792   4.967   9.840  1.6091  0.0939  0.1297
   67CHL1   C10 7403   4.777   5.098  10.027  0.4412  0.0309 -0.2966
   67CHL1   C19 7404   4.734   5.245  10.051 -0.4856  0.2073  0.2416
   67CHL1  H19A 7405   4.780   5.324   9.988  0.8689 -0.5027  0.3280
   67CHL1  H19B 7406   4.625   5.250  10.029 -0.6669 -0.2277  1.0299
   67CHL1  H19C 7407   4.743   5.278  10.157 -0.0431  0.0712  0.2455
   67CHL1    C1 7408   4.687   4.986  10.090  0.0883 -0.2092 -0.2263
   67CHL1   H1A 7409   4.581   4.987  10.058  0.7655 -0.7170 -2.6459
   67CHL1   H1B 7410   4.725   4.891  10.047 -1.9736 -0.3644 -1.7797
   67CHL1    C2 7411   4.696   4.969  10.239  0.3132 -0.1422  0.1432
   67CHL1   H2A 7412   4.640   4.875  10.260  0.8758 -0.6193 -0.4507
   67CHL1   H2B 7413   4.636   5.051  10.285 -1.9382 -2.4167  1.3886
   67CHL1   C20 7414   4.706   5.254   9.341 -0.7967 -0.1003  0.0910
   67CHL1   H20 7415   4.710   5.361   9.371 -1.8787 -0.0882  0.2384
   67CHL1   C21 7416   4.556   5.218   9.357 -0.4631  0.0114 -0.0046
   67CHL1  H21A 7417   4.544   5.110   9.381  2.2149 -0.4797 -0.6856
   67CHL1  H21B 7418   4.487   5.230   9.271 -2.1810  0.8601  1.4490
   67CHL1  H21C 7419   4.506   5.283   9.432 -2.3247 -1.7088  0.2864
   67CHL1   C22 7420   4.751   5.268   9.194  0.3539 -0.3663  0.1239
   67CHL1  H22A 7421   4.682   5.338   9.143 -0.9645 -0.9239  1.1022
   67CHL1  H22B 7422   4.853   5.312   9.187  0.0690 -0.2670 -4.1754
   67CHL1   C23 7423   4.757   5.130   9.115  0.4459  0.1897  0.5070
   67CHL1  H23A 7424   4.822   5.068   9.181 -1.7342 -0.8204  1.7420
   67CHL1  H23B 7425   4.653   5.092   9.107  0.5661 -0.0417 -0.0037
   67CHL1   C24 7426   4.809   5.136   8.976 -0.0520 -0.3092 -0.1623
   67CHL1  H24A 7427   4.747   5.197   8.906  1.2858 -0.6757 -1.6964
   67CHL1  H24B 7428   4.907   5.188   8.981  0.0320 -0.6689  2.5589
   67CHL1   C25 7429   4.834   5.004   8.901  0.2092 -0.2252  0.4873
   67CHL1   H25 7430   4.889   4.943   8.976 -1.9299 -2.3615  0.3929
   67CHL1   C26 7431   4.708   4.932   8.845  0.0717 -0.4018  0.1084
   67CHL1  H26A 7432   4.637   4.903   8.926  1.4264 -1.3099  0.9895
   67CHL1  H26B 7433   4.646   5.000   8.783  0.9527  1.4147  1.1970
   67CHL1  H26C 7434   4.745   4.849   8.780  0.8612 -0.7105  0.9375
   67CHL1   C27 7435   4.926   5.016   8.776  0.1474 -0.6076 -0.8225
   67CHL1  H27A 7436   5.017   5.066   8.816  0.1048 -1.4761  0.3507
   67CHL1  H27B 7437   4.950   4.914   8.741  0.6024 -0.2121 -1.6898
   67CHL1  H27C 7438   4.874   5.075   8.697  0.3408  0.4440 -0.1785
   68CHL1    C3 7439   3.489   5.831  10.098  0.8854  0.4017  0.6057
   68CHL1    H3 7440   3.486   5.940  10.079 -0.4844  0.4299  0.9727
   68CHL1    O3 7441   3.477   5.808  10.239 -0.2593  0.5329  0.1222
   68CHL1   H3' 7442   3.385   5.820  10.264 -0.3228 -1.2428  0.7656
   68CHL1    C4 7443   3.386   5.738  10.035 -0.3171 -0.3001  0.4535
   68CHL1   H4A 7444   3.403   5.633  10.069  2.7590  0.4546  1.4057
   68CHL1   H4B 7445   3.286   5.763  10.076 -0.4949  0.3964 -0.4077
   68CHL1    C5 7446   3.384   5.744   9.888 -0.1157  0.4469 -0.3667
   68CHL1    C6 7447   3.271   5.784   9.824  0.1935  0.0724 -0.2152
   68CHL1    H6 7448   3.183   5.803   9.888 -1.8126 -0.6389 -2.6911
   68CHL1    C7 7449   3.265   5.805   9.674  0.0331  0.4982  0.4909
   68CHL1   H7A 7450   3.171   5.767   9.630  0.6678  0.6785 -1.0705
   68CHL1   H7B 7451   3.253   5.914   9.653  2.1057  0.1143 -3.1889
   68CHL1    C8 7452   3.389   5.752   9.590 -0.3379  0.5527 -0.5883
   68CHL1    H8 7453   3.388   5.641   9.579  0.5189  0.5697 -0.8318
   68CHL1   C14 7454   3.395   5.818   9.453  0.5742  0.2065  0.7954
   68CHL1   H14 7455   3.411   5.925   9.477 -0.8435  0.5249  0.3634
   68CHL1   C15 7456   3.272   5.795   9.359 -0.0194  0.5484 -0.9371
   68CHL1  H15A 7457   3.246   5.687   9.361 -1.2520  0.8426  0.0049
   68CHL1  H15B 7458   3.187   5.863   9.381 -1.0880 -0.8459 -0.6777
   68CHL1   C16 7459   3.325   5.829   9.216 -0.2085  0.2105  0.4214
   68CHL1  H16A 7460   3.300   5.771   9.125  0.0063  1.9008 -0.7445
   68CHL1  H16B 7461   3.292   5.933   9.195 -0.3623  0.4924  2.0175
   68CHL1   C17 7462   3.484   5.831   9.235 -0.7779 -0.8824  0.4381
   68CHL1   H17 7463   3.512   5.938   9.245  0.4551 -1.3012  1.6339
   68CHL1   C13 7464   3.510   5.760   9.371 -0.7512 -0.4931 -0.6591
   68CHL1   C18 7465   3.507   5.610   9.337 -0.0321  0.6749 -0.3184
   68CHL1  H18A 7466   3.588   5.572   9.270  0.3291  2.3879 -0.8716
   68CHL1  H18B 7467   3.507   5.546   9.427 -0.0781  2.2161  0.7834
   68CHL1  H18C 7468   3.410   5.595   9.285  0.5490  0.3813 -1.3299
   68CHL1   C12 7469   3.637   5.811   9.446  0.0511  0.4786 -0.0214
   68CHL1  H12A 7470   3.733   5.775   9.403  0.1263 -1.3747  1.6204
   68CHL1  H12B 7471   3.624   5.921   9.451 -0.4727  0.3668  1.2928
   68CHL1   C11 7472   3.643   5.762   9.592  0.0472  0.0342 -0.8155
   68CHL1  H11A 7473   3.662   5.652   9.589 -0.4203 -0.0756  0.3624
   68CHL1  H11B 7474   3.733   5.814   9.633 -0.9124  0.3017  0.9751
   68CHL1    C9 7475   3.515   5.788   9.669 -0.2529 -0.1497  0.0095
   68CHL1    H9 7476   3.511   5.899   9.671  1.5311 -0.0781  0.9316
   68CHL1   C10 7477   3.524   5.736   9.820 -0.1560  0.1709 -0.0255
   68CHL1   C19 7478   3.556   5.587   9.825  0.0710  0.1912 -0.7032
   68CHL1  H19A 7479   3.647   5.551   9.773  0.8258  0.3428  0.4900
   68CHL1  H19B 7480   3.565   5.545   9.928  2.5628  1.4217 -0.3874
   68CHL1  H19C 7481   3.474   5.528   9.778  1.1491 -1.0005 -1.1247
   68CHL1    C1 7482   3.637   5.809   9.889 -0.2885 -0.6364  0.1423
   68CHL1   H1A 7483   3.737   5.765   9.867  0.0349 -0.6088  1.5074
   68CHL1   H1B 7484   3.625   5.916   9.860 -1.6492 -0.9822 -0.6304
   68CHL1    C2 7485   3.630   5.791  10.045 -0.1689 -0.4390  0.8648
   68CHL1   H2A 7486   3.712   5.851  10.090  0.2300 -0.0283 -0.4022
   68CHL1   H2B 7487   3.657   5.685  10.068  1.7473 -0.0526  0.4803
   68CHL1   C20 7488   3.563   5.793   9.108  0.6580  0.1996  0.5515
   68CHL1   H20 7489   3.533   5.694   9.067 -0.7014  0.1536  1.6202
   68CHL1   C21 7490   3.709   5.797   9.136  0.2705 -0.3193 -0.2070
   68CHL1  H21A 7491   3.725   5.893   9.190  0.0847 -1.3105  1.6385
   68CHL1  H21B 7492   3.771   5.811   9.044  0.8297  0.1697  0.2396
   68CHL1  H21C 7493   3.742   5.711   9.197  1.6283 -1.3188 -2.2842
   68CHL1   C22 7494   3.518   5.889   8.994  0.2652 -0.2424 -0.0974
   68CHL1  H22A 7495   3.407   5.893   8.984  0.5033  0.9538 -2.7204
   68CHL1  H22B 7496   3.545   5.994   9.019 -0.6283  0.1928 -0.9188
   68CHL1   C23 7497   3.581   5.856   8.857  0.4152  0.5591  0.2121
   68CHL1  H23A 7498   3.691   5.872   8.864  0.5194 -0.9240  2.2606
   68CHL1  H23B 7499   3.581   5.747   8.835  0.1297  0.1175  2.3257
   68CHL1   C24 7500   3.508   5.940   8.753 -0.6627  0.5047  0.0206
   68CHL1  H24A 7501   3.398   5.952   8.755 -0.6506  0.4909  1.9719
   68CHL1  H24B 7502   3.542   6.045   8.766  0.2601  0.0940  0.9786
   68CHL1   C25 7503   3.545   5.909   8.610 -0.2475  0.1678  0.1597
   68CHL1   H25 7504   3.483   5.981   8.553 -1.3967 -0.0227  1.1354
   68CHL1   C26 7505   3.691   5.936   8.580  0.0216 -0.2661  0.2521
   68CHL1  H26A 7506   3.746   5.896   8.667 -0.5995 -0.8048  0.4095
   68CHL1  H26B 7507   3.732   5.886   8.489 -0.0332 -1.3839  0.8351
   68CHL1  H26C 7508   3.717   6.044   8.579  0.3940 -0.3594 -0.7459
   68CHL1   C27 7509   3.500   5.772   8.575 -0.3822  0.6790 -0.5448
   68CHL1  H27A 7510   3.506   5.758   8.465 -2.2669  0.1293 -0.5992
   68CHL1  H27B 7511   3.569   5.697   8.618 -1.5571 -0.5315 -0.7124
   68CHL1  H27C 7512   3.395   5.754   8.608  0.0655  2.3209  1.8371
   69CHL1    C3 7513   1.694   3.933   6.862  0.0114  0.2691  0.3018
   69CHL1    H3 7514   1.655   3.829   6.865  0.7867 -0.1430 -2.7376
   69CHL1    O3 7515   1.674   3.973   6.722  0.4803 -0.5372  0.1282
   69CHL1   H3' 7516   1.578   3.979   6.719  0.4203 -1.1703  0.6496
   69CHL1    C4 7517   1.608   4.016   6.960  0.5583 -0.5140 -0.3408
   69CHL1   H4A 7518   1.633   4.118   6.923  0.1184 -0.1951  0.2387
   69CHL1   H4B 7519   1.506   3.988   6.926  0.1815 -1.7301  1.6999
   69CHL1    C5 7520   1.635   3.985   7.106 -0.1423  0.7574 -0.5302
   69CHL1    C6 7521   1.538   3.946   7.189 -0.2659 -0.2921 -0.5301
   69CHL1    H6 7522   1.431   3.941   7.166 -0.5606 -0.3347  0.8305
   69CHL1    C7 7523   1.562   3.914   7.335  0.1204 -0.7240 -0.8345
   69CHL1   H7A 7524   1.470   3.925   7.396  0.9937 -2.6362  0.8543
   69CHL1   H7B 7525   1.584   3.806   7.342  0.0225 -0.5647  3.2780
   69CHL1    C8 7526   1.693   3.971   7.390  0.2573  0.3677 -1.0826
   69CHL1    H8 7527   1.691   4.081   7.401 -2.1508  0.3386 -0.8580
   69CHL1   C14 7528   1.729   3.908   7.526  0.0596 -0.4252  0.1532
   69CHL1   H14 7529   1.732   3.798   7.508 -0.7269 -0.1143 -2.0040
   69CHL1   C15 7530   1.623   3.936   7.633 -0.7190 -0.0003 -0.1184
   69CHL1  H15A 7531   1.613   4.046   7.643  1.0078 -0.0243  2.4089
   69CHL1  H15B 7532   1.523   3.887   7.634 -0.8893  0.3281 -0.7598
   69CHL1   C16 7533   1.694   3.903   7.766 -0.4342  0.1861 -0.4640
   69CHL1  H16A 7534   1.688   3.972   7.853  0.1221  1.8738 -1.7643
   69CHL1  H16B 7535   1.670   3.802   7.806 -1.1454 -0.3566 -2.2287
   69CHL1   C17 7536   1.845   3.872   7.721 -0.0672 -0.5605 -0.3275
   69CHL1   H17 7537   1.861   3.763   7.704 -0.3860 -0.8460  1.1360
   69CHL1   C13 7538   1.866   3.934   7.582  0.0738 -0.4281  0.1648
   69CHL1   C18 7539   1.887   4.084   7.617  0.5292  0.5687 -0.3403
   69CHL1  H18A 7540   1.817   4.125   7.693 -1.9161 -1.4791 -1.3981
   69CHL1  H18B 7541   1.993   4.100   7.644  0.6959  0.5761 -0.9940
   69CHL1  H18C 7542   1.862   4.147   7.529 -0.3847 -1.3241 -1.4749
   69CHL1   C12 7543   1.975   3.889   7.490 -0.9033  0.3188  0.3606
   69CHL1  H12A 7544   2.070   3.924   7.534  0.7030 -0.0782 -2.6735
   69CHL1  H12B 7545   1.978   3.779   7.479 -2.3494  0.3981 -1.2113
   69CHL1   C11 7546   1.946   3.954   7.349 -0.5932  0.2391 -0.2785
   69CHL1  H11A 7547   1.960   4.064   7.359  1.0832 -0.0245  0.3956
   69CHL1  H11B 7548   2.024   3.922   7.278 -1.0945 -0.1621 -0.6486
   69CHL1    C9 7549   1.802   3.930   7.291 -0.1025  0.3263  0.4802
   69CHL1    H9 7550   1.793   3.820   7.277 -1.7709  0.3484  1.2696
   69CHL1   C10 7551   1.783   3.989   7.149  0.0164 -0.4040  0.1370
   69CHL1   C19 7552   1.814   4.142   7.147  0.1432  0.8537  0.7692
   69CHL1  H19A 7553   1.922   4.154   7.169  0.2445 -0.2233  0.8873
   69CHL1  H19B 7554   1.817   4.193   7.048  2.3720 -1.9852 -0.6921
   69CHL1  H19C 7555   1.754   4.198   7.222 -0.9025  0.4471  0.2559
   69CHL1    C1 7556   1.874   3.917   7.037 -0.4662  0.4979  0.7392
   69CHL1   H1A 7557   1.976   3.949   7.068 -0.0896 -0.9579  1.0503
   69CHL1   H1B 7558   1.863   3.811   7.068  0.2588  0.6037  1.3710
   69CHL1    C2 7559   1.843   3.945   6.889 -0.1073 -0.3637 -0.0249
   69CHL1   H2A 7560   1.903   3.876   6.827  1.9299 -0.4203  1.9332
   69CHL1   H2B 7561   1.874   4.050   6.870  1.4762 -1.4098 -3.5998
   69CHL1   C20 7562   1.948   3.910   7.836 -0.5516  0.8415 -0.5466
   69CHL1   H20 7563   1.926   4.013   7.870  1.5527  1.0913  0.1236
   69CHL1   C21 7564   2.093   3.884   7.789  0.2327 -0.2962  0.6035
   69CHL1  H21A 7565   2.105   3.795   7.724  0.0876  1.0566 -1.3177
   69CHL1  H21B 7566   2.162   3.870   7.875  3.1162 -0.5510 -1.7034
   69CHL1  H21C 7567   2.128   3.968   7.725  0.4165 -1.0909 -0.3460
   69CHL1   C22 7568   1.916   3.814   7.952 -0.4371 -0.4336 -0.9463
   69CHL1  H22A 7569   1.807   3.820   7.975 -0.3832  4.3886 -1.3553
   69CHL1  H22B 7570   1.931   3.712   7.911  0.4318  0.1007 -1.9959
   69CHL1   C23 7571   1.984   3.844   8.093 -0.2845 -0.2067  0.2207
   69CHL1  H23A 7572   2.095   3.845   8.089 -0.2417 -2.2626  0.1416
   69CHL1  H23B 7573   1.964   3.948   8.127 -1.1464 -0.3523  0.1688
   69CHL1   C24 7574   1.958   3.725   8.184  0.9097 -0.2204 -0.2421
   69CHL1  H24A 7575   1.852   3.724   8.215  0.3561 -1.2493 -2.1126
   69CHL1  H24B 7576   1.981   3.633   8.126  0.4301 -0.7094  0.3410
   69CHL1   C25 7577   2.053   3.722   8.304  0.7040 -0.5514 -0.8661
   69CHL1   H25 7578   2.160   3.721   8.274  1.2332  0.1770  0.9423
   69CHL1   C26 7579   2.024   3.833   8.403 -0.5523 -0.1771  0.0464
   69CHL1  H26A 7580   2.075   3.802   8.497 -2.1809 -0.4332  0.8583
   69CHL1  H26B 7581   2.047   3.940   8.384 -0.9160  0.0845  1.0980
   69CHL1  H26C 7582   1.913   3.837   8.406 -0.6377 -1.0453 -1.3252
   69CHL1   C27 7583   2.015   3.597   8.387 -0.4573  0.5086  0.0466
   69CHL1  H27A 7584   2.024   3.505   8.325 -2.4865  1.3365 -1.5208
   69CHL1  H27B 7585   2.093   3.591   8.466  1.6502  1.6468 -1.8956
   69CHL1  H27C 7586   1.917   3.603   8.438 -0.5752  2.0254 -0.3505
   70CHL1    C3 7587   1.118   1.095   7.079 -0.1125 -0.6088 -0.1483
   70CHL1    H3 7588   1.211   1.156   7.083 -1.9042  2.1776  0.9931
   70CHL1    O3 7589   1.064   1.117   6.951 -0.4490 -0.5199 -0.2674
   70CHL1   H3' 7590   0.969   1.103   6.955 -0.5228  0.0861  0.0985
   70CHL1    C4 7591   1.139   0.951   7.089  0.6661  0.6647  0.4601
   70CHL1   H4A 7592   1.039   0.904   7.078  1.0872 -1.2363  4.0824
   70CHL1   H4B 7593   1.209   0.916   7.010  1.1559  0.2404  1.0767
   70CHL1    C5 7594   1.199   0.915   7.224  0.4677  0.0295  1.1611
   70CHL1    C6 7595   1.310   0.843   7.225 -0.0377  0.4677 -0.4723
   70CHL1    H6 7596   1.363   0.813   7.134 -0.7390 -0.7367 -0.4940
   70CHL1    C7 7597   1.371   0.801   7.359 -0.4082 -0.6559  0.2434
   70CHL1   H7A 7598   1.403   0.695   7.343  0.3475 -0.2402 -1.0874
   70CHL1   H7B 7599   1.466   0.858   7.366 -0.9866  0.2129  1.0780
   70CHL1    C8 7600   1.272   0.824   7.473 -0.0425 -0.3097 -0.2254
   70CHL1    H8 7601   1.188   0.752   7.461  0.8958 -1.2816 -1.1829
   70CHL1   C14 7602   1.339   0.799   7.610  0.1459  0.9286 -0.0126
   70CHL1   H14 7603   1.416   0.878   7.619 -1.3914  2.2285  2.4271
   70CHL1   C15 7604   1.414   0.664   7.638 -0.2380  0.8428 -0.0267
   70CHL1  H15A 7605   1.373   0.576   7.584 -2.0880  2.1340 -0.7799
   70CHL1  H15B 7606   1.520   0.679   7.608 -0.2455 -0.9962 -1.0407
   70CHL1   C16 7607   1.404   0.641   7.787  0.2402  0.0800 -0.2764
   70CHL1  H16A 7608   1.335   0.557   7.810 -0.5972  0.3443 -1.7797
   70CHL1  H16B 7609   1.503   0.615   7.832  0.5218 -1.0217 -1.4985
   70CHL1   C17 7610   1.335   0.767   7.845  0.6911  0.5578 -0.2857
   70CHL1   H17 7611   1.415   0.844   7.849 -0.1232  1.3582  0.7450
   70CHL1   C13 7612   1.242   0.812   7.731 -0.4034 -1.0692  0.6683
   70CHL1   C18 7613   1.117   0.713   7.733 -0.1659 -0.1071  0.1173
   70CHL1  H18A 7614   1.153   0.608   7.730 -1.0160 -0.4844  2.4136
   70CHL1  H18B 7615   1.060   0.724   7.827 -3.1431  0.2627 -1.6606
   70CHL1  H18C 7616   1.045   0.732   7.651 -1.0563 -0.3137  0.8451
   70CHL1   C12 7617   1.193   0.959   7.728  0.3744 -0.0052 -0.1219
   70CHL1  H12A 7618   1.126   0.965   7.816  0.6969 -0.6256  0.1698
   70CHL1  H12B 7619   1.281   1.025   7.745 -0.5024  1.9344 -2.7359
   70CHL1   C11 7620   1.123   1.006   7.604  0.2510 -0.0290 -0.1087
   70CHL1  H11A 7621   1.027   0.950   7.600  0.5777 -0.9197  3.0912
   70CHL1  H11B 7622   1.107   1.115   7.604 -4.1316 -0.6019 -0.1336
   70CHL1    C9 7623   1.208   0.967   7.474  0.1915  0.1501 -0.4642
   70CHL1    H9 7624   1.288   1.042   7.458 -0.8728  1.2386 -0.7543
   70CHL1   C10 7625   1.123   0.976   7.344 -0.0286 -0.4282 -0.2464
   70CHL1   C19 7626   0.991   0.901   7.358 -0.5996  0.5653 -0.5686
   70CHL1  H19A 7627   0.940   0.882   7.261 -3.8713  0.9817  1.0360
   70CHL1  H19B 7628   0.995   0.805   7.414 -0.1172  0.5174 -0.6781
   70CHL1  H19C 7629   0.926   0.967   7.419  2.7886  1.6107  2.0779
   70CHL1    C1 7630   1.091   1.132   7.319  0.2265  0.3562 -0.8051
   70CHL1   H1A 7631   1.028   1.165   7.404 -2.1126 -1.2912 -1.8272
   70CHL1   H1B 7632   1.189   1.184   7.329  0.1111  0.1434  1.7696
   70CHL1    C2 7633   1.028   1.159   7.182  0.4817 -0.2600 -0.1010
   70CHL1   H2A 7634   1.006   1.267   7.164 -1.4552 -0.6375 -0.1811
   70CHL1   H2B 7635   0.928   1.110   7.175  1.9340 -3.1139 -1.7487
   70CHL1   C20 7636   1.276   0.766   7.989  0.1259  0.0263  0.1368
   70CHL1   H20 7637   1.190   0.836   7.993 -1.9140 -2.4163 -0.3763
   70CHL1   C21 7638   1.386   0.816   8.088 -0.3803 -0.0413 -0.0553
   70CHL1  H21A 7639   1.427   0.914   8.058  1.9848 -0.4080  1.8480
   70CHL1  H21B 7640   1.475   0.750   8.079  2.1168  3.3772 -1.4693
   70CHL1  H21C 7641   1.361   0.814   8.196  0.4758 -0.4004  0.1361
   70CHL1   C22 7642   1.218   0.630   8.037 -0.7428 -0.0218  0.3207
   70CHL1  H22A 7643   1.144   0.594   7.961 -0.5320 -2.3776  1.2209
   70CHL1  H22B 7644   1.299   0.555   8.042 -0.0692  0.8362  3.6978
   70CHL1   C23 7645   1.145   0.629   8.174  0.2275  0.8085 -0.6490
   70CHL1  H23A 7646   1.213   0.646   8.261  0.5257  1.4089 -1.0031
   70CHL1  H23B 7647   1.070   0.710   8.184  1.3508  2.2615 -3.5409
   70CHL1   C24 7648   1.071   0.497   8.206 -0.0083  0.5805 -0.6041
   70CHL1  H24A 7649   1.007   0.474   8.118 -1.4102 -0.9851  0.8027
   70CHL1  H24B 7650   1.144   0.415   8.222  0.3694  1.2348  1.1893
   70CHL1   C25 7651   0.987   0.500   8.335  0.4405  0.3678  0.5469
   70CHL1   H25 7652   0.939   0.601   8.332 -0.3816 -0.0255  0.2659
   70CHL1   C26 7653   0.877   0.393   8.347 -0.8198 -0.2312 -0.7171
   70CHL1  H26A 7654   0.901   0.301   8.404 -0.8712  0.1457 -0.0764
   70CHL1  H26B 7655   0.795   0.441   8.405 -0.6870 -1.4554  0.5193
   70CHL1  H26C 7656   0.843   0.380   8.243  0.3474 -0.1805 -1.1119
   70CHL1   C27 7657   1.060   0.512   8.466  0.2337  0.5516 -0.3543
   70CHL1  H27A 7658   1.140   0.436   8.483  0.4330  0.8671  0.1406
   70CHL1  H27B 7659   1.107   0.612   8.473  0.4013  0.3553  1.5151
   70CHL1  H27C 7660   0.992   0.511   8.554 -0.9674 -1.8952 -1.2867
   71CHL1    C3 7661   0.603   2.860   6.752  0.5021  0.2471  0.7037
   71CHL1    H3 7662   0.678   2.931   6.712  0.5808  0.1282  0.6395
   71CHL1    O3 7663   0.504   2.837   6.649 -0.7260  0.2282  0.3407
   71CHL1   H3' 7664   0.436   2.781   6.689  1.3399  0.1454  3.9997
   71CHL1    C4 7665   0.660   2.727   6.797 -0.7364  0.3744  0.4099
   71CHL1   H4A 7666   0.583   2.648   6.811  1.4235 -2.2169 -1.7938
   71CHL1   H4B 7667   0.709   2.699   6.701  0.9385  0.1480  1.3082
   71CHL1    C5 7668   0.749   2.749   6.915 -0.5722 -1.0758  0.3358
   71CHL1    C6 7669   0.875   2.706   6.918  0.1593 -0.3088  0.2364
   71CHL1    H6 7670   0.909   2.653   6.827  1.5188 -0.6321  0.9189
   71CHL1    C7 7671   0.978   2.715   7.030 -0.5409  0.1952 -0.0522
   71CHL1   H7A 7672   1.031   2.618   7.045 -0.2297  0.2989 -0.5097
   71CHL1   H7B 7673   1.058   2.784   6.997 -0.1320 -0.0809  0.3501
   71CHL1    C8 7674   0.913   2.761   7.167 -0.0114 -0.0124 -0.0473
   71CHL1    H8 7675   0.855   2.674   7.205 -2.5842  1.5257 -0.3064
   71CHL1   C14 7676   1.013   2.815   7.260 -0.2690  0.5373 -0.0155
   71CHL1   H14 7677   1.050   2.910   7.215 -2.9383  0.2369 -3.0461
   71CHL1   C15 7678   1.144   2.734   7.286  0.3876 -0.7483 -0.1000
   71CHL1  H15A 7679   1.128   2.625   7.300 -0.2166 -0.2797  3.5689
   71CHL1  H15B 7680   1.226   2.737   7.211  0.7400 -2.6835  0.1886
   71CHL1   C16 7681   1.196   2.810   7.410 -0.4836  0.7093  0.2233
   71CHL1  H16A 7682   1.223   2.738   7.489  1.8167  2.1962  0.8379
   71CHL1  H16B 7683   1.292   2.864   7.396  0.6580 -1.1148  0.9202
   71CHL1   C17 7684   1.081   2.901   7.461 -0.4222  0.0249 -0.3912
   71CHL1   H17 7685   1.107   3.004   7.428  0.6738  0.3058  1.2534
   71CHL1   C13 7686   0.947   2.858   7.391  0.9188  0.2182 -0.5486
   71CHL1   C18 7687   0.891   2.730   7.462  0.3396  0.0574  0.0220
   71CHL1  H18A 7688   0.804   2.706   7.397  0.8886  2.7153 -1.8038
   71CHL1  H18B 7689   0.970   2.654   7.480 -0.8770 -0.9140  1.4296
   71CHL1  H18C 7690   0.852   2.756   7.563 -0.3013 -2.1928  0.3613
   71CHL1   C12 7691   0.848   2.973   7.373  0.4760  0.4919 -0.6200
   71CHL1  H12A 7692   0.791   2.992   7.466  2.1717 -0.3723  0.6275
   71CHL1  H12B 7693   0.897   3.067   7.338  0.8021  0.8979  0.9212
   71CHL1   C11 7694   0.746   2.934   7.265  0.3542  0.9772  0.6104
   71CHL1  H11A 7695   0.686   2.856   7.317  0.4439 -0.5227 -1.4708
   71CHL1  H11B 7696   0.682   3.022   7.243 -1.7459  0.1020  2.9270
   71CHL1    C9 7697   0.808   2.870   7.132  0.3016 -0.3442 -0.0080
   71CHL1    H9 7698   0.857   2.958   7.086 -1.1999  0.7603  0.4691
   71CHL1   C10 7699   0.694   2.823   7.035  0.4029 -0.2601 -0.1506
   71CHL1   C19 7700   0.593   2.731   7.108 -0.1719 -0.2303 -0.8490
   71CHL1  H19A 7701   0.507   2.704   7.042 -0.2520 -1.6211 -0.1853
   71CHL1  H19B 7702   0.645   2.639   7.143  1.2092  0.7443 -0.2976
   71CHL1  H19C 7703   0.540   2.787   7.187 -0.6610 -0.1439 -1.2350
   71CHL1    C1 7704   0.611   2.955   6.990 -0.4919  0.1755 -0.0843
   71CHL1   H1A 7705   0.546   2.994   7.072 -1.8004  1.6807 -1.7885
   71CHL1   H1B 7706   0.680   3.040   6.973 -0.5294  0.1684 -0.2754
   71CHL1    C2 7707   0.528   2.932   6.863 -0.1836 -0.7787 -0.3185
   71CHL1   H2A 7708   0.485   3.027   6.823 -1.7902 -0.8192  1.2223
   71CHL1   H2B 7709   0.439   2.874   6.895  0.1651 -0.3662  1.4684
   71CHL1   C20 7710   1.092   2.911   7.615  1.3752  0.2857  0.2238
   71CHL1   H20 7711   1.071   2.813   7.664 -3.9030  1.5281  0.7177
   71CHL1   C21 7712   0.968   2.987   7.673  0.1519 -0.0325 -0.2568
   71CHL1  H21A 7713   0.868   2.944   7.651 -0.2592  0.2549  1.0162
   71CHL1  H21B 7714   0.972   3.096   7.649  0.6726  0.0492  0.1848
   71CHL1  H21C 7715   0.976   2.977   7.783  1.8968 -0.0562 -0.3688
   71CHL1   C22 7716   1.226   2.976   7.658 -0.1429 -0.1995 -0.0553
   71CHL1  H22A 7717   1.318   2.930   7.616  1.0050  0.9884  1.0868
   71CHL1  H22B 7718   1.239   3.078   7.616  1.9693 -0.8392 -1.0366
   71CHL1   C23 7719   1.255   2.958   7.811  0.7292 -0.1174  0.0411
   71CHL1  H23A 7720   1.156   2.967   7.862 -0.5971 -0.2184 -2.4509
   71CHL1  H23B 7721   1.287   2.853   7.826 -2.0620 -1.0624 -0.3141
   71CHL1   C24 7722   1.372   3.044   7.864 -0.2912  0.4493  0.2725
   71CHL1  H24A 7723   1.467   3.023   7.811 -0.7411 -0.0401 -0.3378
   71CHL1  H24B 7724   1.348   3.153   7.861  3.4710  1.4488  2.4480
   71CHL1   C25 7725   1.417   2.993   7.999  0.5209  0.2494 -0.0475
   71CHL1   H25 7726   1.330   2.947   8.051  1.2772  0.0188  1.0266
   71CHL1   C26 7727   1.516   2.878   7.989  0.6470 -0.1137  0.8429
   71CHL1  H26A 7728   1.544   2.832   8.086  2.0329 -1.5410 -0.1877
   71CHL1  H26B 7729   1.498   2.791   7.922  1.6590  0.2067  0.1331
   71CHL1  H26C 7730   1.614   2.916   7.952 -1.1380  4.0142  0.1041
   71CHL1   C27 7731   1.468   3.101   8.096 -0.1579 -0.8628  0.1186
   71CHL1  H27A 7732   1.402   3.191   8.099  3.8878  2.2221  0.7270
   71CHL1  H27B 7733   1.466   3.063   8.200  1.7713 -0.1461  0.4237
   71CHL1  H27C 7734   1.571   3.132   8.071 -0.7549 -0.3369 -1.7672
   72CHL1    C3 7735   1.603   1.358   7.085 -0.6364 -0.7677  0.1797
   72CHL1    H3 7736   1.616   1.252   7.054  1.2340  0.2324 -2.6599
   72CHL1    O3 7737   1.562   1.428   6.964  0.1992  0.4903 -0.0386
   72CHL1   H3' 7738   1.470   1.402   6.957  0.0128 -0.5565  4.3982
   72CHL1    C4 7739   1.493   1.375   7.194 -0.3795  0.8627 -0.2706
   72CHL1   H4A 7740   1.471   1.480   7.224 -1.0740  0.7488 -0.3804
   72CHL1   H4B 7741   1.398   1.336   7.151 -1.5768  1.2251  1.9869
   72CHL1    C5 7742   1.542   1.315   7.322  0.3410  0.0021 -0.9368
   72CHL1    C6 7743   1.486   1.203   7.376 -0.1962  0.5285 -0.2850
   72CHL1    H6 7744   1.395   1.167   7.326 -1.0798 -0.3620  1.8882
   72CHL1    C7 7745   1.513   1.142   7.510 -0.7145  0.6140  0.6376
   72CHL1   H7A 7746   1.424   1.141   7.578 -0.3843 -0.8821  1.0665
   72CHL1   H7B 7747   1.545   1.037   7.490 -0.7208  0.2704  2.3469
   72CHL1    C8 7748   1.624   1.222   7.586 -0.9685 -0.2674  0.5794
   72CHL1    H8 7749   1.565   1.305   7.631 -1.3268 -0.8661  1.2087
   72CHL1   C14 7750   1.680   1.139   7.693 -0.3641 -0.1848 -0.4488
   72CHL1   H14 7751   1.721   1.050   7.641 -2.5470  0.2326 -2.9670
   72CHL1   C15 7752   1.577   1.085   7.791  0.6773  0.2095  0.1130
   72CHL1  H15A 7753   1.514   1.170   7.824 -1.1071 -0.0340 -2.4692
   72CHL1  H15B 7754   1.513   0.998   7.761  1.5539 -0.8938  1.3786
   72CHL1   C16 7755   1.664   1.032   7.907 -0.4385  0.3183  0.3756
   72CHL1  H16A 7756   1.625   1.077   8.001 -1.3890 -1.4725  0.8710
   72CHL1  H16B 7757   1.651   0.922   7.921 -0.8544  0.2622 -0.4232
   72CHL1   C17 7758   1.810   1.088   7.886  0.1118  0.6705  0.2356
   72CHL1   H17 7759   1.857   1.001   7.835 -0.5599 -0.0656  0.8608
   72CHL1   C13 7760   1.787   1.201   7.780 -0.4867  0.0103 -0.2475
   72CHL1   C18 7761   1.742   1.321   7.861  1.0864  0.0331 -0.3836
   72CHL1  H18A 7762   1.821   1.392   7.892 -0.6332  2.3024 -1.0581
   72CHL1  H18B 7763   1.676   1.383   7.796  0.3269 -0.6618 -0.2946
   72CHL1  H18C 7764   1.678   1.290   7.946  0.5558 -0.2068 -0.8607
   72CHL1   C12 7765   1.897   1.235   7.682 -0.1590 -1.0350 -0.2776
   72CHL1  H12A 7766   1.982   1.289   7.729  1.8651 -3.1757 -1.3751
   72CHL1  H12B 7767   1.936   1.145   7.630 -0.3668  0.4439 -3.0849
   72CHL1   C11 7768   1.847   1.333   7.568 -0.1877  0.3731 -0.6725
   72CHL1  H11A 7769   1.811   1.428   7.613  0.1151  0.1176  0.1205
   72CHL1  H11B 7770   1.933   1.353   7.501  0.8822 -0.5311  0.4030
   72CHL1    C9 7771   1.730   1.276   7.490  0.7483  0.2297 -0.2868
   72CHL1    H9 7772   1.769   1.190   7.432  2.3756 -0.0179  1.1570
   72CHL1   C10 7773   1.671   1.370   7.378 -0.4477 -0.3390  0.0181
   72CHL1   C19 7774   1.653   1.519   7.419 -0.7651  1.0069  0.3213
   72CHL1  H19A 7775   1.569   1.537   7.489 -0.1705 -0.9018  1.5638
   72CHL1  H19B 7776   1.745   1.572   7.450 -1.1920  1.0344  1.5834
   72CHL1  H19C 7777   1.621   1.576   7.329 -1.3748  0.5254  0.2233
   72CHL1    C1 7778   1.780   1.367   7.264  0.2904  0.5733  0.5509
   72CHL1   H1A 7779   1.873   1.414   7.302  0.8017  0.6960 -0.8261
   72CHL1   H1B 7780   1.814   1.264   7.240 -0.0977 -0.1014  2.8510
   72CHL1    C2 7781   1.731   1.432   7.133 -0.6446  0.2515 -1.1502
   72CHL1   H2A 7782   1.805   1.409   7.053  1.2815  0.1208  0.6357
   72CHL1   H2B 7783   1.717   1.542   7.141 -3.2819 -0.2221  1.5025
   72CHL1   C20 7784   1.894   1.106   8.012 -0.7173 -0.4460  0.3537
   72CHL1   H20 7785   1.874   1.212   8.039 -1.6525 -0.4587 -0.2558
   72CHL1   C21 7786   2.044   1.099   7.972  0.0331  1.3251  0.0730
   72CHL1  H21A 7787   2.073   1.138   7.872  0.1562  2.5380  0.5663
   72CHL1  H21B 7788   2.075   0.993   7.962 -4.3100  0.1470 -1.8100
   72CHL1  H21C 7789   2.103   1.158   8.045 -0.0803  0.7469  0.6292
   72CHL1   C22 7790   1.857   1.016   8.136 -0.1777 -0.4569 -0.3253
   72CHL1  H22A 7791   1.765   1.060   8.181  0.6190  1.9089 -0.9324
   72CHL1  H22B 7792   1.828   0.914   8.104  1.8396 -1.3506  0.5710
   72CHL1   C23 7793   1.971   1.013   8.242  0.1507  0.4847 -0.0469
   72CHL1  H23A 7794   2.054   0.952   8.200  0.3459  1.1487 -0.6486
   72CHL1  H23B 7795   2.013   1.114   8.263  2.0959 -0.3350  0.0511
   72CHL1   C24 7796   1.903   0.946   8.365  0.6407 -0.2131  0.1467
   72CHL1  H24A 7797   1.820   1.014   8.394  1.2720  0.1270  1.1812
   72CHL1  H24B 7798   1.860   0.850   8.330  2.4052 -0.3267 -1.8028
   72CHL1   C25 7799   1.993   0.927   8.480 -0.0982  0.3915  0.0021
   72CHL1   H25 7800   2.031   1.026   8.515  0.0588 -0.0990  1.2360
   72CHL1   C26 7801   1.919   0.860   8.601 -0.3538  0.2140 -0.6326
   72CHL1  H26A 7802   1.984   0.881   8.688  0.0088 -0.6676 -0.6911
   72CHL1  H26B 7803   1.828   0.922   8.617 -0.8972 -0.5627 -0.7063
   72CHL1  H26C 7804   1.889   0.756   8.574  3.1147 -0.6291 -1.4257
   72CHL1   C27 7805   2.116   0.844   8.436 -0.2213 -0.3397 -0.0522
   72CHL1  H27A 7806   2.170   0.804   8.525 -1.4527 -0.7515  0.5276
   72CHL1  H27B 7807   2.082   0.761   8.371 -1.6751  0.6708 -0.6249
   72CHL1  H27C 7808   2.192   0.910   8.389 -0.9480 -0.8815 -2.0101
   73CHL1    C3 7809   0.748   4.244   6.954 -0.0052 -0.7405  0.6877
   73CHL1    H3 7810   0.720   4.137   6.964 -0.1110 -0.6769  1.0544
   73CHL1    O3 7811   0.762   4.271   6.812 -0.1233  0.6167 -0.3739
   73CHL1   H3' 7812   0.849   4.233   6.800 -0.1471  0.1256  0.9961
   73CHL1    C4 7813   0.638   4.331   7.018  0.3430 -0.4881 -0.7778
   73CHL1   H4A 7814   0.650   4.439   6.999  0.9989  0.0445  2.4627
   73CHL1   H4B 7815   0.544   4.303   6.967  1.1061  0.0823 -2.5344
   73CHL1    C5 7816   0.636   4.310   7.170 -0.0953 -0.7091 -0.2055
   73CHL1    C6 7817   0.527   4.286   7.243  0.0321  0.4011  0.3963
   73CHL1    H6 7818   0.432   4.314   7.196  0.0168  1.7627  1.2131
   73CHL1    C7 7819   0.511   4.268   7.390 -0.2402 -0.0706  1.1636
   73CHL1   H7A 7820   0.419   4.315   7.432 -1.6111 -2.2399  0.7071
   73CHL1   H7B 7821   0.491   4.160   7.406 -3.0103 -0.1094 -1.9142
   73CHL1    C8 7822   0.640   4.309   7.464  0.4315 -0.7802  0.1159
   73CHL1    H8 7823   0.642   4.420   7.465 -2.3901 -0.6919 -0.5133
   73CHL1   C14 7824   0.636   4.265   7.609  0.3657 -0.6077  0.0357
   73CHL1   H14 7825   0.631   4.154   7.599  2.5570 -0.6668 -0.6979
   73CHL1   C15 7826   0.529   4.315   7.699  0.2000  0.5761  0.3088
   73CHL1  H15A 7827   0.516   4.425   7.690 -0.1176  0.7534  2.6105
   73CHL1  H15B 7828   0.430   4.268   7.683  0.6211 -0.0281 -0.5638
   73CHL1   C16 7829   0.574   4.287   7.840 -0.8277  0.4611  0.1518
   73CHL1  H16A 7830   0.577   4.380   7.901 -1.9594  0.6408 -0.0599
   73CHL1  H16B 7831   0.498   4.230   7.896 -0.2198  0.4937  1.0231
   73CHL1   C17 7832   0.718   4.233   7.826 -0.1165  0.3734 -0.6614
   73CHL1   H17 7833   0.714   4.123   7.815 -0.0393  0.1885  1.0213
   73CHL1   C13 7834   0.766   4.283   7.685  0.0367  0.2879  0.6504
   73CHL1   C18 7835   0.804   4.431   7.697 -0.1080  0.4975 -1.0910
   73CHL1  H18A 7836   0.721   4.491   7.740 -0.3264  1.7330 -3.1597
   73CHL1  H18B 7837   0.897   4.446   7.756 -0.4035  0.3948 -0.5894
   73CHL1  H18C 7838   0.816   4.485   7.601 -3.2667  1.1129 -1.2110
   73CHL1   C12 7839   0.877   4.203   7.621  0.0513  0.3981  0.0381
   73CHL1  H12A 7840   0.973   4.223   7.672 -0.5952  0.4182  1.2513
   73CHL1  H12B 7841   0.858   4.093   7.627  1.6840  0.1115  0.3406
   73CHL1   C11 7842   0.891   4.241   7.468 -0.0599 -0.7102 -0.2815
   73CHL1  H11A 7843   0.924   4.347   7.471  1.6841 -1.2445  0.1449
   73CHL1  H11B 7844   0.962   4.165   7.429 -0.8447 -0.7852 -1.5691
   73CHL1    C9 7845   0.760   4.243   7.387 -0.3248 -0.7259  0.3669
   73CHL1    H9 7846   0.732   4.136   7.376 -0.4242 -0.9068  2.1381
   73CHL1   C10 7847   0.773   4.304   7.245  0.5694 -0.0910 -0.4245
   73CHL1   C19 7848   0.830   4.446   7.253 -0.1435 -0.0702 -0.0374
   73CHL1  H19A 7849   0.922   4.468   7.310  0.5303 -0.9531 -0.7808
   73CHL1  H19B 7850   0.857   4.492   7.156 -1.3626  0.3221 -0.2071
   73CHL1  H19C 7851   0.762   4.520   7.301  0.4655 -0.3526  1.2768
   73CHL1    C1 7852   0.876   4.214   7.170  0.1227  0.2549 -0.1435
   73CHL1   H1A 7853   0.979   4.222   7.210 -0.1352  1.1259  0.3415
   73CHL1   H1B 7854   0.849   4.106   7.180 -1.1980  0.5749 -0.1734
   73CHL1    C2 7855   0.885   4.248   7.017  0.0720 -0.3170  0.0854
   73CHL1   H2A 7856   0.958   4.172   6.980  1.8969  0.6739  1.5866
   73CHL1   H2B 7857   0.939   4.343   7.004  0.2248 -0.3129  0.7247
   73CHL1   C20 7858   0.812   4.244   7.944 -0.1609 -0.8058  0.1067
   73CHL1   H20 7859   0.910   4.205   7.909  0.4462  0.4827  0.3202
   73CHL1   C21 7860   0.756   4.145   8.045 -0.6093  0.2397 -0.5183
   73CHL1  H21A 7861   0.649   4.170   8.062 -0.6710 -1.0118  1.0459
   73CHL1  H21B 7862   0.814   4.153   8.139 -1.2726  0.3900 -0.1154
   73CHL1  H21C 7863   0.755   4.039   8.012 -2.6479 -0.0838  0.5105
   73CHL1   C22 7864   0.823   4.382   8.010  0.4770 -0.0341 -1.1484
   73CHL1  H22A 7865   0.797   4.474   7.953 -0.3279  0.0332 -0.6869
   73CHL1  H22B 7866   0.761   4.372   8.102  2.5724 -3.6886 -0.0338
   73CHL1   C23 7867   0.960   4.416   8.068 -0.4089 -0.0612  0.1414
   73CHL1  H23A 7868   0.984   4.333   8.137 -0.1739  0.9104  1.2471
   73CHL1  H23B 7869   1.035   4.422   7.986 -0.1230 -1.9779  0.2406
   73CHL1   C24 7870   0.962   4.546   8.160  0.7034  0.2645  0.9017
   73CHL1  H24A 7871   0.920   4.634   8.107  1.5628  1.1908  1.7412
   73CHL1  H24B 7872   0.904   4.532   8.253  1.7056 -0.6027  1.4084
   73CHL1   C25 7873   1.103   4.587   8.192  0.0361  0.1823 -0.6077
   73CHL1   H25 7874   1.150   4.611   8.094 -0.3600 -0.5144 -0.9698
   73CHL1   C26 7875   1.097   4.717   8.273 -0.0445  0.2135 -0.4112
   73CHL1  H26A 7876   1.033   4.797   8.231 -0.8328  0.2955  0.9081
   73CHL1  H26B 7877   1.047   4.700   8.371 -0.4084  2.7934 -0.1367
   73CHL1  H26C 7878   1.196   4.760   8.297 -1.3290  2.5567  0.8503
   73CHL1   C27 7879   1.201   4.486   8.250  0.6519  0.3065 -0.2695
   73CHL1  H27A 7880   1.297   4.542   8.252  2.9861 -3.5546  1.2814
   73CHL1  H27B 7881   1.169   4.475   8.356 -0.3240 -1.6016 -0.7407
   73CHL1  H27C 7882   1.196   4.391   8.192 -4.6919  0.9087 -1.1339
   74CHL1    C3 7883   6.791   2.820   6.959  0.0052 -0.4134  0.6843
   74CHL1    H3 7884   6.781   2.930   6.978 -3.3498 -0.5657  0.1186
   74CHL1    O3 7885   6.788   2.796   6.816  0.7091 -0.7573 -0.1075
   74CHL1   H3' 7886   6.787   2.700   6.805 -4.3890 -0.6504 -1.5180
   74CHL1    C4 7887   6.931   2.784   7.006 -0.1123  0.1219  1.0138
   74CHL1   H4A 7888   6.957   2.677   6.986 -0.3811 -0.0419  1.5455
   74CHL1   H4B 7889   7.005   2.839   6.944 -0.5629 -0.4882 -0.0834
   74CHL1    C5 7890   6.953   2.800   7.151  0.2003  0.0549  0.6653
   74CHL1    C6 7891   7.059   2.862   7.199  0.3009 -0.9241 -0.3417
   74CHL1    H6 7892   7.132   2.908   7.131 -0.7495  1.2092 -0.0602
   74CHL1    C7 7893   7.089   2.876   7.346 -0.2270  0.2775  0.5922
   74CHL1   H7A 7894   7.198   2.857   7.354 -0.5038 -0.9349  1.6314
   74CHL1   H7B 7895   7.066   2.976   7.389 -0.4668  1.0904 -1.4036
   74CHL1    C8 7896   7.009   2.777   7.431 -0.0273 -0.0548 -0.0678
   74CHL1    H8 7897   7.045   2.676   7.400  0.0897  0.2983 -1.0938
   74CHL1   C14 7898   7.031   2.793   7.570  0.4066 -0.1699 -0.4711
   74CHL1   H14 7899   6.988   2.890   7.603  1.9924  1.0490 -1.9034
   74CHL1   C15 7900   7.183   2.782   7.615 -0.2366  0.0601 -0.0827
   74CHL1  H15A 7901   7.230   2.690   7.575 -0.0176  0.3348 -0.4578
   74CHL1  H15B 7902   7.246   2.865   7.577  0.6966 -0.7228 -0.2605
   74CHL1   C16 7903   7.160   2.776   7.775 -0.6941  0.1896  0.0299
   74CHL1  H16A 7904   7.234   2.701   7.808  0.2083  2.2599  2.8573
   74CHL1  H16B 7905   7.182   2.875   7.820  0.9449  0.1263 -0.5938
   74CHL1   C17 7906   7.017   2.731   7.796  0.5924  0.2512 -0.2678
   74CHL1   H17 7907   6.958   2.822   7.822  2.7992  1.0776  2.1123
   74CHL1   C13 7908   6.955   2.696   7.660  0.6034  0.0601  0.1065
   74CHL1   C18 7909   6.989   2.543   7.623  0.3763 -0.5877  0.3938
   74CHL1  H18A 7910   7.097   2.517   7.629  0.8615  1.1678 -0.1850
   74CHL1  H18B 7911   6.937   2.472   7.690 -0.1500 -0.1346  0.4763
   74CHL1  H18C 7912   6.963   2.539   7.515 -3.1413 -0.5614  1.1756
   74CHL1   C12 7913   6.802   2.740   7.641  0.1437  0.0447  0.0274
   74CHL1  H12A 7914   6.736   2.683   7.710  0.3797 -2.5497 -1.7975
   74CHL1  H12B 7915   6.794   2.849   7.660 -2.6337  0.1215 -1.3418
   74CHL1   C11 7916   6.763   2.721   7.491  0.4379 -0.5458 -0.4106
   74CHL1  H11A 7917   6.756   2.613   7.466  1.0880 -0.0532 -2.8195
   74CHL1  H11B 7918   6.664   2.772   7.483  0.5878  0.1126  1.7258
   74CHL1    C9 7919   6.865   2.790   7.389  0.2351 -0.0443 -0.5400
   74CHL1    H9 7920   6.844   2.898   7.404 -2.2614 -0.5802  0.1473
   74CHL1   C10 7921   6.839   2.740   7.243 -0.4620  0.3552 -0.4240
   74CHL1   C19 7922   6.857   2.587   7.236 -0.3081 -0.6121 -0.3642
   74CHL1  H19A 7923   6.762   2.538   7.263  0.4745 -1.8049  0.2333
   74CHL1  H19B 7924   6.896   2.559   7.136  0.5201 -0.5023 -0.0807
   74CHL1  H19C 7925   6.938   2.548   7.301 -0.7825 -0.0910  0.5428
   74CHL1    C1 7926   6.697   2.780   7.184 -0.7415  0.9218 -0.1906
   74CHL1   H1A 7927   6.631   2.723   7.253  2.7886 -0.9415  1.8202
   74CHL1   H1B 7928   6.682   2.890   7.190  1.8870  1.2885  0.3661
   74CHL1    C2 7929   6.688   2.747   7.030  0.0778  0.4416 -0.7479
   74CHL1   H2A 7930   6.585   2.754   6.991 -0.6024 -3.0122  0.3211
   74CHL1   H2B 7931   6.712   2.639   7.020  0.9112  0.6771 -1.3659
   74CHL1   C20 7932   7.012   2.633   7.921 -0.0391  0.6514  0.6911
   74CHL1   H20 7933   7.052   2.531   7.901 -1.1280 -0.1475  2.4421
   74CHL1   C21 7934   6.868   2.595   7.962 -0.3111 -0.4859 -0.1727
   74CHL1  H21A 7935   6.866   2.554   8.065 -1.6894 -2.0706 -0.8043
   74CHL1  H21B 7936   6.814   2.526   7.893 -0.7598 -1.0433  0.7144
   74CHL1  H21C 7937   6.799   2.682   7.963  0.6370  0.2877 -0.7498
   74CHL1   C22 7938   7.084   2.688   8.049  0.7649 -0.2291 -0.1369
   74CHL1  H22A 7939   7.081   2.626   8.141  0.9387 -0.4076 -0.2502
   74CHL1  H22B 7940   7.193   2.699   8.029  0.1664 -0.3113 -3.7713
   74CHL1   C23 7941   7.027   2.822   8.095 -0.6085  0.1473 -0.6276
   74CHL1  H23A 7942   7.031   2.902   8.018  1.1045 -0.5022 -1.2288
   74CHL1  H23B 7943   6.921   2.804   8.123  0.8503 -1.7167  4.2038
   74CHL1   C24 7944   7.103   2.865   8.228  0.6989  0.3706  0.1830
   74CHL1  H24A 7945   7.097   2.783   8.303  0.5620  0.8907  0.7447
   74CHL1  H24B 7946   7.206   2.889   8.197  0.3799 -1.5268 -2.4996
   74CHL1   C25 7947   7.036   2.996   8.283  0.7607  0.0740  0.6560
   74CHL1   H25 7948   6.927   2.997   8.261  0.9848  1.0911 -0.4963
   74CHL1   C26 7949   7.055   3.017   8.438 -0.1772 -0.0980  0.2072
   74CHL1  H26A 7950   7.018   2.925   8.488 -1.9272  0.9067  0.8158
   74CHL1  H26B 7951   7.159   3.046   8.463 -0.5308 -0.8747  2.6415
   74CHL1  H26C 7952   6.998   3.107   8.469 -0.1644  0.7460 -2.0870
   74CHL1   C27 7953   7.101   3.114   8.218  0.6158  0.1330 -0.1615
   74CHL1  H27A 7954   7.211   3.114   8.230  0.3820  0.5979  2.1434
   74CHL1  H27B 7955   7.064   3.119   8.113  0.4950  0.3239 -0.1086
   74CHL1  H27C 7956   7.077   3.215   8.258  2.9188  0.6746 -0.0888
   75CHL1    C3 7957   3.046   4.321   6.760 -0.6699  0.0637 -0.1442
   75CHL1    H3 7958   2.944   4.295   6.797  0.3161 -0.3237  2.3953
   75CHL1    O3 7959   3.056   4.284   6.621  0.5088  0.2275  0.0921
   75CHL1   H3' 7960   3.054   4.188   6.625 -1.5890  0.1455 -1.8998
   75CHL1    C4 7961   3.066   4.468   6.770 -0.0324  0.3451 -0.4853
   75CHL1   H4A 7962   3.161   4.494   6.718  0.0740  0.0469 -0.4395
   75CHL1   H4B 7963   2.976   4.514   6.725  0.3187  0.5423 -0.9924
   75CHL1    C5 7964   3.070   4.510   6.913 -0.8076 -0.6958 -0.1092
   75CHL1    C6 7965   2.998   4.611   6.946 -0.2549  0.6846  0.0961
   75CHL1    H6 7966   2.945   4.661   6.864 -0.2437  1.0459  0.3080
   75CHL1    C7 7967   2.990   4.672   7.081  0.2617 -0.0848  0.2972
   75CHL1   H7A 7968   3.004   4.782   7.071 -0.5628 -0.2405 -3.2676
   75CHL1   H7B 7969   2.886   4.652   7.116  0.1986 -5.0615 -2.3743
   75CHL1    C8 7970   3.082   4.611   7.185 -0.3259  0.6801 -0.4053
   75CHL1    H8 7971   3.183   4.657   7.180 -0.7878  1.6946 -0.5271
   75CHL1   C14 7972   3.042   4.631   7.328  0.5065  0.2645 -0.1168
   75CHL1   H14 7973   2.937   4.595   7.338  1.0334 -0.8627  1.4449
   75CHL1   C15 7974   3.025   4.774   7.381 -0.1807 -0.0683  0.4324
   75CHL1  H15A 7975   3.114   4.827   7.343 -0.8239  1.4554  0.9936
   75CHL1  H15B 7976   2.929   4.822   7.352  0.9084  2.0942  0.3447
   75CHL1   C16 7977   3.033   4.756   7.535  0.1149  1.0830 -0.3680
   75CHL1  H16A 7978   3.113   4.815   7.585  0.3722  0.6322 -0.2346
   75CHL1  H16B 7979   2.934   4.770   7.581 -0.3609 -1.1084 -0.6634
   75CHL1   C17 7980   3.067   4.603   7.562  0.0972 -0.9965 -0.0190
   75CHL1   H17 7981   2.965   4.558   7.553 -0.9777  1.9262 -4.3642
   75CHL1   C13 7982   3.131   4.562   7.430 -0.3272  0.4460 -0.1868
   75CHL1   C18 7983   3.274   4.623   7.430  0.8784  0.0807  0.2507
   75CHL1  H18A 7984   3.320   4.605   7.331 -1.1573 -0.5341 -0.6061
   75CHL1  H18B 7985   3.279   4.733   7.448 -1.2428  0.3440 -0.6838
   75CHL1  H18C 7986   3.345   4.580   7.504  0.1698  1.1858  1.5955
   75CHL1   C12 7987   3.125   4.411   7.399 -0.9258  0.7543  0.0562
   75CHL1  H12A 7988   3.183   4.362   7.480 -0.3771  1.1862 -0.0722
   75CHL1  H12B 7989   3.024   4.368   7.419  0.4238 -2.5951  0.0404
   75CHL1   C11 7990   3.178   4.380   7.259  0.3758 -0.1863 -0.8683
   75CHL1  H11A 7991   3.285   4.411   7.260 -0.4422  2.9307 -2.3241
   75CHL1  H11B 7992   3.171   4.270   7.251  3.5374 -0.4162 -1.3391
   75CHL1    C9 7993   3.101   4.461   7.153 -1.1993 -0.2975 -0.2901
   75CHL1    H9 7994   2.999   4.417   7.155 -1.7085  0.9283  0.8537
   75CHL1   C10 7995   3.156   4.430   7.014 -0.9194  0.2763 -1.2895
   75CHL1   C19 7996   3.301   4.469   6.994 -0.1191 -0.2608  0.3510
   75CHL1  H19A 7997   3.343   4.465   6.891  2.3177  1.3213  1.2515
   75CHL1  H19B 7998   3.312   4.573   7.029  1.3172  0.1200 -1.1632
   75CHL1  H19C 7999   3.369   4.409   7.058  0.3175 -1.8531 -1.5624
   75CHL1    C1 8000   3.139   4.271   6.980 -0.5657 -0.0730  0.1897
   75CHL1   H1A 8001   3.223   4.227   7.038  1.6084 -0.3904 -3.0570
   75CHL1   H1B 8002   3.042   4.234   7.019 -0.0328 -2.1789 -0.4457
   75CHL1    C2 8003   3.148   4.243   6.829  0.6602 -0.3019 -0.3952
   75CHL1   H2A 8004   3.128   4.135   6.810 -0.9923  0.0165 -0.5324
   75CHL1   H2B 8005   3.250   4.267   6.793  0.9033 -1.2785 -0.3882
   75CHL1   C20 8006   3.121   4.570   7.694  0.2660  0.7245  0.4215
   75CHL1   H20 8007   3.232   4.562   7.694  0.3420  0.9441 -2.5420
   75CHL1   C21 8008   3.059   4.435   7.726  0.1230 -0.4503 -0.3673
   75CHL1  H21A 8009   2.949   4.444   7.738  0.5130  0.4201  3.0928
   75CHL1  H21B 8010   3.091   4.388   7.822 -0.3308  0.3768  0.1901
   75CHL1  H21C 8011   3.075   4.353   7.653 -1.6878 -3.2792  2.2420
   75CHL1   C22 8012   3.079   4.672   7.804  0.2805 -0.5495 -0.8686
   75CHL1  H22A 8013   3.125   4.772   7.788 -0.1732  0.0381  1.2375
   75CHL1  H22B 8014   2.968   4.674   7.799  0.1856 -0.8358  0.7922
   75CHL1   C23 8015   3.117   4.626   7.947  0.0708 -0.1499 -0.5489
   75CHL1  H23A 8016   3.047   4.544   7.973  0.9117 -0.3237  1.2814
   75CHL1  H23B 8017   3.219   4.583   7.945  0.5422  0.7032  2.5389
   75CHL1   C24 8018   3.096   4.730   8.057 -0.2823 -0.2900 -0.1268
   75CHL1  H24A 8019   3.153   4.823   8.034 -0.6932 -0.0848 -0.3102
   75CHL1  H24B 8020   2.987   4.750   8.055 -0.3099 -0.5508 -1.3806
   75CHL1   C25 8021   3.147   4.694   8.203  0.6594  0.2995 -0.1745
   75CHL1   H25 8022   3.257   4.683   8.209  0.6335  0.0119 -0.2461
   75CHL1   C26 8023   3.108   4.814   8.288 -0.1340 -0.4124  0.0221
   75CHL1  H26A 8024   3.132   4.783   8.392  0.1291  0.4935  0.2404
   75CHL1  H26B 8025   3.166   4.904   8.258 -2.1248  1.3241  1.2288
   75CHL1  H26C 8026   3.000   4.836   8.283 -0.3325 -1.1527  0.9292
   75CHL1   C27 8027   3.075   4.569   8.247  0.1317 -0.6201  0.3227
   75CHL1  H27A 8028   3.101   4.481   8.185  1.4278 -0.9429  1.3008
   75CHL1  H27B 8029   3.106   4.544   8.351  0.9241  0.6099  0.4049
   75CHL1  H27C 8030   2.967   4.595   8.249  0.1802 -0.4496  1.5006
   76CHL1    C3 8031   6.786   6.349   7.319 -0.1584  0.9824 -0.5386
   76CHL1    H3 8032   6.775   6.238   7.313  0.9643  0.7319  1.5964
   76CHL1    O3 8033   6.854   6.392   7.206 -0.1225  0.0496  0.2298
   76CHL1   H3' 8034   6.935   6.341   7.207 -0.5621 -0.6703  1.9683
   76CHL1    C4 8035   6.663   6.429   7.342  0.1854  0.1677 -0.5265
   76CHL1   H4A 8036   6.699   6.534   7.331 -0.0679  0.0548 -2.4972
   76CHL1   H4B 8037   6.599   6.397   7.257 -1.2101  0.7310  0.2978
   76CHL1    C5 8038   6.585   6.411   7.473  0.0337 -0.0017  0.7563
   76CHL1    C6 8039   6.452   6.381   7.473 -0.0492  0.5343 -0.3634
   76CHL1    H6 8040   6.402   6.372   7.376 -2.9784  2.7012  0.8598
   76CHL1    C7 8041   6.365   6.367   7.602 -0.1493 -1.1199  0.4980
   76CHL1   H7A 8042   6.283   6.441   7.592  0.4135 -0.7926 -2.0947
   76CHL1   H7B 8043   6.333   6.262   7.623 -0.3708 -1.0497  0.5120
   76CHL1    C8 8044   6.447   6.402   7.733  0.9194  0.1814 -0.4350
   76CHL1    H8 8045   6.430   6.511   7.738  0.1697  0.0207  0.9408
   76CHL1   C14 8046   6.403   6.321   7.851  0.0918 -1.0158  0.2015
   76CHL1   H14 8047   6.428   6.216   7.823 -0.5623 -0.7430 -1.4904
   76CHL1   C15 8048   6.248   6.319   7.876  0.6513 -0.0456  0.2728
   76CHL1  H15A 8049   6.203   6.415   7.845  1.9776  0.9751  1.4609
   76CHL1  H15B 8050   6.200   6.240   7.815 -0.4035  1.3840 -0.7778
   76CHL1   C16 8051   6.238   6.304   8.030  0.2975 -0.0934  0.6717
   76CHL1  H16A 8052   6.187   6.387   8.084  2.8150  1.8180  0.1776
   76CHL1  H16B 8053   6.173   6.217   8.053 -2.2916  2.3351  2.9248
   76CHL1   C17 8054   6.380   6.286   8.081 -0.0913  0.3469  0.9403
   76CHL1   H17 8055   6.414   6.182   8.062  0.6453  0.6812  0.3946
   76CHL1   C13 8056   6.471   6.358   7.981 -0.0836 -0.4630 -0.1234
   76CHL1   C18 8057   6.456   6.510   8.011  0.2531  0.6179  0.2022
   76CHL1  H18A 8058   6.510   6.571   7.936  1.1743 -1.0890 -0.5428
   76CHL1  H18B 8059   6.351   6.546   8.015 -0.4611 -1.5682  3.5308
   76CHL1  H18C 8060   6.494   6.530   8.114 -3.0113 -0.1653  1.6159
   76CHL1   C12 8061   6.618   6.315   7.970  0.3330 -0.3210 -0.7406
   76CHL1  H12A 8062   6.679   6.344   8.058 -2.1972 -1.4537  1.4636
   76CHL1  H12B 8063   6.631   6.205   7.973 -3.0855 -0.7211  2.6430
   76CHL1   C11 8064   6.682   6.379   7.842  0.2736 -0.2298  0.7522
   76CHL1  H11A 8065   6.691   6.488   7.859  1.4207 -0.4311  1.5705
   76CHL1  H11B 8066   6.786   6.339   7.839 -0.5185 -2.8123  4.2029
   76CHL1    C9 8067   6.604   6.362   7.713  0.9446 -0.3530 -0.4324
   76CHL1    H9 8068   6.605   6.253   7.693 -0.6311 -0.8193  1.7823
   76CHL1   C10 8069   6.672   6.429   7.595  0.1190  0.7884  0.9541
   76CHL1   C19 8070   6.701   6.585   7.610 -0.0213  0.1269  0.4877
   76CHL1  H19A 8071   6.732   6.642   7.520  1.1768  3.2814  2.7923
   76CHL1  H19B 8072   6.619   6.648   7.651 -0.6697  0.5200 -1.3970
   76CHL1  H19C 8073   6.779   6.591   7.689  1.4619 -0.5066 -0.9016
   76CHL1    C1 8074   6.810   6.360   7.573 -1.0364  0.6835  0.2417
   76CHL1   H1A 8075   6.870   6.404   7.655  1.8195 -0.0584 -1.3597
   76CHL1   H1B 8076   6.797   6.252   7.598  0.7336 -0.1884 -2.3950
   76CHL1    C2 8077   6.879   6.383   7.434 -0.2403  0.4106 -0.2937
   76CHL1   H2A 8078   6.980   6.336   7.434  0.7776  2.5731 -0.1279
   76CHL1   H2B 8079   6.900   6.491   7.423  0.8520  0.1497 -0.9229
   76CHL1   C20 8080   6.415   6.316   8.233  0.5389 -0.4124  0.2359
   76CHL1   H20 8081   6.525   6.334   8.236  0.7693 -0.9695 -3.0377
   76CHL1   C21 8082   6.399   6.186   8.311  0.4660 -0.8265  0.1163
   76CHL1  H21A 8083   6.462   6.108   8.264  1.4826 -0.3995  0.7535
   76CHL1  H21B 8084   6.296   6.145   8.313  0.6309 -1.2133  1.8637
   76CHL1  H21C 8085   6.431   6.181   8.418  4.8774 -0.4455 -1.0691
   76CHL1   C22 8086   6.340   6.431   8.309  0.6495 -0.1827  0.1795
   76CHL1  H22A 8087   6.327   6.520   8.244  1.3611 -0.5722 -0.4981
   76CHL1  H22B 8088   6.244   6.392   8.350  0.1409  1.3839  0.4848
   76CHL1   C23 8089   6.422   6.489   8.427  0.1659  0.2570  0.3773
   76CHL1  H23A 8090   6.439   6.398   8.488 -2.7106 -0.5304  0.0471
   76CHL1  H23B 8091   6.520   6.530   8.393 -0.2754  0.2503 -0.9630
   76CHL1   C24 8092   6.335   6.585   8.511 -0.1449  0.5880 -0.2766
   76CHL1  H24A 8093   6.316   6.677   8.452 -1.5453  1.6636  1.7570
   76CHL1  H24B 8094   6.230   6.551   8.525  0.3386 -0.5226  0.6810
   76CHL1   C25 8095   6.404   6.619   8.645  0.0666  0.2389  0.6083
   76CHL1   H25 8096   6.512   6.629   8.620  0.3573  2.0301  2.5012
   76CHL1   C26 8097   6.352   6.744   8.706  0.1787  0.4988 -0.4282
   76CHL1  H26A 8098   6.330   6.825   8.632 -1.8137  0.5414  0.1786
   76CHL1  H26B 8099   6.250   6.728   8.746  0.6739  1.9007  1.4856
   76CHL1  H26C 8100   6.403   6.782   8.797  0.9013 -1.7950  0.1549
   76CHL1   C27 8101   6.404   6.506   8.748  0.0979  0.4765 -0.0998
   76CHL1  H27A 8102   6.408   6.403   8.707  1.6638 -0.2584  1.8485
   76CHL1  H27B 8103   6.485   6.517   8.822  0.1460  1.8160 -0.3390
   76CHL1  H27C 8104   6.309   6.508   8.805  0.4026 -0.0526  0.4299
   77CHL1    C3 8105   0.553   4.709   6.760 -0.0607  1.1341  0.3276
   77CHL1    H3 8106   0.559   4.599   6.770  1.4662  1.2299  0.5883
   77CHL1    O3 8107   0.526   4.750   6.628  0.2402  0.5163 -0.2489
   77CHL1   H3' 8108   0.612   4.766   6.589  0.7694 -0.7906  0.3840
   77CHL1    C4 8109   0.431   4.765   6.847 -0.8189  0.2838  0.0914
   77CHL1   H4A 8110   0.407   4.869   6.818  0.8781  0.5661 -0.3604
   77CHL1   H4B 8111   0.350   4.697   6.814  1.2969 -2.4781  0.4213
   77CHL1    C5 8112   0.449   4.742   6.994  0.3370  1.1495 -0.1802
   77CHL1    C6 8113   0.354   4.681   7.071 -0.0040  0.2034 -0.2738
   77CHL1    H6 8114   0.262   4.635   7.032  0.0559  0.3574 -0.6030
   77CHL1    C7 8115   0.373   4.662   7.221 -0.3667  0.1771 -0.3331
   77CHL1   H7A 8116   0.278   4.658   7.278  0.9839 -0.0677  1.9697
   77CHL1   H7B 8117   0.413   4.562   7.245  0.2454  0.3239 -0.7206
   77CHL1    C8 8118   0.472   4.772   7.279  0.3691  0.5615  0.7201
   77CHL1    H8 8119   0.420   4.870   7.278  1.6387  1.2386  0.4641
   77CHL1   C14 8120   0.499   4.739   7.420  0.4360 -0.4428  1.1382
   77CHL1   H14 8121   0.554   4.643   7.411  0.2755 -0.4707  0.3982
   77CHL1   C15 8122   0.378   4.727   7.516 -0.5127  0.2544  0.4305
   77CHL1  H15A 8123   0.304   4.808   7.496  0.0047  0.6158 -0.0500
   77CHL1  H15B 8124   0.333   4.626   7.506  0.4233 -0.1362  0.1224
   77CHL1   C16 8125   0.451   4.741   7.651  0.3792 -0.0253 -0.3374
   77CHL1  H16A 8126   0.394   4.819   7.708  1.0876  1.7348 -1.9913
   77CHL1  H16B 8127   0.467   4.643   7.699 -1.4438  1.0143  2.5836
   77CHL1   C17 8128   0.598   4.791   7.625  0.1057  0.1983 -0.3194
   77CHL1   H17 8129   0.664   4.701   7.629  0.5294  0.4955 -0.7143
   77CHL1   C13 8130   0.598   4.837   7.484 -0.2069 -0.3285 -0.4889
   77CHL1   C18 8131   0.548   4.987   7.490 -0.4175  0.6684 -0.0770
   77CHL1  H18A 8132   0.469   5.006   7.566 -0.5692  2.7986 -0.7477
   77CHL1  H18B 8133   0.635   5.047   7.525 -1.5802  0.6015  3.1044
   77CHL1  H18C 8134   0.533   5.030   7.389 -2.3357  0.0591 -0.0739
   77CHL1   C12 8135   0.726   4.826   7.409 -0.7196 -0.6240  0.5238
   77CHL1  H12A 8136   0.801   4.898   7.448 -0.2349 -0.7745 -0.1288
   77CHL1  H12B 8137   0.766   4.724   7.427  2.2911  0.3841 -0.2224
   77CHL1   C11 8138   0.717   4.852   7.260  0.0774  0.2997 -0.1995
   77CHL1  H11A 8139   0.694   4.960   7.258 -1.6835 -0.0717 -0.3467
   77CHL1  H11B 8140   0.811   4.824   7.207 -0.6118 -1.6949 -0.4111
   77CHL1    C9 8141   0.600   4.774   7.197  0.8490  0.4384 -0.0287
   77CHL1    H9 8142   0.631   4.667   7.196 -0.9933 -0.1025  0.1952
   77CHL1   C10 8143   0.577   4.807   7.047 -0.1542 -0.4431  1.3704
   77CHL1   C19 8144   0.567   4.958   7.031  0.4104  0.0459 -0.4551
   77CHL1  H19A 8145   0.667   5.002   7.049  0.6843 -0.5550 -0.4887
   77CHL1  H19B 8146   0.530   4.984   6.929 -1.3037 -1.0478 -0.1412
   77CHL1  H19C 8147   0.496   5.008   7.100 -0.5740 -0.8763 -0.7738
   77CHL1    C1 8148   0.692   4.752   6.966  0.4062  0.9255 -0.1274
   77CHL1   H1A 8149   0.785   4.806   6.996 -0.3745  1.8401  0.6545
   77CHL1   H1B 8150   0.707   4.644   6.989 -1.0617  0.5664 -0.7936
   77CHL1    C2 8151   0.681   4.770   6.814  0.2714  0.2700 -0.0596
   77CHL1   H2A 8152   0.773   4.737   6.762  0.6608 -0.2198  0.9330
   77CHL1   H2B 8153   0.670   4.880   6.800 -1.6576  0.2400  1.0293
   77CHL1   C20 8154   0.652   4.870   7.741 -0.7205 -0.3055 -0.6488
   77CHL1   H20 8155   0.608   4.972   7.740 -0.4861  0.0030  5.3217
   77CHL1   C21 8156   0.803   4.893   7.722  0.2553 -0.5493  0.3690
   77CHL1  H21A 8157   0.854   4.797   7.701  0.3534 -0.2197 -0.9211
   77CHL1  H21B 8158   0.853   4.936   7.811  0.8067 -2.7563  1.1640
   77CHL1  H21C 8159   0.840   4.957   7.639 -2.3869 -0.6288 -0.9372
   77CHL1   C22 8160   0.628   4.803   7.877 -0.4104 -0.2496 -1.0755
   77CHL1  H22A 8161   0.518   4.802   7.890 -0.2253 -0.5275  0.5738
   77CHL1  H22B 8162   0.643   4.694   7.891  0.7844  0.0037 -0.3288
   77CHL1   C23 8163   0.679   4.876   7.995 -0.2175 -0.5150  0.5352
   77CHL1  H23A 8164   0.783   4.839   8.005 -0.9687 -2.0372  3.2518
   77CHL1  H23B 8165   0.685   4.986   7.979 -0.3853 -0.0436  3.4179
   77CHL1   C24 8166   0.606   4.846   8.129 -0.8572 -0.4307  0.2128
   77CHL1  H24A 8167   0.504   4.887   8.114  0.0930  1.5162 -1.1413
   77CHL1  H24B 8168   0.601   4.735   8.132 -0.3601 -0.4105  2.4369
   77CHL1   C25 8169   0.677   4.897   8.252 -0.6324  1.0903  0.3308
   77CHL1   H25 8170   0.770   4.836   8.265 -1.2791  0.5004  2.3405
   77CHL1   C26 8171   0.713   5.045   8.228 -0.5468 -0.2583 -0.3046
   77CHL1  H26A 8172   0.802   5.052   8.161  0.0550 -2.8629  0.1542
   77CHL1  H26B 8173   0.630   5.106   8.186  0.8151  3.0342  1.6341
   77CHL1  H26C 8174   0.724   5.093   8.328 -1.0521  1.1927 -0.9362
   77CHL1   C27 8175   0.578   4.886   8.365  0.4153 -0.3730 -0.6984
   77CHL1  H27A 8176   0.622   4.900   8.465  1.4117  0.5856 -1.2577
   77CHL1  H27B 8177   0.493   4.955   8.342 -0.4569 -0.9679  0.7226
   77CHL1  H27C 8178   0.539   4.783   8.372 -2.1372  0.6498  0.8859
   78CHL1    C3 8179   2.701   6.101   6.831  0.6419  0.1359 -0.1158
   78CHL1    H3 8180   2.599   6.056   6.835  0.3142  0.8559 -0.2564
   78CHL1    O3 8181   2.726   6.146   6.698  0.5204  0.4710 -0.6406
   78CHL1   H3' 8182   2.710   6.068   6.646 -1.0775 -1.6300  2.8054
   78CHL1    C4 8183   2.712   6.216   6.926 -0.5948 -0.5539  0.0829
   78CHL1   H4A 8184   2.807   6.271   6.910 -1.1893  0.2066 -0.8913
   78CHL1   H4B 8185   2.630   6.287   6.904 -2.0351 -1.7934  1.2985
   78CHL1    C5 8186   2.706   6.177   7.072 -0.2577  0.9988 -0.7055
   78CHL1    C6 8187   2.625   6.233   7.164 -0.2341  0.1238 -0.8630
   78CHL1    H6 8188   2.568   6.321   7.132 -2.8956 -2.2133 -2.7159
   78CHL1    C7 8189   2.629   6.205   7.308  0.0585 -0.1002 -0.1000
   78CHL1   H7A 8190   2.634   6.299   7.367  1.8757 -0.1242 -0.1948
   78CHL1   H7B 8191   2.540   6.144   7.335  0.6070 -0.6145  0.5554
   78CHL1    C8 8192   2.757   6.131   7.354  0.5829 -0.6380 -0.4970
   78CHL1    H8 8193   2.839   6.205   7.341 -0.2390  0.8575  2.3143
   78CHL1   C14 8194   2.746   6.088   7.493 -0.1495  0.0798  0.4067
   78CHL1   H14 8195   2.652   6.030   7.492 -0.8385  1.1987 -1.0670
   78CHL1   C15 8196   2.724   6.200   7.601 -0.1406  0.5543  0.0101
   78CHL1  H15A 8197   2.795   6.282   7.580  0.6438 -0.2375 -0.4340
   78CHL1  H15B 8198   2.616   6.225   7.597 -0.3461 -0.1033  1.1743
   78CHL1   C16 8199   2.784   6.135   7.727  0.1631 -0.7033  0.9559
   78CHL1  H16A 8200   2.867   6.197   7.767 -0.2766 -0.4894  1.5333
   78CHL1  H16B 8201   2.701   6.129   7.800  0.2450  0.0256  1.1087
   78CHL1   C17 8202   2.844   5.993   7.692 -0.0099  0.4776 -0.0703
   78CHL1   H17 8203   2.767   5.913   7.693 -0.1360  0.6165  1.7442
   78CHL1   C13 8204   2.867   6.004   7.535 -0.3009  0.3309  0.2065
   78CHL1   C18 8205   3.000   6.074   7.516  0.5384 -0.2237 -0.1961
   78CHL1  H18A 8206   3.004   6.117   7.414  1.6752 -0.5920 -0.3229
   78CHL1  H18B 8207   3.025   6.150   7.594  1.0308 -1.0290  0.4376
   78CHL1  H18C 8208   3.080   5.997   7.517 -0.1184 -0.9110 -0.5020
   78CHL1   C12 8209   2.867   5.866   7.457  0.0361 -0.5467 -0.4096
   78CHL1  H12A 8210   2.944   5.796   7.497  0.1491 -0.3542 -0.2933
   78CHL1  H12B 8211   2.764   5.828   7.474 -1.2844  3.3457  0.6206
   78CHL1   C11 8212   2.885   5.898   7.308  0.3583  0.7967  0.1798
   78CHL1  H11A 8213   2.986   5.934   7.281  0.6234  0.0860  0.2168
   78CHL1  H11B 8214   2.874   5.806   7.247  0.3831  1.4242 -0.7934
   78CHL1    C9 8215   2.789   6.011   7.259 -0.2209 -1.0879 -0.2112
   78CHL1    H9 8216   2.695   5.952   7.259  0.4766 -2.2097 -0.0504
   78CHL1   C10 8217   2.797   6.064   7.113  0.3678  0.0011  0.4121
   78CHL1   C19 8218   2.940   6.121   7.093 -0.5521 -0.6115 -0.8983
   78CHL1  H19A 8219   3.019   6.049   7.125  0.2631  0.4910 -0.3943
   78CHL1  H19B 8220   2.956   6.163   6.991  0.8124  1.0050 -0.0405
   78CHL1  H19C 8221   2.957   6.199   7.170 -1.6405 -0.7367 -0.5257
   78CHL1    C1 8222   2.774   5.948   7.019  0.0835  0.2469  0.0376
   78CHL1   H1A 8223   2.857   5.875   7.027 -1.1631 -1.2915 -0.8278
   78CHL1   H1B 8224   2.681   5.895   7.046  1.0817 -2.3080 -1.3366
   78CHL1    C2 8225   2.783   5.974   6.864 -0.9539 -1.1012 -0.4370
   78CHL1   H2A 8226   2.742   5.888   6.806 -3.0650 -0.5002  0.1328
   78CHL1   H2B 8227   2.891   5.985   6.842 -0.2236 -1.0448  2.8567
   78CHL1   C20 8228   2.956   5.944   7.792  0.0183 -0.0693 -0.1792
   78CHL1   H20 8229   3.027   6.028   7.814 -1.2101  1.1707 -0.8680
   78CHL1   C21 8230   3.019   5.810   7.746  0.0995  0.0379  0.1157
   78CHL1  H21A 8231   2.945   5.730   7.726  1.2691 -0.7346 -1.2825
   78CHL1  H21B 8232   3.089   5.778   7.827 -0.2782 -0.7301  0.1413
   78CHL1  H21C 8233   3.090   5.821   7.661  0.5726 -1.0247  0.3675
   78CHL1   C22 8234   2.895   5.922   7.934 -0.8215 -0.3165  0.7202
   78CHL1  H22A 8235   2.827   6.007   7.958  1.0208  0.6007  2.8796
   78CHL1  H22B 8236   2.829   5.836   7.912 -3.1947  1.2842  1.3540
   78CHL1   C23 8237   2.982   5.897   8.049 -0.6451 -0.4372 -0.0644
   78CHL1  H23A 8238   2.916   5.895   8.138 -0.5472  1.8277  0.0911
   78CHL1  H23B 8239   3.031   5.798   8.039 -0.0151 -0.3404  1.9105
   78CHL1   C24 8240   3.083   6.013   8.061 -0.0094 -0.0063 -0.4387
   78CHL1  H24A 8241   3.169   5.983   7.998 -0.2442 -0.8997 -0.3369
   78CHL1  H24B 8242   3.034   6.108   8.031 -1.4678 -0.3289  0.8410
   78CHL1   C25 8243   3.130   6.026   8.202  0.0601  0.2764  0.3697
   78CHL1   H25 8244   3.039   6.010   8.264  1.1881 -0.5815  1.8300
   78CHL1   C26 8245   3.234   5.920   8.248 -0.5655  0.0563  0.3019
   78CHL1  H26A 8246   3.228   5.919   8.359 -3.1818 -0.3507  0.1929
   78CHL1  H26B 8247   3.201   5.820   8.211  2.1762 -0.8252  0.1680
   78CHL1  H26C 8248   3.339   5.933   8.214 -0.0289  0.0619  1.9305
   78CHL1   C27 8249   3.171   6.174   8.235 -0.3383 -0.0333  0.7270
   78CHL1  H27A 8250   3.097   6.245   8.191  0.9086 -0.2578 -1.7865
   78CHL1  H27B 8251   3.187   6.191   8.344  1.4893  0.7414  0.3523
   78CHL1  H27C 8252   3.269   6.196   8.189 -0.2700 -0.8411  0.4732
   79CHL1    C3 8253   1.312   6.011   7.262  0.0894 -0.0734 -0.4099
   79CHL1    H3 8254   1.209   6.051   7.274  0.0790  0.7580 -3.0763
   79CHL1    O3 8255   1.332   6.039   7.122  0.6041  0.1806 -0.0241
   79CHL1   H3' 8256   1.265   5.995   7.069  0.4183  1.9728 -1.3334
   79CHL1    C4 8257   1.403   6.081   7.359  0.3516 -0.1539 -1.0798
   79CHL1   H4A 8258   1.510   6.056   7.339  0.1451 -0.9205 -1.2679
   79CHL1   H4B 8259   1.395   6.191   7.348  1.8939  0.0646 -0.1800
   79CHL1    C5 8260   1.370   6.056   7.514 -0.2645 -0.0020  0.3648
   79CHL1    C6 8261   1.350   6.150   7.605 -0.2472 -0.2114  0.3135
   79CHL1    H6 8262   1.364   6.256   7.578  0.7464  0.0282  1.7622
   79CHL1    C7 8263   1.318   6.130   7.743 -0.3142  0.8956 -0.4530
   79CHL1   H7A 8264   1.372   6.204   7.806 -0.7472  1.3714 -0.6317
   79CHL1   H7B 8265   1.210   6.150   7.757 -0.9485 -1.7311 -1.2451
   79CHL1    C8 8266   1.351   5.981   7.789  0.8783  0.0022  0.5080
   79CHL1    H8 8267   1.460   5.963   7.783  0.9529  0.0100  1.8583
   79CHL1   C14 8268   1.305   5.953   7.929  0.5457 -0.2785 -0.2097
   79CHL1   H14 8269   1.196   5.969   7.934  0.7880  0.9708  1.7357
   79CHL1   C15 8270   1.366   6.055   8.029 -0.1774  0.2925 -0.0628
   79CHL1  H15A 8271   1.471   6.079   8.003  0.3433 -1.2571  0.5586
   79CHL1  H15B 8272   1.303   6.145   8.046 -0.2847 -0.0893  1.6451
   79CHL1   C16 8273   1.358   5.978   8.160 -0.6764 -0.1184  0.2085
   79CHL1  H16A 8274   1.461   5.975   8.201 -0.5581  0.4670 -0.0470
   79CHL1  H16B 8275   1.292   6.032   8.232  0.5658 -0.5168  1.6704
   79CHL1   C17 8276   1.307   5.828   8.131  0.3052 -0.1849  0.7416
   79CHL1   H17 8277   1.197   5.841   8.126  0.3714  0.2478  0.3743
   79CHL1   C13 8278   1.350   5.813   7.979  0.1759 -0.4559  0.4653
   79CHL1   C18 8279   1.505   5.808   7.979 -0.0943 -0.0365 -0.1397
   79CHL1  H18A 8280   1.539   5.781   7.877  1.7002  0.3470  0.3313
   79CHL1  H18B 8281   1.561   5.898   8.011 -1.0710  0.2793  0.7099
   79CHL1  H18C 8282   1.545   5.715   8.024  0.8219 -0.3605 -1.6170
   79CHL1   C12 8283   1.283   5.704   7.895  0.0695  0.1631 -0.2937
   79CHL1  H12A 8284   1.316   5.599   7.914  1.7056  1.1208  2.5509
   79CHL1  H12B 8285   1.178   5.698   7.928  0.2012 -1.5158 -0.1167
   79CHL1   C11 8286   1.298   5.730   7.749  0.9860  0.0801  0.4802
   79CHL1  H11A 8287   1.396   5.690   7.714  0.2093 -0.8276 -0.7098
   79CHL1  H11B 8288   1.221   5.668   7.699  0.4570  1.5864 -0.6064
   79CHL1    C9 8289   1.294   5.873   7.690  0.8263 -0.7218 -0.1915
   79CHL1    H9 8290   1.185   5.891   7.688  1.1803  1.5149 -0.0519
   79CHL1   C10 8291   1.349   5.905   7.549 -0.2929  0.5307  0.8210
   79CHL1   C19 8292   1.489   5.841   7.522 -0.2845 -0.3681  0.0795
   79CHL1  H19A 8293   1.471   5.736   7.492 -1.0893 -0.1872 -0.0760
   79CHL1  H19B 8294   1.550   5.887   7.442 -1.4898 -0.8650 -1.1497
   79CHL1  H19C 8295   1.542   5.853   7.619  0.8619  0.7288 -0.6601
   79CHL1    C1 8296   1.262   5.842   7.439 -0.2745 -0.1753 -0.4592
   79CHL1   H1A 8297   1.264   5.731   7.445  2.0408 -0.2232 -1.5136
   79CHL1   H1B 8298   1.156   5.875   7.443 -0.5359 -0.6123 -2.8949
   79CHL1    C2 8299   1.299   5.865   7.294 -0.3858  0.0525  0.0957
   79CHL1   H2A 8300   1.225   5.816   7.227 -0.0663 -2.2774  1.4202
   79CHL1   H2B 8301   1.398   5.817   7.276 -0.7899 -0.3334 -1.1895
   79CHL1   C20 8302   1.322   5.717   8.239  0.2557  0.1334 -0.1166
   79CHL1   H20 8303   1.340   5.619   8.190 -2.1476 -0.9682  1.1182
   79CHL1   C21 8304   1.182   5.692   8.294 -0.2231 -0.1273  0.2198
   79CHL1  H21A 8305   1.116   5.655   8.212  2.0637 -1.0642 -1.2450
   79CHL1  H21B 8306   1.147   5.785   8.342 -0.9967  0.4628 -1.4246
   79CHL1  H21C 8307   1.187   5.601   8.358  2.7406  0.6643  1.1860
   79CHL1   C22 8308   1.412   5.754   8.356  0.8508 -0.1704 -0.2588
   79CHL1  H22A 8309   1.501   5.804   8.311  0.3604 -0.1344 -1.2107
   79CHL1  H22B 8310   1.355   5.820   8.424 -0.0053 -1.3518  0.1849
   79CHL1   C23 8311   1.458   5.625   8.434  0.0540 -0.0679  0.0745
   79CHL1  H23A 8312   1.372   5.575   8.483 -0.0784  0.1148  0.0273
   79CHL1  H23B 8313   1.509   5.557   8.363 -0.6012 -0.3336 -0.1383
   79CHL1   C24 8314   1.539   5.673   8.564 -0.6955  0.5552  0.2636
   79CHL1  H24A 8315   1.637   5.715   8.534 -1.2046  0.7809 -1.1103
   79CHL1  H24B 8316   1.478   5.752   8.612 -1.3221 -0.7103  1.6097
   79CHL1   C25 8317   1.561   5.561   8.660  0.5722 -0.5629 -0.0396
   79CHL1   H25 8318   1.458   5.538   8.693  0.2992 -0.0535 -0.5242
   79CHL1   C26 8319   1.626   5.431   8.603 -0.4513  0.0792  0.5698
   79CHL1  H26A 8320   1.620   5.344   8.671  0.1379  0.4620  1.1168
   79CHL1  H26B 8321   1.578   5.414   8.504  2.9766 -0.3940 -1.0887
   79CHL1  H26C 8322   1.734   5.450   8.591 -0.5301  0.6438  0.7408
   79CHL1   C27 8323   1.625   5.606   8.793  0.1733 -0.0656  0.5797
   79CHL1  H27A 8324   1.571   5.696   8.829  1.5217  1.4118 -1.0114
   79CHL1  H27B 8325   1.598   5.526   8.865  1.0237  0.3690  1.3883
   79CHL1  H27C 8326   1.734   5.623   8.782  0.4921 -0.3343  3.0388
   80CHL1    C3 8327   6.693   3.199   7.045  1.1027 -0.3119  0.3514
   80CHL1    H3 8328   6.642   3.112   7.092  0.0038 -0.1893 -0.5862
   80CHL1    O3 8329   6.677   3.174   6.908  0.2837  0.5800 -0.2782
   80CHL1   H3' 8330   6.722   3.250   6.871  1.6200  0.0291  0.1844
   80CHL1    C4 8331   6.629   3.330   7.092 -0.9729  0.4872  0.0367
   80CHL1   H4A 8332   6.682   3.417   7.047 -2.5728  0.3527 -2.1648
   80CHL1   H4B 8333   6.524   3.328   7.058 -1.8741  2.4316  2.5530
   80CHL1    C5 8334   6.652   3.361   7.239  0.5851 -0.8872 -0.2209
   80CHL1    C6 8335   6.550   3.393   7.319  0.0791  0.0432  0.1208
   80CHL1    H6 8336   6.448   3.404   7.281  0.1343 -0.1941 -0.1052
   80CHL1    C7 8337   6.561   3.420   7.465  0.2732  0.2356 -0.8506
   80CHL1   H7A 8338   6.522   3.522   7.490  2.1540  0.9980 -0.9557
   80CHL1   H7B 8339   6.509   3.342   7.525 -0.5276 -0.6499 -2.6435
   80CHL1    C8 8340   6.709   3.435   7.511 -0.2141 -0.0221  0.4479
   80CHL1    H8 8341   6.750   3.530   7.470 -1.8401 -0.2220 -1.7348
   80CHL1   C14 8342   6.723   3.434   7.662  0.4815  0.5863  0.3855
   80CHL1   H14 8343   6.693   3.334   7.698 -0.5205  0.5433 -0.5677
   80CHL1   C15 8344   6.642   3.540   7.739 -0.1539  0.2496  0.6869
   80CHL1  H15A 8345   6.645   3.639   7.690 -1.6104  0.1559  0.3687
   80CHL1  H15B 8346   6.537   3.506   7.753 -0.4190  0.1254 -1.4622
   80CHL1   C16 8347   6.719   3.550   7.877 -0.4437 -0.3204  0.1795
   80CHL1  H16A 8348   6.741   3.656   7.900 -0.6125 -0.4575  0.9839
   80CHL1  H16B 8349   6.648   3.518   7.956 -0.4739 -2.8436 -0.8192
   80CHL1   C17 8350   6.838   3.456   7.861  0.1660  0.2130 -0.8751
   80CHL1   H17 8351   6.799   3.358   7.896 -1.2675  2.0065  2.8852
   80CHL1   C13 8352   6.870   3.450   7.711  0.6195  0.0181 -0.3901
   80CHL1   C18 8353   6.930   3.586   7.672  0.6103 -0.0304 -0.1098
   80CHL1  H18A 8354   6.892   3.677   7.722 -0.2537 -0.7415  0.5467
   80CHL1  H18B 8355   7.036   3.584   7.704  0.6182  1.4512 -0.0337
   80CHL1  H18C 8356   6.930   3.592   7.561  2.0811  1.0911 -0.0636
   80CHL1   C12 8357   6.949   3.328   7.661 -0.0175 -0.5627 -0.3222
   80CHL1  H12A 8358   7.054   3.321   7.697 -0.0018  1.4205  0.0781
   80CHL1  H12B 8359   6.901   3.241   7.710  0.4523 -1.6177 -1.7217
   80CHL1   C11 8360   6.937   3.310   7.506  0.7097  0.7353 -0.2431
   80CHL1  H11A 8361   7.003   3.389   7.463 -0.7599  2.1841  0.0946
   80CHL1  H11B 8362   6.990   3.219   7.470  1.3364  1.1430 -0.3656
   80CHL1    C9 8363   6.792   3.323   7.449 -0.1834  0.0087  0.0665
   80CHL1    H9 8364   6.747   3.224   7.471 -0.5899  0.1924  0.0681
   80CHL1   C10 8365   6.790   3.334   7.291 -0.3178 -0.8138  0.2289
   80CHL1   C19 8366   6.878   3.456   7.248  0.3410 -0.5353 -0.0277
   80CHL1  H19A 8367   6.985   3.436   7.269  0.1774  0.0669  1.4365
   80CHL1  H19B 8368   6.876   3.474   7.138  2.3094 -0.1942 -0.0296
   80CHL1  H19C 8369   6.860   3.553   7.298  1.5997  0.4465 -1.4530
   80CHL1    C1 8370   6.848   3.199   7.231  0.0757 -0.5924 -0.0075
   80CHL1   H1A 8371   6.956   3.187   7.255  0.0894  0.9633  0.7900
   80CHL1   H1B 8372   6.803   3.107   7.273  0.9905  0.3597  3.1445
   80CHL1    C2 8373   6.844   3.194   7.078  0.0267 -0.4062 -0.0809
   80CHL1   H2A 8374   6.903   3.107   7.045 -0.6355 -1.4256  1.3398
   80CHL1   H2B 8375   6.902   3.274   7.028  1.4994 -2.9715 -2.5742
   80CHL1   C20 8376   6.956   3.494   7.964 -1.0308  0.2089 -0.4318
   80CHL1   H20 8377   7.007   3.590   7.940  0.4604 -0.0967  1.3650
   80CHL1   C21 8378   7.076   3.394   7.952 -0.0481  0.3906  0.0554
   80CHL1  H21A 8379   7.042   3.288   7.950 -0.9121  0.6761 -0.4966
   80CHL1  H21B 8380   7.159   3.411   8.024  1.9798  0.6261 -2.2868
   80CHL1  H21C 8381   7.126   3.409   7.854 -1.0366 -1.4255 -0.7483
   80CHL1   C22 8382   6.899   3.510   8.104  0.3693  1.0401  0.1464
   80CHL1  H22A 8383   6.826   3.594   8.113  0.1248  0.7656  0.7050
   80CHL1  H22B 8384   6.845   3.417   8.131  1.1921  0.8688  1.2203
   80CHL1   C23 8385   7.015   3.537   8.202 -0.0472  0.3891 -0.0449
   80CHL1  H23A 8386   7.081   3.448   8.217 -0.6009  0.4661  3.2793
   80CHL1  H23B 8387   7.077   3.622   8.168  0.4692  0.0258 -0.0252
   80CHL1   C24 8388   6.961   3.564   8.347  0.4304  0.6099  0.7742
   80CHL1  H24A 8389   6.937   3.672   8.333 -2.8825 -0.4729 -3.0370
   80CHL1  H24B 8390   6.867   3.506   8.359  0.4405  0.4696  0.1716
   80CHL1   C25 8391   7.062   3.544   8.461 -0.0661 -0.6291  0.2933
   80CHL1   H25 8392   7.160   3.589   8.435 -0.6847  0.3356 -0.4088
   80CHL1   C26 8393   7.002   3.620   8.581  0.4745 -0.3880  0.2409
   80CHL1  H26A 8394   7.073   3.619   8.667  0.4703 -1.2826  0.2427
   80CHL1  H26B 8395   6.980   3.726   8.558 -0.3840 -0.9710 -1.6970
   80CHL1  H26C 8396   6.910   3.575   8.624 -0.5521  1.7724  0.3722
   80CHL1   C27 8397   7.090   3.397   8.490  0.3736 -0.3127  0.0079
   80CHL1  H27A 8398   7.153   3.346   8.413  2.0918 -0.4356  1.4530
   80CHL1  H27B 8399   7.155   3.391   8.580 -0.6627 -0.1856  0.7729
   80CHL1  H27C 8400   7.000   3.333   8.488 -1.0976  1.6644  1.2646
   81CHL1    C3 8401   4.176   3.099   6.656  0.1475  0.2479 -0.4511
   81CHL1    H3 8402   4.080   3.044   6.673 -0.9613  2.3471  0.2048
   81CHL1    O3 8403   4.210   3.097   6.519  0.2293 -0.5276 -0.0272
   81CHL1   H3' 8404   4.289   3.151   6.521  0.7439 -1.3078  0.5440
   81CHL1    C4 8405   4.168   3.240   6.708 -0.1582  0.3111  0.5427
   81CHL1   H4A 8406   4.260   3.290   6.670 -1.1273  1.4592 -0.3052
   81CHL1   H4B 8407   4.082   3.296   6.666 -1.0414 -1.9580 -0.8275
   81CHL1    C5 8408   4.146   3.247   6.857 -0.0805  0.4807  0.0844
   81CHL1    C6 8409   4.046   3.309   6.928  0.4286 -0.7833  0.0704
   81CHL1    H6 8410   3.962   3.358   6.876 -0.0089  1.5569  2.8841
   81CHL1    C7 8411   4.044   3.313   7.076  0.5487 -0.2654  0.0517
   81CHL1   H7A 8412   4.025   3.416   7.113 -0.1869  0.7670 -3.0330
   81CHL1   H7B 8413   3.977   3.237   7.122  0.8896 -1.2954 -1.1043
   81CHL1    C8 8414   4.177   3.282   7.143  0.0012  0.1401  0.5442
   81CHL1    H8 8415   4.248   3.360   7.107 -0.4031  0.1571 -0.2253
   81CHL1   C14 8416   4.161   3.287   7.294  0.0749  0.2313  0.2770
   81CHL1   H14 8417   4.086   3.207   7.314 -1.7089  2.3466  2.3825
   81CHL1   C15 8418   4.100   3.411   7.357 -0.3246 -0.0224 -0.1235
   81CHL1  H15A 8419   4.159   3.496   7.318 -1.5539 -0.4456 -3.0388
   81CHL1  H15B 8420   3.992   3.423   7.331 -0.8442  0.8500  2.2451
   81CHL1   C16 8421   4.123   3.395   7.505 -0.0978 -0.2096 -0.3022
   81CHL1  H16A 8422   4.169   3.487   7.547  0.9502 -1.1193  0.5684
   81CHL1  H16B 8423   4.029   3.379   7.562  0.6853 -1.6433  0.6266
   81CHL1   C17 8424   4.229   3.290   7.513 -0.6337  0.1427 -0.0113
   81CHL1   H17 8425   4.174   3.197   7.537 -2.4869  1.0042 -0.8285
   81CHL1   C13 8426   4.283   3.258   7.371  0.4253  0.0735 -0.5592
   81CHL1   C18 8427   4.393   3.361   7.335  0.1223  0.2839 -0.0621
   81CHL1  H18A 8428   4.414   3.362   7.226 -0.7201  0.2923 -0.2242
   81CHL1  H18B 8429   4.354   3.463   7.353  0.8697  0.8087 -1.3420
   81CHL1  H18C 8430   4.487   3.347   7.393  0.4806 -0.9226 -0.9136
   81CHL1   C12 8431   4.334   3.117   7.330 -0.1996  0.7059 -0.4102
   81CHL1  H12A 8432   4.418   3.085   7.395 -1.2868 -2.6364 -0.5907
   81CHL1  H12B 8433   4.256   3.043   7.357 -1.1721  1.6974 -0.4611
   81CHL1   C11 8434   4.360   3.107   7.179  0.6229 -0.5927 -0.4428
   81CHL1  H11A 8435   4.457   3.159   7.161 -0.0303  0.0975 -1.9708
   81CHL1  H11B 8436   4.376   3.000   7.154  0.8887 -0.9268  1.0640
   81CHL1    C9 8437   4.236   3.153   7.087 -0.6635 -0.6058 -0.2044
   81CHL1    H9 8438   4.153   3.082   7.105 -0.2661 -0.7091  1.2489
   81CHL1   C10 8439   4.264   3.163   6.933 -0.8230  0.1395  0.5670
   81CHL1   C19 8440   4.397   3.224   6.910 -0.2392 -0.3646  0.3783
   81CHL1  H19A 8441   4.408   3.248   6.802 -1.6711  1.4451  0.6021
   81CHL1  H19B 8442   4.396   3.318   6.969  0.1100 -0.4120  0.4623
   81CHL1  H19C 8443   4.481   3.162   6.948 -1.6735 -2.9266 -0.4851
   81CHL1    C1 8444   4.258   3.022   6.878  0.0082 -0.9996  0.2073
   81CHL1   H1A 8445   4.336   2.962   6.930 -1.0215  0.0203  3.0035
   81CHL1   H1B 8446   4.168   2.965   6.911  1.1233 -3.7236 -1.2483
   81CHL1    C2 8447   4.281   3.010   6.727  0.1051 -0.7561  0.1899
   81CHL1   H2A 8448   4.264   2.904   6.699  1.4823 -1.3912  1.6935
   81CHL1   H2B 8449   4.382   3.042   6.692 -0.2885  0.9863  0.5827
   81CHL1   C20 8450   4.335   3.318   7.623 -0.5529 -0.0660 -1.0259
   81CHL1   H20 8451   4.395   3.406   7.590 -0.2983 -0.8309 -2.6529
   81CHL1   C21 8452   4.432   3.202   7.646 -0.1467  0.1560 -0.1113
   81CHL1  H21A 8453   4.489   3.184   7.552  1.1446  0.5544  0.5773
   81CHL1  H21B 8454   4.368   3.114   7.670  1.8123 -1.8081 -1.8031
   81CHL1  H21C 8455   4.504   3.214   7.730  0.5198 -0.5330 -0.5703
   81CHL1   C22 8456   4.281   3.365   7.767  0.1198  0.1665  0.4618
   81CHL1  H22A 8457   4.364   3.391   7.836  0.1117  0.2878  0.4257
   81CHL1  H22B 8458   4.221   3.458   7.752  1.2131  0.7109 -0.6656
   81CHL1   C23 8459   4.196   3.254   7.830  0.3940  0.0750 -0.2088
   81CHL1  H23A 8460   4.116   3.231   7.756  1.6972 -0.8513 -1.3510
   81CHL1  H23B 8461   4.256   3.161   7.844  5.0280  2.5472 -2.4099
   81CHL1   C24 8462   4.137   3.283   7.964 -0.5896  0.7182 -0.5139
   81CHL1  H24A 8463   4.223   3.330   8.016 -1.8947  1.2139  1.2450
   81CHL1  H24B 8464   4.049   3.352   7.966 -2.8209 -2.0444 -0.3886
   81CHL1   C25 8465   4.083   3.163   8.043  0.3577  0.1314  0.1228
   81CHL1   H25 8466   4.020   3.113   7.967 -1.3434  1.2369  0.7878
   81CHL1   C26 8467   4.192   3.068   8.096 -0.0647  0.7958  0.7833
   81CHL1  H26A 8468   4.157   2.964   8.114 -0.7687  1.2148  1.8414
   81CHL1  H26B 8469   4.279   3.045   8.030  0.6453  2.3453  1.1566
   81CHL1  H26C 8470   4.214   3.106   8.198 -0.6126 -0.5971  1.4273
   81CHL1   C27 8471   3.996   3.212   8.157 -0.4878  0.3755  0.5986
   81CHL1  H27A 8472   3.932   3.298   8.129 -0.8375 -0.5292 -1.5443
   81CHL1  H27B 8473   3.929   3.133   8.199 -0.4485 -1.9257 -3.3440
   81CHL1  H27C 8474   4.069   3.246   8.233  0.2715 -1.4679  0.7164
   82CHL1    C3 8475   5.451   3.896   7.117 -0.4061 -0.1167 -0.3483
   82CHL1    H3 8476   5.472   3.787   7.126  2.3437  0.5088  1.4090
   82CHL1    O3 8477   5.484   3.919   6.979  0.3281  0.0042 -0.2730
   82CHL1   H3' 8478   5.420   3.862   6.934 -0.5064  1.0338 -0.3967
   82CHL1    C4 8479   5.302   3.915   7.141 -0.1138 -0.4934 -0.4530
   82CHL1   H4A 8480   5.271   4.020   7.122 -2.0940 -0.3541  3.0314
   82CHL1   H4B 8481   5.241   3.841   7.087  0.1275  0.0635 -1.5002
   82CHL1    C5 8482   5.278   3.879   7.286  0.2936  0.5539  0.5522
   82CHL1    C6 8483   5.180   3.788   7.320 -0.1160  0.5892  0.4530
   82CHL1    H6 8484   5.122   3.739   7.240  0.3334 -0.7705  0.9499
   82CHL1    C7 8485   5.154   3.755   7.460  0.1409 -0.7244  0.7288
   82CHL1   H7A 8486   5.043   3.753   7.468  0.0663  0.0017 -0.0425
   82CHL1   H7B 8487   5.192   3.652   7.480  0.7465 -1.1553 -2.3997
   82CHL1    C8 8488   5.206   3.844   7.571 -0.4304 -0.2801  0.5803
   82CHL1    H8 8489   5.143   3.934   7.584  0.2770 -0.0827  2.7137
   82CHL1   C14 8490   5.208   3.777   7.704 -0.9107  0.0110  0.1036
   82CHL1   H14 8491   5.266   3.685   7.683 -0.9100  0.1468 -0.4911
   82CHL1   C15 8492   5.077   3.713   7.762  0.5434  0.1903  0.4155
   82CHL1  H15A 8493   4.996   3.788   7.776 -0.9399 -1.4115  0.5392
   82CHL1  H15B 8494   5.043   3.629   7.698 -0.7093  0.4872  0.6648
   82CHL1   C16 8495   5.113   3.670   7.902 -0.0803  0.5665 -0.5860
   82CHL1  H16A 8496   5.033   3.704   7.971  0.4125 -0.7208  0.6332
   82CHL1  H16B 8497   5.127   3.561   7.917 -1.3043  0.5383  0.4045
   82CHL1   C17 8498   5.254   3.745   7.925 -0.3913  0.5797 -0.1180
   82CHL1   H17 8499   5.326   3.667   7.891 -2.9023 -1.3921 -1.0801
   82CHL1   C13 8500   5.274   3.852   7.817 -0.0735  0.4179  0.2289
   82CHL1   C18 8501   5.198   3.976   7.866 -0.7343 -0.2200 -0.3792
   82CHL1  H18A 8502   5.248   4.011   7.959 -1.9105  3.1003 -0.9447
   82CHL1  H18B 8503   5.170   4.046   7.785  1.3691 -1.3829 -2.1549
   82CHL1  H18C 8504   5.095   3.947   7.896 -0.9140 -1.2466 -1.9512
   82CHL1   C12 8505   5.420   3.895   7.787 -0.1546  0.0190 -0.2800
   82CHL1  H12A 8506   5.448   3.968   7.865 -1.9375  2.9033 -2.2180
   82CHL1  H12B 8507   5.500   3.818   7.777  1.6049  1.7938 -0.1081
   82CHL1   C11 8508   5.418   3.972   7.653  1.1659  0.0929  0.8617
   82CHL1  H11A 8509   5.360   4.067   7.665  2.7191  1.3856 -1.4800
   82CHL1  H11B 8510   5.520   4.003   7.623  1.7286 -2.6649 -0.1939
   82CHL1    C9 8511   5.351   3.892   7.535 -0.1572  0.5345  0.2267
   82CHL1    H9 8512   5.399   3.792   7.539 -1.3519 -0.1017 -1.1900
   82CHL1   C10 8513   5.364   3.950   7.388 -0.3550 -0.8836 -0.9534
   82CHL1   C19 8514   5.325   4.104   7.402 -0.1982 -0.4665  0.2801
   82CHL1  H19A 8515   5.225   4.093   7.449 -2.9840 -0.4453 -5.1478
   82CHL1  H19B 8516   5.392   4.163   7.467  1.8936 -0.7902 -1.4958
   82CHL1  H19C 8517   5.314   4.159   7.306  2.2816  1.1341  0.8732
   82CHL1    C1 8518   5.509   3.938   7.349 -0.1264  0.5270  0.5287
   82CHL1   H1A 8519   5.583   3.992   7.412  1.0469 -0.9657  0.4692
   82CHL1   H1B 8520   5.531   3.829   7.359  0.9906  0.4554 -2.1894
   82CHL1    C2 8521   5.534   3.983   7.204 -0.0627  0.2205  0.0312
   82CHL1   H2A 8522   5.635   3.962   7.164  0.1943 -2.8629  2.1173
   82CHL1   H2B 8523   5.507   4.091   7.196  1.1338  0.7939  3.0928
   82CHL1   C20 8524   5.300   3.779   8.064 -0.1397 -0.4852  0.2701
   82CHL1   H20 8525   5.375   3.860   8.065 -1.2643  0.5779  2.7574
   82CHL1   C21 8526   5.370   3.660   8.129 -0.4022  0.4980 -0.5747
   82CHL1  H21A 8527   5.312   3.568   8.104  1.7671 -0.6555 -1.5333
   82CHL1  H21B 8528   5.402   3.665   8.235  0.3986 -2.1132 -0.6416
   82CHL1  H21C 8529   5.464   3.645   8.071  0.7400  2.3860  0.7318
   82CHL1   C22 8530   5.188   3.827   8.162  0.3497  0.2159  0.0720
   82CHL1  H22A 8531   5.123   3.894   8.102  3.1011  1.7026 -1.3807
   82CHL1  H22B 8532   5.123   3.746   8.201 -1.4604  1.0223 -1.2007
   82CHL1   C23 8533   5.236   3.911   8.282 -0.2341 -0.0537 -0.0536
   82CHL1  H23A 8534   5.250   3.840   8.367 -2.8528 -1.4916 -0.7500
   82CHL1  H23B 8535   5.335   3.958   8.268 -0.2248 -0.6599 -2.0939
   82CHL1   C24 8536   5.135   4.019   8.309  0.4962 -0.1076  0.5881
   82CHL1  H24A 8537   5.137   4.075   8.213 -0.5153  1.8729  1.6753
   82CHL1  H24B 8538   5.035   3.976   8.331  0.8742 -0.3441  1.8867
   82CHL1   C25 8539   5.185   4.110   8.425  0.2575 -0.9181 -0.2224
   82CHL1   H25 8540   5.275   4.155   8.378 -1.1986  2.9584  0.5180
   82CHL1   C26 8541   5.087   4.231   8.452 -0.6871  0.3630 -0.3815
   82CHL1  H26A 8542   5.065   4.278   8.353 -1.0412 -0.1464 -0.5499
   82CHL1  H26B 8543   4.994   4.199   8.503  0.9244 -2.7961  0.7145
   82CHL1  H26C 8544   5.133   4.300   8.525 -0.9384  0.2713 -0.1335
   82CHL1   C27 8545   5.228   4.027   8.553  1.0031  0.6540  0.6169
   82CHL1  H27A 8546   5.319   3.967   8.533  0.7103  0.8657 -1.4429
   82CHL1  H27B 8547   5.247   4.100   8.634  1.3866 -0.5659  1.6398
   82CHL1  H27C 8548   5.147   3.960   8.588  0.4006  0.3733 -1.2678
   83CHL1    C3 8549   1.259   5.378   7.027 -0.4502  0.3112  0.1673
   83CHL1    H3 8550   1.353   5.320   7.019 -0.1655  1.1337 -3.0461
   83CHL1    O3 8551   1.220   5.420   6.905  0.1725 -0.1098  0.4873
   83CHL1   H3' 8552   1.149   5.483   6.918 -0.4354 -1.0284  1.8300
   83CHL1    C4 8553   1.143   5.305   7.097 -0.6386 -0.6566 -0.9050
   83CHL1   H4A 8554   1.055   5.374   7.098 -0.1465  0.0661  3.5631
   83CHL1   H4B 8555   1.119   5.219   7.031  2.4422  0.1431 -3.1586
   83CHL1    C5 8556   1.158   5.262   7.241  0.1318 -0.1494 -1.1642
   83CHL1    C6 8557   1.119   5.136   7.279 -0.8421  0.4246  0.2304
   83CHL1    H6 8558   1.081   5.057   7.212 -0.0929 -1.3495  1.8308
   83CHL1    C7 8559   1.143   5.092   7.423 -0.0435  0.2277 -0.4600
   83CHL1   H7A 8560   1.055   5.032   7.456  2.6980 -2.0111  3.1442
   83CHL1   H7B 8561   1.236   5.032   7.427  1.3418  2.2769 -1.4705
   83CHL1    C8 8562   1.163   5.213   7.520  0.7071 -0.8807 -0.0260
   83CHL1    H8 8563   1.070   5.270   7.538  2.5189  1.5487  2.0859
   83CHL1   C14 8564   1.207   5.156   7.657 -0.0082 -0.0506  0.2416
   83CHL1   H14 8565   1.306   5.112   7.630 -0.0350 -1.7356  2.6993
   83CHL1   C15 8566   1.120   5.044   7.729 -0.8196 -0.8234 -0.0577
   83CHL1  H15A 8567   1.019   5.087   7.717  0.4257  1.5449 -2.7668
   83CHL1  H15B 8568   1.131   4.941   7.689 -1.8754 -0.6331 -0.8485
   83CHL1   C16 8569   1.171   5.050   7.875 -0.1675 -0.4788 -0.8897
   83CHL1  H16A 8570   1.089   5.064   7.949 -1.1082 -2.6803 -1.4534
   83CHL1  H16B 8571   1.215   4.955   7.914 -0.1486  0.2635  0.9501
   83CHL1   C17 8572   1.276   5.167   7.884 -0.0114  0.2278 -0.3588
   83CHL1   H17 8573   1.376   5.134   7.848  0.2440 -0.0984  0.6428
   83CHL1   C13 8574   1.233   5.261   7.765 -0.0803  0.2474 -0.0778
   83CHL1   C18 8575   1.106   5.338   7.808 -0.0412 -0.1745  1.4440
   83CHL1  H18A 8576   1.153   5.433   7.842  0.4133  0.4227 -0.7760
   83CHL1  H18B 8577   1.035   5.356   7.725  0.7344 -0.7853  0.6343
   83CHL1  H18C 8578   1.056   5.282   7.890  0.8514  0.3504  2.3714
   83CHL1   C12 8579   1.350   5.349   7.706  0.1797 -0.0548 -0.1738
   83CHL1  H12A 8580   1.385   5.434   7.769 -1.5773  1.8752 -1.7532
   83CHL1  H12B 8581   1.439   5.283   7.697 -0.3854 -0.9626  0.8104
   83CHL1   C11 8582   1.306   5.420   7.578  0.2848 -0.7274 -0.1812
   83CHL1  H11A 8583   1.211   5.473   7.601 -1.1172 -3.5950  0.8488
   83CHL1  H11B 8584   1.384   5.490   7.542  1.7239 -1.3156  1.7513
   83CHL1    C9 8585   1.271   5.318   7.460  0.3139  0.5759  0.6486
   83CHL1    H9 8586   1.364   5.262   7.439 -0.5812 -0.4167 -0.7235
   83CHL1   C10 8587   1.218   5.371   7.327 -0.2709 -0.2644  0.4570
   83CHL1   C19 8588   1.101   5.477   7.353  0.7103 -0.7820 -0.2982
   83CHL1  H19A 8589   1.139   5.560   7.418  1.2458  0.2094 -1.8497
   83CHL1  H19B 8590   1.052   5.522   7.264  1.3102  0.6690  0.0846
   83CHL1  H19C 8591   1.021   5.432   7.416 -1.5907  2.8977 -0.3902
   83CHL1    C1 8592   1.333   5.438   7.250  0.2134  0.0712 -0.1931
   83CHL1   H1A 8593   1.362   5.521   7.318 -0.3584  1.0783 -1.1452
   83CHL1   H1B 8594   1.419   5.367   7.244  0.5976  0.4032  1.2523
   83CHL1    C2 8595   1.298   5.502   7.119 -0.1966  0.0645  0.1906
   83CHL1   H2A 8596   1.391   5.537   7.069 -0.4454  0.6815  0.1534
   83CHL1   H2B 8597   1.221   5.582   7.124 -1.4024 -1.1115  0.6545
   83CHL1   C20 8598   1.294   5.218   8.032 -0.3014  0.1869  0.3298
   83CHL1   H20 8599   1.192   5.242   8.070 -1.0212 -1.5437 -0.4610
   83CHL1   C21 8600   1.388   5.341   8.041  0.3538 -0.4467  0.2047
   83CHL1  H21A 8601   1.391   5.383   8.145 -2.2903 -1.0589  0.5616
   83CHL1  H21B 8602   1.360   5.431   7.982 -1.3784 -0.0343  1.6004
   83CHL1  H21C 8603   1.493   5.323   8.009  0.4188 -0.6205  0.5043
   83CHL1   C22 8604   1.344   5.102   8.120 -0.0847  0.0498  0.2536
   83CHL1  H22A 8605   1.307   5.001   8.091 -1.0781  0.1388  1.1890
   83CHL1  H22B 8606   1.454   5.101   8.100  0.1116  2.2141  1.1848
   83CHL1   C23 8607   1.330   5.119   8.273  0.4155  0.1568 -0.4624
   83CHL1  H23A 8608   1.374   5.034   8.330 -0.7922  1.0823  1.8956
   83CHL1  H23B 8609   1.387   5.209   8.304  2.1858 -0.3583 -2.1186
   83CHL1   C24 8610   1.188   5.137   8.323  0.0746 -0.3388  1.2637
   83CHL1  H24A 8611   1.128   5.222   8.284 -1.0100 -1.5275  0.2960
   83CHL1  H24B 8612   1.145   5.043   8.281 -1.1199  1.4348 -1.5993
   83CHL1   C25 8613   1.186   5.134   8.481  0.6581  0.1260  0.4896
   83CHL1   H25 8614   1.266   5.068   8.520  0.1974  0.3355  1.8015
   83CHL1   C26 8615   1.226   5.273   8.534 -0.1428 -0.0551 -1.0869
   83CHL1  H26A 8616   1.170   5.361   8.495  2.8165  2.5336  0.2043
   83CHL1  H26B 8617   1.230   5.274   8.645  0.7481  2.1213 -1.1011
   83CHL1  H26C 8618   1.332   5.287   8.502  0.8928 -0.6738  1.8516
   83CHL1   C27 8619   1.045   5.101   8.533  0.0366  0.7932  0.5776
   83CHL1  H27A 8620   0.977   5.184   8.503 -1.0402 -0.3856 -0.3016
   83CHL1  H27B 8621   1.019   5.000   8.493  2.5209  0.7362 -0.9455
   83CHL1  H27C 8622   1.035   5.086   8.643  1.4264  2.7728  0.9784
   84CHL1    C3 8623   3.653   1.455   7.025  0.2652  0.0582 -0.0046
   84CHL1    H3 8624   3.551   1.425   6.991  0.4928 -0.4527 -0.2455
   84CHL1    O3 8625   3.707   1.506   6.913 -0.3229  0.3595 -0.0446
   84CHL1   H3' 8626   3.698   1.601   6.917 -1.9207  0.1453  2.1036
   84CHL1    C4 8627   3.656   1.573   7.122 -0.3548  0.0653 -0.3031
   84CHL1   H4A 8628   3.760   1.610   7.133 -0.7172  1.7431 -2.2715
   84CHL1   H4B 8629   3.612   1.669   7.090  1.0135  0.1023 -2.1779
   84CHL1    C5 8630   3.595   1.533   7.256  0.5695  0.1085  0.7690
   84CHL1    C6 8631   3.494   1.610   7.312 -0.3318  0.9101 -0.0692
   84CHL1    H6 8632   3.447   1.697   7.263  1.4896 -0.7749 -5.0630
   84CHL1    C7 8633   3.429   1.578   7.443  0.1250 -0.1797  0.1544
   84CHL1   H7A 8634   3.421   1.667   7.509  1.4274 -0.6930  1.0186
   84CHL1   H7B 8635   3.328   1.535   7.425  1.2117 -2.8397  0.1877
   84CHL1    C8 8636   3.505   1.469   7.520 -0.4346 -0.0375  0.4738
   84CHL1    H8 8637   3.596   1.508   7.570  1.2587 -3.4350  0.2191
   84CHL1   C14 8638   3.416   1.413   7.635 -0.2896  0.0086 -0.1477
   84CHL1   H14 8639   3.330   1.368   7.580 -0.7030  0.7144 -0.0915
   84CHL1   C15 8640   3.334   1.512   7.722  0.1834  0.7615 -0.3392
   84CHL1  H15A 8641   3.397   1.587   7.776  2.1184 -0.3958 -0.9239
   84CHL1  H15B 8642   3.260   1.562   7.656 -0.6922 -0.8515 -0.5859
   84CHL1   C16 8643   3.274   1.425   7.837  0.6443 -0.7443 -0.8215
   84CHL1  H16A 8644   3.290   1.485   7.929 -2.0364 -0.4198 -0.5330
   84CHL1  H16B 8645   3.169   1.393   7.816  0.3782 -2.7512  3.1040
   84CHL1   C17 8646   3.353   1.291   7.820  0.2760  0.1452 -0.2812
   84CHL1   H17 8647   3.282   1.225   7.766  0.3917 -0.9447  0.8817
   84CHL1   C13 8648   3.473   1.311   7.725 -0.1285  0.5453  0.1955
   84CHL1   C18 8649   3.583   1.385   7.803 -0.1587 -1.1550  0.5753
   84CHL1  H18A 8650   3.671   1.430   7.752 -3.1068  1.7296 -2.1855
   84CHL1  H18B 8651   3.535   1.465   7.862  0.0321 -0.6987  0.1144
   84CHL1  H18C 8652   3.632   1.314   7.873  1.2763  0.5089  1.3034
   84CHL1   C12 8653   3.525   1.189   7.635  0.0287 -0.4136 -0.0715
   84CHL1  H12A 8654   3.583   1.121   7.701  1.2568 -2.7998 -3.4622
   84CHL1  H12B 8655   3.442   1.149   7.572  0.7021 -1.4685 -0.3034
   84CHL1   C11 8656   3.621   1.237   7.519 -0.1120  0.2210 -0.2429
   84CHL1  H11A 8657   3.716   1.254   7.573  0.2211 -0.0422 -0.7464
   84CHL1  H11B 8658   3.650   1.148   7.459 -0.4737 -1.4709  1.9962
   84CHL1    C9 8659   3.557   1.352   7.433 -0.8719  0.5533 -0.5447
   84CHL1    H9 8660   3.468   1.308   7.384 -1.0168  1.1818 -0.8452
   84CHL1   C10 8661   3.651   1.403   7.320 -0.6721 -0.4037  0.5479
   84CHL1   C19 8662   3.794   1.422   7.372 -0.0689 -0.1910 -0.2513
   84CHL1  H19A 8663   3.866   1.458   7.295  2.5650 -4.1559  0.2284
   84CHL1  H19B 8664   3.804   1.492   7.458 -1.3437 -0.3138  0.0031
   84CHL1  H19C 8665   3.837   1.322   7.396  1.4297  0.3499 -0.6348
   84CHL1    C1 8666   3.657   1.292   7.209  0.5286 -0.2001 -0.2624
   84CHL1   H1A 8667   3.697   1.195   7.247 -2.0027 -1.4870 -0.8183
   84CHL1   H1B 8668   3.551   1.270   7.186 -0.6670  2.2347  2.5565
   84CHL1    C2 8669   3.724   1.333   7.077 -0.3010 -1.0942 -0.4441
   84CHL1   H2A 8670   3.711   1.257   6.997 -1.4705 -2.6528  1.1802
   84CHL1   H2B 8671   3.829   1.357   7.104 -1.6606  1.9396  2.6117
   84CHL1   C20 8672   3.382   1.224   7.954  0.7035  0.1212  0.8382
   84CHL1   H20 8673   3.460   1.276   8.013 -0.4576  0.4360  2.1144
   84CHL1   C21 8674   3.440   1.081   7.933 -0.2807  0.1064  1.0260
   84CHL1  H21A 8675   3.375   1.033   7.857  0.7515  0.6442 -0.2134
   84CHL1  H21B 8676   3.443   1.031   8.032 -0.4205  1.0367  1.5137
   84CHL1  H21C 8677   3.542   1.101   7.894 -1.3338  1.7518 -1.0322
   84CHL1   C22 8678   3.260   1.219   8.053 -1.1137 -0.2207  0.3751
   84CHL1  H22A 8679   3.229   1.323   8.079 -0.6492 -0.0715  0.3333
   84CHL1  H22B 8680   3.179   1.164   7.999  1.1494 -1.9839 -1.2933
   84CHL1   C23 8681   3.279   1.147   8.186  0.1371  0.0130 -0.1199
   84CHL1  H23A 8682   3.177   1.169   8.226  0.7309  1.7458  0.4731
   84CHL1  H23B 8683   3.290   1.037   8.178 -2.1348 -0.1541 -1.4279
   84CHL1   C24 8684   3.378   1.200   8.292  0.0996 -0.2759  0.9340
   84CHL1  H24A 8685   3.476   1.200   8.239 -0.1198  2.4823  0.4427
   84CHL1  H24B 8686   3.351   1.302   8.326 -1.1018  0.3289 -1.7295
   84CHL1   C25 8687   3.386   1.114   8.423  0.2826 -0.2305  0.0062
   84CHL1   H25 8688   3.278   1.098   8.443  0.7368 -0.8017  2.0704
   84CHL1   C26 8689   3.447   0.976   8.413 -0.3778  0.4906 -0.2608
   84CHL1  H26A 8690   3.405   0.913   8.332  0.5929 -1.1283  0.4668
   84CHL1  H26B 8691   3.558   0.985   8.405  0.0270 -3.2013  0.1744
   84CHL1  H26C 8692   3.427   0.909   8.499  1.1270 -0.3652 -0.5537
   84CHL1   C27 8693   3.440   1.199   8.535  0.2399 -0.2337  0.0137
   84CHL1  H27A 8694   3.550   1.210   8.519  0.3351 -2.1415 -0.7308
   84CHL1  H27B 8695   3.404   1.304   8.548  0.7782  0.0307 -0.6127
   84CHL1  H27C 8696   3.423   1.149   8.633 -0.5512  0.7616  0.3981
   85CHL1    C3 8697   3.293   5.698   6.796  0.0620 -0.5886  0.1244
   85CHL1    H3 8698   3.210   5.626   6.808 -1.4803  1.2216  0.6291
   85CHL1    O3 8699   3.285   5.755   6.672 -0.0831  0.7443  0.6133
   85CHL1   H3' 8700   3.370   5.800   6.671  0.2649  0.0849  0.4501
   85CHL1    C4 8701   3.275   5.801   6.911  0.3122 -0.3295  0.0478
   85CHL1   H4A 8702   3.329   5.892   6.877 -1.5970  0.7889 -0.0715
   85CHL1   H4B 8703   3.168   5.831   6.908  0.2150 -0.4888  1.5932
   85CHL1    C5 8704   3.306   5.763   7.054  0.0423  0.5495 -0.6446
   85CHL1    C6 8705   3.217   5.772   7.151 -0.6060 -0.3751  0.1505
   85CHL1    H6 8706   3.125   5.833   7.145 -1.1461 -1.1862  0.0388
   85CHL1    C7 8707   3.235   5.725   7.296 -0.0461 -0.3444 -0.6570
   85CHL1   H7A 8708   3.209   5.810   7.363  0.7736 -1.4389  1.0846
   85CHL1   H7B 8709   3.164   5.643   7.322 -2.3503  1.3514 -1.3966
   85CHL1    C8 8710   3.377   5.667   7.317 -0.2112  0.1456 -0.4591
   85CHL1    H8 8711   3.443   5.755   7.331  1.1264 -0.9262  0.0669
   85CHL1   C14 8712   3.384   5.585   7.443  0.0112 -0.5049 -0.5916
   85CHL1   H14 8713   3.317   5.497   7.440 -1.1135  0.2821  0.6184
   85CHL1   C15 8714   3.343   5.656   7.576  0.3184 -0.2727 -0.1415
   85CHL1  H15A 8715   3.381   5.759   7.565  1.8950 -0.7964  0.3646
   85CHL1  H15B 8716   3.232   5.654   7.584  0.4096  2.7354  2.7686
   85CHL1   C16 8717   3.423   5.580   7.681  0.4536  0.5602 -0.1567
   85CHL1  H16A 8718   3.485   5.661   7.724 -0.2654  1.3062 -0.5165
   85CHL1  H16B 8719   3.362   5.526   7.757 -0.1566  1.4061 -0.0417
   85CHL1   C17 8720   3.517   5.478   7.610  0.6034 -0.6807  0.3979
   85CHL1   H17 8721   3.462   5.382   7.596 -0.1070  0.2109 -3.6002
   85CHL1   C13 8722   3.527   5.536   7.471  0.3349 -0.0381  0.0265
   85CHL1   C18 8723   3.627   5.656   7.475 -0.4641 -0.0715  0.0935
   85CHL1  H18A 8724   3.641   5.718   7.384 -2.6167  0.9655  0.4262
   85CHL1  H18B 8725   3.620   5.729   7.559  0.0511 -1.0238  0.9855
   85CHL1  H18C 8726   3.725   5.609   7.498 -0.9033  0.3986  3.2710
   85CHL1   C12 8727   3.557   5.437   7.357  0.2231  0.1578  0.2216
   85CHL1  H12A 8728   3.664   5.405   7.357  0.2770  0.3352  0.2072
   85CHL1  H12B 8729   3.491   5.349   7.372  0.5469 -0.0704  0.3378
   85CHL1   C11 8730   3.549   5.497   7.221  0.3268  0.2561 -0.2948
   85CHL1  H11A 8731   3.641   5.559   7.215 -0.3270  1.2490 -0.0656
   85CHL1  H11B 8732   3.557   5.425   7.137  2.1665  0.9132 -0.7190
   85CHL1    C9 8733   3.423   5.588   7.196 -0.6510  0.4669  0.1987
   85CHL1    H9 8734   3.345   5.511   7.179 -0.6639  0.5685 -0.2085
   85CHL1   C10 8735   3.441   5.675   7.068  0.3358 -0.0442 -0.1555
   85CHL1   C19 8736   3.557   5.786   7.079 -0.2143 -0.5942 -0.2321
   85CHL1  H19A 8737   3.655   5.735   7.075 -0.6302 -1.2631 -2.5822
   85CHL1  H19B 8738   3.546   5.860   6.997 -3.1480 -0.2412  0.4000
   85CHL1  H19C 8739   3.552   5.843   7.174 -2.8936  1.4495 -1.5461
   85CHL1    C1 8740   3.462   5.584   6.944  0.0178 -0.8068 -0.1231
   85CHL1   H1A 8741   3.566   5.544   6.946  0.8268  1.2329 -0.0877
   85CHL1   H1B 8742   3.391   5.500   6.958 -0.8022 -0.3981 -1.7129
   85CHL1    C2 8743   3.437   5.647   6.811 -0.3882 -0.4979  0.1747
   85CHL1   H2A 8744   3.464   5.572   6.733  0.1279  0.6204 -0.7272
   85CHL1   H2B 8745   3.512   5.727   6.794  0.6349 -1.0603  1.9716
   85CHL1   C20 8746   3.643   5.444   7.691  0.1970  0.6212 -0.1846
   85CHL1   H20 8747   3.697   5.539   7.711  1.4223  0.4149 -2.3969
   85CHL1   C21 8748   3.741   5.346   7.618 -0.1039  0.2094 -0.2108
   85CHL1  H21A 8749   3.678   5.270   7.566 -0.3554  0.4965 -0.3341
   85CHL1  H21B 8750   3.808   5.304   7.696 -0.7188 -1.2702 -0.4573
   85CHL1  H21C 8751   3.802   5.399   7.542  1.4779 -1.6955 -0.3133
   85CHL1   C22 8752   3.599   5.375   7.823  0.1114 -0.1360 -0.1776
   85CHL1  H22A 8753   3.503   5.408   7.868 -0.6723 -1.1759 -1.0444
   85CHL1  H22B 8754   3.591   5.266   7.802 -1.1162 -0.0047 -0.4190
   85CHL1   C23 8755   3.710   5.404   7.926 -0.4727  0.1807 -0.0285
   85CHL1  H23A 8756   3.805   5.347   7.914 -1.1359 -1.5778  2.3673
   85CHL1  H23B 8757   3.731   5.512   7.933 -0.3132  0.0658  1.5277
   85CHL1   C24 8758   3.659   5.347   8.064  0.0825  0.5674  1.1159
   85CHL1  H24A 8759   3.558   5.387   8.085 -0.2483 -0.6441  1.8087
   85CHL1  H24B 8760   3.649   5.238   8.051  0.6623  0.6727 -0.3128
   85CHL1   C25 8761   3.750   5.370   8.181 -0.2414  0.1941 -0.2881
   85CHL1   H25 8762   3.779   5.478   8.179  0.7213  0.0149  2.3300
   85CHL1   C26 8763   3.677   5.354   8.316 -0.0166 -0.2873  0.1431
   85CHL1  H26A 8764   3.631   5.253   8.313 -0.0809 -0.2284 -1.4473
   85CHL1  H26B 8765   3.748   5.360   8.401 -0.5357  0.0998  0.5525
   85CHL1  H26C 8766   3.580   5.407   8.322 -1.9088 -3.6306  0.6930
   85CHL1   C27 8767   3.886   5.299   8.180 -0.6909 -0.1231  0.0007
   85CHL1  H27A 8768   3.959   5.319   8.098 -1.5525  0.6378 -0.5946
   85CHL1  H27B 8769   3.948   5.309   8.271  1.9455 -0.0574 -1.7599
   85CHL1  H27C 8770   3.862   5.191   8.175 -0.4352 -0.1474 -0.8231
   86CHL1    C3 8771   5.600   3.089   6.981 -0.2103  0.4187 -0.1761
   86CHL1    H3 8772   5.574   3.194   7.005  0.3023  0.6801 -0.7469
   86CHL1    O3 8773   5.599   3.084   6.845 -0.9776 -0.2017  0.6847
   86CHL1   H3' 8774   5.512   3.116   6.819 -0.6106 -1.3474 -2.2160
   86CHL1    C4 8775   5.737   3.046   7.035  0.5265 -0.1732  0.1295
   86CHL1   H4A 8776   5.752   2.947   6.988 -0.3577  0.2335 -1.0357
   86CHL1   H4B 8777   5.822   3.103   6.990 -1.1601  0.9301 -1.7294
   86CHL1    C5 8778   5.739   3.055   7.177  0.1862  0.0145 -1.1085
   86CHL1    C6 8779   5.825   3.135   7.238  0.5684  0.1313  0.5990
   86CHL1    H6 8780   5.893   3.192   7.173 -0.0427 -0.5751 -0.6857
   86CHL1    C7 8781   5.841   3.144   7.388  0.3353  0.4743 -0.1484
   86CHL1   H7A 8782   5.949   3.131   7.414  0.1717 -0.1307  0.2477
   86CHL1   H7B 8783   5.806   3.240   7.433 -0.7714 -0.1004  0.2235
   86CHL1    C8 8784   5.772   3.028   7.457 -0.7967  0.7771 -0.3483
   86CHL1    H8 8785   5.831   2.934   7.444  0.7178  1.6423  0.1459
   86CHL1   C14 8786   5.764   3.051   7.611  0.1438  0.3874 -0.3810
   86CHL1   H14 8787   5.700   3.141   7.617  1.1432  1.0621  0.3761
   86CHL1   C15 8788   5.894   3.072   7.687 -0.2162  0.3859  0.2011
   86CHL1  H15A 8789   5.960   2.983   7.676 -1.0850 -0.3505  0.9430
   86CHL1  H15B 8790   5.943   3.169   7.661 -2.4119  2.0170  1.9877
   86CHL1   C16 8791   5.848   3.068   7.833 -0.1833  0.2283  0.2396
   86CHL1  H16A 8792   5.934   3.011   7.874  0.5776  0.7950 -0.5462
   86CHL1  H16B 8793   5.826   3.158   7.894  0.0145  0.4556 -0.0220
   86CHL1   C17 8794   5.713   2.991   7.833  0.6010 -0.0793 -0.5653
   86CHL1   H17 8795   5.634   3.066   7.856 -1.3359 -1.5682 -2.2370
   86CHL1   C13 8796   5.694   2.942   7.687  1.3136 -0.4942 -0.3220
   86CHL1   C18 8797   5.759   2.805   7.672  0.1989  0.3597  0.8604
   86CHL1  H18A 8798   5.855   2.797   7.727  0.3646 -0.9052  0.4028
   86CHL1  H18B 8799   5.692   2.726   7.711 -1.0975  1.1881  0.3473
   86CHL1  H18C 8800   5.784   2.776   7.567 -0.0933  1.0905  0.5841
   86CHL1   C12 8801   5.548   2.943   7.632 -0.2752  0.0852 -0.3536
   86CHL1  H12A 8802   5.503   2.854   7.681  1.8215 -0.3247  0.8740
   86CHL1  H12B 8803   5.491   3.034   7.660 -2.3556 -0.5370 -2.3411
   86CHL1   C11 8804   5.537   2.913   7.482  0.4559 -0.7811 -0.8316
   86CHL1  H11A 8805   5.556   2.807   7.456  0.0780 -1.0977  0.1897
   86CHL1  H11B 8806   5.431   2.929   7.453  0.3873  2.1797  0.8184
   86CHL1    C9 8807   5.628   3.005   7.398 -0.0621 -0.7576 -0.5018
   86CHL1    H9 8808   5.576   3.103   7.399 -2.0820 -1.7870  1.9578
   86CHL1   C10 8809   5.639   2.966   7.249  0.1105 -0.1427  1.3588
   86CHL1   C19 8810   5.689   2.820   7.230 -0.0137  0.4601 -0.2211
   86CHL1  H19A 8811   5.709   2.795   7.124  2.0432 -0.8941  0.4513
   86CHL1  H19B 8812   5.779   2.790   7.288 -0.3287 -0.4347 -0.1932
   86CHL1  H19C 8813   5.607   2.751   7.258 -0.7014  1.7536  1.0344
   86CHL1    C1 8814   5.497   2.988   7.189  0.2289  0.1117 -0.2123
   86CHL1   H1A 8815   5.420   2.911   7.212 -0.1211  0.3274 -0.6696
   86CHL1   H1B 8816   5.460   3.088   7.221  0.6511 -0.3070  1.6337
   86CHL1    C2 8817   5.495   2.993   7.031 -0.7371 -0.1645  0.1031
   86CHL1   H2A 8818   5.394   3.020   6.992 -0.8320  3.2972  2.5114
   86CHL1   H2B 8819   5.523   2.893   6.991 -0.3591 -0.3273  0.7782
   86CHL1   C20 8820   5.694   2.888   7.946  0.5658  1.2601 -0.1885
   86CHL1   H20 8821   5.769   2.806   7.944 -1.1823 -0.4234  2.0191
   86CHL1   C21 8822   5.546   2.836   7.953  0.7534 -0.2323 -0.1189
   86CHL1  H21A 8823   5.524   2.758   7.876 -2.1306 -0.5231  0.9583
   86CHL1  H21B 8824   5.477   2.921   7.941 -1.3168 -1.8861 -0.1462
   86CHL1  H21C 8825   5.525   2.794   8.053 -1.0665 -0.9502 -0.7855
   86CHL1   C22 8826   5.731   2.949   8.083 -0.3297 -0.2562  0.4727
   86CHL1  H22A 8827   5.731   2.874   8.165 -0.5570 -0.8998 -0.1197
   86CHL1  H22B 8828   5.837   2.982   8.079 -0.3427  0.3211  3.5808
   86CHL1   C23 8829   5.635   3.058   8.133  0.1193 -0.7637  0.8420
   86CHL1  H23A 8830   5.653   3.133   8.054  1.2018 -1.3620  0.5087
   86CHL1  H23B 8831   5.527   3.031   8.138  0.0480 -0.3798  1.3635
   86CHL1   C24 8832   5.682   3.123   8.264  0.0030 -0.5841 -0.2942
   86CHL1  H24A 8833   5.681   3.045   8.343  0.0515 -0.4423 -0.1528
   86CHL1  H24B 8834   5.790   3.146   8.247  0.1880 -0.7986  0.5640
   86CHL1   C25 8835   5.598   3.237   8.314  0.2796 -0.7451 -0.0676
   86CHL1   H25 8836   5.613   3.319   8.241 -0.4526  1.2449  1.9885
   86CHL1   C26 8837   5.445   3.205   8.323 -0.2265 -0.2758 -0.1538
   86CHL1  H26A 8838   5.389   3.297   8.351 -0.0307  0.3501 -1.7645
   86CHL1  H26B 8839   5.399   3.167   8.229  1.4648  0.6871 -1.4121
   86CHL1  H26C 8840   5.431   3.124   8.398  0.9911 -0.1292  0.2465
   86CHL1   C27 8841   5.655   3.276   8.447  0.0272 -0.2646 -0.2984
   86CHL1  H27A 8842   5.647   3.193   8.521  2.0003  1.3418  1.7647
   86CHL1  H27B 8843   5.763   3.294   8.434 -0.2530 -0.3851 -3.2194
   86CHL1  H27C 8844   5.613   3.366   8.497  1.2929 -0.3325  0.9064
   87CHL1    C3 8845   6.203   1.544   6.914 -0.0299 -0.0540  1.1128
   87CHL1    H3 8846   6.119   1.489   6.961  0.2152 -2.4031 -1.1072
   87CHL1    O3 8847   6.161   1.571   6.777 -0.1636 -0.2742 -0.4428
   87CHL1   H3' 8848   6.234   1.593   6.719 -0.1623 -0.0110 -0.3467
   87CHL1    C4 8849   6.219   1.681   6.983 -0.3332  0.6861  0.0642
   87CHL1   H4A 8850   6.303   1.735   6.934  1.1247 -0.3545  1.3697
   87CHL1   H4B 8851   6.133   1.751   6.979 -1.5284 -0.8336 -1.5081
   87CHL1    C5 8852   6.263   1.662   7.128 -0.0782 -0.0488 -0.8928
   87CHL1    C6 8853   6.200   1.723   7.236 -0.5347  0.6972  0.5683
   87CHL1    H6 8854   6.112   1.787   7.225 -0.4977  0.9946  1.9293
   87CHL1    C7 8855   6.236   1.694   7.378 -0.0038 -0.1377 -0.6712
   87CHL1   H7A 8856   6.225   1.784   7.442 -1.7814  0.0367 -1.1853
   87CHL1   H7B 8857   6.157   1.626   7.418  1.1046 -1.2240 -0.2944
   87CHL1    C8 8858   6.375   1.633   7.402  0.1341 -0.4034  0.4149
   87CHL1    H8 8859   6.453   1.711   7.392 -0.7750  0.3115 -1.2517
   87CHL1   C14 8860   6.376   1.577   7.544 -0.2886  0.0811 -0.0624
   87CHL1   H14 8861   6.300   1.495   7.544  0.9283 -1.0688 -0.2902
   87CHL1   C15 8862   6.338   1.666   7.665 -0.4699 -0.1157 -0.0697
   87CHL1  H15A 8863   6.390   1.764   7.651  0.8311 -0.9086 -0.9526
   87CHL1  H15B 8864   6.232   1.691   7.686  0.3176  4.0844 -0.7155
   87CHL1   C16 8865   6.397   1.592   7.787 -0.2985  0.0295 -0.3799
   87CHL1  H16A 8866   6.472   1.650   7.844 -0.5662 -0.3532  0.3610
   87CHL1  H16B 8867   6.320   1.550   7.855  1.1968  0.8256  1.8257
   87CHL1   C17 8868   6.468   1.467   7.729 -0.4540 -0.0367 -0.5260
   87CHL1   H17 8869   6.397   1.383   7.716 -0.8182  0.0965  0.5353
   87CHL1   C13 8870   6.505   1.504   7.579  0.0207  0.2079  0.7702
   87CHL1   C18 8871   6.624   1.586   7.583  0.5883 -0.2166  0.7382
   87CHL1  H18A 8872   6.708   1.535   7.635  2.0465  1.8194  0.4577
   87CHL1  H18B 8873   6.656   1.605   7.478 -2.1173  0.3092 -0.0242
   87CHL1  H18C 8874   6.608   1.683   7.635  2.6501  0.7614 -0.3789
   87CHL1   C12 8875   6.527   1.385   7.478 -0.4778 -0.2359 -0.7051
   87CHL1  H12A 8876   6.625   1.340   7.503 -0.5407 -0.4571 -0.8540
   87CHL1  H12B 8877   6.442   1.314   7.488 -0.5826 -0.0640 -0.3704
   87CHL1   C11 8878   6.533   1.431   7.335 -0.0694  0.0246  0.0047
   87CHL1  H11A 8879   6.615   1.502   7.308  0.8862 -1.4043 -0.8812
   87CHL1  H11B 8880   6.547   1.350   7.261  0.1575 -2.1134  2.3269
   87CHL1    C9 8881   6.403   1.522   7.302 -0.8375  0.6770  0.3883
   87CHL1    H9 8882   6.314   1.457   7.314  0.1517 -0.6741  0.5894
   87CHL1   C10 8883   6.387   1.569   7.151  0.2137  0.0981  0.3423
   87CHL1   C19 8884   6.513   1.632   7.096  0.5328 -0.2691  0.2197
   87CHL1  H19A 8885   6.506   1.670   6.992 -1.9022 -3.0365 -0.7382
   87CHL1  H19B 8886   6.547   1.715   7.161  0.6744 -1.2960  1.4747
   87CHL1  H19C 8887   6.588   1.551   7.092  0.8271  0.0163  0.0011
   87CHL1    C1 8888   6.371   1.438   7.069 -0.0213 -0.0824  0.0080
   87CHL1   H1A 8889   6.465   1.379   7.067 -0.5745 -1.0086  0.8311
   87CHL1   H1B 8890   6.295   1.383   7.127 -0.0435  1.8607  1.8822
   87CHL1    C2 8891   6.329   1.457   6.924 -0.2420  0.0895 -0.1395
   87CHL1   H2A 8892   6.306   1.360   6.874  3.2219 -1.3582  0.9105
   87CHL1   H2B 8893   6.418   1.504   6.876 -0.1866 -0.3037 -0.4250
   87CHL1   C20 8894   6.567   1.415   7.836 -0.1152 -0.7853 -0.6190
   87CHL1   H20 8895   6.650   1.489   7.840 -0.1494 -0.7122 -1.2141
   87CHL1   C21 8896   6.629   1.288   7.784  0.2333  1.0397  0.7248
   87CHL1  H21A 8897   6.724   1.271   7.839  0.0893  0.3135  0.7628
   87CHL1  H21B 8898   6.668   1.290   7.681  1.2863  1.0897  1.1216
   87CHL1  H21C 8899   6.561   1.204   7.813  1.6985 -0.0453  1.0874
   87CHL1   C22 8900   6.502   1.393   7.972  1.0696  0.3559  0.2078
   87CHL1  H22A 8901   6.491   1.488   8.028  2.2535 -0.0534  1.1387
   87CHL1  H22B 8902   6.403   1.345   7.956  1.3064 -1.2281  3.1537
   87CHL1   C23 8903   6.580   1.301   8.063 -0.0487  0.5861 -1.0140
   87CHL1  H23A 8904   6.612   1.200   8.030 -1.9534 -0.1724 -0.5798
   87CHL1  H23B 8905   6.675   1.357   8.076  0.7432 -0.8193 -0.5887
   87CHL1   C24 8906   6.509   1.285   8.199 -0.1751 -0.2878  0.2035
   87CHL1  H24A 8907   6.492   1.376   8.260  3.0785  0.7430 -0.3522
   87CHL1  H24B 8908   6.408   1.243   8.177 -0.4325 -0.1418  1.0842
   87CHL1   C25 8909   6.577   1.176   8.276 -0.5569  0.1448 -0.5695
   87CHL1   H25 8910   6.583   1.102   8.194  0.7895  0.2036 -0.5446
   87CHL1   C26 8911   6.719   1.221   8.312 -0.2180  0.2876  0.4671
   87CHL1  H26A 8912   6.785   1.214   8.224 -0.4146  0.3304  0.3157
   87CHL1  H26B 8913   6.708   1.328   8.339 -2.4381  1.0455 -3.0225
   87CHL1  H26C 8914   6.749   1.167   8.404  1.6225  0.8082  0.1907
   87CHL1   C27 8915   6.508   1.125   8.404 -0.6294 -0.2448 -0.0080
   87CHL1  H27A 8916   6.510   1.219   8.463 -0.4802 -0.1648 -0.1414
   87CHL1  H27B 8917   6.409   1.075   8.393 -0.5999 -0.7406  1.8281
   87CHL1  H27C 8918   6.578   1.051   8.449 -0.8519 -1.0243 -0.9198
   88CHL1    C3 8919   3.666   6.657   6.940 -0.5938  0.4279 -0.5946
   88CHL1    H3 8920   3.772   6.690   6.938  0.0528 -1.4541  1.4946
   88CHL1    O3 8921   3.620   6.635   6.806 -0.5364 -0.0983  0.3488
   88CHL1   H3' 8922   3.525   6.643   6.810 -0.5107  0.1636  0.4257
   88CHL1    C4 8923   3.656   6.530   7.021 -0.3101  0.6125 -0.2372
   88CHL1   H4A 8924   3.549   6.503   7.010 -0.1634 -0.6371  1.1870
   88CHL1   H4B 8925   3.714   6.444   6.982 -0.2186  1.3450 -1.7529
   88CHL1    C5 8926   3.688   6.545   7.174 -0.0541  0.1288  0.2331
   88CHL1    C6 8927   3.779   6.470   7.237 -0.2781  0.6962  0.0266
   88CHL1    H6 8928   3.840   6.395   7.185 -0.4195  1.2994 -1.0057
   88CHL1    C7 8929   3.818   6.480   7.385  0.5519 -0.6608 -0.3353
   88CHL1   H7A 8930   3.831   6.381   7.433  0.7623 -0.9283 -0.9502
   88CHL1   H7B 8931   3.918   6.528   7.379  0.0992  0.1908 -1.1467
   88CHL1    C8 8932   3.714   6.568   7.463 -0.3104  0.8102  0.2154
   88CHL1    H8 8933   3.625   6.505   7.485  0.5651 -0.3275  0.5226
   88CHL1   C14 8934   3.779   6.613   7.590  0.6102  0.2608 -0.4224
   88CHL1   H14 8935   3.866   6.677   7.562 -0.3400  1.7928  0.0428
   88CHL1   C15 8936   3.831   6.506   7.686  0.5130  0.8102 -0.0098
   88CHL1  H15A 8937   3.764   6.417   7.686  2.8464 -0.9990 -0.1785
   88CHL1  H15B 8938   3.931   6.474   7.650  0.1224  0.4110 -0.7809
   88CHL1   C16 8939   3.835   6.577   7.818 -0.1140  0.6446  0.0707
   88CHL1  H16A 8940   3.777   6.510   7.885  1.4056  0.9104  1.6818
   88CHL1  H16B 8941   3.939   6.579   7.857 -0.8364 -0.8691  2.2269
   88CHL1   C17 8942   3.777   6.717   7.799  0.1239 -0.0440 -0.2270
   88CHL1   H17 8943   3.865   6.780   7.777  1.7516 -1.5319  1.8341
   88CHL1   C13 8944   3.690   6.709   7.667 -0.0722  0.3821 -0.7943
   88CHL1   C18 8945   3.559   6.645   7.713  0.5686  0.3197  0.5730
   88CHL1  H18A 8946   3.498   6.720   7.768  1.2904 -1.5203  4.0254
   88CHL1  H18B 8947   3.513   6.603   7.621  0.5535 -1.4411  1.3568
   88CHL1  H18C 8948   3.577   6.558   7.780 -0.4746  0.6711  1.3085
   88CHL1   C12 8949   3.658   6.838   7.590  0.3707 -0.2184  0.1842
   88CHL1  H12A 8950   3.600   6.913   7.646 -0.0893 -1.1330  0.9329
   88CHL1  H12B 8951   3.757   6.882   7.562 -0.5900  1.7159 -0.2286
   88CHL1   C11 8952   3.591   6.806   7.458 -1.3158 -0.1943  1.3106
   88CHL1  H11A 8953   3.486   6.772   7.472 -1.6846 -1.0948 -3.0922
   88CHL1  H11B 8954   3.578   6.900   7.400  0.9034 -0.6084  0.0819
   88CHL1    C9 8955   3.673   6.695   7.376  0.6534  0.6860 -0.5747
   88CHL1    H9 8956   3.764   6.749   7.343  0.4635 -0.7370 -3.5809
   88CHL1   C10 8957   3.611   6.668   7.244 -0.5752  0.4348 -0.1510
   88CHL1   C19 8958   3.467   6.621   7.268  0.1074 -0.3244  0.3730
   88CHL1  H19A 8959   3.410   6.592   7.177  0.1479 -1.5417  0.7360
   88CHL1  H19B 8960   3.469   6.535   7.337  0.8651  0.2226  1.0368
   88CHL1  H19C 8961   3.400   6.700   7.308 -0.5466 -0.9814  0.5996
   88CHL1    C1 8962   3.612   6.789   7.151  0.2274 -0.2491 -0.3221
   88CHL1   H1A 8963   3.546   6.869   7.191  1.7319  0.5668  0.6117
   88CHL1   H1B 8964   3.706   6.849   7.147  0.4261 -0.4077  1.3685
   88CHL1    C2 8965   3.575   6.759   7.006 -0.1045  0.1146 -0.5095
   88CHL1   H2A 8966   3.568   6.855   6.951  1.4203 -0.2338 -1.3312
   88CHL1   H2B 8967   3.475   6.711   6.998  0.8280 -1.5016 -3.0227
   88CHL1   C20 8968   3.700   6.762   7.935 -0.1458  0.6276 -0.2170
   88CHL1   H20 8969   3.628   6.683   7.964  0.8394  0.0417  0.6911
   88CHL1   C21 8970   3.638   6.902   7.920 -0.8973  0.4121  0.2856
   88CHL1  H21A 8971   3.709   6.971   7.870 -0.3955 -0.9292 -0.9051
   88CHL1  H21B 8972   3.601   6.948   8.014  0.5835 -0.9806  1.5801
   88CHL1  H21C 8973   3.549   6.899   7.853 -0.6249 -2.9115  0.0080
   88CHL1   C22 8974   3.794   6.762   8.058 -0.0894 -0.7720  0.2381
   88CHL1  H22A 8975   3.718   6.779   8.137 -1.8953 -0.8025 -1.4465
   88CHL1  H22B 8976   3.823   6.656   8.074  0.4164 -1.0461 -2.2695
   88CHL1   C23 8977   3.909   6.849   8.043 -0.9694  0.1010 -0.0231
   88CHL1  H23A 8978   3.974   6.814   7.960 -0.5632 -1.5547  0.9649
   88CHL1  H23B 8979   3.873   6.951   8.018 -0.8104  0.2414  0.3075
   88CHL1   C24 8980   3.996   6.847   8.173  0.0588  0.1241  0.1313
   88CHL1  H24A 8981   3.989   6.751   8.229 -2.8716 -0.4422 -1.0966
   88CHL1  H24B 8982   4.102   6.836   8.142  0.1272  0.3406  0.2912
   88CHL1   C25 8983   3.971   6.963   8.262 -0.3551 -0.6625  0.3853
   88CHL1   H25 8984   3.864   6.992   8.253 -0.5898 -0.7467  2.5715
   88CHL1   C26 8985   4.000   6.924   8.407  0.5686  0.7150  0.1254
   88CHL1  H26A 8986   4.001   7.006   8.482 -0.6999 -0.6540  1.6703
   88CHL1  H26B 8987   3.932   6.841   8.437 -0.1814  2.0058  2.0479
   88CHL1  H26C 8988   4.101   6.877   8.413 -0.5275 -1.8797 -1.0714
   88CHL1   C27 8989   4.058   7.084   8.221 -0.1281  0.5553 -0.2780
   88CHL1  H27A 8990   4.166   7.067   8.239  0.4029  1.9895 -1.9953
   88CHL1  H27B 8991   4.050   7.098   8.111 -0.4497 -0.7129 -0.4201
   88CHL1  H27C 8992   4.021   7.175   8.274  1.4684  0.4862  0.9780
   89CHL1    C3 8993   6.169   2.812   7.035 -0.9551 -0.0912  0.1360
   89CHL1    H3 8994   6.201   2.708   7.056  2.3845  0.9838  0.6978
   89CHL1    O3 8995   6.102   2.814   6.915 -0.0795  0.2785 -0.5347
   89CHL1   H3' 8996   6.051   2.895   6.911 -0.1960  0.3857  2.1381
   89CHL1    C4 8997   6.074   2.869   7.152  0.2086  0.5094  0.5898
   89CHL1   H4A 8998   6.024   2.964   7.123 -0.7810 -0.1132  0.2175
   89CHL1   H4B 8999   5.982   2.807   7.146 -1.7743  3.2306  1.8499
   89CHL1    C5 9000   6.138   2.874   7.283  0.4255  0.2811 -0.2110
   89CHL1    C6 9001   6.081   2.813   7.393  0.3108  1.1857  0.2628
   89CHL1    H6 9002   5.985   2.760   7.386  1.5922 -1.1014 -0.2042
   89CHL1    C7 9003   6.144   2.815   7.527 -0.3089  0.3208 -0.0111
   89CHL1   H7A 9004   6.065   2.808   7.605 -1.0752  0.6042 -0.7499
   89CHL1   H7B 9005   6.204   2.724   7.548 -0.4584  0.5101  1.3034
   89CHL1    C8 9006   6.239   2.941   7.553 -0.1022 -0.4984 -0.1105
   89CHL1    H8 9007   6.175   3.031   7.565  1.6307  0.4888  1.8823
   89CHL1   C14 9008   6.323   2.916   7.678  0.2242  0.2772  0.1003
   89CHL1   H14 9009   6.388   2.828   7.662  1.1510  0.7635  1.1372
   89CHL1   C15 9010   6.254   2.885   7.810 -0.2776 -0.0064 -0.0705
   89CHL1  H15A 9011   6.161   2.941   7.836 -1.0752 -0.1627 -2.4179
   89CHL1  H15B 9012   6.218   2.779   7.812  0.9270 -0.4171 -0.0144
   89CHL1   C16 9013   6.352   2.909   7.924 -0.6687  0.0873 -0.0981
   89CHL1  H16A 9014   6.313   2.986   7.994  0.7052  1.4722 -0.8199
   89CHL1  H16B 9015   6.394   2.827   7.987 -0.1193  0.7260  0.3694
   89CHL1   C17 9016   6.476   2.966   7.852 -0.2798  0.1689  0.6263
   89CHL1   H17 9017   6.532   2.874   7.822 -0.3131  1.5634 -4.0638
   89CHL1   C13 9018   6.420   3.027   7.717  0.5098 -0.5605 -0.5385
   89CHL1   C18 9019   6.359   3.164   7.735 -0.1387 -0.2360 -0.7930
   89CHL1  H18A 9020   6.427   3.246   7.765  1.2083 -1.5298 -0.2508
   89CHL1  H18B 9021   6.310   3.203   7.643  0.1998  1.3574 -0.3066
   89CHL1  H18C 9022   6.276   3.161   7.809  2.1112 -1.2751  1.7441
   89CHL1   C12 9023   6.519   3.030   7.602  0.3105 -0.6331 -0.3788
   89CHL1  H12A 9024   6.589   3.115   7.619  0.2181 -0.7595  0.6819
   89CHL1  H12B 9025   6.573   2.935   7.584 -1.5335 -1.8566  0.4742
   89CHL1   C11 9026   6.444   3.059   7.468  0.2467 -0.2053  1.0544
   89CHL1  H11A 9027   6.400   3.160   7.457  3.8073  1.7137  3.5973
   89CHL1  H11B 9028   6.527   3.055   7.394  0.5052  1.2561  1.2463
   89CHL1    C9 9029   6.333   2.958   7.430 -0.0013  0.1004 -0.0646
   89CHL1    H9 9030   6.380   2.858   7.427 -0.3540 -0.0539 -0.3042
   89CHL1   C10 9031   6.264   2.966   7.294 -0.0640  0.1939  0.3734
   89CHL1   C19 9032   6.229   3.114   7.257 -0.3326 -0.1809  0.4767
   89CHL1  H19A 9033   6.171   3.154   7.343  0.3173 -0.2908  0.9687
   89CHL1  H19B 9034   6.324   3.169   7.244 -0.0215 -0.8541 -0.0784
   89CHL1  H19C 9035   6.163   3.113   7.167 -1.6246 -2.0975  1.3958
   89CHL1    C1 9036   6.361   2.920   7.185 -0.4411 -0.5819 -0.0173
   89CHL1   H1A 9037   6.442   2.990   7.154  1.8596 -3.1855 -0.0610
   89CHL1   H1B 9038   6.413   2.828   7.218  0.7325  0.0764  0.0134
   89CHL1    C2 9039   6.297   2.902   7.041  0.3925  0.2736 -0.2698
   89CHL1   H2A 9040   6.371   2.853   6.974 -0.0087  1.4824 -1.6265
   89CHL1   H2B 9041   6.278   3.000   6.992  1.7754  0.6928  0.0381
   89CHL1   C20 9042   6.570   3.053   7.934 -0.0645  0.6863 -0.4130
   89CHL1   H20 9043   6.536   3.156   7.913  0.7556  1.0766  0.1498
   89CHL1   C21 9044   6.718   3.047   7.890 -0.2181  0.4443  0.1372
   89CHL1  H21A 9045   6.753   2.944   7.910  1.4925  0.4352 -2.7185
   89CHL1  H21B 9046   6.783   3.116   7.947 -1.8750  0.0632  2.5896
   89CHL1  H21C 9047   6.739   3.085   7.788 -0.4270  1.8537  0.6013
   89CHL1   C22 9048   6.565   3.031   8.089  0.3350 -0.1812 -0.0151
   89CHL1  H22A 9049   6.639   3.102   8.132  0.9660 -1.6915  1.4430
   89CHL1  H22B 9050   6.464   3.054   8.131 -0.6889 -1.2566 -1.8455
   89CHL1   C23 9051   6.613   2.894   8.130 -0.4804  0.3585  0.1887
   89CHL1  H23A 9052   6.556   2.810   8.084  3.0821 -0.8680 -2.2566
   89CHL1  H23B 9053   6.716   2.893   8.088 -0.6828 -2.9888 -0.4033
   89CHL1   C24 9054   6.618   2.881   8.286  0.7008  0.5344 -0.0814
   89CHL1  H24A 9055   6.719   2.922   8.310  0.9695  1.0985 -2.0596
   89CHL1  H24B 9056   6.535   2.940   8.330 -0.2864 -0.3298 -0.7703
   89CHL1   C25 9057   6.603   2.737   8.331 -0.7227 -0.6280 -0.5643
   89CHL1   H25 9058   6.532   2.693   8.258 -1.4582  0.0290 -0.2394
   89CHL1   C26 9059   6.734   2.656   8.328  0.0087  0.1091 -0.0053
   89CHL1  H26A 9060   6.718   2.555   8.372  0.1021  0.0368 -0.1373
   89CHL1  H26B 9061   6.753   2.642   8.220 -0.5069 -0.1021 -0.0728
   89CHL1  H26C 9062   6.813   2.698   8.394 -0.8214 -0.0390  1.1025
   89CHL1   C27 9063   6.549   2.732   8.479 -0.0634  0.9980 -0.2694
   89CHL1  H27A 9064   6.447   2.775   8.487 -1.0839 -1.7849  2.7249
   89CHL1  H27B 9065   6.554   2.626   8.513 -0.3004  1.9169  2.7038
   89CHL1  H27C 9066   6.632   2.780   8.534 -0.4452  4.0853 -2.2897
   90CHL1    C3 9067   6.458   4.862   6.975 -0.2618 -0.4594 -0.0375
   90CHL1    H3 9068   6.349   4.841   6.969 -0.4392  1.0097 -3.0353
   90CHL1    O3 9069   6.495   4.868   6.842 -0.0276 -0.2568  0.0717
   90CHL1   H3' 9070   6.495   4.963   6.825 -2.7739  0.0946  1.7773
   90CHL1    C4 9071   6.485   4.990   7.050  0.4582 -0.1720 -0.4082
   90CHL1   H4A 9072   6.593   5.014   7.045  0.3614  0.2468 -0.5319
   90CHL1   H4B 9073   6.421   5.066   6.999  0.7202  0.2993 -0.0422
   90CHL1    C5 9074   6.433   4.987   7.194  0.3595  0.0053 -0.3882
   90CHL1    C6 9075   6.338   5.067   7.240  0.0857  0.2342 -0.1102
   90CHL1    H6 9076   6.276   5.134   7.179 -1.2680 -0.0724  0.9054
   90CHL1    C7 9077   6.301   5.077   7.389  0.8245  0.2371  0.0194
   90CHL1   H7A 9078   6.295   5.183   7.419  0.7087  0.8785 -2.1525
   90CHL1   H7B 9079   6.210   5.015   7.402 -1.5235  3.5794  0.1681
   90CHL1    C8 9080   6.405   5.008   7.475  0.1736 -0.3514 -0.2384
   90CHL1    H8 9081   6.493   5.075   7.485 -0.8093  0.9241  0.1462
   90CHL1   C14 9082   6.350   4.988   7.616  0.0292  1.1157  0.1590
   90CHL1   H14 9083   6.265   4.916   7.613  1.4756 -0.8540  3.3071
   90CHL1   C15 9084   6.294   5.114   7.696 -0.4763  0.5298  0.4228
   90CHL1  H15A 9085   6.366   5.197   7.678 -0.1942 -0.2051 -2.0477
   90CHL1  H15B 9086   6.194   5.142   7.656 -0.1775 -0.0176 -0.7338
   90CHL1   C16 9087   6.306   5.069   7.847 -0.0677  0.1814  0.1124
   90CHL1  H16A 9088   6.372   5.139   7.903  1.9297 -0.6339 -1.1601
   90CHL1  H16B 9089   6.208   5.078   7.899  0.1618 -1.2798  0.8127
   90CHL1   C17 9090   6.358   4.921   7.845 -0.9109  0.5488 -0.0195
   90CHL1   H17 9091   6.275   4.851   7.819  1.0990 -1.4777 -1.1346
   90CHL1   C13 9092   6.442   4.909   7.714  0.2466 -0.4557  0.4070
   90CHL1   C18 9093   6.575   4.989   7.729  0.0144  0.5456  0.3127
   90CHL1  H18A 9094   6.634   5.006   7.636 -1.6864  1.9882 -0.5256
   90CHL1  H18B 9095   6.558   5.095   7.755  0.0183  0.0681  2.2893
   90CHL1  H18C 9096   6.649   4.946   7.800 -0.0772  0.1829  0.1915
   90CHL1   C12 9097   6.457   4.761   7.665  0.6362  0.1082  1.0232
   90CHL1  H12A 9098   6.519   4.703   7.736 -0.3898 -1.6525  0.5104
   90CHL1  H12B 9099   6.361   4.706   7.653  0.6378  0.6509 -1.9954
   90CHL1   C11 9100   6.527   4.777   7.527 -0.0072 -0.0623  0.8937
   90CHL1  H11A 9101   6.631   4.814   7.530 -0.2289  0.7767 -0.8217
   90CHL1  H11B 9102   6.534   4.673   7.489  0.9919 -0.7962  3.0401
   90CHL1    C9 9103   6.441   4.871   7.420 -0.2424  0.3487  1.0246
   90CHL1    H9 9104   6.348   4.812   7.410 -0.1478  0.4061 -0.3704
   90CHL1   C10 9105   6.509   4.881   7.282  0.0316 -0.1848  0.6542
   90CHL1   C19 9106   6.661   4.912   7.300  0.0278  0.0801 -0.2108
   90CHL1  H19A 9107   6.686   5.002   7.362  0.6959  0.8103 -1.5237
   90CHL1  H19B 9108   6.710   4.823   7.344 -1.1640 -1.8353 -2.6352
   90CHL1  H19C 9109   6.710   4.924   7.201 -0.5985  0.4619 -0.4829
   90CHL1    C1 9110   6.485   4.745   7.203 -0.1451 -0.1195  0.4415
   90CHL1   H1A 9111   6.537   4.670   7.265 -0.6554 -1.4984 -0.7585
   90CHL1   H1B 9112   6.377   4.719   7.200 -0.3222  0.6603 -0.1846
   90CHL1    C2 9113   6.538   4.751   7.053 -0.2098 -0.6037 -0.0074
   90CHL1   H2A 9114   6.525   4.653   7.002 -1.0352  0.3561 -1.6904
   90CHL1   H2B 9115   6.646   4.769   7.035  1.0084 -4.8445  2.4881
   90CHL1   C20 9116   6.420   4.865   7.975  0.5929  0.0099 -0.1639
   90CHL1   H20 9117   6.503   4.797   7.947  0.6205 -0.5447  1.1977
   90CHL1   C21 9118   6.321   4.779   8.049  0.0135  0.1468  0.0655
   90CHL1  H21A 9119   6.272   4.701   7.986  1.3657 -0.5333 -0.1604
   90CHL1  H21B 9120   6.230   4.835   8.081  0.7525  0.3340  1.8498
   90CHL1  H21C 9121   6.358   4.733   8.143 -0.1005  0.1928  0.1313
   90CHL1   C22 9122   6.497   4.962   8.063 -0.1597 -0.0520 -0.0195
   90CHL1  H22A 9123   6.555   5.035   8.002  1.2816  1.3488  2.9219
   90CHL1  H22B 9124   6.431   5.028   8.124 -0.4038  0.4769 -0.8399
   90CHL1   C23 9125   6.579   4.892   8.168 -0.0510  0.3262  1.0988
   90CHL1  H23A 9126   6.508   4.865   8.249  1.1805  1.0323  2.4401
   90CHL1  H23B 9127   6.617   4.796   8.127 -0.3945 -0.5354  2.7680
   90CHL1   C24 9128   6.684   4.987   8.221 -0.2450  0.0474 -0.2005
   90CHL1  H24A 9129   6.750   5.029   8.142 -0.1457 -1.3251 -0.8501
   90CHL1  H24B 9130   6.647   5.074   8.280 -1.2680 -1.6257  1.6824
   90CHL1   C25 9131   6.775   4.914   8.322  0.5999  0.9247 -0.2192
   90CHL1   H25 9132   6.828   4.838   8.260 -0.8719  0.1212 -0.5162
   90CHL1   C26 9133   6.873   5.011   8.373  0.3207  1.5200 -0.0961
   90CHL1  H26A 9134   6.943   4.958   8.440 -0.6411  2.0686  1.3756
   90CHL1  H26B 9135   6.937   5.045   8.288 -0.3069  1.6274 -0.5367
   90CHL1  H26C 9136   6.826   5.087   8.439  0.4665 -1.2669  3.2978
   90CHL1   C27 9137   6.708   4.841   8.435  0.1505  0.4581 -0.6573
   90CHL1  H27A 9138   6.779   4.805   8.513 -1.3956  0.0067  0.5884
   90CHL1  H27B 9139   6.640   4.917   8.480 -0.7449  0.2909 -1.7050
   90CHL1  H27C 9140   6.647   4.751   8.413  3.1485 -1.8339  0.0899
   91CHL1    C3 9141   0.652   6.489   7.374 -0.7688 -0.0107  0.0780
   91CHL1    H3 9142   0.754   6.453   7.398 -0.3358  1.0573 -0.1384
   91CHL1    O3 9143   0.650   6.557   7.255 -0.2058  0.0746  0.1711
   91CHL1   H3' 9144   0.665   6.497   7.182  0.6640 -0.0409  0.4427
   91CHL1    C4 9145   0.541   6.379   7.380  0.4201 -0.6288 -0.3505
   91CHL1   H4A 9146   0.456   6.427   7.328  0.9396  1.3375  0.5488
   91CHL1   H4B 9147   0.568   6.296   7.310 -2.5209 -0.5886 -1.6167
   91CHL1    C5 9148   0.507   6.322   7.516  0.5772  0.1385 -0.3729
   91CHL1    C6 9149   0.499   6.192   7.537  0.3398 -0.5681 -0.5978
   91CHL1    H6 9150   0.501   6.120   7.454 -3.0186 -0.1444 -1.1094
   91CHL1    C7 9151   0.476   6.120   7.666  0.0966  0.9035  0.1276
   91CHL1   H7A 9152   0.397   6.042   7.670 -1.1730  2.2586  2.0590
   91CHL1   H7B 9153   0.567   6.065   7.698 -0.3339 -0.0717 -0.3024
   91CHL1    C8 9154   0.420   6.223   7.774 -0.0921  0.0050 -0.4939
   91CHL1    H8 9155   0.311   6.243   7.764 -0.6430 -2.1601  0.7406
   91CHL1   C14 9156   0.432   6.161   7.916  0.5427  0.5575 -0.0683
   91CHL1   H14 9157   0.542   6.162   7.935  0.6976 -2.7084 -0.6070
   91CHL1   C15 9158   0.382   6.018   7.939 -0.9063 -0.6744 -0.0597
   91CHL1  H15A 9159   0.280   6.013   7.897 -1.2579 -1.7732  0.9080
   91CHL1  H15B 9160   0.445   5.939   7.892  0.1785  0.4656 -0.5857
   91CHL1   C16 9161   0.376   6.005   8.090 -0.1975 -0.4080  0.2441
   91CHL1  H16A 9162   0.270   5.993   8.124 -0.0022  1.8771  1.7639
   91CHL1  H16B 9163   0.432   5.917   8.129 -2.8195 -1.9808  0.6475
   91CHL1   C17 9164   0.424   6.142   8.150  0.3359 -0.0144  0.4049
   91CHL1   H17 9165   0.535   6.138   8.161  0.3093  1.3605  1.3574
   91CHL1   C13 9166   0.385   6.242   8.037 -0.7811  0.5510  0.5604
   91CHL1   C18 9167   0.236   6.264   8.038  0.2095  0.5627  0.0470
   91CHL1  H18A 9168   0.169   6.176   8.038 -0.8646  1.2984  3.3203
   91CHL1  H18B 9169   0.207   6.331   8.123 -0.0203  1.5074 -0.7584
   91CHL1  H18C 9170   0.214   6.320   7.945  1.0912  0.0841 -0.4461
   91CHL1   C12 9171   0.462   6.377   8.027 -0.5471  0.3266 -0.3641
   91CHL1  H12A 9172   0.421   6.452   8.097 -0.5467  0.1147 -0.1392
   91CHL1  H12B 9173   0.568   6.354   8.051 -0.5850 -0.6126 -1.0763
   91CHL1   C11 9174   0.454   6.447   7.888 -0.6871 -0.1737  0.3284
   91CHL1  H11A 9175   0.352   6.491   7.878 -1.4911 -1.4082  2.6260
   91CHL1  H11B 9176   0.520   6.535   7.879  0.4311 -1.0295  0.0667
   91CHL1    C9 9177   0.497   6.352   7.772  0.4211 -0.1889  0.1141
   91CHL1    H9 9178   0.603   6.328   7.791  0.6691  1.1742  0.4982
   91CHL1   C10 9179   0.497   6.422   7.632  0.3012  0.5083  0.3877
   91CHL1   C19 9180   0.361   6.499   7.622 -0.5540 -0.3216  0.3619
   91CHL1  H19A 9181   0.283   6.420   7.628  1.7539 -2.7138 -0.1345
   91CHL1  H19B 9182   0.349   6.576   7.700  0.1746  2.2477 -1.9673
   91CHL1  H19C 9183   0.352   6.547   7.522  1.1525 -0.2526  0.2354
   91CHL1    C1 9184   0.612   6.523   7.618  0.6148  0.8527  0.2247
   91CHL1   H1A 9185   0.599   6.605   7.692  1.7498  0.0996  1.2745
   91CHL1   H1B 9186   0.704   6.468   7.647  0.4955  1.1440  1.1610
   91CHL1    C2 9187   0.629   6.587   7.481  0.5045 -0.8405 -0.0599
   91CHL1   H2A 9188   0.718   6.652   7.489 -0.3858  0.4674 -0.4582
   91CHL1   H2B 9189   0.535   6.642   7.458  0.8359  0.0043  0.5696
   91CHL1   C20 9190   0.374   6.174   8.290 -0.8448 -0.3660  0.0625
   91CHL1   H20 9191   0.268   6.205   8.285 -0.5682  0.3413 -1.7158
   91CHL1   C21 9192   0.467   6.282   8.349 -0.9984  0.0536 -0.1516
   91CHL1  H21A 9193   0.457   6.305   8.458 -0.9821  2.5297 -0.6400
   91CHL1  H21B 9194   0.443   6.377   8.297  0.6111  0.1858 -0.6801
   91CHL1  H21C 9195   0.570   6.251   8.324 -0.2577  0.9222  1.7024
   91CHL1   C22 9196   0.380   6.048   8.377  0.1823 -0.2816 -0.1179
   91CHL1  H22A 9197   0.323   5.968   8.326 -0.8889  0.1738  0.3510
   91CHL1  H22B 9198   0.480   6.000   8.390 -0.1680 -1.0507 -0.2859
   91CHL1   C23 9199   0.320   6.059   8.515 -0.3318 -0.6837 -0.6347
   91CHL1  H23A 9200   0.381   6.128   8.576 -0.4836 -1.1195  0.0213
   91CHL1  H23B 9201   0.211   6.083   8.512 -0.2680 -0.3628 -0.3407
   91CHL1   C24 9202   0.329   5.938   8.617  0.1690 -0.0368  0.5371
   91CHL1  H24A 9203   0.250   5.961   8.691 -2.5503 -4.5685 -0.7347
   91CHL1  H24B 9204   0.290   5.848   8.565  3.4166 -1.7772  0.9607
   91CHL1   C25 9205   0.463   5.927   8.691  0.0968 -0.5112 -0.4480
   91CHL1   H25 9206   0.545   5.942   8.617  0.2240  1.5861  0.0919
   91CHL1   C26 9207   0.487   6.031   8.805  1.0793  0.3110  0.1705
   91CHL1  H26A 9208   0.585   6.007   8.851  1.4268  0.7367 -0.3521
   91CHL1  H26B 9209   0.503   6.134   8.769 -0.5048  0.6805  0.4800
   91CHL1  H26C 9210   0.405   6.015   8.879 -0.4371 -1.8020 -1.8897
   91CHL1   C27 9211   0.483   5.786   8.742  0.0479 -0.4485 -0.1602
   91CHL1  H27A 9212   0.382   5.750   8.774  0.6219 -1.5974  0.3924
   91CHL1  H27B 9213   0.518   5.707   8.672 -2.5424  0.5853 -2.7298
   91CHL1  H27C 9214   0.537   5.786   8.839 -0.4892 -1.3325  0.1482
   92CHL1    C3 9215   4.217   0.928   6.665  0.0508 -0.5096  0.0308
   92CHL1    H3 9216   4.217   1.037   6.687  0.0932 -0.6884  0.9064
   92CHL1    O3 9217   4.242   0.915   6.521 -0.9053  0.3843  0.0952
   92CHL1   H3' 9218   4.221   0.823   6.501  0.3237  0.5060 -1.9322
   92CHL1    C4 9219   4.304   0.843   6.750 -0.8223 -0.1523  0.2175
   92CHL1   H4A 9220   4.302   0.737   6.717 -0.7508 -0.1230  0.1182
   92CHL1   H4B 9221   4.401   0.891   6.724 -1.6474  1.3174 -0.2007
   92CHL1    C5 9222   4.278   0.838   6.898  0.6204  0.2135 -0.2480
   92CHL1    C6 9223   4.365   0.882   6.985 -0.5113 -0.3348 -0.6195
   92CHL1    H6 9224   4.463   0.914   6.946 -0.8132  2.0170  0.4211
   92CHL1    C7 9225   4.346   0.896   7.132 -0.2623  0.0860 -0.1499
   92CHL1   H7A 9226   4.428   0.853   7.194  0.5631  1.5290 -0.2333
   92CHL1   H7B 9227   4.335   1.003   7.158  0.7442  0.3410 -0.7423
   92CHL1    C8 9228   4.212   0.824   7.184 -0.4746  0.2728 -0.0261
   92CHL1    H8 9229   4.231   0.715   7.182 -1.0307  0.1544  1.1500
   92CHL1   C14 9230   4.174   0.879   7.313  0.1737 -0.5336  0.1511
   92CHL1   H14 9231   4.146   0.986   7.298 -4.5023 -1.8450 -1.3409
   92CHL1   C15 9232   4.279   0.860   7.423  0.4387  0.3681 -1.0508
   92CHL1  H15A 9233   4.333   0.763   7.427 -0.8693 -0.3013  0.8819
   92CHL1  H15B 9234   4.355   0.940   7.408 -0.7756  1.9720  1.0945
   92CHL1   C16 9235   4.198   0.884   7.552  0.3893 -0.4191  0.0454
   92CHL1  H16A 9236   4.218   0.793   7.613 -0.3580  1.2357  2.8327
   92CHL1  H16B 9237   4.225   0.975   7.610  1.7094 -0.5844 -0.2973
   92CHL1   C17 9238   4.043   0.887   7.510 -0.3138 -0.1498 -0.3151
   92CHL1   H17 9239   4.010   0.991   7.488  0.4279 -0.1774 -1.6556
   92CHL1   C13 9240   4.043   0.821   7.370  0.0551  0.1344 -0.4555
   92CHL1   C18 9241   4.050   0.668   7.391 -0.6597 -0.3959 -0.0180
   92CHL1  H18A 9242   4.110   0.639   7.480 -0.6607  0.0907  0.1406
   92CHL1  H18B 9243   3.951   0.620   7.411 -0.2445 -0.9212  0.8009
   92CHL1  H18C 9244   4.092   0.616   7.303  0.4400 -0.6348  0.6325
   92CHL1   C12 9245   3.924   0.865   7.279  0.0602 -0.3992 -1.1723
   92CHL1  H12A 9246   3.829   0.819   7.313  0.8711  0.5504  2.6834
   92CHL1  H12B 9247   3.924   0.976   7.284 -2.1693 -0.4240 -0.3805
   92CHL1   C11 9248   3.957   0.818   7.139 -0.8057 -0.8200  0.2248
   92CHL1  H11A 9249   3.962   0.707   7.145  0.1701 -0.8021 -0.1623
   92CHL1  H11B 9250   3.876   0.841   7.067 -1.5510 -0.8067  1.0582
   92CHL1    C9 9251   4.099   0.859   7.085  0.4291  0.4186 -0.4678
   92CHL1    H9 9252   4.103   0.970   7.085  0.8930  0.4047  0.3391
   92CHL1   C10 9253   4.129   0.815   6.940 -0.3056 -0.2000  0.9722
   92CHL1   C19 9254   4.114   0.662   6.935 -0.5401  0.2483 -0.6879
   92CHL1  H19A 9255   4.021   0.621   6.981 -1.0955  0.8722 -1.2478
   92CHL1  H19B 9256   4.122   0.624   6.831 -0.8273 -2.3360  0.1850
   92CHL1  H19C 9257   4.199   0.615   6.990 -0.6284  0.1430 -0.6409
   92CHL1    C1 9258   4.033   0.890   6.845 -0.1236 -0.7402  0.2496
   92CHL1   H1A 9259   3.933   0.842   6.842 -1.5111  2.1277 -2.6928
   92CHL1   H1B 9260   4.024   0.996   6.877 -0.9934 -0.9240  0.6396
   92CHL1    C2 9261   4.076   0.890   6.696 -0.6315 -0.1750 -0.2542
   92CHL1   H2A 9262   4.011   0.957   6.636  0.3532 -0.1882 -1.3537
   92CHL1   H2B 9263   4.065   0.785   6.661 -0.1080 -1.4431  3.2274
   92CHL1   C20 9264   3.953   0.851   7.623 -0.1224 -0.1432 -0.3838
   92CHL1   H20 9265   3.957   0.741   7.644  4.7271  0.0189  0.2318
   92CHL1   C21 9266   3.802   0.869   7.574 -0.1515 -0.3007 -0.2606
   92CHL1  H21A 9267   3.762   0.799   7.497  0.8968 -1.2312  0.0091
   92CHL1  H21B 9268   3.802   0.968   7.525  2.9422  0.9266  2.0413
   92CHL1  H21C 9269   3.743   0.879   7.667  0.1506 -0.6361 -0.0289
   92CHL1   C22 9270   3.984   0.932   7.747 -1.0207 -0.2259  0.0989
   92CHL1  H22A 9271   4.088   0.912   7.781 -1.3279 -1.3477  0.4101
   92CHL1  H22B 9272   3.967   1.040   7.728  1.5849 -0.0740 -1.5807
   92CHL1   C23 9273   3.898   0.900   7.867  0.1141  0.4133  0.0962
   92CHL1  H23A 9274   3.796   0.940   7.852 -0.3092 -0.6492  0.1227
   92CHL1  H23B 9275   3.886   0.791   7.883  1.8604  0.2372  0.3378
   92CHL1   C24 9276   3.945   0.962   7.998 -0.4497 -0.3839  0.5336
   92CHL1  H24A 9277   4.050   0.941   8.027 -0.6359  2.5526  3.5609
   92CHL1  H24B 9278   3.929   1.070   7.983  2.2036  0.1714  1.3990
   92CHL1   C25 9279   3.859   0.914   8.119  0.0631 -0.2917 -0.4990
   92CHL1   H25 9280   3.870   0.804   8.133 -1.4089 -0.3460  0.2837
   92CHL1   C26 9281   3.892   0.983   8.246  1.3379 -0.3916 -0.4626
   92CHL1  H26A 9282   4.001   0.983   8.263  1.3599  0.1503 -0.6064
   92CHL1  H26B 9283   3.859   1.088   8.233 -2.8389 -1.2702  2.0926
   92CHL1  H26C 9284   3.831   0.938   8.327  2.0756 -0.8659 -0.1682
   92CHL1   C27 9285   3.709   0.937   8.104  0.9214 -0.4924 -0.2967
   92CHL1  H27A 9286   3.666   0.927   8.002  1.1393 -1.6410 -0.2822
   92CHL1  H27B 9287   3.660   0.874   8.182 -0.3270 -0.5048 -1.0828
   92CHL1  H27C 9288   3.688   1.041   8.138  0.9948 -0.9109  1.0856
   93CHL1    C3 9289   1.780   5.642   6.951  0.3604 -0.2197 -0.5199
   93CHL1    H3 9290   1.812   5.748   6.962 -3.1311  0.6640  1.6864
   93CHL1    O3 9291   1.740   5.626   6.810 -0.2240 -0.1080 -0.2228
   93CHL1   H3' 9292   1.679   5.699   6.802  1.2598  1.1504 -0.1511
   93CHL1    C4 9293   1.878   5.538   6.995 -0.5241  0.3439  0.1484
   93CHL1   H4A 9294   1.834   5.440   6.965  0.5482  0.8560 -3.3559
   93CHL1   H4B 9295   1.972   5.542   6.935 -0.5124 -0.5529  0.1041
   93CHL1    C5 9296   1.905   5.529   7.145  0.0973 -0.2326  0.4380
   93CHL1    C6 9297   2.027   5.544   7.194 -0.8025  0.3098  1.1997
   93CHL1    H6 9298   2.110   5.545   7.122 -0.7802 -0.5883  1.2073
   93CHL1    C7 9299   2.060   5.536   7.340 -0.1571 -0.0671 -0.1702
   93CHL1   H7A 9300   2.156   5.482   7.352  0.0742  0.5341  0.8066
   93CHL1   H7B 9301   2.086   5.635   7.384 -2.9753  0.3649  0.6376
   93CHL1    C8 9302   1.937   5.481   7.424 -0.0329  0.6646 -0.6234
   93CHL1    H8 9303   1.925   5.371   7.425  1.3633  0.5064  0.0418
   93CHL1   C14 9304   1.955   5.515   7.573 -0.6402  0.1977 -0.5228
   93CHL1   H14 9305   1.960   5.625   7.585 -3.5612  0.2552  0.5859
   93CHL1   C15 9306   2.092   5.470   7.639  0.2044  0.1652 -0.2395
   93CHL1  H15A 9307   2.113   5.370   7.593 -0.3407  0.3979 -1.0051
   93CHL1  H15B 9308   2.173   5.541   7.611  0.0759  1.2526  2.0200
   93CHL1   C16 9309   2.068   5.483   7.787 -0.1926  0.3152 -0.1761
   93CHL1  H16A 9310   2.094   5.392   7.845  4.7472  1.5504 -0.2170
   93CHL1  H16B 9311   2.135   5.559   7.833 -0.1275  1.4440 -2.1036
   93CHL1   C17 9312   1.917   5.506   7.805 -0.9344  0.3452  0.2412
   93CHL1   H17 9313   1.929   5.616   7.812  2.5394 -0.0942  2.2290
   93CHL1   C13 9314   1.843   5.472   7.669  0.1112  0.5346 -0.0298
   93CHL1   C18 9315   1.821   5.318   7.670 -0.0575  0.5855  1.1181
   93CHL1  H18A 9316   1.918   5.264   7.663  0.4664  1.7409 -1.0352
   93CHL1  H18B 9317   1.755   5.284   7.753 -1.7778  0.3552 -0.2945
   93CHL1  H18C 9318   1.773   5.292   7.573  0.8476 -1.1909  1.1387
   93CHL1   C12 9319   1.720   5.558   7.623 -0.3497 -0.2963  0.7867
   93CHL1  H12A 9320   1.635   5.527   7.688  0.0147 -0.8341  1.0204
   93CHL1  H12B 9321   1.753   5.662   7.641  0.6752 -0.6178  0.8358
   93CHL1   C11 9322   1.695   5.534   7.470 -0.0939 -0.5630 -0.1926
   93CHL1  H11A 9323   1.672   5.426   7.476  0.9467 -0.8361 -1.0278
   93CHL1  H11B 9324   1.609   5.593   7.432  0.2382 -0.5723 -0.9665
   93CHL1    C9 9325   1.818   5.560   7.379 -0.0795  0.3467 -0.8254
   93CHL1    H9 9326   1.845   5.667   7.381  0.9106  0.1552 -2.6260
   93CHL1   C10 9327   1.778   5.520   7.239  0.0853 -0.0786  0.2857
   93CHL1   C19 9328   1.725   5.375   7.240 -0.4546 -0.5351  1.2584
   93CHL1  H19A 9329   1.732   5.328   7.139 -0.1339  0.1711  0.9454
   93CHL1  H19B 9330   1.787   5.306   7.300 -0.3629 -0.8745  0.7767
   93CHL1  H19C 9331   1.618   5.362   7.267 -0.3596  0.5827  2.1904
   93CHL1    C1 9332   1.675   5.621   7.181 -0.2639 -0.2185  0.7399
   93CHL1   H1A 9333   1.576   5.590   7.222 -0.1226 -1.9249 -0.1595
   93CHL1   H1B 9334   1.700   5.722   7.220  2.4346 -0.2934 -0.7294
   93CHL1    C2 9335   1.651   5.628   7.025  0.5783 -0.3574 -0.1368
   93CHL1   H2A 9336   1.591   5.720   7.006  0.0766 -0.1161  2.4101
   93CHL1   H2B 9337   1.588   5.539   7.009 -1.5937  0.9375  1.0181
   93CHL1   C20 9338   1.865   5.458   7.944 -0.1399  0.0330  0.5812
   93CHL1   H20 9339   1.838   5.350   7.954 -0.8426 -0.1548 -2.5264
   93CHL1   C21 9340   1.737   5.538   7.964 -0.0001  0.4574 -0.3306
   93CHL1  H21A 9341   1.750   5.642   7.928  1.3941 -0.4977 -2.7109
   93CHL1  H21B 9342   1.709   5.534   8.071  0.4029 -0.9339 -0.2666
   93CHL1  H21C 9343   1.648   5.493   7.913 -0.4377 -0.9669  1.6501
   93CHL1   C22 9344   1.956   5.490   8.063 -0.3302 -0.0166  0.5473
   93CHL1  H22A 9345   1.923   5.429   8.150  0.6910 -0.4868  0.6181
   93CHL1  H22B 9346   2.058   5.447   8.052 -0.5720 -0.7279  1.0783
   93CHL1   C23 9347   1.984   5.646   8.102  0.4562  0.1023 -0.2327
   93CHL1  H23A 9348   2.013   5.692   8.005 -2.5734  1.5051 -0.5456
   93CHL1  H23B 9349   1.886   5.684   8.140  1.0209  0.2557  1.0984
   93CHL1   C24 9350   2.084   5.664   8.207  0.1213 -0.0759 -0.5263
   93CHL1  H24A 9351   2.183   5.623   8.178 -0.4805 -0.9535 -1.3834
   93CHL1  H24B 9352   2.098   5.773   8.222  0.4149  0.0070 -1.3701
   93CHL1   C25 9353   2.043   5.611   8.349  0.3043  0.4516 -0.0767
   93CHL1   H25 9354   2.012   5.504   8.345  1.1130  0.2412 -1.0039
   93CHL1   C26 9355   2.179   5.618   8.429 -0.6178 -0.2089 -0.4311
   93CHL1  H26A 9356   2.260   5.567   8.373  0.8894  0.0877  1.4547
   93CHL1  H26B 9357   2.205   5.725   8.441  1.2313 -0.4771 -1.7802
   93CHL1  H26C 9358   2.171   5.564   8.526  1.6039  0.3133  0.0483
   93CHL1   C27 9359   1.928   5.677   8.425  0.3231  0.5152  0.0383
   93CHL1  H27A 9360   1.962   5.782   8.434  0.4554  0.4783 -0.0266
   93CHL1  H27B 9361   1.833   5.670   8.368  0.1247  1.0056  0.3109
   93CHL1  H27C 9362   1.906   5.625   8.521 -2.9630 -1.1013 -1.4937
   94CHL1    C3 9363   4.436   1.678   6.827 -0.4610  0.2021  0.7966
   94CHL1    H3 9364   4.387   1.579   6.844  1.0067 -1.1499 -2.4603
   94CHL1    O3 9365   4.503   1.673   6.703  0.1531  0.6228  0.3103
   94CHL1   H3' 9366   4.442   1.710   6.639  2.1907 -0.6535 -2.5121
   94CHL1    C4 9367   4.323   1.781   6.825 -0.2166 -0.8105 -0.5982
   94CHL1   H4A 9368   4.359   1.879   6.787 -0.5860  0.1811  1.5571
   94CHL1   H4B 9369   4.254   1.749   6.743  0.7021 -0.3765 -1.5539
   94CHL1    C5 9370   4.253   1.782   6.960 -0.3719 -0.7103 -0.6068
   94CHL1    C6 9371   4.120   1.754   6.981  0.2992 -0.3769  0.0583
   94CHL1    H6 9372   4.059   1.730   6.892 -0.6289  2.2897 -0.0602
   94CHL1    C7 9373   4.050   1.765   7.115 -0.4695  0.0349  0.1228
   94CHL1   H7A 9374   3.954   1.820   7.110 -0.0947  0.7576  0.8073
   94CHL1   H7B 9375   4.020   1.663   7.146  1.3863 -1.2762 -2.2052
   94CHL1    C8 9376   4.137   1.837   7.219  0.1071  0.2825 -0.0113
   94CHL1    H8 9377   4.127   1.947   7.205 -0.7508  0.2254  0.1434
   94CHL1   C14 9378   4.078   1.806   7.359  0.0749  0.2032 -0.4026
   94CHL1   H14 9379   4.095   1.697   7.371  0.5691  0.1808 -1.3204
   94CHL1   C15 9380   3.927   1.804   7.380  0.7418  0.6579  0.1954
   94CHL1  H15A 9381   3.871   1.887   7.330 -0.3941 -1.4293 -2.1114
   94CHL1  H15B 9382   3.895   1.703   7.347  2.6340 -0.2805  1.1881
   94CHL1   C16 9383   3.907   1.826   7.530 -0.5906  1.0019  0.1977
   94CHL1  H16A 9384   3.857   1.924   7.544 -0.8399  0.8161  0.6259
   94CHL1  H16B 9385   3.844   1.748   7.578 -2.0924  1.3692 -1.1043
   94CHL1   C17 9386   4.049   1.830   7.592 -0.9965  0.1372 -0.2054
   94CHL1   H17 9387   4.084   1.727   7.611  1.7296  1.4283  2.0114
   94CHL1   C13 9388   4.144   1.874   7.472 -0.2995  1.4178 -0.8356
   94CHL1   C18 9389   4.131   2.023   7.455 -0.2951 -0.3455 -0.3757
   94CHL1  H18A 9390   4.025   2.053   7.441 -0.8720 -0.9640  2.4413
   94CHL1  H18B 9391   4.169   2.076   7.545 -2.7865 -0.7405  0.9662
   94CHL1  H18C 9392   4.196   2.056   7.371 -1.5322 -1.2855 -1.7306
   94CHL1   C12 9393   4.294   1.829   7.476  0.0229  1.1529  0.7350
   94CHL1  H12A 9394   4.351   1.876   7.558  0.9754 -1.5350  1.6371
   94CHL1  H12B 9395   4.285   1.721   7.498  2.4345  0.8998  0.5527
   94CHL1   C11 9396   4.367   1.848   7.341 -0.0172  0.0696  0.9579
   94CHL1  H11A 9397   4.390   1.957   7.338  0.9271 -0.1101  1.5292
   94CHL1  H11B 9398   4.459   1.787   7.350 -0.5090 -1.0931 -1.4802
   94CHL1    C9 9399   4.284   1.800   7.218 -0.0314 -0.3057 -0.7481
   94CHL1    H9 9400   4.290   1.690   7.234  1.2872  0.0374  1.2794
   94CHL1   C10 9401   4.347   1.824   7.076 -0.5576  0.7144  0.5805
   94CHL1   C19 9402   4.377   1.981   7.062 -0.1288 -0.4104  0.2402
   94CHL1  H19A 9403   4.445   1.993   6.975  0.2041  0.9606  0.6779
   94CHL1  H19B 9404   4.280   2.032   7.044 -1.2372 -1.6529  2.4310
   94CHL1  H19C 9405   4.425   2.023   7.153 -1.8367  0.0790  0.9283
   94CHL1    C1 9406   4.476   1.743   7.068 -0.0450  0.1372 -0.1723
   94CHL1   H1A 9407   4.557   1.773   7.139  1.8232 -3.8320 -0.5070
   94CHL1   H1B 9408   4.450   1.642   7.106  0.4929  0.1450  0.2224
   94CHL1    C2 9409   4.537   1.727   6.929 -0.2478 -0.4109 -0.5883
   94CHL1   H2A 9410   4.619   1.652   6.929 -0.7478 -0.9685  0.3408
   94CHL1   H2B 9411   4.586   1.825   6.911  2.0250 -1.0077  2.0132
   94CHL1   C20 9412   4.061   1.905   7.725  0.1692 -0.3472 -0.4812
   94CHL1   H20 9413   4.064   2.015   7.708  1.7698 -0.2491  0.3480
   94CHL1   C21 9414   4.197   1.894   7.792 -0.5460 -0.7338  0.2957
   94CHL1  H21A 9415   4.200   1.950   7.887  1.5218 -2.5303  1.3296
   94CHL1  H21B 9416   4.282   1.923   7.726  1.2604  3.0086  4.0707
   94CHL1  H21C 9417   4.219   1.788   7.817  1.1225 -0.3384  0.5599
   94CHL1   C22 9418   3.951   1.880   7.832  0.1473 -0.3475 -0.4006
   94CHL1  H22A 9419   3.857   1.908   7.779  0.3718 -2.4802 -1.9746
   94CHL1  H22B 9420   3.956   1.770   7.841 -0.9054 -0.5835 -2.3707
   94CHL1   C23 9421   3.956   1.961   7.961  0.4969 -0.0673  0.1145
   94CHL1  H23A 9422   4.048   1.929   8.015  1.8936 -0.1504 -2.2479
   94CHL1  H23B 9423   3.977   2.069   7.943  1.9619  0.3810  3.8827
   94CHL1   C24 9424   3.836   1.948   8.053 -0.4712 -0.2405 -0.0379
   94CHL1  H24A 9425   3.745   1.957   7.990  0.2897 -0.5841 -1.2146
   94CHL1  H24B 9426   3.850   1.849   8.102 -0.1446 -1.1795 -1.9822
   94CHL1   C25 9427   3.825   2.054   8.162  0.0617  0.0782  0.6334
   94CHL1   H25 9428   3.924   2.084   8.202 -0.2704  1.1192  0.6838
   94CHL1   C26 9429   3.770   2.190   8.119  0.3971 -0.0047  0.1846
   94CHL1  H26A 9430   3.825   2.225   8.029 -0.3532  0.3242 -0.1571
   94CHL1  H26B 9431   3.669   2.167   8.077  0.2824 -2.2938  1.6505
   94CHL1  H26C 9432   3.787   2.267   8.197  2.3178  0.2754 -0.4869
   94CHL1   C27 9433   3.748   2.005   8.284 -0.0887 -0.4904 -0.5669
   94CHL1  H27A 9434   3.819   1.953   8.352 -0.4405  0.5809  0.6474
   94CHL1  H27B 9435   3.694   2.089   8.334  0.0335 -0.6190 -0.2170
   94CHL1  H27C 9436   3.671   1.938   8.241 -0.0810 -0.7429 -0.1894
   95CHL1    C3 9437   4.639   0.445   6.631 -0.2448 -0.4278  0.3301
   95CHL1    H3 9438   4.652   0.555   6.639  0.0664 -0.4917  0.7361
   95CHL1    O3 9439   4.646   0.395   6.499  0.3240 -0.1101 -0.5086
   95CHL1   H3' 9440   4.630   0.302   6.517 -1.8553 -0.5380 -4.2048
   95CHL1    C4 9441   4.751   0.379   6.712 -0.1180  0.1815  0.0080
   95CHL1   H4A 9442   4.733   0.270   6.704  0.7009  0.0495 -0.0810
   95CHL1   H4B 9443   4.850   0.390   6.663 -2.0159 -0.1835 -4.1100
   95CHL1    C5 9444   4.746   0.414   6.860 -0.1595  0.3661 -0.6098
   95CHL1    C6 9445   4.854   0.465   6.931 -0.2673 -0.0558  0.3560
   95CHL1    H6 9446   4.953   0.485   6.888 -0.8380 -1.0283 -1.4645
   95CHL1    C7 9447   4.847   0.503   7.080  0.2639 -0.2972 -0.5132
   95CHL1   H7A 9448   4.942   0.476   7.132  0.3253  1.4770  0.3347
   95CHL1   H7B 9449   4.836   0.613   7.085  0.6019 -0.1920 -1.8320
   95CHL1    C8 9450   4.731   0.433   7.149  0.2707  0.1689 -0.0703
   95CHL1    H8 9451   4.764   0.327   7.152  0.8767  0.3271 -0.8266
   95CHL1   C14 9452   4.714   0.490   7.293  0.6124  0.5363  0.0648
   95CHL1   H14 9453   4.680   0.593   7.271 -2.7367 -0.7715 -1.1119
   95CHL1   C15 9454   4.833   0.508   7.390 -0.3963 -0.1979 -0.0153
   95CHL1  H15A 9455   4.877   0.406   7.387  0.2147  0.0016  1.5037
   95CHL1  H15B 9456   4.901   0.585   7.349 -0.9493  0.4197  0.2116
   95CHL1   C16 9457   4.773   0.537   7.522  1.0579  0.5849 -0.3613
   95CHL1  H16A 9458   4.835   0.481   7.595  1.2994 -0.7825 -1.5979
   95CHL1  H16B 9459   4.784   0.643   7.553 -0.5154  0.0825  2.0537
   95CHL1   C17 9460   4.622   0.500   7.518  0.4030 -0.4475  0.5355
   95CHL1   H17 9461   4.566   0.594   7.498  1.7172  0.0630 -0.9034
   95CHL1   C13 9462   4.606   0.421   7.385  0.2444 -0.0136 -0.0065
   95CHL1   C18 9463   4.643   0.278   7.403  0.1621 -0.0925 -0.1300
   95CHL1  H18A 9464   4.563   0.222   7.457 -0.5615  1.4294  0.3928
   95CHL1  H18B 9465   4.663   0.229   7.305  0.9353 -0.9651  0.4548
   95CHL1  H18C 9466   4.738   0.272   7.461  0.9900 -2.4895 -1.6518
   95CHL1   C12 9467   4.477   0.436   7.312 -0.0494 -0.4426 -0.3610
   95CHL1  H12A 9468   4.395   0.385   7.368  1.0271 -2.2607 -0.3896
   95CHL1  H12B 9469   4.452   0.543   7.329  0.7847 -0.5905  1.8508
   95CHL1   C11 9470   4.488   0.379   7.164 -0.6672 -0.4622 -0.6036
   95CHL1  H11A 9471   4.490   0.269   7.180  3.1281 -0.1374  1.5710
   95CHL1  H11B 9472   4.389   0.391   7.115  0.0972 -2.1732 -2.6290
   95CHL1    C9 9473   4.603   0.443   7.072 -0.3436 -0.6876  0.1593
   95CHL1    H9 9474   4.591   0.551   7.050  1.2473 -0.5115  0.0635
   95CHL1   C10 9475   4.613   0.385   6.929  0.4256  0.1541 -0.3339
   95CHL1   C19 9476   4.587   0.236   6.943  0.0870 -0.2181  0.0671
   95CHL1  H19A 9477   4.603   0.186   6.845 -0.1580 -0.1168 -0.0249
   95CHL1  H19B 9478   4.651   0.180   7.015  0.6906  1.7398  1.0944
   95CHL1  H19C 9479   4.482   0.206   6.967  1.0783 -2.2060  2.2105
   95CHL1    C1 9480   4.503   0.450   6.837  0.6381 -0.7914 -0.0273
   95CHL1   H1A 9481   4.398   0.425   6.864  1.1341 -0.9710  1.8275
   95CHL1   H1B 9482   4.521   0.559   6.845 -0.5891 -0.6300  0.7000
   95CHL1    C2 9483   4.502   0.408   6.688 -0.8091  0.0417 -0.5442
   95CHL1   H2A 9484   4.427   0.459   6.624  0.4427 -1.6106 -3.4438
   95CHL1   H2B 9485   4.498   0.297   6.679 -1.1258 -0.1369  1.6185
   95CHL1   C20 9486   4.567   0.435   7.641  0.0711 -0.6614 -0.0438
   95CHL1   H20 9487   4.621   0.339   7.654 -2.1899 -1.9828 -0.0526
   95CHL1   C21 9488   4.420   0.406   7.628  0.3912  0.2039  0.0363
   95CHL1  H21A 9489   4.385   0.371   7.727  1.8180 -2.2030 -0.2644
   95CHL1  H21B 9490   4.397   0.317   7.566 -0.8314  0.9727 -0.6304
   95CHL1  H21C 9491   4.362   0.495   7.595  0.8902  0.2253 -0.8145
   95CHL1   C22 9492   4.600   0.524   7.767  0.6446 -0.4946 -0.0365
   95CHL1  H22A 9493   4.560   0.471   7.855  1.2626  0.6749  0.9682
   95CHL1  H22B 9494   4.711   0.527   7.778  0.6748 -2.0527  0.0722
   95CHL1   C23 9495   4.546   0.671   7.768 -0.6470 -0.0185  0.2452
   95CHL1  H23A 9496   4.598   0.742   7.700  0.3498 -0.7256  0.2691
   95CHL1  H23B 9497   4.445   0.680   7.723 -0.3842  1.4265 -0.0761
   95CHL1   C24 9498   4.534   0.734   7.901  0.3291 -0.3719 -0.0364
   95CHL1  H24A 9499   4.480   0.664   7.968  1.2533 -3.4789 -2.4404
   95CHL1  H24B 9500   4.637   0.741   7.941 -0.1514 -0.0711  1.1742
   95CHL1   C25 9501   4.445   0.865   7.902  0.5927 -0.3966  0.1367
   95CHL1   H25 9502   4.357   0.853   7.836  1.4866  0.7237 -1.2980
   95CHL1   C26 9503   4.400   0.892   8.043  0.0023 -0.3772 -0.3238
   95CHL1  H26A 9504   4.479   0.911   8.119 -0.2005 -0.3220 -0.1279
   95CHL1  H26B 9505   4.337   0.984   8.042  1.9052  0.9796  0.3127
   95CHL1  H26C 9506   4.341   0.809   8.087 -0.7597  0.2979 -0.0424
   95CHL1   C27 9507   4.521   0.988   7.846  0.5656 -0.0865 -0.2066
   95CHL1  H27A 9508   4.529   0.991   7.735 -1.8923 -2.5969 -0.5225
   95CHL1  H27B 9509   4.466   1.083   7.862  0.4486 -0.3190  0.8093
   95CHL1  H27C 9510   4.616   0.997   7.903  0.7985 -0.5357 -0.5174
   96CHL1    C3 9511   4.546   6.694   6.725  0.4814  0.0388 -0.3781
   96CHL1    H3 9512   4.531   6.800   6.753  1.1201  0.0461 -0.0582
   96CHL1    O3 9513   4.535   6.674   6.582 -0.2357 -0.1229 -0.7568
   96CHL1   H3' 9514   4.573   6.588   6.564 -2.1731 -0.9284 -1.1285
   96CHL1    C4 9515   4.693   6.643   6.782 -0.0725  0.4914 -0.4169
   96CHL1   H4A 9516   4.714   6.542   6.742 -0.1256  0.1354  0.4412
   96CHL1   H4B 9517   4.763   6.715   6.735  0.7463 -0.5843 -0.8695
   96CHL1    C5 9518   4.707   6.644   6.933  0.2442  0.2837 -0.1545
   96CHL1    C6 9519   4.805   6.722   6.987  0.7684 -0.5127 -0.3310
   96CHL1    H6 9520   4.867   6.787   6.925 -1.3401  2.4379  0.5366
   96CHL1    C7 9521   4.822   6.743   7.137  0.0225 -0.3069 -0.1958
   96CHL1   H7A 9522   4.931   6.724   7.147  0.3432  0.1530 -2.4923
   96CHL1   H7B 9523   4.805   6.849   7.164 -0.0042 -0.1323 -0.8749
   96CHL1    C8 9524   4.750   6.630   7.219  0.1448  0.4387  0.3829
   96CHL1    H8 9525   4.802   6.532   7.209 -0.7443 -0.2758  2.5467
   96CHL1   C14 9526   4.723   6.675   7.365  0.1662 -0.8344 -0.5821
   96CHL1   H14 9527   4.666   6.769   7.346  2.1760  0.4355 -0.4463
   96CHL1   C15 9528   4.848   6.718   7.449  0.2214  0.2574  1.6487
   96CHL1  H15A 9529   4.920   6.634   7.452 -1.6306 -1.4522 -0.4715
   96CHL1  H15B 9530   4.888   6.816   7.415 -0.6168  0.2134  0.5105
   96CHL1   C16 9531   4.796   6.722   7.601  0.3034  0.4083 -0.4928
   96CHL1  H16A 9532   4.853   6.650   7.664  1.8097 -0.3669 -2.6801
   96CHL1  H16B 9533   4.824   6.820   7.643  0.6712  0.4632 -0.8612
   96CHL1   C17 9534   4.648   6.674   7.590 -1.1456  1.1742  0.4573
   96CHL1   H17 9535   4.593   6.770   7.578  0.9559  2.7206  2.6227
   96CHL1   C13 9536   4.642   6.591   7.460 -0.0366 -0.8932  0.5067
   96CHL1   C18 9537   4.715   6.459   7.477  0.2982  0.4497  0.2430
   96CHL1  H18A 9538   4.819   6.473   7.515  0.4012 -2.1285  1.0269
   96CHL1  H18B 9539   4.654   6.404   7.551 -0.6215  1.3732  0.1847
   96CHL1  H18C 9540   4.724   6.401   7.383  1.7291  2.5735 -0.9932
   96CHL1   C12 9541   4.503   6.581   7.394  0.5379  0.8043 -0.1538
   96CHL1  H12A 9542   4.437   6.505   7.442 -1.5326  2.1529 -0.7791
   96CHL1  H12B 9543   4.449   6.676   7.374  0.9209  1.5054  1.9978
   96CHL1   C11 9544   4.523   6.518   7.253  0.1605 -0.4527  0.5917
   96CHL1  H11A 9545   4.561   6.413   7.258  1.6263 -0.1585 -2.9204
   96CHL1  H11B 9546   4.425   6.498   7.206  0.8997  2.0038 -2.1348
   96CHL1    C9 9547   4.606   6.611   7.156  0.1531  0.2652  0.0277
   96CHL1    H9 9548   4.564   6.713   7.163 -2.7591 -0.9282  0.7784
   96CHL1   C10 9549   4.595   6.564   7.010  0.0652  0.2731 -0.0683
   96CHL1   C19 9550   4.612   6.407   6.993 -0.0832  0.6953  0.8713
   96CHL1  H19A 9551   4.517   6.374   7.041  0.8911 -0.2363  2.2164
   96CHL1  H19B 9552   4.633   6.378   6.888  3.2084  3.3198  0.7434
   96CHL1  H19C 9553   4.700   6.372   7.050 -0.3483 -0.3566  0.6476
   96CHL1    C1 9554   4.458   6.605   6.953 -0.3304 -0.5208  0.1672
   96CHL1   H1A 9555   4.380   6.536   6.993  0.0763 -0.2967  1.3840
   96CHL1   H1B 9556   4.435   6.707   6.988 -1.1996 -0.4288 -0.6468
   96CHL1    C2 9557   4.441   6.602   6.796 -0.9753 -0.7979  0.7714
   96CHL1   H2A 9558   4.347   6.646   6.754  0.7619  0.7876 -1.6336
   96CHL1   H2B 9559   4.450   6.500   6.752  1.0986  0.8339 -2.8666
   96CHL1   C20 9560   4.607   6.611   7.725 -0.3717  0.4097 -0.1145
   96CHL1   H20 9561   4.669   6.520   7.744  0.4188  0.1903 -3.3983
   96CHL1   C21 9562   4.459   6.561   7.728 -0.2595 -0.1531 -0.4868
   96CHL1  H21A 9563   4.441   6.466   7.673  1.3710 -0.2667 -0.8514
   96CHL1  H21B 9564   4.399   6.638   7.675  0.1730 -0.5920 -1.6207
   96CHL1  H21C 9565   4.416   6.550   7.830  0.0031 -0.2799 -0.3881
   96CHL1   C22 9566   4.624   6.702   7.846  0.3953 -0.1491 -0.0089
   96CHL1  H22A 9567   4.587   6.644   7.934 -1.0339 -0.9321 -1.1120
   96CHL1  H22B 9568   4.732   6.726   7.845 -0.1650  2.4947 -0.8358
   96CHL1   C23 9569   4.543   6.832   7.839  0.1999 -0.4838  0.3178
   96CHL1  H23A 9570   4.575   6.894   7.752  1.7231 -0.7150  0.7169
   96CHL1  H23B 9571   4.435   6.832   7.812 -0.2511  0.9326  2.0196
   96CHL1   C24 9572   4.555   6.923   7.972  0.5284 -0.9382 -0.2033
   96CHL1  H24A 9573   4.567   6.863   8.065 -2.5609  1.7908  2.0288
   96CHL1  H24B 9574   4.658   6.964   7.974 -0.9430  2.9959 -1.1615
   96CHL1   C25 9575   4.467   7.042   7.968  0.6669 -0.2226  0.2844
   96CHL1   H25 9576   4.500   7.098   7.878 -0.7211 -0.9885 -0.7236
   96CHL1   C26 9577   4.321   7.000   7.972  0.4191 -0.1908  0.2568
   96CHL1  H26A 9578   4.305   6.932   8.059  1.3467  1.4509  1.7298
   96CHL1  H26B 9579   4.250   7.079   8.004  2.1792  0.5771  2.4031
   96CHL1  H26C 9580   4.283   6.949   7.881  1.5355  3.5329 -2.3816
   96CHL1   C27 9581   4.500   7.126   8.098 -0.5229 -0.1999  0.2453
   96CHL1  H27A 9582   4.610   7.139   8.103 -0.3724 -0.6444 -1.5965
   96CHL1  H27B 9583   4.450   7.225   8.106  1.1523  0.5719  1.5682
   96CHL1  H27C 9584   4.467   7.060   8.182  1.8875  0.3083  1.6451
   97OSM      N 9585   1.819   0.587  11.351 -0.4406  0.2021 -0.2084
   97OSM    C15 9586   1.815   0.468  11.452 -0.2250  0.8016  0.3333
   97OSM   H15A 9587   1.724   0.415  11.430 -0.6889  1.2831  1.0909
   97OSM   H15B 9588   1.796   0.496  11.554 -3.8339  1.4789 -0.4642
   97OSM   H15C 9589   1.902   0.407  11.434 -1.2131 -0.2065 -1.1737
   97OSM    C14 9590   1.824   0.536  11.208 -0.6249 -0.0217  0.0030
   97OSM   H14A 9591   1.833   0.618  11.138 -2.3834  0.1086 -0.0990
   97OSM   H14B 9592   1.728   0.488  11.196 -1.8410  1.8124  1.9789
   97OSM   H14C 9593   1.905   0.465  11.198  1.0019  1.9023 -0.9898
   97OSM    C13 9594   1.697   0.669  11.366  0.7009 -0.5698  0.1421
   97OSM   H13A 9595   1.692   0.717  11.462  0.5988  0.7147 -0.4897
   97OSM   H13B 9596   1.602   0.619  11.362  0.1493  0.1809  2.8731
   97OSM   H13C 9597   1.700   0.745  11.289 -1.0605  2.8127  3.2708
   97OSM    C12 9598   1.940   0.659  11.397  0.1080  0.0933  0.4626
   97OSM   H12A 9599   2.025   0.593  11.386  0.4969  0.9171 -1.5892
   97OSM   H12B 9600   1.945   0.679  11.503  0.5344  0.9626  0.2822
   97OSM    C11 9601   1.991   0.783  11.313 -0.7217  0.0370  0.6230
   97OSM   H11A 9602   2.065   0.837  11.376 -0.1318  0.9170 -0.7998
   97OSM   H11B 9603   1.901   0.848  11.305 -0.9259 -0.1829  1.1484
   97OSM      P 9604   2.195   0.693  11.186 -0.0894 -0.2386  0.2142
   97OSM    O13 9605   2.277   0.798  11.240 -0.3711 -0.4589  0.5311
   97OSM    O14 9606   2.217   0.562  11.246  0.3802  0.3437  0.0743
   97OSM    O11 9607   2.213   0.691  11.029  0.3911 -0.5195 -0.0440
   97OSM    O12 9608   2.039   0.735  11.195 -0.3965  0.1516  0.1392
   97OSM    C1S 9609   2.112   0.621  10.956  0.3476  0.3703 -0.6995
   97OSM    H1S 9610   2.012   0.613  11.003  0.0640 -2.6873 -1.7249
   97OSM    H1T 9611   2.159   0.521  10.941  1.3470  0.7033  0.0871
   97OSM     NF 9612   1.991   0.607  10.747 -0.5695  0.5309  0.6041
   97OSM    HNF 9613   2.030   0.552  10.673 -1.4856  1.7140 -0.7997
   97OSM    C2S 9614   2.081   0.684  10.820  0.7139  0.4458 -0.4324
   97OSM    H2S 9615   2.031   0.782  10.835 -0.5494  0.0220 -1.7072
   97OSM    C3S 9616   2.217   0.718  10.750 -0.3740 -0.1075 -0.3976
   97OSM    H3S 9617   2.285   0.631  10.737 -0.0890 -0.3086  2.0557
   97OSM     O3 9618   2.296   0.814  10.821 -0.5419  0.0703 -0.3749
   97OSM    HO3 9619   2.260   0.802  10.910  1.6665 -1.3458  0.3711
   97OSM    C4S 9620   2.199   0.788  10.620 -0.5806  0.0285 -0.3461
   97OSM    H4S 9621   2.124   0.868  10.620  0.8949  1.4565 -0.6369
   97OSM    C5S 9622   2.252   0.758  10.501  0.2214 -0.1723  0.3147
   97OSM    H5S 9623   2.316   0.669  10.490 -2.0410 -2.2693  3.2129
   97OSM    C6S 9624   2.192   0.833  10.380  0.2291 -0.1986  0.9917
   97OSM    H6S 9625   2.224   0.939  10.374  3.3687 -1.1318  0.5486
   97OSM    H6T 9626   2.081   0.832  10.379  0.2042  1.3334  0.0847
   97OSM    C7S 9627   2.222   0.755  10.244  0.6002  0.1156  0.2012
   97OSM    H7S 9628   2.192   0.648  10.257 -2.2453  1.0346  1.6551
   97OSM    H7T 9629   2.332   0.756  10.232  0.4697 -0.7292 -1.2157
   97OSM    C8S 9630   2.156   0.820  10.123 -0.2522  0.1014  0.3554
   97OSM    H8S 9631   2.165   0.929  10.139  1.2039  0.0188  0.0974
   97OSM    H8T 9632   2.046   0.804  10.124 -0.0943 -1.0081  0.5185
   97OSM    C9S 9633   2.217   0.755   9.997  0.1086 -0.3474 -0.2194
   97OSM    H9S 9634   2.191   0.647  10.003  0.3265 -0.4500 -1.0887
   97OSM    H9T 9635   2.327   0.748  10.012  0.2917  1.6350 -0.4486
   97OSM   C10S 9636   2.185   0.817   9.860  0.5452 -0.5760 -0.9399
   97OSM   H10S 9637   2.242   0.910   9.837  1.6776 -1.3369 -1.2575
   97OSM   H10T 9638   2.087   0.870   9.856  1.9864  2.3489  0.6667
   97OSM   C11S 9639   2.209   0.717   9.751 -0.1106  0.6695  0.4128
   97OSM   H11S 9640   2.142   0.632   9.773 -0.2846  0.9878  1.1361
   97OSM   H11T 9641   2.317   0.692   9.758 -0.6898 -1.5876  1.8425
   97OSM   C12S 9642   2.182   0.776   9.610  0.4815 -0.0990  0.8827
   97OSM   H12S 9643   2.261   0.854   9.606  0.0817  0.2323 -0.9768
   97OSM   H12T 9644   2.086   0.832   9.611 -0.4184 -1.6061  0.9739
   97OSM   C13S 9645   2.205   0.672   9.504 -0.6379 -0.1256 -0.6888
   97OSM   H13S 9646   2.127   0.592   9.510  0.4350 -1.5760 -4.4285
   97OSM   H13T 9647   2.305   0.629   9.524 -0.3108  0.0598 -1.8392
   97OSM   C14S 9648   2.206   0.721   9.359  0.2506  0.4114  0.6847
   97OSM   H14S 9649   2.103   0.751   9.331 -0.0744 -2.7664 -1.7569
   97OSM   H14T 9650   2.232   0.634   9.295 -0.1743 -0.1050  1.2144
   97OSM   C15S 9651   2.302   0.833   9.317  0.0024 -0.1373  0.0809
   97OSM   H15S 9652   2.392   0.813   9.379  0.3667 -1.3780 -0.8111
   97OSM   H15T 9653   2.258   0.931   9.347 -1.5926 -0.7280 -0.2570
   97OSM   C16S 9654   2.332   0.843   9.175  0.2013 -1.0882  0.9781
   97OSM   H16S 9655   2.347   0.741   9.133 -0.7368 -1.7756  2.2847
   97OSM   H16T 9656   2.425   0.903   9.174 -0.1360 -0.5512  1.0198
   97OSM   C17S 9657   2.225   0.919   9.092 -0.3678 -0.0097  0.0771
   97OSM   H17S 9658   2.209   1.015   9.145 -4.0891  0.5984 -1.9668
   97OSM   H17T 9659   2.131   0.861   9.103 -1.2413  1.5690  1.1106
   97OSM   C18S 9660   2.252   0.943   8.946  0.3543  0.5323  0.5384
   97OSM   H18S 9661   2.292   0.849   8.901  0.3002  1.0301 -0.5452
   97OSM   H18T 9662   2.331   1.019   8.927  0.3635  0.1018 -1.2760
   97OSM   H18U 9663   2.164   0.966   8.883  0.3797  1.6017  0.8780
   97OSM    C1F 9664   1.867   0.583  10.777  0.7306 -0.1551  0.3726
   97OSM     OF 9665   1.808   0.648  10.867 -0.2133  0.2957 -0.4917
   97OSM    C2F 9666   1.803   0.472  10.701 -0.2110  0.3659  1.0081
   97OSM    H2F 9667   1.725   0.456  10.778 -0.6707 -1.7027  0.1334
   97OSM    H2G 9668   1.875   0.389  10.686  1.2523  2.2806 -3.3369
   97OSM    C3F 9669   1.737   0.520  10.566 -0.3964  0.6351  0.0910
   97OSM    H3F 9670   1.653   0.580  10.607 -0.5815  1.2941 -1.2157
   97OSM    H3G 9671   1.702   0.427  10.516  1.0956  0.5598 -0.8396
   97OSM    C4F 9672   1.811   0.596  10.455 -0.2643  1.1309 -0.6492
   97OSM    H4F 9673   1.898   0.539  10.416 -0.1599  1.2002 -0.5189
   97OSM    H4G 9674   1.846   0.685  10.512 -0.1266  0.7593 -0.1517
   97OSM    C5F 9675   1.724   0.626  10.335  0.4249 -0.4896  0.5490
   97OSM    H5F 9676   1.634   0.673  10.380 -0.2861  0.0831 -1.3953
   97OSM    H5G 9677   1.701   0.528  10.287  0.4842  0.1431 -0.7873
   97OSM    C6F 9678   1.781   0.729  10.235 -0.0080 -0.2492  0.4283
   97OSM    H6F 9679   1.873   0.682  10.194  0.0001  1.2673 -1.3912
   97OSM    H6G 9680   1.812   0.828  10.277 -0.0648 -0.4950  1.0540
   97OSM    C7F 9681   1.677   0.757  10.124  0.6045 -0.2063 -0.9609
   97OSM    H7F 9682   1.581   0.781  10.174  2.0459 -0.6715  2.0938
   97OSM    H7G 9683   1.666   0.671  10.055 -0.9448 -0.7176 -0.0885
   97OSM    C8F 9684   1.729   0.877  10.044 -0.1295  0.8354  0.4637
   97OSM    H8F 9685   1.823   0.841   9.997 -0.1723  0.9101  0.3225
   97OSM    H8G 9686   1.756   0.964  10.108 -1.9731  1.3183  0.6172
   97OSM    C9F 9687   1.613   0.907   9.955 -0.1449 -0.3035 -0.4766
   97OSM    H9F 9688   1.517   0.918  10.008  0.2756 -0.8975  0.4224
   97OSM   C10F 9689   1.619   0.917   9.819  0.3543 -0.2020  0.5024
   97OSM   H10F 9690   1.528   0.956   9.772  1.2364  1.2312 -0.0629
   97OSM   C11F 9691   1.732   0.910   9.727 -0.4149  0.5127 -0.2121
   97OSM   H11F 9692   1.734   0.812   9.675  1.3298  0.9571 -1.0208
   97OSM   H11G 9693   1.826   0.924   9.784 -0.3105 -0.5468 -0.1189
   97OSM   C12F 9694   1.724   1.006   9.612  0.4432  0.2083  0.0778
   97OSM   H12F 9695   1.753   1.109   9.644 -0.1634  0.0741  1.0570
   97OSM   H12G 9696   1.619   1.013   9.578  0.4568  2.6570  0.4346
   97OSM   C13F 9697   1.808   0.965   9.486  0.6674 -0.1473 -0.5056
   97OSM   H13F 9698   1.780   0.862   9.455  2.6951 -1.6736  2.4464
   97OSM   H13G 9699   1.915   0.964   9.518  0.5314  3.9448  0.2350
   97OSM   C14F 9700   1.785   1.071   9.374 -0.4673  0.1350  0.5699
   97OSM   H14F 9701   1.808   1.168   9.422 -1.7782  0.4275  0.6199
   97OSM   H14G 9702   1.678   1.072   9.346 -0.3243  2.5494  0.0314
   97OSM   C15F 9703   1.874   1.056   9.245  0.0824 -0.2526  0.0399
   97OSM   H15F 9704   1.858   0.963   9.186 -0.2183  0.0063 -0.2903
   97OSM   H15G 9705   1.980   1.062   9.277  0.1692  0.1712 -0.3261
   97OSM   C16F 9706   1.853   1.174   9.143  0.0961  0.1189 -0.5963
   97OSM   H16F 9707   1.875   1.268   9.198 -0.8770 -0.6723  1.2158
   97OSM   H16G 9708   1.742   1.173   9.131 -0.0150  1.2729  0.1692
   97OSM   C17F 9709   1.920   1.167   9.012 -0.1748  0.0234 -0.0231
   97OSM   H17F 9710   2.030   1.151   9.024  0.3308  4.4912  2.4457
   97OSM   H17G 9711   1.917   1.267   8.966 -2.3115  0.8306  1.7820
   97OSM   C18F 9712   1.867   1.050   8.920  0.4123 -0.2630 -0.3406
   97OSM   H18F 9713   1.907   0.951   8.950 -1.4217 -0.8989  0.0413
   97OSM   H18G 9714   1.904   1.057   8.815  0.5328 -1.5468 -0.3961
   97OSM   H18H 9715   1.756   1.051   8.914  0.4419  0.5158 -0.7686
   98OSM      N 9716   0.665   6.709  11.116 -0.7272 -0.6590  0.3516
   98OSM    C15 9717   0.625   6.628  11.003 -0.1184 -0.1490  0.1845
   98OSM   H15A 9718   0.669   6.666  10.912  0.4084 -0.3217  0.3652
   98OSM   H15B 9719   0.518   6.625  10.986 -0.1003  1.2588 -0.2546
   98OSM   H15C 9720   0.652   6.524  11.014  1.3155  0.3342  1.4088
   98OSM    C14 9721   0.614   6.854  11.090  0.8319 -0.1134  0.6825
   98OSM   H14A 9722   0.621   6.927  11.169 -1.5963  0.5384  0.3340
   98OSM   H14B 9723   0.514   6.854  11.049  1.0366 -0.1247  0.1865
   98OSM   H14C 9724   0.667   6.895  11.006  0.7510 -0.2820  0.5487
   98OSM    C13 9725   0.596   6.653  11.228  0.2001  0.2447  0.3087
   98OSM   H13A 9726   0.606   6.546  11.241 -3.8653 -0.1066  0.9102
   98OSM   H13B 9727   0.491   6.677  11.228 -0.5633 -2.8818 -0.7076
   98OSM   H13C 9728   0.631   6.693  11.322  0.7363 -0.7823  0.5530
   98OSM    C12 9729   0.814   6.701  11.128 -0.8784  0.0584 -0.2032
   98OSM   H12A 9730   0.838   6.596  11.137 -0.0070  0.3463  0.9401
   98OSM   H12B 9731   0.845   6.756  11.216  0.5748  1.5076 -1.6069
   98OSM    C11 9732   0.899   6.743  11.001  0.4235  0.3661 -0.1240
   98OSM   H11A 9733   0.875   6.676  10.915  1.0477  0.9103 -0.7261
   98OSM   H11B 9734   1.000   6.710  11.035  1.5617 -0.6163 -4.2109
   98OSM      P 9735   0.967   6.990  11.000 -0.1895 -0.1181  0.0501
   98OSM    O13 9736   0.891   7.115  11.017 -0.2346 -0.0450  0.7866
   98OSM    O14 9737   1.052   6.952  11.110  0.0037 -0.6167 -0.0290
   98OSM    O11 9738   1.058   6.995  10.871  0.2092  0.1141 -0.2408
   98OSM    O12 9739   0.871   6.872  10.961 -0.1262 -0.0519 -0.1437
   98OSM    C1S 9740   1.063   7.100  10.781  0.5001 -0.1162 -0.3193
   98OSM    H1S 9741   1.129   7.183  10.814  1.0517 -0.6347 -0.1344
   98OSM    H1T 9742   0.967   7.154  10.764  0.0980 -0.4554  0.8680
   98OSM     NF 9743   1.134   7.188  10.558 -0.2059  0.0719 -0.3849
   98OSM    HNF 9744   1.062   7.230  10.504  0.9510  0.4526 -1.6608
   98OSM    C2S 9745   1.113   7.067  10.628  0.4206 -0.1792 -0.2682
   98OSM    H2S 9746   1.211   7.015  10.638  0.6156  0.4185  0.9484
   98OSM    C3S 9747   1.009   6.967  10.573  0.7380  0.4142  0.2610
   98OSM    H3S 9748   0.909   7.009  10.599  0.5305 -0.4454  0.8490
   98OSM     O3 9749   1.010   6.842  10.643  0.5643 -0.6332 -0.0647
   98OSM    HO3 9750   1.041   6.865  10.730 -0.1662 -0.3795  0.1280
   98OSM    C4S 9751   1.016   6.948  10.419  0.6308  0.0666 -0.9327
   98OSM    H4S 9752   0.939   6.999  10.358  0.4951 -0.2000 -0.9828
   98OSM    C5S 9753   1.112   6.879  10.362 -0.3883  0.6137 -0.2527
   98OSM    H5S 9754   1.188   6.831  10.424  1.1415  0.3972 -2.2412
   98OSM    C6S 9755   1.125   6.854  10.210  0.2302  0.0276  0.0652
   98OSM    H6S 9756   1.097   6.748  10.189  1.2667 -0.6200  1.8109
   98OSM    H6T 9757   1.227   6.875  10.173  0.4341 -0.6977  0.1973
   98OSM    C7S 9758   1.025   6.943  10.121 -0.2635 -0.1509 -0.6349
   98OSM    H7S 9759   1.056   7.049  10.133 -1.0645 -0.2445  2.8510
   98OSM    H7T 9760   0.924   6.937  10.166  0.4816  0.8858  1.2213
   98OSM    C8S 9761   1.040   6.900   9.972  0.2640  0.0222 -0.3797
   98OSM    H8S 9762   0.950   6.839   9.949 -0.8516  0.7798  1.8024
   98OSM    H8T 9763   1.118   6.830   9.936 -1.8091 -1.7039 -1.6594
   98OSM    C9S 9764   1.049   7.028   9.881  0.0601  0.4179 -0.0451
   98OSM    H9S 9765   1.141   7.089   9.896  0.6548 -0.2623 -0.9135
   98OSM    H9T 9766   0.961   7.096   9.890  0.2699  0.9096 -1.6228
   98OSM   C10S 9767   1.063   6.986   9.736 -0.1783  0.3763  0.0898
   98OSM   H10S 9768   0.975   6.921   9.715 -1.1711  1.9945 -0.8727
   98OSM   H10T 9769   1.143   6.910   9.729 -0.8880 -0.6002  2.2776
   98OSM   C11S 9770   1.062   7.094   9.630  0.2666  0.3770  0.0682
   98OSM   H11S 9771   1.145   7.166   9.649  1.7396 -1.1843 -0.2503
   98OSM   H11T 9772   0.966   7.149   9.620  1.3859  2.5921  1.0737
   98OSM   C12S 9773   1.094   7.026   9.496 -0.0764  0.0150 -0.1604
   98OSM   H12S 9774   1.018   6.950   9.469 -1.6704  1.1462  1.0155
   98OSM   H12T 9775   1.183   6.962   9.516 -1.2601 -1.8998 -0.8558
   98OSM   C13S 9776   1.127   7.128   9.390 -0.2007 -0.0667  0.7619
   98OSM   H13S 9777   1.207   7.194   9.429  1.1742 -1.7427  0.8333
   98OSM   H13T 9778   1.036   7.185   9.361 -1.2636 -0.9748  2.2163
   98OSM   C14S 9779   1.181   7.053   9.262 -0.2364  0.9248  0.0095
   98OSM   H14S 9780   1.110   6.970   9.242 -0.1455 -0.3106  4.2772
   98OSM   H14T 9781   1.284   7.016   9.278 -0.0175  1.4428 -0.1721
   98OSM   C15S 9782   1.186   7.140   9.140 -0.2412  0.4131  0.3446
   98OSM   H15S 9783   1.215   7.241   9.178 -2.3502  0.5321  1.7265
   98OSM   H15T 9784   1.082   7.158   9.106 -0.3519  0.7971  0.8756
   98OSM   C16S 9785   1.275   7.076   9.037  0.3552  0.1052  0.0368
   98OSM   H16S 9786   1.224   6.977   9.034 -1.4618  1.0303 -0.2714
   98OSM   H16T 9787   1.374   7.074   9.088  0.2144  1.2115  0.3799
   98OSM   C17S 9788   1.284   7.156   8.909 -0.1077  0.5119 -0.2328
   98OSM   H17S 9789   1.305   7.263   8.932  2.5958  0.1982 -1.0526
   98OSM   H17T 9790   1.179   7.158   8.870 -0.3817  0.9665  0.5237
   98OSM   C18S 9791   1.376   7.104   8.797 -0.0059 -0.0410 -0.4286
   98OSM   H18S 9792   1.348   7.158   8.704  3.2266  2.2684 -0.1519
   98OSM   H18T 9793   1.357   6.997   8.777 -1.7588  0.0374  0.6899
   98OSM   H18U 9794   1.477   7.125   8.838  1.1441 -0.7159 -2.8384
   98OSM    C1F 9795   1.244   7.266  10.583  0.7037  0.3472 -0.3672
   98OSM     OF 9796   1.319   7.232  10.677  0.0647 -0.2594  0.2756
   98OSM    C2F 9797   1.260   7.386  10.502  0.2452  0.0211 -0.4336
   98OSM    H2F 9798   1.309   7.473  10.551 -0.4467  0.8583 -1.2090
   98OSM    H2G 9799   1.161   7.424  10.467 -0.7002 -1.2168  0.8185
   98OSM    C3F 9800   1.354   7.355  10.375 -0.1260 -0.0379 -0.3634
   98OSM    H3F 9801   1.447   7.305  10.408 -0.8167 -0.6468  0.7153
   98OSM    H3G 9802   1.370   7.441  10.307 -0.7729  0.1079 -0.3359
   98OSM    C4F 9803   1.294   7.241  10.292  0.1350 -0.4466  0.8153
   98OSM    H4F 9804   1.186   7.253  10.268  0.7780 -0.7943 -2.5583
   98OSM    H4G 9805   1.302   7.150  10.355 -1.7505  0.2114  2.0344
   98OSM    C5F 9806   1.367   7.215  10.156 -0.1310 -1.0986  0.2286
   98OSM    H5F 9807   1.344   7.115  10.114 -0.1603 -0.8412 -0.3700
   98OSM    H5G 9808   1.476   7.229  10.177  0.1783 -2.3925 -0.4436
   98OSM    C6F 9809   1.329   7.323  10.052  0.3824 -0.0052  0.6766
   98OSM    H6F 9810   1.337   7.422  10.102 -1.1301 -0.5979  2.1047
   98OSM    H6G 9811   1.224   7.301  10.023  1.2117 -3.3636  0.0448
   98OSM    C7F 9812   1.426   7.339   9.941 -0.5064  0.6561  0.0748
   98OSM    H7F 9813   1.445   7.239   9.896  1.0390 -0.0637  2.2260
   98OSM    H7G 9814   1.531   7.353   9.973 -0.7824  1.1147  0.7778
   98OSM    C8F 9815   1.384   7.442   9.846 -0.0025  0.1463 -0.1031
   98OSM    H8F 9816   1.475   7.442   9.782  0.0793  3.0158 -0.0413
   98OSM    H8G 9817   1.363   7.538   9.898  0.1712  1.0152 -1.6094
   98OSM    C9F 9818   1.263   7.407   9.757 -0.2788  0.0083 -0.8102
   98OSM    H9F 9819   1.181   7.366   9.817 -2.1976  1.7447 -2.1860
   98OSM   C10F 9820   1.234   7.444   9.630  0.7974 -0.0916  0.8064
   98OSM   H10F 9821   1.148   7.399   9.577 -0.2765  1.8603  0.8505
   98OSM   C11F 9822   1.326   7.520   9.541 -0.2696 -0.3704  0.1770
   98OSM   H11F 9823   1.372   7.455   9.464  0.7433  0.3869  0.1334
   98OSM   H11G 9824   1.412   7.554   9.602 -0.1497 -0.8599  0.2809
   98OSM   C12F 9825   1.262   7.647   9.479  0.2444 -0.1931  0.2399
   98OSM   H12F 9826   1.218   7.712   9.557 -0.8116 -0.3313 -0.2300
   98OSM   H12G 9827   1.180   7.603   9.418  0.4820  1.1996 -1.1155
   98OSM   C13F 9828   1.357   7.730   9.404  0.2408 -0.1448  0.0322
   98OSM   H13F 9829   1.425   7.663   9.346 -0.2737  0.2942 -1.1093
   98OSM   H13G 9830   1.414   7.786   9.481 -0.6770  1.2954 -0.3206
   98OSM   C14F 9831   1.293   7.835   9.305  0.5573 -0.0912 -0.3611
   98OSM   H14F 9832   1.238   7.896   9.379 -1.8393 -0.4773 -1.7755
   98OSM   H14G 9833   1.225   7.778   9.238 -0.4282 -0.4023  0.8770
   98OSM   C15F 9834   1.394   7.920   9.226  0.1868  0.8327 -0.5088
   98OSM   H15F 9835   1.479   7.855   9.196  0.9327  1.8924 -0.7306
   98OSM   H15G 9836   1.440   7.996   9.293 -2.1047  0.4613  1.5877
   98OSM   C16F 9837   1.350   8.004   9.112 -0.0542 -0.2254  0.2829
   98OSM   H16F 9838   1.265   8.070   9.139 -0.2021 -0.1151 -0.4180
   98OSM   H16G 9839   1.314   7.928   9.040  0.8292  0.2986 -0.7315
   98OSM   C17F 9840   1.452   8.090   9.044  0.0014 -0.0195 -0.5348
   98OSM   H17F 9841   1.537   8.028   9.007  0.5198  0.1475  0.3585
   98OSM   H17G 9842   1.489   8.169   9.112 -1.2483  0.1316 -0.0302
   98OSM   C18F 9843   1.393   8.158   8.922 -0.0779 -0.2571  0.4304
   98OSM   H18F 9844   1.293   8.196   8.952 -0.4133 -1.1372  0.4480
   98OSM   H18G 9845   1.372   8.085   8.841 -2.9556  0.5382  0.3808
   98OSM   H18H 9846   1.458   8.237   8.881  1.2022 -2.0421 -1.0744
   99OSM      N 9847   4.424   1.925  10.991  0.0110 -0.6085 -0.0333
   99OSM    C15 9848   4.396   2.042  11.082 -1.3804  0.3776  0.0305
   99OSM   H15A 9849   4.292   2.048  11.110 -1.0682  0.5129  1.1899
   99OSM   H15B 9850   4.433   2.133  11.037  0.3388 -0.0035  0.6308
   99OSM   H15C 9851   4.463   2.039  11.167 -1.3431 -1.0830 -0.0383
   99OSM    C14 9852   4.333   1.947  10.866 -0.4994 -0.1619 -0.4757
   99OSM   H14A 9853   4.379   2.022  10.804  1.2477  0.3735  1.4158
   99OSM   H14B 9854   4.231   1.971  10.892 -0.3268 -0.4036  0.4411
   99OSM   H14C 9855   4.332   1.854  10.810  1.7726 -1.3876  1.4100
   99OSM    C13 9856   4.562   1.939  10.931 -0.3032 -0.4941  0.5041
   99OSM   H13A 9857   4.569   2.033  10.877  1.8991 -1.8349 -1.6655
   99OSM   H13B 9858   4.599   1.862  10.865  1.7848  1.3500 -0.5594
   99OSM   H13C 9859   4.638   1.948  11.007 -1.1984  0.0360  1.3373
   99OSM    C12 9860   4.408   1.790  11.066 -0.7603 -0.1710 -0.0447
   99OSM   H12A 9861   4.306   1.787  11.103 -1.3636  5.3029 -0.7761
   99OSM   H12B 9862   4.486   1.776  11.140  2.0677 -0.2959 -2.9790
   99OSM    C11 9863   4.432   1.658  10.988  0.5647 -0.3778 -0.7031
   99OSM   H11A 9864   4.460   1.576  11.058 -0.0590 -0.3863 -0.4686
   99OSM   H11B 9865   4.528   1.654  10.931  2.3209 -0.1902  2.1114
   99OSM      P 9866   4.188   1.574  10.978 -0.1315 -0.1064 -0.5070
   99OSM    O13 9867   4.230   1.461  11.061  0.2678  0.3057  0.0013
   99OSM    O14 9868   4.124   1.685  11.051  0.0979  0.0296 -0.3771
   99OSM    O11 9869   4.099   1.518  10.862  0.2559  0.3664 -0.0377
   99OSM    O12 9870   4.319   1.622  10.909  0.3809 -0.0244 -0.1740
   99OSM    C1S 9871   4.083   1.594  10.740 -0.2662  0.3291  0.0085
   99OSM    H1S 9872   4.178   1.600  10.682  0.1870  0.0817  0.7183
   99OSM    H1T 9873   4.037   1.691  10.766 -1.4984 -0.6393  1.5520
   99OSM     NF 9874   3.997   1.549  10.508  0.4241  0.1246 -0.3828
   99OSM    HNF 9875   3.933   1.612  10.466  1.1294  1.1887  0.1092
   99OSM    C2S 9876   3.970   1.534  10.651  0.2093  0.7128 -0.5127
   99OSM    H2S 9877   3.961   1.424  10.670  2.6619  0.6036  0.2390
   99OSM    C3S 9878   3.838   1.589  10.716  0.3597  0.3217 -0.2668
   99OSM    H3S 9879   3.834   1.700  10.711 -1.2567  0.2428 -1.1292
   99OSM     O3 9880   3.827   1.554  10.855  0.1039 -0.0396 -0.2332
   99OSM    HO3 9881   3.912   1.553  10.901 -1.0415 -1.6139  1.9214
   99OSM    C4S 9882   3.716   1.537  10.642 -0.3850  0.1194  0.5908
   99OSM    H4S 9883   3.649   1.614  10.601 -0.2841 -0.4521 -0.6897
   99OSM    C5S 9884   3.657   1.414  10.659 -0.3420 -0.3322  0.3389
   99OSM    H5S 9885   3.715   1.340  10.715 -1.5974 -0.6918  1.1681
   99OSM    C6S 9886   3.522   1.373  10.607 -0.0754 -0.2937  0.0119
   99OSM    H6S 9887   3.449   1.375  10.691 -2.2185  0.4978 -1.8103
   99OSM    H6T 9888   3.535   1.267  10.579 -1.1527 -0.7126  1.0559
   99OSM    C7S 9889   3.474   1.451  10.482 -0.4287 -0.6641 -0.6441
   99OSM    H7S 9890   3.459   1.557  10.512 -1.3963 -0.7705 -0.7525
   99OSM    H7T 9891   3.370   1.419  10.459 -0.3497 -0.5047 -1.2191
   99OSM    C8S 9892   3.549   1.427  10.353  0.1507 -0.2393  0.0053
   99OSM    H8S 9893   3.579   1.320  10.350 -0.8642 -0.5304  0.0411
   99OSM    H8T 9894   3.643   1.487  10.352 -0.0397  0.0910  1.0331
   99OSM    C9S 9895   3.463   1.469  10.230  0.5753  0.1985 -0.0874
   99OSM    H9S 9896   3.464   1.578  10.248  3.1030  0.2338 -0.3125
   99OSM    H9T 9897   3.361   1.424  10.240  0.1771  0.7590 -1.4654
   99OSM   C10S 9898   3.524   1.435  10.098 -0.3259  0.2457 -0.0181
   99OSM   H10S 9899   3.528   1.324  10.089  1.9013  0.4559 -2.0092
   99OSM   H10T 9900   3.629   1.471  10.104 -0.3308  0.1383  0.8152
   99OSM   C11S 9901   3.453   1.484   9.972 -0.0288  0.1093 -0.1719
   99OSM   H11S 9902   3.457   1.596   9.970 -0.4357  0.1041 -1.7396
   99OSM   H11T 9903   3.349   1.448   9.981 -0.1070  0.2280 -0.6093
   99OSM   C12S 9904   3.510   1.450   9.836  0.3728 -0.5732  0.6056
   99OSM   H12S 9905   3.613   1.490   9.825  0.6629 -1.3684  0.3965
   99OSM   H12T 9906   3.514   1.340   9.826  0.4725 -0.5927  0.8598
   99OSM   C13S 9907   3.406   1.489   9.728  0.7873  0.2889 -0.0291
   99OSM   H13S 9908   3.362   1.590   9.745  2.5147  1.2013 -0.7589
   99OSM   H13T 9909   3.328   1.410   9.728 -0.4172  1.4582 -0.1954
   99OSM   C14S 9910   3.490   1.488   9.600  0.0656  0.4159 -0.3027
   99OSM   H14S 9911   3.546   1.393   9.592  1.5071  1.2793 -0.6284
   99OSM   H14T 9912   3.562   1.572   9.601  0.1939  0.4114  4.8622
   99OSM   C15S 9913   3.414   1.474   9.472 -0.0090  0.9145 -0.0764
   99OSM   H15S 9914   3.338   1.554   9.460 -0.4889  0.2995 -1.2207
   99OSM   H15T 9915   3.373   1.370   9.475  0.6467  0.6779  1.7561
   99OSM   C16S 9916   3.513   1.492   9.348 -0.0399 -0.1523 -0.2298
   99OSM   H16S 9917   3.566   1.395   9.336 -1.7390 -0.8851 -2.1252
   99OSM   H16T 9918   3.592   1.562   9.382 -0.5840 -0.2085  1.1665
   99OSM   C17S 9919   3.440   1.530   9.220 -0.4733 -0.3580 -0.0328
   99OSM   H17S 9920   3.509   1.542   9.134 -0.0555  3.1825  0.7174
   99OSM   H17T 9921   3.417   1.637   9.242  0.4106  0.0234 -0.9554
   99OSM   C18S 9922   3.312   1.465   9.172  0.6239  0.0145 -0.8647
   99OSM   H18S 9923   3.282   1.518   9.079  2.0244  0.7375 -0.9175
   99OSM   H18T 9924   3.236   1.472   9.253  1.1657  0.1980 -0.3675
   99OSM   H18U 9925   3.326   1.358   9.146 -0.0752 -0.1120 -0.7454
   99OSM    C1F 9926   4.099   1.490  10.444  0.1554  0.1346 -0.1834
   99OSM     OF 9927   4.138   1.379  10.484  0.6851  0.5757  0.0432
   99OSM    C2F 9928   4.155   1.547  10.315  0.0867  0.6527 -0.6285
   99OSM    H2F 9929   4.183   1.464  10.247 -1.0036  0.8729 -1.3676
   99OSM    H2G 9930   4.240   1.614  10.342  1.4670 -1.0329 -0.7193
   99OSM    C3F 9931   4.065   1.648  10.241  0.1288  0.3678  0.2222
   99OSM    H3F 9932   4.018   1.721  10.310  0.4764 -0.8809  1.8432
   99OSM    H3G 9933   4.132   1.702  10.171  0.4935 -0.3626 -0.0038
   99OSM    C4F 9934   3.937   1.587  10.172 -0.1350 -0.4780 -0.4388
   99OSM    H4F 9935   3.878   1.533  10.249  0.6748 -0.4368  0.2172
   99OSM    H4G 9936   3.967   1.513  10.094 -1.4505  0.0464 -1.4535
   99OSM    C5F 9937   3.868   1.701  10.100 -0.1201  0.1155  0.0765
   99OSM    H5F 9938   3.872   1.783  10.174 -1.9545  0.4860 -0.2130
   99OSM    H5G 9939   3.762   1.668  10.098 -0.2093  0.4448 -0.6301
   99OSM    C6F 9940   3.914   1.739   9.956  0.0517  0.1070 -0.8218
   99OSM    H6F 9941   3.929   1.648   9.895 -3.4531 -2.1115  1.4333
   99OSM    H6G 9942   4.009   1.796   9.961  0.0332  0.0721  0.0217
   99OSM    C7F 9943   3.804   1.816   9.886  0.0969 -0.3873  0.2398
   99OSM    H7F 9944   3.772   1.897   9.956 -0.2430 -1.4188  1.2832
   99OSM    H7G 9945   3.716   1.750   9.868  0.3431 -0.3332 -1.2820
   99OSM    C8F 9946   3.848   1.885   9.750 -0.2801  0.5160 -0.3227
   99OSM    H8F 9947   3.904   1.977   9.779  1.7361 -1.4660  2.4365
   99OSM    H8G 9948   3.753   1.919   9.705  1.2159  1.3231 -2.9556
   99OSM    C9F 9949   3.945   1.805   9.665  0.3427  0.6852 -1.1622
   99OSM    H9F 9950   4.020   1.752   9.726 -0.3182 -0.1757 -1.0940
   99OSM   C10F 9951   3.934   1.806   9.529  0.0780  0.4753  0.0124
   99OSM   H10F 9952   3.994   1.727   9.483 -0.4149  0.1990 -0.1607
   99OSM   C11F 9953   3.838   1.880   9.450  0.3738 -0.2017  0.0337
   99OSM   H11F 9954   3.890   1.920   9.360  1.2249 -2.5907 -0.5746
   99OSM   H11G 9955   3.808   1.972   9.505 -0.3396  0.1947 -0.9889
   99OSM   C12F 9956   3.723   1.799   9.388  0.1306  0.0877  0.0629
   99OSM   H12F 9957   3.682   1.747   9.478 -0.3683  1.8571  0.8791
   99OSM   H12G 9958   3.769   1.724   9.320  0.8194  2.0994 -1.7360
   99OSM   C13F 9959   3.613   1.889   9.329 -0.5078  0.4064 -1.2570
   99OSM   H13F 9960   3.573   1.946   9.415  1.8181  1.7326 -1.0233
   99OSM   H13G 9961   3.534   1.821   9.290 -0.4114 -0.1613 -0.4638
   99OSM   C14F 9962   3.659   1.983   9.214  0.1823  0.2396 -0.1011
   99OSM   H14F 9963   3.735   2.053   9.254  1.4660 -0.1294 -1.8616
   99OSM   H14G 9964   3.577   2.040   9.165 -1.2617 -1.5014  0.2370
   99OSM   C15F 9965   3.726   1.906   9.093 -0.2118 -0.1961 -0.5161
   99OSM   H15F 9966   3.824   1.859   9.116  1.2909  2.7650 -0.6391
   99OSM   H15G 9967   3.748   1.979   9.012 -0.1467  2.2482  1.6242
   99OSM   C16F 9968   3.645   1.792   9.040 -0.4739  0.2926  0.2208
   99OSM   H16F 9969   3.540   1.829   9.034 -1.2751 -2.1174 -1.1102
   99OSM   H16G 9970   3.656   1.702   9.105  0.0378  0.2120  0.0243
   99OSM   C17F 9971   3.693   1.749   8.900 -0.2604  0.2343  0.0574
   99OSM   H17F 9972   3.717   1.838   8.838  2.0102  0.8644  1.7679
   99OSM   H17G 9973   3.611   1.706   8.839 -0.0296 -0.9610  0.5725
   99OSM   C18F 9974   3.811   1.649   8.894  0.5122  0.2673 -0.1823
   99OSM   H18F 9975   3.783   1.565   8.961 -0.3943  1.9862  1.6440
   99OSM   H18G 9976   3.894   1.701   8.947 -0.7981  1.1440  1.0552
   99OSM   H18H 9977   3.821   1.625   8.786 -1.9089 -2.1391  0.0681
  100OSM      N 9978   6.141   1.301  10.931  0.5821 -0.3779 -0.2678
  100OSM    C15 9979   6.161   1.369  11.060 -0.5241 -0.7304 -0.2424
  100OSM   H15A 9980   6.187   1.472  11.040  0.4482 -0.9303 -0.0303
  100OSM   H15B 9981   6.238   1.330  11.125  0.2512  0.6797 -0.2937
  100OSM   H15C 9982   6.069   1.371  11.118 -0.7447 -0.5799 -0.5921
  100OSM    C14 9983   6.121   1.160  10.965  0.0078  0.1196 -0.5104
  100OSM   H14A 9984   6.066   1.147  11.058  0.4555 -0.1771 -0.2853
  100OSM   H14B 9985   6.221   1.120  10.971 -0.2990 -1.2133 -3.4041
  100OSM   H14C 9986   6.074   1.105  10.885 -0.9761  0.9479 -0.5021
  100OSM    C13 9987   6.026   1.355  10.872  1.0618  0.4054 -0.5564
  100OSM   H13A 9988   5.935   1.337  10.928  0.9550  1.1656 -0.4731
  100OSM   H13B 9989   6.011   1.329  10.769  1.1800  0.1211 -0.5029
  100OSM   H13C 9990   6.044   1.461  10.861 -2.5158  0.8633 -2.6038
  100OSM    C12 9991   6.266   1.313  10.842 -0.3608 -0.3970  0.0863
  100OSM   H12A 9992   6.253   1.233  10.771  2.5087 -1.2636  0.4842
  100OSM   H12B 9993   6.352   1.292  10.904 -0.1409 -1.0643 -0.4351
  100OSM    C11 9994   6.283   1.446  10.760 -0.1600  0.6558 -0.1050
  100OSM   H11A 9995   6.198   1.443  10.688 -0.1674 -2.0221 -0.0528
  100OSM   H11B 9996   6.373   1.437  10.695  0.7615 -0.0672  1.2460
  100OSM      P 9997   6.224   1.695  10.798 -0.2506 -0.0520 -0.4682
  100OSM    O13 9998   6.075   1.680  10.815 -0.0849  0.4253  0.1713
  100OSM    O14 9999   6.287   1.808  10.882 -0.6547  0.4844 -0.0867
  100OSM    O1110000   6.253   1.717  10.651 -0.0484 -0.7911 -0.5712
  100OSM    O1210001   6.297   1.561  10.843  0.1688 -0.8245 -0.3253
  100OSM    C1S10002   6.191   1.660  10.537  0.1565 -0.1153 -0.2398
  100OSM    H1S10003   6.104   1.594  10.559 -0.7430  0.7814 -1.0601
  100OSM    H1T10004   6.270   1.598  10.489 -1.0931 -1.2025 -0.9153
  100OSM     NF10005   6.074   1.695  10.323  0.0983 -0.2911  0.3331
  100OSM    HNF10006   6.126   1.682  10.239 -1.3927  2.0408 -1.0238
  100OSM    C2S10007   6.133   1.768  10.436  0.4016  0.2108 -0.3981
  100OSM    H2S10008   6.055   1.825  10.489 -1.2946  0.9140 -3.5088
  100OSM    C3S10009   6.241   1.866  10.394 -0.6927 -0.1551  0.2198
  100OSM    H3S10010   6.316   1.811  10.332  1.8741  2.3037  1.0480
  100OSM     O310011   6.309   1.934  10.497  0.3193 -0.4106 -0.3543
  100OSM    HO310012   6.298   1.875  10.572 -0.3314  0.9468  0.6405
  100OSM    C4S10013   6.172   1.962  10.302 -0.0776 -0.4444  0.2026
  100OSM    H4S10014   6.106   2.032  10.356 -1.0374 -0.8802 -0.4055
  100OSM    C5S10015   6.191   1.976  10.173  0.3818  0.0241  0.3634
  100OSM    H5S10016   6.264   1.910  10.124  1.3057  1.9691 -0.9558
  100OSM    C6S10017   6.119   2.071  10.086  0.4068  0.0772  0.1127
  100OSM    H6S10018   6.181   2.162  10.069 -0.4959  0.7673  0.4926
  100OSM    H6T10019   6.024   2.103  10.132  1.3650  0.0331  2.1609
  100OSM    C7S10020   6.070   2.026   9.941 -0.0569  0.4800 -0.3082
  100OSM    H7S10021   6.024   1.926   9.947  1.0783 -0.1133 -1.3107
  100OSM    H7T10022   6.157   2.007   9.875  2.6475  2.2080  2.5884
  100OSM    C8S10023   5.979   2.130   9.868 -1.2857 -0.1194 -0.0093
  100OSM    H8S10024   6.040   2.219   9.841  0.0295 -0.6351  1.1720
  100OSM    H8T10025   5.908   2.167   9.945 -1.2785 -2.4401  1.1469
  100OSM    C9S10026   5.902   2.077   9.747 -0.1390  0.2434  0.1284
  100OSM    H9S10027   5.827   2.153   9.715  0.0893  0.7454  0.7708
  100OSM    H9T10028   5.843   1.986   9.767 -0.5462  0.0159 -1.9599
  100OSM   C10S10029   5.977   2.048   9.617 -0.2857 -0.4367  0.0569
  100OSM   H10S10030   6.047   1.962   9.629  0.5518  0.6719  3.9893
  100OSM   H10T10031   6.030   2.137   9.576  0.6156 -1.6375 -1.4272
  100OSM   C11S10032   5.870   2.015   9.505  0.1761  0.5092  0.6117
  100OSM   H11S10033   5.778   2.076   9.505  1.3956  2.3888  0.7668
  100OSM   H11T10034   5.830   1.914   9.527 -0.2614  0.5221 -0.1003
  100OSM   C12S10035   5.937   2.011   9.369 -0.2129 -0.2127  0.1196
  100OSM   H12S10036   6.025   1.943   9.364  0.7846  0.9240  1.9887
  100OSM   H12T10037   5.981   2.110   9.347  1.0645 -1.0724 -1.2851
  100OSM   C13S10038   5.836   1.989   9.262 -0.3972 -0.4809  0.3226
  100OSM   H13S10039   5.764   2.072   9.277  2.9825  2.6035  0.4693
  100OSM   H13T10040   5.781   1.893   9.269 -3.2478  1.1586  1.0018
  100OSM   C14S10041   5.897   1.998   9.117  0.8970  0.5155  0.6389
  100OSM   H14S10042   5.979   1.925   9.098  0.3683  0.5771 -1.9685
  100OSM   H14T10043   5.947   2.096   9.130  1.0163  0.6762 -0.9549
  100OSM   C15S10044   5.790   2.003   9.014 -0.1149  0.5171 -0.7624
  100OSM   H15S10045   5.755   2.104   8.985  2.4541  1.9812  0.9716
  100OSM   H15T10046   5.705   1.960   9.071  0.7430  0.6640  0.6779
  100OSM   C16S10047   5.817   1.924   8.882  0.2380  0.1356 -0.2942
  100OSM   H16S10048   5.883   1.986   8.818 -0.7975  0.1770 -1.3506
  100OSM   H16T10049   5.718   1.919   8.830 -1.2036 -1.5102  2.4988
  100OSM   C17S10050   5.864   1.780   8.892 -0.5951 -0.2130  0.1018
  100OSM   H17S10051   5.841   1.723   8.985  0.2637 -2.2062 -0.8673
  100OSM   H17T10052   5.973   1.770   8.876 -0.5861 -2.2432  1.2502
  100OSM   C18S10053   5.807   1.695   8.772  0.6327  0.6508  0.3972
  100OSM   H18S10054   5.696   1.689   8.777  0.8260 -3.3094  1.3088
  100OSM   H18T10055   5.854   1.596   8.759  1.3586  1.2972 -2.2626
  100OSM   H18U10056   5.838   1.749   8.680  0.3326 -2.6753 -1.7423
  100OSM    C1F10057   5.957   1.632  10.335  0.4072 -0.4944 -0.5145
  100OSM     OF10058   5.885   1.662  10.425  0.2361 -0.2474 -0.4894
  100OSM    C2F10059   5.926   1.523  10.229 -0.3803 -0.7553 -0.7300
  100OSM    H2F10060   5.954   1.421  10.265 -0.7479 -1.1910 -1.6481
  100OSM    H2G10061   5.993   1.553  10.146  0.8135  0.5365  0.6789
  100OSM    C3F10062   5.771   1.531  10.177  0.0403 -0.2136  0.0028
  100OSM    H3F10063   5.707   1.505  10.264  1.3072 -0.5173  0.8589
  100OSM    H3G10064   5.761   1.453  10.099 -2.1992  0.7544 -0.7236
  100OSM    C4F10065   5.727   1.673  10.124 -0.7441 -0.7317 -0.1966
  100OSM    H4F10066   5.739   1.748  10.205  2.7127  3.5119 -4.4274
  100OSM    H4G10067   5.622   1.666  10.088 -0.7175 -1.8501 -0.0760
  100OSM    C5F10068   5.806   1.727  10.000 -0.2127  0.3932 -0.0528
  100OSM    H5F10069   5.913   1.698  10.004 -0.8598 -2.2354 -0.9776
  100OSM    H5G10070   5.793   1.834  10.031 -0.6406  0.4906 -0.5705
  100OSM    C6F10071   5.752   1.685   9.864  0.3614 -0.1043 -0.1953
  100OSM    H6F10072   5.675   1.762   9.841 -0.7910 -0.7701  1.3712
  100OSM    H6G10073   5.701   1.587   9.877 -0.1799  0.0372 -1.1829
  100OSM    C7F10074   5.856   1.668   9.757  0.6164  0.1667 -0.0882
  100OSM    H7F10075   5.927   1.584   9.777 -0.6757 -0.7282  0.8521
  100OSM    H7G10076   5.910   1.765   9.758 -0.2073  0.6180  0.6460
  100OSM    C8F10077   5.807   1.660   9.608  0.3580 -0.5693  0.9280
  100OSM    H8F10078   5.883   1.700   9.537 -0.8880  2.6940  1.3446
  100OSM    H8G10079   5.721   1.729   9.596  0.6960 -0.2709  0.2074
  100OSM    C9F10080   5.753   1.527   9.565  0.3156  0.5599 -0.6037
  100OSM    H9F10081   5.736   1.466   9.654  1.8357  0.7526 -0.1703
  100OSM   C10F10082   5.752   1.475   9.445 -0.3869  0.3903  0.1845
  100OSM   H10F10083   5.711   1.374   9.432 -3.0491  1.7650 -2.7917
  100OSM   C11F10084   5.803   1.536   9.319  0.0802  0.6740 -0.1424
  100OSM   H11F10085   5.802   1.646   9.332 -0.4665  0.4337  2.0213
  100OSM   H11G10086   5.738   1.514   9.232 -0.3615  1.7878 -0.1062
  100OSM   C12F10087   5.945   1.486   9.276  0.4391  0.0275  0.0000
  100OSM   H12F10088   5.948   1.375   9.282  0.0815  0.0190  0.0538
  100OSM   H12G10089   6.014   1.532   9.351 -1.3698 -0.8154  2.2581
  100OSM   C13F10090   5.987   1.529   9.134  0.3331 -0.3716 -0.2891
  100OSM   H13F10091   6.007   1.637   9.119 -0.2738 -0.3612 -1.0901
  100OSM   H13G10092   5.908   1.489   9.066 -1.3661  0.2971  1.2462
  100OSM   C14F10093   6.113   1.454   9.072  0.2112 -0.1545 -0.5241
  100OSM   H14F10094   6.131   1.354   9.116 -0.5220  0.2000  0.6137
  100OSM   H14G10095   6.204   1.514   9.095 -1.1672  2.4214 -1.5808
  100OSM   C15F10096   6.096   1.455   8.921  0.0546  0.9631  0.3499
  100OSM   H15F10097   6.091   1.560   8.885 -1.0640  0.9445  0.4278
  100OSM   H15G10098   6.000   1.414   8.883  0.1545  0.3093  0.7878
  100OSM   C16F10099   6.208   1.393   8.834  0.1957  0.0219  0.6866
  100OSM   H16F10100   6.209   1.282   8.833 -2.2251 -0.0256  0.7411
  100OSM   H16G10101   6.301   1.435   8.877 -0.7466  1.4941  1.2992
  100OSM   C17F10102   6.206   1.440   8.694  0.5864 -0.2085 -0.3243
  100OSM   H17F10103   6.197   1.550   8.680  0.0760 -0.1621  0.3019
  100OSM   H17G10104   6.112   1.403   8.646  2.0095 -1.3267 -2.3085
  100OSM   C18F10105   6.326   1.384   8.618 -0.6200 -0.2171  0.3318
  100OSM   H18F10106   6.416   1.398   8.681  1.0969 -1.4037 -1.7700
  100OSM   H18G10107   6.344   1.448   8.529  1.7350  1.4714  1.9614
  100OSM   H18H10108   6.305   1.283   8.577 -0.1528 -0.7335  1.3753
  101OSM      N10109   1.332   1.378  11.065  0.6954 -0.5426 -0.2843
  101OSM    C1510110   1.398   1.269  11.140 -0.1151 -0.0874 -0.5626
  101OSM   H15A10111   1.333   1.214  11.206  1.1616 -0.8303  0.1090
  101OSM   H15B10112   1.463   1.305  11.218  0.6567 -2.9983  0.2060
  101OSM   H15C10113   1.447   1.199  11.072  1.4373  1.7021 -1.3412
  101OSM    C1410114   1.241   1.311  10.971 -0.4425  0.9246  0.1764
  101OSM   H14A10115   1.279   1.241  10.898  0.2445  0.0057  1.3924
  101OSM   H14B10116   1.165   1.374  10.928 -0.9305  1.0782  1.2576
  101OSM   H14C10117   1.176   1.243  11.024 -1.2190  0.7000 -1.0439
  101OSM    C1310118   1.239   1.449  11.171  0.1848 -0.0308 -0.1485
  101OSM   H13A10119   1.300   1.487  11.251 -2.6795  5.4173 -0.3937
  101OSM   H13B10120   1.161   1.383  11.205 -1.9599  2.7149  0.3604
  101OSM   H13C10121   1.190   1.531  11.122  0.3700  1.1310  1.5826
  101OSM    C1210122   1.426   1.476  10.999  0.9213  0.0814  0.1599
  101OSM   H12A10123   1.374   1.550  10.940  0.6186  0.0630  0.4067
  101OSM   H12B10124   1.491   1.426  10.927  1.0785  0.4009  0.0832
  101OSM    C1110125   1.524   1.556  11.097  0.5163 -0.1976  0.4745
  101OSM   H11A10126   1.605   1.590  11.030  2.2318  0.0342  2.6337
  101OSM   H11B10127   1.575   1.499  11.177  3.3484  0.0831 -1.0530
  101OSM      P10128   1.389   1.776  11.056  0.0934 -0.1036  0.2189
  101OSM    O1310129   1.264   1.736  10.993  0.0877 -0.4968  0.2503
  101OSM    O1410130   1.397   1.899  11.136 -0.6536  0.3037 -0.5582
  101OSM    O1110131   1.500   1.775  10.947  0.7008  0.6369 -0.4929
  101OSM    O1210132   1.446   1.665  11.151 -0.2413  0.4997  0.6779
  101OSM    C1S10133   1.496   1.871  10.838  0.5502 -0.0861 -0.1242
  101OSM    H1S10134   1.554   1.958  10.876 -0.2782 -0.4221  1.9710
  101OSM    H1T10135   1.393   1.895  10.804 -0.1946 -1.2356  1.2677
  101OSM     NF10136   1.590   1.942  10.626 -0.0323 -0.3739 -0.8493
  101OSM    HNF10137   1.521   1.960  10.557 -0.1365  1.5350 -0.2861
  101OSM    C2S10138   1.579   1.832  10.711  0.0281  0.7050  1.0791
  101OSM    H2S10139   1.674   1.796  10.757  0.5378 -1.3900 -1.4688
  101OSM    C3S10140   1.519   1.707  10.649  0.0488 -0.4957 -0.2178
  101OSM    H3S10141   1.415   1.723  10.611 -0.0965  2.2527  1.2447
  101OSM     O310142   1.486   1.606  10.749 -0.1695  0.0854  0.5677
  101OSM    HO310143   1.466   1.656  10.829 -2.3903  1.3122 -0.6917
  101OSM    C4S10144   1.614   1.654  10.534 -0.4954 -0.4117  0.1762
  101OSM    H4S10145   1.609   1.701  10.435 -1.4632 -0.0612  0.3788
  101OSM    C5S10146   1.689   1.547  10.545  0.3525 -0.3601  0.3111
  101OSM    H5S10147   1.687   1.480  10.632  1.7264 -1.6324 -0.6134
  101OSM    C6S10148   1.785   1.500  10.432 -0.2697 -0.2354 -0.2157
  101OSM    H6S10149   1.793   1.389  10.436 -1.9181 -0.3185  1.0247
  101OSM    H6T10150   1.889   1.532  10.452  0.8768 -1.7852 -3.2570
  101OSM    C7S10151   1.765   1.552  10.290 -0.0903 -0.5010  1.4759
  101OSM    H7S10152   1.855   1.538  10.226 -0.0196 -0.3655  1.5470
  101OSM    H7T10153   1.758   1.663  10.289 -2.6701 -0.6365  0.7263
  101OSM    C8S10154   1.651   1.484  10.206  0.0626 -0.2954  0.2166
  101OSM    H8S10155   1.552   1.526  10.235 -0.8948 -0.4046 -2.7791
  101OSM    H8T10156   1.643   1.375  10.226 -0.6168 -0.5301 -1.2863
  101OSM    C9S10157   1.679   1.492  10.052 -0.1673  0.1817 -0.0414
  101OSM    H9S10158   1.781   1.458  10.024  0.0377 -0.1022  1.0408
  101OSM    H9T10159   1.670   1.600  10.026 -1.4543  0.0738 -0.0845
  101OSM   C10S10160   1.585   1.413   9.959  0.5444 -0.5161 -0.2380
  101OSM   H10S10161   1.481   1.443   9.983  0.1680 -2.2450  0.4306
  101OSM   H10T10162   1.594   1.305   9.985 -0.6628 -0.4572  0.4777
  101OSM   C11S10163   1.628   1.437   9.815  0.0187  0.9344 -0.2497
  101OSM   H11S10164   1.739   1.437   9.811 -0.0036  0.7885 -1.0269
  101OSM   H11T10165   1.590   1.537   9.787 -1.2999  0.0791 -1.5842
  101OSM   C12S10166   1.576   1.336   9.710  0.7049 -0.6355  0.0832
  101OSM   H12S10167   1.466   1.348   9.705  0.8110 -0.0873 -1.2928
  101OSM   H12T10168   1.594   1.236   9.755  1.4070 -1.3440 -1.7069
  101OSM   C13S10169   1.639   1.339   9.568  0.3824  0.6188  0.8949
  101OSM   H13S10170   1.609   1.253   9.505 -3.6003  1.9765  0.7741
  101OSM   H13T10171   1.750   1.340   9.581  0.8167 -2.4727 -1.8502
  101OSM   C14S10172   1.609   1.460   9.476 -0.7523 -0.3812  0.4732
  101OSM   H14S10173   1.623   1.553   9.534 -2.1881 -0.1129  0.3893
  101OSM   H14T10174   1.501   1.455   9.450 -0.0245 -1.3929 -2.5965
  101OSM   C15S10175   1.688   1.458   9.339  0.0452 -0.5931  0.1957
  101OSM   H15S10176   1.673   1.356   9.297  1.4823 -1.3857  1.5248
  101OSM   H15T10177   1.794   1.485   9.361  0.0198 -0.3621  0.0242
  101OSM   C16S10178   1.634   1.559   9.228  0.1043  0.5000  0.2397
  101OSM   H16S10179   1.644   1.658   9.277 -0.3222  0.9587 -0.5956
  101OSM   H16T10180   1.523   1.548   9.220 -0.2010 -0.1649  4.2912
  101OSM   C17S10181   1.705   1.545   9.097 -0.8757  0.2179 -0.2335
  101OSM   H17S10182   1.653   1.600   9.016 -0.8629  0.6631  0.0612
  101OSM   H17T10183   1.700   1.439   9.066  1.0136  0.5800 -1.8984
  101OSM   C18S10184   1.852   1.584   9.109  0.2052  0.0363 -0.1930
  101OSM   H18S10185   1.896   1.560   9.009 -0.9663 -0.8386 -0.5051
  101OSM   H18T10186   1.905   1.534   9.193 -0.6605  0.7917  0.8009
  101OSM   H18U10187   1.857   1.694   9.124  0.7561 -0.2891  2.1903
  101OSM    C1F10188   1.685   2.034  10.659 -0.3823 -0.4881  0.4632
  101OSM     OF10189   1.750   2.038  10.764  0.3318 -0.4882  0.2303
  101OSM    C2F10190   1.696   2.147  10.550  0.2011 -0.7402 -1.0095
  101OSM    H2F10191   1.646   2.237  10.593 -2.2210 -2.2827 -0.5176
  101OSM    H2G10192   1.633   2.114  10.465 -3.5819 -1.1182  1.8166
  101OSM    C3F10193   1.838   2.187  10.516 -0.2763 -0.1653  0.3845
  101OSM    H3F10194   1.884   2.237  10.603 -0.5512  3.2533 -1.3631
  101OSM    H3G10195   1.833   2.265  10.437 -0.2974  0.9095  1.4524
  101OSM    C4F10196   1.930   2.080  10.462 -1.0036 -0.6047  0.1403
  101OSM    H4F10197   1.890   2.048  10.363  0.5010  1.2029 -1.1060
  101OSM    H4G10198   1.935   1.996  10.534 -2.1598  0.8347  1.9285
  101OSM    C5F10199   2.076   2.125  10.434  0.4378  0.2663  0.1490
  101OSM    H5F10200   2.121   2.127  10.535  2.6219 -1.3431 -0.7394
  101OSM    H5G10201   2.070   2.228  10.393  0.1026  0.7428  1.3813
  101OSM    C6F10202   2.163   2.032  10.345  0.5244  0.4038  0.0539
  101OSM    H6F10203   2.126   1.930  10.369  1.5606  0.0227  0.0241
  101OSM    H6G10204   2.147   2.045  10.236 -0.4377 -1.9824 -0.1372
  101OSM    C7F10205   2.313   2.046  10.355  0.4755  0.6393 -0.5951
  101OSM    H7F10206   2.337   2.048  10.463 -1.4163 -3.3433 -0.0120
  101OSM    H7G10207   2.338   2.145  10.310 -1.1841  1.2445 -0.2427
  101OSM    C8F10208   2.400   1.935  10.283 -0.1208 -0.2616 -0.7422
  101OSM    H8F10209   2.389   1.839  10.339  0.9052 -0.2485 -0.5206
  101OSM    H8G10210   2.507   1.963  10.293  0.3528 -1.6959 -1.6294
  101OSM    C9F10211   2.362   1.915  10.134  0.0008  0.0516  0.0328
  101OSM    H9F10212   2.416   1.983  10.067  0.9837 -2.5123 -1.8868
  101OSM   C10F10213   2.290   1.824  10.075  0.5612 -0.3744  0.7158
  101OSM   H10F10214   2.278   1.836   9.967  1.7841  0.4329  0.6571
  101OSM   C11F10215   2.208   1.713  10.141  0.7170  0.3895  0.4374
  101OSM   H11F10216   2.223   1.705  10.251  1.2342  1.3567  0.4419
  101OSM   H11G10217   2.215   1.612  10.097  0.0128 -0.3868  2.0627
  101OSM   C12F10218   2.055   1.746  10.144 -0.2321  0.1130  0.0218
  101OSM   H12F10219   2.030   1.854  10.147 -1.1261 -0.0760 -0.6207
  101OSM   H12G10220   2.015   1.709  10.241  1.5551  0.3600  0.8778
  101OSM   C13F10221   1.967   1.687  10.039 -0.0447  0.7981  0.1710
  101OSM   H13F10222   1.862   1.673  10.072  0.2268 -3.0985 -0.3199
  101OSM   H13G10223   2.011   1.586  10.021  1.0586  1.8543 -3.4483
  101OSM   C14F10224   1.979   1.757   9.894  0.1897 -0.8238 -0.0513
  101OSM   H14F10225   2.088   1.764   9.871 -0.3209  2.5256 -1.7760
  101OSM   H14G10226   1.934   1.857   9.913 -0.0866 -0.9368 -0.1124
  101OSM   C15F10227   1.901   1.679   9.785 -0.0587 -0.0386  0.2122
  101OSM   H15F10228   1.806   1.663   9.840  0.2270 -0.1746  0.6743
  101OSM   H15G10229   1.940   1.578   9.757  0.5161 -0.0124  0.8918
  101OSM   C16F10230   1.857   1.762   9.661 -0.4087 -0.4006  0.5408
  101OSM   H16F10231   1.862   1.872   9.670 -1.2821 -0.2008 -1.2077
  101OSM   H16G10232   1.754   1.727   9.640  0.0447 -1.4227 -0.0547
  101OSM   C17F10233   1.937   1.721   9.537  1.0753 -0.2332 -0.0261
  101OSM   H17F10234   1.942   1.616   9.502  0.0362  0.1834 -1.5049
  101OSM   H17G10235   2.042   1.748   9.562  0.1038  2.3259  1.5430
  101OSM   C18F10236   1.890   1.814   9.422 -0.2563  0.1459  0.4588
  101OSM   H18F10237   1.954   1.791   9.334 -0.1384 -2.0874  1.0951
  101OSM   H18G10238   1.896   1.921   9.450 -1.0366  0.7883 -1.7808
  101OSM   H18H10239   1.787   1.786   9.392  0.1696 -0.1718 -0.7400
  102OSM      N10240   4.298   3.631  10.640 -0.0749 -0.0661  0.0901
  102OSM    C1510241   4.235   3.708  10.756 -0.4147 -0.2034  0.3832
  102OSM   H15A10242   4.132   3.720  10.727  1.0074  3.7323 -3.5225
  102OSM   H15B10243   4.283   3.803  10.773  0.1534 -0.1194 -1.6320
  102OSM   H15C10244   4.249   3.649  10.846  0.9296  4.0526  3.1319
  102OSM    C1410245   4.441   3.596  10.678 -0.9367  0.3031  0.5726
  102OSM   H14A10246   4.489   3.552  10.592  0.7674 -0.2299  1.7670
  102OSM   H14B10247   4.441   3.516  10.750 -0.4263  0.0892  0.3338
  102OSM   H14C10248   4.503   3.683  10.697 -2.4318  1.0308  2.3204
  102OSM    C1310249   4.222   3.504  10.614 -0.0702 -0.2530 -0.4135
  102OSM   H13A10250   4.133   3.544  10.566 -0.2329  1.3947  1.1779
  102OSM   H13B10251   4.192   3.440  10.696  0.1645  0.2923  0.0964
  102OSM   H13C10252   4.265   3.439  10.540 -0.5064 -1.8502  0.6906
  102OSM    C1210253   4.299   3.723  10.524  0.4396  0.2872  0.3918
  102OSM   H12A10254   4.345   3.663  10.447 -1.6666  1.4430 -1.8288
  102OSM   H12B10255   4.360   3.808  10.550  2.2229 -1.0473  0.7071
  102OSM    C1110256   4.160   3.780  10.469  0.1301  0.2089  0.3086
  102OSM   H11A10257   4.087   3.699  10.447 -0.4726  0.5426  1.0538
  102OSM   H11B10258   4.167   3.821  10.366 -2.4421  1.6344  0.6607
  102OSM      P10259   4.154   4.022  10.562  0.0284  0.0247 -0.4142
  102OSM    O1310260   4.048   4.117  10.597 -0.2979  0.0790 -0.2360
  102OSM    O1410261   4.269   4.022  10.654  0.5769 -0.4433 -0.5568
  102OSM    O1110262   4.213   4.065  10.422  0.4422 -0.0861  0.2165
  102OSM    O1210263   4.095   3.874  10.553 -0.2815  0.3111  0.4004
  102OSM    C1S10264   4.352   4.094  10.397 -0.3399  0.5101  0.7432
  102OSM    H1S10265   4.411   4.005  10.428  0.0301  0.7738  0.8001
  102OSM    H1T10266   4.385   4.189  10.444  0.4039 -0.6503  2.6166
  102OSM     NF10267   4.528   4.112  10.214  0.1614  0.2143 -0.4882
  102OSM    HNF10268   4.571   4.199  10.189  1.5177 -0.3648 -0.2174
  102OSM    C2S10269   4.386   4.104  10.246 -0.3045 -0.3648 -0.1000
  102OSM    H2S10270   4.348   4.011  10.199  1.2776 -0.7121 -0.6980
  102OSM    C3S10271   4.305   4.224  10.185 -0.7800  0.3368 -0.2697
  102OSM    H3S10272   4.354   4.312  10.233  1.1871 -1.3078  0.8158
  102OSM     O310273   4.171   4.239  10.229  0.3769  0.0157  0.0403
  102OSM    HO310274   4.164   4.151  10.266 -1.4716 -0.2728 -0.9694
  102OSM    C4S10275   4.328   4.232  10.042  0.6679  0.0480 -0.2941
  102OSM    H4S10276   4.420   4.284  10.010  0.5001  0.2506 -0.4523
  102OSM    C5S10277   4.263   4.166   9.949 -0.2583  0.5328 -0.5036
  102OSM    H5S10278   4.180   4.108   9.991  0.4664 -1.1526 -1.3284
  102OSM    C6S10279   4.289   4.166   9.796 -0.2264 -0.5586 -0.2111
  102OSM    H6S10280   4.189   4.180   9.750 -0.9482 -1.7063  0.9579
  102OSM    H6T10281   4.327   4.069   9.758  0.3626  0.0191 -1.1047
  102OSM    C7S10282   4.368   4.273   9.725  0.5098  0.6577 -0.3030
  102OSM    H7S10283   4.475   4.268   9.755  0.3951 -3.0460 -0.2457
  102OSM    H7T10284   4.333   4.369   9.767  1.4499  0.5956  0.6535
  102OSM    C8S10285   4.352   4.271   9.576 -0.1177  0.6691  0.1201
  102OSM    H8S10286   4.363   4.373   9.535 -0.4295 -0.3261 -2.5483
  102OSM    H8T10287   4.252   4.237   9.541 -0.2003  1.1761 -0.1387
  102OSM    C9S10288   4.455   4.176   9.513 -0.0381  0.0882  0.3471
  102OSM    H9S10289   4.452   4.084   9.575  0.5784  0.7569  1.3871
  102OSM    H9T10290   4.554   4.223   9.528  0.3658  0.1720 -2.2811
  102OSM   C10S10291   4.437   4.157   9.359  0.0612  0.8563 -0.4549
  102OSM   H10S10292   4.336   4.114   9.337  0.4102 -1.3347  2.0581
  102OSM   H10T10293   4.506   4.078   9.323 -0.6686  0.0567 -0.1136
  102OSM   C11S10294   4.472   4.289   9.286  0.3555  0.5214  0.2975
  102OSM   H11S10295   4.566   4.336   9.322  0.2716  1.2522 -0.4182
  102OSM   H11T10296   4.396   4.370   9.286  0.5668  0.7398 -0.9996
  102OSM   C12S10297   4.504   4.264   9.136  0.3172  0.0641 -0.4345
  102OSM   H12S10298   4.432   4.195   9.086 -3.5460  0.3206  4.4114
  102OSM   H12T10299   4.598   4.207   9.126  0.7522  0.7924 -0.5115
  102OSM   C13S10300   4.515   4.400   9.064  0.6387  0.1594  0.0533
  102OSM   H13S10301   4.589   4.467   9.112 -0.2792  1.7015 -0.6297
  102OSM   H13T10302   4.421   4.458   9.075  1.4539  1.6943 -0.8176
  102OSM   C14S10303   4.532   4.390   8.907  0.4768  0.4664  0.1109
  102OSM   H14S10304   4.524   4.496   8.874  1.5763 -0.1730 -2.3248
  102OSM   H14T10305   4.440   4.348   8.861  0.5923 -2.1539  2.1512
  102OSM   C15S10306   4.667   4.330   8.863 -0.1333 -0.3114  0.9937
  102OSM   H15S10307   4.665   4.219   8.873  0.3357 -0.1770  2.7248
  102OSM   H15T10308   4.745   4.359   8.935  0.1887  3.7252 -0.8669
  102OSM   C16S10309   4.699   4.370   8.716  0.7404 -1.1692  0.6954
  102OSM   H16S10310   4.609   4.348   8.655  0.6451 -0.5234  0.5977
  102OSM   H16T10311   4.769   4.292   8.677  1.2178  0.0972 -1.0698
  102OSM   C17S10312   4.765   4.503   8.694  0.1360 -0.4480  0.4595
  102OSM   H17S10313   4.841   4.528   8.772  2.0046 -0.7227 -1.2413
  102OSM   H17T10314   4.700   4.591   8.714  0.5408 -0.1505  0.4913
  102OSM   C18S10315   4.836   4.531   8.551  0.8841 -0.6622 -0.5375
  102OSM   H18S10316   4.907   4.448   8.530  1.8659 -0.3912  1.6199
  102OSM   H18T10317   4.892   4.627   8.555  0.4678 -0.3638 -1.6991
  102OSM   H18U10318   4.764   4.530   8.467 -0.7121 -2.2685  0.8172
  102OSM    C1F10319   4.605   4.005  10.230  0.3307 -0.2090  1.0529
  102OSM     OF10320   4.542   3.902  10.248 -0.1485 -0.2760 -0.9124
  102OSM    C2F10321   4.753   4.018  10.234 -0.5061 -0.0585  0.4494
  102OSM    H2F10322   4.790   3.930  10.290 -0.0407 -0.1643 -0.0213
  102OSM    H2G10323   4.782   4.109  10.290 -0.9844  1.1750 -1.2672
  102OSM    C3F10324   4.819   4.019  10.095 -0.3683 -0.3834 -0.5704
  102OSM    H3F10325   4.782   3.927  10.044  1.5192 -0.9593 -0.9428
  102OSM    H3G10326   4.929   4.004  10.099 -0.4016 -0.3295  0.7898
  102OSM    C4F10327   4.795   4.142  10.008  0.1048 -0.0782  0.5830
  102OSM    H4F10328   4.852   4.228  10.049  1.8423 -1.0670  0.2750
  102OSM    H4G10329   4.685   4.157  10.004  0.2964  1.1965 -0.5938
  102OSM    C5F10330   4.845   4.112   9.859  0.3652 -0.1627 -0.6024
  102OSM    H5F10331   4.811   4.011   9.826 -3.4262  0.4488  1.2176
  102OSM    H5G10332   4.955   4.100   9.868  0.5543  0.7686 -1.5972
  102OSM    C6F10333   4.834   4.225   9.759 -1.0098  0.0084  0.4882
  102OSM    H6F10334   4.900   4.308   9.790  2.0763 -1.3376 -2.1936
  102OSM    H6G10335   4.729   4.260   9.747 -0.4162  1.0246 -1.8824
  102OSM    C7F10336   4.876   4.181   9.612  0.1629 -0.4009 -0.5458
  102OSM    H7F10337   4.796   4.112   9.576  1.6063 -2.9442  1.0163
  102OSM    H7G10338   4.972   4.127   9.623 -0.1369 -1.1374 -1.4229
  102OSM    C8F10339   4.878   4.297   9.506  0.2155 -0.3703  0.0337
  102OSM    H8F10340   4.943   4.382   9.535  0.6388 -0.2584 -1.2222
  102OSM    H8G10341   4.775   4.338   9.502 -0.8859 -2.7102  2.4425
  102OSM    C9F10342   4.916   4.229   9.374 -0.9223 -0.5676 -0.4667
  102OSM    H9F10343   4.876   4.127   9.363  2.2141 -1.8472 -0.4137
  102OSM   C10F10344   5.009   4.261   9.281  0.0573 -0.4243  0.0856
  102OSM   H10F10345   5.005   4.185   9.201  1.6650 -2.3827  1.8188
  102OSM   C11F10346   5.112   4.377   9.272  0.1029  0.6567  0.5577
  102OSM   H11F10347   5.100   4.454   9.352  1.1014  0.0428  1.2981
  102OSM   H11G10348   5.080   4.425   9.177 -1.6765 -0.0551  0.7638
  102OSM   C12F10349   5.261   4.335   9.284  0.5001  0.1432  0.2230
  102OSM   H12F10350   5.268   4.276   9.378 -1.7871 -0.4480  0.0525
  102OSM   H12G10351   5.315   4.432   9.292  2.2943 -0.8187  0.1105
  102OSM   C13F10352   5.313   4.249   9.165 -0.0065 -0.2808 -0.2767
  102OSM   H13F10353   5.280   4.146   9.187 -0.4653  0.3568  2.2853
  102OSM   H13G10354   5.423   4.237   9.161  0.0480  0.6101 -1.6842
  102OSM   C14F10355   5.271   4.293   9.022  0.6230  0.2507  0.2631
  102OSM   H14F10356   5.314   4.393   8.999  1.4433 -0.3221 -0.7718
  102OSM   H14G10357   5.161   4.300   9.011  0.7179  0.1368 -0.7998
  102OSM   C15F10358   5.328   4.201   8.911  0.8174 -0.6185 -0.2493
  102OSM   H15F10359   5.274   4.223   8.817  1.2767  0.4203 -0.2886
  102OSM   H15G10360   5.319   4.092   8.929  1.3857 -0.3217  1.9725
  102OSM   C16F10361   5.468   4.244   8.885 -0.5731 -0.0886  0.2352
  102OSM   H16F10362   5.538   4.208   8.963  0.1485 -1.1513 -0.9054
  102OSM   H16G10363   5.471   4.355   8.888 -3.9368  0.1033 -1.1982
  102OSM   C17F10364   5.522   4.205   8.746  0.1248 -0.1496 -0.4835
  102OSM   H17F10365   5.459   4.234   8.659 -2.4521 -3.7930  0.0512
  102OSM   H17G10366   5.520   4.094   8.740 -0.6200 -0.0100 -4.0364
  102OSM   C18F10367   5.662   4.260   8.742  0.5475 -0.3038  0.6527
  102OSM   H18F10368   5.701   4.245   8.639 -0.4732  0.8569  0.0874
  102OSM   H18G10369   5.726   4.200   8.811 -0.3039 -0.2455  1.4998
  102OSM   H18H10370   5.667   4.370   8.756  0.5301 -0.3534  1.0726
  103OSM      N10371   2.605   0.893  10.984  0.4139 -0.2436 -0.2155
  103OSM    C1510372   2.548   0.764  11.032  0.9640 -0.1198 -0.1359
  103OSM   H15A10373   2.451   0.755  10.985  0.5164  2.1564  0.2448
  103OSM   H15B10374   2.550   0.757  11.140  1.3107 -0.4619 -0.1669
  103OSM   H15C10375   2.617   0.692  10.992  0.7718 -0.2034 -0.3134
  103OSM    C1410376   2.599   0.889  10.834 -0.5030 -0.4457 -0.3067
  103OSM   H14A10377   2.627   0.990  10.807 -4.1099  0.9915  1.0172
  103OSM   H14B10378   2.508   0.844  10.796 -0.1254 -2.0477  0.6536
  103OSM   H14C10379   2.673   0.821  10.796 -0.3185 -0.7544  0.5950
  103OSM    C1310380   2.505   0.996  11.025 -0.2299  0.2257 -0.9045
  103OSM   H13A10381   2.493   0.987  11.132  0.1922 -0.7116 -0.9276
  103OSM   H13B10382   2.407   0.973  10.985 -1.4366 -0.0171  2.0235
  103OSM   H13C10383   2.532   1.098  11.003 -0.2995  0.3423 -0.4505
  103OSM    C1210384   2.740   0.927  11.039 -0.2408  0.1443  0.0308
  103OSM   H12A10385   2.745   0.955  11.143  1.3800 -1.5203  0.4232
  103OSM   H12B10386   2.783   1.011  10.985 -1.7394 -0.1678 -1.6999
  103OSM    C1110387   2.843   0.807  11.020  0.2534  0.2522 -0.2407
  103OSM   H11A10388   2.811   0.715  11.072 -0.4847  1.0272  0.6758
  103OSM   H11B10389   2.936   0.837  11.074 -0.0507  0.4710  0.1582
  103OSM      P10390   3.009   0.817  10.807  0.0823  0.3518  0.1745
  103OSM    O1310391   3.091   0.915  10.881  0.0824  0.4838 -0.4569
  103OSM    O1410392   3.074   0.691  10.762  0.2907 -0.2424 -0.8681
  103OSM    O1110393   2.934   0.885  10.680  0.7905  0.1032  0.5261
  103OSM    O1210394   2.878   0.776  10.884 -0.3328  0.1874  0.3403
  103OSM    C1S10395   3.013   0.986  10.616 -0.7058 -0.5080 -0.2725
  103OSM    H1S10396   3.113   0.947  10.588 -0.3393  1.3183 -1.6086
  103OSM    H1T10397   3.020   1.075  10.683 -0.7784 -0.1413 -0.7499
  103OSM     NF10398   3.049   1.095  10.392 -0.0339  0.0076  0.3406
  103OSM    HNF10399   3.045   1.195  10.387  1.3974  0.1414  1.4615
  103OSM    C2S10400   2.953   1.024  10.481  0.3463  0.6725 -0.3237
  103OSM    H2S10401   2.920   0.932  10.427  0.4997  1.2830 -1.4713
  103OSM    C3S10402   2.823   1.106  10.515 -0.4436  0.0294 -0.1017
  103OSM    H3S10403   2.855   1.209  10.543 -0.0356 -0.4077  1.0839
  103OSM     O310404   2.742   1.068  10.627 -0.1493 -0.2540 -0.1045
  103OSM    HO310405   2.798   0.995  10.655  0.8393  0.5480  0.0454
  103OSM    C4S10406   2.734   1.106  10.394 -0.3360  0.9636  0.2666
  103OSM    H4S10407   2.740   1.199  10.335  1.5181  1.1761  0.7572
  103OSM    C5S10408   2.674   0.999  10.344  0.4850  0.2581 -0.1650
  103OSM    H5S10409   2.677   0.905  10.400 -2.1989  0.8594  1.0587
  103OSM    C6S10410   2.587   0.995  10.220  0.4883  0.3734  0.6249
  103OSM    H6S10411   2.480   0.972  10.240  0.1704  2.1196  0.9899
  103OSM    H6T10412   2.639   0.915  10.162  0.2158  0.1755  0.6500
  103OSM    C7S10413   2.578   1.118  10.119 -0.0717 -0.4261  0.3489
  103OSM    H7S10414   2.683   1.142  10.090 -0.2710  0.2077  0.1538
  103OSM    H7T10415   2.547   1.204  10.181  0.4976 -0.2125  0.3429
  103OSM    C8S10416   2.494   1.093   9.994 -0.0332  0.0532  0.2025
  103OSM    H8S10417   2.403   1.156   9.998 -0.5171 -0.5482 -1.2375
  103OSM    H8T10418   2.461   0.988   9.980 -1.6163  0.4968  0.4527
  103OSM    C9S10419   2.572   1.114   9.870 -0.1401 -0.0526  0.0977
  103OSM    H9S10420   2.658   1.044   9.868 -0.1308 -0.0430  0.1629
  103OSM    H9T10421   2.625   1.211   9.862 -0.0670 -0.1834 -1.1259
  103OSM   C10S10422   2.489   1.086   9.738 -0.3351  0.1834  0.4528
  103OSM   H10S10423   2.413   1.167   9.742 -0.0790  0.5060 -0.9886
  103OSM   H10T10424   2.434   0.990   9.733 -1.2023  0.6987  0.0515
  103OSM   C11S10425   2.571   1.091   9.605  0.1319  0.6293  0.1528
  103OSM   H11S10426   2.585   0.983   9.581 -0.6119  1.0650 -2.4117
  103OSM   H11T10427   2.675   1.124   9.625 -0.5768  2.4908  0.8270
  103OSM   C12S10428   2.510   1.168   9.485 -0.3365  0.5194  0.1333
  103OSM   H12S10429   2.518   1.271   9.527 -0.3114  0.6102 -0.0915
  103OSM   H12T10430   2.403   1.139   9.480 -0.7432  1.8629  0.8264
  103OSM   C13S10431   2.580   1.154   9.346 -0.0894 -0.0640 -0.0302
  103OSM   H13S10432   2.587   1.047   9.316 -2.7291 -0.7150  1.4794
  103OSM   H13T10433   2.685   1.190   9.354 -0.3916  0.7429  0.4067
  103OSM   C14S10434   2.511   1.229   9.231 -0.5711  0.8227  0.0102
  103OSM   H14S10435   2.507   1.340   9.226  2.1861  0.9435 -0.2340
  103OSM   H14T10436   2.407   1.194   9.210 -0.0988 -0.7615  0.2596
  103OSM   C15S10437   2.597   1.205   9.108 -0.4995  0.3545 -0.7540
  103OSM   H15S10438   2.576   1.103   9.072  2.6511 -0.7562  0.3919
  103OSM   H15T10439   2.701   1.212   9.146 -0.8175 -2.2094  0.7044
  103OSM   C16S10440   2.572   1.312   9.003  0.4908 -0.2522 -0.4754
  103OSM   H16S10441   2.607   1.413   9.036  2.1947 -0.3468 -1.9969
  103OSM   H16T10442   2.467   1.315   8.966 -0.2651  3.1424  1.6748
  103OSM   C17S10443   2.655   1.291   8.874 -0.3567  0.4984 -0.1229
  103OSM   H17S10444   2.624   1.202   8.816  0.1484  0.4885 -0.3767
  103OSM   H17T10445   2.755   1.261   8.912 -0.1613  0.2563 -0.8190
  103OSM   C18S10446   2.651   1.408   8.779 -0.5420 -0.1729  0.2220
  103OSM   H18S10447   2.708   1.383   8.686 -2.1936 -0.8610 -0.6375
  103OSM   H18T10448   2.689   1.504   8.820  5.0528 -2.1969  0.2461
  103OSM   H18U10449   2.550   1.418   8.734  0.4783  2.0180 -1.6542
  103OSM    C1F10450   3.159   1.037  10.341 -0.0617  0.7216  0.0490
  103OSM     OF10451   3.178   0.915  10.347 -0.0835  0.0526  0.2306
  103OSM    C2F10452   3.269   1.126  10.278  0.1354  0.3563 -0.2957
  103OSM    H2F10453   3.341   1.151  10.359 -1.7997 -0.3130  1.6918
  103OSM    H2G10454   3.220   1.214  10.229  0.1225 -0.6128 -2.0703
  103OSM    C3F10455   3.340   1.055  10.168 -0.5352  0.9781 -0.1128
  103OSM    H3F10456   3.386   0.959  10.202  0.1244  1.9079  1.7286
  103OSM    H3G10457   3.427   1.121  10.148  1.7254 -2.3590 -1.8150
  103OSM    C4F10458   3.262   1.041  10.032 -0.2802  0.2022 -0.6286
  103OSM    H4F10459   3.177   0.972  10.052 -1.2432  1.7404  0.6697
  103OSM    H4G10460   3.338   0.995   9.965 -1.6583 -0.6877 -1.6225
  103OSM    C5F10461   3.238   1.178   9.959 -0.6878  0.0041  0.1622
  103OSM    H5F10462   3.337   1.227   9.955 -0.2689 -0.9700 -2.2296
  103OSM    H5G10463   3.161   1.237  10.014 -0.1191 -0.0253  1.0076
  103OSM    C6F10464   3.187   1.160   9.821  0.5533 -0.5885  0.5386
  103OSM    H6F10465   3.273   1.118   9.764  0.2907  0.7956 -0.9288
  103OSM    H6G10466   3.173   1.267   9.795  2.2870  0.0456  2.1242
  103OSM    C7F10467   3.056   1.085   9.799 -0.3395 -0.3738  0.6175
  103OSM    H7F10468   2.989   1.149   9.860 -0.1397 -0.8049  1.2874
  103OSM    H7G10469   3.058   0.986   9.850  1.1731 -0.0861  1.1367
  103OSM    C8F10470   3.011   1.081   9.653 -0.3309  0.9156 -0.0865
  103OSM    H8F10471   3.029   1.182   9.610  0.9315  1.4186  1.5435
  103OSM    H8G10472   2.902   1.064   9.653 -0.6685  2.8043 -2.3924
  103OSM    C9F10473   3.099   0.981   9.582  0.3092  0.3931 -1.0221
  103OSM    H9F10474   3.192   0.961   9.636 -1.0407  0.4806  1.4409
  103OSM   C10F10475   3.066   0.921   9.466 -0.3361 -0.1203 -0.1259
  103OSM   H10F10476   3.144   0.855   9.424 -0.8527 -0.1985 -0.9753
  103OSM   C11F10477   2.941   0.951   9.388  0.9718  0.0063 -0.0221
  103OSM   H11F10478   2.889   1.041   9.429  0.7045 -0.4575  0.6679
  103OSM   H11G10479   2.862   0.874   9.385  1.6500 -0.7613  1.3075
  103OSM   C12F10480   2.976   0.980   9.234 -0.0255  0.4513  0.8400
  103OSM   H12F10481   2.882   1.014   9.185  0.4846  1.4905  0.5769
  103OSM   H12G10482   3.014   0.892   9.178  1.7438  1.5358  0.3075
  103OSM   C13F10483   3.063   1.097   9.214 -0.8676  0.8751  0.2080
  103OSM   H13F10484   3.168   1.066   9.233 -0.9314 -0.1412 -0.9851
  103OSM   H13G10485   3.037   1.171   9.293 -1.8721  2.3605 -1.4704
  103OSM   C14F10486   3.052   1.166   9.077 -0.0251  0.1556  0.8099
  103OSM   H14F10487   3.108   1.261   9.065 -1.8499  0.9782 -1.7625
  103OSM   H14G10488   2.949   1.206   9.072 -0.9801 -1.9476  2.9236
  103OSM   C15F10489   3.087   1.076   8.961 -0.1957 -0.3909 -0.4609
  103OSM   H15F10490   3.060   1.140   8.874 -0.3003  0.1914 -0.0064
  103OSM   H15G10491   3.038   0.977   8.967  2.6009 -1.6617  3.1975
  103OSM   C16F10492   3.239   1.068   8.959 -0.8065 -0.0036  0.0556
  103OSM   H16F10493   3.271   1.015   9.052  1.7845 -0.5268 -1.0985
  103OSM   H16G10494   3.283   1.170   8.955 -1.7913  0.5278  1.8915
  103OSM   C17F10495   3.275   0.982   8.841 -0.1371  0.4141  0.2745
  103OSM   H17F10496   3.255   1.027   8.741 -0.7263  2.6309  1.3624
  103OSM   H17G10497   3.221   0.888   8.865 -1.3793  2.0255  4.0933
  103OSM   C18F10498   3.423   0.952   8.830  0.3663  0.4152 -0.2272
  103OSM   H18F10499   3.463   0.942   8.933 -1.0079  0.4801  0.3286
  103OSM   H18G10500   3.475   1.035   8.778 -0.8836  0.0567 -2.1052
  103OSM   H18H10501   3.454   0.858   8.778  0.5281  1.2615 -1.6927
  104OSM      N10502   4.652   6.496  11.140  0.6354 -0.1050  0.0821
  104OSM    C1510503   4.508   6.456  11.119 -0.2773  0.4782  0.5083
  104OSM   H15A10504   4.457   6.472  11.213 -0.3213 -4.1173  1.3615
  104OSM   H15B10505   4.494   6.353  11.091 -2.3851  0.5820  1.0850
  104OSM   H15C10506   4.459   6.510  11.039 -0.0128 -1.1886 -0.8223
  104OSM    C1410507   4.655   6.643  11.179  0.5176 -0.0943  0.2005
  104OSM   H14A10508   4.654   6.698  11.086  0.0234  0.6468  0.6438
  104OSM   H14B10509   4.749   6.658  11.230  0.3806 -1.5495  0.9170
  104OSM   H14C10510   4.571   6.681  11.235 -1.7086 -1.4919 -2.0513
  104OSM    C1310511   4.707   6.416  11.251 -0.7180 -0.2444 -0.6135
  104OSM   H13A10512   4.711   6.315  11.213 -1.0143  0.3278 -2.1719
  104OSM   H13B10513   4.650   6.418  11.343  0.1465 -0.2588 -0.0672
  104OSM   H13C10514   4.811   6.444  11.263 -1.4198  2.2085  0.1135
  104OSM    C1210515   4.721   6.472  11.010 -0.6513 -0.0112  0.0803
  104OSM   H12A10516   4.715   6.369  10.981 -0.0615 -0.3201  1.0144
  104OSM   H12B10517   4.824   6.493  11.036 -0.0965 -2.1461 -0.3079
  104OSM    C1110518   4.675   6.550  10.884 -0.3693  0.8155  0.0055
  104OSM   H11A10519   4.571   6.516  10.866 -0.6548 -0.1329  3.1946
  104OSM   H11B10520   4.746   6.521  10.803 -0.1360  1.3798  0.0037
  104OSM      P10521   4.797   6.788  10.882  0.0191  0.2079  0.1371
  104OSM    O1310522   4.749   6.925  10.920  0.5665 -0.7143  0.2891
  104OSM    O1410523   4.894   6.729  10.971  0.3182 -0.3003  0.2731
  104OSM    O1110524   4.840   6.776  10.730  0.1951 -0.1974 -0.2786
  104OSM    O1210525   4.668   6.698  10.893 -0.8747  0.7573 -0.3306
  104OSM    C1S10526   4.721   6.774  10.641  0.4550  0.2459 -0.0532
  104OSM    H1S10527   4.661   6.867  10.650 -1.2777 -0.6552 -1.8778
  104OSM    H1T10528   4.659   6.681  10.644 -1.6678  1.5865 -1.3271
  104OSM     NF10529   4.652   6.809  10.394 -0.4430 -0.4578 -0.4740
  104OSM    HNF10530   4.628   6.735  10.331  0.4561  1.4787 -3.1909
  104OSM    C2S10531   4.761   6.788  10.488 -0.4137  0.3094  0.3546
  104OSM    H2S10532   4.830   6.872  10.465  0.7694 -0.8653 -0.4617
  104OSM    C3S10533   4.847   6.661  10.443 -0.4260  0.3324 -0.3523
  104OSM    H3S10534   4.787   6.571  10.421  2.8701 -1.7525 -1.2026
  104OSM     O310535   4.943   6.606  10.539  0.7367  0.1824  0.4953
  104OSM    HO310536   4.932   6.665  10.614  0.8523  1.3437 -0.3725
  104OSM    C4S10537   4.926   6.704  10.325 -0.0359 -0.8458 -0.1727
  104OSM    H4S10538   5.022   6.746  10.359 -0.6554 -0.9156  1.6649
  104OSM    C5S10539   4.893   6.698  10.195  0.0752 -0.6326 -0.5417
  104OSM    H5S10540   4.796   6.663  10.156  0.6646 -1.6646 -1.1155
  104OSM    C6S10541   4.991   6.749  10.093  0.9300 -0.2459 -0.2579
  104OSM    H6S10542   5.020   6.659  10.034  0.3135 -0.8221  0.3185
  104OSM    H6T10543   5.084   6.793  10.136  0.3046  1.0061 -0.1807
  104OSM    C7S10544   4.925   6.850   9.997 -0.2007 -0.9475  0.3491
  104OSM    H7S10545   5.008   6.902   9.944  0.5976 -0.7761  1.7533
  104OSM    H7T10546   4.873   6.933  10.049  0.1072  1.1017 -2.5156
  104OSM    C8S10547   4.819   6.796   9.896 -0.8840  1.4354 -0.0512
  104OSM    H8S10548   4.771   6.863   9.821 -2.0424  0.9324  0.2331
  104OSM    H8T10549   4.727   6.773   9.953 -0.3443 -2.7231 -0.6844
  104OSM    C9S10550   4.880   6.689   9.802 -0.1751 -0.7882 -0.1974
  104OSM    H9S10551   4.797   6.645   9.743 -2.2342  2.1246  0.4163
  104OSM    H9T10552   4.933   6.607   9.856 -2.0310 -1.1117  1.1959
  104OSM   C10S10553   4.961   6.755   9.687 -0.9291 -0.5484  0.2837
  104OSM   H10S10554   5.046   6.816   9.722 -0.1900 -1.4632  0.0994
  104OSM   H10T10555   4.889   6.823   9.636  1.4099  0.5486 -1.6481
  104OSM   C11S10556   5.025   6.649   9.593  0.7768 -0.4587  0.0809
  104OSM   H11S10557   4.947   6.578   9.559  0.0754  0.2177  0.2626
  104OSM   H11T10558   5.092   6.585   9.654  0.3473 -0.6725  0.3297
  104OSM   C12S10559   5.102   6.703   9.479 -0.3330  0.3136  0.0989
  104OSM   H12S10560   5.148   6.616   9.426 -2.7604 -0.4951 -0.7593
  104OSM   H12T10561   5.182   6.772   9.513  0.6541  0.7030 -2.8877
  104OSM   C13S10562   5.025   6.787   9.374 -0.4882  0.6014 -0.0412
  104OSM   H13S10563   5.016   6.888   9.421 -1.5076  0.9243 -0.9140
  104OSM   H13T10564   4.926   6.737   9.365 -0.9520  1.0342  2.1161
  104OSM   C14S10565   5.091   6.776   9.235  0.1586  0.7231  0.6408
  104OSM   H14S10566   5.151   6.684   9.224  0.3820  0.8659  0.6648
  104OSM   H14T10567   5.152   6.869   9.231 -2.2485  2.3167 -0.6864
  104OSM   C15S10568   4.980   6.781   9.128  0.6879  0.1785  0.6253
  104OSM   H15S10569   4.927   6.878   9.139  0.2837  0.0911 -0.5466
  104OSM   H15T10570   4.906   6.700   9.148  0.0306 -0.3992 -3.6964
  104OSM   C16S10571   5.041   6.772   8.985 -0.5653  0.2286  0.5211
  104OSM   H16S10572   5.105   6.681   8.976  1.7369  1.7741  0.8216
  104OSM   H16T10573   5.100   6.865   8.971  2.1187 -1.7414 -1.7413
  104OSM   C17S10574   4.943   6.765   8.873  0.9487 -0.2464 -0.3983
  104OSM   H17S10575   4.996   6.777   8.775  0.6302  0.6620 -0.4615
  104OSM   H17T10576   4.874   6.852   8.874  0.2594 -0.7933 -0.4974
  104OSM   C18S10577   4.859   6.646   8.868  0.1946 -0.1021  0.2042
  104OSM   H18S10578   4.796   6.635   8.777  0.5334 -0.3264 -0.0064
  104OSM   H18T10579   4.779   6.629   8.944  2.7991 -1.6845  2.7241
  104OSM   H18U10580   4.922   6.554   8.869  0.5565  0.1485  1.9841
  104OSM    C1F10581   4.576   6.911  10.393  0.4244  0.2486  0.6647
  104OSM     OF10582   4.622   7.006  10.445 -0.2269  0.1912 -0.5849
  104OSM    C2F10583   4.441   6.907  10.321  0.2928  0.5896 -0.6477
  104OSM    H2F10584   4.368   6.972  10.374 -2.2357 -0.2230 -3.0076
  104OSM    H2G10585   4.402   6.803  10.309  0.6722  0.4862 -0.9722
  104OSM    C3F10586   4.452   6.961  10.178 -0.8914  0.1460  0.5995
  104OSM    H3F10587   4.522   6.896  10.121  0.6117  1.5634  0.7827
  104OSM    H3G10588   4.505   7.058  10.172  0.2255 -0.6143 -2.8311
  104OSM    C4F10589   4.323   6.973  10.097  0.5535 -0.0562  0.4798
  104OSM    H4F10590   4.260   7.030  10.168 -1.0230 -1.2817  0.0772
  104OSM    H4G10591   4.268   6.879  10.074  1.1502 -0.3282  0.1258
  104OSM    C5F10592   4.335   7.060   9.971 -0.0973 -0.4415  0.2409
  104OSM    H5F10593   4.337   7.167   9.999 -1.5498 -0.2118 -0.4582
  104OSM    H5G10594   4.241   7.042   9.914  1.2801 -0.3132 -2.1536
  104OSM    C6F10595   4.451   7.021   9.881  0.5375 -0.3596 -0.2238
  104OSM    H6F10596   4.476   6.916   9.906  0.4381 -0.3980 -0.2852
  104OSM    H6G10597   4.538   7.088   9.898 -1.0487  1.3993  1.0881
  104OSM    C7F10598   4.411   7.033   9.728  0.3047  0.5767 -0.2948
  104OSM    H7F10599   4.342   7.114   9.696 -0.1416 -0.1179 -1.1088
  104OSM    H7G10600   4.340   6.950   9.708 -0.2078  0.8669  0.2991
  104OSM    C8F10601   4.528   7.034   9.631  0.6133  0.1460  0.0218
  104OSM    H8F10602   4.613   7.089   9.677  1.6385 -0.3212 -1.2756
  104OSM    H8G10603   4.501   7.080   9.534 -0.5366  1.1435  0.8006
  104OSM    C9F10604   4.566   6.890   9.607  0.0370  0.0870 -0.1309
  104OSM    H9F10605   4.543   6.822   9.690  1.5785  1.4105  1.4032
  104OSM   C10F10606   4.636   6.844   9.500  0.9062  0.2918 -0.5459
  104OSM   H10F10607   4.660   6.737   9.497 -2.5766 -0.6250  2.1197
  104OSM   C11F10608   4.671   6.927   9.378 -0.4907 -1.2568 -0.3833
  104OSM   H11F10609   4.777   6.900   9.355  0.8517  1.0213  2.6842
  104OSM   H11G10610   4.667   7.036   9.400  1.7835 -1.0668 -0.7025
  104OSM   C12F10611   4.564   6.918   9.272 -0.1982 -0.0440  0.0852
  104OSM   H12F10612   4.467   6.955   9.311 -0.7923  0.2919 -1.6293
  104OSM   H12G10613   4.552   6.813   9.239  0.3278  0.1327 -0.6964
  104OSM   C13F10614   4.608   6.997   9.144 -0.0720 -0.6104  0.2084
  104OSM   H13F10615   4.709   6.954   9.128  0.1332  0.2543 -0.8727
  104OSM   H13G10616   4.633   7.103   9.166 -0.9943 -0.4473  0.4796
  104OSM   C14F10617   4.528   6.963   9.023 -0.7656 -0.4804  0.3809
  104OSM   H14F10618   4.421   6.989   9.038 -0.2240  1.8859  0.2879
  104OSM   H14G10619   4.539   6.858   8.989  3.3008  0.8975 -2.9429
  104OSM   C15F10620   4.579   7.037   8.901 -0.3506  0.2169 -0.4977
  104OSM   H15F10621   4.671   7.002   8.851 -0.3927 -1.3887  0.5200
  104OSM   H15G10622   4.607   7.143   8.923  1.5055 -0.4916  0.6025
  104OSM   C16F10623   4.470   7.035   8.795  0.0427  0.0557  0.5106
  104OSM   H16F10624   4.391   7.109   8.823 -0.7459 -0.9383  0.9607
  104OSM   H16G10625   4.436   6.929   8.796  3.1234 -0.9941 -1.1676
  104OSM   C17F10626   4.500   7.082   8.650 -0.2100 -0.6225 -0.4042
  104OSM   H17F10627   4.579   7.010   8.617  0.1655 -0.3769 -0.0493
  104OSM   H17G10628   4.547   7.182   8.656  0.6426 -1.0528  0.2733
  104OSM   C18F10629   4.386   7.070   8.552 -0.6335 -0.1104  1.2868
  104OSM   H18F10630   4.310   7.150   8.563 -1.7167 -1.1618  1.6125
  104OSM   H18G10631   4.330   6.973   8.556 -1.6835  0.4042 -0.1525
  104OSM   H18H10632   4.423   7.091   8.449 -0.0471  0.4808  1.6224
  105OSM      N10633   1.104   2.985  10.882  0.1448 -0.1450 -0.1032
  105OSM    C1510634   1.037   2.887  10.795  0.2895  0.5999  0.4947
  105OSM   H15A10635   1.055   2.895  10.688 -0.1243 -1.8261  0.2104
  105OSM   H15B10636   0.930   2.894  10.813  0.2977  0.6863  0.5082
  105OSM   H15C10637   1.070   2.788  10.822 -0.2828  0.5309  0.9533
  105OSM    C1410638   1.063   3.123  10.845 -0.4974  0.4144  0.0550
  105OSM   H14A10639   0.961   3.136  10.877 -0.7614 -0.9631 -0.1988
  105OSM   H14B10640   1.086   3.147  10.742 -3.0454  4.7297  0.3540
  105OSM   H14C10641   1.125   3.197  10.895 -0.0418  0.8875 -1.1889
  105OSM    C1310642   1.071   2.948  11.026  0.1877  0.3588  0.5419
  105OSM   H13A10643   1.123   3.016  11.091 -1.8828  1.3395  1.2001
  105OSM   H13B10644   1.098   2.844  11.040  0.8476  0.4968  0.3262
  105OSM   H13C10645   0.964   2.949  11.042  0.3043  0.3896  1.3346
  105OSM    C1210646   1.251   2.968  10.865  0.0790  0.1245 -0.5086
  105OSM   H12A10647   1.293   3.056  10.911  0.1546 -0.2242  0.0916
  105OSM   H12B10648   1.282   2.977  10.762 -0.1779 -1.7063 -0.7585
  105OSM    C1110649   1.322   2.846  10.924  0.5468  1.0686 -0.6289
  105OSM   H11A10650   1.320   2.842  11.035  1.3717  0.8636 -0.6170
  105OSM   H11B10651   1.428   2.852  10.892  2.2396  2.3667  4.6478
  105OSM      P10652   1.337   2.589  10.864 -0.2568 -0.2112  0.3415
  105OSM    O1310653   1.487   2.593  10.878 -0.8308  0.3659 -0.2935
  105OSM    O1410654   1.270   2.502  10.960  0.1450 -0.2444 -0.5157
  105OSM    O1110655   1.316   2.545  10.717  0.3548  0.4488  0.2075
  105OSM    O1210656   1.262   2.731  10.867  0.5598  0.0907  0.2747
  105OSM    C1S10657   1.185   2.547  10.659  0.4364 -0.2296  0.0795
  105OSM    H1S10658   1.123   2.634  10.690  2.2905  1.4209 -0.7079
  105OSM    H1T10659   1.140   2.447  10.668 -1.6267  0.7950  1.4585
  105OSM     NF10660   1.069   2.605  10.440 -0.0115  0.4782 -0.3011
  105OSM    HNF10661   1.012   2.529  10.409 -1.5516  0.8822  1.4201
  105OSM    C2S10662   1.196   2.576  10.503  0.5959  0.0041  0.7902
  105OSM    H2S10663   1.266   2.660  10.485 -0.0650  0.4634  0.3607
  105OSM    C3S10664   1.266   2.445  10.438 -0.5067  0.3734 -0.0929
  105OSM    H3S10665   1.196   2.363  10.462 -0.8006  0.6256 -0.0760
  105OSM     O310666   1.402   2.407  10.478  1.2244  0.5098 -0.0042
  105OSM    HO310667   1.419   2.472  10.546 -1.2373  0.8624  0.3126
  105OSM    C4S10668   1.275   2.448  10.289  0.3585  0.1121  0.0018
  105OSM    H4S10669   1.363   2.500  10.250 -1.6893  1.1586 -3.4588
  105OSM    C5S10670   1.197   2.381  10.200  0.6600 -0.7285  0.2458
  105OSM    H5S10671   1.113   2.319  10.234 -0.1358 -0.8098 -1.8436
  105OSM    C6S10672   1.219   2.375  10.053  0.5722 -0.1749  0.2089
  105OSM    H6S10673   1.130   2.400   9.991  1.3692 -0.0183 -0.8919
  105OSM    H6T10674   1.248   2.271  10.027  1.6262  0.5534 -1.6217
  105OSM    C7S10675   1.333   2.467   9.995 -0.4332  0.0161  0.2855
  105OSM    H7S10676   1.431   2.446  10.044  0.6287 -1.2116 -2.2526
  105OSM    H7T10677   1.322   2.576  10.009 -0.5972  0.0933 -0.4879
  105OSM    C8S10678   1.344   2.451   9.840  0.4714  0.4192  0.3306
  105OSM    H8S10679   1.245   2.476   9.798  0.4296  0.1942  0.2982
  105OSM    H8T10680   1.358   2.341   9.830 -1.0589  0.1182  1.2887
  105OSM    C9S10681   1.458   2.543   9.792  0.2694  0.1262  0.6297
  105OSM    H9S10682   1.555   2.493   9.812  1.0581  0.5015 -2.0408
  105OSM    H9T10683   1.446   2.643   9.839 -1.1831 -0.4420  1.4914
  105OSM   C10S10684   1.460   2.557   9.636  0.0177  0.0316  0.2233
  105OSM   H10S10685   1.486   2.461   9.588 -0.8986  0.7166 -1.7156
  105OSM   H10T10686   1.530   2.639   9.609  1.1239 -1.1125 -0.3967
  105OSM   C11S10687   1.327   2.610   9.583  0.1641  0.2614 -0.0298
  105OSM   H11S10688   1.290   2.699   9.637 -1.7784  0.7680 -2.1159
  105OSM   H11T10689   1.258   2.525   9.603  0.4489  0.4278  1.7125
  105OSM   C12S10690   1.322   2.609   9.432 -0.6821  0.0562 -0.3631
  105OSM   H12S10691   1.220   2.584   9.396 -1.4821  2.6961 -0.0576
  105OSM   H12T10692   1.388   2.525   9.401 -2.1804 -1.0644 -0.5544
  105OSM   C13S10693   1.370   2.744   9.373 -0.2817  0.7236 -1.2177
  105OSM   H13S10694   1.461   2.786   9.421 -0.2020 -1.1594  0.3091
  105OSM   H13T10695   1.293   2.821   9.396  0.5791  0.9912  0.8916
  105OSM   C14S10696   1.406   2.752   9.218 -0.7068 -0.1750 -0.8174
  105OSM   H14S10697   1.487   2.677   9.205 -1.7107 -1.2536 -0.9302
  105OSM   H14T10698   1.433   2.859   9.207  1.1233 -0.3516  1.3962
  105OSM   C15S10699   1.295   2.710   9.116  0.7049  0.8646  1.2578
  105OSM   H15S10700   1.201   2.763   9.142 -0.2812 -0.0103 -0.4308
  105OSM   H15T10701   1.273   2.602   9.132  1.3566  0.4440 -0.5173
  105OSM   C16S10702   1.329   2.741   8.972 -0.1060  0.3958 -0.1709
  105OSM   H16S10703   1.243   2.723   8.905  0.9008  0.0589 -1.3808
  105OSM   H16T10704   1.410   2.672   8.941  0.1436 -0.2920  1.8980
  105OSM   C17S10705   1.386   2.886   8.946 -0.6049 -0.3672  0.0814
  105OSM   H17S10706   1.481   2.900   9.002 -0.4501  1.1696 -0.5343
  105OSM   H17T10707   1.312   2.961   8.979  0.7781  1.7368 -1.4586
  105OSM   C18S10708   1.420   2.904   8.794  0.0613  0.0607  0.0790
  105OSM   H18S10709   1.483   2.821   8.754  2.6247  0.6025  2.7367
  105OSM   H18T10710   1.469   3.003   8.780  1.1829 -0.3999  0.6132
  105OSM   H18U10711   1.326   2.899   8.736  0.0973 -1.1004  0.1009
  105OSM    C1F10712   1.024   2.727  10.452  0.7640  0.3432  0.4070
  105OSM     OF10713   1.090   2.823  10.496  0.4065 -0.4751 -0.7915
  105OSM    C2F10714   0.886   2.754  10.405  0.3124 -0.1252 -0.3640
  105OSM    H2F10715   0.838   2.808  10.490  2.8147  3.1481 -0.9540
  105OSM    H2G10716   0.830   2.658  10.397 -0.6188  0.4166 -0.4242
  105OSM    C3F10717   0.881   2.837  10.277 -0.0630 -0.1414  0.0283
  105OSM    H3F10718   0.956   2.918  10.291 -2.8301  2.1061  2.3785
  105OSM    H3G10719   0.781   2.881  10.256  0.3165  0.4623 -0.5193
  105OSM    C4F10720   0.924   2.751  10.158  0.0924 -0.5737  0.0129
  105OSM    H4F10721   0.851   2.669  10.140 -0.9145 -0.1893  2.1576
  105OSM    H4G10722   1.012   2.691  10.191  1.2271  1.3781  0.6509
  105OSM    C5F10723   0.950   2.821  10.031  0.7732  0.3007 -0.2038
  105OSM    H5F10724   1.002   2.916  10.055 -1.7523  2.2166 -2.1107
  105OSM    H5G10725   0.848   2.844   9.994  0.5906 -1.0023 -0.5090
  105OSM    C6F10726   1.014   2.738   9.922 -0.1999 -0.3355 -0.4344
  105OSM    H6F10727   0.946   2.663   9.876 -0.7190 -1.1204  1.5670
  105OSM    H6G10728   1.100   2.675   9.954  0.7203  0.1105 -1.9559
  105OSM    C7F10729   1.066   2.831   9.806  0.1152  0.2593  0.7560
  105OSM    H7F10730   1.085   2.764   9.719 -0.0502  2.5884 -1.1378
  105OSM    H7G10731   1.162   2.879   9.836  1.3274 -0.6524 -1.4748
  105OSM    C8F10732   0.963   2.927   9.749 -0.4881 -0.0916 -0.0609
  105OSM    H8F10733   1.011   3.012   9.695 -2.9673 -0.3850 -2.8344
  105OSM    H8G10734   0.918   2.986   9.832  0.5009 -0.1235  0.5046
  105OSM    C9F10735   0.857   2.871   9.661  0.1579 -0.2779 -0.0008
  105OSM    H9F10736   0.821   2.775   9.700 -0.1183 -1.1674 -2.3456
  105OSM   C10F10737   0.817   2.903   9.538  0.1405 -0.2009  0.4713
  105OSM   H10F10738   0.748   2.836   9.485  0.5088 -0.0583 -0.2002
  105OSM   C11F10739   0.876   3.015   9.456 -0.2391 -0.1106 -0.0115
  105OSM   H11F10740   0.962   3.068   9.502 -1.5862 -0.1025  2.6201
  105OSM   H11G10741   0.805   3.100   9.462 -3.7589 -2.9286 -0.1754
  105OSM   C12F10742   0.909   2.973   9.310 -0.2102 -0.1856 -0.9753
  105OSM   H12F10743   0.827   2.908   9.274  0.9515 -2.3016  0.0906
  105OSM   H12G10744   0.993   2.900   9.310 -0.9368 -1.0607 -2.5236
  105OSM   C13F10745   0.952   3.089   9.222 -0.0138  0.0715  0.3454
  105OSM   H13F10746   1.031   3.142   9.279  1.0738 -0.2432 -0.8406
  105OSM   H13G10747   0.861   3.153   9.212  0.1213  0.4039  1.1696
  105OSM   C14F10748   1.003   3.051   9.084  0.1310 -0.3057 -0.3921
  105OSM   H14F10749   1.112   3.032   9.091 -0.3684 -2.9697  1.0606
  105OSM   H14G10750   0.971   3.133   9.017  0.3870  0.8942  0.9327
  105OSM   C15F10751   0.943   2.926   9.024  0.6978  0.4205 -0.0967
  105OSM   H15F10752   0.832   2.926   9.038  0.9568 -1.3481  2.4009
  105OSM   H15G10753   0.974   2.834   9.078 -1.8030  1.1163  2.6381
  105OSM   C16F10754   0.984   2.913   8.872 -0.2448 -0.2608  0.6952
  105OSM   H16F10755   0.995   2.804   8.850 -1.5872 -0.2933  0.1301
  105OSM   H16G10756   1.082   2.962   8.859 -1.1168  0.9688 -1.4728
  105OSM   C17F10757   0.895   2.982   8.776 -0.7272 -0.5642 -0.6855
  105OSM   H17F10758   0.902   3.088   8.810 -0.2833 -1.0999  0.9312
  105OSM   H17G10759   0.794   2.937   8.790 -1.0159 -0.4191 -2.1801
  105OSM   C18F10760   0.952   2.980   8.639 -0.0142 -0.0669  0.4842
  105OSM   H18F10761   0.884   3.012   8.557  0.5063  0.3404  0.2041
  105OSM   H18G10762   0.971   2.878   8.599 -3.1128 -0.5265  0.0339
  105OSM   H18H10763   1.047   3.039   8.636 -0.7314  1.1654  1.3387
  106OSM      N10764   6.722   1.630  10.607 -0.0711  0.0057  0.3253
  106OSM    C1510765   6.583   1.586  10.581 -0.1425 -0.4077 -0.3881
  106OSM   H15A10766   6.524   1.677  10.575 -0.0614 -0.4007 -1.1067
  106OSM   H15B10767   6.537   1.516  10.649  2.4459 -0.5969  1.2245
  106OSM   H15C10768   6.569   1.528  10.491 -1.3175  0.6252 -0.8813
  106OSM    C1410769   6.821   1.531  10.561  0.3902  0.6271  0.1161
  106OSM   H14A10770   6.811   1.440  10.618  0.1067  2.3581  2.8941
  106OSM   H14B10771   6.924   1.562  10.575  2.0978 -3.4734 -2.3587
  106OSM   H14C10772   6.798   1.507  10.458 -1.0580 -0.5886  0.7134
  106OSM    C1310773   6.747   1.755  10.523  0.7204 -0.0825  0.4359
  106OSM   H13A10774   6.852   1.778  10.532  0.8824 -1.0103  0.9254
  106OSM   H13B10775   6.698   1.846  10.556 -5.8006 -2.6461 -1.3978
  106OSM   H13C10776   6.737   1.746  10.416  2.0364 -1.6212  0.4220
  106OSM    C1210777   6.745   1.667  10.747 -1.3919 -0.7495  0.2790
  106OSM   H12A10778   6.763   1.579  10.806  1.0750 -2.1539 -2.4299
  106OSM   H12B10779   6.650   1.703  10.784  0.1309  0.7722  2.9293
  106OSM    C1110780   6.852   1.783  10.778 -0.1287 -0.6539 -0.4264
  106OSM   H11A10781   6.842   1.811  10.885 -0.4680 -0.6899 -0.4511
  106OSM   H11B10782   6.844   1.882  10.729 -0.2971 -0.0510  0.8061
  106OSM      P10783   7.097   1.790  10.698 -0.0650 -0.0176 -0.1886
  106OSM    O1310784   7.171   1.853  10.807 -0.7175 -0.1317  0.6150
  106OSM    O1410785   7.168   1.683  10.620  0.3375  0.1738  0.1506
  106OSM    O1110786   7.044   1.902  10.605  1.1511  0.4401 -0.0346
  106OSM    O1210787   6.977   1.725  10.762  1.2047 -0.0406 -0.6956
  106OSM    C1S10788   7.109   1.932  10.477  0.5361  0.2241  0.3577
  106OSM    H1S10789   7.123   1.840  10.417 -1.5567  0.7178 -0.9323
  106OSM    H1T10790   7.214   1.967  10.487  0.5273  0.2679  0.2964
  106OSM     NF10791   7.075   2.025  10.251 -0.4453  0.6471 -0.0403
  106OSM    HNF10792   7.155   2.078  10.223  2.1586 -2.1932  1.6976
  106OSM    C2S10793   7.020   2.016  10.385 -0.0880  0.1393 -0.1298
  106OSM    H2S10794   6.916   1.976  10.379  0.9906 -2.6003 -1.4621
  106OSM    C3S10795   7.020   2.156  10.452  0.4969 -0.2443 -0.8615
  106OSM    H3S10796   7.122   2.195  10.471  0.3847  0.3461 -1.4549
  106OSM     O310797   6.962   2.158  10.582  1.2006  0.5699 -0.0620
  106OSM    HO310798   6.987   2.072  10.617  0.2785  0.2490 -0.1779
  106OSM    C4S10799   6.950   2.245  10.357  0.2964 -0.8922 -0.8725
  106OSM    H4S10800   6.845   2.216  10.344  0.7119 -2.3149 -1.1180
  106OSM    C5S10801   7.000   2.357  10.295  0.4249  0.5952  0.4687
  106OSM    H5S10802   7.101   2.400  10.302  0.6810  0.1653 -0.4951
  106OSM    C6S10803   6.917   2.436  10.201  0.7735 -0.0874  0.2835
  106OSM    H6S10804   6.886   2.533  10.246  0.2398 -0.3502  0.4830
  106OSM    H6T10805   6.821   2.387  10.175  1.1220 -0.6571  0.0659
  106OSM    C7S10806   6.988   2.471  10.075 -0.3259  0.5447  0.6247
  106OSM    H7S10807   7.040   2.380  10.037  2.5622  2.9296 -1.4142
  106OSM    H7T10808   7.064   2.548  10.099  0.2700  0.0077  0.4859
  106OSM    C8S10809   6.895   2.536   9.970  0.4781 -0.2508  0.4794
  106OSM    H8S10810   6.846   2.630  10.002  0.9903  0.6290 -1.2377
  106OSM    H8T10811   6.820   2.460   9.939 -0.9083  0.2031  2.6299
  106OSM    C9S10812   6.983   2.562   9.843 -0.4803 -0.2921 -0.0227
  106OSM    H9S10813   7.021   2.462   9.811  1.6458  0.4323  0.1133
  106OSM    H9T10814   7.073   2.627   9.854 -1.5973  1.0807  1.0966
  106OSM   C10S10815   6.890   2.609   9.731 -0.2438 -0.4864 -0.6460
  106OSM   H10S10816   6.826   2.696   9.758 -0.2083 -0.5922 -0.2158
  106OSM   H10T10817   6.824   2.522   9.710 -0.0926 -1.0500  1.0780
  106OSM   C11S10818   6.958   2.642   9.594  0.7798 -0.1270  0.3752
  106OSM   H11S10819   7.041   2.571   9.576 -0.4417 -0.9929 -2.1119
  106OSM   H11T10820   6.982   2.750   9.588  2.1294 -0.3123  1.9996
  106OSM   C12S10821   6.856   2.611   9.477 -0.0843 -1.1269  0.4631
  106OSM   H12S10822   6.767   2.676   9.489  1.8673  2.0265 -1.2105
  106OSM   H12T10823   6.830   2.504   9.486  0.7053 -1.1450  2.8537
  106OSM   C13S10824   6.923   2.631   9.342 -0.7689  0.1503  0.9112
  106OSM   H13S10825   7.008   2.560   9.332  1.0679  2.5504 -1.1799
  106OSM   H13T10826   6.952   2.738   9.334 -0.3751 -0.2044 -3.5073
  106OSM   C14S10827   6.823   2.607   9.222 -0.0042  0.6784 -0.0296
  106OSM   H14S10828   6.763   2.701   9.213 -0.9733  0.2095  1.3010
  106OSM   H14T10829   6.740   2.537   9.248 -1.3882  1.8230 -1.2359
  106OSM   C15S10830   6.885   2.560   9.085  0.2369  0.0818 -0.1692
  106OSM   H15S10831   6.917   2.455   9.101 -1.5635 -0.0455  3.1243
  106OSM   H15T10832   6.983   2.610   9.074  0.1303  0.9569  2.4591
  106OSM   C16S10833   6.798   2.571   8.958 -0.5244 -0.2439 -0.6531
  106OSM   H16S10834   6.754   2.673   8.955  0.1211  0.0609  0.3540
  106OSM   H16T10835   6.719   2.494   8.978  0.4513 -1.2795 -0.7677
  106OSM   C17S10836   6.887   2.539   8.844  0.9560 -0.3163 -0.7697
  106OSM   H17S10837   6.917   2.432   8.854 -1.1400 -0.7942  0.7425
  106OSM   H17T10838   6.985   2.590   8.855  1.0981 -0.8527  0.5767
  106OSM   C18S10839   6.830   2.577   8.705 -0.2682 -0.1781 -0.3489
  106OSM   H18S10840   6.845   2.685   8.688 -0.8678  0.3402  2.1630
  106OSM   H18T10841   6.720   2.565   8.707 -0.2132 -0.5865  1.1822
  106OSM   H18U10842   6.871   2.514   8.624 -0.7693  0.4951 -1.1302
  106OSM    C1F10843   7.051   1.922  10.164  0.2988  0.2263  0.4709
  106OSM     OF10844   6.975   1.835  10.195  0.2110  0.1904  0.0355
  106OSM    C2F10845   7.098   1.953  10.027 -0.3293  0.0817  0.1202
  106OSM    H2F10846   7.202   1.993  10.025  0.5295 -2.0839  0.5776
  106OSM    H2G10847   7.032   2.031   9.984  1.2291  0.2704 -1.9958
  106OSM    C3F10848   7.080   1.826   9.934  0.2956 -0.0901  0.0261
  106OSM    H3F10849   6.976   1.789   9.940  0.1087  0.5193  0.5287
  106OSM    H3G10850   7.130   1.732   9.967 -0.9437 -0.5119  0.7123
  106OSM    C4F10851   7.135   1.854   9.796 -0.0084  0.1648  0.1763
  106OSM    H4F10852   7.244   1.877   9.792 -0.2315  1.4589  1.1225
  106OSM    H4G10853   7.072   1.933   9.750 -0.6944 -0.4057  0.1348
  106OSM    C5F10854   7.126   1.730   9.702  0.4501 -0.0826 -0.0341
  106OSM    H5F10855   7.023   1.692   9.718  0.1532  1.2830  1.4847
  106OSM    H5G10856   7.200   1.659   9.744  1.4327  0.4324 -0.8807
  106OSM    C6F10857   7.157   1.763   9.554 -0.3610 -0.6971 -0.1675
  106OSM    H6F10858   7.267   1.777   9.546 -0.4340 -0.8151 -1.4176
  106OSM    H6G10859   7.106   1.857   9.526  3.7104  1.7177  0.1776
  106OSM    C7F10860   7.105   1.653   9.462  0.3673 -1.0045  0.5114
  106OSM    H7F10861   7.002   1.620   9.489  0.5883 -1.1416  1.1896
  106OSM    H7G10862   7.180   1.573   9.475  0.0122 -1.9778 -2.9235
  106OSM    C8F10863   7.100   1.689   9.307 -0.5831 -0.3267  0.2648
  106OSM    H8F10864   7.034   1.776   9.288  0.4285  0.1292 -1.3270
  106OSM    H8G10865   7.036   1.608   9.266  0.3156 -2.7387  3.4169
  106OSM    C9F10866   7.238   1.715   9.251  0.6232 -0.1589 -0.4580
  106OSM    H9F10867   7.282   1.805   9.296  2.2148 -0.1264 -2.0665
  106OSM   C10F10868   7.289   1.649   9.147 -0.1511  0.2678  0.4680
  106OSM   H10F10869   7.393   1.664   9.115 -0.8928  1.5928 -1.3843
  106OSM   C11F10870   7.226   1.523   9.079  0.2915  0.3085 -0.1958
  106OSM   H11F10871   7.154   1.461   9.137  0.6783 -0.1141 -0.1636
  106OSM   H11G10872   7.303   1.447   9.052 -1.2056 -0.8916 -1.1395
  106OSM   C12F10873   7.145   1.568   8.949  0.3304 -0.0225 -0.2593
  106OSM   H12F10874   7.122   1.490   8.873 -0.3731  0.6790 -0.7673
  106OSM   H12G10875   7.220   1.625   8.891 -1.4696  2.5070 -0.1985
  106OSM   C13F10876   7.020   1.658   8.975 -0.3479 -0.3445 -0.7941
  106OSM   H13F10877   7.057   1.755   9.014  0.0742 -0.2338 -1.4646
  106OSM   H13G10878   6.962   1.601   9.051  1.1580 -0.7326  0.0883
  106OSM   C14F10879   6.937   1.682   8.851 -0.2638 -0.9038  0.0373
  106OSM   H14F10880   6.863   1.761   8.874  1.5283  1.0892 -0.8601
  106OSM   H14G10881   6.880   1.595   8.813  0.6263 -1.2476 -0.5346
  106OSM   C15F10882   7.027   1.732   8.735  0.3061  0.1075  1.1329
  106OSM   H15F10883   7.101   1.654   8.706 -1.0482 -0.9544  0.4760
  106OSM   H15G10884   7.079   1.823   8.772  1.6514 -1.6621  3.7370
  106OSM   C16F10885   6.942   1.791   8.618  0.1171  0.4590 -0.8450
  106OSM   H16F10886   6.867   1.862   8.658 -0.9187 -1.4311  0.6255
  106OSM   H16G10887   6.898   1.699   8.575 -0.1330  0.4990 -0.6769
  106OSM   C17F10888   7.024   1.868   8.512  0.0696  0.1109  1.1590
  106OSM   H17F10889   7.120   1.818   8.489 -0.8650 -1.9811  1.6472
  106OSM   H17G10890   7.034   1.974   8.543  0.8237  0.2030  0.6065
  106OSM   C18F10891   6.956   1.867   8.374 -0.2744 -0.6831  0.1811
  106OSM   H18F10892   6.952   1.770   8.320  3.0514  0.7242 -2.8739
  106OSM   H18G10893   7.019   1.919   8.298 -0.7099 -1.4745 -0.7426
  106OSM   H18H10894   6.853   1.907   8.383  0.3424  1.3845 -1.5016
  107OSM      N10895   3.329   6.303  10.753  0.7642 -0.0823 -0.4442
  107OSM    C1510896   3.186   6.275  10.738 -0.1662  0.5977 -0.1636
  107OSM   H15A10897   3.136   6.336  10.663 -1.0995  0.6337  0.4747
  107OSM   H15B10898   3.131   6.293  10.829 -0.7280 -0.9088 -0.1975
  107OSM   H15C10899   3.167   6.173  10.711 -0.6840  0.7326 -0.3155
  107OSM    C1410900   3.384   6.216  10.865  0.2360 -1.0512 -0.1587
  107OSM   H14A10901   3.324   6.226  10.955 -0.6912  2.8980 -1.1097
  107OSM   H14B10902   3.483   6.250  10.892 -0.0705 -0.8265  0.7236
  107OSM   H14C10903   3.383   6.115  10.828  1.4012 -0.3526 -2.1425
  107OSM    C1310904   3.391   6.256  10.627 -0.8450 -0.2857  0.5829
  107OSM   H13A10905   3.488   6.302  10.615 -2.1076  3.0268  2.6677
  107OSM   H13B10906   3.330   6.300  10.549 -1.2650 -0.0934  1.0237
  107OSM   H13C10907   3.386   6.149  10.612 -1.9701 -0.0104 -1.2620
  107OSM    C1210908   3.357   6.447  10.774 -0.3509  0.2015 -0.1626
  107OSM   H12A10909   3.462   6.449  10.799 -0.2851 -1.1107 -0.3126
  107OSM   H12B10910   3.312   6.472  10.869  0.2140  1.2734 -0.1673
  107OSM    C1110911   3.325   6.550  10.667 -0.8848  0.0635 -0.3680
  107OSM   H11A10912   3.374   6.529  10.569  3.0574 -0.8460  1.7317
  107OSM   H11B10913   3.374   6.648  10.689 -1.7998  0.7219 -1.1819
  107OSM      P10914   3.095   6.660  10.735 -0.0271  0.1877  0.0644
  107OSM    O1310915   2.962   6.639  10.681 -0.4673  0.1432  0.2674
  107OSM    O1410916   3.114   6.627  10.881  0.3722  0.5974  0.0960
  107OSM    O1110917   3.154   6.811  10.714  0.1697  0.2196 -0.0236
  107OSM    O1210918   3.186   6.573  10.649  0.5046 -0.3674  0.6249
  107OSM    C1S10919   3.207   6.851  10.583  0.3546  0.0467  0.1503
  107OSM    H1S10920   3.269   6.770  10.539  0.4499  0.3669 -0.2998
  107OSM    H1T10921   3.273   6.938  10.602 -0.8390  0.9878  0.0519
  107OSM     NF10922   3.150   6.936  10.364  0.3119  0.0244  0.0888
  107OSM    HNF10923   3.154   7.033  10.345  1.7376  0.2673  1.5094
  107OSM    C2S10924   3.088   6.892  10.486  0.9061 -0.9470  1.2050
  107OSM    H2S10925   3.032   6.798  10.470 -0.1725  0.1550 -1.6910
  107OSM    C3S10926   2.989   6.996  10.550 -0.0142 -0.2051 -1.0213
  107OSM    H3S10927   3.047   7.090  10.563 -1.2887  0.7402 -2.0984
  107OSM     O310928   2.926   6.958  10.674  0.2394 -0.1258  0.4844
  107OSM    HO310929   2.961   6.871  10.698 -0.7628 -0.3926  0.9897
  107OSM    C4S10930   2.883   7.039  10.444  0.1949 -0.0223  0.3803
  107OSM    H4S10931   2.910   7.138  10.405 -0.6794 -0.4665 -1.3915
  107OSM    C5S10932   2.786   6.960  10.393  0.4074 -0.1170  0.1261
  107OSM    H5S10933   2.779   6.859  10.436 -0.3589  0.0041  0.2990
  107OSM    C6S10934   2.685   6.986  10.284 -0.3268 -0.3929 -0.5335
  107OSM    H6S10935   2.639   7.087  10.289  2.2859  0.7659  1.8220
  107OSM    H6T10936   2.604   6.910  10.279 -0.5698 -0.0227 -2.9171
  107OSM    C7S10937   2.752   6.985  10.146 -0.3173 -0.1959 -0.4406
  107OSM    H7S10938   2.834   7.057  10.125 -0.1853 -0.2085  0.0130
  107OSM    H7T10939   2.667   7.009  10.078 -0.7997 -0.9753 -0.1195
  107OSM    C8S10940   2.793   6.844  10.112  0.4268 -0.3650  1.0292
  107OSM    H8S10941   2.728   6.771  10.165  1.0763 -1.3606  0.4696
  107OSM    H8T10942   2.890   6.809  10.155  1.3667  0.5098 -0.3747
  107OSM    C9S10943   2.795   6.815   9.957  0.1571  0.2087  0.1191
  107OSM    H9S10944   2.876   6.878   9.916  0.2882  0.1307  0.2558
  107OSM    H9T10945   2.696   6.842   9.915 -0.5437  0.4154  1.8749
  107OSM   C10S10946   2.827   6.664   9.923 -0.1776  0.6400 -0.1103
  107OSM   H10S10947   2.777   6.605  10.003 -1.0081  2.9635  1.1207
  107OSM   H10T10948   2.936   6.649   9.933 -0.3394 -0.9725 -0.5387
  107OSM   C11S10949   2.767   6.617   9.794  0.7573 -0.8343  0.1082
  107OSM   H11S10950   2.657   6.632   9.801  0.5371 -2.2151 -0.1807
  107OSM   H11T10951   2.786   6.511   9.767 -3.6338 -1.4708 -0.8435
  107OSM   C12S10952   2.820   6.684   9.666  0.8881  0.1503  0.1942
  107OSM   H12S10953   2.925   6.648   9.653  0.9832  0.0802  1.1494
  107OSM   H12T10954   2.820   6.794   9.683 -1.3455  0.1061  0.6160
  107OSM   C13S10955   2.739   6.634   9.544 -0.4111 -0.4627 -0.0581
  107OSM   H13S10956   2.633   6.633   9.577 -0.2406 -0.8870  0.4810
  107OSM   H13T10957   2.766   6.528   9.527 -1.6513 -0.3420 -3.1545
  107OSM   C14S10958   2.758   6.703   9.408 -0.0932  0.4057  0.3560
  107OSM   H14S10959   2.865   6.716   9.381 -0.1159  0.4328  0.2770
  107OSM   H14T10960   2.693   6.792   9.415 -1.5586 -0.1032 -4.7210
  107OSM   C15S10961   2.684   6.634   9.289  0.3638 -0.3751  0.8717
  107OSM   H15S10962   2.586   6.595   9.325 -0.8741  2.0177  0.2318
  107OSM   H15T10963   2.746   6.553   9.245 -1.9259 -2.7778  1.9476
  107OSM   C16S10964   2.645   6.732   9.175  0.1878  0.5771  0.2022
  107OSM   H16S10965   2.570   6.798   9.224 -0.5261 -0.2542  0.2537
  107OSM   H16T10966   2.586   6.675   9.100  0.5031 -0.0099  0.3911
  107OSM   C17S10967   2.756   6.817   9.120 -0.2803 -0.3590  0.5776
  107OSM   H17S10968   2.844   6.752   9.098 -0.1851  0.3687 -1.2301
  107OSM   H17T10969   2.784   6.891   9.198 -1.5095  1.7417 -0.9211
  107OSM   C18S10970   2.722   6.891   8.987 -0.5385 -0.0162  0.2466
  107OSM   H18S10971   2.806   6.953   8.948 -1.7179  0.1917 -2.0280
  107OSM   H18T10972   2.626   6.948   8.988  0.9757  2.6009  2.9827
  107OSM   H18U10973   2.702   6.807   8.918  3.8251 -1.3230  0.4415
  107OSM    C1F10974   3.197   6.852  10.277  0.0123 -0.2067  1.3337
  107OSM     OF10975   3.200   6.735  10.293 -0.0915  0.1322 -0.2258
  107OSM    C2F10976   3.256   6.912  10.148 -0.7378 -0.2481  0.3904
  107OSM    H2F10977   3.362   6.880  10.141 -0.8454 -0.6716  0.6310
  107OSM    H2G10978   3.242   7.022  10.156 -2.2332 -0.3164 -1.0236
  107OSM    C3F10979   3.190   6.850  10.024 -0.5681 -0.7579 -0.3171
  107OSM    H3F10980   3.079   6.859  10.025 -0.6100 -1.2786 -0.2289
  107OSM    H3G10981   3.213   6.742  10.016 -0.6906 -0.6530 -2.5459
  107OSM    C4F10982   3.237   6.919   9.899 -0.2872  0.2455 -0.2123
  107OSM    H4F10983   3.335   6.897   9.852  0.1587  0.1836  0.7388
  107OSM    H4G10984   3.237   7.030   9.905 -1.3144  0.4955 -3.4745
  107OSM    C5F10985   3.137   6.881   9.787  0.0691 -0.3548  1.5296
  107OSM    H5F10986   3.046   6.946   9.790  1.4174  1.5790  1.5649
  107OSM    H5G10987   3.106   6.775   9.791  1.0133 -0.8357 -2.1023
  107OSM    C6F10988   3.194   6.906   9.644  0.1136 -0.2434  0.2537
  107OSM    H6F10989   3.284   6.843   9.629  1.7918  1.6271  2.1335
  107OSM    H6G10990   3.224   7.013   9.640  0.2253 -0.2677  0.4298
  107OSM    C7F10991   3.092   6.891   9.532 -0.6008 -0.9094  0.2577
  107OSM    H7F10992   3.026   6.980   9.541 -0.7325 -0.8109 -1.4088
  107OSM    H7G10993   3.026   6.805   9.553 -2.0109 -0.0023 -0.3901
  107OSM    C8F10994   3.161   6.881   9.400 -0.1309  0.4831  0.3104
  107OSM    H8F10995   3.236   6.963   9.396 -0.9284  1.1725 -0.6342
  107OSM    H8G10996   3.079   6.890   9.326  1.0869 -1.4520 -1.3314
  107OSM    C9F10997   3.232   6.750   9.368  0.2576  0.9914 -0.1047
  107OSM    H9F10998   3.255   6.686   9.454 -1.5002  1.5595  0.7943
  107OSM   C10F10999   3.274   6.712   9.247  0.0409  0.3765 -0.0443
  107OSM   H10F11000   3.329   6.616   9.249  2.2074  1.5872  0.8993
  107OSM   C11F11001   3.265   6.771   9.112  0.8169  0.5189 -0.4366
  107OSM   H11F11002   3.329   6.713   9.042 -1.5163  0.0669 -2.2618
  107OSM   H11G11003   3.306   6.875   9.114  4.8472 -0.9946  2.6634
  107OSM   C12F11004   3.124   6.790   9.053 -0.3398 -0.4403  1.1136
  107OSM   H12F11005   3.062   6.865   9.106  1.1488  0.7740  1.1721
  107OSM   H12G11006   3.076   6.691   9.069 -0.1667 -0.9536 -1.3649
  107OSM   C13F11007   3.121   6.839   8.905 -0.3095 -0.0854  0.3715
  107OSM   H13F11008   3.153   6.943   8.883 -0.4034  0.0901  1.0686
  107OSM   H13G11009   3.013   6.836   8.876  0.9356  0.0837 -4.8072
  107OSM   C14F11010   3.195   6.744   8.809  0.2388  0.0126  0.0240
  107OSM   H14F11011   3.157   6.641   8.822  1.0373 -0.3688 -0.6108
  107OSM   H14G11012   3.304   6.755   8.823 -0.0005  0.2446  1.8428
  107OSM   C15F11013   3.180   6.785   8.663  0.1133 -0.4386 -0.0494
  107OSM   H15F11014   3.224   6.886   8.651  0.8392 -0.8336 -0.7808
  107OSM   H15G11015   3.070   6.794   8.647 -0.0248  0.8902  1.4527
  107OSM   C16F11016   3.259   6.698   8.563 -0.1868  0.9863 -0.1426
  107OSM   H16F11017   3.207   6.602   8.542 -0.9626  1.4851 -0.5278
  107OSM   H16G11018   3.357   6.682   8.612 -1.1094 -0.4143  1.2952
  107OSM   C17F11019   3.269   6.773   8.422 -0.0933  0.1823 -0.7723
  107OSM   H17F11020   3.315   6.874   8.434  1.1634  0.0120 -3.7098
  107OSM   H17G11021   3.162   6.783   8.394 -0.1345  2.8820  0.1603
  107OSM   C18F11022   3.350   6.705   8.318 -0.1624  0.8498 -0.1876
  107OSM   H18F11023   3.304   6.604   8.303  1.6916 -0.1013  0.4244
  107OSM   H18G11024   3.452   6.686   8.358  0.4418 -1.7906 -2.7330
  107OSM   H18H11025   3.357   6.757   8.220 -0.3796  0.1696 -0.5687
  108OSM      N11026   0.345   1.397  10.827  0.2618 -0.2441  0.2044
  108OSM    C1511027   0.344   1.274  10.908  0.0601 -0.0732 -0.3553
  108OSM   H15A11028   0.262   1.209  10.880  0.1828  0.2178 -1.3813
  108OSM   H15B11029   0.337   1.294  11.014  0.2913  0.2590 -0.4042
  108OSM   H15C11030   0.430   1.210  10.898 -0.9809 -1.5508 -0.1702
  108OSM    C1411031   0.446   1.499  10.885 -0.1432 -0.1626 -0.0433
  108OSM   H14A11032   0.438   1.588  10.824  1.5651 -2.8454 -4.4017
  108OSM   H14B11033   0.546   1.460  10.870  0.1973  0.9002 -0.6075
  108OSM   H14C11034   0.426   1.524  10.988 -0.9995  1.7049 -0.6395
  108OSM    C1311035   0.373   1.374  10.679 -0.3817 -0.4859  0.2961
  108OSM   H13A11036   0.477   1.348  10.664 -0.7551 -1.6031 -0.4887
  108OSM   H13B11037   0.362   1.468  10.626  0.3056  0.1135  1.2061
  108OSM   H13C11038   0.306   1.303  10.633 -0.9330  1.1319 -1.4820
  108OSM    C1211039   0.203   1.457  10.837  0.2332  0.0475 -0.0319
  108OSM   H12A11040   0.186   1.533  10.761 -1.3099 -0.5588 -0.3107
  108OSM   H12B11041   0.189   1.506  10.933  1.7478  1.2924 -0.4218
  108OSM    C1111042   0.088   1.358  10.821  0.6200  0.5834  0.7298
  108OSM   H11A11043  -0.009   1.412  10.830  0.4065  1.3070 -4.5218
  108OSM   H11B11044   0.097   1.279  10.898  2.7287 -2.2835 -2.3409
  108OSM      P11045   0.071   1.140  10.671 -0.3858 -0.1696  0.5358
  108OSM    O1311046   0.104   1.108  10.529  0.4177 -0.1130  0.4014
  108OSM    O1411047   0.167   1.081  10.765  0.0527  0.5430 -0.1413
  108OSM    O1111048  -0.078   1.104  10.697  0.1257 -0.6227 -0.0181
  108OSM    O1211049   0.092   1.298  10.684  0.0638  0.3078 -0.4021
  108OSM    C1S11050  -0.187   1.165  10.634  0.4012 -0.4574  0.1876
  108OSM    H1S11051  -0.163   1.269  10.602  1.2904 -0.8536 -0.4498
  108OSM    H1T11052  -0.269   1.170  10.709 -0.1115  1.1593 -0.4512
  108OSM     NF11053  -0.348   1.151  10.451 -0.8942 -0.5521  0.1744
  108OSM    HNF11054  -0.435   1.126  10.494 -1.2325 -1.4040 -0.9451
  108OSM    C2S11055  -0.231   1.089  10.506  0.2868 -0.0986 -0.1779
  108OSM    H2S11056  -0.145   1.098  10.435  1.6102 -0.3199  1.3679
  108OSM    C3S11057  -0.268   0.938  10.535 -0.5464  0.9394 -0.2646
  108OSM    H3S11058  -0.348   0.941  10.613  0.8746 -1.4001  1.3616
  108OSM     O311059  -0.171   0.870  10.615  0.0941  0.2410 -0.6702
  108OSM    HO311060  -0.101   0.931  10.637  0.5940  0.5239 -2.8787
  108OSM    C4S11061  -0.317   0.868  10.412  0.1156  0.4789 -0.1773
  108OSM    H4S11062  -0.417   0.901  10.380 -1.0553 -4.3657 -1.8974
  108OSM    C5S11063  -0.248   0.775  10.341 -0.1031 -0.3535 -0.3040
  108OSM    H5S11064  -0.149   0.762  10.386 -2.3126  0.2217  5.0216
  108OSM    C6S11065  -0.294   0.712  10.211  0.6436  0.2744  0.0161
  108OSM    H6S11066  -0.393   0.670  10.236  0.9348  0.8510  2.2619
  108OSM    H6T11067  -0.230   0.634  10.164 -0.6766  0.7650 -2.6517
  108OSM    C7S11068  -0.326   0.822  10.105  0.1424  0.4535  0.1667
  108OSM    H7S11069  -0.245   0.898  10.101  0.9004 -0.2549  1.9080
  108OSM    H7T11070  -0.415   0.878  10.140  1.6103  1.8714  1.7163
  108OSM    C8S11071  -0.346   0.754   9.968 -0.2212 -0.4017 -0.3239
  108OSM    H8S11072  -0.397   0.657   9.988 -0.8603 -0.2096 -0.9944
  108OSM    H8T11073  -0.242   0.723   9.946 -0.2974 -0.1058 -1.1083
  108OSM    C9S11074  -0.409   0.843   9.869 -0.2573 -0.4797 -0.6409
  108OSM    H9S11075  -0.338   0.927   9.858  1.6967 -1.7074  1.8128
  108OSM    H9T11076  -0.505   0.885   9.906 -0.2401 -0.2035 -0.9119
  108OSM   C10S11077  -0.433   0.761   9.746  0.5551  0.5464 -0.1716
  108OSM   H10S11078  -0.523   0.697   9.756  2.0467 -1.8380 -1.3991
  108OSM   H10T11079  -0.349   0.690   9.727 -1.3101 -1.6592 -0.3616
  108OSM   C11S11080  -0.466   0.839   9.613 -0.2450  0.0476  0.1759
  108OSM   H11S11081  -0.366   0.883   9.591  1.4061 -3.1333  0.9137
  108OSM   H11T11082  -0.535   0.925   9.622  1.2092  1.1338  1.3583
  108OSM   C12S11083  -0.507   0.748   9.498 -0.0763  0.4684 -0.2402
  108OSM   H12S11084  -0.616   0.724   9.505  0.2376 -0.2917  3.1609
  108OSM   H12T11085  -0.455   0.651   9.509 -0.1170  0.6311  1.5611
  108OSM   C13S11086  -0.488   0.811   9.363 -0.2095  0.7440 -0.4645
  108OSM   H13S11087  -0.385   0.842   9.334 -0.0900 -0.9351 -1.8862
  108OSM   H13T11088  -0.549   0.904   9.369 -1.1335  0.0463  1.1059
  108OSM   C14S11089  -0.556   0.729   9.247 -0.3766 -0.3986 -0.1345
  108OSM   H14S11090  -0.653   0.681   9.271  2.5151 -5.8145  1.7768
  108OSM   H14T11091  -0.492   0.644   9.216 -0.3025 -1.8419  3.7532
  108OSM   C15S11092  -0.572   0.807   9.116 -0.1862 -0.9818  0.3494
  108OSM   H15S11093  -0.600   0.742   9.030  0.9995 -1.2571  0.1573
  108OSM   H15T11094  -0.473   0.856   9.102 -0.3238 -0.0794  2.3788
  108OSM   C16S11095  -0.677   0.912   9.115 -0.5777 -0.2008  0.3568
  108OSM   H16S11096  -0.677   0.967   9.211 -2.2049 -1.0697  0.8676
  108OSM   H16T11097  -0.775   0.859   9.118 -0.3783 -0.7914 -1.9747
  108OSM   C17S11098  -0.681   1.002   8.987 -0.5254 -0.3952  0.2730
  108OSM   H17S11099  -0.579   1.043   8.970 -1.0513  1.2141  0.9284
  108OSM   H17T11100  -0.753   1.084   9.006 -1.0049 -0.7846  0.1627
  108OSM   C18S11101  -0.703   0.916   8.872 -0.2239  0.2107 -0.4545
  108OSM   H18S11102  -0.803   0.868   8.880 -0.6159  1.1756  0.5954
  108OSM   H18T11103  -0.614   0.849   8.865 -0.0667  0.4869 -1.0458
  108OSM   H18U11104  -0.703   0.975   8.778 -3.7871 -0.4885 -0.9541
  108OSM    C1F11105  -0.343   1.267  10.393  0.2239  0.4849  0.2981
  108OSM     OF11106  -0.235   1.308  10.355 -0.4308  0.0276 -0.8241
  108OSM    C2F11107  -0.470   1.356  10.376 -0.1995  0.3134 -0.4833
  108OSM    H2F11108  -0.431   1.460  10.380  0.7684 -0.1188  2.3136
  108OSM    H2G11109  -0.536   1.338  10.464  0.5804  0.1745  0.0708
  108OSM    C3F11110  -0.544   1.342  10.243 -0.1719  0.5395 -0.5705
  108OSM    H3F11111  -0.477   1.358  10.156  1.7933 -0.5604  0.7075
  108OSM    H3G11112  -0.607   1.434  10.241 -0.9727 -0.0203 -3.6065
  108OSM    C4F11113  -0.619   1.214  10.221  0.0336 -0.2058  0.3653
  108OSM    H4F11114  -0.691   1.203  10.306  0.8624 -0.1945  1.0821
  108OSM    H4G11115  -0.553   1.125  10.230  2.3475  1.4827  0.3317
  108OSM    C5F11116  -0.685   1.218  10.093 -0.1353  0.6610  0.4210
  108OSM    H5F11117  -0.691   1.322  10.055 -0.0192  1.6157  2.8967
  108OSM    H5G11118  -0.785   1.170  10.095 -2.4927  5.3169  0.9368
  108OSM    C6F11119  -0.607   1.136   9.989 -0.1806  0.2757 -0.0194
  108OSM    H6F11120  -0.596   1.031  10.023  2.0004  1.6544  3.7961
  108OSM    H6G11121  -0.505   1.180   9.977 -0.3646  1.2582  1.8848
  108OSM    C7F11122  -0.681   1.134   9.856  0.3444 -0.1460  0.0246
  108OSM    H7F11123  -0.774   1.073   9.850  0.0216  0.2631  0.8217
  108OSM    H7G11124  -0.615   1.076   9.787 -1.3807  0.3212 -2.0632
  108OSM    C8F11125  -0.715   1.269   9.795 -0.0938  0.2459  0.8093
  108OSM    H8F11126  -0.635   1.345   9.801  1.3784 -0.9148 -2.4454
  108OSM    H8G11127  -0.801   1.316   9.847  0.3020 -0.8770  2.5235
  108OSM    C9F11128  -0.749   1.266   9.643 -1.0840  0.3250 -0.0120
  108OSM    H9F11129  -0.853   1.254   9.608  0.0438 -0.1286 -3.3709
  108OSM   C10F11130  -0.654   1.252   9.548 -0.0677  0.2749 -0.4280
  108OSM   H10F11131  -0.695   1.217   9.452  0.6713  0.0987 -0.6893
  108OSM   C11F11132  -0.506   1.240   9.569 -0.3889  0.4307  0.2325
  108OSM   H11F11133  -0.481   1.131   9.571 -0.2640  0.4680  0.6385
  108OSM   H11G11134  -0.477   1.283   9.667  1.6875  0.7702 -0.5145
  108OSM   C12F11135  -0.435   1.313   9.465 -0.6129  0.3197 -0.2587
  108OSM   H12F11136  -0.326   1.306   9.487 -0.7807 -0.5841  0.3157
  108OSM   H12G11137  -0.472   1.417   9.448 -2.9473 -0.6941 -1.6694
  108OSM   C13F11138  -0.456   1.250   9.324  0.1667 -0.3673 -0.0788
  108OSM   H13F11139  -0.553   1.286   9.284  0.4274  0.8045  0.3013
  108OSM   H13G11140  -0.459   1.140   9.330  1.3015 -0.5102 -1.8819
  108OSM   C14F11141  -0.343   1.292   9.239  0.0737  0.4958 -0.5517
  108OSM   H14F11142  -0.242   1.286   9.285  0.5350 -1.8430 -1.7653
  108OSM   H14G11143  -0.353   1.397   9.204  0.5808  0.6637 -0.1937
  108OSM   C15F11144  -0.327   1.203   9.111 -0.0577 -0.6267  0.1593
  108OSM   H15F11145  -0.418   1.217   9.048 -0.3268 -0.2895  0.6121
  108OSM   H15G11146  -0.311   1.100   9.148  0.3909 -0.0754  1.5390
  108OSM   C16F11147  -0.194   1.233   9.035  0.5120  0.2150  0.3741
  108OSM   H16F11148  -0.110   1.219   9.107  1.0947 -1.9247 -0.6733
  108OSM   H16G11149  -0.206   1.339   9.006  0.7293  0.0961 -0.1650
  108OSM   C17F11150  -0.174   1.152   8.902 -0.1128  0.0203  0.7481
  108OSM   H17F11151  -0.271   1.124   8.856  0.0348 -0.6147  0.8193
  108OSM   H17G11152  -0.121   1.058   8.925  0.3333  0.5143  1.7462
  108OSM   C18F11153  -0.083   1.217   8.802  0.3316 -0.3284 -0.0700
  108OSM   H18F11154   0.022   1.216   8.838  0.2877 -1.6366  0.0342
  108OSM   H18G11155  -0.114   1.323   8.792  1.1974  0.0349  0.9828
  108OSM   H18H11156  -0.096   1.175   8.700  0.2453  0.0940 -0.2356
  109OSM      N11157   5.426   6.239  11.280 -0.8325 -0.1951 -1.0356
  109OSM    C1511158   5.433   6.136  11.385 -0.5756  1.0920 -0.0428
  109OSM   H15A11159   5.338   6.126  11.436 -1.6927  1.6893 -1.9703
  109OSM   H15B11160   5.501   6.165  11.464 -0.8766 -1.9069  1.3923
  109OSM   H15C11161   5.468   6.042  11.344  2.1002  1.9856  0.1019
  109OSM    C1411162   5.376   6.361  11.350  0.3541 -0.4236 -0.1415
  109OSM   H14A11163   5.281   6.337  11.395 -0.3910  0.1687 -1.3703
  109OSM   H14B11164   5.365   6.451  11.291  0.5472  0.5542  1.3084
  109OSM   H14C11165   5.441   6.389  11.431  1.2880 -0.5535 -0.8322
  109OSM    C1311166   5.569   6.270  11.243 -0.2270 -0.1050 -0.0429
  109OSM   H13A11167   5.634   6.295  11.325  1.1947 -0.0307 -1.1746
  109OSM   H13B11168   5.581   6.339  11.161  4.9150 -0.4525  0.2530
  109OSM   H13C11169   5.618   6.182  11.203  0.0811  0.2950 -0.5563
  109OSM    C1211170   5.340   6.198  11.161  0.3263  0.6720  0.5409
  109OSM   H12A11171   5.249   6.155  11.201  0.8483 -1.8908 -0.9137
  109OSM   H12B11172   5.393   6.116  11.115 -1.3034 -0.4806  0.6764
  109OSM    C1111173   5.323   6.299  11.048 -0.0082  0.1669  0.4774
  109OSM   H11A11174   5.279   6.244  10.962 -0.1260  0.6328  0.2365
  109OSM   H11B11175   5.414   6.347  11.006  0.1518 -0.4415  0.1165
  109OSM      P11176   5.078   6.376  11.119  0.2214  0.1132  0.3684
  109OSM    O1311177   5.071   6.243  11.175 -0.2690  0.1440 -0.0429
  109OSM    O1411178   5.019   6.492  11.189  0.2552 -0.1109 -0.2367
  109OSM    O1111179   5.016   6.357  10.976  0.2001  0.1166  0.0214
  109OSM    O1211180   5.233   6.396  11.095  0.3046 -0.2958 -0.1464
  109OSM    C1S11181   5.053   6.435  10.862  0.3145  1.0051  0.2183
  109OSM    H1S11182   5.160   6.465  10.868  0.7664 -0.6903  1.1421
  109OSM    H1T11183   4.977   6.511  10.835 -0.4844 -0.1630 -0.8559
  109OSM     NF11184   5.127   6.392  10.625 -0.0818 -0.3998  0.3098
  109OSM    HNF11185   5.068   6.432  10.555 -0.3599 -1.2809  0.0312
  109OSM    C2S11186   5.054   6.329  10.740 -0.6860  0.0877 -0.0550
  109OSM    H2S11187   5.105   6.234  10.767 -1.2529 -0.2129 -0.0398
  109OSM    C3S11188   4.903   6.297  10.708 -0.0595 -0.1731  0.4355
  109OSM    H3S11189   4.861   6.393  10.670  1.2410  0.0024 -0.6117
  109OSM     O311190   4.817   6.256  10.808 -0.4641  0.1888  0.4029
  109OSM    HO311191   4.877   6.251  10.883 -1.7797  0.0932  1.4665
  109OSM    C4S11192   4.896   6.200  10.592 -0.2145 -0.0703 -0.2910
  109OSM    H4S11193   4.964   6.114  10.602 -0.5679 -0.1648  1.4802
  109OSM    C5S11194   4.814   6.211  10.489  0.6867 -0.0834 -0.0587
  109OSM    H5S11195   4.756   6.304  10.483 -0.7605 -0.9375  0.5935
  109OSM    C6S11196   4.798   6.124  10.373 -0.0455 -0.1951 -0.2530
  109OSM    H6S11197   4.689   6.125  10.355 -0.0907 -1.4739 -0.0816
  109OSM    H6T11198   4.834   6.022  10.399 -0.2883 -0.6349 -1.6019
  109OSM    C7S11199   4.871   6.179  10.247  0.3455 -0.3017  1.1510
  109OSM    H7S11200   4.879   6.096  10.173  1.0475 -0.5720  1.5180
  109OSM    H7T11201   4.978   6.181  10.277  1.2097  0.1499 -1.8303
  109OSM    C8S11202   4.809   6.298  10.182  0.2162  0.1738  0.5161
  109OSM    H8S11203   4.800   6.381  10.256 -1.1822 -0.0540  0.6179
  109OSM    H8T11204   4.705   6.273  10.152  0.3634  0.7850 -0.5336
  109OSM    C9S11205   4.888   6.346  10.050 -0.3123  0.9272 -0.0001
  109OSM    H9S11206   4.992   6.341  10.088  0.0648 -0.5093 -1.1397
  109OSM    H9T11207   4.856   6.447  10.018 -0.5896  0.0970 -2.5041
  109OSM   C10S11208   4.882   6.251   9.937 -0.1726  0.0495  0.7461
  109OSM   H10S11209   4.776   6.225   9.915 -0.4436  0.6630  1.3047
  109OSM   H10T11210   4.926   6.155   9.972  1.7915  1.2041  1.4905
  109OSM   C11S11211   4.962   6.297   9.820  0.4512 -0.6398 -0.1890
  109OSM   H11S11212   5.061   6.315   9.866 -1.0707  1.0396  2.5803
  109OSM   H11T11213   4.924   6.389   9.771  0.3924 -0.8239 -0.4886
  109OSM   C12S11214   4.964   6.197   9.710 -0.3532  0.1363  0.3519
  109OSM   H12S11215   4.857   6.178   9.686 -0.3914 -2.7612  2.5030
  109OSM   H12T11216   5.019   6.105   9.741  0.9135  0.5001 -0.7634
  109OSM   C13S11217   5.031   6.241   9.579  0.6924 -0.2070  0.4181
  109OSM   H13S11218   5.141   6.231   9.580  0.8088  0.3607 -2.0168
  109OSM   H13T11219   4.999   6.347   9.572  2.0857  0.3714  2.4790
  109OSM   C14S11220   4.969   6.163   9.462 -0.6002 -0.7937  0.6589
  109OSM   H14S11221   4.859   6.176   9.447 -0.1464  1.1050 -1.2199
  109OSM   H14T11222   4.998   6.058   9.483 -1.1587 -0.4596  3.4375
  109OSM   C15S11223   5.035   6.209   9.325  0.0143  0.1755  0.1136
  109OSM   H15S11224   4.991   6.153   9.239  3.5925 -2.0852 -0.3546
  109OSM   H15T11225   5.142   6.181   9.332 -0.0190 -0.4326 -1.4216
  109OSM   C16S11226   5.036   6.355   9.292 -0.3815 -0.0292 -0.5773
  109OSM   H16S11227   5.121   6.404   9.345 -1.0817  1.1898 -0.5623
  109OSM   H16T11228   4.938   6.398   9.323 -1.5679 -3.8195  1.2169
  109OSM   C17S11229   5.050   6.384   9.143  0.0021  0.5833  0.2432
  109OSM   H17S11230   5.131   6.319   9.105 -1.0825  0.1037 -1.2844
  109OSM   H17T11231   5.080   6.489   9.124  1.6401 -0.4377 -3.1871
  109OSM   C18S11232   4.918   6.354   9.068  0.6913 -0.2573  0.5727
  109OSM   H18S11233   4.868   6.264   9.111 -1.7282 -0.0410 -1.6215
  109OSM   H18T11234   4.943   6.338   8.961  0.2486 -1.1407  0.5938
  109OSM   H18U11235   4.840   6.433   9.072  1.1166  0.2640 -0.9216
  109OSM    C1F11236   5.258   6.403  10.619  0.2071 -0.3313  0.8316
  109OSM     OF11237   5.329   6.349  10.701  0.1241  0.5076  0.3954
  109OSM    C2F11238   5.302   6.483  10.498  0.1438  0.0459  0.4239
  109OSM    H2F11239   5.410   6.509  10.505  0.1255  0.9442 -2.2242
  109OSM    H2G11240   5.243   6.577  10.496 -1.2405 -0.7370  2.7296
  109OSM    C3F11241   5.286   6.404  10.368  0.2090 -0.3712  0.0809
  109OSM    H3F11242   5.182   6.370  10.346 -0.9226  1.0817  2.8872
  109OSM    H3G11243   5.343   6.309  10.372  0.0973 -0.3800  1.7167
  109OSM    C4F11244   5.332   6.480  10.243  0.3575 -0.4628  0.5855
  109OSM    H4F11245   5.431   6.526  10.264  0.9794 -1.2453 -0.5924
  109OSM    H4G11246   5.273   6.574  10.241  0.3265 -0.4676  1.1798
  109OSM    C5F11247   5.309   6.401  10.110  0.0853 -0.4860  0.6021
  109OSM    H5F11248   5.204   6.364  10.107  0.0753 -0.5294  1.3329
  109OSM    H5G11249   5.388   6.323  10.107  0.9647  0.3978  0.4353
  109OSM    C6F11250   5.329   6.500   9.983  0.2784  0.3408  0.0339
  109OSM    H6F11251   5.427   6.548  10.004  1.2703  0.3567 -4.1766
  109OSM    H6G11252   5.242   6.569   9.990  1.0994  1.4147 -0.1664
  109OSM    C7F11253   5.343   6.429   9.849  0.1299 -0.6592  0.3754
  109OSM    H7F11254   5.251   6.372   9.823 -1.8432  2.1036  1.0799
  109OSM    H7G11255   5.415   6.344   9.856  0.5695 -0.3515 -0.3530
  109OSM    C8F11256   5.378   6.522   9.737  0.2293 -0.3128  0.2666
  109OSM    H8F11257   5.478   6.563   9.766 -0.0892 -1.0816  2.5808
  109OSM    H8G11258   5.314   6.612   9.724 -0.7758 -1.4124 -2.7743
  109OSM    C9F11259   5.386   6.436   9.611  0.2485  0.3510 -0.1007
  109OSM    H9F11260   5.318   6.349   9.611 -1.7378  1.8387  1.6805
  109OSM   C10F11261   5.461   6.468   9.504  0.2984  0.4515 -0.3594
  109OSM   H10F11262   5.458   6.404   9.415 -3.3029  0.6196 -0.4183
  109OSM   C11F11263   5.547   6.593   9.493  0.1560 -0.3615  0.3361
  109OSM   H11F11264   5.649   6.552   9.475  0.2806 -1.0779  2.5864
  109OSM   H11G11265   5.553   6.653   9.586 -1.8661  1.2734 -0.5398
  109OSM   C12F11266   5.508   6.680   9.371 -0.5201 -0.8987  0.8242
  109OSM   H12F11267   5.405   6.721   9.373 -0.9581 -1.4467 -3.8886
  109OSM   H12G11268   5.517   6.615   9.281 -2.3513 -1.5508  1.0849
  109OSM   C13F11269   5.590   6.806   9.366  0.1454  0.1444 -0.4343
  109OSM   H13F11270   5.689   6.764   9.395 -0.7344 -0.7356  1.3819
  109OSM   H13G11271   5.562   6.877   9.447 -2.1834 -2.6866  1.3476
  109OSM   C14F11272   5.600   6.884   9.226  0.1562  0.2137  0.1436
  109OSM   H14F11273   5.624   6.806   9.150 -0.3365 -1.6335  1.8289
  109OSM   H14G11274   5.685   6.955   9.226 -1.0838  1.7477  1.1285
  109OSM   C15F11275   5.469   6.954   9.182  1.3838  0.2318 -0.2879
  109OSM   H15F11276   5.437   7.012   9.271 -2.4063 -1.3079 -0.5591
  109OSM   H15G11277   5.391   6.875   9.174  1.1913  0.5674 -2.0058
  109OSM   C16F11278   5.499   7.036   9.049  0.0451  0.4713 -0.0665
  109OSM   H16F11279   5.540   6.956   8.983 -1.1482  0.0354 -0.2947
  109OSM   H16G11280   5.577   7.113   9.067  0.3279 -0.1238  1.3253
  109OSM   C17F11281   5.366   7.090   8.989  0.3517 -0.3765 -0.1565
  109OSM   H17F11282   5.340   7.172   9.059  2.4757  0.3646 -0.1877
  109OSM   H17G11283   5.297   7.003   8.988 -0.4863  0.2756  0.3008
  109OSM   C18F11284   5.390   7.137   8.845 -0.3314  0.1289 -0.1951
  109OSM   H18F11285   5.446   7.232   8.834  0.0635 -0.0871 -0.0544
  109OSM   H18G11286   5.289   7.167   8.810 -1.6366 -1.6845  1.8090
  109OSM   H18H11287   5.435   7.055   8.784 -0.2790  0.9413 -1.2481
  110OSM      N11288   5.782   4.706  10.957  0.2869  0.6855  0.1445
  110OSM    C1511289   5.885   4.670  11.060 -0.9270  0.3406 -0.5461
  110OSM   H15A11290   5.848   4.617  11.146  0.0137  3.5396  1.8938
  110OSM   H15B11291   5.932   4.763  11.089  0.7716  0.5001 -3.5331
  110OSM   H15C11292   5.961   4.605  11.018 -3.3117 -1.9719 -1.4454
  110OSM    C1411293   5.665   4.776  11.021  0.0668 -0.1955  1.2315
  110OSM   H14A11294   5.596   4.827  10.956  1.2836 -0.9335 -0.6723
  110OSM   H14B11295   5.708   4.853  11.083 -1.2077  0.5160  1.2482
  110OSM   H14C11296   5.609   4.707  11.083 -0.1435 -4.0554 -2.9350
  110OSM    C1311297   5.846   4.790  10.849 -0.4570  0.1349 -0.5360
  110OSM   H13A11298   5.894   4.878  10.891 -0.6986  0.5459 -1.1076
  110OSM   H13B11299   5.774   4.797  10.769 -2.1994 -1.3731  0.8789
  110OSM   H13C11300   5.928   4.735  10.804 -0.9956 -0.3347 -0.9446
  110OSM    C1211301   5.729   4.576  10.895 -0.1419 -0.5883  0.4313
  110OSM   H12A11302   5.655   4.603  10.821 -0.7272 -2.3335  0.3415
  110OSM   H12B11303   5.670   4.527  10.971  1.0366 -0.4525  1.4521
  110OSM    C1111304   5.822   4.475  10.828 -0.2073  0.2983 -0.1182
  110OSM   H11A11305   5.898   4.533  10.771  2.2666 -1.5306  1.2386
  110OSM   H11B11306   5.759   4.420  10.754 -1.2238 -1.0391  1.7072
  110OSM      P11307   6.032   4.333  10.905 -0.4418  0.2967 -0.2758
  110OSM    O1311308   6.098   4.386  11.026  0.6209  0.3831 -0.3204
  110OSM    O1411309   6.039   4.190  10.882 -0.1748 -0.1594  0.1793
  110OSM    O1111310   6.099   4.404  10.776  0.1003 -0.6335  0.7597
  110OSM    O1211311   5.878   4.367  10.909  0.9076  0.4125  0.1547
  110OSM    C1S11312   6.078   4.348  10.656 -0.4941  0.0022  0.4293
  110OSM    H1S11313   5.982   4.291  10.651  0.4007 -1.5543  0.7595
  110OSM    H1T11314   6.153   4.270  10.635 -2.1532 -1.3612 -0.5051
  110OSM     NF11315   6.036   4.381  10.429 -0.1179  0.0468  0.5059
  110OSM    HNF11316   6.092   4.313  10.382 -0.2916 -0.2555  0.7366
  110OSM    C2S11317   6.099   4.445  10.542  0.0518 -0.4747  0.1437
  110OSM    H2S11318   6.050   4.542  10.564 -1.2309 -1.1090  0.1179
  110OSM    C3S11319   6.256   4.461  10.523 -0.5427  0.2492 -0.2346
  110OSM    H3S11320   6.305   4.362  10.519 -0.4969  0.1728  1.6453
  110OSM     O311321   6.307   4.523  10.632  0.6174  0.1167  0.3416
  110OSM    HO311322   6.249   4.500  10.705  0.1364 -1.9427 -0.6304
  110OSM    C4S11323   6.280   4.549  10.406 -0.3523 -0.5450  0.3027
  110OSM    H4S11324   6.275   4.659  10.410 -0.0120 -0.5150 -0.1203
  110OSM    C5S11325   6.300   4.501  10.284  0.1192 -0.3886  0.5688
  110OSM    H5S11326   6.316   4.392  10.283 -0.2595 -0.4918  2.9695
  110OSM    C6S11327   6.332   4.597  10.174 -0.5715  0.4697 -0.1420
  110OSM    H6S11328   6.242   4.660  10.158 -0.7769  0.5035  1.1039
  110OSM    H6T11329   6.356   4.538  10.083  0.9962  1.9692 -0.7189
  110OSM    C7S11330   6.449   4.693  10.215  0.1373  0.1900  0.8510
  110OSM    H7S11331   6.526   4.637  10.273  0.1608  1.0371  1.6565
  110OSM    H7T11332   6.397   4.764  10.283 -1.6030  2.0063 -2.2439
  110OSM    C8S11333   6.512   4.760  10.099  0.6409 -0.7755  0.1687
  110OSM    H8S11334   6.426   4.801  10.041  2.5477  2.6719 -0.3701
  110OSM    H8T11335   6.563   4.684  10.035 -0.5827 -0.2783 -1.4226
  110OSM    C9S11336   6.607   4.875  10.134  0.1024 -0.4694  0.0131
  110OSM    H9S11337   6.656   4.890  10.035  2.1020  0.7752  1.1465
  110OSM    H9T11338   6.689   4.833  10.196  3.9810  3.0779 -2.3848
  110OSM   C10S11339   6.542   5.000  10.199 -0.5552 -0.0098 -0.3449
  110OSM   H10S11340   6.488   4.968  10.290 -0.1744 -3.2202 -1.1763
  110OSM   H10T11341   6.468   5.030  10.121 -2.9606 -1.3633  1.3716
  110OSM   C11S11342   6.654   5.105  10.220  0.4064  0.4317  0.2525
  110OSM   H11S11343   6.723   5.074  10.302 -1.4205 -2.0041  0.9414
  110OSM   H11T11344   6.604   5.195  10.262 -1.3510  0.8288 -2.5490
  110OSM   C12S11345   6.743   5.136  10.105  0.0010 -0.8258  0.5042
  110OSM   H12S11346   6.697   5.120  10.005 -0.2418  0.4526  0.3938
  110OSM   H12T11347   6.833   5.072  10.096  0.8017  0.2708  0.6476
  110OSM   C13S11348   6.809   5.275  10.105  0.2750  0.2507 -0.4972
  110OSM   H13S11349   6.877   5.282  10.192 -1.5122 -1.3094  1.0652
  110OSM   H13T11350   6.730   5.353  10.111 -0.0502 -0.0351 -1.0251
  110OSM   C14S11351   6.888   5.305   9.986 -0.4088 -0.4717  0.0242
  110OSM   H14S11352   6.976   5.239   9.968 -0.2689 -0.8887  2.0872
  110OSM   H14T11353   6.928   5.408   9.994  0.0293 -0.4733 -2.0378
  110OSM   C15S11354   6.814   5.299   9.853  0.6326  0.0708  0.4034
  110OSM   H15S11355   6.718   5.353   9.869  0.3349 -0.2701 -0.2122
  110OSM   H15T11356   6.788   5.197   9.817  2.1546 -0.7783  1.6409
  110OSM   C16S11357   6.882   5.381   9.745  0.2175  0.3499  0.2324
  110OSM   H16S11358   6.986   5.342   9.745  0.1572  0.1529 -1.1532
  110OSM   H16T11359   6.878   5.489   9.773 -0.2523  0.8033 -1.5580
  110OSM   C17S11360   6.815   5.354   9.607 -0.1614 -0.5974  0.3608
  110OSM   H17S11361   6.715   5.403   9.609 -0.5664 -1.2939 -1.4729
  110OSM   H17T11362   6.795   5.247   9.586 -1.9359 -0.1980 -0.0684
  110OSM   C18S11363   6.897   5.409   9.484  0.2557  0.1035 -0.1916
  110OSM   H18S11364   6.840   5.406   9.390  0.8263 -1.0541 -0.5090
  110OSM   H18T11365   6.984   5.342   9.466  2.5149  3.2255 -1.4265
  110OSM   H18U11366   6.945   5.507   9.509 -0.5370  0.2065  0.9681
  110OSM    C1F11367   5.910   4.385  10.412 -0.3583 -1.0822  0.1905
  110OSM     OF11368   5.831   4.460  10.467 -0.4479  0.2434 -0.0503
  110OSM    C2F11369   5.858   4.282  10.325 -0.3908  0.2230 -0.2050
  110OSM    H2F11370   5.827   4.197  10.390  0.5425  2.0346  2.7100
  110OSM    H2G11371   5.940   4.250  10.256  2.3675 -0.6023  3.2982
  110OSM    C3F11372   5.726   4.311  10.250  0.2459  0.4567  0.5404
  110OSM    H3F11373   5.653   4.356  10.320 -0.5341  1.3679 -0.8549
  110OSM    H3G11374   5.682   4.217  10.211  3.2189 -0.8969  0.2718
  110OSM    C4F11375   5.732   4.417  10.132  0.8092  0.5544 -0.4070
  110OSM    H4F11376   5.777   4.511  10.171 -1.4390  1.7739 -0.7166
  110OSM    H4G11377   5.630   4.453  10.106 -0.6142 -1.7919  1.6989
  110OSM    C5F11378   5.814   4.373  10.010  0.2394  0.4130  0.0875
  110OSM    H5F11379   5.766   4.279   9.973  0.1358  1.0723 -1.5117
  110OSM    H5G11380   5.920   4.355  10.035  0.7787  1.4883 -1.3686
  110OSM    C6F11381   5.802   4.482   9.897 -0.3732  0.3595 -0.0086
  110OSM    H6F11382   5.859   4.571   9.930  2.5097 -0.8788 -1.5195
  110OSM    H6G11383   5.692   4.499   9.891 -0.3712  0.3587 -0.0552
  110OSM    C7F11384   5.840   4.429   9.764 -0.1264  0.6726  0.1408
  110OSM    H7F11385   5.783   4.336   9.747  0.8647 -0.0770  0.8760
  110OSM    H7G11386   5.943   4.389   9.759  0.9272  3.1627  1.0883
  110OSM    C8F11387   5.810   4.530   9.653  0.7948 -0.0339 -0.5128
  110OSM    H8F11388   5.846   4.630   9.684  0.0985 -0.5643  2.1187
  110OSM    H8G11389   5.699   4.538   9.643  0.5634 -1.2386  1.0123
  110OSM    C9F11390   5.883   4.490   9.525  0.9057  0.6558  0.3482
  110OSM    H9F11391   5.987   4.527   9.526 -0.3901  4.4695  1.0368
  110OSM   C10F11392   5.830   4.418   9.423  0.0976 -0.2153 -0.4827
  110OSM   H10F11393   5.905   4.387   9.349  0.3113 -0.5381 -0.1373
  110OSM   C11F11394   5.689   4.357   9.412 -0.4155  0.3224  0.1027
  110OSM   H11F11395   5.631   4.390   9.323  0.4424  3.3759  0.6081
  110OSM   H11G11396   5.627   4.395   9.496 -1.0252 -1.1256  0.3161
  110OSM   C12F11397   5.692   4.206   9.410  0.2022  0.0199  0.0864
  110OSM   H12F11398   5.588   4.170   9.399 -0.3623  1.3309  1.1023
  110OSM   H12G11399   5.722   4.160   9.506  0.1073  0.2078  0.2053
  110OSM   C13F11400   5.780   4.146   9.300  0.4924  0.7870 -0.1619
  110OSM   H13F11401   5.887   4.151   9.330  1.1283  0.2457 -2.2238
  110OSM   H13G11402   5.762   4.213   9.213  1.5810  1.8276  0.4031
  110OSM   C14F11403   5.742   4.003   9.263 -0.4892 -0.0931 -0.2455
  110OSM   H14F11404   5.635   3.999   9.230  0.0021  0.1510 -1.9316
  110OSM   H14G11405   5.762   3.942   9.354 -1.6886  1.0077  0.7802
  110OSM   C15F11406   5.817   3.970   9.131 -0.2301  0.4778  0.4300
  110OSM   H15F11407   5.927   3.975   9.141 -0.1352 -0.9972  0.1650
  110OSM   H15G11408   5.786   4.045   9.054 -1.0277  1.1933  1.4398
  110OSM   C16F11409   5.786   3.829   9.073 -0.2667  0.2068 -0.0621
  110OSM   H16F11410   5.675   3.822   9.066 -0.3712 -0.3717  1.8375
  110OSM   H16G11411   5.819   3.759   9.153 -0.5882  0.2353  0.0972
  110OSM   C17F11412   5.859   3.790   8.952 -0.7609 -0.0030  0.1567
  110OSM   H17F11413   5.966   3.784   8.983 -0.1633 -0.8218 -2.0016
  110OSM   H17G11414   5.846   3.870   8.876  1.0749  2.4721  2.3127
  110OSM   C18F11415   5.819   3.657   8.885  0.4756 -0.0171  0.1507
  110OSM   H18F11416   5.839   3.653   8.776 -3.7118  0.5844 -0.6944
  110OSM   H18G11417   5.709   3.647   8.887  0.4281  0.7196  1.4833
  110OSM   H18H11418   5.861   3.568   8.938  2.6268 -0.2142 -1.8015
  111OSM      N11419   0.538   2.158  10.852  0.4917  0.0622  0.0963
  111OSM    C1511420   0.396   2.157  10.918  0.0706  0.0111 -0.3806
  111OSM   H15A11421   0.339   2.246  10.899  0.3156  0.2388 -0.0538
  111OSM   H15B11422   0.409   2.151  11.025  0.0084  0.9205 -0.3211
  111OSM   H15C11423   0.339   2.069  10.891 -0.0780 -0.5248  1.5896
  111OSM    C1411424   0.633   2.250  10.924  0.2847  0.4617 -0.1895
  111OSM   H14A11425   0.614   2.231  11.028  1.8268 -2.5542 -0.4013
  111OSM   H14B11426   0.608   2.351  10.897 -0.3169 -0.9809 -5.7692
  111OSM   H14C11427   0.735   2.225  10.898  0.3150 -0.1928  0.5503
  111OSM    C1311428   0.577   2.010  10.875  0.4944 -0.6335 -0.5109
  111OSM   H13A11429   0.574   1.998  10.982  2.7334  1.7763 -0.1420
  111OSM   H13B11430   0.676   1.997  10.832  0.8311  3.0664 -0.9833
  111OSM   H13C11431   0.503   1.947  10.829  0.6448 -0.9261 -0.3550
  111OSM    C1211432   0.536   2.193  10.704  0.1187  0.7334 -0.5196
  111OSM   H12A11433   0.495   2.109  10.650 -1.7345  1.4395 -0.2560
  111OSM   H12B11434   0.635   2.194  10.662  0.6738  2.2853  0.7647
  111OSM    C1111435   0.466   2.323  10.659  0.3453 -0.3619 -0.0752
  111OSM   H11A11436   0.375   2.317  10.723 -0.9757 -1.9349 -2.0225
  111OSM   H11B11437   0.442   2.322  10.551  0.7047  0.1956 -0.1652
  111OSM      P11438   0.660   2.490  10.612 -0.2973  0.0539  0.7387
  111OSM    O1311439   0.725   2.595  10.698 -0.0989 -0.7458 -0.1663
  111OSM    O1411440   0.741   2.381  10.562  0.5852  0.6354  0.4827
  111OSM    O1111441   0.591   2.565  10.490 -0.1012 -0.6927 -0.2789
  111OSM    O1211442   0.532   2.445  10.692 -1.0430  0.0051 -0.0608
  111OSM    C1S11443   0.488   2.662  10.531  0.0421 -0.0695  0.1444
  111OSM    H1S11444   0.511   2.722  10.622 -0.7717 -0.0142  0.3136
  111OSM    H1T11445   0.396   2.606  10.558  0.2203  0.1134  1.1544
  111OSM     NF11446   0.389   2.879  10.487 -0.1061 -0.3652  0.2399
  111OSM    HNF11447   0.289   2.877  10.479 -0.2779 -0.5869  2.2751
  111OSM    C2S11448   0.465   2.774  10.422  0.3221  0.3430 -0.7736
  111OSM    H2S11449   0.563   2.817  10.392  0.8213  0.6203  1.1442
  111OSM    C3S11450   0.411   2.709  10.291  0.1817 -0.6268 -0.7027
  111OSM    H3S11451   0.309   2.668  10.307 -0.4915  0.8576 -1.1002
  111OSM     O311452   0.489   2.595  10.250  0.5581  0.5346  0.5256
  111OSM    HO311453   0.543   2.575  10.327  2.5946  0.2062 -0.9206
  111OSM    C4S11454   0.413   2.816  10.186 -0.7778 -0.3424  0.2160
  111OSM    H4S11455   0.344   2.899  10.208 -0.4622  1.1173 -3.7559
  111OSM    C5S11456   0.489   2.832  10.077  0.2611 -0.1491  0.5060
  111OSM    H5S11457   0.562   2.751  10.060  1.6846  0.8984  1.5457
  111OSM    C6S11458   0.486   2.953   9.987 -0.4329  0.1784 -0.0030
  111OSM    H6S11459   0.576   3.016  10.003  1.5852 -2.8640  0.9245
  111OSM    H6T11460   0.393   3.014   9.996 -0.7725 -0.5987  2.2115
  111OSM    C7S11461   0.494   2.907   9.847  0.4024  0.1939 -0.4506
  111OSM    H7S11462   0.401   2.851   9.824 -0.5602  1.7503 -0.4440
  111OSM    H7T11463   0.585   2.844   9.840 -0.5557 -1.4034  1.0938
  111OSM    C8S11464   0.507   3.025   9.744  0.1405  0.8680  0.4557
  111OSM    H8S11465   0.595   3.088   9.769 -0.1055  2.1330 -1.7214
  111OSM    H8T11466   0.425   3.099   9.757 -0.8885  0.0931 -1.4629
  111OSM    C9S11467   0.482   2.973   9.598 -1.2557  0.0551 -0.2813
  111OSM    H9S11468   0.383   2.924   9.585 -0.4369 -1.0934 -2.3154
  111OSM    H9T11469   0.553   2.889   9.585 -2.0940 -0.6567 -0.2757
  111OSM   C10S11470   0.505   3.082   9.499 -0.0901  0.6364 -0.1509
  111OSM   H10S11471   0.605   3.129   9.505 -0.1587  0.7219  0.3198
  111OSM   H10T11472   0.438   3.170   9.507  0.3491  1.0010 -0.4731
  111OSM   C11S11473   0.490   3.030   9.354 -0.2255  0.4184 -0.3625
  111OSM   H11S11474   0.557   2.945   9.332 -1.7029 -0.5812 -1.1235
  111OSM   H11T11475   0.518   3.113   9.285  3.2404  0.6960  1.3074
  111OSM   C12S11476   0.353   2.986   9.311 -0.2934  0.3580  0.1152
  111OSM   H12S11477   0.334   2.907   9.387  0.1841 -0.1965 -0.3298
  111OSM   H12T11478   0.360   2.940   9.210 -3.0484 -1.3921  0.6555
  111OSM   C13S11479   0.245   3.086   9.319 -0.0604 -0.4127  0.3913
  111OSM   H13S11480   0.281   3.178   9.268 -1.3522  0.2238  0.6145
  111OSM   H13T11481   0.234   3.110   9.427  1.2924  1.6754  0.1112
  111OSM   C14S11482   0.111   3.044   9.257 -0.4310  0.8623  0.1548
  111OSM   H14S11483   0.034   3.112   9.298 -0.4151 -0.1670  1.9522
  111OSM   H14T11484   0.086   2.940   9.289  0.7773  0.8110  0.9747
  111OSM   C15S11485   0.101   3.054   9.100 -0.3382 -0.0183  0.2416
  111OSM   H15S11486   0.168   2.980   9.053  1.2544 -0.8848  3.7230
  111OSM   H15T11487   0.133   3.156   9.068  0.5718 -0.7913 -1.3452
  111OSM   C16S11488  -0.042   3.013   9.059 -0.3621 -0.3677 -0.4727
  111OSM   H16S11489  -0.123   3.084   9.087 -0.1790 -0.7938  1.1786
  111OSM   H16T11490  -0.070   2.919   9.111 -1.4758 -0.6912 -1.6327
  111OSM   C17S11491  -0.062   2.989   8.913 -1.1093 -0.8516  0.7098
  111OSM   H17S11492  -0.168   2.961   8.894 -0.7953 -1.1789 -0.6644
  111OSM   H17T11493  -0.004   2.900   8.880 -0.7249 -0.3650  0.0674
  111OSM   C18S11494  -0.024   3.109   8.823 -0.3101  0.6543  0.0082
  111OSM   H18S11495   0.074   3.088   8.775 -0.8062  1.0056 -1.1793
  111OSM   H18T11496  -0.018   3.202   8.882  0.3182  0.1343  0.7812
  111OSM   H18U11497  -0.101   3.114   8.744  0.4949  0.5786 -0.7933
  111OSM    C1F11498   0.459   2.981  10.556 -0.2058 -0.0509 -0.2290
  111OSM     OF11499   0.564   2.963  10.611  0.5227  0.0507 -0.0077
  111OSM    C2F11500   0.383   3.114  10.565 -0.0496  0.5695 -0.3695
  111OSM    H2F11501   0.459   3.186  10.604 -0.8345  0.6716  0.9940
  111OSM    H2G11502   0.292   3.100  10.627  0.0457  1.8034  0.0676
  111OSM    C3F11503   0.330   3.169  10.430  0.1840 -0.3641  0.0299
  111OSM    H3F11504   0.292   3.270  10.455 -1.0253 -0.4874 -1.2614
  111OSM    H3G11505   0.249   3.111  10.381  0.3300 -1.5850  1.1687
  111OSM    C4F11506   0.436   3.188  10.317  0.0297  0.3909  0.3803
  111OSM    H4F11507   0.468   3.087  10.282  2.3756  0.6415  1.6939
  111OSM    H4G11508   0.524   3.238  10.361 -1.1118  1.9147  0.9618
  111OSM    C5F11509   0.369   3.268  10.203  0.0390 -0.3961 -0.5333
  111OSM    H5F11510   0.300   3.339  10.254  0.5863 -1.2056  1.3762
  111OSM    H5G11511   0.302   3.196  10.151  1.3181 -2.4436  0.6027
  111OSM    C6F11512   0.461   3.323  10.103  0.3361  0.8929  1.0459
  111OSM    H6F11513   0.517   3.239  10.058 -0.7860  0.1570  1.0085
  111OSM    H6G11514   0.534   3.388  10.158  0.8663  2.2411 -1.1887
  111OSM    C7F11515   0.405   3.402   9.986 -0.2015 -0.3547 -0.0050
  111OSM    H7F11516   0.321   3.466  10.021 -0.6699 -1.6456  1.2834
  111OSM    H7G11517   0.368   3.328   9.912 -1.5669 -2.1369  2.3818
  111OSM    C8F11518   0.509   3.505   9.935 -0.0572  0.2123  0.3212
  111OSM    H8F11519   0.549   3.564  10.020 -0.2530  1.8604 -0.6917
  111OSM    H8G11520   0.454   3.574   9.867 -0.0775 -0.4236 -0.3073
  111OSM    C9F11521   0.618   3.447   9.858  0.7890 -0.3803 -0.1685
  111OSM    H9F11522   0.706   3.398   9.903  0.6794 -0.2346  0.2062
  111OSM   C10F11523   0.607   3.434   9.724 -0.3855  0.2088 -0.1335
  111OSM   H10F11524   0.698   3.390   9.680 -1.4592 -1.2503 -0.9362
  111OSM   C11F11525   0.489   3.459   9.636  0.0668 -0.0506  0.7479
  111OSM   H11F11526   0.397   3.460   9.699  1.8191  1.5585  3.4073
  111OSM   H11G11527   0.464   3.376   9.566  1.7917 -0.6314  0.7972
  111OSM   C12F11528   0.504   3.592   9.563  0.0412 -0.1799  0.0491
  111OSM   H12F11529   0.510   3.679   9.632 -2.8731  0.4045 -0.3723
  111OSM   H12G11530   0.410   3.607   9.507 -0.1526 -2.5870 -0.3032
  111OSM   C13F11531   0.614   3.601   9.455  0.2894 -0.0939 -0.0403
  111OSM   H13F11532   0.718   3.606   9.494 -0.2267 -1.6818  1.6186
  111OSM   H13G11533   0.597   3.698   9.404  2.4756  1.0216  1.2561
  111OSM   C14F11534   0.610   3.484   9.358  0.5857 -0.0201 -0.2678
  111OSM   H14F11535   0.507   3.479   9.316  0.9831 -0.7264 -1.1788
  111OSM   H14G11536   0.635   3.385   9.402  1.1933  0.1372 -0.2492
  111OSM   C15F11537   0.709   3.501   9.249 -0.0015 -0.4882  0.1830
  111OSM   H15F11538   0.725   3.408   9.190 -0.1749  0.1506 -0.8745
  111OSM   H15G11539   0.808   3.532   9.291  0.2255 -0.7213 -0.1778
  111OSM   C16F11540   0.662   3.608   9.156  0.0473  0.2930  0.9067
  111OSM   H16F11541   0.647   3.710   9.198 -2.7472  0.7108 -0.9374
  111OSM   H16G11542   0.565   3.590   9.105  0.2604  1.2991  0.1159
  111OSM   C17F11543   0.769   3.615   9.040  0.8894 -0.3341 -0.3364
  111OSM   H17F11544   0.803   3.512   9.013 -0.2860 -0.0941 -2.8126
  111OSM   H17G11545   0.858   3.677   9.067  1.4793 -1.8378  1.2857
  111OSM   C18F11546   0.707   3.684   8.923  0.3402  0.3653  0.1280
  111OSM   H18F11547   0.627   3.616   8.888  0.2821  0.2058  0.5604
  111OSM   H18G11548   0.788   3.708   8.851  0.1159  0.4776 -0.0858
  111OSM   H18H11549   0.656   3.779   8.949 -2.3858 -1.1533  0.4538
  112OSM      N11550   6.345   0.631  11.351 -0.2550 -0.2266  0.0465
  112OSM    C1511551   6.301   0.742  11.265  0.0198  1.1739 -0.5734
  112OSM   H15A11552   6.223   0.795  11.319  0.4822 -0.8290  2.1739
  112OSM   H15B11553   6.272   0.713  11.166  3.2504  2.1806 -1.8885
  112OSM   H15C11554   6.383   0.812  11.257  0.8461  0.2731 -0.1524
  112OSM    C1411555   6.422   0.696  11.452 -0.3796  1.0112  0.4802
  112OSM   H14A11556   6.364   0.752  11.524 -0.2728  0.6723  0.8359
  112OSM   H14B11557   6.496   0.768  11.421 -2.0625  3.6934  2.4996
  112OSM   H14C11558   6.486   0.626  11.504  0.5187  1.3093 -0.2185
  112OSM    C1311559   6.231   0.560  11.419  0.7773 -0.0190 -0.2835
  112OSM   H13A11560   6.263   0.473  11.474  0.5887  0.1124  0.0376
  112OSM   H13B11561   6.162   0.543  11.338  0.2383  0.4293  0.0719
  112OSM   H13C11562   6.170   0.618  11.487  1.8680 -2.0396  2.5134
  112OSM    C1211563   6.429   0.540  11.267 -1.0967 -0.0691  0.1893
  112OSM   H12A11564   6.457   0.454  11.326  0.8488  0.4682  0.0719
  112OSM   H12B11565   6.524   0.583  11.238 -0.9691 -0.9761 -0.7590
  112OSM    C1111566   6.375   0.468  11.137  0.2266  0.6804 -0.0604
  112OSM   H11A11567   6.293   0.404  11.177  1.3970 -0.9142 -0.1690
  112OSM   H11B11568   6.451   0.393  11.106 -1.5561 -1.2292  0.1021
  112OSM      P11569   6.442   0.620  10.937 -0.0588 -0.3884 -0.3128
  112OSM    O1311570   6.416   0.764  10.931 -0.7340  0.0286 -0.7512
  112OSM    O1411571   6.576   0.570  10.977 -0.2827 -0.0075  0.4704
  112OSM    O1111572   6.413   0.561  10.796  0.6798 -0.9879 -0.2538
  112OSM    O1211573   6.338   0.555  11.030  0.2539  0.1076 -0.0239
  112OSM    C1S11574   6.282   0.581  10.741 -0.1222 -0.3407  0.0767
  112OSM    H1S11575   6.246   0.684  10.763  0.3450 -0.0841 -0.3477
  112OSM    H1T11576   6.206   0.511  10.782  0.5781 -1.4806 -0.5540
  112OSM     NF11577   6.157   0.619  10.529  0.0873  0.2662  0.2783
  112OSM    HNF11578   6.084   0.553  10.511  0.8367 -0.2162 -1.0226
  112OSM    C2S11579   6.275   0.562  10.590  0.6488 -0.7854  0.6894
  112OSM    H2S11580   6.369   0.613  10.559  0.7984 -2.8243 -2.4286
  112OSM    C3S11581   6.295   0.415  10.548 -0.0672  0.0062  0.5846
  112OSM    H3S11582   6.200   0.359  10.562 -1.8428  2.7464 -0.3146
  112OSM     O311583   6.395   0.342  10.618  0.2925  0.0234 -0.6807
  112OSM    HO311584   6.429   0.404  10.682 -0.5201  1.6808 -1.8142
  112OSM    C4S11585   6.334   0.409  10.400  0.5692 -0.0244  1.2008
  112OSM    H4S11586   6.402   0.488  10.367 -0.2057  0.3721  0.5375
  112OSM    C5S11587   6.306   0.299  10.329 -0.0150 -0.0450  0.2071
  112OSM    H5S11588   6.266   0.216  10.388  3.6351 -0.8113  1.7576
  112OSM    C6S11589   6.354   0.274  10.191  0.0115  0.2224  0.0321
  112OSM    H6S11590   6.395   0.172  10.175  1.3762  0.9831 -1.4013
  112OSM    H6T11591   6.439   0.341  10.168 -0.1883  0.1984 -0.8081
  112OSM    C7S11592   6.263   0.292  10.066  0.2829 -0.2103 -0.2872
  112OSM    H7S11593   6.222   0.394  10.078 -1.9177 -1.1749  0.7340
  112OSM    H7T11594   6.175   0.224  10.063 -0.1439  0.3404 -0.3002
  112OSM    C8S11595   6.331   0.279   9.939  0.6084 -0.3778 -0.0664
  112OSM    H8S11596   6.351   0.169   9.937  1.4802 -0.2279  0.3729
  112OSM    H8T11597   6.422   0.341   9.941 -0.1696  0.7471  1.1431
  112OSM    C9S11598   6.239   0.322   9.824  0.5670  0.3523  0.5358
  112OSM    H9S11599   6.218   0.431   9.825 -0.4384  0.1643  0.1433
  112OSM    H9T11600   6.150   0.256   9.836 -0.0902  0.5138 -2.9699
  112OSM   C10S11601   6.307   0.308   9.691 -0.1997  0.6481 -0.7371
  112OSM   H10S11602   6.312   0.198   9.676  1.4057  0.2910  1.9895
  112OSM   H10T11603   6.409   0.352   9.688 -0.7366  2.0782  1.1285
  112OSM   C11S11604   6.223   0.374   9.583 -0.8112 -0.3177  0.0838
  112OSM   H11S11605   6.222   0.482   9.612  0.7912 -0.6847  1.5684
  112OSM   H11T11606   6.120   0.334   9.571 -0.9784  0.4579 -1.1233
  112OSM   C12S11607   6.284   0.377   9.445  0.2457 -0.6087 -1.1906
  112OSM   H12S11608   6.382   0.429   9.448 -1.1419  2.0849 -0.7609
  112OSM   H12T11609   6.220   0.434   9.375  0.0547 -1.9503 -2.1155
  112OSM   C13S11610   6.312   0.238   9.385  0.2861 -0.2491  0.6203
  112OSM   H13S11611   6.213   0.199   9.350  0.3403  0.6539 -0.5829
  112OSM   H13T11612   6.349   0.169   9.464 -2.4862  0.1352  2.3296
  112OSM   C14S11613   6.397   0.228   9.259  0.0550 -0.5612 -0.2136
  112OSM   H14S11614   6.374   0.129   9.214 -0.8954 -0.7358  0.6172
  112OSM   H14T11615   6.507   0.231   9.276 -0.0152 -1.0770  0.3911
  112OSM   C15S11616   6.360   0.330   9.149  0.3543 -0.1223 -0.1289
  112OSM   H15S11617   6.386   0.435   9.173  0.7856 -0.6950  2.0764
  112OSM   H15T11618   6.251   0.312   9.143  0.4319 -1.4145  1.7399
  112OSM   C16S11619   6.421   0.273   9.022 -0.5439  0.0833  0.2750
  112OSM   H16S11620   6.380   0.172   9.001 -1.7992  0.3878  1.1901
  112OSM   H16T11621   6.528   0.255   9.046 -0.3737 -1.4246 -1.5667
  112OSM   C17S11622   6.406   0.365   8.898  0.0715  0.4521 -0.5575
  112OSM   H17S11623   6.484   0.443   8.908 -1.4281  1.9679 -0.3334
  112OSM   H17T11624   6.310   0.420   8.907 -0.7065 -1.3760  3.4509
  112OSM   C18S11625   6.428   0.298   8.765  0.8339  0.1003  0.7955
  112OSM   H18S11626   6.534   0.275   8.743  0.8168  0.9839 -0.2628
  112OSM   H18T11627   6.396   0.371   8.687 -1.6035 -0.3304  1.3631
  112OSM   H18U11628   6.375   0.201   8.758  0.1224  0.5979 -0.9507
  112OSM    C1F11629   6.139   0.748  10.498 -0.5473 -0.2688  0.2688
  112OSM     OF11630   6.222   0.829  10.533 -0.0675  0.2495  0.7438
  112OSM    C2F11631   6.019   0.788  10.426  0.5852 -0.0328 -0.6048
  112OSM    H2F11632   5.981   0.887  10.460 -1.1900 -0.9677  0.1514
  112OSM    H2G11633   5.934   0.724  10.456 -0.6305  1.4848 -0.7664
  112OSM    C3F11634   6.038   0.800  10.278 -0.5146  0.2700  0.1411
  112OSM    H3F11635   6.050   0.693  10.249  0.5639  0.3550  0.2601
  112OSM    H3G11636   6.126   0.865  10.257 -1.3312  1.2224 -0.3365
  112OSM    C4F11637   5.904   0.841  10.205  0.4082 -0.2125 -0.1562
  112OSM    H4F11638   5.886   0.950  10.218  1.0896 -0.2310  0.9773
  112OSM    H4G11639   5.820   0.779  10.241 -0.7202  1.3056 -0.1656
  112OSM    C5F11640   5.907   0.803  10.052 -0.1888  0.0115  0.3987
  112OSM    H5F11641   5.873   0.699  10.036  0.2682 -0.0454 -0.2092
  112OSM    H5G11642   6.010   0.821  10.014 -0.0147 -0.0414  0.8438
  112OSM    C6F11643   5.816   0.898   9.984  0.0312 -0.1790  0.1493
  112OSM    H6F11644   5.869   0.996   9.979  0.0114 -0.1347  0.7635
  112OSM    H6G11645   5.713   0.900  10.025 -0.1081 -2.2060 -0.0734
  112OSM    C7F11646   5.797   0.834   9.845 -0.2226 -0.6555  0.0620
  112OSM    H7F11647   5.775   0.726   9.851  0.5533 -0.6809  3.2806
  112OSM    H7G11648   5.897   0.832   9.795  0.6101 -2.2332  1.7313
  112OSM    C8F11649   5.699   0.912   9.756 -0.0180 -0.3408  0.3330
  112OSM    H8F11650   5.730   1.016   9.735 -2.2112  0.0801 -0.9531
  112OSM    H8G11651   5.616   0.922   9.829 -1.1720  0.7035 -1.1079
  112OSM    C9F11652   5.663   0.839   9.637  0.6745 -0.5867  0.2066
  112OSM    H9F11653   5.590   0.756   9.637  1.1590 -1.0217  1.5816
  112OSM   C10F11654   5.721   0.861   9.513  0.6947  0.3822 -0.0892
  112OSM   H10F11655   5.682   0.809   9.424  0.5813  0.9401 -0.3694
  112OSM   C11F11656   5.831   0.959   9.483  0.3257 -0.1263 -0.4185
  112OSM   H11F11657   5.917   0.902   9.441 -1.5921 -2.1461 -1.6463
  112OSM   H11G11658   5.868   1.009   9.575 -0.1143  0.4023 -0.5281
  112OSM   C12F11659   5.793   1.067   9.375 -0.0623  0.2936  0.5522
  112OSM   H12F11660   5.874   1.143   9.373  2.9181 -2.7914  0.7079
  112OSM   H12G11661   5.702   1.121   9.409  0.0679  1.2946 -0.6318
  112OSM   C13F11662   5.768   1.019   9.236 -0.0183 -0.0901 -0.0721
  112OSM   H13F11663   5.722   0.918   9.234  2.8021 -1.5426  3.0714
  112OSM   H13G11664   5.862   0.995   9.182 -0.3753  1.4122 -1.3951
  112OSM   C14F11665   5.701   1.128   9.150 -0.2879 -0.2404 -0.6413
  112OSM   H14F11666   5.767   1.217   9.151  0.8368 -1.0618 -0.7770
  112OSM   H14G11667   5.610   1.142   9.212 -0.3705 -0.4629 -0.7088
  112OSM   C15F11668   5.678   1.085   9.009  0.0031 -0.1451 -0.0557
  112OSM   H15F11669   5.582   1.133   8.982  0.0988  0.1329  0.0963
  112OSM   H15G11670   5.655   0.976   9.008  0.6154 -0.2796  0.1027
  112OSM   C16F11671   5.788   1.133   8.915 -0.1315  0.1073 -0.0240
  112OSM   H16F11672   5.884   1.090   8.951  1.1263  2.5467 -0.3489
  112OSM   H16G11673   5.815   1.240   8.926  0.3368 -0.0642  0.4996
  112OSM   C17F11674   5.770   1.092   8.770  0.4618 -0.6496  0.5876
  112OSM   H17F11675   5.668   1.124   8.739  0.8871 -0.5381 -0.7411
  112OSM   H17G11676   5.775   0.982   8.751  2.1849 -0.2601 -1.4388
  112OSM   C18F11677   5.882   1.158   8.691  0.4134 -0.7389 -0.1662
  112OSM   H18F11678   5.866   1.143   8.582 -2.7487  0.0839  0.1248
  112OSM   H18G11679   5.983   1.126   8.725  0.3220 -0.2203  0.6150
  112OSM   H18H11680   5.878   1.269   8.703  1.4768 -0.4335 -2.5587
  113OSM      N11681   6.815   0.248  10.886 -0.2541  0.4292  0.0354
  113OSM    C1511682   6.833   0.122  10.807 -0.0789  0.1880 -0.3878
  113OSM   H15A11683   6.847   0.141  10.701 -0.0202 -0.7434 -0.5524
  113OSM   H15B11684   6.747   0.062  10.829  2.3533 -2.5093  2.2364
  113OSM   H15C11685   6.924   0.071  10.834  0.2184  1.4506  1.0428
  113OSM    C1411686   6.843   0.208  11.030 -0.3134 -0.4481 -0.8606
  113OSM   H14A11687   6.759   0.144  11.055  0.2502 -0.5386  0.8887
  113OSM   H14B11688   6.830   0.289  11.101 -0.6184 -1.9182  0.8058
  113OSM   H14C11689   6.942   0.167  11.039  0.7301  2.0418 -0.6662
  113OSM    C1311690   6.914   0.346  10.837  0.5473 -0.3310  0.2081
  113OSM   H13A11691   6.883   0.385  10.741 -1.4206  0.5976  1.1963
  113OSM   H13B11692   7.013   0.302  10.830  0.5303 -0.3075 -0.2021
  113OSM   H13C11693   6.927   0.421  10.914 -1.0969 -0.6424  0.8044
  113OSM    C1211694   6.673   0.299  10.878  0.2880  0.1447 -0.1613
  113OSM   H12A11695   6.654   0.359  10.790 -2.4468 -0.6066 -0.1460
  113OSM   H12B11696   6.662   0.381  10.946 -0.6740 -0.9498  1.0210
  113OSM    C1111697   6.565   0.191  10.890 -0.2212 -0.7903  0.6723
  113OSM   H11A11698   6.573   0.141  10.791  2.0177  0.7264  0.0433
  113OSM   H11B11699   6.469   0.243  10.911 -1.3171 -2.6391  0.3080
  113OSM      P11700   6.483  -0.005  11.035  0.0665  0.0339  0.1038
  113OSM    O1311701   6.550  -0.097  11.128 -0.0237 -0.4061 -0.3679
  113OSM    O1411702   6.361   0.067  11.078 -0.0567  0.4835 -0.1959
  113OSM    O1111703   6.449  -0.090  10.907 -0.7528  0.1369 -0.3317
  113OSM    O1211704   6.592   0.099  10.988 -0.4785 -0.0327  0.0563
  113OSM    C1S11705   6.539  -0.147  10.814 -0.1724 -0.2594 -0.1730
  113OSM    H1S11706   6.578  -0.237  10.866 -0.1783  0.5770  1.2924
  113OSM    H1T11707   6.621  -0.073  10.797 -1.0075  0.5037 -0.9288
  113OSM     NF11708   6.579  -0.238  10.590  0.3346  0.2356 -0.4525
  113OSM    HNF11709   6.621  -0.169  10.532 -0.6893  0.4339 -0.9714
  113OSM    C2S11710   6.476  -0.184  10.672 -0.0039  0.3042 -0.2692
  113OSM    H2S11711   6.403  -0.262  10.704  0.1812  0.5155  0.6608
  113OSM    C3S11712   6.408  -0.064  10.600  0.7499 -0.5892 -1.0797
  113OSM    H3S11713   6.482   0.015  10.575  1.1643 -0.5822  0.1279
  113OSM     O311714   6.310  -0.005  10.683  0.3467  0.0288  0.0953
  113OSM    HO311715   6.314  -0.039  10.773 -2.6486  2.3463  1.1890
  113OSM    C4S11716   6.341  -0.107  10.470  0.0877 -0.2538  0.1474
  113OSM    H4S11717   6.250  -0.169  10.478 -0.8427  1.2865  2.5399
  113OSM    C5S11718   6.373  -0.056  10.352 -0.1888  0.6950  0.1724
  113OSM    H5S11719   6.435   0.033  10.333 -3.5559  2.8486 -1.1693
  113OSM    C6S11720   6.310  -0.098  10.222 -0.4902 -0.7415 -0.0028
  113OSM    H6S11721   6.231  -0.026  10.192  0.3468  0.3428  0.3460
  113OSM    H6T11722   6.265  -0.199  10.236  0.3580 -0.8195  2.4734
  113OSM    C7S11723   6.402  -0.116  10.102 -0.2190 -0.2488  0.3321
  113OSM    H7S11724   6.443  -0.219  10.110 -0.0644 -0.2730 -0.5975
  113OSM    H7T11725   6.481  -0.037  10.105  0.7844 -1.2190 -0.2036
  113OSM    C8S11726   6.326  -0.125   9.974  0.2720  0.0951  0.0252
  113OSM    H8S11727   6.292  -0.028   9.932  0.2622 -0.4261 -1.1735
  113OSM    H8T11728   6.238  -0.192   9.982 -0.7980  1.2312 -1.7945
  113OSM    C9S11729   6.425  -0.170   9.865 -0.1115  0.8067  0.2846
  113OSM    H9S11730   6.457  -0.273   9.892  0.7417  0.9937 -0.0055
  113OSM    H9T11731   6.519  -0.112   9.882  1.7113 -1.9959  0.1233
  113OSM   C10S11732   6.368  -0.165   9.725 -0.0853 -0.2529 -0.6032
  113OSM   H10S11733   6.286  -0.090   9.718 -2.6082 -2.9161 -0.4029
  113OSM   H10T11734   6.323  -0.262   9.693  0.0934 -0.1570 -1.1575
  113OSM   C11S11735   6.477  -0.135   9.621 -0.3339 -0.2369 -0.5609
  113OSM   H11S11736   6.571  -0.183   9.655  0.5308  1.3173 -0.7060
  113OSM   H11T11737   6.505  -0.027   9.626 -0.5541 -0.2082  0.2918
  113OSM   C12S11738   6.452  -0.154   9.470 -0.0583 -0.6532  0.6780
  113OSM   H12S11739   6.361  -0.097   9.440 -0.1967 -0.8115  0.7967
  113OSM   H12T11740   6.438  -0.259   9.438 -0.0784 -0.2440 -0.6664
  113OSM   C13S11741   6.569  -0.093   9.397 -0.0478 -0.2060 -1.0123
  113OSM   H13S11742   6.651  -0.145   9.451 -1.2486  0.3135  1.3727
  113OSM   H13T11743   6.576   0.014   9.425 -3.3404 -0.0110 -0.6903
  113OSM   C14S11744   6.579  -0.122   9.245  0.1824 -0.2226 -0.1771
  113OSM   H14S11745   6.516  -0.041   9.203  0.6589 -0.4955 -1.4480
  113OSM   H14T11746   6.533  -0.223   9.239 -1.3991  0.3757  1.2386
  113OSM   C15S11747   6.722  -0.141   9.179 -0.6267 -0.8246 -0.0165
  113OSM   H15S11748   6.764  -0.238   9.213 -1.9545 -1.0640  0.9598
  113OSM   H15T11749   6.776  -0.060   9.232 -0.2348 -0.8480 -0.3829
  113OSM   C16S11750   6.733  -0.127   9.029 -0.0480 -0.4675 -0.0669
  113OSM   H16S11751   6.662  -0.195   8.977 -0.3778  0.8839 -1.4485
  113OSM   H16T11752   6.841  -0.142   9.011  0.2441  2.4157 -0.9406
  113OSM   C17S11753   6.695   0.010   8.985 -0.1790  0.7375  0.8229
  113OSM   H17S11754   6.737   0.084   9.057  0.8620  1.2979 -0.3443
  113OSM   H17T11755   6.585   0.017   8.997 -0.1862  0.1563  1.1206
  113OSM   C18S11756   6.731   0.036   8.840 -1.2239 -0.1493  0.1203
  113OSM   H18S11757   6.833   0.002   8.813 -2.1659 -2.5087 -0.5902
  113OSM   H18T11758   6.718   0.141   8.807 -2.2224 -0.2026  0.3381
  113OSM   H18U11759   6.671  -0.032   8.775 -0.2544 -1.2424  0.3524
  113OSM    C1F11760   6.629  -0.359  10.613 -0.4118  0.6997 -0.0108
  113OSM     OF11761   6.595  -0.430  10.704 -0.3459 -0.2269 -0.5946
  113OSM    C2F11762   6.736  -0.405  10.515  0.2100 -0.5660 -0.4918
  113OSM    H2F11763   6.806  -0.458  10.584 -1.5647 -0.0570  1.7487
  113OSM    H2G11764   6.788  -0.319  10.466  1.4432 -0.6695  0.6036
  113OSM    C3F11765   6.680  -0.508  10.408  0.2282 -0.2253  0.1821
  113OSM    H3F11766   6.638  -0.599  10.455  0.2469 -1.2811 -1.8192
  113OSM    H3G11767   6.766  -0.538  10.345 -0.0466  0.1410 -0.3717
  113OSM    C4F11768   6.575  -0.446  10.307  0.3534 -0.1098 -0.1560
  113OSM    H4F11769   6.626  -0.368  10.246  0.9029 -1.0771 -0.9485
  113OSM    H4G11770   6.501  -0.404  10.378 -0.4455 -0.9108 -0.4994
  113OSM    C5F11771   6.509  -0.548  10.207 -0.3129  0.7813 -0.7875
  113OSM    H5F11772   6.594  -0.602  10.160 -0.2128  0.9422 -0.7897
  113OSM    H5G11773   6.460  -0.491  10.126  1.1840  1.1251 -1.4672
  113OSM    C6F11774   6.407  -0.644  10.268  0.1550 -0.2530 -0.3338
  113OSM    H6F11775   6.458  -0.681  10.360 -0.4220  0.6694  0.3682
  113OSM    H6G11776   6.378  -0.729  10.203 -0.6983 -1.6380  1.8097
  113OSM    C7F11777   6.281  -0.573  10.325  0.7997 -0.7375  0.0713
  113OSM    H7F11778   6.315  -0.484  10.383 -1.3756  0.8310 -0.9930
  113OSM    H7G11779   6.227  -0.637  10.398 -1.7760 -1.8912 -2.7383
  113OSM    C8F11780   6.190  -0.520  10.216 -0.4086  0.5153  0.3422
  113OSM    H8F11781   6.248  -0.453  10.149  0.8219 -1.4493 -0.6279
  113OSM    H8G11782   6.111  -0.453  10.254 -0.7447  0.3667 -0.0896
  113OSM    C9F11783   6.127  -0.633  10.138  0.3944 -0.4377  0.1596
  113OSM    H9F11784   6.060  -0.696  10.197 -0.7435  4.0953  4.0310
  113OSM   C10F11785   6.124  -0.649  10.003 -0.1114  0.0398  0.0638
  113OSM   H10F11786   6.067  -0.738   9.972  1.8895 -1.6747  1.1199
  113OSM   C11F11787   6.194  -0.566   9.897  0.6193 -0.1137  0.6782
  113OSM   H11F11788   6.269  -0.504   9.953  0.8961 -0.8828  1.1699
  113OSM   H11G11789   6.125  -0.490   9.854  0.3440 -0.3186  0.7621
  113OSM   C12F11790   6.267  -0.635   9.778 -0.1859  0.4801  0.3575
  113OSM   H12F11791   6.320  -0.565   9.710  3.3464 -0.3769  2.0987
  113OSM   H12G11792   6.192  -0.695   9.723  3.3840 -1.5607 -2.5003
  113OSM   C13F11793   6.366  -0.743   9.820  0.6431 -1.3699 -0.0561
  113OSM   H13F11794   6.313  -0.803   9.897 -3.5811  1.5193 -0.5855
  113OSM   H13G11795   6.460  -0.706   9.868  0.0868 -2.7641  2.1853
  113OSM   C14F11796   6.405  -0.846   9.715  0.5125 -0.3024  0.3732
  113OSM   H14F11797   6.316  -0.873   9.654 -0.7873 -1.2853  2.6546
  113OSM   H14G11798   6.424  -0.944   9.764  1.6907  0.8086  2.1762
  113OSM   C15F11799   6.518  -0.797   9.632 -0.3483 -0.2877  1.0749
  113OSM   H15F11800   6.611  -0.775   9.689 -0.7216 -0.8061  1.9096
  113OSM   H15G11801   6.479  -0.708   9.578  2.9145 -0.2802 -1.3819
  113OSM   C16F11802   6.539  -0.902   9.524  0.5129 -0.3655 -0.6840
  113OSM   H16F11803   6.625  -0.856   9.471  0.5801  3.2278  2.3502
  113OSM   H16G11804   6.457  -0.917   9.451  0.1146  2.4621 -0.8568
  113OSM   C17F11805   6.589  -1.035   9.583 -0.0477 -0.1240 -0.0148
  113OSM   H17F11806   6.503  -1.095   9.620  0.0903 -0.6213 -0.4926
  113OSM   H17G11807   6.655  -1.024   9.671 -1.3346 -2.1132  1.2302
  113OSM   C18F11808   6.672  -1.121   9.483  0.0541  0.0381  0.3130
  113OSM   H18F11809   6.630  -1.120   9.380  1.4860 -0.4352 -0.2831
  113OSM   H18G11810   6.678  -1.226   9.520  2.6317  0.3429  0.8441
  113OSM   H18H11811   6.774  -1.079   9.475 -0.4769  1.1298 -0.8319
  114OSM      N11812   0.914   4.765  11.370 -0.1711  0.0845  0.6667
  114OSM    C1511813   0.783   4.765  11.449  0.7456  0.7396 -0.0305
  114OSM   H15A11814   0.702   4.752  11.379  1.2616 -3.1791 -0.0438
  114OSM   H15B11815   0.781   4.868  11.480  1.4012  0.1779  2.0009
  114OSM   H15C11816   0.788   4.696  11.533  1.3159  0.7330 -0.0646
  114OSM    C1411817   1.019   4.818  11.460  0.0602 -0.1755 -0.5101
  114OSM   H14A11818   1.032   4.761  11.551  0.3505  0.8239  0.0780
  114OSM   H14B11819   0.988   4.913  11.501 -0.8494 -0.6082 -0.1753
  114OSM   H14C11820   1.113   4.836  11.411  0.9170  0.1509  1.2085
  114OSM    C1311821   0.942   4.625  11.317 -0.0793 -0.9496  0.7106
  114OSM   H13A11822   0.953   4.556  11.400  0.0528 -0.5475  1.0310
  114OSM   H13B11823   1.033   4.630  11.259 -0.1613  3.4354  0.8123
  114OSM   H13C11824   0.856   4.594  11.260 -0.6777  0.5456  0.7806
  114OSM    C1211825   0.909   4.859  11.249  0.0428 -0.5319 -0.6293
  114OSM   H12A11826   0.835   4.817  11.182 -2.2050  1.3869  0.5950
  114OSM   H12B11827   1.000   4.848  11.192 -0.3247 -1.1754 -1.1004
  114OSM    C1111828   0.893   5.010  11.272  0.4006 -0.6387 -0.1810
  114OSM   H11A11829   0.801   5.024  11.333 -0.3935 -2.8725 -0.8129
  114OSM   H11B11830   0.884   5.063  11.174  1.3450  0.4206  0.2968
  114OSM      P11831   1.003   5.225  11.399 -0.0283  0.2778  0.1031
  114OSM    O1311832   0.899   5.233  11.511  0.2781  0.3748 -0.1060
  114OSM    O1411833   1.142   5.263  11.432  0.3542  0.0088  0.5180
  114OSM    O1111834   0.939   5.301  11.269 -0.3290  0.3962  0.2229
  114OSM    O1211835   0.999   5.076  11.344  0.0300 -0.1231 -0.2277
  114OSM    C1S11836   1.014   5.344  11.150 -0.3613  0.1502 -0.6499
  114OSM    H1S11837   1.097   5.274  11.130  0.7137  0.7584  1.5769
  114OSM    H1T11838   1.065   5.441  11.164  1.6563 -1.1382  1.1968
  114OSM     NF11839   1.000   5.411  10.911  0.2763  0.0229  0.4471
  114OSM    HNF11840   0.983   5.502  10.875  0.5913  0.7865  2.1393
  114OSM    C2S11841   0.919   5.360  11.030  0.2284  1.1325  0.3370
  114OSM    H2S11842   0.877   5.260  11.010  1.3609  1.0274 -1.6407
  114OSM    C3S11843   0.794   5.446  11.061  0.0321 -0.3176 -0.0254
  114OSM    H3S11844   0.826   5.547  11.093 -0.2526 -0.2968  0.1898
  114OSM     O311845   0.722   5.398  11.172 -0.4019  0.3918  0.9249
  114OSM    HO311846   0.781   5.332  11.208 -1.0316 -0.3918  0.5425
  114OSM    C4S11847   0.710   5.460  10.937  0.1636  0.0060  0.1507
  114OSM    H4S11848   0.734   5.540  10.865  0.6830  0.5783  0.9503
  114OSM    C5S11849   0.606   5.386  10.899 -0.0450  0.0140  0.4219
  114OSM    H5S11850   0.565   5.313  10.970 -2.3711  1.9830  1.1622
  114OSM    C6S11851   0.521   5.411  10.775  0.5182  0.5740  0.0388
  114OSM    H6S11852   0.458   5.499  10.802  2.5391  2.4901 -1.3160
  114OSM    H6T11853   0.452   5.333  10.738  0.8387  0.0590  0.5120
  114OSM    C7S11854   0.594   5.471  10.651  0.3599 -0.3938 -0.0220
  114OSM    H7S11855   0.671   5.542  10.688  1.3210 -1.9560  1.0477
  114OSM    H7T11856   0.537   5.525  10.572  1.9403  0.7079 -0.4381
  114OSM    C8S11857   0.669   5.361  10.569  0.1561  0.2630  0.0681
  114OSM    H8S11858   0.598   5.284  10.533 -2.0524  1.9779  0.6058
  114OSM    H8T11859   0.735   5.316  10.646  0.2012 -0.0872 -0.1778
  114OSM    C9S11860   0.745   5.418  10.449  0.8478  0.1932 -0.2217
  114OSM    H9S11861   0.821   5.488  10.491 -0.2149 -0.0806  2.2094
  114OSM    H9T11862   0.661   5.455  10.386  1.8235  0.3559 -1.4552
  114OSM   C10S11863   0.817   5.301  10.367  0.4662 -0.2340  0.3752
  114OSM   H10S11864   0.739   5.224  10.351  0.5232 -0.2299  0.0814
  114OSM   H10T11865   0.903   5.257  10.422  0.6609 -2.8923 -1.9735
  114OSM   C11S11866   0.872   5.352  10.233  0.4231 -0.0893  0.1146
  114OSM   H11S11867   0.796   5.422  10.191  0.1550 -1.7666 -2.3004
  114OSM   H11T11868   0.876   5.265  10.164  0.6491  0.1623 -0.1931
  114OSM   C12S11869   1.007   5.427  10.242 -0.2066 -0.0715  0.4054
  114OSM   H12S11870   1.078   5.358  10.291 -0.3494 -0.6280 -0.1644
  114OSM   H12T11871   0.999   5.518  10.306  1.8595  1.1171 -0.9511
  114OSM   C13S11872   1.072   5.465  10.102 -0.5209 -1.6039 -0.0996
  114OSM   H13S11873   1.019   5.553  10.060  0.7701 -0.8935 -0.2700
  114OSM   H13T11874   1.083   5.374  10.039  0.8671 -0.8380 -0.9957
  114OSM   C14S11875   1.216   5.531  10.117  0.1860  1.2743  0.4385
  114OSM   H14S11876   1.274   5.447  10.160 -2.0677 -1.1772 -1.1092
  114OSM   H14T11877   1.210   5.619  10.184  0.5054  1.7423 -0.1409
  114OSM   C15S11878   1.277   5.580   9.989 -0.0689  0.0314  0.4587
  114OSM   H15S11879   1.288   5.506   9.907  2.7021  0.8579  0.0305
  114OSM   H15T11880   1.378   5.621  10.009  0.8707 -0.8917 -2.1971
  114OSM   C16S11881   1.196   5.698   9.938  0.6897 -0.3288 -0.0636
  114OSM   H16S11882   1.166   5.759  10.026  0.1085  0.5845 -0.8891
  114OSM   H16T11883   1.104   5.665   9.885 -0.3326  0.8844  0.8978
  114OSM   C17S11884   1.273   5.773   9.832  0.3194 -0.2667 -0.8417
  114OSM   H17S11885   1.304   5.701   9.754 -2.7679 -2.2553 -0.3331
  114OSM   H17T11886   1.364   5.819   9.876  0.2865 -0.3160 -0.7208
  114OSM   C18S11887   1.185   5.878   9.770 -0.0454 -0.0222 -0.4840
  114OSM   H18S11888   1.144   5.953   9.841 -1.4063 -0.5415 -0.6964
  114OSM   H18T11889   1.108   5.833   9.704 -0.2236  0.1611 -0.4036
  114OSM   H18U11890   1.255   5.943   9.713  1.0347 -2.9540 -2.5704
  114OSM    C1F11891   1.078   5.336  10.840 -0.0819  0.1019  0.2511
  114OSM     OF11892   1.086   5.221  10.863  0.1157 -0.5414  0.1424
  114OSM    C2F11893   1.148   5.408  10.730 -0.3353 -0.7225 -0.6613
  114OSM    H2F11894   1.157   5.516  10.752  0.5741 -0.3680 -2.6892
  114OSM    H2G11895   1.089   5.399  10.636  0.1935  1.0041 -1.1649
  114OSM    C3F11896   1.290   5.361  10.705  0.3625  0.7915  0.7157
  114OSM    H3F11897   1.299   5.251  10.693 -0.9512  0.5281  1.9425
  114OSM    H3G11898   1.353   5.383  10.794 -1.0773  2.7465  1.2991
  114OSM    C4F11899   1.344   5.439  10.581  0.3137 -0.5445  0.0556
  114OSM    H4F11900   1.336   5.549  10.598 -1.3611 -0.0869 -3.3025
  114OSM    H4G11901   1.274   5.415  10.499 -1.3404  0.5321  1.1198
  114OSM    C5F11902   1.491   5.411  10.558  0.4855  0.0460 -0.1972
  114OSM    H5F11903   1.510   5.301  10.563 -1.7192 -0.2936  2.4103
  114OSM    H5G11904   1.548   5.471  10.632 -0.0937  0.5134 -0.1297
  114OSM    C6F11905   1.548   5.461  10.424 -0.2885  0.2520 -0.1100
  114OSM    H6F11906   1.534   5.571  10.429 -0.8812  0.2547 -1.6577
  114OSM    H6G11907   1.489   5.439  10.333  1.8454  1.3665 -1.7980
  114OSM    C7F11908   1.696   5.434  10.376  0.1043 -0.5913 -0.8093
  114OSM    H7F11909   1.769   5.458  10.456 -0.4683  0.5614 -0.6218
  114OSM    H7G11910   1.711   5.513  10.300  2.1989  1.0052  1.2215
  114OSM    C8F11911   1.729   5.286  10.343  0.1992 -0.3793 -0.1096
  114OSM    H8F11912   1.739   5.238  10.443  0.4564  0.2118  0.1490
  114OSM    H8G11913   1.833   5.286  10.304  0.6539 -1.5473  1.0622
  114OSM    C9F11914   1.639   5.210  10.254  0.0225  0.4930 -0.0920
  114OSM    H9F11915   1.584   5.125  10.297  0.1269  0.4997  0.0558
  114OSM   C10F11916   1.624   5.231  10.125 -0.2181 -0.5432  0.1916
  114OSM   H10F11917   1.547   5.173  10.071 -0.2719  0.1002 -0.4189
  114OSM   C11F11918   1.684   5.341  10.051  0.3744 -0.0229 -0.1015
  114OSM   H11F11919   1.744   5.403  10.121 -0.6190 -2.7349  3.2637
  114OSM   H11G11920   1.614   5.412  10.003 -0.1368  0.9980  2.0995
  114OSM   C12F11921   1.777   5.292   9.944  0.3208  0.4881 -0.1369
  114OSM   H12F11922   1.849   5.212   9.974 -0.0000  0.3494  0.2661
  114OSM   H12G11923   1.832   5.383   9.910 -1.1255  1.8249  1.0476
  114OSM   C13F11924   1.692   5.235   9.827  0.6213  0.5620 -0.5838
  114OSM   H13F11925   1.629   5.322   9.799  0.8866  0.8006 -0.4389
  114OSM   H13G11926   1.631   5.149   9.861  0.8181  0.9632  0.7809
  114OSM   C14F11927   1.782   5.202   9.710 -1.1410  0.2569 -0.9989
  114OSM   H14F11928   1.836   5.106   9.724 -1.3955  0.3169  0.4779
  114OSM   H14G11929   1.853   5.287   9.700  0.4554 -0.8247  0.7793
  114OSM   C15F11930   1.696   5.199   9.585 -0.3311  0.3193 -0.3251
  114OSM   H15F11931   1.608   5.266   9.593 -2.7179 -2.9687  2.6167
  114OSM   H15G11932   1.667   5.094   9.565 -1.3379  0.3695  0.8422
  114OSM   C16F11933   1.772   5.236   9.454  0.2527 -0.1644 -0.4412
  114OSM   H16F11934   1.854   5.162   9.463 -0.4964 -1.0843 -0.9775
  114OSM   H16G11935   1.810   5.340   9.463 -0.2965 -0.1470  2.0695
  114OSM   C17F11936   1.700   5.223   9.316  0.3217 -0.8053  0.3248
  114OSM   H17F11937   1.619   5.299   9.318 -1.5958 -2.8019  0.7000
  114OSM   H17G11938   1.657   5.121   9.301 -1.5972 -0.1532  1.2630
  114OSM   C18F11939   1.794   5.263   9.205  0.0248 -0.4186 -0.1316
  114OSM   H18F11940   1.758   5.242   9.102  0.2204  2.4529 -0.8245
  114OSM   H18G11941   1.892   5.211   9.211  1.8339  2.5089 -2.7288
  114OSM   H18H11942   1.815   5.371   9.216  3.4528 -1.2619  2.0574
  115OSM      N11943   1.769   2.232   6.014 -0.1971  0.3735  0.1070
  115OSM    C1511944   1.795   2.313   6.137  0.4525  0.5759  0.0223
  115OSM   H15A11945   1.806   2.418   6.114  0.5180  0.7554  0.8763
  115OSM   H15B11946   1.885   2.280   6.187  0.6511 -1.6220 -1.7018
  115OSM   H15C11947   1.714   2.294   6.206  1.5881 -1.8686  0.7338
  115OSM    C1411948   1.642   2.272   5.950  0.5986  0.4648  0.2056
  115OSM   H14A11949   1.623   2.215   5.859 -0.9584  1.2116  0.0544
  115OSM   H14B11950   1.635   2.378   5.932 -1.8250  0.1509 -0.8169
  115OSM   H14C11951   1.563   2.254   6.021 -0.9103  2.4337 -0.9617
  115OSM    C1311952   1.879   2.264   5.917 -1.0594 -0.8387 -0.7165
  115OSM   H13A11953   1.970   2.211   5.940  0.3575  1.2404 -1.4184
  115OSM   H13B11954   1.895   2.371   5.923 -0.9893 -0.8420 -0.8288
  115OSM   H13C11955   1.849   2.244   5.815  0.0560  2.3004 -1.7363
  115OSM    C1211956   1.769   2.078   6.036 -0.1740  0.0112  0.4121
  115OSM   H12A11957   1.866   2.034   6.056 -0.2654 -0.3485  0.0594
  115OSM   H12B11958   1.750   2.030   5.942 -2.0994  0.4928  0.5453
  115OSM    C1111959   1.677   2.027   6.146 -0.3235  0.1857 -0.3993
  115OSM   H11A11960   1.664   1.916   6.147 -0.1531  0.1716  1.8568
  115OSM   H11B11961   1.574   2.066   6.136 -1.4716 -1.8812  2.6792
  115OSM      P11962   1.852   1.986   6.336  0.6029  0.1092  0.3693
  115OSM    O1311963   1.822   1.837   6.347 -0.5106 -0.5088 -0.4556
  115OSM    O1411964   1.972   2.022   6.254  0.0052  0.0492 -0.4747
  115OSM    O1111965   1.858   2.054   6.477 -0.5353  0.0259  0.2318
  115OSM    O1211966   1.723   2.063   6.277 -0.3194  0.5392 -0.0130
  115OSM    C1S11967   1.969   2.135   6.521 -0.2210 -0.1069  0.1842
  115OSM    H1S11968   1.960   2.232   6.466 -0.1357 -1.0790 -1.5644
  115OSM    H1T11969   2.068   2.098   6.489 -0.1407  0.5747 -0.3787
  115OSM     NF11970   2.085   2.271   6.684 -0.3506 -0.2360  0.0363
  115OSM    HNF11971   2.172   2.243   6.724 -0.0272  1.5538  0.6010
  115OSM    C2S11972   1.978   2.176   6.672  0.1576 -0.0392  0.3421
  115OSM    H2S11973   1.883   2.216   6.715 -1.0523 -1.5301 -0.8591
  115OSM    C3S11974   1.999   2.046   6.757  0.4838 -0.0404 -0.0939
  115OSM    H3S11975   2.101   2.013   6.729  0.8861 -0.5569  1.9357
  115OSM     O311976   1.908   1.938   6.728 -0.4117 -0.2822 -0.7979
  115OSM    HO311977   1.871   1.960   6.642  2.1981 -2.1411 -2.5113
  115OSM    C4S11978   1.995   2.077   6.902  0.3389  0.0554 -1.0373
  115OSM    H4S11979   2.094   2.059   6.947  1.1267 -0.6412 -3.0034
  115OSM    C5S11980   1.894   2.116   6.982 -0.6199  0.8101 -0.2977
  115OSM    H5S11981   1.793   2.136   6.944 -1.1091  1.8044  1.4596
  115OSM    C6S11982   1.896   2.147   7.135 -0.7881  0.4612 -0.0492
  115OSM    H6S11983   1.983   2.094   7.178 -0.8801 -1.0334 -1.6344
  115OSM    H6T11984   1.795   2.132   7.180 -0.4702  1.8009  1.1685
  115OSM    C7S11985   1.919   2.292   7.171  0.2007  0.1016  0.4055
  115OSM    H7S11986   1.848   2.360   7.120 -0.7852  0.2666  1.9566
  115OSM    H7T11987   2.026   2.316   7.150  0.1578 -2.0934 -2.4968
  115OSM    C8S11988   1.903   2.313   7.319  0.0372 -0.3873 -0.0557
  115OSM    H8S11989   1.820   2.250   7.356 -0.5528  0.9415  0.9258
  115OSM    H8T11990   1.867   2.414   7.349  2.4485  0.9188 -1.3247
  115OSM    C9S11991   2.034   2.283   7.387 -0.4125 -0.2216 -0.9363
  115OSM    H9S11992   2.105   2.361   7.353 -1.6100  1.9827  1.4594
  115OSM    H9T11993   2.069   2.178   7.373 -0.3565 -0.8612  3.2280
  115OSM   C10S11994   2.023   2.306   7.542 -0.2251 -0.5548  0.6171
  115OSM   H10S11995   1.953   2.233   7.588 -1.1374 -2.2295 -3.1467
  115OSM   H10T11996   1.970   2.404   7.540 -0.7142 -0.8181  0.5946
  115OSM   C11S11997   2.150   2.317   7.620  0.7179  0.9807  0.1943
  115OSM   H11S11998   2.227   2.376   7.567  1.3357  1.5903  1.7443
  115OSM   H11T11999   2.192   2.214   7.625  1.6355  1.3433  0.0938
  115OSM   C12S12000   2.121   2.390   7.754 -0.1663 -0.2767 -0.0839
  115OSM   H12S12001   2.061   2.319   7.815  0.3598  0.6828  1.5761
  115OSM   H12T12002   2.043   2.469   7.755  1.0205  0.8911  1.9817
  115OSM   C13S12003   2.251   2.424   7.829  0.0365 -0.1847 -0.5903
  115OSM   H13S12004   2.311   2.492   7.764  0.3804 -0.2378 -0.3251
  115OSM   H13T12005   2.302   2.327   7.845 -1.9499 -1.1993 -0.3809
  115OSM   C14S12006   2.224   2.506   7.959 -0.4166  0.5025 -0.0348
  115OSM   H14S12007   2.157   2.592   7.938 -1.1510 -0.6203 -2.5359
  115OSM   H14T12008   2.327   2.540   7.986  0.2558 -0.6301 -1.0758
  115OSM   C15S12009   2.163   2.426   8.074 -0.8172  0.3901  0.2246
  115OSM   H15S12010   2.194   2.320   8.083 -0.5496  0.4273 -0.2487
  115OSM   H15T12011   2.056   2.417   8.046 -1.0323  0.8454  0.8825
  115OSM   C16S12012   2.181   2.505   8.205  1.0499  0.3393  0.6701
  115OSM   H16S12013   2.110   2.589   8.221  1.9359  0.8508  2.0331
  115OSM   H16T12014   2.275   2.565   8.209  0.4049  1.4296 -0.2955
  115OSM   C17S12015   2.171   2.424   8.332 -0.6155 -0.1061 -0.6120
  115OSM   H17S12016   2.265   2.370   8.355 -1.2749  0.1768  3.1062
  115OSM   H17T12017   2.095   2.346   8.309 -1.8261  0.6795  0.6483
  115OSM   C18S12018   2.140   2.508   8.464 -0.3586 -0.7209  0.0008
  115OSM   H18S12019   2.231   2.570   8.479 -1.1474  0.3216  0.4887
  115OSM   H18T12020   2.111   2.442   8.548  2.7289  0.4787  2.0890
  115OSM   H18U12021   2.058   2.581   8.451  0.2813  0.2681  1.4958
  115OSM    C1F12022   2.068   2.399   6.649  0.3755  0.7209  0.0981
  115OSM     OF12023   1.965   2.421   6.585 -0.2196 -0.8181 -0.0717
  115OSM    C2F12024   2.181   2.491   6.681  1.0782 -0.5203 -0.1896
  115OSM    H2F12025   2.204   2.563   6.600 -1.5407 -2.2197 -2.5430
  115OSM    H2G12026   2.267   2.424   6.704  3.2030  2.2799  0.2802
  115OSM    C3F12027   2.149   2.562   6.817 -0.1317  0.0417  0.2641
  115OSM    H3F12028   2.119   2.482   6.888 -0.4649 -0.3293 -0.2897
  115OSM    H3G12029   2.055   2.618   6.802 -1.6746 -2.9083 -1.6657
  115OSM    C4F12030   2.265   2.640   6.874 -0.6789  0.0573 -0.2970
  115OSM    H4F12031   2.296   2.706   6.790 -0.1143  1.7027  1.1662
  115OSM    H4G12032   2.354   2.578   6.898 -0.2243  0.4773 -0.8701
  115OSM    C5F12033   2.228   2.728   6.991 -0.1058  0.2754 -0.3436
  115OSM    H5F12034   2.213   2.651   7.069  0.6039  1.0809  0.6060
  115OSM    H5G12035   2.135   2.782   6.962 -1.7938 -1.6084  1.3812
  115OSM    C6F12036   2.347   2.816   7.044  0.0255 -1.0306  0.2697
  115OSM    H6F12037   2.311   2.872   7.133 -0.2322  1.8123 -1.5569
  115OSM    H6G12038   2.375   2.875   6.954  1.0207 -2.6447 -0.5066
  115OSM    C7F12039   2.461   2.738   7.097  0.3281  0.4133 -0.6600
  115OSM    H7F12040   2.490   2.666   7.018  1.1898 -1.5291  1.3775
  115OSM    H7G12041   2.417   2.673   7.176  2.1800 -1.1974 -0.9312
  115OSM    C8F12042   2.586   2.809   7.155 -0.2824 -0.5391 -0.3715
  115OSM    H8F12043   2.555   2.862   7.247  0.5530  2.6223 -1.8405
  115OSM    H8G12044   2.609   2.889   7.081  1.2412 -1.4151 -0.8717
  115OSM    C9F12045   2.715   2.728   7.165  0.2101 -0.6190  0.5907
  115OSM    H9F12046   2.726   2.658   7.080 -0.8556  1.8305 -1.6431
  115OSM   C10F12047   2.795   2.728   7.270 -0.5754 -0.1605  0.5852
  115OSM   H10F12048   2.889   2.673   7.257 -0.3788  0.1964  0.5011
  115OSM   C11F12049   2.782   2.813   7.390 -0.6462  1.0515  0.3076
  115OSM   H11F12050   2.679   2.835   7.426 -0.5119 -0.8375  1.8962
  115OSM   H11G12051   2.824   2.913   7.364  2.7843 -0.3328  0.2920
  115OSM   C12F12052   2.855   2.764   7.519 -0.1268  0.1136 -0.5146
  115OSM   H12F12053   2.958   2.729   7.496 -0.2758 -0.3028 -0.5407
  115OSM   H12G12054   2.802   2.673   7.553  1.7066 -0.3650  1.1793
  115OSM   C13F12055   2.852   2.872   7.627 -0.1087 -0.5554 -0.1909
  115OSM   H13F12056   2.746   2.903   7.640 -0.1620 -1.1392  0.7688
  115OSM   H13G12057   2.915   2.957   7.594 -0.4500 -0.0096  0.5285
  115OSM   C14F12058   2.910   2.808   7.757 -0.3581 -0.0924 -0.5360
  115OSM   H14F12059   2.964   2.885   7.816  0.6995 -2.2327  1.4010
  115OSM   H14G12060   2.995   2.741   7.733  0.2943  0.3394  0.5508
  115OSM   C15F12061   2.810   2.733   7.848  1.3656  0.1368  0.4118
  115OSM   H15F12062   2.751   2.672   7.777  0.6935  2.3403 -0.9741
  115OSM   H15G12063   2.744   2.809   7.895  0.4273  0.5422 -1.5260
  115OSM   C16F12064   2.865   2.637   7.953  0.9049  0.2106 -0.2068
  115OSM   H16F12065   2.948   2.679   8.015 -2.4707  2.2564  3.1356
  115OSM   H16G12066   2.914   2.549   7.905 -1.7291  0.0828 -2.7576
  115OSM   C17F12067   2.756   2.577   8.054 -0.3647  0.0597  0.3840
  115OSM   H17F12068   2.703   2.659   8.108 -0.4118  0.2756  0.0152
  115OSM   H17G12069   2.821   2.527   8.129 -1.0315 -0.4102  0.6515
  115OSM   C18F12070   2.664   2.482   7.986  0.2807  0.0075  0.3741
  115OSM   H18F12071   2.600   2.426   8.058  3.0244 -2.3352  1.0937
  115OSM   H18G12072   2.710   2.409   7.915  1.2864  1.4040 -0.4210
  115OSM   H18H12073   2.591   2.543   7.929 -1.5382 -3.1310 -0.7998
  116OSM      N12074   0.957   6.522   6.397 -0.1985  0.1818  0.2403
  116OSM    C1512075   0.891   6.642   6.350 -0.3685  0.3827  0.1226
  116OSM   H15A12076   0.786   6.652   6.376 -0.4318  1.2118 -0.4544
  116OSM   H15B12077   0.886   6.654   6.243  0.6599  0.2318  0.0583
  116OSM   H15C12078   0.944   6.727   6.391 -0.6489 -0.4593  2.3107
  116OSM    C1412079   0.908   6.502   6.539 -0.1814 -0.1401  0.9242
  116OSM   H14A12080   0.928   6.589   6.600 -1.9019  0.2179  1.0129
  116OSM   H14B12081   0.957   6.414   6.577  0.4765 -0.5353 -0.7780
  116OSM   H14C12082   0.802   6.481   6.544 -0.1654 -0.6091 -0.4507
  116OSM    C1312083   0.913   6.405   6.310 -0.0488  0.0465  0.0324
  116OSM   H13A12084   0.957   6.416   6.212 -1.5256  1.1811 -0.5221
  116OSM   H13B12085   0.806   6.395   6.310  0.1137 -1.9680  1.3080
  116OSM   H13C12086   0.956   6.318   6.356 -0.5105  0.0016  0.3841
  116OSM    C1212087   1.108   6.538   6.394 -0.6422  0.2089 -0.2210
  116OSM   H12A12088   1.150   6.441   6.413  0.8416  0.6639 -1.1264
  116OSM   H12B12089   1.145   6.594   6.478 -0.3520  0.8310 -0.7608
  116OSM    C1112090   1.187   6.569   6.262  0.4074  0.0490 -0.7097
  116OSM   H11A12091   1.181   6.674   6.226  1.7139  0.9639  1.6574
  116OSM   H11B12092   1.145   6.502   6.183  0.1260 -1.4654  0.6959
  116OSM      P12093   1.429   6.626   6.334 -0.1341  0.2594  0.0755
  116OSM    O1312094   1.566   6.568   6.360 -0.0547  0.4966  0.0887
  116OSM    O1412095   1.423   6.731   6.232  0.0511 -0.3240  0.4411
  116OSM    O1112096   1.354   6.687   6.463  0.1180 -0.2554  0.3376
  116OSM    O1212097   1.319   6.523   6.288  0.3218  0.3015  0.4304
  116OSM    C1S12098   1.380   6.624   6.593  0.1121 -0.2718  0.2026
  116OSM    H1S12099   1.488   6.634   6.616  1.0026 -1.5540 -3.0902
  116OSM    H1T12100   1.349   6.518   6.604 -1.8608  0.4530  1.9229
  116OSM     NF12101   1.333   6.622   6.841 -0.5771 -0.0262  0.6773
  116OSM    HNF12102   1.257   6.566   6.872 -1.2354 -0.6447 -1.9536
  116OSM    C2S12103   1.310   6.692   6.716  0.7089  0.4070 -0.1034
  116OSM    H2S12104   1.346   6.797   6.727  0.6077  0.5584 -1.1303
  116OSM    C3S12105   1.158   6.717   6.692  0.6252 -0.0313 -0.7467
  116OSM    H3S12106   1.112   6.620   6.664  2.0672 -0.6763 -0.9472
  116OSM     O312107   1.141   6.803   6.582  0.2330  0.5742  0.7312
  116OSM    HO312108   1.220   6.781   6.532 -0.4320  0.3212 -0.2304
  116OSM    C4S12109   1.091   6.776   6.815 -0.3408 -0.0524  0.7605
  116OSM    H4S12110   1.090   6.885   6.827 -1.3223 -0.2194  2.2438
  116OSM    C5S12111   1.023   6.695   6.907  0.0821 -0.1049 -1.0275
  116OSM    H5S12112   1.008   6.590   6.879  2.1226 -0.5841 -0.4173
  116OSM    C6S12113   0.971   6.747   7.034 -0.0376  0.0112 -0.9985
  116OSM    H6S12114   0.877   6.691   7.053  0.6157 -0.7818 -0.0890
  116OSM    H6T12115   0.940   6.854   7.030 -0.2403  0.0030  0.1412
  116OSM    C7S12116   1.064   6.740   7.155 -0.0330 -0.9041  0.0533
  116OSM    H7S12117   1.154   6.801   7.131 -1.1769  0.6173 -0.4578
  116OSM    H7T12118   1.092   6.633   7.166 -0.1665 -1.0037 -0.6100
  116OSM    C8S12119   0.983   6.786   7.288 -0.0848  0.4203  0.6732
  116OSM    H8S12120   0.883   6.738   7.285  1.8460 -3.8093 -1.5485
  116OSM    H8T12121   0.984   6.897   7.290  1.9680  0.4411 -0.1475
  116OSM    C9S12122   1.060   6.750   7.413  0.7588  0.0361 -0.4671
  116OSM    H9S12123   1.162   6.794   7.409 -0.1423  2.2985  0.7062
  116OSM    H9T12124   1.081   6.641   7.418 -1.5513 -0.5093 -2.0073
  116OSM   C10S12125   0.979   6.804   7.535  0.0810 -0.7799 -0.2148
  116OSM   H10S12126   0.906   6.721   7.552 -0.0386 -0.4386  0.9927
  116OSM   H10T12127   0.921   6.898   7.524 -3.1948 -2.7171 -0.3090
  116OSM   C11S12128   1.074   6.820   7.654 -0.8557 -0.2672 -0.3414
  116OSM   H11S12129   1.020   6.852   7.746 -0.2315  0.8540 -0.3645
  116OSM   H11T12130   1.158   6.887   7.628  0.0209 -1.7282 -1.3775
  116OSM   C12S12131   1.150   6.681   7.693 -0.3394  0.0849  0.5305
  116OSM   H12S12132   1.221   6.680   7.608 -1.0951  2.0807 -0.1544
  116OSM   H12T12133   1.078   6.596   7.683  0.6967 -0.6629 -0.6713
  116OSM   C13S12134   1.217   6.686   7.828  0.3294 -0.1587  0.2441
  116OSM   H13S12135   1.302   6.757   7.821 -0.4411  0.7891  0.4138
  116OSM   H13T12136   1.267   6.590   7.851 -1.0523 -0.7093  1.0096
  116OSM   C14S12137   1.127   6.709   7.944 -0.5286 -0.3124 -0.0566
  116OSM   H14S12138   1.043   6.638   7.929 -0.9768  0.3792 -0.8195
  116OSM   H14T12139   1.082   6.810   7.959 -0.9246 -0.5666  0.4884
  116OSM   C15S12140   1.187   6.665   8.075 -0.2477  0.3588 -0.0697
  116OSM   H15S12141   1.284   6.718   8.073 -1.1641  2.1767  1.7021
  116OSM   H15T12142   1.203   6.555   8.080 -0.4155  0.1566 -2.9600
  116OSM   C16S12143   1.110   6.710   8.197 -0.6075 -0.2962 -0.4526
  116OSM   H16S12144   1.127   6.661   8.294 -1.7355 -1.8208 -1.0194
  116OSM   H16T12145   0.999   6.707   8.189 -0.6062  0.2707 -0.7714
  116OSM   C17S12146   1.149   6.865   8.220  0.4131 -0.1138  0.4255
  116OSM   H17S12147   1.112   6.921   8.130  1.6376 -0.8335 -0.5372
  116OSM   H17T12148   1.259   6.878   8.224  0.5666 -1.4922  0.6670
  116OSM   C18S12149   1.090   6.916   8.349  1.3215 -0.8432  0.1697
  116OSM   H18S12150   1.083   7.026   8.333  0.0015 -0.9619 -0.1595
  116OSM   H18T12151   1.147   6.888   8.440  2.4275  1.4019  0.2124
  116OSM   H18U12152   0.987   6.874   8.351  1.1963 -0.5062  1.0855
  116OSM    C1F12153   1.453   6.614   6.887 -0.0432  0.8995  0.2575
  116OSM     OF12154   1.540   6.695   6.859 -0.4929  0.1378 -0.6327
  116OSM    C2F12155   1.484   6.499   6.972  0.2584 -0.7086 -0.3820
  116OSM    H2F12156   1.594   6.488   6.972  0.2850 -0.5188  0.7876
  116OSM    H2G12157   1.448   6.409   6.917  3.1151 -2.7194  0.8771
  116OSM    C3F12158   1.429   6.501   7.115 -0.1950 -0.3858  0.1191
  116OSM    H3F12159   1.467   6.412   7.169  2.0213  2.4221  3.3856
  116OSM    H3G12160   1.318   6.498   7.125 -0.2096 -1.3734 -0.3326
  116OSM    C4F12161   1.483   6.609   7.208 -0.4682  0.8124 -0.2221
  116OSM    H4F12162   1.480   6.705   7.153  2.0764  0.6245 -0.7313
  116OSM    H4G12163   1.590   6.582   7.222 -0.9138 -1.0712 -0.4090
  116OSM    C5F12164   1.396   6.620   7.333 -0.0626  0.1613 -0.6565
  116OSM    H5F12165   1.291   6.599   7.304 -0.7077 -0.6345  2.0728
  116OSM    H5G12166   1.393   6.717   7.387  0.7075 -0.4031  0.4226
  116OSM    C6F12167   1.442   6.512   7.434  0.0418 -0.0287 -0.2826
  116OSM    H6F12168   1.465   6.413   7.390 -1.3214 -1.1191  1.3926
  116OSM    H6G12169   1.353   6.503   7.500  0.9310 -1.5847  0.7264
  116OSM    C7F12170   1.561   6.566   7.518  0.1206 -0.1624  0.2129
  116OSM    H7F12171   1.607   6.645   7.453 -1.4956  1.2457  0.7508
  116OSM    H7G12172   1.636   6.485   7.530 -0.5890 -0.9745 -0.8155
  116OSM    C8F12173   1.521   6.628   7.656 -0.7414  0.8725 -0.3480
  116OSM    H8F12174   1.454   6.553   7.703  2.1302 -1.2296  0.5329
  116OSM    H8G12175   1.465   6.723   7.639 -0.6355  0.9983 -0.0028
  116OSM    C9F12176   1.646   6.653   7.745  0.0048  0.1444 -0.0467
  116OSM    H9F12177   1.694   6.750   7.725 -0.0897  0.2137  0.0583
  116OSM   C10F12178   1.694   6.578   7.850 -1.0685  0.5062  0.3686
  116OSM   H10F12179   1.789   6.614   7.892  0.1678  0.0711 -1.9748
  116OSM   C11F12180   1.646   6.447   7.891  0.1796 -1.1530  0.2043
  116OSM   H11F12181   1.737   6.385   7.907  1.2291  0.3296  0.1116
  116OSM   H11G12182   1.601   6.394   7.805 -1.3871  3.5334 -2.0405
  116OSM   C12F12183   1.548   6.435   8.012  0.0919 -0.5576 -0.7342
  116OSM   H12F12184   1.509   6.331   8.009  0.2598 -0.6536  0.1622
  116OSM   H12G12185   1.459   6.500   7.997 -0.6239 -1.3811 -0.0825
  116OSM   C13F12186   1.607   6.454   8.150 -0.3426  0.5416 -0.2371
  116OSM   H13F12187   1.669   6.546   8.150  0.6453 -0.0974  1.4764
  116OSM   H13G12188   1.662   6.361   8.176 -0.2465  0.3664 -1.0352
  116OSM   C14F12189   1.494   6.470   8.256 -1.3542 -0.1393 -0.6089
  116OSM   H14F12190   1.438   6.564   8.240 -1.6377 -0.1650  0.1913
  116OSM   H14G12191   1.536   6.467   8.359  0.0743 -3.8943 -1.2107
  116OSM   C15F12192   1.391   6.352   8.265  0.3431 -0.4476  0.2344
  116OSM   H15F12193   1.443   6.254   8.266  1.7207  0.2511 -0.9565
  116OSM   H15G12194   1.352   6.369   8.163  1.0840 -0.0275  0.0147
  116OSM   C16F12195   1.271   6.369   8.364  0.1268 -1.0074 -0.0563
  116OSM   H16F12196   1.195   6.292   8.345 -0.0324 -0.4776 -1.5832
  116OSM   H16G12197   1.206   6.459   8.359  0.6257 -0.5424  1.3666
  116OSM   C17F12198   1.310   6.346   8.513  0.3121 -0.3861  0.1341
  116OSM   H17F12199   1.380   6.429   8.538 -0.4936  0.4579 -0.3875
  116OSM   H17G12200   1.369   6.252   8.503  2.8653  1.3167 -1.2280
  116OSM   C18F12201   1.198   6.347   8.614 -0.2669  0.4727  1.0185
  116OSM   H18F12202   1.242   6.346   8.717  0.9797  0.4128  0.4990
  116OSM   H18G12203   1.133   6.258   8.600 -1.3916  0.9345  3.1499
  116OSM   H18H12204   1.136   6.437   8.597 -1.2485 -0.6467 -1.5978
  117OSM      N12205   6.681   2.023   5.928 -0.0261  0.2709  0.1948
  117OSM    C1512206   6.749   1.961   5.807 -0.9416 -0.2592 -0.6906
  117OSM   H15A12207   6.697   1.868   5.786  0.7279 -0.7358 -3.0035
  117OSM   H15B12208   6.852   1.950   5.836 -1.0604  0.3348 -0.0564
  117OSM   H15C12209   6.734   2.030   5.725  0.5593  0.6529 -0.2162
  117OSM    C1412210   6.758   2.146   5.959 -0.5376 -1.0002 -0.0222
  117OSM   H14A12211   6.686   2.214   6.004 -0.2259 -0.9964  0.4714
  117OSM   H14B12212   6.793   2.194   5.869 -2.6259 -0.6228 -0.6757
  117OSM   H14C12213   6.842   2.131   6.024 -1.9928 -3.4374  1.3690
  117OSM    C1312214   6.539   2.069   5.899 -0.0789 -0.1826 -0.0561
  117OSM   H13A12215   6.487   2.118   5.980  1.6777 -0.9631  1.5916
  117OSM   H13B12216   6.474   1.986   5.877 -0.7076  0.5791 -1.1386
  117OSM   H13C12217   6.543   2.148   5.825 -0.1799 -0.8117 -0.7335
  117OSM    C1212218   6.680   1.934   6.044  0.4430  0.5734  0.4753
  117OSM   H12A12219   6.780   1.916   6.080 -0.2591 -1.0026  1.7317
  117OSM   H12B12220   6.640   1.838   6.013  1.3440  0.3307  0.0569
  117OSM    C1112221   6.596   1.981   6.162 -0.1553  0.2590 -0.1431
  117OSM   H11A12222   6.600   1.896   6.233  0.5458  1.2660  1.0464
  117OSM   H11B12223   6.488   2.000   6.142 -0.2820 -0.8165 -0.5358
  117OSM      P12224   6.786   2.066   6.309 -0.1893 -0.2308 -0.2315
  117OSM    O1312225   6.865   1.953   6.259 -0.3381  0.2597  0.1125
  117OSM    O1412226   6.859   2.197   6.320  0.1507 -0.1413 -0.4500
  117OSM    O1112227   6.723   2.045   6.458  0.4422  0.2855 -0.2567
  117OSM    O1212228   6.660   2.094   6.223 -0.2201  0.2020  0.5730
  117OSM    C1S12229   6.766   1.943   6.549  0.1777  0.5686  0.4805
  117OSM    H1S12230   6.875   1.950   6.569  0.7462 -2.0046 -1.4558
  117OSM    H1T12231   6.752   1.843   6.502 -0.6785  0.8688  0.0944
  117OSM     NF12232   6.726   1.845   6.762  0.1958  0.9613 -0.2171
  117OSM    HNF12233   6.683   1.755   6.762  0.6474  0.7470 -0.0396
  117OSM    C2S12234   6.676   1.942   6.673 -0.1759 -0.5440 -0.1866
  117OSM    H2S12235   6.697   2.039   6.723  0.4346 -0.6551 -0.2273
  117OSM    C3S12236   6.525   1.936   6.647 -0.4152 -0.6137  0.2825
  117OSM    H3S12237   6.510   1.835   6.603 -0.9125 -0.0508 -0.8467
  117OSM     O312238   6.480   2.039   6.554  0.5374 -0.6862  0.2734
  117OSM    HO312239   6.562   2.057   6.506  0.9098 -0.3906  1.0124
  117OSM    C4S12240   6.452   1.953   6.778  0.6442  0.2329 -0.6947
  117OSM    H4S12241   6.409   1.856   6.806 -0.3079  0.9631  0.4068
  117OSM    C5S12242   6.448   2.061   6.859  0.0718 -0.2397 -0.4841
  117OSM    H5S12243   6.489   2.154   6.817 -0.1756  0.2867  0.4088
  117OSM    C6S12244   6.378   2.061   6.994  0.2431 -1.5433 -1.1854
  117OSM    H6S12245   6.300   1.983   7.003 -0.7378 -0.3933  0.4907
  117OSM    H6T12246   6.323   2.156   7.008  1.1576 -0.9420 -1.5768
  117OSM    C7S12247   6.478   2.041   7.103  0.1083  0.1596  0.8654
  117OSM    H7S12248   6.549   2.126   7.112 -1.6340  2.1641 -3.2090
  117OSM    H7T12249   6.549   1.957   7.089 -0.4477  0.0170 -1.2855
  117OSM    C8S12250   6.409   2.014   7.239 -0.1085  0.6975  0.2309
  117OSM    H8S12251   6.381   1.907   7.234  2.3432  0.0734 -1.3111
  117OSM    H8T12252   6.314   2.066   7.264 -0.9675 -0.4566 -0.6488
  117OSM    C9S12253   6.507   2.032   7.351 -0.4006 -0.1080 -0.5578
  117OSM    H9S12254   6.564   2.127   7.341  0.6301 -0.7996 -1.3166
  117OSM    H9T12255   6.589   1.960   7.333 -1.3292 -1.3130 -0.1140
  117OSM   C10S12256   6.442   2.018   7.485  0.0011  0.2746 -0.0789
  117OSM   H10S12257   6.402   1.915   7.473  0.7825 -0.1358  0.8271
  117OSM   H10T12258   6.366   2.098   7.495 -0.0064  0.3545 -0.7636
  117OSM   C11S12259   6.546   2.014   7.594  0.0539  0.2015 -0.0636
  117OSM   H11S12260   6.611   2.103   7.578  0.6057 -0.5062 -1.9498
  117OSM   H11T12261   6.616   1.932   7.568  0.3463  0.2890  0.4443
  117OSM   C12S12262   6.501   2.013   7.739 -0.0320  0.4788 -0.3099
  117OSM   H12S12263   6.444   1.922   7.770 -1.2627  0.5078 -2.3352
  117OSM   H12T12264   6.433   2.099   7.757  0.6991  0.9008  0.4451
  117OSM   C13S12265   6.626   2.021   7.831  0.1686 -0.1028 -0.3429
  117OSM   H13S12266   6.696   2.098   7.789  0.9837 -2.2513 -3.1276
  117OSM   H13T12267   6.674   1.922   7.816 -1.0720 -0.8424  0.4908
  117OSM   C14S12268   6.582   2.048   7.973 -0.2317 -0.0396 -0.2380
  117OSM   H14S12269   6.534   1.953   8.004 -0.3737  0.2002  0.2860
  117OSM   H14T12270   6.507   2.130   7.980 -1.0057 -0.7367 -0.3190
  117OSM   C15S12271   6.687   2.097   8.079  0.6848 -0.2390  0.5175
  117OSM   H15S12272   6.720   2.200   8.054  2.0524 -0.3875  1.6258
  117OSM   H15T12273   6.775   2.029   8.073  0.6785 -0.1254 -1.0198
  117OSM   C16S12274   6.635   2.114   8.224 -0.1668  0.4158  0.5016
  117OSM   H16S12275   6.602   2.014   8.260 -1.9017  0.0195 -1.9883
  117OSM   H16T12276   6.547   2.180   8.209 -0.0083  0.6467  0.5773
  117OSM   C17S12277   6.743   2.178   8.317 -0.1030 -0.2911 -0.0989
  117OSM   H17S12278   6.765   2.279   8.276 -1.4995 -0.2732 -0.8359
  117OSM   H17T12279   6.828   2.107   8.311  1.8198  1.8334  1.0138
  117OSM   C18S12280   6.704   2.190   8.469  0.2539 -0.1359  0.0487
  117OSM   H18S12281   6.772   2.242   8.539 -2.6020 -0.4220  3.1533
  117OSM   H18T12282   6.700   2.085   8.504  2.6950 -0.9123 -1.8953
  117OSM   H18U12283   6.605   2.240   8.471 -0.1786 -0.9282 -1.0632
  117OSM    C1F12284   6.842   1.853   6.827  0.6959  0.7959 -0.3246
  117OSM     OF12285   6.914   1.949   6.811 -0.8923 -0.1826  0.2147
  117OSM    C2F12286   6.886   1.739   6.916  0.1914  0.3364 -0.0740
  117OSM    H2F12287   6.975   1.698   6.864 -0.8133 -2.5972  0.4229
  117OSM    H2G12288   6.806   1.662   6.917  0.0615  0.4590 -0.9179
  117OSM    C3F12289   6.899   1.761   7.065  0.2102  0.3140 -0.4340
  117OSM    H3F12290   6.804   1.807   7.099  1.1898  1.6344  0.5659
  117OSM    H3G12291   6.976   1.837   7.089 -0.3605  0.4766  0.8733
  117OSM    C4F12292   6.919   1.623   7.129 -0.7399  0.5110  0.5052
  117OSM    H4F12293   6.993   1.566   7.069 -1.7553 -1.5524  1.1619
  117OSM    H4G12294   6.832   1.554   7.127 -0.1975 -0.1398 -0.8131
  117OSM    C5F12295   6.955   1.634   7.272 -0.2506  0.3852 -0.2279
  117OSM    H5F12296   6.875   1.696   7.319  0.0965  0.7326 -0.0976
  117OSM    H5G12297   7.056   1.678   7.286  1.2288 -2.9674  0.1484
  117OSM    C6F12298   6.958   1.492   7.338  0.4257  0.5633 -0.7924
  117OSM    H6F12299   7.028   1.422   7.287  1.1727  0.6186  0.1238
  117OSM    H6G12300   6.859   1.442   7.334 -0.2118  1.7144  0.1058
  117OSM    C7F12301   7.002   1.486   7.490  0.3884 -0.2917 -0.2506
  117OSM    H7F12302   6.937   1.559   7.542  0.5842 -0.1781 -0.1612
  117OSM    H7G12303   7.109   1.517   7.491  0.2820  0.2255 -2.1724
  117OSM    C8F12304   6.969   1.354   7.561  0.2241  0.1319 -0.2005
  117OSM    H8F12305   6.859   1.351   7.545 -0.2486  1.4464  2.5026
  117OSM    H8G12306   6.996   1.372   7.667  1.9539 -2.0667 -0.2402
  117OSM    C9F12307   7.044   1.241   7.509  0.1127  0.4117  0.6395
  117OSM    H9F12308   7.057   1.247   7.400  0.5889  1.1940  0.7364
  117OSM   C10F12309   7.090   1.130   7.562  1.0994 -0.0843  0.3785
  117OSM   H10F12310   7.155   1.070   7.498 -0.9981 -0.0371 -1.8522
  117OSM   C11F12311   7.080   1.102   7.709 -0.5796  0.4314  0.5668
  117OSM   H11F12312   7.140   1.009   7.717  0.0593  0.8414  0.5207
  117OSM   H11G12313   6.973   1.076   7.724 -0.1506 -0.7083  1.7679
  117OSM   C12F12314   7.136   1.198   7.822  0.0606 -0.0028  0.6985
  117OSM   H12F12315   7.089   1.299   7.817  0.7911  0.4091  1.8054
  117OSM   H12G12316   7.243   1.216   7.799 -0.1763 -0.8048 -1.1144
  117OSM   C13F12317   7.124   1.149   7.964 -0.4179  0.2509  0.5920
  117OSM   H13F12318   7.016   1.155   7.989  0.1835 -0.0174  3.4795
  117OSM   H13G12319   7.173   1.224   8.030 -1.6198  1.0410  0.6099
  117OSM   C14F12320   7.190   1.012   7.982  0.0303 -0.7396  0.3332
  117OSM   H14F12321   7.292   1.024   7.942 -1.1530  1.7802 -2.0300
  117OSM   H14G12322   7.143   0.935   7.918  1.6073 -1.4208 -0.0209
  117OSM   C15F12323   7.192   0.975   8.129  0.4648  0.0786  0.1546
  117OSM   H15F12324   7.234   1.056   8.191 -2.0677  1.6425 -0.1255
  117OSM   H15G12325   7.246   0.880   8.149  2.0934  0.9868  0.1923
  117OSM   C16F12326   7.051   0.935   8.176 -0.0668 -0.2192 -0.2607
  117OSM   H16F12327   7.016   0.849   8.116  0.3946 -0.4472 -0.1994
  117OSM   H16G12328   6.976   1.017   8.168 -0.4590 -0.4829  0.6241
  117OSM   C17F12329   7.054   0.899   8.326 -0.2976 -0.2902  0.6720
  117OSM   H17F12330   7.141   0.830   8.338 -1.0083 -0.9725  1.9812
  117OSM   H17G12331   7.095   0.985   8.383  1.8771  0.4671 -1.9236
  117OSM   C18F12332   6.926   0.837   8.391  0.3746  0.0098  0.1196
  117OSM   H18F12333   6.851   0.919   8.394 -1.1049 -1.3240  0.4032
  117OSM   H18G12334   6.957   0.816   8.496 -1.0182 -1.5284  0.2415
  117OSM   H18H12335   6.889   0.748   8.336 -1.4446  1.4591 -1.0667
  118OSM      N12336   2.945   4.237   6.210  0.3938 -0.2580 -0.3073
  118OSM    C1512337   3.086   4.238   6.177 -0.5307 -0.2502 -0.4917
  118OSM   H15A12338   3.145   4.156   6.218 -1.9502 -1.1562 -0.2033
  118OSM   H15B12339   3.143   4.321   6.216 -0.3545 -0.6927  0.2127
  118OSM   H15C12340   3.091   4.250   6.070  0.6325  1.4162 -0.2642
  118OSM    C1412341   2.883   4.366   6.165 -0.2051  0.6531  0.0727
  118OSM   H14A12342   2.775   4.368   6.170 -0.2715 -0.9019 -0.5417
  118OSM   H14B12343   2.920   4.383   6.065  2.9146 -1.7895  0.7579
  118OSM   H14C12344   2.899   4.446   6.235  1.5889 -1.8123  2.5802
  118OSM    C1312345   2.872   4.131   6.137  0.1796 -0.1598 -0.8052
  118OSM   H13A12346   2.766   4.131   6.156  0.2013  0.9697 -0.6616
  118OSM   H13B12347   2.890   4.038   6.190 -1.4136  0.8803  1.6803
  118OSM   H13C12348   2.899   4.112   6.034  0.1125 -2.5278 -0.4259
  118OSM    C1212349   2.930   4.212   6.363  0.4085 -0.7214 -0.6106
  118OSM   H12A12350   2.974   4.296   6.414 -0.7158 -0.1207 -0.6103
  118OSM   H12B12351   2.983   4.120   6.382  0.2454 -0.4108  1.4796
  118OSM    C1112352   2.784   4.216   6.417 -0.3321  0.4822 -0.0535
  118OSM   H11A12353   2.747   4.318   6.393 -1.4825  0.2790  0.8037
  118OSM   H11B12354   2.796   4.213   6.528  1.3667 -0.7021 -0.2572
  118OSM      P12355   2.552   4.112   6.324  0.1115  0.0719 -0.1809
  118OSM    O1312356   2.527   4.237   6.242 -0.2797 -0.3130 -0.4648
  118OSM    O1412357   2.536   3.991   6.244 -0.0440 -0.6889  0.4778
  118OSM    O1112358   2.467   4.111   6.453 -0.0330  0.6714 -0.0140
  118OSM    O1212359   2.705   4.102   6.369 -0.2944 -0.1583  0.3389
  118OSM    C1S12360   2.491   4.010   6.558  1.2440  0.1028 -0.2140
  118OSM    H1S12361   2.599   3.989   6.567  1.8260  2.1710 -2.1672
  118OSM    H1T12362   2.437   3.915   6.539  1.6238 -0.7564  2.6930
  118OSM     NF12363   2.469   3.962   6.797  0.1262  0.8412  0.0954
  118OSM    HNF12364   2.397   3.902   6.832  2.4957 -2.0281  0.1669
  118OSM    C2S12365   2.430   4.058   6.689  0.1359  0.3726 -0.9461
  118OSM    H2S12366   2.472   4.160   6.706 -1.5598  0.8035  0.7838
  118OSM    C3S12367   2.273   4.083   6.685 -0.1559  0.1308 -0.1561
  118OSM    H3S12368   2.213   3.994   6.657  0.1844  0.0982 -0.7935
  118OSM     O312369   2.231   4.174   6.590  0.2722  0.1005  0.3086
  118OSM    HO312370   2.300   4.174   6.524  0.7429 -0.2580  0.7999
  118OSM    C4S12371   2.231   4.130   6.822 -0.5733 -1.2292 -0.6558
  118OSM    H4S12372   2.197   4.047   6.885 -1.0356  0.4762  1.3810
  118OSM    C5S12373   2.237   4.249   6.880  0.1773  0.6262  0.1568
  118OSM    H5S12374   2.277   4.334   6.823 -0.0251  1.1137  0.7348
  118OSM    C6S12375   2.193   4.287   7.021 -0.1590  0.2203  0.4967
  118OSM    H6S12376   2.083   4.271   7.026 -0.1307  0.3130  1.4702
  118OSM    H6T12377   2.226   4.391   7.042 -2.0959  1.6977 -3.2553
  118OSM    C7S12378   2.249   4.201   7.134 -0.2004 -0.1026  0.6154
  118OSM    H7S12379   2.358   4.180   7.131 -0.0560  0.6556  0.2061
  118OSM    H7T12380   2.199   4.105   7.156  0.0869 -0.1457  1.0912
  118OSM    C8S12381   2.225   4.282   7.260  0.8778 -0.1179  0.3678
  118OSM    H8S12382   2.116   4.301   7.270  0.7891 -0.2574 -0.3276
  118OSM    H8T12383   2.283   4.377   7.262  0.6222  0.0562 -0.5622
  118OSM    C9S12384   2.273   4.195   7.371 -0.1458  0.0258  0.5324
  118OSM    H9S12385   2.382   4.180   7.358 -0.0640  0.1300  1.0849
  118OSM    H9T12386   2.219   4.097   7.373  1.0827 -0.6434  2.3507
  118OSM   C10S12387   2.243   4.266   7.502 -0.2151  0.1493 -0.2346
  118OSM   H10S12388   2.137   4.283   7.528 -0.7740  0.0814 -2.4015
  118OSM   H10T12389   2.293   4.365   7.510  1.0226 -0.6600  2.7314
  118OSM   C11S12390   2.305   4.183   7.616 -0.3849 -0.2912  0.2106
  118OSM   H11S12391   2.416   4.183   7.606 -0.4990 -1.3766 -1.3253
  118OSM   H11T12392   2.268   4.078   7.607  2.3482 -1.2602 -0.1936
  118OSM   C12S12393   2.259   4.240   7.747  0.2745 -0.5048  0.1209
  118OSM   H12S12394   2.151   4.219   7.762 -0.0122  0.6800 -0.2193
  118OSM   H12T12395   2.267   4.351   7.750 -0.6759 -0.4049 -0.7968
  118OSM   C13S12396   2.337   4.177   7.865 -0.2350  0.1364  0.1839
  118OSM   H13S12397   2.440   4.218   7.862 -0.1361 -0.1760 -0.9147
  118OSM   H13T12398   2.337   4.066   7.854  0.3137  0.3383 -2.1680
  118OSM   C14S12399   2.291   4.223   8.003  0.3745 -0.0797 -0.5517
  118OSM   H14S12400   2.182   4.240   8.007  0.0476 -2.2497  0.5041
  118OSM   H14T12401   2.345   4.318   8.020  1.4054 -1.0446  1.7940
  118OSM   C15S12402   2.330   4.129   8.118  0.2516  0.9467  0.0197
  118OSM   H15S12403   2.242   4.067   8.142  2.2354 -0.9397  2.7132
  118OSM   H15T12404   2.356   4.181   8.212  0.0189  1.1825 -0.0462
  118OSM   C16S12405   2.450   4.033   8.096 -0.4585 -0.7014  0.0832
  118OSM   H16S12406   2.529   4.105   8.066 -0.4611 -1.3256 -1.5021
  118OSM   H16T12407   2.427   3.964   8.011 -1.8129 -1.4427  1.0406
  118OSM   C17S12408   2.495   3.947   8.211  0.1657 -0.2942  0.1594
  118OSM   H17S12409   2.515   4.022   8.291 -1.0724  1.2607 -0.9729
  118OSM   H17T12410   2.587   3.886   8.197  0.4466 -0.2168  1.5926
  118OSM   C18S12411   2.402   3.851   8.275  0.0559 -0.2629  0.3084
  118OSM   H18S12412   2.299   3.892   8.282 -0.2687 -1.3699  2.4104
  118OSM   H18T12413   2.426   3.807   8.374 -2.0658 -0.8543  0.5896
  118OSM   H18U12414   2.388   3.767   8.203  0.5278  0.9279 -1.2165
  118OSM    C1F12415   2.588   3.963   6.853  0.1173  0.2933 -1.5756
  118OSM     OF12416   2.683   4.005   6.797 -0.4732 -0.0997 -0.3503
  118OSM    C2F12417   2.595   3.882   6.978 -0.3530  0.7850 -0.2128
  118OSM    H2F12418   2.521   3.801   6.962 -0.6808  1.0495 -0.0495
  118OSM    H2G12419   2.570   3.942   7.068  0.2302  0.7832 -0.0493
  118OSM    C3F12420   2.735   3.811   7.002  0.1529  0.0673  0.4916
  118OSM    H3F12421   2.813   3.890   7.009  0.7735 -0.4829 -0.1337
  118OSM    H3G12422   2.770   3.755   6.913 -1.6708  0.9877 -0.8412
  118OSM    C4F12423   2.741   3.726   7.130  0.3775  0.6479 -0.1645
  118OSM    H4F12424   2.693   3.627   7.115  1.3722  0.2324 -0.6300
  118OSM    H4G12425   2.684   3.767   7.216  0.6971  1.2402 -0.2357
  118OSM    C5F12426   2.888   3.681   7.167 -0.4454  0.4639 -0.2347
  118OSM    H5F12427   2.954   3.770   7.159 -0.5216  0.4133 -1.4626
  118OSM    H5G12428   2.925   3.609   7.091 -0.2293 -0.2450  0.5197
  118OSM    C6F12429   2.911   3.609   7.302 -0.0783 -0.3979 -0.2829
  118OSM    H6F12430   3.017   3.627   7.332  0.1946 -0.4747 -1.1891
  118OSM    H6G12431   2.889   3.502   7.281  0.5788 -0.5233 -0.3662
  118OSM    C7F12432   2.837   3.669   7.426 -0.2724  0.3544  0.3787
  118OSM    H7F12433   2.737   3.624   7.407  0.4489 -1.0353 -0.2235
  118OSM    H7G12434   2.832   3.780   7.424  0.1311  0.3872  1.0054
  118OSM    C8F12435   2.896   3.614   7.558 -0.2743 -0.1945 -0.5744
  118OSM    H8F12436   2.915   3.506   7.540 -1.9710 -0.2172 -2.3592
  118OSM    H8G12437   2.829   3.611   7.647  0.8429 -2.7085  0.2141
  118OSM    C9F12438   3.018   3.685   7.603 -0.7884 -0.2243  0.0882
  118OSM    H9F12439   3.055   3.758   7.529  0.3652  1.5448  2.3305
  118OSM   C10F12440   3.086   3.656   7.711 -0.5124 -0.4749  0.0657
  118OSM   H10F12441   3.182   3.710   7.724 -0.0881 -0.6197 -2.3324
  118OSM   C11F12442   3.064   3.550   7.817 -0.8655 -0.0444  0.0752
  118OSM   H11F12443   3.127   3.458   7.811  4.1252  3.2215  0.0377
  118OSM   H11G12444   2.960   3.510   7.814 -0.9894  0.1689  1.2750
  118OSM   C12F12445   3.058   3.614   7.969 -0.1620  0.3019  0.1899
  118OSM   H12F12446   3.015   3.540   8.040 -0.9487  0.7106  0.1475
  118OSM   H12G12447   3.012   3.714   7.984  1.3364  0.9229  0.7470
  118OSM   C13F12448   3.206   3.645   8.019 -0.3636 -0.4134  0.4946
  118OSM   H13F12449   3.246   3.741   7.979 -0.7598 -1.4451 -2.5155
  118OSM   H13G12450   3.265   3.563   7.972  0.7930  1.4623 -1.4139
  118OSM   C14F12451   3.230   3.634   8.167  0.0680  0.1881 -0.2668
  118OSM   H14F12452   3.187   3.535   8.194  0.2789 -0.4441 -2.1748
  118OSM   H14G12453   3.162   3.706   8.216 -0.1126 -1.3173  1.7772
  118OSM   C15F12454   3.379   3.654   8.217 -0.3279 -0.5052  0.0073
  118OSM   H15F12455   3.377   3.648   8.328 -0.5226  0.4470  0.0547
  118OSM   H15G12456   3.406   3.759   8.194  0.1338 -0.7946 -0.7809
  118OSM   C16F12457   3.491   3.560   8.161 -0.5476  0.8523 -0.7579
  118OSM   H16F12458   3.523   3.604   8.064 -0.8968 -1.2330 -1.8607
  118OSM   H16G12459   3.455   3.459   8.129 -1.0833  1.3232 -1.6751
  118OSM   C17F12460   3.611   3.537   8.250 -0.5893 -0.3082 -0.3797
  118OSM   H17F12461   3.656   3.634   8.281  0.1805 -0.9631  0.6001
  118OSM   H17G12462   3.696   3.489   8.197  0.0513 -0.6018  0.8945
  118OSM   C18F12463   3.575   3.449   8.367  0.0514  0.5195 -0.5046
  118OSM   H18F12464   3.508   3.497   8.441 -0.5146 -0.4537 -0.3803
  118OSM   H18G12465   3.671   3.411   8.409  1.0505  0.1265 -3.0353
  118OSM   H18H12466   3.514   3.368   8.321  1.9556 -0.7724 -0.8018
  119OSM      N12467   3.698   2.281   5.544 -0.1347  0.0604  0.2218
  119OSM    C1512468   3.833   2.262   5.604  0.0712  0.4360 -0.3944
  119OSM   H15A12469   3.846   2.159   5.635  0.5303  0.7390  0.4388
  119OSM   H15B12470   3.843   2.319   5.695 -2.1852  0.7717 -0.3424
  119OSM   H15C12471   3.908   2.283   5.529  0.5543  0.0709 -0.0144
  119OSM    C1412472   3.693   2.415   5.475  0.1473  0.6189 -0.1465
  119OSM   H14A12473   3.738   2.493   5.534  0.2126  0.3515  0.1605
  119OSM   H14B12474   3.591   2.448   5.462  0.6024  2.1300  0.0406
  119OSM   H14C12475   3.737   2.402   5.377 -0.4183  0.2028 -0.3537
  119OSM    C1312476   3.670   2.185   5.438 -0.5391  0.1274  0.1091
  119OSM   H13A12477   3.722   2.198   5.345 -0.6072 -0.1280  0.0326
  119OSM   H13B12478   3.564   2.169   5.420 -0.8078  0.9509  0.9112
  119OSM   H13C12479   3.683   2.082   5.470  0.7711  0.2290 -0.0868
  119OSM    C1212480   3.589   2.268   5.652  0.8431  1.0328 -0.2688
  119OSM   H12A12481   3.608   2.177   5.708  2.7655  1.2936 -0.4780
  119OSM   H12B12482   3.495   2.258   5.600  0.6639  1.3083  0.0042
  119OSM    C1112483   3.585   2.388   5.754 -0.4229  0.3250 -0.0800
  119OSM   H11A12484   3.523   2.357   5.840  0.3229  1.4734  0.8842
  119OSM   H11B12485   3.529   2.478   5.719  0.0536  0.6537  0.0001
  119OSM      P12486   3.768   2.560   5.824 -0.1148  0.0021  0.2924
  119OSM    O1312487   3.888   2.547   5.911 -0.2121  0.1780  0.5348
  119OSM    O1412488   3.800   2.625   5.692 -0.1869  0.1496  0.3766
  119OSM    O1112489   3.650   2.640   5.894 -0.3602  0.0349  0.7496
  119OSM    O1212490   3.712   2.414   5.811  0.1297 -0.3476  0.0512
  119OSM    C1S12491   3.594   2.599   6.015  0.0974  0.0038  0.4750
  119OSM    H1S12492   3.614   2.492   6.037  1.0739  0.2850  1.0228
  119OSM    H1T12493   3.483   2.608   6.012  0.0759 -0.5633 -0.7282
  119OSM     NF12494   3.597   2.637   6.258 -0.2806  0.1271 -0.0690
  119OSM    HNF12495   3.518   2.685   6.295  0.9682  1.2681  1.1378
  119OSM    C2S12496   3.643   2.686   6.136 -0.1285  0.2894  0.3067
  119OSM    H2S12497   3.754   2.684   6.141 -0.1303  0.5650  0.4852
  119OSM    C3S12498   3.615   2.838   6.100 -0.0316  0.0014  0.2812
  119OSM    H3S12499   3.505   2.844   6.088 -0.3896  1.7217  3.7683
  119OSM     O312500   3.672   2.891   5.976  0.5447 -0.2754  0.2034
  119OSM    HO312501   3.667   2.820   5.912 -1.8699 -0.4241  0.5078
  119OSM    C4S12502   3.658   2.936   6.213 -0.5295 -0.3497  0.1408
  119OSM    H4S12503   3.576   2.953   6.285  0.2437  1.5778  0.5823
  119OSM    C5S12504   3.783   2.987   6.235 -0.4109  1.0495 -0.5259
  119OSM    H5S12505   3.864   2.939   6.179 -1.5822  0.5744 -1.8406
  119OSM    C6S12506   3.834   3.070   6.356 -0.6316  0.1506  0.2900
  119OSM    H6S12507   3.882   3.162   6.318  0.1683  0.4330  1.9298
  119OSM    H6T12508   3.915   3.020   6.413  0.0902  3.5879  2.4484
  119OSM    C7S12509   3.716   3.116   6.454  0.3338  0.1623  0.0471
  119OSM    H7S12510   3.625   3.145   6.399  0.2740 -0.2140 -0.0553
  119OSM    H7T12511   3.749   3.213   6.498  0.0392  0.1921  0.2052
  119OSM    C8S12512   3.680   3.006   6.553 -0.0929  0.2306 -0.8787
  119OSM    H8S12513   3.771   2.958   6.594  2.0890  3.8255 -1.3392
  119OSM    H8T12514   3.634   2.922   6.496 -1.0013 -1.2550  1.9494
  119OSM    C9S12515   3.595   3.046   6.669 -0.8592 -0.8575 -0.2169
  119OSM    H9S12516   3.576   2.949   6.720 -1.7644 -1.8805 -2.4558
  119OSM    H9T12517   3.499   3.086   6.630 -0.3317  0.0349 -0.6075
  119OSM   C10S12518   3.659   3.146   6.773 -0.1317  0.3309 -0.1532
  119OSM   H10S12519   3.685   3.239   6.717  0.0517  0.4932  0.1950
  119OSM   H10T12520   3.759   3.110   6.804  0.3604  1.6707 -0.1230
  119OSM   C11S12521   3.582   3.166   6.900  0.0046  0.1072 -0.0824
  119OSM   H11S12522   3.536   3.069   6.928  1.1606 -0.9964 -1.8870
  119OSM   H11T12523   3.499   3.236   6.874 -0.2626 -0.4152 -0.6538
  119OSM   C12S12524   3.665   3.240   7.009  0.2598  0.2774 -0.4383
  119OSM   H12S12525   3.707   3.338   6.977  2.9699 -0.4773  0.6437
  119OSM   H12T12526   3.751   3.183   7.050  0.0808  0.8221  0.6987
  119OSM   C13S12527   3.565   3.266   7.123 -0.0667  0.3168  0.4492
  119OSM   H13S12528   3.513   3.171   7.152 -0.9824  0.9863  1.0339
  119OSM   H13T12529   3.478   3.329   7.094  0.2921  1.2702  1.4262
  119OSM   C14S12530   3.632   3.334   7.242  0.0069 -0.2024  0.3121
  119OSM   H14S12531   3.654   3.440   7.218 -0.7626 -0.1714 -0.2497
  119OSM   H14T12532   3.723   3.276   7.269  1.8568  2.3947 -0.1941
  119OSM   C15S12533   3.542   3.332   7.370  0.8128  0.0412  0.0384
  119OSM   H15S12534   3.592   3.393   7.448  1.2031 -0.8130  0.4663
  119OSM   H15T12535   3.541   3.228   7.409 -1.0272 -0.6647 -1.7447
  119OSM   C16S12536   3.397   3.371   7.356 -0.0879 -0.5455  0.1775
  119OSM   H16S12537   3.360   3.317   7.265 -1.6121  2.7199 -1.2288
  119OSM   H16T12538   3.397   3.479   7.329  0.2049 -0.9187 -1.3586
  119OSM   C17S12539   3.315   3.315   7.470 -0.3335 -0.1745  0.4917
  119OSM   H17S12540   3.326   3.205   7.460 -1.0073 -0.2656  0.7571
  119OSM   H17T12541   3.207   3.340   7.458 -0.0818 -0.2284 -2.3340
  119OSM   C18S12542   3.349   3.374   7.608 -0.0653 -0.1538 -0.3096
  119OSM   H18S12543   3.332   3.483   7.600 -0.2985 -0.2169 -0.6959
  119OSM   H18T12544   3.459   3.366   7.625  0.2554  2.5929 -0.8735
  119OSM   H18U12545   3.287   3.328   7.688  1.1424 -0.5893  0.3984
  119OSM    C1F12546   3.622   2.520   6.308  0.7593  0.0474 -0.9237
  119OSM     OF12547   3.707   2.445   6.257 -0.4065 -0.0480  0.0015
  119OSM    C2F12548   3.549   2.484   6.435  0.0881  0.2141 -0.2078
  119OSM    H2F12549   3.530   2.375   6.449 -1.2074  0.0781 -2.8022
  119OSM    H2G12550   3.447   2.528   6.424  0.3103  1.3772  2.0147
  119OSM    C3F12551   3.616   2.541   6.561 -0.2978 -0.4495  0.1220
  119OSM    H3F12552   3.546   2.537   6.647 -0.1613 -3.5686  0.1304
  119OSM    H3G12553   3.623   2.651   6.547 -1.3235 -0.3181  0.6048
  119OSM    C4F12554   3.754   2.473   6.587  0.1937 -0.4414  0.0762
  119OSM    H4F12555   3.818   2.512   6.505 -1.0221 -0.7704 -1.0531
  119OSM    H4G12556   3.738   2.363   6.582  0.8938 -0.5309 -0.2449
  119OSM    C5F12557   3.818   2.496   6.719 -0.7497 -0.9224  0.8884
  119OSM    H5F12558   3.921   2.455   6.711 -0.5291 -0.2398  0.1778
  119OSM    H5G12559   3.761   2.432   6.790  0.6280 -1.6198  1.3800
  119OSM    C6F12560   3.816   2.634   6.783  0.7508  0.1504  0.1015
  119OSM    H6F12561   3.710   2.668   6.793  1.0591  0.5343  2.3617
  119OSM    H6G12562   3.872   2.706   6.720  0.3441 -1.2581 -1.9276
  119OSM    C7F12563   3.865   2.649   6.930 -0.1756  0.0923 -0.4036
  119OSM    H7F12564   3.969   2.608   6.926  0.4872  1.7752 -0.6105
  119OSM    H7G12565   3.805   2.584   6.998 -1.5623 -0.5276 -2.1789
  119OSM    C8F12566   3.880   2.788   6.988  0.5095  0.8547  0.4251
  119OSM    H8F12567   3.777   2.824   7.012  0.7129  2.2357 -0.7336
  119OSM    H8G12568   3.917   2.854   6.907 -3.0046  1.3259 -0.8956
  119OSM    C9F12569   3.965   2.789   7.118  0.2866  0.5188 -0.1978
  119OSM    H9F12570   4.064   2.746   7.097  0.7156  1.1677  0.4635
  119OSM   C10F12571   3.928   2.847   7.233  0.5489 -0.5034  0.1424
  119OSM   H10F12572   3.994   2.849   7.321  0.9378 -0.5616 -0.1463
  119OSM   C11F12573   3.799   2.920   7.248  0.6922  0.4382  0.1380
  119OSM   H11F12574   3.721   2.843   7.269  1.2352 -1.1528 -3.3738
  119OSM   H11G12575   3.775   2.976   7.155 -0.3338 -2.4382 -1.3898
  119OSM   C12F12576   3.799   3.023   7.364 -0.3233 -0.3745  0.0614
  119OSM   H12F12577   3.713   3.094   7.363 -2.3793 -2.7814  0.8180
  119OSM   H12G12578   3.892   3.083   7.354  0.6393 -2.1433 -1.9665
  119OSM   C13F12579   3.811   2.979   7.516  0.1368  0.6197  0.9083
  119OSM   H13F12580   3.909   2.932   7.540  0.3098  1.5099  1.9921
  119OSM   H13G12581   3.729   2.905   7.526 -0.7664  1.5856  0.6843
  119OSM   C14F12582   3.785   3.095   7.618  0.6599 -0.2241  0.7152
  119OSM   H14F12583   3.678   3.125   7.610  0.3043 -1.7155 -0.1599
  119OSM   H14G12584   3.857   3.174   7.587  0.8302  0.8606  3.6988
  119OSM   C15F12585   3.823   3.061   7.761 -0.1769  0.0710  0.1883
  119OSM   H15F12586   3.796   3.147   7.825  0.5166  1.7974 -1.7720
  119OSM   H15G12587   3.933   3.043   7.764  0.2302  1.7463 -2.6835
  119OSM   C16F12588   3.757   2.934   7.821  0.3622 -0.3584 -0.2593
  119OSM   H16F12589   3.784   2.848   7.757 -1.1221  0.0931 -1.5384
  119OSM   H16G12590   3.648   2.951   7.809  0.4167 -1.5844 -2.7730
  119OSM   C17F12591   3.798   2.899   7.963  0.3736  0.4403  0.4391
  119OSM   H17F12592   3.802   2.989   8.027 -0.8154  1.3470 -0.7477
  119OSM   H17G12593   3.905   2.871   7.952  0.2513 -0.1286  0.6587
  119OSM   C18F12594   3.708   2.800   8.030 -0.1778 -0.6064  0.0696
  119OSM   H18F12595   3.724   2.701   7.982  3.8570 -1.0661  2.1118
  119OSM   H18G12596   3.602   2.831   8.022  0.4961  1.8293  0.1381
  119OSM   H18H12597   3.719   2.782   8.139 -2.8533 -1.3210  0.2674
  120OSM      N12598   1.079   0.837   6.673 -0.1121  0.4569 -0.6059
  120OSM    C1512599   0.958   0.860   6.760 -0.5365 -0.4467 -0.4744
  120OSM   H15A12600   0.876   0.905   6.705  1.0820  2.5213 -0.5341
  120OSM   H15B12601   0.987   0.940   6.826  1.0509  0.5599 -2.3685
  120OSM   H15C12602   0.925   0.771   6.813  1.5453 -1.9429 -1.6176
  120OSM    C1412603   1.116   0.963   6.615  0.6296  0.2938 -0.4054
  120OSM   H14A12604   1.196   0.940   6.546  0.3834  0.3851 -0.7257
  120OSM   H14B12605   1.159   1.032   6.686 -0.0988  2.9627 -2.4791
  120OSM   H14C12606   1.034   1.023   6.577  1.3700  0.7616 -1.2878
  120OSM    C1312607   1.196   0.782   6.745 -0.9704 -0.1791 -0.0543
  120OSM   H13A12608   1.211   0.840   6.835 -1.8375  0.4698 -0.3203
  120OSM   H13B12609   1.284   0.791   6.683 -0.4277  0.4285  0.7971
  120OSM   H13C12610   1.183   0.677   6.767 -0.4458 -0.3807 -0.7263
  120OSM    C1212611   1.044   0.743   6.563  0.2441 -0.0187 -0.5967
  120OSM   H12A12612   0.957   0.784   6.513  1.6015  1.7630 -1.5970
  120OSM   H12B12613   1.016   0.647   6.603 -0.1249 -0.4510 -1.8510
  120OSM    C1112614   1.153   0.717   6.447  0.3007 -0.5362  0.7880
  120OSM   H11A12615   1.185   0.815   6.405  0.2111 -0.3955  1.0494
  120OSM   H11B12616   1.103   0.667   6.361 -1.0622  0.1205  1.1876
  120OSM      P12617   1.308   0.499   6.483  0.0968 -0.6295 -0.5335
  120OSM    O1312618   1.187   0.418   6.464  0.5821 -0.0522  0.5246
  120OSM    O1412619   1.418   0.478   6.381  0.1128 -0.5148  0.4117
  120OSM    O1112620   1.372   0.466   6.629 -0.0321  0.5831  0.5135
  120OSM    O1212621   1.268   0.647   6.499 -0.9605 -1.1164  0.2276
  120OSM    C1S12622   1.484   0.541   6.681  0.4049  0.2279 -0.1593
  120OSM    H1S12623   1.440   0.639   6.713  0.8188  1.8062 -4.1266
  120OSM    H1T12624   1.562   0.558   6.605  2.0069 -0.0992  1.3866
  120OSM     NF12625   1.664   0.555   6.848  0.2736  0.0233  0.5996
  120OSM    HNF12626   1.755   0.539   6.811  1.2920  0.2760  2.9455
  120OSM    C2S12627   1.558   0.470   6.800 -0.4806  0.4507 -0.1240
  120OSM    H2S12628   1.483   0.466   6.881  2.1602 -2.6875  2.2595
  120OSM    C3S12629   1.603   0.320   6.769 -0.0625 -0.2150  0.0366
  120OSM    H3S12630   1.691   0.323   6.701 -0.4175 -4.7007 -0.7537
  120OSM     O312631   1.514   0.238   6.706  0.2926 -0.3367 -0.0485
  120OSM    HO312632   1.436   0.291   6.692 -1.0154 -2.4344 -0.8628
  120OSM    C4S12633   1.649   0.257   6.898 -0.4551 -0.1559 -0.2433
  120OSM    H4S12634   1.752   0.286   6.926 -0.1871 -1.6297  0.3419
  120OSM    C5S12635   1.594   0.169   6.989 -0.0650  0.1296 -0.3827
  120OSM    H5S12636   1.497   0.122   6.966  0.2229 -1.5375  1.6681
  120OSM    C6S12637   1.667   0.122   7.113  0.2687 -0.2250  0.4002
  120OSM    H6S12638   1.774   0.152   7.122  0.4873 -1.3614  1.7388
  120OSM    H6T12639   1.664   0.012   7.108  1.0140 -0.2141 -0.3363
  120OSM    C7S12640   1.596   0.162   7.247  0.1077 -0.0500  0.3482
  120OSM    H7S12641   1.655   0.094   7.312 -1.1870  0.3350  1.9737
  120OSM    H7T12642   1.492   0.123   7.248 -1.3771  3.6049 -1.9446
  120OSM    C8S12643   1.605   0.308   7.301  0.3572 -0.2991  0.5227
  120OSM    H8S12644   1.577   0.387   7.228 -1.0054 -1.7208 -0.5559
  120OSM    H8T12645   1.709   0.330   7.330 -0.1258  2.8158  0.0223
  120OSM    C9S12646   1.515   0.340   7.417 -0.2026 -0.2497 -0.0988
  120OSM    H9S12647   1.408   0.354   7.388 -0.5192 -1.2501  0.5544
  120OSM    H9T12648   1.550   0.436   7.462  2.6314 -1.7063  0.8988
  120OSM   C10S12649   1.530   0.245   7.536  0.2407  0.2186 -0.2956
  120OSM   H10S12650   1.638   0.221   7.544 -0.0379 -0.9780 -0.0110
  120OSM   H10T12651   1.480   0.148   7.518 -2.5684  1.1469  2.0540
  120OSM   C11S12652   1.490   0.313   7.674  0.2427  0.2764  0.5498
  120OSM   H11S12653   1.384   0.345   7.686  0.6425  1.6184  0.6100
  120OSM   H11T12654   1.551   0.404   7.697  0.7950 -0.3524  1.6379
  120OSM   C12S12655   1.507   0.210   7.780 -0.6937 -0.3486  0.2884
  120OSM   H12S12656   1.614   0.178   7.779 -0.2500  1.0788 -2.1524
  120OSM   H12T12657   1.461   0.113   7.752  0.6307 -1.9086  3.2642
  120OSM   C13S12658   1.476   0.243   7.928 -0.3339 -0.2627  0.3894
  120OSM   H13S12659   1.366   0.253   7.939 -0.7459 -2.8084 -0.9431
  120OSM   H13T12660   1.531   0.330   7.967 -0.6637  0.8244 -1.4767
  120OSM   C14S12661   1.510   0.116   8.016  0.8043 -0.1780  0.1906
  120OSM   H14S12662   1.610   0.074   7.994  0.2481 -1.0576 -0.7205
  120OSM   H14T12663   1.443   0.031   7.991 -1.6289  1.5474  0.6842
  120OSM   C15S12664   1.514   0.138   8.171  0.0885  0.4846 -0.1960
  120OSM   H15S12665   1.421   0.190   8.202  0.3925  1.4094 -0.8142
  120OSM   H15T12666   1.595   0.207   8.203 -1.2769  1.4495  1.2195
  120OSM   C16S12667   1.547   0.016   8.261  0.0354  0.7568 -0.8530
  120OSM   H16S12668   1.623  -0.046   8.208  0.7778 -1.1747  2.3130
  120OSM   H16T12669   1.457  -0.048   8.267  0.4944  0.1474 -0.4356
  120OSM   C17S12670   1.604   0.056   8.397  0.3071  0.0749  0.7074
  120OSM   H17S12671   1.580   0.162   8.416 -1.3781  0.3329 -2.4948
  120OSM   H17T12672   1.715   0.062   8.394  0.2614  0.4625 -0.3665
  120OSM   C18S12673   1.567  -0.031   8.516 -0.8844  1.2806  0.1132
  120OSM   H18S12674   1.616   0.010   8.607  0.4244 -0.2473  0.1018
  120OSM   H18T12675   1.602  -0.135   8.497 -3.8921  0.3804 -0.8449
  120OSM   H18U12676   1.457  -0.037   8.531 -0.7668 -0.7224  0.2962
  120OSM    C1F12677   1.643   0.660   6.921 -0.1727  0.1934 -0.0663
  120OSM     OF12678   1.531   0.706   6.949 -0.1804  0.3352  0.0732
  120OSM    C2F12679   1.762   0.740   6.964 -0.2168 -0.3344 -0.7416
  120OSM    H2F12680   1.783   0.814   6.884 -2.3279  0.7556 -0.3248
  120OSM    H2G12681   1.845   0.671   6.992 -0.4145  0.2906  1.5219
  120OSM    C3F12682   1.726   0.822   7.086  0.3883  0.1895 -0.0661
  120OSM    H3F12683   1.706   0.749   7.168 -3.0847  0.6764 -0.3861
  120OSM    H3G12684   1.629   0.875   7.078 -0.2135 -0.9583 -0.5445
  120OSM    C4F12685   1.838   0.925   7.116 -0.3956 -0.4908 -0.3391
  120OSM    H4F12686   1.817   1.006   7.043  0.3030  0.5080  0.5521
  120OSM    H4G12687   1.931   0.873   7.085  1.1106  1.5715  0.6513
  120OSM    C5F12688   1.843   0.968   7.262 -0.8440 -0.2461 -0.2669
  120OSM    H5F12689   1.742   0.979   7.307 -0.8440  0.4359 -0.4169
  120OSM    H5G12690   1.910   1.056   7.276 -0.3361 -0.5005 -1.0336
  120OSM    C6F12691   1.914   0.852   7.338  0.3336  0.5861 -0.2178
  120OSM    H6F12692   2.023   0.858   7.320  0.1885  1.9861 -0.6405
  120OSM    H6G12693   1.891   0.749   7.300  0.1118  0.2592  0.7870
  120OSM    C7F12694   1.896   0.852   7.488 -0.2564 -0.0551  0.6664
  120OSM    H7F12695   1.790   0.859   7.519 -0.1306 -0.1187  1.1197
  120OSM    H7G12696   1.951   0.938   7.531  0.1802 -0.2538  0.5099
  120OSM    C8F12697   1.974   0.734   7.557  0.9306  0.1981  0.5439
  120OSM    H8F12698   1.997   0.774   7.658 -0.9990  1.7469  0.3969
  120OSM    H8G12699   2.067   0.720   7.497 -0.0461 -2.3987 -0.4394
  120OSM    C9F12700   1.892   0.609   7.563  0.1389 -0.1290  0.5097
  120OSM    H9F12701   1.887   0.543   7.475  0.7316 -0.0387  0.4079
  120OSM   C10F12702   1.820   0.570   7.667 -0.4738  1.2014 -0.6448
  120OSM   H10F12703   1.768   0.473   7.659 -1.4074  1.4859  1.4594
  120OSM   C11F12704   1.801   0.631   7.803  0.1547 -0.3467 -0.6037
  120OSM   H11F12705   1.697   0.669   7.809  0.6226  0.7415  1.4020
  120OSM   H11G12706   1.875   0.713   7.819 -0.9184  0.5285 -0.0077
  120OSM   C12F12707   1.814   0.528   7.924 -0.3304 -0.3866 -0.5180
  120OSM   H12F12708   1.924   0.515   7.933 -0.3738 -1.3584 -1.2851
  120OSM   H12G12709   1.769   0.432   7.891 -2.0422  0.3778 -0.4397
  120OSM   C13F12710   1.755   0.563   8.063  0.0977  0.3453 -0.1769
  120OSM   H13F12711   1.646   0.554   8.047  0.0082  0.8913  0.1063
  120OSM   H13G12712   1.782   0.670   8.074 -0.3512  0.8331 -3.2778
  120OSM   C14F12713   1.813   0.462   8.157 -0.0926  0.4830 -0.4790
  120OSM   H14F12714   1.922   0.456   8.134  0.0622 -1.3987  0.6628
  120OSM   H14G12715   1.788   0.356   8.136  1.3691  0.0787 -0.2168
  120OSM   C15F12716   1.796   0.498   8.310  0.5710  0.2240 -0.6012
  120OSM   H15F12717   1.696   0.545   8.324  1.3197  1.5469  0.4490
  120OSM   H15G12718   1.879   0.566   8.336  2.4942 -2.5092  0.6447
  120OSM   C16F12719   1.802   0.375   8.404 -0.4702 -0.4188 -0.3015
  120OSM   H16F12720   1.909   0.355   8.426 -0.7977 -0.2131  1.5704
  120OSM   H16G12721   1.757   0.286   8.355 -0.0409  0.7176 -2.8054
  120OSM   C17F12722   1.723   0.399   8.541 -0.6852  0.0619 -0.2052
  120OSM   H17F12723   1.694   0.298   8.577 -1.7217 -0.5267 -2.6056
  120OSM   H17G12724   1.624   0.447   8.523 -1.2075 -0.3378  1.5377
  120OSM   C18F12725   1.804   0.465   8.650  0.4805 -0.2660 -0.6778
  120OSM   H18F12726   1.901   0.414   8.667 -0.2341 -1.1657  0.8302
  120OSM   H18G12727   1.740   0.455   8.740 -0.2447  1.2531 -1.0187
  120OSM   H18H12728   1.828   0.573   8.636 -0.1912  0.4232  3.0294
  121OSM      N12729   2.542   2.310   6.152  0.6627 -0.1303  0.6428
  121OSM    C1512730   2.454   2.199   6.105 -0.2150  0.4870 -0.5378
  121OSM   H15A12731   2.503   2.139   6.030  0.1333 -0.5533  0.4931
  121OSM   H15B12732   2.358   2.236   6.071 -2.3686 -2.6546  1.7664
  121OSM   H15C12733   2.439   2.128   6.186  1.0344 -0.7624 -1.3785
  121OSM    C1412734   2.602   2.396   6.046 -0.9361  0.0645 -0.5035
  121OSM   H14A12735   2.518   2.434   5.989 -2.0126 -1.6879 -0.1477
  121OSM   H14B12736   2.681   2.343   5.995  3.3870  2.9179  2.8414
  121OSM   H14C12737   2.636   2.485   6.095  1.2253  0.0857 -1.9961
  121OSM    C1312738   2.450   2.389   6.245 -0.2135 -0.1653  0.1982
  121OSM   H13A12739   2.371   2.435   6.188  1.3797  1.7296 -0.5407
  121OSM   H13B12740   2.505   2.467   6.296  2.5270  0.0270 -2.9315
  121OSM   H13C12741   2.396   2.329   6.317 -0.7399  0.0963  0.0267
  121OSM    C1212742   2.648   2.248   6.241 -0.1914  0.0991  0.1150
  121OSM   H12A12743   2.600   2.198   6.325 -2.4743 -1.5118 -2.0533
  121OSM   H12B12744   2.714   2.323   6.281  0.5006  1.3495 -3.2318
  121OSM    C1112745   2.740   2.141   6.169 -0.4843 -0.0774 -0.0171
  121OSM   H11A12746   2.668   2.061   6.140 -0.8113  0.0593  0.4177
  121OSM   H11B12747   2.809   2.100   6.245  0.6412  0.1359 -0.9169
  121OSM      P12748   2.965   2.224   6.068 -0.0399 -0.2054  0.2508
  121OSM    O1312749   3.027   2.101   6.016 -0.2767  0.1636  0.7087
  121OSM    O1412750   2.993   2.352   5.998  0.1539 -1.0361 -0.0390
  121OSM    O1112751   2.999   2.243   6.227  0.2540 -0.3556  0.4089
  121OSM    O1212752   2.813   2.188   6.054  0.1873  0.1143 -0.3431
  121OSM    C1S12753   3.090   2.149   6.291  0.3412 -0.9197  0.2548
  121OSM    H1S12754   3.186   2.125   6.241  1.2708 -2.7797  2.8415
  121OSM    H1T12755   3.034   2.054   6.291 -3.5262  1.2620 -0.7509
  121OSM     NF12756   3.219   2.080   6.486 -0.2548 -0.7081 -0.8162
  121OSM    HNF12757   3.177   2.027   6.559 -0.8004  0.7136 -0.1005
  121OSM    C2S12758   3.127   2.179   6.440  0.7657 -0.0680  0.3179
  121OSM    H2S12759   3.174   2.280   6.436 -0.4424  0.4453 -1.5229
  121OSM    C3S12760   2.993   2.180   6.525 -0.1129 -0.0262  0.2970
  121OSM    H3S12761   2.957   2.076   6.511  1.7911 -0.6382 -0.1956
  121OSM     O312762   2.905   2.281   6.476  0.0174 -0.6564 -0.3144
  121OSM    HO312763   2.950   2.297   6.393  1.1587  1.6385  0.6985
  121OSM    C4S12764   3.018   2.206   6.671  0.4488 -0.2430  0.8679
  121OSM    H4S12765   2.989   2.119   6.732 -0.3815 -0.7850 -0.2785
  121OSM    C5S12766   3.052   2.323   6.717 -0.1174 -0.3399 -0.3036
  121OSM    H5S12767   3.058   2.405   6.643 -1.5454  0.6011  0.5997
  121OSM    C6S12768   3.069   2.344   6.862 -1.0424 -0.5021 -0.2027
  121OSM    H6S12769   3.156   2.413   6.868 -1.3949  0.0198 -1.0321
  121OSM    H6T12770   3.100   2.249   6.911 -1.2313 -0.0973  0.6991
  121OSM    C7S12771   2.953   2.421   6.922 -0.4448 -0.4734 -0.3741
  121OSM    H7S12772   2.862   2.371   6.882  0.8662 -0.9470 -2.9107
  121OSM    H7T12773   2.964   2.527   6.893 -0.6209 -0.5094 -0.5747
  121OSM    C8S12774   2.950   2.415   7.070 -0.2691 -0.0451  0.3787
  121OSM    H8S12775   2.925   2.312   7.102 -0.3911 -0.8058 -2.0937
  121OSM    H8T12776   2.865   2.478   7.103  1.1225  1.3315  1.4614
  121OSM    C9S12777   3.072   2.456   7.144  0.0095  0.0207  0.1055
  121OSM    H9S12778   3.070   2.564   7.170 -0.9459  0.3022 -1.1046
  121OSM    H9T12779   3.167   2.443   7.088  0.5293  0.5631  0.8619
  121OSM   C10S12780   3.090   2.371   7.272  0.1907  0.9074  1.2816
  121OSM   H10S12781   3.172   2.422   7.327  2.3483 -3.1308  2.0347
  121OSM   H10T12782   3.119   2.270   7.235 -0.0969  0.7040  1.6065
  121OSM   C11S12783   2.970   2.365   7.364 -0.1417 -0.0738 -0.0446
  121OSM   H11S12784   2.870   2.343   7.320  0.1163  0.5139 -0.9162
  121OSM   H11T12785   2.952   2.457   7.424 -0.6787 -1.8121  2.5848
  121OSM   C12S12786   2.991   2.252   7.463 -0.1838 -0.3731  0.1787
  121OSM   H12S12787   3.008   2.160   7.403 -1.5128 -0.0963 -0.6380
  121OSM   H12T12788   2.899   2.236   7.524 -0.1651 -0.0410  0.2938
  121OSM   C13S12789   3.104   2.275   7.568  0.4551 -0.0894 -0.4730
  121OSM   H13S12790   3.106   2.379   7.609 -0.9397 -1.2873  2.8399
  121OSM   H13T12791   3.201   2.262   7.515  0.2614 -1.6006 -0.4590
  121OSM   C14S12792   3.095   2.194   7.694  1.1270  0.0742  0.0404
  121OSM   H14S12793   3.185   2.191   7.759  1.0459 -1.9831  0.0995
  121OSM   H14T12794   3.078   2.094   7.648 -0.9731  0.0749  0.7752
  121OSM   C15S12795   2.969   2.231   7.776  0.0343  0.4870 -0.1830
  121OSM   H15S12796   2.868   2.202   7.739  0.1222  0.7161 -0.6036
  121OSM   H15T12797   2.973   2.341   7.784 -2.0045  0.6502 -1.2652
  121OSM   C16S12798   2.983   2.162   7.911  0.6802 -0.4311 -0.6879
  121OSM   H16S12799   3.088   2.129   7.929  0.2615 -1.9194 -0.8824
  121OSM   H16T12800   2.936   2.063   7.893  2.3245 -1.4324  0.2712
  121OSM   C17S12801   2.925   2.233   8.027  0.1464 -0.4406  1.1630
  121OSM   H17S12802   2.817   2.245   8.007  0.1479 -0.3271  1.2242
  121OSM   H17T12803   2.972   2.333   8.030  1.5708 -1.0383 -0.0379
  121OSM   C18S12804   2.937   2.164   8.160 -0.6384  0.1097  0.2597
  121OSM   H18S12805   3.042   2.142   8.189 -1.7374 -1.3780  3.3267
  121OSM   H18T12806   2.882   2.068   8.156 -1.5038  0.5462  1.4472
  121OSM   H18U12807   2.889   2.220   8.244  0.3339  1.6764 -0.2010
  121OSM    C1F12808   3.346   2.070   6.446  0.9230  0.2368  0.9974
  121OSM     OF12809   3.394   2.146   6.361  0.0564  0.7060 -0.3350
  121OSM    C2F12810   3.437   1.965   6.509  0.5005  0.2940  0.1987
  121OSM    H2F12811   3.475   1.890   6.436  1.4106  3.7147 -2.9851
  121OSM    H2G12812   3.383   1.908   6.588 -0.0878  2.4598  1.4013
  121OSM    C3F12813   3.564   2.023   6.581 -0.0550  0.4252 -0.2742
  121OSM    H3F12814   3.616   2.074   6.496  0.9074 -0.7644 -0.4063
  121OSM    H3G12815   3.625   1.935   6.610 -0.6724 -0.4972 -1.7404
  121OSM    C4F12816   3.539   2.120   6.697  0.1706 -0.0451  0.5822
  121OSM    H4F12817   3.487   2.208   6.651 -1.7241 -1.5132 -0.1608
  121OSM    H4G12818   3.632   2.158   6.743  0.1490  0.2760  0.3682
  121OSM    C5F12819   3.446   2.075   6.809 -1.0328 -0.1443  0.7321
  121OSM    H5F12820   3.481   1.980   6.856  0.5909  0.1113  0.0890
  121OSM    H5G12821   3.342   2.053   6.777 -0.4062 -1.1407 -0.6485
  121OSM    C6F12822   3.454   2.168   6.925 -0.0238 -0.3019 -0.1930
  121OSM    H6F12823   3.449   2.276   6.898 -0.9888 -0.5064 -0.8524
  121OSM    H6G12824   3.555   2.168   6.971 -1.2564  2.4665  2.7183
  121OSM    C7F12825   3.349   2.121   7.029 -0.5890 -0.0722 -0.7447
  121OSM    H7F12826   3.266   2.089   6.963  0.3784 -0.8690 -1.5801
  121OSM    H7G12827   3.312   2.203   7.095  1.3871  1.9965 -2.1420
  121OSM    C8F12828   3.377   1.992   7.116  0.0489 -0.3900 -0.4401
  121OSM    H8F12829   3.342   1.905   7.055  1.1857 -1.1990  0.0542
  121OSM    H8G12830   3.298   1.997   7.194  1.5787  1.6150  1.0097
  121OSM    C9F12831   3.513   1.965   7.174 -0.2059  0.5078 -0.1516
  121OSM    H9F12832   3.590   1.930   7.103 -0.5926  0.0043 -0.3306
  121OSM   C10F12833   3.541   1.989   7.303 -0.7404  0.1667  0.0777
  121OSM   H10F12834   3.641   1.964   7.341 -0.3475 -0.4305 -1.3136
  121OSM   C11F12835   3.451   2.052   7.401 -0.1302  0.0959 -0.2305
  121OSM   H11F12836   3.356   1.996   7.415  0.4216 -0.5179  1.2207
  121OSM   H11G12837   3.437   2.157   7.368  2.0398 -0.3636 -2.8410
  121OSM   C12F12838   3.505   2.048   7.547  0.6529 -0.0368  0.4757
  121OSM   H12F12839   3.456   2.126   7.610 -0.9079 -0.9969  0.4775
  121OSM   H12G12840   3.614   2.070   7.545  0.9387 -1.2565  1.7683
  121OSM   C13F12841   3.504   1.910   7.607 -0.1446 -0.4209  0.5724
  121OSM   H13F12842   3.583   1.856   7.551  0.1388  0.7209 -0.1515
  121OSM   H13G12843   3.402   1.867   7.594 -0.1917 -0.0694 -0.1893
  121OSM   C14F12844   3.543   1.913   7.755 -0.1381 -0.0210  0.4585
  121OSM   H14F12845   3.623   1.985   7.782  1.2206 -1.0321 -0.7887
  121OSM   H14G12846   3.581   1.813   7.785 -0.0301 -0.2172 -0.3206
  121OSM   C15F12847   3.418   1.955   7.844  0.3016 -0.0262 -0.7899
  121OSM   H15F12848   3.328   1.903   7.806 -0.2505  1.0723 -0.9985
  121OSM   H15G12849   3.400   2.061   7.816  0.9740 -0.6167 -3.6598
  121OSM   C16F12850   3.442   1.923   7.992 -0.3747  0.2837  0.5559
  121OSM   H16F12851   3.366   1.971   8.057 -0.9441 -2.1812  1.7543
  121OSM   H16G12852   3.537   1.973   8.021 -1.0413  1.0019  1.5501
  121OSM   C17F12853   3.470   1.782   8.023 -0.2972  0.8030 -0.1350
  121OSM   H17F12854   3.572   1.752   7.992 -0.1558  0.7958  0.3310
  121OSM   H17G12855   3.408   1.714   7.961 -0.0738  2.2581 -2.0072
  121OSM   C18F12856   3.433   1.752   8.166  0.5133  0.6118 -0.0317
  121OSM   H18F12857   3.341   1.807   8.193  1.3733  1.6108  0.9232
  121OSM   H18G12858   3.515   1.783   8.235  2.5793 -1.5282 -1.4592
  121OSM   H18H12859   3.419   1.643   8.178 -2.1524  0.6167 -2.7041
  122OSM      N12860   2.153   3.983   5.941 -1.0444 -0.0634  0.5114
  122OSM    C1512861   2.198   3.931   5.808  0.6580 -0.3084 -0.3499
  122OSM   H15A12862   2.188   4.011   5.736  2.2088  0.9602  0.8119
  122OSM   H15B12863   2.131   3.851   5.779 -0.5955  0.3661  0.6253
  122OSM   H15C12864   2.299   3.893   5.808 -0.1282 -2.5179  1.7854
  122OSM    C1412865   2.019   4.043   5.919 -0.1894 -0.5030  0.2920
  122OSM   H14A12866   1.939   3.977   5.889  0.6373 -1.1820 -0.4549
  122OSM   H14B12867   2.038   4.107   5.834  0.0691  1.0558  1.4972
  122OSM   H14C12868   2.000   4.098   6.010  0.6662 -0.4674  0.4506
  122OSM    C1312869   2.151   3.869   6.032 -0.7324 -0.3949  0.9536
  122OSM   H13A12870   2.066   3.803   6.026 -0.8285 -0.0949 -1.5424
  122OSM   H13B12871   2.164   3.896   6.136  1.0980 -2.4309  1.3091
  122OSM   H13C12872   2.235   3.806   6.003 -1.5255 -1.5228  1.0621
  122OSM    C1212873   2.240   4.092   5.989  0.1399  0.3933 -0.2074
  122OSM   H12A12874   2.244   4.176   5.921 -1.1175  1.2293  0.7439
  122OSM   H12B12875   2.341   4.054   5.999 -0.0939  0.1627  1.4268
  122OSM    C1112876   2.209   4.154   6.131  0.5675  0.3985  1.0075
  122OSM   H11A12877   2.300   4.201   6.174  0.9476  0.9240 -0.3345
  122OSM   H11B12878   2.185   4.079   6.209 -0.2681 -3.0982 -2.4328
  122OSM      P12879   2.095   4.376   6.042 -0.0751  0.1431 -0.5615
  122OSM    O1312880   2.217   4.381   5.957  0.3234  0.5637 -0.0589
  122OSM    O1412881   1.965   4.383   5.970 -1.1088  0.7346  0.1565
  122OSM    O1112882   2.097   4.485   6.156 -0.0210  0.2612  0.1436
  122OSM    O1212883   2.100   4.243   6.127  0.2518  0.2794  0.0814
  122OSM    C1S12884   2.179   4.473   6.281 -0.6197  0.1847  0.9867
  122OSM    H1S12885   2.257   4.551   6.270 -0.5152 -0.0616 -0.1335
  122OSM    H1T12886   2.241   4.382   6.284 -1.1996 -0.2788 -0.5342
  122OSM     NF12887   2.218   4.472   6.518  0.3729 -0.2280  0.4003
  122OSM    HNF12888   2.215   4.380   6.556  1.0855 -0.7219 -0.7203
  122OSM    C2S12889   2.114   4.512   6.422  0.3783 -0.6006  0.9087
  122OSM    H2S12890   2.114   4.623   6.421  0.8077 -0.6051  0.2450
  122OSM    C3S12891   1.970   4.438   6.438  0.1466 -0.6539  0.3438
  122OSM    H3S12892   1.989   4.329   6.422  1.3063 -0.2801 -0.8974
  122OSM     O312893   1.882   4.474   6.333  0.5363  0.0602 -0.7439
  122OSM    HO312894   1.950   4.512   6.277  2.0639  1.1242  1.7502
  122OSM    C4S12895   1.911   4.467   6.567  0.0603 -0.1887  1.2344
  122OSM    H4S12896   1.884   4.572   6.584 -1.1616 -0.3964  0.5927
  122OSM    C5S12897   1.885   4.372   6.660 -0.1423 -0.0926  0.2259
  122OSM    H5S12898   1.933   4.274   6.646  3.7003  1.8539 -0.9428
  122OSM    C6S12899   1.836   4.389   6.803 -0.1279  0.4711  0.9352
  122OSM    H6S12900   1.849   4.290   6.852 -0.3425  0.0508  0.1419
  122OSM    H6T12901   1.731   4.425   6.796  0.3657  1.6540 -0.6952
  122OSM    C7S12902   1.914   4.500   6.864  0.2425  0.2288 -0.3024
  122OSM    H7S12903   1.903   4.595   6.807 -1.5300 -0.9473 -1.9914
  122OSM    H7T12904   2.019   4.468   6.876 -0.1298 -0.7798  0.2668
  122OSM    C8S12905   1.846   4.503   7.004  0.4076 -0.0556  0.6223
  122OSM    H8S12906   1.854   4.407   7.058  0.5462  0.1194  0.9180
  122OSM    H8T12907   1.738   4.518   6.982  0.7452 -0.5805 -1.4433
  122OSM    C9S12908   1.900   4.623   7.099 -0.2746 -0.1968 -0.4490
  122OSM    H9S12909   1.868   4.713   7.042  2.0673  0.4473 -0.8245
  122OSM    H9T12910   2.011   4.622   7.092 -0.3602  0.2824 -2.0819
  122OSM   C10S12911   1.836   4.637   7.239 -0.5951 -0.3419  0.5643
  122OSM   H10S12912   1.729   4.607   7.238 -0.3252 -1.3687  0.9263
  122OSM   H10T12913   1.849   4.743   7.267 -1.2826 -0.0470 -0.2276
  122OSM   C11S12914   1.899   4.544   7.345  0.2677  0.2117  0.4850
  122OSM   H11S12915   2.004   4.574   7.361  0.6205 -0.3725 -0.6368
  122OSM   H11T12916   1.898   4.439   7.307 -1.6749 -0.2226  1.6232
  122OSM   C12S12917   1.817   4.531   7.477 -0.4295 -0.8770  0.2114
  122OSM   H12S12918   1.726   4.474   7.448 -0.8323 -0.2791  0.2811
  122OSM   H12T12919   1.787   4.634   7.508 -1.3960 -1.1158  0.1038
  122OSM   C13S12920   1.888   4.466   7.588 -1.2600  0.9359 -0.1167
  122OSM   H13S12921   1.982   4.514   7.622 -0.6024  1.1485 -2.1497
  122OSM   H13T12922   1.904   4.362   7.551  0.0433  0.8574  0.6424
  122OSM   C14S12923   1.802   4.445   7.708 -0.0311 -0.4275  0.7145
  122OSM   H14S12924   1.713   4.378   7.703 -2.3164  2.6641 -1.8442
  122OSM   H14T12925   1.761   4.543   7.739 -0.4665 -0.8872  1.6130
  122OSM   C15S12926   1.877   4.394   7.831 -0.4005 -0.6406 -1.0283
  122OSM   H15S12927   1.936   4.486   7.853 -1.6660  0.1157 -0.7216
  122OSM   H15T12928   1.939   4.303   7.816 -0.6676 -0.8960 -0.5924
  122OSM   C16S12929   1.779   4.378   7.951  0.9128 -0.8192 -0.0500
  122OSM   H16S12930   1.824   4.318   8.033 -0.4229  0.6166  1.7972
  122OSM   H16T12931   1.698   4.307   7.924 -0.0574  0.7748 -1.4023
  122OSM   C17S12932   1.730   4.512   8.022 -0.1843  0.2519 -0.3188
  122OSM   H17S12933   1.677   4.591   7.964 -0.5391  0.7096  0.6208
  122OSM   H17T12934   1.818   4.564   8.064  0.3766  0.1704 -1.3709
  122OSM   C18S12935   1.644   4.489   8.139  0.0340  0.1618  0.5757
  122OSM   H18S12936   1.555   4.432   8.106 -0.0374  0.7421 -0.2571
  122OSM   H18T12937   1.602   4.580   8.187  3.2068  2.7445 -1.3292
  122OSM   H18U12938   1.696   4.418   8.206 -2.2886 -1.2961  0.8768
  122OSM    C1F12939   2.335   4.531   6.531 -0.3341 -0.1315 -0.8066
  122OSM     OF12940   2.351   4.652   6.505 -0.2648 -0.1581  0.8653
  122OSM    C2F12941   2.444   4.438   6.573  0.2508  0.1886  0.0401
  122OSM    H2F12942   2.462   4.371   6.487 -1.8925  0.6481 -0.8106
  122OSM    H2G12943   2.410   4.370   6.654  2.3727 -1.1283 -0.1417
  122OSM    C3F12944   2.571   4.517   6.612 -0.7987 -0.1603  0.7100
  122OSM    H3F12945   2.544   4.606   6.672 -2.2511 -1.8405  2.6229
  122OSM    H3G12946   2.628   4.540   6.520 -1.5685 -2.3132 -0.3444
  122OSM    C4F12947   2.659   4.439   6.706  0.2886  0.9684 -0.4671
  122OSM    H4F12948   2.745   4.505   6.729  1.9084 -1.1414 -0.3139
  122OSM    H4G12949   2.703   4.348   6.661  1.8079  1.6076 -0.3042
  122OSM    C5F12950   2.607   4.428   6.849  0.0591  0.1264 -0.5691
  122OSM    H5F12951   2.499   4.399   6.849  0.5160 -1.6130 -1.7378
  122OSM    H5G12952   2.605   4.526   6.902  0.0971  0.1774 -0.6635
  122OSM    C6F12953   2.685   4.334   6.935 -0.1444  0.0161  0.0447
  122OSM    H6F12954   2.793   4.361   6.940 -0.0071 -0.0017 -2.2866
  122OSM    H6G12955   2.688   4.230   6.894  0.8871  0.1579 -0.2525
  122OSM    C7F12956   2.629   4.333   7.080  0.0764 -0.1605 -0.5497
  122OSM    H7F12957   2.520   4.315   7.067 -0.1627  1.8836 -1.5690
  122OSM    H7G12958   2.638   4.438   7.114 -0.9285  0.5719 -2.4439
  122OSM    C8F12959   2.690   4.229   7.185  0.5857  0.1503  0.2175
  122OSM    H8F12960   2.774   4.189   7.125 -1.3397  0.5502 -2.8696
  122OSM    H8G12961   2.617   4.148   7.204  2.1240 -1.5346 -0.9329
  122OSM    C9F12962   2.728   4.298   7.311 -0.2618 -0.6037  0.2334
  122OSM    H9F12963   2.759   4.402   7.296 -0.3906 -0.7015 -0.7276
  122OSM   C10F12964   2.734   4.247   7.439 -0.4877  0.2254  0.3572
  122OSM   H10F12965   2.767   4.303   7.528  1.6552  1.5176 -1.2115
  122OSM   C11F12966   2.699   4.096   7.471  0.1269  0.3391 -0.3123
  122OSM   H11F12967   2.685   4.036   7.378 -1.1212  1.6407 -0.9938
  122OSM   H11G12968   2.601   4.092   7.523  0.4116  1.7170  0.3607
  122OSM   C12F12969   2.791   4.034   7.580 -0.5493  0.0645 -0.9656
  122OSM   H12F12970   2.898   4.042   7.554 -0.3365  1.0076  0.1438
  122OSM   H12G12971   2.763   3.928   7.596  2.0723 -0.5404 -0.1230
  122OSM   C13F12972   2.778   4.106   7.716  0.6651  0.8764 -0.8832
  122OSM   H13F12973   2.673   4.116   7.751  1.0392 -1.7740  1.1681
  122OSM   H13G12974   2.833   4.202   7.705  0.6301  1.4222  3.0334
  122OSM   C14F12975   2.844   4.023   7.826  1.4673 -0.0372  0.2921
  122OSM   H14F12976   2.953   4.032   7.807  1.7968  1.0279  2.5471
  122OSM   H14G12977   2.820   3.915   7.835  0.9159  0.1205  0.7408
  122OSM   C15F12978   2.837   4.074   7.970 -0.6868 -0.1030  0.3181
  122OSM   H15F12979   2.729   4.075   7.997 -0.6675 -1.4743  0.4692
  122OSM   H15G12980   2.878   4.176   7.986  2.4147 -1.0998 -0.9867
  122OSM   C16F12981   2.920   3.987   8.060  0.4513 -0.6475 -0.2903
  122OSM   H16F12982   3.022   3.972   8.020  0.0642 -1.2134 -1.0776
  122OSM   H16G12983   2.875   3.886   8.058  2.7150 -1.7016  0.4950
  122OSM   C17F12984   2.911   4.049   8.199  0.2208 -0.2110 -0.7795
  122OSM   H17F12985   2.806   4.045   8.236 -0.0730  1.1136 -1.4402
  122OSM   H17G12986   2.939   4.157   8.192  0.3249 -0.1973 -0.2215
  122OSM   C18F12987   2.999   3.977   8.303 -0.0065  0.3306  0.1294
  122OSM   H18F12988   3.106   3.963   8.276  0.0307 -1.7198  1.2656
  122OSM   H18G12989   2.966   3.871   8.308 -0.9451  0.6183  0.2916
  122OSM   H18H12990   3.005   4.031   8.400 -1.1713  0.4443  0.1514
  123OSM      N12991   0.072   0.011   6.489  0.0351 -0.3589 -0.4026
  123OSM    C1512992   0.027   0.038   6.343  0.1875 -0.1957 -0.1811
  123OSM   H15A12993   0.060  -0.031   6.267  3.3751 -0.7126  1.5535
  123OSM   H15B12994   0.062   0.138   6.320  0.5398 -0.4476 -0.7418
  123OSM   H15C12995  -0.079   0.030   6.329  0.5160 -2.3003 -1.6182
  123OSM    C1412996  -0.002   0.121   6.564 -0.5043  0.6555  0.4908
  123OSM   H14A12997  -0.003   0.215   6.511 -2.6184 -0.2817 -1.2204
  123OSM   H14B12998   0.035   0.141   6.664  1.7558 -0.7513 -0.0326
  123OSM   H14C12999  -0.109   0.101   6.570 -0.4104  0.0088  0.0731
  123OSM    C1313000   0.023  -0.123   6.540  0.1094 -0.4922  0.4651
  123OSM   H13A13001   0.092  -0.198   6.505  2.1757  2.2000 -1.4735
  123OSM   H13B13002  -0.078  -0.134   6.505  0.5433 -0.8447 -0.6956
  123OSM   H13C13003   0.032  -0.128   6.647 -0.2757  1.4389  0.5998
  123OSM    C1213004   0.223   0.012   6.515 -0.3730  0.0365 -0.0525
  123OSM   H12A13005   0.217  -0.033   6.613  0.9237 -1.0175 -0.4479
  123OSM   H12B13006   0.258   0.114   6.519 -1.8080  0.4819  2.3376
  123OSM    C1113007   0.311  -0.078   6.422  0.0992 -0.1522  0.7143
  123OSM   H11A13008   0.419  -0.056   6.438  0.3758 -0.3749 -0.8260
  123OSM   H11B13009   0.299  -0.059   6.313  0.1453  0.4080  0.8046
  123OSM      P13010   0.349  -0.276   6.590 -0.0343  0.4254  0.2265
  123OSM    O1313011   0.268  -0.399   6.615 -0.3782  0.3270  0.1375
  123OSM    O1413012   0.494  -0.283   6.575  0.2719 -0.0371  0.5289
  123OSM    O1113013   0.307  -0.173   6.704 -0.1587 -0.7162 -0.0556
  123OSM    O1213014   0.288  -0.211   6.460  0.1949  0.4298  0.4142
  123OSM    C1S13015   0.390  -0.182   6.822 -0.4273 -0.1085 -0.3033
  123OSM    H1S13016   0.491  -0.143   6.802 -0.9673  2.0746  1.0878
  123OSM    H1T13017   0.394  -0.285   6.865 -2.5752  0.2854  0.9558
  123OSM     NF13018   0.440  -0.048   7.034 -0.0322  0.0241 -0.3886
  123OSM    HNF13019   0.471  -0.111   7.104  0.2854 -0.9615 -1.3979
  123OSM    C2S13020   0.340  -0.093   6.937 -0.7119 -0.4642 -0.2334
  123OSM    H2S13021   0.301  -0.006   6.879 -1.3104  0.4190  1.4629
  123OSM    C3S13022   0.217  -0.166   6.998 -0.0028 -0.1488 -0.5060
  123OSM    H3S13023   0.259  -0.253   7.054 -1.1131 -0.1696  0.3173
  123OSM     O313024   0.125  -0.211   6.904  0.6096  0.5595  0.3350
  123OSM    HO313025   0.178  -0.190   6.826  1.4375  0.0063  0.7492
  123OSM    C4S13026   0.156  -0.074   7.104  0.3183 -0.6052 -0.1855
  123OSM    H4S13027   0.105   0.018   7.072  1.2592  0.2130  0.6426
  123OSM    C5S13028   0.140  -0.100   7.236 -0.1021 -0.4992 -0.9156
  123OSM    H5S13029   0.180  -0.198   7.268 -1.9914 -1.0620 -0.2061
  123OSM    C6S13030   0.093   0.002   7.344  0.3787  0.0067 -0.2036
  123OSM    H6S13031   0.161   0.088   7.362  1.1020 -1.1018  2.6418
  123OSM    H6T13032   0.081  -0.055   7.439 -2.4884 -1.3455 -1.3199
  123OSM    C7S13033  -0.047   0.059   7.303 -0.3727 -0.3221 -0.3790
  123OSM    H7S13034  -0.104  -0.013   7.241  2.2097 -1.1009 -1.9589
  123OSM    H7T13035  -0.037   0.147   7.236 -0.5652 -0.9294 -1.2127
  123OSM    C8S13036  -0.130   0.103   7.433  0.1790 -0.1821  0.0759
  123OSM    H8S13037  -0.158   0.018   7.498  0.0335 -0.8750 -0.8868
  123OSM    H8T13038  -0.222   0.139   7.384 -1.0242 -1.0734  1.6411
  123OSM    C9S13039  -0.063   0.210   7.520 -0.0824 -0.5337 -0.3696
  123OSM    H9S13040  -0.041   0.307   7.470  0.1065  0.7576  2.1498
  123OSM    H9T13041   0.027   0.167   7.569 -0.6377 -0.3175  0.8505
  123OSM   C10S13042  -0.150   0.254   7.637  0.1303 -0.6915  0.0874
  123OSM   H10S13043  -0.193   0.159   7.674 -0.1848  0.0312  1.6448
  123OSM   H10T13044  -0.236   0.321   7.617  0.2759 -0.6145 -0.2793
  123OSM   C11S13045  -0.062   0.320   7.746  0.0081  0.2057  0.0362
  123OSM   H11S13046  -0.039   0.425   7.719  0.4693  0.8094  2.6401
  123OSM   H11T13047   0.033   0.264   7.758 -0.1028  0.5360  3.0223
  123OSM   C12S13048  -0.128   0.326   7.886 -0.3529 -0.3501  0.2036
  123OSM   H12S13049  -0.219   0.390   7.891  0.3006  0.5495  0.6921
  123OSM   H12T13050  -0.052   0.367   7.955 -1.0611  1.3344  0.0003
  123OSM   C13S13051  -0.181   0.191   7.945 -0.0641  0.4750 -0.3032
  123OSM   H13S13052  -0.109   0.107   7.953 -0.0183  0.4599 -0.8518
  123OSM   H13T13053  -0.262   0.157   7.876 -0.4208  1.2729 -0.2841
  123OSM   C14S13054  -0.227   0.211   8.090  0.1610  0.0846 -0.1841
  123OSM   H14S13055  -0.270   0.307   8.126  3.9298  2.6190 -2.1800
  123OSM   H14T13056  -0.141   0.214   8.161 -1.4805  2.3894  1.8164
  123OSM   C15S13057  -0.328   0.102   8.126 -0.1685  0.1977  0.5624
  123OSM   H15S13058  -0.262   0.013   8.125  1.0830  1.1100 -1.6534
  123OSM   H15T13059  -0.403   0.095   8.045 -0.8488 -0.8664  1.2826
  123OSM   C16S13060  -0.380   0.118   8.271  0.4293  0.7864 -0.4009
  123OSM   H16S13061  -0.302   0.123   8.350 -2.0139  0.0338  2.1190
  123OSM   H16T13062  -0.422   0.018   8.295  0.6911  1.3184  2.4329
  123OSM   C17S13063  -0.502   0.206   8.274  0.4258 -0.3975  0.5738
  123OSM   H17S13064  -0.557   0.197   8.178  0.7521 -0.0715  0.3554
  123OSM   H17T13065  -0.478   0.314   8.287 -1.2476  0.1100 -0.4196
  123OSM   C18S13066  -0.605   0.174   8.384 -1.0394 -0.5836  0.4291
  123OSM   H18S13067  -0.703   0.225   8.374  0.7862  2.5619 -2.5780
  123OSM   H18T13068  -0.559   0.182   8.485 -1.2327  0.8994  0.4117
  123OSM   H18U13069  -0.621   0.064   8.375 -1.3933 -0.2759 -3.2755
  123OSM    C1F13070   0.524   0.048   7.006 -0.5063 -0.4961 -1.1907
  123OSM     OF13071   0.525   0.102   6.894  0.0291  0.9313 -0.1410
  123OSM    C2F13072   0.619   0.096   7.117  0.0630 -0.1384  0.7941
  123OSM    H2F13073   0.726   0.083   7.089  0.2219 -1.2112  1.8638
  123OSM    H2G13074   0.611   0.022   7.199  1.1816 -0.8217  0.3061
  123OSM    C3F13075   0.589   0.241   7.174  0.2266  0.3362 -0.3692
  123OSM    H3F13076   0.484   0.255   7.207  0.4917  0.0834  0.5868
  123OSM    H3G13077   0.602   0.308   7.086  2.4833 -0.4851 -0.7156
  123OSM    C4F13078   0.664   0.294   7.293 -0.3781  0.2438 -0.0206
  123OSM    H4F13079   0.655   0.404   7.306 -2.0281  0.0569  0.5502
  123OSM    H4G13080   0.773   0.280   7.273 -0.1053 -1.0414  2.2233
  123OSM    C5F13081   0.644   0.227   7.422  0.0302  0.7013  0.0686
  123OSM    H5F13082   0.694   0.279   7.506 -1.7837 -0.6684  2.0739
  123OSM    H5G13083   0.696   0.129   7.422 -1.6073 -0.2037  1.2673
  123OSM    C6F13084   0.500   0.208   7.464  0.7446 -0.9105 -0.0527
  123OSM    H6F13085   0.461   0.128   7.397  1.1005 -1.7874  0.7774
  123OSM    H6G13086   0.447   0.299   7.429  4.9843  1.5784 -0.3804
  123OSM    C7F13087   0.478   0.169   7.613  0.1450  0.3910  0.0451
  123OSM    H7F13088   0.523   0.250   7.675 -1.1102 -1.0734  2.9632
  123OSM    H7G13089   0.550   0.087   7.634  1.2094  1.5730  1.1792
  123OSM    C8F13090   0.328   0.151   7.649 -0.2554 -0.5315  0.1027
  123OSM    H8F13091   0.268   0.075   7.595  0.9585 -1.4080 -0.0392
  123OSM    H8G13092   0.273   0.236   7.604  0.0836 -0.4035 -0.0721
  123OSM    C9F13093   0.315   0.162   7.800 -0.5889 -0.2139  0.0132
  123OSM    H9F13094   0.361   0.254   7.839 -0.9859  1.4999 -3.3118
  123OSM   C10F13095   0.236   0.082   7.877 -0.1408 -0.2987 -0.3847
  123OSM   H10F13096   0.228   0.114   7.982 -0.9624  2.5979 -1.2724
  123OSM   C11F13097   0.155  -0.039   7.833 -0.7804  0.6029  0.3147
  123OSM   H11F13098   0.199  -0.082   7.741 -2.4330  1.6344 -0.9868
  123OSM   H11G13099   0.053  -0.001   7.811 -0.6601  0.3568 -0.6737
  123OSM   C12F13100   0.161  -0.151   7.939  0.3121 -0.7641 -0.8722
  123OSM   H12F13101   0.258  -0.169   7.990  0.2762  3.0500  0.7761
  123OSM   H12G13102   0.142  -0.249   7.890 -0.6125 -0.8197 -0.4183
  123OSM   C13F13103   0.040  -0.132   8.033  0.4335 -0.0977  0.0150
  123OSM   H13F13104  -0.049  -0.121   7.968 -0.8787  1.3990  2.0137
  123OSM   H13G13105   0.055  -0.032   8.078  0.6547 -0.2336  0.2424
  123OSM   C14F13106   0.013  -0.245   8.132 -0.6159 -0.7183 -0.4775
  123OSM   H14F13107   0.036  -0.340   8.081 -2.2575 -0.3470 -1.9651
  123OSM   H14G13108  -0.095  -0.247   8.156 -0.6454  1.4705 -0.3332
  123OSM   C15F13109   0.097  -0.234   8.265 -0.1633 -0.4080  0.2694
  123OSM   H15F13110   0.071  -0.135   8.309 -2.2887 -0.9401  0.2615
  123OSM   H15G13111   0.205  -0.233   8.237  0.0762  2.2751  1.1442
  123OSM   C16F13112   0.074  -0.351   8.367  0.4717  0.1605  0.7371
  123OSM   H16F13113   0.099  -0.448   8.319 -0.2033 -0.2314  1.1629
  123OSM   H16G13114  -0.037  -0.348   8.380  0.4514  1.1067  0.3527
  123OSM   C17F13115   0.142  -0.330   8.501  0.2423 -0.0863 -0.4105
  123OSM   H17F13116   0.247  -0.364   8.486  0.4544  0.1482  0.5295
  123OSM   H17G13117   0.093  -0.400   8.572  3.0922  0.5001  2.2379
  123OSM   C18F13118   0.135  -0.197   8.571  0.4798  0.5296  0.4538
  123OSM   H18F13119   0.028  -0.175   8.593  0.9698 -0.4874  4.2562
  123OSM   H18G13120   0.183  -0.113   8.517  0.1846  0.7521  0.5305
  123OSM   H18H13121   0.199  -0.203   8.662  2.3414 -2.7749 -1.0255
  124OSM      N13122   0.679   2.837   5.780  0.0894 -0.0418  0.4769
  124OSM    C1513123   0.815   2.781   5.750  0.0843  0.4358  0.3111
  124OSM   H15A13124   0.811   2.677   5.777 -0.4949  0.8914  2.0717
  124OSM   H15B13125   0.892   2.829   5.809  1.3594  0.4576 -1.3333
  124OSM   H15C13126   0.841   2.806   5.648 -1.7951  0.6766 -0.1307
  124OSM    C1413127   0.668   2.987   5.755 -0.6642 -0.0069 -0.2258
  124OSM   H14A13128   0.564   3.013   5.768 -1.1846 -2.4060  0.7228
  124OSM   H14B13129   0.700   3.004   5.654  0.0313  0.3584  0.0486
  124OSM   H14C13130   0.724   3.045   5.827 -2.9436 -0.1054  1.7015
  124OSM    C1313131   0.573   2.754   5.705 -0.7452  0.0818 -0.2604
  124OSM   H13A13132   0.471   2.781   5.727 -0.3509  0.2280  1.4784
  124OSM   H13B13133   0.582   2.647   5.722 -0.7135  0.5294  2.8211
  124OSM   H13C13134   0.578   2.782   5.601 -3.5440  0.5131 -0.3033
  124OSM    C1213135   0.641   2.807   5.923  0.1609  0.0826 -0.2906
  124OSM   H12A13136   0.598   2.708   5.923  2.6432 -1.0487 -2.2338
  124OSM   H12B13137   0.556   2.870   5.947 -1.0683 -1.8519  0.5135
  124OSM    C1113138   0.747   2.815   6.035  0.3341 -0.0624 -0.7951
  124OSM   H11A13139   0.816   2.730   6.021  0.4383  0.1680 -1.6663
  124OSM   H11B13140   0.702   2.809   6.137  0.7412  2.8906 -0.3992
  124OSM      P13141   0.969   2.961   6.045 -0.3731 -0.1930 -0.5183
  124OSM    O1313142   1.044   2.956   5.919 -0.0976  0.6383 -0.0234
  124OSM    O1413143   0.992   3.074   6.133  0.2404 -0.0021  0.3590
  124OSM    O1113144   1.006   2.829   6.126  0.2555  0.5248 -0.2754
  124OSM    O1213145   0.814   2.942   6.024 -0.1949 -0.5506 -0.1426
  124OSM    C1S13146   1.043   2.847   6.261  0.4688  0.0304  0.4098
  124OSM    H1S13147   0.972   2.911   6.317 -0.4227 -2.2688  2.0042
  124OSM    H1T13148   1.147   2.884   6.272 -0.7620  3.3508  1.4302
  124OSM     NF13149   1.061   2.751   6.480 -0.7121 -0.3184 -0.2931
  124OSM    HNF13150   1.149   2.728   6.521 -1.8344  0.1521  2.4930
  124OSM    C2S13151   1.024   2.716   6.344  0.0193  0.4301 -0.3066
  124OSM    H2S13152   0.917   2.686   6.350 -0.2552  0.9576 -2.2900
  124OSM    C3S13153   1.111   2.596   6.283  0.1172 -0.3967  0.1128
  124OSM    H3S13154   1.218   2.621   6.267  0.0579 -0.3775 -0.2662
  124OSM     O313155   1.061   2.565   6.149 -0.6974  0.4349  0.1189
  124OSM    HO313156   1.002   2.639   6.134 -2.0013 -0.8158 -1.1137
  124OSM    C4S13157   1.109   2.473   6.366  0.8604 -0.2610  0.1203
  124OSM    H4S13158   1.012   2.420   6.358  0.8230  0.0478 -1.7716
  124OSM    C5S13159   1.205   2.426   6.441 -1.1111 -0.1186 -0.1972
  124OSM    H5S13160   1.302   2.476   6.435 -1.4616  0.6424  0.4264
  124OSM    C6S13161   1.203   2.290   6.513 -0.2400  0.2508 -0.4729
  124OSM    H6S13162   1.265   2.216   6.459  0.8983 -0.2627  1.4649
  124OSM    H6T13163   1.104   2.244   6.535 -1.3944  2.8175 -0.0444
  124OSM    C7S13164   1.275   2.303   6.650 -0.0034  0.6453  0.7089
  124OSM    H7S13165   1.382   2.323   6.629 -0.0595  0.4646  0.2416
  124OSM    H7T13166   1.270   2.203   6.698 -3.6389  0.1734 -0.5230
  124OSM    C8S13167   1.232   2.415   6.737  0.0840 -0.0902 -0.9478
  124OSM    H8S13168   1.121   2.411   6.744  0.0869  0.8332 -0.2806
  124OSM    H8T13169   1.261   2.514   6.697 -1.5514  0.7779 -0.0534
  124OSM    C9S13170   1.278   2.401   6.880 -0.8795  0.0691 -0.4358
  124OSM    H9S13171   1.238   2.313   6.935 -0.1123  0.7969  1.3202
  124OSM    H9T13172   1.239   2.493   6.928  1.8835  1.2846 -0.4792
  124OSM   C10S13173   1.432   2.404   6.893 -0.5877  0.0862 -1.0278
  124OSM   H10S13174   1.458   2.470   6.808  0.7307  0.7565 -0.1272
  124OSM   H10T13175   1.465   2.302   6.863 -2.0105 -0.3815 -1.0300
  124OSM   C11S13176   1.504   2.454   7.023  0.6118  0.2003  0.0489
  124OSM   H11S13177   1.611   2.436   6.999  0.9811 -1.5201  2.7653
  124OSM   H11T13178   1.487   2.388   7.110  1.7454 -1.8714 -1.2525
  124OSM   C12S13179   1.472   2.598   7.060  0.1498  0.6415 -0.1916
  124OSM   H12S13180   1.364   2.609   7.082  0.4490  2.4487  0.4983
  124OSM   H12T13181   1.484   2.661   6.969  0.8180  0.2773 -0.3626
  124OSM   C13S13182   1.550   2.649   7.178  0.3774  0.1118  0.0604
  124OSM   H13S13183   1.531   2.595   7.273 -0.5493  1.1405  0.4724
  124OSM   H13T13184   1.518   2.755   7.188 -0.9618 -0.1658 -1.0990
  124OSM   C14S13185   1.705   2.648   7.167  0.2513  0.4774 -0.2384
  124OSM   H14S13186   1.730   2.720   7.085  4.1361  1.2792  1.5520
  124OSM   H14T13187   1.745   2.547   7.146  2.0743  0.7275  1.9466
  124OSM   C15S13188   1.774   2.700   7.298  0.1048  0.1012 -0.5048
  124OSM   H15S13189   1.731   2.632   7.374 -0.6606 -0.4187 -1.3875
  124OSM   H15T13190   1.732   2.802   7.312 -0.8520 -0.3861  0.2398
  124OSM   C16S13191   1.927   2.695   7.278 -0.7376  0.4382 -0.2803
  124OSM   H16S13192   1.944   2.760   7.189  0.4709 -0.2107 -0.5346
  124OSM   H16T13193   1.975   2.596   7.262  0.2227  0.6061  1.3793
  124OSM   C17S13194   2.014   2.755   7.395 -0.6795 -0.4027  0.0736
  124OSM   H17S13195   1.975   2.705   7.486  0.5504  0.2669  0.9818
  124OSM   H17T13196   1.979   2.860   7.398 -2.9660 -1.0084 -2.6663
  124OSM   C18S13197   2.169   2.742   7.379  1.2819 -0.0895 -0.0295
  124OSM   H18S13198   2.196   2.635   7.363  1.0408 -0.1699  0.1089
  124OSM   H18T13199   2.224   2.785   7.466 -0.6888  1.3571  0.5356
  124OSM   H18U13200   2.199   2.802   7.291 -2.5801 -0.6114 -1.7751
  124OSM    C1F13201   1.000   2.837   6.553 -0.3144 -0.2359  0.2628
  124OSM     OF13202   0.880   2.869   6.524 -0.3245  0.0242 -0.2532
  124OSM    C2F13203   1.072   2.907   6.660  0.1816 -0.4697 -0.3487
  124OSM    H2F13204   1.164   2.959   6.627 -0.7611  0.5345 -1.4159
  124OSM    H2G13205   1.102   2.821   6.724  4.0391  1.5509  0.7447
  124OSM    C3F13206   0.992   3.007   6.744  0.2169 -0.0109  0.5817
  124OSM    H3F13207   1.057   3.003   6.834 -0.1315 -3.7667  0.7447
  124OSM    H3G13208   0.890   2.971   6.768 -1.4097  1.3914 -3.6586
  124OSM    C4F13209   0.984   3.142   6.684  0.4007  0.0967 -0.2892
  124OSM    H4F13210   0.918   3.145   6.595  2.9053 -1.8757 -2.3137
  124OSM    H4G13211   1.083   3.173   6.646  0.2961  0.2604 -0.4259
  124OSM    C5F13212   0.933   3.243   6.785 -0.4223 -0.6125  0.3947
  124OSM    H5F13213   0.837   3.204   6.824 -0.9522 -1.1400 -1.4043
  124OSM    H5G13214   0.896   3.341   6.749  3.2255 -0.1810 -2.4773
  124OSM    C6F13215   1.017   3.248   6.915  0.3321 -0.2708  1.3659
  124OSM    H6F13216   1.116   3.290   6.887 -1.2461  1.8314 -1.3440
  124OSM    H6G13217   1.029   3.149   6.964  3.1187  0.0764  1.4318
  124OSM    C7F13218   0.951   3.351   7.017 -0.1540 -0.1867  0.1539
  124OSM    H7F13219   0.856   3.313   7.060 -0.3540  0.9781  0.7497
  124OSM    H7G13220   0.930   3.444   6.960 -0.4947 -0.9457 -0.9733
  124OSM    C8F13221   1.050   3.419   7.120  0.0694 -0.5321 -0.0487
  124OSM    H8F13222   1.004   3.510   7.166  0.2904 -1.2277  1.5768
  124OSM    H8G13223   1.132   3.463   7.059  0.6479  0.2944  1.3083
  124OSM    C9F13224   1.107   3.328   7.228  0.2713 -0.6934  0.1220
  124OSM    H9F13225   1.195   3.268   7.198  1.0115  0.5279 -0.2013
  124OSM   C10F13226   1.065   3.314   7.356  0.8021 -1.3621 -0.0335
  124OSM   H10F13227   1.122   3.242   7.417  0.1863  0.5010  2.8153
  124OSM   C11F13228   0.945   3.383   7.422 -0.3124 -0.5057  0.1080
  124OSM   H11F13229   0.871   3.305   7.449  0.6702 -1.7159 -0.6313
  124OSM   H11G13230   0.889   3.451   7.353  0.9727 -1.6075 -2.0963
  124OSM   C12F13231   0.993   3.466   7.542  0.2470  0.3670  0.2376
  124OSM   H12F13232   0.904   3.529   7.566 -0.5532 -0.4709 -0.4679
  124OSM   H12G13233   1.084   3.526   7.521  2.0014 -1.9430  1.0449
  124OSM   C13F13234   1.021   3.374   7.659 -1.0535 -0.0738  0.2831
  124OSM   H13F13235   1.103   3.306   7.628 -0.7823  0.0319  0.7780
  124OSM   H13G13236   0.934   3.305   7.673  0.5922 -2.0133  1.1658
  124OSM   C14F13237   1.074   3.455   7.782  0.3906 -1.0014 -0.2326
  124OSM   H14F13238   0.993   3.526   7.812  1.0217 -0.2193 -0.3531
  124OSM   H14G13239   1.149   3.526   7.741 -1.7638  0.9439 -0.9519
  124OSM   C15F13240   1.114   3.374   7.903  1.0097  0.9181 -0.1765
  124OSM   H15F13241   1.211   3.321   7.897  0.2088 -1.0523  3.0463
  124OSM   H15G13242   1.040   3.292   7.912  1.6772  0.2933 -0.3006
  124OSM   C16F13243   1.103   3.451   8.032  0.6379  0.1407 -0.0112
  124OSM   H16F13244   0.998   3.489   8.026  0.9462  1.0633  0.3412
  124OSM   H16G13245   1.168   3.541   8.031  0.0756  0.5446 -1.2423
  124OSM   C17F13246   1.126   3.376   8.155  0.4521 -0.0776  0.0305
  124OSM   H17F13247   1.225   3.325   8.146 -0.2436 -1.0862 -2.2309
  124OSM   H17G13248   1.056   3.290   8.161 -1.2834  1.1324 -2.3073
  124OSM   C18F13249   1.120   3.463   8.284 -0.5357  0.0826 -0.5663
  124OSM   H18F13250   1.134   3.384   8.362  3.0952 -1.3949 -2.6072
  124OSM   H18G13251   1.025   3.517   8.304  0.7716  2.4624 -0.7452
  124OSM   H18H13252   1.210   3.527   8.289 -0.1634 -0.4197 -0.7487
  125OSM      N13253   4.361   1.479   6.111  0.2211  0.7226  1.2398
  125OSM    C1513254   4.255   1.385   6.056  0.4083 -0.6314 -0.0812
  125OSM   H15A13255   4.295   1.320   5.979 -2.7366  0.0515 -2.4399
  125OSM   H15B13256   4.178   1.449   6.016  0.1312 -0.7352  0.2876
  125OSM   H15C13257   4.210   1.316   6.125  1.0875 -0.2236  0.7813
  125OSM    C1413258   4.443   1.392   6.201  0.0257  0.3754  0.4405
  125OSM   H14A13259   4.516   1.446   6.260  0.3867  1.6779 -1.1680
  125OSM   H14B13260   4.487   1.313   6.141  1.8283  1.3358  0.4514
  125OSM   H14C13261   4.376   1.338   6.267 -2.3945 -1.4620 -3.3258
  125OSM    C1313262   4.446   1.545   6.003 -0.2333 -1.2033 -0.2408
  125OSM   H13A13263   4.511   1.621   6.044  1.4216 -1.6146 -2.0334
  125OSM   H13B13264   4.383   1.589   5.927 -0.5124 -0.3928  0.4541
  125OSM   H13C13265   4.499   1.468   5.950 -0.1187 -1.2370 -0.0777
  125OSM    C1213266   4.285   1.576   6.205 -0.2154 -0.0739  0.8402
  125OSM   H12A13267   4.360   1.619   6.270 -0.2573  0.2398  0.6813
  125OSM   H12B13268   4.228   1.509   6.268 -1.3855 -1.4058 -1.5617
  125OSM    C1113269   4.196   1.686   6.137 -0.5792  0.1960 -0.0458
  125OSM   H11A13270   4.270   1.737   6.071  0.9746 -1.2336  0.5355
  125OSM   H11B13271   4.161   1.764   6.207 -2.5452  0.2390 -1.0558
  125OSM      P13272   3.964   1.584   6.155 -0.1112 -0.1257 -0.0697
  125OSM    O1313273   3.840   1.613   6.081  0.0013  0.0248 -0.0910
  125OSM    O1413274   3.991   1.445   6.204  1.1250 -0.4583 -0.2993
  125OSM    O1113275   3.959   1.675   6.282 -0.8168 -1.1550 -0.9775
  125OSM    O1213276   4.085   1.629   6.067 -0.1443 -0.8520  0.4845
  125OSM    C1S13277   3.920   1.612   6.406  0.1692  0.3159 -0.2658
  125OSM    H1S13278   3.973   1.516   6.426 -0.0148 -0.0595 -1.5170
  125OSM    H1T13279   3.811   1.591   6.416  0.4430 -0.6046  0.8056
  125OSM     NF13280   3.981   1.601   6.646 -0.2400 -0.0543  0.0912
  125OSM    HNF13281   3.921   1.617   6.724 -1.6363  0.0328 -0.9797
  125OSM    C2S13282   3.964   1.693   6.529 -0.7022 -0.1421  0.0269
  125OSM    H2S13283   4.065   1.738   6.525 -0.6952 -0.1936 -0.3400
  125OSM    C3S13284   3.865   1.815   6.546  0.1168  0.0274 -0.9793
  125OSM    H3S13285   3.762   1.773   6.555  0.0053  0.3579 -0.7128
  125OSM     O313286   3.872   1.899   6.430  0.2741 -0.1056  0.2023
  125OSM    HO313287   3.912   1.843   6.362 -0.0211  0.1958 -0.2210
  125OSM    C4S13288   3.898   1.894   6.677  0.3236  0.1620 -0.9612
  125OSM    H4S13289   3.845   1.850   6.762  4.1908 -0.4850  1.2159
  125OSM    C5S13290   3.976   2.002   6.693 -0.5691 -0.2114 -0.7500
  125OSM    H5S13291   4.028   2.048   6.608 -3.0633  0.5526 -1.9185
  125OSM    C6S13292   3.995   2.067   6.830  0.2606  0.1493 -0.5596
  125OSM    H6S13293   4.093   2.049   6.879  0.6328  0.7474 -1.0762
  125OSM    H6T13294   3.921   2.024   6.901  1.9002 -1.2604  0.3148
  125OSM    C7S13295   3.966   2.217   6.827 -0.4511  0.5391 -0.4581
  125OSM    H7S13296   3.862   2.239   6.796  0.3260  2.7552 -1.5524
  125OSM    H7T13297   4.037   2.267   6.758  1.7053  0.5123  1.6910
  125OSM    C8S13298   3.978   2.288   6.958  0.0682 -0.0756  0.5458
  125OSM    H8S13299   3.907   2.242   7.031 -0.1887  1.5912  1.3716
  125OSM    H8T13300   3.938   2.389   6.938  1.0999  0.3479  0.5841
  125OSM    C9S13301   4.123   2.306   7.015 -0.8209 -0.1740  0.2930
  125OSM    H9S13302   4.181   2.346   6.929 -0.0104 -2.1790 -0.1167
  125OSM    H9T13303   4.159   2.204   7.040 -0.0948  0.1552  0.6084
  125OSM   C10S13304   4.135   2.393   7.135  0.2573  0.0273 -0.7359
  125OSM   H10S13305   4.064   2.370   7.216  1.2443 -1.1138 -0.1679
  125OSM   H10T13306   4.115   2.498   7.106 -3.1665  0.0877  1.6573
  125OSM   C11S13307   4.277   2.385   7.196 -0.3563  0.7777 -0.6977
  125OSM   H11S13308   4.336   2.403   7.103 -2.4752  0.6434 -2.1231
  125OSM   H11T13309   4.279   2.278   7.228 -0.3775  0.7234 -0.8747
  125OSM   C12S13310   4.293   2.470   7.320 -0.7706 -0.3757  0.2140
  125OSM   H12S13311   4.396   2.486   7.359 -1.0460  1.9829  0.0538
  125OSM   H12T13312   4.241   2.425   7.407 -1.4037 -0.6602 -0.3134
  125OSM   C13S13313   4.231   2.612   7.300 -0.1604 -0.1546  0.3384
  125OSM   H13S13314   4.120   2.608   7.311 -0.2980  0.8007 -0.6060
  125OSM   H13T13315   4.259   2.655   7.202 -0.6400  1.4247  0.8818
  125OSM   C14S13316   4.272   2.725   7.403  0.5581 -0.0034  0.2410
  125OSM   H14S13317   4.232   2.826   7.378  0.1939  0.1135  1.2790
  125OSM   H14T13318   4.383   2.731   7.403  0.4810  1.9548  2.2558
  125OSM   C15S13319   4.224   2.677   7.541 -0.2258  0.5749  0.2050
  125OSM   H15S13320   4.270   2.581   7.573 -0.1755  0.4460 -0.2467
  125OSM   H15T13321   4.120   2.642   7.525 -0.1366 -0.3772  1.6207
  125OSM   C16S13322   4.245   2.789   7.645  0.0777 -0.0555  0.2534
  125OSM   H16S13323   4.236   2.888   7.595  1.2600 -1.1715 -2.2351
  125OSM   H16T13324   4.346   2.798   7.691  0.9320  1.2704 -1.8267
  125OSM   C17S13325   4.136   2.783   7.754  0.2317 -0.1318  0.0905
  125OSM   H17S13326   4.081   2.688   7.736  2.0710 -0.7540 -2.5486
  125OSM   H17T13327   4.067   2.868   7.733  0.8883  0.6091  0.9208
  125OSM   C18S13328   4.190   2.771   7.897  0.7949  0.7373 -0.5233
  125OSM   H18S13329   4.108   2.752   7.969 -0.5881 -0.2675 -2.3361
  125OSM   H18T13330   4.249   2.862   7.921 -0.4457  1.4880 -0.3446
  125OSM   H18U13331   4.260   2.685   7.908 -0.2749  0.0074  0.6838
  125OSM    C1F13332   4.076   1.512   6.667 -0.2096  0.5711  0.1388
  125OSM     OF13333   4.165   1.482   6.582  0.3533  0.6213 -0.3136
  125OSM    C2F13334   4.057   1.437   6.800 -0.1185  0.3487  1.0821
  125OSM    H2F13335   3.955   1.395   6.792  0.7284 -1.4531 -0.6920
  125OSM    H2G13336   4.079   1.510   6.881  2.0164 -0.4104  1.2183
  125OSM    C3F13337   4.145   1.316   6.827 -0.1342 -0.3370 -0.1246
  125OSM    H3F13338   4.248   1.346   6.799  0.1164 -0.4417  0.6607
  125OSM    H3G13339   4.129   1.237   6.752 -1.5396  0.3189 -0.5382
  125OSM    C4F13340   4.148   1.255   6.974 -0.3017  0.5748  0.6212
  125OSM    H4F13341   4.196   1.155   6.981 -4.4264 -1.5171  0.6147
  125OSM    H4G13342   4.048   1.244   7.021 -0.1400 -0.7965  0.6745
  125OSM    C5F13343   4.231   1.359   7.051  0.2802 -0.2041  0.0033
  125OSM    H5F13344   4.184   1.460   7.055  0.2152 -0.2303 -0.0917
  125OSM    H5G13345   4.328   1.374   7.000 -0.9350  1.7415 -1.8190
  125OSM    C6F13346   4.257   1.319   7.199 -0.4410  0.4921 -0.3679
  125OSM    H6F13347   4.341   1.377   7.243  0.7143 -2.3149  1.2665
  125OSM    H6G13348   4.288   1.212   7.202 -2.4941 -0.1589 -1.6873
  125OSM    C7F13349   4.136   1.340   7.294 -0.2534  0.0620 -0.3793
  125OSM    H7F13350   4.057   1.278   7.246  0.3915 -2.3006  1.5150
  125OSM    H7G13351   4.104   1.444   7.274  0.0059  0.0802 -0.7205
  125OSM    C8F13352   4.160   1.306   7.445  0.0113 -0.0455 -0.0846
  125OSM    H8F13353   4.229   1.220   7.447 -0.3780 -0.3467  0.6250
  125OSM    H8G13354   4.062   1.276   7.489  0.2618 -1.8813 -0.7462
  125OSM    C9F13355   4.222   1.411   7.538  0.0377 -0.3766  0.2406
  125OSM    H9F13356   4.299   1.466   7.481  0.3701 -1.8806 -0.7766
  125OSM   C10F13357   4.176   1.425   7.666 -0.1023 -0.2130  0.1367
  125OSM   H10F13358   4.232   1.499   7.727 -1.2360 -0.5062  1.5617
  125OSM   C11F13359   4.067   1.357   7.744  0.1710 -0.2832  0.4097
  125OSM   H11F13360   4.109   1.263   7.783  2.4505 -0.7257 -2.8843
  125OSM   H11G13361   3.975   1.330   7.687  1.3734  1.0045 -2.2306
  125OSM   C12F13362   4.011   1.445   7.862  0.6739  0.2371  0.3178
  125OSM   H12F13363   3.943   1.519   7.815 -1.4598 -0.8261  1.6151
  125OSM   H12G13364   4.093   1.495   7.918 -0.3909  2.0696  0.2819
  125OSM   C13F13365   3.925   1.372   7.967 -1.5104  0.7182  0.0712
  125OSM   H13F13366   3.985   1.292   8.016  0.7970  2.7940  0.7913
  125OSM   H13G13367   3.837   1.321   7.924 -0.4794 -0.5361 -0.5663
  125OSM   C14F13368   3.898   1.477   8.068 -0.1112  0.5906 -0.7371
  125OSM   H14F13369   3.866   1.572   8.020 -0.1936  1.2533  0.6178
  125OSM   H14G13370   3.996   1.491   8.118 -0.8585 -2.0319  1.5762
  125OSM   C15F13371   3.785   1.454   8.170 -0.4968 -0.0363  0.0799
  125OSM   H15F13372   3.826   1.368   8.228 -0.7955  1.0705  1.9759
  125OSM   H15G13373   3.686   1.431   8.125 -0.8345  1.5146  0.0200
  125OSM   C16F13374   3.772   1.569   8.268  0.2121 -0.2843 -0.4942
  125OSM   H16F13375   3.733   1.650   8.204  1.6238 -0.3198 -1.4250
  125OSM   H16G13376   3.872   1.600   8.307 -0.8263  2.1394  0.3525
  125OSM   C17F13377   3.673   1.545   8.383  0.6526  0.2170  0.6829
  125OSM   H17F13378   3.579   1.508   8.337 -0.4121  2.0107  1.3836
  125OSM   H17G13379   3.650   1.639   8.437 -1.1572  0.5058 -0.5578
  125OSM   C18F13380   3.725   1.442   8.486  0.1141  0.9705  0.2407
  125OSM   H18F13381   3.822   1.474   8.530 -0.3696  0.7728  1.4668
  125OSM   H18G13382   3.731   1.344   8.433 -0.5203 -0.2349  2.3505
  125OSM   H18H13383   3.650   1.422   8.566  0.2236  1.6840  0.5226
  126OSM      N13384   1.279   5.875   6.416  0.0010  0.5839  0.3687
  126OSM    C1513385   1.360   5.998   6.420 -0.1090  0.1472  0.6852
  126OSM   H15A13386   1.386   6.015   6.523 -1.1440  1.1357  0.7890
  126OSM   H15B13387   1.304   6.079   6.376 -1.0637 -1.3041 -0.8365
  126OSM   H15C13388   1.454   5.985   6.368 -0.2040 -0.6635  0.6994
  126OSM    C1413389   1.259   5.837   6.273  0.1485  0.3056 -0.0391
  126OSM   H14A13390   1.353   5.826   6.221  0.1708 -1.2588  0.3003
  126OSM   H14B13391   1.197   5.907   6.220 -0.4298 -1.0455 -1.2093
  126OSM   H14C13392   1.206   5.742   6.275  3.3112 -1.4993  1.4972
  126OSM    C1313393   1.351   5.767   6.493  0.0732  0.4046  0.3680
  126OSM   H13A13394   1.385   5.794   6.591 -0.7777 -0.2152  0.8363
  126OSM   H13B13395   1.441   5.745   6.437 -0.1126  2.1318 -0.6721
  126OSM   H13C13396   1.300   5.672   6.497  0.3622  0.2576  0.6039
  126OSM    C1213397   1.144   5.903   6.478 -0.9158  0.3386 -0.0772
  126OSM   H12A13398   1.074   5.822   6.462 -1.4314  0.9225 -0.8324
  126OSM   H12B13399   1.090   5.981   6.427 -0.5791 -0.0530 -1.0289
  126OSM    C1113400   1.135   5.943   6.630 -0.1436 -0.3842  0.1876
  126OSM   H11A13401   1.195   5.877   6.696 -0.9939 -1.2050  0.1561
  126OSM   H11B13402   1.028   5.924   6.654 -0.6829 -0.9232 -2.5551
  126OSM      P13403   1.092   6.202   6.578 -0.4624 -0.1712  0.0263
  126OSM    O1313404   1.193   6.285   6.511 -0.2413  0.4216 -0.2572
  126OSM    O1413405   0.980   6.150   6.495  0.2198 -0.5219 -0.5292
  126OSM    O1113406   1.035   6.280   6.696  0.0346 -1.1774  0.6122
  126OSM    O1213407   1.168   6.082   6.647  0.0582  0.3964  0.2396
  126OSM    C1S13408   0.929   6.216   6.775  0.3816 -0.1876  0.3551
  126OSM    H1S13409   0.878   6.131   6.726 -2.5185  2.2453 -0.9805
  126OSM    H1T13410   0.853   6.295   6.787  3.0388  2.4593  0.4002
  126OSM     NF13411   0.861   6.140   7.007  0.4513  0.4126 -0.2205
  126OSM    HNF13412   0.824   6.180   7.090 -1.5121  3.2889 -2.3686
  126OSM    C2S13413   0.972   6.201   6.931  0.2264 -0.2457  0.1252
  126OSM    H2S13414   1.057   6.129   6.928 -1.2239 -2.0702  1.5354
  126OSM    C3S13415   1.021   6.344   6.986  0.0990  0.3555  0.1023
  126OSM    H3S13416   0.940   6.419   6.975  0.5191  0.5701 -1.7179
  126OSM     O313417   1.136   6.386   6.913  0.0182 -0.1127  0.0038
  126OSM    HO313418   1.114   6.351   6.826 -0.3519  0.5867 -0.1862
  126OSM    C4S13419   1.070   6.325   7.131  0.4481 -0.0365  0.0518
  126OSM    H4S13420   1.169   6.281   7.151 -0.0113 -0.3458  1.6745
  126OSM    C5S13421   1.000   6.363   7.246 -0.0007  0.0315 -0.3264
  126OSM    H5S13422   0.900   6.409   7.240  0.6633  1.4030 -1.1675
  126OSM    C6S13423   1.055   6.335   7.386  0.8702 -0.2193 -0.8695
  126OSM    H6S13424   1.074   6.433   7.434  0.8347 -1.3224  1.4349
  126OSM    H6T13425   1.150   6.279   7.388  0.0814 -1.6053 -1.2134
  126OSM    C7S13426   0.960   6.256   7.477  0.9041 -0.5962 -0.6385
  126OSM    H7S13427   0.975   6.147   7.460  0.1739 -0.8929  0.5135
  126OSM    H7T13428   0.850   6.271   7.473  1.1534  1.0965 -1.7900
  126OSM    C8S13429   0.985   6.290   7.627  0.3812  0.2611 -0.2681
  126OSM    H8S13430   0.951   6.394   7.650  2.0535  0.5767  0.8838
  126OSM    H8T13431   1.094   6.292   7.651  0.0620  1.4404  1.1066
  126OSM    C9S13432   0.897   6.204   7.720 -0.0922 -0.7166  0.6738
  126OSM    H9S13433   0.947   6.106   7.735  0.3062 -0.5311  0.5370
  126OSM    H9T13434   0.801   6.190   7.665 -0.1013  0.0666  0.4857
  126OSM   C10S13435   0.868   6.264   7.858 -0.3876  0.2142 -0.2345
  126OSM   H10S13436   0.796   6.191   7.901 -0.1031  0.4810  0.7073
  126OSM   H10T13437   0.811   6.359   7.847 -0.8940  0.1245  1.4668
  126OSM   C11S13438   0.996   6.276   7.946 -0.0867  0.1765  0.0118
  126OSM   H11S13439   1.049   6.366   7.908 -2.5042  0.8560 -1.8997
  126OSM   H11T13440   1.061   6.186   7.937 -0.8692 -0.4401  0.4796
  126OSM   C12S13441   0.971   6.289   8.098  0.1812  0.1017  0.3166
  126OSM   H12S13442   1.070   6.270   8.145 -0.1021 -2.4803 -0.0304
  126OSM   H12T13443   0.897   6.208   8.119  2.7163 -2.0200  1.3594
  126OSM   C13S13444   0.900   6.418   8.134 -0.7285  0.4868  0.4305
  126OSM   H13S13445   0.815   6.427   8.063 -1.0663 -0.9687  0.6214
  126OSM   H13T13446   0.962   6.505   8.104 -1.5335  2.2618  3.7259
  126OSM   C14S13447   0.852   6.418   8.282 -0.5813  0.4035  0.2640
  126OSM   H14S13448   0.942   6.432   8.347 -0.6811 -0.6139  0.6268
  126OSM   H14T13449   0.805   6.320   8.302 -0.5998  0.5014  0.7061
  126OSM   C15S13450   0.740   6.524   8.310  0.8932 -0.5878 -0.5637
  126OSM   H15S13451   0.662   6.479   8.247  1.2103 -1.4888 -0.3174
  126OSM   H15T13452   0.770   6.624   8.271  2.3853 -0.8700 -0.2071
  126OSM   C16S13453   0.689   6.541   8.456 -0.5266 -0.3629  1.0789
  126OSM   H16S13454   0.773   6.591   8.510 -2.7781  0.2403  4.1383
  126OSM   H16T13455   0.671   6.440   8.498 -1.1821 -0.6103  0.2152
  126OSM   C17S13456   0.563   6.621   8.464  0.0361  0.2310 -0.5455
  126OSM   H17S13457   0.522   6.633   8.566 -2.2395 -0.1241 -1.3981
  126OSM   H17T13458   0.479   6.570   8.413  0.5105 -1.5046  0.3994
  126OSM   C18S13459   0.576   6.766   8.407 -0.9461 -0.8489 -0.1072
  126OSM   H18S13460   0.471   6.802   8.416 -1.4865 -2.6562  1.0696
  126OSM   H18T13461   0.605   6.761   8.300  0.1892 -0.8497  0.2006
  126OSM   H18U13462   0.638   6.827   8.476 -2.5315 -0.3768  0.9474
  126OSM    C1F13463   0.818   6.012   6.984 -0.7970 -0.4927  0.5061
  126OSM     OF13464   0.865   5.942   6.894 -0.1193 -0.3932  0.1423
  126OSM    C2F13465   0.702   5.968   7.065 -1.1542  0.3363  0.2783
  126OSM    H2F13466   0.630   5.932   6.989 -1.7843  2.4337 -0.1452
  126OSM    H2G13467   0.651   6.050   7.119 -0.6391 -0.4557  2.0127
  126OSM    C3F13468   0.740   5.850   7.162 -0.6050  0.3233  0.6810
  126OSM    H3F13469   0.791   5.765   7.112  0.6410  1.5485 -0.1419
  126OSM    H3G13470   0.640   5.816   7.197 -0.5854  1.1478  1.5272
  126OSM    C4F13471   0.828   5.882   7.282  0.5770 -0.2864 -0.0956
  126OSM    H4F13472   0.789   5.974   7.330 -4.2077 -1.7603 -0.9066
  126OSM    H4G13473   0.935   5.903   7.260  0.1171  0.3910 -1.8037
  126OSM    C5F13474   0.826   5.766   7.386  0.4645 -0.7410 -0.5245
  126OSM    H5F13475   0.890   5.682   7.352 -0.6578 -1.6540 -0.4349
  126OSM    H5G13476   0.726   5.720   7.371 -0.0034  1.0605 -3.2834
  126OSM    C6F13477   0.864   5.821   7.524 -0.1514 -0.1196 -0.4649
  126OSM    H6F13478   0.777   5.868   7.575  0.1937 -1.0959  1.0555
  126OSM    H6G13479   0.947   5.895   7.513 -0.3360 -0.0616 -1.5005
  126OSM    C7F13480   0.914   5.709   7.617 -0.5160  0.0514  0.3964
  126OSM    H7F13481   1.007   5.681   7.563 -0.5565  1.4200 -0.4235
  126OSM    H7G13482   0.851   5.619   7.602  0.8717 -0.4387 -2.9429
  126OSM    C8F13483   0.925   5.740   7.765 -0.2097  1.0097  0.2302
  126OSM    H8F13484   0.971   5.841   7.774 -0.8311  1.3339 -0.1677
  126OSM    H8G13485   0.992   5.677   7.827 -1.7154  1.0095  1.9034
  126OSM    C9F13486   0.787   5.728   7.829 -0.3067 -0.4230 -0.3194
  126OSM    H9F13487   0.705   5.688   7.769  1.4636 -0.8934 -2.4884
  126OSM   C10F13488   0.758   5.788   7.947 -0.3116 -0.0778 -0.5405
  126OSM   H10F13489   0.653   5.784   7.978 -0.1488 -1.6334 -0.1237
  126OSM   C11F13490   0.851   5.875   8.027 -0.0496  0.8308 -0.2814
  126OSM   H11F13491   0.820   5.982   8.037 -1.1026  0.1744  4.9549
  126OSM   H11G13492   0.952   5.864   7.983 -0.1170  0.1563 -0.2609
  126OSM   C12F13493   0.864   5.827   8.167  0.6868 -0.0054  0.1214
  126OSM   H12F13494   0.949   5.880   8.216  1.4035 -1.6187  0.6529
  126OSM   H12G13495   0.901   5.723   8.180  0.4394  0.0812  1.5756
  126OSM   C13F13496   0.735   5.842   8.256 -0.2607  0.2172 -0.7040
  126OSM   H13F13497   0.674   5.751   8.238  1.1114 -0.4835 -1.8874
  126OSM   H13G13498   0.687   5.931   8.211 -1.3862  0.2808  0.5986
  126OSM   C14F13499   0.768   5.882   8.400 -0.5521 -0.0885  0.3985
  126OSM   H14F13500   0.809   5.801   8.464 -1.3691 -0.1092  0.8979
  126OSM   H14G13501   0.666   5.899   8.441 -0.9351  0.9595 -0.9385
  126OSM   C15F13502   0.842   6.016   8.402  0.8823 -0.1823  0.3105
  126OSM   H15F13503   0.813   6.072   8.311  0.4262 -1.3139 -0.2515
  126OSM   H15G13504   0.951   5.992   8.406  0.9385 -0.5631 -2.5919
  126OSM   C16F13505   0.809   6.109   8.514 -0.1510 -0.1806 -0.2576
  126OSM   H16F13506   0.699   6.123   8.515 -0.6028 -3.3894  0.1340
  126OSM   H16G13507   0.854   6.209   8.494  0.0291 -0.4465 -1.2541
  126OSM   C17F13508   0.828   6.052   8.664  0.1806  0.2270 -0.0614
  126OSM   H17F13509   0.813   5.943   8.677 -1.3207  0.4489  0.1446
  126OSM   H17G13510   0.752   6.110   8.722 -0.9472 -1.8339  0.5527
  126OSM   C18F13511   0.962   6.096   8.727 -0.1948  0.0792 -0.1067
  126OSM   H18F13512   1.048   6.050   8.674  1.1930  0.9485  1.3567
  126OSM   H18G13513   0.970   6.081   8.837  3.0430  2.5006  0.0636
  126OSM   H18H13514   0.969   6.207   8.727 -0.7392  0.1187  0.6702
  127OSM      N13515   5.925   6.521   6.196  0.3909  0.2905 -0.0742
  127OSM    C1513516   5.992   6.429   6.098  0.4051 -0.0434 -0.2281
  127OSM   H15A13517   5.953   6.440   5.998 -0.3369 -1.2581 -0.0844
  127OSM   H15B13518   5.988   6.323   6.122  3.1048  0.4969  2.9637
  127OSM   H15C13519   6.095   6.458   6.087  0.5002  0.3428  1.5270
  127OSM    C1413520   5.777   6.495   6.209 -0.1840 -0.1290  0.2311
  127OSM   H14A13521   5.762   6.390   6.228  0.7503  0.0682  2.0926
  127OSM   H14B13522   5.729   6.524   6.116 -0.2405 -1.5656 -0.2079
  127OSM   H14C13523   5.731   6.558   6.283  0.9906  0.3377  0.5788
  127OSM    C1313524   5.974   6.499   6.336  0.2910  0.3649 -0.1605
  127OSM   H13A13525   6.081   6.484   6.336  0.2167 -0.1860 -0.7813
  127OSM   H13B13526   5.932   6.409   6.378 -1.1536  2.4248  3.0021
  127OSM   H13C13527   5.947   6.577   6.406 -1.7030 -1.2657  0.9423
  127OSM    C1213528   5.949   6.671   6.166  0.2847 -0.1454  0.0841
  127OSM   H12A13529   5.894   6.736   6.232 -1.4668 -1.4604 -0.0442
  127OSM   H12B13530   5.911   6.704   6.070  1.4084 -1.7989 -0.9585
  127OSM    C1113531   6.095   6.721   6.168 -0.1900 -0.3991 -0.3428
  127OSM   H11A13532   6.148   6.660   6.092 -5.0103 -2.1761 -2.4530
  127OSM   H11B13533   6.139   6.701   6.268 -2.0705 -0.0193  0.5849
  127OSM      P13534   6.226   6.943   6.152  0.0414  0.1295 -0.0720
  127OSM    O1313535   6.338   6.839   6.164 -0.0319 -0.3130 -0.0658
  127OSM    O1413536   6.222   7.027   6.038  0.5037 -0.2099 -0.1233
  127OSM    O1113537   6.217   7.036   6.284 -0.2286  0.1627  0.0891
  127OSM    O1213538   6.087   6.863   6.139 -0.1429  0.0083  0.0353
  127OSM    C1S13539   6.239   6.973   6.414 -0.3331 -0.0082  0.2918
  127OSM    H1S13540   6.297   6.878   6.412  1.3050  0.9308  1.8845
  127OSM    H1T13541   6.142   6.939   6.456 -1.7283  1.9037 -1.2920
  127OSM     NF13542   6.323   6.996   6.648  0.1070  0.2963 -0.3932
  127OSM    HNF13543   6.242   6.991   6.706 -0.1896  1.1576 -0.7159
  127OSM    C2S13544   6.301   7.070   6.523  0.3283  0.5523  0.7710
  127OSM    H2S13545   6.398   7.113   6.490  0.0617 -0.8060 -1.9556
  127OSM    C3S13546   6.215   7.197   6.532  0.0445  0.3336 -0.4563
  127OSM    H3S13547   6.109   7.171   6.555  0.6825 -1.5879  0.4006
  127OSM     O313548   6.197   7.260   6.405  0.2762 -0.1681  0.1776
  127OSM    HO313549   6.215   7.194   6.337 -0.3722  1.8501 -2.0528
  127OSM    C4S13550   6.274   7.297   6.622 -0.1124  0.2295  0.1269
  127OSM    H4S13551   6.371   7.342   6.596  0.9726 -1.2319  1.5198
  127OSM    C5S13552   6.221   7.327   6.742 -0.2981 -0.7861 -0.8952
  127OSM    H5S13553   6.135   7.273   6.783 -0.4833  0.6254  0.6154
  127OSM    C6S13554   6.289   7.419   6.841  0.0217  0.0934  0.3220
  127OSM    H6S13555   6.398   7.404   6.855 -0.1278  0.4593  2.0171
  127OSM    H6T13556   6.235   7.400   6.936  1.1979  1.2111  1.2393
  127OSM    C7S13557   6.278   7.567   6.789 -0.4308  0.0413  0.4504
  127OSM    H7S13558   6.172   7.599   6.778 -0.6684 -0.2434  1.7857
  127OSM    H7T13559   6.328   7.573   6.690 -0.7878 -0.3051  0.2468
  127OSM    C8S13560   6.355   7.657   6.890 -0.5985 -1.3310 -1.0490
  127OSM    H8S13561   6.358   7.765   6.863  1.0864 -1.0775  0.0627
  127OSM    H8T13562   6.459   7.620   6.904  0.1756  1.3661  0.6701
  127OSM    C9S13563   6.293   7.662   7.027 -0.2731 -0.3701  0.2896
  127OSM    H9S13564   6.285   7.559   7.069 -2.4226  0.0818  1.0225
  127OSM    H9T13565   6.188   7.697   7.027  0.2160  1.1348 -1.5253
  127OSM   C10S13566   6.382   7.743   7.122 -0.0137 -0.3317  0.0035
  127OSM   H10S13567   6.372   7.843   7.075  2.0745  0.9610  2.2265
  127OSM   H10T13568   6.485   7.705   7.103  0.2997  0.0590  0.9146
  127OSM   C11S13569   6.347   7.743   7.273 -0.0323  0.2074  0.1305
  127OSM   H11S13570   6.376   7.641   7.307  2.2589  1.0832  0.9369
  127OSM   H11T13571   6.237   7.742   7.286  0.1682 -1.3948  1.9082
  127OSM   C12S13572   6.410   7.866   7.345  0.2798 -0.3525  0.2972
  127OSM   H12S13573   6.374   7.962   7.301 -0.2019 -1.0796 -0.9363
  127OSM   H12T13574   6.513   7.853   7.307 -0.1080 -0.7548 -0.6584
  127OSM   C13S13575   6.409   7.855   7.497  0.7157  0.0159  0.1614
  127OSM   H13S13576   6.460   7.945   7.537  1.7849 -0.3735 -0.3207
  127OSM   H13T13577   6.479   7.771   7.517 -2.4123 -2.3911  1.4358
  127OSM   C14S13578   6.272   7.849   7.563  0.5651  0.4030  0.1052
  127OSM   H14S13579   6.211   7.757   7.560 -0.5420  1.0863  1.0405
  127OSM   H14T13580   6.215   7.935   7.519  1.8776  1.3164  0.1674
  127OSM   C15S13581   6.294   7.884   7.709 -0.6914  0.0184 -0.4333
  127OSM   H15S13582   6.350   7.979   7.724 -0.5594 -0.0585 -0.4277
  127OSM   H15T13583   6.357   7.801   7.749  2.1675  1.6839 -1.2873
  127OSM   C16S13584   6.167   7.893   7.791 -0.1094 -0.5256 -0.3632
  127OSM   H16S13585   6.124   7.792   7.775  0.1933 -0.7870  0.4337
  127OSM   H16T13586   6.091   7.969   7.765  1.0777  0.4276 -1.1612
  127OSM   C17S13587   6.186   7.909   7.946 -0.5164  0.7546  0.3590
  127OSM   H17S13588   6.085   7.939   7.980 -0.1643  3.8887 -1.1773
  127OSM   H17T13589   6.251   7.997   7.964  0.2564  0.1538  0.5732
  127OSM   C18S13590   6.243   7.792   8.021 -0.0985  0.4836 -0.0691
  127OSM   H18S13591   6.354   7.784   8.018  0.0345  2.1478  0.2673
  127OSM   H18T13592   6.199   7.702   7.972 -1.5057  0.7677  0.6565
  127OSM   H18U13593   6.214   7.797   8.128 -0.1146  0.5015 -0.0740
  127OSM    C1F13594   6.427   6.904   6.657  0.7760 -0.4366  0.1363
  127OSM     OF13595   6.514   6.886   6.571  0.4730  0.4786 -0.2321
  127OSM    C2F13596   6.418   6.826   6.777  0.3029  0.4739  0.1782
  127OSM    H2F13597   6.472   6.733   6.750 -2.9544 -1.1983 -0.8777
  127OSM    H2G13598   6.314   6.818   6.814  0.2203  0.2880 -0.0907
  127OSM    C3F13599   6.501   6.899   6.888 -0.3314 -0.6279 -0.1095
  127OSM    H3F13600   6.464   7.002   6.907 -0.5236  0.0550 -3.7730
  127OSM    H3G13601   6.608   6.903   6.858 -0.2608 -0.5969  0.1429
  127OSM    C4F13602   6.507   6.819   7.016 -0.6207 -0.1232  0.2536
  127OSM    H4F13603   6.583   6.868   7.080 -1.5363  1.9318 -0.1815
  127OSM    H4G13604   6.545   6.718   6.990  0.4546 -0.1666  1.9487
  127OSM    C5F13605   6.374   6.812   7.097  0.5201 -0.1331 -0.0285
  127OSM    H5F13606   6.301   6.739   7.057 -1.0034  2.4144 -1.9741
  127OSM    H5G13607   6.330   6.913   7.103  0.5287 -0.2128  1.5292
  127OSM    C6F13608   6.400   6.769   7.243  0.1706 -0.0216 -0.3771
  127OSM    H6F13609   6.488   6.827   7.279  0.3821 -1.0367  0.7864
  127OSM    H6G13610   6.437   6.664   7.237  0.0096 -0.1236  0.3564
  127OSM    C7F13611   6.274   6.780   7.321 -0.2057 -0.0128 -0.2413
  127OSM    H7F13612   6.195   6.743   7.252  0.5837  0.1813 -1.2669
  127OSM    H7G13613   6.250   6.885   7.346 -1.5423 -0.3582 -0.0535
  127OSM    C8F13614   6.269   6.700   7.451  0.0082  0.4179 -0.8781
  127OSM    H8F13615   6.283   6.591   7.433  0.0696  0.2993 -0.1440
  127OSM    H8G13616   6.165   6.711   7.490  0.3756 -1.4079  0.7155
  127OSM    C9F13617   6.362   6.752   7.560 -0.0300  0.2244  0.5754
  127OSM    H9F13618   6.457   6.780   7.512 -1.6024 -0.3172 -3.0331
  127OSM   C10F13619   6.339   6.751   7.693 -0.3329  0.2515 -0.1345
  127OSM   H10F13620   6.416   6.782   7.764 -1.1426  0.2529  0.7550
  127OSM   C11F13621   6.214   6.708   7.767  0.6795 -0.6090  0.2085
  127OSM   H11F13622   6.210   6.597   7.771  0.0495 -0.6417 -0.9283
  127OSM   H11G13623   6.123   6.718   7.703  1.0863 -1.4481 -0.5139
  127OSM   C12F13624   6.199   6.782   7.897 -0.4191  0.3598 -0.3392
  127OSM   H12F13625   6.163   6.886   7.877  1.3676  1.1763  0.5138
  127OSM   H12G13626   6.292   6.793   7.957  0.7350  1.2626 -2.2150
  127OSM   C13F13627   6.108   6.710   7.992  0.5991  0.6280  0.1627
  127OSM   H13F13628   6.151   6.609   8.010  1.0290  0.7021 -0.4268
  127OSM   H13G13629   6.017   6.687   7.933  0.2941 -2.1220  1.6452
  127OSM   C14F13630   6.085   6.784   8.127  0.2993  0.1593  0.1415
  127OSM   H14F13631   6.045   6.887   8.117  1.5187  0.6484  0.2576
  127OSM   H14G13632   6.185   6.797   8.174  0.9143 -2.0227 -0.4997
  127OSM   C15F13633   5.983   6.707   8.209  0.3669 -0.3317 -0.1011
  127OSM   H15F13634   6.043   6.627   8.258  0.9116 -0.0092 -0.2371
  127OSM   H15G13635   5.899   6.667   8.147 -0.5091  0.5681  0.4847
  127OSM   C16F13636   5.903   6.784   8.322 -0.9052  0.4907  0.1370
  127OSM   H16F13637   5.856   6.877   8.283 -1.4308 -0.3919 -1.3566
  127OSM   H16G13638   5.987   6.827   8.380 -1.3937  2.0266 -0.2743
  127OSM   C17F13639   5.811   6.699   8.413  0.3121 -0.4419 -0.1997
  127OSM   H17F13640   5.738   6.637   8.358 -1.8867  1.3438  0.6330
  127OSM   H17G13641   5.763   6.775   8.479 -0.5075 -0.0438 -1.2398
  127OSM   C18F13642   5.890   6.611   8.503 -0.1764 -0.3850 -0.1206
  127OSM   H18F13643   5.835   6.563   8.586  1.2703  1.2026  1.8187
  127OSM   H18G13644   5.969   6.668   8.558 -1.6610 -1.2262  3.0057
  127OSM   H18H13645   5.946   6.531   8.450  0.1431 -1.1342  1.3150
  128OSM      N13646   6.329   3.656   6.214 -0.6394 -0.2805 -0.5485
  128OSM    C1513647   6.444   3.642   6.113 -0.3254  0.6996 -0.3105
  128OSM   H15A13648   6.446   3.734   6.056 -1.9537  0.4804 -0.7632
  128OSM   H15B13649   6.424   3.555   6.051 -2.4807 -0.6372  2.1575
  128OSM   H15C13650   6.537   3.633   6.166 -0.3674  1.0933 -0.1686
  128OSM    C1413651   6.343   3.537   6.300  0.2387  0.0300  0.4074
  128OSM   H14A13652   6.294   3.450   6.258 -0.0022  0.0949  0.5507
  128OSM   H14B13653   6.300   3.551   6.398 -1.2452  0.1923 -0.2447
  128OSM   H14C13654   6.447   3.516   6.316  0.7680  1.4084 -1.1076
  128OSM    C1313655   6.365   3.785   6.280  0.2688 -0.7468 -0.8677
  128OSM   H13A13656   6.467   3.778   6.315  0.6437 -1.4139 -2.0401
  128OSM   H13B13657   6.308   3.799   6.370  2.6684 -0.7730  0.6965
  128OSM   H13C13658   6.341   3.874   6.225 -3.5744 -0.6572  0.8484
  128OSM    C1213659   6.202   3.650   6.138  0.4346  0.4569 -1.1350
  128OSM   H12A13660   6.205   3.562   6.075  1.0966  1.0409 -1.9305
  128OSM   H12B13661   6.187   3.730   6.067 -2.4077  1.2839  0.3430
  128OSM    C1113662   6.067   3.629   6.214 -0.1173  0.1293 -0.4665
  128OSM   H11A13663   6.066   3.529   6.263 -0.2442  0.4476  0.1988
  128OSM   H11B13664   5.981   3.617   6.145  1.3983 -1.8954 -2.0607
  128OSM      P13665   6.011   3.874   6.253 -0.1821  0.1182 -0.0993
  128OSM    O1313666   6.107   3.908   6.144  0.3794 -0.0338 -0.2719
  128OSM    O1413667   5.870   3.893   6.218  0.2523  0.1417 -0.0459
  128OSM    O1113668   6.043   3.962   6.379  0.6463 -0.1957 -0.4185
  128OSM    O1213669   6.030   3.731   6.316  0.1414 -0.2237  0.5195
  128OSM    C1S13670   5.989   3.929   6.510 -0.6204 -0.1647  0.3849
  128OSM    H1S13671   6.055   3.848   6.548  2.9502  2.3495 -0.2629
  128OSM    H1T13672   5.889   3.881   6.511  0.0094 -1.5289  2.0081
  128OSM     NF13673   5.961   3.991   6.745 -0.1254  0.3395  0.0248
  128OSM    HNF13674   5.868   3.981   6.778  0.0071  0.3887  0.4296
  128OSM    C2S13675   5.988   4.040   6.611  0.1668 -0.0819  0.4382
  128OSM    H2S13676   6.090   4.085   6.607  0.1473 -0.1961 -2.0992
  128OSM    C3S13677   5.886   4.151   6.559  0.2769 -0.1883 -0.0250
  128OSM    H3S13678   5.783   4.110   6.552  0.0035  0.8752 -2.4953
  128OSM     O313679   5.930   4.211   6.437 -0.2765 -0.0661 -0.2899
  128OSM    HO313680   5.991   4.150   6.395 -1.5419 -1.5518 -0.0196
  128OSM    C4S13681   5.883   4.261   6.665 -0.2005  0.2433 -0.4767
  128OSM    H4S13682   5.982   4.292   6.703 -0.0880 -0.8690  0.1743
  128OSM    C5S13683   5.771   4.295   6.739 -0.4074 -0.3581  0.0050
  128OSM    H5S13684   5.677   4.238   6.727 -0.1661 -0.4467 -1.5574
  128OSM    C6S13685   5.777   4.405   6.840  0.1546 -0.6916  0.2092
  128OSM    H6S13686   5.729   4.498   6.803  1.0845 -0.0148  0.6791
  128OSM    H6T13687   5.878   4.436   6.874 -0.3756  1.6792 -0.2829
  128OSM    C7S13688   5.705   4.359   6.974 -0.1042  0.2542  0.1559
  128OSM    H7S13689   5.759   4.268   7.009 -0.0605 -0.0634 -0.7409
  128OSM    H7T13690   5.598   4.330   6.964  0.3380 -2.1673  1.9270
  128OSM    C8S13691   5.718   4.462   7.084 -0.0654 -0.7461 -0.1630
  128OSM    H8S13692   5.691   4.562   7.042  0.7468 -0.7459 -0.6992
  128OSM    H8T13693   5.821   4.482   7.122  0.3795  0.5345 -1.9353
  128OSM    C9S13694   5.638   4.415   7.200 -0.0571  0.1964 -0.2782
  128OSM    H9S13695   5.620   4.305   7.200  1.5159 -0.0747 -1.3042
  128OSM    H9T13696   5.545   4.475   7.211  0.4926  1.0407 -0.2239
  128OSM   C10S13697   5.709   4.435   7.333 -0.3554  0.1452  0.0829
  128OSM   H10S13698   5.736   4.538   7.364 -0.0979 -0.6822  2.7199
  128OSM   H10T13699   5.800   4.372   7.324 -0.8111 -0.2051 -2.2689
  128OSM   C11S13700   5.615   4.376   7.444 -0.0032 -0.1190  0.0095
  128OSM   H11S13701   5.612   4.267   7.421  0.8682 -0.6129  2.0358
  128OSM   H11T13702   5.516   4.425   7.442 -0.9284 -1.9805 -0.6049
  128OSM   C12S13703   5.683   4.388   7.575  0.9105  0.2871 -0.6447
  128OSM   H12S13704   5.684   4.491   7.615 -0.0071  0.2756 -0.5880
  128OSM   H12T13705   5.788   4.352   7.571  0.2143 -1.6773 -1.8098
  128OSM   C13S13706   5.609   4.309   7.687  0.3579 -0.4385 -0.4287
  128OSM   H13S13707   5.591   4.205   7.653  1.7049 -0.5621 -0.8019
  128OSM   H13T13708   5.508   4.354   7.697 -0.6124 -2.2179 -2.0270
  128OSM   C14S13709   5.680   4.314   7.823  0.5412  0.1959 -0.5709
  128OSM   H14S13710   5.686   4.412   7.875 -0.7328  0.0343 -0.1014
  128OSM   H14T13711   5.788   4.291   7.832  0.4805  0.3663  0.5956
  128OSM   C15S13712   5.598   4.221   7.921 -0.7218 -1.0622 -0.5881
  128OSM   H15S13713   5.608   4.114   7.896 -2.6944 -1.4521  0.2162
  128OSM   H15T13714   5.497   4.267   7.913 -0.0656  0.5376  0.0867
  128OSM   C16S13715   5.635   4.238   8.072 -0.2302  0.1838 -0.5783
  128OSM   H16S13716   5.627   4.342   8.111 -1.2034 -0.9304  2.3174
  128OSM   H16T13717   5.739   4.210   8.099 -1.1124  1.1174  4.2288
  128OSM   C17S13718   5.567   4.126   8.152 -0.1998  0.0994 -0.4188
  128OSM   H17S13719   5.583   4.023   8.112  0.3741 -0.4094  1.0846
  128OSM   H17T13720   5.458   4.145   8.144 -0.3598 -1.2629 -1.6785
  128OSM   C18S13721   5.589   4.122   8.305  0.4976 -0.0172 -0.3876
  128OSM   H18S13722   5.529   4.048   8.361  0.6423  0.2543  0.1306
  128OSM   H18T13723   5.560   4.220   8.347  1.3641 -0.0194  0.2319
  128OSM   H18U13724   5.697   4.113   8.328  0.4932  1.2957  0.1771
  128OSM    C1F13725   6.059   3.930   6.814  0.8108 -0.1946  0.0353
  128OSM     OF13726   6.168   3.913   6.771 -0.2078  0.2228  0.5661
  128OSM    C2F13727   6.025   3.865   6.947  0.2807 -0.2791  0.1344
  128OSM    H2F13728   6.108   3.797   6.977  2.0944  1.7692 -0.0986
  128OSM    H2G13729   5.933   3.806   6.932  0.3672 -0.0342 -1.4856
  128OSM    C3F13730   6.001   3.969   7.064  0.0635  0.1009 -0.0567
  128OSM    H3F13731   5.926   4.043   7.027 -1.1040 -1.3291 -0.5998
  128OSM    H3G13732   6.089   4.033   7.086  0.0467  0.0899  0.0461
  128OSM    C4F13733   5.966   3.903   7.198 -0.2517  0.2134 -0.0476
  128OSM    H4F13734   6.053   3.841   7.230 -1.5655 -0.9787  1.2926
  128OSM    H4G13735   5.879   3.836   7.180 -0.5595 -0.1206  2.4515
  128OSM    C5F13736   5.939   4.005   7.304 -0.0726 -0.4270 -0.5409
  128OSM    H5F13737   5.868   4.086   7.277  0.6539  0.6590  0.7595
  128OSM    H5G13738   6.031   4.063   7.325  0.3296 -2.5520  4.0533
  128OSM    C6F13739   5.893   3.947   7.435  0.1003  0.0628  0.7076
  128OSM    H6F13740   5.968   3.871   7.467 -0.5231 -1.2138 -0.7940
  128OSM    H6G13741   5.791   3.903   7.424 -0.6381  2.2059 -1.3575
  128OSM    C7F13742   5.874   4.053   7.543  0.0543 -0.5170 -0.1179
  128OSM    H7F13743   5.790   4.111   7.499  1.3717  1.8722  0.4358
  128OSM    H7G13744   5.962   4.120   7.555  0.2532 -0.9845  1.1767
  128OSM    C8F13745   5.839   4.001   7.685  0.1406 -0.2549 -0.1313
  128OSM    H8F13746   5.745   3.943   7.684  0.0669 -0.1281 -0.4732
  128OSM    H8G13747   5.824   4.082   7.760 -3.5880 -1.9452  1.0618
  128OSM    C9F13748   5.949   3.916   7.744 -0.7449 -0.0708  0.2203
  128OSM    H9F13749   6.018   3.864   7.676  0.0290 -0.5141  1.3291
  128OSM   C10F13750   5.967   3.887   7.876 -0.6492  0.2541  0.2265
  128OSM   H10F13751   6.062   3.838   7.901 -0.8081  0.4058  1.1491
  128OSM   C11F13752   5.878   3.936   7.995  0.3757  0.0808 -0.0007
  128OSM   H11F13753   5.858   3.855   8.069 -0.9860 -0.4516 -0.9291
  128OSM   H11G13754   5.780   3.976   7.962  0.4063  1.9046  2.0324
  128OSM   C12F13755   5.956   4.046   8.070 -0.6850 -0.1044  0.5802
  128OSM   H12F13756   5.908   4.073   8.167  1.3069  0.6683  1.3734
  128OSM   H12G13757   5.979   4.135   8.007 -0.2249 -1.1659 -0.7517
  128OSM   C13F13758   6.102   4.007   8.110  0.3590  0.3926 -0.2881
  128OSM   H13F13759   6.142   4.098   8.159 -0.5292  0.6017  0.0581
  128OSM   H13G13760   6.161   3.983   8.019 -0.2303 -1.3353 -0.2359
  128OSM   C14F13761   6.115   3.902   8.224 -0.2701 -0.6023  0.4902
  128OSM   H14F13762   6.050   3.819   8.188  0.2544  0.2908 -2.7227
  128OSM   H14G13763   6.071   3.945   8.316 -1.1411  1.5214 -0.8788
  128OSM   C15F13764   6.258   3.859   8.255 -0.8338 -0.0132  0.1036
  128OSM   H15F13765   6.316   3.939   8.305 -3.0147  1.1469  0.8080
  128OSM   H15G13766   6.295   3.860   8.150 -1.3251 -0.3439 -0.0742
  128OSM   C16F13767   6.272   3.719   8.323 -1.0303 -0.7375 -1.3736
  128OSM   H16F13768   6.371   3.682   8.289 -0.0083  0.5782  0.0991
  128OSM   H16G13769   6.185   3.664   8.281 -2.1381  1.1610 -1.5896
  128OSM   C17F13770   6.246   3.734   8.474  0.1713 -0.4023  0.7235
  128OSM   H17F13771   6.181   3.821   8.495  0.0338 -0.1334 -0.7928
  128OSM   H17G13772   6.342   3.746   8.530  0.8060 -0.1192 -0.4074
  128OSM   C18F13773   6.177   3.614   8.525 -0.2988  0.0123  0.4718
  128OSM   H18F13774   6.236   3.521   8.508  0.6421  0.4811  1.1325
  128OSM   H18G13775   6.075   3.601   8.483 -0.5686 -2.2282  1.6867
  128OSM   H18H13776   6.162   3.617   8.635 -1.4139 -0.6879  0.3544
  129OSM      N13777   4.587   5.678   6.010 -0.9017 -0.0915 -0.4041
  129OSM    C1513778   4.697   5.606   6.069  0.2824  0.5805 -0.4805
  129OSM   H15A13779   4.677   5.501   6.084  0.9853  0.4290 -0.5670
  129OSM   H15B13780   4.736   5.661   6.154  0.1320  0.2328 -0.1851
  129OSM   H15C13781   4.775   5.615   5.995 -0.0100  1.8180 -0.6430
  129OSM    C1413782   4.624   5.813   5.960 -0.1798 -0.7100  0.0980
  129OSM   H14A13783   4.688   5.862   6.031  1.0359 -0.3051 -1.2426
  129OSM   H14B13784   4.532   5.860   5.931 -1.0112 -2.8079 -0.7617
  129OSM   H14C13785   4.682   5.800   5.870  0.8172 -2.1250  0.9240
  129OSM    C1313786   4.540   5.600   5.891  0.1938 -0.2429 -0.0281
  129OSM   H13A13787   4.449   5.646   5.854  2.2387  2.6909 -1.6991
  129OSM   H13B13788   4.528   5.497   5.918  0.9319 -0.5384 -0.8306
  129OSM   H13C13789   4.613   5.598   5.811  0.3584  1.6776  0.0509
  129OSM    C1213790   4.464   5.700   6.102  0.2682 -0.1845 -0.6206
  129OSM   H12A13791   4.376   5.731   6.046 -1.1872 -0.1362  1.6426
  129OSM   H12B13792   4.482   5.780   6.171 -0.4895  0.6211 -1.3401
  129OSM    C1113793   4.402   5.583   6.178  0.6912 -0.0974  0.0182
  129OSM   H11A13794   4.335   5.616   6.260  1.7867 -2.0657  1.7481
  129OSM   H11B13795   4.476   5.536   6.245  2.3690  2.7776  0.2633
  129OSM      P13796   4.208   5.474   6.034  0.0520  0.3676 -0.2498
  129OSM    O1313797   4.216   5.585   5.932  0.1533  1.0279 -0.1553
  129OSM    O1413798   4.165   5.342   5.976 -0.5069 -0.4161  0.0916
  129OSM    O1113799   4.111   5.522   6.146 -0.5082  0.1460 -0.5420
  129OSM    O1213800   4.348   5.470   6.107  0.4706 -0.4078 -0.7468
  129OSM    C1S13801   4.062   5.421   6.243  0.4877  0.0570 -0.9391
  129OSM    H1S13802   4.125   5.330   6.241  0.5548  0.0412  0.7297
  129OSM    H1T13803   3.964   5.393   6.197  1.3901 -0.4868 -2.5640
  129OSM     NF13804   4.042   5.385   6.491 -0.1468 -0.2664  0.5752
  129OSM    HNF13805   3.946   5.364   6.507 -1.1566  1.6080 -2.6586
  129OSM    C2S13806   4.055   5.484   6.390  0.0400 -0.1230  0.7394
  129OSM    H2S13807   4.159   5.521   6.401  0.9504 -1.3844 -2.8379
  129OSM    C3S13808   3.943   5.595   6.385 -0.2304 -0.4409  0.0151
  129OSM    H3S13809   3.843   5.549   6.370 -1.2381  1.6885 -0.0820
  129OSM     O313810   3.965   5.684   6.274 -0.1051  0.1496  0.3426
  129OSM    HO313811   4.028   5.634   6.220 -0.1947  1.2419 -0.7802
  129OSM    C4S13812   3.939   5.672   6.516 -0.5123  0.0990 -0.7208
  129OSM    H4S13813   4.016   5.751   6.519  1.4375 -1.6811 -1.9192
  129OSM    C5S13814   3.851   5.659   6.618 -0.0282  0.4251 -0.0607
  129OSM    H5S13815   3.778   5.577   6.614 -1.1435  1.3399  1.1584
  129OSM    C6S13816   3.856   5.732   6.748  0.2407  0.9479  1.0637
  129OSM    H6S13817   3.767   5.798   6.755  0.3739  1.3765 -1.0135
  129OSM    H6T13818   3.941   5.802   6.761  1.1695 -0.2918  1.7580
  129OSM    C7S13819   3.852   5.634   6.864 -0.1336 -0.4469 -0.0300
  129OSM    H7S13820   3.766   5.565   6.848 -0.1248 -0.2519 -0.9628
  129OSM    H7T13821   3.827   5.689   6.957 -0.5117 -0.8995  0.1363
  129OSM    C8S13822   3.982   5.557   6.891  0.1631 -0.0884 -0.0646
  129OSM    H8S13823   4.062   5.634   6.900  0.7207 -0.6665 -0.0468
  129OSM    H8T13824   4.011   5.497   6.802  1.2968  1.3985 -0.7203
  129OSM    C9S13825   3.972   5.464   7.008  0.5154 -0.2734  0.3166
  129OSM    H9S13826   3.907   5.509   7.085 -1.5301  0.6525 -1.8753
  129OSM    H9T13827   4.074   5.433   7.039 -0.2969 -2.3117  1.0380
  129OSM   C10S13828   3.909   5.320   6.983 -0.4693  0.5086 -1.0202
  129OSM   H10S13829   3.997   5.268   6.940  0.7111  4.8064 -4.2256
  129OSM   H10T13830   3.828   5.326   6.906 -0.9422  1.1142 -0.4768
  129OSM   C11S13831   3.856   5.247   7.107  0.0587 -0.2814  0.5104
  129OSM   H11S13832   3.817   5.146   7.083  1.0960 -0.7545  0.7778
  129OSM   H11T13833   3.774   5.306   7.152  0.5548  1.4409 -0.7678
  129OSM   C12S13834   3.958   5.224   7.222  0.1972 -0.6343  0.5158
  129OSM   H12S13835   3.895   5.184   7.303  0.4031 -1.1488  0.4209
  129OSM   H12T13836   4.005   5.320   7.252  0.2962 -0.3450 -0.5497
  129OSM   C13S13837   4.079   5.135   7.183  0.5491 -0.2515  0.6172
  129OSM   H13S13838   4.118   5.177   7.088 -1.8381 -0.9236 -0.7021
  129OSM   H13T13839   4.029   5.036   7.168 -0.5237  0.3190  0.3778
  129OSM   C14S13840   4.181   5.105   7.292 -0.3731  0.0939  0.0617
  129OSM   H14S13841   4.128   5.079   7.386  1.0382  0.6909  1.0449
  129OSM   H14T13842   4.238   5.200   7.302  0.0072 -0.2160  0.8092
  129OSM   C15S13843   4.278   4.991   7.254  0.4680 -0.3929 -0.1138
  129OSM   H15S13844   4.338   5.026   7.167 -1.0502  3.4774  0.2814
  129OSM   H15T13845   4.212   4.904   7.235 -0.4327  0.3629 -0.5088
  129OSM   C16S13846   4.379   4.960   7.368  0.5656 -0.3655  0.4259
  129OSM   H16S13847   4.337   4.917   7.462 -1.4441  1.0774  0.2274
  129OSM   H16T13848   4.434   5.050   7.402 -0.2217  0.3290 -0.1002
  129OSM   C17S13849   4.496   4.870   7.321  0.2844  0.8901  0.1060
  129OSM   H17S13850   4.541   4.924   7.235  1.5132  0.1802  0.2863
  129OSM   H17T13851   4.445   4.779   7.283  0.3570 -0.3033  2.6960
  129OSM   C18S13852   4.601   4.832   7.436  0.3880  0.2664  0.0545
  129OSM   H18S13853   4.654   4.737   7.415  0.3850  0.9794 -3.4674
  129OSM   H18T13854   4.554   4.820   7.536  1.0426  3.1017  0.7534
  129OSM   H18U13855   4.673   4.916   7.447 -0.0509  0.7854 -0.9236
  129OSM    C1F13856   4.148   5.311   6.523 -0.3687 -0.4339 -0.0249
  129OSM     OF13857   4.255   5.330   6.466 -0.0355  0.2754  0.1478
  129OSM    C2F13858   4.136   5.195   6.624 -0.2199  0.0609 -0.2848
  129OSM    H2F13859   4.195   5.219   6.715 -0.1011 -2.4584  0.3592
  129OSM    H2G13860   4.186   5.106   6.580 -1.3993  0.0509 -1.6655
  129OSM    C3F13861   3.998   5.152   6.653  0.2698 -0.1432  0.1684
  129OSM    H3F13862   3.944   5.127   6.560 -1.5574 -0.9519  1.4032
  129OSM    H3G13863   3.941   5.230   6.708  2.6332  2.4889 -1.0378
  129OSM    C4F13864   3.987   5.023   6.735  0.1461  0.4011 -0.9390
  129OSM    H4F13865   4.037   5.048   6.831 -1.0503  0.4366 -0.3079
  129OSM    H4G13866   4.029   4.934   6.685  1.1101  0.0982  0.3909
  129OSM    C5F13867   3.840   4.999   6.776 -0.4692  0.2215 -1.2866
  129OSM    H5F13868   3.771   4.960   6.698 -1.3436 -1.3602  0.2489
  129OSM    H5G13869   3.817   5.099   6.816 -0.4362  0.0169 -0.7603
  129OSM    C6F13870   3.838   4.901   6.898 -0.1683 -0.2709 -0.3627
  129OSM    H6F13871   3.897   4.935   6.986 -1.2911 -1.8852  1.0558
  129OSM    H6G13872   3.886   4.805   6.872 -1.4141 -0.8373 -0.6079
  129OSM    C7F13873   3.692   4.889   6.951  0.6962  0.0036  0.2476
  129OSM    H7F13874   3.617   4.866   6.873  0.7334  0.1744  0.1603
  129OSM    H7G13875   3.651   4.986   6.987 -2.7701 -0.8096 -1.3754
  129OSM    C8F13876   3.691   4.763   7.045  0.2936  0.0957  0.5301
  129OSM    H8F13877   3.737   4.679   6.988 -2.9769 -1.3485 -0.1131
  129OSM    H8G13878   3.585   4.734   7.067 -0.2947  2.5091  0.9821
  129OSM    C9F13879   3.769   4.789   7.174 -0.3976  0.3396  0.6399
  129OSM    H9F13880   3.869   4.744   7.175 -0.3611  0.4008  2.1376
  129OSM   C10F13881   3.742   4.876   7.274 -0.2273 -0.5004  0.3781
  129OSM   H10F13882   3.816   4.891   7.353  0.1328  1.2962 -0.2866
  129OSM   C11F13883   3.616   4.958   7.283 -0.2234 -0.4429  0.2118
  129OSM   H11F13884   3.529   4.903   7.242 -1.1733  0.7245  0.6384
  129OSM   H11G13885   3.626   5.049   7.221 -0.1875 -0.7622 -0.2506
  129OSM   C12F13886   3.587   5.021   7.421 -0.5229  0.4398  0.0063
  129OSM   H12F13887   3.484   5.061   7.428 -0.0458  1.7541 -0.2915
  129OSM   H12G13888   3.659   5.102   7.445 -0.8773  0.8779 -0.4007
  129OSM   C13F13889   3.594   4.907   7.529 -0.1733 -0.3150  0.2320
  129OSM   H13F13890   3.695   4.862   7.540 -0.3837 -0.7838  0.2312
  129OSM   H13G13891   3.535   4.818   7.500 -0.0353 -0.3904  0.1830
  129OSM   C14F13892   3.553   4.966   7.663 -0.0546  0.0558 -0.2788
  129OSM   H14F13893   3.449   5.005   7.664  0.2026  0.7202  0.1172
  129OSM   H14G13894   3.611   5.058   7.686  0.9830 -0.7296  0.3088
  129OSM   C15F13895   3.560   4.856   7.777 -0.9907  0.4553 -0.6654
  129OSM   H15F13896   3.539   4.763   7.720  0.1205  0.7324 -1.5540
  129OSM   H15G13897   3.469   4.869   7.839 -0.9002  2.6013 -0.9401
  129OSM   C16F13898   3.689   4.852   7.864 -0.4606 -0.9993  0.7772
  129OSM   H16F13899   3.781   4.856   7.802 -1.9046 -2.4215 -1.5639
  129OSM   H16G13900   3.693   4.758   7.924  2.7710 -0.4717  1.4286
  129OSM   C17F13901   3.692   4.969   7.961  0.1624 -0.4028 -0.6817
  129OSM   H17F13902   3.654   5.059   7.909  1.1836 -0.0101 -0.7507
  129OSM   H17G13903   3.798   4.976   7.991  0.6965 -0.2617 -2.5844
  129OSM   C18F13904   3.611   4.950   8.084  0.3364  0.3725 -0.2500
  129OSM   H18F13905   3.603   5.047   8.137  0.1051  0.0247  0.3591
  129OSM   H18G13906   3.656   4.884   8.160 -1.4281  1.8522  2.1399
  129OSM   H18H13907   3.511   4.909   8.055  0.5808  0.6459 -1.5199
  130OSM      N13908   4.398   2.933   6.169 -0.4927 -0.7788 -0.1123
  130OSM    C1513909   4.411   3.076   6.126 -0.6568 -0.4310 -0.2924
  130OSM   H15A13910   4.511   3.114   6.132 -1.4731  1.7500 -0.3073
  130OSM   H15B13911   4.362   3.135   6.201 -2.0606  0.9290 -2.2423
  130OSM   H15C13912   4.360   3.095   6.032  1.7393  1.4179 -1.2743
  130OSM    C1413913   4.251   2.903   6.179  0.8967  0.1911  0.1414
  130OSM   H14A13914   4.218   2.880   6.078  0.4394  0.3240  0.2609
  130OSM   H14B13915   4.208   2.987   6.230  2.4862  0.6207  0.7859
  130OSM   H14C13916   4.242   2.819   6.247  0.6991 -1.1143 -1.4562
  130OSM    C1313917   4.453   2.845   6.069  0.2360  0.1008 -0.1108
  130OSM   H13A13918   4.561   2.850   6.076  0.4942 -1.4064 -2.3932
  130OSM   H13B13919   4.421   2.874   5.971 -0.9437 -0.6818  0.0368
  130OSM   H13C13920   4.417   2.744   6.085 -0.2915  0.5037  1.3718
  130OSM    C1213921   4.460   2.927   6.312 -0.1423 -0.2276  0.1603
  130OSM   H12A13922   4.402   2.981   6.385 -1.4875 -2.1167  0.5386
  130OSM   H12B13923   4.558   2.971   6.311 -1.4997  2.9611  0.4215
  130OSM    C1113924   4.453   2.787   6.387 -1.3865 -0.5689 -0.2622
  130OSM   H11A13925   4.348   2.750   6.381 -1.7325  0.5937 -1.5125
  130OSM   H11B13926   4.486   2.800   6.492  2.2224 -1.7509 -1.1575
  130OSM      P13927   4.682   2.673   6.340 -0.4823 -0.3934 -0.3506
  130OSM    O1313928   4.709   2.532   6.380 -0.1495 -0.2295 -0.3458
  130OSM    O1413929   4.747   2.720   6.215 -0.2593  0.5240  0.2782
  130OSM    O1113930   4.720   2.758   6.464 -0.2043 -0.1494  0.3382
  130OSM    O1213931   4.528   2.685   6.322  0.0929 -0.3255  0.2846
  130OSM    C1S13932   4.799   2.881   6.431  0.0138  0.1026  0.3300
  130OSM    H1S13933   4.752   2.931   6.344  1.6947 -1.3571 -1.4741
  130OSM    H1T13934   4.903   2.861   6.397  0.7099  0.0627  2.4337
  130OSM     NF13935   4.862   3.091   6.531  0.1647 -0.0626  0.3227
  130OSM    HNF13936   4.953   3.125   6.551 -0.1721  0.0807  1.6386
  130OSM    C2S13937   4.819   2.963   6.558  0.5123 -0.2141 -0.5602
  130OSM    H2S13938   4.717   2.964   6.602  0.0164 -1.7014 -1.6642
  130OSM    C3S13939   4.915   2.880   6.654  0.6071  0.0531  0.8014
  130OSM    H3S13940   5.020   2.885   6.619  0.1816 -1.6097 -0.7844
  130OSM     O313941   4.873   2.741   6.675 -0.2603 -0.2223  0.8744
  130OSM    HO313942   4.794   2.737   6.621 -0.2147 -1.0295  0.8632
  130OSM    C4S13943   4.906   2.949   6.786 -0.9537  0.3127 -1.0086
  130OSM    H4S13944   4.810   2.954   6.839 -0.4826 -0.7231 -0.0519
  130OSM    C5S13945   5.011   2.998   6.844 -0.8115  0.0420  0.1824
  130OSM    H5S13946   5.113   2.994   6.803  0.0704  5.1665  1.5636
  130OSM    C6S13947   5.015   3.074   6.968  0.8201 -0.4537 -0.3973
  130OSM    H6S13948   4.914   3.111   6.996  1.7630  0.4025  1.9440
  130OSM    H6T13949   5.078   3.165   6.961  1.5898 -0.9292  0.3562
  130OSM    C7S13950   5.077   2.994   7.083  0.5807 -0.4277  0.2916
  130OSM    H7S13951   5.187   3.004   7.073  0.1759  4.4696 -0.6330
  130OSM    H7T13952   5.049   2.887   7.080  0.9403 -0.5107 -0.1980
  130OSM    C8S13953   5.033   3.058   7.223 -0.0655 -0.9546  0.2877
  130OSM    H8S13954   4.925   3.037   7.241 -0.1264 -0.5059  0.4265
  130OSM    H8T13955   5.039   3.168   7.219  1.5390 -1.0818 -1.2905
  130OSM    C9S13956   5.133   3.000   7.334 -0.4562  0.0822 -0.3730
  130OSM    H9S13957   5.200   3.080   7.373 -1.2849  0.1072  1.0256
  130OSM    H9T13958   5.191   2.920   7.283 -0.9360 -0.3933 -0.1779
  130OSM   C10S13959   5.066   2.927   7.457  0.5759 -0.6022  0.0795
  130OSM   H10S13960   5.002   2.861   7.395  1.5034 -2.7243  1.3207
  130OSM   H10T13961   5.002   2.996   7.516 -2.2065 -2.2203 -0.9312
  130OSM   C11S13962   5.164   2.840   7.534 -0.2326  0.1189 -0.5181
  130OSM   H11S13963   5.252   2.896   7.571 -0.9993 -1.1029  3.4385
  130OSM   H11T13964   5.196   2.767   7.457 -0.1949  0.3030 -0.6763
  130OSM   C12S13965   5.108   2.759   7.648 -0.1652 -0.5515  0.2045
  130OSM   H12S13966   5.006   2.730   7.615  0.0924 -2.1362  0.7219
  130OSM   H12T13967   5.098   2.833   7.730 -2.6891 -0.4197 -0.2079
  130OSM   C13S13968   5.187   2.642   7.704 -0.6332  0.1823 -0.0382
  130OSM   H13S13969   5.290   2.676   7.725 -0.2151 -1.5263  0.7103
  130OSM   H13T13970   5.194   2.564   7.625 -0.4580 -0.5950  0.7443
  130OSM   C14S13971   5.118   2.586   7.822  0.5929  0.0489  0.1702
  130OSM   H14S13972   5.123   2.477   7.804  2.7561  0.4823 -2.3019
  130OSM   H14T13973   5.012   2.616   7.809  1.2849  1.4614 -2.7596
  130OSM   C15S13974   5.164   2.650   7.957  0.4293  0.5905 -0.4288
  130OSM   H15S13975   5.148   2.759   7.948 -1.9151  0.2399 -0.9031
  130OSM   H15T13976   5.270   2.619   7.967 -0.1899 -1.7436 -0.7141
  130OSM   C16S13977   5.070   2.621   8.079 -0.4225 -0.3456 -0.1442
  130OSM   H16S13978   5.071   2.520   8.125 -0.7010  0.2512  1.2027
  130OSM   H16T13979   4.964   2.633   8.046 -0.7047 -0.6026  0.6521
  130OSM   C17S13980   5.088   2.723   8.196 -0.3470  0.3492 -0.4209
  130OSM   H17S13981   5.098   2.827   8.159  0.4758  1.3824  2.6138
  130OSM   H17T13982   5.190   2.704   8.237 -0.0916  0.2875 -1.0734
  130OSM   C18S13983   4.986   2.706   8.297 -0.7845 -0.5156 -0.2299
  130OSM   H18S13984   5.032   2.736   8.394  0.7720  0.6561 -1.2985
  130OSM   H18T13985   4.963   2.598   8.298 -1.4128 -0.3779  1.5722
  130OSM   H18U13986   4.894   2.765   8.280 -1.0393 -0.8224  0.1034
  130OSM    C1F13987   4.781   3.180   6.464 -0.0535 -0.7003 -0.0554
  130OSM     OF13988   4.679   3.140   6.407 -0.8863 -1.1474  0.5872
  130OSM    C2F13989   4.815   3.325   6.479 -0.2523  0.2705 -0.2121
  130OSM    H2F13990   4.842   3.360   6.377  1.3795 -2.7172 -0.8567
  130OSM    H2G13991   4.899   3.334   6.552  0.4209 -2.0992 -0.6729
  130OSM    C3F13992   4.701   3.409   6.539  0.5478  1.1176 -0.1865
  130OSM    H3F13993   4.615   3.392   6.472 -1.3035 -0.8037  2.5761
  130OSM    H3G13994   4.737   3.514   6.529  1.7861  0.5188 -2.4313
  130OSM    C4F13995   4.660   3.385   6.687 -0.2970 -0.0791 -0.3978
  130OSM    H4F13996   4.632   3.280   6.707 -0.6195  0.5626  2.8629
  130OSM    H4G13997   4.575   3.453   6.711  2.1192  1.4892  4.3936
  130OSM    C5F13998   4.781   3.420   6.779  0.3740  0.0049 -0.2219
  130OSM    H5F13999   4.818   3.523   6.760 -0.0069  0.3202  0.7240
  130OSM    H5G14000   4.866   3.352   6.757  0.4325 -0.4434  1.3658
  130OSM    C6F14001   4.746   3.406   6.926 -0.3166 -0.3965  0.3689
  130OSM    H6F14002   4.717   3.301   6.946  0.5196 -0.9345 -1.1513
  130OSM    H6G14003   4.645   3.454   6.930 -0.8592 -1.2922 -2.0066
  130OSM    C7F14004   4.854   3.451   7.022  0.2776 -0.1741  0.5922
  130OSM    H7F14005   4.906   3.543   6.987 -1.8454  0.1742 -1.7963
  130OSM    H7G14006   4.941   3.383   7.007 -0.6032 -1.1064 -0.3941
  130OSM    C8F14007   4.811   3.472   7.163  0.0579  0.1762  0.1969
  130OSM    H8F14008   4.752   3.566   7.171  2.7837  1.8866  1.0161
  130OSM    H8G14009   4.904   3.504   7.214 -0.5049  0.1295  1.2720
  130OSM    C9F14010   4.745   3.350   7.220 -0.1120 -0.1093 -1.3383
  130OSM    H9F14011   4.660   3.313   7.160  1.7918 -2.6048 -2.5797
  130OSM   C10F14012   4.785   3.287   7.336  0.4491 -0.3583  0.4960
  130OSM   H10F14013   4.728   3.204   7.381 -0.1987  0.2991  0.8965
  130OSM   C11F14014   4.893   3.322   7.434 -0.2575  0.2281  0.1200
  130OSM   H11F14015   4.945   3.412   7.395  2.1331 -1.7307 -1.3826
  130OSM   H11G14016   4.976   3.248   7.439 -1.3691 -0.9861  0.7225
  130OSM   C12F14017   4.838   3.329   7.580  0.8173  0.7831  0.2091
  130OSM   H12F14018   4.928   3.332   7.644  1.4273  0.3667 -0.6183
  130OSM   H12G14019   4.777   3.242   7.612 -1.2583  1.5086 -1.6280
  130OSM   C13F14020   4.769   3.465   7.613  0.4462  0.5528 -0.4658
  130OSM   H13F14021   4.686   3.477   7.540 -0.8693  0.0851  0.9146
  130OSM   H13G14022   4.844   3.547   7.616  3.2506 -1.6152 -5.5765
  130OSM   C14F14023   4.693   3.468   7.751 -0.4550  0.2994 -0.0481
  130OSM   H14F14024   4.619   3.385   7.756  0.2919 -0.3652  0.0224
  130OSM   H14G14025   4.643   3.568   7.754  0.2561  0.6826 -0.8936
  130OSM   C15F14026   4.786   3.444   7.872 -0.4769 -0.0476 -0.3832
  130OSM   H15F14027   4.872   3.514   7.860 -0.0239 -0.8044 -1.6199
  130OSM   H15G14028   4.832   3.343   7.867  1.6038  0.8698 -0.3126
  130OSM   C16F14029   4.722   3.485   8.011 -0.6667  0.0334 -0.6868
  130OSM   H16F14030   4.678   3.396   8.061  2.1869 -1.2285 -0.3576
  130OSM   H16G14031   4.626   3.540   7.998 -1.1163 -0.2994  1.1263
  130OSM   C17F14032   4.811   3.566   8.104 -0.6002  0.1416  0.1555
  130OSM   H17F14033   4.830   3.658   8.045 -2.3624 -0.6024 -1.6133
  130OSM   H17G14034   4.905   3.511   8.123 -0.7562 -0.1673  0.0207
  130OSM   C18F14035   4.746   3.607   8.238 -0.2422  0.1147  0.0700
  130OSM   H18F14036   4.721   3.507   8.280 -2.7494 -0.4193 -2.5052
  130OSM   H18G14037   4.650   3.662   8.230 -0.4910 -0.5163 -1.4800
  130OSM   H18H14038   4.815   3.664   8.303 -0.5253 -0.5807  1.0010
  131OSM      N14039   5.060   1.207   6.397  0.0244  0.1022 -0.4189
  131OSM    C1514040   5.147   1.292   6.482  0.2207 -0.3984 -0.8236
  131OSM   H15A14041   5.252   1.268   6.474  0.5464  0.3534  0.8315
  131OSM   H15B14042   5.129   1.290   6.588 -3.0086  1.9290 -1.2530
  131OSM   H15C14043   5.135   1.398   6.464 -0.6949 -0.3842 -0.1555
  131OSM    C1414044   4.929   1.275   6.395 -0.3885 -0.0466  0.4844
  131OSM   H14A14045   4.892   1.268   6.497 -1.8014  0.2163 -0.0040
  131OSM   H14B14046   4.858   1.216   6.339  0.4185 -0.7876  0.2324
  131OSM   H14C14047   4.930   1.378   6.365  1.0901 -0.1175  0.2594
  131OSM    C1314048   5.109   1.194   6.256  0.0484 -0.5053  1.0953
  131OSM   H13A14049   5.194   1.126   6.255 -0.8733 -1.6870 -0.3164
  131OSM   H13B14050   5.127   1.296   6.228 -0.9636  0.7057  4.5819
  131OSM   H13C14051   5.040   1.146   6.188  0.8520 -1.1961  0.7481
  131OSM    C1214052   5.039   1.068   6.455  0.2496  0.7679  0.9096
  131OSM   H12A14053   4.981   1.006   6.387 -0.3033  0.6038  1.5267
  131OSM   H12B14054   4.977   1.064   6.543 -0.8295 -0.2213  0.1310
  131OSM    C1114055   5.162   0.991   6.491  0.5554 -0.4882 -0.4564
  131OSM   H11A14056   5.134   0.890   6.530 -1.2757 -0.6860 -2.2346
  131OSM   H11B14057   5.209   1.044   6.577 -0.6228 -2.1065  1.2336
  131OSM      P14058   5.302   0.841   6.323 -0.4519  0.3132  0.0704
  131OSM    O1314059   5.208   0.786   6.227  0.1329 -0.3010  0.3965
  131OSM    O1414060   5.445   0.863   6.286 -0.0252 -0.0609 -0.3953
  131OSM    O1114061   5.291   0.739   6.448 -0.4009 -0.4006 -0.7010
  131OSM    O1214062   5.248   0.975   6.382 -0.3176  0.1620 -0.3020
  131OSM    C1S14063   5.404   0.689   6.519 -1.8318  0.3637  0.3472
  131OSM    H1S14064   5.500   0.735   6.485 -2.5227  1.0798 -0.6829
  131OSM    H1T14065   5.425   0.581   6.504  0.5798  0.8295  0.0770
  131OSM     NF14066   5.531   0.684   6.730  0.7376  0.3589  0.2309
  131OSM    HNF14067   5.525   0.588   6.757 -0.0885  0.3288 -0.0549
  131OSM    C2S14068   5.405   0.729   6.671 -0.2329  0.4470  0.0018
  131OSM    H2S14069   5.398   0.839   6.685 -1.3467  0.4581 -0.5911
  131OSM    C3S14070   5.284   0.670   6.741 -0.2344 -0.5546  0.0116
  131OSM    H3S14071   5.310   0.563   6.755 -0.7861 -1.0705 -2.6053
  131OSM     O314072   5.166   0.684   6.668 -0.1159  0.2009 -0.4257
  131OSM    HO314073   5.192   0.726   6.586 -2.7140 -0.8316 -1.8210
  131OSM    C4S14074   5.263   0.733   6.874 -0.5110  0.0708 -0.2410
  131OSM    H4S14075   5.299   0.834   6.899 -0.9445  0.2621 -0.3899
  131OSM    C5S14076   5.231   0.657   6.979 -0.5559  0.0778  0.4340
  131OSM    H5S14077   5.215   0.549   6.969 -1.0780  0.1174  0.7815
  131OSM    C6S14078   5.218   0.698   7.123  0.2076 -0.7998 -0.1497
  131OSM    H6S14079   5.221   0.610   7.191 -1.4984  0.9929  2.3383
  131OSM    H6T14080   5.118   0.745   7.131  1.2195  1.3449  0.5643
  131OSM    C7S14081   5.324   0.798   7.171 -0.2856  0.3074  0.3436
  131OSM    H7S14082   5.325   0.883   7.099  1.0231  1.3346  1.5320
  131OSM    H7T14083   5.427   0.757   7.170  0.1235  1.3092  0.4223
  131OSM    C8S14084   5.267   0.853   7.303 -0.1650  0.4342  1.1245
  131OSM    H8S14085   5.253   0.762   7.365  1.6531  0.5039  1.6616
  131OSM    H8T14086   5.171   0.904   7.283  0.6912  1.4650 -0.4391
  131OSM    C9S14087   5.360   0.953   7.363  0.2950  0.2895 -0.1920
  131OSM    H9S14088   5.316   0.978   7.462 -0.3214  2.3355 -0.9733
  131OSM    H9T14089   5.367   1.042   7.298 -0.7769  0.2270 -0.4115
  131OSM   C10S14090   5.500   0.907   7.395  0.2189 -0.6496 -0.4378
  131OSM   H10S14091   5.550   0.878   7.300 -4.3647 -0.4936 -3.0919
  131OSM   H10T14092   5.496   0.812   7.452  1.0522 -0.3407  0.1375
  131OSM   C11S14093   5.593   1.018   7.458  0.6883  0.1866 -0.2109
  131OSM   H11S14094   5.575   1.100   7.385  1.1509 -0.5760 -1.1901
  131OSM   H11T14095   5.700   0.990   7.452  1.0765  0.9207  2.5422
  131OSM   C12S14096   5.547   1.057   7.599  0.4977  0.7379 -0.1020
  131OSM   H12S14097   5.580   0.981   7.673 -0.9938  1.2592  1.1073
  131OSM   H12T14098   5.439   1.081   7.606  0.3891  0.1057  0.4176
  131OSM   C13S14099   5.610   1.192   7.644  0.3064 -0.1330 -0.0783
  131OSM   H13S14100   5.559   1.274   7.590  1.9336 -0.2395 -1.8222
  131OSM   H13T14101   5.717   1.201   7.617  0.5955 -0.7134  0.8305
  131OSM   C14S14102   5.594   1.221   7.793 -0.1845  0.0721 -0.0041
  131OSM   H14S14103   5.647   1.319   7.795  0.6018 -0.3634  0.9511
  131OSM   H14T14104   5.647   1.153   7.863 -0.3205  2.5509  2.5909
  131OSM   C15S14105   5.456   1.242   7.847 -0.4425  0.3275 -0.3220
  131OSM   H15S14106   5.395   1.155   7.817  1.2393 -1.4598  1.2988
  131OSM   H15T14107   5.409   1.331   7.800 -0.6687  0.4358  0.1053
  131OSM   C16S14108   5.439   1.252   7.999 -0.5889 -0.9895 -0.1142
  131OSM   H16S14109   5.478   1.164   8.053  2.6360 -0.8062 -2.0263
  131OSM   H16T14110   5.334   1.275   8.026 -0.4500  0.4649 -0.7407
  131OSM   C17S14111   5.523   1.370   8.047  0.2859 -0.5244 -0.2462
  131OSM   H17S14112   5.483   1.462   7.999 -3.6627 -2.0090  0.0383
  131OSM   H17T14113   5.626   1.364   8.006  0.7968 -0.1830  0.9756
  131OSM   C18S14114   5.531   1.392   8.196  0.5057 -0.0869 -0.1936
  131OSM   H18S14115   5.433   1.411   8.244  1.4077 -1.6802  2.3468
  131OSM   H18T14116   5.600   1.472   8.230  0.6257  0.1192 -0.9055
  131OSM   H18U14117   5.564   1.295   8.239  2.5126  0.2476 -0.9307
  131OSM    C1F14118   5.647   0.749   6.716 -0.0046  1.2427 -0.3072
  131OSM     OF14119   5.652   0.855   6.660 -0.1695  0.2348  0.2915
  131OSM    C2F14120   5.771   0.676   6.760  0.4006  0.2389  0.1523
  131OSM    H2F14121   5.820   0.635   6.669  0.7276  1.9636 -0.4836
  131OSM    H2G14122   5.744   0.597   6.833  0.0953  0.1246 -0.0860
  131OSM    C3F14123   5.869   0.766   6.838  0.4367  0.5299  0.4325
  131OSM    H3F14124   5.897   0.850   6.770  0.5678  0.4634  0.4039
  131OSM    H3G14125   5.966   0.720   6.868  0.3361 -1.9503 -2.6866
  131OSM    C4F14126   5.812   0.830   6.967  0.5426 -0.0533 -0.1368
  131OSM    H4F14127   5.735   0.909   6.951  1.1619  0.8037  1.0698
  131OSM    H4G14128   5.902   0.878   7.009  0.2966 -0.7729  1.2258
  131OSM    C5F14129   5.760   0.732   7.062  0.0484  0.6459 -1.3017
  131OSM    H5F14130   5.689   0.665   7.009  2.3382 -3.3150  0.3920
  131OSM    H5G14131   5.713   0.785   7.147 -1.0026  0.5441 -1.8104
  131OSM    C6F14132   5.861   0.622   7.111 -0.0551  0.2341  0.6433
  131OSM    H6F14133   5.894   0.566   7.021 -2.1497 -0.8011  0.5093
  131OSM    H6G14134   5.805   0.549   7.173 -0.8195  0.7754  0.5843
  131OSM    C7F14135   5.972   0.675   7.205 -0.0324 -0.1873  0.0799
  131OSM    H7F14136   6.001   0.765   7.147 -1.9661  1.5760  1.7838
  131OSM    H7G14137   6.046   0.595   7.229  0.6707 -0.0770 -1.6258
  131OSM    C8F14138   5.901   0.715   7.345  0.6214  0.1883 -0.6480
  131OSM    H8F14139   5.857   0.617   7.373 -1.5121  0.1623 -3.9099
  131OSM    H8G14140   5.822   0.792   7.338 -0.7830 -0.9031  2.2529
  131OSM    C9F14141   6.004   0.765   7.445 -0.4164 -0.0115 -0.4078
  131OSM    H9F14142   6.082   0.825   7.396  0.8199  0.5695  2.1559
  131OSM   C10F14143   6.009   0.739   7.579 -0.4336 -0.2316  0.4611
  131OSM   H10F14144   6.087   0.777   7.646 -0.1618  2.0154 -1.0855
  131OSM   C11F14145   5.910   0.656   7.656 -0.0009 -0.2640 -0.1382
  131OSM   H11F14146   5.965   0.574   7.708 -2.2014 -2.6997 -1.5674
  131OSM   H11G14147   5.828   0.613   7.595  0.2118  0.2567 -0.7818
  131OSM   C12F14148   5.840   0.720   7.773 -0.2195 -0.2223  0.5976
  131OSM   H12F14149   5.761   0.657   7.819 -1.1650 -1.7001 -2.9145
  131OSM   H12G14150   5.788   0.809   7.733  0.4800  0.3226  0.8841
  131OSM   C13F14151   5.929   0.772   7.888 -0.9117 -0.5424  0.2633
  131OSM   H13F14152   5.983   0.862   7.851 -0.9406  0.2817  2.1450
  131OSM   H13G14153   5.999   0.689   7.910 -2.3040 -1.8656 -0.2518
  131OSM   C14F14154   5.842   0.798   8.016  0.6139  0.2070 -0.1429
  131OSM   H14F14155   5.908   0.780   8.103  0.3954 -0.3194 -0.0828
  131OSM   H14G14156   5.759   0.725   8.027  0.3747 -0.3491 -4.4875
  131OSM   C15F14157   5.809   0.945   8.029 -0.0388 -0.0998  1.0246
  131OSM   H15F14158   5.745   0.956   7.938 -2.1044  0.1398  2.4725
  131OSM   H15G14159   5.895   1.013   8.010 -0.8303  0.5301 -0.3863
  131OSM   C16F14160   5.723   1.007   8.137  0.2055 -0.3648 -0.0895
  131OSM   H16F14161   5.706   1.114   8.113  1.1664 -0.1533  0.1230
  131OSM   H16G14162   5.785   1.003   8.230  1.8093  1.1508 -1.0529
  131OSM   C17F14163   5.590   0.930   8.160 -0.0995  0.2736  0.7137
  131OSM   H17F14164   5.623   0.825   8.175  3.4291  0.9009 -1.8971
  131OSM   H17G14165   5.537   0.939   8.062  0.8227 -1.1841  0.0620
  131OSM   C18F14166   5.501   0.970   8.277  0.8834  0.8829  0.2282
  131OSM   H18F14167   5.563   0.988   8.368 -1.2019 -0.6302  2.0123
  131OSM   H18G14168   5.431   0.890   8.309  1.6098  0.7644  1.5925
  131OSM   H18H14169   5.443   1.061   8.252 -1.6038 -1.5912 -3.5939
  132OSM      N14170   0.607   4.585   6.258 -0.4509  0.2884 -0.0326
  132OSM    C1514171   0.665   4.618   6.123  0.3533  0.5758 -1.1744
  132OSM   H15A14172   0.735   4.700   6.120  0.8640  0.2307  0.9541
  132OSM   H15B14173   0.586   4.661   6.062 -2.2099  1.0728  2.3339
  132OSM   H15C14174   0.715   4.536   6.075  2.9334  0.9697  0.7559
  132OSM    C1414175   0.538   4.453   6.253  0.3421 -0.1836  0.3524
  132OSM   H14A14176   0.605   4.379   6.210  0.0947 -1.4422  2.0830
  132OSM   H14B14177   0.452   4.475   6.191  0.3463 -1.5036 -0.1455
  132OSM   H14C14178   0.498   4.411   6.344 -0.5478  1.1389  0.5778
  132OSM    C1314179   0.716   4.572   6.361 -1.1015 -0.5324 -0.0179
  132OSM   H13A14180   0.670   4.532   6.450  1.0460 -1.0773  0.8762
  132OSM   H13B14181   0.764   4.666   6.384 -1.4018 -0.2617 -0.4828
  132OSM   H13C14182   0.796   4.505   6.335  1.4046  1.8946  1.1271
  132OSM    C1214183   0.510   4.694   6.309  0.3062  0.4672  0.3410
  132OSM   H12A14184   0.561   4.780   6.348 -1.1479  1.9000 -0.8443
  132OSM   H12B14185   0.451   4.644   6.385 -1.1731 -0.4594 -1.3593
  132OSM    C1114186   0.417   4.753   6.201  0.4274  0.1741  0.0127
  132OSM   H11A14187   0.476   4.796   6.118  0.1168  2.3615  0.8962
  132OSM   H11B14188   0.368   4.834   6.260  0.0987  0.2172 -0.3134
  132OSM      P14189   0.196   4.618   6.237 -0.0328  0.5408  0.0007
  132OSM    O1314190   0.093   4.719   6.204 -0.1408  0.3873 -0.1345
  132OSM    O1414191   0.163   4.481   6.194  0.6515 -0.4864  0.0570
  132OSM    O1114192   0.232   4.629   6.392  0.3199 -0.0264  0.2424
  132OSM    O1214193   0.326   4.654   6.158  0.1276  0.5078  0.0795
  132OSM    C1S14194   0.196   4.522   6.484  0.4052  0.0604  0.1432
  132OSM    H1S14195   0.292   4.472   6.509  0.0632 -1.6138 -1.7433
  132OSM    H1T14196   0.121   4.452   6.442 -2.3948  1.9745  1.7894
  132OSM     NF14197   0.130   4.462   6.714  0.0871 -0.0689 -0.5022
  132OSM    HNF14198   0.034   4.439   6.733 -0.4969  3.2227  0.8970
  132OSM    C2S14199   0.149   4.577   6.620 -0.6334  0.6123 -0.2851
  132OSM    H2S14200   0.232   4.640   6.656  0.6588 -1.6160  0.7704
  132OSM    C3S14201   0.030   4.673   6.609  0.3792 -0.0679 -0.4519
  132OSM    H3S14202  -0.063   4.617   6.588 -2.1029  2.8307  2.2889
  132OSM     O314203   0.039   4.764   6.498  0.1101 -0.1725  0.0288
  132OSM    HO314204   0.108   4.722   6.445  0.0328 -0.6102  0.2780
  132OSM    C4S14205   0.011   4.751   6.734 -0.0129 -0.1296  0.2597
  132OSM    H4S14206  -0.084   4.726   6.784 -0.6556  3.0170  0.6858
  132OSM    C5S14207   0.100   4.841   6.780 -0.1465  0.7027  0.1620
  132OSM    H5S14208   0.188   4.864   6.718 -0.4157  2.8817  0.5523
  132OSM    C6S14209   0.086   4.928   6.906  0.4188  0.0191  0.2137
  132OSM    H6S14210   0.176   4.903   6.966  0.3062 -2.2929 -0.5507
  132OSM    H6T14211  -0.008   4.907   6.962  1.1657  0.9412  1.8522
  132OSM    C7S14212   0.088   5.078   6.876 -0.8039  0.2571 -0.3137
  132OSM    H7S14213  -0.008   5.102   6.826 -1.1252  1.4317  0.8506
  132OSM    H7T14214   0.169   5.101   6.805  1.4705 -1.0127  1.7865
  132OSM    C8S14215   0.104   5.168   7.006  0.2060  0.5389 -0.5014
  132OSM    H8S14216   0.029   5.155   7.087 -1.5913  0.2293 -2.1796
  132OSM    H8T14217   0.062   5.263   6.966 -2.2212  0.2166  1.2059
  132OSM    C9S14218   0.247   5.186   7.058 -0.0146  0.5101  0.6021
  132OSM    H9S14219   0.292   5.254   6.983  1.1010 -2.3914 -1.4374
  132OSM    H9T14220   0.307   5.092   7.056  0.0776  0.5563  1.0783
  132OSM   C10S14221   0.262   5.248   7.195  0.1543 -0.2743 -0.1849
  132OSM   H10S14222   0.194   5.336   7.207 -2.6313 -2.5654  1.7544
  132OSM   H10T14223   0.365   5.280   7.219  0.6889 -0.3385 -2.3152
  132OSM   C11S14224   0.216   5.152   7.304  0.3583 -0.2224 -0.3044
  132OSM   H11S14225   0.274   5.057   7.297 -2.1295 -1.6600 -1.9418
  132OSM   H11T14226   0.110   5.125   7.288  0.4351 -1.8354  1.6753
  132OSM   C12S14227   0.229   5.212   7.443  0.0016 -0.9574 -0.4862
  132OSM   H12S14228   0.181   5.311   7.457 -0.6912 -1.3364 -0.1806
  132OSM   H12T14229   0.339   5.223   7.458 -0.3786  1.7445  0.6577
  132OSM   C13S14230   0.181   5.111   7.553  0.1571  0.4215  0.2427
  132OSM   H13S14231   0.231   5.012   7.549 -2.2975 -0.8562  0.5778
  132OSM   H13T14232   0.073   5.087   7.549  0.1955  0.2941 -0.0814
  132OSM   C14S14233   0.205   5.159   7.695  0.3806 -0.3258 -0.0085
  132OSM   H14S14234   0.184   5.267   7.708 -2.1749 -0.9664  1.5673
  132OSM   H14T14235   0.315   5.150   7.713  0.1232  0.1881  1.8784
  132OSM   C15S14236   0.131   5.071   7.799 -0.4889  0.3072  0.2370
  132OSM   H15S14237   0.118   4.966   7.764  0.9621 -0.7646  2.7146
  132OSM   H15T14238   0.027   5.107   7.809 -0.3811  0.3780  1.1308
  132OSM   C16S14239   0.205   5.055   7.935  0.2434  0.0895 -0.3970
  132OSM   H16S14240   0.296   5.000   7.904 -0.8219 -1.2877 -1.1623
  132OSM   H16T14241   0.144   4.984   7.995  1.6029 -0.7879 -0.0122
  132OSM   C17S14242   0.247   5.182   8.005  0.0470  0.0697 -0.3884
  132OSM   H17S14243   0.162   5.249   8.031  0.2266  0.2029 -0.1381
  132OSM   H17T14244   0.311   5.240   7.935 -0.9839 -0.5970 -1.9045
  132OSM   C18S14245   0.336   5.143   8.125  0.1185  0.1645 -0.0296
  132OSM   H18S14246   0.353   5.224   8.199 -3.3247  0.6846  0.2577
  132OSM   H18T14247   0.436   5.106   8.094  1.0486  1.6777  1.0940
  132OSM   H18U14248   0.285   5.073   8.194  1.1758  2.4861  3.2458
  132OSM    C1F14249   0.224   4.382   6.762 -0.1282 -0.5238 -0.2475
  132OSM     OF14250   0.343   4.399   6.729  0.5574 -0.3107 -0.2785
  132OSM    C2F14251   0.186   4.278   6.869  0.4147  0.0765  0.4544
  132OSM    H2F14252   0.076   4.275   6.880  0.1296  0.4972 -1.9766
  132OSM    H2G14253   0.233   4.312   6.964  1.2541  1.1702 -0.3460
  132OSM    C3F14254   0.227   4.129   6.848 -0.2291 -0.5978  0.1989
  132OSM    H3F14255   0.335   4.125   6.822 -0.4614 -0.5873 -0.7850
  132OSM    H3G14256   0.168   4.093   6.761  0.0088 -3.0716  1.0125
  132OSM    C4F14257   0.208   4.033   6.966 -0.2319  0.6285  0.1774
  132OSM    H4F14258   0.221   3.930   6.926 -1.1774  0.8098 -0.6355
  132OSM    H4G14259   0.104   4.037   7.004 -0.5123 -1.0006 -0.3508
  132OSM    C5F14260   0.301   4.083   7.094  0.0568 -0.4639  0.3592
  132OSM    H5F14261   0.259   4.182   7.124  0.4822  0.0635 -0.7294
  132OSM    H5G14262   0.408   4.090   7.065  0.7913  0.1813  3.1241
  132OSM    C6F14263   0.292   3.986   7.209 -0.2712 -0.0468  0.8407
  132OSM    H6F14264   0.381   3.999   7.274 -0.0752 -0.1986  0.6054
  132OSM    H6G14265   0.279   3.885   7.164  1.3623  0.3758 -0.6380
  132OSM    C7F14266   0.169   4.020   7.301 -0.3624 -0.0856  0.2392
  132OSM    H7F14267   0.078   3.996   7.242  0.4827 -1.5245 -0.5071
  132OSM    H7G14268   0.185   4.129   7.315  0.1265 -0.3757  2.0611
  132OSM    C8F14269   0.155   3.946   7.435  0.5993 -0.0696 -0.0063
  132OSM    H8F14270   0.131   3.841   7.410  0.0536 -0.1101  0.6740
  132OSM    H8G14271   0.058   3.982   7.477  0.0165 -1.4547 -0.1498
  132OSM    C9F14272   0.270   3.938   7.526 -0.0234 -0.1198 -0.2475
  132OSM    H9F14273   0.369   3.932   7.479 -0.6762  2.4738 -2.1094
  132OSM   C10F14274   0.270   3.951   7.659 -0.4888  0.2748 -0.3299
  132OSM   H10F14275   0.371   3.945   7.702 -0.7673 -0.6653  0.2047
  132OSM   C11F14276   0.158   3.974   7.758  0.7126  0.7074  0.3509
  132OSM   H11F14277   0.082   3.893   7.752 -0.1571  1.5551 -0.1823
  132OSM   H11G14278   0.095   4.065   7.744 -0.4944  0.1043  1.7215
  132OSM   C12F14279   0.208   3.985   7.904 -0.2586 -0.3955  0.1440
  132OSM   H12F14280   0.118   4.003   7.966 -0.3634  1.5447 -0.5517
  132OSM   H12G14281   0.280   4.070   7.909 -0.7016  0.0264 -0.5370
  132OSM   C13F14282   0.276   3.855   7.951  0.0177  0.1907  0.2728
  132OSM   H13F14283   0.343   3.810   7.875 -1.0970 -0.5243 -0.2980
  132OSM   H13G14284   0.191   3.786   7.969  1.0848 -1.0021  0.8015
  132OSM   C14F14285   0.363   3.888   8.078 -0.2597  0.7303  0.8841
  132OSM   H14F14286   0.440   3.965   8.056  0.9411 -0.7469 -0.2467
  132OSM   H14G14287   0.416   3.795   8.109  1.1021  0.9843 -0.5835
  132OSM   C15F14288   0.286   3.942   8.200  0.4609  0.3752  0.0584
  132OSM   H15F14289   0.222   3.871   8.256 -0.1698  1.8219  1.2228
  132OSM   H15G14290   0.232   4.036   8.174  0.2541  0.5621  1.1351
  132OSM   C16F14291   0.389   3.991   8.314  0.2039  0.3952  0.7800
  132OSM   H16F14292   0.491   3.948   8.309  0.1710  0.4411 -0.6290
  132OSM   H16G14293   0.348   3.968   8.415 -0.4242 -1.8490  0.0471
  132OSM   C17F14294   0.418   4.141   8.298 -0.0846 -0.1001  0.7224
  132OSM   H17F14295   0.328   4.203   8.320  0.5728  0.4161  1.9658
  132OSM   H17G14296   0.452   4.175   8.198  0.0698  0.5804  1.0077
  132OSM   C18F14297   0.512   4.192   8.400 -0.1843  0.5306 -0.9806
  132OSM   H18F14298   0.538   4.300   8.398  1.1032  0.2244 -1.7995
  132OSM   H18G14299   0.602   4.127   8.396 -1.9338 -1.9601 -1.5298
  132OSM   H18H14300   0.462   4.184   8.498 -0.2735 -2.1730 -1.1856
  133SAPE     N14301   2.635   2.920  10.593 -0.2331  0.3010 -0.0862
  133SAPE   HN114302   2.654   2.935  10.492  0.2167 -1.2934 -0.2465
  133SAPE   HN214303   2.538   2.926  10.630  0.1813  0.4284  1.0209
  133SAPE   HN314304   2.694   2.989  10.645  1.0347 -1.3521  0.7378
  133SAPE   C1214305   2.684   2.781  10.634 -0.7491  0.0180  0.7746
  133SAPE  H12A14306   2.706   2.777  10.743 -3.7235 -0.7616  1.3915
  133SAPE  H12B14307   2.781   2.769  10.582 -1.2991 -1.6016  0.0747
  133SAPE   C1114308   2.601   2.672  10.564 -0.0963 -0.2059 -0.2261
  133SAPE  H11A14309   2.678   2.598  10.533  0.9227  0.4016  0.8224
  133SAPE  H11B14310   2.552   2.715  10.474 -2.4260  1.3217  1.7285
  133SAPE     P14311   2.528   2.484  10.739 -0.0843  0.5760 -0.5636
  133SAPE   O1314312   2.668   2.489  10.790  0.0735 -0.3837 -0.5877
  133SAPE   O1414313   2.415   2.465  10.833 -0.3976 -0.4929 -0.0591
  133SAPE   O1214314   2.502   2.613  10.649  0.0035  0.1034  0.0902
  133SAPE   O1114315   2.518   2.367  10.636  0.0776  0.0228  0.4307
  133SAPE    C114316   2.416   2.330  10.535  0.1620 -0.5358 -0.6182
  133SAPE    HA14317   2.415   2.219  10.524  1.4731 -0.5307 -0.9000
  133SAPE    HB14318   2.317   2.375  10.556  0.1628 -1.0793  0.6077
  133SAPE    C214319   2.464   2.387  10.398  0.1094  0.1800  0.6553
  133SAPE    HS14320   2.497   2.492  10.415  0.5106  0.5106 -1.9073
  133SAPE   O2114321   2.376   2.381  10.293 -0.1643 -0.1188  0.1202
  133SAPE   C2114322   2.265   2.453  10.307 -0.2760  0.6391  0.4655
  133SAPE   O2214323   2.248   2.548  10.381 -0.1088 -0.1102  0.0813
  133SAPE   C2214324   2.172   2.399  10.202  0.4111  0.2909 -0.0498
  133SAPE   H2R14325   2.219   2.413  10.102 -0.6800  2.0220 -0.3432
  133SAPE   H2S14326   2.152   2.292  10.225 -0.5745  0.9947  2.5655
  133SAPE    C314327   2.593   2.311  10.358 -0.4870 -0.2569  0.4053
  133SAPE    HX14328   2.580   2.205  10.387 -1.0302  0.3929  2.6628
  133SAPE    HY14329   2.671   2.350  10.427  0.4649 -0.6608 -0.4382
  133SAPE   O3114330   2.639   2.334  10.226 -0.2675  0.2123 -0.0646
  133SAPE   C3114331   2.691   2.450  10.203 -0.4521  0.5748 -0.1781
  133SAPE   O3214332   2.681   2.547  10.273 -0.3454  0.6745 -0.3534
  133SAPE   C3214333   2.751   2.442  10.060  0.3667 -0.0913 -0.4160
  133SAPE   H2X14334   2.678   2.389   9.995  0.6002 -1.1780  0.1921
  133SAPE   H2Y14335   2.839   2.376  10.080 -0.2991 -1.2954 -1.3666
  133SAPE   C2314336   2.027   2.465  10.195  0.0140  0.4130 -0.0728
  133SAPE   H3R14337   2.039   2.575  10.211  1.1882  0.1246  1.0678
  133SAPE   H3S14338   1.973   2.420  10.281  0.8794  0.0506  0.2875
  133SAPE   C2414339   1.951   2.419  10.075 -0.0065 -0.0177  0.7993
  133SAPE   H4R14340   1.988   2.473   9.985 -0.6466 -0.0879  0.4991
  133SAPE   H4S14341   1.846   2.453  10.087 -0.4870 -0.3281 -2.2179
  133SAPE   C2514342   1.951   2.278  10.042 -0.1586 -0.2657 -0.0381
  133SAPE   H5R14343   1.894   2.227  10.121 -3.1106  2.6263 -0.2152
  133SAPE   C2614344   2.023   2.212   9.947 -0.8723  0.2487 -0.7346
  133SAPE   H6R14345   2.009   2.103   9.941  1.1478  0.0443 -1.9959
  133SAPE   C2714346   2.118   2.275   9.842 -0.3535 -0.3681  0.1659
  133SAPE   H7R14347   2.109   2.386   9.840 -1.6124 -0.4851 -1.5917
  133SAPE   H7S14348   2.066   2.247   9.748  0.6619 -1.0855 -0.1828
  133SAPE   C2814349   2.264   2.230   9.867  0.2245  0.2335  0.0136
  133SAPE   H8R14350   2.300   2.257   9.967  1.0715  2.0346 -0.7647
  133SAPE   C2914351   2.340   2.167   9.778 -0.0077 -0.0315  0.0343
  133SAPE   H9R14352   2.437   2.119   9.797  0.3404  1.4202  2.0722
  133SAPE  C21014353   2.299   2.130   9.638  0.1320 -0.3909 -0.0223
  133SAPE  H10R14354   2.199   2.169   9.610  0.1657  1.1349  1.8570
  133SAPE  H10S14355   2.297   2.020   9.625  3.0313 -0.5317  0.3894
  133SAPE  C21114356   2.398   2.168   9.532 -0.0854 -0.4627  0.8440
  133SAPE  H11R14357   2.499   2.200   9.561 -1.1198  1.4496  2.4175
  133SAPE  C21214358   2.380   2.172   9.393 -0.0505 -0.2118 -0.6250
  133SAPE  H12R14359   2.454   2.233   9.339 -0.1092  0.8606  0.4650
  133SAPE  C21314360   2.252   2.149   9.320 -0.6807 -0.3195 -0.3012
  133SAPE  H13R14361   2.199   2.246   9.336  0.7581  0.3389  0.6292
  133SAPE  H13S14362   2.189   2.068   9.361 -2.8663  0.8669 -1.2102
  133SAPE  C21414363   2.298   2.122   9.171  0.7344 -0.1990 -0.0262
  133SAPE  H14R14364   2.399   2.087   9.146  1.4541  1.8342 -0.1172
  133SAPE  C21514365   2.205   2.122   9.071 -1.1623  0.4784 -0.8853
  133SAPE  H15R14366   2.245   2.096   8.972  0.6471 -0.6107  0.0980
  133SAPE  C21614367   2.054   2.143   9.067  0.4252  0.5597  0.4571
  133SAPE  H16R14368   2.013   2.153   9.170 -1.3822  0.2656 -0.2152
  133SAPE  H16S14369   2.009   2.059   9.011 -0.5563 -0.2742  2.4598
  133SAPE  C21714370   2.004   2.274   9.002 -0.2671  0.3692 -0.2500
  133SAPE  H17R14371   2.032   2.265   8.895  0.2573 -0.6344 -0.0403
  133SAPE  H17S14372   2.067   2.357   9.042  0.5763  0.4303 -1.6927
  133SAPE  C21814373   1.853   2.287   9.023 -0.0453  0.2557 -0.0670
  133SAPE  H18R14374   1.818   2.367   9.092  1.2907  0.8816 -0.1056
  133SAPE  H18S14375   1.810   2.192   9.061  1.5275 -1.0476 -1.4699
  133SAPE  C21914376   1.785   2.335   8.893 -0.6003  0.0641  0.0041
  133SAPE  H19R14377   1.793   2.259   8.813 -0.1023  0.2471 -0.1254
  133SAPE  H19S14378   1.840   2.426   8.859 -2.2368  1.3124  0.6080
  133SAPE  C22014379   1.634   2.374   8.899  0.2966  0.4092  0.5924
  133SAPE  H20R14380   1.610   2.448   8.978 -1.4523 -0.2514  0.7055
  133SAPE  H20S14381   1.578   2.281   8.920  1.2354 -0.2630  0.1622
  133SAPE  H20T14382   1.589   2.413   8.805 -2.6838 -0.5700  1.5472
  133SAPE   C3314383   2.789   2.581  10.004 -0.1450  0.3632  0.4416
  133SAPE   H3X14384   2.834   2.640  10.086  0.2724  1.0339 -0.2628
  133SAPE   H3Y14385   2.696   2.642   9.992 -1.4251 -1.0935  2.5686
  133SAPE   C3414386   2.869   2.581   9.873  0.2439  0.5375 -0.1094
  133SAPE   H4X14387   2.960   2.520   9.891 -0.2020  0.3288  1.4876
  133SAPE   H4Y14388   2.908   2.679   9.836 -0.8374  1.1304  0.2963
  133SAPE   C3514389   2.788   2.526   9.758 -0.1859 -0.4463  0.0707
  133SAPE   H5X14390   2.694   2.583   9.744 -0.4861 -0.9963 -0.2089
  133SAPE   H5Y14391   2.750   2.423   9.777 -1.6348  0.5926  3.1392
  133SAPE   C3614392   2.873   2.530   9.633 -0.2516 -0.1329 -0.4223
  133SAPE   H6X14393   2.959   2.460   9.646  0.3391  0.7712  0.5468
  133SAPE   H6Y14394   2.911   2.628   9.597  0.2322  0.4891  1.7320
  133SAPE   C3714395   2.807   2.458   9.505 -0.2518 -0.3008 -1.0372
  133SAPE   H7X14396   2.711   2.510   9.483 -0.4436 -1.0746 -2.0460
  133SAPE   H7Y14397   2.785   2.354   9.537 -2.5594  0.3673 -0.2811
  133SAPE   C3814398   2.887   2.447   9.383 -0.3724  0.3161  0.2713
  133SAPE   H8X14399   2.830   2.375   9.321 -0.7099 -0.3134  1.3052
  133SAPE   H8Y14400   2.983   2.392   9.399 -0.9984 -0.8619  0.0606
  133SAPE   C3914401   2.908   2.578   9.305  0.2062 -0.0741 -0.0158
  133SAPE   H9X14402   2.992   2.642   9.341  2.5378 -1.5141 -2.6951
  133SAPE   H9Y14403   2.813   2.635   9.302  0.6508  0.7043  0.4821
  133SAPE  C31014404   2.964   2.551   9.158 -1.1284 -0.4237  0.4937
  133SAPE  H10X14405   3.058   2.493   9.172 -1.4303 -0.6391  1.7285
  133SAPE  H10Y14406   2.996   2.653   9.128  1.8060 -1.4951 -0.1690
  133SAPE  C31114407   2.868   2.493   9.057  0.3892  0.1043  0.6709
  133SAPE  H11X14408   2.811   2.583   9.024 -0.0995 -0.6305 -0.5233
  133SAPE  H11Y14409   2.807   2.415   9.106 -0.4928  1.0651  1.1284
  133SAPE  C31214410   2.944   2.409   8.948  0.1255  0.2383 -0.4546
  133SAPE  H12X14411   2.898   2.312   8.922  4.1561 -2.7782  3.0118
  133SAPE  H12Y14412   3.036   2.372   8.997 -0.2175 -1.5513 -1.1318
  133SAPE  C31314413   2.970   2.491   8.822 -0.3943  0.3544 -0.2334
  133SAPE  H13X14414   3.055   2.560   8.842  0.3408  0.4135 -3.3326
  133SAPE  H13Y14415   2.872   2.540   8.802 -1.0524 -0.8150  0.0691
  133SAPE  C31414416   3.022   2.397   8.710  0.4642  0.1809 -0.0855
  133SAPE  H14X14417   2.949   2.314   8.703 -0.1876  0.9099 -2.1784
  133SAPE  H14Y14418   3.114   2.349   8.749  0.1774 -0.7921 -0.6169
  133SAPE  C31514419   3.044   2.465   8.574  0.0612  0.0835 -0.2426
  133SAPE  H15X14420   3.132   2.533   8.577  1.9474 -2.1817 -2.1119
  133SAPE  H15Y14421   2.960   2.531   8.545 -0.6480 -0.5878  0.2764
  133SAPE  C31614422   3.079   2.378   8.450 -0.1140  0.0286  0.5094
  133SAPE  H16X14423   3.002   2.299   8.435 -0.5889  0.5798  0.0361
  133SAPE  H16Y14424   3.177   2.329   8.472 -0.9479 -0.5267  3.1991
  133SAPE  C31714425   3.086   2.465   8.318  1.0673 -0.4523 -0.5894
  133SAPE  H17X14426   2.983   2.496   8.288  2.2238  3.2815 -0.9810
  133SAPE  H17Y14427   3.108   2.386   8.243 -1.0741 -1.7535  0.0798
  133SAPE  C31814428   3.179   2.586   8.316 -0.6848 -0.5820  0.2380
  133SAPE  H18X14429   3.286   2.554   8.314  0.3290  2.6973 -2.2564
  133SAPE  H18Y14430   3.183   2.636   8.415 -1.1860  0.5747 -0.3133
  133SAPE  H18Z14431   3.156   2.661   8.238 -1.7773 -2.1475 -0.9838
  134SAPE     N14432   6.250   3.305  10.855 -0.0306 -0.0906 -0.2524
  134SAPE   HN114433   6.337   3.298  10.913  1.5123  1.5160 -2.2864
  134SAPE   HN214434   6.251   3.227  10.786  0.8793  0.1526 -0.5242
  134SAPE   HN314435   6.247   3.393  10.800  0.2865 -1.0263 -1.7783
  134SAPE   C1214436   6.124   3.295  10.949 -0.6873 -0.5939  0.9231
  134SAPE  H12A14437   6.124   3.393  11.002 -0.8716  0.2020 -0.5153
  134SAPE  H12B14438   6.143   3.214  11.022 -0.2190 -1.6081 -0.3064
  134SAPE   C1114439   5.991   3.270  10.874 -0.1410  1.1967 -0.4458
  134SAPE  H11A14440   5.957   3.326  10.784 -2.3882 -0.7139 -0.8363
  134SAPE  H11B14441   5.905   3.303  10.936 -0.5261  1.3870 -1.0745
  134SAPE     P14442   5.877   3.033  10.838  0.3969  0.1674  0.0017
  134SAPE   O1314443   5.868   2.966  10.969 -0.0278 -0.0759 -0.1316
  134SAPE   O1414444   5.752   3.097  10.790  0.1835 -0.2392 -0.5247
  134SAPE   O1214445   5.995   3.130  10.843  0.6830  0.1444 -0.3157
  134SAPE   O1114446   5.925   2.923  10.744 -0.2639  0.2403  0.3042
  134SAPE    C114447   6.036   2.913  10.650 -0.0984  0.2844 -0.2027
  134SAPE    HA14448   6.031   2.998  10.578  2.3423  0.4113 -0.2743
  134SAPE    HB14449   6.133   2.911  10.705  0.3288  2.9198 -0.7910
  134SAPE    C214450   6.028   2.785  10.556 -0.1244  0.0128 -0.2876
  134SAPE    HS14451   6.123   2.765  10.503 -0.8159 -0.4339 -1.3697
  134SAPE   O2114452   5.917   2.812  10.465  0.4578 -0.2911 -0.5686
  134SAPE   C2114453   5.947   2.831  10.336  0.2569  0.1984 -0.1341
  134SAPE   O2214454   6.054   2.805  10.280 -0.2578  0.0963  0.7535
  134SAPE   C2214455   5.834   2.892  10.266  0.0787  0.6862  0.3375
  134SAPE   H2R14456   5.742   2.829  10.266  0.4206  0.1446 -1.6025
  134SAPE   H2S14457   5.803   2.985  10.318  2.0623  1.1619  0.6742
  134SAPE    C314458   6.001   2.658  10.646 -0.5344 -0.5348 -0.3004
  134SAPE    HX14459   5.906   2.678  10.702 -1.3457 -0.7046 -1.5883
  134SAPE    HY14460   6.063   2.647  10.738 -2.1381  0.1655  0.9088
  134SAPE   O3114461   5.988   2.533  10.570  0.5668  0.0400 -0.1372
  134SAPE   C3114462   6.108   2.484  10.532 -0.1919  0.0446 -0.5145
  134SAPE   O3214463   6.216   2.531  10.563  0.5915 -0.5344  0.8237
  134SAPE   C3214464   6.087   2.359  10.448 -0.1678 -0.3634  0.9434
  134SAPE   H2X14465   5.998   2.310  10.493  0.3580 -1.4129  0.8557
  134SAPE   H2Y14466   6.181   2.301  10.442 -0.1952 -0.3169 -0.0626
  134SAPE   C2314467   5.868   2.924  10.116  1.2483 -0.2995 -0.3107
  134SAPE   H3R14468   5.898   2.834  10.059  0.7550 -0.6455 -0.0225
  134SAPE   H3S14469   5.956   2.992  10.123  1.4417 -0.7064  1.4957
  134SAPE   C2414470   5.751   2.988  10.040 -1.0596  0.1291 -0.7043
  134SAPE   H4R14471   5.786   3.037   9.947 -1.9702 -1.1804 -1.7584
  134SAPE   H4S14472   5.723   3.070  10.109 -0.9775 -1.4389  1.2453
  134SAPE   C2514473   5.630   2.892  10.021  0.4371 -0.4422 -0.9983
  134SAPE   H5R14474   5.573   2.855  10.107  0.1735  1.3608 -0.3862
  134SAPE   C2614475   5.568   2.871   9.899 -0.5040  0.4151  0.1558
  134SAPE   H6R14476   5.484   2.801   9.887 -1.2766  1.6565 -1.8932
  134SAPE   C2714477   5.608   2.926   9.769 -0.1961 -0.1544  0.2558
  134SAPE   H7R14478   5.714   2.959   9.767 -0.6435  1.3905 -3.4968
  134SAPE   H7S14479   5.558   3.023   9.746  1.0962  0.7569  1.2030
  134SAPE   C2814480   5.568   2.848   9.637 -0.5305  0.7666 -0.3844
  134SAPE   H8R14481   5.623   2.753   9.634 -0.6181  0.7094 -0.1707
  134SAPE   C2914482   5.486   2.889   9.539 -0.5304  0.2303 -0.2610
  134SAPE   H9R14483   5.494   2.831   9.447 -0.6145  0.5055 -0.4421
  134SAPE  C21014484   5.402   3.015   9.524 -0.3343 -0.2817  0.7666
  134SAPE  H10R14485   5.462   3.104   9.496 -0.8910 -0.5336 -1.3274
  134SAPE  H10S14486   5.352   3.039   9.620 -0.2737  0.9275  0.5092
  134SAPE  C21114487   5.293   3.003   9.421 -0.2018  0.6635  0.6531
  134SAPE  H11R14488   5.195   2.970   9.459 -0.6008 -0.9556 -1.6651
  134SAPE  C21214489   5.316   3.015   9.287 -0.1441  0.8723 -0.1404
  134SAPE  H12R14490   5.228   3.000   9.223 -1.8656 -0.1957  2.3650
  134SAPE  C21314491   5.445   3.027   9.217 -0.5153  0.6735  0.6860
  134SAPE  H13R14492   5.532   3.045   9.285 -0.5115 -0.7037  1.0617
  134SAPE  H13S14493   5.443   3.110   9.144 -1.1800  0.6520  0.6860
  134SAPE  C21414494   5.482   2.903   9.130  0.0680 -0.0452  0.1498
  134SAPE  H14R14495   5.487   2.806   9.182 -0.6916 -1.1798 -1.7854
  134SAPE  C21514496   5.524   2.903   9.003 -0.0434 -0.8776 -0.2078
  134SAPE  H15R14497   5.524   2.808   8.948  0.0552 -1.7869  1.3376
  134SAPE  C21614498   5.547   3.022   8.913  0.5313 -0.2556 -0.3239
  134SAPE  H16R14499   5.654   3.038   8.890  0.4922 -0.9680 -1.0292
  134SAPE  H16S14500   5.515   3.115   8.965  0.5236 -0.1257 -0.5603
  134SAPE  C21714501   5.454   3.015   8.787 -0.6426  0.1900  0.1549
  134SAPE  H17R14502   5.507   2.943   8.722  1.5490  0.5434  1.5124
  134SAPE  H17S14503   5.466   3.115   8.741  1.2426  0.8693  2.0433
  134SAPE  C21814504   5.312   2.959   8.815  0.2005 -0.5216  0.4697
  134SAPE  H18R14505   5.255   3.028   8.881  0.0117 -0.2995  0.0776
  134SAPE  H18S14506   5.314   2.857   8.858 -0.5610 -0.4385  0.7103
  134SAPE  C21914507   5.236   2.940   8.686 -0.5429  0.5486  0.3999
  134SAPE  H19R14508   5.273   3.016   8.615  1.2451 -0.6006  0.0684
  134SAPE  H19S14509   5.130   2.970   8.702 -1.1333 -2.0387  1.7860
  134SAPE  C22014510   5.258   2.797   8.628  0.1397  0.1904  0.3098
  134SAPE  H20R14511   5.366   2.768   8.627 -0.6218 -2.7895 -1.8898
  134SAPE  H20S14512   5.218   2.800   8.524 -0.6461 -5.0853  0.3268
  134SAPE  H20T14513   5.211   2.720   8.693 -0.6895  0.7310  0.3548
  134SAPE   C3314514   6.051   2.383  10.304 -0.9360 -0.6126 -0.0902
  134SAPE   H3X14515   6.059   2.288  10.248  1.9259 -0.0547 -0.6987
  134SAPE   H3Y14516   6.125   2.453  10.259  0.4666 -1.0254  1.5414
  134SAPE   C3414517   5.904   2.430  10.277 -0.4526 -0.6958  0.8540
  134SAPE   H4X14518   5.871   2.516  10.338 -1.3766 -1.0323  0.8319
  134SAPE   H4Y14519   5.834   2.347  10.302  0.1466 -1.0533  1.3491
  134SAPE   C3514520   5.874   2.476  10.135 -0.2880 -0.6713 -0.3758
  134SAPE   H5X14521   5.900   2.396  10.062  0.9246  1.0265 -1.8428
  134SAPE   H5Y14522   5.931   2.567  10.110 -2.7422  0.5226 -1.7882
  134SAPE   C3614523   5.721   2.501  10.109 -0.2613 -0.0457  0.0626
  134SAPE   H6X14524   5.687   2.575  10.185 -0.2561 -1.4621  1.4622
  134SAPE   H6Y14525   5.663   2.407  10.111 -2.1060  1.0168 -1.4716
  134SAPE   C3714526   5.695   2.544   9.960 -1.1624  0.1279  0.2694
  134SAPE   H7X14527   5.754   2.635   9.935  0.8985 -0.9884  1.0616
  134SAPE   H7Y14528   5.590   2.579   9.945 -1.0207 -0.7925 -3.3108
  134SAPE   C3814529   5.714   2.431   9.858 -0.1286  0.0952  0.3299
  134SAPE   H8X14530   5.664   2.339   9.894 -0.3267  0.7351  1.7328
  134SAPE   H8Y14531   5.820   2.400   9.847  0.0366  0.4918  0.7663
  134SAPE   C3914532   5.661   2.462   9.725 -0.7295  0.7184  0.5087
  134SAPE   H9X14533   5.718   2.555   9.702 -0.4092  0.3393 -0.2215
  134SAPE   H9Y14534   5.555   2.495   9.731 -0.7624  0.6294  0.4067
  134SAPE  C31014535   5.697   2.371   9.603 -0.3610 -1.0415  0.0317
  134SAPE  H10X14536   5.637   2.278   9.598  0.0336 -1.2831 -0.1405
  134SAPE  H10Y14537   5.805   2.345   9.598  0.7171  3.2510 -0.8242
  134SAPE  C31114538   5.653   2.449   9.472 -0.2784  0.4248  0.2064
  134SAPE  H11X14539   5.703   2.548   9.468 -0.8519  0.6879 -0.7158
  134SAPE  H11Y14540   5.543   2.460   9.486  0.0287  0.2009  3.0587
  134SAPE  C31214541   5.697   2.363   9.355  0.3266  0.0042 -0.1049
  134SAPE  H12X14542   5.643   2.266   9.354  1.2084 -0.4946  0.7250
  134SAPE  H12Y14543   5.802   2.327   9.353  0.0372 -0.9463  1.6719
  134SAPE  C31314544   5.674   2.431   9.219 -0.4281  0.9063 -0.3525
  134SAPE  H13X14545   5.702   2.356   9.142 -0.7961  1.6625 -1.2280
  134SAPE  H13Y14546   5.756   2.502   9.193  1.2786 -0.2170  1.8162
  134SAPE  C31414547   5.535   2.500   9.201 -0.2179  0.3417 -0.6713
  134SAPE  H14X14548   5.532   2.585   9.273  1.6720 -0.2886  0.2095
  134SAPE  H14Y14549   5.452   2.431   9.226 -0.1959  1.5587  3.0382
  134SAPE  C31514550   5.519   2.538   9.056 -0.3672  0.3847  0.0481
  134SAPE  H15X14551   5.618   2.584   9.033 -0.2350  0.9593  1.7351
  134SAPE  H15Y14552   5.437   2.612   9.055  0.2800  1.1122 -1.0205
  134SAPE  C31614553   5.474   2.430   8.960 -0.1861  0.1636  0.3726
  134SAPE  H16X14554   5.383   2.385   9.004  0.2791 -0.4350  0.7147
  134SAPE  H16Y14555   5.556   2.357   8.947 -0.2218  0.3151 -0.8092
  134SAPE  C31714556   5.444   2.491   8.819  0.6669 -0.3290  0.3376
  134SAPE  H17X14557   5.540   2.541   8.794 -0.1149 -0.0841 -2.3676
  134SAPE  H17Y14558   5.371   2.575   8.826  2.5843  1.2660  1.6550
  134SAPE  C31814559   5.411   2.383   8.720 -0.3878 -0.3736 -0.3120
  134SAPE  H18X14560   5.400   2.420   8.615 -1.1431  0.8398  0.1781
  134SAPE  H18Y14561   5.314   2.339   8.752 -0.4092 -1.1486 -1.3850
  134SAPE  H18Z14562   5.486   2.301   8.722 -0.0729 -0.2097 -2.9342
  135SAPE     N14563   4.867   0.589  10.711  0.7674 -0.0886 -0.0187
  135SAPE   HN114564   4.872   0.558  10.612  0.4963 -0.3797  0.0596
  135SAPE   HN214565   4.827   0.514  10.771 -1.1287 -0.2781 -1.4837
  135SAPE   HN314566   4.800   0.666  10.729  1.2198 -0.0051  1.3389
  135SAPE   C1214567   5.000   0.616  10.775 -0.3594 -0.0205  0.0464
  135SAPE  H12A14568   5.062   0.530  10.743 -2.2822 -0.7392 -1.7723
  135SAPE  H12B14569   4.979   0.623  10.884 -1.2868  2.3141 -0.2614
  135SAPE   C1114570   5.059   0.744  10.724  0.1665  0.7948 -1.1232
  135SAPE  H11A14571   5.162   0.749  10.765 -0.0347  0.4497 -0.5715
  135SAPE  H11B14572   5.003   0.832  10.761  0.0126  1.0482 -1.9572
  135SAPE     P14573   5.138   0.865  10.505  0.1123  0.1434 -0.2787
  135SAPE   O1314574   5.074   0.992  10.515 -0.2680  0.0260  0.0067
  135SAPE   O1414575   5.281   0.864  10.543  0.0296  1.0054  0.2560
  135SAPE   O1214576   5.059   0.752  10.588  0.0190 -0.2618 -0.1591
  135SAPE   O1114577   5.113   0.809  10.360 -0.1191  0.1755 -0.0735
  135SAPE    C114578   4.986   0.809  10.292  0.0879 -0.1641 -0.5392
  135SAPE    HA14579   4.985   0.712  10.238 -0.6639  0.5971 -1.9064
  135SAPE    HB14580   4.904   0.798  10.366 -1.4166 -1.5683 -2.3900
  135SAPE    C214581   4.968   0.923  10.191 -0.0732  0.1057 -0.3090
  135SAPE    HS14582   4.901   0.992  10.247 -0.5806 -1.1959  0.7331
  135SAPE   O2114583   4.903   0.864  10.075  0.9072 -0.0307 -0.0623
  135SAPE   C2114584   4.826   0.943  10.020  0.2894 -0.5724 -0.2242
  135SAPE   O2214585   4.791   1.052  10.066 -0.8663  0.5219  0.1147
  135SAPE   C2214586   4.776   0.880   9.892  0.3374  0.1259 -0.1294
  135SAPE   H2R14587   4.778   0.769   9.893 -0.6574  0.1013 -0.0174
  135SAPE   H2S14588   4.665   0.886   9.899  0.3462 -1.0310  1.0967
  135SAPE    C314589   5.103   0.994  10.148 -0.2271 -0.0798 -0.0006
  135SAPE    HX14590   5.175   0.923  10.104 -0.7074 -1.5366  1.5270
  135SAPE    HY14591   5.157   1.023  10.240  0.0224 -1.3915  0.2777
  135SAPE   O3114592   5.088   1.103  10.058 -0.0205 -0.7553  0.0259
  135SAPE   C3114593   5.032   1.210  10.116 -0.1584  0.5960 -0.4155
  135SAPE   O3214594   5.014   1.228  10.236 -0.3184 -0.1519  0.5136
  135SAPE   C3214595   4.997   1.314  10.012  0.0592  0.2860 -0.5995
  135SAPE   H2X14596   4.985   1.258   9.917 -1.1995 -1.0250  0.3077
  135SAPE   H2Y14597   5.082   1.383   9.998 -0.1752  1.0904  1.6842
  135SAPE   C2314598   4.808   0.948   9.755  0.1240  0.9438 -0.0855
  135SAPE   H3R14599   4.808   1.059   9.758  1.4868  0.9394  0.4099
  135SAPE   H3S14600   4.730   0.912   9.684  0.3691  0.4989 -0.1269
  135SAPE   C2414601   4.947   0.900   9.707 -0.3573 -0.7189  0.0571
  135SAPE   H4R14602   4.973   0.948   9.611 -0.0472  1.3405  1.1383
  135SAPE   H4S14603   4.950   0.791   9.689 -0.2455 -0.7240  0.1091
  135SAPE   C2514604   5.065   0.936   9.798 -0.2032  1.1991  0.5483
  135SAPE   H5R14605   5.052   1.026   9.860 -1.7667  2.2458 -1.2635
  135SAPE   C2614606   5.184   0.880   9.812 -0.0521  0.2636  0.3163
  135SAPE   H6R14607   5.241   0.928   9.892  1.0224 -0.6821  0.1371
  135SAPE   C2714608   5.248   0.762   9.736 -0.4335  0.3970  0.4203
  135SAPE   H7R14609   5.339   0.801   9.685 -0.2108 -0.7320 -0.0412
  135SAPE   H7S14610   5.189   0.713   9.656 -0.3880 -1.3514  1.4399
  135SAPE   C2814611   5.302   0.660   9.831  0.2681  0.0401 -0.0577
  135SAPE   H8R14612   5.288   0.673   9.939 -0.0941  1.2247 -0.2379
  135SAPE   C2914613   5.384   0.556   9.800 -0.7185 -0.0481  0.1487
  135SAPE   H9R14614   5.420   0.491   9.882  0.6724 -0.2000 -0.5740
  135SAPE  C21014615   5.428   0.509   9.664 -0.5901 -0.4032 -0.0912
  135SAPE  H10R14616   5.532   0.473   9.678 -0.9628 -2.0990 -1.4047
  135SAPE  H10S14617   5.449   0.599   9.603  1.7893 -1.4987 -0.9618
  135SAPE  C21114618   5.343   0.415   9.582  0.0889 -0.2155 -0.6510
  135SAPE  H11R14619   5.292   0.338   9.640  0.8636 -0.5092 -0.3488
  135SAPE  C21214620   5.334   0.411   9.445  1.1772 -0.0635 -0.5042
  135SAPE  H12R14621   5.265   0.338   9.402 -0.2083  0.0044  1.5388
  135SAPE  C21314622   5.410   0.488   9.341 -0.3743  0.2308 -0.0650
  135SAPE  H13R14623   5.437   0.410   9.267 -4.0866 -2.4953  1.2660
  135SAPE  H13S14624   5.495   0.536   9.394  1.9991 -1.1168 -2.5453
  135SAPE  C21414625   5.324   0.600   9.283  0.0148  0.6383 -0.2594
  135SAPE  H14R14626   5.229   0.625   9.333 -0.7495 -1.9457 -0.3264
  135SAPE  C21514627   5.356   0.666   9.169  0.1154 -0.2329  0.4099
  135SAPE  H15R14628   5.283   0.744   9.141  1.0474  1.1437  1.7215
  135SAPE  C21614629   5.479   0.646   9.080 -0.5185 -0.0021  0.8566
  135SAPE  H16R14630   5.523   0.544   9.083 -1.2840 -0.3482  0.3701
  135SAPE  H16S14631   5.567   0.705   9.113 -1.4587  1.3927  0.8848
  135SAPE  C21714632   5.456   0.706   8.945 -0.0646 -0.2040 -0.5758
  135SAPE  H17R14633   5.443   0.816   8.952  1.2753 -0.0586 -0.3286
  135SAPE  H17S14634   5.358   0.671   8.905 -0.8765  1.2071  0.1476
  135SAPE  C21814635   5.555   0.686   8.829  0.1925  0.4383  0.2945
  135SAPE  H18R14636   5.586   0.579   8.836  1.0275  0.7310  1.2503
  135SAPE  H18S14637   5.644   0.751   8.845  0.0510  1.0734 -1.3964
  135SAPE  C21914638   5.507   0.722   8.684 -0.5528 -0.3127 -0.3498
  135SAPE  H19R14639   5.594   0.723   8.614  0.4684 -0.2718  0.9030
  135SAPE  H19S14640   5.465   0.825   8.687 -0.4066 -0.2532 -0.3406
  135SAPE  C22014641   5.390   0.636   8.627  0.1551  0.1354 -0.0672
  135SAPE  H20R14642   5.408   0.534   8.668  2.5226 -0.1053 -1.5800
  135SAPE  H20S14643   5.385   0.632   8.516 -0.8025 -0.9556  0.0069
  135SAPE  H20T14644   5.293   0.668   8.669  0.0382  1.7419 -1.5195
  135SAPE   C3314645   4.871   1.393  10.046 -0.0609  0.1383 -0.0018
  135SAPE   H3X14646   4.871   1.448  10.142 -0.5002  0.9857 -0.4764
  135SAPE   H3Y14647   4.792   1.316  10.054  1.1703 -1.8205 -4.8373
  135SAPE   C3414648   4.830   1.496   9.938  0.4864  0.4852 -0.5413
  135SAPE   H4X14649   4.917   1.564   9.923  2.1510 -1.8476 -1.7850
  135SAPE   H4Y14650   4.740   1.550   9.975 -0.4269 -1.8238  0.7325
  135SAPE   C3514651   4.808   1.441   9.797  0.5364  0.2433  0.3970
  135SAPE   H5X14652   4.901   1.395   9.756  0.4010  0.4806 -0.1819
  135SAPE   H5Y14653   4.777   1.535   9.747 -0.9087 -0.8217 -0.7583
  135SAPE   C3614654   4.696   1.336   9.792 -0.0561 -0.1727  0.2594
  135SAPE   H6X14655   4.598   1.376   9.825  0.2132  0.3299  0.4581
  135SAPE   H6Y14656   4.714   1.244   9.852 -0.0779  0.1441  0.7551
  135SAPE   C3714657   4.685   1.300   9.637 -0.0477 -0.2023 -0.0613
  135SAPE   H7X14658   4.788   1.263   9.617  0.5925 -0.0567  2.7299
  135SAPE   H7Y14659   4.670   1.383   9.565 -0.0295  0.0118  0.1771
  135SAPE   C3814660   4.582   1.186   9.613  0.2255 -0.6902  0.2479
  135SAPE   H8X14661   4.486   1.225   9.653  1.4686 -0.7616  3.4897
  135SAPE   H8Y14662   4.606   1.102   9.683  1.2588 -0.4611  0.1866
  135SAPE   C3914663   4.580   1.144   9.467 -0.1342  0.2398  0.1009
  135SAPE   H9X14664   4.531   1.044   9.460  0.6990 -0.0334 -2.4403
  135SAPE   H9Y14665   4.688   1.148   9.440  0.2625 -1.8801  1.2812
  135SAPE  C31014666   4.495   1.213   9.365  0.3906  0.1252 -0.5974
  135SAPE  H10X14667   4.536   1.312   9.337 -1.0445  0.2894 -2.2205
  135SAPE  H10Y14668   4.405   1.225   9.428 -0.4339 -2.1826 -1.2751
  135SAPE  C31114669   4.460   1.137   9.241 -0.3415 -0.4453 -0.2696
  135SAPE  H11X14670   4.419   1.041   9.280  1.6833 -1.5275 -0.7403
  135SAPE  H11Y14671   4.545   1.115   9.173  0.9852  0.7060  1.0057
  135SAPE  C31214672   4.362   1.209   9.153  0.3702 -0.4994  0.7346
  135SAPE  H12X14673   4.422   1.296   9.118 -0.7098 -0.3424 -0.7525
  135SAPE  H12Y14674   4.277   1.248   9.214  1.1633 -0.2725  1.7107
  135SAPE  C31314675   4.309   1.117   9.039  0.7268 -0.5552 -0.8093
  135SAPE  H13X14676   4.234   1.044   9.078 -1.4701  0.5991 -2.7318
  135SAPE  H13Y14677   4.393   1.064   8.989  1.5212 -1.0431  1.0055
  135SAPE  C31414678   4.248   1.203   8.931 -0.6031 -0.6554 -0.1697
  135SAPE  H14X14679   4.323   1.276   8.893 -2.0176  1.0545  0.2598
  135SAPE  H14Y14680   4.166   1.260   8.978 -1.6483 -2.6791  0.4952
  135SAPE  C31514681   4.180   1.127   8.821  0.0900 -0.9535 -0.6099
  135SAPE  H15X14682   4.124   1.195   8.752 -2.3495 -0.6995  1.5609
  135SAPE  H15Y14683   4.107   1.059   8.871  3.2683 -3.5683  0.6069
  135SAPE  C31614684   4.266   1.042   8.727 -0.4602 -0.1864 -0.7340
  135SAPE  H16X14685   4.316   0.969   8.795 -1.1855  1.2619  1.3901
  135SAPE  H16Y14686   4.355   1.098   8.689 -0.1316 -0.3603 -0.2267
  135SAPE  C31714687   4.186   0.988   8.604 -0.0362  0.0610  0.1020
  135SAPE  H17X14688   4.168   1.074   8.536  1.0130  0.5851  0.4840
  135SAPE  H17Y14689   4.081   0.974   8.640 -0.1294  4.4554  1.8734
  135SAPE  C31814690   4.233   0.868   8.532  0.7144 -0.2964 -0.5635
  135SAPE  H18X14691   4.264   0.783   8.596  0.4159  0.3020  0.3852
  135SAPE  H18Y14692   4.311   0.891   8.457  1.2245 -1.2818 -0.3413
  135SAPE  H18Z14693   4.147   0.823   8.478 -0.8558  1.6484  0.2197
  136SAPE     N14694   0.343   0.885  10.722  0.7612  0.1466 -0.0151
  136SAPE   HN114695   0.364   0.898  10.621 -1.6467  0.2450 -0.5256
  136SAPE   HN214696   0.276   0.962  10.745 -0.4520 -0.3473 -1.8094
  136SAPE   HN314697   0.423   0.891  10.788 -0.2098 -3.2521  1.6021
  136SAPE   C1214698   0.271   0.751  10.738 -0.2892  0.1704 -0.1716
  136SAPE  H12A14699   0.178   0.749  10.677  0.5483 -0.0997 -1.4691
  136SAPE  H12B14700   0.239   0.743  10.844  0.7080  1.0532  0.2042
  136SAPE   C1114701   0.366   0.631  10.701 -0.3321  0.3341 -0.2096
  136SAPE  H11A14702   0.387   0.646  10.593 -1.0634  0.3651 -0.3514
  136SAPE  H11B14703   0.294   0.547  10.691 -0.0558  0.0151  0.4581
  136SAPE     P14704   0.608   0.678  10.754  0.3910  0.1965 -0.0772
  136SAPE   O1314705   0.586   0.824  10.742 -0.1416 -0.4227  0.4839
  136SAPE   O1414706   0.716   0.640  10.852  0.2122 -0.2536  0.2957
  136SAPE   O1214707   0.472   0.602  10.796  0.0382  0.3276 -0.7246
  136SAPE   O1114708   0.642   0.611  10.617  0.3287  0.3797  0.3735
  136SAPE    C114709   0.737   0.498  10.618  0.1034  0.6092  0.2725
  136SAPE    HA14710   0.840   0.536  10.603  0.4424 -0.1586  0.6147
  136SAPE    HB14711   0.728   0.440  10.712 -0.0050 -0.5249 -0.4347
  136SAPE    C214712   0.715   0.416  10.495  0.3981  0.1790 -0.0742
  136SAPE    HS14713   0.785   0.330  10.492 -2.2923 -2.1012 -0.1704
  136SAPE   O2114714   0.714   0.494  10.377  0.6962  0.2432 -0.2068
  136SAPE   C2114715   0.838   0.507  10.325 -0.2537 -0.0915  0.5610
  136SAPE   O2214716   0.936   0.445  10.364 -0.2973  0.1792  0.1402
  136SAPE   C2214717   0.837   0.599  10.207  0.9256  0.3751  0.1106
  136SAPE   H2R14718   0.784   0.543  10.126 -2.0003 -0.2263  2.3469
  136SAPE   H2S14719   0.781   0.688  10.242 -0.5131 -0.6725  0.5190
  136SAPE    C314720   0.576   0.347  10.503  0.2326 -0.5178  0.0933
  136SAPE    HX14721   0.507   0.431  10.527 -2.9910 -3.3550  1.0587
  136SAPE    HY14722   0.562   0.286  10.595 -2.3280 -1.3513 -0.8241
  136SAPE   O3114723   0.532   0.278  10.390 -0.0402 -0.5001 -0.5609
  136SAPE   C3114724   0.582   0.155  10.374 -0.4960 -0.0143  0.4295
  136SAPE   O3214725   0.672   0.101  10.434  0.3014  0.4195 -0.0507
  136SAPE   C3214726   0.511   0.089  10.261  0.2691  0.5862 -0.1325
  136SAPE   H2X14727   0.492   0.167  10.183  1.9846  0.0422 -1.1323
  136SAPE   H2Y14728   0.412   0.057  10.299 -0.3033  0.3475 -1.7697
  136SAPE   C2314729   0.973   0.634  10.156 -0.9451  0.1908 -0.3286
  136SAPE   H3R14730   1.038   0.546  10.133  0.0515  0.3774  1.6304
  136SAPE   H3S14731   1.023   0.678  10.245  2.4021 -1.0381 -1.4815
  136SAPE   C2414732   0.977   0.743  10.046  0.1344 -0.8611  0.4734
  136SAPE   H4R14733   0.889   0.729   9.980  0.4101 -0.8043  0.0931
  136SAPE   H4S14734   1.060   0.730   9.973  0.5227 -1.2315  0.9713
  136SAPE   C2514735   0.969   0.887  10.099  0.5452 -0.1879 -0.1035
  136SAPE   H5R14736   0.883   0.915  10.162  0.8382 -0.3969  0.3962
  136SAPE   C2614737   1.056   0.988  10.078  0.0640  0.2365  0.4092
  136SAPE   H6R14738   1.022   1.085  10.116  0.0768  1.3983 -2.4600
  136SAPE   C2714739   1.181   0.981  10.002 -0.3181  0.5252  0.5356
  136SAPE   H7R14740   1.164   0.959   9.894  3.0295 -2.2133  0.5049
  136SAPE   H7S14741   1.252   0.904  10.037 -0.0761  0.3468 -0.3438
  136SAPE   C2814742   1.264   1.113   9.999  0.5798  0.0596 -0.2876
  136SAPE   H8R14743   1.283   1.152   9.898 -0.9104 -0.5126 -0.8034
  136SAPE   C2914744   1.326   1.179  10.103  0.7061 -0.6171 -0.0328
  136SAPE   H9R14745   1.384   1.271  10.088  0.2892 -0.1002  1.4728
  136SAPE  C21014746   1.326   1.143  10.247  0.3771 -0.0393 -0.1841
  136SAPE  H10R14747   1.339   1.034  10.261  0.0307 -0.3489 -2.1763
  136SAPE  H10S14748   1.224   1.159  10.287  0.6069 -0.1063  0.4340
  136SAPE  C21114749   1.427   1.219  10.326  0.9179  0.2292  0.5826
  136SAPE  H11R14750   1.418   1.329  10.327  0.5551  0.1973  1.1708
  136SAPE  C21214751   1.537   1.165  10.384  0.2736  0.7009 -0.4993
  136SAPE  H12R14752   1.615   1.233  10.420 -0.9005  1.3984  0.7685
  136SAPE  C21314753   1.578   1.023  10.388  0.7473  1.0866 -0.4918
  136SAPE  H13R14754   1.663   1.008  10.319  1.7470 -0.6828  1.0755
  136SAPE  H13S14755   1.504   0.955  10.340 -0.3357  1.7970  0.1480
  136SAPE  C21414756   1.614   0.966  10.518  0.0009 -0.1205  0.2079
  136SAPE  H14R14757   1.536   0.901  10.561  1.3275 -1.1413  1.0989
  136SAPE  C21514758   1.731   0.976  10.585  0.4991  0.3792  0.2498
  136SAPE  H15R14759   1.739   0.912  10.675  1.3622 -0.1299 -0.1821
  136SAPE  C21614760   1.854   1.053  10.539  0.0970  0.4189 -0.3295
  136SAPE  H16R14761   1.833   1.127  10.459 -0.7883 -1.1140 -1.5609
  136SAPE  H16S14762   1.919   0.978  10.489 -0.9139  0.1162 -1.2204
  136SAPE  C21714763   1.938   1.126  10.653 -0.4423 -0.1763 -0.2883
  136SAPE  H17R14764   2.037   1.168  10.629 -0.6093 -0.3506 -1.2888
  136SAPE  H17S14765   1.955   1.054  10.736 -0.2702  0.2226  0.0243
  136SAPE  C21814766   1.861   1.245  10.727 -0.3665 -0.2712  0.7495
  136SAPE  H18R14767   1.753   1.229  10.709 -0.3704 -0.9672  1.3388
  136SAPE  H18S14768   1.898   1.331  10.668 -0.1298 -0.0132  1.2658
  136SAPE  C21914769   1.898   1.253  10.871 -1.2015  1.0841 -0.5148
  136SAPE  H19R14770   2.007   1.263  10.894 -1.3553 -0.8730  1.2860
  136SAPE  H19S14771   1.865   1.154  10.912 -2.6992  1.6369 -0.3536
  136SAPE  C22014772   1.835   1.367  10.946 -0.5643 -0.4563 -0.0781
  136SAPE  H20R14773   1.731   1.336  10.965 -0.2206 -2.2029 -1.0250
  136SAPE  H20S14774   1.839   1.465  10.893 -0.1556  0.8771  2.3161
  136SAPE  H20T14775   1.880   1.374  11.048 -2.1833 -0.7270  0.6730
  136SAPE   C3314776   0.590  -0.029  10.207  0.0908 -0.3294 -0.0207
  136SAPE   H3X14777   0.588  -0.104  10.289 -0.2587  1.0583  1.2644
  136SAPE   H3Y14778   0.696  -0.003  10.188  0.5510  0.5807  3.4623
  136SAPE   C3414779   0.531  -0.106  10.088  0.0119  0.7591  0.0274
  136SAPE   H4X14780   0.421  -0.095  10.106  0.1483  0.2304  1.1930
  136SAPE   H4Y14781   0.549  -0.215  10.089 -0.2698  0.6857 -1.4047
  136SAPE   C3514782   0.559  -0.043   9.950 -0.3183  0.5328 -0.0422
  136SAPE   H5X14783   0.619  -0.118   9.894 -0.3804 -0.7222  1.5288
  136SAPE   H5Y14784   0.598   0.061   9.954 -1.8533  1.0748  1.4811
  136SAPE   C3614785   0.427  -0.035   9.863  0.3684  0.3499  0.7615
  136SAPE   H6X14786   0.350   0.029   9.910  0.1617 -1.5450  3.0757
  136SAPE   H6Y14787   0.392  -0.140   9.856 -0.0364  0.5993 -1.5102
  136SAPE   C3714788   0.444   0.017   9.719  0.1675 -0.8477 -0.4922
  136SAPE   H7X14789   0.344  -0.014   9.681 -0.9378  1.2056  0.6963
  136SAPE   H7Y14790   0.529  -0.037   9.672  1.9199  2.1391 -0.8869
  136SAPE   C3814791   0.467   0.169   9.709  0.0987  0.1963  0.1247
  136SAPE   H8X14792   0.566   0.199   9.748  0.9457 -0.1756 -1.7057
  136SAPE   H8Y14793   0.386   0.212   9.772 -0.0220 -0.1190  0.1842
  136SAPE   C3914794   0.457   0.222   9.562  0.4265 -0.1621 -0.8474
  136SAPE   H9X14795   0.477   0.331   9.564  0.7445 -0.2491  1.9930
  136SAPE   H9Y14796   0.361   0.225   9.506  0.9244  0.4892 -1.6691
  136SAPE  C31014797   0.565   0.162   9.477  0.3694 -0.2566  0.4673
  136SAPE  H10X14798   0.523   0.064   9.444  1.1770 -0.6184  0.4870
  136SAPE  H10Y14799   0.661   0.153   9.533  1.1348  0.5043 -0.7021
  136SAPE  C31114800   0.599   0.250   9.354  0.0786 -0.6249 -0.1844
  136SAPE  H11X14801   0.638   0.342   9.403  1.9837 -1.8231  0.5811
  136SAPE  H11Y14802   0.505   0.284   9.304 -0.7779 -1.4670  0.8335
  136SAPE  C31214803   0.706   0.180   9.265 -0.6997  0.0934 -0.5211
  136SAPE  H12X14804   0.662   0.101   9.201  1.3336 -1.2718 -0.2736
  136SAPE  H12Y14805   0.770   0.138   9.345 -0.0568 -1.6999 -1.9518
  136SAPE  C31314806   0.786   0.290   9.192  0.0573  0.1407  0.9278
  136SAPE  H13X14807   0.878   0.245   9.149 -0.5390  0.7119 -1.0326
  136SAPE  H13Y14808   0.813   0.373   9.261  1.5459  1.1312 -0.8012
  136SAPE  C31414809   0.707   0.339   9.071  0.2236 -0.8629 -0.6178
  136SAPE  H14X14810   0.742   0.442   9.049 -2.1140  0.0774 -0.1544
  136SAPE  H14Y14811   0.601   0.353   9.101  0.5092  1.7385 -0.6615
  136SAPE  C31514812   0.725   0.241   8.949  0.0184 -0.0397 -0.5802
  136SAPE  H15X14813   0.656   0.275   8.868 -2.1094 -0.1171  1.1742
  136SAPE  H15Y14814   0.695   0.136   8.970  1.1939  0.2415  2.7116
  136SAPE  C31614815   0.861   0.245   8.885  0.4856  0.0503 -1.2915
  136SAPE  H16X14816   0.917   0.154   8.916  3.0986  1.8595 -0.5000
  136SAPE  H16Y14817   0.929   0.321   8.930 -0.3244 -0.8884  1.5986
  136SAPE  C31714818   0.859   0.256   8.738  0.7447  0.2025 -0.1262
  136SAPE  H17X14819   0.957   0.284   8.693  0.7880  1.1050  0.5126
  136SAPE  H17Y14820   0.794   0.342   8.710  1.2384  0.3913 -0.7001
  136SAPE  C31814821   0.820   0.129   8.663  0.9365 -0.8428 -0.0632
  136SAPE  H18X14822   0.803   0.156   8.557  1.9346  1.9347  0.4369
  136SAPE  H18Y14823   0.720   0.100   8.704  0.3075  0.9754 -0.2650
  136SAPE  H18Z14824   0.891   0.052   8.700  0.4090 -1.4647 -0.3357
  137SAPE     N14825   6.052   3.930  10.978 -0.1264 -0.7357  0.4891
  137SAPE   HN114826   6.036   4.032  10.962 -2.2497 -0.7764  2.2733
  137SAPE   HN214827   6.156   3.917  10.977 -0.0130  0.0298  1.2501
  137SAPE   HN314828   6.016   3.878  10.896  1.2625  0.1183 -0.7170
  137SAPE   C1214829   5.992   3.894  11.109  0.5117  0.3745 -0.9745
  137SAPE  H12A14830   6.074   3.895  11.183 -1.2488  1.4681  1.0269
  137SAPE  H12B14831   5.953   3.791  11.096  1.5897 -0.0612 -0.7568
  137SAPE   C1114832   5.881   4.004  11.144  0.2802 -0.3996  0.0094
  137SAPE  H11A14833   5.929   4.090  11.196 -1.4079  0.2199  0.5664
  137SAPE  H11B14834   5.831   3.955  11.230 -0.9476  0.4991 -0.1850
  137SAPE     P14835   5.660   3.961  11.003  0.7256 -0.0415  0.0426
  137SAPE   O1314836   5.673   3.821  11.045 -0.7076  0.1181 -0.2715
  137SAPE   O1414837   5.552   4.045  11.054  0.4822  0.7048  0.0273
  137SAPE   O1214838   5.791   4.042  11.050  0.2249  0.0868 -0.0396
  137SAPE   O1114839   5.664   3.975  10.840  0.2660  0.5498 -0.4635
  137SAPE    C114840   5.681   4.093  10.769 -0.3650  0.3200  0.2438
  137SAPE    HA14841   5.590   4.155  10.784 -0.4955  0.0749  0.4889
  137SAPE    HB14842   5.767   4.145  10.816  0.1917  0.8067 -1.2840
  137SAPE    C214843   5.708   4.072  10.612  0.4580  0.1919 -0.3736
  137SAPE    HS14844   5.733   4.176  10.581 -0.9558 -0.1624 -2.8742
  137SAPE   O2114845   5.585   4.018  10.550 -0.4051 -0.0731  0.3771
  137SAPE   C2114846   5.509   4.104  10.495  0.2459 -1.1001 -0.3326
  137SAPE   O2214847   5.514   4.225  10.500 -1.2086  0.4180 -0.1964
  137SAPE   C2214848   5.412   4.030  10.408  0.9897 -0.0069  0.8706
  137SAPE   H2R14849   5.463   3.948  10.353 -0.4093 -0.8161  0.7561
  137SAPE   H2S14850   5.335   3.984  10.474 -3.1120  3.6211 -1.1716
  137SAPE    C314851   5.826   3.974  10.597  0.3774  0.1329 -0.5391
  137SAPE    HX14852   5.807   3.875  10.645 -2.1066 -0.1367 -1.9949
  137SAPE    HY14853   5.916   4.018  10.645  2.0720 -0.8095 -2.8089
  137SAPE   O3114854   5.870   3.966  10.462  0.8344 -0.3030 -0.2299
  137SAPE   C3114855   5.807   3.875  10.387 -0.0014 -0.1417 -0.0168
  137SAPE   O3214856   5.734   3.787  10.420 -0.2188 -0.1629 -0.9573
  137SAPE   C3214857   5.832   3.904  10.238  0.7411 -0.0364 -0.0763
  137SAPE   H2X14858   5.924   3.845  10.218 -0.3103 -2.2906  1.6025
  137SAPE   H2Y14859   5.857   4.011  10.219 -1.6842  0.5856  0.1188
  137SAPE   C2314860   5.334   4.120  10.307  0.2378  0.2792  0.0117
  137SAPE   H3R14861   5.406   4.191  10.261 -1.1806  0.9289 -1.2361
  137SAPE   H3S14862   5.269   4.181  10.372 -1.7211 -0.9428 -0.7646
  137SAPE   C2414863   5.247   4.040  10.213 -0.5330 -0.5410  0.4164
  137SAPE   H4R14864   5.178   4.115  10.169 -2.3518 -1.4855  1.6025
  137SAPE   H4S14865   5.197   3.961  10.272 -0.6151  0.5057  1.7728
  137SAPE   C2514866   5.323   3.975  10.102 -0.2076 -0.1995  0.1121
  137SAPE   H5R14867   5.348   3.869  10.116 -0.0134  0.0646  1.9150
  137SAPE   C2614868   5.346   4.024   9.981 -0.7363  0.2600  0.2233
  137SAPE   H6R14869   5.407   3.959   9.917  1.6110 -0.2286  2.8866
  137SAPE   C2714870   5.307   4.156   9.929 -0.9888 -1.5277  0.0377
  137SAPE   H7R14871   5.257   4.214  10.009  1.9721  0.2021  0.6956
  137SAPE   H7S14872   5.240   4.156   9.840  1.1165  1.7767 -1.6372
  137SAPE   C2814873   5.422   4.248   9.886 -0.2271 -0.3973 -0.2808
  137SAPE   H8R14874   5.482   4.279   9.973  0.6313 -2.0673 -0.2533
  137SAPE   C2914875   5.471   4.258   9.760 -0.3154  0.3182 -0.5752
  137SAPE   H9R14876   5.554   4.329   9.748  0.4775 -0.5232 -0.1820
  137SAPE  C21014877   5.416   4.190   9.638 -0.5298 -0.0654  0.7455
  137SAPE  H10R14878   5.445   4.242   9.545  0.0146 -2.7611 -0.6451
  137SAPE  H10S14879   5.306   4.176   9.650 -0.4132  0.8116  3.1301
  137SAPE  C21114880   5.464   4.053   9.626 -0.3397  0.0965  0.2158
  137SAPE  H11R14881   5.542   4.013   9.692 -1.4605 -0.9030  0.9456
  137SAPE  C21214882   5.419   3.960   9.536 -0.5460 -0.3410  0.1212
  137SAPE  H12R14883   5.455   3.856   9.539 -2.0024 -0.8570  0.1270
  137SAPE  C21314884   5.318   3.970   9.426  0.4572 -0.4924  0.2213
  137SAPE  H13R14885   5.333   3.907   9.336  3.5177 -1.6128  1.4452
  137SAPE  H13S14886   5.331   4.071   9.381 -1.0143 -0.9478 -1.2582
  137SAPE  C21414887   5.181   3.955   9.479  0.6985  0.3411  0.0482
  137SAPE  H14R14888   5.164   4.019   9.568  0.2684  2.8306 -1.7716
  137SAPE  C21514889   5.079   3.882   9.430  0.0195  0.0190  0.3699
  137SAPE  H15R14890   4.984   3.904   9.480  0.8651  0.4678  1.8274
  137SAPE  C21614891   5.092   3.794   9.306  0.8692  0.7615  0.5750
  137SAPE  H16R14892   5.044   3.695   9.323 -0.1802  0.9710 -1.0457
  137SAPE  H16S14893   5.194   3.788   9.263  0.0851 -0.4006 -1.1794
  137SAPE  C21714894   5.004   3.847   9.194 -0.2487  0.3022  0.1242
  137SAPE  H17R14895   4.997   3.957   9.183  0.3690  0.3529  0.2327
  137SAPE  H17S14896   4.897   3.824   9.215 -0.2331  0.4879  0.4121
  137SAPE  C21814897   5.023   3.780   9.046  0.3064  0.0727  0.3162
  137SAPE  H18R14898   4.933   3.810   8.987 -0.5835 -2.0831  0.5598
  137SAPE  H18S14899   5.022   3.670   9.053 -0.9708  0.1099  0.8447
  137SAPE  C21914900   5.164   3.815   8.989 -0.8537  0.1569 -0.0217
  137SAPE  H19R14901   5.248   3.776   9.051 -0.1060  2.4897  0.4938
  137SAPE  H19S14902   5.161   3.926   8.998  0.9859  0.0049  3.1578
  137SAPE  C22014903   5.186   3.782   8.840 -0.1233 -0.0969 -0.1243
  137SAPE  H20R14904   5.121   3.840   8.771 -0.5464  0.5837  0.8351
  137SAPE  H20S14905   5.177   3.672   8.827  0.8685 -0.3762  1.3551
  137SAPE  H20T14906   5.292   3.805   8.819  0.1787  0.4163  1.8456
  137SAPE   C3314907   5.712   3.860  10.153 -0.1929 -1.1356 -0.0566
  137SAPE   H3X14908   5.633   3.934  10.177  0.2352 -1.3219  2.0030
  137SAPE   H3Y14909   5.686   3.755  10.181  0.0356 -1.4803 -1.1053
  137SAPE   C3414910   5.750   3.869  10.008 -0.1586  0.5059  0.4673
  137SAPE   H4X14911   5.676   3.820   9.942  0.5489 -1.1614  0.9053
  137SAPE   H4Y14912   5.845   3.819   9.978  0.2446  0.8770  1.1005
  137SAPE   C3514913   5.755   4.014   9.963  0.0582 -0.8615  0.2772
  137SAPE   H5X14914   5.836   4.071  10.013 -0.1194 -1.3137  1.0860
  137SAPE   H5Y14915   5.662   4.072   9.984  0.8976  0.2549  1.0155
  137SAPE   C3614916   5.807   4.027   9.816  0.2901  0.1235  0.4235
  137SAPE   H6X14917   5.784   4.129   9.778 -0.0731  0.4204  1.4434
  137SAPE   H6Y14918   5.754   3.950   9.755  1.2987 -0.6016  0.4496
  137SAPE   C3714919   5.965   4.011   9.808 -1.1621  0.4447  0.2851
  137SAPE   H7X14920   5.999   3.920   9.861 -0.7797  0.9894  0.9791
  137SAPE   H7Y14921   6.005   4.106   9.849  1.0763 -0.4651  0.2928
  137SAPE   C3814922   6.022   3.996   9.665  0.7330  0.0096 -0.4357
  137SAPE   H8X14923   6.131   4.015   9.659  0.4199  1.3680 -2.6711
  137SAPE   H8Y14924   5.973   4.065   9.593 -1.3664 -0.2304  0.7131
  137SAPE   C3914925   6.031   3.852   9.600 -0.4318  0.3138 -0.1327
  137SAPE   H9X14926   5.926   3.823   9.578 -0.2558  0.2151 -0.8373
  137SAPE   H9Y14927   6.084   3.785   9.671 -0.8166  1.3455  1.1503
  137SAPE  C31014928   6.102   3.852   9.468 -0.9408  0.2197 -0.6524
  137SAPE  H10X14929   6.060   3.938   9.412 -0.7995 -0.6893 -2.1738
  137SAPE  H10Y14930   6.072   3.770   9.400  1.9171 -1.3381 -0.1363
  137SAPE  C31114931   6.258   3.866   9.464 -0.3230 -0.4698  0.1008
  137SAPE  H11X14932   6.310   3.777   9.506  2.0424  0.1474 -1.4265
  137SAPE  H11Y14933   6.292   3.957   9.517  1.0386  0.2968 -2.0309
  137SAPE  C31214934   6.311   3.881   9.322 -0.4732 -0.4908 -0.0937
  137SAPE  H12X14935   6.252   3.969   9.286 -0.2747  0.1752  1.1931
  137SAPE  H12Y14936   6.272   3.787   9.278  1.7538 -0.7055 -1.7131
  137SAPE  C31314937   6.463   3.889   9.317  0.7576 -0.2392  0.6928
  137SAPE  H13X14938   6.514   3.826   9.393  1.7662  1.4779  1.4641
  137SAPE  H13Y14939   6.486   3.994   9.344  0.5632  0.2773 -1.0860
  137SAPE  C31414940   6.513   3.877   9.172  0.2921 -0.4591 -0.4120
  137SAPE  H14X14941   6.504   3.979   9.129  1.0695  0.8749  2.4831
  137SAPE  H14Y14942   6.442   3.815   9.113 -0.4556  0.5056 -0.5316
  137SAPE  C31514943   6.655   3.818   9.156 -0.1571  0.0359 -0.3614
  137SAPE  H15X14944   6.659   3.737   9.233 -1.1233 -1.1776 -1.5794
  137SAPE  H15Y14945   6.727   3.889   9.203  1.9900 -1.4133 -1.3473
  137SAPE  C31614946   6.701   3.764   9.021 -0.5395  0.8238 -0.4587
  137SAPE  H16X14947   6.652   3.667   9.001  0.3726 -0.1005  1.6780
  137SAPE  H16Y14948   6.810   3.739   9.013 -0.7588  0.1252 -1.4366
  137SAPE  C31714949   6.679   3.860   8.904 -0.5136  0.1440  0.5518
  137SAPE  H17X14950   6.725   3.953   8.945 -0.5467 -0.7675  2.7320
  137SAPE  H17Y14951   6.569   3.877   8.897 -0.4410  0.1305 -0.5902
  137SAPE  C31814952   6.734   3.823   8.760  0.4722 -0.0127 -0.2031
  137SAPE  H18X14953   6.845   3.828   8.763  0.3673  2.8916  0.1738
  137SAPE  H18Y14954   6.699   3.900   8.687 -0.1217 -1.1502 -1.1329
  137SAPE  H18Z14955   6.694   3.722   8.736  0.7973 -0.4608  1.0682
  138SAPE     N14956   2.798   4.887  10.963 -0.0761 -0.6868 -0.5114
  138SAPE   HN114957   2.756   4.813  10.902  1.5292 -2.0097 -0.0534
  138SAPE   HN214958   2.852   4.840  11.039 -0.1249 -0.6319 -0.4428
  138SAPE   HN314959   2.728   4.948  11.010 -1.0934 -1.7759 -0.5761
  138SAPE   C1214960   2.896   4.971  10.885  0.7129 -0.3838 -0.2908
  138SAPE  H12A14961   2.971   4.903  10.840 -0.9815 -3.1554  0.9158
  138SAPE  H12B14962   2.945   5.041  10.956 -1.4229  0.6474  0.2406
  138SAPE   C1114963   2.828   5.041  10.768 -0.2344 -0.5407  0.3679
  138SAPE  H11A14964   2.787   4.964  10.699 -0.8050 -1.6035  1.8707
  138SAPE  H11B14965   2.905   5.101  10.715 -0.7744  0.0250  0.2133
  138SAPE     P14966   2.678   5.260  10.748 -0.2535  0.2428 -0.2322
  138SAPE   O1314967   2.598   5.329  10.853 -0.1433  0.2926  0.4991
  138SAPE   O1414968   2.796   5.337  10.706 -0.0066 -0.1484  0.4297
  138SAPE   O1214969   2.727   5.125  10.813  0.0140  0.6194  0.1942
  138SAPE   O1114970   2.592   5.222  10.624  0.2831  0.2067  0.0644
  138SAPE    C114971   2.509   5.107  10.610  0.6419  0.1140 -0.0811
  138SAPE    HA14972   2.553   5.024  10.669  1.0301 -0.1017 -0.6709
  138SAPE    HB14973   2.407   5.141  10.639  0.9796  0.5921  0.5624
  138SAPE    C214974   2.490   5.051  10.473 -0.0727 -0.9134  0.2593
  138SAPE    HS14975   2.400   4.986  10.480  1.2180 -2.7829 -0.1484
  138SAPE   O2114976   2.607   4.976  10.434 -0.1868  0.0448 -0.3090
  138SAPE   C2114977   2.593   4.865  10.364  0.1004 -0.5056  0.0327
  138SAPE   O2214978   2.485   4.834  10.311 -0.3024  0.4005  0.0733
  138SAPE   C2214979   2.719   4.779  10.365  0.1478 -0.3436 -0.0262
  138SAPE   H2R14980   2.806   4.848  10.372  0.1725 -0.3417 -0.3601
  138SAPE   H2S14981   2.722   4.719  10.459 -4.0260 -0.9181 -0.1776
  138SAPE    C314982   2.463   5.152  10.357 -0.2781 -0.2992  0.1729
  138SAPE    HX14983   2.550   5.222  10.356 -1.6559  1.4360 -0.1640
  138SAPE    HY14984   2.378   5.217  10.388  1.4832  1.1204  2.1598
  138SAPE   O3114985   2.438   5.094  10.226  0.0291  0.2447  0.1507
  138SAPE   C3114986   2.314   5.055  10.203  0.3428  0.1185 -0.3326
  138SAPE   O3214987   2.218   5.096  10.270  0.5879 -0.0613 -0.1462
  138SAPE   C3214988   2.302   4.974  10.079 -0.6266 -0.0440 -0.1409
  138SAPE   H2X14989   2.255   4.879  10.112 -1.3770  0.6791  0.8862
  138SAPE   H2Y14990   2.401   4.929  10.055  0.8694  0.7912  4.0335
  138SAPE   C2314991   2.725   4.670  10.260 -0.4588 -0.2139  0.5376
  138SAPE   H3R14992   2.648   4.594  10.285 -1.0985  0.5485  0.9172
  138SAPE   H3S14993   2.825   4.623  10.272  0.0647  0.2026 -1.8031
  138SAPE   C2414994   2.718   4.716  10.111  0.3700 -0.4103 -0.5149
  138SAPE   H4R14995   2.618   4.745  10.074  0.4261  1.0480  0.4689
  138SAPE   H4S14996   2.747   4.631  10.045 -1.9161 -0.6779 -1.2130
  138SAPE   C2514997   2.819   4.823  10.079  0.5541 -0.0719  0.0769
  138SAPE   H5R14998   2.910   4.827  10.141  0.5554  0.7011  0.0297
  138SAPE   C2614999   2.799   4.921   9.987  0.6071 -0.5649  0.0656
  138SAPE   H6R15000   2.875   5.000   9.979  0.1372 -0.0632  0.5457
  138SAPE   C2715001   2.677   4.946   9.895 -0.2721  0.6734  0.3667
  138SAPE   H7R15002   2.594   4.872   9.909 -1.1774  1.4196 -0.9143
  138SAPE   H7S15003   2.709   4.927   9.790 -1.5553 -0.6632  0.1839
  138SAPE   C2815004   2.637   5.090   9.913 -0.0616 -0.0540  0.4347
  138SAPE   H8R15005   2.624   5.118  10.018  1.7439  0.2743  0.5914
  138SAPE   C2915006   2.638   5.188   9.824  0.5807 -0.2056 -0.1421
  138SAPE   H9R15007   2.629   5.287   9.870  3.4897  0.4756 -0.9000
  138SAPE  C21015008   2.675   5.177   9.675 -0.5228  0.2705  0.3357
  138SAPE  H10R15009   2.588   5.171   9.607 -0.3426 -2.2048  0.2766
  138SAPE  H10S15010   2.728   5.081   9.657  0.9088  1.1296 -0.1434
  138SAPE  C21115011   2.768   5.287   9.631  0.3749 -0.1559  0.3729
  138SAPE  H11R15012   2.824   5.341   9.708  0.2342  3.7727 -2.1792
  138SAPE  C21215013   2.790   5.309   9.498 -0.3333  0.2314 -0.2226
  138SAPE  H12R15014   2.852   5.394   9.466 -0.5307 -0.1256 -1.5982
  138SAPE  C21315015   2.723   5.236   9.379  0.0885  1.5313 -0.1329
  138SAPE  H13R15016   2.634   5.174   9.402  1.3391  0.0549  0.8587
  138SAPE  H13S15017   2.794   5.168   9.327 -1.2243  0.6650 -0.8107
  138SAPE  C21415018   2.653   5.336   9.281  0.6145 -0.2801 -0.1420
  138SAPE  H14R15019   2.554   5.372   9.311  0.1836 -0.0527 -1.8058
  138SAPE  C21515020   2.714   5.387   9.173 -0.4681  0.8930  0.0035
  138SAPE  H15R15021   2.658   5.463   9.116 -2.2714  0.0937  0.6568
  138SAPE  C21615022   2.853   5.364   9.133 -0.0459  0.0039  0.3532
  138SAPE  H16R15023   2.917   5.322   9.214  0.2322  1.3253  0.8229
  138SAPE  H16S15024   2.897   5.464   9.113 -2.9252  0.8746 -2.0267
  138SAPE  C21715025   2.867   5.274   9.008  0.2668 -0.1553  0.7991
  138SAPE  H17R15026   2.969   5.273   8.965  0.3516 -0.0666  0.9990
  138SAPE  H17S15027   2.800   5.316   8.930  0.4162 -1.2096  0.1021
  138SAPE  C21815028   2.816   5.133   9.032 -0.8191 -0.7157  0.5582
  138SAPE  H18R15029   2.715   5.136   9.076 -0.1219 -1.2663  2.2288
  138SAPE  H18S15030   2.889   5.082   9.099 -0.5325 -1.9127 -0.6349
  138SAPE  C21915031   2.806   5.057   8.895 -0.3672  0.2044 -0.2961
  138SAPE  H19R15032   2.906   5.014   8.876  0.1678  1.6061 -0.7126
  138SAPE  H19S15033   2.785   5.128   8.812  0.4779 -1.0602 -1.6245
  138SAPE  C22015034   2.700   4.952   8.898  0.2773  0.5412  0.2453
  138SAPE  H20R15035   2.601   5.000   8.916  1.0474  2.3525 -0.2398
  138SAPE  H20S15036   2.717   4.877   8.979  1.4444  0.7037  0.1604
  138SAPE  H20T15037   2.688   4.900   8.801  0.3423  0.0282  0.5107
  138SAPE   C3315038   2.238   5.049   9.960  0.1407 -0.0019 -0.1287
  138SAPE   H3X15039   2.264   5.156   9.979  1.7767 -0.6081  1.1159
  138SAPE   H3Y15040   2.127   5.040   9.951  0.1783  0.4831 -1.2451
  138SAPE   C3415041   2.291   4.995   9.821  0.1903  0.2573 -1.2942
  138SAPE   H4X15042   2.285   4.885   9.814 -0.6138  0.3454 -2.1388
  138SAPE   H4Y15043   2.397   5.025   9.813 -0.5955  3.3080 -1.1990
  138SAPE   C3515044   2.215   5.052   9.696  0.2600 -0.5045 -0.1147
  138SAPE   H5X15045   2.212   5.163   9.699 -0.4762 -0.5640  1.5644
  138SAPE   H5Y15046   2.109   5.019   9.693 -0.8199  2.8759 -0.3876
  138SAPE   C3615047   2.288   5.016   9.571 -0.7458  0.3051 -0.8539
  138SAPE   H6X15048   2.259   4.911   9.551 -3.8884  0.8804  0.4101
  138SAPE   H6Y15049   2.396   5.022   9.595 -0.9054  0.7242 -0.2227
  138SAPE   C3715050   2.266   5.127   9.471  0.4452 -1.1576  0.4019
  138SAPE   H7X15051   2.313   5.219   9.513  1.9351 -2.0891  0.7857
  138SAPE   H7Y15052   2.159   5.147   9.450  0.7090 -0.8993 -0.7494
  138SAPE   C3815053   2.339   5.104   9.337  0.6000  0.4965 -0.0112
  138SAPE   H8X15054   2.314   5.007   9.290 -0.1961  1.5129 -1.7376
  138SAPE   H8Y15055   2.443   5.089   9.372 -1.1749 -0.1062  5.4294
  138SAPE   C3915056   2.328   5.220   9.240 -0.6624  0.7106  0.5540
  138SAPE   H9X15057   2.396   5.194   9.156  0.5585  0.4028  1.6174
  138SAPE   H9Y15058   2.375   5.314   9.276 -0.5406  1.7127 -2.1349
  138SAPE  C31015059   2.186   5.242   9.191  0.8260 -0.3578 -0.8585
  138SAPE  H10X15060   2.125   5.286   9.273  0.7318 -2.5242  0.2883
  138SAPE  H10Y15061   2.131   5.148   9.167  1.4634 -0.5357 -1.6127
  138SAPE  C31115062   2.174   5.337   9.067  0.1421  0.4710  0.0276
  138SAPE  H11X15063   2.218   5.434   9.100 -4.1661  1.5141  3.0709
  138SAPE  H11Y15064   2.067   5.348   9.041  0.9079  1.5358 -2.8918
  138SAPE  C31215065   2.248   5.294   8.943 -0.5775 -0.2461 -0.3525
  138SAPE  H12X15066   2.215   5.194   8.910  2.2710 -1.1757 -0.5628
  138SAPE  H12Y15067   2.349   5.287   8.988 -0.8596  0.6209  0.4385
  138SAPE  C31315068   2.234   5.394   8.831  0.2952  0.3537 -0.5124
  138SAPE  H13X15069   2.275   5.494   8.853 -1.0230  0.2496  2.5971
  138SAPE  H13Y15070   2.125   5.410   8.816  0.6271  3.0927 -0.1877
  138SAPE  C31415071   2.314   5.358   8.702 -0.1658 -0.1227  0.2708
  138SAPE  H14X15072   2.319   5.447   8.636  0.3340  0.1237  0.6335
  138SAPE  H14Y15073   2.236   5.287   8.669 -0.4172 -0.5517  1.7669
  138SAPE  C31515074   2.453   5.297   8.711  0.0549  0.0040  0.7806
  138SAPE  H15X15075   2.442   5.187   8.720 -1.1396 -0.1116 -1.6856
  138SAPE  H15Y15076   2.500   5.338   8.803 -0.6046 -0.0677  1.1569
  138SAPE  C31615077   2.540   5.312   8.579 -0.0767 -0.0010 -0.1816
  138SAPE  H16X15078   2.564   5.420   8.579  0.8957 -0.1774  2.3591
  138SAPE  H16Y15079   2.482   5.283   8.489  0.3691  3.2240 -1.5568
  138SAPE  C31715080   2.677   5.239   8.579  0.1141  0.3206 -0.2360
  138SAPE  H17X15081   2.665   5.144   8.636 -1.3135  0.3808 -0.4131
  138SAPE  H17Y15082   2.749   5.308   8.628  1.5914 -2.0324  1.0071
  138SAPE  C31815083   2.749   5.208   8.450  0.1273  0.3469  0.6223
  138SAPE  H18X15084   2.856   5.198   8.479  0.7352 -1.8033 -2.1405
  138SAPE  H18Y15085   2.735   5.298   8.387  0.1043  0.2815  0.5328
  138SAPE  H18Z15086   2.713   5.112   8.406 -1.9082  0.9451  0.9463
  139SAPE     N15087   2.288   3.589  10.511  0.4449  0.1190 -0.1475
  139SAPE   HN115088   2.249   3.661  10.446  2.1326  1.0550 -0.1649
  139SAPE   HN215089   2.378   3.627  10.547  1.3123 -1.5359 -0.5456
  139SAPE   HN315090   2.309   3.504  10.456 -2.7027 -0.7283 -0.1589
  139SAPE   C1215091   2.209   3.561  10.641 -0.2093  0.3979  0.4278
  139SAPE  H12A15092   2.211   3.658  10.695  0.1960  0.4470  0.3298
  139SAPE  H12B15093   2.273   3.487  10.693  1.2999  1.4410  0.1059
  139SAPE   C1115094   2.062   3.506  10.617  0.0099  0.1883  0.0039
  139SAPE  H11A15095   2.018   3.463  10.709  0.3815 -0.0071  0.0910
  139SAPE  H11B15096   2.067   3.417  10.551  0.0095 -1.5800  2.3229
  139SAPE     P15097   1.909   3.711  10.650 -0.0135  0.6903  0.1417
  139SAPE   O1315098   1.827   3.640  10.748  0.5528  0.5669  0.3331
  139SAPE   O1415099   2.004   3.810  10.699 -0.0547 -0.2494 -1.0505
  139SAPE   O1215100   1.974   3.606  10.551 -0.5712  0.3836 -0.6916
  139SAPE   O1115101   1.807   3.800  10.558  0.5635 -0.3332 -0.8027
  139SAPE    C115102   1.773   3.759  10.426  0.2062  0.1718 -0.0045
  139SAPE    HA15103   1.781   3.650  10.409 -0.0995  0.0087  0.8817
  139SAPE    HB15104   1.668   3.787  10.405  0.9518  3.2455  0.1731
  139SAPE    C215105   1.874   3.821  10.315 -0.0079 -0.0594 -0.6773
  139SAPE    HS15106   1.977   3.811  10.357  0.3132 -2.4551 -1.9209
  139SAPE   O2115107   1.839   3.957  10.300 -0.0234 -0.0645 -0.3500
  139SAPE   C2115108   1.931   4.038  10.260 -0.2014 -0.0345  0.0977
  139SAPE   O2215109   2.049   4.026  10.258  0.3331  0.2570  0.1782
  139SAPE   C2215110   1.860   4.161  10.200  0.1800  0.2143 -0.2927
  139SAPE   H2R15111   1.841   4.127  10.096 -0.7953 -0.1982  0.0180
  139SAPE   H2S15112   1.757   4.179  10.237  0.5957  0.4361  0.7645
  139SAPE    C315113   1.857   3.745  10.183  1.1478 -0.0612  0.3479
  139SAPE    HX15114   1.749   3.745  10.156  1.0636  1.1985  0.6601
  139SAPE    HY15115   1.872   3.636  10.192 -1.0292 -0.3238  0.9753
  139SAPE   O3115116   1.926   3.793  10.069  0.3481  0.4548  0.1023
  139SAPE   C3115117   2.047   3.749  10.052  0.9847 -0.0078  0.1069
  139SAPE   O3215118   2.114   3.678  10.127 -0.5740  0.1120 -0.3070
  139SAPE   C3215119   2.105   3.795   9.918 -0.1462 -0.0074 -0.3174
  139SAPE   H2X15120   2.047   3.876   9.871 -0.3701  0.3830  0.6144
  139SAPE   H2Y15121   2.096   3.708   9.851  1.6078  0.0769 -0.6985
  139SAPE   C2315122   1.958   4.286  10.199 -0.7421  1.0125  0.7537
  139SAPE   H3R15123   2.060   4.251  10.174 -1.4374  1.4252 -2.9839
  139SAPE   H3S15124   1.967   4.350  10.290 -0.2751  0.5653  1.0224
  139SAPE   C2415125   1.924   4.382  10.079 -0.0895  0.0904 -0.2722
  139SAPE   H4R15126   1.930   4.328   9.983  1.5674  0.6061 -0.4709
  139SAPE   H4S15127   1.992   4.469  10.068  1.5323 -1.2641 -1.0271
  139SAPE   C2515128   1.779   4.434  10.103 -0.4016 -0.4972 -0.8488
  139SAPE   H5R15129   1.766   4.497  10.191  2.4551 -1.9522  0.7022
  139SAPE   C2615130   1.678   4.404  10.020 -0.5291 -0.1028  0.5217
  139SAPE   H6R15131   1.576   4.442  10.034 -0.9490 -0.0720 -2.3396
  139SAPE   C2715132   1.691   4.325   9.891 -0.4060  0.1565 -0.1608
  139SAPE   H7R15133   1.736   4.228   9.918  1.3678  1.2860  0.9759
  139SAPE   H7S15134   1.768   4.372   9.826  0.7481  0.7281  1.5951
  139SAPE   C2815135   1.562   4.294   9.812  0.2807 -1.1186  0.1276
  139SAPE   H8R15136   1.487   4.248   9.878 -0.0463 -0.3162  0.3187
  139SAPE   C2915137   1.534   4.313   9.680 -0.1286 -0.0496  0.6154
  139SAPE   H9R15138   1.434   4.286   9.642 -1.2407  2.4483  1.6261
  139SAPE  C21015139   1.624   4.363   9.570  0.5069  0.0582  0.4903
  139SAPE  H10R15140   1.695   4.283   9.541  1.3090  0.5640  1.0267
  139SAPE  H10S15141   1.688   4.449   9.598 -3.0495  2.3106  2.0614
  139SAPE  C21115142   1.532   4.404   9.452 -0.9701  0.1894 -1.2385
  139SAPE  H11R15143   1.444   4.468   9.468 -1.4393 -0.8839  0.6048
  139SAPE  C21215144   1.546   4.372   9.325 -0.4980 -0.5589  0.4380
  139SAPE  H12R15145   1.474   4.418   9.257  1.1823  1.9253  0.2654
  139SAPE  C21315146   1.641   4.273   9.265 -0.1609  0.4613 -0.0341
  139SAPE  H13R15147   1.606   4.255   9.161 -0.7581 -1.8701  0.5345
  139SAPE  H13S15148   1.641   4.170   9.308 -0.2078  0.0578 -1.0019
  139SAPE  C21415149   1.781   4.332   9.266 -0.8719  1.1501  0.0201
  139SAPE  H14R15150   1.812   4.377   9.361  1.1163  0.0182 -0.0762
  139SAPE  C21515151   1.865   4.340   9.165  0.5905 -0.7562 -0.3617
  139SAPE  H15R15152   1.947   4.413   9.176  0.4309 -0.6100 -0.1520
  139SAPE  C21615153   1.835   4.293   9.022  0.0557 -0.7022  0.2368
  139SAPE  H16R15154   1.729   4.267   9.001  0.6217 -2.1998 -0.8547
  139SAPE  H16S15155   1.913   4.219   8.993  0.4125  0.3659 -1.5915
  139SAPE  C21715156   1.853   4.404   8.925 -0.7141 -0.0522  0.1054
  139SAPE  H17R15157   1.957   4.442   8.933 -1.0680  0.6870  1.2962
  139SAPE  H17S15158   1.777   4.481   8.950  1.4980  2.0611  0.4857
  139SAPE  C21815159   1.825   4.366   8.778  0.3551 -0.4014  0.7215
  139SAPE  H18R15160   1.716   4.369   8.757  0.7613  2.9192 -1.2173
  139SAPE  H18S15161   1.853   4.259   8.768  0.3030 -0.2186 -1.5627
  139SAPE  C21915162   1.888   4.454   8.673 -0.0108  0.4493 -0.2372
  139SAPE  H19R15163   1.999   4.450   8.678  0.0278 -0.3661 -1.4756
  139SAPE  H19S15164   1.849   4.551   8.709  1.1716  0.0178  2.2970
  139SAPE  C22015165   1.848   4.424   8.525  0.1093  0.4507 -0.5247
  139SAPE  H20R15166   1.925   4.476   8.464 -0.4245 -0.2956 -1.8585
  139SAPE  H20S15167   1.744   4.460   8.507 -0.4763  0.4487  2.7177
  139SAPE  H20T15168   1.852   4.313   8.520  0.6865  0.3500  1.9170
  139SAPE   C3315169   2.254   3.838   9.934  0.2536 -0.1280 -0.2209
  139SAPE   H3X15170   2.291   3.848   9.829  1.2301 -0.9306  0.0382
  139SAPE   H3Y15171   2.321   3.768   9.988  0.2978  0.4060  0.4088
  139SAPE   C3415172   2.277   3.983   9.989 -0.7897 -0.6959  0.1460
  139SAPE   H4X15173   2.385   4.006   9.979 -1.0467 -0.6941 -3.1159
  139SAPE   H4Y15174   2.260   3.980  10.099 -0.4426  0.3545  0.2337
  139SAPE   C3515175   2.187   4.088   9.928 -0.1037 -0.5630  0.3689
  139SAPE   H5X15176   2.204   4.193   9.960 -0.2444 -0.6221  0.6374
  139SAPE   H5Y15177   2.080   4.069   9.949 -0.4888  0.3928 -0.6674
  139SAPE   C3615178   2.197   4.101   9.777 -0.3158  0.0950  0.1911
  139SAPE   H6X15179   2.212   4.002   9.730  0.7260 -0.3023  1.3292
  139SAPE   H6Y15180   2.298   4.143   9.758  0.1311 -0.1145  2.0398
  139SAPE   C3715181   2.094   4.188   9.710 -0.5166  0.5244 -0.7628
  139SAPE   H7X15182   2.078   4.286   9.760 -0.2616 -0.2737  0.9418
  139SAPE   H7Y15183   1.991   4.147   9.715 -0.2185 -0.1998 -0.4331
  139SAPE   C3815184   2.122   4.213   9.559  0.2703  0.8308 -0.1483
  139SAPE   H8X15185   2.224   4.257   9.555  0.4628  0.3591 -0.5172
  139SAPE   H8Y15186   2.054   4.292   9.519 -0.8760  0.5244  1.1508
  139SAPE   C3915187   2.120   4.086   9.467  0.1247 -0.2179  0.0510
  139SAPE   H9X15188   2.043   4.015   9.504  0.5381 -0.3689  0.6309
  139SAPE   H9Y15189   2.216   4.038   9.495  0.5061  0.3726 -0.2327
  139SAPE  C31015190   2.099   4.123   9.321  0.1103 -0.7643  0.7263
  139SAPE  H10X15191   2.161   4.212   9.298  1.9596 -2.1070  0.3647
  139SAPE  H10Y15192   1.991   4.139   9.303 -0.2622 -3.4340  0.3058
  139SAPE  C31115193   2.154   4.021   9.220 -0.1152  0.9432 -0.5327
  139SAPE  H11X15194   2.078   3.940   9.217 -1.9217  2.5162  1.0960
  139SAPE  H11Y15195   2.259   3.994   9.246 -0.0588  1.3247 -0.3593
  139SAPE  C31215196   2.179   4.082   9.087 -0.1781  0.4311  0.0920
  139SAPE  H12X15197   2.265   4.152   9.093 -0.2183  0.3020  2.7957
  139SAPE  H12Y15198   2.092   4.149   9.070  1.3292  2.3283 -0.3134
  139SAPE  C31315199   2.182   3.989   8.966  0.0744 -0.5221  0.2673
  139SAPE  H13X15200   2.097   3.919   8.978  0.6054 -0.9767  1.4390
  139SAPE  H13Y15201   2.279   3.936   8.968 -0.5670 -1.7403 -0.8361
  139SAPE  C31415202   2.179   4.062   8.829  0.4162 -0.3244 -0.2209
  139SAPE  H14X15203   2.085   4.120   8.826  0.7248  0.2417  0.7985
  139SAPE  H14Y15204   2.177   3.974   8.761 -0.3078  1.0350 -1.9940
  139SAPE  C31515205   2.306   4.146   8.807 -0.6746  0.3818 -0.3650
  139SAPE  H15X15206   2.383   4.069   8.827 -0.4134  0.8341  0.3588
  139SAPE  H15Y15207   2.327   4.213   8.893 -0.6903 -0.6299  0.4372
  139SAPE  C31615208   2.332   4.216   8.676 -0.6607 -0.1604  0.5596
  139SAPE  H16X15209   2.305   4.154   8.588 -1.5013 -0.8390  1.2853
  139SAPE  H16Y15210   2.257   4.297   8.666 -1.8029 -0.9400  2.5450
  139SAPE  C31715211   2.481   4.265   8.659 -0.0330  0.1478 -0.1225
  139SAPE  H17X15212   2.542   4.173   8.650 -1.7111 -1.1862  1.6056
  139SAPE  H17Y15213   2.519   4.306   8.755 -0.7069 -0.4148  0.3865
  139SAPE  C31815214   2.488   4.357   8.541 -0.3219  0.2517  0.1645
  139SAPE  H18X15215   2.434   4.449   8.570 -1.4397 -0.1440 -0.6278
  139SAPE  H18Y15216   2.437   4.311   8.454 -0.3957 -1.7415  1.2285
  139SAPE  H18Z15217   2.597   4.374   8.526 -0.4377 -1.5462 -3.2971
  140SAPE     N15218   5.072   6.757  11.167 -0.0868 -0.1551  0.4079
  140SAPE   HN115219   5.163   6.773  11.120 -0.3725 -0.4320 -0.2504
  140SAPE   HN215220   5.053   6.658  11.188  0.2718 -0.2568  0.2576
  140SAPE   HN315221   4.999   6.787  11.098  1.5287  0.3589 -1.1152
  140SAPE   C1215222   5.071   6.850  11.277 -0.5131  0.1340 -0.6520
  140SAPE  H12A15223   5.170   6.833  11.324 -0.1904 -0.2927 -1.4871
  140SAPE  H12B15224   4.989   6.827  11.349  1.1375  0.0739  1.2540
  140SAPE   C1115225   5.067   6.990  11.206 -0.0160  0.1457  0.2115
  140SAPE  H11A15226   5.089   7.064  11.286 -1.2861  1.4931 -0.6448
  140SAPE  H11B15227   4.965   7.016  11.170  0.5187 -0.1090 -1.5194
  140SAPE     P15228   5.174   7.137  11.016 -0.1399  0.2806  0.1208
  140SAPE   O1315229   5.048   7.210  11.042 -0.7411  0.1698  0.2314
  140SAPE   O1415230   5.306   7.198  11.049 -0.4033 -0.9746  0.2277
  140SAPE   O1215231   5.156   6.999  11.091 -0.4810  0.0713 -0.1356
  140SAPE   O1115232   5.184   7.095  10.862 -0.0292  0.6024 -0.1072
  140SAPE    C115233   5.145   6.958  10.825  0.0063  0.3276  0.1342
  140SAPE    HA15234   5.218   6.882  10.859 -1.0202 -1.2781 -1.1607
  140SAPE    HB15235   5.048   6.928  10.869  0.3214 -1.5434 -0.4202
  140SAPE    C215236   5.125   6.948  10.672 -0.4034 -0.5308  1.1791
  140SAPE    HS15237   5.085   6.845  10.656  0.2211 -0.5330 -0.4270
  140SAPE   O2115238   5.245   6.976  10.604  0.3619 -0.3849 -0.4211
  140SAPE   C2115239   5.331   6.875  10.608  0.6981  0.4575  0.2921
  140SAPE   O2215240   5.309   6.765  10.656 -0.6330  0.6211  0.3526
  140SAPE   C2215241   5.461   6.921  10.549  0.1130  0.2496 -0.1623
  140SAPE   H2R15242   5.456   7.026  10.513 -2.9779 -0.0389 -0.6763
  140SAPE   H2S15243   5.543   6.899  10.620  0.5327  2.2498  0.0198
  140SAPE    C315244   5.020   7.048  10.618  0.0333 -0.2243  0.6260
  140SAPE    HX15245   5.052   7.149  10.653 -2.7529  1.5687 -1.8379
  140SAPE    HY15246   4.923   7.025  10.666  1.0217 -2.2212  1.7645
  140SAPE   O3115247   5.004   7.030  10.473 -1.0146 -0.8465  0.1200
  140SAPE   C3115248   4.963   7.143  10.415  0.1337 -0.0357 -0.0011
  140SAPE   O3215249   4.942   7.245  10.477 -0.2358 -0.1313 -0.3886
  140SAPE   C3215250   4.971   7.130  10.264  0.0294  0.1471  0.3047
  140SAPE   H2X15251   4.870   7.101  10.230 -0.0795  0.5047  0.3231
  140SAPE   H2Y15252   5.039   7.044  10.241 -0.2326 -0.3958  1.5230
  140SAPE   C2315253   5.490   6.831  10.424 -0.2781  0.1976  0.2782
  140SAPE   H3R15254   5.519   6.733  10.469  0.8769  1.1517  1.6619
  140SAPE   H3S15255   5.581   6.867  10.372  0.7994  1.3036  2.8301
  140SAPE   C2415256   5.370   6.813  10.330  0.0527 -0.3368  0.2508
  140SAPE   H4R15257   5.294   6.750  10.380 -0.7638  0.0983 -0.4429
  140SAPE   H4S15258   5.407   6.751  10.245  0.6757 -0.5043  0.6379
  140SAPE   C2515259   5.312   6.940  10.270 -0.1915 -0.8191 -0.6036
  140SAPE   H5R15260   5.271   7.006  10.348 -0.5683 -1.1278 -0.5397
  140SAPE   C2615261   5.295   6.972  10.139  0.2563 -0.2192  0.8014
  140SAPE   H6R15262   5.242   7.063  10.107  0.2104 -0.5058  0.0641
  140SAPE   C2715263   5.335   6.886  10.019 -0.2284 -0.5635  0.0263
  140SAPE   H7R15264   5.258   6.806  10.017  0.7429 -1.4915  0.1048
  140SAPE   H7S15265   5.434   6.843  10.043  0.6226  1.9102  1.1987
  140SAPE   C2815266   5.336   6.950   9.886  0.3906  0.5178 -0.3623
  140SAPE   H8R15267   5.240   6.983   9.844 -0.7783 -0.9453  1.0740
  140SAPE   C2915268   5.445   6.965   9.815  0.3693 -0.3049 -0.1623
  140SAPE   H9R15269   5.423   7.001   9.713 -0.7545 -0.6868 -0.0606
  140SAPE  C21015270   5.589   6.924   9.839 -0.1736 -0.4323 -0.6574
  140SAPE  H10R15271   5.629   6.910   9.736 -1.8615 -1.6967 -1.1746
  140SAPE  H10S15272   5.578   6.826   9.889 -0.2986  0.1058  0.3845
  140SAPE  C21115273   5.681   7.017   9.922  0.4650 -0.3752 -0.0840
  140SAPE  H11R15274   5.661   7.000  10.029  0.2284 -0.1616 -0.0941
  140SAPE  C21215275   5.762   7.120   9.878 -0.3373  0.0103 -0.3766
  140SAPE  H12R15276   5.822   7.174   9.953 -1.1465  1.6270 -0.8754
  140SAPE  C21315277   5.776   7.155   9.731 -0.5025  0.4596  0.5335
  140SAPE  H13R15278   5.680   7.139   9.677  0.7758 -1.8974 -1.1475
  140SAPE  H13S15279   5.850   7.082   9.691 -0.1722  0.2867  1.4448
  140SAPE  C21415280   5.841   7.292   9.703 -0.2927  0.3965  0.0115
  140SAPE  H14R15281   5.874   7.352   9.789 -0.6187  0.2507  0.2418
  140SAPE  C21515282   5.890   7.337   9.585 -0.1275  0.9680  0.5184
  140SAPE  H15R15283   5.942   7.434   9.581 -0.2314  0.9352 -1.9340
  140SAPE  C21615284   5.886   7.260   9.452 -0.2999 -0.8963 -0.0363
  140SAPE  H16R15285   5.826   7.166   9.459 -1.2471 -0.1403  2.2875
  140SAPE  H16S15286   5.988   7.236   9.414 -1.1362 -1.2497 -2.1770
  140SAPE  C21715287   5.822   7.346   9.328 -0.2177 -0.2471  0.3830
  140SAPE  H17R15288   5.873   7.444   9.335 -1.0417 -0.0135  3.8267
  140SAPE  H17S15289   5.713   7.360   9.342 -0.5974 -3.4953  1.2452
  140SAPE  C21815290   5.842   7.278   9.192  0.3319 -0.2523 -0.2443
  140SAPE  H18R15291   5.756   7.311   9.129 -0.3637 -4.1309 -1.4398
  140SAPE  H18S15292   5.834   7.170   9.215 -1.9951  0.1921  1.1718
  140SAPE  C21915293   5.963   7.324   9.117  0.1031 -0.1030  0.0448
  140SAPE  H19R15294   6.050   7.291   9.177 -1.7131 -1.2662  2.1147
  140SAPE  H19S15295   5.968   7.435   9.110  0.8540 -0.0988  0.5150
  140SAPE  C22015296   5.972   7.260   8.981 -0.3927 -0.0783 -0.2111
  140SAPE  H20R15297   5.984   7.150   8.996  1.7997 -0.0151 -1.3433
  140SAPE  H20S15298   6.062   7.301   8.931 -0.3307 -0.0384 -0.0679
  140SAPE  H20T15299   5.881   7.270   8.918 -0.4278 -0.5114 -0.2359
  140SAPE   C3315300   5.020   7.256  10.189 -0.3415  0.1696 -0.7663
  140SAPE   H3X15301   5.120   7.286  10.227 -0.3737 -1.8169  0.9191
  140SAPE   H3Y15302   4.949   7.335  10.223  0.9132 -0.0565  2.5618
  140SAPE   C3415303   5.021   7.227  10.036 -0.0029  0.6554  0.3326
  140SAPE   H4X15304   5.043   7.119  10.026  0.8675  0.7440  1.2279
  140SAPE   H4Y15305   5.100   7.282   9.981 -1.0232  0.8197 -0.9819
  140SAPE   C3515306   4.889   7.276   9.972  0.7612 -0.0298 -0.3115
  140SAPE   H5X15307   4.880   7.387   9.965  1.1768 -0.0623 -1.4500
  140SAPE   H5Y15308   4.808   7.234  10.036 -0.3490  0.1378 -1.5965
  140SAPE   C3615309   4.858   7.214   9.826 -0.6012 -0.5329 -0.3352
  140SAPE   H6X15310   4.758   7.244   9.790  0.4279  1.4866 -1.5269
  140SAPE   H6Y15311   4.856   7.104   9.847 -1.5101 -0.6652 -1.0906
  140SAPE   C3715312   4.952   7.258   9.714 -0.3134  0.0634  0.4816
  140SAPE   H7X15313   5.049   7.205   9.707 -0.9011 -0.9695 -0.0895
  140SAPE   H7Y15314   4.965   7.368   9.716 -1.1237  0.1485  3.2868
  140SAPE   C3815315   4.878   7.234   9.581 -0.0304 -1.3059 -0.3358
  140SAPE   H8X15316   4.777   7.279   9.577  0.2341 -0.7252 -0.4610
  140SAPE   H8Y15317   4.863   7.123   9.583 -2.8389 -1.0305 -2.9181
  140SAPE   C3915318   4.956   7.288   9.457 -0.0135 -0.0179 -0.2829
  140SAPE   H9X15319   5.063   7.306   9.481  0.2485 -1.0518 -0.6835
  140SAPE   H9Y15320   4.917   7.389   9.431  2.2539  0.7087 -1.0108
  140SAPE  C31015321   4.937   7.203   9.330 -0.4243  0.0614  0.1295
  140SAPE  H10X15322   4.833   7.193   9.292  0.1302 -0.1142 -1.3644
  140SAPE  H10Y15323   4.966   7.099   9.357  1.4136  0.2179 -1.1250
  140SAPE  C31115324   5.009   7.263   9.206 -0.0822  0.0850  0.0540
  140SAPE  H11X15325   5.115   7.274   9.236  0.5836 -0.7343 -1.9028
  140SAPE  H11Y15326   4.968   7.365   9.191  0.8549  0.7968  2.1882
  140SAPE  C31215327   5.007   7.182   9.080 -0.2153  0.1832  0.1516
  140SAPE  H12X15328   4.902   7.146   9.069 -0.7985  1.9466 -0.1411
  140SAPE  H12Y15329   5.072   7.092   9.090 -0.3546  0.0482 -0.1417
  140SAPE  C31315330   5.048   7.262   8.947 -0.3822  0.8887  0.0696
  140SAPE  H13X15331   5.156   7.286   8.952 -0.3368  0.3638  2.4346
  140SAPE  H13Y15332   4.999   7.362   8.951 -2.0390  0.0488  1.5222
  140SAPE  C31415333   5.009   7.183   8.823  0.5121 -0.7236  0.1076
  140SAPE  H14X15334   4.908   7.137   8.834 -1.0415  2.5889  0.4079
  140SAPE  H14Y15335   5.090   7.110   8.805 -0.6152 -1.4982 -1.9462
  140SAPE  C31515336   5.000   7.263   8.694  0.1631 -0.0013  0.3077
  140SAPE  H15X15337   5.106   7.285   8.667  0.3072  1.1082  1.6958
  140SAPE  H15Y15338   4.948   7.360   8.710 -0.6223 -0.5542  1.1297
  140SAPE  C31615339   4.931   7.179   8.580  0.1455  0.0275  0.4287
  140SAPE  H16X15340   4.928   7.248   8.493  2.3519  0.8176  0.9310
  140SAPE  H16Y15341   4.828   7.149   8.609 -0.2679  0.7865 -0.2389
  140SAPE  C31715342   5.012   7.058   8.530  0.0792  0.1930  0.2330
  140SAPE  H17X15343   4.965   7.019   8.437  0.2895  0.5425 -0.0208
  140SAPE  H17Y15344   5.009   6.982   8.611  1.7524  0.6456  0.7368
  140SAPE  C31815345   5.157   7.091   8.492 -0.2357  0.4373  0.0617
  140SAPE  H18X15346   5.193   7.032   8.405  0.8842 -1.1470  1.5619
  140SAPE  H18Y15347   5.232   7.071   8.572  2.3858  0.4861 -2.2801
  140SAPE  H18Z15348   5.174   7.195   8.455 -0.2931  0.6430  0.6152
  141SAPE     N15349   5.498   0.206  11.139 -0.0224 -0.0147  0.3323
  141SAPE   HN115350   5.559   0.281  11.176  1.4255 -0.7448 -0.5103
  141SAPE   HN215351   5.419   0.263  11.104 -0.6879 -1.7651 -1.1156
  141SAPE   HN315352   5.472   0.152  11.224 -0.0310 -1.5247 -0.6095
  141SAPE   C1215353   5.565   0.112  11.036  0.1229 -0.7778 -0.8583
  141SAPE  H12A15354   5.480   0.051  10.996 -0.1482 -0.8250 -0.2164
  141SAPE  H12B15355   5.624   0.035  11.090 -1.9219 -1.2724  0.7314
  141SAPE   C1115356   5.629   0.191  10.929  0.9825  0.5854  0.0188
  141SAPE  H11A15357   5.558   0.255  10.873  3.0376  0.6312 -2.6404
  141SAPE  H11B15358   5.676   0.117  10.861  0.4008  0.1793  0.0553
  141SAPE     P15359   5.823   0.372  10.923  0.2760  0.1727 -0.4553
  141SAPE   O1315360   5.754   0.496  10.954 -0.0129 -0.5049  0.7295
  141SAPE   O1415361   5.967   0.360  10.967 -0.1824  0.4699  0.8728
  141SAPE   O1215362   5.735   0.263  10.990 -0.0019 -0.0688  0.3064
  141SAPE   O1115363   5.810   0.337  10.774  0.1447  0.4220 -0.1930
  141SAPE    C115364   5.914   0.381  10.692  0.4480 -0.5103 -0.1007
  141SAPE    HA15365   5.926   0.491  10.679  0.9175 -0.5420  0.0481
  141SAPE    HB15366   6.013   0.354  10.735  0.7008  1.5117  0.6354
  141SAPE    C215367   5.912   0.292  10.564  0.2730  0.1725  0.1494
  141SAPE    HS15368   5.999   0.315  10.499  0.7588 -0.1711  0.6776
  141SAPE   O2115369   5.792   0.303  10.495 -0.3297 -0.5886  0.1070
  141SAPE   C2115370   5.789   0.401  10.415 -0.1780 -0.1088  0.5571
  141SAPE   O2215371   5.876   0.488  10.406  0.1843 -0.6109 -0.4252
  141SAPE   C2215372   5.661   0.416  10.344 -0.0963 -0.3311 -0.6064
  141SAPE   H2R15373   5.607   0.320  10.330  0.2623 -0.7175  0.6413
  141SAPE   H2S15374   5.591   0.465  10.415 -0.3500 -1.1690 -0.2713
  141SAPE    C315375   5.928   0.139  10.603 -0.0665  0.3166  0.3757
  141SAPE    HX15376   5.835   0.119  10.660 -0.1578  1.0679  0.4982
  141SAPE    HY15377   6.014   0.134  10.673  0.8747  0.7024 -0.7437
  141SAPE   O3115378   5.958   0.057  10.489 -0.4293 -0.9205 -0.3519
  141SAPE   C3115379   5.878  -0.046  10.468  0.0283 -0.2085  0.6407
  141SAPE   O3215380   5.789  -0.084  10.544 -0.0390  0.5616 -0.1710
  141SAPE   C3215381   5.907  -0.112  10.332  0.1480  0.4343 -0.4622
  141SAPE   H2X15382   5.947  -0.214  10.349 -3.8483 -1.3759 -1.3746
  141SAPE   H2Y15383   5.985  -0.052  10.280 -0.4672  0.4709 -1.3561
  141SAPE   C2315384   5.661   0.502  10.216  0.3682  0.1128 -0.6762
  141SAPE   H3R15385   5.737   0.449  10.154  1.8951 -0.8748  1.9592
  141SAPE   H3S15386   5.685   0.607  10.241 -0.6733  0.7003 -2.0440
  141SAPE   C2415387   5.532   0.496  10.139 -0.4304  0.0944  0.6241
  141SAPE   H4R15388   5.510   0.391  10.110 -0.3436  0.0863  0.5854
  141SAPE   H4S15389   5.551   0.534  10.037 -0.4269 -0.2116  0.5083
  141SAPE   C2515390   5.423   0.563  10.221 -0.8485 -0.3120  0.1635
  141SAPE   H5R15391   5.361   0.487  10.270 -0.2137  1.1298  3.2770
  141SAPE   C2615392   5.399   0.697  10.241  0.0566 -0.4671  0.6414
  141SAPE   H6R15393   5.318   0.729  10.308 -0.9974  0.4194 -1.0250
  141SAPE   C2715394   5.473   0.813  10.182 -0.2580 -0.1894  0.4430
  141SAPE   H7R15395   5.412   0.855  10.099  0.6986 -1.0176 -0.6843
  141SAPE   H7S15396   5.569   0.774  10.144 -0.4765 -0.7439  0.4526
  141SAPE   C2815397   5.485   0.926  10.284  0.4791 -0.8504 -0.2866
  141SAPE   H8R15398   5.536   0.902  10.379  5.5750  0.3028 -2.5788
  141SAPE   C2915399   5.471   1.056  10.259  0.2226 -0.4624  0.1644
  141SAPE   H9R15400   5.490   1.126  10.342 -1.9180  1.4961 -0.9329
  141SAPE  C21015401   5.438   1.116  10.126  0.1527  0.1464 -0.4566
  141SAPE  H10R15402   5.328   1.105  10.113  0.2109  0.8103 -1.6693
  141SAPE  H10S15403   5.475   1.057  10.039 -1.5459 -0.9139 -0.4902
  141SAPE  C21115404   5.463   1.271  10.115  0.4806  0.3964 -0.7405
  141SAPE  H11R15405   5.420   1.325  10.200  0.3133  2.0968 -1.8827
  141SAPE  C21215406   5.517   1.336  10.008  0.0104 -0.2441  0.1245
  141SAPE  H12R15407   5.524   1.446  10.015 -2.7806  0.0289 -0.5835
  141SAPE  C21315408   5.552   1.277   9.874 -1.0160 -0.6046 -0.5462
  141SAPE  H13R15409   5.540   1.166   9.869 -0.4110 -0.7934  1.7010
  141SAPE  H13S15410   5.663   1.282   9.870 -0.8757 -2.3549  0.3970
  141SAPE  C21415411   5.496   1.341   9.755  0.1374  0.5481  0.7293
  141SAPE  H14R15412   5.509   1.449   9.742 -1.2815  0.6353 -0.1471
  141SAPE  C21515413   5.426   1.279   9.661 -0.5874 -0.0781 -0.6443
  141SAPE  H15R15414   5.384   1.341   9.581 -0.7165  0.6768  0.0005
  141SAPE  C21615415   5.381   1.132   9.646  0.6663  0.4859  0.2054
  141SAPE  H16R15416   5.273   1.106   9.656  0.5726 -0.3579 -2.4434
  141SAPE  H16S15417   5.439   1.080   9.725 -0.7627  0.1298  1.0336
  141SAPE  C21715418   5.413   1.060   9.512  0.5969 -0.1953  0.1303
  141SAPE  H17R15419   5.386   0.952   9.514  0.2170 -0.0793  1.5897
  141SAPE  H17S15420   5.522   1.056   9.494  0.1600 -1.8106 -2.5930
  141SAPE  C21815421   5.352   1.132   9.391 -0.3030  0.3060 -0.5196
  141SAPE  H18R15422   5.424   1.212   9.363  0.7995 -0.3842  0.3085
  141SAPE  H18S15423   5.260   1.178   9.432  0.3536  0.4726  0.8155
  141SAPE  C21915424   5.305   1.047   9.270  0.4269 -0.1485  0.3042
  141SAPE  H19R15425   5.213   1.000   9.310  1.1513  0.2458  2.5064
  141SAPE  H19S15426   5.386   0.975   9.244  0.9788  1.1360 -1.6695
  141SAPE  C22015427   5.277   1.135   9.141 -0.5597  0.9997 -0.5807
  141SAPE  H20R15428   5.235   1.065   9.066  0.1794  1.0357 -1.0307
  141SAPE  H20S15429   5.374   1.174   9.102 -1.3212  1.3417 -2.1462
  141SAPE  H20T15430   5.205   1.216   9.166 -2.3761 -0.8259  0.2454
  141SAPE   C3315431   5.781  -0.119  10.237  0.2100  1.1451 -0.1819
  141SAPE   H3X15432   5.734  -0.024  10.206  0.9331  1.7295  0.5102
  141SAPE   H3Y15433   5.709  -0.185  10.291  0.5256  0.4146 -0.6399
  141SAPE   C3415434   5.823  -0.196  10.111 -0.5327 -0.3494  0.2578
  141SAPE   H4X15435   5.725  -0.221  10.066 -1.5852  1.0970  1.6772
  141SAPE   H4Y15436   5.875  -0.291  10.139 -2.5403 -1.7659 -0.6720
  141SAPE   C3515437   5.905  -0.120  10.001  0.7019  0.4335  0.7008
  141SAPE   H5X15438   5.994  -0.069  10.044  0.5104  3.1839 -2.0165
  141SAPE   H5Y15439   5.852  -0.027   9.972  0.9794  0.2715 -0.3282
  141SAPE   C3615440   5.945  -0.203   9.885  0.5764 -0.0966  0.3540
  141SAPE   H6X15441   5.848  -0.228   9.836  0.3838  1.9285 -0.3890
  141SAPE   H6Y15442   5.993  -0.300   9.907 -1.2147 -0.0334  4.9643
  141SAPE   C3715443   6.023  -0.128   9.773 -0.0342  0.4713  0.3422
  141SAPE   H7X15444   6.090  -0.197   9.718 -1.7194 -1.6030  0.8309
  141SAPE   H7Y15445   6.082  -0.049   9.824  0.9706 -1.2032  1.8350
  141SAPE   C3815446   5.931  -0.056   9.667  0.1027  0.2626 -0.3924
  141SAPE   H8X15447   5.906   0.038   9.722 -0.7802  0.6037 -1.3591
  141SAPE   H8Y15448   5.832  -0.099   9.641 -0.1980  0.5073  0.3122
  141SAPE   C3915449   5.995  -0.009   9.529 -0.2056 -0.0849  0.3988
  141SAPE   H9X15450   6.092   0.038   9.554  1.5087 -2.2703 -1.9366
  141SAPE   H9Y15451   5.926   0.061   9.478 -0.8359 -0.7634  0.3063
  141SAPE  C31015452   6.014  -0.118   9.427 -0.2910 -0.3929 -0.6926
  141SAPE  H10X15453   5.937  -0.196   9.446 -0.8273  0.1483 -0.6501
  141SAPE  H10Y15454   6.105  -0.177   9.450  0.9089 -0.0129 -4.1937
  141SAPE  C31115455   6.007  -0.075   9.287 -0.2611  0.6191 -0.6485
  141SAPE  H11X15456   6.056   0.024   9.286  1.0434  0.1789  4.4832
  141SAPE  H11Y15457   5.901  -0.051   9.262 -0.3800 -1.7931 -2.6655
  141SAPE  C31215458   6.073  -0.168   9.180  0.1016 -0.1965 -0.1244
  141SAPE  H12X15459   6.015  -0.263   9.176  0.4047 -0.4780  1.5942
  141SAPE  H12Y15460   6.171  -0.196   9.226 -0.2808  0.8968  1.3917
  141SAPE  C31315461   6.087  -0.096   9.045 -0.3678  0.4540 -0.0817
  141SAPE  H13X15462   6.125  -0.173   8.974 -0.3531  0.9157 -0.5743
  141SAPE  H13Y15463   6.156  -0.009   9.048 -2.8724  2.4985  0.5271
  141SAPE  C31415464   5.946  -0.052   9.001 -0.3660 -0.6877  0.0855
  141SAPE  H14X15465   5.909   0.023   9.074 -2.8689 -1.2138 -0.5821
  141SAPE  H14Y15466   5.870  -0.133   9.006 -0.3503 -0.7051  0.0403
  141SAPE  C31515467   5.953   0.016   8.871  0.0101 -0.3396 -0.6965
  141SAPE  H15X15468   5.974  -0.061   8.793 -0.5593  0.3356 -1.5142
  141SAPE  H15Y15469   6.040   0.083   8.856  0.9812 -1.2389  0.7511
  141SAPE  C31615470   5.830   0.104   8.828 -0.0457 -0.2929 -0.3190
  141SAPE  H16X15471   5.829   0.186   8.903 -0.0499  1.3925 -2.1357
  141SAPE  H16Y15472   5.728   0.061   8.829 -0.7294  1.3038 -0.3218
  141SAPE  C31715473   5.838   0.165   8.691  0.1524  0.9022  0.3714
  141SAPE  H17X15474   5.850   0.083   8.617 -1.8960  0.0503  0.9308
  141SAPE  H17Y15475   5.934   0.220   8.686  0.2585  0.7319  0.5001
  141SAPE  C31815476   5.721   0.249   8.654  1.1029 -0.1755  0.3334
  141SAPE  H18X15477   5.749   0.303   8.562 -2.3516  0.5212 -0.3750
  141SAPE  H18Y15478   5.691   0.318   8.736  1.6453 -0.3092  0.6415
  141SAPE  H18Z15479   5.631   0.190   8.628  1.2764 -0.2640 -0.0599
  142SAPE     N15480   6.114   0.134  11.060  0.1828 -0.3114  0.0184
  142SAPE   HN115481   6.206   0.088  11.044  0.2103  0.0539 -0.9203
  142SAPE   HN215482   6.096   0.211  10.993 -2.6812 -1.2265 -0.3293
  142SAPE   HN315483   6.106   0.175  11.155 -1.6248 -1.9989  0.6330
  142SAPE   C1215484   6.000   0.039  11.047  1.5999 -0.0563 -0.1517
  142SAPE  H12A15485   5.910   0.089  11.005  1.3721 -0.4516 -0.1400
  142SAPE  H12B15486   5.982  -0.008  11.146  0.3415 -1.7357 -1.1418
  142SAPE   C1115487   6.038  -0.071  10.946  0.2649 -0.4804 -0.1223
  142SAPE  H11A15488   6.074  -0.035  10.847 -1.7302  0.7887 -0.4013
  142SAPE  H11B15489   5.941  -0.122  10.932 -0.0439  0.0023  0.2366
  142SAPE     P15490   6.104  -0.301  11.070 -0.1024  0.1091  0.0946
  142SAPE   O1315491   6.232  -0.355  11.125  0.1312 -0.1347  0.5767
  142SAPE   O1415492   5.984  -0.311  11.156  0.4115  0.2080  0.1395
  142SAPE   O1215493   6.126  -0.156  11.021 -0.9089  0.5534 -0.2825
  142SAPE   O1115494   6.084  -0.392  10.942  0.1003  0.4165 -0.1796
  142SAPE    C115495   6.169  -0.368  10.829  0.0030  0.8642  1.3494
  142SAPE    HA15496   6.126  -0.286  10.767 -0.4786 -0.0154  0.5085
  142SAPE    HB15497   6.273  -0.348  10.862  0.1125  1.7440  0.5088
  142SAPE    C215498   6.168  -0.484  10.722 -0.9473  0.9348 -0.0291
  142SAPE    HS15499   6.226  -0.456  10.631  0.5350 -2.5498 -0.2652
  142SAPE   O2115500   6.032  -0.517  10.697 -0.1974  0.0924  0.1342
  142SAPE   C2115501   5.961  -0.459  10.602  0.6363  0.5890 -0.0475
  142SAPE   O2215502   5.989  -0.362  10.534 -0.1299 -0.8751 -0.1333
  142SAPE   C2215503   5.834  -0.549  10.566 -0.7862 -0.2874  0.0946
  142SAPE   H2R15504   5.874  -0.651  10.548  0.6255  0.6672 -2.4379
  142SAPE   H2S15505   5.765  -0.536  10.653 -0.6739  0.6200  0.0564
  142SAPE    C315506   6.245  -0.616  10.769  1.1214  0.3617 -0.1244
  142SAPE    HX15507   6.206  -0.638  10.870 -0.7578  2.2648 -0.3904
  142SAPE    HY15508   6.352  -0.592  10.786  0.1994  2.8709  2.4530
  142SAPE   O3115509   6.230  -0.722  10.672 -0.0633 -0.2576  0.3452
  142SAPE   C3115510   6.134  -0.811  10.688 -0.6482 -0.5991  0.1599
  142SAPE   O3215511   6.045  -0.802  10.771 -0.5374  0.7386  0.2887
  142SAPE   C3215512   6.147  -0.929  10.602 -0.1176 -0.5032  0.1416
  142SAPE   H2X15513   6.194  -1.012  10.659  0.1988 -0.1264  0.4290
  142SAPE   H2Y15514   6.220  -0.910  10.521 -0.8543  0.1337 -0.3906
  142SAPE   C2315515   5.768  -0.503  10.433  0.3290  0.0990  0.0610
  142SAPE   H3R15516   5.832  -0.517  10.343  0.5605 -1.9188  0.4985
  142SAPE   H3S15517   5.752  -0.394  10.437  1.1666  0.1797  1.2542
  142SAPE   C2415518   5.629  -0.569  10.423  0.4314 -0.4589  0.4221
  142SAPE   H4R15519   5.585  -0.516  10.336  0.3635 -0.2190  0.6018
  142SAPE   H4S15520   5.565  -0.554  10.513  1.0003  3.9445  0.1823
  142SAPE   C2515521   5.631  -0.714  10.373 -0.8614 -0.0436  0.2351
  142SAPE   H5R15522   5.593  -0.772  10.458  0.0566 -1.8654 -0.5712
  142SAPE   C2615523   5.680  -0.769  10.261  0.1746 -0.0091  0.8538
  142SAPE   H6R15524   5.683  -0.876  10.235  2.2575  0.3820 -0.6780
  142SAPE   C2715525   5.732  -0.682  10.149 -0.6510  0.1687  0.6043
  142SAPE   H7R15526   5.839  -0.667  10.174 -0.5281 -0.6549  0.5640
  142SAPE   H7S15527   5.695  -0.577  10.156  1.3030  1.1491 -2.7388
  142SAPE   C2815528   5.721  -0.739  10.011 -0.1425  0.2969 -0.0526
  142SAPE   H8R15529   5.677  -0.840  10.009  1.3991 -0.4054  0.7374
  142SAPE   C2915530   5.750  -0.671   9.899 -0.3742  0.0673  0.2748
  142SAPE   H9R15531   5.741  -0.733   9.808 -1.8982  0.2414  0.3024
  142SAPE  C21015532   5.802  -0.535   9.902 -0.2035 -0.2075  0.3256
  142SAPE  H10R15533   5.913  -0.541   9.890  0.1064  2.4924  1.5651
  142SAPE  H10S15534   5.781  -0.481   9.997  0.5712  2.3982 -0.9449
  142SAPE  C21115535   5.752  -0.466   9.774  0.4378 -0.2050  0.3873
  142SAPE  H11R15536   5.676  -0.388   9.789 -1.0059 -1.4370 -0.4254
  142SAPE  C21215537   5.812  -0.471   9.654 -0.6340 -0.5551  0.4513
  142SAPE  H12R15538   5.773  -0.407   9.574  0.1228 -1.5592 -0.7270
  142SAPE  C21315539   5.936  -0.548   9.611  0.0726 -0.3410  0.7795
  142SAPE  H13R15540   5.928  -0.656   9.637  1.2149 -0.7063 -0.3799
  142SAPE  H13S15541   6.028  -0.512   9.661  1.5974  0.7613 -2.6891
  142SAPE  C21415542   5.954  -0.535   9.462 -0.4008  0.2113  0.4437
  142SAPE  H14R15543   5.877  -0.576   9.395  0.3035 -1.3042  0.5624
  142SAPE  C21515544   6.062  -0.499   9.391  0.6120 -0.3769  0.1028
  142SAPE  H15R15545   6.056  -0.487   9.282 -1.1893  1.5925  0.3856
  142SAPE  C21615546   6.196  -0.452   9.447  0.4786 -0.8240 -0.0834
  142SAPE  H16R15547   6.203  -0.464   9.557 -3.1240 -2.2566  0.0668
  142SAPE  H16S15548   6.215  -0.344   9.427  1.5546 -0.9346  0.2999
  142SAPE  C21715549   6.320  -0.524   9.379  0.2318 -0.3992  0.1839
  142SAPE  H17R15550   6.296  -0.632   9.380 -1.3919 -0.0623  1.4390
  142SAPE  H17S15551   6.413  -0.501   9.435  0.2111 -0.2879  0.1731
  142SAPE  C21815552   6.333  -0.486   9.234 -0.8367  0.6028  0.4094
  142SAPE  H18R15553   6.327  -0.375   9.230 -0.9935  0.6344  1.4636
  142SAPE  H18S15554   6.247  -0.523   9.174 -1.1140 -0.1128  1.2340
  142SAPE  C21915555   6.460  -0.546   9.168  0.1705 -0.5824  0.0937
  142SAPE  H19R15556   6.543  -0.525   9.239 -0.0747  1.5772 -0.2272
  142SAPE  H19S15557   6.482  -0.491   9.074  3.4156 -1.0437  0.5301
  142SAPE  C22015558   6.448  -0.683   9.125 -0.5232  1.0184  0.2534
  142SAPE  H20R15559   6.550  -0.724   9.110 -0.8230  0.7240 -1.0670
  142SAPE  H20S15560   6.392  -0.701   9.031  1.2800  0.1917 -0.6802
  142SAPE  H20T15561   6.410  -0.740   9.212 -1.5131 -0.8020 -1.3423
  142SAPE   C3315562   6.009  -0.978  10.552  0.1890 -0.3021  0.6373
  142SAPE   H3X15563   5.934  -0.898  10.536 -1.0327 -1.2382  1.6233
  142SAPE   H3Y15564   5.972  -1.037  10.638  3.2536 -2.1783  0.7292
  142SAPE   C3415565   6.013  -1.061  10.432  0.3004  0.1430  0.2490
  142SAPE   H4X15566   5.914  -1.111  10.423 -0.9737  2.4791  0.9207
  142SAPE   H4Y15567   6.100  -1.130  10.428  0.4682  0.3554  0.2442
  142SAPE   C3515568   6.017  -0.982  10.293 -0.0381  0.0742 -0.4635
  142SAPE   H5X15569   6.099  -0.908  10.300  0.4373 -0.2893 -2.1402
  142SAPE   H5Y15570   5.916  -0.938  10.280  0.9277  1.8475 -2.1053
  142SAPE   C3615571   6.059  -1.072  10.178  0.1335  0.4657 -1.0980
  142SAPE   H6X15572   5.984  -1.154  10.173  0.0657  0.4535 -0.0454
  142SAPE   H6Y15573   6.158  -1.121  10.192  0.4739  2.0809  2.8147
  142SAPE   C3715574   6.053  -1.006  10.037 -0.5578 -0.0380  0.5401
  142SAPE   H7X15575   6.130  -0.927  10.030 -0.2267 -0.3591  0.5763
  142SAPE   H7Y15576   5.952  -0.960  10.040 -1.1393 -1.3815  2.9159
  142SAPE   C3815577   6.073  -1.111   9.931  0.5390 -0.5252  0.6050
  142SAPE   H8X15578   6.001  -1.195   9.948 -1.7287  1.2914  0.3172
  142SAPE   H8Y15579   6.173  -1.160   9.933  0.5488 -0.4971  3.6153
  142SAPE   C3915580   6.045  -1.050   9.790 -0.6785 -0.3946 -0.4877
  142SAPE   H9X15581   6.114  -0.963   9.779 -1.1550 -0.3033 -2.9377
  142SAPE   H9Y15582   5.943  -1.005   9.789 -0.6359 -0.3138 -2.1058
  142SAPE  C31015583   6.066  -1.146   9.676 -0.4734  0.2847  0.1819
  142SAPE  H10X15584   6.023  -1.109   9.580  1.9829  1.1537 -0.6482
  142SAPE  H10Y15585   6.012  -1.240   9.699 -0.6820  0.1870 -0.6777
  142SAPE  C31115586   6.214  -1.173   9.650 -0.2282 -0.1342 -0.3161
  142SAPE  H11X15587   6.260  -1.231   9.732  1.8796 -0.0272 -1.3714
  142SAPE  H11Y15588   6.272  -1.080   9.628 -2.0637  0.7398 -1.6110
  142SAPE  C31215589   6.212  -1.263   9.525 -0.1056  1.0505  0.5985
  142SAPE  H12X15590   6.124  -1.237   9.462  0.5825 -0.0422 -0.8495
  142SAPE  H12Y15591   6.194  -1.367   9.560  1.0504  0.6593  0.0547
  142SAPE  C31315592   6.330  -1.259   9.425 -0.5532 -0.7688 -0.4795
  142SAPE  H13X15593   6.412  -1.318   9.471 -0.8369 -0.2843  0.6774
  142SAPE  H13Y15594   6.369  -1.155   9.436 -0.9527 -0.4855 -1.7127
  142SAPE  C31415595   6.298  -1.307   9.288 -0.1400  0.1568 -0.4876
  142SAPE  H14X15596   6.210  -1.250   9.251 -0.8958 -0.5580  0.1903
  142SAPE  H14Y15597   6.277  -1.416   9.296 -0.2643  0.0368 -2.1199
  142SAPE  C31515598   6.428  -1.294   9.208  0.4433 -0.3488  0.5783
  142SAPE  H15X15599   6.503  -1.329   9.282 -1.2719 -2.1718  1.5310
  142SAPE  H15Y15600   6.447  -1.189   9.177 -1.3406 -0.2055 -0.1139
  142SAPE  C31615601   6.439  -1.386   9.089 -0.0144  0.3642  0.1762
  142SAPE  H16X15602   6.370  -1.356   9.007 -0.1120 -0.4138 -0.0346
  142SAPE  H16Y15603   6.412  -1.488   9.123  0.9407 -0.3357 -1.0914
  142SAPE  C31715604   6.574  -1.402   9.034 -0.1890 -0.9177 -0.1587
  142SAPE  H17X15605   6.578  -1.503   8.988 -1.2924 -0.0804 -2.1267
  142SAPE  H17Y15606   6.648  -1.388   9.116 -2.4893 -0.9158  1.9870
  142SAPE  C31815607   6.604  -1.297   8.924  0.8766  0.1814 -0.0709
  142SAPE  H18X15608   6.571  -1.195   8.951 -2.0625  0.2945 -3.7673
  142SAPE  H18Y15609   6.543  -1.322   8.834  1.9265 -0.0516 -0.7227
  142SAPE  H18Z15610   6.713  -1.295   8.903  0.4138  0.5208 -2.6440
  143SAPE     N15611   0.082   6.079  10.814  0.4288  0.0106 -0.5723
  143SAPE   HN115612   0.058   6.032  10.724  0.2183  1.4934 -1.2950
  143SAPE   HN215613   0.007   6.142  10.848 -0.4823 -1.3630  0.0407
  143SAPE   HN315614   0.177   6.120  10.807  1.9376 -3.2620 -0.2538
  143SAPE   C1215615   0.094   5.965  10.913 -0.7792  0.3465  0.3208
  143SAPE  H12A15616  -0.003   5.911  10.914  0.2492 -1.7002 -3.1565
  143SAPE  H12B15617   0.119   5.996  11.017 -0.4831  0.7314  0.1378
  143SAPE   C1115618   0.189   5.853  10.864 -0.1409 -0.0055  0.3025
  143SAPE  H11A15619   0.153   5.823  10.763  0.9785 -0.3573  0.0017
  143SAPE  H11B15620   0.176   5.767  10.933 -1.6945 -2.0453 -2.4339
  143SAPE     P15621   0.428   5.872  10.964 -0.1194  0.1309  0.0671
  143SAPE   O1315622   0.379   5.963  11.070  1.1672 -0.4850 -0.2073
  143SAPE   O1415623   0.432   5.726  11.006  0.0593 -0.0052 -0.7505
  143SAPE   O1215624   0.320   5.903  10.851  0.7459  0.0247  0.4815
  143SAPE   O1115625   0.569   5.916  10.899 -0.3196  0.0570  0.6936
  143SAPE    C115626   0.582   6.050  10.834  0.0735 -0.0035 -0.0015
  143SAPE    HA15627   0.493   6.115  10.836 -0.4588 -0.7408  0.5621
  143SAPE    HB15628   0.665   6.104  10.884  1.2844 -2.4849  0.7886
  143SAPE    C215629   0.626   6.041  10.684 -0.1229 -0.7351 -0.3799
  143SAPE    HS15630   0.601   6.133  10.626  1.6515 -0.9768 -1.5474
  143SAPE   O2115631   0.558   5.929  10.630 -0.0606  0.5956 -0.7087
  143SAPE   C2115632   0.434   5.962  10.598 -0.0950 -0.1380  0.6911
  143SAPE   O2215633   0.383   6.069  10.625 -0.1709 -0.6590  0.3814
  143SAPE   C2215634   0.374   5.863  10.504  0.4106  0.0916 -0.0565
  143SAPE   H2R15635   0.420   5.765  10.481  1.2398  0.7412 -1.2208
  143SAPE   H2S15636   0.275   5.840  10.549  0.5065 -2.1546 -0.8980
  143SAPE    C315637   0.785   6.032  10.677 -0.5975  0.2333 -0.1968
  143SAPE    HX15638   0.826   5.945  10.734  2.0149 -0.5364 -3.1102
  143SAPE    HY15639   0.817   6.127  10.726 -0.2693 -0.2209  0.4763
  143SAPE   O3115640   0.834   6.043  10.541 -0.2679 -0.4551 -0.5518
  143SAPE   C3115641   0.851   5.924  10.487 -0.0754  0.0171  0.0871
  143SAPE   O3215642   0.840   5.816  10.540 -0.2056  0.3703 -0.3602
  143SAPE   C3215643   0.903   5.945  10.345 -0.1302  0.1519  0.4120
  143SAPE   H2X15644   0.862   6.031  10.288 -0.8589  0.3099  1.1749
  143SAPE   H2Y15645   0.876   5.846  10.300 -0.7958  0.9092 -0.8894
  143SAPE   C2315646   0.350   5.931  10.365 -0.9565  0.5583 -0.1428
  143SAPE   H3R15647   0.302   6.031  10.371 -1.3732  0.3274  0.4821
  143SAPE   H3S15648   0.278   5.863  10.316  2.1992 -1.2670 -2.4027
  143SAPE   C2415649   0.485   5.947  10.280  0.4109 -0.2034 -0.0423
  143SAPE   H4R15650   0.541   5.852  10.271 -0.3296 -0.3730 -3.6609
  143SAPE   H4S15651   0.551   6.022  10.329  0.1944  0.3530 -0.6088
  143SAPE   C2515652   0.445   5.993  10.143 -0.0018 -0.1963 -0.2682
  143SAPE   H5R15653   0.377   6.079  10.137  1.7676  1.2251 -0.5470
  143SAPE   C2615654   0.477   5.933  10.025 -0.2368  0.3777  0.4571
  143SAPE   H6R15655   0.445   5.981   9.931  0.6125  2.2216  1.0903
  143SAPE   C2715656   0.554   5.807   9.991 -0.4211 -0.3849 -0.2843
  143SAPE   H7R15657   0.555   5.788   9.882  1.8014 -2.1775  0.0035
  143SAPE   H7S15658   0.499   5.716  10.024  1.2282 -1.5281 -0.6132
  143SAPE   C2815659   0.698   5.791  10.045  0.4368  0.0581 -0.1642
  143SAPE   H8R15660   0.697   5.733  10.138 -2.7510 -0.0766 -0.2217
  143SAPE   C2915661   0.811   5.825   9.985 -0.5503 -0.1593 -0.7216
  143SAPE   H9R15662   0.908   5.813  10.034 -0.4789  0.8061 -0.6200
  143SAPE  C21015663   0.821   5.890   9.847  0.3126 -0.3209  0.3562
  143SAPE  H10R15664   0.728   5.881   9.787  0.5326  1.5012 -0.3128
  143SAPE  H10S15665   0.893   5.822   9.797 -0.8579 -1.0372 -0.3831
  143SAPE  C21115666   0.855   6.037   9.851 -0.2507  0.0378  0.7770
  143SAPE  H11R15667   0.823   6.085   9.944 -0.2703 -1.0791  1.3624
  143SAPE  C21215668   0.902   6.119   9.751  0.6019  0.5009  0.2248
  143SAPE  H12R15669   0.907   6.226   9.776  0.5307  0.5896 -0.1416
  143SAPE  C21315670   0.942   6.082   9.613 -0.4457  0.2207  0.4392
  143SAPE  H13R15671   0.877   6.000   9.575 -0.0559 -0.6992  1.7237
  143SAPE  H13S15672   1.041   6.030   9.617 -0.1776  0.5817 -0.9728
  143SAPE  C21415673   0.949   6.193   9.510 -0.3567 -0.1894  0.0909
  143SAPE  H14R15674   0.851   6.230   9.475  0.3942  1.1807 -0.5766
  143SAPE  C21515675   1.056   6.240   9.446  0.4557 -0.7599  0.9208
  143SAPE  H15R15676   1.043   6.330   9.385 -0.2370  0.3198  2.6298
  143SAPE  C21615677   1.197   6.199   9.471  0.0561  0.3424 -0.1623
  143SAPE  H16R15678   1.210   6.146   9.567 -1.3027 -0.4583 -0.4098
  143SAPE  H16S15679   1.250   6.295   9.489  2.3572 -0.6508 -1.3361
  143SAPE  C21715680   1.253   6.107   9.362  0.3139 -0.4316 -0.5455
  143SAPE  H17R15681   1.222   6.004   9.389 -1.7111  0.6679  1.4413
  143SAPE  H17S15682   1.363   6.116   9.375  0.0575  1.7705  0.2290
  143SAPE  C21815683   1.222   6.150   9.216  0.3510  0.3253  0.1008
  143SAPE  H18R15684   1.235   6.259   9.203  0.3873  0.4486  1.1675
  143SAPE  H18S15685   1.116   6.129   9.189  0.6438 -1.8662  0.5190
  143SAPE  C21915686   1.312   6.075   9.113  0.1445  0.4948 -0.1674
  143SAPE  H19R15687   1.272   5.972   9.107 -0.3199  0.7223 -1.0691
  143SAPE  H19S15688   1.415   6.060   9.152 -0.3265 -1.4279  0.3985
  143SAPE  C22015689   1.321   6.139   8.974  0.5262 -0.0695  0.0990
  143SAPE  H20R15690   1.401   6.217   8.971  0.9449 -0.4690  0.9038
  143SAPE  H20S15691   1.225   6.187   8.946 -0.8949 -3.2026 -0.6099
  143SAPE  H20T15692   1.334   6.054   8.903  0.2943 -0.2121  0.2297
  143SAPE   C3315693   1.055   5.961  10.342  0.2849  0.6285  0.6133
  143SAPE   H3X15694   1.117   5.871  10.361  2.0192  1.4065 -1.2569
  143SAPE   H3Y15695   1.081   6.045  10.409 -0.8931  1.4440  0.0613
  143SAPE   C3415696   1.080   6.025  10.205 -0.0980  0.7671 -0.3917
  143SAPE   H4X15697   1.027   6.123  10.207 -0.3859  0.5777  1.6410
  143SAPE   H4Y15698   1.056   5.962  10.116 -0.2003  2.3301 -1.5075
  143SAPE   C3515699   1.229   6.071  10.186 -0.1540 -0.7180 -0.0173
  143SAPE   H5X15700   1.305   5.992  10.200  1.0322  0.4249  0.1103
  143SAPE   H5Y15701   1.256   6.148  10.262 -0.6050 -0.1517 -0.4232
  143SAPE   C3615702   1.242   6.147  10.054 -0.2143 -0.3769 -0.8656
  143SAPE   H6X15703   1.225   6.087   9.963  0.3840  0.2065 -1.3712
  143SAPE   H6Y15704   1.350   6.170  10.048 -0.3252  0.2044 -0.6946
  143SAPE   C3715705   1.161   6.282  10.045 -0.1905 -0.1993  0.4941
  143SAPE   H7X15706   1.171   6.344  10.137  0.6304  0.4346 -0.0148
  143SAPE   H7Y15707   1.054   6.258  10.027  0.3977 -2.8007  0.3306
  143SAPE   C3815708   1.206   6.360   9.920 -0.5724 -0.0449  0.1835
  143SAPE   H8X15709   1.218   6.292   9.833  1.2067 -0.1367  0.4644
  143SAPE   H8Y15710   1.308   6.396   9.944 -0.1872  0.5904 -2.2911
  143SAPE   C3915711   1.125   6.489   9.896  1.0549  0.2353 -0.2989
  143SAPE   H9X15712   1.110   6.550   9.988  1.0870  1.5763 -1.1587
  143SAPE   H9Y15713   1.021   6.468   9.865  0.6052  0.3315  1.1212
  143SAPE  C31015714   1.206   6.586   9.804 -0.3343 -0.6674  0.1418
  143SAPE  H10X15715   1.302   6.613   9.851 -0.7377 -1.4402  1.4329
  143SAPE  H10Y15716   1.140   6.674   9.796  0.7590 -0.0644 -3.1955
  143SAPE  C31115717   1.218   6.534   9.651 -0.7734  0.3211  0.1609
  143SAPE  H11X15718   1.121   6.479   9.644  0.1515 -1.2604 -0.4296
  143SAPE  H11Y15719   1.309   6.470   9.649  0.1869  1.6404  0.8659
  143SAPE  C31215720   1.230   6.636   9.540  0.1287 -0.7022 -0.6370
  143SAPE  H12X15721   1.296   6.714   9.585  0.3006 -1.6992  0.8537
  143SAPE  H12Y15722   1.133   6.687   9.521  0.8574  0.9280 -0.1373
  143SAPE  C31315723   1.293   6.580   9.412  1.0176  0.3521  0.1237
  143SAPE  H13X15724   1.236   6.489   9.386 -3.4926  3.3422 -1.1414
  143SAPE  H13Y15725   1.402   6.567   9.427  1.1172  0.0459 -0.8330
  143SAPE  C31415726   1.278   6.679   9.294 -0.3993 -0.4777 -0.3926
  143SAPE  H14X15727   1.348   6.762   9.319 -0.7332  0.2765 -1.8929
  143SAPE  H14Y15728   1.170   6.702   9.282 -0.6599 -2.2975 -1.7546
  143SAPE  C31515729   1.327   6.613   9.164  0.1261 -0.1050  0.2454
  143SAPE  H15X15730   1.265   6.525   9.137  0.2109 -0.6450  1.7551
  143SAPE  H15Y15731   1.432   6.582   9.187 -0.7495 -1.5840  2.5581
  143SAPE  C31615732   1.335   6.701   9.037 -0.2579 -0.3776  0.4613
  143SAPE  H16X15733   1.406   6.785   9.050  1.0771 -1.3934 -0.0906
  143SAPE  H16Y15734   1.242   6.756   9.015  0.6571  0.5804 -1.1501
  143SAPE  C31715735   1.356   6.628   8.902 -0.0155  0.1968 -0.0607
  143SAPE  H17X15736   1.299   6.534   8.887  1.3522 -0.3858 -1.7641
  143SAPE  H17Y15737   1.462   6.594   8.907  0.2504  0.9040 -0.7542
  143SAPE  C31815738   1.345   6.717   8.779 -0.0665  0.0172  0.5665
  143SAPE  H18X15739   1.410   6.806   8.790 -3.0570  2.0514  2.3484
  143SAPE  H18Y15740   1.244   6.762   8.774  0.3156  0.8246 -0.0186
  143SAPE  H18Z15741   1.355   6.653   8.688  0.7028 -0.0968  0.7306
  144SAPE     N15742   4.013   4.724  11.000 -0.2729  0.4492  0.8473
  144SAPE   HN115743   4.079   4.727  11.080 -0.3307 -0.1126  0.9158
  144SAPE   HN215744   3.970   4.629  11.007 -1.2345  0.7316 -0.9475
  144SAPE   HN315745   4.068   4.731  10.912 -0.1459  2.3980  1.0777
  144SAPE   C1215746   3.924   4.848  11.015 -0.3721 -0.1393 -0.1084
  144SAPE  H12A15747   3.870   4.828  11.111  0.5083  1.4453  0.7461
  144SAPE  H12B15748   3.855   4.851  10.928  0.5436 -2.2438 -0.9491
  144SAPE   C1115749   4.013   4.974  11.028 -0.6521  0.2170  0.2411
  144SAPE  H11A15750   4.079   4.968  11.117  0.9621 -0.0835 -0.9573
  144SAPE  H11B15751   3.945   5.061  11.042 -1.7038 -0.2825 -1.5872
  144SAPE     P15752   4.175   5.117  10.875 -0.0937  0.2038 -0.4927
  144SAPE   O1315753   4.107   5.246  10.890 -0.9387 -0.2413 -0.0858
  144SAPE   O1415754   4.290   5.091  10.964 -0.2833  0.1899  0.6127
  144SAPE   O1215755   4.072   4.996  10.897  0.1021  0.1864 -0.2856
  144SAPE   O1115756   4.216   5.094  10.725  0.6126 -0.2427 -0.0577
  144SAPE    C115757   4.231   4.963  10.674  0.3921  0.5515 -0.2819
  144SAPE    HA15758   4.337   4.951  10.640 -0.1099  1.3922 -2.2021
  144SAPE    HB15759   4.190   4.882  10.738  1.0910  1.4460  1.3271
  144SAPE    C215760   4.149   4.942  10.542  0.8774  0.6301 -0.7069
  144SAPE    HS15761   4.131   4.833  10.535  0.2350  0.8293 -2.2211
  144SAPE   O2115762   4.237   4.992  10.436 -0.4281  0.1831 -0.3436
  144SAPE   C2115763   4.211   4.960  10.308  0.2141 -0.7369 -1.0908
  144SAPE   O2215764   4.133   4.872  10.273 -0.3632  0.2485  0.2094
  144SAPE   C2215765   4.272   5.062  10.213 -0.2325  0.2639  0.3668
  144SAPE   H2R15766   4.263   5.161  10.261 -1.0630 -0.4188  1.6483
  144SAPE   H2S15767   4.377   5.034  10.193  0.6867  1.6018  3.1735
  144SAPE    C315768   4.011   5.012  10.548 -0.2334  0.5010  0.2779
  144SAPE    HX15769   4.024   5.117  10.581  2.1911 -0.3851  2.2283
  144SAPE    HY15770   3.964   4.960  10.634  0.1092 -2.3567 -1.1784
  144SAPE   O3115771   3.924   5.007  10.428  0.2403  0.2320  0.0474
  144SAPE   C3115772   3.849   4.899  10.413 -0.1874  0.8113  0.8677
  144SAPE   O3215773   3.852   4.795  10.479 -0.4617 -0.2836  0.9173
  144SAPE   C3215774   3.777   4.919  10.279  0.6615  0.1054 -0.4418
  144SAPE   H2X15775   3.844   4.980  10.214  0.7349 -0.6599 -1.0903
  144SAPE   H2Y15776   3.684   4.972  10.310  1.7211  1.2100  0.9911
  144SAPE   C2315777   4.201   5.061  10.070 -0.3529  0.4778 -0.7310
  144SAPE   H3R15778   4.095   5.084  10.091 -0.4429 -2.4528  2.4528
  144SAPE   H3S15779   4.197   4.957  10.031 -2.4371  0.7074 -1.1683
  144SAPE   C2415780   4.261   5.156   9.964  0.0774  0.5321 -0.8777
  144SAPE   H4R15781   4.339   5.109   9.900 -0.6801 -2.3685  0.2966
  144SAPE   H4S15782   4.306   5.236  10.028 -0.4158 -0.0399  0.1839
  144SAPE   C2515783   4.161   5.232   9.881 -0.6589  0.7664 -0.2310
  144SAPE   H5R15784   4.120   5.322   9.928 -1.1616  1.4571 -1.9546
  144SAPE   C2615785   4.138   5.215   9.749  0.0327  0.1738  0.1078
  144SAPE   H6R15786   4.060   5.271   9.695 -0.5320 -4.0765 -3.7629
  144SAPE   C2715787   4.201   5.107   9.663  0.3795 -1.0533 -0.0474
  144SAPE   H7R15788   4.177   5.020   9.728  0.2350 -0.4963  0.6514
  144SAPE   H7S15789   4.311   5.120   9.655  0.2108  0.3653 -0.1900
  144SAPE   C2815790   4.157   5.099   9.518  0.6882 -0.0991  0.5867
  144SAPE   H8R15791   4.208   5.176   9.458 -0.2981  0.6411  0.6891
  144SAPE   C2915792   4.085   5.003   9.451 -0.2885  0.6545 -0.0656
  144SAPE   H9R15793   4.069   5.011   9.343  3.4065 -0.1885 -0.7338
  144SAPE  C21015794   4.025   4.870   9.503 -0.7069 -0.4515  0.3806
  144SAPE  H10R15795   4.020   4.858   9.614 -5.0332 -2.2717  0.0857
  144SAPE  H10S15796   4.085   4.788   9.457  0.3177  1.4838 -1.8392
  144SAPE  C21115797   3.881   4.868   9.465  0.7924  0.1032 -0.5934
  144SAPE  H11R15798   3.810   4.872   9.550 -0.0594  0.9709 -1.3284
  144SAPE  C21215799   3.819   4.854   9.343  0.1896  0.7392 -0.3936
  144SAPE  H12R15800   3.710   4.846   9.341  0.2591 -0.3830  0.0886
  144SAPE  C21315801   3.891   4.840   9.210 -0.3910 -0.2400  0.0121
  144SAPE  H13R15802   3.994   4.801   9.227 -0.0088  0.3354 -0.9684
  144SAPE  H13S15803   3.915   4.944   9.179  0.0395 -0.5985 -0.8854
  144SAPE  C21415804   3.819   4.755   9.112 -0.5358  0.1390  0.2298
  144SAPE  H14R15805   3.843   4.648   9.119  1.7688  0.6149 -0.0810
  144SAPE  C21515806   3.732   4.795   9.015 -0.0986 -0.0448 -0.0149
  144SAPE  H15R15807   3.691   4.727   8.940 -0.7340 -0.8358  1.0321
  144SAPE  C21615808   3.696   4.939   8.986 -0.3785  0.8007  0.0008
  144SAPE  H16R15809   3.761   5.003   9.049  1.0560 -0.1929 -0.4355
  144SAPE  H16S15810   3.594   4.949   9.028 -1.0772 -1.1627 -1.1586
  144SAPE  C21715811   3.712   4.990   8.841 -0.2814 -0.3024  0.2459
  144SAPE  H17R15812   3.800   4.939   8.796 -1.4774 -0.0188 -2.4877
  144SAPE  H17S15813   3.726   5.100   8.842  1.3149 -0.4800 -1.1034
  144SAPE  C21815814   3.595   4.944   8.763  0.0900  0.1996  0.0797
  144SAPE  H18R15815   3.502   4.999   8.788 -0.7178 -0.0275 -2.2702
  144SAPE  H18S15816   3.571   4.836   8.779 -1.6884  0.5576 -0.0814
  144SAPE  C21915817   3.622   4.960   8.611 -0.0114 -0.0236  0.0394
  144SAPE  H19R15818   3.727   4.946   8.579 -1.1951 -2.9959 -2.8171
  144SAPE  H19S15819   3.608   5.069   8.592 -1.1621  0.1336  1.6622
  144SAPE  C22015820   3.535   4.878   8.515  0.0553  0.7111 -0.1123
  144SAPE  H20R15821   3.544   4.768   8.529 -3.3245  0.4797  0.5233
  144SAPE  H20S15822   3.546   4.902   8.407 -0.7880  0.9692 -0.1428
  144SAPE  H20T15823   3.433   4.905   8.548  0.0283  0.3805  0.0738
  144SAPE   C3315824   3.757   4.787  10.208  0.8712 -0.0690  0.5510
  144SAPE   H3X15825   3.682   4.805  10.128  0.7454  0.2703  0.7423
  144SAPE   H3Y15826   3.703   4.710  10.268  0.9685 -1.1016 -0.6790
  144SAPE   C3415827   3.883   4.719  10.146  0.3299 -0.4245  0.4226
  144SAPE   H4X15828   3.958   4.681  10.218 -0.1751 -0.1215  1.1260
  144SAPE   H4Y15829   3.924   4.812  10.102 -1.4653 -0.4503 -1.4066
  144SAPE   C3515830   3.847   4.621  10.038 -0.3424 -0.0840 -0.3000
  144SAPE   H5X15831   3.742   4.642  10.008 -0.1370  0.7247 -0.4586
  144SAPE   H5Y15832   3.850   4.517  10.077  0.1050  0.5014  1.2681
  144SAPE   C3615833   3.946   4.632   9.923  0.1032  0.3121  0.1822
  144SAPE   H6X15834   4.051   4.626   9.957 -0.1313  1.4119  1.1088
  144SAPE   H6Y15835   3.939   4.732   9.874 -0.6190 -1.1033 -2.7146
  144SAPE   C3715836   3.914   4.522   9.818  0.1630 -0.0790  1.0834
  144SAPE   H7X15837   3.804   4.521   9.806  0.2190 -0.4269  0.5557
  144SAPE   H7Y15838   3.945   4.427   9.868  0.2633  0.2968  1.7366
  144SAPE   C3815839   3.988   4.548   9.685 -0.2032 -0.0726 -0.3913
  144SAPE   H8X15840   4.094   4.554   9.719 -0.9990  1.5247  1.9706
  144SAPE   H8Y15841   3.971   4.650   9.645  1.0223  0.4967  0.5352
  144SAPE   C3915842   3.962   4.449   9.567  0.0646 -0.1311  0.0278
  144SAPE   H9X15843   3.856   4.455   9.535  0.2062 -0.7878 -0.5658
  144SAPE   H9Y15844   3.989   4.343   9.586  0.0530 -0.4165 -1.4943
  144SAPE  C31015845   4.040   4.488   9.430 -0.5450 -0.2655 -0.2162
  144SAPE  H10X15846   4.147   4.463   9.441 -0.1212  1.9499  1.2094
  144SAPE  H10Y15847   4.024   4.596   9.409  0.2673 -0.8970 -4.3559
  144SAPE  C31115848   3.963   4.410   9.317 -0.6617 -0.3107  0.2205
  144SAPE  H11X15849   3.857   4.443   9.320 -1.1908 -1.8703 -0.4329
  144SAPE  H11Y15850   3.956   4.300   9.336  3.0186 -0.9560 -1.6120
  144SAPE  C31215851   4.023   4.432   9.178  0.2445  0.4130  0.0579
  144SAPE  H12X15852   4.123   4.383   9.178 -1.3553 -3.1030  3.2700
  144SAPE  H12Y15853   4.037   4.542   9.172  1.2693  0.5279  3.4766
  144SAPE  C31315854   3.949   4.375   9.056 -0.3362  0.5947  0.5244
  144SAPE  H13X15855   3.850   4.423   9.051  0.0578  1.2180 -1.6283
  144SAPE  H13Y15856   3.930   4.265   9.063 -1.8020  0.8936  1.3557
  144SAPE  C31415857   4.023   4.400   8.922  0.2842 -0.5816 -0.6352
  144SAPE  H14X15858   3.966   4.347   8.843 -1.1926 -1.5689  1.0547
  144SAPE  H14Y15859   4.124   4.358   8.938  0.3341  0.0331  0.8080
  144SAPE  C31515860   4.034   4.558   8.888 -0.1886  0.3178  0.1329
  144SAPE  H15X15861   4.097   4.621   8.954  0.1807  1.2527 -1.1072
  144SAPE  H15Y15862   3.936   4.607   8.874  0.4083  1.6615  0.5428
  144SAPE  C31615863   4.092   4.573   8.739  0.3235 -0.0573 -0.3050
  144SAPE  H16X15864   4.076   4.682   8.724  1.8981 -0.1132 -2.4796
  144SAPE  H16Y15865   4.027   4.515   8.670 -1.6706 -0.1386  1.5639
  144SAPE  C31715866   4.242   4.544   8.725 -0.5154 -0.1403  0.3413
  144SAPE  H17X15867   4.257   4.434   8.712  0.1473  0.0747 -0.8304
  144SAPE  H17Y15868   4.298   4.577   8.814  1.2222  0.9622 -1.1218
  144SAPE  C31815869   4.289   4.613   8.598 -0.2480 -0.0258  0.4570
  144SAPE  H18X15870   4.396   4.588   8.581 -0.0361  0.7380  0.6680
  144SAPE  H18Y15871   4.263   4.720   8.605 -1.7011 -0.5240  3.6739
  144SAPE  H18Z15872   4.237   4.566   8.511  2.4116  0.8390 -1.6649
  145SAPE     N15873   1.632   5.748  11.409  0.3785  0.2295 -0.1002
  145SAPE   HN115874   1.648   5.700  11.319  2.9767  1.2882 -0.2280
  145SAPE   HN215875   1.705   5.819  11.427  0.8849 -0.4716  0.6246
  145SAPE   HN315876   1.646   5.677  11.484  1.1001  0.0986 -0.3612
  145SAPE   C1215877   1.502   5.813  11.395  0.2164 -0.5641 -0.0792
  145SAPE  H12A15878   1.475   5.891  11.469 -1.4510 -2.2052  1.0635
  145SAPE  H12B15879   1.421   5.738  11.406  0.1223 -0.2278  1.6607
  145SAPE   C1115880   1.490   5.875  11.250  0.4018  0.4634 -0.7545
  145SAPE  H11A15881   1.489   5.790  11.178  0.2452 -0.3611  0.2004
  145SAPE  H11B15882   1.569   5.951  11.234  2.0166 -0.8724  0.6783
  145SAPE     P15883   1.352   6.051  11.126 -0.4979 -0.2276  0.0822
  145SAPE   O1315884   1.225   6.038  11.051  0.5211  0.2069 -0.2378
  145SAPE   O1415885   1.376   6.182  11.189 -0.0427 -0.6049 -0.2480
  145SAPE   O1215886   1.359   5.934  11.240  0.5279  0.6437  0.0607
  145SAPE   O1115887   1.461   6.003  11.020 -0.3333  0.7006  0.3492
  145SAPE    C115888   1.549   6.099  10.960 -0.5707  0.5908  0.4668
  145SAPE    HA15889   1.490   6.173  10.903  0.6040  0.6178 -0.7359
  145SAPE    HB15890   1.615   6.144  11.037  1.8791  1.0996 -1.8469
  145SAPE    C215891   1.640   6.033  10.853  0.3223  0.3326  0.5471
  145SAPE    HS15892   1.701   6.116  10.811  2.7511 -2.4037 -1.5553
  145SAPE   O2115893   1.561   5.971  10.751  0.2282  0.3734 -0.3870
  145SAPE   C2115894   1.502   6.047  10.665  0.1063  0.9801 -0.8247
  145SAPE   O2215895   1.493   6.173  10.669  0.3798  0.1206  0.4722
  145SAPE   C2215896   1.432   5.966  10.555  0.0991  0.3310  0.2320
  145SAPE   H2R15897   1.333   5.930  10.592 -0.6142  1.1698 -0.8360
  145SAPE   H2S15898   1.408   6.036  10.473 -0.6772  1.1061  1.1054
  145SAPE    C315899   1.739   5.924  10.910 -0.1151  0.1634  0.0793
  145SAPE    HX15900   1.670   5.851  10.958 -0.0283 -0.2014 -0.3476
  145SAPE    HY15901   1.808   5.971  10.984 -2.7556  0.2506  2.5532
  145SAPE   O3115902   1.805   5.853  10.808  0.3506 -0.0311  0.4622
  145SAPE   C3115903   1.902   5.916  10.748  0.0258  0.0122 -0.6178
  145SAPE   O3215904   1.945   6.023  10.783 -0.3625 -0.4183 -0.4919
  145SAPE   C3215905   1.956   5.835  10.629 -0.8653  0.0575  0.3767
  145SAPE   H2X15906   1.871   5.820  10.559 -1.2296  2.2409  0.3343
  145SAPE   H2Y15907   2.001   5.737  10.656 -1.3845 -0.5642 -0.9329
  145SAPE   C2315908   1.524   5.859  10.507 -0.5012 -0.8695  0.0154
  145SAPE   H3R15909   1.471   5.802  10.427  1.4162 -1.5672 -0.7802
  145SAPE   H3S15910   1.557   5.792  10.590  3.1426  0.4441 -0.3054
  145SAPE   C2415911   1.642   5.919  10.434  0.0246 -0.3419 -0.0931
  145SAPE   H4R15912   1.713   5.840  10.404  0.3394 -0.1804  0.2220
  145SAPE   H4S15913   1.697   5.980  10.509 -2.1773  2.4698 -0.6781
  145SAPE   C2515914   1.601   6.007  10.310  0.2156  0.0480  0.7908
  145SAPE   H5R15915   1.591   6.113  10.338  1.3649  0.0413  1.2830
  145SAPE   C2615916   1.593   5.958  10.183  0.0999  0.2605  0.0675
  145SAPE   H6R15917   1.572   6.027  10.100  0.1921  0.3342  0.1059
  145SAPE   C2715918   1.608   5.807  10.156 -0.4635 -0.6580 -0.4990
  145SAPE   H7R15919   1.522   5.776  10.093 -1.1719  2.5446 -1.2270
  145SAPE   H7S15920   1.585   5.751  10.249  2.9363 -4.1935 -1.6516
  145SAPE   C2815921   1.742   5.741  10.114  0.6850  0.0316  0.0277
  145SAPE   H8R15922   1.819   5.725  10.190 -0.1263  0.4447  0.9385
  145SAPE   C2915923   1.778   5.719   9.987 -0.4547  0.2261  0.5548
  145SAPE   H9R15924   1.873   5.667   9.970 -0.7889 -0.7549  1.6022
  145SAPE  C21015925   1.703   5.733   9.864 -0.1230 -0.2523 -0.8546
  145SAPE  H10R15926   1.685   5.841   9.848  2.5664  0.0551 -1.9968
  145SAPE  H10S15927   1.599   5.696   9.880 -1.1186  2.7584 -0.1290
  145SAPE  C21115928   1.765   5.667   9.743 -0.0783  0.1094  0.4532
  145SAPE  H11R15929   1.875   5.664   9.738  0.0046  0.2076  1.9021
  145SAPE  C21215930   1.691   5.617   9.639 -0.3456 -0.7925 -0.0196
  145SAPE  H12R15931   1.745   5.570   9.556  0.9051  0.4510  0.0647
  145SAPE  C21315932   1.542   5.621   9.629  0.4291  0.4824 -0.1412
  145SAPE  H13R15933   1.494   5.625   9.729 -2.3842  1.2580 -1.4677
  145SAPE  H13S15934   1.505   5.525   9.588 -0.6490 -0.6048  3.2506
  145SAPE  C21415935   1.485   5.739   9.549 -0.0143  0.5204  0.8127
  145SAPE  H14R15936   1.467   5.828   9.612  0.3514  0.0983  1.5079
  145SAPE  C21515937   1.455   5.741   9.415 -0.5297 -0.7388 -0.0107
  145SAPE  H15R15938   1.420   5.835   9.370 -0.7485 -0.3051  1.0536
  145SAPE  C21615939   1.471   5.626   9.317  0.0378 -0.0497  0.3637
  145SAPE  H16R15940   1.374   5.607   9.266  1.1424  0.5287 -2.0304
  145SAPE  H16S15941   1.499   5.538   9.379  0.4676 -1.2650 -1.4967
  145SAPE  C21715942   1.573   5.632   9.198  0.4744 -0.3733  0.3896
  145SAPE  H17R15943   1.554   5.720   9.133  3.2032  0.3928  0.5700
  145SAPE  H17S15944   1.545   5.545   9.134  1.1953  1.4432 -2.4554
  145SAPE  C21815945   1.714   5.637   9.242  0.6864  0.3547  0.0181
  145SAPE  H18R15946   1.738   5.557   9.315  0.6954  0.7661  0.4709
  145SAPE  H18S15947   1.726   5.737   9.288  1.6806  0.9690 -1.5441
  145SAPE  C21915948   1.802   5.616   9.116  0.6005  0.5859 -0.0356
  145SAPE  H19R15949   1.797   5.704   9.049  2.0248  0.9574  0.3376
  145SAPE  H19S15950   1.770   5.525   9.060  1.6889  0.4083 -0.3673
  145SAPE  C22015951   1.954   5.598   9.154 -0.5233  0.2152  0.0931
  145SAPE  H20R15952   2.014   5.585   9.061 -0.8774 -1.5874  0.0882
  145SAPE  H20S15953   1.962   5.520   9.233 -1.6159  1.7139  1.7011
  145SAPE  H20T15954   1.986   5.700   9.183  1.7147  0.2207 -2.1817
  145SAPE   C3315955   2.072   5.905  10.560  0.7489 -0.6895 -0.2640
  145SAPE   H3X15956   2.156   5.840  10.526  0.9428 -0.4277 -0.2877
  145SAPE   H3Y15957   2.115   5.984  10.626  0.8732 -0.5291 -0.5341
  145SAPE   C3415958   2.046   5.989  10.434 -0.1325 -0.0135  0.6850
  145SAPE   H4X15959   2.078   6.095  10.444 -3.0456  0.9935 -0.1186
  145SAPE   H4Y15960   1.935   5.994  10.425 -0.2481 -1.5344  1.0869
  145SAPE   C3515961   2.075   5.912  10.303  0.4129 -0.0196  0.0121
  145SAPE   H5X15962   2.013   5.820  10.309  0.0588  0.3299  2.6652
  145SAPE   H5Y15963   2.179   5.875  10.295 -0.2129 -1.8317  0.0427
  145SAPE   C3615964   2.031   5.999  10.188 -0.3722 -0.0163  0.2314
  145SAPE   H6X15965   2.086   6.094  10.207  0.7229  0.1291 -3.3127
  145SAPE   H6Y15966   1.921   6.011  10.195 -0.3347 -0.5122  1.7558
  145SAPE   C3715967   2.055   5.948  10.051 -0.3441  0.7570  0.3575
  145SAPE   H7X15968   1.991   5.858  10.037 -0.1214  0.0715  3.4102
  145SAPE   H7Y15969   2.160   5.913  10.034 -1.1434 -2.4349  1.4918
  145SAPE   C3815970   1.997   6.030   9.936 -0.4708 -0.6100  0.7398
  145SAPE   H8X15971   2.038   6.133   9.941  0.9406 -1.0736 -0.9516
  145SAPE   H8Y15972   1.886   6.037   9.946 -0.7885  0.0650 -2.7443
  145SAPE   C3915973   2.029   5.964   9.803  0.2227 -0.2910 -0.1510
  145SAPE   H9X15974   1.982   5.863   9.798 -0.7491  0.0517  1.7425
  145SAPE   H9Y15975   2.137   5.939   9.798 -0.3171 -2.9767  0.9243
  145SAPE  C31015976   1.996   6.046   9.679 -0.0655  0.1159 -0.0616
  145SAPE  H10X15977   2.059   6.136   9.668 -0.1248  0.0349 -1.1096
  145SAPE  H10Y15978   1.890   6.074   9.701  0.1903  0.7753  0.3449
  145SAPE  C31115979   2.005   5.957   9.556 -0.0502  0.1785  0.2945
  145SAPE  H11X15980   1.923   5.883   9.563  1.4244 -1.5509 -0.1716
  145SAPE  H11Y15981   2.101   5.902   9.545 -1.0725 -2.2898  2.9766
  145SAPE  C31215982   1.987   6.042   9.432 -0.4223 -0.5596  0.4025
  145SAPE  H12X15983   2.063   6.123   9.429 -1.0353 -0.0440 -1.7495
  145SAPE  H12Y15984   1.888   6.094   9.442 -1.4228 -2.4730  0.6049
  145SAPE  C31315985   1.989   5.956   9.311  0.0876  0.6783  0.4656
  145SAPE  H13X15986   1.894   5.899   9.308  0.4673  0.0774 -0.7041
  145SAPE  H13Y15987   2.079   5.891   9.312  0.8143  1.6456 -0.4457
  145SAPE  C31415988   2.000   6.037   9.180  0.3916 -0.7337  0.1615
  145SAPE  H14X15989   2.082   6.111   9.182  1.3554 -1.7881  0.1112
  145SAPE  H14Y15990   1.907   6.097   9.176  0.7913 -0.1475 -0.3235
  145SAPE  C31515991   2.002   5.953   9.054 -0.2827  0.4182  0.4630
  145SAPE  H15X15992   1.919   5.880   9.042  1.5107 -1.5999 -0.0833
  145SAPE  H15Y15993   2.090   5.886   9.040 -2.1066 -1.5910 -2.1371
  145SAPE  C31615994   2.004   6.049   8.929 -0.1136 -1.4765  0.2251
  145SAPE  H16X15995   2.086   6.122   8.946 -1.2634  0.0971 -0.7767
  145SAPE  H16Y15996   1.913   6.114   8.929  0.2875 -0.9026 -0.1344
  145SAPE  C31715997   2.026   5.966   8.801 -0.1183 -0.3509 -0.2993
  145SAPE  H17X15998   1.923   5.942   8.765 -0.1373  1.5603 -1.6570
  145SAPE  H17Y15999   2.077   5.872   8.828  0.2548 -0.1581 -0.3338
  145SAPE  C31816000   2.092   6.034   8.682  0.7748 -0.0994 -0.2727
  145SAPE  H18X16001   2.097   5.971   8.591 -0.1179  0.0716 -0.4484
  145SAPE  H18Y16002   2.197   6.057   8.707  1.0979 -2.4011  0.6420
  145SAPE  H18Z16003   2.036   6.121   8.643  1.4954 -0.0336 -1.1614
  146SAPE     N16004   4.799   4.847  10.957 -0.1909  0.2247 -0.6950
  146SAPE   HN116005   4.826   4.752  10.990  0.3524  0.5637 -0.1323
  146SAPE   HN216006   4.839   4.921  11.020  0.9028 -1.4765  0.6683
  146SAPE   HN316007   4.699   4.867  10.975 -0.1409 -1.3684  1.4987
  146SAPE   C1216008   4.837   4.878  10.819  0.3974  0.1660 -0.5493
  146SAPE  H12A16009   4.766   4.839  10.742  0.0012  1.7912 -1.0257
  146SAPE  H12B16010   4.937   4.838  10.792  0.2730  0.4377 -1.4273
  146SAPE   C1116011   4.840   5.026  10.789 -0.7149 -0.6131  0.7692
  146SAPE  H11A16012   4.740   5.066  10.816 -0.7106  0.3239 -0.5582
  146SAPE  H11B16013   4.851   5.033  10.678  1.9707  0.3421  1.0743
  146SAPE     P16014   4.968   5.247  10.846 -0.0063 -0.2095 -0.1930
  146SAPE   O1316015   4.838   5.315  10.830  0.6889  0.2986  0.0918
  146SAPE   O1416016   5.055   5.293  10.958  0.3959  0.4131  0.6159
  146SAPE   O1216017   4.940   5.090  10.860 -0.5725 -0.1326 -0.5570
  146SAPE   O1116018   5.056   5.259  10.714 -0.2613  0.1756 -0.3405
  146SAPE    C116019   5.171   5.178  10.702  0.1183 -0.2373 -0.0891
  146SAPE    HA16020   5.246   5.207  10.779 -0.5300  0.2199  0.3747
  146SAPE    HB16021   5.142   5.071  10.704 -0.4456 -0.0826  0.1511
  146SAPE    C216022   5.245   5.205  10.571 -0.2888  0.0531 -0.1567
  146SAPE    HS16023   5.327   5.131  10.582  0.5029  0.9944  0.3126
  146SAPE   O2116024   5.296   5.333  10.565 -0.4433 -0.8703  0.0920
  146SAPE   C2116025   5.396   5.363  10.639  0.1106 -0.3535 -0.4035
  146SAPE   O2216026   5.466   5.296  10.714  0.3462 -0.6923 -0.5917
  146SAPE   C2216027   5.416   5.517  10.619  0.2385  0.2915  0.7393
  146SAPE   H2R16028   5.345   5.551  10.541  0.1639  1.0454  1.1249
  146SAPE   H2S16029   5.407   5.578  10.711  2.2946 -0.5431  1.5292
  146SAPE    C316030   5.156   5.172  10.444  0.3989  0.3451 -0.2726
  146SAPE    HX16031   5.081   5.251  10.422 -1.1802 -1.4626 -1.5234
  146SAPE    HY16032   5.091   5.085  10.465  1.0658 -0.4832 -1.5938
  146SAPE   O3116033   5.229   5.166  10.322 -0.3930  0.1506  0.2827
  146SAPE   C3116034   5.327   5.073  10.325 -0.3469  0.3372 -0.3664
  146SAPE   O3216035   5.335   4.979  10.399 -0.0787 -0.1192 -0.0042
  146SAPE   C3216036   5.414   5.103  10.208 -0.2666 -0.2656  0.3821
  146SAPE   H2X16037   5.383   5.194  10.152 -2.2398 -1.0725  0.0957
  146SAPE   H2Y16038   5.406   5.015  10.140 -0.4229 -0.0514  0.1218
  146SAPE   C2316039   5.554   5.541  10.548  0.5144  0.1759 -0.3681
  146SAPE   H3R16040   5.630   5.483  10.604  1.5256  1.2057 -0.6515
  146SAPE   H3S16041   5.580   5.649  10.550 -0.8283  0.5521 -2.3565
  146SAPE   C2416042   5.555   5.498  10.401  0.1842 -0.1404  0.1104
  146SAPE   H4R16043   5.456   5.527  10.360  0.0876 -0.3484  0.1997
  146SAPE   H4S16044   5.574   5.389  10.400 -1.9212 -0.5323  0.9612
  146SAPE   C2516045   5.671   5.567  10.333  0.1168  0.0451  0.5186
  146SAPE   H5R16046   5.768   5.563  10.385  0.7117  1.1934 -0.4724
  146SAPE   C2616047   5.661   5.643  10.216  0.5793 -0.3875  0.7212
  146SAPE   H6R16048   5.759   5.679  10.180  1.0329 -1.5601  0.7812
  146SAPE   C2716049   5.541   5.672  10.129 -0.7218  0.1513 -0.5055
  146SAPE   H7R16050   5.546   5.776  10.090 -0.4293  1.4086  2.7100
  146SAPE   H7S16051   5.455   5.676  10.200 -0.6893 -1.6596 -0.3215
  146SAPE   C2816052   5.516   5.571  10.017 -0.1623  0.3373  0.6637
  146SAPE   H8R16053   5.465   5.480  10.053  1.0552  0.1395  1.9383
  146SAPE   C2916054   5.549   5.580   9.884  0.2715 -0.0751  0.0242
  146SAPE   H9R16055   5.527   5.493   9.821  2.5776  0.6990 -1.9332
  146SAPE  C21016056   5.617   5.695   9.808 -0.0875 -0.5343  0.9435
  146SAPE  H10R16057   5.655   5.769   9.882  2.0696 -0.4073 -0.2487
  146SAPE  H10S16058   5.541   5.746   9.746  0.6361  2.1645  2.2228
  146SAPE  C21116059   5.727   5.648   9.721  0.9430 -0.5560 -0.3917
  146SAPE  H11R16060   5.807   5.588   9.765  1.2557  0.8588  0.9623
  146SAPE  C21216061   5.746   5.668   9.586  0.1176  0.9247  0.0249
  146SAPE  H12R16062   5.833   5.623   9.537  0.9776  1.9230  0.6189
  146SAPE  C21316063   5.662   5.755   9.495 -0.1455  0.3842  0.3528
  146SAPE  H13R16064   5.724   5.848   9.492  3.3448 -1.8330  0.8396
  146SAPE  H13S16065   5.567   5.789   9.541 -0.5962  0.4825 -0.6548
  146SAPE  C21416066   5.645   5.690   9.358  0.3391 -0.3967  0.1674
  146SAPE  H14R16067   5.552   5.632   9.350 -0.7783  0.7748  3.5491
  146SAPE  C21516068   5.721   5.709   9.250  0.3304  0.6728 -0.3589
  146SAPE  H15R16069   5.700   5.649   9.160 -1.8034  1.1685 -0.2248
  146SAPE  C21616070   5.832   5.808   9.242 -0.2391 -0.0489  0.0090
  146SAPE  H16R16071   5.811   5.896   9.307 -0.2788 -0.1513  0.1364
  146SAPE  H16S16072   5.838   5.844   9.137 -0.3869  1.9718  0.6796
  146SAPE  C21716073   5.971   5.754   9.275  0.2151 -0.2101 -0.4847
  146SAPE  H17R16074   5.996   5.685   9.193  0.9691 -0.2305 -0.2388
  146SAPE  H17S16075   5.953   5.694   9.367 -0.1136  0.3507 -0.1774
  146SAPE  C21816076   6.084   5.855   9.301 -0.4834 -0.5750 -0.6393
  146SAPE  H18R16077   6.169   5.793   9.336 -1.0616 -1.3100 -0.5245
  146SAPE  H18S16078   6.051   5.926   9.380 -0.8211 -2.4358  0.9349
  146SAPE  C21916079   6.118   5.931   9.172  0.2259  0.5107  0.3151
  146SAPE  H19R16080   6.194   6.008   9.196  1.3109  0.3095 -2.3091
  146SAPE  H19S16081   6.026   5.981   9.135  0.4910 -0.3117 -1.4831
  146SAPE  C22016082   6.163   5.842   9.055  0.5398  0.1412 -0.2637
  146SAPE  H20R16083   6.233   5.767   9.098 -1.7080 -0.8706  1.7809
  146SAPE  H20S16084   6.211   5.906   8.978 -0.4246  1.1074 -0.0719
  146SAPE  H20T16085   6.093   5.775   9.003 -1.2943  1.5809  0.3089
  146SAPE   C3316086   5.571   5.111  10.236 -0.2770  0.6154  0.0479
  146SAPE   H3X16087   5.626   5.018  10.257 -0.4556  0.5580  0.2588
  146SAPE   H3Y16088   5.585   5.189  10.314 -1.0780  1.6740 -0.8368
  146SAPE   C3416089   5.642   5.183  10.111 -0.0680 -0.2456  0.2310
  146SAPE   H4X16090   5.590   5.281  10.108 -2.5804 -1.3832  3.4987
  146SAPE   H4Y16091   5.599   5.139  10.019 -2.1938  0.1508  1.0021
  146SAPE   C3516092   5.794   5.202  10.109  0.3347 -0.1689 -0.0289
  146SAPE   H5X16093   5.841   5.106  10.079  2.2007  0.4660  0.8085
  146SAPE   H5Y16094   5.833   5.235  10.207 -0.7960 -0.9465  0.6796
  146SAPE   C3616095   5.824   5.295   9.987 -0.4135 -0.4090 -0.4882
  146SAPE   H6X16096   5.933   5.311   9.973 -0.3373  0.5264  1.0843
  146SAPE   H6Y16097   5.785   5.399   9.999  1.4427  0.1117  1.4086
  146SAPE   C3716098   5.784   5.232   9.854  0.2527 -0.6252  0.2397
  146SAPE   H7X16099   5.675   5.242   9.838  0.5347 -0.7675 -2.0376
  146SAPE   H7Y16100   5.803   5.122   9.860 -0.7022 -0.7030  2.0081
  146SAPE   C3816101   5.876   5.290   9.742 -0.3106  0.3784  0.7684
  146SAPE   H8X16102   5.985   5.275   9.759 -0.1139  1.3834  0.3933
  146SAPE   H8Y16103   5.867   5.401   9.742 -0.5302  0.3583  0.2078
  146SAPE   C3916104   5.854   5.230   9.604 -0.0426 -0.2579  0.1515
  146SAPE   H9X16105   5.756   5.271   9.571  0.9307  1.1828 -1.0271
  146SAPE   H9Y16106   5.854   5.119   9.611  0.4803 -0.3431 -1.0619
  146SAPE  C31016107   5.969   5.272   9.509 -0.6232 -0.4330 -0.1692
  146SAPE  H10X16108   6.062   5.224   9.545 -1.4164 -1.2431  0.8443
  146SAPE  H10Y16109   5.996   5.380   9.506  1.4239 -0.9584 -1.4111
  146SAPE  C31116110   5.934   5.242   9.363  0.2575 -0.0813 -0.4096
  146SAPE  H11X16111   5.889   5.141   9.349 -0.7838  0.6271 -2.4727
  146SAPE  H11Y16112   6.026   5.249   9.302 -0.1586 -1.6942 -1.2434
  146SAPE  C31216113   5.852   5.352   9.297 -0.0532  0.1629 -0.3072
  146SAPE  H12X16114   5.905   5.448   9.314  1.8510 -0.7517 -0.9151
  146SAPE  H12Y16115   5.756   5.348   9.352  1.8715 -0.7771  3.1187
  146SAPE  C31316116   5.816   5.338   9.148  0.1681 -0.9592  0.5012
  146SAPE  H13X16117   5.916   5.346   9.101  0.1762 -1.9152  0.3281
  146SAPE  H13Y16118   5.746   5.420   9.119  0.9141 -0.6241 -0.3601
  146SAPE  C31416119   5.753   5.207   9.112  0.5993  0.0269 -0.3283
  146SAPE  H14X16120   5.665   5.186   9.177  1.0451 -1.5520 -0.1997
  146SAPE  H14Y16121   5.826   5.123   9.115  0.0749 -0.5323 -2.3111
  146SAPE  C31516122   5.714   5.200   8.961  0.7096 -0.0010  0.1932
  146SAPE  H15X16123   5.786   5.264   8.904  0.9086 -2.6868 -2.7126
  146SAPE  H15Y16124   5.616   5.246   8.938  1.5199  1.8350  0.2617
  146SAPE  C31616125   5.719   5.058   8.893  0.6108 -0.2083 -0.3877
  146SAPE  H16X16126   5.631   5.000   8.930  0.5268 -0.4795 -0.9942
  146SAPE  H16Y16127   5.814   5.004   8.912  1.3446  1.3501  0.4882
  146SAPE  C31716128   5.683   5.050   8.739 -0.5662 -0.0604 -0.2160
  146SAPE  H17X16129   5.579   5.090   8.735 -1.3716 -1.9438  1.0885
  146SAPE  H17Y16130   5.649   4.946   8.717  1.2082 -0.6815 -0.1070
  146SAPE  C31816131   5.777   5.113   8.638 -0.1145  0.3416  0.0678
  146SAPE  H18X16132   5.873   5.059   8.624  0.0073  0.2948  1.0686
  146SAPE  H18Y16133   5.804   5.218   8.661  1.1610  0.1488 -0.5069
  146SAPE  H18Z16134   5.736   5.104   8.535 -1.8954 -0.6377  0.8369
  147SAPE     N16135   1.741   4.035   6.304  0.0571 -0.6332  0.1564
  147SAPE   HN116136   1.686   4.096   6.368 -0.1131  0.3482 -0.9002
  147SAPE   HN216137   1.712   4.056   6.206 -2.1334 -0.0971  0.8877
  147SAPE   HN316138   1.718   3.935   6.320 -1.3188 -0.4902 -0.8684
  147SAPE   C1216139   1.888   4.056   6.333  0.2640  0.1530 -0.4969
  147SAPE  H12A16140   1.901   4.151   6.388  1.8381  0.0323 -0.6448
  147SAPE  H12B16141   1.942   4.049   6.236  2.0802 -2.7935  0.6560
  147SAPE   C1116142   1.954   3.958   6.429  0.6271  0.1157  0.0508
  147SAPE  H11A16143   1.911   3.960   6.531  0.6399  0.9723  0.0410
  147SAPE  H11B16144   2.064   3.973   6.431  0.8628 -1.5304  0.5082
  147SAPE     P16145   2.049   3.718   6.368  0.2092  0.0929  0.1053
  147SAPE   O1316146   1.997   3.605   6.284 -0.1360  0.2700 -0.1474
  147SAPE   O1416147   2.172   3.782   6.316 -0.2585 -0.4917 -0.2631
  147SAPE   O1216148   1.935   3.822   6.380  0.6874 -0.5195  0.9645
  147SAPE   O1116149   2.070   3.672   6.524  0.2009  0.1324  0.0909
  147SAPE    C116150   2.160   3.752   6.607  0.0646  0.5427 -0.0727
  147SAPE    HA16151   2.242   3.798   6.548 -1.1069  0.4273 -1.8363
  147SAPE    HB16152   2.096   3.835   6.642 -0.1856  0.3991 -0.1871
  147SAPE    C216153   2.217   3.669   6.725 -0.4987 -0.3381  0.0923
  147SAPE    HS16154   2.300   3.717   6.780 -1.1947 -0.0703  0.9310
  147SAPE   O2116155   2.255   3.533   6.686 -0.3190 -0.1847  0.0315
  147SAPE   C2116156   2.342   3.516   6.589 -1.0756 -0.5876 -0.3549
  147SAPE   O2216157   2.405   3.605   6.537  0.5243  0.1941 -0.0358
  147SAPE   C2216158   2.369   3.370   6.560 -0.0636 -1.1576 -0.6218
  147SAPE   H2R16159   2.342   3.321   6.657  1.2555 -1.4263 -0.3777
  147SAPE   H2S16160   2.293   3.331   6.489  0.3902  0.9417 -2.2755
  147SAPE    C316161   2.113   3.649   6.838  0.4926 -0.6886  0.3905
  147SAPE    HX16162   2.043   3.564   6.821 -2.4584  1.8298 -0.4267
  147SAPE    HY16163   2.047   3.738   6.846  0.5910 -0.5732 -0.0937
  147SAPE   O3116164   2.171   3.627   6.965  0.1524 -0.3644 -0.2280
  147SAPE   C3116165   2.217   3.729   7.026 -0.9967 -0.2541 -0.2766
  147SAPE   O3216166   2.232   3.842   6.987  0.1661  0.1350 -0.1772
  147SAPE   C3216167   2.231   3.691   7.170  0.4267 -0.7547  0.4764
  147SAPE   H2X16168   2.280   3.592   7.174  0.7473 -0.6332 -0.4819
  147SAPE   H2Y16169   2.126   3.684   7.206  0.0062  1.6491 -0.1714
  147SAPE   C2316170   2.508   3.331   6.518  1.1724  0.4055 -0.5695
  147SAPE   H3R16171   2.538   3.401   6.438 -1.9035  1.5418 -0.8236
  147SAPE   H3S16172   2.508   3.235   6.462  0.2304  1.4699 -2.4551
  147SAPE   C2416173   2.605   3.331   6.642 -0.7318 -0.3980 -0.4668
  147SAPE   H4R16174   2.615   3.435   6.679  4.9336 -1.2230  0.7781
  147SAPE   H4S16175   2.706   3.305   6.603  0.9160  3.7374  0.7293
  147SAPE   C2516176   2.573   3.231   6.754  0.1025 -0.5080  0.1816
  147SAPE   H5R16177   2.583   3.125   6.725 -1.7272 -0.4286 -0.8449
  147SAPE   C2616178   2.531   3.259   6.876 -0.2078  0.2030  0.6089
  147SAPE   H6R16179   2.516   3.176   6.946 -0.6356  0.2276  0.5500
  147SAPE   C2716180   2.505   3.390   6.946 -0.0772  0.1574  0.7810
  147SAPE   H7R16181   2.472   3.472   6.879  0.4516 -0.3634 -0.1339
  147SAPE   H7S16182   2.607   3.430   6.966  0.5182 -1.1450  0.4403
  147SAPE   C2816183   2.412   3.379   7.062  0.1200 -0.3473  0.6237
  147SAPE   H8R16184   2.307   3.380   7.028  0.8720  0.0936 -1.7875
  147SAPE   C2916185   2.442   3.368   7.196 -0.6137  0.1688  0.0186
  147SAPE   H9R16186   2.358   3.341   7.262 -0.6405 -0.6466 -0.3382
  147SAPE  C21016187   2.578   3.375   7.263 -0.2070  0.8202 -0.3713
  147SAPE  H10R16188   2.573   3.448   7.347  1.3029  0.4827  0.0179
  147SAPE  H10S16189   2.652   3.421   7.194  1.0027 -0.9010 -0.2464
  147SAPE  C21116190   2.631   3.243   7.316 -0.6639  0.3871 -0.0887
  147SAPE  H11R16191   2.668   3.186   7.229 -3.9723 -1.1153 -0.5843
  147SAPE  C21216192   2.651   3.199   7.444  0.3680 -0.2284  0.9993
  147SAPE  H12R16193   2.702   3.104   7.466  0.3426 -1.2474 -2.8839
  147SAPE  C21316194   2.614   3.275   7.571  0.3864  1.0773  0.2627
  147SAPE  H13R16195   2.605   3.380   7.539 -1.6992  0.2869 -1.8924
  147SAPE  H13S16196   2.701   3.259   7.639  1.6434  1.1140 -1.3264
  147SAPE  C21416197   2.479   3.241   7.628  0.1108 -0.8544 -0.3332
  147SAPE  H14R16198   2.398   3.252   7.554 -0.1923 -0.3566  0.0722
  147SAPE  C21516199   2.452   3.211   7.756 -0.4838 -0.2118  0.2478
  147SAPE  H15R16200   2.352   3.172   7.782 -0.2615 -1.7044 -1.0397
  147SAPE  C21616201   2.545   3.196   7.871 -0.0417 -0.6017 -0.8863
  147SAPE  H16R16202   2.494   3.240   7.960 -0.2680 -0.4973 -1.0697
  147SAPE  H16S16203   2.641   3.251   7.865 -0.6478  0.7762  1.5589
  147SAPE  C21716204   2.588   3.050   7.884  0.1610  0.1058  0.1675
  147SAPE  H17R16205   2.696   3.053   7.912  0.6250  0.3357 -1.5815
  147SAPE  H17S16206   2.586   3.000   7.785  1.4551 -2.4521  1.3783
  147SAPE  C21816207   2.519   2.974   7.998 -0.2836  0.4163  0.3589
  147SAPE  H18R16208   2.513   3.037   8.089  2.4493  1.0418  0.1519
  147SAPE  H18S16209   2.583   2.887   8.023 -0.0950 -0.0753 -1.7340
  147SAPE  C21916210   2.386   2.903   7.966 -0.5277 -0.3000  0.3132
  147SAPE  H19R16211   2.308   2.981   7.958 -0.1035 -0.1162 -2.4443
  147SAPE  H19S16212   2.360   2.843   8.056  0.7595 -0.6400  0.4639
  147SAPE  C22016213   2.376   2.817   7.842 -0.3872 -0.7997  0.2591
  147SAPE  H20R16214   2.394   2.887   7.757 -1.4498 -0.6919  0.1141
  147SAPE  H20S16215   2.271   2.790   7.818 -0.5271 -1.2653  1.3494
  147SAPE  H20T16216   2.452   2.737   7.837  2.0786  1.5161 -0.9558
  147SAPE   C3316217   2.313   3.801   7.256 -0.2328  0.8027 -0.5630
  147SAPE   H3X16218   2.269   3.903   7.251 -1.0419  0.4966  0.1269
  147SAPE   H3Y16219   2.414   3.792   7.211  0.1271  2.1682 -0.0381
  147SAPE   C3416220   2.340   3.761   7.402  0.8468 -0.2518  1.0014
  147SAPE   H4X16221   2.386   3.660   7.412  2.7281  0.6245  1.3533
  147SAPE   H4Y16222   2.240   3.754   7.450  0.4365 -2.3462 -0.1032
  147SAPE   C3516223   2.429   3.857   7.483 -0.5194  0.3856  0.6303
  147SAPE   H5X16224   2.389   3.959   7.463  0.4716  1.0226  1.8062
  147SAPE   H5Y16225   2.531   3.850   7.440 -0.2797 -1.2619  1.4276
  147SAPE   C3616226   2.430   3.833   7.633 -0.3499 -0.2328 -0.7842
  147SAPE   H6X16227   2.331   3.785   7.650  0.4288 -1.7975 -0.6248
  147SAPE   H6Y16228   2.449   3.926   7.692  0.4344 -0.9579  0.1148
  147SAPE   C3716229   2.542   3.737   7.681 -0.1710 -0.1230  0.1960
  147SAPE   H7X16230   2.633   3.799   7.667 -0.8515  1.3137  1.9433
  147SAPE   H7Y16231   2.547   3.645   7.619 -0.1748  0.6818 -1.0127
  147SAPE   C3816232   2.517   3.716   7.829 -0.5567 -0.1097  0.4461
  147SAPE   H8X16233   2.412   3.696   7.857 -0.4997  0.0679  0.7997
  147SAPE   H8Y16234   2.533   3.809   7.889 -1.6382  1.1163 -1.1296
  147SAPE   C3916235   2.613   3.607   7.900 -0.1840  0.3361  0.3102
  147SAPE   H9X16236   2.711   3.599   7.848 -0.0735 -2.9168  0.9209
  147SAPE   H9Y16237   2.569   3.506   7.881 -0.4301  0.7093 -1.2058
  147SAPE  C31016238   2.649   3.627   8.045  0.3520  0.0806  0.4483
  147SAPE  H10X16239   2.551   3.636   8.098  0.3335 -1.5329  0.7133
  147SAPE  H10Y16240   2.711   3.718   8.057 -1.7595  1.6581 -0.2083
  147SAPE  C31116241   2.726   3.516   8.111  0.2901  0.5370 -0.2555
  147SAPE  H11X16242   2.819   3.485   8.059 -1.6381 -0.8067 -2.9936
  147SAPE  H11Y16243   2.654   3.432   8.115  1.8671 -0.9459 -1.9120
  147SAPE  C31216244   2.777   3.557   8.252  0.3145 -0.2192 -0.4087
  147SAPE  H12X16245   2.689   3.588   8.312  0.9594 -1.4772  1.2103
  147SAPE  H12Y16246   2.819   3.658   8.234  1.2780 -0.6266 -0.4683
  147SAPE  C31316247   2.869   3.457   8.316  1.1602 -0.0538 -0.4822
  147SAPE  H13X16248   2.931   3.404   8.241  1.4603  0.6159 -0.7013
  147SAPE  H13Y16249   2.799   3.375   8.347  0.6988  1.0901  1.6042
  147SAPE  C31416250   2.952   3.490   8.441 -0.1917 -1.0224 -0.2982
  147SAPE  H14X16251   3.034   3.557   8.410 -0.8860  0.7710  1.6684
  147SAPE  H14Y16252   3.001   3.403   8.491 -0.8752 -0.6549  1.0312
  147SAPE  C31516253   2.876   3.569   8.551  0.5001  0.4058 -0.4351
  147SAPE  H15X16254   2.770   3.538   8.539  0.5213  0.8015 -1.7653
  147SAPE  H15Y16255   2.869   3.673   8.514  0.5869  0.1396 -1.2034
  147SAPE  C31616256   2.933   3.544   8.685 -0.0659 -0.1683 -0.0530
  147SAPE  H16X16257   3.036   3.587   8.686 -0.1237  0.0329 -1.4126
  147SAPE  H16Y16258   2.947   3.434   8.696  1.4047 -0.0020 -0.1665
  147SAPE  C31716259   2.871   3.601   8.808 -0.0608  0.6798  0.0331
  147SAPE  H17X16260   2.773   3.549   8.818  0.0027  0.5599  0.0363
  147SAPE  H17Y16261   2.836   3.706   8.797 -1.1973  0.4255  1.1695
  147SAPE  C31816262   2.945   3.584   8.936 -0.2518 -0.9399 -0.3178
  147SAPE  H18X16263   3.027   3.657   8.943 -1.7316  0.8322 -1.1840
  147SAPE  H18Y16264   2.988   3.482   8.944  0.0329 -0.8864 -1.1356
  147SAPE  H18Z16265   2.875   3.595   9.022 -1.0272 -0.3590 -1.0089
  148SAPE     N16266   2.455   1.242   6.831 -0.7486  0.4703 -0.2269
  148SAPE   HN116267   2.388   1.304   6.881  0.8185  2.0804 -0.1067
  148SAPE   HN216268   2.548   1.245   6.877 -0.8964  1.7375 -0.0035
  148SAPE   HN316269   2.478   1.275   6.735 -0.6437 -1.3806 -0.8482
  148SAPE   C1216270   2.396   1.101   6.814  0.1584 -0.1843  0.4098
  148SAPE  H12A16271   2.358   1.067   6.913  3.0982  1.5899  2.2240
  148SAPE  H12B16272   2.478   1.043   6.768  0.7954  1.9227 -1.1449
  148SAPE   C1116273   2.279   1.127   6.719  0.1982  0.2633 -0.4470
  148SAPE  H11A16274   2.240   1.026   6.693 -0.5988  0.7499 -1.1686
  148SAPE  H11B16275   2.313   1.169   6.622 -0.4497  1.9960  0.0489
  148SAPE     P16276   2.035   1.225   6.741 -0.1011  0.3034  0.3323
  148SAPE   O1316277   2.035   1.239   6.594 -0.0129 -0.2386 -0.4803
  148SAPE   O1416278   1.963   1.112   6.809  0.5044  0.3406  0.7366
  148SAPE   O1216279   2.181   1.209   6.781  0.0285  0.2263  0.1969
  148SAPE   O1116280   1.987   1.362   6.803 -0.0902  0.0154 -0.2751
  148SAPE    C116281   2.070   1.478   6.813  0.1799  0.1557 -0.3772
  148SAPE    HA16282   2.177   1.455   6.795 -0.0896  0.6718 -2.7083
  148SAPE    HB16283   2.043   1.554   6.737 -3.5981 -1.6627 -0.9667
  148SAPE    C216284   2.080   1.541   6.961  0.1682  0.3508  0.0096
  148SAPE    HS16285   2.181   1.588   6.961  1.0035 -1.4215  0.3449
  148SAPE   O2116286   2.072   1.434   7.059  0.3929 -0.1865  0.0418
  148SAPE   C2116287   2.162   1.344   7.066  0.2478 -0.0779  0.4872
  148SAPE   O2216288   2.274   1.345   7.016  0.0438 -0.2969  0.0157
  148SAPE   C2216289   2.102   1.233   7.143 -0.8703 -0.6619 -0.2586
  148SAPE   H2R16290   2.062   1.271   7.240  1.2426 -0.1484  0.4406
  148SAPE   H2S16291   2.017   1.182   7.093 -2.8539  0.2187  2.0870
  148SAPE    C316292   1.982   1.654   7.002 -1.2708  0.0271 -0.7338
  148SAPE    HX16293   1.885   1.608   6.973 -1.6852 -1.1491  2.2745
  148SAPE    HY16294   2.001   1.742   6.938  2.1538 -1.2123 -1.5815
  148SAPE   O3116295   1.984   1.679   7.143  0.3410  0.5311 -0.6493
  148SAPE   C3116296   2.085   1.752   7.192  0.1634 -0.0107  0.6460
  148SAPE   O3216297   2.175   1.802   7.126  0.0966  0.9945 -0.8619
  148SAPE   C3216298   2.088   1.760   7.343 -0.8524  0.0748  0.1237
  148SAPE   H2X16299   2.177   1.816   7.380  0.7689 -1.8713 -0.7230
  148SAPE   H2Y16300   2.123   1.660   7.378 -0.8351 -0.1017 -0.3956
  148SAPE   C2316301   2.212   1.129   7.184 -0.1410  0.3996 -0.0452
  148SAPE   H3R16302   2.256   1.092   7.088  1.1858  2.4453 -0.2540
  148SAPE   H3S16303   2.158   1.040   7.221 -0.6656  0.7602  0.0521
  148SAPE   C2416304   2.321   1.181   7.285 -0.0140  0.4965 -0.1174
  148SAPE   H4R16305   2.267   1.245   7.359 -1.2201  0.4811 -0.9539
  148SAPE   H4S16306   2.385   1.254   7.230  0.6700 -0.2784 -0.3535
  148SAPE   C2516307   2.394   1.066   7.342  0.0116  0.1344  0.0931
  148SAPE   H5R16308   2.464   1.025   7.268  0.0254 -1.1621  0.7952
  148SAPE   C2616309   2.392   1.019   7.473  0.6744 -0.2487  0.6098
  148SAPE   H6R16310   2.452   0.928   7.488  0.5763 -0.6141 -1.1499
  148SAPE   C2716311   2.313   1.065   7.590 -0.4866  0.0734 -0.2207
  148SAPE   H7R16312   2.226   1.122   7.553 -0.1323  0.5986 -0.2441
  148SAPE   H7S16313   2.364   1.137   7.657  0.9119  1.6015 -2.8407
  148SAPE   C2816314   2.250   0.966   7.681  0.5137  0.1213 -0.3456
  148SAPE   H8R16315   2.143   0.947   7.663  0.2839 -0.5263  1.5172
  148SAPE   C2916316   2.313   0.891   7.776  0.0579  0.0189 -0.1998
  148SAPE   H9R16317   2.256   0.818   7.834  0.7390 -1.0409 -0.8490
  148SAPE  C21016318   2.457   0.896   7.807  0.6561  0.4580  0.3107
  148SAPE  H10R16319   2.518   0.904   7.714  1.8235  0.5301  1.0613
  148SAPE  H10S16320   2.485   0.798   7.850  0.7514  0.8853  1.2492
  148SAPE  C21116321   2.509   1.000   7.905 -0.8236 -0.3149 -0.3541
  148SAPE  H11R16322   2.557   1.089   7.862  1.4469 -1.7739 -0.9037
  148SAPE  C21216323   2.495   0.989   8.038  0.2004  0.1233 -0.1729
  148SAPE  H12R16324   2.528   1.076   8.098 -3.0075 -0.1539  2.0939
  148SAPE  C21316325   2.422   0.886   8.119  0.2154  0.1491 -0.0133
  148SAPE  H13R16326   2.400   0.806   8.045  1.9359 -0.4034  0.0542
  148SAPE  H13S16327   2.329   0.937   8.152  0.7066  0.5644  0.7299
  148SAPE  C21416328   2.496   0.838   8.237  0.3578 -0.0884 -0.6316
  148SAPE  H14R16329   2.519   0.730   8.240  0.1180 -0.1338 -0.3678
  148SAPE  C21516330   2.522   0.911   8.346  0.4031  0.1150  0.1793
  148SAPE  H15R16331   2.574   0.858   8.428 -0.0506 -0.2982  0.2044
  148SAPE  C21616332   2.483   1.060   8.381  0.2658  0.0071  0.9392
  148SAPE  H16R16333   2.466   1.066   8.490  0.1773  0.9195  0.8796
  148SAPE  H16S16334   2.385   1.080   8.333 -0.2748 -1.7591  1.2559
  148SAPE  C21716335   2.591   1.177   8.356  0.2480 -0.0694  0.0668
  148SAPE  H17R16336   2.608   1.185   8.247  2.8474  0.1264  0.4397
  148SAPE  H17S16337   2.691   1.145   8.393 -0.2282 -0.3737  1.1064
  148SAPE  C21816338   2.545   1.298   8.427  0.3699  0.4873  0.1394
  148SAPE  H18R16339   2.601   1.325   8.519 -0.1117 -0.2337  0.6622
  148SAPE  H18S16340   2.443   1.276   8.467 -0.3120 -0.4445 -2.0046
  148SAPE  C21916341   2.535   1.426   8.337  0.4117 -0.3490  0.2191
  148SAPE  H19R16342   2.476   1.502   8.392 -0.9373 -0.8865 -0.4731
  148SAPE  H19S16343   2.483   1.414   8.239 -0.6091  0.0834  0.7044
  148SAPE  C22016344   2.673   1.475   8.314 -0.6390  0.3781  0.3792
  148SAPE  H20R16345   2.718   1.504   8.411  0.6424 -2.5235  0.7130
  148SAPE  H20S16346   2.681   1.560   8.242 -1.6001  0.6456  0.5846
  148SAPE  H20T16347   2.732   1.404   8.251 -2.4384  0.5324 -1.5625
  148SAPE   C3316348   1.963   1.827   7.398  0.0668 -0.3054  0.7720
  148SAPE   H3X16349   1.873   1.762   7.405 -1.3395  1.2850 -1.8947
  148SAPE   H3Y16350   1.933   1.913   7.335 -1.7057 -1.2801  0.2614
  148SAPE   C3416351   1.975   1.889   7.543 -0.3728  0.6006  0.3210
  148SAPE   H4X16352   1.875   1.929   7.569 -0.4615  0.2622  0.5038
  148SAPE   H4Y16353   2.042   1.978   7.545 -1.7847  1.6893 -0.5159
  148SAPE   C3516354   2.013   1.790   7.657  0.9229 -0.6237 -0.0287
  148SAPE   H5X16355   2.101   1.728   7.629  0.2335 -1.5220 -0.2265
  148SAPE   H5Y16356   1.920   1.733   7.679  0.0463  1.0842  0.7329
  148SAPE   C3616357   2.055   1.865   7.789  0.4226  0.5472  0.0028
  148SAPE   H6X16358   2.150   1.922   7.779  0.2573  0.6330 -1.1207
  148SAPE   H6Y16359   2.069   1.791   7.871 -0.4258 -1.1452 -1.3628
  148SAPE   C3716360   1.941   1.962   7.836 -0.9755 -0.1918 -0.4665
  148SAPE   H7X16361   1.843   1.916   7.862 -0.9181 -0.1111 -0.0989
  148SAPE   H7Y16362   1.918   2.042   7.762  1.5704  0.3272 -0.7471
  148SAPE   C3816363   1.982   2.031   7.968  0.2671 -0.1151 -0.0944
  148SAPE   H8X16364   2.086   2.071   7.964  0.4364 -0.4281  0.8675
  148SAPE   H8Y16365   1.981   1.955   8.049  1.7706  0.3435  0.3650
  148SAPE   C3916366   1.894   2.153   8.013  0.7633  0.1187 -0.1159
  148SAPE   H9X16367   1.881   2.224   7.929  0.6366  1.4422  1.0084
  148SAPE   H9Y16368   1.939   2.211   8.096 -0.0138  0.1556  0.2826
  148SAPE  C31016369   1.752   2.097   8.067  0.7276 -1.2055  0.5112
  148SAPE  H10X16370   1.767   2.034   8.157  0.3511 -2.3929 -0.2412
  148SAPE  H10Y16371   1.713   2.035   7.983  0.7002 -0.0668 -0.3395
  148SAPE  C31116372   1.649   2.215   8.075  0.1887 -0.1611 -0.3095
  148SAPE  H11X16373   1.650   2.285   7.988 -1.1033 -1.7145 -1.6066
  148SAPE  H11Y16374   1.675   2.275   8.165  0.1672 -0.1484 -0.3112
  148SAPE  C31216375   1.513   2.158   8.094  0.0788  0.1803 -0.1356
  148SAPE  H12X16376   1.444   2.227   8.149  1.8731  1.4177  0.6256
  148SAPE  H12Y16377   1.515   2.061   8.148 -2.3042 -0.0030 -0.3522
  148SAPE  C31316378   1.434   2.133   7.970  0.3347 -0.1836 -0.0251
  148SAPE  H13X16379   1.480   2.064   7.896  1.2776  1.2453 -0.7809
  148SAPE  H13Y16380   1.429   2.232   7.920  2.0405  0.3300  0.8120
  148SAPE  C31416381   1.296   2.074   8.007 -0.2925  0.6267 -0.3879
  148SAPE  H14X16382   1.221   2.093   7.927 -0.2078 -0.1242 -0.6484
  148SAPE  H14Y16383   1.264   2.109   8.108  1.4644  1.7215 -0.1996
  148SAPE  C31516384   1.300   1.927   8.041  0.6833  0.2978  0.5252
  148SAPE  H15X16385   1.361   1.911   8.133  2.4206 -1.5506 -0.9007
  148SAPE  H15Y16386   1.340   1.870   7.954 -2.7857 -0.9829 -0.2886
  148SAPE  C31616387   1.162   1.866   8.062  0.4792 -0.2935  0.1743
  148SAPE  H16X16388   1.160   1.759   8.032  1.5713 -0.5917  1.0965
  148SAPE  H16Y16389   1.082   1.915   8.003 -0.2151 -1.8690 -0.2162
  148SAPE  C31716390   1.106   1.869   8.202 -0.3659 -0.4052  0.6630
  148SAPE  H17X16391   0.995   1.867   8.200 -0.3495 -1.5495  0.2579
  148SAPE  H17Y16392   1.136   1.969   8.239  0.6321 -0.5025  0.1524
  148SAPE  C31816393   1.150   1.747   8.279 -0.7585 -0.6844  0.6829
  148SAPE  H18X16394   1.087   1.734   8.369  0.7325 -1.4241  1.6330
  148SAPE  H18Y16395   1.253   1.766   8.316 -0.4216 -2.9095  0.9683
  148SAPE  H18Z16396   1.137   1.649   8.228 -0.8496  0.1751 -0.9949
  149SAPE     N16397   1.651   1.635   6.321  0.8623  0.6931  0.7595
  149SAPE   HN116398   1.726   1.707   6.325  0.5747  0.9800  1.0359
  149SAPE   HN216399   1.689   1.547   6.279  1.6779  1.6229 -0.4876
  149SAPE   HN316400   1.582   1.663   6.249 -1.2386  0.2569  2.5523
  149SAPE   C1216401   1.603   1.621   6.462  0.2029 -0.1101  0.0594
  149SAPE  H12A16402   1.691   1.604   6.528  1.0547  1.1223 -0.7503
  149SAPE  H12B16403   1.533   1.535   6.465 -1.2199  0.9984 -0.7191
  149SAPE   C1116404   1.536   1.751   6.517  0.3081 -0.6481 -0.4087
  149SAPE  H11A16405   1.616   1.823   6.543 -0.4198 -0.3165  0.9747
  149SAPE  H11B16406   1.492   1.737   6.618 -0.0749  0.4047 -0.4226
  149SAPE     P16407   1.282   1.769   6.425 -0.4064 -0.1212  0.2092
  149SAPE   O1316408   1.212   1.852   6.323 -0.0201 -0.1521 -0.0115
  149SAPE   O1416409   1.271   1.625   6.399  0.0942  0.3524 -0.2943
  149SAPE   O1216410   1.441   1.817   6.429 -0.0188  0.3536  0.0905
  149SAPE   O1116411   1.218   1.794   6.568 -0.4383 -0.2259  0.3342
  149SAPE    C116412   1.240   1.917   6.631  0.1943 -1.1361  0.2775
  149SAPE    HA16413   1.334   1.969   6.605  0.6302 -1.6976  0.7321
  149SAPE    HB16414   1.157   1.986   6.603  1.3243 -0.2008 -0.7797
  149SAPE    C216415   1.244   1.908   6.788  0.3614 -0.0981  0.0098
  149SAPE    HS16416   1.226   2.010   6.826  1.3826 -0.6573  2.0728
  149SAPE   O2116417   1.365   1.852   6.832 -0.3941  0.3294  0.5557
  149SAPE   C2116418   1.467   1.932   6.842 -0.2084  0.5004  0.2399
  149SAPE   O2216419   1.463   2.055   6.825  0.0817 -0.1662 -0.4392
  149SAPE   C2216420   1.588   1.847   6.874  0.0143  0.1926  1.0357
  149SAPE   H2R16421   1.599   1.771   6.794  2.3544  0.7780  0.7591
  149SAPE   H2S16422   1.673   1.917   6.860  0.1826 -0.4205 -1.1152
  149SAPE    C316423   1.118   1.819   6.834 -0.7391 -0.3439 -0.0786
  149SAPE    HX16424   1.135   1.711   6.813 -1.8709 -0.1225 -2.1405
  149SAPE    HY16425   1.038   1.854   6.767 -0.1817  0.7804 -0.1606
  149SAPE   O3116426   1.082   1.859   6.972 -0.6346 -0.5734  0.2658
  149SAPE   C3116427   1.107   1.759   7.062 -0.0892  0.4016 -0.0006
  149SAPE   O3216428   1.132   1.644   7.031 -0.4098  0.2546  0.7405
  149SAPE   C3216429   1.109   1.824   7.202 -0.2758  0.7285  0.1102
  149SAPE   H2X16430   1.004   1.851   7.227  0.1875  3.2658 -0.5732
  149SAPE   H2Y16431   1.144   1.928   7.187 -0.0565  0.4379 -1.5183
  149SAPE   C2316432   1.586   1.779   7.012  0.8374 -0.4934 -0.5136
  149SAPE   H3R16433   1.658   1.695   7.005  1.5600  0.1945 -1.4551
  149SAPE   H3S16434   1.492   1.721   7.019 -0.1790  0.8137 -2.7772
  149SAPE   C2416435   1.636   1.865   7.132 -0.1316 -0.0985  0.0438
  149SAPE   H4R16436   1.741   1.899   7.118 -0.2524  0.8822  1.4537
  149SAPE   H4S16437   1.646   1.794   7.217 -2.9061 -1.3514 -0.6019
  149SAPE   C2516438   1.540   1.981   7.180 -0.1547  0.2486  0.1164
  149SAPE   H5R16439   1.504   2.054   7.106  0.7070 -0.5256 -1.1054
  149SAPE   C2616440   1.481   1.995   7.298 -0.3689 -0.4491 -0.8971
  149SAPE   H6R16441   1.408   2.074   7.322  1.4850  0.9650  0.2185
  149SAPE   C2716442   1.508   1.905   7.419 -0.7710  0.8181 -0.8645
  149SAPE   H7R16443   1.611   1.915   7.459 -0.0700 -0.9020 -2.1616
  149SAPE   H7S16444   1.497   1.799   7.388  3.3333 -0.4786  1.7189
  149SAPE   C2816445   1.399   1.913   7.526  0.0584 -0.7427 -0.3664
  149SAPE   H8R16446   1.305   1.961   7.493 -0.0715  0.3488  1.5342
  149SAPE   C2916447   1.411   1.876   7.657  0.1071  0.2707  0.4477
  149SAPE   H9R16448   1.334   1.897   7.733 -3.1787 -0.9740 -2.4096
  149SAPE  C21016449   1.537   1.819   7.720 -0.0454 -0.9688  0.8875
  149SAPE  H10R16450   1.578   1.889   7.796  0.1439 -1.1101  0.9123
  149SAPE  H10S16451   1.621   1.809   7.649  0.0695 -0.8638  1.0087
  149SAPE  C21116452   1.513   1.688   7.784  0.3398 -0.4030  0.3633
  149SAPE  H11R16453   1.462   1.610   7.725 -0.0334 -0.1832  0.3908
  149SAPE  C21216454   1.548   1.649   7.906  0.1496 -0.4112  0.0015
  149SAPE  H12R16455   1.523   1.545   7.931 -1.1536  0.5175  2.7572
  149SAPE  C21316456   1.633   1.735   7.998  0.5922 -0.0274  0.0851
  149SAPE  H13R16457   1.581   1.829   8.026 -0.9861 -1.0644  0.6864
  149SAPE  H13S16458   1.725   1.762   7.941  0.2808 -0.3403 -0.5690
  149SAPE  C21416459   1.692   1.648   8.112  0.0389  1.3862  0.0035
  149SAPE  H14R16460   1.736   1.554   8.078 -2.2068  0.9497 -1.8990
  149SAPE  C21516461   1.681   1.682   8.246 -0.0224  0.1850 -0.4672
  149SAPE  H15R16462   1.718   1.607   8.318 -0.9382 -0.1388 -0.3196
  149SAPE  C21616463   1.609   1.804   8.306  0.0319  1.1619  0.1669
  149SAPE  H16R16464   1.539   1.852   8.235 -0.1506  2.3306  1.1222
  149SAPE  H16S16465   1.686   1.871   8.349  0.6260  0.5933 -0.0030
  149SAPE  C21716466   1.527   1.774   8.432  0.6348 -0.2636  0.1699
  149SAPE  H17R16467   1.486   1.671   8.417 -1.9044  1.0527 -2.3524
  149SAPE  H17S16468   1.440   1.839   8.456  1.2864 -0.4634  3.3632
  149SAPE  C21816469   1.605   1.767   8.568  0.1644  0.8073  0.2958
  149SAPE  H18R16470   1.663   1.673   8.575 -3.5281 -1.6313 -0.5830
  149SAPE  H18S16471   1.521   1.751   8.640 -0.7011  1.9883 -0.4261
  149SAPE  C21916472   1.688   1.896   8.594  0.0121  1.6243 -0.1994
  149SAPE  H19R16473   1.620   1.977   8.561  1.1054  2.1595 -1.1759
  149SAPE  H19S16474   1.773   1.903   8.523 -0.4947  1.1441 -0.8677
  149SAPE  C22016475   1.727   1.909   8.737 -0.3881  0.2619  0.4234
  149SAPE  H20R16476   1.775   2.008   8.757 -0.2236  0.3152 -0.2330
  149SAPE  H20S16477   1.800   1.831   8.766  0.3292  0.7661 -0.0016
  149SAPE  H20T16478   1.644   1.903   8.810 -1.2059  1.0713 -0.4362
  149SAPE   C3316479   1.165   1.742   7.319 -1.0397 -0.1597 -0.6256
  149SAPE   H3X16480   1.254   1.797   7.357 -1.1768 -1.3476  1.4726
  149SAPE   H3Y16481   1.193   1.639   7.288  0.9413  0.1359  0.1094
  149SAPE   C3416482   1.067   1.728   7.436  0.7560  0.5519  0.2361
  149SAPE   H4X16483   0.978   1.671   7.402  0.1534  1.4512  0.2787
  149SAPE   H4Y16484   1.045   1.832   7.469  1.2941  0.3500  1.2549
  149SAPE   C3516485   1.119   1.654   7.553  0.0948 -0.6938  0.2326
  149SAPE   H5X16486   1.209   1.703   7.597  0.3430 -1.3583  0.4747
  149SAPE   H5Y16487   1.141   1.550   7.521  2.0118 -0.3908  0.5271
  149SAPE   C3616488   1.017   1.652   7.672 -0.1782 -0.2608  1.1101
  149SAPE   H6X16489   0.928   1.589   7.652 -1.4151  1.1203  2.1056
  149SAPE   H6Y16490   0.979   1.757   7.676  0.5003 -0.0139  1.1623
  149SAPE   C3716491   1.089   1.625   7.801  0.3655  0.3397  0.4214
  149SAPE   H7X16492   1.005   1.653   7.868 -0.3343 -2.7867  0.9279
  149SAPE   H7Y16493   1.178   1.690   7.815  0.5929  0.1356 -0.0853
  149SAPE   C3816494   1.138   1.482   7.812  0.0295  0.4352 -0.0213
  149SAPE   H8X16495   1.203   1.459   7.725  0.4089 -0.7711  0.5776
  149SAPE   H8Y16496   1.045   1.423   7.797  0.4056 -0.9492  2.7720
  149SAPE   C3916497   1.205   1.439   7.946 -0.2813 -0.3548  0.5223
  149SAPE   H9X16498   1.124   1.461   8.019  2.2103 -1.8166  3.8658
  149SAPE   H9Y16499   1.292   1.503   7.973 -0.9311  0.9475 -0.3579
  149SAPE  C31016500   1.243   1.291   7.947 -0.4520 -0.1811 -0.1645
  149SAPE  H10X16501   1.313   1.262   7.866  0.6361  0.3887  0.5573
  149SAPE  H10Y16502   1.148   1.247   7.912 -0.1706 -0.5432 -0.4675
  149SAPE  C31116503   1.272   1.223   8.083  0.8414 -0.0809  0.8350
  149SAPE  H11X16504   1.294   1.119   8.051 -1.3387  0.3809 -2.3110
  149SAPE  H11Y16505   1.184   1.234   8.150 -0.2607 -1.7659 -0.2979
  149SAPE  C31216506   1.397   1.273   8.141  0.3391 -0.2197  0.6035
  149SAPE  H12X16507   1.376   1.375   8.178  1.2157  0.2554 -0.1777
  149SAPE  H12Y16508   1.468   1.279   8.056  0.1526 -0.1600  0.4517
  149SAPE  C31316509   1.437   1.191   8.260 -0.2774 -0.1357  0.2268
  149SAPE  H13X16510   1.457   1.092   8.215  0.6434  1.2422 -2.5496
  149SAPE  H13Y16511   1.352   1.189   8.332 -0.4817  1.7559  0.0866
  149SAPE  C31416512   1.565   1.240   8.326 -0.5788 -0.0950 -0.3149
  149SAPE  H14X16513   1.560   1.349   8.350 -2.0757 -0.7463  2.5726
  149SAPE  H14Y16514   1.651   1.223   8.258  0.7603 -0.4545  1.4297
  149SAPE  C31516515   1.592   1.163   8.458  0.4178 -0.1004  0.4122
  149SAPE  H15X16516   1.611   1.055   8.442  1.0690 -0.2264  1.9876
  149SAPE  H15Y16517   1.501   1.167   8.521 -1.1242 -0.6830 -1.7233
  149SAPE  C31616518   1.705   1.220   8.548 -0.0734 -0.0328 -0.4034
  149SAPE  H16X16519   1.788   1.251   8.481  1.5199 -1.8543  0.6513
  149SAPE  H16Y16520   1.736   1.136   8.614 -1.3441 -2.5228 -2.8792
  149SAPE  C31716521   1.666   1.349   8.627  0.1006  0.0833  0.2590
  149SAPE  H17X16522   1.563   1.329   8.665 -0.3949  0.2481 -0.9813
  149SAPE  H17Y16523   1.665   1.433   8.554  2.9854 -0.1991 -0.1502
  149SAPE  C31816524   1.753   1.391   8.744 -0.6386  0.2766 -0.0892
  149SAPE  H18X16525   1.856   1.398   8.703 -1.1130 -0.1484 -1.3757
  149SAPE  H18Y16526   1.766   1.320   8.828  1.4609  2.6699  1.6484
  149SAPE  H18Z16527   1.744   1.494   8.785 -0.1108  1.0500 -1.8398
  150SAPE     N16528   6.396   3.137   6.577  0.4028 -0.9171  0.1995
  150SAPE   HN116529   6.428   3.159   6.674  0.0444  0.5797 -0.0079
  150SAPE   HN216530   6.293   3.126   6.580  0.2096  0.5029 -0.6075
  150SAPE   HN316531   6.429   3.042   6.551 -0.0934 -0.9851 -0.1809
  150SAPE   C1216532   6.456   3.226   6.475 -0.5774  0.2811 -0.1451
  150SAPE  H12A16533   6.420   3.327   6.503 -3.3476 -1.3662  2.4528
  150SAPE  H12B16534   6.423   3.186   6.377 -0.2517 -0.5375  0.0702
  150SAPE   C1116535   6.613   3.225   6.488 -0.0053  0.1672  0.3631
  150SAPE  H11A16536   6.647   3.119   6.484 -0.9831 -0.0993 -1.2314
  150SAPE  H11B16537   6.638   3.260   6.591 -0.4236 -1.8632  1.1767
  150SAPE     P16538   6.712   3.448   6.394 -0.3502  0.1710  0.5419
  150SAPE   O1316539   6.716   3.508   6.260  0.3129 -0.0577  0.0182
  150SAPE   O1416540   6.629   3.522   6.497  0.1444 -0.2307 -0.2078
  150SAPE   O1216541   6.670   3.293   6.380 -0.0367  0.0938 -0.1001
  150SAPE   O1116542   6.855   3.437   6.448 -0.0875 -0.2502  0.1905
  150SAPE    C116543   6.933   3.322   6.438 -0.7211  0.7170 -0.5937
  150SAPE    HA16544   6.888   3.227   6.403  0.4096 -0.2620  0.5443
  150SAPE    HB16545   7.016   3.352   6.371 -1.4179  1.1712 -1.2523
  150SAPE    C216546   7.004   3.295   6.575 -0.5542  0.0923 -0.2893
  150SAPE    HS16547   6.944   3.222   6.634  1.5027 -0.0360  1.7012
  150SAPE   O2116548   7.021   3.419   6.644  0.2412 -0.0925  0.1351
  150SAPE   C2116549   6.917   3.445   6.720  0.8422  0.4987 -0.4344
  150SAPE   O2216550   6.856   3.359   6.783  0.2985  0.0817 -0.2319
  150SAPE   C2216551   6.899   3.598   6.731 -0.7777 -0.1092 -0.1337
  150SAPE   H2R16552   6.994   3.639   6.689 -1.7187 -0.4773 -2.7707
  150SAPE   H2S16553   6.818   3.639   6.666  0.1966  1.5618 -0.3211
  150SAPE    C316554   7.137   3.217   6.562  0.5708 -0.1315 -0.5191
  150SAPE    HX16555   7.186   3.240   6.464 -0.8887 -0.2399 -1.2861
  150SAPE    HY16556   7.114   3.108   6.554  0.6315 -0.1625 -0.2598
  150SAPE   O3116557   7.227   3.232   6.673 -0.3531 -0.6740  0.1476
  150SAPE   C3116558   7.313   3.334   6.675 -0.6965  0.5592 -0.3939
  150SAPE   O3216559   7.329   3.416   6.587 -0.3829 -0.0396  0.3596
  150SAPE   C3216560   7.383   3.348   6.813  0.0722 -0.4011 -0.4161
  150SAPE   H2X16561   7.442   3.442   6.808 -1.6093  0.8347  1.9258
  150SAPE   H2Y16562   7.459   3.267   6.819  0.9961  0.4219 -0.7865
  150SAPE   C2316563   6.874   3.643   6.879  0.7105  0.3728  0.7112
  150SAPE   H3R16564   6.972   3.673   6.922  0.2449  2.0817  0.5911
  150SAPE   H3S16565   6.844   3.550   6.932 -1.4645  0.9836  0.6234
  150SAPE   C2416566   6.781   3.765   6.894  0.8241  0.4105  0.7024
  150SAPE   H4R16567   6.682   3.746   6.848  1.3581 -0.5131 -0.1007
  150SAPE   H4S16568   6.826   3.844   6.830 -1.2861  1.0888  0.0094
  150SAPE   C2516569   6.770   3.798   7.042 -0.4285  0.6439  0.7063
  150SAPE   H5R16570   6.862   3.844   7.080 -0.7061  0.2116  1.9113
  150SAPE   C2616571   6.664   3.768   7.120  0.2653  0.0221 -0.0192
  150SAPE   H6R16572   6.659   3.784   7.228 -0.8935 -1.8984  0.2299
  150SAPE   C2716573   6.548   3.690   7.068  0.2847 -0.4402  0.0986
  150SAPE   H7R16574   6.531   3.607   7.139  2.2403 -0.1831  0.9009
  150SAPE   H7S16575   6.571   3.641   6.972  1.5288 -2.7140  1.5324
  150SAPE   C2816576   6.424   3.776   7.050  0.0832  0.0374  0.1920
  150SAPE   H8R16577   6.415   3.799   6.943  2.3112  1.5847  0.2847
  150SAPE   C2916578   6.351   3.827   7.145 -0.0100  0.1349  0.1983
  150SAPE   H9R16579   6.262   3.886   7.120 -0.0241 -0.6318 -1.6754
  150SAPE  C21016580   6.373   3.822   7.290  0.2318 -0.6099  0.7059
  150SAPE  H10R16581   6.430   3.729   7.312  0.2492 -0.3465  1.7953
  150SAPE  H10S16582   6.279   3.805   7.347  1.9240  0.5652  3.9622
  150SAPE  C21116583   6.460   3.939   7.340  0.3189  0.5901  0.3183
  150SAPE  H11R16584   6.543   3.963   7.272 -1.1507  1.9929 -1.0331
  150SAPE  C21216585   6.449   3.988   7.462 -0.6087  0.3792 -0.0426
  150SAPE  H12R16586   6.508   4.077   7.488 -1.9147  0.5676  2.3731
  150SAPE  C21316587   6.353   3.954   7.566 -0.0405  0.4422 -0.4267
  150SAPE  H13R16588   6.261   3.909   7.522 -0.5362  1.8049 -0.8125
  150SAPE  H13S16589   6.329   4.044   7.627 -0.1529  0.1666 -0.0625
  150SAPE  C21416590   6.402   3.844   7.653  0.4511  0.4741  0.1532
  150SAPE  H14R16591   6.390   3.740   7.621 -2.6096  0.3649  1.4688
  150SAPE  C21516592   6.455   3.869   7.774 -1.0245  0.4489  0.0266
  150SAPE  H15R16593   6.479   3.785   7.841  0.9339  1.0710  0.1328
  150SAPE  C21616594   6.484   3.998   7.838  0.2453 -0.7181 -0.2979
  150SAPE  H16R16595   6.399   4.007   7.910  0.7638  0.4165  0.1917
  150SAPE  H16S16596   6.491   4.082   7.765  0.1248 -0.2968  0.1737
  150SAPE  C21716597   6.603   3.999   7.929  0.0742 -0.1711 -0.0003
  150SAPE  H17R16598   6.614   4.103   7.965 -0.3657 -0.8411  2.1390
  150SAPE  H17S16599   6.696   3.984   7.871 -0.1175 -0.6051 -0.1984
  150SAPE  C21816600   6.598   3.919   8.063  0.2228  0.4520 -0.9342
  150SAPE  H18R16601   6.585   3.813   8.033 -0.1055  0.4119 -0.6537
  150SAPE  H18S16602   6.505   3.944   8.118  0.3045 -1.0188 -0.0716
  150SAPE  C21916603   6.728   3.937   8.148  0.6608 -0.4406 -0.2698
  150SAPE  H19R16604   6.753   4.044   8.160  0.7089 -0.2402 -2.1209
  150SAPE  H19S16605   6.805   3.889   8.084  0.9884 -0.8281  0.4032
  150SAPE  C22016606   6.718   3.855   8.272  0.3628 -0.5119 -0.1749
  150SAPE  H20R16607   6.791   3.885   8.351 -2.1426  0.8518  1.6805
  150SAPE  H20S16608   6.754   3.755   8.241  0.8747 -0.0773 -1.0068
  150SAPE  H20T16609   6.615   3.865   8.311  0.1129  1.8746 -1.3408
  150SAPE   C3316610   7.285   3.335   6.932 -0.4291  0.6115  0.7146
  150SAPE   H3X16611   7.213   3.255   6.905  3.9434 -2.9312 -0.9087
  150SAPE   H3Y16612   7.214   3.420   6.948  1.0352  1.6285  1.9609
  150SAPE   C3416613   7.349   3.309   7.071 -0.2148 -0.7147 -0.5108
  150SAPE   H4X16614   7.377   3.408   7.113 -0.1667 -0.0503 -2.0506
  150SAPE   H4Y16615   7.439   3.243   7.074  0.4787  0.2828  1.0860
  150SAPE   C3516616   7.248   3.239   7.164 -0.0811 -0.4578 -0.4005
  150SAPE   H5X16617   7.220   3.138   7.126 -1.2787 -0.8329  1.3951
  150SAPE   H5Y16618   7.153   3.296   7.150  2.1784  3.5302 -0.2209
  150SAPE   C3616619   7.293   3.223   7.309 -0.3534  0.2596  0.6955
  150SAPE   H6X16620   7.388   3.165   7.312  0.5654  1.3992 -3.5209
  150SAPE   H6Y16621   7.214   3.158   7.351  0.0013 -1.0472 -0.6111
  150SAPE   C3716622   7.309   3.352   7.388  0.5638 -0.0075  0.6737
  150SAPE   H7X16623   7.218   3.407   7.356  0.9210  0.0659 -0.2263
  150SAPE   H7Y16624   7.399   3.401   7.346  0.6805 -0.0844  0.8357
  150SAPE   C3816625   7.318   3.331   7.541  0.1611  0.1798  0.0456
  150SAPE   H8X16626   7.226   3.278   7.574  0.3639  0.0905  0.4655
  150SAPE   H8Y16627   7.334   3.432   7.585  0.2013  0.9250 -1.6496
  150SAPE   C3916628   7.437   3.241   7.593 -0.3101  0.5947 -0.3135
  150SAPE   H9X16629   7.528   3.301   7.609  0.3917 -0.2079 -1.2603
  150SAPE   H9Y16630   7.459   3.168   7.512 -0.5719  0.2916 -0.1187
  150SAPE  C31016631   7.392   3.152   7.712  0.8606  0.2295 -0.0649
  150SAPE  H10X16632   7.464   3.068   7.713 -0.2628 -0.7592 -0.3144
  150SAPE  H10Y16633   7.288   3.114   7.701  0.1578  2.0448  0.0997
  150SAPE  C31116634   7.390   3.230   7.848  0.4522 -0.2191 -0.4216
  150SAPE  H11X16635   7.329   3.194   7.934  0.5931 -1.3888 -0.8128
  150SAPE  H11Y16636   7.338   3.326   7.824  1.9181  0.1529 -2.1928
  150SAPE  C31216637   7.535   3.266   7.894 -0.5177 -0.1050  0.1312
  150SAPE  H12X16638   7.578   3.346   7.831 -0.0166  1.0106  1.8529
  150SAPE  H12Y16639   7.598   3.175   7.888 -1.1500 -0.5545  0.1881
  150SAPE  C31316640   7.526   3.331   8.035 -0.5474  0.2962 -0.1363
  150SAPE  H13X16641   7.447   3.409   8.028 -0.7057  0.3635  2.1101
  150SAPE  H13Y16642   7.626   3.374   8.055 -1.0598  3.7083 -4.0937
  150SAPE  C31416643   7.505   3.234   8.152 -0.4840  0.4971 -0.3976
  150SAPE  H14X16644   7.598   3.175   8.164 -0.4216  0.5883 -0.4299
  150SAPE  H14Y16645   7.415   3.170   8.142  0.4293 -1.0230  0.7977
  150SAPE  C31516646   7.495   3.295   8.284 -0.3886 -0.4472  0.0841
  150SAPE  H15X16647   7.395   3.343   8.288 -1.3359 -2.3857  0.1716
  150SAPE  H15Y16648   7.562   3.384   8.286 -2.1205  0.9834 -2.5227
  150SAPE  C31616649   7.504   3.192   8.395  0.1233 -0.5141 -0.4551
  150SAPE  H16X16650   7.592   3.125   8.383 -0.4655 -1.1434 -1.3135
  150SAPE  H16Y16651   7.417   3.125   8.377 -0.0673 -0.4083  0.0582
  150SAPE  C31716652   7.509   3.264   8.541 -0.2166  0.6170  0.7983
  150SAPE  H17X16653   7.524   3.186   8.618 -0.5455  0.7943  1.0408
  150SAPE  H17Y16654   7.414   3.321   8.549 -1.0492 -0.9328  2.1897
  150SAPE  C31816655   7.616   3.367   8.558 -0.2977 -0.4062  0.0278
  150SAPE  H18X16656   7.717   3.323   8.541 -0.4253 -1.9036  2.7705
  150SAPE  H18Y16657   7.613   3.411   8.660  1.0430 -1.9116  0.7473
  150SAPE  H18Z16658   7.607   3.458   8.495  1.2223  0.0391  0.4189
  151SAPE     N16659   3.205   0.229   6.469  0.3044 -0.1957  0.0693
  151SAPE   HN116660   3.122   0.208   6.528  0.4393  0.9802  0.7005
  151SAPE   HN216661   3.175   0.295   6.394 -0.4587  1.6248  1.9229
  151SAPE   HN316662   3.235   0.143   6.420  0.5665 -0.1981  0.2309
  151SAPE   C1216663   3.325   0.292   6.525  0.3527 -0.0837  0.1894
  151SAPE  H12A16664   3.337   0.254   6.628  2.9481  0.1976  0.0031
  151SAPE  H12B16665   3.296   0.399   6.538 -0.2480 -0.3231  0.8262
  151SAPE   C1116666   3.453   0.286   6.436  0.9434 -0.5777  0.3385
  151SAPE  H11A16667   3.471   0.179   6.411  0.1169 -0.8596  0.9255
  151SAPE  H11B16668   3.533   0.322   6.503 -0.2277  0.0525  1.4189
  151SAPE     P16669   3.501   0.495   6.284 -0.5153  0.2258 -0.1126
  151SAPE   O1316670   3.650   0.476   6.288 -0.1263 -0.4615  0.4996
  151SAPE   O1416671   3.426   0.542   6.160 -0.4850 -0.0679  0.1017
  151SAPE   O1216672   3.438   0.351   6.311 -0.6137 -0.0542 -0.1304
  151SAPE   O1116673   3.443   0.564   6.412  0.4169  0.3497  0.1372
  151SAPE    C116674   3.447   0.706   6.414 -0.1853 -0.6018  0.7458
  151SAPE    HA16675   3.404   0.753   6.323 -2.3985 -2.1307  0.9558
  151SAPE    HB16676   3.380   0.751   6.492 -2.5001 -0.1816 -1.4224
  151SAPE    C216677   3.585   0.773   6.442 -0.3146 -0.1008  0.2200
  151SAPE    HS16678   3.651   0.755   6.354  0.0260  0.5012  0.3521
  151SAPE   O2116679   3.625   0.715   6.566 -0.5346 -0.6147 -0.0843
  151SAPE   C2116680   3.751   0.684   6.569 -0.4455 -0.8625 -0.3519
  151SAPE   O2216681   3.830   0.689   6.481  0.0864 -0.0488 -0.6164
  151SAPE   C2216682   3.796   0.633   6.714  0.0209 -0.1051  0.3327
  151SAPE   H2R16683   3.902   0.660   6.732  0.2876  0.6486 -2.1162
  151SAPE   H2S16684   3.726   0.684   6.784 -2.3863 -1.6719 -0.8684
  151SAPE    C316685   3.577   0.932   6.459 -0.2580 -0.1609  0.1394
  151SAPE    HX16686   3.542   0.980   6.365  1.0299  0.0342 -0.2625
  151SAPE    HY16687   3.682   0.969   6.467 -0.0821 -1.0399  2.3213
  151SAPE   O3116688   3.491   0.979   6.566  0.2512 -0.6909 -0.0286
  151SAPE   C3116689   3.555   1.018   6.673 -0.0484  0.1294  0.5897
  151SAPE   O3216690   3.678   1.028   6.675 -0.3235  0.2438  0.1442
  151SAPE   C3216691   3.458   1.041   6.792  0.6422  0.8724  0.0352
  151SAPE   H2X16692   3.394   1.127   6.764 -0.1472  0.1182 -0.4847
  151SAPE   H2Y16693   3.528   1.075   6.872  0.6495  0.9105  0.0131
  151SAPE   C2316694   3.781   0.479   6.731 -0.5579  0.2834  0.3389
  151SAPE   H3R16695   3.850   0.444   6.810  0.0398 -0.0207 -0.3144
  151SAPE   H3S16696   3.820   0.433   6.638  3.1094  0.2339  1.8511
  151SAPE   C2416697   3.638   0.436   6.751 -0.1159 -0.6717  0.2984
  151SAPE   H4R16698   3.647   0.325   6.754  3.3962 -0.3962  3.3935
  151SAPE   H4S16699   3.562   0.464   6.674 -0.3898 -0.7805  0.5280
  151SAPE   C2516700   3.575   0.477   6.884 -0.7545 -0.5352 -0.3581
  151SAPE   H5R16701   3.597   0.578   6.922 -0.0683 -0.3789 -1.1636
  151SAPE   C2616702   3.488   0.407   6.960 -0.3049 -0.1332  0.4007
  151SAPE   H6R16703   3.445   0.453   7.051  1.8946  0.0364  1.3801
  151SAPE   C2716704   3.450   0.267   6.943  0.2783  0.2662  0.8879
  151SAPE   H7R16705   3.489   0.201   7.023  0.6827  1.5219  1.7555
  151SAPE   H7S16706   3.495   0.217   6.855  0.3234 -1.6693  1.9854
  151SAPE   C2816707   3.301   0.253   6.931  1.3887  0.1135  0.1533
  151SAPE   H8R16708   3.262   0.251   6.828  1.4840  0.5562  0.1056
  151SAPE   C2916709   3.203   0.258   7.027  0.0831 -0.3200 -0.0257
  151SAPE   H9R16710   3.096   0.254   7.002  0.5100  1.0593 -2.2446
  151SAPE  C21016711   3.221   0.269   7.175 -0.4618 -0.7470 -0.0559
  151SAPE  H10R16712   3.125   0.303   7.220  0.3663 -0.0431  1.2142
  151SAPE  H10S16713   3.284   0.355   7.205  0.9334 -2.0973  1.0447
  151SAPE  C21116714   3.275   0.155   7.248 -0.5093  0.8443 -0.2391
  151SAPE  H11R16715   3.334   0.087   7.185 -0.3991 -0.1857  0.9472
  151SAPE  C21216716   3.284   0.141   7.377 -0.6343  0.3130  1.1311
  151SAPE  H12R16717   3.318   0.044   7.416 -1.6837 -0.4347  0.2217
  151SAPE  C21316718   3.229   0.224   7.488 -0.1206 -0.6242 -0.5816
  151SAPE  H13R16719   3.134   0.180   7.525 -0.8070 -0.4435 -2.0965
  151SAPE  H13S16720   3.204   0.327   7.452 -1.4413  0.0870  2.1887
  151SAPE  C21416721   3.333   0.242   7.592  0.7760 -0.1401  0.0135
  151SAPE  H14R16722   3.434   0.264   7.552 -0.2046  1.8351 -1.4900
  151SAPE  C21516723   3.316   0.235   7.725 -0.2406  0.2090  0.9981
  151SAPE  H15R16724   3.400   0.234   7.795 -1.6256 -0.1417  2.6779
  151SAPE  C21616725   3.195   0.195   7.804  0.2226 -0.1272  0.6532
  151SAPE  H16R16726   3.098   0.222   7.757  0.9770  1.6084  0.0585
  151SAPE  H16S16727   3.200   0.252   7.900  1.0620 -0.7276  0.9625
  151SAPE  C21716728   3.195   0.044   7.842 -0.8227 -0.3962 -0.2767
  151SAPE  H17R16729   3.290   0.021   7.894 -0.9185 -1.0127 -0.3690
  151SAPE  H17S16730   3.192  -0.009   7.744 -0.6777  1.8494 -1.5075
  151SAPE  C21816731   3.079  -0.004   7.923  0.8602 -0.4142 -0.0842
  151SAPE  H18R16732   3.064  -0.112   7.906  2.0857 -0.9635  2.1617
  151SAPE  H18S16733   2.984   0.044   7.890  1.8401  1.9913  0.4645
  151SAPE  C21916734   3.095   0.014   8.072 -0.1202  0.0251 -0.6117
  151SAPE  H19R16735   3.174   0.087   8.096  0.2691  0.4314 -2.9908
  151SAPE  H19S16736   3.130  -0.082   8.116 -2.5916 -0.4470  0.4383
  151SAPE  C22016737   2.971   0.077   8.135 -0.2588 -0.2800 -0.2003
  151SAPE  H20R16738   2.953   0.177   8.088 -0.1329 -0.6719 -1.1007
  151SAPE  H20S16739   2.879   0.015   8.125 -1.6887  1.7499 -0.1154
  151SAPE  H20T16740   2.995   0.082   8.243  1.8704 -0.1252 -0.6618
  151SAPE   C3316741   3.366   0.921   6.827 -0.9440  0.3941  0.2954
  151SAPE   H3X16742   3.313   0.890   6.734  0.1750 -0.1837 -0.1608
  151SAPE   H3Y16743   3.292   0.962   6.899 -1.0735  0.4128  0.1530
  151SAPE   C3416744   3.444   0.810   6.893 -0.2670 -0.2768  0.0077
  151SAPE   H4X16745   3.527   0.782   6.825 -0.3062  0.1098 -0.2004
  151SAPE   H4Y16746   3.369   0.729   6.899  0.9136 -1.3994 -0.0009
  151SAPE   C3516747   3.521   0.838   7.021  0.4420 -0.2610 -0.2442
  151SAPE   H5X16748   3.603   0.910   7.004  1.6192 -1.9027 -1.7183
  151SAPE   H5Y16749   3.562   0.740   7.053  1.8365  0.5531  0.4902
  151SAPE   C3616750   3.431   0.868   7.139  0.0210 -0.4387  0.0687
  151SAPE   H6X16751   3.357   0.786   7.148 -1.1951  0.5814 -0.4413
  151SAPE   H6Y16752   3.374   0.961   7.114  0.4269 -0.1086  0.3707
  151SAPE   C3716753   3.496   0.875   7.277  0.1474  0.4215 -0.8348
  151SAPE   H7X16754   3.583   0.943   7.286  1.0021 -0.5314 -1.7681
  151SAPE   H7Y16755   3.535   0.774   7.301  0.2349  0.9337  1.2436
  151SAPE   C3816756   3.400   0.909   7.398  0.6621  0.3673 -0.7260
  151SAPE   H8X16757   3.359   1.012   7.388  0.9585  0.5797  0.2015
  151SAPE   H8Y16758   3.468   0.898   7.484 -2.3444 -2.4699  1.4302
  151SAPE   C3916759   3.267   0.833   7.406 -0.0956 -0.1074 -0.3596
  151SAPE   H9X16760   3.292   0.725   7.401  0.7791  0.1329 -1.3998
  151SAPE   H9Y16761   3.207   0.862   7.317  0.8385  1.1824 -0.5821
  151SAPE  C31016762   3.187   0.856   7.536 -0.1852 -0.0724 -0.3980
  151SAPE  H10X16763   3.083   0.820   7.524  1.0741 -3.5138 -1.7980
  151SAPE  H10Y16764   3.175   0.963   7.561 -2.8513 -0.6123  0.7632
  151SAPE  C31116765   3.259   0.798   7.656 -0.1733 -0.1086 -0.0479
  151SAPE  H11X16766   3.347   0.856   7.691  0.1928 -0.6968  0.0233
  151SAPE  H11Y16767   3.293   0.698   7.622 -1.3523  0.1334 -2.0074
  151SAPE  C31216768   3.167   0.780   7.785 -0.8561  0.6829  0.8509
  151SAPE  H12X16769   3.078   0.718   7.763  0.6620 -0.1641 -3.3459
  151SAPE  H12Y16770   3.127   0.884   7.790 -0.0082  1.2627 -2.9368
  151SAPE  C31316771   3.243   0.715   7.907  0.5325  0.4501 -0.1837
  151SAPE  H13X16772   3.290   0.792   7.973  1.7114 -1.3290  1.1219
  151SAPE  H13Y16773   3.323   0.654   7.860  0.7436 -0.2522  1.0437
  151SAPE  C31416774   3.172   0.607   7.993  0.1742  0.3898  0.6784
  151SAPE  H14X16775   3.116   0.540   7.924  0.0478  2.4579 -1.3136
  151SAPE  H14Y16776   3.098   0.666   8.052  0.7921  2.3820 -0.4738
  151SAPE  C31516777   3.262   0.519   8.075 -0.1168  0.1422  0.1471
  151SAPE  H15X16778   3.341   0.583   8.120 -0.8113  0.0382  1.5350
  151SAPE  H15Y16779   3.315   0.439   8.019 -2.4883 -1.5229  0.2186
  151SAPE  C31616780   3.191   0.463   8.197 -0.2736  0.1340 -0.8851
  151SAPE  H16X16781   3.117   0.382   8.180  0.8816 -0.9585 -0.7253
  151SAPE  H16Y16782   3.125   0.545   8.234 -0.4973  0.1824 -1.3953
  151SAPE  C31716783   3.289   0.433   8.310 -0.0508  1.2410 -0.4070
  151SAPE  H17X16784   3.241   0.424   8.410  3.3903  0.3666  1.2264
  151SAPE  H17Y16785   3.348   0.525   8.328  1.6330 -0.1311  1.1381
  151SAPE  C31816786   3.376   0.313   8.292 -0.4447 -0.4762  0.4846
  151SAPE  H18X16787   3.457   0.332   8.218 -0.1901  1.6948  1.2703
  151SAPE  H18Y16788   3.326   0.223   8.250 -0.2392  0.1338 -1.1059
  151SAPE  H18Z16789   3.428   0.289   8.387  0.3656  1.7762  0.6494
  152SAPE     N16790   6.744   4.590   6.038  0.1136  0.2370  0.0047
  152SAPE   HN116791   6.786   4.563   5.947  1.7768  0.0084  0.8081
  152SAPE   HN216792   6.679   4.669   6.019 -1.3493 -0.9204  0.0685
  152SAPE   HN316793   6.818   4.627   6.101 -1.1224  0.2819  1.4737
  152SAPE   C1216794   6.680   4.469   6.105  0.1414 -0.0816  0.3099
  152SAPE  H12A16795   6.748   4.381   6.100 -1.8298 -1.9218  3.2791
  152SAPE  H12B16796   6.587   4.440   6.050  0.4947  0.3878 -0.5310
  152SAPE   C1116797   6.640   4.497   6.255  0.5189 -0.4091  0.3562
  152SAPE  H11A16798   6.729   4.532   6.312 -0.7848  2.8461  0.5189
  152SAPE  H11B16799   6.608   4.399   6.298  2.6871 -1.5157 -0.5230
  152SAPE     P16800   6.387   4.558   6.286  0.0002 -0.0324 -0.2965
  152SAPE   O1316801   6.308   4.685   6.287  0.1694  1.0280 -0.1620
  152SAPE   O1416802   6.351   4.456   6.180  0.0700  0.0341  0.3171
  152SAPE   O1216803   6.538   4.592   6.270 -0.1488  0.1455 -0.1189
  152SAPE   O1116804   6.375   4.508   6.439  0.4881 -0.2902  0.3209
  152SAPE    C116805   6.455   4.578   6.534  0.6116  0.5060  0.5832
  152SAPE    HA16806   6.561   4.547   6.524 -0.3938 -1.8562 -3.7202
  152SAPE    HB16807   6.464   4.688   6.517 -2.3266  0.5852 -0.8248
  152SAPE    C216808   6.422   4.544   6.683  0.2861 -0.8070  0.8007
  152SAPE    HS16809   6.500   4.593   6.745  0.5550  0.6027 -0.6343
  152SAPE   O2116810   6.408   4.403   6.697  0.1740 -0.5255 -0.3627
  152SAPE   C2116811   6.518   4.335   6.686  0.0670 -1.2355 -0.2013
  152SAPE   O2216812   6.627   4.393   6.695  0.5143 -0.5698  0.3189
  152SAPE   C2216813   6.495   4.190   6.658  0.4850 -0.0526  0.3802
  152SAPE   H2R16814   6.474   4.182   6.550  0.2703 -0.6970  0.4667
  152SAPE   H2S16815   6.595   4.144   6.675  0.8150 -0.5683 -2.7333
  152SAPE    C316816   6.291   4.619   6.720 -0.3310  0.3137  0.9361
  152SAPE    HX16817   6.208   4.577   6.660  1.0242 -0.9676 -0.0556
  152SAPE    HY16818   6.311   4.725   6.692  3.7316 -0.7396 -0.4420
  152SAPE   O3116819   6.256   4.605   6.862  0.5083  0.0991 -0.7149
  152SAPE   C3116820   6.208   4.481   6.898 -0.1349 -0.0613 -0.1555
  152SAPE   O3216821   6.167   4.395   6.820  0.5225 -0.2544  0.0745
  152SAPE   C3216822   6.194   4.477   7.055 -0.5762 -0.2842 -0.1007
  152SAPE   H2X16823   6.141   4.564   7.100  2.6280 -0.8471  5.1292
  152SAPE   H2Y16824   6.300   4.489   7.088 -0.8192  2.8426 -0.2901
  152SAPE   C2316825   6.391   4.125   6.749 -0.1658  0.0980 -0.1863
  152SAPE   H3R16826   6.390   4.015   6.732  0.5900  0.3237 -1.8455
  152SAPE   H3S16827   6.287   4.164   6.738 -0.1795  0.2824  0.5796
  152SAPE   C2416828   6.423   4.171   6.895  0.3284  0.2753 -0.3616
  152SAPE   H4R16829   6.349   4.122   6.963  0.9305 -1.1736 -0.7233
  152SAPE   H4S16830   6.391   4.277   6.898 -0.6865  0.1600 -4.5682
  152SAPE   C2516831   6.563   4.138   6.950  0.0826  0.4088  0.0321
  152SAPE   H5R16832   6.593   4.033   6.941  0.9535  0.7435 -1.0575
  152SAPE   C2616833   6.643   4.224   7.017 -0.5412 -0.3598 -0.3831
  152SAPE   H6R16834   6.748   4.194   7.035 -1.5349 -3.8821 -0.1483
  152SAPE   C2716835   6.620   4.370   7.062  0.1313 -0.0341  0.4071
  152SAPE   H7R16836   6.620   4.370   7.173 -0.5903  2.5107  0.4180
  152SAPE   H7S16837   6.522   4.416   7.037  0.8758  0.8302 -0.9701
  152SAPE   C2816838   6.722   4.465   7.012 -0.6451 -0.3170  0.0436
  152SAPE   H8R16839   6.687   4.525   6.926  0.8005  1.4212  0.6266
  152SAPE   C2916840   6.830   4.501   7.080 -0.5064 -0.0878  0.5551
  152SAPE   H9R16841   6.902   4.571   7.035  2.3630 -2.4819  1.2485
  152SAPE  C21016842   6.874   4.437   7.205 -0.0860 -0.0532  0.0639
  152SAPE  H10R16843   6.984   4.440   7.214 -0.1534  0.8388  0.6172
  152SAPE  H10S16844   6.832   4.334   7.210  0.8336 -0.5102 -1.2664
  152SAPE  C21116845   6.816   4.520   7.321  0.4159 -0.0051  0.1211
  152SAPE  H11R16846   6.795   4.626   7.302  0.1995  0.0618  0.7070
  152SAPE  C21216847   6.808   4.479   7.448 -0.1599 -0.7649 -0.5387
  152SAPE  H12R16848   6.777   4.554   7.523  1.6897 -0.6118  0.0906
  152SAPE  C21316849   6.844   4.343   7.517  0.1554  0.4656  0.3430
  152SAPE  H13R16850   6.940   4.343   7.572 -0.9910 -1.8258  2.4961
  152SAPE  H13S16851   6.870   4.273   7.434 -1.7199 -0.9827  0.9389
  152SAPE  C21416852   6.732   4.300   7.604 -0.2449  0.3729  0.2161
  152SAPE  H14R16853   6.634   4.311   7.554  0.4698 -2.0591 -1.8370
  152SAPE  C21516854   6.728   4.277   7.734  0.2836  1.0017  0.6618
  152SAPE  H15R16855   6.630   4.255   7.779 -0.2507  0.5885 -0.6888
  152SAPE  C21616856   6.836   4.286   7.834  0.0179  0.1146 -0.4234
  152SAPE  H16R16857   6.931   4.295   7.777  0.3267 -0.5118 -0.0075
  152SAPE  H16S16858   6.839   4.197   7.900 -1.8337  0.7052  0.5125
  152SAPE  C21716859   6.822   4.415   7.929 -0.2759 -0.8564  0.2069
  152SAPE  H17R16860   6.759   4.387   8.016 -1.1185  1.6246  0.4119
  152SAPE  H17S16861   6.778   4.501   7.874 -3.0081 -2.2170  0.2043
  152SAPE  C21816862   6.955   4.461   8.001  0.4349 -0.0916 -0.2569
  152SAPE  H18R16863   7.019   4.509   7.924  0.6467 -0.7636 -0.4997
  152SAPE  H18S16864   7.003   4.371   8.044  0.2476 -0.1340 -0.1331
  152SAPE  C21916865   6.923   4.551   8.118 -0.1560  0.3374 -0.4474
  152SAPE  H19R16866   6.882   4.504   8.210  1.4605 -2.5351 -1.1566
  152SAPE  H19S16867   6.849   4.624   8.077 -0.9039 -0.3522 -0.3295
  152SAPE  C22016868   7.056   4.627   8.160 -0.3411  0.2563  0.5055
  152SAPE  H20R16869   7.045   4.699   8.245  1.4182  1.7251 -0.4723
  152SAPE  H20S16870   7.102   4.695   8.085  1.2045 -0.4551  0.7855
  152SAPE  H20T16871   7.129   4.549   8.190 -0.7051 -0.3262 -0.1249
  152SAPE   C3316872   6.122   4.352   7.109 -0.2731 -0.0050  0.4765
  152SAPE   H3X16873   6.172   4.259   7.077 -0.4039  0.5910 -1.5312
  152SAPE   H3Y16874   6.021   4.351   7.063 -0.2872 -0.9508  0.5365
  152SAPE   C3416875   6.124   4.356   7.261 -0.6674  0.2490  0.4075
  152SAPE   H4X16876   6.072   4.263   7.294  0.6737  0.2148  2.5217
  152SAPE   H4Y16877   6.052   4.430   7.301 -1.5482 -0.4971  0.2309
  152SAPE   C3516878   6.262   4.362   7.324  0.1209 -0.0971 -0.2158
  152SAPE   H5X16879   6.299   4.465   7.311  0.7346 -0.1887  0.8323
  152SAPE   H5Y16880   6.327   4.281   7.284  0.0649  0.4312 -1.4056
  152SAPE   C3616881   6.262   4.324   7.475  0.0431  0.4884  0.6332
  152SAPE   H6X16882   6.368   4.325   7.510  0.3013  0.6659 -0.1513
  152SAPE   H6Y16883   6.210   4.226   7.476 -2.4722  1.7576 -1.0195
  152SAPE   C3716884   6.182   4.428   7.554 -0.2815  0.2257  0.1916
  152SAPE   H7X16885   6.091   4.468   7.504  0.5298  0.0106 -1.4655
  152SAPE   H7Y16886   6.250   4.515   7.567 -1.0071  1.0052 -1.1360
  152SAPE   C3816887   6.150   4.379   7.693  0.4486 -1.0495  0.4789
  152SAPE   H8X16888   6.089   4.287   7.686 -0.8885 -0.2157  1.0171
  152SAPE   H8Y16889   6.106   4.452   7.764  3.5120  2.0777 -0.7001
  152SAPE   C3916890   6.273   4.330   7.778  0.0936 -0.1588  0.1084
  152SAPE   H9X16891   6.333   4.255   7.723 -1.5618 -0.5759 -1.1528
  152SAPE   H9Y16892   6.240   4.268   7.865 -0.1410 -1.1427 -0.6706
  152SAPE  C31016893   6.363   4.441   7.847 -1.0335 -0.1063  0.5735
  152SAPE  H10X16894   6.302   4.529   7.878 -2.3974  0.5415 -3.6023
  152SAPE  H10Y16895   6.442   4.473   7.776 -0.3542 -1.0603  0.8833
  152SAPE  C31116896   6.441   4.390   7.965 -0.3713 -0.0992  0.3869
  152SAPE  H11X16897   6.532   4.453   7.967 -0.6900  0.3577  0.5133
  152SAPE  H11Y16898   6.477   4.286   7.950  1.0241 -0.0268  2.8484
  152SAPE  C31216899   6.370   4.405   8.100 -0.1476  0.0668  0.0609
  152SAPE  H12X16900   6.281   4.339   8.098  1.3270 -1.9465 -1.2500
  152SAPE  H12Y16901   6.334   4.510   8.103  1.3943  0.6447 -1.0885
  152SAPE  C31316902   6.440   4.380   8.235 -0.3540  0.0954  0.3007
  152SAPE  H13X16903   6.357   4.381   8.309 -1.1324 -1.0530 -0.5571
  152SAPE  H13Y16904   6.516   4.462   8.238 -0.1253 -0.0256 -1.7605
  152SAPE  C31416905   6.512   4.244   8.243 -0.3042 -0.3966  0.0262
  152SAPE  H14X16906   6.598   4.252   8.172  0.2219 -0.8632  0.6033
  152SAPE  H14Y16907   6.441   4.165   8.210 -0.8211  0.5586 -1.2200
  152SAPE  C31516908   6.561   4.214   8.387 -0.2077 -0.0951 -0.5933
  152SAPE  H15X16909   6.592   4.311   8.432 -1.0766 -0.1246  0.0983
  152SAPE  H15Y16910   6.653   4.153   8.385  1.5772  2.4903  0.2565
  152SAPE  C31616911   6.455   4.144   8.475  0.1846  0.0086 -0.6730
  152SAPE  H16X16912   6.435   4.057   8.409  1.1413 -0.2139 -0.6779
  152SAPE  H16Y16913   6.369   4.214   8.483  1.5296  1.6390  0.0125
  152SAPE  C31716914   6.511   4.100   8.611 -0.3146  0.6192  0.3001
  152SAPE  H17X16915   6.609   4.047   8.617 -1.1531 -1.0137 -0.2065
  152SAPE  H17Y16916   6.430   4.038   8.654 -1.7487  1.9929 -0.3615
  152SAPE  C31816917   6.518   4.223   8.694  0.0444 -0.0699  0.5838
  152SAPE  H18X16918   6.420   4.275   8.688 -0.9948 -2.1470 -0.9715
  152SAPE  H18Y16919   6.607   4.287   8.679  0.8195 -0.6153  2.6931
  152SAPE  H18Z16920   6.510   4.198   8.802 -1.9369 -0.4194  0.3679
  153SAPE     N16921   2.887   5.072   6.006  0.0330  0.2504 -0.0777
  153SAPE   HN116922   2.935   5.100   6.094 -0.5314  1.7789 -0.2266
  153SAPE   HN216923   2.915   5.145   5.937 -0.8605 -0.5920 -1.3576
  153SAPE   HN316924   2.784   5.082   6.015 -0.0446  0.0845 -0.7555
  153SAPE   C1216925   2.912   4.930   5.964 -0.1335 -0.5891 -0.4302
  153SAPE  H12A16926   3.023   4.923   5.966 -0.0980  0.1514  0.8468
  153SAPE  H12B16927   2.878   4.928   5.858 -1.6742  2.5515 -0.0626
  153SAPE   C1116928   2.865   4.817   6.054 -0.5123 -0.1846  0.3950
  153SAPE  H11A16929   2.879   4.722   5.997  0.5980  1.3232 -1.9119
  153SAPE  H11B16930   2.755   4.827   6.070 -0.5175  0.2325  0.1056
  153SAPE     P16931   2.903   4.707   6.284  0.2115  0.1458  0.0293
  153SAPE   O1316932   2.761   4.665   6.265  0.1678  0.2824  0.0341
  153SAPE   O1416933   3.003   4.607   6.290 -0.0059 -0.5914  0.2327
  153SAPE   O1216934   2.930   4.818   6.176 -0.2062 -0.2168 -0.0601
  153SAPE   O1116935   2.906   4.779   6.430 -0.2347 -0.2099 -0.2172
  153SAPE    C116936   2.883   4.922   6.440  0.8014  0.8783  1.0153
  153SAPE    HA16937   2.969   4.975   6.393 -0.1732 -0.7964 -2.8542
  153SAPE    HB16938   2.789   4.936   6.383  0.3231 -2.0356  1.0046
  153SAPE    C216939   2.844   4.956   6.586 -0.2591  0.2454 -0.6034
  153SAPE    HS16940   2.736   4.984   6.586 -0.9444 -2.1402  1.4238
  153SAPE   O2116941   2.931   5.056   6.645  0.1230  0.2269  0.2979
  153SAPE   C2116942   2.893   5.181   6.615 -0.8904  0.1073 -0.7126
  153SAPE   O2216943   2.802   5.210   6.536 -0.7120 -0.0031 -0.2284
  153SAPE   C2216944   2.963   5.278   6.712  0.4074 -0.1117  0.7988
  153SAPE   H2R16945   3.074   5.274   6.705  0.3770  1.1312 -0.8447
  153SAPE   H2S16946   2.931   5.375   6.668 -1.2728 -0.6564  0.7808
  153SAPE    C316947   2.847   4.838   6.687 -0.0341 -0.3132  0.1146
  153SAPE    HX16948   2.951   4.802   6.693  0.7237  2.0028  1.3841
  153SAPE    HY16949   2.783   4.757   6.645 -0.7506  0.9507 -1.2991
  153SAPE   O3116950   2.809   4.877   6.822 -0.0836  0.2510  0.4527
  153SAPE   C3116951   2.675   4.894   6.841  0.0140  0.2808  0.0447
  153SAPE   O3216952   2.589   4.890   6.754 -0.5778 -0.0862 -0.4041
  153SAPE   C3216953   2.653   4.917   6.994 -0.2299  0.2277  0.9410
  153SAPE   H2X16954   2.707   4.847   7.062 -1.0394 -0.1949  1.1586
  153SAPE   H2Y16955   2.545   4.905   7.018 -0.3205  0.5542  0.7004
  153SAPE   C2316956   2.911   5.273   6.862  1.1442 -0.7020  0.1441
  153SAPE   H3R16957   2.947   5.185   6.920  1.2281 -0.7964 -0.0486
  153SAPE   H3S16958   2.801   5.264   6.864  0.8312  1.3579 -3.5038
  153SAPE   C2416959   2.954   5.394   6.947 -0.0740 -0.1056 -0.2403
  153SAPE   H4R16960   3.063   5.416   6.935  0.1773 -1.8857 -1.4395
  153SAPE   H4S16961   2.947   5.381   7.057 -0.6604  0.1158 -0.2514
  153SAPE   C2516962   2.874   5.512   6.902 -0.2374  0.0894  0.0304
  153SAPE   H5R16963   2.909   5.564   6.812 -0.3487  0.5204  0.2331
  153SAPE   C2616964   2.766   5.551   6.973  0.1990  1.1339 -0.7815
  153SAPE   H6R16965   2.711   5.643   6.949 -1.5480  0.1073 -0.8160
  153SAPE   C2716966   2.708   5.480   7.095 -0.0134  0.2346 -0.0376
  153SAPE   H7R16967   2.781   5.503   7.176 -1.6126 -1.7865  2.0348
  153SAPE   H7S16968   2.702   5.370   7.083  1.9762  0.0606  0.4234
  153SAPE   C2816969   2.576   5.547   7.127  0.4189 -0.3278  0.1809
  153SAPE   H8R16970   2.503   5.565   7.046  0.0708  0.4354  0.6590
  153SAPE   C2916971   2.527   5.583   7.250 -1.0897  0.8282 -0.3387
  153SAPE   H9R16972   2.433   5.639   7.250 -0.8882  1.2024 -2.1416
  153SAPE  C21016973   2.591   5.547   7.382  0.2008 -0.4497  0.2813
  153SAPE  H10R16974   2.590   5.627   7.459  1.7341 -0.9992  0.8706
  153SAPE  H10S16975   2.698   5.529   7.362 -0.0942 -0.2841 -1.5664
  153SAPE  C21116976   2.511   5.431   7.441  0.4787  0.1336 -0.8915
  153SAPE  H11R16977   2.447   5.382   7.366  0.4009 -0.8339 -0.2110
  153SAPE  C21216978   2.497   5.388   7.569  0.7125  0.0014  0.6011
  153SAPE  H12R16979   2.435   5.307   7.610 -1.0927  1.5003  0.8850
  153SAPE  C21316980   2.570   5.457   7.685  0.1315  0.1116  0.2746
  153SAPE  H13R16981   2.514   5.413   7.770  1.4957 -2.6159 -0.1808
  153SAPE  H13S16982   2.532   5.561   7.676  0.6229  0.4913  2.4224
  153SAPE  C21416983   2.720   5.440   7.692  0.3487  0.1844  0.1094
  153SAPE  H14R16984   2.769   5.386   7.610 -1.5547 -0.5772 -0.5618
  153SAPE  C21516985   2.796   5.475   7.800 -0.4101 -0.5020 -0.3310
  153SAPE  H15R16986   2.905   5.460   7.795 -0.4089  0.0228 -2.4600
  153SAPE  C21616987   2.745   5.541   7.927  0.2551 -0.1678  0.5327
  153SAPE  H16R16988   2.643   5.584   7.914 -0.7940 -1.7511  3.0746
  153SAPE  H16S16989   2.806   5.630   7.953 -0.3886  0.4051  0.1208
  153SAPE  C21716990   2.740   5.434   8.042  0.7662 -0.0928  0.0072
  153SAPE  H17R16991   2.846   5.409   8.066  0.9861  2.2011  1.6347
  153SAPE  H17S16992   2.683   5.344   8.011  0.6089  0.5202 -1.5160
  153SAPE  C21816993   2.676   5.488   8.174 -0.9445 -0.0209 -0.2377
  153SAPE  H18R16994   2.632   5.412   8.243 -1.4792  0.3089 -0.2194
  153SAPE  H18S16995   2.586   5.550   8.155 -2.8743 -2.8645 -0.6449
  153SAPE  C21916996   2.778   5.566   8.257  0.4799  0.5373  0.8974
  153SAPE  H19R16997   2.784   5.666   8.209 -4.1655  0.6952  0.4163
  153SAPE  H19S16998   2.873   5.509   8.249 -0.8257 -1.4597 -0.9001
  153SAPE  C22016999   2.735   5.575   8.397 -0.0754 -0.1691  0.4749
  153SAPE  H20R17000   2.778   5.660   8.455  1.7707 -1.1144  0.5308
  153SAPE  H20S17001   2.760   5.484   8.455 -0.8080 -0.9104 -0.3718
  153SAPE  H20T17002   2.629   5.607   8.405  0.0012  0.1912  0.0759
  153SAPE   C3317003   2.688   5.057   7.043  0.1003  0.2910 -0.0696
  153SAPE   H3X17004   2.634   5.128   6.975  0.3763 -0.0839 -0.6838
  153SAPE   H3Y17005   2.797   5.075   7.046  0.1546 -0.1189  0.4217
  153SAPE   C3417006   2.631   5.078   7.182 -0.0024 -0.1991  0.5894
  153SAPE   H4X17007   2.520   5.086   7.180  0.1705  2.0409 -0.8578
  153SAPE   H4Y17008   2.660   5.180   7.213  1.5789 -0.5006  0.1657
  153SAPE   C3517009   2.683   4.983   7.289 -0.2952 -0.0339 -0.3902
  153SAPE   H5X17010   2.791   4.976   7.262 -0.6947  0.4800 -2.1520
  153SAPE   H5Y17011   2.642   4.882   7.269 -2.5109  0.4434  1.5269
  153SAPE   C3617012   2.663   5.024   7.439  0.7429 -0.6883  0.7968
  153SAPE   H6X17013   2.559   4.993   7.465  0.6219  0.3704  1.6137
  153SAPE   H6Y17014   2.653   5.134   7.443  3.5533 -0.4319  1.4854
  153SAPE   C3717015   2.766   4.979   7.545  0.0895 -0.2849 -0.0419
  153SAPE   H7X17016   2.865   5.003   7.501 -0.4341  1.2742 -0.4009
  153SAPE   H7Y17017   2.753   4.869   7.558  3.0385 -0.9969 -2.6488
  153SAPE   C3817018   2.731   5.056   7.673 -0.4753  0.0042  0.0559
  153SAPE   H8X17019   2.620   5.063   7.678 -0.6748 -2.6941  0.3455
  153SAPE   H8Y17020   2.774   5.157   7.683 -0.2716 -0.2914  2.4880
  153SAPE   C3917021   2.782   4.973   7.797  0.0648 -0.1867 -0.5841
  153SAPE   H9X17022   2.893   4.974   7.801  0.0465  0.1166 -0.0717
  153SAPE   H9Y17023   2.764   4.865   7.781  1.7145 -0.5728  0.1277
  153SAPE  C31017024   2.718   5.011   7.932 -0.0205 -0.3130  0.0408
  153SAPE  H10X17025   2.609   5.027   7.928  0.1033  0.6139  0.3476
  153SAPE  H10Y17026   2.748   5.115   7.957 -0.1357 -0.9534  3.0032
  153SAPE  C31117027   2.744   4.901   8.024 -0.0942 -0.2508 -0.0157
  153SAPE  H11X17028   2.851   4.872   8.028  0.2646  1.1397  0.8233
  153SAPE  H11Y17029   2.689   4.818   7.975 -1.8651 -0.8955  2.9198
  153SAPE  C31217030   2.698   4.919   8.164  0.0950 -0.1758 -0.2236
  153SAPE  H12X17031   2.591   4.946   8.178  0.6345  0.5812  2.7160
  153SAPE  H12Y17032   2.749   5.004   8.214 -3.4426  1.7557  0.3392
  153SAPE  C31317033   2.727   4.789   8.245  0.2694 -0.1857  0.1463
  153SAPE  H13X17034   2.823   4.750   8.204  1.7346  1.4893  1.8426
  153SAPE  H13Y17035   2.657   4.707   8.222 -1.1764  1.6723 -2.3452
  153SAPE  C31417036   2.750   4.825   8.390 -0.6244  0.2635 -0.1945
  153SAPE  H14X17037   2.656   4.867   8.433 -0.2156 -0.8337  1.8153
  153SAPE  H14Y17038   2.829   4.902   8.400  0.1693 -0.5599 -0.0995
  153SAPE  C31517039   2.786   4.700   8.466  0.6627  0.1656  0.0732
  153SAPE  H15X17040   2.891   4.667   8.450  0.6520  1.4105 -2.8111
  153SAPE  H15Y17041   2.722   4.617   8.429  2.0919 -1.2365  0.7131
  153SAPE  C31617042   2.760   4.717   8.623  0.3583 -0.8450  0.0537
  153SAPE  H16X17043   2.651   4.731   8.630  0.2331 -1.5162 -0.4317
  153SAPE  H16Y17044   2.815   4.809   8.651 -2.6207  1.0904 -0.3003
  153SAPE  C31717045   2.787   4.598   8.716 -0.0507  0.7620 -0.5036
  153SAPE  H17X17046   2.893   4.564   8.719 -1.1824 -2.8715  1.2299
  153SAPE  H17Y17047   2.721   4.515   8.682  1.1549 -1.2036  1.8060
  153SAPE  C31817048   2.743   4.620   8.865  0.4563 -0.1601 -0.0662
  153SAPE  H18X17049   2.643   4.668   8.867  0.4097 -0.2719  0.2982
  153SAPE  H18Y17050   2.815   4.698   8.901  1.3869 -0.0829 -2.0477
  153SAPE  H18Z17051   2.754   4.527   8.924  1.8217  0.3592  0.5398
  154SAPE     N17052   1.010   3.224   6.346  0.3065  0.0765 -0.0989
  154SAPE   HN117053   1.101   3.174   6.356  1.2995  2.0812  1.0899
  154SAPE   HN217054   0.932   3.183   6.401  1.2797 -0.2520  1.0552
  154SAPE   HN317055   0.993   3.199   6.246  1.5307  0.2387 -0.3583
  154SAPE   C1217056   1.034   3.363   6.390  0.2419  0.1561  0.1341
  154SAPE  H12A17057   1.034   3.363   6.501 -0.0221  1.3870  0.1409
  154SAPE  H12B17058   0.950   3.429   6.359  1.7868  2.4838  0.7523
  154SAPE   C1117059   1.163   3.416   6.339  1.1108  0.1482 -0.1573
  154SAPE  H11A17060   1.231   3.339   6.382  0.7360 -0.6682 -1.0125
  154SAPE  H11B17061   1.185   3.514   6.386 -1.5305  1.2465 -1.1528
  154SAPE     P17062   1.107   3.521   6.103  0.0097  0.2249 -0.3899
  154SAPE   O1317063   1.196   3.535   5.988 -0.6661  0.9247  0.4986
  154SAPE   O1417064   0.966   3.503   6.069  0.1174  0.2258  0.1114
  154SAPE   O1217065   1.160   3.400   6.197  0.3313  0.7669  0.5067
  154SAPE   O1117066   1.131   3.650   6.197 -0.0780  0.1439  0.3068
  154SAPE    C117067   1.021   3.732   6.245  0.6326 -0.0947  0.1360
  154SAPE    HA17068   0.990   3.794   6.159  0.4177  0.6488  0.7501
  154SAPE    HB17069   0.933   3.678   6.287  1.3955  0.3638  2.4070
  154SAPE    C217070   1.055   3.824   6.369 -0.5299 -0.0386  0.7839
  154SAPE    HS17071   1.151   3.873   6.343  0.2931 -2.2082 -0.4006
  154SAPE   O2117072   1.070   3.734   6.477  0.4077  0.0134 -0.4596
  154SAPE   C2117073   1.138   3.788   6.580 -0.4320 -0.4911 -0.2940
  154SAPE   O2217074   1.176   3.902   6.580  0.0793  0.1364  0.1890
  154SAPE   C2217075   1.130   3.703   6.702  0.9916  0.0895 -0.3892
  154SAPE   H2R17076   1.023   3.694   6.731  0.8682  2.3586 -0.0703
  154SAPE   H2S17077   1.175   3.604   6.681 -0.3144 -0.6072  0.0368
  154SAPE    C317078   0.947   3.929   6.397 -0.1503 -0.3137  0.8080
  154SAPE    HX17079   0.928   3.979   6.299  1.6927 -2.7571 -0.8585
  154SAPE    HY17080   0.974   4.013   6.466  0.7249  0.3494 -0.3091
  154SAPE   O3117081   0.819   3.866   6.427  0.5120 -0.2482  0.7500
  154SAPE   C3117082   0.779   3.878   6.561 -0.4146  0.4388 -0.0365
  154SAPE   O3217083   0.849   3.925   6.649 -0.2958 -0.1708  0.0950
  154SAPE   C3217084   0.640   3.811   6.569  0.0609 -0.0452 -0.2950
  154SAPE   H2X17085   0.630   3.745   6.480  1.2344  1.3380 -1.4830
  154SAPE   H2Y17086   0.568   3.895   6.576  2.1197  1.6558  0.8937
  154SAPE   C2317087   1.218   3.746   6.820  0.0051 -0.1657  0.0106
  154SAPE   H3R17088   1.317   3.784   6.786 -0.4366  2.8241  1.9169
  154SAPE   H3S17089   1.238   3.668   6.896  1.5563  0.4078  0.2272
  154SAPE   C2417090   1.149   3.857   6.905 -0.8264  0.1414  0.4481
  154SAPE   H4R17091   1.144   3.953   6.849 -1.0909 -0.7864 -1.1778
  154SAPE   H4S17092   1.220   3.874   6.988  2.9560  1.3469 -2.8480
  154SAPE   C2517093   1.011   3.827   6.954 -0.0910  0.7042 -0.2281
  154SAPE   H5R17094   0.931   3.833   6.878 -0.9108 -1.2994  0.4224
  154SAPE   C2617095   0.983   3.790   7.082 -0.4778 -0.2067  0.6074
  154SAPE   H6R17096   0.879   3.767   7.110 -0.6189 -0.1042  0.1783
  154SAPE   C2717097   1.086   3.781   7.192 -0.3231 -0.5990 -0.3783
  154SAPE   H7R17098   1.184   3.748   7.153 -0.5498 -1.1514 -0.4854
  154SAPE   H7S17099   1.048   3.704   7.263 -2.3409  0.0702 -0.6895
  154SAPE   C2817100   1.098   3.915   7.261 -0.7442 -0.5317 -0.0048
  154SAPE   H8R17101   1.071   4.010   7.212  0.0565 -0.3982 -0.2093
  154SAPE   C2917102   1.153   3.937   7.384  0.5402  0.9966 -0.2231
  154SAPE   H9R17103   1.148   4.043   7.409  2.8732  1.5290 -1.8212
  154SAPE  C21017104   1.206   3.837   7.478 -0.4365  0.2650  0.2180
  154SAPE  H10R17105   1.302   3.875   7.519 -0.3501  2.0135 -1.5339
  154SAPE  H10S17106   1.218   3.733   7.441 -0.6510  1.0259 -2.0895
  154SAPE  C21117107   1.099   3.827   7.589  0.1842 -0.2931 -0.3316
  154SAPE  H11R17108   1.007   3.776   7.557 -1.3459  0.4998  2.6001
  154SAPE  C21217109   1.110   3.854   7.723 -0.5054  0.2274 -0.0548
  154SAPE  H12R17110   1.023   3.831   7.785 -0.3101  0.9357  0.4932
  154SAPE  C21317111   1.225   3.921   7.799 -0.4863  0.1123 -0.2108
  154SAPE  H13R17112   1.290   3.974   7.726  0.4221  0.2523  0.7026
  154SAPE  H13S17113   1.275   3.833   7.843 -0.5639 -0.2131 -0.7586
  154SAPE  C21417114   1.177   4.027   7.897  0.3664  0.9189 -0.1017
  154SAPE  H14R17115   1.133   4.116   7.848 -3.3970 -0.8417 -0.0596
  154SAPE  C21517116   1.178   4.008   8.033 -0.3896  0.1399 -0.3674
  154SAPE  H15R17117   1.138   4.088   8.097 -0.7082  0.6230 -1.1493
  154SAPE  C21617118   1.231   3.886   8.107 -0.8784  0.1368 -0.2079
  154SAPE  H16R17119   1.275   3.808   8.043 -0.2699  1.3102 -1.2379
  154SAPE  H16S17120   1.145   3.834   8.155 -3.2394  0.2880 -4.1364
  154SAPE  C21717121   1.340   3.925   8.205 -0.0441 -0.4835 -0.1252
  154SAPE  H17R17122   1.383   3.832   8.249 -2.0501 -1.4679 -0.2211
  154SAPE  H17S17123   1.304   3.991   8.286  0.4701  0.9167 -1.0314
  154SAPE  C21817124   1.462   3.991   8.144  0.0590  0.3261 -0.6964
  154SAPE  H18R17125   1.427   4.093   8.117 -0.5388  0.8425  1.8876
  154SAPE  H18S17126   1.493   3.945   8.048 -1.4955 -1.8310 -0.2052
  154SAPE  C21917127   1.584   4.007   8.240 -0.1167 -0.4481  0.4928
  154SAPE  H19R17128   1.635   3.911   8.262  1.6948  0.1197 -1.1483
  154SAPE  H19S17129   1.568   4.061   8.336  1.5843 -2.0600  1.7315
  154SAPE  C22017130   1.686   4.092   8.171 -0.5057 -0.4643  0.7809
  154SAPE  H20R17131   1.787   4.070   8.212  0.8247  0.6435 -1.7464
  154SAPE  H20S17132   1.668   4.202   8.169 -0.2801 -0.4209  1.1658
  154SAPE  H20T17133   1.701   4.059   8.066 -0.0261 -2.2876  1.4037
  154SAPE   C3317134   0.622   3.726   6.701 -0.0346 -0.0682 -1.0240
  154SAPE   H3X17135   0.713   3.665   6.720  0.3784  0.2221 -2.0198
  154SAPE   H3Y17136   0.536   3.656   6.696 -0.2060 -0.1067  1.7578
  154SAPE   C3417137   0.615   3.806   6.838  0.8283  0.7229  0.1965
  154SAPE   H4X17138   0.531   3.879   6.840  0.6038  0.5543 -1.6496
  154SAPE   H4Y17139   0.710   3.862   6.848  0.2709  2.0108 -1.3382
  154SAPE   C3517140   0.583   3.717   6.954  0.6058  0.1988 -0.7743
  154SAPE   H5X17141   0.639   3.621   6.957  0.2378 -0.0175 -0.7498
  154SAPE   H5Y17142   0.480   3.675   6.944  0.6278 -0.4235  1.2972
  154SAPE   C3617143   0.590   3.797   7.082 -0.1741  0.3582  0.2575
  154SAPE   H6X17144   0.500   3.863   7.086  0.3268  1.0946 -0.3678
  154SAPE   H6Y17145   0.683   3.858   7.083 -0.7559  1.2307  1.3769
  154SAPE   C3717146   0.601   3.714   7.210 -0.1280 -0.1836  0.5698
  154SAPE   H7X17147   0.683   3.639   7.203  0.0042  0.1762 -2.0639
  154SAPE   H7Y17148   0.505   3.661   7.228  0.1274 -2.0169 -3.0303
  154SAPE   C3817149   0.627   3.808   7.338 -0.3957 -0.2707 -0.1939
  154SAPE   H8X17150   0.554   3.893   7.336  0.6443  0.6298 -0.4194
  154SAPE   H8Y17151   0.727   3.850   7.312 -0.1721 -1.3320 -1.0500
  154SAPE   C3917152   0.615   3.733   7.473  0.3090  0.3719  0.6346
  154SAPE   H9X17153   0.674   3.639   7.480 -1.2023 -0.7407 -1.0691
  154SAPE   H9Y17154   0.509   3.702   7.478  0.6796 -1.3354 -1.4073
  154SAPE  C31017155   0.657   3.818   7.593  0.2584 -0.4670  0.1188
  154SAPE  H10X17156   0.581   3.897   7.614 -0.3673 -1.0248 -0.0507
  154SAPE  H10Y17157   0.757   3.865   7.578  0.6834 -0.9757  1.2558
  154SAPE  C31117158   0.649   3.727   7.717  0.0813 -0.5344 -0.3247
  154SAPE  H11X17159   0.720   3.642   7.708  1.5913  0.8404 -1.9162
  154SAPE  H11Y17160   0.545   3.691   7.727  0.5950 -1.3219  3.0570
  154SAPE  C31217161   0.682   3.808   7.848 -0.1446  0.1277  0.6821
  154SAPE  H12X17162   0.599   3.872   7.883  0.3171  0.2378  1.5743
  154SAPE  H12Y17163   0.766   3.879   7.832 -0.6826  0.2250 -2.1307
  154SAPE  C31317164   0.713   3.709   7.960  0.5531  0.4619 -0.1554
  154SAPE  H13X17165   0.790   3.638   7.923  0.0640 -0.4465  0.5809
  154SAPE  H13Y17166   0.620   3.657   7.989  1.3192  0.0167  1.5761
  154SAPE  C31417167   0.778   3.777   8.083 -0.8436  0.0943 -0.0703
  154SAPE  H14X17168   0.710   3.860   8.111  1.6742  2.2727 -0.2581
  154SAPE  H14Y17169   0.874   3.822   8.051 -1.0719  0.2185 -0.5806
  154SAPE  C31517170   0.789   3.689   8.205 -0.3049  0.3849 -0.3098
  154SAPE  H15X17171   0.869   3.615   8.186 -0.6823  0.0274 -0.5068
  154SAPE  H15Y17172   0.693   3.634   8.208 -0.5955  0.9634  1.4685
  154SAPE  C31617173   0.789   3.750   8.347 -0.5523  0.1373  0.7487
  154SAPE  H16X17174   0.788   3.660   8.413 -0.1199  0.2430  0.9033
  154SAPE  H16Y17175   0.703   3.814   8.378 -1.8097 -0.3203 -1.6524
  154SAPE  C31717176   0.919   3.828   8.353 -0.4623 -0.4125  0.1662
  154SAPE  H17X17177   0.930   3.921   8.294 -0.2772  0.7081  1.9291
  154SAPE  H17Y17178   1.004   3.761   8.328 -1.2195 -1.1831 -0.4169
  154SAPE  C31817179   0.954   3.867   8.503 -0.4081  0.4010  0.1143
  154SAPE  H18X17180   1.058   3.901   8.522 -0.2134 -1.1303  1.9167
  154SAPE  H18Y17181   0.937   3.793   8.583 -1.7929  0.5122 -0.0682
  154SAPE  H18Z17182   0.885   3.949   8.530 -1.5880 -0.1868 -1.0702
  155SAPE     N17183   1.164   5.067   6.294 -0.4998 -0.1715 -0.0935
  155SAPE   HN117184   1.134   5.164   6.272 -2.3097 -0.0367  2.7492
  155SAPE   HN217185   1.164   5.049   6.396  3.1930  2.0934  0.3924
  155SAPE   HN317186   1.262   5.065   6.258 -0.3214  0.4867  0.3262
  155SAPE   C1217187   1.078   4.962   6.226 -0.2949  0.3038  0.6844
  155SAPE  H12A17188   1.123   4.862   6.244 -2.1297 -0.5588  0.6191
  155SAPE  H12B17189   1.078   4.989   6.118 -3.7170  1.5789  0.9303
  155SAPE   C1117190   0.941   4.964   6.292 -0.1486  0.4617 -0.1379
  155SAPE  H11A17191   0.885   4.878   6.252 -0.8704  0.6601  0.4436
  155SAPE  H11B17192   0.899   5.061   6.255  1.2711  1.0713 -0.1957
  155SAPE     P17193   0.812   4.951   6.509  0.4460 -0.0128  0.1780
  155SAPE   O1317194   0.726   5.050   6.439  0.0608 -0.1811 -0.1488
  155SAPE   O1417195   0.764   4.812   6.520 -0.5703  0.5151  0.2369
  155SAPE   O1217196   0.949   4.950   6.435 -0.0477 -0.1673  0.3914
  155SAPE   O1117197   0.847   5.009   6.649 -0.3999  0.2284 -0.0576
  155SAPE    C117198   0.922   5.130   6.668  0.1775 -0.0636 -0.1425
  155SAPE    HA17199   1.028   5.125   6.635  1.1171  1.9057  2.3712
  155SAPE    HB17200   0.882   5.217   6.612  2.8801 -0.1711 -2.3563
  155SAPE    C217201   0.918   5.170   6.817  0.7890  0.1075 -0.1508
  155SAPE    HS17202   0.998   5.242   6.845 -2.5553  2.7403  2.9845
  155SAPE   O2117203   0.933   5.051   6.902 -0.0116  0.1004  0.2336
  155SAPE   C2117204   1.062   5.008   6.890 -0.4490 -0.5482  0.8304
  155SAPE   O2217205   1.150   5.060   6.822  0.4964  0.0719 -0.0674
  155SAPE   C2217206   1.079   4.885   6.993  0.7253  0.3698  0.3353
  155SAPE   H2R17207   1.168   4.920   7.049  1.3033  0.1037 -0.4142
  155SAPE   H2S17208   0.991   4.898   7.060 -0.9013 -1.3001 -1.4054
  155SAPE    C317209   0.777   5.240   6.847  0.8940 -0.0262 -0.3792
  155SAPE    HX17210   0.693   5.167   6.840  0.1676  0.6622  0.9773
  155SAPE    HY17211   0.773   5.318   6.769  2.1079  0.4923  0.0626
  155SAPE   O3117212   0.789   5.306   6.976 -0.6852  0.1879 -0.6239
  155SAPE   C3117213   0.659   5.335   7.014 -0.2651 -1.3882 -0.9521
  155SAPE   O3217214   0.558   5.330   6.947  0.4635  0.1566  0.5248
  155SAPE   C3217215   0.661   5.385   7.156  0.5469  0.3557 -0.2324
  155SAPE   H2X17216   0.559   5.423   7.182  0.3121 -0.8056  0.5699
  155SAPE   H2Y17217   0.739   5.463   7.169  0.9779 -0.2834  1.1007
  155SAPE   C2317218   1.097   4.755   6.907 -0.6726 -0.1551  0.6448
  155SAPE   H3R17219   1.172   4.756   6.824 -0.8621 -0.8030  0.4692
  155SAPE   H3S17220   1.004   4.746   6.847 -1.3970  0.5732  1.6436
  155SAPE   C2417221   1.109   4.624   6.992 -0.0059 -0.1400 -0.0265
  155SAPE   H4R17222   1.016   4.611   7.053  0.5657  0.2356  0.9402
  155SAPE   H4S17223   1.195   4.646   7.059  0.0052 -1.6614  0.4785
  155SAPE   C2517224   1.125   4.511   6.896  0.4062  0.0901 -0.2402
  155SAPE   H5R17225   1.072   4.527   6.801 -1.4500 -0.7202  0.6223
  155SAPE   C2617226   1.193   4.392   6.910  0.0493 -0.2920  0.3870
  155SAPE   H6R17227   1.182   4.318   6.829  2.4594 -0.7006  0.4094
  155SAPE   C2717228   1.269   4.346   7.038  0.1922  0.7833 -0.1044
  155SAPE   H7R17229   1.251   4.238   7.057 -0.2132  1.1914  2.0265
  155SAPE   H7S17230   1.243   4.406   7.128 -2.4173  0.7733 -0.8035
  155SAPE   C2817231   1.422   4.354   7.019 -0.6341  0.4037 -0.0654
  155SAPE   H8R17232   1.461   4.345   6.917 -0.2187  1.1977  0.0184
  155SAPE   C2917233   1.505   4.363   7.125  0.3861 -0.1377  0.6053
  155SAPE   H9R17234   1.614   4.363   7.107 -0.0291 -0.4957 -2.1713
  155SAPE  C21017235   1.478   4.369   7.272 -0.3996 -0.1359  0.1324
  155SAPE  H10R17236   1.425   4.464   7.290  0.6543  0.1521  1.8994
  155SAPE  H10S17237   1.582   4.380   7.311 -0.4729  1.1995 -0.0298
  155SAPE  C21117238   1.404   4.254   7.342 -0.5790 -0.1992  0.2122
  155SAPE  H11R17239   1.341   4.193   7.277 -1.1533  0.5419  0.0611
  155SAPE  C21217240   1.406   4.229   7.477 -0.1575 -0.5806  0.3326
  155SAPE  H12R17241   1.353   4.143   7.520  2.0148 -1.3067  1.6503
  155SAPE  C21317242   1.479   4.317   7.573 -0.8838  0.3399  0.4483
  155SAPE  H13R17243   1.471   4.425   7.548  0.4530  0.1620 -0.7861
  155SAPE  H13S17244   1.587   4.310   7.551 -1.0181  2.5243 -1.0433
  155SAPE  C21417245   1.444   4.288   7.717  0.2646  0.8445 -0.0634
  155SAPE  H14R17246   1.482   4.188   7.744 -1.3576 -0.3604 -2.0917
  155SAPE  C21517247   1.380   4.365   7.818  0.1704 -0.3191 -1.0006
  155SAPE  H15R17248   1.345   4.307   7.905 -0.6584 -0.9978 -1.7699
  155SAPE  C21617249   1.318   4.500   7.792 -0.1734  0.2921  0.3021
  155SAPE  H16R17250   1.397   4.572   7.763 -1.2625  1.6020  0.5356
  155SAPE  H16S17251   1.282   4.544   7.888  0.6617  0.3615  0.5864
  155SAPE  C21717252   1.205   4.508   7.691  0.4831 -0.1032 -0.6371
  155SAPE  H17R17253   1.125   4.434   7.713  0.7741 -0.5085 -0.9432
  155SAPE  H17S17254   1.253   4.457   7.605 -1.1158 -2.1120 -0.3674
  155SAPE  C21817255   1.156   4.648   7.668  0.0588 -0.1836 -0.6748
  155SAPE  H18R17256   1.243   4.718   7.670 -1.6019  1.8888  1.9121
  155SAPE  H18S17257   1.104   4.676   7.762  2.7710  1.2256  0.4897
  155SAPE  C21917258   1.077   4.660   7.535 -0.3608  0.3457  0.1872
  155SAPE  H19R17259   1.025   4.757   7.553  1.0354  1.4035 -1.3284
  155SAPE  H19S17260   1.011   4.571   7.531  0.0842  0.0414 -0.6349
  155SAPE  C22017261   1.175   4.669   7.419 -0.4265 -0.8539  0.2153
  155SAPE  H20R17262   1.219   4.771   7.417 -0.8931 -0.6173 -5.1566
  155SAPE  H20S17263   1.116   4.662   7.325 -1.6024  1.0130  0.7845
  155SAPE  H20T17264   1.247   4.584   7.414 -1.9009 -2.0141 -2.2586
  155SAPE   C3317265   0.680   5.264   7.254 -0.2557  0.4074 -0.1720
  155SAPE   H3X17266   0.772   5.215   7.214  0.8335  2.6763 -0.5598
  155SAPE   H3Y17267   0.606   5.181   7.260  0.2011  0.0742  1.0377
  155SAPE   C3417268   0.731   5.308   7.386 -0.0921  0.0700 -1.0913
  155SAPE   H4X17269   0.802   5.394   7.391  2.8834 -2.3680  0.2144
  155SAPE   H4Y17270   0.799   5.229   7.423  1.6536  1.7393 -0.6525
  155SAPE   C3517271   0.632   5.332   7.496  0.4696  0.3396 -0.5133
  155SAPE   H5X17272   0.552   5.255   7.489 -0.4875  1.5526 -3.9725
  155SAPE   H5Y17273   0.599   5.438   7.487  0.7364  0.3728 -1.1302
  155SAPE   C3617274   0.723   5.339   7.622  0.3834 -0.1533 -0.8763
  155SAPE   H6X17275   0.807   5.411   7.612  0.2706 -0.0468 -1.0554
  155SAPE   H6Y17276   0.763   5.236   7.636  0.6496 -0.1451 -1.5362
  155SAPE   C3717277   0.646   5.374   7.748 -0.0049  0.8988  0.1551
  155SAPE   H7X17278   0.552   5.314   7.753  1.4260 -1.3463  0.8825
  155SAPE   H7Y17279   0.611   5.479   7.743 -1.0111  0.4888 -2.9878
  155SAPE   C3817280   0.731   5.337   7.874  0.1994 -0.0381  0.0105
  155SAPE   H8X17281   0.822   5.399   7.865  0.8976 -1.1227 -0.4486
  155SAPE   H8Y17282   0.750   5.228   7.875  0.9515  0.0935 -0.1073
  155SAPE   C3917283   0.671   5.397   8.002  0.1219 -0.0513  0.1239
  155SAPE   H9X17284   0.589   5.329   8.036  1.2814 -0.2565  2.6522
  155SAPE   H9Y17285   0.631   5.496   7.975 -1.8066 -1.1503 -1.1823
  155SAPE  C31017286   0.779   5.409   8.113  0.5020  0.2468  0.2903
  155SAPE  H10X17287   0.852   5.482   8.071 -0.0460 -0.2586 -1.6096
  155SAPE  H10Y17288   0.825   5.308   8.118  2.6354  1.1350 -0.5088
  155SAPE  C31117289   0.732   5.431   8.253  0.6108 -0.6730 -0.4239
  155SAPE  H11X17290   0.632   5.386   8.276 -0.0934  1.7597  1.4865
  155SAPE  H11Y17291   0.704   5.538   8.262  2.0386 -0.3694  0.4713
  155SAPE  C31217292   0.831   5.393   8.359 -0.5102  0.2054 -0.2470
  155SAPE  H12X17293   0.939   5.386   8.330 -0.5995 -0.6995 -0.3806
  155SAPE  H12Y17294   0.799   5.294   8.398  2.9569  0.2606  2.9617
  155SAPE  C31317295   0.820   5.488   8.482 -0.6670  0.5000 -0.4992
  155SAPE  H13X17296   0.710   5.508   8.488 -0.6149  1.0087 -1.2173
  155SAPE  H13Y17297   0.876   5.579   8.453 -0.2248  0.1957 -0.6104
  155SAPE  C31417298   0.878   5.439   8.622 -0.4190 -0.8354 -0.5098
  155SAPE  H14X17299   0.983   5.403   8.608 -0.0289 -1.5021  3.5347
  155SAPE  H14Y17300   0.820   5.350   8.654 -2.0333 -0.3326 -1.9862
  155SAPE  C31517301   0.864   5.540   8.742 -0.4810 -0.0333  0.8058
  155SAPE  H15X17302   0.876   5.477   8.832 -1.7107 -2.4109 -0.6399
  155SAPE  H15Y17303   0.759   5.574   8.742 -1.2995 -2.4013 -0.6147
  155SAPE  C31617304   0.957   5.657   8.723 -0.0155 -0.2602  0.6616
  155SAPE  H16X17305   0.962   5.728   8.808  1.3034  0.6924 -0.1997
  155SAPE  H16Y17306   0.947   5.715   8.629  2.8245  1.2135  1.2208
  155SAPE  C31717307   1.095   5.611   8.719 -0.2799 -0.1964 -0.3150
  155SAPE  H17X17308   1.128   5.548   8.634 -2.0239 -1.7991  0.1566
  155SAPE  H17Y17309   1.111   5.549   8.810 -2.1388 -1.5874 -0.9080
  155SAPE  C31817310   1.196   5.722   8.743  0.4864 -0.4277  0.8082
  155SAPE  H18X17311   1.294   5.684   8.778  1.8573  1.6490 -0.6583
  155SAPE  H18Y17312   1.159   5.795   8.818  0.3128 -1.1953  1.4736
  155SAPE  H18Z17313   1.207   5.785   8.652  0.0618 -0.3051  0.8401
  156SAPE     N17314   6.292   5.665   6.308 -0.6543  0.3382 -0.4958
  156SAPE   HN117315   6.228   5.742   6.335 -2.0937 -0.6402 -1.0499
  156SAPE   HN217316   6.360   5.636   6.382  1.6864  1.4900 -2.1254
  156SAPE   HN317317   6.364   5.698   6.240 -0.5624  2.5401  0.6232
  156SAPE   C1217318   6.184   5.562   6.277 -0.7953 -0.0959  0.2761
  156SAPE  H12A17319   6.230   5.461   6.267 -4.0464 -1.9417  2.7651
  156SAPE  H12B17320   6.132   5.583   6.181 -2.0926 -0.1290  0.9607
  156SAPE   C1117321   6.067   5.561   6.375  0.6962 -0.0862  0.4089
  156SAPE  H11A17322   6.088   5.487   6.455  0.4479  0.1343  0.6745
  156SAPE  H11B17323   5.981   5.529   6.312  1.7224 -0.6264 -0.7365
  156SAPE     P17324   5.929   5.728   6.531  0.1108  0.0697 -0.2110
  156SAPE   O1317325   5.987   5.826   6.620  0.1590  0.0687 -0.5138
  156SAPE   O1417326   5.813   5.769   6.449 -0.1585  0.0281  0.4702
  156SAPE   O1217327   6.045   5.686   6.431 -0.1359 -0.3656  0.3454
  156SAPE   O1117328   5.888   5.594   6.611  0.0595 -0.0444 -0.5621
  156SAPE    C117329   5.756   5.579   6.670  0.3401 -0.3417  0.6649
  156SAPE    HA17330   5.678   5.651   6.637  0.2348 -0.9074 -0.3429
  156SAPE    HB17331   5.715   5.481   6.637  2.2349 -0.6659 -0.8832
  156SAPE    C217332   5.782   5.566   6.822 -0.3670 -0.7350  0.6815
  156SAPE    HS17333   5.687   5.552   6.879 -1.8957  1.3055 -1.2828
  156SAPE   O2117334   5.851   5.685   6.877  0.4294  0.5951  0.3230
  156SAPE   C2117335   5.772   5.793   6.885 -1.0198 -0.3952  0.9845
  156SAPE   O2217336   5.661   5.806   6.839 -0.4828  0.5731 -0.5978
  156SAPE   C2217337   5.833   5.909   6.971  0.2312  0.6402  0.4713
  156SAPE   H2R17338   5.821   5.996   6.904  1.0501  0.7466  0.4571
  156SAPE   H2S17339   5.768   5.928   7.059 -0.8138 -0.7255  0.0043
  156SAPE    C317340   5.874   5.440   6.856  0.2891 -0.1360  0.1067
  156SAPE    HX17341   5.970   5.446   6.800 -0.0684 -1.8571 -0.7338
  156SAPE    HY17342   5.827   5.354   6.803  0.9557 -1.0778  1.0271
  156SAPE   O3117343   5.891   5.414   7.002  0.8212  0.0748  0.1263
  156SAPE   C3117344   5.800   5.332   7.056  1.1277  0.0468  0.5170
  156SAPE   O3217345   5.699   5.288   6.998 -0.0308 -0.4937 -0.1942
  156SAPE   C3217346   5.835   5.302   7.203  0.0437  0.5553  0.5258
  156SAPE   H2X17347   5.852   5.403   7.245 -1.0586  0.4666  1.2203
  156SAPE   H2Y17348   5.929   5.242   7.202 -0.5697 -0.4916  2.6699
  156SAPE   C2317349   5.974   5.890   7.030  0.7545 -0.1284 -0.0403
  156SAPE   H3R17350   6.023   5.989   7.034  1.0058 -0.2046 -1.0331
  156SAPE   H3S17351   6.036   5.825   6.965  0.1010 -2.0696  1.2030
  156SAPE   C2417352   5.976   5.838   7.171 -0.0674  0.6177  0.1411
  156SAPE   H4R17353   5.931   5.915   7.238  0.3767  0.4503  0.6373
  156SAPE   H4S17354   6.078   5.828   7.214 -0.9590 -1.7205  1.8187
  156SAPE   C2517355   5.917   5.703   7.200  0.2652  0.6557  0.9447
  156SAPE   H5R17356   5.953   5.613   7.148  4.2667  1.6136  1.8787
  156SAPE   C2617357   5.805   5.685   7.269 -0.4640  0.5666  0.0482
  156SAPE   H6R17358   5.769   5.582   7.280  1.5809 -0.1803 -0.0417
  156SAPE   C2717359   5.720   5.794   7.320 -0.2377 -0.4539 -0.1943
  156SAPE   H7R17360   5.733   5.889   7.265 -0.7859 -0.2241  0.0733
  156SAPE   H7S17361   5.744   5.816   7.426 -0.3480 -3.2789  0.4769
  156SAPE   C2817362   5.581   5.757   7.293 -0.0107  0.1382  0.4455
  156SAPE   H8R17363   5.547   5.742   7.189 -0.1636  1.3640  0.3075
  156SAPE   C2917364   5.493   5.738   7.395  0.1744  0.5340  0.8112
  156SAPE   H9R17365   5.393   5.712   7.358  1.0452  0.1573 -1.3626
  156SAPE  C21017366   5.513   5.763   7.542  0.3593  0.0664  0.1555
  156SAPE  H10R17367   5.415   5.795   7.585  0.1141  2.0338 -1.7562
  156SAPE  H10S17368   5.590   5.840   7.566  0.7360 -0.1629 -0.3117
  156SAPE  C21117369   5.578   5.652   7.621  0.2617 -0.1089  0.0598
  156SAPE  H11R17370   5.634   5.579   7.562 -0.1617 -0.0245 -0.4568
  156SAPE  C21217371   5.568   5.639   7.751  0.2855  0.0127 -0.3248
  156SAPE  H12R17372   5.608   5.552   7.806 -1.1467 -0.4065  0.0798
  156SAPE  C21317373   5.485   5.727   7.841  0.0706  0.0622 -0.4862
  156SAPE  H13R17374   5.418   5.658   7.897  0.9840 -0.0236  0.5289
  156SAPE  H13S17375   5.419   5.794   7.784  0.4006  0.8316  0.0220
  156SAPE  C21417376   5.572   5.794   7.942  0.7198  0.1355 -0.3353
  156SAPE  H14R17377   5.657   5.853   7.905  1.9458 -1.5997 -0.3246
  156SAPE  C21517378   5.567   5.785   8.078  0.0727  0.2486  0.2378
  156SAPE  H15R17379   5.636   5.844   8.140 -1.2166  1.4327  0.5780
  156SAPE  C21617380   5.473   5.699   8.164  0.1423 -0.3657  0.5342
  156SAPE  H16R17381   5.458   5.594   8.132 -0.3700 -0.2816  0.4996
  156SAPE  H16S17382   5.369   5.739   8.168 -0.6129 -2.3902  1.4890
  156SAPE  C21717383   5.513   5.681   8.313 -0.0067  0.5526 -0.2214
  156SAPE  H17R17384   5.617   5.643   8.323  0.7322  1.0951 -4.6515
  156SAPE  H17S17385   5.436   5.606   8.343 -1.5477  1.4535 -1.8530
  156SAPE  C21817386   5.479   5.804   8.403  0.0033  0.6042  0.3344
  156SAPE  H18R17387   5.379   5.837   8.367  0.1829  1.0326  0.2276
  156SAPE  H18S17388   5.555   5.881   8.377 -1.3173  1.2053 -1.8842
  156SAPE  C21917389   5.477   5.764   8.547  0.7574 -0.5108  0.2778
  156SAPE  H19R17390   5.574   5.736   8.594  1.9145  1.3197 -0.9582
  156SAPE  H19S17391   5.405   5.679   8.552 -0.6502  0.6755  0.5834
  156SAPE  C22017392   5.428   5.879   8.639  0.2282  0.6044  0.3162
  156SAPE  H20R17393   5.504   5.960   8.643 -1.4580  2.2220  0.1091
  156SAPE  H20S17394   5.395   5.844   8.739  0.5919 -0.8515 -0.0571
  156SAPE  H20T17395   5.334   5.922   8.597 -0.6902  0.3424  2.0620
  156SAPE   C3317396   5.725   5.218   7.273  0.0870 -0.4285  0.0442
  156SAPE   H3X17397   5.713   5.139   7.196  1.1417  1.9108 -2.6553
  156SAPE   H3Y17398   5.626   5.267   7.279 -1.1627 -2.6583 -1.5262
  156SAPE   C3417399   5.758   5.171   7.413  0.5286  0.0805  0.4306
  156SAPE   H4X17400   5.866   5.143   7.415  0.2026 -1.2007  0.5576
  156SAPE   H4Y17401   5.695   5.081   7.431  0.0602  0.1222 -0.9941
  156SAPE   C3517402   5.738   5.265   7.534 -0.8396 -0.2649  0.2274
  156SAPE   H5X17403   5.635   5.305   7.529  0.1372  2.1596 -1.5741
  156SAPE   H5Y17404   5.799   5.358   7.534 -3.4681  1.5261  0.3342
  156SAPE   C3617405   5.758   5.192   7.665 -1.2617 -0.7148 -0.1597
  156SAPE   H6X17406   5.865   5.197   7.692 -1.1271  0.9950 -0.9828
  156SAPE   H6Y17407   5.729   5.085   7.659 -1.5681 -0.5606 -1.5898
  156SAPE   C3717408   5.660   5.250   7.768  0.8828 -0.0644  0.0543
  156SAPE   H7X17409   5.560   5.231   7.723 -0.1407  3.2373  0.8215
  156SAPE   H7Y17410   5.673   5.360   7.770  2.5867 -0.2420 -0.6457
  156SAPE   C3817411   5.665   5.169   7.902  0.1940  0.6408 -0.2749
  156SAPE   H8X17412   5.757   5.195   7.958 -0.7347  0.6535  1.2731
  156SAPE   H8Y17413   5.679   5.060   7.883  1.7472  0.7678  0.0671
  156SAPE   C3917414   5.536   5.190   7.988  0.2007  0.5870 -0.1269
  156SAPE   H9X17415   5.492   5.095   8.025 -0.5213  1.5617  1.5482
  156SAPE   H9Y17416   5.460   5.222   7.913 -2.3543 -1.5783  1.4441
  156SAPE  C31017417   5.557   5.282   8.107 -0.0209  0.3124  0.5251
  156SAPE  H10X17418   5.458   5.302   8.153  0.0845 -2.6333  2.0901
  156SAPE  H10Y17419   5.595   5.377   8.062 -0.5370 -0.1351 -0.8786
  156SAPE  C31117420   5.651   5.231   8.218 -0.4939 -0.0790  0.2664
  156SAPE  H11X17421   5.756   5.251   8.186 -0.7673  0.1244 -0.4946
  156SAPE  H11Y17422   5.634   5.126   8.250 -0.5078  0.6018  2.6622
  156SAPE  C31217423   5.626   5.320   8.347  0.6477 -0.2787  0.7183
  156SAPE  H12X17424   5.626   5.423   8.306 -3.2280  0.0927  1.5374
  156SAPE  H12Y17425   5.709   5.308   8.421 -0.6766  2.0926  2.6762
  156SAPE  C31317426   5.501   5.288   8.427 -0.5897  0.8052 -0.5375
  156SAPE  H13X17427   5.503   5.177   8.440 -0.2023  0.7165 -1.2737
  156SAPE  H13Y17428   5.403   5.314   8.381 -1.9411  1.9116  2.8216
  156SAPE  C31417429   5.499   5.347   8.566 -0.3678 -0.4768  0.2318
  156SAPE  H14X17430   5.517   5.455   8.546 -2.5446  0.2225  1.8446
  156SAPE  H14Y17431   5.582   5.316   8.633  1.2150  1.5631 -0.7066
  156SAPE  C31517432   5.365   5.324   8.640 -0.1758 -0.0357  0.0285
  156SAPE  H15X17433   5.391   5.307   8.746 -1.5574 -1.5879  0.1397
  156SAPE  H15Y17434   5.339   5.219   8.614  0.4200 -0.8241  2.5025
  156SAPE  C31617435   5.248   5.423   8.599  0.7408 -0.2826  0.3210
  156SAPE  H16X17436   5.248   5.426   8.488  2.6392 -2.1477  0.2287
  156SAPE  H16Y17437   5.267   5.529   8.626 -2.2197  0.1848  0.7357
  156SAPE  C31717438   5.111   5.363   8.628 -0.1262  1.1575 -0.1724
  156SAPE  H17X17439   5.103   5.256   8.599 -0.6115  1.2276 -0.3105
  156SAPE  H17Y17440   5.034   5.412   8.564 -1.3711  0.5825  0.8681
  156SAPE  C31817441   5.046   5.398   8.767 -0.2214 -0.1836  0.3890
  156SAPE  H18X17442   4.935   5.395   8.753 -0.1485  0.4886 -0.4065
  156SAPE  H18Y17443   5.073   5.504   8.789 -1.9939  0.4935 -0.5587
  156SAPE  H18Z17444   5.078   5.327   8.845 -0.3651  0.0416  0.6549
  157SAPE     N17445   3.886   0.374   6.362  0.5556 -1.1360  0.3610
  157SAPE   HN117446   3.947   0.407   6.285 -1.1758 -3.4329 -2.0904
  157SAPE   HN217447   3.790   0.414   6.357  1.1558  0.6245  2.0428
  157SAPE   HN317448   3.927   0.404   6.453 -1.8340 -1.0987  1.4826
  157SAPE   C1217449   3.878   0.220   6.355 -0.2808 -0.3162 -0.1276
  157SAPE  H12A17450   3.769   0.198   6.353 -0.0855 -1.2707 -0.4147
  157SAPE  H12B17451   3.917   0.176   6.449 -3.6119  1.3415  2.1210
  157SAPE   C1117452   3.962   0.158   6.243  0.2254  0.1343 -0.0716
  157SAPE  H11A17453   3.889   0.170   6.160 -2.6973  0.8705  2.5238
  157SAPE  H11B17454   3.984   0.050   6.262 -1.9328 -0.2236  0.5432
  157SAPE     P17455   4.221   0.193   6.194  0.0278 -0.5024  0.1427
  157SAPE   O1317456   4.234   0.174   6.048 -0.5079  0.1230  0.5770
  157SAPE   O1417457   4.317   0.282   6.263  0.2483  0.1705 -0.2799
  157SAPE   O1217458   4.075   0.247   6.219  0.4912 -0.0647 -0.0785
  157SAPE   O1117459   4.219   0.053   6.264 -0.6049 -0.1955  0.0211
  157SAPE    C117460   4.304   0.009   6.370 -0.1339 -0.8707 -0.3331
  157SAPE    HA17461   4.323  -0.097   6.345 -0.1538 -0.8492 -0.4417
  157SAPE    HB17462   4.400   0.064   6.370  0.2478 -1.4854  1.9928
  157SAPE    C217463   4.236   0.008   6.509  0.0257 -0.3177 -0.3344
  157SAPE    HS17464   4.303  -0.053   6.572  1.3071 -0.9296 -2.2660
  157SAPE   O2117465   4.102  -0.042   6.509 -0.3398 -0.1498  0.5225
  157SAPE   C2117466   4.097  -0.172   6.491 -0.4759 -0.0543  0.6469
  157SAPE   O2217467   4.196  -0.246   6.483  0.3051  0.3939 -0.4697
  157SAPE   C2217468   3.948  -0.215   6.475 -0.2972  0.0290  0.3148
  157SAPE   H2R17469   3.889  -0.125   6.448  0.1132  0.7142  1.6631
  157SAPE   H2S17470   3.954  -0.282   6.387 -1.6700  0.1213  0.1448
  157SAPE    C317471   4.223   0.146   6.578  0.1465 -0.0895 -0.4978
  157SAPE    HX17472   4.120   0.178   6.549 -0.5285 -1.9645 -0.2162
  157SAPE    HY17473   4.298   0.224   6.551  1.2266 -0.1902  2.0593
  157SAPE   O3117474   4.229   0.131   6.721  0.6196  0.1666 -0.2494
  157SAPE   C3117475   4.163   0.222   6.794  0.5413  0.4635 -0.3077
  157SAPE   O3217476   4.111   0.328   6.754 -0.4044 -0.6271  0.0005
  157SAPE   C3217477   4.167   0.166   6.935  0.2639 -0.8369 -0.3378
  157SAPE   H2X17478   4.271   0.133   6.956  0.1100 -0.4968  0.9989
  157SAPE   H2Y17479   4.102   0.076   6.925 -2.5538  1.2681 -1.6837
  157SAPE   C2317480   3.895  -0.256   6.612  1.0080 -0.4022 -0.1133
  157SAPE   H3R17481   3.785  -0.250   6.602  1.1747  0.8589 -1.2158
  157SAPE   H3S17482   3.902  -0.187   6.699  2.0041  0.0368 -0.5294
  157SAPE   C2417483   3.927  -0.401   6.659 -0.1181 -0.4018  0.3890
  157SAPE   H4R17484   3.910  -0.473   6.577  0.3556  0.8269 -0.8019
  157SAPE   H4S17485   3.842  -0.399   6.731  0.5101 -0.4795  1.1483
  157SAPE   C2517486   4.065  -0.418   6.721 -0.6094 -0.4103 -0.1520
  157SAPE   H5R17487   4.143  -0.456   6.653 -1.3447 -0.0109 -1.2424
  157SAPE   C2617488   4.099  -0.386   6.847  0.2852 -0.5859  0.5484
  157SAPE   H6R17489   4.208  -0.394   6.861  0.2827  0.6733  1.3479
  157SAPE   C2717490   4.014  -0.336   6.964 -0.0213  0.4338 -0.1370
  157SAPE   H7R17491   3.916  -0.388   6.959 -0.1308  0.6461 -0.2451
  157SAPE   H7S17492   3.998  -0.226   6.969 -0.6530  0.3857 -1.0817
  157SAPE   C2817493   4.084  -0.385   7.088 -0.5082 -0.2828 -0.0378
  157SAPE   H8R17494   4.089  -0.493   7.111  1.0422 -0.5381 -1.4882
  157SAPE   C2917495   4.141  -0.296   7.172  0.0580  0.0624 -0.2569
  157SAPE   H9R17496   4.180  -0.337   7.266  1.2363  1.2214 -0.2221
  157SAPE  C21017497   4.147  -0.145   7.167  0.1156 -0.0453 -0.1161
  157SAPE  H10R17498   4.134  -0.125   7.058 -3.4274 -1.4419 -0.0043
  157SAPE  H10S17499   4.245  -0.101   7.198 -0.6548 -0.5386  3.1651
  157SAPE  C21117500   4.034  -0.083   7.243 -0.3097 -0.2938  0.1342
  157SAPE  H11R17501   3.932  -0.111   7.213 -0.6119 -1.2483  2.0017
  157SAPE  C21217502   4.041   0.002   7.343  0.3244 -0.5681  0.0635
  157SAPE  H12R17503   3.944   0.042   7.377 -0.2696 -1.0933 -1.0053
  157SAPE  C21317504   4.170   0.050   7.410  0.1406 -0.3307  0.4634
  157SAPE  H13R17505   4.194   0.151   7.371 -2.0807  0.2777  0.5888
  157SAPE  H13S17506   4.257  -0.010   7.377 -0.2662 -0.6185 -0.0813
  157SAPE  C21417507   4.151   0.047   7.563  0.0751  0.4041 -0.1298
  157SAPE  H14R17508   4.186  -0.040   7.621  0.6151  0.4111 -0.4418
  157SAPE  C21517509   4.087   0.138   7.642 -0.8097  0.4312  0.4342
  157SAPE  H15R17510   4.079   0.101   7.745  1.4135 -1.1510  0.0856
  157SAPE  C21617511   4.008   0.257   7.591  0.2304 -0.3215  0.1982
  157SAPE  H16R17512   3.900   0.244   7.611  0.4106 -0.7426  0.9314
  157SAPE  H16S17513   4.023   0.270   7.482  1.7159  1.1049  0.5501
  157SAPE  C21717514   4.046   0.394   7.643  0.2162  0.8359  0.7389
  157SAPE  H17R17515   3.965   0.468   7.626 -1.9872 -1.4309  1.0037
  157SAPE  H17S17516   4.136   0.428   7.588 -0.2523 -0.8140 -1.1132
  157SAPE  C21817517   4.062   0.407   7.798 -0.0451  1.0863  0.2675
  157SAPE  H18R17518   4.155   0.349   7.813  0.3520  1.0451 -2.1943
  157SAPE  H18S17519   3.973   0.365   7.849 -2.1149  4.5551 -0.3139
  157SAPE  C21917520   4.090   0.541   7.852  0.7788 -0.3585  0.5596
  157SAPE  H19R17521   3.992   0.594   7.853  0.6838 -0.3841 -2.4130
  157SAPE  H19S17522   4.149   0.611   7.789  0.4057 -0.2091  0.3715
  157SAPE  C22017523   4.140   0.560   8.001  0.2788 -0.4930 -0.9339
  157SAPE  H20R17524   4.215   0.478   8.012  2.6960  1.7362 -0.2286
  157SAPE  H20S17525   4.057   0.540   8.072  0.9916  3.0964  1.0222
  157SAPE  H20T17526   4.181   0.663   8.011  0.8886 -0.8953  0.9140
  157SAPE   C3317527   4.118   0.263   7.048 -0.8140 -0.0431 -0.3106
  157SAPE   H3X17528   4.162   0.365   7.040  1.1432 -0.8218  0.0710
  157SAPE   H3Y17529   4.159   0.212   7.138  2.6018 -0.9493 -2.2696
  157SAPE   C3417530   3.966   0.281   7.059  0.0731  0.0590  0.3298
  157SAPE   H4X17531   3.923   0.179   7.060  0.9346 -0.3313  2.9981
  157SAPE   H4Y17532   3.932   0.326   6.964  0.1068 -0.7027 -0.0444
  157SAPE   C3517533   3.922   0.356   7.186  0.7659 -0.3472  0.6065
  157SAPE   H5X17534   3.980   0.449   7.205  3.3220 -1.4710 -1.2818
  157SAPE   H5Y17535   3.941   0.288   7.273  2.2867  2.4438  2.5462
  157SAPE   C3617536   3.774   0.408   7.185  0.7747 -0.5224 -0.2080
  157SAPE   H6X17537   3.710   0.325   7.147  0.1385  0.2578 -0.8720
  157SAPE   H6Y17538   3.772   0.501   7.125  0.2705  1.2432  2.4774
  157SAPE   C3717539   3.736   0.447   7.327 -0.5016  0.1016 -0.4762
  157SAPE   H7X17540   3.780   0.548   7.341 -1.3720  0.1455  2.0346
  157SAPE   H7Y17541   3.780   0.371   7.394  2.0103  1.6339 -0.3190
  157SAPE   C3817542   3.587   0.458   7.347 -0.1345 -0.4236 -0.3795
  157SAPE   H8X17543   3.543   0.357   7.331 -1.7072  0.1025  0.4825
  157SAPE   H8Y17544   3.546   0.513   7.260 -1.9556 -0.8466  0.1899
  157SAPE   C3917545   3.553   0.528   7.477  0.0937  0.0438 -0.4606
  157SAPE   H9X17546   3.446   0.512   7.503  0.9204 -1.6120  2.1545
  157SAPE   H9Y17547   3.574   0.637   7.468 -0.0798  0.4415  3.0277
  157SAPE  C31017548   3.640   0.496   7.598 -0.6900 -0.0466  0.6313
  157SAPE  H10X17549   3.749   0.502   7.579 -0.8888  0.9103 -0.2688
  157SAPE  H10Y17550   3.630   0.386   7.607 -0.6519 -0.1337 -0.3240
  157SAPE  C31117551   3.588   0.566   7.729  0.0969  0.8758  0.5529
  157SAPE  H11X17552   3.477   0.568   7.740 -0.1488  0.2508 -1.5227
  157SAPE  H11Y17553   3.620   0.671   7.715 -1.1546  1.6102  3.0096
  157SAPE  C31217554   3.670   0.498   7.843 -0.3703  0.3084  0.1940
  157SAPE  H12X17555   3.776   0.489   7.813 -0.8939 -1.3073 -1.2475
  157SAPE  H12Y17556   3.633   0.394   7.855 -1.0396  0.4907 -0.2351
  157SAPE  C31317557   3.642   0.558   7.985  0.0726  0.1527 -0.4870
  157SAPE  H13X17558   3.533   0.550   8.005  0.4376 -0.3702  1.3762
  157SAPE  H13Y17559   3.662   0.666   7.970  1.2372 -0.1181 -0.9034
  157SAPE  C31417560   3.716   0.485   8.099 -0.3177  0.1210 -0.6556
  157SAPE  H14X17561   3.821   0.511   8.075 -0.7447  0.6129 -2.0300
  157SAPE  H14Y17562   3.698   0.376   8.094  1.7672 -0.3624  1.4193
  157SAPE  C31517563   3.673   0.544   8.233 -0.0687  0.6266  0.5071
  157SAPE  H15X17564   3.567   0.575   8.232 -0.7358 -1.4469  1.9188
  157SAPE  H15Y17565   3.735   0.635   8.242  0.6817  0.1980 -0.2046
  157SAPE  C31617566   3.706   0.460   8.356 -0.4439  0.2885 -0.0112
  157SAPE  H16X17567   3.816   0.447   8.348 -0.6758 -0.4561 -2.0226
  157SAPE  H16Y17568   3.667   0.357   8.344  1.2550 -0.4737  0.8136
  157SAPE  C31717569   3.659   0.532   8.483 -0.5743  0.1772  0.3682
  157SAPE  H17X17570   3.556   0.574   8.485  0.0805  1.8418  0.1516
  157SAPE  H17Y17571   3.723   0.623   8.486 -1.0481  0.5688 -1.0205
  157SAPE  C31817572   3.685   0.447   8.609  0.1581  0.1121  0.4136
  157SAPE  H18X17573   3.651   0.343   8.589 -0.5024  0.3033  0.5119
  157SAPE  H18Y17574   3.635   0.492   8.698 -1.0182  0.7451 -0.5535
  157SAPE  H18Z17575   3.792   0.436   8.636  0.3023  0.4008 -0.0346
  158SAPE     N17576   5.846   4.401   5.989 -0.5851 -0.5216 -0.0491
  158SAPE   HN117577   5.834   4.388   6.092 -0.8702  0.3038  0.0296
  158SAPE   HN217578   5.776   4.466   5.949  0.0368 -0.1094 -0.4750
  158SAPE   HN317579   5.838   4.304   5.952  1.4422 -0.3264 -1.0993
  158SAPE   C1217580   5.979   4.467   5.956  0.3168 -0.1800  1.0116
  158SAPE  H12A17581   5.970   4.501   5.850 -3.0273  2.9932  2.2152
  158SAPE  H12B17582   6.060   4.391   5.963  0.0211 -0.8105 -1.7351
  158SAPE   C1117583   6.014   4.588   6.034  0.2203 -0.8819  0.1387
  158SAPE  H11A17584   6.114   4.625   6.000 -1.1032  3.8968  1.0150
  158SAPE  H11B17585   6.035   4.572   6.141  3.8575  0.5477 -0.2805
  158SAPE     P17586   5.907   4.819   6.099  0.3937 -0.2527 -0.0921
  158SAPE   O1317587   6.023   4.903   6.072  0.3988 -0.0624 -0.0951
  158SAPE   O1417588   5.772   4.884   6.091  0.0296  0.0010  0.3576
  158SAPE   O1217589   5.906   4.688   6.006  0.2696 -0.0630 -0.1035
  158SAPE   O1117590   5.925   4.770   6.250 -0.0823 -0.8590 -0.5616
  158SAPE    C117591   5.856   4.665   6.320  0.0955  0.5440  0.7556
  158SAPE    HA17592   5.785   4.614   6.251  0.1624 -0.5768  1.5182
  158SAPE    HB17593   5.942   4.598   6.343 -1.7132 -1.4841  1.7295
  158SAPE    C217594   5.783   4.701   6.447  0.0280  0.2088 -0.4261
  158SAPE    HS17595   5.727   4.796   6.435  0.0571  0.5362  1.8017
  158SAPE   O2117596   5.882   4.720   6.552  0.7743 -0.9093  0.8119
  158SAPE   C2117597   5.854   4.797   6.646 -0.7592  0.0923 -0.3287
  158SAPE   O2217598   5.764   4.881   6.653 -0.1617  0.3312  1.0575
  158SAPE   C2217599   5.954   4.780   6.770 -0.1558  0.3405  1.0803
  158SAPE   H2R17600   5.970   4.674   6.799  1.2306  1.0834  3.1529
  158SAPE   H2S17601   6.054   4.812   6.735 -0.7873  0.3860 -0.7150
  158SAPE    C317602   5.687   4.587   6.489  0.0621  0.0396 -0.0975
  158SAPE    HX17603   5.753   4.499   6.503 -0.1606  0.3613  3.4684
  158SAPE    HY17604   5.608   4.554   6.418 -2.1459 -0.1058  2.3340
  158SAPE   O3117605   5.638   4.622   6.616  0.4041  0.0381  0.2534
  158SAPE   C3117606   5.520   4.687   6.631 -0.1900  0.2314 -0.3305
  158SAPE   O3217607   5.447   4.730   6.540  0.1937  0.0359  0.2338
  158SAPE   C3217608   5.483   4.705   6.779 -0.2580  0.2042 -0.0710
  158SAPE   H2X17609   5.578   4.714   6.836 -0.8521  0.4945  0.8900
  158SAPE   H2Y17610   5.439   4.607   6.809 -0.0713  0.0887 -0.1766
  158SAPE   C2317611   5.919   4.857   6.901 -0.6973 -0.3608  0.5995
  158SAPE   H3R17612   5.831   4.812   6.951 -0.1211 -0.7720  1.2407
  158SAPE   H3S17613   5.894   4.961   6.869  2.3623  0.3427  0.3752
  158SAPE   C2417614   6.043   4.868   7.000  0.9554  0.5801  1.0339
  158SAPE   H4R17615   6.135   4.875   6.938 -1.0119  1.6912 -1.8668
  158SAPE   H4S17616   6.049   4.770   7.052 -0.2179 -0.1101 -0.1243
  158SAPE   C2517617   6.042   4.981   7.096 -0.0805  0.2526 -0.0787
  158SAPE   H5R17618   6.095   5.069   7.059 -0.6270  0.5271 -0.2051
  158SAPE   C2617619   6.008   4.983   7.222  0.2116  0.1524 -0.1796
  158SAPE   H6R17620   6.026   5.074   7.280 -2.2570  0.6644 -0.1798
  158SAPE   C2717621   5.948   4.862   7.302 -0.3581 -0.1253  0.2156
  158SAPE   H7R17622   5.895   4.796   7.230  2.2852 -2.9507  0.7598
  158SAPE   H7S17623   5.864   4.907   7.359  0.3139  3.3135 -1.3535
  158SAPE   C2817624   6.052   4.786   7.370 -1.0946  0.5883 -0.4513
  158SAPE   H8R17625   6.147   4.773   7.317 -0.2961 -1.6427  1.4479
  158SAPE   C2917626   6.046   4.756   7.502 -0.3588  0.0578  0.1592
  158SAPE   H9R17627   6.142   4.716   7.537 -0.3038 -0.6634 -0.7944
  158SAPE  C21017628   5.934   4.782   7.596  1.0774  0.0872  0.8473
  158SAPE  H10R17629   5.891   4.684   7.627 -0.2353  0.6893  0.9714
  158SAPE  H10S17630   5.852   4.844   7.554  0.8620 -1.0586 -0.4559
  158SAPE  C21117631   5.992   4.853   7.715 -0.5041  0.0037 -0.1109
  158SAPE  H11R17632   6.035   4.951   7.688 -2.0333  1.5223  2.7688
  158SAPE  C21217633   5.999   4.815   7.845  0.3197  0.1243  0.7775
  158SAPE  H12R17634   6.055   4.878   7.915  2.1652  1.1077 -1.5313
  158SAPE  C21317635   5.945   4.690   7.906  0.0396  0.5217  0.1923
  158SAPE  H13R17636   6.037   4.631   7.928 -0.9696 -0.5505  1.6162
  158SAPE  H13S17637   5.877   4.640   7.833  1.3888 -2.0995  0.6542
  158SAPE  C21417638   5.854   4.716   8.021  0.2318 -0.0030 -0.2270
  158SAPE  H14R17639   5.790   4.805   8.017 -0.2210 -0.2604  1.1719
  158SAPE  C21517640   5.844   4.645   8.132  0.4525  0.4718 -0.2575
  158SAPE  H15R17641   5.776   4.682   8.210  0.7222  2.6789 -1.0385
  158SAPE  C21617642   5.916   4.511   8.158 -0.0712 -0.1737 -1.0528
  158SAPE  H16R17643   6.026   4.523   8.144  0.0399  0.9885  0.6163
  158SAPE  H16S17644   5.888   4.437   8.081  0.0468 -1.1362 -0.1763
  158SAPE  C21717645   5.892   4.459   8.301 -0.9774  0.3458 -0.3526
  158SAPE  H17R17646   5.782   4.448   8.313 -1.1136  0.2568 -1.5907
  158SAPE  H17S17647   5.931   4.531   8.376  1.6424 -1.1862 -0.1909
  158SAPE  C21817648   5.973   4.332   8.320  0.5079  0.0548 -0.3732
  158SAPE  H18R17649   6.080   4.339   8.291  0.3933  0.3516 -0.7282
  158SAPE  H18S17650   5.923   4.255   8.258  1.6490 -0.9463 -0.0728
  158SAPE  C21917651   5.938   4.271   8.456 -0.7143  0.7250  0.0696
  158SAPE  H19R17652   5.855   4.198   8.454 -0.2782  0.2384 -0.3340
  158SAPE  H19S17653   5.918   4.356   8.525  1.2188  2.4566 -1.4199
  158SAPE  C22017654   6.059   4.194   8.517  0.0498 -0.0909 -0.6044
  158SAPE  H20R17655   6.136   4.271   8.540  0.5900 -0.9404  0.4814
  158SAPE  H20S17656   6.111   4.116   8.457  1.6719  1.5643 -1.4184
  158SAPE  H20T17657   6.036   4.152   8.617 -0.2759  1.9117  0.1863
  158SAPE   C3317658   5.384   4.822   6.807  0.1661 -0.3908  0.1973
  158SAPE   H3X17659   5.300   4.805   6.736  0.7640  1.1034 -0.8889
  158SAPE   H3Y17660   5.434   4.920   6.794  0.7125 -0.7398 -0.3732
  158SAPE   C3417661   5.341   4.813   6.954 -0.2151  0.4897  0.3023
  158SAPE   H4X17662   5.302   4.713   6.984  1.2468 -0.1094  0.2498
  158SAPE   H4Y17663   5.254   4.881   6.971 -0.7015  0.4077 -1.8042
  158SAPE   C3517664   5.449   4.861   7.047  0.0331  0.4002  0.0623
  158SAPE   H5X17665   5.459   4.970   7.026  2.5679 -0.2003 -2.0360
  158SAPE   H5Y17666   5.550   4.822   7.022 -0.4483 -1.7114  1.2782
  158SAPE   C3617667   5.439   4.826   7.188  0.7421  0.6196 -0.4365
  158SAPE   H6X17668   5.432   4.715   7.195 -3.9887  0.9947  2.5042
  158SAPE   H6Y17669   5.345   4.865   7.233  0.4350 -1.0660  0.4166
  158SAPE   C3717670   5.564   4.876   7.263 -0.3778 -0.2570  0.7907
  158SAPE   H7X17671   5.654   4.839   7.210 -1.5664  2.8527 -3.6409
  158SAPE   H7Y17672   5.560   4.987   7.264 -0.5078 -0.2632  1.2788
  158SAPE   C3817673   5.574   4.821   7.408 -0.6037  0.0270  0.4244
  158SAPE   H8X17674   5.677   4.844   7.443  0.0673 -4.1131  1.3974
  158SAPE   H8Y17675   5.577   4.711   7.395  0.8636  0.1661 -0.4515
  158SAPE   C3917676   5.466   4.858   7.508  0.0988 -0.6386  0.1699
  158SAPE   H9X17677   5.368   4.808   7.489 -0.2550 -0.4447  1.4132
  158SAPE   H9Y17678   5.447   4.962   7.474  3.1454  0.0010  0.3267
  158SAPE  C31017679   5.500   4.866   7.652  0.6005  0.3308  0.0544
  158SAPE  H10X17680   5.450   4.952   7.700 -0.9466 -0.2234 -0.5506
  158SAPE  H10Y17681   5.604   4.905   7.657  0.5674  0.3365  0.7658
  158SAPE  C31117682   5.484   4.739   7.740 -0.4014  0.4183  0.2798
  158SAPE  H11X17683   5.547   4.666   7.684  0.1218 -0.8135  2.4026
  158SAPE  H11Y17684   5.376   4.714   7.734 -0.0001 -0.6966 -4.4885
  158SAPE  C31217685   5.531   4.752   7.883  0.3306 -0.8285  0.1070
  158SAPE  H12X17686   5.623   4.813   7.883  0.1706 -0.5730 -1.2218
  158SAPE  H12Y17687   5.568   4.651   7.911  0.1327 -1.0088 -0.2858
  158SAPE  C31317688   5.427   4.805   7.982 -0.2544 -0.1206 -0.9201
  158SAPE  H13X17689   5.320   4.776   7.978 -0.8375  1.9209 -0.7726
  158SAPE  H13Y17690   5.422   4.914   7.963  0.4543 -0.1821 -1.4683
  158SAPE  C31417691   5.479   4.784   8.133 -0.2617  0.7026  0.6994
  158SAPE  H14X17692   5.584   4.820   8.143  1.3106 -3.5167  0.3029
  158SAPE  H14Y17693   5.480   4.676   8.157 -0.0041 -0.0324 -2.3724
  158SAPE  C31517694   5.389   4.840   8.242  0.6824 -0.5995 -0.4646
  158SAPE  H15X17695   5.457   4.853   8.328 -0.0379  0.3920 -0.0394
  158SAPE  H15Y17696   5.314   4.762   8.268 -0.8333  1.1065  0.4099
  158SAPE  C31617697   5.309   4.972   8.234  0.7976  0.3494 -0.5191
  158SAPE  H16X17698   5.219   4.962   8.169  0.0960 -0.3224  0.5278
  158SAPE  H16Y17699   5.382   5.047   8.198  1.6945 -0.5371 -0.5658
  158SAPE  C31717700   5.250   5.017   8.372  0.4724 -0.0596  0.7731
  158SAPE  H17X17701   5.207   5.119   8.367 -0.4410 -0.4445  0.5180
  158SAPE  H17Y17702   5.331   5.021   8.448 -0.3715 -0.5971  1.7170
  158SAPE  C31817703   5.138   4.919   8.426  0.4680 -0.9987 -0.4304
  158SAPE  H18X17704   5.126   4.932   8.535  1.3067  1.1092 -0.5891
  158SAPE  H18Y17705   5.173   4.814   8.410  0.7606 -1.2211  1.5190
  158SAPE  H18Z17706   5.046   4.949   8.371  1.5148  4.3687  0.4733
  159SAPE     N17707   5.061   0.561   6.216 -0.1082 -0.4400 -0.6961
  159SAPE   HN117708   5.031   0.562   6.116  2.4104  1.2894 -1.4773
  159SAPE   HN217709   5.108   0.651   6.238  1.8325 -2.1458  2.5285
  159SAPE   HN317710   5.139   0.493   6.224  1.1739  1.0817 -0.0215
  159SAPE   C1217711   4.938   0.544   6.303  0.6971  0.0513  0.0425
  159SAPE  H12A17712   4.950   0.450   6.362 -0.0674  0.4150  0.7994
  159SAPE  H12B17713   4.851   0.552   6.234  0.3636  0.5208  0.5127
  159SAPE   C1117714   4.927   0.664   6.407  0.6388 -0.2935 -0.5960
  159SAPE  H11A17715   5.013   0.650   6.476  1.2287 -4.0370 -1.9650
  159SAPE  H11B17716   4.834   0.646   6.465 -0.4284  1.3735 -1.7349
  159SAPE     P17717   4.801   0.843   6.264  0.0409  0.4201  0.0618
  159SAPE   O1317718   4.821   0.992   6.267 -0.1224  0.0677  0.2231
  159SAPE   O1417719   4.770   0.781   6.133  0.4151 -0.5682  0.1272
  159SAPE   O1217720   4.922   0.789   6.345 -0.0547 -0.1938  0.5326
  159SAPE   O1117721   4.688   0.800   6.361 -0.6433  0.0287  0.1026
  159SAPE    C117722   4.606   0.896   6.423  0.6885 -0.1194  0.1045
  159SAPE    HA17723   4.577   0.975   6.350 -0.7089 -0.3133  0.4437
  159SAPE    HB17724   4.513   0.838   6.443  0.4881 -0.1789 -0.9445
  159SAPE    C217725   4.665   0.971   6.544 -0.0653 -0.8353  0.0449
  159SAPE    HS17726   4.751   1.023   6.498 -2.2726  0.9349 -2.2066
  159SAPE   O2117727   4.709   0.884   6.645  0.3245 -0.3990 -0.2189
  159SAPE   C2117728   4.811   0.920   6.717 -0.1246  0.2173 -0.2527
  159SAPE   O2217729   4.872   1.026   6.706  0.3666 -0.1026 -1.1386
  159SAPE   C2217730   4.829   0.810   6.823  0.3121 -0.1696  0.2308
  159SAPE   H2R17731   4.728   0.803   6.868  0.7350 -1.8045  0.9877
  159SAPE   H2S17732   4.863   0.718   6.770  2.0475  0.6562 -0.1305
  159SAPE    C317733   4.566   1.083   6.589  0.0929 -0.4939  0.3541
  159SAPE    HX17734   4.470   1.027   6.589 -0.2350  0.0638  0.6354
  159SAPE    HY17735   4.536   1.164   6.519 -0.0916 -0.5863  0.3269
  159SAPE   O3117736   4.587   1.119   6.730 -0.2425 -0.6844 -0.4136
  159SAPE   C3117737   4.665   1.234   6.730  0.8376  0.7477 -0.2573
  159SAPE   O3217738   4.718   1.274   6.630 -0.3407  0.1450 -0.6311
  159SAPE   C3217739   4.648   1.303   6.868  0.8220  0.6610  0.7704
  159SAPE   H2X17740   4.588   1.235   6.932 -1.5322  0.4581 -1.5586
  159SAPE   H2Y17741   4.596   1.399   6.848 -0.7269 -0.2992  0.1285
  159SAPE   C2317742   4.932   0.854   6.926  0.5462 -0.5883  0.0885
  159SAPE   H3R17743   5.022   0.885   6.869  1.4385  0.4629  2.0078
  159SAPE   H3S17744   4.967   0.765   6.984 -2.6946 -0.2420  2.7389
  159SAPE   C2417745   4.876   0.953   7.028 -0.1238 -0.5604  0.0545
  159SAPE   H4R17746   4.828   1.035   6.969  1.6401 -0.6715 -1.5970
  159SAPE   H4S17747   4.969   0.986   7.079  0.4394 -1.2483 -0.5229
  159SAPE   C2517748   4.765   0.910   7.121 -0.1409  0.1027  0.1203
  159SAPE   H5R17749   4.683   0.862   7.065  2.2656 -1.4068 -2.2597
  159SAPE   C2617750   4.753   0.917   7.253 -0.1750  0.5479  0.4171
  159SAPE   H6R17751   4.659   0.879   7.295 -1.2494  0.4346 -2.0146
  159SAPE   C2717752   4.850   0.974   7.350  0.5010  0.0171 -0.6663
  159SAPE   H7R17753   4.798   1.047   7.415 -0.2868  0.7447 -2.1005
  159SAPE   H7S17754   4.931   1.029   7.298  2.1945 -1.1273  0.6933
  159SAPE   C2817755   4.927   0.871   7.431 -0.2560 -0.1711 -0.5109
  159SAPE   H8R17756   4.969   0.785   7.377  0.2349  0.3818 -1.0218
  159SAPE   C2917757   4.935   0.868   7.563  0.2537 -0.1332 -0.1164
  159SAPE   H9R17758   4.984   0.778   7.603 -0.5798 -0.1748  0.8209
  159SAPE  C21017759   4.880   0.968   7.662  0.5051  0.3721 -1.3211
  159SAPE  H10R17760   4.816   0.913   7.735  2.9141  0.9488  1.3223
  159SAPE  H10S17761   4.812   1.035   7.606 -1.0389  1.2391  1.5155
  159SAPE  C21117762   4.994   1.045   7.726  0.0174 -0.3115  0.0912
  159SAPE  H11R17763   5.030   1.128   7.664 -0.4765  0.1318  0.3912
  159SAPE  C21217764   5.062   1.023   7.840  0.6977  0.1198 -0.0184
  159SAPE  H12R17765   5.134   1.095   7.881 -0.1686  0.6984  0.5212
  159SAPE  C21317766   5.025   0.911   7.939  0.2326 -0.3554  0.9126
  159SAPE  H13R17767   4.959   0.831   7.900  0.2375  0.4213 -0.7260
  159SAPE  H13S17768   4.974   0.961   8.024 -0.0936  2.5292 -0.9045
  159SAPE  C21417769   5.154   0.845   7.983 -0.2094  0.1261 -0.4310
  159SAPE  H14R17770   5.201   0.796   7.896 -1.9201 -0.5632 -0.9715
  159SAPE  C21517771   5.200   0.822   8.108  0.4327 -0.3311 -0.2782
  159SAPE  H15R17772   5.290   0.760   8.121  0.6171 -0.0573 -0.2477
  159SAPE  C21617773   5.125   0.854   8.234  0.4680  0.4895 -1.0078
  159SAPE  H16R17774   5.015   0.868   8.220  0.5132  1.0701 -0.7893
  159SAPE  H16S17775   5.158   0.947   8.284  0.7273 -0.7712  1.2015
  159SAPE  C21717776   5.136   0.746   8.344  0.0657 -0.0570  1.0467
  159SAPE  H17R17777   5.246   0.748   8.361  0.3742  1.6377 -0.9421
  159SAPE  H17S17778   5.112   0.651   8.291  1.4182  0.8343 -1.2397
  159SAPE  C21817779   5.064   0.758   8.477  0.4600  0.7904  0.3027
  159SAPE  H18R17780   5.082   0.673   8.547 -1.9740 -0.4812 -0.5724
  159SAPE  H18S17781   4.956   0.773   8.460  0.3935  1.3155  1.1369
  159SAPE  C21917782   5.124   0.870   8.561  0.2375  0.2669 -0.0812
  159SAPE  H19R17783   5.102   0.965   8.507 -1.3976  1.3717  2.4458
  159SAPE  H19S17784   5.234   0.866   8.573  0.2313 -2.4792 -0.5228
  159SAPE  C22017785   5.061   0.883   8.702 -0.0175 -0.1158 -0.4710
  159SAPE  H20R17786   5.084   0.800   8.772  1.5375  0.2374 -0.5392
  159SAPE  H20S17787   4.950   0.885   8.694 -0.3831  0.8148  3.7922
  159SAPE  H20T17788   5.089   0.978   8.754 -0.0520  0.2032 -1.0338
  159SAPE   C3317789   4.789   1.326   6.929  0.8960 -0.0128 -0.3666
  159SAPE   H3X17790   4.846   1.397   6.865 -0.4135 -0.4790 -2.1001
  159SAPE   H3Y17791   4.844   1.229   6.929  0.5909 -0.1849  0.2885
  159SAPE   C3417792   4.782   1.396   7.072 -1.1685 -0.5527 -0.4657
  159SAPE   H4X17793   4.726   1.492   7.072  1.7283  1.2022  0.2334
  159SAPE   H4Y17794   4.884   1.431   7.099 -1.0799  0.6192 -2.2684
  159SAPE   C3517795   4.735   1.314   7.198 -0.0558 -0.2003  0.3124
  159SAPE   H5X17796   4.808   1.236   7.230  0.4495  0.0153 -0.3023
  159SAPE   H5Y17797   4.637   1.266   7.176  0.3178 -0.5500 -0.6208
  159SAPE   C3617798   4.698   1.392   7.327 -0.5681  0.0499 -0.2908
  159SAPE   H6X17799   4.623   1.467   7.294 -2.3489 -0.9717  1.3255
  159SAPE   H6Y17800   4.788   1.440   7.372 -0.4739 -0.7610  0.4105
  159SAPE   C3717801   4.627   1.320   7.446 -0.0466 -0.3402  0.3706
  159SAPE   H7X17802   4.677   1.225   7.478 -0.9062 -0.2850  1.8911
  159SAPE   H7Y17803   4.520   1.303   7.421 -0.0932  0.5984 -0.0672
  159SAPE   C3817804   4.629   1.418   7.570 -0.8092  0.4178 -0.8493
  159SAPE   H8X17805   4.584   1.513   7.536  0.4800  0.8761 -1.3088
  159SAPE   H8Y17806   4.736   1.433   7.595 -0.0845 -1.0118 -2.9402
  159SAPE   C3917807   4.548   1.366   7.687 -0.6290 -0.7099  0.6203
  159SAPE   H9X17808   4.583   1.267   7.722  1.5884  0.0605  0.6848
  159SAPE   H9Y17809   4.444   1.357   7.650 -0.6149 -1.8163  0.8236
  159SAPE  C31017810   4.564   1.461   7.806  0.0291  0.6811 -0.7166
  159SAPE  H10X17811   4.529   1.558   7.763  0.7907  0.3973 -1.9952
  159SAPE  H10Y17812   4.664   1.486   7.848  0.2839  1.1992 -1.6125
  159SAPE  C31117813   4.459   1.441   7.916  0.7150 -0.3418  0.5325
  159SAPE  H11X17814   4.510   1.388   8.000 -1.3319  0.8572  2.6081
  159SAPE  H11Y17815   4.365   1.390   7.886  0.9033 -0.9034  0.8730
  159SAPE  C31217816   4.413   1.577   7.969 -0.2071 -0.6654 -0.4266
  159SAPE  H12X17817   4.345   1.623   7.894 -0.1475 -0.4036 -0.3226
  159SAPE  H12Y17818   4.503   1.637   7.994 -1.2993  0.8460  0.0204
  159SAPE  C31317819   4.341   1.558   8.100 -0.2295 -0.1981 -0.4782
  159SAPE  H13X17820   4.418   1.527   8.175 -0.6300 -0.2084 -0.0700
  159SAPE  H13Y17821   4.276   1.468   8.090 -1.1857  0.4183  0.1602
  159SAPE  C31417822   4.262   1.684   8.149 -0.1290  0.2232  0.9807
  159SAPE  H14X17823   4.168   1.699   8.092 -0.5046  1.5902  1.9158
  159SAPE  H14Y17824   4.328   1.773   8.144  1.1384 -0.7891 -1.1253
  159SAPE  C31517825   4.236   1.689   8.303  0.3643  1.0434  0.4961
  159SAPE  H15X17826   4.318   1.650   8.366 -1.8610 -2.4919  1.3560
  159SAPE  H15Y17827   4.154   1.614   8.305 -0.2981  1.6549 -1.4883
  159SAPE  C31617828   4.180   1.824   8.351 -0.1107  0.2290  0.5035
  159SAPE  H16X17829   4.070   1.831   8.332 -0.0973  1.3656  0.7782
  159SAPE  H16Y17830   4.230   1.904   8.292 -2.4557  1.8504  0.6531
  159SAPE  C31717831   4.200   1.847   8.505 -0.4880  0.1579  0.3945
  159SAPE  H17X17832   4.159   1.767   8.571 -1.7926  1.7684  1.5651
  159SAPE  H17Y17833   4.145   1.940   8.530 -0.4419 -0.2122  1.8976
  159SAPE  C31817834   4.349   1.862   8.556  0.4044 -0.3604 -0.6646
  159SAPE  H18X17835   4.398   1.942   8.496 -0.0907  0.3319 -0.1729
  159SAPE  H18Y17836   4.415   1.773   8.560  1.8303  0.7445  1.4551
  159SAPE  H18Z17837   4.359   1.888   8.664 -1.3064 -1.6271 -0.1802
  160SAPE     N17838   5.492   5.963   6.685  0.1143 -0.0101  0.1628
  160SAPE   HN117839   5.572   5.928   6.740 -0.4863 -0.7546  0.5538
  160SAPE   HN217840   5.465   6.057   6.722 -0.4352  0.2048 -0.7555
  160SAPE   HN317841   5.419   5.890   6.696 -1.8408  1.5845 -1.5543
  160SAPE   C1217842   5.547   5.977   6.546 -0.1758  0.7172 -0.9175
  160SAPE  H12A17843   5.489   6.059   6.498 -1.4539 -0.9705 -2.3287
  160SAPE  H12B17844   5.538   5.881   6.491  0.2495  1.4906 -2.3545
  160SAPE   C1117845   5.691   6.027   6.558  0.2872 -0.1497  0.6864
  160SAPE  H11A17846   5.730   6.024   6.454 -0.3233 -0.8999  0.4811
  160SAPE  H11B17847   5.749   5.956   6.621 -0.3056 -0.9680  0.3082
  160SAPE     P17848   5.745   6.280   6.528  0.0340  0.3078 -0.0104
  160SAPE   O1317849   5.856   6.235   6.437  0.3658 -0.5608  0.6307
  160SAPE   O1417850   5.629   6.335   6.455  0.0848 -0.6253 -0.0056
  160SAPE   O1217851   5.700   6.160   6.611 -0.1363  0.0665 -0.1279
  160SAPE   O1117852   5.814   6.386   6.625 -0.5718  0.6619 -0.8985
  160SAPE    C117853   5.849   6.343   6.761 -0.0533 -0.1017  0.0810
  160SAPE    HA17854   5.900   6.244   6.765 -0.2500 -0.4722 -3.9939
  160SAPE    HB17855   5.919   6.421   6.800 -1.3139  1.0551  0.0679
  160SAPE    C217856   5.718   6.345   6.849 -0.1859  0.0266  0.3603
  160SAPE    HS17857   5.654   6.261   6.812 -0.5657 -0.1669  1.4326
  160SAPE   O2117858   5.655   6.474   6.838 -0.2675  0.1985 -0.7438
  160SAPE   C2117859   5.522   6.484   6.860 -0.0379 -1.3280  0.5176
  160SAPE   O2217860   5.447   6.393   6.874 -0.5685 -0.3917 -0.2158
  160SAPE   C2217861   5.499   6.637   6.878 -0.1282  0.4693 -0.0498
  160SAPE   H2R17862   5.527   6.689   6.784 -0.5794 -0.0902 -0.4920
  160SAPE   H2S17863   5.391   6.656   6.896 -0.7392 -1.9669 -0.9952
  160SAPE    C317864   5.751   6.294   6.990  0.5258  0.2102  0.2414
  160SAPE    HX17865   5.828   6.364   7.032  1.2263 -0.3467 -0.1091
  160SAPE    HY17866   5.787   6.190   6.979 -0.5212 -0.4465  2.6649
  160SAPE   O3117867   5.634   6.293   7.071  0.0564 -0.1074  0.0903
  160SAPE   C3117868   5.549   6.193   7.050 -0.1863  0.3197  0.1817
  160SAPE   O3217869   5.563   6.099   6.975 -0.3564  0.2072 -0.2692
  160SAPE   C3217870   5.432   6.203   7.152 -0.3735 -0.2107  0.0645
  160SAPE   H2X17871   5.343   6.151   7.110 -0.7543  1.4854 -1.2928
  160SAPE   H2Y17872   5.406   6.311   7.154 -0.2403 -0.1460 -1.1333
  160SAPE   C2317873   5.577   6.700   6.997  0.3061  0.1381 -0.2546
  160SAPE   H3R17874   5.540   6.805   6.991 -1.5376 -0.4746  0.0482
  160SAPE   H3S17875   5.682   6.704   6.963  0.4840  0.9089  0.3573
  160SAPE   C2417876   5.563   6.632   7.135 -0.8736  0.1395  0.2009
  160SAPE   H4R17877   5.649   6.666   7.196 -0.0291  0.1961 -1.0018
  160SAPE   H4S17878   5.572   6.522   7.120 -1.2309  0.0914  0.3332
  160SAPE   C2517879   5.436   6.649   7.211  0.6836  0.2355 -0.0850
  160SAPE   H5R17880   5.357   6.576   7.186  0.7085  0.0582  0.3653
  160SAPE   C2617881   5.412   6.732   7.313  0.2375 -0.8390  0.1683
  160SAPE   H6R17882   5.307   6.739   7.347  0.1855  0.3588 -0.1937
  160SAPE   C2717883   5.505   6.829   7.381 -0.8048 -0.1619 -0.5990
  160SAPE   H7R17884   5.458   6.929   7.384 -0.4289  0.0136 -0.4767
  160SAPE   H7S17885   5.596   6.838   7.318 -0.7637  1.0413 -0.3743
  160SAPE   C2817886   5.567   6.783   7.517 -0.7916 -0.0050 -0.4427
  160SAPE   H8R17887   5.677   6.780   7.523 -0.7072  1.2223 -1.2932
  160SAPE   C2917888   5.503   6.751   7.632  0.3621 -0.8471 -0.6791
  160SAPE   H9R17889   5.568   6.727   7.718 -0.4820 -1.7063 -0.2681
  160SAPE  C21017890   5.354   6.756   7.655  0.0255  0.3516 -0.5514
  160SAPE  H10R17891   5.304   6.835   7.595  0.8163  2.1567  1.1089
  160SAPE  H10S17892   5.336   6.796   7.757 -1.6436 -0.0667 -0.6587
  160SAPE  C21117893   5.305   6.618   7.623 -0.2338  0.0450 -0.8662
  160SAPE  H11R17894   5.332   6.577   7.524 -1.7611  3.3998 -2.7633
  160SAPE  C21217895   5.239   6.545   7.713 -0.3501  0.2869  0.0964
  160SAPE  H12R17896   5.208   6.442   7.685  1.9758 -0.3269 -0.2948
  160SAPE  C21317897   5.177   6.599   7.844 -0.4109  0.7515 -0.5326
  160SAPE  H13R17898   5.071   6.568   7.849  0.0729 -0.6486  2.1575
  160SAPE  H13S17899   5.170   6.710   7.843  2.6197  1.0501  2.2946
  160SAPE  C21417900   5.230   6.556   7.977  0.3067  0.4631 -0.7624
  160SAPE  H14R17901   5.334   6.520   7.977  0.0566 -0.2705 -1.1178
  160SAPE  C21517902   5.172   6.569   8.097  0.2665  0.0122  0.7673
  160SAPE  H15R17903   5.221   6.542   8.191 -1.1729 -1.5740  1.0888
  160SAPE  C21617904   5.036   6.617   8.130 -0.3520 -0.0649 -0.2358
  160SAPE  H16R17905   4.994   6.551   8.210  0.2452 -0.5416 -0.3152
  160SAPE  H16S17906   4.969   6.600   8.042  0.4901 -0.3766 -0.8166
  160SAPE  C21717907   5.028   6.767   8.174 -0.3540  0.3196 -0.4991
  160SAPE  H17R17908   5.090   6.832   8.108  0.2709  0.1728 -0.0588
  160SAPE  H17S17909   5.081   6.766   8.271  0.1063  0.8826 -0.7416
  160SAPE  C21817910   4.881   6.815   8.181  0.1846 -0.3860 -0.1155
  160SAPE  H18R17911   4.835   6.812   8.080  2.0081  1.5231 -1.0465
  160SAPE  H18S17912   4.873   6.917   8.223 -1.3025 -0.8378  0.7208
  160SAPE  C21917913   4.797   6.725   8.270 -0.3925  0.3287  0.3632
  160SAPE  H19R17914   4.798   6.618   8.241 -0.2953  0.5481 -0.4529
  160SAPE  H19S17915   4.691   6.760   8.265 -0.1362  1.4617  2.2656
  160SAPE  C22017916   4.843   6.731   8.415  0.7156  0.2513 -0.6555
  160SAPE  H20R17917   4.950   6.712   8.439  0.5126  0.1241  0.1496
  160SAPE  H20S17918   4.772   6.679   8.483 -0.9081  1.9295 -1.0119
  160SAPE  H20T17919   4.833   6.838   8.444  1.1031 -0.3183  1.6229
  160SAPE   C3317920   5.469   6.155   7.294 -0.1943  0.7865  0.0162
  160SAPE   H3X17921   5.569   6.108   7.293 -0.6098 -0.1321  0.5776
  160SAPE   H3Y17922   5.392   6.082   7.327  0.5938 -0.1530 -0.2478
  160SAPE   C3417923   5.481   6.283   7.378 -0.7457  0.8087 -0.5247
  160SAPE   H4X17924   5.386   6.339   7.372 -0.8121  0.9232  1.3527
  160SAPE   H4Y17925   5.563   6.339   7.328 -0.9891  0.6402 -1.1137
  160SAPE   C3517926   5.517   6.265   7.525  0.7802 -0.2108  0.1306
  160SAPE   H5X17927   5.558   6.358   7.571 -1.3180  2.1825 -2.6320
  160SAPE   H5Y17928   5.597   6.188   7.535  0.5978 -0.1216  2.6967
  160SAPE   C3617929   5.406   6.206   7.617  0.5965  0.0330 -0.1388
  160SAPE   H6X17930   5.393   6.097   7.602 -5.4607  0.3716  1.1413
  160SAPE   H6Y17931   5.305   6.248   7.596 -0.8156 -3.2838 -0.2558
  160SAPE   C3717932   5.442   6.231   7.767  0.3772 -0.6865  0.0721
  160SAPE   H7X17933   5.462   6.336   7.798  1.5583 -1.3392  1.5914
  160SAPE   H7Y17934   5.520   6.161   7.802  0.8100 -0.7395 -0.9647
  160SAPE   C3817935   5.321   6.191   7.862  0.4275 -0.8221 -0.0346
  160SAPE   H8X17936   5.312   6.080   7.862  1.3518 -0.9044 -0.5922
  160SAPE   H8Y17937   5.227   6.239   7.829  0.5600  0.2088  1.0468
  160SAPE   C3917938   5.368   6.204   8.005 -0.0390 -0.5612  0.6100
  160SAPE   H9X17939   5.417   6.303   8.016 -0.9568 -0.1048  0.5834
  160SAPE   H9Y17940   5.443   6.123   8.023 -0.1249 -0.2853  2.3347
  160SAPE  C31017941   5.249   6.192   8.106  0.3515 -0.5824  0.0824
  160SAPE  H10X17942   5.200   6.092   8.105  0.0496 -0.4410 -1.5176
  160SAPE  H10Y17943   5.172   6.267   8.079 -1.7913 -2.4036  1.0051
  160SAPE  C31117944   5.289   6.225   8.253 -0.4610  0.1995 -0.5960
  160SAPE  H11X17945   5.360   6.310   8.258 -0.7891  0.4572 -0.3004
  160SAPE  H11Y17946   5.329   6.128   8.290  0.6706  0.6368 -0.6402
  160SAPE  C31217947   5.190   6.273   8.346 -0.3522  0.2990  0.2089
  160SAPE  H12X17948   5.111   6.195   8.334 -1.3611  1.5197 -1.2640
  160SAPE  H12Y17949   5.152   6.372   8.314  0.5979  0.7789  0.5495
  160SAPE  C31317950   5.238   6.291   8.494  0.3412  0.3111  0.1580
  160SAPE  H13X17951   5.306   6.379   8.502 -1.1685  1.9255 -3.3910
  160SAPE  H13Y17952   5.291   6.197   8.520  1.2949  0.9704  0.6458
  160SAPE  C31417953   5.115   6.310   8.591 -0.9971 -0.3039 -0.9761
  160SAPE  H14X17954   5.052   6.219   8.584  0.7219 -1.4847 -1.7321
  160SAPE  H14Y17955   5.057   6.401   8.565  0.0052  0.6031 -0.0748
  160SAPE  C31517956   5.157   6.328   8.739  0.7073 -0.0425  0.4111
  160SAPE  H15X17957   5.066   6.359   8.796 -0.0683 -1.9456  0.2332
  160SAPE  H15Y17958   5.230   6.412   8.746 -0.8932  1.5633 -1.3669
  160SAPE  C31617959   5.209   6.203   8.810  0.1408  1.0914  0.3612
  160SAPE  H16X17960   5.263   6.230   8.903  0.8297  0.0121  0.2779
  160SAPE  H16Y17961   5.285   6.155   8.745 -1.3661 -0.9063  0.0259
  160SAPE  C31717962   5.101   6.096   8.826  0.1915  0.1211  0.5149
  160SAPE  H17X17963   5.120   6.022   8.745 -0.5119 -1.7519  2.0354
  160SAPE  H17Y17964   5.002   6.145   8.817 -0.3327 -0.9357  0.4368
  160SAPE  C31817965   5.110   6.023   8.958 -0.4061  0.5881  0.6358
  160SAPE  H18X17966   5.015   5.969   8.974 -0.1338  0.1387  0.7557
  160SAPE  H18Y17967   5.126   6.096   9.041  1.5229 -0.2397  1.0377
  160SAPE  H18Z17968   5.195   5.952   8.954 -1.3648 -0.5671  0.5946
  161SOPE     N17969   5.185   1.672  10.748 -0.1664 -0.2937 -0.1100
  161SOPE   HN117970   5.225   1.658  10.843 -1.7064 -0.1171  0.5710
  161SOPE   HN217971   5.135   1.586  10.715 -0.7312  0.0681 -0.2006
  161SOPE   HN317972   5.263   1.694  10.683  0.5875  0.0651  0.9048
  161SOPE   C1217973   5.073   1.779  10.761  0.0520 -0.2338  0.2728
  161SOPE  H12A17974   5.040   1.806  10.658  0.8915  1.1277  0.3461
  161SOPE  H12B17975   5.120   1.860  10.820 -0.3563  1.6606 -1.8975
  161SOPE   C1117976   4.951   1.740  10.848 -0.2079  0.0073  1.0549
  161SOPE  H11A17977   4.886   1.827  10.872  1.3369  1.2607  0.7459
  161SOPE  H11B17978   5.000   1.711  10.943  1.4139  1.8136  0.8022
  161SOPE     P17979   4.762   1.650  10.676 -0.1879 -0.4886 -0.4328
  161SOPE   O1317980   4.752   1.797  10.652 -0.0772 -0.2076  0.1093
  161SOPE   O1417981   4.643   1.571  10.716 -0.0770 -0.4475  0.0541
  161SOPE   O1217982   4.874   1.634  10.780 -0.5583 -0.8958  0.0635
  161SOPE   O1117983   4.832   1.581  10.551  0.2870  0.7892  0.3508
  161SOPE    C117984   4.774   1.592  10.423  0.7142  0.1144 -0.7063
  161SOPE    HA17985   4.853   1.560  10.351  1.1825  0.5513 -0.3883
  161SOPE    HB17986   4.748   1.699  10.404  2.0487  0.5250 -0.2718
  161SOPE    C217987   4.639   1.510  10.397  0.0913  0.2539 -0.6711
  161SOPE    HS17988   4.597   1.501  10.499 -2.0347 -0.3564 -1.5795
  161SOPE   O2117989   4.660   1.382  10.340  0.2797 -0.2544  0.0304
  161SOPE   C2117990   4.565   1.294  10.366  0.4132  0.0838 -1.2071
  161SOPE   O2217991   4.482   1.313  10.454  0.7594  0.5055 -0.1204
  161SOPE   C2217992   4.582   1.170  10.281 -0.0195  0.4491 -0.7429
  161SOPE   H2R17993   4.654   1.107  10.337  0.9443  1.5118 -0.7650
  161SOPE   H2S17994   4.638   1.194  10.187 -0.0003  1.2380 -0.5353
  161SOPE    C317995   4.535   1.598  10.319  0.0042 -0.2791 -0.6482
  161SOPE    HX17996   4.487   1.665  10.394 -2.2763 -1.4278 -1.0160
  161SOPE    HY17997   4.460   1.524  10.284  1.8337 -0.5274 -4.2047
  161SOPE   O3117998   4.585   1.669  10.196 -0.3984 -0.1496  0.3389
  161SOPE   C3117999   4.512   1.767  10.150  0.6594  0.3886 -0.7966
  161SOPE   O3218000   4.402   1.799  10.195  0.1715  0.2411  0.5112
  161SOPE   C3218001   4.583   1.826  10.031  0.4083  1.3354 -0.0134
  161SOPE   H2X18002   4.676   1.772  10.003 -0.8961 -0.3105 -1.2872
  161SOPE   H2Y18003   4.617   1.927  10.062  1.1881  1.1947 -0.4023
  161SOPE   C2318004   4.445   1.103  10.262  0.6411 -0.1024 -0.3843
  161SOPE   H3R18005   4.382   1.088  10.352  1.9975  0.4596  0.6845
  161SOPE   H3S18006   4.469   1.004  10.217  0.4938  0.1477 -1.0190
  161SOPE   C2418007   4.376   1.186  10.145  0.5793  0.0450 -0.8431
  161SOPE   H4R18008   4.352   1.290  10.176  2.9984  0.0728  1.1199
  161SOPE   H4S18009   4.448   1.188  10.060  0.1780  0.4933 -1.1668
  161SOPE   C2518010   4.250   1.114  10.088 -0.6165  0.0774 -0.6816
  161SOPE   H5R18011   4.262   1.004  10.099  1.1080  0.4481  1.6156
  161SOPE   H5S18012   4.165   1.136  10.156  1.6722 -0.4880  2.5034
  161SOPE   C2618013   4.205   1.154   9.938 -0.4015  0.5718  0.3403
  161SOPE   H6R18014   4.297   1.138   9.879 -1.9362 -2.6808 -1.3331
  161SOPE   H6S18015   4.133   1.077   9.902  2.0332 -0.9228 -1.5104
  161SOPE   C2718016   4.141   1.298   9.941  0.6156  0.3014 -0.1837
  161SOPE   H7R18017   4.066   1.305  10.022 -1.0807  0.4475 -1.7534
  161SOPE   H7S18018   4.216   1.378   9.961  0.1497  0.0870  2.7613
  161SOPE   C2818019   4.078   1.340   9.805  0.1000 -0.1008 -0.3184
  161SOPE   H8R18020   4.065   1.450   9.809  0.4255 -0.0891  0.4888
  161SOPE   H8S18021   4.151   1.308   9.728 -1.5155 -0.5948 -1.6964
  161SOPE   C2918022   3.943   1.278   9.794 -0.8535 -0.1758 -0.1504
  161SOPE   H9118023   3.914   1.196   9.861  0.9569 -0.8452 -0.1475
  161SOPE  C21018024   3.857   1.317   9.703 -0.9806 -0.6159  0.1112
  161SOPE  H10118025   3.754   1.280   9.716 -1.2617 -0.7623 -2.2897
  161SOPE  C21118026   3.878   1.427   9.604  0.4466 -0.2468  0.3403
  161SOPE  H11R18027   3.969   1.489   9.616 -0.5804  1.4963 -0.6568
  161SOPE  H11S18028   3.785   1.486   9.586 -0.7677 -2.0126  0.7253
  161SOPE  C21218029   3.896   1.358   9.468  0.3983 -0.2188 -0.9013
  161SOPE  H12R18030   3.797   1.315   9.441 -0.9705  1.6919  0.9123
  161SOPE  H12S18031   3.968   1.274   9.471  1.2813  0.5682  0.2715
  161SOPE  C21318032   3.932   1.450   9.355 -0.0471  0.6178 -0.4000
  161SOPE  H13R18033   4.028   1.494   9.389  0.5718 -0.2539 -0.9853
  161SOPE  H13S18034   3.858   1.530   9.332 -2.0564 -0.7722  1.0561
  161SOPE  C21418035   3.951   1.372   9.218 -0.5273  0.1412  0.1991
  161SOPE  H14R18036   4.021   1.285   9.226  1.1114  1.4911  1.0197
  161SOPE  H14S18037   3.990   1.425   9.129  0.2237  0.0693  0.4780
  161SOPE  C21518038   3.816   1.312   9.162  0.2757  0.0630 -0.8781
  161SOPE  H15R18039   3.743   1.395   9.150  0.0942  0.2722  1.4083
  161SOPE  H15S18040   3.799   1.231   9.236  2.5610 -0.5448 -0.9550
  161SOPE  C21618041   3.843   1.264   9.019 -0.1740  0.2924  0.1611
  161SOPE  H16R18042   3.931   1.196   9.022 -0.1027  0.3508 -0.4143
  161SOPE  H16S18043   3.862   1.337   8.937 -0.6750 -0.6738 -0.8405
  161SOPE  C21718044   3.732   1.185   8.954  0.5288  0.4572  0.4686
  161SOPE  H17R18045   3.647   1.253   8.932  0.7503  1.8986  3.8697
  161SOPE  H17S18046   3.692   1.100   9.012  0.1109 -0.5642 -1.2800
  161SOPE  C21818047   3.773   1.116   8.816  0.4600  0.6421 -0.0566
  161SOPE  H18R18048   3.820   1.196   8.753  1.3650 -0.1027 -0.3393
  161SOPE  H18S18049   3.686   1.062   8.773 -1.1758  0.0329  3.8260
  161SOPE  H18T18050   3.863   1.054   8.834  1.4041  2.5591  2.0805
  161SOPE   C3318051   4.484   1.831   9.914  0.0720  0.8862 -0.2647
  161SOPE   H3X18052   4.529   1.868   9.820  0.6631 -0.7800 -0.6449
  161SOPE   H3Y18053   4.410   1.908   9.947 -0.2162  0.3482  0.3621
  161SOPE   C3418054   4.427   1.696   9.887 -0.3027 -0.4491  0.8567
  161SOPE   H4X18055   4.367   1.658   9.973  1.1426  1.4283  2.7633
  161SOPE   H4Y18056   4.510   1.627   9.862  0.3608  1.0747 -1.3117
  161SOPE   C3518057   4.326   1.675   9.766  0.3954  0.3274  0.3784
  161SOPE   H5X18058   4.247   1.752   9.774  0.3074  0.2603  0.1730
  161SOPE   H5Y18059   4.284   1.572   9.764  1.3331 -0.0932  2.0617
  161SOPE   C3618060   4.392   1.694   9.626 -0.9270 -0.0220  0.5090
  161SOPE   H6X18061   4.481   1.627   9.620 -1.7908 -1.6040  4.2016
  161SOPE   H6Y18062   4.432   1.798   9.627 -1.0007  0.0218 -0.6717
  161SOPE   C3718063   4.289   1.671   9.519  0.1877 -0.1951  0.0387
  161SOPE   H7X18064   4.201   1.736   9.535  0.1004 -0.1734 -0.5277
  161SOPE   H7Y18065   4.259   1.565   9.523 -1.7117  0.3305 -0.0689
  161SOPE   C3818066   4.358   1.690   9.387 -0.3456 -0.6128 -0.0208
  161SOPE   H8X18067   4.458   1.640   9.382  0.0533 -0.0687  2.0039
  161SOPE   H8Y18068   4.371   1.800   9.379 -0.0232 -0.5280  1.5269
  161SOPE   C3918069   4.272   1.640   9.273  0.2185 -0.1570  0.9901
  161SOPE   H9X18070   4.180   1.703   9.263  1.2536  1.0606 -1.4066
  161SOPE   H9Y18071   4.236   1.536   9.285 -0.1157 -0.2293 -0.4677
  161SOPE  C31018072   4.346   1.636   9.139 -0.8315 -0.1894  0.5503
  161SOPE  H10X18073   4.446   1.593   9.160 -1.4253 -1.1793  1.3686
  161SOPE  H10Y18074   4.377   1.738   9.109 -1.1774 -0.8500 -2.2333
  161SOPE  C31118075   4.278   1.559   9.027  0.1368  0.6476 -0.1019
  161SOPE  H11X18076   4.207   1.479   9.057 -0.8411  0.9561 -1.5146
  161SOPE  H11Y18077   4.340   1.491   8.966 -0.8348  0.9546 -1.4483
  161SOPE  C31218078   4.190   1.655   8.936 -0.3132 -0.0222 -0.8587
  161SOPE  H12X18079   4.248   1.743   8.901  0.2182 -0.0191  0.0154
  161SOPE  H12Y18080   4.106   1.682   9.003  1.0499 -0.1132  0.9163
  161SOPE  C31318081   4.130   1.580   8.811  0.2412  0.2221  0.5796
  161SOPE  H13X18082   4.075   1.654   8.750 -1.7342 -0.9643  0.8801
  161SOPE  H13Y18083   4.066   1.499   8.851 -1.3133 -0.0597 -2.4013
  161SOPE  C31418084   4.241   1.521   8.721 -0.0564  0.0079  0.6776
  161SOPE  H14X18085   4.273   1.427   8.772 -0.4475 -0.8461 -0.6209
  161SOPE  H14Y18086   4.315   1.602   8.704 -1.4160  0.9643 -0.8278
  161SOPE  C31518087   4.175   1.473   8.593 -0.3420  0.1835  0.4183
  161SOPE  H15X18088   4.136   1.553   8.526 -1.8637  0.2026  1.2953
  161SOPE  H15Y18089   4.085   1.412   8.618 -0.3366 -0.2766 -0.6438
  161SOPE  C31618090   4.273   1.378   8.521 -0.3435 -0.0891  0.7319
  161SOPE  H16X18091   4.317   1.302   8.588 -0.0879  1.0940  1.9129
  161SOPE  H16Y18092   4.363   1.434   8.489  0.1470 -1.5238 -0.4313
  161SOPE  C31718093   4.196   1.318   8.397  0.7021 -0.7885  0.1297
  161SOPE  H17X18094   4.159   1.403   8.335 -2.2683 -2.1394 -0.0520
  161SOPE  H17Y18095   4.111   1.261   8.440  0.1513 -0.2057 -0.1585
  161SOPE  C31818096   4.285   1.244   8.299 -0.1175 -0.4347  0.2616
  161SOPE  H18X18097   4.320   1.152   8.352  1.0552  1.9271  3.7301
  161SOPE  H18Y18098   4.369   1.314   8.284  0.9653 -0.9932  3.3542
  161SOPE  H18Z18099   4.226   1.229   8.206 -1.4976  1.4191  0.7952
  162SOPE     N18100   3.677   1.419  11.070 -0.5846 -0.4331  0.7950
  162SOPE   HN118101   3.725   1.412  11.162 -1.2002 -0.4700  1.1150
  162SOPE   HN218102   3.662   1.321  11.039 -1.4167  0.6885 -2.6357
  162SOPE   HN318103   3.743   1.473  11.010  0.5522  0.1601  2.5507
  162SOPE   C1218104   3.553   1.507  11.078  0.1440  0.8359  0.9019
  162SOPE  H12A18105   3.570   1.615  11.098 -0.5909  1.0915  0.2020
  162SOPE  H12B18106   3.497   1.457  11.160 -0.7870  2.3041  1.1925
  162SOPE   C1118107   3.466   1.500  10.949 -0.0449 -0.0451 -0.6373
  162SOPE  H11A18108   3.418   1.405  10.918 -2.5298  1.0387 -0.2195
  162SOPE  H11B18109   3.532   1.529  10.864 -0.3969  0.0834 -0.8666
  162SOPE     P18110   3.306   1.714  10.881  0.0020 -0.2709  0.0301
  162SOPE   O1318111   3.419   1.766  10.803  0.0903 -0.2061  0.0395
  162SOPE   O1418112   3.245   1.807  10.978  0.2721  0.4449  0.7686
  162SOPE   O1218113   3.350   1.586  10.962 -0.0656  0.1330 -0.2889
  162SOPE   O1118114   3.197   1.669  10.773 -0.2314  0.4722 -0.0226
  162SOPE    C118115   3.206   1.537  10.711 -0.4652 -0.4160 -0.0145
  162SOPE    HA18116   3.226   1.456  10.785 -0.5155 -0.7230 -0.3325
  162SOPE    HB18117   3.278   1.539  10.627 -1.4554  1.6562 -0.8477
  162SOPE    C218118   3.082   1.497  10.640  0.2290  0.1551  0.0606
  162SOPE    HS18119   3.081   1.388  10.618  1.0812 -0.1388  1.4131
  162SOPE   O2118120   3.079   1.570  10.515 -0.1749 -0.0460 -0.2544
  162SOPE   C2118121   3.074   1.507  10.403  0.3645 -0.2800  0.8904
  162SOPE   O2218122   3.049   1.389  10.382 -0.7233  0.3633  0.3912
  162SOPE   C2218123   3.105   1.602  10.278  0.0112  0.1417 -0.1881
  162SOPE   H2R18124   3.213   1.628  10.284 -0.3540  2.4384 -2.8606
  162SOPE   H2S18125   3.045   1.693  10.299 -0.7581 -0.7064  1.4600
  162SOPE    C318126   2.955   1.514  10.720  0.1695  0.5141  0.0782
  162SOPE    HX18127   2.967   1.615  10.764  0.1223  0.2639  0.6628
  162SOPE    HY18128   2.944   1.443  10.804  2.0810 -0.4318 -0.4568
  162SOPE   O3118129   2.838   1.514  10.639 -0.1156 -0.6145  0.7978
  162SOPE   C3118130   2.732   1.544  10.717  0.6092 -0.3394  0.5457
  162SOPE   O3218131   2.737   1.568  10.836 -0.0142  0.1190 -0.0128
  162SOPE   C3218132   2.600   1.562  10.636 -0.8853 -0.1533  0.8686
  162SOPE   H2X18133   2.530   1.625  10.695 -1.0439  1.2456 -0.7926
  162SOPE   H2Y18134   2.558   1.461  10.618 -2.3109  0.1017  2.5792
  162SOPE   C2318135   3.080   1.533  10.147 -0.0396  0.1786  0.4757
  162SOPE   H3R18136   2.983   1.483  10.162  0.6488 -1.3092  0.0636
  162SOPE   H3S18137   3.158   1.458  10.120 -1.1711 -1.3225  1.3012
  162SOPE   C2418138   3.068   1.622  10.025  0.2842 -0.5747  0.1028
  162SOPE   H4R18139   2.987   1.695  10.048  1.1150  0.0793  1.0120
  162SOPE   H4S18140   3.163   1.679  10.012  0.7776 -1.8573 -2.2431
  162SOPE   C2518141   3.051   1.544   9.896  0.1254 -0.3956 -0.0775
  162SOPE   H5R18142   3.147   1.498   9.865 -0.4373 -1.0635 -0.8718
  162SOPE   H5S18143   2.983   1.457   9.904 -1.7820  0.5331 -4.6132
  162SOPE   C2618144   3.008   1.633   9.783 -0.3695  0.3091 -0.0289
  162SOPE   H6R18145   2.913   1.682   9.817 -0.2845  0.1269  0.4738
  162SOPE   H6S18146   3.078   1.717   9.762  1.5340 -0.7355  1.9486
  162SOPE   C2718147   2.982   1.545   9.659 -0.0655 -0.2347 -0.7149
  162SOPE   H7R18148   3.071   1.496   9.614 -0.8682 -1.0300 -1.4724
  162SOPE   H7S18149   2.921   1.460   9.698 -2.6199  1.0284 -1.8598
  162SOPE   C2818150   2.898   1.610   9.551 -0.1089 -0.5616 -0.2862
  162SOPE   H8R18151   2.811   1.672   9.580  0.4663  0.4233 -0.6216
  162SOPE   H8S18152   2.961   1.686   9.499  0.6005  0.4032  1.9240
  162SOPE   C2918153   2.846   1.506   9.452  0.5464 -0.2944  0.2221
  162SOPE   H9118154   2.806   1.409   9.488 -0.8060 -0.3903 -1.5094
  162SOPE  C21018155   2.837   1.529   9.318  0.1705 -0.1123  0.8994
  162SOPE  H10118156   2.805   1.442   9.259 -2.5456  0.8138  0.9167
  162SOPE  C21118157   2.881   1.647   9.234 -0.3913 -0.0255 -0.1954
  162SOPE  H11R18158   2.981   1.688   9.260  0.0740 -0.6863 -0.9042
  162SOPE  H11S18159   2.804   1.720   9.266 -0.4351  1.0668 -2.6773
  162SOPE  C21218160   2.860   1.616   9.080 -0.3381  0.2958  0.0880
  162SOPE  H12R18161   2.875   1.717   9.036  1.4426  1.0522  2.3422
  162SOPE  H12S18162   2.756   1.583   9.056 -0.5495  1.1870 -0.2230
  162SOPE  C21318163   2.963   1.520   9.031  0.3712  0.3505 -0.4548
  162SOPE  H13R18164   2.911   1.421   9.036 -0.3502  0.7922  1.3726
  162SOPE  H13S18165   3.051   1.518   9.099  0.3446  1.3937 -0.3881
  162SOPE  C21418166   3.006   1.576   8.892 -0.1718 -0.0217  0.6531
  162SOPE  H14R18167   2.924   1.607   8.824 -1.0648 -0.2350  1.6090
  162SOPE  H14S18168   3.058   1.492   8.842 -2.0719  0.4021 -2.1120
  162SOPE  C21518169   3.110   1.693   8.892  0.3542  0.0125 -0.4938
  162SOPE  H15R18170   3.172   1.686   8.984 -0.3752  1.8974  0.1734
  162SOPE  H15S18171   3.053   1.785   8.918 -0.2975 -0.7819  0.9755
  162SOPE  C21618172   3.201   1.715   8.767 -0.4129  0.1990 -0.1836
  162SOPE  H16R18173   3.248   1.815   8.777  0.3638 -0.2542  0.7525
  162SOPE  H16S18174   3.139   1.727   8.676 -3.2371  0.1577  1.6634
  162SOPE  C21718175   3.305   1.612   8.743  0.0339 -0.8251  0.3362
  162SOPE  H17R18176   3.252   1.515   8.730  1.2194 -1.1700 -2.0721
  162SOPE  H17S18177   3.379   1.600   8.825  1.6742 -1.7793 -1.2555
  162SOPE  C21818178   3.385   1.637   8.616 -0.8268 -0.1042 -0.8558
  162SOPE  H18R18179   3.461   1.558   8.601 -0.2069  0.6367 -1.6559
  162SOPE  H18S18180   3.430   1.737   8.629 -1.5702 -0.0622  1.7559
  162SOPE  H18T18181   3.323   1.639   8.523 -1.1805  2.5075 -0.5863
  162SOPE   C3318182   2.619   1.629  10.493 -0.8971  1.0992  0.0747
  162SOPE   H3X18183   2.713   1.688  10.489  0.0183 -0.1060  2.6595
  162SOPE   H3Y18184   2.535   1.701  10.479 -2.7847 -1.2080 -0.6799
  162SOPE   C3418185   2.611   1.522  10.375 -0.2998  0.3333 -0.6319
  162SOPE   H4X18186   2.513   1.471  10.374  0.5190 -1.2733 -1.6738
  162SOPE   H4Y18187   2.691   1.448  10.398  1.2734  1.5222 -2.1338
  162SOPE   C3518188   2.639   1.582  10.240  0.5688  0.3139 -0.7026
  162SOPE   H5X18189   2.742   1.624  10.242 -0.9998  4.3919 -0.8164
  162SOPE   H5Y18190   2.574   1.669  10.217 -1.3794 -0.9190 -0.0019
  162SOPE   C3618191   2.629   1.470  10.140 -0.0650  0.3891 -0.2542
  162SOPE   H6X18192   2.522   1.440  10.140 -0.0083 -0.0685  3.3181
  162SOPE   H6Y18193   2.694   1.385  10.171  0.6189  0.7108 -0.8071
  162SOPE   C3718194   2.687   1.505  10.004  0.1207 -0.0023  0.3667
  162SOPE   H7X18195   2.674   1.409   9.948  0.5760 -1.5154  2.7794
  162SOPE   H7Y18196   2.795   1.528  10.008  0.1597 -0.3987  2.0208
  162SOPE   C3818197   2.609   1.609   9.924 -0.2318 -0.3862  0.1182
  162SOPE   H8X18198   2.670   1.628   9.833  2.9727 -0.0245  2.2568
  162SOPE   H8Y18199   2.607   1.700   9.988  1.0527 -0.5969  0.4628
  162SOPE   C3918200   2.472   1.572   9.875 -0.5102  0.2510  0.0456
  162SOPE   H9X18201   2.403   1.581   9.962 -0.8274  1.4037 -0.3181
  162SOPE   H9Y18202   2.472   1.464   9.848  0.9631 -0.4043  2.4800
  162SOPE  C31018203   2.420   1.637   9.755  1.2701  0.3140 -0.9882
  162SOPE  H10X18204   2.439   1.747   9.756  0.4512  0.4559 -0.4445
  162SOPE  H10Y18205   2.311   1.615   9.752  0.7669  2.2397  1.8405
  162SOPE  C31118206   2.477   1.577   9.628  0.0690 -0.8124  0.2444
  162SOPE  H11X18207   2.432   1.481   9.595  2.5613 -1.1776 -2.3085
  162SOPE  H11Y18208   2.588   1.574   9.637  0.3375  0.7030 -2.1292
  162SOPE  C31218209   2.438   1.667   9.503 -0.3072  0.1496  0.5186
  162SOPE  H12X18210   2.480   1.768   9.519 -0.4837  0.4029 -0.6269
  162SOPE  H12Y18211   2.327   1.676   9.507 -0.3272 -0.1123  0.6258
  162SOPE  C31318212   2.481   1.619   9.373 -0.0576  0.1745 -0.2990
  162SOPE  H13X18213   2.474   1.509   9.364 -1.4120  0.3887 -2.4839
  162SOPE  H13Y18214   2.589   1.645   9.361  0.9731 -2.0722  3.4245
  162SOPE  C31418215   2.415   1.692   9.254 -0.3009  0.4544  0.2031
  162SOPE  H14X18216   2.481   1.779   9.236  0.0288  0.4006  1.1214
  162SOPE  H14Y18217   2.311   1.724   9.280 -0.0306  2.4297 -1.0368
  162SOPE  C31518218   2.400   1.605   9.125  0.0695 -0.2569 -1.0893
  162SOPE  H15X18219   2.362   1.508   9.161  1.8275 -1.2399 -1.8003
  162SOPE  H15Y18220   2.500   1.582   9.083 -0.4337 -2.7572 -0.9551
  162SOPE  C31618221   2.305   1.667   9.017  0.5437 -0.1141  0.8404
  162SOPE  H16X18222   2.352   1.764   8.989  1.9813 -0.7506  1.0105
  162SOPE  H16Y18223   2.204   1.687   9.059  0.8252  1.8055  0.6472
  162SOPE  C31718224   2.282   1.576   8.892 -0.5429 -0.2744  0.2493
  162SOPE  H17X18225   2.281   1.466   8.901  0.4900 -0.3453 -0.3916
  162SOPE  H17Y18226   2.372   1.594   8.828  2.6846 -3.5676  3.6530
  162SOPE  C31818227   2.167   1.624   8.805  0.0372 -0.1865  0.0282
  162SOPE  H18X18228   2.079   1.639   8.872 -1.8272  0.6445 -2.5325
  162SOPE  H18Y18229   2.134   1.552   8.728 -1.5747  0.9153 -0.3273
  162SOPE  H18Z18230   2.196   1.720   8.759  2.0297 -1.0741 -0.6060
  163SOPE     N18231   3.421   4.644  11.053 -0.4317 -0.4719 -0.0595
  163SOPE   HN118232   3.477   4.726  11.022 -2.6190 -0.3580 -4.0386
  163SOPE   HN218233   3.356   4.669  11.130  0.2594  1.0324  0.0347
  163SOPE   HN318234   3.472   4.563  11.093 -0.2070 -0.9719 -1.3222
  163SOPE   C1218235   3.331   4.596  10.935 -0.6986 -0.3284 -0.4907
  163SOPE  H12A18236   3.267   4.511  10.967  1.0718 -1.5247 -0.0797
  163SOPE  H12B18237   3.398   4.566  10.851  0.7313  0.6535  0.2959
  163SOPE   C1118238   3.241   4.706  10.888  0.0626  0.4818  0.2694
  163SOPE  H11A18239   3.184   4.747  10.974  0.2664  0.5434  0.3774
  163SOPE  H11B18240   3.171   4.661  10.816  2.4169 -0.6455 -1.3811
  163SOPE     P18241   3.251   4.939  10.765 -0.0528 -0.3603  0.2924
  163SOPE   O1318242   3.352   5.001  10.674  0.7916 -0.0847 -0.0892
  163SOPE   O1418243   3.201   5.031  10.870 -0.1816 -0.3008  0.2148
  163SOPE   O1218244   3.319   4.813  10.829  0.2543  0.1264  0.4955
  163SOPE   O1118245   3.132   4.880  10.678  0.2614 -0.7491 -0.1002
  163SOPE    C118246   3.159   4.828  10.547 -0.7936 -0.0385 -0.6151
  163SOPE    HA18247   3.079   4.754  10.523 -1.2816  0.9313 -2.0550
  163SOPE    HB18248   3.254   4.770  10.542 -1.6509 -1.7666  1.9322
  163SOPE    C218249   3.159   4.931  10.423 -0.1445  0.3554 -0.1517
  163SOPE    HS18250   3.238   5.008  10.440  0.2520  0.2113 -1.3038
  163SOPE   O2118251   3.032   4.989  10.402  0.1536  0.2884 -0.5148
  163SOPE   C2118252   3.013   5.110  10.449  0.3900  1.2168  0.4649
  163SOPE   O2218253   3.088   5.166  10.521  0.2956 -0.4420  0.2311
  163SOPE   C2218254   2.878   5.170  10.409 -0.2112 -0.7485  0.0422
  163SOPE   H2R18255   2.874   5.268  10.461  0.0165 -1.5647  1.6339
  163SOPE   H2S18256   2.810   5.099  10.461  1.2324 -1.2133  1.3510
  163SOPE    C318257   3.195   4.856  10.290 -0.3915 -0.0987  0.1564
  163SOPE    HX18258   3.117   4.778  10.277 -0.5680  0.1857 -0.4965
  163SOPE    HY18259   3.288   4.797  10.304  1.5884  2.8394 -0.1100
  163SOPE   O3118260   3.215   4.952  10.183  0.3352  0.0447  0.2719
  163SOPE   C3118261   3.341   4.978  10.143 -0.2784 -0.1124 -0.2170
  163SOPE   O3218262   3.444   4.932  10.200 -0.5961  0.2377  0.3068
  163SOPE   C3218263   3.349   5.068  10.021  0.6093  0.1455 -0.4485
  163SOPE   H2X18264   3.445   5.122  10.006 -0.3838  1.9208 -0.6074
  163SOPE   H2Y18265   3.277   5.151  10.036  1.5931  1.2289 -1.6205
  163SOPE   C2318266   2.874   5.205  10.260 -0.2552 -0.0965  0.8196
  163SOPE   H3R18267   2.771   5.245  10.249 -0.1151  1.0740  3.4064
  163SOPE   H3S18268   2.872   5.109  10.203  2.6353  0.3850 -0.1855
  163SOPE   C2418269   2.984   5.288  10.199  0.0269  0.5531 -0.4846
  163SOPE   H4R18270   2.988   5.373  10.271 -0.9977  0.7474 -0.6559
  163SOPE   H4S18271   3.077   5.228  10.210 -0.4546  0.0422  0.8421
  163SOPE   C2518272   2.959   5.325  10.051  0.0775 -0.2079 -0.4821
  163SOPE   H5R18273   2.945   5.238   9.983 -0.4458 -0.7934  0.3705
  163SOPE   H5S18274   2.870   5.390  10.058  1.8079  2.0112  2.3987
  163SOPE   C2618275   3.078   5.414  10.006 -0.5272 -0.0834 -0.0899
  163SOPE   H6R18276   3.083   5.504  10.070 -1.1927 -1.7556  2.3581
  163SOPE   H6S18277   3.174   5.360  10.018 -0.9270 -0.6606  0.5077
  163SOPE   C2718278   3.073   5.473   9.866 -1.0488  0.2817 -0.3357
  163SOPE   H7R18279   2.966   5.501   9.852 -0.5261  1.3409 -2.5166
  163SOPE   H7S18280   3.127   5.570   9.868 -1.2742  0.4667 -1.9201
  163SOPE   C2818281   3.122   5.376   9.752  0.2822  0.3446 -0.6833
  163SOPE   H8R18282   3.223   5.335   9.777 -0.3354 -0.3277  0.7795
  163SOPE   H8S18283   3.048   5.293   9.759 -1.5186  1.9891 -0.0513
  163SOPE   C2918284   3.122   5.436   9.619 -0.4430 -0.4068 -0.0017
  163SOPE   H9118285   3.049   5.518   9.611 -0.0631 -0.1783 -1.1741
  163SOPE  C21018286   3.183   5.406   9.504  0.5897 -0.2691 -0.4905
  163SOPE  H10118287   3.159   5.452   9.407 -0.8727 -3.9645 -1.9756
  163SOPE  C21118288   3.285   5.297   9.498  0.0211 -0.7391 -0.0236
  163SOPE  H11R18289   3.341   5.284   9.593  1.6234  2.9138 -0.3996
  163SOPE  H11S18290   3.366   5.333   9.432 -0.6990 -1.5868 -1.3993
  163SOPE  C21218291   3.216   5.168   9.453  0.4693 -0.0269  0.1785
  163SOPE  H12R18292   3.292   5.093   9.425  0.3959 -0.8542  2.0830
  163SOPE  H12S18293   3.161   5.191   9.360  0.2970  1.9547  0.7323
  163SOPE  C21318294   3.131   5.099   9.560 -0.4946  1.0766 -0.0287
  163SOPE  H13R18295   3.031   5.142   9.581 -2.0038 -2.5911  0.5218
  163SOPE  H13S18296   3.181   5.109   9.659  3.4393 -0.2667 -1.7715
  163SOPE  C21418297   3.105   4.953   9.523  0.4823  0.7663 -0.0871
  163SOPE  H14R18298   3.205   4.905   9.520  1.8068  3.3418  0.9205
  163SOPE  H14S18299   3.056   4.950   9.423  2.9996  1.9428 -1.4214
  163SOPE  C21518300   3.016   4.881   9.621 -0.5783  1.1490  0.3333
  163SOPE  H15R18301   2.935   4.955   9.635 -1.7205  0.3114 -1.5633
  163SOPE  H15S18302   3.073   4.866   9.715  0.9541 -0.9579 -0.8988
  163SOPE  C21618303   2.967   4.748   9.570 -0.0526 -0.2158 -0.0610
  163SOPE  H16R18304   2.926   4.687   9.653 -1.5791  1.9416  0.8209
  163SOPE  H16S18305   3.053   4.690   9.532 -1.2288 -1.0153 -1.5764
  163SOPE  C21718306   2.868   4.736   9.450  0.3088  0.4046  0.2265
  163SOPE  H17R18307   2.931   4.751   9.359 -0.5697  0.7187 -0.3296
  163SOPE  H17S18308   2.790   4.813   9.468 -1.6187 -1.7120  1.0923
  163SOPE  C21818309   2.801   4.601   9.441 -0.0692  1.3340 -0.0628
  163SOPE  H18R18310   2.731   4.594   9.355  1.9581  0.4014 -1.6725
  163SOPE  H18S18311   2.733   4.572   9.524  0.7921  1.4751  0.6847
  163SOPE  H18T18312   2.879   4.523   9.451 -1.1775  0.2735  0.4135
  163SOPE   C3318313   3.339   4.979   9.893  0.5735 -0.1519 -0.2861
  163SOPE   H3X18314   3.344   5.045   9.804 -0.5521  2.0441  1.2161
  163SOPE   H3Y18315   3.238   4.935   9.880  0.1920  0.7104 -0.2995
  163SOPE   C3418316   3.445   4.869   9.887  0.0338  0.2167  0.4635
  163SOPE   H4X18317   3.446   4.800   9.975  0.2270 -0.2597  0.0924
  163SOPE   H4Y18318   3.537   4.925   9.861  0.0551  0.6660  1.4626
  163SOPE   C3518319   3.422   4.769   9.770 -0.2259 -0.6214  0.0566
  163SOPE   H5X18320   3.413   4.834   9.681 -2.2177 -0.3932  0.4004
  163SOPE   H5Y18321   3.327   4.719   9.798  0.0797 -0.5850  1.1896
  163SOPE   C3618322   3.535   4.674   9.742  0.0994  0.2972  0.3253
  163SOPE   H6X18323   3.547   4.617   9.837 -1.6017 -1.5249 -0.5243
  163SOPE   H6Y18324   3.630   4.731   9.732  0.3714 -0.2393 -0.1399
  163SOPE   C3718325   3.506   4.589   9.615  0.5291  0.4906  0.0578
  163SOPE   H7X18326   3.400   4.558   9.625  0.9981 -0.4860  2.3109
  163SOPE   H7Y18327   3.573   4.500   9.613  0.2154  0.2710 -0.6626
  163SOPE   C3818328   3.505   4.664   9.479 -0.1780 -0.1063 -0.1313
  163SOPE   H8X18329   3.608   4.705   9.464  0.9200 -2.9897 -0.7831
  163SOPE   H8Y18330   3.416   4.729   9.490  0.6948  1.1389 -0.2787
  163SOPE   C3918331   3.471   4.562   9.370  0.6179 -0.9653  0.3853
  163SOPE   H9X18332   3.397   4.485   9.399 -2.2087  0.2232 -3.3046
  163SOPE   H9Y18333   3.559   4.497   9.349  2.5840  1.7366 -0.0653
  163SOPE  C31018334   3.425   4.616   9.231  0.4656 -0.2811 -0.1330
  163SOPE  H10X18335   3.425   4.528   9.163 -0.6677  0.7549 -1.5034
  163SOPE  H10Y18336   3.498   4.689   9.191  0.0156 -0.3775 -1.1508
  163SOPE  C31118337   3.284   4.669   9.232  0.4933 -0.2172  0.3975
  163SOPE  H11X18338   3.255   4.708   9.332 -0.8969  0.6916 -0.3311
  163SOPE  H11Y18339   3.213   4.591   9.197 -0.1375  1.7935 -3.1318
  163SOPE  C31218340   3.251   4.789   9.144  0.3192  0.0410 -0.4980
  163SOPE  H12X18341   3.143   4.807   9.124  0.0010  1.5976  2.3563
  163SOPE  H12Y18342   3.290   4.765   9.043 -0.0612 -0.5763 -0.5000
  163SOPE  C31318343   3.323   4.916   9.191 -0.3945 -0.0381  0.1688
  163SOPE  H13X18344   3.433   4.903   9.192 -0.1498  1.5861 -2.6293
  163SOPE  H13Y18345   3.278   4.944   9.289 -1.5002  3.1719 -1.1986
  163SOPE  C31418346   3.296   5.036   9.094 -0.1135 -0.3426 -0.1538
  163SOPE  H14X18347   3.194   5.068   9.062 -0.2755 -1.7326 -1.0771
  163SOPE  H14Y18348   3.343   5.003   8.999 -0.3926 -0.1906 -0.3438
  163SOPE  C31518349   3.364   5.169   9.135  0.0805  0.1393  0.5439
  163SOPE  H15X18350   3.447   5.153   9.207 -0.2479 -1.4109  0.6101
  163SOPE  H15Y18351   3.280   5.227   9.177  0.6950  0.6452  1.0758
  163SOPE  C31618352   3.392   5.252   9.014 -0.0460  0.1131  0.7006
  163SOPE  H16X18353   3.294   5.279   8.970 -1.2093 -1.6939  2.0918
  163SOPE  H16Y18354   3.452   5.187   8.946 -1.1671 -2.6019  2.2351
  163SOPE  C31718355   3.468   5.384   9.043 -0.2061  0.9686 -0.1965
  163SOPE  H17X18356   3.563   5.360   9.096  1.4172  3.0534 -2.0668
  163SOPE  H17Y18357   3.407   5.457   9.101  1.0042  1.9405 -0.1056
  163SOPE  C31818358   3.541   5.443   8.917 -0.0173 -0.0743 -0.3232
  163SOPE  H18X18359   3.628   5.509   8.937  0.4874 -0.1637 -2.1653
  163SOPE  H18Y18360   3.478   5.499   8.845  0.5256  1.4275  0.3525
  163SOPE  H18Z18361   3.589   5.364   8.856  0.7723 -0.8751  1.3078
  164SOPE     N18362   5.651   3.557  10.973 -0.2699 -0.0174 -0.6982
  164SOPE   HN118363   5.728   3.491  10.996 -1.5090 -1.6693 -1.2369
  164SOPE   HN218364   5.692   3.648  11.001  0.3193 -0.0237 -1.5310
  164SOPE   HN318365   5.568   3.545  11.035 -0.1573  0.0306 -0.5378
  164SOPE   C1218366   5.648   3.553  10.824 -0.5854 -0.2502 -0.0680
  164SOPE  H12A18367   5.557   3.605  10.789 -0.5747  0.1834  0.5451
  164SOPE  H12B18368   5.643   3.446  10.795  0.8975 -0.2087 -0.5585
  164SOPE   C1118369   5.774   3.625  10.765 -0.4129 -0.4507 -0.2579
  164SOPE  H11A18370   5.758   3.721  10.819 -2.6755 -0.6830 -0.4798
  164SOPE  H11B18371   5.755   3.640  10.657 -0.5774 -1.6465 -0.4021
  164SOPE     P18372   6.015   3.626  10.717  0.0424  0.2964 -0.0639
  164SOPE   O1318373   6.133   3.549  10.752  0.4150  0.1441  0.1804
  164SOPE   O1418374   6.015   3.769  10.747  0.9797  0.2422  0.1269
  164SOPE   O1218375   5.899   3.567  10.802 -0.1826  1.0738 -0.9205
  164SOPE   O1118376   5.977   3.597  10.566 -0.0605 -0.4721  0.0961
  164SOPE    C118377   5.941   3.465  10.527  0.4415  0.1223 -0.6299
  164SOPE    HA18378   5.859   3.473  10.452 -0.9945 -1.8542  0.7022
  164SOPE    HB18379   5.896   3.409  10.612  1.1746  0.2127 -0.1714
  164SOPE    C218380   6.069   3.394  10.472  0.8837  0.5943 -0.9588
  164SOPE    HS18381   6.142   3.408  10.554 -2.2208 -1.8791  2.3532
  164SOPE   O2118382   6.105   3.448  10.353 -0.1015  0.0263  0.5569
  164SOPE   C2118383   6.218   3.511  10.335  0.0215  0.2810  0.0769
  164SOPE   O2218384   6.304   3.522  10.416 -0.0560 -0.1663 -0.1205
  164SOPE   C2218385   6.225   3.556  10.187  0.0540  0.6574  0.2908
  164SOPE   H2R18386   6.153   3.640  10.175 -1.2062 -0.5956 -1.0776
  164SOPE   H2S18387   6.196   3.474  10.118  0.9180  0.0470  0.6407
  164SOPE    C318388   6.032   3.249  10.447  0.1848  0.1616 -0.0451
  164SOPE    HX18389   5.949   3.241  10.373  0.5945  1.0448 -0.5995
  164SOPE    HY18390   5.999   3.203  10.543  0.5273 -0.1023 -0.0511
  164SOPE   O3118391   6.146   3.170  10.402  0.6853  0.0134  0.3894
  164SOPE   C3118392   6.240   3.162  10.491  0.5087  0.1131 -0.6528
  164SOPE   O3218393   6.238   3.198  10.608  0.1017  0.0291  0.0621
  164SOPE   C3218394   6.362   3.087  10.434  0.1073 -0.3312  0.1971
  164SOPE   H2X18395   6.365   2.993  10.493 -0.7656  0.5310  1.6635
  164SOPE   H2Y18396   6.443   3.160  10.457 -0.6790 -0.5842  4.1203
  164SOPE   C2318397   6.366   3.604  10.148 -0.9608  0.3872  0.4971
  164SOPE   H3R18398   6.434   3.516  10.150 -0.7125  0.5448 -0.7092
  164SOPE   H3S18399   6.397   3.673  10.230 -1.6054 -1.4824  2.3511
  164SOPE   C2418400   6.371   3.669  10.006 -0.1148 -0.0563  0.5037
  164SOPE   H4R18401   6.297   3.752  10.002  1.0956  1.1063  1.6352
  164SOPE   H4S18402   6.464   3.722   9.978  0.0526 -0.6410 -0.0495
  164SOPE   C2518403   6.360   3.563   9.895 -0.4248 -0.3791  0.4108
  164SOPE   H5R18404   6.447   3.494   9.901 -0.6506 -0.7948 -0.8266
  164SOPE   H5S18405   6.267   3.503   9.898 -1.1487  0.5829 -1.6553
  164SOPE   C2618406   6.378   3.625   9.756  0.2696 -0.0146  0.0212
  164SOPE   H6R18407   6.302   3.706   9.761  1.7692  1.4049  0.5356
  164SOPE   H6S18408   6.473   3.678   9.732 -1.0028  0.9195 -3.3103
  164SOPE   C2718409   6.346   3.527   9.639  0.0024  0.4172 -0.9179
  164SOPE   H7R18410   6.271   3.454   9.677 -0.4986  1.2172 -0.3296
  164SOPE   H7S18411   6.298   3.572   9.549  1.9732  2.1202 -1.1555
  164SOPE   C2818412   6.474   3.462   9.587  0.5812 -0.2433 -0.0394
  164SOPE   H8R18413   6.541   3.534   9.536  2.7053 -0.5079  2.2642
  164SOPE   H8S18414   6.538   3.440   9.676  0.2740 -1.4392 -0.1004
  164SOPE   C2918415   6.461   3.344   9.500  0.0075 -1.0187  0.7006
  164SOPE   H9118416   6.488   3.243   9.536  1.3489 -0.6616  0.7114
  164SOPE  C21018417   6.432   3.343   9.371 -0.8271  0.4437 -0.4729
  164SOPE  H10118418   6.420   3.243   9.326 -2.0863  0.1075  0.5614
  164SOPE  C21118419   6.392   3.465   9.291  0.0393  0.0278  0.8336
  164SOPE  H11R18420   6.401   3.556   9.353 -2.6018 -0.5257  2.1070
  164SOPE  H11S18421   6.290   3.448   9.252  0.0892  2.1944 -0.3153
  164SOPE  C21218422   6.476   3.483   9.163 -0.0134  0.0982 -0.5200
  164SOPE  H12R18423   6.580   3.503   9.196 -0.4920  2.2324 -0.2727
  164SOPE  H12S18424   6.449   3.578   9.113  1.2815 -0.0378 -1.4944
  164SOPE  C21318425   6.470   3.375   9.059 -0.1217 -0.5691  0.7017
  164SOPE  H13R18426   6.371   3.386   9.009  0.4986  1.7624 -0.0964
  164SOPE  H13S18427   6.486   3.275   9.102 -0.1302 -0.5483  0.7535
  164SOPE  C21418428   6.573   3.404   8.946 -0.5877  0.4610  0.3365
  164SOPE  H14R18429   6.593   3.311   8.888 -0.0673  0.9205 -0.2200
  164SOPE  H14S18430   6.660   3.455   8.991  1.2595 -0.4283 -2.1562
  164SOPE  C21518431   6.523   3.497   8.833  1.0323 -0.2312  0.4110
  164SOPE  H15R18432   6.524   3.605   8.859 -4.8533  0.0398  0.3818
  164SOPE  H15S18433   6.418   3.460   8.832  0.7954  0.4367  0.0015
  164SOPE  C21618434   6.590   3.484   8.699  0.2902  0.2934 -0.2703
  164SOPE  H16R18435   6.698   3.459   8.712  0.6567  2.0863  0.2813
  164SOPE  H16S18436   6.598   3.579   8.643  1.0956 -0.0488 -0.7521
  164SOPE  C21718437   6.513   3.395   8.606  0.0723  0.6702 -0.0336
  164SOPE  H17R18438   6.416   3.440   8.574  0.2782 -0.5608 -2.4979
  164SOPE  H17S18439   6.491   3.304   8.665 -1.1312  0.4815 -0.7498
  164SOPE  C21818440   6.574   3.356   8.469  0.6450  0.5961 -0.5947
  164SOPE  H18R18441   6.665   3.292   8.468  0.5654  0.4733 -2.3150
  164SOPE  H18S18442   6.609   3.451   8.423  1.4100  0.5950 -0.0181
  164SOPE  H18T18443   6.495   3.302   8.413  1.4688 -1.4393  0.1630
  164SOPE   C3318444   6.351   3.052  10.279 -0.2313 -0.2377 -0.5033
  164SOPE   H3X18445   6.251   3.008  10.261  0.1131 -2.3375  2.3615
  164SOPE   H3Y18446   6.428   2.976  10.255 -0.1744  0.2538 -1.8830
  164SOPE   C3418447   6.359   3.161  10.169  0.1441 -0.0525  0.2099
  164SOPE   H4X18448   6.459   3.208  10.157 -0.6590  2.1295  1.8116
  164SOPE   H4Y18449   6.288   3.244  10.192 -0.7795 -0.4382 -1.1365
  164SOPE   C3518450   6.328   3.100  10.034  0.5582 -0.6777 -0.0871
  164SOPE   H5X18451   6.232   3.045  10.039 -0.6566  1.2986 -0.9299
  164SOPE   H5Y18452   6.412   3.036  10.001  0.2483 -0.4148 -1.4363
  164SOPE   C3618453   6.326   3.204   9.917  0.4575  0.1093  0.0180
  164SOPE   H6X18454   6.422   3.260   9.925  0.7336 -0.0628 -1.9260
  164SOPE   H6Y18455   6.254   3.288   9.916  0.2739 -0.0388  0.6041
  164SOPE   C3718456   6.317   3.132   9.786 -0.1694 -0.3652 -0.1552
  164SOPE   H7X18457   6.393   3.051   9.787 -1.3240 -1.4725 -0.8366
  164SOPE   H7Y18458   6.338   3.208   9.708 -2.9706  1.4716  0.7924
  164SOPE   C3818459   6.170   3.079   9.749 -0.3707 -0.2102  0.1983
  164SOPE   H8X18460   6.104   3.166   9.730 -0.1395 -0.0508  0.1280
  164SOPE   H8Y18461   6.128   3.023   9.836 -0.8394 -1.6212 -0.9200
  164SOPE   C3918462   6.162   3.001   9.615  0.4180 -0.1227 -0.0786
  164SOPE   H9X18463   6.196   2.898   9.636  1.6396 -0.1342 -2.0175
  164SOPE   H9Y18464   6.206   3.051   9.526 -3.4063  1.3343 -1.2679
  164SOPE  C31018465   6.019   2.971   9.571  0.2810 -0.1899  1.0270
  164SOPE  H10X18466   5.956   3.063   9.559 -0.7838 -0.8181  1.7008
  164SOPE  H10Y18467   5.963   2.918   9.652 -1.8967  0.4462 -0.0214
  164SOPE  C31118468   6.014   2.887   9.444 -0.7652 -0.1295 -0.5185
  164SOPE  H11X18469   6.074   2.796   9.463  0.1256  0.2820 -1.3295
  164SOPE  H11Y18470   6.056   2.957   9.368  3.7283 -1.8106  0.2499
  164SOPE  C31218471   5.879   2.837   9.404 -0.0711 -0.1326 -0.4882
  164SOPE  H12X18472   5.806   2.911   9.445  0.1751 -1.7452  3.0167
  164SOPE  H12Y18473   5.850   2.739   9.447  0.1436  0.4894  1.0885
  164SOPE  C31318474   5.851   2.820   9.255 -0.0177  0.2567  0.3331
  164SOPE  H13X18475   5.886   2.916   9.211  1.3716  1.1419  3.1958
  164SOPE  H13Y18476   5.742   2.809   9.236 -0.9381  5.4310  1.6670
  164SOPE  C31418477   5.939   2.717   9.187 -0.2190 -0.2181 -0.1216
  164SOPE  H14X18478   5.945   2.623   9.246  1.5704  1.3481  2.3014
  164SOPE  H14Y18479   6.043   2.756   9.185 -0.2793 -0.0784 -0.9524
  164SOPE  C31518480   5.900   2.683   9.042  1.1582  0.9105 -0.1404
  164SOPE  H15X18481   5.920   2.771   8.978  1.7315 -0.4112 -1.8275
  164SOPE  H15Y18482   5.791   2.673   9.024  0.7675  1.0478  2.0196
  164SOPE  C31618483   5.958   2.556   8.981 -0.5571  0.0876  0.0003
  164SOPE  H16X18484   5.936   2.474   9.052  1.3549  0.3748  0.9624
  164SOPE  H16Y18485   6.069   2.563   8.992 -0.5245  0.7014 -0.6743
  164SOPE  C31718486   5.904   2.516   8.844 -0.2337  0.6904 -0.8783
  164SOPE  H17X18487   5.806   2.475   8.873  1.2449 -2.4127 -0.0541
  164SOPE  H17Y18488   5.969   2.435   8.806 -2.8710 -2.2779  0.7831
  164SOPE  C31818489   5.902   2.625   8.733 -0.0651 -0.1218  0.4044
  164SOPE  H18X18490   5.838   2.710   8.762  1.3593  1.3250 -0.6256
  164SOPE  H18Y18491   5.860   2.572   8.644  0.5606  0.9692 -0.5440
  164SOPE  H18Z18492   6.005   2.660   8.712  1.1381 -2.0318  2.8983
  165SOPE     N18493   3.929   4.310  10.405  0.2369 -0.2475  0.5202
  165SOPE   HN118494   3.848   4.260  10.362  0.7731  0.8444 -1.8392
  165SOPE   HN218495   4.007   4.290  10.339  0.2840  2.6039 -0.3527
  165SOPE   HN318496   3.958   4.258  10.490 -1.3997 -1.1313  0.5493
  165SOPE   C1218497   3.924   4.454  10.430  0.1795  0.3266  0.5324
  165SOPE  H12A18498   3.841   4.471  10.502  1.5576  0.6256  2.0739
  165SOPE  H12B18499   3.891   4.509  10.339 -0.1407  2.2160  1.7833
  165SOPE   C1118500   4.060   4.507  10.477  0.2150 -0.4441 -0.3519
  165SOPE  H11A18501   4.060   4.618  10.468 -0.7631 -0.1154  2.9960
  165SOPE  H11B18502   4.146   4.474  10.415  0.4271  1.9171 -1.3560
  165SOPE     P18503   4.178   4.525  10.708 -0.1503 -0.1310  0.0452
  165SOPE   O1318504   4.221   4.426  10.808  0.1765 -0.5804 -0.0469
  165SOPE   O1418505   4.123   4.645  10.771  0.6403 -0.0299 -0.0974
  165SOPE   O1218506   4.065   4.455  10.608  0.2232  0.1721 -0.1324
  165SOPE   O1118507   4.300   4.568  10.615  0.0449 -0.1177 -0.3853
  165SOPE    C118508   4.401   4.474  10.570  0.2603  0.1547  0.2945
  165SOPE    HA18509   4.354   4.381  10.531  2.6646 -0.5383 -1.0924
  165SOPE    HB18510   4.481   4.458  10.645 -0.2950 -2.4707  0.3728
  165SOPE    C218511   4.475   4.540  10.452 -0.2809  0.3045 -0.1893
  165SOPE    HS18512   4.491   4.641  10.494 -4.1988  0.8557  0.1995
  165SOPE   O2118513   4.384   4.542  10.340 -0.0163  0.6002 -0.2196
  165SOPE   C2118514   4.401   4.642  10.259  0.1209  0.3283  1.3714
  165SOPE   O2218515   4.472   4.738  10.287 -0.3300 -0.5165 -0.5811
  165SOPE   C2218516   4.350   4.607  10.124  0.0089  0.3734  0.1490
  165SOPE   H2R18517   4.239   4.611  10.126  0.0439  1.2519  0.5167
  165SOPE   H2S18518   4.377   4.502  10.099  0.2037  0.2461  0.8968
  165SOPE    C318519   4.613   4.462  10.425  0.9467  0.1893 -0.3193
  165SOPE    HX18520   4.601   4.355  10.399  1.2282  0.0278  0.2026
  165SOPE    HY18521   4.663   4.456  10.524  1.8391 -1.0082 -0.8293
  165SOPE   O3118522   4.694   4.533  10.332  0.4470 -0.3708  0.3035
  165SOPE   C3118523   4.690   4.489  10.209  0.1932  0.4154  0.0980
  165SOPE   O3218524   4.636   4.385  10.168  0.3712  0.2284 -0.4141
  165SOPE   C3218525   4.772   4.581  10.116 -0.1570 -0.1593 -0.1136
  165SOPE   H2X18526   4.869   4.604  10.165 -0.7378 -0.2080  1.0893
  165SOPE   H2Y18527   4.721   4.680  10.118 -1.0724 -0.6130 -0.3248
  165SOPE   C2318528   4.408   4.689  10.007  0.3124 -0.1554  0.7773
  165SOPE   H3R18529   4.519   4.696  10.010  0.3401  0.0864 -0.3710
  165SOPE   H3S18530   4.363   4.790  10.002  0.6460 -0.0358  0.0616
  165SOPE   C2418531   4.386   4.632   9.871 -0.0290  0.1007  0.1222
  165SOPE   H4R18532   4.459   4.549   9.864  0.2740  0.3856 -0.0855
  165SOPE   H4S18533   4.280   4.603   9.858 -0.0842  1.2984 -2.2049
  165SOPE   C2518534   4.416   4.736   9.761  0.6060 -0.1014  0.0507
  165SOPE   H5R18535   4.348   4.823   9.772 -1.4754 -1.5150 -1.2061
  165SOPE   H5S18536   4.519   4.777   9.766 -0.5199  2.6637  1.3573
  165SOPE   C2618537   4.397   4.685   9.616  0.9006  0.3426  0.0668
  165SOPE   H6R18538   4.459   4.594   9.604  0.2770  0.0489 -1.0129
  165SOPE   H6S18539   4.288   4.663   9.603  1.0415 -0.2316 -0.1716
  165SOPE   C2718540   4.432   4.786   9.510 -0.4929  0.7217 -0.7577
  165SOPE   H7R18541   4.366   4.876   9.511 -1.5182 -0.0299  0.4171
  165SOPE   H7S18542   4.529   4.826   9.548 -2.1252  3.7049  0.4482
  165SOPE   C2818543   4.457   4.735   9.367  0.1750  0.0388 -0.0012
  165SOPE   H8R18544   4.510   4.817   9.313 -0.0837  0.0319 -0.2674
  165SOPE   H8S18545   4.517   4.642   9.366 -1.2436 -0.8833 -0.4755
  165SOPE   C2918546   4.331   4.695   9.293  0.1032  0.6156  0.1700
  165SOPE   H9118547   4.252   4.650   9.355 -0.0634  0.1324 -0.3896
  165SOPE  C21018548   4.301   4.735   9.170  0.2917  0.5311 -0.1919
  165SOPE  H10118549   4.196   4.718   9.143  0.3234 -0.5416  0.3385
  165SOPE  C21118550   4.390   4.821   9.085  0.5376 -0.4632  0.5149
  165SOPE  H11R18551   4.383   4.782   8.981 -1.1014  0.3450  0.3128
  165SOPE  H11S18552   4.499   4.824   9.108  0.6268  0.0329  0.0293
  165SOPE  C21218553   4.323   4.962   9.092 -0.1490 -0.3224 -0.4521
  165SOPE  H12R18554   4.400   5.039   9.067 -0.4952  0.1842  0.0432
  165SOPE  H12S18555   4.279   4.986   9.191 -1.7177  0.7339 -1.3735
  165SOPE  C21318556   4.215   4.977   8.985 -0.0874  0.3416  0.2382
  165SOPE  H13R18557   4.157   5.070   9.002  0.3536  0.3422  1.8575
  165SOPE  H13S18558   4.141   4.894   8.999  0.0754 -0.1231 -1.5867
  165SOPE  C21418559   4.289   4.978   8.851  0.3639 -0.2032 -0.1135
  165SOPE  H14R18560   4.306   4.872   8.826 -1.3614 -0.5246  0.0606
  165SOPE  H14S18561   4.389   5.026   8.865 -0.5248  0.9747  2.5485
  165SOPE  C21518562   4.223   5.055   8.730  0.1864 -0.1006 -0.4105
  165SOPE  H15R18563   4.293   5.063   8.644 -0.9661 -0.8546 -1.4313
  165SOPE  H15S18564   4.218   5.161   8.765  1.0721  0.0873 -0.8234
  165SOPE  C21618565   4.086   4.997   8.693 -0.2938 -0.7561  0.0739
  165SOPE  H16R18566   4.018   4.998   8.781 -0.1186  4.3956  0.2858
  165SOPE  H16S18567   4.093   4.887   8.678  1.0553 -0.4275 -1.8281
  165SOPE  C21718568   4.011   5.066   8.572 -0.6766 -0.4256  0.5870
  165SOPE  H17R18569   3.937   4.998   8.526  0.5907  0.4154 -2.8478
  165SOPE  H17S18570   4.085   5.076   8.490 -2.3235 -0.2844 -0.8989
  165SOPE  C21818571   3.938   5.194   8.606  0.4556  1.5954  0.0064
  165SOPE  H18R18572   3.996   5.267   8.667  0.3428  1.3821  0.3717
  165SOPE  H18S18573   3.838   5.178   8.652 -0.0696 -0.3323 -1.7505
  165SOPE  H18T18574   3.908   5.246   8.513 -0.0725  1.7647  0.2652
  165SOPE   C3318575   4.768   4.541   9.960 -0.1619  0.0789  0.2750
  165SOPE   H3X18576   4.664   4.512   9.935 -0.0018 -1.1643  1.0136
  165SOPE   H3Y18577   4.829   4.450   9.950 -0.5539 -0.3189  1.4218
  165SOPE   C3418578   4.809   4.651   9.866 -0.5853 -0.0898  0.3061
  165SOPE   H4X18579   4.888   4.714   9.912 -0.1271 -1.3092  1.2321
  165SOPE   H4Y18580   4.724   4.716   9.837 -0.5201 -0.4482 -0.7293
  165SOPE   C3518581   4.856   4.594   9.726 -0.1928 -0.3197 -0.0254
  165SOPE   H5X18582   4.783   4.518   9.690 -0.0045 -0.6778  0.3384
  165SOPE   H5Y18583   4.947   4.533   9.746  1.4305  2.1904  0.4540
  165SOPE   C3618584   4.868   4.707   9.627  0.4124  0.2325  0.4011
  165SOPE   H6X18585   4.941   4.782   9.665  0.2882  0.9288 -0.7078
  165SOPE   H6Y18586   4.768   4.755   9.625 -0.1065 -0.8748 -0.2920
  165SOPE   C3718587   4.883   4.653   9.483  0.5165 -0.8835 -0.0162
  165SOPE   H7X18588   4.804   4.580   9.454  1.2464 -1.1548 -1.3427
  165SOPE   H7Y18589   4.983   4.609   9.466  1.8826  1.8472  0.5924
  165SOPE   C3818590   4.871   4.773   9.377 -0.6537  0.4237 -0.5835
  165SOPE   H8X18591   4.938   4.853   9.414 -1.6439  1.0220 -0.0428
  165SOPE   H8Y18592   4.764   4.800   9.387 -0.8825 -0.3057 -1.0092
  165SOPE   C3918593   4.882   4.729   9.227 -0.0225 -0.3309 -0.3306
  165SOPE   H9X18594   4.819   4.795   9.164 -3.2359 -2.5057  0.4694
  165SOPE   H9Y18595   4.837   4.628   9.209  2.4460 -1.2662 -1.4711
  165SOPE  C31018596   5.020   4.738   9.165  0.1763 -0.5542 -0.1797
  165SOPE  H10X18597   5.082   4.660   9.215 -1.8305 -2.1547 -0.1125
  165SOPE  H10Y18598   5.060   4.837   9.196  0.2005 -1.4362  2.8121
  165SOPE  C31118599   5.023   4.716   9.021 -0.7933  0.1907  0.4913
  165SOPE  H11X18600   5.039   4.818   8.981  0.2844  0.3526  1.3235
  165SOPE  H11Y18601   4.930   4.670   8.980 -0.6733  2.0313 -2.0027
  165SOPE  C31218602   5.147   4.636   8.975  0.6732 -0.6932 -0.1163
  165SOPE  H12X18603   5.139   4.529   9.006 -2.0093 -0.6313 -0.4884
  165SOPE  H12Y18604   5.230   4.672   9.039  0.4162  3.0546 -1.7524
  165SOPE  C31318605   5.166   4.642   8.823  0.5863 -0.3044  0.8824
  165SOPE  H13X18606   5.145   4.742   8.780  0.9502 -1.1634 -1.4194
  165SOPE  H13Y18607   5.098   4.572   8.769  2.4870 -0.9429 -0.7753
  165SOPE  C31418608   5.309   4.620   8.769 -0.5894 -0.6815  0.5425
  165SOPE  H14X18609   5.346   4.517   8.791  2.9468 -0.0710 -2.0721
  165SOPE  H14Y18610   5.383   4.692   8.810 -0.5927 -0.3621 -0.0096
  165SOPE  C31518611   5.305   4.637   8.616 -0.4895 -0.7164 -0.1032
  165SOPE  H15X18612   5.298   4.741   8.580 -1.4957 -0.6242  0.3467
  165SOPE  H15Y18613   5.215   4.581   8.581 -1.1830 -0.1404  0.7376
  165SOPE  C31618614   5.433   4.578   8.564 -0.5677 -0.4467 -0.3968
  165SOPE  H16X18615   5.412   4.571   8.455 -1.3512  0.6667 -0.3254
  165SOPE  H16Y18616   5.447   4.475   8.602  2.3818  0.8319  2.2209
  165SOPE  C31718617   5.549   4.661   8.595  0.2078 -0.0072  0.3809
  165SOPE  H17X18618   5.556   4.672   8.705 -1.6868 -0.6774  0.5885
  165SOPE  H17Y18619   5.539   4.764   8.554  0.0340 -0.7145 -1.3818
  165SOPE  C31818620   5.676   4.603   8.531 -0.1938  0.4763  0.4385
  165SOPE  H18X18621   5.694   4.496   8.556  0.2544  0.2989 -0.6346
  165SOPE  H18Y18622   5.756   4.661   8.583 -0.4811  0.3316  1.0478
  165SOPE  H18Z18623   5.679   4.614   8.421  1.0832 -2.6585  0.1218
  166SOPE     N18624   1.383   4.399  10.981  0.0506  0.1510 -0.3853
  166SOPE   HN118625   1.297   4.448  11.013 -1.3502 -1.4211 -1.6351
  166SOPE   HN218626   1.351   4.332  10.907 -0.6687 -1.0379  0.9619
  166SOPE   HN318627   1.427   4.345  11.058  0.6683  0.7284 -0.3291
  166SOPE   C1218628   1.471   4.511  10.924  0.3732  0.2311 -0.6218
  166SOPE  H12A18629   1.519   4.483  10.828 -0.7190 -0.2314 -1.0474
  166SOPE  H12B18630   1.543   4.541  11.002  0.5686  0.0821 -0.7475
  166SOPE   C1118631   1.403   4.640  10.890 -0.5973 -0.0873 -0.6079
  166SOPE  H11A18632   1.326   4.625  10.812 -1.0003  1.4438 -0.5047
  166SOPE  H11B18633   1.477   4.703  10.837 -2.3122  0.6274 -2.1961
  166SOPE     P18634   1.215   4.685  11.070 -0.5183  0.0444 -0.1480
  166SOPE   O1318635   1.194   4.778  11.182 -0.0064  0.4523  0.0925
  166SOPE   O1418636   1.194   4.539  11.087 -0.0844 -0.8536 -0.0748
  166SOPE   O1218637   1.357   4.702  11.015  0.4275  0.0753  0.2352
  166SOPE   O1118638   1.123   4.733  10.950 -0.5364  0.1766  0.1655
  166SOPE    C118639   1.015   4.659  10.889 -0.3772  0.1664  0.6411
  166SOPE    HA18640   0.915   4.699  10.919 -1.1303 -2.1955  1.4322
  166SOPE    HB18641   1.031   4.550  10.905  0.3888 -0.0066 -1.1637
  166SOPE    C218642   1.032   4.670  10.732  0.8367  0.1171 -0.1738
  166SOPE    HS18643   1.132   4.623  10.719  1.0414  0.3815  0.4553
  166SOPE   O2118644   1.034   4.803  10.692 -0.9743 -0.8413  0.6588
  166SOPE   C2118645   1.099   4.832  10.574  0.8907 -0.3355 -0.7799
  166SOPE   O2218646   1.152   4.754  10.499 -0.4636 -0.0326 -0.0223
  166SOPE   C2218647   1.095   4.986  10.563 -0.0131 -0.1497  0.1098
  166SOPE   H2R18648   1.138   5.029  10.656 -1.6331 -0.7101  1.1418
  166SOPE   H2S18649   0.990   5.021  10.554  0.4655  1.7460  1.5430
  166SOPE    C318650   0.916   4.590  10.654 -0.1717 -0.9926  0.2253
  166SOPE    HX18651   0.815   4.638  10.659 -0.0158 -0.5721 -0.5053
  166SOPE    HY18652   0.898   4.492  10.701 -0.7932 -0.8904  0.2163
  166SOPE   O3118653   0.942   4.566  10.518 -0.2215  0.1021  0.0373
  166SOPE   C3118654   1.003   4.453  10.491  0.7229  0.2768 -0.0491
  166SOPE   O3218655   1.017   4.362  10.571  0.4518 -0.1020  0.2625
  166SOPE   C3218656   1.045   4.449  10.342  0.5787  0.2498  0.6836
  166SOPE   H2X18657   1.144   4.496  10.329  1.2887 -1.6308 -0.8968
  166SOPE   H2Y18658   0.965   4.498  10.281 -0.4736 -1.9759  0.2148
  166SOPE   C2318659   1.196   5.045  10.460 -0.0899  0.0933 -0.2673
  166SOPE   H3R18660   1.289   4.984  10.458 -1.7025 -2.4666 -0.5786
  166SOPE   H3S18661   1.234   5.145  10.488 -1.7759 -0.0620  2.8651
  166SOPE   C2418662   1.139   5.050  10.317  0.5975  0.2653  0.0221
  166SOPE   H4R18663   1.112   4.947  10.282 -1.2084  0.1841  1.5682
  166SOPE   H4S18664   1.048   5.113  10.304 -0.4535 -0.7756  2.1020
  166SOPE   C2518665   1.239   5.107  10.218 -0.6040 -0.6026  0.2018
  166SOPE   H5R18666   1.257   5.215  10.237 -1.1297  0.2674 -3.6947
  166SOPE   H5S18667   1.340   5.063  10.235  0.3185  1.4275  0.0837
  166SOPE   C2618668   1.194   5.094  10.071 -0.2519  0.2440 -0.9245
  166SOPE   H6R18669   1.177   4.986  10.049 -2.1328 -0.1098  1.9981
  166SOPE   H6S18670   1.103   5.157  10.060 -1.5351 -1.5823 -1.0084
  166SOPE   C2718671   1.306   5.122   9.966 -0.0377 -0.6284  0.6666
  166SOPE   H7R18672   1.362   5.208  10.008  0.2347  0.9449 -2.7764
  166SOPE   H7S18673   1.365   5.028   9.954 -1.0614 -1.1444 -0.4344
  166SOPE   C2818674   1.240   5.160   9.827 -0.9627 -0.2452 -0.7167
  166SOPE   H8R18675   1.197   5.065   9.788  1.7018 -0.6272 -2.8113
  166SOPE   H8S18676   1.164   5.240   9.843 -1.9430 -1.6700  2.1199
  166SOPE   C2918677   1.327   5.218   9.721 -0.3957  0.7315 -0.2809
  166SOPE   H9118678   1.431   5.202   9.754 -1.4335 -2.1062  1.7912
  166SOPE  C21018679   1.276   5.282   9.612  0.3572 -0.3074 -0.6861
  166SOPE  H10118680   1.344   5.330   9.540 -0.4898 -2.3071 -2.8761
  166SOPE  C21118681   1.137   5.300   9.573  0.5083 -0.2737 -0.3139
  166SOPE  H11R18682   1.109   5.407   9.586 -0.2988 -0.3671 -1.2048
  166SOPE  H11S18683   1.070   5.234   9.632  1.5988 -0.6231  0.5372
  166SOPE  C21218684   1.105   5.271   9.424 -0.6342  0.2096  0.5216
  166SOPE  H12R18685   0.996   5.292   9.413 -0.4853  0.9301  0.4227
  166SOPE  H12S18686   1.119   5.165   9.394 -1.6656  0.1449  0.2242
  166SOPE  C21318687   1.190   5.348   9.319  0.3241  0.1819 -0.2759
  166SOPE  H13R18688   1.294   5.345   9.357  0.4575  0.8921 -0.5782
  166SOPE  H13S18689   1.168   5.457   9.321 -0.3940  0.0564 -1.1776
  166SOPE  C21418690   1.187   5.286   9.183  0.0201  0.0368  0.8985
  166SOPE  H14R18691   1.088   5.283   9.133 -0.0063  1.0225  0.9002
  166SOPE  H14S18692   1.212   5.178   9.200 -1.4769 -0.6482 -1.1236
  166SOPE  C21518693   1.286   5.349   9.090 -0.2067 -1.0023 -0.4877
  166SOPE  H15R18694   1.384   5.381   9.130  0.1821  0.3991 -2.4287
  166SOPE  H15S18695   1.240   5.448   9.067  0.7428 -1.2475 -3.7248
  166SOPE  C21618696   1.317   5.266   8.961 -0.3622  0.2049 -0.0742
  166SOPE  H16R18697   1.355   5.334   8.882 -0.6736  1.3520  0.7609
  166SOPE  H16S18698   1.233   5.203   8.923  0.0687 -0.6856  0.4255
  166SOPE  C21718699   1.432   5.161   8.984  1.1707 -0.7689 -0.0559
  166SOPE  H17R18700   1.407   5.096   9.070 -0.9989 -2.2583 -1.7361
  166SOPE  H17S18701   1.532   5.203   9.007  0.8942  0.7022 -1.4446
  166SOPE  C21818702   1.444   5.067   8.865 -0.5988 -0.3789  0.4654
  166SOPE  H18R18703   1.544   5.019   8.868 -0.6661 -0.5164  0.5021
  166SOPE  H18S18704   1.428   5.117   8.767 -0.6892 -1.4461 -0.0759
  166SOPE  H18T18705   1.359   4.996   8.869  0.0436 -1.2780 -1.4476
  166SOPE   C3318706   1.069   4.298  10.280 -0.4223  0.2718  0.3234
  166SOPE   H3X18707   0.971   4.248  10.261  0.0011 -0.1306 -0.8428
  166SOPE   H3Y18708   1.131   4.241  10.351  0.3944 -0.4168 -0.9232
  166SOPE   C3418709   1.126   4.301  10.140 -0.1891 -0.4537 -0.4503
  166SOPE   H4X18710   1.232   4.330  10.156 -0.7954  0.7343  1.7276
  166SOPE   H4Y18711   1.082   4.375  10.070 -0.3986 -0.1160  0.0328
  166SOPE   C3518712   1.113   4.156  10.078  0.2053  0.3693  0.0191
  166SOPE   H5X18713   1.004   4.135  10.078  0.8027 -3.0659 -0.3405
  166SOPE   H5Y18714   1.172   4.081  10.134 -0.1140  2.8929  3.8617
  166SOPE   C3618715   1.176   4.146   9.938 -0.2163  0.1037 -0.4966
  166SOPE   H6X18716   1.202   4.041   9.916 -0.3529 -0.0335 -0.0084
  166SOPE   H6Y18717   1.276   4.195   9.942 -0.4365  0.5095  0.1592
  166SOPE   C3718718   1.090   4.208   9.821  0.4063  0.6059 -0.0593
  166SOPE   H7X18719   1.084   4.317   9.842  2.2756  1.3563 -2.9994
  166SOPE   H7Y18720   0.984   4.175   9.810  0.2327  0.7628  1.0985
  166SOPE   C3818721   1.147   4.188   9.679 -0.0216 -0.1570 -0.1571
  166SOPE   H8X18722   1.154   4.080   9.654 -1.9254 -0.6742  1.4749
  166SOPE   H8Y18723   1.256   4.211   9.682 -0.6186  3.1809 -1.8093
  166SOPE   C3918724   1.101   4.293   9.572  0.0695 -0.3846  0.5196
  166SOPE   H9X18725   1.130   4.394   9.607  1.8871 -0.4164 -0.8083
  166SOPE   H9Y18726   0.994   4.289   9.545  0.5825 -1.0286 -1.5393
  166SOPE  C31018727   1.172   4.273   9.437 -0.3339  0.1510 -0.3271
  166SOPE  H10X18728   1.164   4.164   9.422  0.6141 -0.1426  1.2077
  166SOPE  H10Y18729   1.281   4.289   9.447 -0.4329  1.0377 -0.5858
  166SOPE  C31118730   1.127   4.361   9.325  0.0866  0.7932 -0.3955
  166SOPE  H11X18731   1.172   4.463   9.327  1.3586  0.2789 -1.8826
  166SOPE  H11Y18732   1.017   4.379   9.335  0.3146  2.4026 -0.5730
  166SOPE  C31218733   1.154   4.308   9.182  0.3429 -0.3804  0.5014
  166SOPE  H12X18734   1.080   4.224   9.178 -0.3072  0.3170 -3.6536
  166SOPE  H12Y18735   1.256   4.264   9.175  0.3689 -0.2648  0.1564
  166SOPE  C31318736   1.135   4.400   9.067 -0.1613 -0.3584 -0.2871
  166SOPE  H13X18737   1.216   4.473   9.087  0.4544 -1.6182  1.9168
  166SOPE  H13Y18738   1.043   4.461   9.077  0.7684  1.1691 -0.9085
  166SOPE  C31418739   1.159   4.324   8.935  0.3958 -0.4421  0.0893
  166SOPE  H14X18740   1.061   4.273   8.920 -0.7408  0.6103  3.4068
  166SOPE  H14Y18741   1.244   4.254   8.946 -0.3904 -1.2108  1.3872
  166SOPE  C31518742   1.188   4.415   8.813 -0.9529  0.4745  0.1435
  166SOPE  H15X18743   1.291   4.456   8.805 -1.0102  0.7557  0.7456
  166SOPE  H15Y18744   1.109   4.492   8.809 -0.7327  0.6093 -1.9935
  166SOPE  C31618745   1.167   4.335   8.681  0.2702 -0.0249 -0.0112
  166SOPE  H16X18746   1.092   4.383   8.614 -0.1565 -0.6947 -0.0258
  166SOPE  H16Y18747   1.106   4.248   8.715 -1.8053  0.3934 -2.5162
  166SOPE  C31718748   1.289   4.281   8.606  0.5955  0.0617  0.8604
  166SOPE  H17X18749   1.354   4.218   8.670  0.1095  0.1873  1.4835
  166SOPE  H17Y18750   1.343   4.372   8.572  1.0284 -1.0327 -1.4662
  166SOPE  C31818751   1.258   4.196   8.481 -0.7978 -0.2750 -0.0187
  166SOPE  H18X18752   1.349   4.181   8.420  0.5780  1.4348  1.5180
  166SOPE  H18Y18753   1.191   4.248   8.409  0.9289 -1.2795 -2.3940
  166SOPE  H18Z18754   1.206   4.102   8.507  2.2853 -2.3290 -1.0543
  167SOPE     N18755   1.773   2.856   6.679 -0.2383  0.1986  0.3197
  167SOPE   HN118756   1.761   2.765   6.728  0.0334  0.1765  0.3457
  167SOPE   HN218757   1.871   2.883   6.700 -1.3103  2.2864  3.0136
  167SOPE   HN318758   1.706   2.928   6.713  0.9423  1.9490 -0.9598
  167SOPE   C1218759   1.739   2.843   6.537 -0.1601  0.5736 -0.3263
  167SOPE  H12A18760   1.753   2.943   6.490  1.0721  0.5693  0.0312
  167SOPE  H12B18761   1.632   2.818   6.520  0.4097 -1.3985 -1.1386
  167SOPE   C1118762   1.834   2.737   6.476 -0.0154 -0.7882  0.0072
  167SOPE  H11A18763   1.800   2.699   6.378  1.5244 -2.9728  0.2784
  167SOPE  H11B18764   1.850   2.650   6.544  3.0977  1.1409  1.8408
  167SOPE     P18765   2.012   2.846   6.327  0.0380  0.4491  0.0400
  167SOPE   O1318766   1.910   2.932   6.274  0.1394 -0.0355  0.3675
  167SOPE   O1418767   2.063   2.737   6.249 -0.2345  0.3138  0.1467
  167SOPE   O1218768   1.967   2.790   6.465 -0.2107  0.5655  0.2925
  167SOPE   O1118769   2.135   2.934   6.367 -0.0087  0.1858 -0.5716
  167SOPE    C118770   2.119   3.007   6.490 -0.2089 -0.8629 -0.3069
  167SOPE    HA18771   2.017   3.021   6.531  0.1366 -1.2618  0.6990
  167SOPE    HB18772   2.153   3.112   6.476  1.3761 -1.2192  0.6767
  167SOPE    C218773   2.213   2.947   6.603  0.1566  0.1504  0.4123
  167SOPE    HS18774   2.178   2.842   6.616  1.7398 -0.5960 -1.1217
  167SOPE   O2118775   2.213   3.038   6.716  0.0635  0.1649 -0.3640
  167SOPE   C2118776   2.106   3.009   6.795  0.3069  0.4850  0.0290
  167SOPE   O2218777   2.024   2.923   6.772  0.0518 -0.4511  0.0380
  167SOPE   C2218778   2.109   3.104   6.916  0.4728 -0.0581  0.3098
  167SOPE   H2R18779   2.106   3.213   6.896 -1.8293  0.0244  1.0215
  167SOPE   H2S18780   2.205   3.086   6.968 -0.2257 -0.9689  1.2913
  167SOPE    C318781   2.358   2.926   6.541 -0.1379 -0.1279  0.7995
  167SOPE    HX18782   2.396   3.030   6.529 -0.7900  0.0139 -0.0985
  167SOPE    HY18783   2.354   2.874   6.443 -2.3218  0.5083  0.5068
  167SOPE   O3118784   2.430   2.863   6.644  0.0107  0.7049 -0.4608
  167SOPE   C3118785   2.561   2.873   6.621 -0.0602  0.0284 -0.1949
  167SOPE   O3218786   2.601   2.929   6.518 -0.1276  0.4692  0.9942
  167SOPE   C3218787   2.647   2.823   6.737 -1.0344  0.2806  0.2098
  167SOPE   H2X18788   2.628   2.714   6.743 -0.1910  0.1123 -0.0274
  167SOPE   H2Y18789   2.617   2.867   6.834 -1.4562 -0.8096  0.5737
  167SOPE   C2318790   1.990   3.072   7.023 -0.4832  0.5538 -0.1452
  167SOPE   H3R18791   2.011   2.971   7.064 -1.0290  1.3908  2.2564
  167SOPE   H3S18792   1.894   3.061   6.969 -0.6704  1.8163 -0.0823
  167SOPE   C2418793   1.993   3.174   7.141 -0.0535  0.6343 -0.9698
  167SOPE   H4R18794   2.012   3.273   7.094 -0.1125  1.0474 -0.1384
  167SOPE   H4S18795   1.898   3.174   7.199  0.6053  4.3697  0.2391
  167SOPE   C2518796   2.111   3.143   7.241  0.1662  0.2219  0.3543
  167SOPE   H5R18797   2.124   3.033   7.257  0.0969  0.1772  0.0930
  167SOPE   H5S18798   2.209   3.175   7.199 -0.6448  0.6813 -1.2047
  167SOPE   C2618799   2.112   3.211   7.381  0.0580  0.4932  0.2273
  167SOPE   H6R18800   2.055   3.153   7.456 -1.2131 -0.9042 -1.7878
  167SOPE   H6S18801   2.220   3.221   7.408  0.7041 -2.7477 -0.9469
  167SOPE   C2718802   2.055   3.356   7.387 -0.1016  0.9784  0.2044
  167SOPE   H7R18803   2.118   3.410   7.313  3.2826 -1.2920  1.2461
  167SOPE   H7S18804   1.950   3.360   7.354  0.5690  0.4678 -2.0692
  167SOPE   C2818805   2.052   3.420   7.524 -1.1602 -0.5001 -0.7668
  167SOPE   H8R18806   1.998   3.516   7.534  0.5275  0.3051  0.8947
  167SOPE   H8S18807   1.993   3.351   7.587 -0.2149  0.2580  0.9823
  167SOPE   C2918808   2.190   3.437   7.583 -1.1407  0.9938 -0.3558
  167SOPE   H9118809   2.262   3.452   7.501 -0.9877 -0.7983 -0.5725
  167SOPE  C21018810   2.215   3.448   7.720  0.5171  0.5441  0.6310
  167SOPE  H10118811   2.320   3.468   7.746  1.0151  1.3166 -1.8004
  167SOPE  C21118812   2.114   3.434   7.831 -0.0172  0.4454 -0.0391
  167SOPE  H11R18813   2.017   3.406   7.785 -2.3122  4.2042  2.2239
  167SOPE  H11S18814   2.091   3.532   7.880  0.3827  0.1702  0.7070
  167SOPE  C21218815   2.150   3.342   7.942  0.1731  0.5768 -0.4298
  167SOPE  H12R18816   2.182   3.240   7.912 -0.4730  0.9677 -2.5031
  167SOPE  H12S18817   2.062   3.319   8.005  0.7052 -2.7846 -0.8178
  167SOPE  C21318818   2.265   3.395   8.032 -0.1607  0.0231 -0.7141
  167SOPE  H13R18819   2.255   3.505   8.046  0.8956 -0.3978  4.6026
  167SOPE  H13S18820   2.357   3.382   7.971 -0.8401 -0.9938 -1.5409
  167SOPE  C21418821   2.280   3.315   8.175  0.4289  0.5359  0.3433
  167SOPE  H14R18822   2.314   3.211   8.156  1.2202  0.3421  2.6574
  167SOPE  H14S18823   2.175   3.316   8.211  0.5216  1.4122  0.6093
  167SOPE  C21518824   2.370   3.382   8.281  0.3107  0.1453  1.1157
  167SOPE  H15R18825   2.317   3.477   8.301  1.3807  0.5081  2.3169
  167SOPE  H15S18826   2.467   3.401   8.229 -0.0301 -1.4686 -0.1609
  167SOPE  C21618827   2.393   3.294   8.404  0.2534  0.3581  0.2590
  167SOPE  H16R18828   2.412   3.185   8.390  0.8549  0.4613  0.3009
  167SOPE  H16S18829   2.298   3.315   8.459 -0.2626 -0.2099 -0.4015
  167SOPE  C21718830   2.514   3.347   8.470 -0.2304 -0.3584 -0.7022
  167SOPE  H17R18831   2.511   3.456   8.444 -0.2920  0.0714  1.0638
  167SOPE  H17S18832   2.595   3.302   8.409  1.3334 -1.1610  1.8967
  167SOPE  C21818833   2.539   3.309   8.614  0.0051  0.3420  0.6886
  167SOPE  H18R18834   2.525   3.200   8.624  1.0738  0.2081  0.7266
  167SOPE  H18S18835   2.472   3.353   8.692 -0.2778 -1.9720  1.7728
  167SOPE  H18T18836   2.644   3.332   8.640  0.5061  0.1691 -1.1631
  167SOPE   C3318837   2.797   2.850   6.713 -0.5933 -0.5458 -0.1509
  167SOPE   H3X18838   2.809   2.959   6.696  2.0624 -0.8623 -0.4944
  167SOPE   H3Y18839   2.831   2.806   6.617  2.6781  1.1751  0.1832
  167SOPE   C3418840   2.887   2.797   6.820  0.7915  0.7539  0.2819
  167SOPE   H4X18841   2.880   2.686   6.825  0.0340  0.7161 -1.3929
  167SOPE   H4Y18842   2.861   2.852   6.913 -1.3635  2.6695 -1.3557
  167SOPE   C3518843   3.032   2.827   6.784  0.4828 -0.2659 -0.0429
  167SOPE   H5X18844   3.050   2.935   6.764  0.2642 -0.0962  0.6679
  167SOPE   H5Y18845   3.051   2.766   6.693  0.2703  0.2162 -0.4132
  167SOPE   C3618846   3.129   2.795   6.902 -0.4208  0.0394 -0.2401
  167SOPE   H6X18847   3.095   2.696   6.938  2.7606 -2.2696 -3.1530
  167SOPE   H6Y18848   3.106   2.873   6.977 -2.9302  1.0782 -2.0400
  167SOPE   C3718849   3.278   2.780   6.876  0.8330  0.0196 -0.0434
  167SOPE   H7X18850   3.317   2.870   6.928 -2.1097  1.0046  0.5579
  167SOPE   H7Y18851   3.308   2.778   6.768 -0.8907 -1.7099 -0.5201
  167SOPE   C3818852   3.353   2.671   6.957  0.0347 -0.1738  0.2875
  167SOPE   H8X18853   3.368   2.584   6.890 -1.2968  0.0884 -0.3781
  167SOPE   H8Y18854   3.297   2.652   7.051 -1.8203 -2.1268 -1.1646
  167SOPE   C3918855   3.494   2.724   6.992 -0.0347  0.1222 -0.0258
  167SOPE   H9X18856   3.489   2.824   7.040  0.9860  0.4982 -0.6701
  167SOPE   H9Y18857   3.563   2.737   6.906 -1.3386  1.3518 -0.9043
  167SOPE  C31018858   3.561   2.626   7.094 -0.1054 -0.3707  0.2225
  167SOPE  H10X18859   3.662   2.659   7.123 -0.6614  2.0714 -0.5312
  167SOPE  H10Y18860   3.586   2.533   7.038 -2.1593 -1.7130  1.4246
  167SOPE  C31118861   3.487   2.579   7.217 -0.2152 -0.2279 -0.0695
  167SOPE  H11X18862   3.421   2.493   7.195  1.1944 -1.0533 -1.1885
  167SOPE  H11Y18863   3.425   2.661   7.259 -0.6811  0.3600 -1.8508
  167SOPE  C31218864   3.576   2.538   7.337  0.9468  0.4736  0.1886
  167SOPE  H12X18865   3.626   2.627   7.382  0.8999  0.6694 -0.1462
  167SOPE  H12Y18866   3.644   2.454   7.314  0.9436  0.0951  1.5107
  167SOPE  C31318867   3.483   2.475   7.446  0.1080 -0.3075  0.0733
  167SOPE  H13X18868   3.406   2.403   7.410 -1.4484  1.3135  0.0679
  167SOPE  H13Y18869   3.427   2.560   7.492  0.4715  0.3749 -0.7185
  167SOPE  C31418870   3.560   2.410   7.558  0.2664 -0.6224  0.5526
  167SOPE  H14X18871   3.615   2.324   7.515  2.5268 -0.1617  2.3801
  167SOPE  H14Y18872   3.494   2.363   7.634 -1.8524 -1.7572 -1.9217
  167SOPE  C31518873   3.655   2.500   7.639 -0.1877  0.3308  0.5722
  167SOPE  H15X18874   3.608   2.596   7.669 -1.2927  0.3603 -1.1855
  167SOPE  H15Y18875   3.734   2.533   7.567  0.2887 -1.3325  0.2970
  167SOPE  C31618876   3.728   2.428   7.758 -0.9126  0.2885  0.6311
  167SOPE  H16X18877   3.677   2.334   7.786  2.8354 -1.1786  2.9357
  167SOPE  H16Y18878   3.718   2.484   7.853  0.1682 -0.1165  0.9893
  167SOPE  C31718879   3.885   2.417   7.738 -0.7936 -0.0055  0.0224
  167SOPE  H17X18880   3.935   2.386   7.833  1.6428  2.7958 -0.2737
  167SOPE  H17Y18881   3.929   2.518   7.727 -1.2994  0.3525  1.2122
  167SOPE  C31818882   3.935   2.317   7.634  0.0161 -0.4011 -0.3603
  167SOPE  H18X18883   3.885   2.219   7.649  0.7335 -0.6069  0.7028
  167SOPE  H18Y18884   4.043   2.292   7.640  0.2483  0.5425 -0.6314
  167SOPE  H18Z18885   3.912   2.348   7.529  0.3418 -0.7480 -0.5365
  168SOPE     N18886   3.358   6.453   6.012  0.1942  0.2292  0.2549
  168SOPE   HN118887   3.445   6.398   6.026  0.9286  0.9425 -1.3183
  168SOPE   HN218888   3.341   6.448   5.909 -2.1192 -2.3673  0.6886
  168SOPE   HN318889   3.382   6.553   6.029  2.0394 -0.2011  0.2377
  168SOPE   C1218890   3.231   6.427   6.097  0.2143 -0.1442 -0.4201
  168SOPE  H12A18891   3.200   6.322   6.080  0.4457 -0.0476 -1.5039
  168SOPE  H12B18892   3.159   6.510   6.081  0.6840  0.2485 -0.5218
  168SOPE   C1118893   3.281   6.428   6.242  0.5389 -0.5644 -0.2983
  168SOPE  H11A18894   3.363   6.354   6.251  0.3853 -0.5454  1.3160
  168SOPE  H11B18895   3.194   6.387   6.297  0.4985 -2.8497 -2.0130
  168SOPE     P18896   3.250   6.656   6.384 -0.1968 -0.1364 -0.0173
  168SOPE   O1318897   3.243   6.795   6.334 -0.0817  0.7246  0.5772
  168SOPE   O1418898   3.315   6.647   6.516 -0.1699  0.6475  0.7414
  168SOPE   O1218899   3.320   6.555   6.277  0.1802 -0.0519 -0.4397
  168SOPE   O1118900   3.110   6.596   6.392 -0.5684  0.1315 -0.0242
  168SOPE    C118901   3.075   6.537   6.525  0.2294  0.0345  0.4121
  168SOPE    HA18902   3.153   6.468   6.563 -0.2127 -1.2299 -0.8917
  168SOPE    HB18903   2.986   6.472   6.507  1.8538 -1.4921 -2.6342
  168SOPE    C218904   3.032   6.633   6.630  0.1420 -0.5019 -0.0009
  168SOPE    HS18905   3.108   6.714   6.644  0.5815 -1.0663  0.9491
  168SOPE   O2118906   3.002   6.561   6.749  0.3680  0.0081  0.7111
  168SOPE   C2118907   3.071   6.592   6.852  0.4802  0.4337  0.7354
  168SOPE   O2218908   3.165   6.664   6.861 -0.0519  0.0470  0.4082
  168SOPE   C2218909   3.001   6.517   6.973 -0.7209  0.1970  0.4989
  168SOPE   H2R18910   3.014   6.407   6.966  0.0111  0.3900 -1.4689
  168SOPE   H2S18911   2.891   6.534   6.967 -0.5147  1.2744 -0.4084
  168SOPE    C318912   2.900   6.716   6.592 -0.0459  0.0494  0.0864
  168SOPE    HX18913   2.808   6.658   6.569 -0.2476 -1.0319  3.4146
  168SOPE    HY18914   2.934   6.767   6.499  2.5403  0.3958  1.1500
  168SOPE   O3118915   2.858   6.814   6.695 -0.5060  0.4448  0.2536
  168SOPE   C3118916   2.925   6.922   6.716  0.0064 -0.2413 -0.0849
  168SOPE   O3218917   3.012   6.966   6.645 -0.6891  0.6863 -0.1402
  168SOPE   C3218918   2.866   6.984   6.849  0.0780  0.2276 -0.1547
  168SOPE   H2X18919   2.757   6.991   6.829 -0.3129 -1.2608  1.3261
  168SOPE   H2Y18920   2.906   7.087   6.857 -0.4441  0.5312 -1.3233
  168SOPE   C2318921   3.049   6.563   7.106 -0.0311  0.1442  0.9840
  168SOPE   H3R18922   3.054   6.674   7.106  0.5814  0.1313 -0.5018
  168SOPE   H3S18923   3.154   6.534   7.128 -0.1281 -1.8563 -0.9373
  168SOPE   C2418924   2.967   6.503   7.227 -0.5045  0.0146  0.3976
  168SOPE   H4R18925   2.862   6.539   7.217 -0.5650  0.4338  2.2449
  168SOPE   H4S18926   2.979   6.393   7.215 -0.0665  0.4819 -4.6048
  168SOPE   C2518927   3.025   6.548   7.359 -0.0013  0.1691  0.2086
  168SOPE   H5R18928   3.135   6.529   7.364 -0.0876 -0.7647 -1.0652
  168SOPE   H5S18929   3.019   6.659   7.353  0.6820  0.1331 -1.5742
  168SOPE   C2618930   2.960   6.487   7.476 -0.2674 -0.2860 -0.4801
  168SOPE   H6R18931   2.851   6.481   7.457 -0.4073 -2.6369  0.8649
  168SOPE   H6S18932   2.977   6.377   7.487 -1.1293 -0.1839  2.1077
  168SOPE   C2718933   2.998   6.555   7.606 -0.9335 -0.6463  0.3568
  168SOPE   H7R18934   2.959   6.659   7.613  0.3928  0.0074 -1.6727
  168SOPE   H7S18935   2.943   6.493   7.681 -1.9953  0.3102  0.3771
  168SOPE   C2818936   3.144   6.560   7.644  0.2930 -0.4192  0.2328
  168SOPE   H8R18937   3.185   6.645   7.585 -1.8982  4.4754  5.3216
  168SOPE   H8S18938   3.148   6.582   7.753  1.8139 -0.0732  0.1187
  168SOPE   C2918939   3.241   6.445   7.611  0.8062  0.9244  0.0199
  168SOPE   H9118940   3.305   6.466   7.524  0.6500  0.1968 -0.2759
  168SOPE  C21018941   3.258   6.330   7.681 -0.1711  0.2244  0.2764
  168SOPE  H10118942   3.337   6.261   7.647  0.6911  0.7903  1.0743
  168SOPE  C21118943   3.184   6.293   7.801 -0.7561 -0.4196  0.4574
  168SOPE  H11R18944   3.200   6.183   7.809  1.3109 -0.1458  0.4183
  168SOPE  H11S18945   3.076   6.312   7.782 -0.7671 -1.5183 -0.6454
  168SOPE  C21218946   3.230   6.366   7.929 -0.6276 -0.4717  0.0882
  168SOPE  H12R18947   3.180   6.312   8.012 -1.0533  1.4681  1.1375
  168SOPE  H12S18948   3.190   6.469   7.920  0.7429  0.1901  1.2795
  168SOPE  C21318949   3.384   6.364   7.957 -0.0947 -0.7033 -0.0023
  168SOPE  H13R18950   3.439   6.414   7.874 -0.6644  0.2474  0.1869
  168SOPE  H13S18951   3.417   6.258   7.947  0.2865 -0.8344  2.3995
  168SOPE  C21418952   3.432   6.413   8.094  0.0306  0.0461  0.1692
  168SOPE  H14R18953   3.373   6.376   8.180  1.4910  0.8243  1.5216
  168SOPE  H14S18954   3.420   6.524   8.098 -1.9772 -0.0856 -1.0814
  168SOPE  C21518955   3.585   6.383   8.101  0.0973 -0.1860  0.7733
  168SOPE  H15R18956   3.631   6.441   8.018 -0.9017 -1.6815 -0.8519
  168SOPE  H15S18957   3.594   6.273   8.091  1.4664 -0.0710  0.6332
  168SOPE  C21618958   3.654   6.421   8.230  0.6089  0.8737 -0.6347
  168SOPE  H16R18959   3.611   6.354   8.308  0.4470 -1.4070 -2.6322
  168SOPE  H16S18960   3.653   6.531   8.244 -0.8170  0.7051  0.8059
  168SOPE  C21718961   3.811   6.384   8.234  0.9173  0.2522  0.1035
  168SOPE  H17R18962   3.860   6.438   8.318 -0.5358  2.6128 -0.4996
  168SOPE  H17S18963   3.857   6.432   8.145 -2.9262  1.1919 -1.4766
  168SOPE  C21818964   3.836   6.232   8.236 -0.0188 -0.1859  0.3318
  168SOPE  H18R18965   3.744   6.194   8.286 -0.2200  0.4250  0.4342
  168SOPE  H18S18966   3.928   6.215   8.296  2.2605  2.0181 -2.4484
  168SOPE  H18T18967   3.835   6.187   8.135  0.3232 -2.4587  1.3204
  168SOPE   C3318968   2.895   6.899   6.977  0.1392 -0.2855  0.0962
  168SOPE   H3X18969   3.004   6.898   6.998  0.3726  1.3178 -0.9285
  168SOPE   H3Y18970   2.846   6.799   6.974  0.0012 -0.2492  0.9476
  168SOPE   C3418971   2.833   6.973   7.102 -0.3188  0.3356  0.3508
  168SOPE   H4X18972   2.724   6.993   7.089 -0.3906  0.1679  0.6736
  168SOPE   H4Y18973   2.882   7.072   7.116 -3.6649  2.1693 -0.3043
  168SOPE   C3518974   2.837   6.890   7.230 -0.5163 -0.2695 -0.3055
  168SOPE   H5X18975   2.940   6.895   7.270 -0.5788  1.1264 -0.3138
  168SOPE   H5Y18976   2.814   6.781   7.235  1.8984 -0.8832 -1.7401
  168SOPE   C3618977   2.746   6.959   7.336 -0.2757 -1.2205  0.6025
  168SOPE   H6X18978   2.651   6.903   7.320 -1.0100  0.1673 -0.0284
  168SOPE   H6Y18979   2.748   7.069   7.325 -3.2295 -1.0129  1.6495
  168SOPE   C3718980   2.791   6.934   7.485  0.5279  0.1295 -0.2879
  168SOPE   H7X18981   2.891   6.981   7.498 -0.1357  1.5666 -0.3423
  168SOPE   H7Y18982   2.793   6.826   7.511  0.3215  0.2623  0.2759
  168SOPE   C3818983   2.706   7.000   7.591  0.0541 -0.1423  0.2687
  168SOPE   H8X18984   2.599   6.973   7.584  0.2139 -1.1985  1.5948
  168SOPE   H8Y18985   2.707   7.108   7.566 -0.2134 -0.0136  0.8172
  168SOPE   C3918986   2.746   6.978   7.735 -0.7827 -0.0536  0.6858
  168SOPE   H9X18987   2.838   7.036   7.762 -0.1292 -1.1013  0.7459
  168SOPE   H9Y18988   2.772   6.873   7.760  1.1521 -0.2141 -1.7319
  168SOPE  C31018989   2.638   7.031   7.823  0.6317 -1.0152 -0.1250
  168SOPE  H10X18990   2.600   7.132   7.798 -1.8363 -1.6291  1.0629
  168SOPE  H10Y18991   2.668   7.039   7.930  1.4015 -2.9661 -0.1609
  168SOPE  C31118992   2.513   6.937   7.823 -0.2949  0.0199  0.3292
  168SOPE  H11X18993   2.543   6.835   7.793 -1.3155 -0.0194 -0.6083
  168SOPE  H11Y18994   2.456   6.980   7.738 -0.5111  0.3583  0.6453
  168SOPE  C31218995   2.421   6.945   7.944  0.2185  0.1481 -1.3174
  168SOPE  H12X18996   2.316   6.952   7.907 -0.7765 -0.8908  1.1851
  168SOPE  H12Y18997   2.442   7.040   7.999  0.7216 -0.7485  0.0645
  168SOPE  C31318998   2.420   6.823   8.038 -0.6317  0.2472 -0.1383
  168SOPE  H13X18999   2.386   6.737   7.976  0.2843 -0.7605  0.7389
  168SOPE  H13Y19000   2.347   6.844   8.119 -0.5911  0.7752 -0.2330
  168SOPE  C31419001   2.558   6.795   8.100  0.2959 -0.2497 -0.6481
  168SOPE  H14X19002   2.637   6.813   8.024 -1.7424  3.8821 -1.9249
  168SOPE  H14Y19003   2.560   6.686   8.121  1.5888 -0.8516 -3.7173
  168SOPE  C31519004   2.584   6.855   8.239  0.1154  0.0446  0.4086
  168SOPE  H15X19005   2.548   6.959   8.222  1.0560  0.1710 -0.9005
  168SOPE  H15Y19006   2.693   6.859   8.257  0.4024  2.1389 -1.5004
  168SOPE  C31619007   2.509   6.784   8.350  0.4805 -0.4017 -0.1353
  168SOPE  H16X19008   2.560   6.686   8.363 -0.4130 -1.1370 -2.0359
  168SOPE  H16Y19009   2.405   6.762   8.319  0.6362 -2.6222  0.8100
  168SOPE  C31719010   2.505   6.861   8.483 -0.4868  0.2069  0.0289
  168SOPE  H17X19011   2.425   6.814   8.544  2.4475 -2.7959  1.7464
  168SOPE  H17Y19012   2.485   6.966   8.451  2.6123  1.2854  1.4471
  168SOPE  C31819013   2.643   6.869   8.559 -0.2275 -0.1943 -0.1028
  168SOPE  H18X19014   2.686   6.767   8.567 -0.6994 -0.3935 -0.0963
  168SOPE  H18Y19015   2.645   6.913   8.661  0.7846  1.7081 -0.9229
  168SOPE  H18Z19016   2.721   6.920   8.498  0.2397  0.0278  0.6836
  169SOPE     N19017   5.550   1.122   6.437 -0.0863  0.2219 -0.3450
  169SOPE   HN119018   5.492   1.172   6.508  0.8538 -0.0309  0.6024
  169SOPE   HN219019   5.530   1.021   6.455  0.9607  0.0589 -0.0858
  169SOPE   HN319020   5.648   1.149   6.460 -1.0440  2.3190  1.5369
  169SOPE   C1219021   5.506   1.178   6.309  0.3639  0.2083  0.3601
  169SOPE  H12A19022   5.395   1.174   6.309  0.3910 -0.7712  0.5675
  169SOPE  H12B19023   5.553   1.113   6.231 -0.6836  0.7195 -0.7105
  169SOPE   C1119024   5.540   1.330   6.296  0.0880 -0.1170  0.6544
  169SOPE  H11A19025   5.536   1.364   6.190  0.1339 -0.2100  0.6234
  169SOPE  H11B19026   5.648   1.350   6.311  0.1014  0.3901 -0.1068
  169SOPE     P19027   5.423   1.560   6.336  0.1264  0.0162  0.3285
  169SOPE   O1319028   5.282   1.559   6.310  0.8580 -0.9197  0.0773
  169SOPE   O1419029   5.506   1.616   6.232 -0.2557  0.3678 -0.1270
  169SOPE   O1219030   5.468   1.412   6.382  0.4203  0.4984 -0.4570
  169SOPE   O1119031   5.445   1.656   6.464  0.5086 -0.2618 -0.0855
  169SOPE    C119032   5.535   1.610   6.565 -0.6427 -0.9323  0.4097
  169SOPE    HA19033   5.578   1.697   6.619  1.7828 -1.8066 -0.0461
  169SOPE    HB19034   5.622   1.567   6.511 -0.4531  2.2680 -2.0121
  169SOPE    C219035   5.467   1.512   6.667 -0.0096  0.0463  0.3562
  169SOPE    HS19036   5.397   1.447   6.610  2.6609 -1.0885 -1.7735
  169SOPE   O2119037   5.385   1.598   6.752 -0.4309  0.0359 -0.9583
  169SOPE   C2119038   5.260   1.557   6.783 -0.3536 -1.1995  0.6139
  169SOPE   O2219039   5.202   1.468   6.731 -0.0688  0.3203  0.3043
  169SOPE   C2219040   5.201   1.654   6.888 -0.4066  0.0778 -0.7058
  169SOPE   H2R19041   5.135   1.589   6.948 -1.9054 -0.0422 -2.4642
  169SOPE   H2S19042   5.137   1.715   6.821 -1.4306 -0.8692 -0.5934
  169SOPE    C319043   5.567   1.431   6.747  0.1650 -0.3817 -0.3760
  169SOPE    HX19044   5.634   1.503   6.799  0.9025 -0.7998 -0.7311
  169SOPE    HY19045   5.630   1.370   6.679 -1.8738 -0.9683 -1.8020
  169SOPE   O3119046   5.499   1.350   6.849 -0.3294  0.7656  0.4989
  169SOPE   C3119047   5.432   1.242   6.795  0.3345  0.0312 -0.4497
  169SOPE   O3219048   5.418   1.215   6.679  0.3119  0.1345  0.3030
  169SOPE   C3219049   5.403   1.149   6.915  0.5945  0.3661 -0.5480
  169SOPE   H2X19050   5.419   1.204   7.010  0.1539  1.8335 -1.2945
  169SOPE   H2Y19051   5.466   1.058   6.912 -1.6351 -1.3038  0.9905
  169SOPE   C2319052   5.297   1.738   6.972 -0.4294  0.7368  0.1138
  169SOPE   H3R19053   5.335   1.814   6.901  1.4550 -0.9298 -0.7376
  169SOPE   H3S19054   5.387   1.686   7.013 -0.5603  0.4447  0.0343
  169SOPE   C2419055   5.222   1.817   7.083 -0.3686  0.5875 -0.4944
  169SOPE   H4R19056   5.292   1.873   7.147 -2.0060  1.3335  0.6542
  169SOPE   H4S19057   5.164   1.896   7.032 -0.7220  0.2619 -0.5965
  169SOPE   C2519058   5.133   1.734   7.176 -0.6322 -0.5676 -0.1209
  169SOPE   H5R19059   5.041   1.708   7.120 -0.4428  0.6007 -1.0007
  169SOPE   H5S19060   5.188   1.639   7.192 -0.0171 -0.2010 -0.0534
  169SOPE   C2619061   5.088   1.799   7.309  0.3351 -0.0675 -0.5561
  169SOPE   H6R19062   5.176   1.817   7.375  0.4363  1.9101 -1.2060
  169SOPE   H6S19063   5.046   1.900   7.290 -0.9152 -0.4970 -0.0933
  169SOPE   C2719064   4.993   1.697   7.383  0.7467 -0.5763 -0.1700
  169SOPE   H7R19065   4.914   1.665   7.312  2.6064 -0.8582 -2.1922
  169SOPE   H7S19066   5.049   1.605   7.408  0.6030 -0.0573  2.1893
  169SOPE   C2819067   4.946   1.746   7.526  0.3429 -0.3339 -0.1258
  169SOPE   H8R19068   4.872   1.682   7.578 -0.0801 -0.8856 -1.3705
  169SOPE   H8S19069   5.038   1.741   7.588  0.9328 -2.3829 -1.1205
  169SOPE   C2919070   4.880   1.881   7.539 -0.2636  0.1698 -1.0984
  169SOPE   H9119071   4.930   1.957   7.477  2.0471 -0.7322 -0.3779
  169SOPE  C21019072   4.796   1.917   7.637  0.1692 -0.1865 -0.0420
  169SOPE  H10119073   4.761   2.022   7.640 -3.0617 -1.2287 -0.1141
  169SOPE  C21119074   4.736   1.832   7.742  0.8856 -0.0783  0.5929
  169SOPE  H11R19075   4.811   1.767   7.791 -0.5698 -1.3624  1.1516
  169SOPE  H11S19076   4.679   1.752   7.690  1.1431  1.9553 -2.9861
  169SOPE  C21219077   4.640   1.894   7.841 -0.2433  0.3126 -0.2015
  169SOPE  H12R19078   4.565   1.821   7.879 -0.0081  0.0564 -0.2301
  169SOPE  H12S19079   4.572   1.962   7.785 -1.6107 -1.1841 -0.3871
  169SOPE  C21319080   4.702   1.939   7.968 -0.0747  0.9242 -0.3298
  169SOPE  H13R19081   4.777   2.019   7.951  0.2854  0.6355 -0.1192
  169SOPE  H13S19082   4.757   1.844   7.989 -0.3365  0.4237 -1.8325
  169SOPE  C21419083   4.606   1.996   8.073  0.1533  1.0000  0.5389
  169SOPE  H14R19084   4.511   1.938   8.076 -0.9519  2.8248  1.8217
  169SOPE  H14S19085   4.568   2.096   8.042 -0.1914  1.0615  1.1429
  169SOPE  C21519086   4.677   2.015   8.213 -0.0424 -0.5728 -0.8301
  169SOPE  H15R19087   4.725   1.918   8.239 -0.0889 -0.6952 -1.1865
  169SOPE  H15S19088   4.597   2.032   8.288  0.4566  1.5145 -0.7468
  169SOPE  C21619089   4.770   2.140   8.210  0.0761 -0.6402 -0.3724
  169SOPE  H16R19090   4.826   2.156   8.115  0.1063  1.6966 -0.0032
  169SOPE  H16S19091   4.845   2.132   8.291  0.2619  0.1164 -0.4687
  169SOPE  C21719092   4.691   2.270   8.228  0.2576 -0.7051  0.3128
  169SOPE  H17R19093   4.617   2.253   8.309 -1.6619  2.8418 -0.5904
  169SOPE  H17S19094   4.621   2.282   8.142  0.2541 -0.7539  0.3091
  169SOPE  C21819095   4.777   2.401   8.258 -0.3338 -0.3358  0.8674
  169SOPE  H18R19096   4.842   2.413   8.169  0.0506 -2.7154  0.7918
  169SOPE  H18S19097   4.838   2.403   8.351  2.5697 -0.6794 -0.9732
  169SOPE  H18T19098   4.708   2.488   8.263 -0.0503 -0.2238  3.2628
  169SOPE   C3319099   5.253   1.106   6.909  0.3376  0.3056 -1.0994
  169SOPE   H3X19100   5.237   1.033   6.992 -1.4847  0.1108 -1.6077
  169SOPE   H3Y19101   5.223   1.059   6.813  0.0985 -0.8273 -0.4838
  169SOPE   C3419102   5.141   1.218   6.924 -0.2735  0.1883 -0.1558
  169SOPE   H4X19103   5.038   1.177   6.929 -1.6836  3.2758 -2.4044
  169SOPE   H4Y19104   5.139   1.278   6.831 -0.6852 -0.5753 -0.6533
  169SOPE   C3519105   5.161   1.309   7.045  0.0857  0.3357  0.0046
  169SOPE   H5X19106   5.075   1.378   7.033 -0.7854 -0.6547  0.5387
  169SOPE   H5Y19107   5.261   1.357   7.030 -0.7793  1.7250 -1.5370
  169SOPE   C3619108   5.154   1.255   7.190  0.2085 -0.2518 -0.7141
  169SOPE   H6X19109   5.199   1.154   7.199 -1.0790 -0.6408  1.7543
  169SOPE   H6Y19110   5.050   1.244   7.226  1.1568 -1.8326  1.6871
  169SOPE   C3719111   5.220   1.354   7.288  0.2434  0.3080  0.3386
  169SOPE   H7X19112   5.218   1.460   7.256 -3.0767 -0.0705 -0.9084
  169SOPE   H7Y19113   5.326   1.325   7.276 -0.6422 -2.3406 -1.6488
  169SOPE   C3819114   5.160   1.331   7.429 -0.7809 -0.7338  0.0461
  169SOPE   H8X19115   5.055   1.363   7.410  0.1695  2.2454 -0.4644
  169SOPE   H8Y19116   5.178   1.222   7.431  3.4095 -0.1003  0.0022
  169SOPE   C3919117   5.220   1.409   7.539  1.0448  0.2421 -0.5387
  169SOPE   H9X19118   5.243   1.507   7.491  3.4860  0.2552  0.5975
  169SOPE   H9Y19119   5.319   1.370   7.572 -0.3592 -0.4427  3.0392
  169SOPE  C31019120   5.129   1.424   7.659  0.2147 -0.0113  0.5052
  169SOPE  H10X19121   5.109   1.323   7.702  1.7375  0.5338  2.5894
  169SOPE  H10Y19122   5.031   1.458   7.618 -0.1609  0.0643  1.4595
  169SOPE  C31119123   5.175   1.510   7.775 -0.9262  0.3230 -0.0310
  169SOPE  H11X19124   5.200   1.605   7.723 -0.0671 -0.7960 -1.7074
  169SOPE  H11Y19125   5.265   1.468   7.823 -0.9962  0.0958 -0.1018
  169SOPE  C31219126   5.062   1.525   7.876 -0.2572  0.2580 -0.9795
  169SOPE  H12X19127   4.970   1.543   7.818  0.0375 -1.4943 -2.0347
  169SOPE  H12Y19128   5.077   1.615   7.940 -0.2853 -1.7331  1.9696
  169SOPE  C31319129   5.035   1.401   7.959  0.0333  0.1257  0.4913
  169SOPE  H13X19130   5.128   1.376   8.014  1.0368  1.1992 -0.6875
  169SOPE  H13Y19131   5.000   1.316   7.896  1.8512 -0.0494 -0.3136
  169SOPE  C31419132   4.922   1.423   8.065 -0.2103 -0.3132  0.2419
  169SOPE  H14X19133   4.865   1.513   8.035  0.8977  0.1722 -0.4587
  169SOPE  H14Y19134   4.969   1.443   8.164 -1.1733  0.8364  0.4782
  169SOPE  C31519135   4.819   1.308   8.064 -0.1486  0.5445  0.7755
  169SOPE  H15X19136   4.876   1.213   8.070  0.2788  0.7323 -0.1262
  169SOPE  H15Y19137   4.757   1.307   7.972 -1.3963 -0.9730  1.6251
  169SOPE  C31619138   4.722   1.314   8.176  0.2549 -0.0725 -0.1160
  169SOPE  H16X19139   4.656   1.403   8.168 -0.8689 -0.9470 -0.7760
  169SOPE  H16Y19140   4.781   1.316   8.270 -1.0670  1.1406  0.7080
  169SOPE  C31719141   4.630   1.184   8.187  0.2247 -0.2175  0.3103
  169SOPE  H17X19142   4.586   1.160   8.088  0.6512 -1.7863  0.4795
  169SOPE  H17Y19143   4.551   1.203   8.262  1.6320  0.0165  1.7622
  169SOPE  C31819144   4.713   1.070   8.237 -0.0799  0.1680  0.8018
  169SOPE  H18X19145   4.737   1.081   8.345  0.6027  1.8883  0.4786
  169SOPE  H18Y19146   4.804   1.061   8.174 -0.6928  0.3398 -0.1178
  169SOPE  H18Z19147   4.650   0.979   8.223  0.2713  0.1174 -0.5150
  170SOPE     N19148   5.943   0.532   6.187 -1.1653  0.0279 -0.0634
  170SOPE   HN119149   5.943   0.523   6.290 -0.5667 -0.1606 -0.0799
  170SOPE   HN219150   6.007   0.610   6.160 -1.3039  0.2835  0.3516
  170SOPE   HN319151   5.847   0.556   6.155 -1.0832 -0.7668 -0.9146
  170SOPE   C1219152   5.972   0.394   6.128 -0.0220  0.2852  0.3341
  170SOPE  H12A19153   6.083   0.391   6.126  0.0361  2.2336 -1.6586
  170SOPE  H12B19154   5.941   0.406   6.021  0.7643  0.6222  0.1381
  170SOPE   C1119155   5.898   0.295   6.217 -0.1577 -0.2333 -0.2508
  170SOPE  H11A19156   5.950   0.288   6.315 -0.3614  0.7928 -0.0687
  170SOPE  H11B19157   5.907   0.193   6.173 -1.5497 -0.9890  1.1920
  170SOPE     P19158   5.651   0.256   6.294 -0.2364  0.2804  0.0335
  170SOPE   O1319159   5.608   0.143   6.214 -0.2346  0.3477  0.9697
  170SOPE   O1419160   5.552   0.361   6.327 -0.2838  0.1927 -0.3941
  170SOPE   O1219161   5.763   0.346   6.232  0.7120  0.2160 -0.1302
  170SOPE   O1119162   5.714   0.203   6.427 -0.2665 -0.0727  0.2149
  170SOPE    C119163   5.771   0.289   6.529 -0.7799 -0.5870  0.0793
  170SOPE    HA19164   5.733   0.393   6.517 -3.0518 -1.4362 -0.3869
  170SOPE    HB19165   5.881   0.293   6.519 -0.7900 -1.7986 -0.5483
  170SOPE    C219166   5.724   0.244   6.678  0.0413  0.2105  0.1429
  170SOPE    HS19167   5.749   0.327   6.748  1.3038 -1.0637  1.2164
  170SOPE   O2119168   5.786   0.121   6.712 -0.0422 -0.6954  0.1548
  170SOPE   C2119169   5.911   0.125   6.753  0.5827 -0.2199  0.5995
  170SOPE   O2219170   5.984   0.225   6.768  0.5955  0.0414  0.4778
  170SOPE   C2219171   5.953  -0.024   6.768  0.1658  0.2305  0.3435
  170SOPE   H2R19172   6.003  -0.055   6.674 -0.0504  1.8869 -0.3451
  170SOPE   H2S19173   5.867  -0.091   6.788  0.0369  0.3584  0.2169
  170SOPE    C319174   5.576   0.210   6.684 -0.0395  0.6036  0.5355
  170SOPE    HX19175   5.574   0.108   6.641  1.7418  0.9831 -0.5000
  170SOPE    HY19176   5.510   0.279   6.627 -0.2183 -0.7598 -0.9368
  170SOPE   O3119177   5.532   0.198   6.825 -0.1170 -0.5707 -0.3552
  170SOPE   C3119178   5.500   0.309   6.887  1.4201 -0.3224  0.3152
  170SOPE   O3219179   5.475   0.423   6.841 -0.4853 -0.1633 -0.1349
  170SOPE   C3219180   5.514   0.276   7.037 -0.6625 -0.7192  0.5321
  170SOPE   H2X19181   5.610   0.225   7.056  0.3375  1.0706  0.4700
  170SOPE   H2Y19182   5.438   0.204   7.072  1.1700 -1.7623  2.4667
  170SOPE   C2319183   6.057  -0.040   6.882 -0.9359  0.4535 -0.0242
  170SOPE   H3R19184   6.136   0.038   6.886 -1.6596  1.2205 -0.7052
  170SOPE   H3S19185   6.113  -0.133   6.857 -2.3493 -0.8727  1.5725
  170SOPE   C2419186   6.003  -0.084   7.017 -0.0783 -0.5385 -0.2165
  170SOPE   H4R19187   5.945  -0.179   7.012 -1.4614  0.1458  2.2182
  170SOPE   H4S19188   6.097  -0.100   7.073 -0.0291  0.3784 -0.0340
  170SOPE   C2519189   5.938   0.026   7.097  0.4307 -0.2189 -0.7744
  170SOPE   H5R19190   5.851   0.073   7.045 -1.1245  1.1305  2.9264
  170SOPE   H5S19191   5.906  -0.012   7.196  0.9551 -0.1334 -0.5746
  170SOPE   C2619192   6.023   0.152   7.121  0.0214 -0.5077  0.2171
  170SOPE   H6R19193   6.106   0.106   7.178  0.2603 -2.2433 -1.4956
  170SOPE   H6S19194   6.069   0.199   7.032  1.0697 -3.5655 -0.9221
  170SOPE   C2719195   5.942   0.257   7.199 -0.1644  0.2467  0.0479
  170SOPE   H7R19196   6.007   0.346   7.214  0.5979 -0.3201  0.1020
  170SOPE   H7S19197   5.845   0.275   7.147  0.7025 -1.4045 -2.2245
  170SOPE   C2819198   5.897   0.199   7.344 -0.3609  0.3554 -0.2045
  170SOPE   H8R19199   5.796   0.155   7.327  0.6306 -1.6612 -1.1323
  170SOPE   H8S19200   5.966   0.115   7.367 -0.2250 -0.4251 -3.2012
  170SOPE   C2919201   5.894   0.307   7.448 -0.3837 -0.1887  0.3534
  170SOPE   H9119202   5.851   0.399   7.406  0.5215 -0.0482 -0.2658
  170SOPE  C21019203   5.919   0.292   7.579  0.0524 -0.3882 -0.7305
  170SOPE  H10119204   5.911   0.380   7.644 -1.1192 -1.2494  0.3226
  170SOPE  C21119205   5.963   0.171   7.659 -0.0533 -0.8462  0.4577
  170SOPE  H11R19206   6.046   0.186   7.731 -0.9541  1.3040  1.0881
  170SOPE  H11S19207   6.002   0.098   7.586 -0.7339  0.4139 -1.2041
  170SOPE  C21219208   5.837   0.102   7.730 -0.2733 -0.3280 -0.5361
  170SOPE  H12R19209   5.874   0.002   7.759 -1.7224 -0.8919 -0.6402
  170SOPE  H12S19210   5.759   0.097   7.651 -1.1001 -0.0422  0.2627
  170SOPE  C21319211   5.778   0.183   7.848 -1.2155  0.1228 -0.2673
  170SOPE  H13R19212   5.775   0.290   7.819  0.9103  0.2995  0.0597
  170SOPE  H13S19213   5.850   0.194   7.932 -0.2029  2.3493 -1.3755
  170SOPE  C21419214   5.650   0.123   7.902 -0.3258  0.3304  0.4227
  170SOPE  H14R19215   5.573   0.119   7.822 -1.7470  0.1071  1.7812
  170SOPE  H14S19216   5.616   0.203   7.971  2.1027  0.0308  2.0025
  170SOPE  C21519217   5.689  -0.009   7.977  0.0758  0.1817 -0.0974
  170SOPE  H15R19218   5.741   0.019   8.072 -0.8695 -0.8075  0.7316
  170SOPE  H15S19219   5.764  -0.058   7.912  1.7718  0.2924  1.7317
  170SOPE  C21619220   5.561  -0.096   8.004  0.9194 -0.5844  0.0755
  170SOPE  H16R19221   5.500  -0.112   7.913 -0.8677 -0.0042  1.1509
  170SOPE  H16S19222   5.509  -0.041   8.085  2.7887  1.5004 -0.0577
  170SOPE  C21719223   5.597  -0.228   8.057 -0.1348  0.3337  0.3766
  170SOPE  H17R19224   5.502  -0.268   8.099 -0.3728  0.4575 -0.0433
  170SOPE  H17S19225   5.675  -0.222   8.135 -2.3288 -0.9675  2.7839
  170SOPE  C21819226   5.628  -0.322   7.937  0.3576 -0.2178  0.1996
  170SOPE  H18R19227   5.545  -0.319   7.864  1.1046  0.3299 -0.6454
  170SOPE  H18S19228   5.641  -0.427   7.971  1.0611 -0.9750 -2.3150
  170SOPE  H18T19229   5.721  -0.289   7.886 -0.7033  0.5688 -1.2385
  170SOPE   C3319230   5.511   0.411   7.120  0.6252 -0.2754 -0.1066
  170SOPE   H3X19231   5.414   0.462   7.099  0.6459  0.4365  1.4559
  170SOPE   H3Y19232   5.602   0.469   7.097  0.2678  0.8935  1.3085
  170SOPE   C3419233   5.516   0.392   7.270 -0.3913 -0.4129  0.2662
  170SOPE   H4X19234   5.596   0.321   7.299  0.2532  0.3386  0.3496
  170SOPE   H4Y19235   5.421   0.344   7.301 -1.4290  1.5992  0.2627
  170SOPE   C3519236   5.542   0.524   7.346  0.3468  0.9118  0.0894
  170SOPE   H5X19237   5.459   0.598   7.337  0.7726  1.6120  1.7871
  170SOPE   H5Y19238   5.631   0.577   7.307  1.7245 -0.8461  0.8308
  170SOPE   C3619239   5.557   0.508   7.497  0.2996 -0.1147  0.8922
  170SOPE   H6X19240   5.622   0.591   7.532  1.2565 -0.2693 -0.4642
  170SOPE   H6Y19241   5.618   0.418   7.519  1.6232  0.4829 -0.2192
  170SOPE   C3719242   5.424   0.485   7.567  0.2608  0.2983 -0.1326
  170SOPE   H7X19243   5.373   0.393   7.532 -1.5284  0.7656  1.1424
  170SOPE   H7Y19244   5.354   0.569   7.548 -0.4439 -0.0024  1.0945
  170SOPE   C3819245   5.440   0.470   7.722  0.0515  0.3059  0.4193
  170SOPE   H8X19246   5.537   0.427   7.754  0.2992  0.7615  0.2860
  170SOPE   H8Y19247   5.372   0.393   7.764 -1.8501  1.3809 -0.6011
  170SOPE   C3919248   5.428   0.603   7.809  0.1893 -0.2269  0.0428
  170SOPE   H9X19249   5.320   0.614   7.834 -0.3481 -1.3752 -1.6729
  170SOPE   H9Y19250   5.477   0.685   7.754  2.2446 -1.8909 -0.6634
  170SOPE  C31019251   5.492   0.603   7.943  0.2090 -0.0826 -0.7063
  170SOPE  H10X19252   5.470   0.703   7.985  1.9851 -0.2756  0.7595
  170SOPE  H10Y19253   5.603   0.604   7.934  0.1016  2.7244 -2.0949
  170SOPE  C31119254   5.464   0.480   8.036 -1.3700  0.3646 -0.7048
  170SOPE  H11X19255   5.444   0.399   7.962  0.1213 -0.8201  0.1721
  170SOPE  H11Y19256   5.377   0.488   8.104  0.5193 -0.1017  1.8143
  170SOPE  C31219257   5.593   0.449   8.118 -0.3721 -0.0305 -0.1173
  170SOPE  H12X19258   5.627   0.551   8.148  0.8058 -0.7714  1.1039
  170SOPE  H12Y19259   5.672   0.402   8.056  1.0963  1.9958  0.1440
  170SOPE  C31319260   5.575   0.381   8.248 -0.0663 -0.2814  0.6483
  170SOPE  H13X19261   5.515   0.443   8.318 -2.0420 -0.5128 -0.8022
  170SOPE  H13Y19262   5.673   0.366   8.300  0.2498 -2.0771 -0.4207
  170SOPE  C31419263   5.515   0.240   8.244 -0.3217 -0.2418 -0.5165
  170SOPE  H14X19264   5.565   0.188   8.160 -0.9650 -3.1066  0.8268
  170SOPE  H14Y19265   5.410   0.254   8.208 -0.5946  1.7420  0.9385
  170SOPE  C31519266   5.508   0.157   8.382 -0.1013  0.0472  0.0420
  170SOPE  H15X19267   5.449   0.231   8.441 -0.3791  1.9808 -2.5765
  170SOPE  H15Y19268   5.610   0.133   8.418  1.2039 -1.0377 -4.0462
  170SOPE  C31619269   5.421   0.036   8.369 -0.1383 -0.5835  0.7779
  170SOPE  H16X19270   5.478  -0.027   8.298  0.3481  0.7605 -0.0495
  170SOPE  H16Y19271   5.321   0.060   8.329  0.6808  2.4351  0.4135
  170SOPE  C31719272   5.400  -0.034   8.503 -0.8727  0.4513 -0.7378
  170SOPE  H17X19273   5.351   0.031   8.579  1.2831  1.0578  0.1847
  170SOPE  H17Y19274   5.500  -0.064   8.539 -1.1345  1.6331  1.0514
  170SOPE  C31819275   5.315  -0.165   8.484  1.0630 -0.1051 -0.2008
  170SOPE  H18X19276   5.206  -0.143   8.480  0.8872 -1.2857 -3.0361
  170SOPE  H18Y19277   5.360  -0.235   8.557 -0.8925  1.2476  2.3727
  170SOPE  H18Z19278   5.321  -0.219   8.387  1.6274 -0.9975  0.3229
  171SOPE     N19279   5.627   3.134   6.456  0.5645  0.4045  0.0399
  171SOPE   HN119280   5.580   3.213   6.505 -0.5169 -0.7983  0.9545
  171SOPE   HN219281   5.552   3.070   6.425  1.5474 -1.4983  1.4778
  171SOPE   HN319282   5.698   3.090   6.518  1.7723  0.3031 -1.3859
  171SOPE   C1219283   5.694   3.190   6.336  0.3247 -0.0689  0.1268
  171SOPE  H12A19284   5.617   3.231   6.267 -0.7282 -0.1888  1.2241
  171SOPE  H12B19285   5.732   3.105   6.275  0.3349  0.0477 -0.0298
  171SOPE   C1119286   5.809   3.287   6.365  0.3003  0.3716  0.8094
  171SOPE  H11A19287   5.777   3.345   6.454 -0.8226 -1.6290  1.7406
  171SOPE  H11B19288   5.822   3.357   6.280  0.2951 -0.5924  0.0015
  171SOPE     P19289   6.064   3.260   6.413 -0.0876  0.0984 -0.2504
  171SOPE   O1319290   6.134   3.282   6.284  0.2225  0.2156 -0.2581
  171SOPE   O1419291   6.134   3.175   6.511  0.0976 -0.3757 -0.0054
  171SOPE   O1219292   5.921   3.210   6.387  0.5181  0.5341  0.0563
  171SOPE   O1119293   6.047   3.398   6.476  0.1984 -0.5460  0.3672
  171SOPE    C119294   6.133   3.453   6.578 -0.2852 -0.0956 -0.6503
  171SOPE    HA19295   6.143   3.564   6.572  0.4258  0.0054  2.0026
  171SOPE    HB19296   6.240   3.425   6.570 -0.0552 -0.2167  2.2920
  171SOPE    C219297   6.082   3.428   6.729  0.1883 -0.0260 -0.0749
  171SOPE    HS19298   6.104   3.325   6.762 -0.4570  0.1306  0.8493
  171SOPE   O2119299   5.937   3.446   6.732  0.3564  0.2573  0.3956
  171SOPE   C2119300   5.876   3.393   6.831 -0.3237 -0.2643  0.6040
  171SOPE   O2219301   5.926   3.311   6.910  0.3094 -0.0243 -0.7470
  171SOPE   C2219302   5.733   3.457   6.839 -0.5415 -0.1706  0.1096
  171SOPE   H2R19303   5.654   3.381   6.854 -1.7201  1.3492  1.8066
  171SOPE   H2S19304   5.711   3.508   6.743  1.5203  0.6202  0.0230
  171SOPE    C319305   6.164   3.515   6.831  0.6160 -0.5845 -0.1636
  171SOPE    HX19306   6.147   3.617   6.792 -2.2150 -0.0579  2.3112
  171SOPE    HY19307   6.268   3.478   6.820  0.1111 -2.1151  0.0832
  171SOPE   O3119308   6.109   3.521   6.962  0.4325  0.8505 -0.0744
  171SOPE   C3119309   6.173   3.452   7.057  0.4090  0.1681 -0.8692
  171SOPE   O3219310   6.278   3.386   7.046 -0.1505  0.2895 -0.2085
  171SOPE   C3219311   6.087   3.465   7.187 -0.5555  0.2846 -0.3290
  171SOPE   H2X19312   6.038   3.366   7.197  1.0733 -0.4236  0.9615
  171SOPE   H2Y19313   6.020   3.554   7.185 -0.1312  0.6287  0.4329
  171SOPE   C2319314   5.720   3.550   6.964  0.0573  0.1447 -0.0546
  171SOPE   H3R19315   5.614   3.583   6.965 -0.5209 -1.6564  1.1872
  171SOPE   H3S19316   5.787   3.639   6.958  0.8490 -0.4283  0.1657
  171SOPE   C2419317   5.735   3.478   7.100 -0.1875 -0.2733 -0.3706
  171SOPE   H4R19318   5.665   3.391   7.099  2.3673 -2.4676  1.5143
  171SOPE   H4S19319   5.831   3.427   7.125 -0.6699  0.5490  3.4448
  171SOPE   C2519320   5.701   3.569   7.212  0.9240 -0.2236  0.4330
  171SOPE   H5R19321   5.766   3.657   7.195  0.9616 -0.0398  1.4879
  171SOPE   H5S19322   5.596   3.604   7.214  0.1748 -2.2134 -1.5071
  171SOPE   C2619323   5.732   3.503   7.347 -0.0541 -0.1639  0.7319
  171SOPE   H6R19324   5.655   3.427   7.373 -2.2870  1.2150 -1.5857
  171SOPE   H6S19325   5.826   3.444   7.342  1.5274  2.2389  1.2880
  171SOPE   C2719326   5.725   3.607   7.461  0.1910 -0.4383  0.8661
  171SOPE   H7R19327   5.813   3.676   7.469  1.3844 -1.9037  0.6338
  171SOPE   H7S19328   5.627   3.659   7.462 -1.4079 -3.2609 -1.4431
  171SOPE   C2819329   5.732   3.538   7.602  0.0762  0.6366  0.1417
  171SOPE   H8R19330   5.658   3.455   7.593 -1.2063  1.5981  1.6981
  171SOPE   H8S19331   5.832   3.490   7.612 -0.4252  0.0181  2.5331
  171SOPE   C2919332   5.708   3.638   7.707  0.6058  0.3223 -0.4400
  171SOPE   H9119333   5.702   3.744   7.677  0.4593  0.3878 -0.1880
  171SOPE  C21019334   5.697   3.616   7.838 -0.5178 -0.0096 -0.3587
  171SOPE  H10119335   5.694   3.702   7.907 -2.1903  0.0645 -0.5013
  171SOPE  C21119336   5.705   3.481   7.905  0.3135 -0.2091  0.3909
  171SOPE  H11R19337   5.745   3.409   7.832  0.1390  0.9867 -0.9091
  171SOPE  H11S19338   5.606   3.443   7.936  0.7929 -1.3344  0.5490
  171SOPE  C21219339   5.790   3.479   8.035 -0.1122  0.0370  0.0193
  171SOPE  H12R19340   5.887   3.526   8.007 -0.1922 -0.0979 -0.4797
  171SOPE  H12S19341   5.804   3.374   8.068 -0.1930  0.3707  1.1525
  171SOPE  C21319342   5.722   3.555   8.151  0.1315 -0.2179  0.3198
  171SOPE  H13R19343   5.630   3.504   8.187  1.2926 -2.0100  0.8191
  171SOPE  H13S19344   5.705   3.661   8.123 -1.8447 -0.5648  0.0892
  171SOPE  C21419345   5.815   3.561   8.275  0.1006 -0.3773 -0.5139
  171SOPE  H14R19346   5.915   3.604   8.251  0.9796 -1.4614  1.1108
  171SOPE  H14S19347   5.844   3.457   8.301  0.9330 -0.3331 -1.2605
  171SOPE  C21519348   5.738   3.630   8.392 -0.1250  0.6401 -0.1414
  171SOPE  H15R19349   5.792   3.586   8.479  1.1895 -2.1762 -2.3142
  171SOPE  H15S19350   5.634   3.591   8.403  0.1254 -0.9192 -2.7693
  171SOPE  C21619351   5.752   3.784   8.399  0.2029 -0.1556  0.6200
  171SOPE  H16R19352   5.697   3.835   8.317 -0.2155 -0.2459  0.8410
  171SOPE  H16S19353   5.861   3.804   8.391 -0.0684  0.0632 -3.4702
  171SOPE  C21719354   5.713   3.837   8.544  0.0144 -0.1039 -0.6816
  171SOPE  H17R19355   5.711   3.948   8.539 -1.2208 -0.0652  0.3233
  171SOPE  H17S19356   5.800   3.816   8.610  0.1525  0.7918 -0.5726
  171SOPE  C21819357   5.583   3.791   8.616 -0.3543  0.7051  0.0479
  171SOPE  H18R19358   5.582   3.681   8.633 -1.0568  0.5756 -0.7820
  171SOPE  H18S19359   5.497   3.821   8.552  0.6521  0.3043 -1.5166
  171SOPE  H18T19360   5.574   3.831   8.719 -0.2796 -0.6276  0.5861
  171SOPE   C3319361   6.174   3.485   7.306  0.5318 -0.1371 -0.3331
  171SOPE   H3X19362   6.231   3.580   7.290  2.2409 -1.3558 -1.6239
  171SOPE   H3Y19363   6.243   3.401   7.327 -2.5732 -2.0076  2.8714
  171SOPE   C3419364   6.097   3.497   7.438 -0.1983  0.6889  0.3137
  171SOPE   H4X19365   6.033   3.407   7.450  1.9790 -1.4032 -2.8468
  171SOPE   H4Y19366   6.040   3.592   7.446 -0.7399  0.3152  1.0034
  171SOPE   C3519367   6.195   3.498   7.554 -0.3499 -0.7310 -0.3422
  171SOPE   H5X19368   6.270   3.575   7.528 -0.7158 -0.4294 -0.5166
  171SOPE   H5Y19369   6.249   3.401   7.545  2.6535  1.2085 -4.2850
  171SOPE   C3619370   6.132   3.528   7.689  0.0850 -0.3756 -0.1243
  171SOPE   H6X19371   6.039   3.469   7.698 -1.5025  2.1743  0.4715
  171SOPE   H6Y19372   6.097   3.633   7.685 -0.2759 -0.5258 -1.1898
  171SOPE   C3719373   6.224   3.511   7.806  0.4788  0.1068  0.8093
  171SOPE   H7X19374   6.294   3.597   7.820 -1.7659  2.0945  0.1661
  171SOPE   H7Y19375   6.283   3.419   7.789  1.1431  0.4297  1.3189
  171SOPE   C3819376   6.137   3.491   7.934  0.5433 -0.4214  0.1820
  171SOPE   H8X19377   6.075   3.400   7.918  1.2502 -1.3684  2.5924
  171SOPE   H8Y19378   6.068   3.575   7.957 -0.1063 -0.6752 -0.7886
  171SOPE   C3919379   6.224   3.451   8.060 -0.6793  0.6385  0.1477
  171SOPE   H9X19380   6.270   3.540   8.107  1.3210 -0.6432  0.6588
  171SOPE   H9Y19381   6.301   3.374   8.040 -1.3989 -0.3677  1.1786
  171SOPE  C31019382   6.125   3.392   8.158  0.6689 -0.6258 -0.1207
  171SOPE  H10X19383   6.059   3.319   8.108 -0.2873  0.5344 -0.5682
  171SOPE  H10Y19384   6.068   3.482   8.189  0.6146 -1.8623  3.6086
  171SOPE  C31119385   6.185   3.316   8.277  0.1089 -0.3796  0.5879
  171SOPE  H11X19386   6.225   3.392   8.348  1.2693 -0.5647  0.1532
  171SOPE  H11Y19387   6.262   3.243   8.243 -2.4060 -2.5540 -0.5303
  171SOPE  C31219388   6.066   3.246   8.355 -0.5586  0.7403  0.0671
  171SOPE  H12X19389   6.030   3.163   8.290  0.0475  0.2138  0.3956
  171SOPE  H12Y19390   5.981   3.316   8.367 -1.8765 -1.0040  1.2535
  171SOPE  C31319391   6.093   3.171   8.488  0.3443 -1.0353  0.2274
  171SOPE  H13X19392   5.999   3.127   8.528 -1.8200  1.0467 -2.4151
  171SOPE  H13Y19393   6.113   3.254   8.559 -1.7819  0.8093 -1.2725
  171SOPE  C31419394   6.207   3.065   8.481  0.3314  0.1215 -0.0488
  171SOPE  H14X19395   6.236   3.033   8.584 -0.6084 -1.2680 -0.2059
  171SOPE  H14Y19396   6.297   3.113   8.439  1.6381 -2.2611 -0.0246
  171SOPE  C31519397   6.178   2.942   8.387 -0.5489  0.0692 -0.5458
  171SOPE  H15X19398   6.271   2.883   8.395 -0.7494 -0.0687  0.9681
  171SOPE  H15Y19399   6.161   2.972   8.281 -3.0704  1.0406  0.0967
  171SOPE  C31619400   6.062   2.853   8.449 -0.1503  0.3883 -0.2484
  171SOPE  H16X19401   5.971   2.913   8.472 -0.8305 -0.3217 -1.0748
  171SOPE  H16Y19402   6.104   2.806   8.540 -0.1864  0.0154 -0.4240
  171SOPE  C31719403   6.017   2.745   8.349  0.5220  0.4229 -0.3032
  171SOPE  H17X19404   5.962   2.805   8.273 -1.5049 -0.4026  0.4698
  171SOPE  H17Y19405   5.938   2.697   8.411  0.3232  3.2847  1.7963
  171SOPE  C31819406   6.127   2.653   8.304  0.3141  0.8376  1.1924
  171SOPE  H18X19407   6.165   2.600   8.394 -1.9618 -2.2501  0.4278
  171SOPE  H18Y19408   6.219   2.701   8.264  2.4002 -1.1862  3.4063
  171SOPE  H18Z19409   6.084   2.575   8.238 -0.1557  0.1382  2.3054
  172SOPE     N19410   6.513   5.773   6.676 -0.1301 -0.0921  0.8722
  172SOPE   HN119411   6.549   5.864   6.712 -0.7857  0.2725  0.6144
  172SOPE   HN219412   6.410   5.762   6.673 -0.4020  2.3985  0.4196
  172SOPE   HN319413   6.546   5.695   6.736  2.1155 -0.8187 -1.2184
  172SOPE   C1219414   6.579   5.764   6.544 -0.0180  0.4398  0.0833
  172SOPE  H12A19415   6.680   5.808   6.554  0.8721 -1.6659  0.5903
  172SOPE  H12B19416   6.532   5.836   6.473  1.8589  0.9610 -0.6398
  172SOPE   C1119417   6.574   5.620   6.493 -0.6331 -0.0214 -0.0696
  172SOPE  H11A19418   6.647   5.572   6.562 -1.2619  0.6351  1.0469
  172SOPE  H11B19419   6.614   5.622   6.389 -0.1975  3.1067  0.1162
  172SOPE     P19420   6.402   5.452   6.602  0.3270  0.0462 -0.0898
  172SOPE   O1319421   6.511   5.355   6.602 -0.1753  1.0528  0.1797
  172SOPE   O1419422   6.274   5.398   6.566  0.6342  0.8239  0.1446
  172SOPE   O1219423   6.443   5.559   6.490 -0.0703 -0.5216 -0.1006
  172SOPE   O1119424   6.385   5.537   6.731 -0.1829  0.0847 -0.4593
  172SOPE    C119425   6.270   5.527   6.820 -0.7397 -0.0535  0.0471
  172SOPE    HA19426   6.228   5.424   6.819 -3.0426  0.8649  0.5507
  172SOPE    HB19427   6.181   5.586   6.789 -0.8796  0.0737  0.6767
  172SOPE    C219428   6.314   5.561   6.972 -0.0533 -0.5439  0.1095
  172SOPE    HS19429   6.327   5.671   6.978 -3.1305 -0.0439 -1.7005
  172SOPE   O2119430   6.449   5.505   7.003  0.4830  0.4401  0.0581
  172SOPE   C2119431   6.467   5.381   6.972 -0.3090 -0.2038 -0.2728
  172SOPE   O2219432   6.387   5.292   6.945  0.0920  0.3099 -0.1726
  172SOPE   C2219433   6.623   5.355   6.995  0.0879 -0.1777  0.2377
  172SOPE   H2R19434   6.669   5.389   6.900 -0.0111  0.3265  0.3716
  172SOPE   H2S19435   6.626   5.245   7.007 -3.8750 -0.3100  0.8912
  172SOPE    C319436   6.204   5.528   7.077 -0.5208  0.1738  0.7601
  172SOPE    HX19437   6.177   5.420   7.078 -0.9262  0.2489 -1.1531
  172SOPE    HY19438   6.123   5.589   7.033  1.1607  2.6763  0.9959
  172SOPE   O3119439   6.248   5.562   7.213  0.1470  0.5221  0.3358
  172SOPE   C3119440   6.181   5.524   7.311 -0.6829 -0.1314 -0.6949
  172SOPE   O3219441   6.088   5.443   7.310  0.2778  0.7293 -0.0533
  172SOPE   C3219442   6.233   5.579   7.443 -0.3568  0.1692  0.4073
  172SOPE   H2X19443   6.267   5.684   7.434 -0.5237  0.1445 -0.5188
  172SOPE   H2Y19444   6.331   5.534   7.469  0.0310  1.4860  1.2726
  172SOPE   C2319445   6.682   5.419   7.128  0.2596  0.3097 -0.4805
  172SOPE   H3R19446   6.644   5.523   7.123  1.1064  0.6071 -0.8014
  172SOPE   H3S19447   6.794   5.422   7.126  0.3805 -2.5989 -0.8099
  172SOPE   C2419448   6.641   5.349   7.254  0.1533  0.2417  0.3314
  172SOPE   H4R19449   6.531   5.329   7.258 -0.2353  2.1466 -0.2498
  172SOPE   H4S19450   6.697   5.254   7.266  0.5226  0.2213 -1.5273
  172SOPE   C2519451   6.664   5.446   7.379 -0.4238 -0.0368 -0.3925
  172SOPE   H5R19452   6.765   5.489   7.368 -0.9525  0.5887 -3.0676
  172SOPE   H5S19453   6.587   5.526   7.369 -0.3203  0.1234  0.0772
  172SOPE   C2619454   6.649   5.377   7.508 -0.1933  1.2175  0.2611
  172SOPE   H6R19455   6.553   5.322   7.510  0.1033  0.6417 -0.7525
  172SOPE   H6S19456   6.726   5.303   7.537 -0.5818 -0.1730 -2.1205
  172SOPE   C2719457   6.647   5.482   7.628 -0.6551 -0.2115 -0.1959
  172SOPE   H7R19458   6.747   5.527   7.641 -0.5369  0.0127 -1.7606
  172SOPE   H7S19459   6.579   5.566   7.603 -1.2271  0.4396  3.3389
  172SOPE   C2819460   6.604   5.434   7.766 -0.3348 -1.5952 -0.4647
  172SOPE   H8R19461   6.571   5.527   7.817  1.0014  0.4608 -3.1663
  172SOPE   H8S19462   6.510   5.376   7.765 -0.8802 -0.7382  0.1594
  172SOPE   C2919463   6.707   5.363   7.851 -0.3006  0.1681  0.5779
  172SOPE   H9119464   6.787   5.308   7.800 -0.5796 -0.3024  0.6434
  172SOPE  C21019465   6.708   5.366   7.986  0.1108 -0.6165 -0.5769
  172SOPE  H10119466   6.776   5.295   8.034  0.8899 -1.0791 -2.3370
  172SOPE  C21119467   6.610   5.429   8.083  0.0172  0.1047 -0.5997
  172SOPE  H11R19468   6.580   5.529   8.045 -0.5497 -0.6675 -2.2366
  172SOPE  H11S19469   6.662   5.450   8.179  1.5830  0.0632 -1.4193
  172SOPE  C21219470   6.495   5.329   8.108 -0.3104  0.4485  0.0551
  172SOPE  H12R19471   6.537   5.227   8.105 -0.7691  0.2395  0.5350
  172SOPE  H12S19472   6.413   5.344   8.035 -0.1358  0.1622 -0.1964
  172SOPE  C21319473   6.419   5.349   8.240  0.6160  0.0310  0.1798
  172SOPE  H13R19474   6.480   5.311   8.325  0.0833 -1.8556 -0.2594
  172SOPE  H13S19475   6.331   5.281   8.248 -0.5130  1.3339 -0.8125
  172SOPE  C21419476   6.392   5.494   8.275  0.4893  0.4382 -0.2271
  172SOPE  H14R19477   6.300   5.530   8.223  0.3553 -0.1470 -0.3978
  172SOPE  H14S19478   6.474   5.560   8.240  0.4792  0.5458 -0.0461
  172SOPE  C21519479   6.387   5.510   8.425  0.0543 -0.2721  1.0402
  172SOPE  H15R19480   6.483   5.476   8.468 -0.0252 -1.2561  0.4467
  172SOPE  H15S19481   6.314   5.434   8.463  0.3942 -2.8496 -3.1720
  172SOPE  C21619482   6.370   5.656   8.472 -0.3528  0.2113 -0.3305
  172SOPE  H16R19483   6.270   5.688   8.436 -0.7443  0.3356  0.8375
  172SOPE  H16S19484   6.447   5.722   8.425 -2.6060  2.7582 -0.5917
  172SOPE  C21719485   6.357   5.666   8.616 -0.1923 -0.6738  0.4827
  172SOPE  H17R19486   6.430   5.593   8.657 -0.2288  0.6162  2.9571
  172SOPE  H17S19487   6.254   5.629   8.639 -0.0593 -0.6705  1.1096
  172SOPE  C21819488   6.369   5.803   8.680  0.3257  1.0138  0.6011
  172SOPE  H18R19489   6.290   5.875   8.647 -0.4378 -0.5978 -1.1555
  172SOPE  H18S19490   6.470   5.839   8.651  0.1095  0.6702 -0.6139
  172SOPE  H18T19491   6.358   5.796   8.790  2.2876  0.4991  0.7812
  172SOPE   C3319492   6.139   5.567   7.562 -0.5945  0.2137 -0.0008
  172SOPE   H3X19493   6.205   5.596   7.646 -1.7399  1.3114  0.5348
  172SOPE   H3Y19494   6.106   5.463   7.579 -1.8654  1.0341  2.9430
  172SOPE   C3419495   6.022   5.673   7.569  0.3466  0.2417 -0.0890
  172SOPE   H4X19496   5.946   5.629   7.501 -0.5752  0.9061  0.5116
  172SOPE   H4Y19497   6.052   5.770   7.524  0.7141 -0.2601 -0.9476
  172SOPE   C3519498   5.969   5.696   7.715  0.1942 -0.6305  0.0571
  172SOPE   H5X19499   5.866   5.736   7.705  0.2535 -0.2277  1.0305
  172SOPE   H5Y19500   6.033   5.774   7.763  0.0372 -1.6407  1.9376
  172SOPE   C3619501   5.973   5.573   7.798 -0.5380 -0.0866  0.5852
  172SOPE   H6X19502   6.071   5.521   7.806  0.0333  0.9691  0.6547
  172SOPE   H6Y19503   5.915   5.495   7.744  1.1189 -0.5860 -0.5195
  172SOPE   C3719504   5.912   5.592   7.939  0.1844 -0.0461  0.0035
  172SOPE   H7X19505   5.816   5.646   7.920 -0.4647 -1.2372 -0.2234
  172SOPE   H7Y19506   5.979   5.663   7.991  1.2457 -1.2699  0.3451
  172SOPE   C3819507   5.914   5.471   8.026  0.1279  1.3021 -0.0593
  172SOPE   H8X19508   5.900   5.385   7.957  0.4824  0.6688  0.6494
  172SOPE   H8Y19509   5.818   5.478   8.081 -0.9791  2.1446 -2.0412
  172SOPE   C3919510   6.039   5.465   8.114 -0.2275  0.0792 -0.4582
  172SOPE   H9X19511   6.030   5.561   8.170 -1.5360 -0.1597 -0.2518
  172SOPE   H9Y19512   6.133   5.470   8.055 -0.1295  2.0010 -0.1805
  172SOPE  C31019513   6.041   5.363   8.225 -0.9379  0.3409 -0.1971
  172SOPE  H10X19514   5.950   5.375   8.288 -1.7125  0.5626 -1.3441
  172SOPE  H10Y19515   6.127   5.394   8.289  0.6470  0.6297 -2.4021
  172SOPE  C31119516   6.053   5.218   8.175  0.0944 -0.6480  0.0409
  172SOPE  H11X19517   6.143   5.219   8.110  0.6170  0.3243  0.7737
  172SOPE  H11Y19518   5.966   5.191   8.111 -1.7582  1.4371  1.5986
  172SOPE  C31219519   6.072   5.119   8.291 -0.6103 -0.0300 -0.1998
  172SOPE  H12X19520   6.040   5.185   8.375  0.9515  1.1023 -0.4720
  172SOPE  H12Y19521   6.177   5.096   8.318  0.1313  0.1536 -2.8415
  172SOPE  C31319522   5.979   4.997   8.288  0.3566  0.2271 -0.0782
  172SOPE  H13X19523   5.995   4.948   8.190  1.0201 -2.5899  1.3787
  172SOPE  H13Y19524   5.875   5.038   8.284  0.2610 -0.0208 -0.1156
  172SOPE  C31419525   5.996   4.896   8.396 -0.0199  0.8429  0.7947
  172SOPE  H14X19526   5.905   4.834   8.395 -1.2489  2.6111  1.1414
  172SOPE  H14Y19527   5.996   4.959   8.487 -0.4818  1.1611  0.5768
  172SOPE  C31519528   6.123   4.814   8.377 -0.4004  0.1275 -0.2591
  172SOPE  H15X19529   6.208   4.871   8.334 -0.1361 -0.7716 -0.9318
  172SOPE  H15Y19530   6.097   4.735   8.304  0.1367 -0.4359  0.1557
  172SOPE  C31619531   6.180   4.738   8.501 -0.6148 -0.2266  0.6250
  172SOPE  H16X19532   6.091   4.698   8.554 -1.4380 -0.7952 -1.1424
  172SOPE  H16Y19533   6.241   4.805   8.564 -0.0006 -0.2651  0.0815
  172SOPE  C31719534   6.263   4.623   8.438 -0.4954  0.1712  0.0459
  172SOPE  H17X19535   6.311   4.649   8.341  2.4330  0.9475  1.6763
  172SOPE  H17Y19536   6.195   4.541   8.405  2.0882 -1.1062 -2.3893
  172SOPE  C31819537   6.380   4.570   8.527  0.1056 -0.5403 -0.1101
  172SOPE  H18X19538   6.432   4.479   8.491  2.7475  0.7576  0.3596
  172SOPE  H18Y19539   6.337   4.538   8.624  2.0045 -0.9937  0.5951
  172SOPE  H18Z19540   6.462   4.641   8.546 -0.2791 -0.2802  0.6028
  173SAPI   C1219541   1.537   3.425  10.603  0.2068 -0.6392 -0.1813
  173SAPI    H219542   1.620   3.374  10.549 -0.1373 -0.3186 -1.0258
  173SAPI    O219543   1.570   3.558  10.652 -0.0289  0.0094 -0.2222
  173SAPI   HO219544   1.662   3.563  10.679 -0.0393  3.5438 -0.5271
  173SAPI   C1319545   1.423   3.437  10.503 -0.1709  0.2101  0.9163
  173SAPI    H319546   1.401   3.334  10.468  1.6159  0.2969 -0.5848
  173SAPI    O319547   1.463   3.501  10.386 -0.0890 -0.1640  0.7326
  173SAPI   HO319548   1.427   3.590  10.385 -1.5933 -0.7671 -0.7358
  173SAPI   C1419549   1.302   3.496  10.565 -0.5331 -0.5059 -0.4069
  173SAPI    H419550   1.330   3.595  10.607  1.7206 -1.1611 -0.2951
  173SAPI    O419551   1.193   3.513  10.470 -0.1124 -0.0321 -0.2370
  173SAPI   HO419552   1.119   3.558  10.511 -0.3241 -0.1353 -0.5070
  173SAPI   C1519553   1.262   3.413  10.691 -0.4282 -0.1028  0.1535
  173SAPI    H519554   1.209   3.324  10.652  0.5278 -0.5564 -0.1429
  173SAPI    O519555   1.169   3.483  10.764 -0.1485  0.3810  0.2792
  173SAPI   HO519556   1.128   3.420  10.824  1.1590 -1.6299 -0.8632
  173SAPI   C1619557   1.377   3.383  10.793  0.0046  0.6693  0.4800
  173SAPI    H619558   1.402   3.481  10.841  0.2074  0.2218  1.2948
  173SAPI    O619559   1.339   3.279  10.880  0.7138  0.1102  0.4825
  173SAPI   HO619560   1.372   3.290  10.969  1.3273 -0.0284  0.2735
  173SAPI   C1119561   1.494   3.329  10.709 -0.1309 -0.0179  0.2155
  173SAPI    H119562   1.459   3.234  10.665 -0.1055 -0.9562  2.1459
  173SAPI     P19563   1.694   3.162  10.802  0.5713 -0.0897  0.0639
  173SAPI   O1319564   1.598   3.050  10.835  0.3858  0.4776 -0.4525
  173SAPI   O1419565   1.809   3.181  10.894  0.0809 -0.0239 -0.3841
  173SAPI   O1219566   1.609   3.304  10.795 -0.0847 -0.3299  0.3923
  173SAPI   O1119567   1.744   3.133  10.656  0.2256 -0.0378 -0.4499
  173SAPI    C119568   1.879   3.138  10.614 -0.3514  0.1338 -0.3129
  173SAPI    HA19569   1.919   3.240  10.628 -0.8948  0.1882  0.9010
  173SAPI    HB19570   1.936   3.052  10.657 -0.4367 -0.7810 -1.9846
  173SAPI    C219571   1.895   3.116  10.467  0.1379 -1.0387 -0.1447
  173SAPI    HS19572   2.002   3.122  10.435  0.2221  1.3959  0.4650
  173SAPI   O2119573   1.802   3.212  10.403 -0.2826  0.4476 -0.3550
  173SAPI   C2119574   1.844   3.271  10.288 -0.2792 -0.2706  0.3552
  173SAPI   O2219575   1.958   3.254  10.243 -0.5186  0.5374  0.7370
  173SAPI   C2219576   1.740   3.352  10.224 -0.8529 -0.1246  0.1520
  173SAPI   H2R19577   1.642   3.300  10.214  0.1768 -2.0809 -0.1052
  173SAPI   H2S19578   1.721   3.430  10.301  0.5325  1.9662 -1.5760
  173SAPI    C319579   1.860   2.973  10.416  0.1320  0.5236  0.0215
  173SAPI    HX19580   1.759   2.953  10.458  1.4480 -1.1197  2.5078
  173SAPI    HY19581   1.944   2.915  10.460 -0.3533  0.8853  1.4634
  173SAPI   O3119582   1.842   2.971  10.276  0.0128  0.1514 -0.0223
  173SAPI   C3119583   1.852   2.851  10.229  0.6436 -0.3769  0.4673
  173SAPI   O3219584   1.866   2.751  10.296  0.0836  0.1272  0.0478
  173SAPI   C3219585   1.864   2.873  10.078 -0.2668 -0.3375 -0.3880
  173SAPI   H2X19586   1.970   2.905  10.066 -0.7546  1.6184  0.2190
  173SAPI   H2Y19587   1.797   2.955  10.045 -0.5356 -0.6684 -0.6707
  173SAPI   C2319588   1.789   3.398  10.080 -0.2766 -0.2579 -0.3688
  173SAPI   H3R19589   1.887   3.448  10.097 -0.9539  1.4449 -1.3893
  173SAPI   H3S19590   1.718   3.471  10.036  0.0417  0.1602 -0.1957
  173SAPI   C2419591   1.805   3.288   9.978  0.5899 -0.3771 -0.3365
  173SAPI   H4R19592   1.702   3.247   9.973  0.9843 -1.3420 -0.8184
  173SAPI   H4S19593   1.878   3.209  10.008 -0.7602 -1.1334  0.9844
  173SAPI   C2519594   1.849   3.332   9.843 -0.3192 -0.3974  0.5354
  173SAPI   H5R19595   1.786   3.405   9.790 -1.8941 -0.6840  1.9547
  173SAPI   C2619596   1.966   3.295   9.779 -0.1678 -0.5079 -0.2787
  173SAPI   H6R19597   1.983   3.337   9.679 -0.1320  0.0578 -0.0351
  173SAPI   C2719598   2.064   3.193   9.837 -0.5196  0.0937 -0.1637
  173SAPI   H7R19599   2.025   3.092   9.815  0.6566 -0.0545 -1.6403
  173SAPI   H7S19600   2.072   3.198   9.948  3.3908 -1.0282 -0.3119
  173SAPI   C2819601   2.200   3.191   9.778 -0.6415 -1.2486 -0.6588
  173SAPI   H8R19602   2.278   3.210   9.852 -1.4818 -5.5067  1.5040
  173SAPI   C2919603   2.239   3.153   9.659  0.6530  0.0582 -0.6774
  173SAPI   H9R19604   2.345   3.152   9.632  1.0897  0.3013  0.9935
  173SAPI  C21019605   2.147   3.102   9.554  0.6664  0.1400 -0.0607
  173SAPI  H10R19606   2.149   3.182   9.477  0.6047  0.9345  0.7617
  173SAPI  H10S19607   2.044   3.096   9.595  1.1166  0.9045  1.2053
  173SAPI  C21119608   2.161   2.964   9.496 -0.1315  0.5050  0.6328
  173SAPI  H11R19609   2.154   2.879   9.565 -1.4467 -0.3308 -0.5047
  173SAPI  C21219610   2.158   2.938   9.361 -0.5777  0.6549 -1.1600
  173SAPI  H12R19611   2.162   2.835   9.323 -2.3055 -0.3482  1.2413
  173SAPI  C21319612   2.150   3.046   9.252  0.1920  0.5440 -0.5103
  173SAPI  H13R19613   2.210   3.016   9.163 -1.7920 -0.2266 -1.6252
  173SAPI  H13S19614   2.217   3.126   9.288  1.2271 -0.3634 -0.3985
  173SAPI  C21419615   2.016   3.102   9.217 -0.1041  0.2779 -0.2932
  173SAPI  H14R19616   1.929   3.042   9.247 -1.0218  0.3116 -2.7560
  173SAPI  C21519617   1.997   3.226   9.165 -0.0451  0.2805  0.2875
  173SAPI  H15R19618   1.896   3.264   9.144 -0.2967 -0.2823  0.4888
  173SAPI  C21619619   2.100   3.327   9.124  0.1497  0.1294  0.2761
  173SAPI  H16R19620   2.204   3.291   9.137 -0.1408 -0.1516  1.8720
  173SAPI  H16S19621   2.094   3.422   9.182 -1.6251  0.3172 -0.1599
  173SAPI  C21719622   2.093   3.362   8.973  0.1647 -0.0891  0.4635
  173SAPI  H17R19623   2.158   3.448   8.948  0.1390  0.3969  2.0196
  173SAPI  H17S19624   1.988   3.391   8.953 -0.0667 -1.3928 -0.2889
  173SAPI  C21819625   2.142   3.253   8.877 -0.7684  0.2639  0.9117
  173SAPI  H18R19626   2.109   3.148   8.888  0.3698  0.0768  2.8313
  173SAPI  H18S19627   2.253   3.247   8.882 -0.4908  2.8484 -1.1588
  173SAPI  C21919628   2.116   3.290   8.727  1.4575 -0.2579  0.0111
  173SAPI  H19R19629   2.180   3.225   8.664  2.0479  1.3048 -1.0432
  173SAPI  H19S19630   2.152   3.393   8.704  1.4714 -0.0218  1.1054
  173SAPI  C22019631   1.972   3.277   8.674 -0.1950  0.0578 -0.5341
  173SAPI  H20R19632   1.954   3.319   8.573  0.1796  0.8747 -0.2689
  173SAPI  H20S19633   1.910   3.341   8.741 -0.0495  1.1826 -1.4555
  173SAPI  H20T19634   1.942   3.170   8.674 -0.6692  0.1690  1.0067
  173SAPI   C3319635   1.832   2.747   9.998 -0.2918 -0.1187 -0.7059
  173SAPI   H3X19636   1.731   2.702  10.013  0.2393 -1.4161 -0.9713
  173SAPI   H3Y19637   1.911   2.673  10.021 -1.3313 -1.0700 -0.1304
  173SAPI   C3419638   1.846   2.780   9.852  0.1356  0.7410  0.5039
  173SAPI   H4X19639   1.945   2.827   9.830 -1.3087  3.0092 -1.3133
  173SAPI   H4Y19640   1.766   2.852   9.822  0.0869  0.4191 -0.1469
  173SAPI   C3519641   1.839   2.655   9.761 -0.0148  0.4905 -0.2000
  173SAPI   H5X19642   1.741   2.607   9.781  0.6412 -0.9993 -0.4824
  173SAPI   H5Y19643   1.912   2.573   9.776  0.2675  0.8148  0.2205
  173SAPI   C3619644   1.837   2.690   9.618 -0.0391 -0.5860 -0.0328
  173SAPI   H6X19645   1.925   2.756   9.605 -1.1334  0.7886 -0.5391
  173SAPI   H6Y19646   1.748   2.755   9.603 -0.2912 -0.9201  0.0065
  173SAPI   C3719647   1.818   2.576   9.528 -0.1945  0.4202  0.1538
  173SAPI   H7X19648   1.735   2.508   9.555 -0.9619  0.7326 -1.3563
  173SAPI   H7Y19649   1.911   2.516   9.537  0.2959  1.2460  0.7303
  173SAPI   C3819650   1.792   2.601   9.379 -0.1824 -0.0017  0.0793
  173SAPI   H8X19651   1.728   2.691   9.363 -1.1459 -0.9091 -1.2608
  173SAPI   H8Y19652   1.732   2.514   9.345  0.3439 -0.3952  0.1556
  173SAPI   C3919653   1.920   2.621   9.307 -0.0933 -0.0511  0.2809
  173SAPI   H9X19654   1.971   2.522   9.304  0.8292  0.4562 -1.4284
  173SAPI   H9Y19655   1.990   2.687   9.362  0.1821 -0.8446  0.8887
  173SAPI  C31019656   1.897   2.670   9.162  0.0029  0.2621  0.1628
  173SAPI  H10X19657   1.872   2.778   9.165  0.8164  0.4655 -0.3130
  173SAPI  H10Y19658   1.806   2.620   9.120 -0.0010 -0.4914  1.0479
  173SAPI  C31119659   2.022   2.654   9.076 -0.3209 -0.0458  0.9464
  173SAPI  H11X19660   2.048   2.556   9.031  0.1142  0.4766  0.0380
  173SAPI  H11Y19661   2.108   2.696   9.133  2.6329 -2.8969 -1.2511
  173SAPI  C31219662   2.025   2.752   8.963 -0.4938  0.4212 -0.4223
  173SAPI  H12X19663   2.109   2.721   8.896  0.2688  1.2038  0.1625
  173SAPI  H12Y19664   2.038   2.860   8.987  0.3053  0.2801 -0.2012
  173SAPI  C31319665   1.901   2.758   8.876  0.5044  0.1771  0.8581
  173SAPI  H13X19666   1.819   2.814   8.926  0.1273  0.2372  0.1670
  173SAPI  H13Y19667   1.868   2.653   8.865 -0.8883  0.3379  3.0350
  173SAPI  C31419668   1.927   2.834   8.752 -0.2467 -0.2424  0.2023
  173SAPI  H14X19669   1.985   2.775   8.677  0.2326 -0.3531  0.6587
  173SAPI  H14Y19670   2.003   2.913   8.768 -1.4850  1.4492 -1.8210
  173SAPI  C31519671   1.810   2.899   8.692 -0.4888  0.1158 -0.4638
  173SAPI  H15X19672   1.847   2.983   8.631 -0.8668  0.9798  0.4831
  173SAPI  H15Y19673   1.741   2.941   8.768 -1.4228 -0.4145 -1.0064
  173SAPI  C31619674   1.726   2.798   8.604  0.2105 -0.3946  0.5439
  173SAPI  H16X19675   1.628   2.843   8.580  0.5905  1.0212  1.5984
  173SAPI  H16Y19676   1.708   2.703   8.659  0.3869 -1.0863 -0.5932
  173SAPI  C31719677   1.791   2.771   8.468  0.1802  0.5934 -0.0850
  173SAPI  H17X19678   1.879   2.707   8.492  0.7018  1.9064  1.5695
  173SAPI  H17Y19679   1.833   2.865   8.426 -0.6883  0.6552 -0.8266
  173SAPI  C31819680   1.700   2.705   8.361  0.1918  0.0938 -0.7028
  173SAPI  H18X19681   1.605   2.763   8.357 -0.4684 -0.9683 -0.4182
  173SAPI  H18Y19682   1.680   2.597   8.375 -2.1213  0.6622  0.5534
  173SAPI  H18Z19683   1.761   2.719   8.269  0.4558  0.4196 -0.4799
  174SAPI   C1219684   5.166   3.658  11.043  0.1269  0.1275  0.1851
  174SAPI    H219685   5.095   3.601  10.979 -1.0744  1.8521 -0.0464
  174SAPI    O219686   5.212   3.770  10.976  0.6864  0.1780 -0.0422
  174SAPI   HO219687   5.291   3.741  10.930  0.2774  1.0436 -1.2972
  174SAPI   C1319688   5.082   3.681  11.166  0.3896 -0.1123  0.1323
  174SAPI    H319689   5.045   3.582  11.203  4.3204 -1.6911  0.1195
  174SAPI    O319690   4.970   3.762  11.140  0.0610 -0.3530 -0.2417
  174SAPI   HO319691   4.986   3.856  11.146 -2.6230  0.1300  0.0676
  174SAPI   C1419692   5.167   3.755  11.275  0.4463  0.0559  0.2678
  174SAPI    H419693   5.209   3.853  11.245 -1.3820  0.8517  0.1988
  174SAPI    O419694   5.091   3.777  11.389 -0.1090 -0.5471 -0.0265
  174SAPI   HO419695   5.118   3.852  11.442 -1.2773 -1.8069  2.4750
  174SAPI   C1519696   5.290   3.662  11.305 -0.4443 -0.3858 -0.8057
  174SAPI    H519697   5.241   3.574  11.351  0.9078  1.1705  3.8441
  174SAPI    O519698   5.366   3.726  11.412 -0.6755  0.3749  0.0726
  174SAPI   HO519699   5.411   3.802  11.375  1.1709 -0.6661  0.0732
  174SAPI   C1619700   5.371   3.623  11.179 -0.6887 -0.0001 -0.2875
  174SAPI    H619701   5.402   3.721  11.137 -0.6766  0.5003  0.8427
  174SAPI    O619702   5.487   3.543  11.210  0.1521 -0.0893  0.0516
  174SAPI   HO619703   5.459   3.452  11.220 -0.9645  0.1325 -0.8634
  174SAPI   C1119704   5.277   3.563  11.077  0.0302  0.3734 -0.2909
  174SAPI    H119705   5.226   3.479  11.128  1.0508 -0.2071 -0.2004
  174SAPI     P19706   5.284   3.396  10.871 -0.2619  0.1947 -0.7850
  174SAPI   O1319707   5.195   3.312  10.958  0.0312  0.0058  0.5764
  174SAPI   O1419708   5.392   3.324  10.798  0.1610 -0.0468 -0.1695
  174SAPI   O1219709   5.353   3.517  10.962 -0.1181 -0.0694  0.1383
  174SAPI   O1119710   5.184   3.470  10.774  0.5655 -0.7832 -0.4809
  174SAPI    C119711   5.223   3.576  10.692  0.8054 -0.3740  0.1283
  174SAPI    HA19712   5.222   3.668  10.755  2.0714 -0.0643 -0.2809
  174SAPI    HB19713   5.330   3.576  10.662  1.0305  0.1576  0.9140
  174SAPI    C219714   5.124   3.597  10.576  0.0429 -0.2687 -0.2173
  174SAPI    HS19715   5.029   3.629  10.623 -0.5545 -0.6583 -1.1569
  174SAPI   O2119716   5.118   3.479  10.493  0.1655  0.2213  0.5456
  174SAPI   C2119717   5.022   3.388  10.515 -0.4430  0.5962 -0.4219
  174SAPI   O2219718   4.950   3.379  10.611  0.5948  0.6030 -1.4087
  174SAPI   C2219719   5.022   3.290  10.389 -0.0938  0.1012  0.0697
  174SAPI   H2R19720   5.115   3.234  10.366 -1.4933 -1.8486 -1.0151
  174SAPI   H2S19721   4.935   3.221  10.399  1.4081 -1.7533  0.6232
  174SAPI    C319722   5.171   3.720  10.488  0.4590  0.1089 -0.2386
  174SAPI    HX19723   5.279   3.705  10.467  0.9673  0.7567  1.8259
  174SAPI    HY19724   5.160   3.808  10.555 -0.4578 -2.2745  2.8323
  174SAPI   O3119725   5.094   3.724  10.369  0.1205 -0.1207 -0.2289
  174SAPI   C3119726   5.146   3.677  10.257 -0.8676 -1.1929  0.4277
  174SAPI   O3219727   5.253   3.624  10.237 -0.0199 -0.1030  0.1147
  174SAPI   C3219728   5.042   3.706  10.143 -0.0134 -0.7713 -0.1049
  174SAPI   H2X19729   5.024   3.815  10.143 -2.2707 -1.0912  2.1458
  174SAPI   H2Y19730   4.942   3.661  10.162 -0.9100  0.8773 -0.8596
  174SAPI   C2319731   4.970   3.365  10.258  0.2512 -1.0329  0.7611
  174SAPI   H3R19732   5.052   3.417  10.204 -0.7287  1.1924  1.3649
  174SAPI   H3S19733   4.893   3.443  10.275  1.8223  0.3290  1.8535
  174SAPI   C2419734   4.882   3.283  10.153 -0.1914  0.1565 -0.1518
  174SAPI   H4R19735   4.852   3.353  10.072  1.5191  1.9660  0.7315
  174SAPI   H4S19736   4.789   3.249  10.203  0.6075 -0.8215  0.6800
  174SAPI   C2519737   4.949   3.155  10.093  0.1296  0.8196 -0.2908
  174SAPI   H5R19738   4.993   3.090  10.170 -1.0032 -1.6231 -1.6479
  174SAPI   C2619739   4.969   3.131   9.963  0.3304  0.4695 -0.0444
  174SAPI   H6R19740   5.002   3.028   9.943 -1.6321 -0.1416 -0.2226
  174SAPI   C2719741   4.922   3.202   9.839  0.3956  0.3186  0.2654
  174SAPI   H7R19742   5.012   3.199   9.775  0.6823  2.2319  0.5448
  174SAPI   H7S19743   4.914   3.310   9.862  3.0776  0.4602  0.6428
  174SAPI   C2819744   4.793   3.146   9.784  0.2541 -0.4922 -0.2046
  174SAPI   H8R19745   4.712   3.161   9.856  0.3165  0.9871 -0.4320
  174SAPI   C2919746   4.782   3.080   9.666  0.2905 -0.2824  0.1505
  174SAPI   H9R19747   4.677   3.057   9.643 -0.6624  3.8078  0.0115
  174SAPI  C21019748   4.891   3.046   9.565  0.4612  0.8680 -0.8104
  174SAPI  H10R19749   4.986   3.011   9.612  0.0999 -0.8788 -1.3396
  174SAPI  H10S19750   4.936   3.132   9.511  2.3764  0.4738  0.1234
  174SAPI  C21119751   4.839   2.954   9.457 -0.0862  0.5484 -0.0486
  174SAPI  H11R19752   4.811   2.852   9.488  1.4660 -0.5328 -2.0634
  174SAPI  C21219753   4.815   2.972   9.325 -0.7310 -0.2746 -0.1376
  174SAPI  H12R19754   4.795   2.883   9.264 -1.7896 -1.0154  1.2548
  174SAPI  C21319755   4.832   3.101   9.250  0.0764  0.8318 -0.3612
  174SAPI  H13R19756   4.817   3.189   9.316 -1.5860  1.7341 -1.8927
  174SAPI  H13S19757   4.754   3.102   9.171 -1.3199 -1.2005  0.9593
  174SAPI  C21419758   4.962   3.106   9.173 -0.5661 -0.6074 -0.4540
  174SAPI  H14R19759   5.039   3.178   9.205 -0.0334 -1.6368  0.6243
  174SAPI  C21519760   4.992   3.029   9.069  0.1540 -0.0102  0.5503
  174SAPI  H15R19761   5.093   3.037   9.026 -0.7679 -0.5067 -1.7396
  174SAPI  C21619762   4.922   2.914   9.002 -0.3717 -0.6415  0.3219
  174SAPI  H16R19763   4.833   2.889   9.062 -0.7281  1.7113  0.8260
  174SAPI  H16S19764   4.991   2.828   8.992  1.6586  0.8256  1.3065
  174SAPI  C21719765   4.869   2.951   8.864 -0.8722  0.2885  0.6200
  174SAPI  H17R19766   4.952   2.914   8.800  0.7628  3.3657  0.8792
  174SAPI  H17S19767   4.855   3.059   8.843  2.6177  0.7721  0.4515
  174SAPI  C21819768   4.735   2.879   8.823  0.1817 -0.5333  0.5292
  174SAPI  H18R19769   4.649   2.938   8.860 -1.0184 -1.2034 -1.1365
  174SAPI  H18S19770   4.743   2.776   8.864  0.2389 -1.0724 -0.7922
  174SAPI  C21919771   4.705   2.871   8.669 -0.1881 -0.4983 -0.3274
  174SAPI  H19R19772   4.737   2.965   8.619  0.1058 -1.1831 -1.4499
  174SAPI  H19S19773   4.595   2.869   8.654  0.0184 -2.6497 -1.9462
  174SAPI  C22019774   4.771   2.750   8.602 -0.2506  0.0719  0.5087
  174SAPI  H20R19775   4.716   2.721   8.509 -3.3413 -0.2427  2.3410
  174SAPI  H20S19776   4.768   2.658   8.665 -0.5181  0.1293  0.5847
  174SAPI  H20T19777   4.878   2.774   8.587  0.0481 -1.5784 -0.0960
  174SAPI   C3319778   5.093   3.678  10.000 -0.0961  1.1190  0.5912
  174SAPI   H3X19779   5.112   3.570   9.981  1.1922  1.1274  1.7831
  174SAPI   H3Y19780   5.184   3.733   9.971  1.6020 -0.6388  2.4235
  174SAPI   C3419781   4.987   3.726   9.896  1.0546  0.0320  0.1671
  174SAPI   H4X19782   4.980   3.837   9.905 -0.2411  0.1534 -1.9133
  174SAPI   H4Y19783   4.887   3.684   9.919  0.9292  1.0748  1.5789
  174SAPI   C3519784   5.024   3.690   9.750  0.5044 -0.0714 -0.3078
  174SAPI   H5X19785   5.124   3.728   9.720  1.2138 -0.6858  1.2388
  174SAPI   H5Y19786   4.949   3.740   9.685  0.7802 -1.4126 -1.6900
  174SAPI   C3619787   5.024   3.544   9.725 -0.0365 -0.2939  0.1616
  174SAPI   H6X19788   4.922   3.504   9.745  0.8037 -0.8809  3.6087
  174SAPI   H6Y19789   5.100   3.490   9.786 -1.5208 -3.2986 -0.5535
  174SAPI   C3719790   5.081   3.544   9.575 -0.1748  0.3161 -0.2383
  174SAPI   H7X19791   5.169   3.610   9.564  0.7403 -0.7878  0.3632
  174SAPI   H7Y19792   4.997   3.574   9.508  0.0363 -2.6144 -1.9391
  174SAPI   C3819793   5.112   3.391   9.525 -0.2645  0.3702  0.6852
  174SAPI   H8X19794   5.021   3.329   9.538 -0.5821  0.9020  1.0607
  174SAPI   H8Y19795   5.196   3.355   9.588 -0.1627  0.2146  0.4573
  174SAPI   C3919796   5.150   3.389   9.374  0.0440 -0.7418 -0.7048
  174SAPI   H9X19797   5.069   3.447   9.325  1.0240  0.9351 -0.4151
  174SAPI   H9Y19798   5.166   3.284   9.342 -2.2213 -1.0867 -0.7727
  174SAPI  C31019799   5.295   3.441   9.359 -0.6362 -0.0028 -0.3430
  174SAPI  H10X19800   5.367   3.359   9.377 -0.9393 -0.2584 -0.2918
  174SAPI  H10Y19801   5.321   3.514   9.439  0.9736 -1.3086  0.3541
  174SAPI  C31119802   5.308   3.510   9.224  0.1273 -0.2947  0.0060
  174SAPI  H11X19803   5.380   3.592   9.244 -1.0369  0.6338  0.4486
  174SAPI  H11Y19804   5.210   3.555   9.199 -0.0513 -0.6590  0.0474
  174SAPI  C31219805   5.372   3.421   9.111 -0.0050 -0.2344  0.5230
  174SAPI  H12X19806   5.315   3.327   9.102  0.9584 -0.7033 -0.9730
  174SAPI  H12Y19807   5.476   3.398   9.142  0.5176 -1.6492 -2.1049
  174SAPI  C31319808   5.377   3.496   8.977 -0.2169  0.0887 -0.2416
  174SAPI  H13X19809   5.431   3.592   8.995 -1.1150  0.3593  1.0982
  174SAPI  H13Y19810   5.270   3.518   8.958  0.2108  0.7112 -1.9915
  174SAPI  C31419811   5.442   3.411   8.862 -0.1918  0.3683 -0.9760
  174SAPI  H14X19812   5.395   3.310   8.861 -0.0834  0.2999  0.1638
  174SAPI  H14Y19813   5.549   3.406   8.890 -0.0880 -0.5740 -1.5429
  174SAPI  C31519814   5.431   3.476   8.725  0.1375  0.3551  0.7312
  174SAPI  H15X19815   5.519   3.447   8.664 -1.0324 -1.4910 -0.1061
  174SAPI  H15Y19816   5.426   3.587   8.733  1.2546  0.4879 -0.2790
  174SAPI  C31619817   5.303   3.437   8.635 -0.9176 -0.1595  0.3852
  174SAPI  H16X19818   5.206   3.448   8.688 -0.9647  2.3980 -0.1680
  174SAPI  H16Y19819   5.325   3.331   8.609  0.7015  0.4860 -0.9873
  174SAPI  C31719820   5.283   3.520   8.503 -0.1207  0.1935 -0.2514
  174SAPI  H17X19821   5.384   3.505   8.459  0.2281  0.0704  0.5719
  174SAPI  H17Y19822   5.281   3.630   8.520  0.5893 -0.3270  3.7780
  174SAPI  C31819823   5.165   3.484   8.413  0.2898 -0.4400 -0.3770
  174SAPI  H18X19824   5.196   3.514   8.310 -2.2592  0.3848 -0.9428
  174SAPI  H18Y19825   5.064   3.524   8.437  0.5240  1.2461 -2.0560
  174SAPI  H18Z19826   5.161   3.373   8.412  0.2415 -0.4344 -0.8994
  175SAPI   C1219827   0.502   2.021   6.615  0.0868 -0.2013 -0.0503
  175SAPI    H219828   0.474   2.126   6.636 -1.3395 -0.4444 -0.6927
  175SAPI    O219829   0.629   1.987   6.673 -0.2639 -0.7045 -0.2486
  175SAPI   HO219830   0.627   2.038   6.754 -1.6857 -1.2272  0.0661
  175SAPI   C1319831   0.395   1.928   6.674 -0.2382  0.0868 -0.4675
  175SAPI    H319832   0.295   1.965   6.641  0.3330  2.8381  0.7095
  175SAPI    O319833   0.380   1.942   6.815  0.0366  0.1010  0.2158
  175SAPI   HO319834   0.287   1.921   6.827  0.1619 -0.8579 -0.3969
  175SAPI   C1419835   0.420   1.790   6.622 -0.4253 -0.2977  0.2795
  175SAPI    H419836   0.516   1.752   6.663  0.7138 -0.7998 -2.7406
  175SAPI    O419837   0.322   1.701   6.683  0.1657  0.1058  0.1094
  175SAPI   HO419838   0.344   1.685   6.775 -0.9085 -2.2643 -0.0049
  175SAPI   C1519839   0.432   1.781   6.467  0.8390 -0.9082  0.1199
  175SAPI    H519840   0.332   1.809   6.426 -0.0321  0.7012  3.2441
  175SAPI    O519841   0.455   1.646   6.419 -0.2597 -0.2398 -0.2819
  175SAPI   HO519842   0.514   1.590   6.470 -2.5593 -1.8258  0.7040
  175SAPI   C1619843   0.528   1.880   6.411 -0.0499  0.4520  0.2054
  175SAPI    H619844   0.627   1.850   6.449  0.1229 -0.4618 -0.9452
  175SAPI    O619845   0.533   1.878   6.270  1.0005  0.3330 -0.1623
  175SAPI   HO619846   0.447   1.915   6.248  0.2062 -0.2636  1.7448
  175SAPI   C1119847   0.500   2.011   6.464  0.8521  0.6438  0.4896
  175SAPI    H119848   0.399   2.044   6.430  0.3101 -0.5240  0.9128
  175SAPI     P19849   0.558   2.258   6.365  0.2069  0.4125 -0.3557
  175SAPI   O1319850   0.424   2.255   6.306  0.5209  0.4929 -0.4404
  175SAPI   O1419851   0.667   2.310   6.279 -0.6365  0.2383 -0.2351
  175SAPI   O1219852   0.600   2.108   6.418 -0.6055 -0.2843  0.3079
  175SAPI   O1119853   0.544   2.350   6.501  0.1789 -0.3122 -0.5471
  175SAPI    C119854   0.661   2.406   6.560 -0.0514  0.0183 -0.0757
  175SAPI    HA19855   0.751   2.412   6.494 -1.6188 -0.1291 -2.2921
  175SAPI    HB19856   0.634   2.510   6.587  2.2954  0.3620  1.0304
  175SAPI    C219857   0.703   2.325   6.684  0.4497 -0.3604  0.3131
  175SAPI    HS19858   0.706   2.216   6.666  1.8682 -0.4999  1.2330
  175SAPI   O2119859   0.609   2.355   6.783 -0.2573  0.4878  0.1080
  175SAPI   C2119860   0.596   2.272   6.886 -0.7024  0.3447 -0.2477
  175SAPI   O2219861   0.636   2.157   6.890 -0.0503 -0.2180  0.5188
  175SAPI   C2219862   0.540   2.352   7.001 -0.1561  0.8097  0.5026
  175SAPI   H2R19863   0.603   2.439   7.028 -0.8690  0.9998  1.5818
  175SAPI   H2S19864   0.441   2.390   6.966 -1.0403 -2.7812 -1.1196
  175SAPI    C319865   0.843   2.370   6.730 -0.0131 -0.0612  0.2131
  175SAPI    HX19866   0.841   2.481   6.730 -1.2309 -0.0607  1.3246
  175SAPI    HY19867   0.920   2.346   6.654 -1.8904  1.7825 -2.3549
  175SAPI   O3119868   0.887   2.320   6.854  0.2864 -0.1393 -0.7060
  175SAPI   C3119869   0.928   2.192   6.855  0.0861 -0.1556  0.4335
  175SAPI   O3219870   0.943   2.117   6.760  0.4938  0.2242 -0.0096
  175SAPI   C3219871   0.981   2.166   6.996  0.3515 -0.2712  0.4980
  175SAPI   H2X19872   1.080   2.116   6.987  1.4460  1.9637 -0.1538
  175SAPI   H2Y19873   0.905   2.095   7.036  1.5428 -1.0627  1.3883
  175SAPI   C2319874   0.510   2.272   7.135  0.9007 -0.3081 -0.4813
  175SAPI   H3R19875   0.605   2.243   7.186  0.6363  1.4178  1.0326
  175SAPI   H3S19876   0.473   2.170   7.113 -1.0456 -0.0762  1.4681
  175SAPI   C2419877   0.403   2.342   7.217 -0.3958 -0.0113  0.1355
  175SAPI   H4R19878   0.379   2.271   7.299 -1.8013 -1.9689 -1.9067
  175SAPI   H4S19879   0.317   2.346   7.147  1.8314  0.0204 -2.6702
  175SAPI   C2519880   0.446   2.477   7.267 -0.0377 -0.4060 -0.1872
  175SAPI   H5R19881   0.388   2.563   7.230 -1.5809 -0.1556  2.6496
  175SAPI   C2619882   0.528   2.498   7.374 -0.6342 -0.3023  0.5127
  175SAPI   H6R19883   0.541   2.600   7.411  0.8707 -0.4322  0.3727
  175SAPI   C2719884   0.606   2.403   7.456 -0.5116 -0.5011 -0.0726
  175SAPI   H7R19885   0.703   2.444   7.490 -0.8370  1.0349 -0.9415
  175SAPI   H7S19886   0.637   2.315   7.396  1.4938 -0.6218  1.0976
  175SAPI   C2819887   0.524   2.364   7.579 -0.0305 -0.9294  0.6037
  175SAPI   H8R19888   0.419   2.337   7.558 -0.3067 -0.1021  0.8996
  175SAPI   C2919889   0.561   2.376   7.709 -0.2675 -0.0327 -0.4998
  175SAPI   H9R19890   0.486   2.357   7.787 -0.1318  2.0022  0.1697
  175SAPI  C21019891   0.693   2.421   7.762  0.1960  0.3685  0.5604
  175SAPI  H10R19892   0.720   2.515   7.709  0.7740  0.2670  0.6648
  175SAPI  H10S19893   0.766   2.352   7.714 -1.2325  0.0461 -1.1959
  175SAPI  C21119894   0.710   2.432   7.912 -0.9961  0.4749 -0.1967
  175SAPI  H11R19895   0.717   2.331   7.954  1.0121  0.5252 -0.3531
  175SAPI  C21219896   0.716   2.538   7.983  0.2661 -0.0482  0.0567
  175SAPI  H12R19897   0.715   2.536   8.093  2.5923  0.6431  0.1240
  175SAPI  C21319898   0.714   2.681   7.933  0.0533 -0.5149  0.0178
  175SAPI  H13R19899   0.631   2.689   7.859 -2.3466 -0.4894  2.6100
  175SAPI  H13S19900   0.806   2.708   7.878 -0.8783  0.2665 -1.1862
  175SAPI  C21419901   0.692   2.786   8.041  0.1538  0.6102 -0.4332
  175SAPI  H14R19902   0.587   2.798   8.072 -0.0858  0.4938 -1.1689
  175SAPI  C21519903   0.781   2.857   8.110  0.3134 -0.0781  0.1485
  175SAPI  H15R19904   0.743   2.917   8.195  1.4911  0.4655  0.2888
  175SAPI  C21619905   0.934   2.873   8.094  0.3807  0.0249 -0.0504
  175SAPI  H16R19906   0.949   2.967   8.037 -2.4470 -0.3348 -1.4739
  175SAPI  H16S19907   0.976   2.787   8.038 -2.0474 -2.0804  1.2508
  175SAPI  C21719908   0.995   2.889   8.237 -0.1275 -0.2006  0.2267
  175SAPI  H17R19909   0.982   2.796   8.295 -1.1217 -0.3780 -0.2720
  175SAPI  H17S19910   0.951   2.959   8.311  0.3466  0.0817  0.2465
  175SAPI  C21819911   1.143   2.922   8.230  0.7700 -0.9701  0.1182
  175SAPI  H18R19912   1.152   3.019   8.176  1.4896 -2.4712 -2.5901
  175SAPI  H18S19913   1.183   2.843   8.162  0.0419 -1.3744  0.1575
  175SAPI  C21919914   1.221   2.919   8.370  0.9449 -0.0325 -0.3423
  175SAPI  H19R19915   1.170   2.992   8.437  1.2793  0.8137 -0.9989
  175SAPI  H19S19916   1.322   2.962   8.356  1.1005 -0.2818  0.0220
  175SAPI  C22019917   1.252   2.777   8.422  0.1079  0.4487  0.4831
  175SAPI  H20R19918   1.158   2.718   8.431  0.7699 -0.5488  0.8908
  175SAPI  H20S19919   1.303   2.777   8.520  0.3404  0.5171  0.3622
  175SAPI  H20T19920   1.320   2.728   8.348 -1.9652 -0.8052 -0.6605
  175SAPI   C3319921   0.995   2.282   7.098  0.3952 -0.3037 -0.7783
  175SAPI   H3X19922   0.900   2.329   7.130 -0.3727 -0.5796 -2.5952
  175SAPI   H3Y19923   1.063   2.360   7.057  0.1642  0.5638  0.4661
  175SAPI   C3419924   1.068   2.238   7.227 -0.5695  0.6465 -0.1739
  175SAPI   H4X19925   1.110   2.331   7.271 -1.8796  1.3641 -0.4138
  175SAPI   H4Y19926   1.162   2.184   7.205 -0.7434  0.9938 -1.8532
  175SAPI   C3519927   0.966   2.177   7.321 -0.5226  0.2666  0.0174
  175SAPI   H5X19928   0.968   2.067   7.336 -1.2464  0.7614  4.3566
  175SAPI   H5Y19929   0.863   2.201   7.288 -0.7933  0.0230  0.6820
  175SAPI   C3619930   0.972   2.232   7.465  0.0236  0.6622  0.4715
  175SAPI   H6X19931   0.891   2.185   7.526 -2.2008  2.7831 -0.7956
  175SAPI   H6Y19932   0.947   2.339   7.474  0.3248  0.9328 -1.6347
  175SAPI   C3719933   1.108   2.213   7.537 -0.2440  0.1348 -0.1785
  175SAPI   H7X19934   1.174   2.284   7.484 -0.6807  0.0605 -0.8242
  175SAPI   H7Y19935   1.143   2.111   7.510 -2.2722 -0.8775  0.9038
  175SAPI   C3819936   1.114   2.254   7.690  0.8163 -0.0875 -0.1805
  175SAPI   H8X19937   1.220   2.228   7.711  1.7055  2.7462 -0.9191
  175SAPI   H8Y19938   1.048   2.193   7.755  0.0870 -0.2929 -1.1030
  175SAPI   C3919939   1.109   2.398   7.725  0.4500  0.1536 -0.9822
  175SAPI   H9X19940   1.007   2.443   7.718  0.5885  1.0910  1.9791
  175SAPI   H9Y19941   1.175   2.468   7.669  0.5731  0.7479 -0.1198
  175SAPI  C31019942   1.151   2.411   7.875 -0.7579  0.7128 -0.1007
  175SAPI  H10X19943   1.262   2.401   7.879 -0.7323  1.3389  1.1463
  175SAPI  H10Y19944   1.096   2.339   7.939 -0.1392  0.0618 -0.2990
  175SAPI  C31119945   1.126   2.545   7.937  0.9071  0.3128  0.0677
  175SAPI  H11X19946   1.016   2.556   7.946  0.8532  0.2328 -0.5174
  175SAPI  H11Y19947   1.168   2.633   7.884  2.3970 -1.4759 -1.7835
  175SAPI  C31219948   1.181   2.557   8.081  0.0032  0.1366 -0.3883
  175SAPI  H12X19949   1.158   2.654   8.129 -2.0177 -1.1441  1.3078
  175SAPI  H12Y19950   1.292   2.545   8.075 -0.0169 -0.0589 -0.3746
  175SAPI  C31319951   1.141   2.448   8.181  0.5118 -0.2014  0.0439
  175SAPI  H13X19952   1.179   2.485   8.279  0.2041 -1.7155  0.7542
  175SAPI  H13Y19953   1.188   2.352   8.151  2.4077  0.1131  1.8760
  175SAPI  C31419954   0.990   2.426   8.197 -0.5597  0.0700  0.4527
  175SAPI  H14X19955   0.949   2.393   8.100 -1.3979  0.3043  0.7191
  175SAPI  H14Y19956   0.945   2.523   8.229  0.0817  0.5323 -0.0437
  175SAPI  C31519957   0.968   2.322   8.307  0.3200 -0.4047  1.2834
  175SAPI  H15X19958   0.949   2.376   8.402 -1.2784 -0.2663  0.8967
  175SAPI  H15Y19959   1.064   2.267   8.315  0.2212 -0.8692 -0.6398
  175SAPI  C31619960   0.853   2.220   8.279 -1.0557  0.0576 -0.2533
  175SAPI  H16X19961   0.870   2.187   8.175  1.9893 -0.4511  0.3614
  175SAPI  H16Y19962   0.756   2.274   8.273 -1.6882 -1.0811 -0.2671
  175SAPI  C31719963   0.828   2.104   8.380 -0.3906 -0.4030 -0.5484
  175SAPI  H17X19964   0.919   2.041   8.391 -0.6187 -0.3629  1.7347
  175SAPI  H17Y19965   0.749   2.035   8.343 -0.7489  0.7048 -1.9200
  175SAPI  C31819966   0.785   2.142   8.521 -0.4536 -0.3676  0.1070
  175SAPI  H18X19967   0.696   2.208   8.514  0.4139  0.7857 -0.2813
  175SAPI  H18Y19968   0.866   2.192   8.578  1.2743 -1.5530 -1.2681
  175SAPI  H18Z19969   0.757   2.051   8.578  0.3128 -0.0250  1.0521
  176SAPI   C1219970   0.385   1.006   6.698  0.0592 -0.1620  0.0464
  176SAPI    H219971   0.318   0.995   6.785 -1.6932  0.8250 -1.1544
  176SAPI    O219972   0.342   1.111   6.618  0.7149  0.4796 -0.3484
  176SAPI   HO219973   0.247   1.103   6.631  0.5139  0.1987 -1.9396
  176SAPI   C1319974   0.523   1.039   6.760  0.6160  0.3111  0.4674
  176SAPI    H319975   0.551   0.957   6.830  0.4080 -1.1595 -1.1194
  176SAPI    O319976   0.505   1.154   6.841 -0.0806 -0.2181  0.2270
  176SAPI   HO319977   0.443   1.211   6.794  0.7352 -0.6013 -1.3126
  176SAPI   C1419978   0.622   1.049   6.652 -0.0973  0.4880  0.1031
  176SAPI    H419979   0.596   1.128   6.578 -0.7625  0.8820  0.7550
  176SAPI    O419980   0.755   1.090   6.693 -0.7208 -0.0329 -0.5012
  176SAPI   HO419981   0.752   1.184   6.712  1.0726 -0.0647 -0.0109
  176SAPI   C1519982   0.633   0.914   6.575  0.0548  0.5533 -0.3215
  176SAPI    H519983   0.659   0.833   6.646  0.4031  0.2332 -0.8069
  176SAPI    O519984   0.731   0.917   6.470  0.0305 -0.0326 -0.0655
  176SAPI   HO519985   0.746   0.829   6.436 -0.2189 -0.2437  0.3785
  176SAPI   C1619986   0.499   0.879   6.519  0.3444  0.3615 -0.6858
  176SAPI    H619987   0.466   0.954   6.445  0.2908  2.9124  1.8408
  176SAPI    O619988   0.506   0.753   6.457 -0.0410  0.8321  0.5369
  176SAPI   HO619989   0.429   0.701   6.481 -0.8835  0.6366 -2.3453
  176SAPI   C1119990   0.394   0.870   6.631 -0.3774 -0.0481  0.0703
  176SAPI    H119991   0.422   0.793   6.706 -0.7022 -0.4146 -0.1867
  176SAPI     P19992   0.198   0.688   6.565  0.0114  0.4929  0.0241
  176SAPI   O1319993   0.303   0.583   6.526  0.1749 -0.0580 -0.5408
  176SAPI   O1419994   0.078   0.697   6.479  0.0065  0.5582  0.4398
  176SAPI   O1219995   0.263   0.841   6.574  0.0017 -0.1161 -0.3884
  176SAPI   O1119996   0.158   0.661   6.713 -0.4596 -0.0857  0.2415
  176SAPI    C119997   0.251   0.598   6.808  0.1144 -0.3552  0.0650
  176SAPI    HA19998   0.353   0.574   6.772 -0.1753 -2.2352  0.4425
  176SAPI    HB19999   0.273   0.665   6.893  1.5704  0.0220 -0.6012
  176SAPI    C220000   0.195   0.467   6.862  0.3231  0.1541  0.4888
  176SAPI    HS20001   0.189   0.404   6.771  2.1727  1.9013 -0.8669
  176SAPI   O2120002   0.063   0.503   6.916  0.1409 -0.2715 -0.2645
  176SAPI   C2120003  -0.015   0.397   6.918 -0.3851  0.1652 -0.3489
  176SAPI   O2220004   0.027   0.279   6.908  0.1204 -0.5132  0.1821
  176SAPI   C2220005  -0.161   0.450   6.943 -0.1069  0.1579 -0.2251
  176SAPI   H2R20006  -0.164   0.557   6.973 -0.1348  0.1899 -0.3428
  176SAPI   H2S20007  -0.218   0.435   6.849 -0.3965 -0.8430  0.1018
  176SAPI    C320008   0.287   0.403   6.972  0.3199  0.3071  0.5490
  176SAPI    HX20009   0.379   0.376   6.916 -1.5816 -0.7537 -2.1267
  176SAPI    HY20010   0.250   0.304   7.006  2.9554 -1.0988 -0.5427
  176SAPI   O3120011   0.328   0.496   7.077 -0.0173 -0.4721 -0.1605
  176SAPI   C3120012   0.245   0.495   7.179  0.2052  0.0291  0.8524
  176SAPI   O3220013   0.136   0.446   7.184  0.0176  0.8000 -0.0213
  176SAPI   C3220014   0.324   0.561   7.301  0.2119  0.4033  0.0814
  176SAPI   H2X20015   0.344   0.667   7.277 -0.6266  0.3726 -0.7654
  176SAPI   H2Y20016   0.422   0.509   7.303  0.0326  0.0837  2.4518
  176SAPI   C2320017  -0.223   0.376   7.072  0.3121  0.7169  0.0418
  176SAPI   H3R20018  -0.170   0.391   7.169 -1.2488 -0.8871  1.1842
  176SAPI   H3S20019  -0.217   0.265   7.065  1.0604  0.6704  1.2411
  176SAPI   C2420020  -0.373   0.401   7.106  0.6983 -0.4084  0.2841
  176SAPI   H4R20021  -0.424   0.365   7.014 -0.7721  0.1412  0.8758
  176SAPI   H4S20022  -0.385   0.511   7.110 -1.2051 -0.6179  0.8687
  176SAPI   C2520023  -0.410   0.345   7.240 -1.0178  0.3002 -0.0222
  176SAPI   H5R20024  -0.383   0.240   7.255 -1.5237  0.5042  2.4236
  176SAPI   C2620025  -0.470   0.404   7.347 -0.5506  0.4810  0.4266
  176SAPI   H6R20026  -0.482   0.340   7.435  2.2655 -0.9203 -0.1545
  176SAPI   C2720027  -0.505   0.548   7.357  0.2513  0.3555 -0.0872
  176SAPI   H7R20028  -0.616   0.548   7.351  0.2383  0.2357  0.1625
  176SAPI   H7S20029  -0.478   0.603   7.264  0.2413  0.5543  0.0284
  176SAPI   C2820030  -0.460   0.607   7.487 -0.4148  0.2013  0.3451
  176SAPI   H8R20031  -0.405   0.702   7.482 -0.1245 -0.0163 -0.5824
  176SAPI   C2920032  -0.487   0.568   7.610  0.0720  0.5641  0.3200
  176SAPI   H9R20033  -0.452   0.625   7.698 -2.2934 -1.1033  2.4490
  176SAPI  C21020034  -0.574   0.444   7.646  0.4557 -1.0633 -0.2911
  176SAPI  H10R20035  -0.625   0.397   7.559  1.1523  0.1826 -1.3937
  176SAPI  H10S20036  -0.658   0.483   7.708  0.8598 -2.5824  1.2487
  176SAPI  C21120037  -0.496   0.339   7.717 -0.2208  0.1200 -0.7711
  176SAPI  H11R20038  -0.460   0.258   7.651 -2.4257 -0.1664 -1.6662
  176SAPI  C21220039  -0.502   0.318   7.850 -0.5649  0.6067  0.3405
  176SAPI  H12R20040  -0.441   0.239   7.895 -0.6587  0.9037  1.0094
  176SAPI  C21320041  -0.573   0.407   7.948 -0.1546 -0.1421  1.0047
  176SAPI  H13R20042  -0.562   0.515   7.924  2.3600 -0.1905  1.7189
  176SAPI  H13S20043  -0.524   0.405   8.048  1.1009  0.5215  0.4191
  176SAPI  C21420044  -0.725   0.388   7.962  0.3369  0.4053 -1.4593
  176SAPI  H14R20045  -0.785   0.354   7.876  1.2637  1.2104 -2.4381
  176SAPI  C21520046  -0.795   0.427   8.070 -0.0597 -0.3885  0.4118
  176SAPI  H15R20047  -0.902   0.400   8.074  0.1519 -1.3827 -0.4688
  176SAPI  C21620048  -0.743   0.495   8.195  0.5436  0.4657 -0.4769
  176SAPI  H16R20049  -0.690   0.583   8.153  0.2990  1.6516  1.5996
  176SAPI  H16S20050  -0.667   0.436   8.251  1.1552  0.0868 -1.7020
  176SAPI  C21720051  -0.853   0.539   8.290  0.0691 -0.5529 -0.0119
  176SAPI  H17R20052  -0.887   0.464   8.364 -1.0466  1.0915  1.1922
  176SAPI  H17S20053  -0.942   0.568   8.230  0.9516 -3.0026 -2.6155
  176SAPI  C21820054  -0.813   0.660   8.384 -0.4043  0.0520  0.5039
  176SAPI  H18R20055  -0.784   0.756   8.336 -1.4919 -0.2449 -0.7437
  176SAPI  H18S20056  -0.731   0.615   8.445 -2.0935 -0.2695  2.5714
  176SAPI  C21920057  -0.917   0.680   8.493 -0.4994 -0.0272 -0.6751
  176SAPI  H19R20058  -0.961   0.589   8.539  0.6398 -1.3468 -2.1822
  176SAPI  H19S20059  -1.007   0.733   8.454  0.0099  1.2548 -0.1575
  176SAPI  C22020060  -0.861   0.765   8.607 -0.3765 -0.3638 -0.7767
  176SAPI  H20R20061  -0.774   0.707   8.643  1.2656 -0.1635 -4.2352
  176SAPI  H20S20062  -0.943   0.778   8.681 -0.8516 -2.7606 -0.8385
  176SAPI  H20T20063  -0.835   0.866   8.569  1.1407  0.1856  1.6860
  176SAPI   C3320064   0.255   0.551   7.440 -0.5287  1.1124  1.1903
  176SAPI   H3X20065   0.225   0.446   7.461  0.1788  0.0276 -2.8384
  176SAPI   H3Y20066   0.160   0.608   7.437 -1.4828 -0.4643  0.2656
  176SAPI   C3420067   0.350   0.609   7.557  0.5972  0.1018  0.1002
  176SAPI   H4X20068   0.363   0.718   7.541  1.8936 -0.1478 -0.6257
  176SAPI   H4Y20069   0.441   0.551   7.532  1.5204  0.6137  2.2242
  176SAPI   C3520070   0.291   0.584   7.695 -0.7901 -0.5301 -0.2299
  176SAPI   H5X20071   0.280   0.475   7.712 -0.2243 -0.8193 -1.6518
  176SAPI   H5Y20072   0.187   0.622   7.681  0.5590  3.1172 -0.8266
  176SAPI   C3620073   0.386   0.628   7.809  0.4177  0.3901 -0.0125
  176SAPI   H6X20074   0.440   0.723   7.791  1.3395 -0.6519 -3.0655
  176SAPI   H6Y20075   0.467   0.553   7.822  0.1686  0.1171 -0.0206
  176SAPI   C3720076   0.311   0.640   7.944 -0.5372 -0.0253  0.1025
  176SAPI   H7X20077   0.229   0.716   7.936 -0.2487  0.2510 -0.2089
  176SAPI   H7Y20078   0.396   0.678   8.004 -1.1318  0.8513  0.4108
  176SAPI   C3820079   0.265   0.515   8.015 -0.8880  0.1633 -0.5148
  176SAPI   H8X20080   0.353   0.448   8.020  0.0099  1.4013  0.4499
  176SAPI   H8Y20081   0.183   0.478   7.949 -0.4746  1.3013 -1.6746
  176SAPI   C3920082   0.221   0.539   8.158 -0.2432  0.1030 -0.1557
  176SAPI   H9X20083   0.157   0.629   8.171 -0.5713 -0.2773  0.9070
  176SAPI   H9Y20084   0.305   0.565   8.226 -0.7380 -1.5125  1.0751
  176SAPI  C31020085   0.127   0.434   8.214 -0.1324  0.0114  0.0512
  176SAPI  H10X20086   0.050   0.423   8.135  0.8030 -0.5485 -0.7939
  176SAPI  H10Y20087   0.074   0.475   8.302 -1.7895  0.5186 -1.1697
  176SAPI  C31120088   0.196   0.306   8.249  0.3378  0.2785 -0.1859
  176SAPI  H11X20089   0.269   0.268   8.175  2.0773 -2.1637  2.6725
  176SAPI  H11Y20090   0.122   0.223   8.259  0.4389  0.5086  3.0084
  176SAPI  C31220091   0.279   0.316   8.378  0.0084 -0.0787  0.0074
  176SAPI  H12X20092   0.328   0.416   8.371  1.4361 -0.7717  0.1488
  176SAPI  H12Y20093   0.355   0.236   8.378  0.1726  0.0792  1.1445
  176SAPI  C31320094   0.196   0.302   8.505 -0.0761  0.0788  0.3531
  176SAPI  H13X20095   0.159   0.197   8.512  0.3300 -0.1816 -1.1683
  176SAPI  H13Y20096   0.110   0.372   8.497  0.7187  0.8165 -2.0919
  176SAPI  C31420097   0.271   0.334   8.633  0.5413 -0.0510 -0.1046
  176SAPI  H14X20098   0.306   0.439   8.625  0.9158  0.0192  2.1436
  176SAPI  H14Y20099   0.364   0.274   8.645  1.4677  1.6501  1.4673
  176SAPI  C31520100   0.187   0.330   8.757  0.1272 -0.3242  0.5321
  176SAPI  H15X20101   0.127   0.236   8.755  0.6100 -0.6184 -0.4260
  176SAPI  H15Y20102   0.115   0.414   8.755  1.2353  0.6279 -0.1176
  176SAPI  C31620103   0.270   0.338   8.886 -0.5048 -0.3351 -0.1038
  176SAPI  H16X20104   0.330   0.246   8.900  1.1395  0.5272 -1.4259
  176SAPI  H16Y20105   0.198   0.332   8.971 -3.1802 -0.6932 -2.3306
  176SAPI  C31720106   0.347   0.468   8.898 -0.4546 -0.5188 -0.0578
  176SAPI  H17X20107   0.304   0.546   8.830 -0.1771 -2.3386 -2.3684
  176SAPI  H17Y20108   0.446   0.450   8.852 -0.1173  1.6979 -0.2826
  176SAPI  C31820109   0.357   0.523   9.044 -0.2029  0.3598 -0.2370
  176SAPI  H18X20110   0.267   0.485   9.095 -0.2104  0.7426  0.0364
  176SAPI  H18Y20111   0.366   0.632   9.059  0.9775  0.4490 -1.4126
  176SAPI  H18Z20112   0.451   0.489   9.093  0.6603  0.3724 -1.8435
  177SLPC     N20113   6.541   4.304  11.086 -0.0503 -0.2231  0.1372
  177SLPC   C1320114   6.496   4.187  11.169 -0.3880 -0.7394  0.3181
  177SLPC  H13A20115   6.393   4.202  11.198 -0.5865 -1.4625  0.0128
  177SLPC  H13B20116   6.498   4.099  11.106  0.2691  0.4029 -1.2741
  177SLPC  H13C20117   6.558   4.171  11.256  0.1324 -0.0798  0.0700
  177SLPC   C1420118   6.681   4.276  11.048 -0.2061  0.1995  0.2512
  177SLPC  H14A20119   6.692   4.243  10.946 -0.6570  1.7306 -0.3083
  177SLPC  H14B20120   6.739   4.367  11.059  1.1474 -0.6007 -0.1866
  177SLPC  H14C20121   6.733   4.200  11.104 -3.4855 -3.8583 -1.9677
  177SLPC   C1520122   6.541   4.426  11.173 -0.7928 -0.0536 -0.6816
  177SLPC  H15A20123   6.445   4.430  11.223  0.8754 -1.8674  2.8823
  177SLPC  H15B20124   6.622   4.434  11.244 -1.4596 -2.4285  0.4247
  177SLPC  H15C20125   6.558   4.511  11.110 -2.2100 -0.4723 -1.6520
  177SLPC   C1220126   6.451   4.330  10.963  0.0718 -0.2519  0.4113
  177SLPC  H12A20127   6.478   4.422  10.913 -0.5323  0.6590  1.7139
  177SLPC  H12B20128   6.351   4.350  10.998 -0.4710  0.3903 -1.4728
  177SLPC   C1120129   6.441   4.214  10.865  0.1809 -0.2854  0.5034
  177SLPC  H11A20130   6.542   4.181  10.833 -0.4723 -1.8442  0.0001
  177SLPC  H11B20131   6.379   4.246  10.779 -1.3475  0.3010  1.8009
  177SLPC     P20132   6.413   3.962  10.892 -0.0902 -0.3133 -0.4025
  177SLPC   O1320133   6.548   3.940  10.956 -0.6278  0.7024 -0.2808
  177SLPC   O1420134   6.305   3.872  10.945 -0.4868 -0.1211 -0.0701
  177SLPC   O1220135   6.368   4.109  10.929 -0.1855  0.6786  0.0109
  177SLPC   O1120136   6.430   3.956  10.736 -0.4393 -0.5092 -0.3848
  177SLPC    C120137   6.312   3.940  10.660  0.0930 -0.9210  0.5810
  177SLPC    HA20138   6.250   3.851  10.681 -0.5773 -0.8486 -1.0589
  177SLPC    HB20139   6.237   4.015  10.693 -0.4606 -1.5824  0.8417
  177SLPC    C220140   6.336   3.949  10.506  0.0188 -0.2898 -0.6341
  177SLPC    HS20141   6.402   3.867  10.469  0.2977 -0.4703  0.2352
  177SLPC   O2120142   6.397   4.083  10.487  0.3140  0.0842 -0.1553
  177SLPC   C2120143   6.530   4.075  10.499 -0.1309  0.0290  0.6883
  177SLPC   O2220144   6.596   3.974  10.487 -0.1390  0.7394 -0.3743
  177SLPC   C2220145   6.586   4.209  10.542 -0.1707  0.5596  0.9959
  177SLPC   H2R20146   6.503   4.282  10.553 -1.1052 -0.9527  4.7833
  177SLPC   H2S20147   6.625   4.201  10.646  0.1087  1.6008  0.9754
  177SLPC    C320148   6.192   3.942  10.441  0.1060  0.1207  0.1691
  177SLPC    HX20149   6.136   4.029  10.480 -1.9243 -0.3241 -1.6329
  177SLPC    HY20150   6.145   3.846  10.472  0.1575 -0.1460 -0.5488
  177SLPC   O3120151   6.206   3.939  10.300 -0.4956  0.4969  0.0915
  177SLPC   C3120152   6.194   4.053  10.237 -0.2479 -0.6505  0.3794
  177SLPC   O3220153   6.181   4.163  10.293 -0.2605  0.4642  0.1567
  177SLPC   C3220154   6.203   4.038  10.085 -0.0358 -0.7324 -0.1080
  177SLPC   H2X20155   6.172   4.132  10.036  0.4826 -0.6167 -0.2153
  177SLPC   H2Y20156   6.139   3.950  10.061 -1.5211  0.1621  0.4565
  177SLPC   C2320157   6.682   4.275  10.441 -0.3048  0.4293 -0.5803
  177SLPC   H3R20158   6.771   4.210  10.429  0.2631  0.7843  1.4766
  177SLPC   H3S20159   6.709   4.374  10.482  0.1383 -0.2046  0.6839
  177SLPC   C2420160   6.627   4.288  10.293  0.2197  0.2112 -0.2788
  177SLPC   H4R20161   6.519   4.316  10.290  0.0660 -0.2917  0.3351
  177SLPC   H4S20162   6.625   4.181  10.262 -3.1518 -0.3682  1.7110
  177SLPC   C2520163   6.716   4.369  10.194  0.7065  0.1294 -0.6961
  177SLPC   H5R20164   6.820   4.335  10.212  0.5823 -0.2202 -0.6282
  177SLPC   H5S20165   6.706   4.477  10.221  2.2615 -0.3167  1.9181
  177SLPC   C2620166   6.671   4.342  10.050 -0.4699 -0.0854 -0.1288
  177SLPC   H6R20167   6.586   4.407  10.021 -1.9568 -1.5801  0.7259
  177SLPC   H6S20168   6.643   4.234  10.047  1.1040 -0.5615  1.3710
  177SLPC   C2720169   6.773   4.383   9.949  0.3004 -0.2353 -0.1996
  177SLPC   H7R20170   6.744   4.346   9.849  3.1469 -0.6489 -0.9062
  177SLPC   H7S20171   6.869   4.332   9.974  1.4473  0.8831 -2.2628
  177SLPC   C2820172   6.793   4.533   9.926 -0.5469 -0.0855 -0.6296
  177SLPC   H8R20173   6.839   4.574  10.019  0.7680  0.7390 -1.6235
  177SLPC   H8S20174   6.697   4.590   9.919 -1.1049 -1.0815 -1.1091
  177SLPC   C2920175   6.878   4.554   9.798  0.6380 -0.1751  0.1284
  177SLPC   H9R20176   6.983   4.520   9.797  0.5605 -0.5757  2.6202
  177SLPC  C21020177   6.835   4.617   9.690 -0.3071 -0.1394  0.3775
  177SLPC  H10R20178   6.893   4.610   9.597 -0.9499  0.3560 -0.0682
  177SLPC  C21120179   6.692   4.677   9.661 -0.1717  0.5167 -0.3916
  177SLPC  H11R20180   6.686   4.675   9.550 -2.5395 -3.7106 -0.3012
  177SLPC  H11S20181   6.618   4.611   9.711  0.5553  2.1895  3.1050
  177SLPC  C21220182   6.672   4.813   9.721  0.2817  0.0368 -0.1284
  177SLPC  H12R20183   6.663   4.820   9.830 -0.9912 -1.8028 -0.0934
  177SLPC  C21320184   6.650   4.926   9.653  0.5268 -0.9273 -0.4822
  177SLPC  H13R20185   6.647   5.022   9.707 -0.7338 -1.2904  0.1117
  177SLPC  C21420186   6.657   4.945   9.503  0.2511 -0.2038 -0.5883
  177SLPC  H14R20187   6.604   5.039   9.476  0.7234  1.0749  2.6766
  177SLPC  H14S20188   6.608   4.861   9.450  0.5066  0.3112 -1.6404
  177SLPC  C21520189   6.798   4.949   9.447 -0.2339 -0.1728 -0.5945
  177SLPC  H15R20190   6.858   4.856   9.458  0.4884  0.5881  2.4781
  177SLPC  H15S20191   6.855   5.028   9.500  0.7813 -0.8362 -0.6686
  177SLPC  C21620192   6.798   4.990   9.297  0.2763  0.3898  0.8190
  177SLPC  H16R20193   6.780   5.100   9.296 -2.2427 -0.0057  0.1810
  177SLPC  H16S20194   6.713   4.942   9.245 -1.1196  2.4971  1.0755
  177SLPC  C21720195   6.931   4.959   9.226  0.3623  0.2775 -0.8337
  177SLPC  H17R20196   6.917   4.992   9.121 -0.5615  1.1277 -0.4518
  177SLPC  H17S20197   6.942   4.849   9.228  0.2133  0.2828  2.1840
  177SLPC  C21820198   7.059   5.027   9.281  0.1959 -1.3701  0.2622
  177SLPC  H18R20199   7.041   5.136   9.288 -0.0328 -1.3480 -0.5580
  177SLPC  H18S20200   7.148   5.019   9.215 -1.1379 -2.5961 -1.4463
  177SLPC  H18T20201   7.092   4.987   9.379 -1.4537  2.6448  2.5380
  177SLPC   C3320202   6.352   4.038  10.032 -0.2290 -0.2391 -0.3165
  177SLPC   H3X20203   6.401   3.945  10.066  0.7246  1.1810  2.4023
  177SLPC   H3Y20204   6.405   4.130  10.065  1.0497 -0.3739 -1.9213
  177SLPC   C3420205   6.364   4.038   9.886 -0.1801  0.4998 -0.4444
  177SLPC   H4X20206   6.284   4.099   9.839 -3.9800 -4.5057 -0.7968
  177SLPC   H4Y20207   6.332   3.940   9.846 -1.6770  1.0786 -0.6909
  177SLPC   C3520208   6.508   4.058   9.825 -0.2741  0.1961  0.6714
  177SLPC   H5X20209   6.544   4.163   9.825  0.1311  0.0577  0.4341
  177SLPC   H5Y20210   6.503   4.024   9.720  1.0199  2.1205 -0.0336
  177SLPC   C3620211   6.613   3.975   9.900  0.6751 -0.0072 -0.9023
  177SLPC   H6X20212   6.594   3.866   9.892 -1.8571  0.4397 -1.3083
  177SLPC   H6Y20213   6.626   3.992  10.009  0.1378  0.1051 -0.8569
  177SLPC   C3720214   6.755   4.005   9.858  0.6270 -0.5323  0.5926
  177SLPC   H7X20215   6.813   3.931   9.917 -0.9503 -1.2113  1.3302
  177SLPC   H7Y20216   6.792   4.107   9.883 -2.2646  0.3506  1.4585
  177SLPC   C3820217   6.779   3.981   9.705  0.6673  0.7343 -0.3587
  177SLPC   H8X20218   6.714   3.898   9.671 -0.3205  0.1424  2.8035
  177SLPC   H8Y20219   6.879   3.935   9.695  0.5112  0.2673  0.1401
  177SLPC   C3920220   6.773   4.109   9.627  0.7224  0.0729 -0.0176
  177SLPC   H9X20221   6.859   4.173   9.655  0.2461  0.6335  0.1612
  177SLPC   H9Y20222   6.683   4.166   9.659 -0.3867 -0.6659 -1.7348
  177SLPC  C31020223   6.760   4.081   9.475  0.3833 -0.7938 -0.6327
  177SLPC  H10X20224   6.651   4.065   9.464 -0.5524  4.1545  0.1871
  177SLPC  H10Y20225   6.822   3.991   9.455  0.4161 -1.4313  2.1993
  177SLPC  C31120226   6.806   4.195   9.380 -0.5204 -0.0262  0.4402
  177SLPC  H11X20227   6.855   4.139   9.298  2.2131  0.8696  1.3688
  177SLPC  H11Y20228   6.892   4.246   9.430  0.5502 -0.0372 -1.3491
  177SLPC  C31220229   6.698   4.285   9.337 -0.8301 -0.1663 -0.0631
  177SLPC  H12X20230   6.638   4.310   9.427  0.3414 -0.9908  0.9647
  177SLPC  H12Y20231   6.626   4.230   9.273 -0.4440 -2.1542  1.1868
  177SLPC  C31320232   6.742   4.418   9.276 -0.1692  0.1941  0.1395
  177SLPC  H13X20233   6.795   4.390   9.183  1.7291 -0.1358  1.3017
  177SLPC  H13Y20234   6.813   4.476   9.339 -0.8488  0.2148  0.9040
  177SLPC  C31420235   6.620   4.515   9.233  0.0580  0.7108  0.2580
  177SLPC  H14X20236   6.562   4.526   9.326 -0.2046 -1.0797  0.3098
  177SLPC  H14Y20237   6.561   4.472   9.149  1.3052 -0.9428  0.2060
  177SLPC  C31520238   6.673   4.651   9.188  0.1918 -0.2274  0.3229
  177SLPC  H15X20239   6.762   4.679   9.249 -1.2370 -0.9354  2.8107
  177SLPC  H15Y20240   6.600   4.733   9.202  0.3552 -0.1697  0.8675
  177SLPC  C31620241   6.730   4.658   9.044  0.0833 -0.1594 -0.2203
  177SLPC  H16X20242   6.800   4.571   9.038 -0.1588 -0.3105 -0.9316
  177SLPC  H16Y20243   6.783   4.754   9.026 -2.0779  0.3945 -4.2948
  177SLPC  C31720244   6.627   4.620   8.931  0.1003 -0.1615  0.6650
  177SLPC  H17X20245   6.529   4.644   8.979  0.9314  1.4629  1.6129
  177SLPC  H17Y20246   6.618   4.510   8.920  0.6295 -0.1247 -0.1640
  177SLPC  C31820247   6.663   4.688   8.792 -0.6901  0.5132 -0.3460
  177SLPC  H18X20248   6.748   4.637   8.742 -1.1113 -0.1967 -0.3482
  177SLPC  H18Y20249   6.687   4.795   8.805  0.8395  0.6758 -3.8440
  177SLPC  H18Z20250   6.573   4.686   8.726  0.9629  2.7448 -2.7750
  178SLPC     N20251   2.167   6.547  11.291  0.6488 -0.0628 -0.2266
  178SLPC   C1320252   2.261   6.526  11.177  0.0351 -0.5054 -0.0392
  178SLPC  H13A20253   2.213   6.546  11.083  2.2043  1.6171 -0.7554
  178SLPC  H13B20254   2.346   6.592  11.187 -0.2206 -0.0526 -0.8978
  178SLPC  H13C20255   2.292   6.422  11.169  0.4290 -0.5190  1.4297
  178SLPC   C1420256   2.234   6.495  11.413  0.1543 -0.4939 -0.8778
  178SLPC  H14A20257   2.157   6.514  11.486  1.2307  1.2372 -0.1500
  178SLPC  H14B20258   2.246   6.390  11.392 -0.2220 -1.0207  1.4884
  178SLPC  H14C20259   2.320   6.556  11.436 -0.1736 -0.8474  1.3614
  178SLPC   C1520260   2.044   6.473  11.275 -0.2315 -0.1477 -0.7852
  178SLPC  H15A20261   2.064   6.366  11.272  0.0711 -0.2019  2.0379
  178SLPC  H15B20262   1.969   6.500  11.347 -1.6251  0.6928 -2.5082
  178SLPC  H15C20263   1.998   6.483  11.178 -2.5462 -1.0027  0.1938
  178SLPC   C1220264   2.148   6.691  11.300  0.2300  0.0337  0.1791
  178SLPC  H12A20265   2.245   6.738  11.301  0.4371 -0.4139  1.0895
  178SLPC  H12B20266   2.105   6.715  11.396  0.4144 -2.1782  0.8266
  178SLPC   C1120267   2.067   6.747  11.183 -0.7424 -0.6062 -0.6504
  178SLPC  H11A20268   2.121   6.728  11.088  2.0371 -1.6895  1.0963
  178SLPC  H11B20269   2.080   6.857  11.193  1.0835 -0.7746 -1.0857
  178SLPC     P20270   1.845   6.735  11.052 -0.2431 -0.3447 -0.0059
  178SLPC   O1320271   1.716   6.783  11.108  0.0931 -0.8976  0.1282
  178SLPC   O1420272   1.915   6.834  10.963  0.1618 -0.1450 -0.0141
  178SLPC   O1220273   1.932   6.707  11.178 -0.4794 -0.1490 -0.2279
  178SLPC   O1120274   1.833   6.592  10.984  0.3342  0.3821  0.3602
  178SLPC    C120275   1.920   6.557  10.873 -0.2526  0.3189  0.0989
  178SLPC    HA20276   1.999   6.629  10.847 -0.4219  0.6803  0.5774
  178SLPC    HB20277   1.974   6.462  10.894 -0.8040 -0.3000 -1.1896
  178SLPC    C220278   1.832   6.548  10.744 -0.0623  0.1803 -0.5300
  178SLPC    HS20279   1.885   6.501  10.659  1.8178  0.5586  0.4065
  178SLPC   O2120280   1.782   6.677  10.702  0.1965 -0.1713 -0.3814
  178SLPC   C2120281   1.868   6.759  10.651 -0.4023  0.4862 -0.0480
  178SLPC   O2220282   1.987   6.738  10.627  0.1533 -0.1410  0.5098
  178SLPC   C2220283   1.808   6.896  10.633 -0.0429  0.0203 -0.5995
  178SLPC   H2R20284   1.806   6.942  10.734  1.1957 -1.8166  0.2802
  178SLPC   H2S20285   1.874   6.949  10.561 -1.8128  2.3678 -0.5762
  178SLPC    C320286   1.710   6.453  10.759  0.1207  0.0042 -0.5090
  178SLPC    HX20287   1.650   6.491  10.844  0.5737 -0.9106  0.2372
  178SLPC    HY20288   1.740   6.349  10.784 -1.2728  0.2976  2.6723
  178SLPC   O3120289   1.634   6.454  10.641  0.4474  0.3916  0.1823
  178SLPC   C3120290   1.653   6.365  10.544  0.4526  0.0914 -1.1222
  178SLPC   O3220291   1.734   6.276  10.546 -0.2666  0.1481  0.0236
  178SLPC   C3220292   1.565   6.396  10.413 -0.7522 -1.2601 -0.5426
  178SLPC   H2X20293   1.501   6.485  10.433  0.1691 -1.1541  2.1622
  178SLPC   H2Y20294   1.492   6.313  10.402 -1.8480 -0.2023 -1.3774
  178SLPC   C2320295   1.662   6.900  10.578 -0.6710  0.2343 -0.5665
  178SLPC   H3R20296   1.638   7.008  10.585  2.6287  0.9780  0.2185
  178SLPC   H3S20297   1.594   6.846  10.648  1.3189  0.2053  1.4007
  178SLPC   C2420298   1.654   6.852  10.433  1.2794 -0.3786 -0.3130
  178SLPC   H4R20299   1.657   6.741  10.436 -0.1235 -0.3840  2.1687
  178SLPC   H4S20300   1.748   6.890  10.387  1.3061 -0.3020 -0.1945
  178SLPC   C2520301   1.529   6.911  10.368 -1.0703  0.0104  0.2586
  178SLPC   H5R20302   1.544   7.021  10.361  0.2022 -0.0100  2.2957
  178SLPC   H5S20303   1.447   6.892  10.441 -0.9336  0.0577  0.4260
  178SLPC   C2620304   1.511   6.854  10.225  0.9525 -0.7374 -0.1821
  178SLPC   H6R20305   1.412   6.869  10.176  1.1054 -3.0247 -1.2728
  178SLPC   H6S20306   1.525   6.744  10.230  0.3163 -0.7471  2.1806
  178SLPC   C2720307   1.611   6.912  10.131 -0.0075 -0.3466 -0.1128
  178SLPC   H7R20308   1.713   6.924  10.173 -0.1263 -0.8512  0.3249
  178SLPC   H7S20309   1.581   7.018  10.117 -0.4648 -0.3338  0.9066
  178SLPC   C2820310   1.611   6.839  10.000  0.6626 -0.5276  0.0401
  178SLPC   H8R20311   1.643   6.733  10.014  1.0728 -0.4694 -0.4306
  178SLPC   H8S20312   1.692   6.885   9.940 -0.1391  0.7593 -0.0629
  178SLPC   C2920313   1.489   6.842   9.921  0.5668  0.1203 -0.0026
  178SLPC   H9R20314   1.407   6.796   9.979 -0.6756  0.3979 -1.5223
  178SLPC  C21020315   1.459   6.887   9.800  0.2403 -0.0382 -0.2623
  178SLPC  H10R20316   1.361   6.862   9.757 -0.6277  2.2061  0.3647
  178SLPC  C21120317   1.557   6.931   9.698  0.5141 -0.0157  0.0792
  178SLPC  H11R20318   1.605   6.836   9.668 -0.1654 -0.5898  0.7784
  178SLPC  H11S20319   1.630   6.994   9.752  1.1058 -0.2464 -0.4512
  178SLPC  C21220320   1.489   7.003   9.587 -0.1823  0.5131  0.9452
  178SLPC  H12R20321   1.416   7.075   9.628 -0.6051  0.6298 -0.0026
  178SLPC  C21320322   1.515   7.005   9.453 -0.0923 -0.4173 -0.0842
  178SLPC  H13R20323   1.457   7.070   9.386 -1.8135  0.6926  2.3966
  178SLPC  C21420324   1.634   6.926   9.410  0.4207 -0.9778  0.3204
  178SLPC  H14R20325   1.622   6.820   9.443  1.9329 -2.0043 -2.3131
  178SLPC  H14S20326   1.728   6.965   9.455 -0.3675 -1.1590  2.1707
  178SLPC  C21520327   1.624   6.904   9.256 -0.5420 -0.6321  0.0787
  178SLPC  H15R20328   1.606   7.001   9.206 -2.0666  0.8315  3.3375
  178SLPC  H15S20329   1.541   6.834   9.234 -2.7211  2.3068 -1.2530
  178SLPC  C21620330   1.746   6.843   9.198 -0.1695  0.0520 -0.1087
  178SLPC  H16R20331   1.752   6.741   9.242 -1.8117 -0.0005  0.0304
  178SLPC  H16S20332   1.836   6.902   9.226  0.5994 -0.3733 -1.6204
  178SLPC  C21720333   1.743   6.830   9.049 -0.0548 -0.4498  0.7563
  178SLPC  H17R20334   1.656   6.776   9.007 -1.1843  1.3156  0.7936
  178SLPC  H17S20335   1.836   6.777   9.017 -0.0548  0.5381 -0.9621
  178SLPC  C21820336   1.741   6.962   8.971  0.2430  0.2506  0.1636
  178SLPC  H18R20337   1.735   6.932   8.865 -0.6675  2.3233 -0.3995
  178SLPC  H18S20338   1.836   7.020   8.978  0.6915 -0.3406 -0.9542
  178SLPC  H18T20339   1.651   7.024   8.991  1.3050  1.4689  1.2728
  178SLPC   C3320340   1.660   6.410  10.287  1.0823  0.2820  0.3412
  178SLPC   H3X20341   1.727   6.321  10.283 -0.2778 -0.7221 -0.3150
  178SLPC   H3Y20342   1.715   6.507  10.290  0.7827  0.4721 -0.2846
  178SLPC   C3420343   1.576   6.413  10.155  0.3036 -0.2977 -0.0418
  178SLPC   H4X20344   1.535   6.516  10.155  0.1607 -0.3461  1.2848
  178SLPC   H4Y20345   1.503   6.329  10.162  0.9563 -0.8672  0.0009
  178SLPC   C3520346   1.677   6.372  10.045  0.9484  0.5821 -0.0651
  178SLPC   H5X20347   1.723   6.271  10.057 -0.7385  0.1223  3.0146
  178SLPC   H5Y20348   1.756   6.449  10.038  1.2605  0.3579  0.9849
  178SLPC   C3620349   1.593   6.363   9.917 -0.4186 -0.1714  0.2459
  178SLPC   H6X20350   1.539   6.459   9.901 -0.5271 -0.3175 -0.2829
  178SLPC   H6Y20351   1.506   6.294   9.930 -1.5798  1.4137  1.0624
  178SLPC   C3720352   1.685   6.327   9.798 -0.2810  0.1942  0.8262
  178SLPC   H7X20353   1.709   6.220   9.812  2.5101  0.9658  2.1411
  178SLPC   H7Y20354   1.768   6.399   9.809  0.7503 -0.6147 -1.2558
  178SLPC   C3820355   1.617   6.365   9.663  0.1092 -0.5638 -0.5249
  178SLPC   H8X20356   1.585   6.471   9.661 -0.9039 -0.8628 -0.6329
  178SLPC   H8Y20357   1.518   6.314   9.665  1.1190 -2.5231  0.9009
  178SLPC   C3920358   1.703   6.324   9.542 -0.5909  0.3052 -0.0398
  178SLPC   H9X20359   1.722   6.215   9.549 -0.0825  0.5562  3.5017
  178SLPC   H9Y20360   1.801   6.372   9.560  0.5272 -1.6718 -0.6706
  178SLPC  C31020361   1.639   6.367   9.414  0.4226  0.0574 -0.4147
  178SLPC  H10X20362   1.622   6.476   9.400 -0.0525 -0.2206 -2.1557
  178SLPC  H10Y20363   1.540   6.318   9.400 -0.0272  0.6390  0.6907
  178SLPC  C31120364   1.714   6.327   9.287  0.0489 -0.0803  0.2278
  178SLPC  H11X20365   1.672   6.227   9.265 -0.6237  0.1004  0.6569
  178SLPC  H11Y20366   1.824   6.311   9.298  0.1998  2.2626  2.8991
  178SLPC  C31220367   1.681   6.409   9.158  0.3684 -0.5206  0.5461
  178SLPC  H12X20368   1.722   6.511   9.176 -1.2254  0.3104 -0.4081
  178SLPC  H12Y20369   1.571   6.415   9.140  0.5823  1.5755 -0.2612
  178SLPC  C31320370   1.759   6.365   9.035 -0.1257 -0.0181  0.3730
  178SLPC  H13X20371   1.737   6.258   9.017 -0.5656 -0.5515  3.8213
  178SLPC  H13Y20372   1.869   6.369   9.053  0.0141  2.1049 -0.6779
  178SLPC  C31420373   1.713   6.442   8.910 -0.1237  0.1893 -0.4250
  178SLPC  H14X20374   1.723   6.549   8.937 -0.7892  0.8518 -2.6785
  178SLPC  H14Y20375   1.603   6.432   8.894 -0.0463  0.2836 -1.0312
  178SLPC  C31520376   1.796   6.413   8.788  0.2045  0.0956 -0.2632
  178SLPC  H15X20377   1.902   6.410   8.821  1.2918  2.9635 -3.1600
  178SLPC  H15Y20378   1.768   6.310   8.756 -2.7780  0.1380  1.9502
  178SLPC  C31620379   1.763   6.493   8.663  0.1477 -0.0921 -0.4660
  178SLPC  H16X20380   1.790   6.596   8.694  4.6595 -1.2747 -0.0735
  178SLPC  H16Y20381   1.655   6.493   8.638 -0.0401  2.1577  0.2431
  178SLPC  C31720382   1.848   6.483   8.538 -0.2736  0.8888  0.6873
  178SLPC  H17X20383   1.829   6.575   8.479  0.3916 -1.5039 -3.4512
  178SLPC  H17Y20384   1.809   6.395   8.483  0.1434  0.3805  1.1985
  178SLPC  C31820385   1.998   6.461   8.555  0.4866  0.7042 -0.5842
  178SLPC  H18X20386   2.054   6.524   8.627  0.7854  0.1484 -0.3260
  178SLPC  H18Y20387   2.041   6.472   8.453 -0.3732 -0.8777 -1.1400
  178SLPC  H18Z20388   2.019   6.356   8.585  0.8310  0.4824 -1.5658
  179SLPC     N20389   3.498   3.441  10.599  0.0895  0.5754  0.3004
  179SLPC   C1320390   3.625   3.520  10.619  0.5768 -0.0335  0.2722
  179SLPC  H13A20391   3.658   3.503  10.720  1.9195  0.9654  0.0114
  179SLPC  H13B20392   3.707   3.474  10.565  1.1008  1.3498 -0.1247
  179SLPC  H13C20393   3.611   3.619  10.578  1.8055 -0.0624 -0.2417
  179SLPC   C1420394   3.377   3.502  10.672  0.3438  0.9268 -0.2907
  179SLPC  H14A20395   3.395   3.504  10.779 -0.5515 -0.4535 -0.0996
  179SLPC  H14B20396   3.349   3.600  10.640 -0.3884  1.5315  2.0701
  179SLPC  H14C20397   3.290   3.443  10.651  0.0067  1.2277  0.2421
  179SLPC   C1520398   3.517   3.297  10.644 -0.1848  0.0338 -0.3966
  179SLPC  H15A20399   3.603   3.255  10.594  0.1353 -0.1855  0.3211
  179SLPC  H15B20400   3.549   3.289  10.747  1.7979  0.5063 -0.9568
  179SLPC  H15C20401   3.433   3.234  10.618 -2.4220  1.9765  1.8602
  179SLPC   C1220402   3.473   3.447  10.444  0.1917 -0.5563  0.2074
  179SLPC  H12A20403   3.564   3.426  10.389  0.4526 -1.1192  0.8483
  179SLPC  H12B20404   3.451   3.548  10.411  0.1430 -0.7276 -0.2838
  179SLPC   C1120405   3.371   3.351  10.398 -0.0462 -0.2864 -0.3254
  179SLPC  H11A20406   3.333   3.371  10.296  0.3744  0.4965 -0.3329
  179SLPC  H11B20407   3.281   3.362  10.462  0.9376  1.5663  0.7922
  179SLPC     P20408   3.299   3.100  10.389  0.1933  0.1755  0.1416
  179SLPC   O1320409   3.346   2.993  10.301 -0.3015  0.4628  0.2375
  179SLPC   O1420410   3.255   3.064  10.530 -0.8119 -0.1290 -0.2678
  179SLPC   O1220411   3.413   3.211  10.402 -0.2022 -0.0674  0.0503
  179SLPC   O1120412   3.182   3.178  10.309  0.2282  0.5917  0.0144
  179SLPC    C120413   3.055   3.120  10.268 -0.2597 -0.2737 -0.2744
  179SLPC    HA20414   3.049   3.010  10.287 -0.8619 -0.0481  0.8958
  179SLPC    HB20415   2.969   3.177  10.311 -0.8771 -0.4395 -1.2716
  179SLPC    C220416   3.035   3.134  10.116 -0.3045  0.7408 -0.0691
  179SLPC    HS20417   2.938   3.093  10.080 -2.0065  3.8312  0.7809
  179SLPC   O2120418   3.149   3.073  10.058 -0.4074 -0.1691 -0.3368
  179SLPC   C2120419   3.132   2.952  10.012  0.0640 -0.7289 -0.4409
  179SLPC   O2220420   3.033   2.884  10.027  0.2649  0.2035  0.0683
  179SLPC   C2220421   3.264   2.903   9.929 -0.1256  0.4192  0.4790
  179SLPC   H2R20422   3.318   2.997   9.902  2.4600 -0.2110  3.1908
  179SLPC   H2S20423   3.329   2.842   9.996 -0.6433  0.6870  1.2403
  179SLPC    C320424   3.038   3.282  10.076  0.3217  0.4361  0.0520
  179SLPC    HX20425   3.137   3.332  10.069  0.1443  1.0363  1.4796
  179SLPC    HY20426   2.997   3.345  10.158 -1.3522  0.1517 -0.5413
  179SLPC   O3120427   2.950   3.289   9.965 -0.2219  0.0470 -0.0714
  179SLPC   C3120428   2.977   3.380   9.872 -0.5840  0.0100  0.2001
  179SLPC   O3220429   3.060   3.474   9.880 -0.3617 -0.0106  0.0394
  179SLPC   C3220430   2.902   3.357   9.747  0.1613 -0.1643  0.0573
  179SLPC   H2X20431   2.852   3.455   9.731  0.5816  0.4962  2.5530
  179SLPC   H2Y20432   2.820   3.289   9.779 -0.0333 -1.0495 -2.2603
  179SLPC   C2320433   3.236   2.827   9.800 -0.4268  0.4353  0.2125
  179SLPC   H3R20434   3.141   2.770   9.803 -0.2835  0.1935  0.1997
  179SLPC   H3S20435   3.313   2.747   9.796 -1.2652 -0.2947 -1.4605
  179SLPC   C2420436   3.238   2.923   9.679 -0.1467  0.8745 -0.1250
  179SLPC   H4R20437   3.332   2.982   9.683  1.2173 -1.3074  1.0472
  179SLPC   H4S20438   3.150   2.989   9.690 -0.8427 -0.2310  1.0429
  179SLPC   C2520439   3.220   2.850   9.543  0.6129 -0.5625  0.2395
  179SLPC   H5R20440   3.117   2.808   9.541  0.7021 -0.7388 -1.6917
  179SLPC   H5S20441   3.292   2.770   9.516  0.1129 -0.9451  0.0220
  179SLPC   C2620442   3.223   2.947   9.423  0.5130  0.2518  0.6835
  179SLPC   H6R20443   3.313   3.011   9.428  0.7169 -0.0831  1.4199
  179SLPC   H6S20444   3.135   3.013   9.441  0.5975  0.2179  1.2437
  179SLPC   C2720445   3.203   2.871   9.294 -0.3555 -0.7088  0.8583
  179SLPC   H7R20446   3.100   2.828   9.294 -1.0308  0.8628  0.5078
  179SLPC   H7S20447   3.280   2.792   9.294 -0.9532 -1.3209 -1.1995
  179SLPC   C2820448   3.213   2.965   9.166  0.1548 -0.4325 -0.4536
  179SLPC   H8R20449   3.312   3.015   9.163  0.1485 -0.3933 -0.0094
  179SLPC   H8S20450   3.135   3.044   9.179 -1.3692 -1.8787 -0.5230
  179SLPC   C2920451   3.204   2.898   9.033 -0.2552 -0.0373  0.3874
  179SLPC   H9R20452   3.304   2.860   9.008  0.6635  2.3338  0.2661
  179SLPC  C21020453   3.105   2.896   8.937  0.4162 -0.1033  0.1684
  179SLPC  H10R20454   3.115   2.838   8.844 -2.1069  1.2707 -1.0092
  179SLPC  C21120455   2.968   2.962   8.951  0.2566 -0.0887  0.0261
  179SLPC  H11R20456   2.960   3.048   8.881  0.8021 -1.7486 -2.1703
  179SLPC  H11S20457   2.945   2.993   9.055  0.5134 -0.2836  0.1416
  179SLPC  C21220458   2.868   2.864   8.890  0.0789 -0.5259 -0.1303
  179SLPC  H12R20459   2.857   2.778   8.958  1.7923  0.2299  1.1413
  179SLPC  C21320460   2.824   2.868   8.760  0.1891 -0.0146 -0.1075
  179SLPC  H13R20461   2.747   2.797   8.727  0.0964 -0.0663  0.2194
  179SLPC  C21420462   2.852   2.973   8.656  0.3840  0.0015 -0.1005
  179SLPC  H14R20463   2.953   3.019   8.657  0.5536 -0.3630 -0.2308
  179SLPC  H14S20464   2.779   3.056   8.670 -1.6910 -2.0183  1.3994
  179SLPC  C21520465   2.857   2.895   8.521  0.1985  0.5886  0.3498
  179SLPC  H15R20466   2.925   2.808   8.535  0.0321  0.8317  3.0225
  179SLPC  H15S20467   2.904   2.953   8.439  0.3084 -1.7713 -1.2955
  179SLPC  C21620468   2.713   2.874   8.461 -0.2829 -0.6616 -0.2201
  179SLPC  H16R20469   2.702   2.955   8.386 -1.0632 -1.3269 -0.8238
  179SLPC  H16S20470   2.646   2.879   8.549  1.0819  0.0714  0.8046
  179SLPC  C21720471   2.695   2.742   8.394 -0.8156 -0.4182 -0.5746
  179SLPC  H17R20472   2.735   2.650   8.443  0.8670  0.7603  0.3144
  179SLPC  H17S20473   2.753   2.756   8.301  0.9029  3.1303  0.9362
  179SLPC  C21820474   2.547   2.715   8.362 -0.3399 -0.2061 -0.4780
  179SLPC  H18R20475   2.528   2.610   8.331  0.0387 -0.8743  1.4804
  179SLPC  H18S20476   2.513   2.786   8.283 -1.2682 -1.4400 -1.1943
  179SLPC  H18T20477   2.484   2.726   8.453 -0.0407  0.8957 -0.3908
  179SLPC   C3320478   2.993   3.305   9.633 -0.5770  0.5380 -0.7885
  179SLPC   H3X20479   2.933   3.275   9.544  0.4442 -0.0942 -1.2647
  179SLPC   H3Y20480   3.034   3.204   9.658 -4.4162 -1.3066 -1.4794
  179SLPC   C3420481   3.103   3.400   9.587  0.0192  0.0740  0.1139
  179SLPC   H4X20482   3.184   3.410   9.663 -0.0638  0.7987  0.1082
  179SLPC   H4Y20483   3.068   3.504   9.566 -0.2031 -0.1367 -0.5735
  179SLPC   C3520484   3.165   3.356   9.456  0.2240 -0.1259  0.2994
  179SLPC   H5X20485   3.085   3.336   9.382  0.2926  0.1666  0.1438
  179SLPC   H5Y20486   3.232   3.268   9.463  0.4113  0.0689  1.0553
  179SLPC   C3620487   3.255   3.462   9.392 -0.1586 -0.7204  0.1928
  179SLPC   H6X20488   3.341   3.482   9.459  0.1506 -1.3727  0.0017
  179SLPC   H6Y20489   3.193   3.553   9.377 -1.3231 -1.6967 -0.9783
  179SLPC   C3720490   3.308   3.430   9.250  0.4031  0.3382  0.4049
  179SLPC   H7X20491   3.364   3.335   9.261 -1.7289 -1.2472 -1.8261
  179SLPC   H7Y20492   3.376   3.514   9.223  0.4758  0.7954  1.9566
  179SLPC   C3820493   3.208   3.390   9.141 -0.1544 -0.3499 -0.2989
  179SLPC   H8X20494   3.123   3.461   9.150  0.3963  0.3433 -0.5518
  179SLPC   H8Y20495   3.170   3.286   9.158 -0.0943 -0.0720  1.6018
  179SLPC   C3920496   3.273   3.390   9.006  0.0885 -0.0168 -0.3904
  179SLPC   H9X20497   3.383   3.393   9.017 -0.0929  0.1222  1.6587
  179SLPC   H9Y20498   3.249   3.486   8.955 -3.8762 -0.6221  0.1726
  179SLPC  C31020499   3.228   3.278   8.910 -0.6940 -0.1290 -0.0038
  179SLPC  H10X20500   3.118   3.264   8.913 -0.9307  1.2344 -1.3894
  179SLPC  H10Y20501   3.279   3.186   8.943 -0.2178 -0.1209 -0.7059
  179SLPC  C31120502   3.258   3.299   8.761  0.4264  0.5148 -0.3139
  179SLPC  H11X20503   3.368   3.317   8.755  0.2707  1.4090 -0.4335
  179SLPC  H11Y20504   3.204   3.390   8.729 -0.3395 -0.1623 -0.9616
  179SLPC  C31220505   3.223   3.181   8.672 -0.1171  0.1701  0.5114
  179SLPC  H12X20506   3.112   3.172   8.678 -0.0074 -0.2916  1.9758
  179SLPC  H12Y20507   3.279   3.088   8.691 -1.1423  0.0428  3.1861
  179SLPC  C31320508   3.243   3.214   8.524  0.6558 -0.1233 -0.0017
  179SLPC  H13X20509   3.351   3.226   8.501  1.2658 -1.7333  1.9170
  179SLPC  H13Y20510   3.202   3.312   8.492  2.4048  1.1155  1.4767
  179SLPC  C31420511   3.197   3.109   8.426 -0.6150 -0.3664 -0.8144
  179SLPC  H14X20512   3.090   3.081   8.443 -0.4649 -1.4065 -1.4955
  179SLPC  H14Y20513   3.259   3.018   8.437 -0.0711  0.1019  0.0229
  179SLPC  C31520514   3.203   3.166   8.287 -0.7289 -0.4331 -0.2086
  179SLPC  H15X20515   3.306   3.160   8.245 -0.6395 -1.3345  0.1199
  179SLPC  H15Y20516   3.174   3.273   8.289  0.7094 -0.0494  0.7621
  179SLPC  C31620517   3.098   3.102   8.194  0.6529 -0.4003  0.4799
  179SLPC  H16X20518   3.007   3.108   8.257  3.2832  0.9803  4.3336
  179SLPC  H16Y20519   3.112   2.998   8.157  1.0829 -0.0276 -0.4281
  179SLPC  C31720520   3.067   3.192   8.074 -0.3198  0.1637  0.1429
  179SLPC  H17X20521   3.168   3.207   8.029  1.2610  0.5687  3.6786
  179SLPC  H17Y20522   3.038   3.294   8.108  0.2597  0.7711 -1.1479
  179SLPC  C31820523   2.960   3.140   7.975  0.2473  0.2634 -0.4529
  179SLPC  H18X20524   2.966   3.034   7.943  2.1470 -0.0886  0.9343
  179SLPC  H18Y20525   2.961   3.198   7.881  2.7547 -1.2126 -1.3990
  179SLPC  H18Z20526   2.861   3.138   8.027  0.8286 -1.5292  0.6413
  180SLPC     N20527   4.359   1.204  10.803 -0.0176  0.2266 -0.7230
  180SLPC   C1320528   4.463   1.304  10.839 -0.4755  0.1880 -0.3245
  180SLPC  H13A20529   4.538   1.247  10.893 -1.2510 -0.7323 -0.1967
  180SLPC  H13B20530   4.498   1.350  10.748  0.4231  1.0874  0.4673
  180SLPC  H13C20531   4.418   1.376  10.906 -0.2358 -1.7440  1.9901
  180SLPC   C1420532   4.245   1.265  10.724  0.6071 -0.5341 -0.3152
  180SLPC  H14A20533   4.274   1.321  10.636  0.0554 -0.5595 -0.5125
  180SLPC  H14B20534   4.184   1.182  10.692 -0.6796  0.2895 -0.0219
  180SLPC  H14C20535   4.193   1.336  10.785 -0.4519 -2.0333  0.5661
  180SLPC   C1520536   4.304   1.153  10.931 -0.6430 -0.2108 -0.2151
  180SLPC  H15A20537   4.243   1.067  10.905 -0.4280 -1.1191  2.1359
  180SLPC  H15B20538   4.386   1.116  10.990  2.1356  2.9658 -1.9266
  180SLPC  H15C20539   4.248   1.232  10.980 -2.1046 -1.3104 -0.0709
  180SLPC   C1220540   4.425   1.105  10.718 -0.1188  0.3300 -0.1958
  180SLPC  H12A20541   4.510   1.062  10.770 -0.9233  0.7053  1.4748
  180SLPC  H12B20542   4.470   1.146  10.629 -0.9607 -0.5839 -1.0554
  180SLPC   C1120543   4.341   0.987  10.665  0.4641  0.4214 -0.3462
  180SLPC  H11A20544   4.417   0.922  10.615  2.1252  0.3495  2.2185
  180SLPC  H11B20545   4.258   1.029  10.605  0.4764  0.1912 -0.5275
  180SLPC     P20546   4.304   0.782  10.830  0.0828 -0.5459  0.1259
  180SLPC   O1320547   4.443   0.774  10.881 -0.1478  0.3075  0.0570
  180SLPC   O1420548   4.195   0.749  10.923  0.1682  0.2509 -0.3736
  180SLPC   O1220549   4.281   0.926  10.779 -0.1818  0.8429 -0.2021
  180SLPC   O1120550   4.292   0.686  10.707 -0.1425  0.2424  0.5216
  180SLPC    C120551   4.158   0.685  10.650 -0.2233 -0.4019  0.4755
  180SLPC    HA20552   4.094   0.620  10.713 -0.7071 -0.0773  0.3199
  180SLPC    HB20553   4.104   0.780  10.631  0.5078 -0.2452 -0.9110
  180SLPC    C220554   4.173   0.631  10.516  0.6082  0.7690  0.1536
  180SLPC    HS20555   4.201   0.524  10.517 -0.4754  0.4877  0.4476
  180SLPC   O2120556   4.267   0.713  10.445 -0.2546  0.1557  0.0121
  180SLPC   C2120557   4.388   0.652  10.428  0.0313 -0.2215 -0.6543
  180SLPC   O2220558   4.412   0.535  10.455  0.1990 -0.3961  0.6260
  180SLPC   C2220559   4.489   0.739  10.375  0.1764 -0.0245 -0.4104
  180SLPC   H2R20560   4.436   0.831  10.341  0.0184 -0.1401 -0.4730
  180SLPC   H2S20561   4.554   0.770  10.459  0.2217  3.1359 -1.5341
  180SLPC    C320562   4.043   0.639  10.430  0.5852  0.2846 -0.0759
  180SLPC    HX20563   4.037   0.749  10.417 -2.1215  0.3529  1.3227
  180SLPC    HY20564   3.953   0.608  10.488 -0.7445  1.4818 -1.4430
  180SLPC   O3120565   4.060   0.559  10.313 -0.2479  0.2215 -0.1609
  180SLPC   C3120566   4.059   0.626  10.193 -0.3929 -0.1443  0.2863
  180SLPC   O3220567   4.051   0.743  10.173 -0.4480  0.0817  0.7280
  180SLPC   C3220568   4.074   0.521  10.089  0.1187  0.9970 -0.0007
  180SLPC   H2X20569   4.019   0.430  10.123  3.0097 -2.2569 -3.6256
  180SLPC   H2Y20570   4.174   0.481  10.061 -0.9077 -2.0106  0.3694
  180SLPC   C2320571   4.556   0.684  10.248  0.5181 -0.4661 -0.9502
  180SLPC   H3R20572   4.571   0.576  10.264  0.7357  0.1514  3.5813
  180SLPC   H3S20573   4.658   0.728  10.246  1.1401 -1.6306  2.9118
  180SLPC   C2420574   4.478   0.725  10.116 -0.2225  0.5842 -0.4323
  180SLPC   H4R20575   4.514   0.825  10.086  0.0329  0.5651 -0.1847
  180SLPC   H4S20576   4.367   0.721  10.121 -0.2436 -0.0401 -1.2820
  180SLPC   C2520577   4.515   0.631   9.995  0.3899 -0.1190 -0.0230
  180SLPC   H5R20578   4.496   0.525  10.022 -0.4022 -0.0765 -0.3707
  180SLPC   H5S20579   4.619   0.664   9.974 -0.2029  1.3581 -0.7314
  180SLPC   C2620580   4.443   0.667   9.864  0.5864  0.6736 -0.9290
  180SLPC   H6R20581   4.432   0.777   9.862  0.3372  0.6364 -2.3518
  180SLPC   H6S20582   4.341   0.622   9.866  0.5455  0.6758 -2.4286
  180SLPC   C2720583   4.506   0.608   9.738 -0.5850  1.2985  0.4027
  180SLPC   H7R20584   4.488   0.499   9.740 -2.8369  1.6337 -0.5606
  180SLPC   H7S20585   4.614   0.634   9.732  0.1026 -1.4895  0.2168
  180SLPC   C2820586   4.447   0.667   9.599  0.3283  0.6618  0.1947
  180SLPC   H8R20587   4.357   0.607   9.575 -0.8197  2.9158 -1.3011
  180SLPC   H8S20588   4.527   0.637   9.529  0.2959 -0.3228  0.5796
  180SLPC   C2920589   4.424   0.820   9.596  0.7515 -0.6054 -0.4154
  180SLPC   H9R20590   4.519   0.869   9.568 -0.4362  1.2997 -1.1839
  180SLPC  C21020591   4.310   0.892   9.612 -0.9718 -0.4157  0.2223
  180SLPC  H10R20592   4.310   1.002   9.618 -1.6439 -0.4191  0.3041
  180SLPC  C21120593   4.176   0.839   9.641 -0.2844 -0.0964 -0.7032
  180SLPC  H11R20594   4.179   0.820   9.751  0.0889 -0.8620 -0.8437
  180SLPC  H11S20595   4.160   0.739   9.595  2.8063  0.9698 -4.3533
  180SLPC  C21220596   4.069   0.936   9.620  0.4057  0.3732  0.4810
  180SLPC  H12R20597   4.019   0.979   9.709 -0.0370 -1.8351  1.3301
  180SLPC  C21320598   4.025   0.971   9.501 -0.0145 -0.2459  0.0232
  180SLPC  H13R20599   3.944   1.044   9.508 -1.2547 -1.5442 -0.5245
  180SLPC  C21420600   4.067   0.935   9.367  0.3082 -0.1217 -0.3504
  180SLPC  H14R20601   4.152   0.863   9.368  0.1018 -0.4131 -2.3144
  180SLPC  H14S20602   4.113   1.023   9.317  1.8619 -1.2240 -0.9196
  180SLPC  C21520603   3.952   0.880   9.277  0.3015 -0.2185 -0.2446
  180SLPC  H15R20604   3.885   0.966   9.258 -2.3156 -1.7934  1.5018
  180SLPC  H15S20605   3.895   0.810   9.342 -0.1686 -0.8684 -1.3533
  180SLPC  C21620606   3.991   0.798   9.149 -0.5588  0.7651 -0.3735
  180SLPC  H16R20607   4.042   0.705   9.184 -3.0782 -0.3008  0.6040
  180SLPC  H16S20608   4.064   0.860   9.092 -1.7967  0.5284 -2.2625
  180SLPC  C21720609   3.874   0.764   9.065  0.5728 -0.0916  0.6226
  180SLPC  H17R20610   3.821   0.859   9.044 -1.2148 -1.1896  0.1395
  180SLPC  H17S20611   3.812   0.691   9.120 -0.0182 -1.0856 -1.3224
  180SLPC  C21820612   3.911   0.704   8.929 -0.0601 -0.3734 -0.1720
  180SLPC  H18R20613   3.958   0.772   8.854 -0.5429  0.4316  0.2441
  180SLPC  H18S20614   3.825   0.654   8.880  1.7290 -1.3869 -2.3764
  180SLPC  H18T20615   3.972   0.614   8.949  1.3070  0.8737  1.4356
  180SLPC   C3320616   4.009   0.577   9.959 -0.1572 -0.5338  0.3867
  180SLPC   H3X20617   4.072   0.660   9.922  0.0767 -0.2008  1.5231
  180SLPC   H3Y20618   3.904   0.603   9.982  0.4714 -0.2894  3.1642
  180SLPC   C3420619   4.010   0.460   9.852  0.1192  0.7242  0.7523
  180SLPC   H4X20620   3.988   0.361   9.898 -1.1668  0.8124  0.3488
  180SLPC   H4Y20621   4.117   0.466   9.821 -0.4127  0.6751 -1.1680
  180SLPC   C3520622   3.914   0.472   9.733  0.2328  0.4365 -0.7590
  180SLPC   H5X20623   3.881   0.578   9.721 -0.3326  0.2995 -0.4797
  180SLPC   H5Y20624   3.819   0.417   9.752  0.8041 -0.6587 -1.0663
  180SLPC   C3620625   3.980   0.423   9.599 -0.0608 -0.5272 -1.1805
  180SLPC   H6X20626   4.008   0.317   9.620 -1.8593 -0.6357  0.8081
  180SLPC   H6Y20627   4.060   0.500   9.594 -2.1569  1.6913 -1.0081
  180SLPC   C3720628   3.887   0.437   9.478  0.4168 -0.0054 -0.1558
  180SLPC   H7X20629   3.851   0.543   9.476 -1.1965 -0.5102  1.0394
  180SLPC   H7Y20630   3.787   0.392   9.498  0.5504  0.4742  1.6288
  180SLPC   C3820631   3.948   0.396   9.344  0.4510  0.5598  0.1049
  180SLPC   H8X20632   3.876   0.434   9.269 -1.0500  1.1078  1.7785
  180SLPC   H8Y20633   3.947   0.286   9.329  0.3502  0.6107 -0.2629
  180SLPC   C3920634   4.090   0.444   9.318 -0.7201  0.3046  1.1256
  180SLPC   H9X20635   4.171   0.399   9.379  1.1492  1.1480 -0.7003
  180SLPC   H9Y20636   4.098   0.553   9.339  0.0037  0.2387  1.2177
  180SLPC  C31020637   4.139   0.414   9.175  0.7753  0.3934  0.3282
  180SLPC  H10X20638   4.097   0.490   9.106 -1.7949 -0.9875  0.3109
  180SLPC  H10Y20639   4.107   0.312   9.147 -0.6832  1.4567 -2.0046
  180SLPC  C31120640   4.288   0.431   9.165 -0.2820  1.3443 -0.1439
  180SLPC  H11X20641   4.326   0.406   9.064  0.0336  1.4316 -0.0479
  180SLPC  H11Y20642   4.339   0.364   9.236 -2.4047 -1.4843 -1.1968
  180SLPC  C31220643   4.333   0.567   9.207 -0.5853  0.7278 -0.0411
  180SLPC  H12X20644   4.337   0.582   9.317 -1.3912  2.8326 -0.2727
  180SLPC  H12Y20645   4.274   0.642   9.150 -2.1490 -0.5337 -0.1220
  180SLPC  C31320646   4.484   0.584   9.179  0.1163 -0.0256  0.7415
  180SLPC  H13X20647   4.510   0.558   9.074 -1.5156 -0.1448  0.3655
  180SLPC  H13Y20648   4.536   0.501   9.232 -1.4380 -1.7873 -0.4222
  180SLPC  C31420649   4.546   0.712   9.235 -0.2170  0.3044 -0.1726
  180SLPC  H14X20650   4.528   0.710   9.345 -0.9331  1.2863 -0.2589
  180SLPC  H14Y20651   4.511   0.803   9.182  0.3579  0.2803 -0.5954
  180SLPC  C31520652   4.698   0.715   9.227  0.1810  0.7904  0.0640
  180SLPC  H15X20653   4.725   0.644   9.145  0.1973  0.5338  0.2919
  180SLPC  H15Y20654   4.745   0.682   9.321  0.4006  1.4983  0.2101
  180SLPC  C31620655   4.739   0.860   9.193 -0.4349  0.1052  0.0637
  180SLPC  H16X20656   4.701   0.932   9.268  0.9630  0.6722  0.2585
  180SLPC  H16Y20657   4.712   0.901   9.093 -0.9962 -1.7458 -0.5488
  180SLPC  C31720658   4.894   0.868   9.189 -0.3161  0.2521  0.2677
  180SLPC  H17X20659   4.945   0.816   9.273 -0.1463  0.9217  0.5839
  180SLPC  H17Y20660   4.927   0.974   9.192  1.9876 -0.4891  2.0075
  180SLPC  C31820661   4.963   0.794   9.076 -0.2113 -0.0905  0.3645
  180SLPC  H18X20662   5.073   0.800   9.090 -0.2592  2.2021  0.0044
  180SLPC  H18Y20663   4.939   0.842   8.979  0.1740 -0.2322  0.1960
  180SLPC  H18Z20664   4.921   0.691   9.066 -0.5087  0.1851 -1.3932
  181SLPC     N20665   0.185   5.226  11.239  0.1606 -0.8528  0.2788
  181SLPC   C1320666   0.295   5.335  11.251 -0.2106  0.4307  0.2939
  181SLPC  H13A20667   0.378   5.291  11.198 -1.2417 -0.1023 -0.8909
  181SLPC  H13B20668   0.273   5.430  11.204  0.1773  0.8367  0.9269
  181SLPC  H13C20669   0.329   5.353  11.352  1.2445 -0.3153 -0.0520
  181SLPC   C1420670   0.070   5.279  11.317 -0.2436  0.0065 -0.4929
  181SLPC  H14A20671   0.017   5.366  11.282 -0.5255 -0.5201 -1.4107
  181SLPC  H14B20672  -0.012   5.209  11.311  1.1070 -1.5738 -1.0933
  181SLPC  H14C20673   0.098   5.303  11.418  3.4773  0.3932 -1.5249
  181SLPC   C1520674   0.231   5.105  11.314  0.1984  0.0375  0.0210
  181SLPC  H15A20675   0.293   5.123  11.401 -3.2262  0.9942  2.3584
  181SLPC  H15B20676   0.143   5.051  11.345  0.1671 -0.2469 -0.5672
  181SLPC  H15C20677   0.283   5.045  11.240 -0.8021 -1.1378  0.2587
  181SLPC   C1220678   0.146   5.201  11.090 -0.0600 -0.7121 -0.0124
  181SLPC  H12A20679   0.109   5.290  11.042  0.5275 -1.2378 -1.4666
  181SLPC  H12B20680   0.081   5.115  11.085  0.4858 -1.2631  1.8285
  181SLPC   C1120681   0.272   5.168  11.003  0.5884  0.8039  0.2313
  181SLPC  H11A20682   0.335   5.260  11.006 -0.6940  1.7295 -0.6698
  181SLPC  H11B20683   0.231   5.166  10.900 -0.6318 -1.5257  0.7342
  181SLPC     P20684   0.308   4.910  10.965  0.3427  0.0114 -0.2756
  181SLPC   O1320685   0.383   4.814  11.042 -0.0721  0.3854  0.3815
  181SLPC   O1420686   0.161   4.882  10.953  0.3228 -0.2152  0.2728
  181SLPC   O1220687   0.331   5.043  11.041 -0.2805  0.2323 -0.0612
  181SLPC   O1120688   0.359   4.930  10.821 -0.5809  0.0591  0.3055
  181SLPC    C120689   0.429   4.827  10.743 -0.0813  0.2632  0.3375
  181SLPC    HA20690   0.530   4.801  10.780 -0.3347 -2.0801 -0.5132
  181SLPC    HB20691   0.365   4.736  10.735 -1.3173  0.9407  2.1915
  181SLPC    C220692   0.454   4.864  10.592 -0.3266 -0.3707 -0.3590
  181SLPC    HS20693   0.499   4.965  10.585 -1.8900  0.1865 -2.5501
  181SLPC   O2120694   0.325   4.843  10.534  0.2474 -0.3525  0.2364
  181SLPC   C2120695   0.309   4.924  10.433 -0.0516 -0.3444 -0.6715
  181SLPC   O2220696   0.397   4.991  10.379  0.4005 -0.0815  0.3896
  181SLPC   C2220697   0.166   4.911  10.386 -0.0072  1.2451 -0.8832
  181SLPC   H2R20698   0.100   4.936  10.472  0.3864  1.6224 -0.6870
  181SLPC   H2S20699   0.157   4.988  10.306 -0.2615  0.7778 -1.3048
  181SLPC    C320700   0.551   4.763  10.545 -0.2740  0.4629  0.6707
  181SLPC    HX20701   0.496   4.667  10.554  0.4349  0.2478  2.9617
  181SLPC    HY20702   0.646   4.756  10.602  0.4471 -2.0401 -0.7470
  181SLPC   O3120703   0.589   4.790  10.411  0.0285  0.3826  0.3792
  181SLPC   C3120704   0.693   4.868  10.389 -0.7612  0.5387 -0.0131
  181SLPC   O3220705   0.780   4.896  10.471  0.3409  0.0527  0.6165
  181SLPC   C3220706   0.688   4.903  10.240 -0.4007  0.5595 -0.8105
  181SLPC   H2X20707   0.731   5.005  10.226  0.6995  0.2973  0.5754
  181SLPC   H2Y20708   0.581   4.906  10.210 -0.8091  0.3270  0.5724
  181SLPC   C2320709   0.138   4.772  10.334 -0.8871 -0.0381  0.4422
  181SLPC   H3R20710   0.036   4.766  10.291  0.7333 -2.4225 -3.4551
  181SLPC   H3S20711   0.158   4.699  10.415  1.6811  0.9491  0.7355
  181SLPC   C2420712   0.220   4.731  10.208 -0.5008  0.1124 -0.7202
  181SLPC   H4R20713   0.195   4.624  10.191  1.4238 -0.3231 -0.8426
  181SLPC   H4S20714   0.327   4.721  10.233 -0.5566 -0.3573 -0.6609
  181SLPC   C2520715   0.195   4.812  10.080  0.6694 -0.4000  0.3934
  181SLPC   H5R20716   0.229   4.913  10.111  1.2449  0.0389 -1.5635
  181SLPC   H5S20717   0.088   4.802  10.052  0.8300  0.0620 -0.4131
  181SLPC   C2620718   0.274   4.768   9.958 -0.0930  0.1292  0.6790
  181SLPC   H6R20719   0.238   4.667   9.930 -2.9473  0.4035  3.0600
  181SLPC   H6S20720   0.379   4.749   9.991 -0.8601  0.5066  3.5259
  181SLPC   C2720721   0.260   4.854   9.832  0.7623 -0.3474 -0.1545
  181SLPC   H7R20722   0.150   4.871   9.830  0.6726 -0.7942  0.5652
  181SLPC   H7S20723   0.286   4.796   9.742  0.3853  0.3588 -0.7230
  181SLPC   C2820724   0.337   4.986   9.830  0.1550 -0.3016  0.3963
  181SLPC   H8R20725   0.445   4.966   9.818 -0.4621 -2.2319 -2.4610
  181SLPC   H8S20726   0.328   5.034   9.930  1.9703  0.6937  0.1091
  181SLPC   C2920727   0.293   5.078   9.706  0.6699  0.5805  0.3683
  181SLPC   H9R20728   0.190   5.117   9.704  0.5932  0.3220 -1.0292
  181SLPC  C21020729   0.377   5.115   9.606 -0.0018 -0.0512  0.4114
  181SLPC  H10R20730   0.342   5.175   9.521  0.6926  1.7653  1.3626
  181SLPC  C21120731   0.521   5.066   9.594  0.7055  0.9280 -0.7110
  181SLPC  H11R20732   0.541   4.973   9.650 -1.6685  0.9644  0.2819
  181SLPC  H11S20733   0.601   5.126   9.642  2.1021 -1.2271 -0.2792
  181SLPC  C21220734   0.554   5.048   9.447  0.1127 -0.0268 -0.5060
  181SLPC  H12R20735   0.534   4.947   9.409  0.8762 -1.1553  1.9927
  181SLPC  C21320736   0.607   5.142   9.367 -0.1176 -0.2777  0.1002
  181SLPC  H13R20737   0.627   5.113   9.263  0.5868 -0.7125  0.3528
  181SLPC  C21420738   0.631   5.277   9.414 -0.4986 -0.3152 -0.2891
  181SLPC  H14R20739   0.740   5.296   9.412 -0.2242 -2.0239 -2.3053
  181SLPC  H14S20740   0.598   5.302   9.518 -1.3314  1.3602 -0.9358
  181SLPC  C21520741   0.558   5.391   9.326  1.3262 -0.6593  0.2198
  181SLPC  H15R20742   0.588   5.365   9.222  1.4484 -0.4888  0.2127
  181SLPC  H15S20743   0.602   5.491   9.347 -0.5243 -0.3026  2.6507
  181SLPC  C21620744   0.402   5.382   9.338 -0.0006  0.3447  0.5644
  181SLPC  H16R20745   0.383   5.378   9.447  0.0837 -0.1740  0.5615
  181SLPC  H16S20746   0.362   5.286   9.300  0.6354 -0.4716  1.9075
  181SLPC  C21720747   0.348   5.479   9.238  0.3661 -0.3259 -0.7504
  181SLPC  H17R20748   0.384   5.582   9.260  1.7664 -0.8356 -0.5958
  181SLPC  H17S20749   0.240   5.493   9.258  0.7077  0.9389  0.3523
  181SLPC  C21820750   0.348   5.433   9.098  0.2306 -0.1307 -0.4786
  181SLPC  H18R20751   0.283   5.344   9.084  1.0396 -0.5247 -1.8553
  181SLPC  H18S20752   0.449   5.416   9.056  0.2569  1.0406 -0.9179
  181SLPC  H18T20753   0.301   5.512   9.035 -2.9138 -1.2430  0.3564
  181SLPC   C3320754   0.766   4.813  10.147  0.9446  0.3571  0.5543
  181SLPC   H3X20755   0.694   4.757  10.083 -0.4027  0.4046  1.9994
  181SLPC   H3Y20756   0.823   4.743  10.212  0.7880 -0.7422 -0.4782
  181SLPC   C3420757   0.855   4.896  10.057 -0.3822  0.0432 -0.4563
  181SLPC   H4X20758   0.935   4.838  10.006 -0.8703 -0.3032 -0.8284
  181SLPC   H4Y20759   0.915   4.957  10.127  1.2303 -0.5149 -1.3233
  181SLPC   C3520760   0.780   4.993   9.971  0.6984 -0.0449  0.3503
  181SLPC   H5X20761   0.740   5.080  10.027 -0.8435 -1.3225  1.2653
  181SLPC   H5Y20762   0.685   4.941   9.946  1.2146 -0.8663  0.0568
  181SLPC   C3620763   0.854   5.047   9.851 -0.0691 -0.0277  0.7537
  181SLPC   H6X20764   0.954   5.088   9.878  1.2024 -1.7120 -1.2315
  181SLPC   H6Y20765   0.802   5.130   9.798  0.1609 -0.5185 -0.2630
  181SLPC   C3720766   0.872   4.930   9.746 -0.2235 -1.0042 -0.1999
  181SLPC   H7X20767   0.781   4.868   9.737  0.0240 -1.2687 -0.9417
  181SLPC   H7Y20768   0.946   4.859   9.790 -2.2938 -0.5129  4.3595
  181SLPC   C3820769   0.907   4.975   9.603  0.1089 -0.2990  0.1727
  181SLPC   H8X20770   1.008   5.018   9.619 -0.2890  0.0085  1.9710
  181SLPC   H8Y20771   0.828   5.049   9.579 -1.1182 -1.7083 -0.2008
  181SLPC   C3920772   0.913   4.858   9.502  0.1617  0.1004  0.1039
  181SLPC   H9X20773   0.821   4.810   9.464  0.2162 -0.1980  0.3471
  181SLPC   H9Y20774   0.979   4.776   9.538  0.0836  0.8090  1.9084
  181SLPC  C31020775   0.985   4.896   9.371  0.2452 -0.3712 -0.4342
  181SLPC  H10X20776   1.065   4.965   9.405  0.3167 -1.1104  0.9456
  181SLPC  H10Y20777   0.925   4.939   9.288 -0.8824 -1.6958 -0.3224
  181SLPC  C31120778   1.062   4.772   9.318  0.1073 -0.5331 -0.4891
  181SLPC  H11X20779   1.008   4.680   9.347  0.0361 -0.3415 -0.0115
  181SLPC  H11Y20780   1.164   4.778   9.362  0.4592  0.0252 -1.3564
  181SLPC  C31220781   1.078   4.766   9.164  0.7148  0.8947 -0.3826
  181SLPC  H12X20782   1.136   4.673   9.146 -2.0496 -1.1374  0.8651
  181SLPC  H12Y20783   1.142   4.849   9.125  1.2087 -0.3491 -2.3295
  181SLPC  C31320784   0.945   4.757   9.090  0.5995 -0.0424 -0.0311
  181SLPC  H13X20785   0.892   4.854   9.098  1.3466  0.2125  2.0780
  181SLPC  H13Y20786   0.879   4.684   9.143  0.4867  0.0836  0.0016
  181SLPC  C31420787   0.948   4.712   8.944 -0.8692  0.0604  0.3871
  181SLPC  H14X20788   0.854   4.664   8.908  0.2131 -2.1449  0.4698
  181SLPC  H14Y20789   1.020   4.631   8.921 -1.1000 -0.2909  0.8816
  181SLPC  C31520790   0.986   4.824   8.843  0.1020 -0.3532  0.2119
  181SLPC  H15X20791   1.080   4.882   8.857 -0.4616  0.8813 -0.9679
  181SLPC  H15Y20792   0.895   4.888   8.848 -1.2066 -2.1231 -0.2679
  181SLPC  C31620793   0.998   4.779   8.693  0.7723  0.6928 -0.5269
  181SLPC  H16X20794   1.073   4.698   8.682  0.2006  0.0322  0.2747
  181SLPC  H16Y20795   1.049   4.859   8.637 -0.2131  1.5937 -0.1495
  181SLPC  C31720796   0.865   4.739   8.627  0.3997  0.7282  0.1991
  181SLPC  H17X20797   0.869   4.794   8.531 -0.7595 -0.5696 -0.6095
  181SLPC  H17Y20798   0.780   4.790   8.677 -1.8231  0.6024 -3.2982
  181SLPC  C31820799   0.845   4.584   8.616 -0.0874  0.2281 -0.2232
  181SLPC  H18X20800   0.738   4.555   8.606  0.1895 -0.8837 -0.0910
  181SLPC  H18Y20801   0.880   4.532   8.708  3.3011 -2.3432 -2.8482
  181SLPC  H18Z20802   0.906   4.527   8.543 -2.2800  0.7038 -2.5012
  182SLPC     N20803   5.120   5.560  11.374 -0.3964 -0.3334  0.3637
  182SLPC   C1320804   5.266   5.610  11.383 -0.0677 -0.1616 -0.7669
  182SLPC  H13A20805   5.308   5.617  11.284  0.3784  3.4094 -0.3593
  182SLPC  H13B20806   5.262   5.714  11.409  1.1391 -0.6174  1.3390
  182SLPC  H13C20807   5.328   5.556  11.453  0.6997  0.8973 -0.6169
  182SLPC   C1420808   5.057   5.555  11.514  0.3372  0.2547 -0.5571
  182SLPC  H14A20809   5.058   5.653  11.559  1.1529  0.6649 -1.4499
  182SLPC  H14B20810   4.953   5.525  11.513 -0.1623  1.8412  1.1403
  182SLPC  H14C20811   5.113   5.493  11.582 -0.6461  2.6231  2.4972
  182SLPC   C1520812   5.131   5.419  11.324  0.9436  0.1709  0.1253
  182SLPC  H15A20813   5.150   5.423  11.218  1.6878 -1.3444  0.2002
  182SLPC  H15B20814   5.215   5.371  11.371  0.7373 -0.3931 -0.0798
  182SLPC  H15C20815   5.043   5.362  11.351  1.3956  0.5025  2.4571
  182SLPC   C1220816   5.040   5.645  11.278  0.0523 -0.8724  0.0003
  182SLPC  H12A20817   5.051   5.746  11.315 -0.8358 -0.5940 -0.4826
  182SLPC  H12B20818   4.935   5.620  11.285 -0.0244 -0.7639 -0.6616
  182SLPC   C1120819   5.072   5.631  11.127 -0.8872  0.1414  0.3494
  182SLPC  H11A20820   4.998   5.700  11.080  0.1728  0.9324 -0.1938
  182SLPC  H11B20821   5.053   5.534  11.076  0.4119  0.2070 -0.2896
  182SLPC     P20822   5.261   5.820  11.082 -0.2627  0.1404 -0.4536
  182SLPC   O1320823   5.188   5.908  11.169  0.1074 -0.0082  0.6043
  182SLPC   O1420824   5.410   5.825  11.090 -0.2028  0.7054 -0.5233
  182SLPC   O1220825   5.209   5.667  11.101 -0.4518  0.0650 -0.0859
  182SLPC   O1120826   5.220   5.855  10.928  0.2442 -0.1774 -0.0722
  182SLPC    C120827   5.321   5.869  10.830  0.4736  0.4432  0.0750
  182SLPC    HA20828   5.375   5.965  10.845  2.0956 -0.7479  2.2161
  182SLPC    HB20829   5.399   5.790  10.834 -0.6456 -0.6618  0.3219
  182SLPC    C220830   5.261   5.870  10.682 -0.4196  0.3332  0.0659
  182SLPC    HS20831   5.195   5.959  10.692 -2.0216 -0.9885  1.5372
  182SLPC   O2120832   5.188   5.747  10.659 -0.3350 -0.3277  0.2392
  182SLPC   C2120833   5.056   5.748  10.671 -0.5117 -0.5221  0.3918
  182SLPC   O2220834   4.992   5.847  10.695 -0.4200  0.2735 -0.5612
  182SLPC   C2220835   4.998   5.609  10.642 -0.1716  0.2391 -0.4215
  182SLPC   H2R20836   5.058   5.518  10.665  1.9823  1.8033  0.2785
  182SLPC   H2S20837   4.908   5.591  10.706  1.1891 -2.3966  0.8399
  182SLPC    C320838   5.375   5.899  10.578  0.3457  0.0479 -0.3357
  182SLPC    HX20839   5.460   5.832  10.601  0.0708  0.4344  1.9166
  182SLPC    HY20840   5.410   5.998  10.613  0.0534  0.3145 -0.7935
  182SLPC   O3120841   5.345   5.901  10.437 -0.6443  1.0508  0.1134
  182SLPC   C3120842   5.261   5.994  10.403 -0.2100 -1.2529  0.9565
  182SLPC   O3220843   5.220   6.078  10.476  0.3119  0.3165 -0.6918
  182SLPC   C3220844   5.212   5.976  10.266 -0.1832  0.3425  0.1461
  182SLPC   H2X20845   5.134   6.054  10.256  1.0315  1.6067  0.5100
  182SLPC   H2Y20846   5.163   5.876  10.270 -1.2239  0.7998 -0.9068
  182SLPC   C2320847   4.962   5.608  10.491 -0.1172  0.4046  0.2387
  182SLPC   H3R20848   4.904   5.700  10.468 -0.0014  0.4462  0.1127
  182SLPC   H3S20849   4.889   5.527  10.471 -1.9309  1.6619  1.6167
  182SLPC   C2420850   5.084   5.582  10.396  0.0753  0.7104  0.2461
  182SLPC   H4R20851   5.118   5.481  10.428 -1.3002  1.1334  3.2135
  182SLPC   H4S20852   5.171   5.648  10.412  1.8369 -1.2079 -1.2120
  182SLPC   C2520853   5.049   5.589  10.252  0.1324  0.3783  0.9111
  182SLPC   H5R20854   5.027   5.694  10.222  1.0029  1.7056  4.6157
  182SLPC   H5S20855   4.951   5.543  10.226  0.0434 -0.6804  3.0135
  182SLPC   C2620856   5.160   5.535  10.163  0.1803 -0.1481  0.1773
  182SLPC   H6R20857   5.180   5.427  10.177 -0.5856 -0.2705  0.3884
  182SLPC   H6S20858   5.257   5.582  10.189  1.3828 -2.6091  0.2314
  182SLPC   C2720859   5.148   5.563  10.010  0.2588 -0.3191  0.3015
  182SLPC   H7R20860   5.191   5.663   9.988 -2.0856  0.5603 -0.5236
  182SLPC   H7S20861   5.041   5.584   9.988  0.1871 -2.5721 -1.7178
  182SLPC   C2820862   5.202   5.450   9.921  0.4348  0.0298  0.0117
  182SLPC   H8R20863   5.130   5.367   9.934  1.4869 -0.3915  3.7760
  182SLPC   H8S20864   5.299   5.417   9.964  1.2845  0.2304 -1.7324
  182SLPC   C2920865   5.213   5.497   9.780 -0.0907 -0.2680  0.8556
  182SLPC   H9R20866   5.169   5.597   9.762  0.6127  0.2237  1.7859
  182SLPC  C21020867   5.289   5.440   9.681  0.0466  0.0913  0.0034
  182SLPC  H10R20868   5.285   5.493   9.584  0.7080  0.2188  0.0400
  182SLPC  C21120869   5.364   5.311   9.679 -0.0507  0.1946  0.3090
  182SLPC  H11R20870   5.291   5.228   9.673 -2.0604  2.0180 -1.2942
  182SLPC  H11S20871   5.411   5.310   9.780 -0.5264  0.6560  0.5388
  182SLPC  C21220872   5.462   5.322   9.563 -0.5249  0.7733 -0.9466
  182SLPC  H12R20873   5.545   5.391   9.585 -1.9732  1.3878  3.1882
  182SLPC  C21320874   5.452   5.267   9.441  0.0338 -0.2291  0.1722
  182SLPC  H13R20875   5.529   5.274   9.362  1.3205  0.8099  1.4894
  182SLPC  C21420876   5.335   5.197   9.381 -0.0897 -0.0776 -0.4733
  182SLPC  H14R20877   5.249   5.267   9.383  2.2269  2.8430  1.1461
  182SLPC  H14S20878   5.318   5.105   9.441  1.3803  0.8553  1.4352
  182SLPC  C21520879   5.363   5.148   9.238 -0.3626 -0.1678  0.3620
  182SLPC  H15R20880   5.451   5.082   9.226 -0.5697 -0.3400 -0.2503
  182SLPC  H15S20881   5.372   5.243   9.181  0.0938 -1.2808 -1.4654
  182SLPC  C21620882   5.237   5.073   9.182 -0.2518 -0.5618 -0.1610
  182SLPC  H16R20883   5.143   5.132   9.178 -0.9457 -1.5769  0.7016
  182SLPC  H16S20884   5.219   4.993   9.257  1.1388  0.6350  1.4971
  182SLPC  C21720885   5.264   5.008   9.042 -0.8604  0.1666 -0.1215
  182SLPC  H17R20886   5.175   4.957   9.000  0.9120 -1.8177 -1.5742
  182SLPC  H17S20887   5.333   4.924   9.063 -0.8866 -0.0435 -0.8596
  182SLPC  C21820888   5.326   5.103   8.936  0.6244  0.0078 -0.7065
  182SLPC  H18R20889   5.262   5.195   8.932 -0.2766 -0.6692 -2.5299
  182SLPC  H18S20890   5.323   5.060   8.833  1.1838  1.9419 -1.5559
  182SLPC  H18T20891   5.433   5.127   8.953  0.8004 -0.4080 -1.2158
  182SLPC   C3320892   5.319   5.982  10.155 -0.0292  0.0575 -1.0516
  182SLPC   H3X20893   5.406   5.916  10.176 -0.4764  0.1675  1.2901
  182SLPC   H3Y20894   5.364   6.083  10.167  0.8938 -0.4395 -0.2923
  182SLPC   C3420895   5.269   5.965  10.016  0.2685  0.5595  0.1194
  182SLPC   H4X20896   5.181   6.031  10.002  0.5246  0.9349  0.2750
  182SLPC   H4Y20897   5.230   5.864   9.992 -0.3046  0.9399 -0.5529
  182SLPC   C3520898   5.378   5.995   9.907 -0.1188  0.3077  0.0520
  182SLPC   H5X20899   5.454   5.916   9.929 -1.3550 -1.2907 -1.2607
  182SLPC   H5Y20900   5.424   6.093   9.931 -1.4415  1.6978 -2.8252
  182SLPC   C3620901   5.326   5.980   9.762 -0.7476 -0.3804 -0.3319
  182SLPC   H6X20902   5.234   6.042   9.757 -1.1194 -0.8606  0.4433
  182SLPC   H6Y20903   5.303   5.874   9.735 -1.0118  0.4129 -3.4106
  182SLPC   C3720904   5.418   6.034   9.652  0.0580  0.5201  0.2229
  182SLPC   H7X20905   5.519   5.990   9.661 -0.7603 -1.2992  0.7934
  182SLPC   H7Y20906   5.418   6.143   9.670  3.9739  0.1221  3.0089
  182SLPC   C3820907   5.362   6.013   9.506  0.2153 -0.8508  0.5474
  182SLPC   H8X20908   5.257   6.051   9.505 -0.0298 -1.5273 -1.2036
  182SLPC   H8Y20909   5.365   5.905   9.482  0.3760 -0.9561  1.0424
  182SLPC   C3920910   5.438   6.084   9.395 -0.9199 -0.4228  0.0276
  182SLPC   H9X20911   5.543   6.109   9.423 -1.1544  1.7623 -0.9573
  182SLPC   H9Y20912   5.382   6.180   9.386  1.6433  1.0128 -1.4044
  182SLPC  C31020913   5.436   6.019   9.258  0.2446  0.3779 -0.5865
  182SLPC  H10X20914   5.334   6.021   9.213 -0.0996 -0.9687  0.1127
  182SLPC  H10Y20915   5.465   5.913   9.270 -2.5250 -0.3942 -0.2522
  182SLPC  C31120916   5.539   6.078   9.161 -0.6956  0.2872 -0.5037
  182SLPC  H11X20917   5.638   6.057   9.208 -0.3122  1.2585 -0.8498
  182SLPC  H11Y20918   5.526   6.188   9.165  1.4528  0.5992 -1.0957
  182SLPC  C31220919   5.543   6.016   9.023  0.2464 -0.1755  0.3361
  182SLPC  H12X20920   5.446   6.004   8.970  1.8613 -2.4402 -2.2708
  182SLPC  H12Y20921   5.578   5.911   9.036 -1.0491 -0.7209 -0.4946
  182SLPC  C31320922   5.633   6.098   8.933 -0.2791 -0.4679  0.1778
  182SLPC  H13X20923   5.626   6.205   8.962  0.8232 -0.6532  1.1505
  182SLPC  H13Y20924   5.596   6.087   8.828 -1.7029  3.9528  0.1100
  182SLPC  C31420925   5.769   6.040   8.931 -0.8176  0.5514  0.1860
  182SLPC  H14X20926   5.771   5.938   8.886 -0.6079  0.3141  0.7265
  182SLPC  H14Y20927   5.807   6.047   9.035  2.8837 -0.1587 -1.0550
  182SLPC  C31520928   5.863   6.108   8.831  0.0179  0.5566 -0.0379
  182SLPC  H15X20929   5.813   6.108   8.731  0.4448 -0.9594 -0.2606
  182SLPC  H15Y20930   5.948   6.037   8.838 -2.3766 -2.6575 -2.3634
  182SLPC  C31620931   5.905   6.261   8.852  0.2694  0.6743  0.2451
  182SLPC  H16X20932   5.902   6.293   8.958 -1.3901  1.1861  0.0519
  182SLPC  H16Y20933   5.822   6.321   8.809 -0.6282  0.3991  1.5585
  182SLPC  C31720934   6.042   6.298   8.789 -0.0797  0.5710  0.4156
  182SLPC  H17X20935   6.059   6.408   8.799  0.0378  0.5744  0.1810
  182SLPC  H17Y20936   6.037   6.290   8.678  0.3872 -2.3006  0.5730
  182SLPC  C31820937   6.158   6.224   8.870 -0.4999  0.5051 -0.1466
  182SLPC  H18X20938   6.125   6.228   8.976 -0.7512  0.5134 -0.2259
  182SLPC  H18Y20939   6.253   6.281   8.856 -1.7076  2.2674 -1.4557
  182SLPC  H18Z20940   6.155   6.118   8.838  0.4990  0.6643 -0.8184
  183SLPC     N20941   0.030   6.486  11.124 -0.1847  0.2703  0.0909
  183SLPC   C1320942   0.173   6.457  11.157 -0.5390  0.2693  0.3377
  183SLPC  H13A20943   0.236   6.535  11.116 -0.9959  0.1785 -0.5441
  183SLPC  H13B20944   0.195   6.455  11.263 -2.7097 -0.3410  0.8024
  183SLPC  H13C20945   0.200   6.360  11.116 -1.1564  1.0306 -1.9067
  183SLPC   C1420946  -0.005   6.620  11.187  0.3475  0.1367  0.0351
  183SLPC  H14A20947  -0.105   6.645  11.157 -0.2897 -0.5808  1.5304
  183SLPC  H14B20948  -0.010   6.624  11.295 -1.0698  1.2750 -0.0721
  183SLPC  H14C20949   0.069   6.692  11.155  0.6807  0.6012  1.8059
  183SLPC   C1520950  -0.055   6.386  11.184  0.3727 -0.2079 -0.0928
  183SLPC  H15A20951  -0.014   6.290  11.158 -0.5434 -0.6949  0.2104
  183SLPC  H15B20952  -0.074   6.401  11.289 -2.2429 -1.0049 -0.4016
  183SLPC  H15C20953  -0.156   6.381  11.144  0.6706 -0.0283 -0.8786
  183SLPC   C1220954   0.006   6.491  10.975  0.0945  0.0035  0.3876
  183SLPC  H12A20955  -0.097   6.520  10.966 -0.9292 -1.8672  5.1139
  183SLPC  H12B20956   0.012   6.392  10.932  0.5110  0.5509 -0.8769
  183SLPC   C1120957   0.105   6.587  10.889 -0.1546  0.5306 -0.1770
  183SLPC  H11A20958   0.081   6.691  10.920 -1.6061  1.4593 -4.0955
  183SLPC  H11B20959   0.069   6.577  10.784  2.1629  0.8234 -1.0413
  183SLPC     P20960   0.312   6.442  10.827  0.1411  0.3597  0.0060
  183SLPC   O1320961   0.455   6.449  10.863  0.2190 -0.5069 -0.0095
  183SLPC   O1420962   0.251   6.320  10.869 -0.0809  0.5616 -0.3305
  183SLPC   O1220963   0.246   6.571  10.902 -0.3403 -0.4751 -0.3443
  183SLPC   O1120964   0.281   6.470  10.672 -0.7580 -0.4061  0.6588
  183SLPC    C120965   0.282   6.599  10.606  0.5571  0.2400  1.0363
  183SLPC    HA20966   0.189   6.618  10.549  1.0081  2.6698  1.0441
  183SLPC    HB20967   0.306   6.680  10.678  1.8299 -0.9363  1.9615
  183SLPC    C220968   0.389   6.590  10.492  0.0366  0.3016  0.6423
  183SLPC    HS20969   0.383   6.688  10.440  1.3393 -0.8611 -1.7740
  183SLPC   O2120970   0.365   6.478  10.402  0.1127 -0.4269 -0.4116
  183SLPC   C2120971   0.274   6.495  10.310  0.3623 -0.4592  0.6173
  183SLPC   O2220972   0.208   6.596  10.295  0.2636  0.5293  0.3175
  183SLPC   C2220973   0.253   6.354  10.240  0.3771 -0.1632  0.1600
  183SLPC   H2R20974   0.353   6.309  10.221  0.9091  0.2207  1.9678
  183SLPC   H2S20975   0.209   6.288  10.317  0.6771  2.8647  3.0815
  183SLPC    C320976   0.528   6.575  10.553  0.2431  0.2527 -0.1862
  183SLPC    HX20977   0.526   6.467  10.579  2.8546  1.0303  3.5094
  183SLPC    HY20978   0.538   6.647  10.637  0.1244  1.1601 -0.9349
  183SLPC   O3120979   0.639   6.597  10.465 -0.2944  0.1854  0.1518
  183SLPC   C3120980   0.753   6.546  10.502 -0.0603  0.0158  0.3798
  183SLPC   O3220981   0.772   6.471  10.598  0.1605  0.1921 -0.3528
  183SLPC   C3220982   0.862   6.603  10.409  0.3816 -0.4942 -0.0751
  183SLPC   H2X20983   0.944   6.633  10.477 -0.7275  1.3600  0.4831
  183SLPC   H2Y20984   0.829   6.699  10.363 -1.1543 -1.5117 -1.1648
  183SLPC   C2320985   0.161   6.369  10.121  0.2072  0.0529  0.1076
  183SLPC   H3R20986   0.218   6.419  10.040 -0.6094  0.2296 -0.3635
  183SLPC   H3S20987   0.068   6.424  10.145 -0.1881 -1.0869  1.2707
  183SLPC   C2420988   0.112   6.229  10.064  0.4357  0.6731  0.3362
  183SLPC   H4R20989   0.094   6.150  10.140 -0.4689 -0.4771 -1.0448
  183SLPC   H4S20990   0.199   6.185  10.008 -0.1636  1.7805 -1.5112
  183SLPC   C2520991  -0.003   6.217   9.960 -1.2687 -0.0415  0.3208
  183SLPC   H5R20992  -0.105   6.236   9.998 -1.9254 -2.5446 -0.1002
  183SLPC   H5S20993  -0.008   6.112   9.924  1.0219 -0.9336  2.4494
  183SLPC   C2620994   0.031   6.304   9.840  0.4096  0.2439  0.1120
  183SLPC   H6R20995   0.135   6.291   9.804  0.1883  0.4378 -0.6260
  183SLPC   H6S20996   0.022   6.414   9.857 -0.8952  0.2299 -0.3848
  183SLPC   C2720997  -0.076   6.296   9.733  0.6610  0.2773 -0.2676
  183SLPC   H7R20998  -0.178   6.307   9.777 -0.0821 -0.8558 -1.6383
  183SLPC   H7S20999  -0.055   6.195   9.692  2.1987 -0.7473  2.9065
  183SLPC   C2821000  -0.060   6.385   9.603  0.6003 -0.2558 -0.2271
  183SLPC   H8R21001  -0.049   6.491   9.634  0.2695 -0.2121 -0.2573
  183SLPC   H8S21002  -0.153   6.389   9.542 -1.2284 -1.1283  2.4296
  183SLPC   C2921003   0.053   6.334   9.517  0.5502  0.1188  0.2263
  183SLPC   H9R21004   0.053   6.227   9.491  0.4304  0.4092 -0.9950
  183SLPC  C21021005   0.159   6.398   9.469 -0.1842 -0.0014  0.8534
  183SLPC  H10R21006   0.233   6.365   9.395  0.2564  1.2704  0.7084
  183SLPC  C21121007   0.176   6.541   9.505 -0.6433  0.4504 -0.2822
  183SLPC  H11R21008   0.165   6.551   9.615 -0.5975 -0.1062 -0.2242
  183SLPC  H11S21009   0.096   6.603   9.459 -1.1070  0.5686  0.6740
  183SLPC  C21221010   0.313   6.590   9.469 -0.4522  0.0822 -0.8318
  183SLPC  H12R21011   0.392   6.564   9.541 -0.0952 -0.0873 -1.2821
  183SLPC  C21321012   0.349   6.647   9.353  0.2984  0.3731  0.4323
  183SLPC  H13R21013   0.453   6.676   9.333  0.3260  0.1290  0.2147
  183SLPC  C21421014   0.251   6.689   9.244 -0.4526 -0.0899  0.7943
  183SLPC  H14R21015   0.157   6.704   9.301  0.7671  1.8627  2.3560
  183SLPC  H14S21016   0.236   6.607   9.171 -0.2570  0.6016 -0.0249
  183SLPC  C21521017   0.293   6.818   9.179 -0.1622  0.3573 -0.5961
  183SLPC  H15R21018   0.319   6.902   9.247 -0.8664 -0.9265  1.3001
  183SLPC  H15S21019   0.197   6.843   9.129 -1.5544  0.8458  2.2045
  183SLPC  C21621020   0.406   6.798   9.069 -0.0618 -0.1476 -0.5186
  183SLPC  H16R21021   0.495   6.745   9.109 -2.0335 -1.8300  1.8703
  183SLPC  H16S21022   0.430   6.900   9.033  1.9344  0.4003  2.2429
  183SLPC  C21721023   0.357   6.720   8.946  0.2851 -0.0544 -0.0626
  183SLPC  H17R21024   0.256   6.752   8.915 -0.1173  0.1824  1.4245
  183SLPC  H17S21025   0.337   6.616   8.978  2.2049 -0.3282  0.3303
  183SLPC  C21821026   0.453   6.711   8.826  0.2055  0.1618  0.0951
  183SLPC  H18R21027   0.413   6.627   8.764 -0.4977  1.1638 -0.8359
  183SLPC  H18S21028   0.545   6.663   8.864 -0.6160  0.9915  3.2513
  183SLPC  H18T21029   0.471   6.800   8.763 -5.1782 -0.2749 -2.3798
  183SLPC   C3321030   0.931   6.495  10.320  0.1172  0.1084 -0.3298
  183SLPC   H3X21031   1.019   6.451  10.372  0.4027  1.0445  0.0073
  183SLPC   H3Y21032   0.974   6.549  10.233 -2.0068  1.9853 -0.2681
  183SLPC   C3421033   0.835   6.374  10.282  0.1396  0.5563 -0.4588
  183SLPC   H4X21034   0.786   6.308  10.358 -1.1361 -0.4938 -2.1606
  183SLPC   H4Y21035   0.902   6.312  10.219 -0.5891 -0.4341 -0.2804
  183SLPC   C3521036   0.727   6.412  10.183  0.0604  0.3073  0.0031
  183SLPC   H5X21037   0.777   6.482  10.113  0.9744  1.3289  1.6268
  183SLPC   H5Y21038   0.654   6.470  10.243  1.4323  1.3037  0.7492
  183SLPC   C3621039   0.659   6.287  10.124  0.1329  0.0293 -0.1744
  183SLPC   H6X21040   0.606   6.227  10.201  0.0882 -0.6931 -0.7750
  183SLPC   H6Y21041   0.742   6.228  10.081 -0.2600 -0.0380 -0.8409
  183SLPC   C3721042   0.548   6.322  10.007 -0.6766 -0.1870  0.1102
  183SLPC   H7X21043   0.490   6.408  10.047 -0.5294 -0.9652  2.0466
  183SLPC   H7Y21044   0.484   6.233   9.988  0.3004 -0.6771 -0.9564
  183SLPC   C3821045   0.620   6.359   9.883  0.1232 -0.0208 -0.0668
  183SLPC   H8X21046   0.669   6.267   9.846 -1.5935 -0.8524 -0.2818
  183SLPC   H8Y21047   0.699   6.438   9.892  1.0409 -0.9721  0.3417
  183SLPC   C3921048   0.543   6.397   9.750 -0.0073  0.6262  0.0414
  183SLPC   H9X21049   0.492   6.494   9.765 -1.1764 -0.3890  2.9527
  183SLPC   H9Y21050   0.459   6.326   9.738  0.1585  0.3316  0.5838
  183SLPC  C31021051   0.637   6.404   9.628  0.0573  0.5970  0.3924
  183SLPC  H10X21052   0.580   6.420   9.534  0.5589  0.3331  0.0411
  183SLPC  H10Y21053   0.706   6.318   9.617  3.3961  3.1394  0.2955
  183SLPC  C31121054   0.731   6.528   9.642  0.1762 -0.7123  0.3823
  183SLPC  H11X21055   0.781   6.535   9.740 -2.7359  0.2393  1.8423
  183SLPC  H11Y21056   0.668   6.619   9.634 -0.2270 -0.8388  1.9845
  183SLPC  C31221057   0.834   6.539   9.528 -0.9233 -0.1282  0.0315
  183SLPC  H12X21058   0.893   6.445   9.517  1.3701  1.0099  2.0725
  183SLPC  H12Y21059   0.912   6.612   9.559 -1.3159 -0.3465  1.6117
  183SLPC  C31321060   0.776   6.577   9.388 -0.1186 -0.1450  0.2920
  183SLPC  H13X21061   0.717   6.671   9.391 -2.0339 -1.2968 -0.5622
  183SLPC  H13Y21062   0.717   6.487   9.360  0.2291 -0.3808  0.3165
  183SLPC  C31421063   0.888   6.596   9.282 -0.2242 -1.0611  0.7839
  183SLPC  H14X21064   0.952   6.506   9.293  2.5190  0.6012 -0.8530
  183SLPC  H14Y21065   0.955   6.681   9.308 -0.4172 -0.6724  0.0050
  183SLPC  C31521066   0.848   6.603   9.135 -0.0294 -0.1666  0.2981
  183SLPC  H15X21067   0.808   6.703   9.108 -1.1008 -1.3853 -2.8573
  183SLPC  H15Y21068   0.775   6.525   9.105 -1.0703  0.2198  1.7393
  183SLPC  C31621069   0.964   6.591   9.039 -0.1144 -0.3331 -0.2247
  183SLPC  H16X21070   1.029   6.504   9.060  1.9695  1.1326 -0.4200
  183SLPC  H16Y21071   1.034   6.676   9.055  1.8063 -1.8026 -0.6921
  183SLPC  C31721072   0.924   6.593   8.890  0.0990  0.2601  0.3651
  183SLPC  H17X21073   1.019   6.601   8.832  0.0729  0.0838  0.2990
  183SLPC  H17Y21074   0.853   6.672   8.858 -0.3855 -0.4941 -0.4164
  183SLPC  C31821075   0.863   6.458   8.838 -0.3836  0.5074 -0.1983
  183SLPC  H18X21076   0.875   6.444   8.729  0.2077  0.7424 -0.1664
  183SLPC  H18Y21077   0.758   6.446   8.871  0.3885 -1.2921  1.7280
  183SLPC  H18Z21078   0.933   6.379   8.874  0.1591  1.6816  1.3792
  184SLPC     N21079   2.700   4.207  11.053  0.3189 -0.3364 -0.1687
  184SLPC   C1321080   2.710   4.350  11.083  0.2638  0.1319  1.3100
  184SLPC  H13A21081   2.715   4.372  11.189  1.3287 -3.0067  1.9818
  184SLPC  H13B21082   2.785   4.407  11.031 -0.1506  1.3367  2.0232
  184SLPC  H13C21083   2.616   4.391  11.049  0.8786  1.1700  0.8384
  184SLPC   C1421084   2.590   4.142  11.126  0.4163 -0.4076 -1.2049
  184SLPC  H14A21085   2.612   4.158  11.231  0.0290  1.3374 -1.3679
  184SLPC  H14B21086   2.496   4.195  11.115  0.8698  1.1667  1.8224
  184SLPC  H14C21087   2.574   4.036  11.119  0.4521 -0.3895 -1.5463
  184SLPC   C1521088   2.832   4.137  11.078 -0.3583 -0.7371 -0.6033
  184SLPC  H15A21089   2.846   4.124  11.184  4.2738 -1.1569 -1.1821
  184SLPC  H15B21090   2.839   4.036  11.041  3.4309 -0.8516  0.3031
  184SLPC  H15C21091   2.914   4.198  11.045 -0.1735  0.6208  2.2224
  184SLPC   C1221092   2.667   4.175  10.910  0.6971 -0.7756 -0.0489
  184SLPC  H12A21093   2.666   4.067  10.906 -1.0800 -0.7841  0.1684
  184SLPC  H12B21094   2.745   4.210  10.844 -0.6376  0.8665 -0.7788
  184SLPC   C1121095   2.531   4.235  10.850 -0.2315  0.2631  0.2297
  184SLPC  H11A21096   2.444   4.226  10.917  0.1439  1.3172  0.8688
  184SLPC  H11B21097   2.519   4.167  10.762 -0.6134 -0.0651  0.5399
  184SLPC     P21098   2.639   4.395  10.681 -0.0439 -0.3768  0.0650
  184SLPC   O1321099   2.617   4.539  10.648  0.0199 -0.1591 -0.4092
  184SLPC   O1421100   2.777   4.364  10.716 -0.1937  0.2041  0.2886
  184SLPC   O1221101   2.553   4.372  10.810 -0.7738  0.0769 -0.2180
  184SLPC   O1121102   2.594   4.289  10.569 -0.2693  0.2281 -0.0075
  184SLPC    C121103   2.476   4.309  10.493  0.3544 -0.1633  0.0417
  184SLPC    HA21104   2.389   4.294  10.561 -0.9593  0.1699 -1.5095
  184SLPC    HB21105   2.473   4.407  10.441  1.1324  0.1855  0.6542
  184SLPC    C221106   2.467   4.202  10.385  0.3064  0.5043 -0.0355
  184SLPC    HS21107   2.457   4.109  10.446  1.7232  1.1130  1.1570
  184SLPC   O2121108   2.588   4.217  10.307 -0.9165 -0.3113  0.4277
  184SLPC   C2121109   2.666   4.112  10.310 -0.1282  0.4528  0.6572
  184SLPC   O2221110   2.641   4.010  10.369 -0.2299 -0.4305  0.1633
  184SLPC   C2221111   2.800   4.145  10.225 -0.4583  0.6561 -0.6486
  184SLPC   H2R21112   2.813   4.255  10.213 -0.4689  0.9759  1.8467
  184SLPC   H2S21113   2.883   4.115  10.292  0.0726  0.0031 -1.6057
  184SLPC    C321114   2.334   4.193  10.298 -0.6449 -0.6275 -0.4952
  184SLPC    HX21115   2.245   4.185  10.364  0.8890 -1.0321  1.5675
  184SLPC    HY21116   2.343   4.098  10.241 -0.4477 -0.3121 -0.9917
  184SLPC   O3121117   2.322   4.298  10.201  0.1562 -0.0987 -0.8215
  184SLPC   C3121118   2.273   4.407  10.246  0.3919 -0.9801  0.3309
  184SLPC   O3221119   2.205   4.418  10.345 -0.5334 -0.1300  0.1623
  184SLPC   C3221120   2.308   4.519  10.156 -0.1561  0.0317  1.0359
  184SLPC   H2X21121   2.398   4.570  10.196  0.6887 -0.7817  0.1724
  184SLPC   H2Y21122   2.224   4.591  10.149  0.0862  0.1530 -0.7716
  184SLPC   C2321123   2.809   4.069  10.098  0.0475  0.2519  0.1110
  184SLPC   H3R21124   2.808   3.960  10.121  1.9953  0.5741  1.8536
  184SLPC   H3S21125   2.912   4.089  10.064  0.1968  0.2620  0.5691
  184SLPC   C2421126   2.704   4.112   9.996  0.1674  0.0978  0.0276
  184SLPC   H4R21127   2.705   4.223   9.986  0.5734 -0.0483 -1.6882
  184SLPC   H4S21128   2.599   4.087  10.023  1.0179 -0.9684  2.4108
  184SLPC   C2521129   2.743   4.052   9.856  0.3499 -0.4145 -0.1456
  184SLPC   H5R21130   2.740   3.941   9.842  0.3671 -0.0765 -3.1506
  184SLPC   H5S21131   2.846   4.086   9.836  0.2038  1.5857  2.2558
  184SLPC   C2621132   2.654   4.107   9.744 -0.1727  0.0221 -0.4654
  184SLPC   H6R21133   2.677   4.214   9.721  0.3047  0.1921  0.7445
  184SLPC   H6S21134   2.552   4.116   9.786  0.7214  1.8787  1.4271
  184SLPC   C2721135   2.643   4.028   9.613  0.8138  0.4876 -0.7833
  184SLPC   H7R21136   2.616   3.927   9.648 -0.1003  1.3847  1.1510
  184SLPC   H7S21137   2.743   4.019   9.564  0.6388 -0.6469 -0.9209
  184SLPC   C2821138   2.543   4.092   9.521  1.0626 -0.7534 -0.2461
  184SLPC   H8R21139   2.455   4.112   9.586  1.1391  0.6863 -0.5665
  184SLPC   H8S21140   2.501   4.021   9.446 -1.7589  2.1463 -1.5673
  184SLPC   C2921141   2.612   4.218   9.462 -0.2991  0.1693  0.3942
  184SLPC   H9R21142   2.645   4.290   9.538  1.1075 -1.4385  1.3226
  184SLPC  C21021143   2.631   4.241   9.331 -0.7993  0.2130  0.5189
  184SLPC  H10R21144   2.698   4.326   9.311 -1.3510  0.4262 -0.4404
  184SLPC  C21121145   2.592   4.156   9.211 -0.8609 -0.0320 -0.1051
  184SLPC  H11R21146   2.548   4.214   9.127  0.6065 -0.4014 -1.1452
  184SLPC  H11S21147   2.514   4.088   9.252 -1.5119  0.9674  0.3088
  184SLPC  C21221148   2.706   4.067   9.163 -0.2097  0.8393  0.8556
  184SLPC  H12R21149   2.802   4.090   9.211  0.4022  0.5547 -0.2198
  184SLPC  C21321150   2.700   3.963   9.081 -0.2594  0.1402  0.1740
  184SLPC  H13R21151   2.793   3.916   9.045 -1.5602 -1.4293 -1.2268
  184SLPC  C21421152   2.568   3.908   9.033 -0.4720  0.1182  0.2147
  184SLPC  H14R21153   2.542   3.964   8.941  0.3173  1.4755  0.8008
  184SLPC  H14S21154   2.492   3.937   9.108 -0.3207 -1.3186  0.9473
  184SLPC  C21521155   2.569   3.757   9.019 -1.1592 -0.2198  0.0631
  184SLPC  H15R21156   2.580   3.716   9.122  2.5122  2.0081  0.6410
  184SLPC  H15S21157   2.659   3.726   8.962 -0.1028  2.4142  0.2561
  184SLPC  C21621158   2.439   3.690   8.958 -0.3068  0.4234 -0.0540
  184SLPC  H16R21159   2.346   3.723   9.009 -1.4973  0.1722 -2.0026
  184SLPC  H16S21160   2.446   3.579   8.956  4.4611  0.6497 -0.6443
  184SLPC  C21721161   2.422   3.737   8.813  0.9255  0.1214  0.3348
  184SLPC  H17R21162   2.521   3.714   8.769  1.9339  3.4057  0.7913
  184SLPC  H17S21163   2.405   3.844   8.792  1.1376 -0.0593 -0.7807
  184SLPC  C21821164   2.317   3.657   8.742  0.4242  0.3857 -0.1651
  184SLPC  H18R21165   2.226   3.720   8.747 -0.8169 -1.2969 -0.8013
  184SLPC  H18S21166   2.289   3.573   8.810 -1.1570 -0.9936 -2.4844
  184SLPC  H18T21167   2.345   3.635   8.637  0.1363 -0.3424 -0.0978
  184SLPC   C3321168   2.357   4.467  10.014  0.1078  0.7577  0.4249
  184SLPC   H3X21169   2.278   4.397   9.978  0.6775  0.8018 -0.9389
  184SLPC   H3Y21170   2.454   4.413  10.011 -0.2571  0.1187 -0.3963
  184SLPC   C3421171   2.382   4.579   9.911  0.0659 -0.0737  0.2213
  184SLPC   H4X21172   2.482   4.619   9.936  1.3050 -2.1576 -1.2348
  184SLPC   H4Y21173   2.308   4.661   9.924  1.8978  1.5561  0.5097
  184SLPC   C3521174   2.360   4.532   9.768 -0.2614  0.4698  0.2687
  184SLPC   H5X21175   2.254   4.501   9.760 -0.1037  0.2103 -0.9393
  184SLPC   H5Y21176   2.412   4.437   9.742 -0.3346  0.2416  0.9554
  184SLPC   C3621177   2.394   4.629   9.654 -0.8613  0.2574 -0.8965
  184SLPC   H6X21178   2.494   4.677   9.657 -1.7705  2.1726 -0.0717
  184SLPC   H6Y21179   2.334   4.723   9.656 -0.4821  0.5317 -2.2029
  184SLPC   C3721180   2.372   4.568   9.514  0.7349 -0.1295 -0.2930
  184SLPC   H7X21181   2.263   4.552   9.498  0.3737  1.6475  0.2446
  184SLPC   H7Y21182   2.421   4.468   9.521 -1.1864 -1.0772 -0.0300
  184SLPC   C3821183   2.429   4.643   9.400 -0.6051  0.5184 -0.2972
  184SLPC   H8X21184   2.533   4.680   9.416 -0.8319  1.2193 -0.4081
  184SLPC   H8Y21185   2.374   4.736   9.374  0.0947  0.3045 -2.6866
  184SLPC   C3921186   2.436   4.561   9.271 -0.2968  0.7809  0.2522
  184SLPC   H9X21187   2.514   4.483   9.272  0.4949  1.5394 -0.6199
  184SLPC   H9Y21188   2.477   4.631   9.195  3.2677 -0.3011  1.1168
  184SLPC  C31021189   2.304   4.499   9.221  0.3483 -0.2668 -0.1599
  184SLPC  H10X21190   2.235   4.586   9.217 -0.2863 -0.8105 -1.0886
  184SLPC  H10Y21191   2.266   4.436   9.304  0.0679  0.6625  0.4295
  184SLPC  C31121192   2.311   4.418   9.089 -0.3028 -0.1634  0.5217
  184SLPC  H11X21193   2.224   4.349   9.085 -0.8283  0.4947  0.4097
  184SLPC  H11Y21194   2.400   4.352   9.093 -1.1014 -1.2274  1.0150
  184SLPC  C31221195   2.335   4.493   8.965  0.3020  0.8147  0.2906
  184SLPC  H12X21196   2.304   4.440   8.872  1.4678  0.0990  0.2980
  184SLPC  H12Y21197   2.444   4.509   8.957 -0.0895  3.5797  0.1990
  184SLPC  C31321198   2.271   4.630   8.961  0.0321 -0.1142 -0.4220
  184SLPC  H13X21199   2.320   4.703   9.028 -0.9333 -0.6357  0.8677
  184SLPC  H13Y21200   2.161   4.621   8.974  0.2818 -3.1769  0.0442
  184SLPC  C31421201   2.297   4.691   8.822  0.0097 -0.6090 -0.0943
  184SLPC  H14X21202   2.247   4.629   8.745  0.7290  0.4309 -1.4287
  184SLPC  H14Y21203   2.403   4.685   8.790 -0.6344  0.6992 -2.6555
  184SLPC  C31521204   2.241   4.836   8.810 -0.9105  0.2919 -0.5683
  184SLPC  H15X21205   2.320   4.905   8.847  0.3964  0.2178 -3.0921
  184SLPC  H15Y21206   2.147   4.844   8.869 -0.6457 -2.5224  0.3335
  184SLPC  C31621207   2.227   4.884   8.664  0.2045 -0.9808 -0.2830
  184SLPC  H16X21208   2.187   4.987   8.664 -0.8949 -1.3910  1.0365
  184SLPC  H16Y21209   2.151   4.816   8.620 -0.4069 -1.6823  1.7654
  184SLPC  C31721210   2.361   4.882   8.595  0.0792 -0.6993  0.2228
  184SLPC  H17X21211   2.406   4.780   8.604  1.6368  0.1362  2.3629
  184SLPC  H17Y21212   2.427   4.958   8.642 -0.8486  1.0218 -1.2441
  184SLPC  C31821213   2.353   4.928   8.447 -0.1293 -0.1408 -0.6405
  184SLPC  H18X21214   2.285   4.857   8.394 -2.3607  0.2295  1.6643
  184SLPC  H18Y21215   2.453   4.916   8.399  0.4070 -1.2817  0.7231
  184SLPC  H18Z21216   2.307   5.029   8.445 -1.8687 -0.9030 -0.0376
  185SLPC     N21217   0.424   0.423   6.132 -0.0662  0.1548 -0.2830
  185SLPC   C1321218   0.400   0.555   6.199  0.4548 -0.4520  0.4018
  185SLPC  H13A21219   0.359   0.539   6.298 -2.6382 -0.8925 -0.8702
  185SLPC  H13B21220   0.493   0.607   6.215  0.5042 -0.5926  0.5652
  185SLPC  H13C21221   0.323   0.608   6.144 -0.4356 -1.0334  1.0830
  185SLPC   C1421222   0.477   0.445   5.999  0.0714  0.4862 -0.1838
  185SLPC  H14A21223   0.579   0.464   6.025 -0.0989  1.9875 -0.5816
  185SLPC  H14B21224   0.471   0.360   5.931 -2.1776  0.5737 -0.1613
  185SLPC  H14C21225   0.449   0.540   5.956  0.7836  0.1445 -1.4261
  185SLPC   C1521226   0.290   0.361   6.130 -0.0415  0.2400  0.1329
  185SLPC  H15A21227   0.246   0.352   6.228 -0.2832  2.8341  0.3018
  185SLPC  H15B21228   0.216   0.416   6.074  1.1246  2.2540  0.4987
  185SLPC  H15C21229   0.283   0.261   6.091  1.0714 -0.6071  2.0466
  185SLPC   C1221230   0.520   0.344   6.208  0.0798  0.2117  0.6064
  185SLPC  H12A21231   0.502   0.242   6.179  0.0646 -0.1267  1.7849
  185SLPC  H12B21232   0.485   0.346   6.310 -4.3502  4.5324 -0.7640
  185SLPC   C1121233   0.671   0.392   6.204  0.2216  1.1370 -0.5340
  185SLPC  H11A21234   0.705   0.370   6.100 -1.1979 -1.8665 -0.4016
  185SLPC  H11B21235   0.726   0.325   6.273 -0.8409  1.1155  0.2983
  185SLPC     P21236   0.828   0.584   6.295 -0.1456 -0.1165  0.2671
  185SLPC   O1321237   0.939   0.543   6.205  0.4142 -0.4247  0.6830
  185SLPC   O1421238   0.821   0.728   6.325 -0.4099  0.7972  0.6122
  185SLPC   O1221239   0.689   0.531   6.243 -0.5542 -0.2019 -0.9312
  185SLPC   O1121240   0.860   0.510   6.428 -0.5164  0.4187  0.0296
  185SLPC    C121241   0.743   0.480   6.508 -0.2495  0.4261  0.1762
  185SLPC    HA21242   0.649   0.528   6.473 -0.9415  0.6310  2.2789
  185SLPC    HB21243   0.727   0.371   6.494  3.5247 -0.1212 -0.3312
  185SLPC    C221244   0.764   0.495   6.664  0.0615 -0.0464 -0.3560
  185SLPC    HS21245   0.789   0.601   6.685 -0.4876 -0.4998  2.7757
  185SLPC   O2121246   0.870   0.409   6.705  0.1506  0.7737  0.1583
  185SLPC   C2121247   0.947   0.464   6.806 -0.0613 -0.6133  0.5720
  185SLPC   O2221248   0.934   0.574   6.854 -0.1189 -0.1450 -0.1978
  185SLPC   C2221249   1.049   0.355   6.847  0.2572 -0.6541  0.0983
  185SLPC   H2R21250   0.988   0.285   6.908  2.5955 -1.9235  1.0620
  185SLPC   H2S21251   1.103   0.310   6.761  1.7013  0.5998  0.3146
  185SLPC    C321252   0.632   0.467   6.740 -1.1402  0.3677  0.3861
  185SLPC    HX21253   0.612   0.361   6.713  2.6834  0.1953 -2.0436
  185SLPC    HY21254   0.552   0.532   6.699 -0.1560  0.9451 -0.6391
  185SLPC   O3121255   0.641   0.484   6.882  0.0940  0.4734  0.2361
  185SLPC   C3121256   0.616   0.600   6.935 -0.1851  0.3649 -0.8464
  185SLPC   O3221257   0.575   0.693   6.867 -0.7413  0.7317  0.3279
  185SLPC   C3221258   0.649   0.604   7.081 -0.4976  0.2876 -0.6054
  185SLPC   H2X21259   0.749   0.560   7.102 -1.1581 -1.4527 -1.0150
  185SLPC   H2Y21260   0.580   0.537   7.136 -1.0861  0.6585 -0.8825
  185SLPC   C2321261   1.157   0.409   6.940 -0.0889 -0.1405 -0.0366
  185SLPC   H3R21262   1.105   0.482   7.005 -0.5115 -0.9506  0.5451
  185SLPC   H3S21263   1.239   0.465   6.890  0.4837 -1.4635 -0.6396
  185SLPC   C2421264   1.209   0.291   7.020  0.6430  0.0925 -0.1738
  185SLPC   H4R21265   1.300   0.255   6.969  0.4986  0.5251 -0.7448
  185SLPC   H4S21266   1.141   0.204   7.036  3.0424 -1.4913  1.8910
  185SLPC   C2521267   1.229   0.334   7.162  0.5430 -0.7237 -0.0542
  185SLPC   H5R21268   1.293   0.425   7.160 -0.0908 -0.2004  2.3594
  185SLPC   H5S21269   1.292   0.256   7.210 -1.5991 -2.4842 -0.0303
  185SLPC   C2621270   1.099   0.352   7.251  0.0303  0.3976  0.6335
  185SLPC   H6R21271   1.037   0.260   7.241  1.6136 -0.4379 -2.0631
  185SLPC   H6S21272   1.045   0.443   7.216  0.1966  1.0961  2.1372
  185SLPC   C2721273   1.122   0.373   7.397 -0.4697  0.3799  1.1259
  185SLPC   H7R21274   1.185   0.463   7.414  1.0206 -0.2686 -0.6957
  185SLPC   H7S21275   1.180   0.284   7.431 -0.2837  0.9319  2.2584
  185SLPC   C2821276   0.995   0.368   7.490  1.0443  0.3833 -0.4012
  185SLPC   H8R21277   1.021   0.329   7.590  0.2859 -2.3088 -1.2138
  185SLPC   H8S21278   0.925   0.302   7.434  0.6578  0.0909  0.4133
  185SLPC   C2921279   0.914   0.496   7.505 -0.0413  0.1518 -0.2519
  185SLPC   H9R21280   0.926   0.574   7.429  0.0787 -1.2231 -1.6770
  185SLPC  C21021281   0.831   0.528   7.602  0.6136  0.3580  0.6162
  185SLPC  H10R21282   0.765   0.615   7.598  0.1722  0.0755  1.5519
  185SLPC  C21121283   0.795   0.447   7.721 -0.0318 -0.2716 -0.7935
  185SLPC  H11R21284   0.847   0.348   7.722 -2.5197 -1.6950 -3.8607
  185SLPC  H11S21285   0.687   0.423   7.716 -0.1360  0.0090  0.1844
  185SLPC  C21221286   0.818   0.515   7.858 -0.5388 -0.9097 -0.1501
  185SLPC  H12R21287   0.890   0.599   7.865 -1.6341  0.2077 -2.0280
  185SLPC  C21321288   0.753   0.476   7.967  0.4881  0.0345  0.3014
  185SLPC  H13R21289   0.782   0.525   8.061  0.7075  1.1157 -0.3276
  185SLPC  C21421290   0.647   0.368   7.975 -0.4980  0.5482  0.2180
  185SLPC  H14R21291   0.582   0.368   7.885 -0.2199 -0.0896  0.0130
  185SLPC  H14S21292   0.585   0.397   8.062  0.1936  0.1814  0.8475
  185SLPC  C21521293   0.718   0.232   8.009  0.2792 -0.7723 -0.0782
  185SLPC  H15R21294   0.752   0.228   8.115  0.5045  1.1009 -0.0638
  185SLPC  H15S21295   0.803   0.229   7.937  0.8752 -0.1219  0.5924
  185SLPC  C21621296   0.625   0.113   7.983 -0.2244  0.0642 -0.0342
  185SLPC  H16R21297   0.596   0.093   7.877 -1.0810 -0.6000  0.3223
  185SLPC  H16S21298   0.529   0.119   8.038  1.1487 -0.5871  2.5151
  185SLPC  C21721299   0.684  -0.021   8.019  0.2505  0.2529  0.0981
  185SLPC  H17R21300   0.602  -0.089   8.050 -0.3609  1.3745  1.0027
  185SLPC  H17S21301   0.751  -0.011   8.106 -0.5508 -1.6574  0.9655
  185SLPC  C21821302   0.771  -0.079   7.905 -0.5660 -0.3393  0.0633
  185SLPC  H18R21303   0.831  -0.165   7.940 -0.1685  0.3256  1.0555
  185SLPC  H18S21304   0.838  -0.007   7.852 -0.8105  0.6069  1.0188
  185SLPC  H18T21305   0.708  -0.124   7.825  0.9144 -2.0051 -0.2010
  185SLPC   C3321306   0.640   0.751   7.139  0.0529  0.1408 -0.1909
  185SLPC   H3X21307   0.541   0.785   7.101 -0.7324 -0.1050  1.5596
  185SLPC   H3Y21308   0.717   0.808   7.083 -1.9313  1.4877 -1.6390
  185SLPC   C3421309   0.647   0.758   7.288  0.2077 -0.5425 -0.9631
  185SLPC   H4X21310   0.753   0.738   7.315 -0.0255 -2.3128 -1.3284
  185SLPC   H4Y21311   0.589   0.671   7.324  3.0403 -2.3438 -0.6049
  185SLPC   C3521312   0.592   0.880   7.358  0.2862  1.1862  0.9059
  185SLPC   H5X21313   0.490   0.900   7.319 -0.6598  0.1349  2.7668
  185SLPC   H5Y21314   0.641   0.973   7.322 -0.0912  0.7546 -0.7451
  185SLPC   C3621315   0.597   0.858   7.512  0.4582 -0.0633  0.1389
  185SLPC   H6X21316   0.578   0.751   7.536 -1.0580 -0.1337 -1.2580
  185SLPC   H6Y21317   0.514   0.915   7.560  1.3690  0.1575  1.4561
  185SLPC   C3721318   0.724   0.900   7.581 -0.3907 -0.3325  0.4850
  185SLPC   H7X21319   0.764   0.995   7.538  1.7671 -0.6691  1.6798
  185SLPC   H7Y21320   0.804   0.825   7.564 -0.3499  0.1291 -1.5129
  185SLPC   C3821321   0.698   0.903   7.736 -0.4418 -1.1057 -0.4687
  185SLPC   H8X21322   0.680   0.795   7.756  1.4088 -0.7963  3.2890
  185SLPC   H8Y21323   0.604   0.956   7.760 -0.9251 -2.4940  0.7693
  185SLPC   C3921324   0.810   0.960   7.812  0.5190 -0.2140  0.1219
  185SLPC   H9X21325   0.829   1.066   7.784  0.6865 -0.6178 -1.3332
  185SLPC   H9Y21326   0.904   0.905   7.785  0.4221 -0.8078  0.9693
  185SLPC  C31021327   0.791   0.954   7.962  0.1454  0.2716  0.5657
  185SLPC  H10X21328   0.761   0.850   7.986 -1.1406  0.7286  0.9403
  185SLPC  H10Y21329   0.712   1.018   8.006 -1.7374 -0.9877 -0.8942
  185SLPC  C31121330   0.919   0.991   8.031  0.6020  0.2087 -0.2185
  185SLPC  H11X21331   0.946   1.098   8.018  0.0580  0.4415  0.5518
  185SLPC  H11Y21332   1.010   0.939   7.996  0.8406  1.0014 -0.8002
  185SLPC  C31221333   0.908   0.958   8.177 -0.1890 -0.2612  0.1103
  185SLPC  H12X21334   0.877   0.852   8.194 -2.1639 -0.0426 -1.8550
  185SLPC  H12Y21335   0.827   1.017   8.224 -2.5185 -2.6419 -0.7796
  185SLPC  C31321336   1.034   0.979   8.246  0.1771 -0.0346  0.3687
  185SLPC  H13X21337   1.051   1.088   8.257 -3.3944  0.6429 -0.3788
  185SLPC  H13Y21338   1.117   0.943   8.182  0.1094  0.3349  0.0743
  185SLPC  C31421339   1.043   0.920   8.384  0.4683  0.1413  0.0587
  185SLPC  H14X21340   0.991   0.823   8.374 -0.3700  0.4908  0.8635
  185SLPC  H14Y21341   0.987   0.986   8.454  0.6263  0.4301 -0.0833
  185SLPC  C31521342   1.187   0.923   8.429  0.8777 -0.2406  0.6706
  185SLPC  H15X21343   1.235   1.021   8.408 -0.1302  0.7664  2.9672
  185SLPC  H15Y21344   1.235   0.836   8.377 -1.9913 -0.1429 -2.2578
  185SLPC  C31621345   1.198   0.907   8.583  0.0379 -0.3146  0.3083
  185SLPC  H16X21346   1.165   0.806   8.614  0.2820 -0.4842  0.0190
  185SLPC  H16Y21347   1.138   0.983   8.639  0.2417  1.2285 -1.5216
  185SLPC  C31721348   1.354   0.914   8.623  0.8616  0.2488  0.2146
  185SLPC  H17X21349   1.396   1.004   8.573  0.2523 -0.9287 -2.5385
  185SLPC  H17Y21350   1.397   0.822   8.578  1.6093 -0.5093  2.4287
  185SLPC  C31821351   1.376   0.920   8.770 -0.1380 -0.0406  0.3884
  185SLPC  H18X21352   1.341   0.823   8.813  0.1560 -1.0588 -1.5953
  185SLPC  H18Y21353   1.327   1.004   8.823 -0.4544 -0.5296  0.8852
  185SLPC  H18Z21354   1.486   0.916   8.784  0.5691 -0.2296 -4.3877
  186SLPC     N21355   1.366   3.136   5.999  0.1263  0.3802 -0.0689
  186SLPC   C1321356   1.249   3.193   5.917  0.4650 -0.2901 -0.3115
  186SLPC  H13A21357   1.223   3.119   5.842  0.4488 -0.8918  0.2839
  186SLPC  H13B21358   1.167   3.215   5.983  0.7436 -1.4127  0.4211
  186SLPC  H13C21359   1.281   3.279   5.861 -1.0405  0.9950  0.7676
  186SLPC   C1421360   1.486   3.115   5.919 -0.0041  0.5473  0.5463
  186SLPC  H14A21361   1.470   3.024   5.862  0.1445  1.3091 -0.7385
  186SLPC  H14B21362   1.507   3.202   5.858 -2.9356 -0.0909 -1.4753
  186SLPC  H14C21363   1.570   3.092   5.983  0.1847 -0.5761 -0.0770
  186SLPC   C1521364   1.331   3.013   6.058 -0.1943  0.9361 -0.4787
  186SLPC  H15A21365   1.404   2.968   6.123 -0.0092  1.5807 -0.2378
  186SLPC  H15B21366   1.245   3.025   6.122 -0.0852  0.4297 -0.2411
  186SLPC  H15C21367   1.309   2.947   5.976  0.1374  1.3602 -0.9195
  186SLPC   C1221368   1.387   3.242   6.110 -0.4762  0.5073  0.1743
  186SLPC  H12A21369   1.294   3.266   6.159 -0.2687  0.4143  0.6134
  186SLPC  H12B21370   1.418   3.334   6.061  0.3131  0.1574  0.0047
  186SLPC   C1121371   1.492   3.214   6.222 -0.7460  1.0533  0.1887
  186SLPC  H11A21372   1.495   3.294   6.299 -0.6561 -0.4204  1.7458
  186SLPC  H11B21373   1.592   3.214   6.174 -0.0813 -1.1483  1.4837
  186SLPC     P21374   1.376   3.081   6.418 -0.0384  0.1524  0.6394
  186SLPC   O1321375   1.235   3.085   6.374 -0.3399  0.1589 -0.5526
  186SLPC   O1421376   1.424   2.974   6.507 -0.2865  0.9632 -0.2114
  186SLPC   O1221377   1.479   3.094   6.293 -0.0365  0.1624  0.0276
  186SLPC   O1121378   1.397   3.214   6.502  0.7526  0.1466  0.0073
  186SLPC    C121379   1.527   3.234   6.573 -0.4847 -0.3241  0.2314
  186SLPC    HA21380   1.606   3.161   6.548 -0.8891 -0.5008 -0.5315
  186SLPC    HB21381   1.563   3.332   6.535 -0.2866 -0.2381  0.6366
  186SLPC    C221382   1.499   3.264   6.722  0.3694 -0.2456 -0.0331
  186SLPC    HS21383   1.599   3.255   6.770  0.9090 -1.0346 -1.2943
  186SLPC   O2121384   1.420   3.164   6.791 -0.3520 -0.3333  0.8349
  186SLPC   C2121385   1.478   3.051   6.812 -0.5054 -0.1841  0.0695
  186SLPC   O2221386   1.597   3.029   6.784  0.0478 -0.0948  0.3752
  186SLPC   C2221387   1.398   2.955   6.895  0.9891 -0.2707 -0.5178
  186SLPC   H2R21388   1.293   2.956   6.857  0.4018  1.7628  1.0369
  186SLPC   H2S21389   1.444   2.856   6.880 -1.2843 -1.5327  0.5072
  186SLPC    C321390   1.443   3.406   6.744 -0.6409 -0.4805 -0.2472
  186SLPC    HX21391   1.344   3.423   6.697 -0.3581  1.1812 -0.2775
  186SLPC    HY21392   1.512   3.473   6.688 -0.9556  1.7276  1.9493
  186SLPC   O3121393   1.433   3.443   6.878 -0.0794 -0.4309  0.0275
  186SLPC   C3121394   1.536   3.507   6.931 -0.1345 -0.1688 -0.4792
  186SLPC   O3221395   1.640   3.538   6.877  0.2947  0.0140 -0.5515
  186SLPC   C3221396   1.491   3.562   7.069 -0.4343  0.0438 -0.3079
  186SLPC   H2X21397   1.398   3.621   7.059 -1.3855 -1.5880 -1.2922
  186SLPC   H2Y21398   1.575   3.631   7.093  1.2913 -1.9891 -0.3287
  186SLPC   C2321399   1.401   3.008   7.046 -0.5440  0.1572 -0.2979
  186SLPC   H3R21400   1.350   2.928   7.104  2.1480 -0.2228  1.6448
  186SLPC   H3S21401   1.335   3.098   7.058 -0.1139  0.5719 -1.0231
  186SLPC   C2421402   1.542   3.041   7.103  0.0548 -0.6774 -0.0965
  186SLPC   H4R21403   1.571   3.135   7.052 -1.5361 -0.6067 -0.9090
  186SLPC   H4S21404   1.613   2.957   7.089 -1.1623 -1.7729  0.1458
  186SLPC   C2521405   1.525   3.083   7.246  0.2125 -0.0240 -0.3482
  186SLPC   H5R21406   1.461   3.002   7.286  1.4832  0.6959  3.3618
  186SLPC   H5S21407   1.452   3.167   7.252 -0.5243 -0.7705  1.4218
  186SLPC   C2621408   1.646   3.107   7.332  0.1705  0.7606 -0.1469
  186SLPC   H6R21409   1.709   3.193   7.301  0.3698  1.0947  1.1379
  186SLPC   H6S21410   1.708   3.016   7.318  0.3590  0.8306  0.2138
  186SLPC   C2721411   1.611   3.134   7.483  0.1667  0.8999  0.1976
  186SLPC   H7R21412   1.558   3.042   7.513 -1.1678  1.1391 -1.3442
  186SLPC   H7S21413   1.549   3.226   7.492  1.6382  2.0585 -1.1720
  186SLPC   C2821414   1.738   3.156   7.568  0.2003 -0.4761  0.1750
  186SLPC   H8R21415   1.800   3.245   7.545  1.2888 -1.4817 -0.8150
  186SLPC   H8S21416   1.806   3.073   7.537 -0.1266 -0.7099  0.0822
  186SLPC   C2921417   1.707   3.155   7.711  0.2467  0.0447 -0.2442
  186SLPC   H9R21418   1.623   3.215   7.747 -0.1888  0.6703 -2.2415
  186SLPC  C21021419   1.787   3.098   7.809  0.1199 -0.1501  0.3786
  186SLPC  H10R21420   1.764   3.122   7.914  1.8106  2.7144  0.1466
  186SLPC  C21121421   1.914   3.029   7.777  0.2577  0.4110 -0.0297
  186SLPC  H11R21422   1.987   3.107   7.746 -1.3812  0.9394 -2.6912
  186SLPC  H11S21423   1.898   2.962   7.690 -1.1140 -1.0665  1.3443
  186SLPC  C21221424   1.968   2.956   7.902  0.2420 -0.2091 -0.7167
  186SLPC  H12R21425   2.021   3.019   7.975 -0.3726 -0.6831  0.1403
  186SLPC  C21321426   1.961   2.828   7.919  0.1494  0.7455 -0.2728
  186SLPC  H13R21427   1.993   2.787   8.016  0.3004  2.8210  0.5644
  186SLPC  C21421428   1.897   2.728   7.818 -1.0044 -0.6261 -0.5475
  186SLPC  H14R21429   1.975   2.690   7.749 -0.6602 -1.6253  0.3771
  186SLPC  H14S21430   1.827   2.776   7.747 -0.3755  0.9906 -0.0992
  186SLPC  C21521431   1.830   2.604   7.881 -0.3456  0.6703 -0.5319
  186SLPC  H15R21432   1.748   2.639   7.947 -0.3646  1.1942 -0.8309
  186SLPC  H15S21433   1.902   2.534   7.929  0.7869  1.9146 -0.3882
  186SLPC  C21621434   1.752   2.524   7.774  0.5376  0.3091 -0.2084
  186SLPC  H16R21435   1.730   2.418   7.795 -1.2423  0.5740 -0.6792
  186SLPC  H16S21436   1.822   2.525   7.688 -0.2500 -0.2631 -0.8600
  186SLPC  C21721437   1.624   2.594   7.736  0.6520  0.0810 -0.4848
  186SLPC  H17R21438   1.644   2.691   7.686  0.1719 -0.2986 -1.4221
  186SLPC  H17S21439   1.557   2.611   7.823  1.2235 -2.1345  0.4226
  186SLPC  C21821440   1.544   2.515   7.637  0.2020  0.5807  0.3365
  186SLPC  H18R21441   1.454   2.565   7.595 -0.4195 -0.0773  0.8802
  186SLPC  H18S21442   1.511   2.415   7.671  1.5418 -0.8898 -2.5030
  186SLPC  H18T21443   1.602   2.492   7.545 -0.0191  3.0146 -0.4644
  186SLPC   C3321444   1.470   3.454   7.183 -0.0566 -0.3434  0.2262
  186SLPC   H3X21445   1.573   3.418   7.203  0.0482 -0.5476 -0.6354
  186SLPC   H3Y21446   1.396   3.384   7.139 -0.9445  0.6766  0.0887
  186SLPC   C3421447   1.405   3.514   7.306  0.6815 -0.3052 -0.2958
  186SLPC   H4X21448   1.320   3.451   7.338  0.8940  0.1421  1.1764
  186SLPC   H4Y21449   1.352   3.610   7.285  1.3513 -0.0263 -0.7280
  186SLPC   C3521450   1.513   3.521   7.415 -0.4821  0.0680 -0.0738
  186SLPC   H5X21451   1.586   3.603   7.397 -2.1537  1.1306 -2.3260
  186SLPC   H5Y21452   1.578   3.431   7.412 -2.3912 -1.3129 -2.1302
  186SLPC   C3621453   1.457   3.531   7.555  0.0190 -0.2198  0.1016
  186SLPC   H6X21454   1.391   3.444   7.572  0.2400 -0.2199  1.0013
  186SLPC   H6Y21455   1.405   3.629   7.569  3.2904  1.3802  1.7057
  186SLPC   C3721456   1.562   3.530   7.673 -0.3162  0.5348  0.3076
  186SLPC   H7X21457   1.622   3.623   7.661  0.3178  0.2688  1.3837
  186SLPC   H7Y21458   1.635   3.446   7.672  0.4697  1.2078  0.9909
  186SLPC   C3821459   1.497   3.545   7.819  0.1609 -0.0031 -0.1534
  186SLPC   H8X21460   1.420   3.469   7.843 -2.9695  3.5790  1.7321
  186SLPC   H8Y21461   1.452   3.644   7.841 -1.6466 -0.7332 -0.4217
  186SLPC   C3921462   1.605   3.509   7.919  0.1047 -0.4519 -0.4550
  186SLPC   H9X21463   1.697   3.563   7.888  0.6810 -0.7981  0.6292
  186SLPC   H9Y21464   1.636   3.403   7.922  1.7718  0.0879  3.9359
  186SLPC  C31021465   1.551   3.535   8.063  0.6270  0.3591 -0.1733
  186SLPC  H10X21466   1.447   3.496   8.071 -0.2213  2.4134 -0.9087
  186SLPC  H10Y21467   1.552   3.644   8.084 -0.9190  0.2976  0.2721
  186SLPC  C31121468   1.641   3.479   8.172  0.1782 -0.1480 -0.2442
  186SLPC  H11X21469   1.748   3.471   8.146  0.3766  2.2244 -0.3322
  186SLPC  H11Y21470   1.606   3.376   8.195  2.6790 -1.1972 -0.9694
  186SLPC  C31221471   1.623   3.563   8.300 -0.6238 -0.4095 -0.2402
  186SLPC  H12X21472   1.652   3.670   8.293 -1.5204 -0.2864 -2.1638
  186SLPC  H12Y21473   1.702   3.526   8.369 -0.2416 -2.1823 -1.5913
  186SLPC  C31321474   1.487   3.548   8.371 -0.4185  0.1206 -0.1938
  186SLPC  H13X21475   1.457   3.443   8.391  1.0468  0.1597  2.4488
  186SLPC  H13Y21476   1.406   3.603   8.319  0.5196  1.6822 -0.0543
  186SLPC  C31421477   1.485   3.610   8.511  0.1162 -0.4515  0.0852
  186SLPC  H14X21478   1.521   3.715   8.513 -1.0108  0.0511 -2.7703
  186SLPC  H14Y21479   1.551   3.560   8.586  3.5173  0.7190 -2.0021
  186SLPC  C31521480   1.345   3.619   8.580  0.3530 -0.1270  0.1962
  186SLPC  H15X21481   1.274   3.654   8.501 -1.3393 -1.1596  1.2221
  186SLPC  H15Y21482   1.348   3.699   8.657  0.1209  0.1305 -0.0577
  186SLPC  C31621483   1.301   3.486   8.631 -1.2785 -0.1563 -0.6859
  186SLPC  H16X21484   1.355   3.456   8.723  0.3576  1.3831 -1.1137
  186SLPC  H16Y21485   1.331   3.420   8.547  0.9138 -1.4007  1.0068
  186SLPC  C31721486   1.154   3.478   8.660  0.2534 -0.1400  0.4532
  186SLPC  H17X21487   1.090   3.483   8.569  3.3337  2.0106 -1.7157
  186SLPC  H17Y21488   1.129   3.545   8.744 -0.7919  0.6030 -0.4392
  186SLPC  C31821489   1.123   3.338   8.725 -0.3118  0.4047 -0.3075
  186SLPC  H18X21490   1.179   3.322   8.820 -1.4951 -2.7540 -0.0724
  186SLPC  H18Y21491   1.165   3.265   8.652 -0.3565  0.2786 -0.2069
  186SLPC  H18Z21492   1.016   3.318   8.749  0.5134 -1.0781  2.3512
  187SLPC     N21493   2.236   0.820   6.205  0.2722  0.1810  0.1249
  187SLPC   C1321494   2.094   0.826   6.180 -0.5487  0.3390 -0.1089
  187SLPC  H13A21495   2.062   0.806   6.079 -0.8811  0.1902  0.0220
  187SLPC  H13B21496   2.046   0.760   6.252  1.5146  1.2198  2.1539
  187SLPC  H13C21497   2.061   0.924   6.209 -1.5790  0.2952 -1.1134
  187SLPC   C1421498   2.302   0.907   6.107 -0.3482  0.1658  0.1412
  187SLPC  H14A21499   2.249   1.001   6.112  1.1781  0.9390  3.3310
  187SLPC  H14B21500   2.408   0.920   6.118 -0.2582  1.8600 -2.2081
  187SLPC  H14C21501   2.293   0.885   6.002 -1.6024 -2.1806  0.6978
  187SLPC   C1521502   2.293   0.679   6.185 -0.0008  0.3817 -0.3807
  187SLPC  H15A21503   2.400   0.686   6.170  0.7460 -1.9456  3.3144
  187SLPC  H15B21504   2.275   0.615   6.270 -0.3996  0.9353 -0.0448
  187SLPC  H15C21505   2.254   0.636   6.094 -0.7150 -1.5425  0.8170
  187SLPC   C1221506   2.268   0.875   6.343 -0.6462 -0.5961 -0.2279
  187SLPC  H12A21507   2.211   0.964   6.367  0.8875  0.1736  0.6209
  187SLPC  H12B21508   2.372   0.898   6.360 -0.8876 -0.5150  1.2126
  187SLPC   C1121509   2.230   0.772   6.457 -0.6444  0.0463  0.0712
  187SLPC  H11A21510   2.145   0.704   6.439 -0.2463 -0.0457 -1.5385
  187SLPC  H11B21511   2.223   0.822   6.556  0.9353  2.5958 -1.0526
  187SLPC     P21512   2.467   0.710   6.547 -0.1331 -0.1012  0.0813
  187SLPC   O1321513   2.591   0.676   6.472 -0.2167 -0.0086  0.2507
  187SLPC   O1421514   2.463   0.853   6.592 -0.0815 -0.2117 -0.5604
  187SLPC   O1221515   2.340   0.682   6.462  0.3784  0.3631  0.4094
  187SLPC   O1121516   2.453   0.616   6.673 -0.0002 -0.1276  0.0066
  187SLPC    C121517   2.399   0.484   6.655  0.7456  0.0287 -0.2340
  187SLPC    HA21518   2.446   0.443   6.563  1.3516  3.0053 -1.3175
  187SLPC    HB21519   2.447   0.420   6.732  2.5343 -0.5507 -1.7850
  187SLPC    C221520   2.246   0.471   6.678 -0.2089  0.1694  0.4767
  187SLPC    HS21521   2.193   0.541   6.610 -0.1796 -1.4360 -1.2098
  187SLPC   O2121522   2.230   0.520   6.817  0.2373  0.3191  0.2786
  187SLPC   C2121523   2.107   0.514   6.875  0.1524  0.2705  0.7580
  187SLPC   O2221524   2.004   0.473   6.826 -0.3194  0.3118 -0.4449
  187SLPC   C2221525   2.111   0.580   7.014  0.2901  0.8902 -0.5180
  187SLPC   H2R21526   2.216   0.567   7.048 -0.4800 -0.5170  1.4321
  187SLPC   H2S21527   2.080   0.686   7.002 -0.3209  0.9103  1.1481
  187SLPC    C321528   2.192   0.321   6.644 -0.1216 -0.5470 -0.1188
  187SLPC    HX21529   2.247   0.282   6.556  1.8257  0.2556  0.7070
  187SLPC    HY21530   2.084   0.336   6.621  0.4015  1.7966 -1.1335
  187SLPC   O3121531   2.211   0.226   6.754 -0.3093  0.4152  0.1299
  187SLPC   C3121532   2.105   0.153   6.781  0.4107  0.0396  0.3097
  187SLPC   O3221533   2.003   0.147   6.718  0.2243 -0.0532  0.1370
  187SLPC   C3221534   2.137   0.072   6.904  0.4143  0.1485  0.2908
  187SLPC   H2X21535   2.164   0.148   6.981 -0.2010 -1.3457  2.0317
  187SLPC   H2Y21536   2.223   0.007   6.878  1.3585  2.3121 -2.2468
  187SLPC   C2321537   2.019   0.517   7.126 -1.0327  0.4914  0.4048
  187SLPC   H3R21538   1.933   0.468   7.075  0.3279 -0.5018 -0.9694
  187SLPC   H3S21539   1.978   0.597   7.192 -0.6483  2.7959 -2.0262
  187SLPC   C2421540   2.102   0.402   7.196 -0.0276  0.0480  0.1132
  187SLPC   H4R21541   2.183   0.442   7.260  1.1392 -1.6146 -0.2693
  187SLPC   H4S21542   2.167   0.354   7.120  2.2111  2.9558  0.1283
  187SLPC   C2521543   2.013   0.311   7.286 -0.4220  0.1581  0.0445
  187SLPC   H5R21544   1.958   0.234   7.226 -0.2072 -1.0390  1.3526
  187SLPC   H5S21545   1.936   0.377   7.332 -0.8303 -0.3247  0.0634
  187SLPC   C2621546   2.096   0.242   7.390 -0.2108 -0.1533  0.6331
  187SLPC   H6R21547   2.124   0.330   7.452  2.2407 -0.1300 -0.4383
  187SLPC   H6S21548   2.187   0.201   7.341 -0.6236 -1.6303  1.0893
  187SLPC   C2721549   2.011   0.145   7.465 -0.6940  0.3787  0.1032
  187SLPC   H7R21550   1.976   0.069   7.392 -1.4106 -0.7232  1.5633
  187SLPC   H7S21551   1.917   0.185   7.510 -1.4648  0.1352 -1.2568
  187SLPC   C2821552   2.084   0.066   7.576  0.6697  0.4142  0.2768
  187SLPC   H8R21553   2.163   0.002   7.531 -0.8864 -1.6835  0.4526
  187SLPC   H8S21554   2.008  -0.003   7.618  1.2408  0.3962  1.2909
  187SLPC   C2921555   2.127   0.162   7.680 -0.2309  0.4194  0.2842
  187SLPC   H9R21556   2.208   0.231   7.649  0.3852  0.4609  1.9179
  187SLPC  C21021557   2.078   0.168   7.804  0.5361 -0.4576 -0.4342
  187SLPC  H10R21558   2.139   0.219   7.881  1.1739 -1.1604 -0.4705
  187SLPC  C21121559   1.962   0.085   7.846 -0.0588 -1.2977 -0.6045
  187SLPC  H11R21560   1.979  -0.025   7.855  0.1876 -1.2921 -1.0020
  187SLPC  H11S21561   1.882   0.092   7.769  1.0825  2.2825 -1.5497
  187SLPC  C21221562   1.903   0.134   7.973  0.6135 -0.2170 -0.3816
  187SLPC  H12R21563   1.824   0.209   7.955 -0.0196 -0.6422  0.5865
  187SLPC  C21321564   1.925   0.083   8.101  0.8736 -0.3081 -0.3063
  187SLPC  H13R21565   1.869   0.124   8.186 -0.6643 -2.3499 -0.3000
  187SLPC  C21421566   2.005  -0.043   8.134 -0.0232 -0.6251 -0.6049
  187SLPC  H14R21567   2.065  -0.068   8.044  0.5084 -2.1506  0.1642
  187SLPC  H14S21568   1.947  -0.132   8.163  0.7412 -0.5579  1.1786
  187SLPC  C21521569   2.093  -0.019   8.258 -0.0454  0.0833  0.5039
  187SLPC  H15R21570   2.125   0.088   8.257  0.5381 -0.0805 -2.6785
  187SLPC  H15S21571   2.184  -0.083   8.261 -0.8367 -0.9974  2.3614
  187SLPC  C21621572   2.012  -0.037   8.390 -0.6221 -0.3732 -0.2838
  187SLPC  H16R21573   2.000  -0.143   8.421  1.6414 -0.6752 -0.3658
  187SLPC  H16S21574   1.906  -0.020   8.360 -0.2568 -0.3582 -1.5961
  187SLPC  C21721575   2.050   0.066   8.508  0.0928  0.7220 -0.1182
  187SLPC  H17R21576   2.050   0.169   8.464 -1.0037  1.3388  1.2843
  187SLPC  H17S21577   2.149   0.032   8.543 -1.0278 -1.7208  0.7808
  187SLPC  C21821578   1.941   0.059   8.615 -1.2840 -0.4426  0.0588
  187SLPC  H18R21579   1.937  -0.040   8.665  0.2598  0.6634  2.4826
  187SLPC  H18S21580   1.847   0.092   8.566 -0.4297  2.4016  0.2609
  187SLPC  H18T21581   1.974   0.130   8.694 -0.2008 -1.4777  0.5618
  187SLPC   C3321582   2.012  -0.007   6.959  0.2739 -0.8308  0.4539
  187SLPC   H3X21583   1.975  -0.071   6.875  0.4967 -1.5673  0.9101
  187SLPC   H3Y21584   1.930   0.061   6.987  1.6172  0.2805  1.7585
  187SLPC   C3421585   2.053  -0.095   7.072  0.1263  0.0072 -0.3267
  187SLPC   H4X21586   2.115  -0.052   7.153 -2.1540  0.9597  0.9733
  187SLPC   H4Y21587   2.111  -0.176   7.024  2.3929  0.5741  1.3837
  187SLPC   C3521588   1.922  -0.166   7.120  0.0804  0.2573 -0.1036
  187SLPC   H5X21589   1.853  -0.186   7.035 -3.2520 -0.7342  2.6891
  187SLPC   H5Y21590   1.877  -0.082   7.178  0.2670  0.1622  0.1773
  187SLPC   C3621591   1.950  -0.293   7.207 -0.2732 -0.5993  0.4086
  187SLPC   H6X21592   2.013  -0.355   7.140  2.3323  1.4807  0.8844
  187SLPC   H6Y21593   1.855  -0.345   7.233 -0.0964 -0.3167  1.6421
  187SLPC   C3721594   2.015  -0.259   7.350  0.3754  0.6189 -0.0234
  187SLPC   H7X21595   2.116  -0.214   7.339  0.9270 -0.8110 -0.8567
  187SLPC   H7Y21596   1.947  -0.191   7.406  1.8103  0.1464  2.3563
  187SLPC   C3821597   2.037  -0.389   7.437  0.0206  0.1321  0.5380
  187SLPC   H8X21598   2.103  -0.457   7.379 -1.4635 -1.3515  0.5539
  187SLPC   H8Y21599   1.938  -0.439   7.444 -0.6284  1.2008 -0.7057
  187SLPC   C3921600   2.107  -0.368   7.572 -0.3277 -0.0522 -0.8459
  187SLPC   H9X21601   2.186  -0.291   7.558  0.1801 -0.0097  2.0774
  187SLPC   H9Y21602   2.140  -0.469   7.603 -0.2807  0.4991  0.9208
  187SLPC  C31021603   2.009  -0.316   7.676  0.3121  0.2457 -0.6429
  187SLPC  H10X21604   1.910  -0.366   7.674  1.0020 -1.1048 -1.9417
  187SLPC  H10Y21605   1.986  -0.213   7.642  0.4809 -0.6810 -3.6875
  187SLPC  C31121606   2.069  -0.303   7.816  0.4860 -0.4140  0.4966
  187SLPC  H11X21607   2.021  -0.216   7.866  2.5716  1.8192 -1.2269
  187SLPC  H11Y21608   2.174  -0.267   7.821  0.4094  0.1720 -1.6586
  187SLPC  C31221609   2.053  -0.431   7.903 -0.8234 -0.1537  0.3308
  187SLPC  H12X21610   2.112  -0.514   7.859 -0.7111  0.2959 -0.3882
  187SLPC  H12Y21611   1.949  -0.461   7.878 -0.7299  2.2921 -3.5175
  187SLPC  C31321612   2.082  -0.410   8.051  0.0909  0.3451 -0.7452
  187SLPC  H13X21613   2.011  -0.461   8.119 -0.2029  3.3274  1.2676
  187SLPC  H13Y21614   2.073  -0.301   8.071  0.8407  0.1708  0.6875
  187SLPC  C31421615   2.224  -0.439   8.098  0.2312 -0.2190  0.3919
  187SLPC  H14X21616   2.296  -0.373   8.045 -0.4833  0.5612  0.4022
  187SLPC  H14Y21617   2.244  -0.546   8.074  0.7843  0.1827 -1.0002
  187SLPC  C31521618   2.261  -0.427   8.248 -0.4399 -0.2973  0.8173
  187SLPC  H15X21619   2.214  -0.498   8.319 -0.7629 -0.1975  0.7061
  187SLPC  H15Y21620   2.236  -0.324   8.281  0.1509  0.3265 -0.6230
  187SLPC  C31621621   2.412  -0.448   8.274  0.0498 -0.3742 -0.2612
  187SLPC  H16X21622   2.463  -0.354   8.244  0.5338 -0.6276 -0.2295
  187SLPC  H16Y21623   2.445  -0.525   8.201  0.2698 -1.1555  0.6529
  187SLPC  C31721624   2.443  -0.463   8.427  0.5061 -0.0664  0.5131
  187SLPC  H17X21625   2.540  -0.517   8.438  2.4447  3.1276 -0.2610
  187SLPC  H17Y21626   2.361  -0.517   8.479  2.2599 -1.1279  2.2669
  187SLPC  C31821627   2.440  -0.336   8.508  0.0761 -0.3524  0.2714
  187SLPC  H18X21628   2.428  -0.356   8.617  0.3829  0.2881  0.4258
  187SLPC  H18Y21629   2.351  -0.280   8.470  0.8803 -0.2438 -1.5122
  187SLPC  H18Z21630   2.529  -0.271   8.500 -2.1033  2.6153 -1.1307
  188SLPC     N21631   3.082   1.663   6.093 -0.2774 -0.2368  0.1840
  188SLPC   C1321632   2.972   1.733   6.025 -0.0089  0.4950 -0.1040
  188SLPC  H13A21633   2.914   1.795   6.091 -0.2834  0.9046 -0.7298
  188SLPC  H13B21634   3.016   1.797   5.950  2.3092 -1.3015 -0.3574
  188SLPC  H13C21635   2.909   1.659   5.978  0.5868 -0.4625  0.5854
  188SLPC   C1421636   3.165   1.772   6.154  0.6017  0.0492  0.4455
  188SLPC  H14A21637   3.213   1.823   6.071 -2.3937  0.4014 -1.1167
  188SLPC  H14B21638   3.104   1.836   6.215 -1.0959 -1.1764  0.0541
  188SLPC  H14C21639   3.242   1.727   6.215 -1.0173 -0.2521  2.2859
  188SLPC   C1521640   3.169   1.590   5.991  0.5154 -0.4622  0.1679
  188SLPC  H15A21641   3.126   1.497   5.960 -0.9081  0.1815  0.1671
  188SLPC  H15B21642   3.194   1.652   5.906 -1.3061  0.5884  0.3634
  188SLPC  H15C21643   3.259   1.556   6.041 -0.0609 -0.8110  0.9705
  188SLPC   C1221644   3.033   1.569   6.204 -0.4382 -0.2749 -0.7773
  188SLPC  H12A21645   2.957   1.508   6.157 -0.6873 -0.2050 -0.4679
  188SLPC  H12B21646   2.987   1.632   6.279 -3.5969 -1.9324 -1.2446
  188SLPC   C1121647   3.133   1.472   6.272 -0.3146 -0.3067 -0.7933
  188SLPC  H11A21648   3.203   1.424   6.200  1.3759 -1.2242  1.3960
  188SLPC  H11B21649   3.082   1.389   6.325  0.4361 -0.9668 -1.0865
  188SLPC     P21650   3.178   1.597   6.497  0.3512  0.2137  0.1693
  188SLPC   O1321651   3.297   1.629   6.577 -0.1508 -0.1238  0.4540
  188SLPC   O1421652   3.074   1.705   6.494  0.4598 -0.1566  0.3945
  188SLPC   O1221653   3.226   1.548   6.356  0.2844 -0.6077 -0.0884
  188SLPC   O1121654   3.114   1.467   6.554  1.0692  0.0843  0.4482
  188SLPC    C121655   2.973   1.452   6.590 -0.3355  0.0947  0.3765
  188SLPC    HA21656   2.901   1.518   6.538 -1.7985 -2.8865 -1.4988
  188SLPC    HB21657   2.948   1.345   6.574 -1.2481  0.0362  2.0988
  188SLPC    C221658   2.962   1.493   6.740  0.6775 -0.2393 -0.0236
  188SLPC    HS21659   3.007   1.593   6.760  2.0523 -0.1746 -3.0962
  188SLPC   O2121660   3.022   1.396   6.824  0.5097  0.9608 -0.0792
  188SLPC   C2121661   3.138   1.421   6.878  0.4454 -0.7196  0.1923
  188SLPC   O2221662   3.190   1.530   6.885  0.4098  0.1795  0.0944
  188SLPC   C2221663   3.218   1.292   6.919 -0.6832 -0.0876  0.7026
  188SLPC   H2R21664   3.159   1.199   6.905 -0.7844  0.1533 -0.4382
  188SLPC   H2S21665   3.312   1.294   6.860 -0.1379 -1.3510  1.4932
  188SLPC    C321666   2.815   1.493   6.779  0.0108  0.2083 -0.0008
  188SLPC    HX21667   2.788   1.391   6.745  2.6495 -0.7338  0.5962
  188SLPC    HY21668   2.765   1.567   6.712 -1.2513 -0.3915  0.2650
  188SLPC   O3121669   2.775   1.542   6.907 -0.2925  0.2005  0.0579
  188SLPC   C3121670   2.704   1.462   6.992 -0.0041 -0.0590 -0.0204
  188SLPC   O3221671   2.668   1.349   6.973 -0.2464  0.2673 -0.5703
  188SLPC   C3221672   2.674   1.541   7.115  0.7680 -0.0099 -0.4262
  188SLPC   H2X21673   2.722   1.642   7.113 -2.7843  1.7509 -2.1828
  188SLPC   H2Y21674   2.716   1.490   7.204 -0.0102 -0.7553 -0.4810
  188SLPC   C2321675   3.259   1.312   7.066  0.2920  0.5227 -0.1118
  188SLPC   H3R21676   3.289   1.417   7.088 -0.3074  0.4346  1.1964
  188SLPC   H3S21677   3.349   1.250   7.088  1.4877  1.3074 -2.6119
  188SLPC   C2421678   3.148   1.266   7.159  0.4447 -1.0305  0.3727
  188SLPC   H4R21679   3.140   1.155   7.163 -1.2200 -0.8592  2.6179
  188SLPC   H4S21680   3.047   1.305   7.137  1.6809  1.9887 -0.1302
  188SLPC   C2521681   3.170   1.315   7.302  0.2870 -0.7242  0.4436
  188SLPC   H5R21682   3.178   1.425   7.300  1.2617 -0.7719  1.6284
  188SLPC   H5S21683   3.266   1.291   7.352  2.3662  3.4949 -1.3368
  188SLPC   C2621684   3.048   1.265   7.392 -0.2953 -0.1860 -0.9072
  188SLPC   H6R21685   3.034   1.156   7.377 -1.2014 -0.3871  1.2656
  188SLPC   H6S21686   2.960   1.315   7.348 -0.6071 -0.1212 -0.2099
  188SLPC   C2721687   3.057   1.289   7.541 -0.9218  0.5200  0.4515
  188SLPC   H7R21688   3.106   1.389   7.541  2.1978 -0.9510  0.8386
  188SLPC   H7S21689   3.134   1.225   7.589 -0.3503 -0.1472 -1.3347
  188SLPC   C2821690   2.933   1.282   7.625  0.1362 -0.2844  0.8059
  188SLPC   H8R21691   2.865   1.362   7.590  0.1477  0.6136  2.8141
  188SLPC   H8S21692   2.947   1.314   7.730 -1.8182 -1.0648  1.3310
  188SLPC   C2921693   2.865   1.147   7.636 -0.2483 -0.2638 -0.4630
  188SLPC   H9R21694   2.808   1.118   7.546  1.6286 -1.0523 -1.4178
  188SLPC  C21021695   2.867   1.065   7.743  1.2797  0.1128  0.0425
  188SLPC  H10R21696   2.814   0.968   7.746  1.1867  0.2254  2.2669
  188SLPC  C21121697   2.940   1.092   7.869 -1.1170  0.2586 -0.8037
  188SLPC  H11R21698   2.992   1.190   7.864  1.7107 -0.9906  2.5968
  188SLPC  H11S21699   3.018   1.016   7.887 -0.9783  0.5040 -0.3570
  188SLPC  C21221700   2.833   1.099   7.981  0.5957  0.4806  0.2805
  188SLPC  H12R21701   2.745   1.164   7.969 -2.1151 -2.8661  1.3230
  188SLPC  C21321702   2.846   1.031   8.098  0.1006 -0.0503 -0.1272
  188SLPC  H13R21703   2.757   1.026   8.163  0.8456  1.5169  1.0590
  188SLPC  C21421704   2.954   0.934   8.140 -0.0555  0.5985  0.4079
  188SLPC  H14R21705   3.053   0.964   8.101 -0.8072  3.0086  0.2884
  188SLPC  H14S21706   2.928   0.829   8.116  3.4487 -0.2062 -0.0876
  188SLPC  C21521707   2.971   0.933   8.292  0.5541  0.2002 -1.0118
  188SLPC  H15R21708   2.879   0.916   8.353  1.6105 -0.0048  0.5769
  188SLPC  H15S21709   3.009   1.029   8.333  1.0576 -0.2688 -0.3727
  188SLPC  C21621710   3.070   0.825   8.344 -0.0333  0.5103  0.2580
  188SLPC  H16R21711   3.171   0.840   8.299 -0.0101 -0.6515 -0.1098
  188SLPC  H16S21712   3.022   0.730   8.314 -0.5233  0.2083  1.9582
  188SLPC  C21721713   3.092   0.805   8.491 -0.4506  0.7390 -0.2261
  188SLPC  H17R21714   2.993   0.792   8.538 -0.4890  0.9314 -0.2556
  188SLPC  H17S21715   3.137   0.891   8.546  0.7782  0.2001 -0.3552
  188SLPC  C21821716   3.175   0.673   8.521 -0.0139  0.9259  0.1087
  188SLPC  H18R21717   3.274   0.688   8.474 -1.1395 -0.0303 -2.7010
  188SLPC  H18S21718   3.119   0.582   8.489 -0.3752  0.7115  1.3260
  188SLPC  H18T21719   3.194   0.671   8.630  2.3884 -3.4957 -0.2878
  188SLPC   C3321720   2.527   1.576   7.133 -0.1481  0.5039  0.4850
  188SLPC   H3X21721   2.465   1.484   7.134  2.5840 -1.4607 -2.1141
  188SLPC   H3Y21722   2.502   1.631   7.040 -1.3302  0.1293  0.5724
  188SLPC   C3421723   2.496   1.655   7.257 -0.0996 -0.4761 -0.3626
  188SLPC   H4X21724   2.391   1.692   7.246  0.2037  0.6105  0.3736
  188SLPC   H4Y21725   2.551   1.749   7.280 -2.4299  0.4535  1.6995
  188SLPC   C3521726   2.484   1.560   7.383  0.1759  0.3490  0.3255
  188SLPC   H5X21727   2.579   1.502   7.391  0.5121  0.6532 -1.3749
  188SLPC   H5Y21728   2.404   1.485   7.366  0.7891 -0.5385  1.2472
  188SLPC   C3621729   2.474   1.639   7.510  0.1637 -0.3510 -0.2375
  188SLPC   H6X21730   2.382   1.700   7.501  1.5894  2.1120  1.2338
  188SLPC   H6Y21731   2.555   1.714   7.524 -0.0581 -0.1184 -0.1958
  188SLPC   C3721732   2.480   1.554   7.641  0.4347  0.3002  0.9304
  188SLPC   H7X21733   2.570   1.489   7.650  0.5854  0.6285  1.8572
  188SLPC   H7Y21734   2.391   1.487   7.636 -1.0026  2.2837 -1.3231
  188SLPC   C3821735   2.463   1.655   7.760  0.1672  0.4361  0.2474
  188SLPC   H8X21736   2.374   1.718   7.740 -0.2578 -0.1642  0.2202
  188SLPC   H8Y21737   2.560   1.705   7.779  0.2654  0.4196 -0.2056
  188SLPC   C3921738   2.426   1.585   7.895 -0.4159 -0.5043  0.1248
  188SLPC   H9X21739   2.466   1.654   7.973  1.0883 -0.4821 -0.6377
  188SLPC   H9Y21740   2.486   1.492   7.908 -0.8179 -0.3698  3.3482
  188SLPC  C31021741   2.272   1.566   7.902  0.0264  0.2133  0.3582
  188SLPC  H10X21742   2.228   1.528   7.807 -1.3855  1.8493  0.3268
  188SLPC  H10Y21743   2.244   1.674   7.904 -0.1303  0.1542  1.5019
  188SLPC  C31121744   2.239   1.486   8.030 -0.3815 -0.7032 -0.3227
  188SLPC  H11X21745   2.296   1.532   8.114  0.7343 -1.1817 -0.8109
  188SLPC  H11Y21746   2.272   1.381   8.020 -0.4195 -0.8229  0.8310
  188SLPC  C31221747   2.086   1.482   8.065  0.2719 -0.1358 -0.2348
  188SLPC  H12X21748   2.031   1.430   7.984 -0.0497  3.8253 -2.6810
  188SLPC  H12Y21749   2.054   1.588   8.072 -1.0393 -0.4890 -0.7533
  188SLPC  C31321750   2.053   1.408   8.198  0.4980  0.3615  0.7140
  188SLPC  H13X21751   2.109   1.313   8.203 -1.3512 -0.8707 -1.1078
  188SLPC  H13Y21752   1.943   1.389   8.202  0.5375 -0.2770 -0.8901
  188SLPC  C31421753   2.098   1.497   8.311 -0.0226 -0.4027 -0.1569
  188SLPC  H14X21754   2.050   1.594   8.286 -0.6124 -0.5694  0.3077
  188SLPC  H14Y21755   2.208   1.513   8.302 -0.1164 -0.3433 -1.3077
  188SLPC  C31521756   2.070   1.447   8.454 -0.3035  0.7526 -0.2668
  188SLPC  H15X21757   1.977   1.387   8.443  0.1186  0.2373 -1.1607
  188SLPC  H15Y21758   2.054   1.537   8.517 -1.1064 -0.2419  0.9828
  188SLPC  C31621759   2.186   1.355   8.514  0.2247  0.3094 -0.1427
  188SLPC  H16X21760   2.271   1.422   8.537  0.3356 -0.0582  0.5444
  188SLPC  H16Y21761   2.209   1.281   8.435 -0.2687  1.0117 -0.9539
  188SLPC  C31721762   2.145   1.283   8.646 -0.5026  0.1476 -0.3492
  188SLPC  H17X21763   2.065   1.214   8.612  0.0674 -0.0290 -1.3401
  188SLPC  H17Y21764   2.105   1.360   8.715 -0.5928  0.9194 -1.2703
  188SLPC  C31821765   2.264   1.215   8.709 -0.0192  0.4259 -0.3403
  188SLPC  H18X21766   2.238   1.189   8.814  1.0481  1.4961  0.1995
  188SLPC  H18Y21767   2.354   1.280   8.708  0.6484 -0.5073 -0.9782
  188SLPC  H18Z21768   2.281   1.115   8.664  1.0603  1.3630 -2.0492
  189SLPC     N21769   5.588   3.578   5.977 -0.3256  0.1734  0.0098
  189SLPC   C1321770   5.546   3.724   6.005 -0.3323 -0.6059  0.1770
  189SLPC  H13A21771   5.439   3.738   6.000 -0.0380  1.9175  0.2777
  189SLPC  H13B21772   5.569   3.754   6.106 -1.2202  0.4939  0.0577
  189SLPC  H13C21773   5.605   3.797   5.951  0.5866 -0.9693  0.6819
  189SLPC   C1421774   5.737   3.584   5.992 -0.8279 -0.1758 -0.7755
  189SLPC  H14A21775   5.755   3.588   6.099 -2.1142 -0.1744 -0.5590
  189SLPC  H14B21776   5.776   3.492   5.952  0.2172  0.0782 -0.3732
  189SLPC  H14C21777   5.779   3.669   5.941  0.3418 -1.4143 -1.9173
  189SLPC   C1521778   5.550   3.539   5.837 -0.1078  0.9353  0.2958
  189SLPC  H15A21779   5.588   3.440   5.813 -0.9882  0.2913  1.4709
  189SLPC  H15B21780   5.444   3.540   5.818 -0.0739  2.4820  0.1140
  189SLPC  H15C21781   5.603   3.603   5.769 -0.6296 -0.9834 -1.9970
  189SLPC   C1221782   5.523   3.483   6.081  0.2657  0.3660 -0.0214
  189SLPC  H12A21783   5.561   3.383   6.068  1.0917  0.4926  1.2999
  189SLPC  H12B21784   5.421   3.469   6.049  0.3544 -2.7267  0.8647
  189SLPC   C1121785   5.534   3.522   6.222 -0.5272  1.4841 -0.0411
  189SLPC  H11A21786   5.475   3.611   6.253  0.6633  2.0177  0.7226
  189SLPC  H11B21787   5.641   3.525   6.251  0.4244 -1.9379 -2.9662
  189SLPC     P21788   5.407   3.420   6.431 -0.1534 -0.1474  0.2388
  189SLPC   O1321789   5.263   3.383   6.397  0.4607 -0.3926 -0.4596
  189SLPC   O1421790   5.480   3.337   6.527  0.8219 -0.2851  0.3273
  189SLPC   O1221791   5.477   3.419   6.294 -0.2651  0.5211 -0.3217
  189SLPC   O1121792   5.405   3.577   6.474  0.2536 -0.3352  0.4686
  189SLPC    C121793   5.277   3.654   6.460  0.1555 -0.3426  0.4884
  189SLPC    HA21794   5.293   3.739   6.391  2.5577 -0.8882  0.3328
  189SLPC    HB21795   5.188   3.598   6.423 -1.2869  2.8628 -0.9923
  189SLPC    C221796   5.229   3.722   6.595 -0.1184 -0.1342  0.0519
  189SLPC    HS21797   5.315   3.787   6.623  0.0638 -0.3449 -0.0144
  189SLPC   O2121798   5.205   3.618   6.694  0.4429 -0.2283 -0.2691
  189SLPC   C2121799   5.259   3.650   6.814 -0.1967  0.0972  0.4719
  189SLPC   O2221800   5.340   3.742   6.837 -0.4967  0.4536  0.1914
  189SLPC   C2221801   5.219   3.539   6.913  0.1328  0.1177 -0.7243
  189SLPC   H2R21802   5.144   3.589   6.978 -1.3249 -1.9667 -0.7640
  189SLPC   H2S21803   5.180   3.450   6.860 -1.7155  1.4197 -1.6086
  189SLPC    C321804   5.103   3.811   6.573  0.3405 -0.2385  0.1423
  189SLPC    HX21805   5.025   3.738   6.544  0.3645  1.0744 -3.4573
  189SLPC    HY21806   5.117   3.873   6.482 -0.5419  0.7678  0.6855
  189SLPC   O3121807   5.068   3.895   6.679  0.3177  0.5441 -0.6505
  189SLPC   C3121808   4.987   3.842   6.770  0.1283  0.3129 -0.7385
  189SLPC   O3221809   4.933   3.732   6.760  0.2055  0.0912 -0.0712
  189SLPC   C3221810   4.979   3.942   6.882  0.1600  0.1159  0.5224
  189SLPC   H2X21811   4.958   4.045   6.846  0.0708 -0.3759 -0.8865
  189SLPC   H2Y21812   5.083   3.943   6.922  0.4954 -1.6051 -0.2592
  189SLPC   C2321813   5.333   3.511   7.014 -0.3736  0.3529  0.2834
  189SLPC   H3R21814   5.378   3.607   7.046  1.0885 -0.5117  0.8741
  189SLPC   H3S21815   5.418   3.452   6.974 -0.3589 -0.5598  1.6056
  189SLPC   C2421816   5.270   3.421   7.128  0.2474 -0.7283 -0.5091
  189SLPC   H4R21817   5.253   3.321   7.084  0.8118 -1.3642  0.6909
  189SLPC   H4S21818   5.177   3.474   7.158  1.4915  1.0186  0.3916
  189SLPC   C2521819   5.356   3.413   7.255  0.1916  0.4916  0.3675
  189SLPC   H5R21820   5.399   3.510   7.287  0.7289  0.4682 -0.2863
  189SLPC   H5S21821   5.441   3.345   7.233  0.8840  1.8345 -1.1806
  189SLPC   C2621822   5.278   3.359   7.371  0.1458 -0.0156 -0.4374
  189SLPC   H6R21823   5.264   3.250   7.353 -1.6089  0.3941 -1.6571
  189SLPC   H6S21824   5.174   3.398   7.367  0.9126  2.1723  0.2093
  189SLPC   C2721825   5.342   3.389   7.508  0.3342  0.3124  0.3622
  189SLPC   H7R21826   5.359   3.498   7.507  2.1381  0.0581 -1.4013
  189SLPC   H7S21827   5.440   3.337   7.520 -0.3998 -0.9759  0.9031
  189SLPC   C2821828   5.246   3.369   7.633 -0.3552  0.3168  0.1123
  189SLPC   H8R21829   5.155   3.432   7.624  1.4791  2.7098 -2.1966
  189SLPC   H8S21830   5.295   3.409   7.724  0.0844  2.1576 -0.9095
  189SLPC   C2921831   5.199   3.224   7.645  0.1118  0.0167  0.5581
  189SLPC   H9R21832   5.167   3.187   7.547 -0.5065 -1.4761  1.3042
  189SLPC  C21021833   5.217   3.141   7.751 -0.2158  0.5273 -0.9691
  189SLPC  H10R21834   5.188   3.035   7.747  1.0607  0.1601 -0.4068
  189SLPC  C21121835   5.278   3.185   7.885  0.5724 -0.3214  0.5653
  189SLPC  H11R21836   5.380   3.224   7.864 -0.2054  1.4185 -0.0689
  189SLPC  H11S21837   5.303   3.099   7.951  2.6621  0.7294  1.1793
  189SLPC  C21221838   5.201   3.289   7.963  0.6691 -0.3323  0.9506
  189SLPC  H12R21839   5.242   3.388   7.938 -1.3067  0.0826 -0.7816
  189SLPC  C21321840   5.096   3.272   8.048  0.6744  0.5034 -0.5092
  189SLPC  H13R21841   5.046   3.357   8.096 -0.1219  0.6119 -1.5205
  189SLPC  C21421842   5.026   3.137   8.074  0.6189 -0.0673 -0.0724
  189SLPC  H14R21843   5.086   3.053   8.033  1.2744 -0.0157  0.7671
  189SLPC  H14S21844   4.929   3.132   8.019  0.0778 -1.4665  0.9946
  189SLPC  C21521845   5.006   3.111   8.224  0.3925  0.5633  0.4592
  189SLPC  H15R21846   5.096   3.140   8.282 -0.2701  1.1489  1.2203
  189SLPC  H15S21847   4.982   3.003   8.238 -1.0617  0.3529 -3.1200
  189SLPC  C21621848   4.862   3.170   8.276 -0.5100  0.4573 -0.0681
  189SLPC  H16R21849   4.851   3.281   8.284 -1.6457  0.0873  4.2730
  189SLPC  H16S21850   4.847   3.126   8.376  0.0591 -0.1383 -0.2450
  189SLPC  C21721851   4.742   3.129   8.189  0.2288  0.2835 -0.5076
  189SLPC  H17R21852   4.758   3.026   8.151 -0.2767 -0.1970  0.5684
  189SLPC  H17S21853   4.737   3.185   8.093  2.1923  0.8391 -0.3087
  189SLPC  C21821854   4.608   3.131   8.272  0.6488  0.1681  0.2430
  189SLPC  H18R21855   4.530   3.081   8.210  0.7723  1.2112 -0.7788
  189SLPC  H18S21856   4.578   3.236   8.292 -1.5153 -0.4469  0.3454
  189SLPC  H18T21857   4.630   3.072   8.363 -1.2102 -2.2292 -0.7960
  189SLPC   C3321858   4.905   3.890   7.009  0.5424  0.1938  0.2841
  189SLPC   H3X21859   4.943   3.791   7.042 -2.4154 -0.9249  0.4678
  189SLPC   H3Y21860   4.798   3.895   6.983  0.7324 -0.5246 -0.6784
  189SLPC   C3421861   4.939   3.997   7.125  0.6241 -0.1064  0.4207
  189SLPC   H4X21862   4.928   4.103   7.094  0.4578 -0.5107 -0.9209
  189SLPC   H4Y21863   5.046   3.980   7.148  0.5960 -0.3932  0.3372
  189SLPC   C3521864   4.840   3.978   7.242  0.5154 -0.0751 -0.0550
  189SLPC   H5X21865   4.830   3.869   7.259 -1.3567  0.3105  1.5115
  189SLPC   H5Y21866   4.739   4.019   7.219  0.0798 -0.5078  1.0717
  189SLPC   C3621867   4.896   4.039   7.373  0.1346 -0.1008  0.2453
  189SLPC   H6X21868   4.897   4.150   7.368  0.4041 -0.0562  1.2445
  189SLPC   H6Y21869   4.998   3.997   7.380  0.3101  0.3068  0.1289
  189SLPC   C3721870   4.805   3.996   7.482 -0.3331  0.1221  0.9159
  189SLPC   H7X21871   4.802   3.886   7.497 -2.2086  0.0623  0.1759
  189SLPC   H7Y21872   4.707   4.032   7.446  0.4352  0.3333 -1.0422
  189SLPC   C3821873   4.843   4.050   7.619  0.3192  0.1322  0.4108
  189SLPC   H8X21874   4.834   4.161   7.617 -0.7416  0.0333 -0.6633
  189SLPC   H8Y21875   4.943   4.021   7.659  0.6126  0.5753 -0.0015
  189SLPC   C3921876   4.754   3.993   7.723 -1.1592 -0.1389  0.2335
  189SLPC   H9X21877   4.772   3.886   7.747 -0.5563 -0.3068 -0.9557
  189SLPC   H9Y21878   4.649   4.012   7.693 -1.5649 -0.0366  1.7009
  189SLPC  C31021879   4.767   4.067   7.858 -0.2033 -0.3351  0.4439
  189SLPC  H10X21880   4.722   4.167   7.840  0.7009  0.2667  1.4777
  189SLPC  H10Y21881   4.875   4.083   7.880  0.0418 -2.4610  0.8047
  189SLPC  C31121882   4.689   3.992   7.968 -0.1166  0.6199 -0.3298
  189SLPC  H11X21883   4.728   3.888   7.967  0.8226  0.9684 -0.5754
  189SLPC  H11Y21884   4.583   3.998   7.935  0.0069 -0.0807 -0.8505
  189SLPC  C31221885   4.710   4.051   8.107  0.0704  0.2357  0.2189
  189SLPC  H12X21886   4.709   4.162   8.097  0.1523  0.3756  1.7424
  189SLPC  H12Y21887   4.815   4.026   8.133  0.5531  1.0463 -0.8918
  189SLPC  C31321888   4.618   4.010   8.216  0.1278  0.9525 -0.7856
  189SLPC  H13X21889   4.586   3.904   8.209 -0.6034  1.1104  0.0531
  189SLPC  H13Y21890   4.525   4.070   8.212 -0.2613  1.3092  6.2271
  189SLPC  C31421891   4.674   4.036   8.361 -0.1189  0.5769 -0.0163
  189SLPC  H14X21892   4.685   4.145   8.378 -1.0306  0.6344  0.2166
  189SLPC  H14Y21893   4.778   3.999   8.366 -0.0088  0.3877 -2.7614
  189SLPC  C31521894   4.581   3.970   8.458  0.1540 -0.3296 -0.3413
  189SLPC  H15X21895   4.599   4.010   8.560  1.2981  0.8231 -0.9834
  189SLPC  H15Y21896   4.589   3.859   8.457  0.4647 -0.3161 -2.2244
  189SLPC  C31621897   4.438   4.013   8.449 -0.7184 -0.7432  0.0510
  189SLPC  H16X21898   4.399   3.950   8.366  2.1644 -1.4494 -0.8471
  189SLPC  H16Y21899   4.433   4.118   8.414  0.2859  0.0142  2.1088
  189SLPC  C31721900   4.341   3.994   8.559  0.0142 -0.1338 -0.5448
  189SLPC  H17X21901   4.364   3.904   8.620  0.8240 -1.6376 -2.9983
  189SLPC  H17Y21902   4.239   3.978   8.518 -0.0779  1.1813 -0.8391
  189SLPC  C31821903   4.345   4.117   8.654 -0.2984  0.1180 -0.0493
  189SLPC  H18X21904   4.439   4.175   8.663 -1.3359  1.8498 -0.1966
  189SLPC  H18Y21905   4.302   4.099   8.755  1.3667 -1.0084  0.4698
  189SLPC  H18Z21906   4.275   4.196   8.619 -0.1785 -0.2866 -1.2231
  190SLPC     N21907   5.282   2.476   6.331 -0.2950 -0.0554 -0.1307
  190SLPC   C1321908   5.401   2.536   6.269 -0.4014 -0.0006 -0.4553
  190SLPC  H13A21909   5.462   2.578   6.347 -0.0484 -0.3972 -0.5154
  190SLPC  H13B21910   5.454   2.458   6.216  1.2837  2.7993 -3.0034
  190SLPC  H13C21911   5.387   2.613   6.195 -0.3365  1.8980  1.4801
  190SLPC   C1421912   5.340   2.385   6.429 -0.2341 -0.6122 -0.0166
  190SLPC  H14A21913   5.409   2.312   6.388  1.3553 -1.1227  3.3897
  190SLPC  H14B21914   5.401   2.431   6.505  0.7209 -1.5688 -0.1788
  190SLPC  H14C21915   5.263   2.331   6.481  0.6024 -0.9586  0.8775
  190SLPC   C1521916   5.199   2.396   6.238  0.4258  0.0160 -0.2371
  190SLPC  H15A21917   5.119   2.348   6.293 -0.1816  0.0021 -1.1282
  190SLPC  H15B21918   5.154   2.448   6.155 -2.5807  0.3964  1.5178
  190SLPC  H15C21919   5.249   2.312   6.194  1.7798  0.2815  0.7764
  190SLPC   C1221920   5.206   2.586   6.401  0.3342  0.4043 -0.0676
  190SLPC  H12A21921   5.265   2.629   6.479 -0.3030  0.0651  0.6108
  190SLPC  H12B21922   5.122   2.544   6.454  2.1889 -1.8521  1.1577
  190SLPC   C1121923   5.154   2.704   6.313  0.2625  0.8159  0.1444
  190SLPC  H11A21924   5.072   2.752   6.370  0.5111  0.1795  1.0626
  190SLPC  H11B21925   5.120   2.650   6.222 -1.6044 -2.1617  2.4778
  190SLPC     P21926   5.283   2.903   6.407 -0.4066 -0.3997 -0.3429
  190SLPC   O1321927   5.400   2.985   6.376 -0.2017 -0.2176  0.6613
  190SLPC   O1421928   5.158   2.973   6.438  0.7077  0.2898  0.5901
  190SLPC   O1221929   5.255   2.796   6.288 -0.0080  0.0546 -0.8330
  190SLPC   O1121930   5.322   2.813   6.534  0.1518 -0.3354 -0.1913
  190SLPC    C121931   5.457   2.786   6.560  0.2887  0.7534 -0.7835
  190SLPC    HA21932   5.489   2.691   6.511 -2.2299 -0.6486  0.1983
  190SLPC    HB21933   5.526   2.870   6.538  1.2408  0.1763 -0.0591
  190SLPC    C221934   5.470   2.746   6.707 -0.5534  0.2286  0.6421
  190SLPC    HS21935   5.523   2.830   6.756  1.4218 -0.2540 -0.6336
  190SLPC   O2121936   5.540   2.625   6.718  0.2949 -0.3214 -0.2772
  190SLPC   C2121937   5.677   2.627   6.725  0.5405  0.1101  0.7975
  190SLPC   O2221938   5.752   2.720   6.693 -0.3697  0.7008 -0.4332
  190SLPC   C2221939   5.720   2.486   6.774 -0.0800  0.4053  1.0397
  190SLPC   H2R21940   5.624   2.447   6.816 -2.0576  1.3541 -2.3935
  190SLPC   H2S21941   5.735   2.427   6.681  0.2297 -0.7482  1.8033
  190SLPC    C321942   5.337   2.737   6.782  0.6740 -0.2785  0.1725
  190SLPC    HX21943   5.280   2.656   6.732  1.8273 -1.7732  1.2210
  190SLPC    HY21944   5.283   2.833   6.773  0.3712 -0.6477 -2.2491
  190SLPC   O3121945   5.365   2.709   6.922 -0.6360  0.3468 -0.6704
  190SLPC   C3121946   5.286   2.611   6.978 -0.4730 -0.0960 -0.0035
  190SLPC   O3221947   5.181   2.578   6.925  0.0660  0.3824 -0.5877
  190SLPC   C3221948   5.351   2.554   7.109 -0.3451  0.2309  0.3009
  190SLPC   H2X21949   5.451   2.602   7.120 -0.0439 -0.9463  3.0211
  190SLPC   H2Y21950   5.349   2.446   7.084  0.7243  0.1154  0.6785
  190SLPC   C2321951   5.852   2.472   6.863 -0.1931  0.1215 -0.2756
  190SLPC   H3R21952   5.937   2.518   6.808  0.3334  1.0024  1.2219
  190SLPC   H3S21953   5.864   2.363   6.880  0.3858 -0.0528 -1.7500
  190SLPC   C2421954   5.846   2.531   7.009 -0.1323 -0.2218 -0.8388
  190SLPC   H4R21955   5.748   2.494   7.046 -0.9592  0.6491 -2.1386
  190SLPC   H4S21956   5.848   2.642   7.015 -0.8049 -0.3007  1.4341
  190SLPC   C2521957   5.950   2.471   7.105  0.0246 -0.0120 -0.0156
  190SLPC   H5R21958   6.034   2.543   7.096 -2.1269  2.3906 -1.3132
  190SLPC   H5S21959   5.985   2.370   7.073 -1.7326 -0.8972  0.7874
  190SLPC   C2621960   5.892   2.458   7.248 -0.1058  0.3313  0.1056
  190SLPC   H6R21961   5.841   2.360   7.263  1.1248 -0.2727  0.4241
  190SLPC   H6S21962   5.829   2.547   7.269  3.5122  2.9613  0.3273
  190SLPC   C2721963   5.995   2.470   7.365  0.0661  0.0824 -0.0567
  190SLPC   H7R21964   6.054   2.563   7.363  1.4231 -0.7577  0.5793
  190SLPC   H7S21965   6.055   2.377   7.353  0.0276  0.3417 -2.3506
  190SLPC   C2821966   5.926   2.459   7.497 -0.2244  0.0265 -0.0657
  190SLPC   H8R21967   5.868   2.365   7.485 -0.4637  0.1403  0.1933
  190SLPC   H8S21968   5.850   2.538   7.510  0.8701  1.3924 -1.7818
  190SLPC   C2921969   6.024   2.458   7.616  0.2820 -0.3675 -0.2107
  190SLPC   H9R21970   6.077   2.552   7.637 -0.9416 -0.3606  3.0581
  190SLPC  C21021971   6.048   2.361   7.704  0.4389  0.1742  0.3756
  190SLPC  H10R21972   6.122   2.377   7.784  1.4696  0.0421 -0.5287
  190SLPC  C21121973   5.976   2.226   7.706 -0.1098 -0.0641 -0.1524
  190SLPC  H11R21974   5.879   2.224   7.652 -2.0696 -0.9079  3.2538
  190SLPC  H11S21975   5.949   2.203   7.811 -0.5805 -4.2694 -1.0676
  190SLPC  C21221976   6.078   2.121   7.665  0.1905  0.3471 -0.4236
  190SLPC  H12R21977   6.172   2.118   7.722  0.1852 -2.6763 -0.5209
  190SLPC  C21321978   6.044   2.021   7.579  0.4468  0.2021  0.4022
  190SLPC  H13R21979   6.113   1.937   7.562  0.4789  0.4853 -0.9136
  190SLPC  C21421980   5.907   2.011   7.519 -0.3496 -0.0571 -0.4185
  190SLPC  H14R21981   5.869   2.114   7.502  1.1049  0.2794 -1.7557
  190SLPC  H14S21982   5.840   1.970   7.597  2.5359  0.8797  2.6766
  190SLPC  C21521983   5.899   1.942   7.376  0.2381 -0.0645 -0.6785
  190SLPC  H15R21984   5.790   1.947   7.355  0.3688 -0.9857 -1.5938
  190SLPC  H15S21985   5.926   1.835   7.389 -3.3749 -0.7559  2.1279
  190SLPC  C21621986   5.974   2.024   7.271 -0.0411 -0.1241 -0.3945
  190SLPC  H16R21987   6.083   2.020   7.290 -0.0010 -1.5089 -0.8642
  190SLPC  H16S21988   5.933   2.127   7.282 -0.3950 -0.4473  1.4461
  190SLPC  C21721989   5.944   1.976   7.128 -0.5462 -0.3861  0.0019
  190SLPC  H17R21990   5.838   1.957   7.099 -0.1044 -2.3973 -0.3896
  190SLPC  H17S21991   5.995   1.878   7.114 -0.7886 -0.1570 -2.9577
  190SLPC  C21821992   6.007   2.060   7.019  0.1654 -0.0024 -0.1311
  190SLPC  H18R21993   6.003   2.010   6.920 -0.4130  0.0840 -0.1534
  190SLPC  H18S21994   6.112   2.089   7.040 -0.1956  2.3287 -1.4408
  190SLPC  H18T21995   5.953   2.156   7.005  1.2412  0.6087 -0.1058
  190SLPC   C3321996   5.272   2.572   7.243 -0.8799 -0.4716 -0.0271
  190SLPC   H3X21997   5.260   2.681   7.260  4.0810 -0.1718  2.4889
  190SLPC   H3Y21998   5.317   2.513   7.326 -0.7893 -1.6247 -0.8757
  190SLPC   C3421999   5.138   2.501   7.241 -0.2605  0.3949 -0.2495
  190SLPC   H4X22000   5.140   2.412   7.174  1.4619 -0.5865  1.0626
  190SLPC   H4Y22001   5.054   2.559   7.197 -1.4419  0.4286  1.9950
  190SLPC   C3522002   5.077   2.454   7.368 -0.0937  0.6447 -0.3943
  190SLPC   H5X22003   4.969   2.429   7.357 -0.1638  0.7622  0.0314
  190SLPC   H5Y22004   5.099   2.524   7.451 -0.2032 -0.2210  0.3616
  190SLPC   C3622005   5.136   2.323   7.423  0.1475  0.4717  0.3974
  190SLPC   H6X22006   5.244   2.338   7.446  0.1710  1.9790 -0.5693
  190SLPC   H6Y22007   5.138   2.245   7.344  0.4280  0.4529  0.4223
  190SLPC   C3722008   5.084   2.265   7.557 -0.0900 -0.3562  0.4859
  190SLPC   H7X22009   4.980   2.225   7.551 -0.1097 -0.1203 -0.9694
  190SLPC   H7Y22010   5.087   2.347   7.631  0.0121  1.1414 -1.1546
  190SLPC   C3822011   5.165   2.144   7.605 -0.3191 -0.6330  0.0230
  190SLPC   H8X22012   5.270   2.178   7.604 -0.9217  1.3234  0.5647
  190SLPC   H8Y22013   5.150   2.063   7.531 -1.2173 -0.4930  0.0462
  190SLPC   C3922014   5.122   2.096   7.743 -0.0067 -1.0373 -0.2583
  190SLPC   H9X22015   5.023   2.045   7.739 -0.0017 -0.9632 -1.4896
  190SLPC   H9Y22016   5.116   2.176   7.820 -1.4746 -2.2474  0.9087
  190SLPC  C31022017   5.222   1.989   7.792  0.4984 -0.1533 -0.1477
  190SLPC  H10X22018   5.325   2.024   7.813  0.4142 -0.5549  0.9517
  190SLPC  H10Y22019   5.242   1.918   7.709 -1.5045  0.6026 -1.3346
  190SLPC  C31122020   5.167   1.897   7.900  0.1712 -0.1450 -0.5860
  190SLPC  H11X22021   5.233   1.811   7.921  0.1827 -0.3460 -1.4403
  190SLPC  H11Y22022   5.080   1.843   7.856  0.2735 -1.6505  0.9920
  190SLPC  C31222023   5.121   1.957   8.025  0.6298 -0.4388  0.4359
  190SLPC  H12X22024   5.031   2.020   8.008  1.5708  1.1256  1.1035
  190SLPC  H12Y22025   5.206   2.020   8.059 -0.3926  0.2162  1.8071
  190SLPC  C31322026   5.094   1.865   8.140  0.5088 -0.3075 -0.3654
  190SLPC  H13X22027   5.015   1.791   8.116 -0.0251  0.8748 -2.4010
  190SLPC  H13Y22028   5.044   1.920   8.222  2.3246  0.9343 -0.0714
  190SLPC  C31422029   5.212   1.809   8.211  0.0567 -0.1853 -0.4064
  190SLPC  H14X22030   5.292   1.886   8.201  0.8674 -1.2589 -2.4428
  190SLPC  H14Y22031   5.254   1.715   8.170 -1.5807 -1.5113  0.9291
  190SLPC  C31522032   5.184   1.769   8.364 -0.3761 -0.4724  0.1145
  190SLPC  H15X22033   5.134   1.672   8.385  0.6607 -0.8678  0.7945
  190SLPC  H15Y22034   5.123   1.847   8.413 -1.6759 -1.7165  0.5231
  190SLPC  C31622035   5.320   1.744   8.436  0.0998 -0.1831 -0.3019
  190SLPC  H16X22036   5.387   1.823   8.396  2.6690 -1.0568  2.0834
  190SLPC  H16Y22037   5.370   1.649   8.410 -0.3173 -1.1160  2.2000
  190SLPC  C31722038   5.306   1.765   8.587 -0.1401  0.5560  0.6192
  190SLPC  H17X22039   5.224   1.708   8.635 -0.7853 -0.3493 -1.5037
  190SLPC  H17Y22040   5.263   1.867   8.600 -0.1087  0.3793  2.2377
  190SLPC  C31822041   5.443   1.732   8.642 -0.0954  0.5826  0.3477
  190SLPC  H18X22042   5.488   1.638   8.603  0.7414  1.2610 -0.3487
  190SLPC  H18Y22043   5.431   1.714   8.751 -1.2584 -0.3861  0.0634
  190SLPC  H18Z22044   5.517   1.812   8.623 -0.6657  0.8876 -0.6030
  191SLPC     N22045   5.375   4.916   5.555 -0.7655 -0.2080 -0.7086
  191SLPC   C1322046   5.438   4.810   5.475  1.0642  0.4884  0.4542
  191SLPC  H13A22047   5.525   4.842   5.419 -0.6014  0.3784 -2.3087
  191SLPC  H13B22048   5.471   4.728   5.536  3.3914  0.6709 -0.5363
  191SLPC  H13C22049   5.370   4.784   5.395  1.1713 -2.8954  1.4027
  191SLPC   C1422050   5.243   4.869   5.604 -0.2151  0.4920 -1.1106
  191SLPC  H14A22051   5.249   4.781   5.667  2.6412  1.0763 -0.4793
  191SLPC  H14B22052   5.193   4.947   5.660  0.1169 -0.0908  0.0221
  191SLPC  H14C22053   5.189   4.844   5.514 -0.3283  1.5100 -1.3274
  191SLPC   C1522054   5.358   5.034   5.464 -0.3693  0.4069  0.2389
  191SLPC  H15A22055   5.453   5.065   5.424  0.0515 -0.7047  0.3733
  191SLPC  H15B22056   5.291   5.021   5.380 -0.4499 -0.2792  0.4049
  191SLPC  H15C22057   5.332   5.121   5.522  0.9077  0.4277  0.7920
  191SLPC   C1222058   5.475   4.939   5.674  0.3168  0.6634  0.1129
  191SLPC  H12A22059   5.461   5.033   5.725  2.4986  2.2150 -2.0417
  191SLPC  H12B22060   5.575   4.952   5.635  1.1240 -2.0024  1.1682
  191SLPC   C1122061   5.490   4.827   5.780  0.9201  0.1973 -0.5193
  191SLPC  H11A22062   5.388   4.806   5.816  0.3720  0.0410 -2.1064
  191SLPC  H11B22063   5.551   4.869   5.863 -1.2413  0.8849  0.7469
  191SLPC     P22064   5.558   4.577   5.803 -0.4514 -0.1387 -0.6095
  191SLPC   O1322065   5.463   4.481   5.742  0.2724 -0.5088 -0.3610
  191SLPC   O1422066   5.690   4.520   5.798 -0.3082  0.3404 -0.2711
  191SLPC   O1222067   5.549   4.712   5.725 -0.7040 -0.2075 -0.6203
  191SLPC   O1122068   5.517   4.608   5.949 -0.5243  0.1053 -0.1783
  191SLPC    C122069   5.484   4.504   6.044  0.0588  0.4178  0.0913
  191SLPC    HA22070   5.536   4.410   6.015  0.3553  1.1078 -1.6771
  191SLPC    HB22071   5.518   4.531   6.146  0.2135  0.8131 -0.0642
  191SLPC    C222072   5.328   4.467   6.045 -0.0885 -0.2217 -0.0140
  191SLPC    HS22073   5.300   4.447   5.940  0.9760  0.8542 -0.5082
  191SLPC   O2122074   5.262   4.574   6.109  0.2216 -0.0835  0.4156
  191SLPC   C2122075   5.170   4.639   6.037  0.0476 -0.2113  0.1441
  191SLPC   O2222076   5.141   4.614   5.921  0.1560 -0.0307  0.1951
  191SLPC   C2222077   5.086   4.731   6.126 -0.1658  0.1702  0.1229
  191SLPC   H2R22078   5.040   4.806   6.059 -0.3750 -0.0344  0.0372
  191SLPC   H2S22079   4.996   4.673   6.156 -0.1180  0.4550  0.8205
  191SLPC    C322080   5.293   4.339   6.129  0.4409  0.5531  0.2626
  191SLPC    HX22081   5.336   4.254   6.072 -1.6630  0.9700 -2.0381
  191SLPC    HY22082   5.182   4.338   6.124  0.3548  0.9444  1.8138
  191SLPC   O3122083   5.357   4.355   6.253 -0.8187  0.8786 -0.5715
  191SLPC   C3122084   5.377   4.244   6.319 -0.1234 -0.4906 -0.3134
  191SLPC   O3222085   5.323   4.139   6.297 -0.4296 -0.0259  0.2529
  191SLPC   C3222086   5.476   4.264   6.431  0.0991 -0.3085 -0.1470
  191SLPC   H2X22087   5.540   4.348   6.395  0.4737 -0.3036  0.5279
  191SLPC   H2Y22088   5.547   4.179   6.422  1.7276  1.2038 -2.3779
  191SLPC   C2322089   5.165   4.796   6.242  0.0524  0.2344 -0.2938
  191SLPC   H3R22090   5.243   4.860   6.197  1.0894 -1.4512 -0.9232
  191SLPC   H3S22091   5.206   4.728   6.319 -0.3000  0.2113 -0.1239
  191SLPC   C2422092   5.063   4.883   6.312 -0.1960 -0.2615 -0.2783
  191SLPC   H4R22093   4.975   4.821   6.343  0.4681 -1.1110 -0.0714
  191SLPC   H4S22094   5.028   4.957   6.237 -1.8515  1.0736  1.7267
  191SLPC   C2522095   5.107   4.971   6.430 -0.4005 -0.3094 -0.5557
  191SLPC   H5R22096   5.119   5.069   6.379 -0.2884 -1.6003 -3.1361
  191SLPC   H5S22097   5.209   4.937   6.455  0.4791  0.6320 -2.6820
  191SLPC   C2622098   5.001   4.976   6.546 -0.3212  0.0374 -0.1184
  191SLPC   H6R22099   5.040   5.056   6.613  2.1493 -0.4120 -0.9802
  191SLPC   H6S22100   5.001   4.879   6.600  1.8191  0.4043  0.6002
  191SLPC   C2722101   4.860   5.023   6.503  0.2852 -0.2797  0.0667
  191SLPC   H7R22102   4.821   4.941   6.439 -2.2398  1.6353 -0.9504
  191SLPC   H7S22103   4.885   5.113   6.443  1.6653 -2.5181 -2.8622
  191SLPC   C2822104   4.772   5.048   6.630 -0.7983 -0.5280 -0.1511
  191SLPC   H8R22105   4.819   5.111   6.709 -0.1879  2.1204 -2.5262
  191SLPC   H8S22106   4.751   4.948   6.673 -1.2155 -0.7059 -0.7528
  191SLPC   C2922107   4.635   5.086   6.572  0.6456  0.1920  0.0469
  191SLPC   H9R22108   4.625   5.039   6.473  1.5520  0.4117 -0.1514
  191SLPC  C21022109   4.534   5.152   6.630 -0.7710  0.2947 -0.3106
  191SLPC  H10R22110   4.440   5.172   6.576 -0.1943  1.2163 -0.9862
  191SLPC  C21122111   4.549   5.224   6.762 -0.8721 -0.2018  0.1384
  191SLPC  H11R22112   4.590   5.326   6.745  0.1836 -0.4613  1.0279
  191SLPC  H11S22113   4.629   5.166   6.814  0.4154  0.4439 -1.0750
  191SLPC  C21222114   4.433   5.224   6.862  0.2459  0.4743  0.3282
  191SLPC  H12R22115   4.401   5.125   6.898  1.7069 -1.0747 -2.4534
  191SLPC  C21322116   4.381   5.326   6.930  0.2181  0.2974  0.0575
  191SLPC  H13R22117   4.294   5.304   6.994 -1.4337 -1.7904 -2.7629
  191SLPC  C21422118   4.402   5.475   6.930  0.2292  0.0124  0.5686
  191SLPC  H14R22119   4.311   5.532   6.899  1.2274  0.3048 -1.8896
  191SLPC  H14S22120   4.482   5.501   6.857 -0.1045  0.5582  0.3922
  191SLPC  C21522121   4.455   5.537   7.059 -0.0021 -0.1315 -0.3274
  191SLPC  H15R22122   4.468   5.647   7.050  0.8448 -0.2751 -0.9357
  191SLPC  H15S22123   4.556   5.495   7.077 -0.1022  0.4455  1.6588
  191SLPC  C21622124   4.367   5.504   7.185  0.2216 -0.5679  0.1296
  191SLPC  H16R22125   4.362   5.394   7.202  1.1039 -1.0594 -2.5902
  191SLPC  H16S22126   4.276   5.565   7.164  1.1231  0.0645 -2.1243
  191SLPC  C21722127   4.434   5.560   7.312  0.1889 -0.5519 -0.0189
  191SLPC  H17R22128   4.420   5.669   7.327  0.0042 -0.4983 -0.5515
  191SLPC  H17S22129   4.542   5.545   7.291 -0.4192 -3.1049 -1.4781
  191SLPC  C21822130   4.391   5.479   7.434  0.7321  0.0166  0.7370
  191SLPC  H18R22131   4.410   5.370   7.424 -0.9043 -0.3848  1.8378
  191SLPC  H18S22132   4.284   5.488   7.463 -0.0466 -0.7253 -1.7102
  191SLPC  H18T22133   4.430   5.510   7.533  1.0535  1.6474  0.1253
  191SLPC   C3322134   5.415   4.280   6.570  0.3478 -0.8548  0.2827
  191SLPC   H3X22135   5.327   4.346   6.558 -0.8397 -2.6511 -1.1964
  191SLPC   H3Y22136   5.491   4.341   6.624  0.8728  0.7916 -2.2606
  191SLPC   C3422137   5.371   4.149   6.635 -0.2216  0.1823 -0.0839
  191SLPC   H4X22138   5.453   4.074   6.644 -0.0063 -0.1137 -3.7211
  191SLPC   H4Y22139   5.287   4.100   6.580 -1.5064  0.2254  1.7863
  191SLPC   C3522140   5.311   4.168   6.780  1.3281 -0.6866 -0.0499
  191SLPC   H5X22141   5.396   4.203   6.843  2.8703 -3.6987 -0.3291
  191SLPC   H5Y22142   5.272   4.075   6.827  1.5679 -0.0491  1.4336
  191SLPC   C3622143   5.192   4.260   6.790 -0.2518 -0.2870 -0.1711
  191SLPC   H6X22144   5.119   4.217   6.718 -0.1454  1.0750 -1.1157
  191SLPC   H6Y22145   5.221   4.363   6.759 -0.7169 -0.2438 -0.4737
  191SLPC   C3722146   5.130   4.277   6.930  0.0551 -0.6229  0.5629
  191SLPC   H7X22147   5.123   4.171   6.961  2.3242 -1.1662 -0.7184
  191SLPC   H7Y22148   5.028   4.320   6.916  0.4474 -0.1426 -0.9556
  191SLPC   C3822149   5.209   4.354   7.027  0.1238 -0.1247  0.0496
  191SLPC   H8X22150   5.198   4.455   6.983 -0.7217  0.4714  1.5941
  191SLPC   H8Y22151   5.317   4.334   7.043  0.1949  2.9704  4.3669
  191SLPC   C3922152   5.153   4.343   7.172 -0.3934 -0.2925  0.0937
  191SLPC   H9X22153   5.166   4.237   7.202 -3.1274 -0.9096 -0.6980
  191SLPC   H9Y22154   5.043   4.359   7.171 -0.8095 -2.5832  2.8163
  191SLPC  C31022155   5.215   4.442   7.276  0.4783  0.5419  0.6896
  191SLPC  H10X22156   5.212   4.542   7.229  0.3983 -0.5737 -1.7668
  191SLPC  H10Y22157   5.319   4.404   7.284  0.1095 -0.9603 -1.2642
  191SLPC  C31122158   5.143   4.442   7.412  0.6067 -0.4234  0.1731
  191SLPC  H11X22159   5.136   4.339   7.453  1.3193 -0.9903 -1.0933
  191SLPC  H11Y22160   5.045   4.494   7.401 -0.3421 -1.8684  1.6233
  191SLPC  C31222161   5.201   4.534   7.520 -0.2189 -0.0431 -0.5319
  191SLPC  H12X22162   5.190   4.638   7.482 -0.5955  0.7937  1.7623
  191SLPC  H12Y22163   5.308   4.511   7.542 -0.2139  0.4230 -0.0689
  191SLPC  C31322164   5.133   4.524   7.656  0.4915  0.1880  0.2932
  191SLPC  H13X22165   5.027   4.555   7.639  0.1279 -0.6234  0.9949
  191SLPC  H13Y22166   5.176   4.608   7.715  2.5404  2.4702 -4.2111
  191SLPC  C31422167   5.141   4.383   7.721  0.5258 -0.3776  0.0035
  191SLPC  H14X22168   5.237   4.336   7.693  0.2581 -1.2101  0.4587
  191SLPC  H14Y22169   5.050   4.321   7.700  0.3703  0.2036 -1.0511
  191SLPC  C31522170   5.108   4.406   7.873 -0.8423  0.0811 -0.2183
  191SLPC  H15X22171   5.093   4.312   7.931  1.1867 -1.2647 -1.8116
  191SLPC  H15Y22172   5.012   4.462   7.870  0.4772  2.2811 -4.1966
  191SLPC  C31622173   5.215   4.480   7.952  0.5500  0.8192 -0.4571
  191SLPC  H16X22174   5.218   4.585   7.916  1.6165  1.0422  0.2823
  191SLPC  H16Y22175   5.316   4.433   7.950 -0.4417 -1.7498  3.5732
  191SLPC  C31722176   5.173   4.489   8.101 -0.1821 -0.1623 -0.6020
  191SLPC  H17X22177   5.250   4.556   8.146 -0.0646 -0.3774 -0.4808
  191SLPC  H17Y22178   5.169   4.388   8.147  0.7111  0.3215  0.5691
  191SLPC  C31822179   5.043   4.568   8.116 -0.5359  0.2801  0.2342
  191SLPC  H18X22180   5.027   4.585   8.225 -0.6697  2.1552 -0.0602
  191SLPC  H18Y22181   4.954   4.512   8.082  0.4791 -2.8119  2.4261
  191SLPC  H18Z22182   5.047   4.670   8.072  0.5151 -0.7864 -2.2134
  192SLPC     N22183   5.764   5.172   6.437  0.6452 -0.0804  0.1626
  192SLPC   C1322184   5.660   5.138   6.335  0.2309  0.3444  0.1820
  192SLPC  H13A22185   5.583   5.214   6.334  0.0631  0.1617 -1.3006
  192SLPC  H13B22186   5.707   5.129   6.239 -1.0897  1.6855 -0.6191
  192SLPC  H13C22187   5.620   5.039   6.352  0.4600 -0.4812 -3.7918
  192SLPC   C1422188   5.802   5.318   6.402 -0.4014  0.0376 -0.2029
  192SLPC  H14A22189   5.721   5.384   6.431 -0.4783  0.1169 -0.5906
  192SLPC  H14B22190   5.882   5.351   6.467 -1.0566 -2.1773  1.7850
  192SLPC  H14C22191   5.835   5.324   6.299 -0.5712 -3.1638 -0.4837
  192SLPC   C1522192   5.886   5.083   6.421 -0.7942  0.5883  0.0962
  192SLPC  H15A22193   5.940   5.105   6.330 -2.3507  1.6799 -0.5802
  192SLPC  H15B22194   5.961   5.101   6.496 -0.8624 -0.4293  0.4192
  192SLPC  H15C22195   5.848   4.982   6.434  0.9959 -0.2899 -1.3500
  192SLPC   C1222196   5.711   5.169   6.578 -0.6342  0.6880 -0.1437
  192SLPC  H12A22197   5.773   5.212   6.655  1.1778 -0.6639 -0.8096
  192SLPC  H12B22198   5.706   5.062   6.595 -0.9131  0.3796 -2.0663
  192SLPC   C1122199   5.568   5.225   6.596 -0.6925  0.7896 -0.7869
  192SLPC  H11A22200   5.543   5.230   6.704 -0.7493  0.1069 -0.7614
  192SLPC  H11B22201   5.496   5.147   6.563 -0.2991 -0.9142  2.2048
  192SLPC     P22202   5.411   5.419   6.536  0.4171  0.2404  0.5753
  192SLPC   O1322203   5.430   5.568   6.541 -1.1148  0.0154 -0.4131
  192SLPC   O1422204   5.320   5.369   6.429 -0.4039 -0.5682  0.1045
  192SLPC   O1222205   5.549   5.351   6.522  0.1748 -0.4992  0.1918
  192SLPC   O1122206   5.351   5.375   6.674 -0.2751  0.5320  0.0604
  192SLPC    C122207   5.244   5.286   6.698 -0.4409  0.0569 -0.2827
  192SLPC    HA22208   5.154   5.338   6.658  1.3242  1.2644 -2.7838
  192SLPC    HB22209   5.253   5.193   6.639 -1.7463  0.9760 -1.9942
  192SLPC    C222210   5.226   5.242   6.851  0.9848 -0.0364 -0.0840
  192SLPC    HS22211   5.171   5.146   6.853 -0.0921  0.5808  2.1117
  192SLPC   O2122212   5.158   5.340   6.934  0.7228 -0.3910 -0.5881
  192SLPC   C2122213   5.030   5.353   6.916  0.0152 -1.0324  0.5770
  192SLPC   O2222214   4.965   5.299   6.830 -0.0550 -0.1547  0.1152
  192SLPC   C2222215   4.974   5.456   7.014 -0.2530 -0.3279 -0.0825
  192SLPC   H2R22216   5.039   5.448   7.104 -1.1657 -1.0080  0.5255
  192SLPC   H2S22217   4.979   5.553   6.961 -2.6175 -1.6219 -2.7647
  192SLPC    C322218   5.362   5.211   6.911  0.0695 -0.0539 -0.3305
  192SLPC    HX22219   5.431   5.295   6.889 -0.1991  0.7639  1.8143
  192SLPC    HY22220   5.395   5.119   6.857  0.6441 -0.5177  0.7869
  192SLPC   O3122221   5.346   5.190   7.053 -0.1220 -0.0546 -0.0136
  192SLPC   C3122222   5.361   5.289   7.136  0.6261 -0.0168 -0.2963
  192SLPC   O3222223   5.401   5.401   7.110 -0.3496 -0.6768  0.1595
  192SLPC   C3222224   5.328   5.242   7.276 -0.6336  0.2802  0.2986
  192SLPC   H2X22225   5.395   5.156   7.296 -0.4581  0.8287  2.1857
  192SLPC   H2Y22226   5.220   5.216   7.275 -1.2439  2.6738  1.0697
  192SLPC   C2322227   4.828   5.429   7.053 -0.0554 -0.3546 -0.2186
  192SLPC   H3R22228   4.763   5.446   6.965  2.2723 -1.8039 -2.2575
  192SLPC   H3S22229   4.796   5.504   7.130 -2.2395  1.1821 -2.5259
  192SLPC   C2422230   4.799   5.285   7.097  0.1211 -0.2224 -0.2487
  192SLPC   H4R22231   4.820   5.220   7.010 -0.1537 -1.1630  0.3826
  192SLPC   H4S22232   4.692   5.276   7.124  0.6180  0.2535  1.9993
  192SLPC   C2522233   4.878   5.229   7.224 -0.1046  0.6785  0.5922
  192SLPC   H5R22234   4.982   5.252   7.195 -0.5525 -0.9996 -2.5338
  192SLPC   H5S22235   4.870   5.118   7.234 -1.0819  0.6158 -0.7809
  192SLPC   C2622236   4.843   5.305   7.355 -0.1304  1.1359  0.4723
  192SLPC   H6R22237   4.823   5.409   7.323  1.3217  0.5913 -2.3742
  192SLPC   H6S22238   4.930   5.301   7.425 -0.3679  2.1660  0.8237
  192SLPC   C2722239   4.721   5.249   7.440 -0.2228 -0.2541 -0.5311
  192SLPC   H7R22240   4.758   5.149   7.469  1.3922  0.5745  0.3005
  192SLPC   H7S22241   4.639   5.218   7.370 -0.4421  0.5813 -0.6540
  192SLPC   C2822242   4.696   5.320   7.572  0.5015  0.4316 -0.1637
  192SLPC   H8R22243   4.673   5.426   7.546 -3.2257 -0.5697 -1.2314
  192SLPC   H8S22244   4.797   5.322   7.620 -0.9632 -0.3215  3.0446
  192SLPC   C2922245   4.587   5.260   7.658 -0.9704  0.4422 -0.5577
  192SLPC   H9R22246   4.532   5.175   7.614 -2.7128  1.3009 -0.0994
  192SLPC  C21022247   4.557   5.279   7.789  0.1598 -0.6737  0.2756
  192SLPC  H10R22248   4.483   5.209   7.832  0.7067 -0.8584  0.9135
  192SLPC  C21122249   4.613   5.386   7.875 -0.1724  0.7420  0.1099
  192SLPC  H11R22250   4.721   5.395   7.850  0.2429  0.8359  1.8664
  192SLPC  H11S22251   4.604   5.361   7.983 -0.7796  0.5896  0.0247
  192SLPC  C21222252   4.547   5.513   7.844  0.8165 -0.0222  0.6975
  192SLPC  H12R22253   4.522   5.527   7.738  0.2887  3.3329  1.1892
  192SLPC  C21322254   4.533   5.621   7.927 -0.3115  0.3637 -0.8172
  192SLPC  H13R22255   4.486   5.717   7.902 -0.5132  0.5302  0.1535
  192SLPC  C21422256   4.578   5.634   8.070  0.3052 -0.8421 -0.0245
  192SLPC  H14R22257   4.619   5.737   8.073 -2.3792  0.2441  1.0230
  192SLPC  H14S22258   4.668   5.575   8.100  0.2319 -0.1154  1.6844
  192SLPC  C21522259   4.461   5.624   8.167  1.1355  0.7255 -0.3781
  192SLPC  H15R22260   4.400   5.705   8.123 -0.5142 -1.2547 -1.8329
  192SLPC  H15S22261   4.489   5.662   8.268  1.4929 -1.4868  0.3912
  192SLPC  C21622262   4.404   5.488   8.182 -0.2267 -0.0273  0.2552
  192SLPC  H16R22263   4.474   5.426   8.243  1.2818 -0.1457 -1.5415
  192SLPC  H16S22264   4.392   5.427   8.089 -1.1574 -0.3140  0.5617
  192SLPC  C21722265   4.279   5.484   8.270  0.0565 -0.0942  0.0854
  192SLPC  H17R22266   4.315   5.552   8.350  0.8196  0.0852 -0.4042
  192SLPC  H17S22267   4.190   5.524   8.217  0.3686  0.4074 -0.0691
  192SLPC  C21822268   4.252   5.341   8.326  0.4141 -1.0456 -0.0611
  192SLPC  H18R22269   4.337   5.313   8.393 -0.9049 -2.4464  1.0643
  192SLPC  H18S22270   4.243   5.271   8.241 -1.2128  1.9013 -2.3769
  192SLPC  H18T22271   4.165   5.327   8.393  0.2425 -1.2664 -0.3314
  192SLPC   C3322272   5.348   5.348   7.384 -0.3193 -0.2106  0.0099
  192SLPC   H3X22273   5.284   5.438   7.369 -0.1181 -0.2935 -1.4344
  192SLPC   H3Y22274   5.454   5.381   7.392 -1.3919  3.6258 -0.4340
  192SLPC   C3422275   5.315   5.297   7.521  0.1979 -0.1096 -0.4604
  192SLPC   H4X22276   5.375   5.206   7.544  0.7057  0.4109  0.2979
  192SLPC   H4Y22277   5.209   5.269   7.506  0.2149 -0.0779 -0.6475
  192SLPC   C3522278   5.323   5.395   7.636  0.6950  0.9970 -0.1141
  192SLPC   H5X22279   5.274   5.492   7.610  0.2153  0.7192 -0.2462
  192SLPC   H5Y22280   5.427   5.420   7.668  0.7168  0.6568  0.0795
  192SLPC   C3622281   5.233   5.352   7.759 -0.4815 -0.4339  0.1051
  192SLPC   H6X22282   5.263   5.249   7.786  0.9414 -0.6223 -2.0949
  192SLPC   H6Y22283   5.126   5.336   7.734 -0.0490 -2.3756 -0.5423
  192SLPC   C3722284   5.248   5.431   7.890  0.0323  0.7166  0.3888
  192SLPC   H7X22285   5.240   5.541   7.884 -1.5930  0.6051  0.4563
  192SLPC   H7Y22286   5.347   5.402   7.932  1.4028  2.1242 -1.7849
  192SLPC   C3822287   5.142   5.390   7.995  0.1193  0.0933  0.1631
  192SLPC   H8X22288   5.131   5.280   7.998 -0.8128  0.1208 -1.3601
  192SLPC   H8Y22289   5.043   5.434   7.970  1.4202  2.8162 -0.4287
  192SLPC   C3922290   5.169   5.440   8.137 -0.2752  0.5071 -0.2742
  192SLPC   H9X22291   5.202   5.545   8.124 -3.2634  1.4367 -0.9556
  192SLPC   H9Y22292   5.244   5.378   8.191 -0.1497  0.7089 -0.2186
  192SLPC  C31022293   5.041   5.453   8.226  0.0047 -0.0463  0.4798
  192SLPC  H10X22294   4.980   5.539   8.190  1.7662  0.6307 -0.9350
  192SLPC  H10Y22295   5.073   5.492   8.325  1.3293 -0.0186  0.0482
  192SLPC  C31122296   4.972   5.321   8.247 -0.0555  0.3723 -0.3663
  192SLPC  H11X22297   5.042   5.239   8.273 -1.0171 -0.0972  0.8134
  192SLPC  H11Y22298   4.935   5.288   8.148 -4.2987 -2.0888  1.8928
  192SLPC  C31222299   4.852   5.328   8.342  0.1619 -0.4530 -0.3805
  192SLPC  H12X22300   4.785   5.414   8.319 -1.2386 -1.4113  0.0762
  192SLPC  H12Y22301   4.882   5.332   8.449  1.2234 -3.6625 -0.5242
  192SLPC  C31322302   4.771   5.192   8.329  0.8111  1.1859 -0.5041
  192SLPC  H13X22303   4.830   5.106   8.367 -0.5697 -0.0671 -1.1003
  192SLPC  H13Y22304   4.738   5.181   8.223 -0.0804  0.8666 -0.1960
  192SLPC  C31422305   4.636   5.209   8.410 -0.2513 -0.5930 -0.0647
  192SLPC  H14X22306   4.584   5.305   8.388 -1.0875 -0.5719  1.9364
  192SLPC  H14Y22307   4.680   5.212   8.512  0.2327 -0.0435 -0.2836
  192SLPC  C31522308   4.537   5.096   8.397  0.0992  0.3891 -0.2970
  192SLPC  H15X22309   4.443   5.122   8.450  0.9409  0.4046  1.2292
  192SLPC  H15Y22310   4.576   5.007   8.452  4.0741  2.7408  0.8566
  192SLPC  C31622311   4.504   5.049   8.257 -0.0707  0.4000 -0.2319
  192SLPC  H16X22312   4.602   5.033   8.207 -1.0354 -3.0252 -1.2155
  192SLPC  H16Y22313   4.447   5.125   8.201  2.0586  1.9208 -0.3993
  192SLPC  C31722314   4.429   4.910   8.247 -0.0430 -0.0492  0.8081
  192SLPC  H17X22315   4.491   4.833   8.298 -1.9528 -1.5256  0.9663
  192SLPC  H17Y22316   4.412   4.885   8.140 -2.1159 -1.0415  1.3492
  192SLPC  C31822317   4.291   4.928   8.307  0.0831  0.5793  0.0831
  192SLPC  H18X22318   4.253   5.028   8.280 -0.8018 -0.0963 -1.1970
  192SLPC  H18Y22319   4.302   4.920   8.418 -0.0696 -2.8959 -0.1003
  192SLPC  H18Z22320   4.231   4.842   8.270 -0.1143  1.5526 -1.8757
  193SOD    SOD22321   0.209   6.328   2.033  0.3762 -0.1791 -0.6340
  194SOD    SOD22322   5.163   0.151  15.019  0.2762 -0.4596  0.2330
  195SOD    SOD22323   5.862   5.512  14.555 -0.3122 -0.0865  0.8427
  196SOD    SOD22324   3.861   1.269   6.194  0.2540  0.1257  0.0356
  197SOD    SOD22325   3.406   4.638  12.786 -0.4005  0.3675  0.0832
  198SOD    SOD22326   4.438   4.532  12.702 -0.2472  0.3632  0.1808
  199SOD    SOD22327   3.750   5.087   3.376 -0.2393 -0.4740 -0.0137
  200SOD    SOD22328   3.476   4.400   5.649 -0.2638  0.0720  0.7481
  201SOD    SOD22329   3.296   1.491  11.575  0.1800 -0.1330  0.1061
  202SOD    SOD22330   0.339   6.810  14.323 -0.9857  0.2820 -0.1183
  203SOD    SOD22331   1.778   2.445   2.813 -0.5248 -0.2883 -0.2779
  204SOD    SOD22332   6.631   0.210   0.768 -0.1964  0.3330  0.2401
  205SOD    SOD22333   2.260   5.285   0.280  0.2121 -0.0757  0.2661
  206SOD    SOD22334   2.935   6.091  11.602  0.0537 -0.3601 -0.6769
  207SOD    SOD22335   1.691   2.707   0.085 -0.5579 -0.3343 -0.0876
  208SOD    SOD22336   2.334   2.673  11.894  0.0348 -0.3878  0.1286
  209SOD    SOD22337   1.818   3.582  11.684  0.0948  0.5331  0.2008
  210SOD    SOD22338   3.449   1.668   2.317 -0.0648 -0.0026 -0.2117
  211SOD    SOD22339   1.359   6.055   3.156 -0.2586 -0.3018  0.2330
  212SOD    SOD22340   1.434   0.363  10.864  0.3928  0.2832 -0.0523
  213SOD    SOD22341   1.537   2.353  11.268 -0.0933 -0.1857 -0.5167
  214SOD    SOD22342   1.888   6.811   6.574  0.5039  0.1105 -0.2871
  215SOD    SOD22343   6.436   0.760  15.891  0.1009 -0.2334 -0.0171
  216SOD    SOD22344   3.359   1.028  12.763 -0.0050 -0.4658  0.5580
  217SOD    SOD22345   1.523   1.625   0.611 -0.4204  0.5019  0.4691
  218SOD    SOD22346   3.911   1.734   4.554  0.1517  0.4745  0.6432
  219SOD    SOD22347   5.358   6.292   1.934 -0.1332 -0.6482  0.4145
  220SOD    SOD22348   1.026   5.905  11.026 -0.1828  0.1042  0.2417
  221SOD    SOD22349   1.131   4.635  16.960 -0.2241  0.2576 -0.0960
  222SOD    SOD22350   1.999   0.683   3.342 -0.4269 -0.3129  0.4279
  223SOD    SOD22351   5.564   2.562   5.064  0.2033  0.5325  0.1434
  224SOD    SOD22352   4.481   6.371   6.142  0.2626  0.0870  0.2916
  225SOD    SOD22353   0.558   1.295  15.376 -0.3334 -0.8079  0.0153
  226SOD    SOD22354   6.498   4.092   6.125 -0.3291  0.3263 -0.6992
  227SOD    SOD22355   0.048   2.957  16.043  0.1364 -0.6655 -0.0255
  228SOD    SOD22356   4.494   4.426  14.832 -0.1462 -0.2717  0.0225
  229SOD    SOD22357   4.435   3.617  13.666  0.0357 -0.1936 -0.2975
  230SOD    SOD22358   6.765   4.760  15.600 -0.2009 -0.0722  0.0349
  231SOD    SOD22359   2.526   0.600  15.216 -0.0961  0.2973 -0.5086
  232SOD    SOD22360   6.121   1.894  14.795  0.1524  0.3988 -0.1301
  233SOD    SOD22361   4.950   5.006  16.544 -0.3970  0.1962 -0.1638
  234SOD    SOD22362   1.192   3.054  14.000  0.1423  0.4986  0.5397
  235SOD    SOD22363   2.211   6.677   0.733  0.3240 -0.0675 -0.1041
  236SOD    SOD22364   5.116   2.979   5.716  0.0505  0.0220  0.3266
  237SOD    SOD22365   6.136   2.526   0.588 -0.0635  0.2242  0.2245
  238SOD    SOD22366   3.048   6.344  14.508 -0.1673  0.5642 -0.2700
  239SOD    SOD22367   3.368   0.394  10.821  0.1868  0.4590 -0.1646
  240SOD    SOD22368   3.525   3.870   1.624 -0.2202  0.6188  0.1765
  241SOD    SOD22369   2.166   1.950   6.155  0.3782 -0.5531  0.6431
  242SOD    SOD22370   0.515   5.553  11.903 -0.0728 -0.0287 -0.2331
  243SOD    SOD22371   6.749   5.094   6.317 -0.0340  0.1188 -0.5608
  244SOD    SOD22372   1.402   5.114  15.632 -0.5865  0.1520 -0.0225
  245SOD    SOD22373   2.910   0.818  16.938  0.3865 -0.0048 -0.3218
  246SOD    SOD22374   4.245   3.566   5.391 -0.0310  0.5781  0.3721
  247SOD    SOD22375   0.836   2.148  14.608  0.0488 -0.2152 -0.0869
  248SOD    SOD22376   0.888   2.677  11.317 -0.2178 -0.6045  0.6323
  249SOD    SOD22377   5.044   4.710   5.132 -0.1608  0.3022  0.4414
  250SOD    SOD22378   5.761   3.048  15.710  0.0673  0.5363 -0.0143
  251SOD    SOD22379   4.062   2.082   5.911 -0.4360  0.2188 -0.4710
  252SOD    SOD22380   3.012   6.068  15.730 -0.0529 -0.2197 -0.2072
  253SOD    SOD22381   5.565   6.086   2.883  0.2241 -0.8096 -0.2254
  254SOD    SOD22382   5.350   6.282  13.157 -0.1759  0.4581  0.5220
  255SOD    SOD22383   0.606   2.045  11.356  0.5969  0.2665  0.0161
  256SOD    SOD22384   5.686   4.673  12.566  0.1768  0.5371  0.0618
  257SOD    SOD22385   6.246   4.847   3.917 -0.2235  0.2857  0.0900
  258SOD    SOD22386   4.413   3.803   3.211 -0.4212 -0.0890 -0.3060
  259SOD    SOD22387   2.065   6.479  16.163 -0.0727  0.0580 -0.1503
  260SOD    SOD22388   3.605   4.199  14.336 -0.1858 -0.1460 -0.1963
  261SOD    SOD22389   0.629   0.645  14.666 -0.5942  0.0643 -0.5453
  262SOD    SOD22390   2.085   3.062   3.608  0.3924 -0.5271  0.4168
  263SOD    SOD22391   0.318   3.706   4.301  0.4035  0.2728  0.7885
  264SOD    SOD22392   3.590   1.057  16.508 -0.0367 -0.2982 -0.0376
  265SOD    SOD22393   1.537   1.247  11.584  0.7819 -0.1829  0.0054
  266CLA    CLA22394   0.394   3.918   1.820 -0.4792 -0.1666 -0.1849
  267CLA    CLA22395   5.335   6.510  14.154  0.1471  0.3544 -0.0239
  268CLA    CLA22396   0.320   2.371   0.614  0.2059 -0.3209  0.1964
  269CLA    CLA22397   2.382   1.253  15.292 -0.1636 -0.1328  0.5217
  270CLA    CLA22398   0.397   0.741  11.295  0.2053  0.0467 -0.3476
  271CLA    CLA22399   3.021   1.539   2.851 -0.0851 -0.2215  0.1150
  272CLA    CLA22400   0.017   5.140   1.187 -0.2265 -0.2855  0.0606
  273CLA    CLA22401   0.664   2.167  12.349 -0.0850 -0.2372  0.0412
  274CLA    CLA22402   0.686   6.190  12.911 -0.0272  0.8418  0.2123
  275CLA    CLA22403   3.877   4.398  12.362 -0.0758  0.2041 -0.1064
  276CLA    CLA22404   1.684   1.184  14.877 -0.1339 -0.1583  0.3581
  277CLA    CLA22405   2.460   0.875   1.466  0.1518  0.0017 -0.0423
  278CLA    CLA22406   5.898   2.689  15.340 -0.3413 -0.1619  0.0948
  279CLA    CLA22407   3.100   4.860   3.071  0.1114  0.2236 -0.2129
  280CLA    CLA22408   0.430   4.707   4.594  0.2281  0.3535 -0.3831
  281CLA    CLA22409   2.163   1.282   0.276  0.2125 -0.2773  0.1284
  282CLA    CLA22410   5.495   4.383   4.585 -0.1700 -0.0560  0.0491
  283CLA    CLA22411   6.309   2.754   4.976  0.0130 -0.0669  0.1451
  284CLA    CLA22412   3.531   1.563  14.889 -0.0265  0.0785 -0.0740
  285CLA    CLA22413   5.158   2.342   4.773 -0.0753 -0.2870 -0.3091
  286CLA    CLA22414   1.467   2.271   5.613 -0.1762  0.2648  0.2972
  287CLA    CLA22415   5.505   3.367  16.468  0.0605 -0.2468 -0.4249
  288CLA    CLA22416   0.740   1.331  11.579 -0.0812  0.1261  0.0553
  289CLA    CLA22417   1.725   5.433   3.747 -0.1441 -0.1400  0.1727
  290CLA    CLA22418   5.723   5.933   2.721 -0.2388 -0.0267 -0.0340
  291CLA    CLA22419   0.574   6.487   0.498 -0.1147  0.4764  0.0752
  292CLA    CLA22420   4.907   6.614   1.006 -0.2345 -0.0391 -0.1460
  293CLA    CLA22421   3.331   6.596   3.529 -0.0445 -0.2220 -0.2807
  294CLA    CLA22422   4.295   2.240  13.667  0.0744 -0.2600 -0.0872
  295CLA    CLA22423   2.722   4.284  11.492 -0.2018 -0.4547 -0.5721
  296CLA    CLA22424   6.450   0.762  17.108  0.2610 -0.3769  0.1843
  297CLA    CLA22425   5.243   4.781   4.740 -0.0664 -0.2324  0.2547
  298CLA    CLA22426   6.506   2.034  16.301  0.2037 -0.1791 -0.1018
  299CLA    CLA22427   5.705   2.447  14.219 -0.0449 -0.2869 -0.1527
  300CLA    CLA22428   3.138   3.535  14.664 -0.0993  0.2473 -0.0366
  301CLA    CLA22429   1.879   6.144  15.503 -0.0122  0.1596  0.2227
  302CLA    CLA22430   0.708   0.265  15.418 -0.5670 -0.0639 -0.1874
  303CLA    CLA22431   6.249   5.907  15.401 -0.0032  0.2113  0.0709
  304CLA    CLA22432   2.947   5.208   3.406 -0.2568 -0.3471 -0.2013
  305CLA    CLA22433   5.237   0.744  14.937  0.1421 -0.0438  0.1039
  306CLA    CLA22434   2.160   3.931   0.697 -0.1945  0.1273  0.0256
  307CLA    CLA22435   3.341   3.932  13.300  0.2342  0.2159 -0.3456
  308CLA    CLA22436   3.412   3.814   2.844  0.4272 -0.4509  0.1180
  309CLA    CLA22437   5.890   5.840  13.997  0.3655 -0.1753  0.1653
  310CLA    CLA22438   0.963   3.514   3.982  0.1362  0.0411  0.1123
  311CLA    CLA22439   3.978   1.955  16.376 -0.4638 -0.2347 -0.3257
  312CLA    CLA22440   0.669   5.657  16.341 -0.1523 -0.0232 -0.0158
  313CLA    CLA22441   5.261   3.147  13.604  0.1310 -0.3244  0.0170
  314CLA    CLA22442   4.958   5.134  15.478 -0.3641  0.1720 -0.4592
  315CLA    CLA22443   2.102   5.378  17.019  0.3187  0.1652 -0.2185
  316CLA    CLA22444   1.784   4.893  16.103 -0.4322  0.3338 -0.1469
  317CLA    CLA22445   0.210   3.482  14.904  0.2159 -0.1497  0.3852
  318CLA    CLA22446   2.514   3.773   2.133 -0.2092  0.0015  0.0713
  319TIP3   OH222447   3.513   3.391   4.411 -0.3484 -0.6389 -0.0454
  319TIP3    H122448   3.558   3.310   4.390 -0.7897 -0.8713 -0.0874
  319TIP3    H222449   3.553   3.420   4.493  1.7138  0.5287 -1.4342
  320TIP3   OH222450   3.383   0.997   2.946 -0.3640 -0.3438 -0.4804
  320TIP3    H122451   3.427   1.025   3.027  0.0188 -0.0350 -0.7942
  320TIP3    H222452   3.307   1.055   2.940 -0.9621 -1.0443  0.1944
  321TIP3   OH222453   5.335   4.523  14.877 -0.2407  0.4696 -0.0060
  321TIP3    H122454   5.371   4.439  14.847 -1.0667 -0.0124  0.3442
  321TIP3    H222455   5.304   4.566  14.797 -0.2981  0.2110 -0.1239
  322TIP3   OH222456   4.155   1.850  15.254 -0.3423 -0.3645 -0.0251
  322TIP3    H122457   4.075   1.817  15.294  0.8559 -1.9589  1.1469
  322TIP3    H222458   4.195   1.774  15.213  0.1723  0.5800 -1.3248
  323TIP3   OH222459   4.102   3.570   4.251  0.2881  0.0993 -0.1515
  323TIP3    H122460   4.136   3.545   4.336  0.8095 -1.1803 -0.7215
  323TIP3    H222461   4.014   3.530   4.247 -0.2163  1.1552  0.2537
  324TIP3   OH222462   5.878   2.562   1.778 -0.4174 -0.2713 -0.0738
  324TIP3    H122463   5.800   2.597   1.735 -0.8769  1.3553  1.9886
  324TIP3    H222464   5.898   2.626   1.846  0.6541 -2.4580  1.7187
  325TIP3   OH222465   1.939   3.818  15.370  0.5126 -0.4233  0.2551
  325TIP3    H122466   2.031   3.795  15.380  0.5031 -0.9553 -0.8250
  325TIP3    H222467   1.933   3.862  15.285 -0.2988 -0.8168  0.0991
  326TIP3   OH222468   5.279   1.416  16.195  0.6946 -0.2401 -0.2026
  326TIP3    H122469   5.284   1.359  16.272 -0.2043  1.6469  1.3238
  326TIP3    H222470   5.336   1.375  16.131 -0.3453 -3.1285  0.6354
  327TIP3   OH222471   6.690   6.240  16.976 -0.0172 -0.6314  0.5172
  327TIP3    H122472   6.728   6.285  16.900 -0.7776 -0.1779  0.4009
  327TIP3    H222473   6.645   6.309  17.024  1.5477 -0.6774  2.0792
  328TIP3   OH222474   5.628   1.598  10.783 -0.0626  0.3910 -0.2268
  328TIP3    H122475   5.618   1.645  10.700  0.8150 -0.6529 -0.9404
  328TIP3    H222476   5.716   1.620  10.813  0.5378 -1.1214 -0.8008
  329TIP3   OH222477   4.089   6.429   5.414 -0.0422  0.2447 -0.7614
  329TIP3    H122478   4.105   6.335   5.418  0.2390  0.2562 -1.5733
  329TIP3    H222479   4.146   6.465   5.482 -0.7369 -0.2396  0.0922
  330TIP3   OH222480   2.171   4.756  11.075 -0.9230  0.0114 -0.2091
  330TIP3    H122481   2.199   4.728  11.162 -2.4289  0.5605  0.4641
  330TIP3    H222482   2.081   4.787  11.087 -1.2774 -0.2390 -2.0253
  331TIP3   OH222483   0.617   2.679   3.856  0.1614 -0.3664 -0.2870
  331TIP3    H122484   0.709   2.660   3.874 -0.3599 -2.1933  0.5787
  331TIP3    H222485   0.577   2.593   3.840 -1.5551  0.3196  0.1708
  332TIP3   OH222486   0.802   2.627  13.443 -0.5095 -0.2401 -0.1698
  332TIP3    H122487   0.726   2.628  13.501 -0.9655  2.0757 -0.7531
  332TIP3    H222488   0.864   2.688  13.484  1.3502 -2.6028  0.6634
  333TIP3   OH222489   0.394   1.370  14.087 -0.1021 -0.1192  0.0356
  333TIP3    H122490   0.349   1.363  14.172  0.6713  0.0379  0.4620
  333TIP3    H222491   0.486   1.384  14.110 -0.2008  2.0679 -0.8358
  334TIP3   OH222492   3.511   5.098  16.146  0.0101  0.4469  0.2994
  334TIP3    H122493   3.473   5.085  16.059  0.0942  0.2485  0.2919
  334TIP3    H222494   3.597   5.136  16.129  0.8132 -1.3444  0.2020
  335TIP3   OH222495   2.399   6.111  15.508  0.1991 -0.0986 -0.5941
  335TIP3    H122496   2.333   6.131  15.442  1.3248  1.3865 -1.3020
  335TIP3    H222497   2.362   6.146  15.589 -1.6638 -2.8623 -0.1652
  336TIP3   OH222498   4.648   3.613  17.236 -0.0824 -0.2149  0.5615
  336TIP3    H122499   4.737   3.581  17.222 -0.2421 -0.8245  0.9296
  336TIP3    H222500   4.593   3.536  17.223 -0.4340 -0.1915  1.8661
  337TIP3   OH222501   1.060   6.062  11.915  0.3233 -0.4683  0.3133
  337TIP3    H122502   1.010   6.054  11.996  1.1122 -1.8123  0.6815
  337TIP3    H222503   0.993   6.072  11.847 -0.3173  1.2676  1.1765
  338TIP3   OH222504   5.835   1.402   0.798 -0.0614 -0.3042  0.0923
  338TIP3    H122505   5.873   1.426   0.714  1.6670 -1.0789  0.6249
  338TIP3    H222506   5.907   1.409   0.861 -1.4771  0.8888  1.6386
  339TIP3   OH222507   6.183   2.149  11.812 -0.2330  0.0413  0.0538
  339TIP3    H122508   6.218   2.236  11.796  2.3503 -0.9191  0.1854
  339TIP3    H222509   6.160   2.148  11.905  0.0040  0.4786  0.1163
  340TIP3   OH222510   0.288   4.033  12.576 -0.0136  0.0422 -0.1311
  340TIP3    H122511   0.247   3.948  12.558  0.9011  0.0095 -2.1930
  340TIP3    H222512   0.374   4.010  12.612  0.4179  0.0730 -1.1221
  341TIP3   OH222513   3.693   1.456  13.998 -0.3419  0.1469 -0.2412
  341TIP3    H122514   3.648   1.401  13.934 -1.4686  0.9648 -0.1720
  341TIP3    H222515   3.698   1.401  14.077  2.3655 -1.4104 -1.4150
  342TIP3   OH222516   4.495   6.599  16.124  0.3365 -0.8735 -0.5754
  342TIP3    H122517   4.534   6.512  16.132 -1.1593 -1.4046  1.6788
  342TIP3    H222518   4.547   6.654  16.182 -0.4338 -0.9297  0.1845
  343TIP3   OH222519   1.682   4.098  15.111  0.2290  0.5814  1.1406
  343TIP3    H122520   1.684   4.023  15.052  2.3741  0.8729  0.8178
  343TIP3    H222521   1.621   4.159  15.071  1.0473  0.4302 -0.3584
  344TIP3   OH222522   5.324   6.712  16.643  0.1941  0.5456 -0.4146
  344TIP3    H122523   5.240   6.728  16.686 -0.8913 -0.1786 -2.2138
  344TIP3    H222524   5.382   6.780  16.676 -1.0850  1.0081  0.8909
  345TIP3   OH222525   3.280   1.884  16.588  0.3940  0.0884 -0.3546
  345TIP3    H122526   3.251   1.947  16.522 -1.7063  0.1590  0.5937
  345TIP3    H222527   3.202   1.831  16.606  1.5315 -1.3142  0.5024
  346TIP3   OH222528   3.662   6.230  12.249 -0.7359  0.0958 -0.4350
  346TIP3    H122529   3.583   6.215  12.300  0.9652  0.4735  2.3842
  346TIP3    H222530   3.698   6.312  12.282  0.7491  0.0421 -1.8162
  347TIP3   OH222531   2.174   1.731  12.611  0.3770 -0.1683  0.0800
  347TIP3    H122532   2.155   1.822  12.588  0.3864 -0.5205 -1.4108
  347TIP3    H222533   2.200   1.734  12.703 -0.3233  1.2349  0.2506
  348TIP3   OH222534   4.615   4.396  13.919 -0.3783  0.7007  0.2348
  348TIP3    H122535   4.669   4.380  13.996  1.0043  0.1356 -0.8405
  348TIP3    H222536   4.528   4.365  13.944  1.1742 -4.5644 -0.2246
  349TIP3   OH222537   5.044   0.541   3.911 -0.0433 -0.4959  0.9853
  349TIP3    H122538   5.075   0.474   3.849 -0.6623 -0.7954  0.9994
  349TIP3    H222539   4.949   0.537   3.905 -0.0797  0.4771  0.8906
  350TIP3   OH222540   5.476   1.098  12.684  0.2640 -1.2048 -0.4382
  350TIP3    H122541   5.513   1.185  12.669 -0.9649 -0.8584 -1.5446
  350TIP3    H222542   5.546   1.050  12.729  0.7363  0.5204  0.7207
  351TIP3   OH222543   1.824   3.282   5.447  0.1734 -0.0836  0.5742
  351TIP3    H122544   1.887   3.287   5.519  0.4014  0.6331  0.3326
  351TIP3    H222545   1.744   3.249   5.487  0.8853 -1.6287  0.7657
  352TIP3   OH222546   5.601   5.069  14.566  0.2355 -0.0110 -0.2571
  352TIP3    H122547   5.531   5.090  14.628 -0.9263  0.9227 -1.8445
  352TIP3    H222548   5.643   4.991  14.603 -0.4754  0.4786  1.6502
  353TIP3   OH222549   3.209   3.850  14.694 -0.8404 -0.2329 -0.5088
  353TIP3    H122550   3.161   3.768  14.688 -0.3515 -0.9483  3.8666
  353TIP3    H222551   3.143   3.918  14.684 -2.0509 -1.2015  0.7614
  354TIP3   OH222552   1.671   2.503   3.716  0.2684  0.2134  0.0399
  354TIP3    H122553   1.752   2.457   3.740 -0.2755 -2.4758 -2.9511
  354TIP3    H222554   1.622   2.508   3.798  1.7729 -1.6762  1.1249
  355TIP3   OH222555   3.308   5.868   0.427 -0.1353 -0.1191  0.0569
  355TIP3    H122556   3.214   5.880   0.438 -0.0946  1.0431 -0.8040
  355TIP3    H222557   3.323   5.777   0.453 -1.2399  0.1592  1.7375
  356TIP3   OH222558   5.041   5.864   2.935  0.4625  0.4885  0.0700
  356TIP3    H122559   4.977   5.843   3.003 -0.3337  2.5728  0.0119
  356TIP3    H222560   5.125   5.836   2.971 -0.3323 -1.2618  0.6091
  357TIP3   OH222561   1.629   5.642  10.770 -0.1909 -0.0523 -0.1103
  357TIP3    H122562   1.683   5.720  10.757  0.1668 -0.3786 -0.5828
  357TIP3    H222563   1.691   5.569  10.768 -0.6091 -0.4043 -0.3482
  358TIP3   OH222564   6.321   4.902  10.531 -0.3232  0.0954 -0.2849
  358TIP3    H122565   6.410   4.893  10.499  0.5056 -0.5659  2.1505
  358TIP3    H222566   6.323   4.978  10.588 -1.5884  0.7456 -1.0699
  359TIP3   OH222567   4.206   4.722  13.234 -0.1932  0.0506 -0.2462
  359TIP3    H122568   4.144   4.651  13.255  0.3229 -0.3955 -0.2341
  359TIP3    H222569   4.160   4.802  13.260 -1.3673 -0.1569 -1.6247
  360TIP3   OH222570   3.108   5.844   5.330  0.3654  0.8955  0.2938
  360TIP3    H122571   3.162   5.774   5.368  0.9981 -0.1544 -2.4193
  360TIP3    H222572   3.019   5.820   5.354  0.6879 -0.0997  0.5677
  361TIP3   OH222573   0.784   2.319  12.706  0.1955 -0.1617 -0.2802
  361TIP3    H122574   0.852   2.254  12.722  0.4487 -0.0812 -1.0306
  361TIP3    H222575   0.780   2.328  12.611 -0.4447  0.2778 -0.2175
  362TIP3   OH222576   4.295   0.660   1.549  0.2192 -0.4859  0.3845
  362TIP3    H122577   4.322   0.740   1.504  2.0181 -0.2931  1.7288
  362TIP3    H222578   4.348   0.659   1.629 -1.1240 -2.0693  1.2844
  363TIP3   OH222579   6.581   1.409   6.069 -0.2549  0.0936 -0.1387
  363TIP3    H122580   6.620   1.413   6.156  0.1236  0.0309 -0.3066
  363TIP3    H222581   6.537   1.324   6.066  0.7607 -0.4240 -0.4494
  364TIP3   OH222582   1.990   4.689   3.189 -0.2817  0.0846 -0.3149
  364TIP3    H122583   2.075   4.653   3.216 -0.8811 -3.2166 -2.5889
  364TIP3    H222584   1.932   4.672   3.263  0.1186 -1.1109 -0.2733
  365TIP3   OH222585   4.370   1.070   5.533  0.4673 -0.5218 -0.3656
  365TIP3    H122586   4.334   1.034   5.452  0.3802 -2.6094  0.5587
  365TIP3    H222587   4.429   1.001   5.565  0.7446  0.4092  1.1687
  366TIP3   OH222588   5.181   6.477  13.887  0.4376  0.2895  0.2116
  366TIP3    H122589   5.113   6.544  13.886 -1.1907 -1.2532  2.5648
  366TIP3    H222590   5.225   6.488  13.971  2.1995  0.3458 -0.6820
  367TIP3   OH222591   2.655   1.878   2.119  0.2125 -0.2336  0.3111
  367TIP3    H122592   2.610   1.962   2.117  0.2232 -0.2271  0.3343
  367TIP3    H222593   2.629   1.834   2.038 -0.2981 -0.4755  0.6021
  368TIP3   OH222594   1.464   4.343   3.994 -0.3850 -0.8568  0.3159
  368TIP3    H122595   1.527   4.347   4.065 -1.5912  1.4714  1.3221
  368TIP3    H222596   1.505   4.391   3.922  0.7988 -3.1376 -0.5640
  369TIP3   OH222597   5.472   0.543  12.295  0.3179  0.8706 -0.5267
  369TIP3    H122598   5.474   0.593  12.376 -3.7315 -2.1859  1.6276
  369TIP3    H222599   5.379   0.543  12.269  1.2009 -0.0977 -3.9411
  370TIP3   OH222600   3.023   1.087   4.663  0.5934 -0.3029  0.4099
  370TIP3    H122601   2.938   1.083   4.618  1.1181 -0.9409 -0.5385
  370TIP3    H222602   3.005   1.138   4.742 -0.1817  1.5476 -0.9038
  371TIP3   OH222603   5.075   0.524  15.469 -0.1516  0.5638 -0.0990
  371TIP3    H122604   5.076   0.595  15.533 -0.0179  0.2521  0.2495
  371TIP3    H222605   4.983   0.507  15.453 -0.1861  1.5887 -1.0601
  372TIP3   OH222606   5.161   5.849   3.920  0.3808  0.1038  0.5060
  372TIP3    H122607   5.127   5.810   4.000 -1.8396 -0.1422 -0.5210
  372TIP3    H222608   5.253   5.821   3.916 -0.4597 -2.8493  1.1409
  373TIP3   OH222609   4.500   3.563   1.298 -0.4885  0.3223 -0.9354
  373TIP3    H122610   4.570   3.622   1.324  0.1380 -1.2159  1.0114
  373TIP3    H222611   4.427   3.586   1.356  0.3687 -2.0035  1.1753
  374TIP3   OH222612   5.737   6.009   2.433 -0.2012  0.0612 -0.1900
  374TIP3    H122613   5.748   5.978   2.523 -1.1808  1.5764  0.4662
  374TIP3    H222614   5.645   5.992   2.413 -0.1821  0.4608 -0.6230
  375TIP3   OH222615   1.998   1.990  12.270  0.2386  0.3523 -0.6316
  375TIP3    H122616   2.048   1.979  12.350  0.5447 -2.2516 -1.1256
  375TIP3    H222617   1.913   2.022  12.299  0.8337  0.8895  0.5698
  376TIP3   OH222618   1.281   4.358  13.135  0.7896 -0.9626 -0.1150
  376TIP3    H122619   1.301   4.414  13.060 -0.6876 -1.0489 -0.5808
  376TIP3    H222620   1.186   4.349  13.134  0.8258 -1.6575  1.2772
  377TIP3   OH222621   0.952   3.953  16.659 -0.4188 -0.2589  0.3992
  377TIP3    H122622   0.883   3.921  16.717 -0.4458 -1.8231 -0.4844
  377TIP3    H222623   1.032   3.913  16.692 -0.1046  0.6151  0.7043
  378TIP3   OH222624   6.315   2.469  16.679 -0.4389 -0.1296  0.5548
  378TIP3    H122625   6.304   2.412  16.603  2.3023 -1.0709  0.7799
  378TIP3    H222626   6.395   2.436  16.721 -0.1386  2.3805  2.0359
  379TIP3   OH222627   5.894   2.257  15.249 -0.2450  0.2349 -0.3307
  379TIP3    H122628   5.893   2.177  15.301 -1.2006  1.0747  0.9958
  379TIP3    H222629   5.956   2.315  15.294  0.1068  0.4097 -1.0232
  380TIP3   OH222630   0.964   4.645   0.414 -0.3270 -0.4920  0.0164
  380TIP3    H122631   1.018   4.568   0.393  0.7798 -0.0284  1.1025
  380TIP3    H222632   0.880   4.627   0.372  0.9271 -0.8639 -2.3906
  381TIP3   OH222633   2.799   1.770   1.537  0.1015 -0.2618  0.8013
  381TIP3    H122634   2.795   1.675   1.546 -0.0230 -0.1533  2.0215
  381TIP3    H222635   2.744   1.802   1.609 -0.6807  0.7045 -0.2240
  382TIP3   OH222636   2.875   5.783  15.101  0.0142 -0.2602 -0.5565
  382TIP3    H122637   2.895   5.701  15.055  0.7469 -0.7460  0.5871
  382TIP3    H222638   2.948   5.793  15.162 -0.0752  1.2557 -0.7015
  383TIP3   OH222639   0.263   3.468   6.100  0.0076 -0.0188  0.6307
  383TIP3    H122640   0.260   3.556   6.064 -2.6144  0.1139  1.0411
  383TIP3    H222641   0.333   3.470   6.165 -1.2872  2.3508  2.0496
  384TIP3   OH222642   4.715   4.630  15.542 -0.5609 -0.4304 -0.3456
  384TIP3    H122643   4.805   4.663  15.552 -0.5055 -0.3951 -0.9777
  384TIP3    H222644   4.726   4.543  15.503 -0.8994  0.3321 -2.1517
  385TIP3   OH222645   0.350   2.307   0.111 -0.5264 -0.1762  0.1022
  385TIP3    H122646   0.443   2.287   0.107 -0.6625 -0.5748 -2.0603
  385TIP3    H222647   0.317   2.254   0.183  0.7298 -0.8854  0.1763
  386TIP3   OH222648   1.985   4.456   5.470  0.4322 -0.2565 -0.3466
  386TIP3    H122649   1.944   4.399   5.405  2.3842 -2.6279  0.4276
  386TIP3    H222650   2.061   4.492   5.426  0.5519 -0.1563 -0.0601
  387TIP3   OH222651   1.704   6.004  12.586 -0.0628 -0.3260 -0.2491
  387TIP3    H122652   1.642   5.953  12.533 -0.0835 -0.8383  0.2598
  387TIP3    H222653   1.649   6.046  12.652 -0.3330  2.0960 -1.9739
  388TIP3   OH222654   4.978   2.703  11.781 -0.1200 -0.1684  0.7861
  388TIP3    H122655   4.991   2.798  11.772 -3.1613  0.3387  1.3894
  388TIP3    H222656   5.005   2.668  11.696 -1.0032  1.4910 -0.2190
  389TIP3   OH222657   5.299   1.053   1.082 -0.7054 -0.0186  0.2387
  389TIP3    H122658   5.364   0.995   1.120 -1.2388 -0.9654 -0.2676
  389TIP3    H222659   5.350   1.117   1.032 -0.1165 -0.1407  0.6876
  390TIP3   OH222660   0.696   5.275   5.047  0.1260  0.0391 -0.2126
  390TIP3    H122661   0.768   5.213   5.057 -0.2934 -0.2658  1.1116
  390TIP3    H222662   0.627   5.239   5.103 -0.6587  0.9059 -0.6184
  391TIP3   OH222663   4.959   2.361  13.798 -0.6668  0.1292  0.3362
  391TIP3    H122664   4.887   2.416  13.766  1.2611  0.8183 -3.0107
  391TIP3    H222665   4.973   2.391  13.888 -2.2858  2.3721 -0.0926
  392TIP3   OH222666   2.595   0.233  16.199 -0.3199  0.0831 -0.0301
  392TIP3    H122667   2.565   0.307  16.146  3.4938  0.8718 -1.2514
  392TIP3    H222668   2.657   0.271  16.261  0.0343 -1.7832  0.7996
  393TIP3   OH222669   5.556   6.560   1.054 -0.1758  0.7275  0.1320
  393TIP3    H122670   5.494   6.490   1.071  1.1087  0.1367  2.6576
  393TIP3    H222671   5.516   6.638   1.093  0.5593  0.3606  1.6988
  394TIP3   OH222672   0.830   1.176  16.520  0.3966  0.1142  0.3387
  394TIP3    H122673   0.822   1.192  16.426 -0.5665  0.9759  0.5556
  394TIP3    H222674   0.862   1.259  16.556  0.9998 -0.2846  0.7504
  395TIP3   OH222675   0.164   0.308   3.197 -0.2514  0.0129 -0.4870
  395TIP3    H122676   0.145   0.399   3.175  1.6037  1.0004  1.7465
  395TIP3    H222677   0.085   0.260   3.172 -1.8447  2.4604 -0.3173
  396TIP3   OH222678   3.722   5.310  11.832 -0.2651  0.4252 -0.0407
  396TIP3    H122679   3.716   5.252  11.907  0.7852  1.5366  0.9077
  396TIP3    H222680   3.772   5.261  11.767  0.7360  0.3308  0.8034
  397TIP3   OH222681   3.095   2.679  10.582 -0.1804  0.2723 -0.7014
  397TIP3    H122682   3.078   2.595  10.624 -1.0808  0.4870 -0.6338
  397TIP3    H222683   3.097   2.659  10.489 -0.6065  0.2101 -0.6983
  398TIP3   OH222684   3.061   6.574  14.141 -0.0744 -0.6625  0.3897
  398TIP3    H122685   3.060   6.621  14.058 -0.7955  0.5138  1.0549
  398TIP3    H222686   3.083   6.641  14.207 -0.7260 -1.3215  1.2955
  399TIP3   OH222687   2.357   1.670  16.189 -0.0196 -0.0219 -0.0581
  399TIP3    H122688   2.309   1.738  16.143 -1.3932 -0.6841  0.3754
  399TIP3    H222689   2.327   1.588  16.148  0.2053 -0.4826  0.6913
  400TIP3   OH222690   5.511   4.697   4.220 -0.8745  0.1933 -0.3100
  400TIP3    H122691   5.601   4.663   4.218 -0.7566  0.3791  1.0444
  400TIP3    H222692   5.467   4.652   4.149  0.3049  0.1214 -1.0119
  401TIP3   OH222693   3.249   5.438  16.814  0.1282  0.5667 -0.2435
  401TIP3    H122694   3.154   5.439  16.796  0.3756  1.7198 -1.6476
  401TIP3    H222695   3.280   5.356  16.776 -0.5900 -0.7298  1.9076
  402TIP3   OH222696   5.503   1.380   1.835 -0.0432 -0.4126  0.1442
  402TIP3    H122697   5.551   1.303   1.805  1.1444 -0.0650  1.0993
  402TIP3    H222698   5.568   1.450   1.835 -1.2755  0.7630 -1.3679
  403TIP3   OH222699   0.837   4.212  14.422 -0.0701  0.1911  0.2781
  403TIP3    H122700   0.763   4.171  14.465  0.3098  0.4310  1.1599
  403TIP3    H222701   0.898   4.141  14.405 -0.7934 -0.1360 -1.1101
  404TIP3   OH222702   2.699   3.890   2.627  0.1930 -0.8734 -0.1362
  404TIP3    H122703   2.711   3.828   2.700 -0.4169 -2.0171 -0.9844
  404TIP3    H222704   2.729   3.842   2.550  0.8343  0.3304 -0.6371
  405TIP3   OH222705   0.364   1.680   4.528  0.6915  0.3502 -0.1548
  405TIP3    H122706   0.307   1.655   4.455 -0.4731 -0.6716  1.0895
  405TIP3    H222707   0.328   1.764   4.558  0.8165  0.4845 -0.3756
  406TIP3   OH222708   1.221   4.434  13.775  0.3445  0.3492 -0.1734
  406TIP3    H122709   1.191   4.365  13.834  1.2300  0.3236  0.2699
  406TIP3    H222710   1.142   4.479  13.748 -0.0326  0.7224  1.5019
  407TIP3   OH222711   6.219   6.478   2.781 -0.1204 -0.7054 -0.0179
  407TIP3    H122712   6.138   6.515   2.817  0.3729  0.5371 -0.1562
  407TIP3    H222713   6.284   6.492   2.850  0.4056  0.0242 -0.6520
  408TIP3   OH222714   1.769   5.370   4.037  0.0886  0.6917 -0.0201
  408TIP3    H122715   1.750   5.390   3.945 -0.3780  2.3123  0.4168
  408TIP3    H222716   1.784   5.455   4.078  0.9434 -0.0571  1.2795
  409TIP3   OH222717   4.671   1.746   1.518 -0.7479 -0.2317 -0.2025
  409TIP3    H122718   4.587   1.785   1.492 -1.1007  0.8647  2.4551
  409TIP3    H222719   4.665   1.737   1.613  1.6016 -1.4880 -0.1451
  410TIP3   OH222720   1.998   3.651  12.834  0.2362  0.7244  0.6615
  410TIP3    H122721   1.994   3.611  12.921  0.2439 -0.0695  0.2926
  410TIP3    H222722   2.079   3.701  12.834  1.1667 -0.7722  0.4558
  411TIP3   OH222723   2.972   0.943   2.825 -0.1133 -0.0835  0.0557
  411TIP3    H122724   3.009   0.969   2.910 -2.6778  2.4673  0.4937
  411TIP3    H222725   2.969   1.024   2.775 -1.8158 -0.8831 -1.1970
  412TIP3   OH222726   1.185   0.443  12.982  0.3182 -0.1607 -0.6166
  412TIP3    H122727   1.207   0.501  12.909 -0.6521  1.2218  0.1609
  412TIP3    H222728   1.258   0.452  13.043  0.9056 -0.9594 -1.1840
  413TIP3   OH222729   5.615   2.391  11.876 -0.8009  0.2149 -0.4069
  413TIP3    H122730   5.627   2.425  11.787 -1.3858  1.0166 -0.1838
  413TIP3    H222731   5.680   2.436  11.929 -0.6145 -0.0831 -0.3810
  414TIP3   OH222732   5.613   2.985  12.247 -0.4964 -0.4926  0.2194
  414TIP3    H122733   5.676   2.930  12.294  0.6155  0.2465 -0.3949
  414TIP3    H222734   5.666   3.055  12.209 -2.0544  1.7163  2.0081
  415TIP3   OH222735   1.532   3.409  11.368 -0.3745 -0.0137 -0.5833
  415TIP3    H122736   1.562   3.449  11.286 -1.3033 -2.6485 -2.2383
  415TIP3    H222737   1.607   3.420  11.427  0.7703  0.8744 -2.1320
  416TIP3   OH222738   2.795   3.778   3.357 -0.1069  0.4736 -0.4353
  416TIP3    H122739   2.704   3.784   3.327  0.5124  1.2341 -2.2442
  416TIP3    H222740   2.803   3.691   3.395 -1.6774  0.5239  0.0205
  417TIP3   OH222741   1.456   5.302   1.191  0.5518 -0.1295 -0.0282
  417TIP3    H122742   1.404   5.375   1.155  0.2608 -0.3442 -0.0484
  417TIP3    H222743   1.434   5.228   1.135  0.4044 -0.3700  0.3491
  418TIP3   OH222744   3.289   5.671  10.897 -1.2182 -0.5560  0.1737
  418TIP3    H122745   3.328   5.677  10.984  0.6184 -0.4290 -0.6554
  418TIP3    H222746   3.295   5.578  10.875 -0.9654 -0.4607 -0.1532
  419TIP3   OH222747   0.389   4.025  12.098 -0.8691  0.4111 -0.4281
  419TIP3    H122748   0.302   4.021  12.139 -1.4890  0.1790 -1.7312
  419TIP3    H222749   0.415   4.116  12.105 -1.4938  0.6028 -0.5766
  420TIP3   OH222750   0.882   5.234   1.260  0.2982 -0.4672 -0.0211
  420TIP3    H122751   0.904   5.328   1.256 -0.4853 -0.2692  0.2598
  420TIP3    H222752   0.913   5.199   1.177  2.6428 -0.4120  0.7754
  421TIP3   OH222753   4.387   4.000   0.113  0.1088 -0.2504 -0.4268
  421TIP3    H122754   4.294   3.978   0.122  0.3694 -0.5126  1.9424
  421TIP3    H222755   4.432   3.916   0.116  0.5813  0.0433  1.0111
  422TIP3   OH222756   1.696   3.795  13.117 -0.2134 -0.4335  0.2896
  422TIP3    H122757   1.712   3.869  13.058  3.0408 -2.4861 -1.5562
  422TIP3    H222758   1.621   3.750  13.078 -1.5614  1.2880  0.8584
  423TIP3   OH222759   1.875   2.410  12.667  0.0378  0.7478 -0.1894
  423TIP3    H122760   1.810   2.444  12.607 -0.0850  1.6178  0.4340
  423TIP3    H222761   1.936   2.361  12.612 -0.7187  0.5639 -0.8653
  424TIP3   OH222762   1.342   3.525   4.645 -0.2580  0.1562  0.5140
  424TIP3    H122763   1.378   3.609   4.617 -1.6442  0.2734 -1.0211
  424TIP3    H222764   1.284   3.547   4.718  0.7434  0.2905  1.2826
  425TIP3   OH222765   3.798   2.156   1.183  0.5363 -0.4275  0.2583
  425TIP3    H122766   3.828   2.068   1.162  1.3031 -0.0361 -0.3187
  425TIP3    H222767   3.827   2.171   1.273 -0.4524 -1.1260  0.6968
  426TIP3   OH222768   3.505   1.874  12.183  0.6481  0.2904  0.0033
  426TIP3    H122769   3.422   1.920  12.182  0.9931  0.9140 -0.2991
  426TIP3    H222770   3.565   1.932  12.136  1.4659  0.2542  0.9817
  427TIP3   OH222771   5.547   1.183  14.476 -0.3001 -0.2527  0.7820
  427TIP3    H122772   5.569   1.169  14.384  0.7329 -0.6017  1.0811
  427TIP3    H222773   5.530   1.096  14.510  1.1578 -0.3090  1.3826
  428TIP3   OH222774   0.046   2.109   2.865  0.3749  0.2881  0.1198
  428TIP3    H122775  -0.038   2.085   2.826 -0.0530  0.6572  0.8066
  428TIP3    H222776   0.037   2.086   2.958  0.7203  1.1395  0.3676
  429TIP3   OH222777   0.050   4.051   2.044 -0.6111 -0.3736 -0.0219
  429TIP3    H122778   0.118   4.108   2.079 -0.0631 -1.5802  0.9221
  429TIP3    H222779   0.001   4.107   1.984  0.9249  0.6351 -0.3728
  430TIP3   OH222780   1.125   5.900   6.974 -0.3406  0.1690  0.4157
  430TIP3    H122781   1.037   5.921   6.942  0.7231  2.8793 -0.9119
  430TIP3    H222782   1.129   5.804   6.974 -2.8147  0.0432 -0.8408
  431TIP3   OH222783   0.008   4.835   5.378  0.1604 -0.1152 -1.0435
  431TIP3    H122784  -0.034   4.777   5.314 -0.6021  0.6146 -1.2154
  431TIP3    H222785  -0.029   4.809   5.462 -0.1866  0.1217 -1.1220
  432TIP3   OH222786   1.617   6.087  15.162 -0.4476 -0.4977  0.0184
  432TIP3    H122787   1.610   6.169  15.114 -0.2285 -1.8872 -2.4495
  432TIP3    H222788   1.709   6.062  15.156 -0.4963 -0.9181  0.8070
  433TIP3   OH222789   0.810   4.341   2.809  0.0284 -0.0626  0.0539
  433TIP3    H122790   0.759   4.392   2.873 -0.9086  0.7964 -1.3579
  433TIP3    H222791   0.766   4.256   2.806 -0.7604  0.3589 -0.4623
  434TIP3   OH222792   1.491   2.914   1.092  0.2943 -0.4268 -0.6438
  434TIP3    H122793   1.421   2.896   1.029  0.2461 -2.5269 -0.0445
  434TIP3    H222794   1.512   2.828   1.128  0.1633  0.7470  2.3671
  435TIP3   OH222795   4.542   0.737   2.040 -0.4262 -0.3568  0.5208
  435TIP3    H122796   4.629   0.777   2.041  0.4308 -2.1931  0.6083
  435TIP3    H222797   4.483   0.808   2.014  1.1141  0.8630  0.3279
  436TIP3   OH222798   3.697   1.510  14.550 -0.8600 -0.3141 -0.0764
  436TIP3    H122799   3.713   1.594  14.595 -1.8011 -0.8072  1.1851
  436TIP3    H222800   3.743   1.520  14.466 -2.5456  2.2045 -0.7758
  437TIP3   OH222801   4.477   2.771   2.734 -0.7893 -0.0046  0.0518
  437TIP3    H122802   4.411   2.753   2.667 -0.1425 -1.0206 -0.3339
  437TIP3    H222803   4.532   2.839   2.695 -1.4033  0.5900  0.2285
  438TIP3   OH222804   4.593   6.133  10.821 -0.1232  0.3972 -0.2969
  438TIP3    H122805   4.641   6.052  10.802 -0.1758 -0.0831  1.5761
  438TIP3    H222806   4.661   6.199  10.832  0.0127  0.1844  0.1511
  439TIP3   OH222807   4.207   5.589  11.216  0.3163 -0.1404  0.1878
  439TIP3    H122808   4.170   5.504  11.192  1.9131 -0.4185 -1.3961
  439TIP3    H222809   4.284   5.569  11.268  0.2418  0.3545  0.4971
  440TIP3   OH222810   2.272   2.196  11.191  0.0003  0.3006 -0.1890
  440TIP3    H122811   2.248   2.285  11.166  1.7644  0.7432 -0.3802
  440TIP3    H222812   2.367   2.200  11.206  0.2385 -1.7079 -0.9700
  441TIP3   OH222813   1.584   3.075  12.709  0.2487 -0.1186 -0.2092
  441TIP3    H122814   1.526   3.075  12.632  3.1849  1.1870 -2.5111
  441TIP3    H222815   1.594   2.982  12.731  0.4673 -0.6198 -2.2965
  442TIP3   OH222816   3.239   4.152   4.071 -0.0269  0.1455 -0.0460
  442TIP3    H122817   3.203   4.077   4.117 -1.2313  1.4370  1.1706
  442TIP3    H222818   3.165   4.212   4.062  1.1895  1.7008  0.0993
  443TIP3   OH222819   5.520   5.890   5.842 -0.0755 -0.4822  0.1924
  443TIP3    H122820   5.595   5.907   5.899 -1.0587 -0.3301  1.4637
  443TIP3    H222821   5.525   5.958   5.775  1.6951 -1.3071 -0.5401
  444TIP3   OH222822   3.391   0.169  12.919 -0.2195 -0.7722 -0.1236
  444TIP3    H122823   3.421   0.209  13.000  0.0153 -1.2811  0.0417
  444TIP3    H222824   3.305   0.132  12.940 -0.1210 -0.9793 -0.0810
  445TIP3   OH222825   1.245   2.333   4.228 -0.1030  0.1147  0.1539
  445TIP3    H122826   1.335   2.364   4.231 -0.1166  0.1159  0.5420
  445TIP3    H222827   1.253   2.239   4.212 -0.0900  0.5047 -2.2367
  446TIP3   OH222828   3.657   0.015   5.832 -0.2894  0.4486 -0.6286
  446TIP3    H122829   3.568   0.004   5.797 -0.0460 -0.2136 -1.0281
  446TIP3    H222830   3.643   0.051   5.920 -0.9827 -0.5319 -0.3306
  447TIP3   OH222831   1.136   4.030  13.782  0.0386 -0.0225 -0.0313
  447TIP3    H122832   1.067   3.967  13.804 -0.7284  0.3840 -1.2021
  447TIP3    H222833   1.117   4.106  13.836 -0.3910  0.0597 -0.2910
  448TIP3   OH222834   2.954   2.723  15.636 -0.3842 -1.0450 -0.3993
  448TIP3    H122835   3.010   2.694  15.564 -0.8451 -0.7513 -0.8875
  448TIP3    H222836   2.867   2.691  15.612 -0.7267 -0.0917 -0.4778
  449TIP3   OH222837   2.215   0.070  17.111 -0.8100  0.0091  1.0093
  449TIP3    H122838   2.196   0.050  17.202 -2.9444 -2.1588  0.1090
  449TIP3    H222839   2.149   0.135  17.086 -0.4431  0.3423  0.8871
  450TIP3   OH222840   6.032   5.002   3.523  0.0678 -0.5263  0.2740
  450TIP3    H122841   6.073   4.957   3.450 -1.5305 -0.7432 -0.5238
  450TIP3    H222842   5.939   4.980   3.516 -0.6522  2.2673  0.3210
  451TIP3   OH222843   0.893   6.255  11.398 -0.1359  0.1553  0.4062
  451TIP3    H122844   0.945   6.301  11.332  0.5334 -1.1911 -0.0328
  451TIP3    H222845   0.935   6.276  11.481  0.2300  0.2560  0.1970
  452TIP3   OH222846   2.950   5.285   1.018 -0.1855  0.4466  0.3053
  452TIP3    H122847   2.993   5.220   1.074  0.2581  2.2468  2.0838
  452TIP3    H222848   2.970   5.256   0.929  1.5911 -0.8292  1.0862
  453TIP3   OH222849   2.153   0.016   0.883 -0.4200  0.0333  0.3418
  453TIP3    H122850   2.239   0.053   0.902  0.4413 -1.7761  0.0660
  453TIP3    H222851   2.101   0.036   0.961  0.4227  0.5981  0.7677
  454TIP3   OH222852   6.152   3.482  11.235  0.0491 -0.1969 -1.2053
  454TIP3    H122853   6.181   3.391  11.243  0.7301  0.0949 -0.1449
  454TIP3    H222854   6.204   3.517  11.163  0.0706 -0.5446 -1.3616
  455TIP3   OH222855   1.537   6.421   2.634  0.2586  0.0462  0.0534
  455TIP3    H122856   1.620   6.412   2.588 -1.2017 -0.4713 -2.5689
  455TIP3    H222857   1.488   6.487   2.585 -1.1639 -0.1661  1.1259
  456TIP3   OH222858   1.308   4.399   6.107 -0.2683 -0.1549  0.3150
  456TIP3    H122859   1.336   4.461   6.039  0.1043 -0.6519  0.0127
  456TIP3    H222860   1.260   4.453   6.169  0.8399  0.6145  0.5308
  457TIP3   OH222861   2.217   0.516  16.397  0.6863 -0.3975  0.2539
  457TIP3    H122862   2.129   0.494  16.426  0.6506 -1.9879 -0.9492
  457TIP3    H222863   2.204   0.579  16.326  0.6309  1.0310  1.5213
  458TIP3   OH222864   1.295   1.138   6.782  0.0318  0.4263  0.5387
  458TIP3    H122865   1.232   1.145   6.854 -0.7652  1.6310 -0.2554
  458TIP3    H222866   1.358   1.072   6.812 -1.1431 -0.2110  1.6905
  459TIP3   OH222867   0.681   6.694  14.704 -0.2833  0.6260  0.0750
  459TIP3    H122868   0.684   6.598  14.697 -1.8432  0.5946 -0.2946
  459TIP3    H222869   0.639   6.722  14.623  3.6294  1.9054 -1.6342
  460TIP3   OH222870   4.475   1.791   0.325  0.0446  0.4454  0.2627
  460TIP3    H122871   4.442   1.814   0.238 -0.3896 -0.5238  0.1540
  460TIP3    H222872   4.514   1.704   0.314 -0.2118  0.2140  1.0722
  461TIP3   OH222873   2.999   6.659   1.338 -0.5386  0.1045  0.1762
  461TIP3    H122874   3.092   6.680   1.328 -0.2974 -1.5778 -1.3890
  461TIP3    H222875   2.967   6.722   1.403  1.7329  0.5713  0.8929
  462TIP3   OH222876   2.058   4.864   2.447  0.5966  0.5234 -0.2103
  462TIP3    H122877   1.980   4.907   2.482  0.3033  0.2389 -0.5057
  462TIP3    H222878   2.079   4.796   2.512  0.7114  0.7267 -0.0359
  463TIP3   OH222879   6.797   2.431   1.104 -0.0980 -0.8050 -0.0915
  463TIP3    H122880   6.832   2.485   1.175  0.9078 -1.4722 -0.0583
  463TIP3    H222881   6.702   2.431   1.117 -0.2696  2.1247 -0.9441
  464TIP3   OH222882   3.894   6.228   2.680 -0.1963  0.2540 -0.0361
  464TIP3    H122883   3.824   6.172   2.647 -0.4916 -0.8587  2.3208
  464TIP3    H222884   3.943   6.171   2.740  2.0373  1.3542 -0.7718
  465TIP3   OH222885   1.710   3.617   3.846 -0.3925  0.1216  0.5141
  465TIP3    H122886   1.726   3.531   3.885 -0.8883  0.9346  2.5874
  465TIP3    H222887   1.637   3.603   3.786 -0.6229 -0.8527  1.0135
  466TIP3   OH222888   0.773   1.916   3.195  0.7593  0.6762 -0.4954
  466TIP3    H122889   0.802   1.882   3.280  0.0837  1.8138  0.1937
  466TIP3    H222890   0.683   1.884   3.187  0.6340  1.0479 -0.5359
  467TIP3   OH222891   5.195   2.482  12.945 -0.2614 -0.3618  0.1449
  467TIP3    H122892   5.234   2.443  12.867 -0.5684 -0.3741 -0.0002
  467TIP3    H222893   5.157   2.564  12.915 -0.1317 -0.2306  0.3382
  468TIP3   OH222894   6.142   6.028  17.093  0.3789  0.0177 -0.3732
  468TIP3    H122895   6.099   5.944  17.110 -1.3804  1.0442  0.2868
  468TIP3    H222896   6.195   6.043  17.171 -0.2747  0.1400  0.0422
  469TIP3   OH222897   6.733   3.649  11.983  0.4033  0.3399 -0.4078
  469TIP3    H122898   6.824   3.659  11.955  0.1747 -1.3146 -1.8679
  469TIP3    H222899   6.687   3.622  11.904 -0.7528 -2.0074  0.9978
  470TIP3   OH222900   5.964   6.042  11.403  0.8094 -0.1367  0.3313
  470TIP3    H122901   5.942   6.117  11.348  0.1627  0.2247  1.0692
  470TIP3    H222902   5.987   6.080  11.488 -0.0332 -0.8117  0.8658
  471TIP3   OH222903   2.652   4.426   1.170 -0.7910 -0.0915  0.2894
  471TIP3    H122904   2.684   4.420   1.260 -2.2274 -1.5670  0.7508
  471TIP3    H222905   2.706   4.365   1.121 -0.3998  0.2670  0.2754
  472TIP3   OH222906   0.942   5.294  13.960  0.3246  0.1310  0.1605
  472TIP3    H122907   1.015   5.252  13.914 -0.3084  1.0542 -1.7243
  472TIP3    H222908   0.960   5.277  14.053  1.2848 -2.3206 -0.4327
  473TIP3   OH222909   4.528   5.204  12.442  0.6687  0.0176  0.4669
  473TIP3    H122910   4.551   5.119  12.480 -2.1491  0.1267  2.5123
  473TIP3    H222911   4.544   5.267  12.512  0.2758  0.8824 -0.2086
  474TIP3   OH222912   0.235   6.225   4.904  1.0825  0.2365 -0.4781
  474TIP3    H122913   0.173   6.154   4.920 -1.1851  2.2712 -0.0152
  474TIP3    H222914   0.321   6.185   4.920 -0.2482 -1.8694  1.8448
  475TIP3   OH222915   3.827   0.699   3.254 -0.3034  0.6961  0.3439
  475TIP3    H122916   3.736   0.709   3.225  0.0465  1.5753 -0.4789
  475TIP3    H222917   3.820   0.659   3.340 -1.4670  0.5310  0.1882
  476TIP3   OH222918   2.853   2.460  10.987 -0.1672 -0.0475  0.0782
  476TIP3    H122919   2.822   2.373  11.014 -0.5380  0.1016  0.1376
  476TIP3    H222920   2.797   2.484  10.913  1.6453 -0.9751 -1.6437
  477TIP3   OH222921   0.825   6.376   5.684  0.2430  0.3580  0.0826
  477TIP3    H122922   0.767   6.300   5.676 -0.4575  0.7766  1.1144
  477TIP3    H222923   0.902   6.344   5.731  0.2717  0.1133 -0.1334
  478TIP3   OH222924   1.670   5.832   6.334  0.3935 -0.1426  1.2211
  478TIP3    H122925   1.671   5.882   6.252 -1.0438 -0.6835  0.8597
  478TIP3    H222926   1.665   5.899   6.402  0.0460  0.2668  0.7991
  479TIP3   OH222927   0.181   2.762   2.844 -0.0692  0.2972 -0.4982
  479TIP3    H122928   0.181   2.858   2.843 -0.9329  0.2949 -2.0325
  479TIP3    H222929   0.091   2.738   2.864  0.1849 -0.2070  0.0744
  480TIP3   OH222930   1.409   5.227  13.767 -0.6113  0.3759 -0.2421
  480TIP3    H122931   1.474   5.250  13.834 -2.3648  1.4311  1.1694
  480TIP3    H222932   1.431   5.282  13.692  0.8900 -0.2167 -0.2557
  481TIP3   OH222933   4.370   5.511  17.244  0.2363  0.0032 -1.2688
  481TIP3    H122934   4.453   5.495  17.289  0.1132  0.3145 -0.9192
  481TIP3    H222935   4.385   5.484  17.154  1.2407  1.6092 -1.5977
  482TIP3   OH222936   2.040   3.063  12.864  0.0720 -0.2891 -0.6874
  482TIP3    H122937   2.010   2.973  12.879  0.5127 -0.2197  0.6721
  482TIP3    H222938   1.983   3.096  12.795 -1.0904 -1.1258 -0.1533
  483TIP3   OH222939   0.500   4.257   2.307 -0.5360 -0.2063  0.0586
  483TIP3    H122940   0.563   4.313   2.261  1.5112 -1.4291  1.3054
  483TIP3    H222941   0.440   4.318   2.350  0.3068  0.9965 -0.4571
  484TIP3   OH222942   1.571   1.486  13.161  0.0407  0.5696  0.1150
  484TIP3    H122943   1.618   1.470  13.079  3.5628  1.5082  1.8406
  484TIP3    H222944   1.505   1.417  13.166  1.8132 -1.3330 -2.0363
  485TIP3   OH222945   3.980   5.145  15.074  0.0943  0.8386  0.0904
  485TIP3    H122946   4.054   5.111  15.023  1.5837  0.7391  2.2301
  485TIP3    H222947   4.022   5.193  15.146 -1.9605  2.0132  0.5218
  486TIP3   OH222948   2.518   2.834  13.938  0.1990  0.5010  0.0468
  486TIP3    H122949   2.443   2.892  13.950 -0.8770 -0.6026 -1.2161
  486TIP3    H222950   2.591   2.882  13.976 -1.1204  1.6380  1.1976
  487TIP3   OH222951   6.531   0.641  13.518  0.6734  0.5294 -0.0970
  487TIP3    H122952   6.612   0.691  13.510  1.5644 -0.9727 -0.5549
  487TIP3    H222953   6.543   0.588  13.597  0.3753 -0.1032 -0.4714
  488TIP3   OH222954   6.606   2.034  14.441  0.8085 -0.2490  0.0814
  488TIP3    H122955   6.596   1.981  14.361  0.1456 -0.6375  0.4204
  488TIP3    H222956   6.542   1.998  14.502  0.4051  0.8979  0.3466
  489TIP3   OH222957   4.060   4.009  13.369 -0.4406  0.1359 -0.5736
  489TIP3    H122958   3.975   3.972  13.346  0.0129  0.1461 -2.3678
  489TIP3    H222959   4.082   4.066  13.295  1.8789 -1.1696 -0.9338
  490TIP3   OH222960   2.118   5.113  12.870  0.5445  0.3133 -0.1625
  490TIP3    H122961   2.133   5.186  12.810  1.1960  0.9373  0.7401
  490TIP3    H222962   2.076   5.046  12.816  1.4003  0.7366 -1.3932
  491TIP3   OH222963   0.250   6.445  13.966  0.4514  0.2811  0.3016
  491TIP3    H122964   0.164   6.424  13.930  0.0195  2.5468 -0.0967
  491TIP3    H222965   0.266   6.379  14.033 -1.0968 -0.8205 -0.3949
  492TIP3   OH222966   5.424   3.041  14.465  0.2911 -0.3396  0.1180
  492TIP3    H122967   5.506   3.045  14.515 -1.0714  0.0895  2.4061
  492TIP3    H222968   5.385   2.957  14.489 -2.2424  1.5303  2.9343
  493TIP3   OH222969   4.185   5.552  12.068 -0.0701 -0.1009  0.1164
  493TIP3    H122970   4.118   5.591  12.124 -0.4240  1.6543 -1.4692
  493TIP3    H222971   4.261   5.610  12.078  0.3316 -0.5749 -0.1423
  494TIP3   OH222972   6.653   4.544   1.250  0.3277 -0.6294  0.1684
  494TIP3    H122973   6.734   4.590   1.231 -0.4912  0.5811 -0.5048
  494TIP3    H222974   6.601   4.607   1.301  0.1444 -1.6903  1.3102
  495TIP3   OH222975   2.142   2.214  14.624  0.1947 -0.2626 -0.7494
  495TIP3    H122976   2.058   2.235  14.585 -0.3173  0.1359  0.5346
  495TIP3    H222977   2.205   2.265  14.574 -0.4429  0.1894 -1.0974
  496TIP3   OH222978   0.072   2.796   6.358 -0.1086  0.3693 -0.4414
  496TIP3    H122979  -0.018   2.795   6.326 -1.6325 -3.5743  3.4721
  496TIP3    H222980   0.072   2.860   6.430  0.6313  1.3812 -1.3138
  497TIP3   OH222981   2.525   3.640  10.670 -0.5425 -0.1880  0.7943
  497TIP3    H122982   2.547   3.601  10.755 -2.3522  2.2795  2.4666
  497TIP3    H222983   2.596   3.702  10.654 -0.1839 -0.6768  0.4654
  498TIP3   OH222984   3.958   6.435  11.733 -0.2976 -0.5929  0.6151
  498TIP3    H122985   3.956   6.509  11.672 -0.3572 -1.4685 -0.4739
  498TIP3    H222986   4.040   6.445  11.781 -0.7363  0.6736  1.1249
  499TIP3   OH222987   4.195   4.817   1.026 -0.7016 -0.2930  0.1673
  499TIP3    H122988   4.145   4.881   0.975  0.8927  0.0691 -0.9630
  499TIP3    H222989   4.214   4.863   1.108  0.4622  0.7132 -0.6473
  500TIP3   OH222990   0.806   3.973   1.584 -0.1297  0.3141 -0.1693
  500TIP3    H122991   0.728   4.027   1.591 -1.4022 -1.4247 -0.6668
  500TIP3    H222992   0.806   3.921   1.664  0.1829 -0.1391 -0.4607
  501TIP3   OH222993   3.075   0.809   5.786 -0.0204 -0.0474  0.0977
  501TIP3    H122994   3.069   0.851   5.700 -1.0755 -0.8841 -0.2467
  501TIP3    H222995   3.032   0.724   5.775 -1.2432  0.3343  1.7737
  502TIP3   OH222996   6.628   5.009   5.234  0.2695  0.0154  0.0116
  502TIP3    H122997   6.700   4.964   5.278  0.6211 -0.4268 -1.0035
  502TIP3    H222998   6.549   4.977   5.278  0.6594  0.0996  0.7698
  503TIP3   OH222999   2.188   4.822  11.914  0.3104  0.3627 -0.0456
  503TIP3    H123000   2.177   4.727  11.922 -0.3673  0.3022 -1.4723
  503TIP3    H223001   2.281   4.836  11.926  0.4873 -0.5451 -0.3029
  504TIP3   OH223002   0.353   0.137   5.300  0.2500 -0.1759  0.1667
  504TIP3    H123003   0.356   0.058   5.246  1.4315 -0.6814  0.9441
  504TIP3    H223004   0.270   0.180   5.276  0.5302 -0.6249 -1.6783
  505TIP3   OH223005   3.235   6.532   2.678 -0.8348 -0.4360  0.1950
  505TIP3    H123006   3.272   6.444   2.674 -1.1975 -0.7128  2.3423
  505TIP3    H223007   3.310   6.589   2.698 -1.0062 -0.5908  1.3181
  506TIP3   OH223008   3.405   0.896  15.246  0.0194  0.3168 -0.4548
  506TIP3    H123009   3.470   0.966  15.246 -0.7185  1.0115 -2.6291
  506TIP3    H223010   3.450   0.820  15.209 -0.1099  0.5324 -1.0608
  507TIP3   OH223011   5.758   5.786  12.303 -0.5671  0.0457  0.3913
  507TIP3    H123012   5.681   5.739  12.333  0.1170 -0.5608  1.2349
  507TIP3    H223013   5.802   5.727  12.243 -0.4252  0.1385  0.4009
  508TIP3   OH223014   3.770   4.057  15.894  0.1444  0.5483 -0.3817
  508TIP3    H123015   3.743   3.989  15.956  0.2928  1.5705  0.8304
  508TIP3    H223016   3.708   4.129  15.910 -1.7146 -0.2841 -3.5251
  509TIP3   OH223017   6.215   1.646   2.775 -0.5196 -0.0830 -0.1261
  509TIP3    H123018   6.271   1.665   2.699 -1.6450 -0.2112 -1.0093
  509TIP3    H223019   6.216   1.550   2.781 -0.4036 -0.0707  0.0409
  510TIP3   OH223020   2.498   4.844  13.097 -0.4837  0.2599  0.9095
  510TIP3    H123021   2.559   4.792  13.150  0.2893 -0.0934 -0.3045
  510TIP3    H223022   2.411   4.812  13.121 -0.0771 -0.7302  1.0940
  511TIP3   OH223023   2.749   4.924  13.345 -0.1579 -0.5957 -0.1693
  511TIP3    H123024   2.790   4.840  13.367  1.5857  0.6359  1.4096
  511TIP3    H223025   2.657   4.912  13.368  0.3372 -1.6386  1.3540
  512TIP3   OH223026   1.958   3.837  13.395  0.0391  0.3883  0.1236
  512TIP3    H123027   1.990   3.823  13.306 -0.2272 -0.8819  0.2250
  512TIP3    H223028   2.021   3.899  13.433  1.6350 -1.0266 -0.1271
  513TIP3   OH223029   0.825   1.762   1.734  0.1115  0.3503 -0.0778
  513TIP3    H123030   0.877   1.793   1.659  2.4805 -0.6822  1.0827
  513TIP3    H223031   0.827   1.834   1.796  3.0556 -0.8888  1.3550
  514TIP3   OH223032   5.455   3.699   0.821  0.2869  0.3128  0.1874
  514TIP3    H123033   5.475   3.779   0.773  0.9482  0.7635  1.2091
  514TIP3    H223034   5.396   3.650   0.763  1.2286  0.7612 -1.1627
  515TIP3   OH223035   2.988   3.632   5.648 -0.2459 -0.1233  0.1459
  515TIP3    H123036   2.962   3.658   5.560 -1.8655 -1.6160  0.1530
  515TIP3    H223037   2.981   3.712   5.700  0.5192  0.7200 -1.0249
  516TIP3   OH223038   4.862   6.032   4.213  0.5978  0.9008 -0.4718
  516TIP3    H123039   4.819   6.023   4.128  1.3492  2.2449 -1.0160
  516TIP3    H223040   4.944   6.078   4.193  1.1076  0.6069  0.8857
  517TIP3   OH223041   0.984   5.714  16.625 -0.5685  0.8305  0.0901
  517TIP3    H123042   0.918   5.670  16.679 -1.2361  1.9028  0.1606
  517TIP3    H223043   1.027   5.643  16.577 -1.6818  0.1044  0.1472
  518TIP3   OH223044   1.593   4.759   4.771 -0.1442 -0.6596  0.0483
  518TIP3    H123045   1.637   4.818   4.710  1.6375 -1.2987  0.6694
  518TIP3    H223046   1.508   4.742   4.731  0.3763  0.1708 -1.4670
  519TIP3   OH223047   0.931   0.388  12.022  0.1666 -0.7489  0.1845
  519TIP3    H123048   0.993   0.329  11.978 -0.3355 -0.5723 -0.7792
  519TIP3    H223049   0.976   0.473  12.024 -0.5966 -0.2455 -1.8684
  520TIP3   OH223050   5.216   5.549  16.347  0.1306 -0.0981  0.1678
  520TIP3    H123051   5.283   5.518  16.286  1.3971  0.9503  1.0032
  520TIP3    H223052   5.182   5.469  16.388  0.4594 -0.6759 -0.6678
  521TIP3   OH223053   2.577   0.141   4.070  0.2409  0.6038  0.1564
  521TIP3    H123054   2.666   0.158   4.042 -0.0893 -0.4017 -1.5934
  521TIP3    H223055   2.584   0.122   4.164  1.7370  1.2884  0.1994
  522TIP3   OH223056   3.447   3.644  11.922  0.9961 -0.7231 -0.1124
  522TIP3    H123057   3.539   3.668  11.921  0.7983  0.1212  1.1142
  522TIP3    H223058   3.401   3.722  11.890  0.3780  0.4882  3.5538
  523TIP3   OH223059   5.348   0.261   3.372 -0.1093  0.1011  0.5503
  523TIP3    H123060   5.271   0.285   3.425 -1.4195 -0.2584 -1.1481
  523TIP3    H223061   5.336   0.168   3.352  0.9626 -0.0505  0.5691
  524TIP3   OH223062   6.608   6.715  11.842  0.1720  0.5095 -0.1382
  524TIP3    H123063   6.669   6.646  11.868  0.0562  0.2190 -0.6189
  524TIP3    H223064   6.617   6.783  11.909 -0.7472 -0.5941  1.1422
  525TIP3   OH223065   2.175   1.270  15.769  0.1947 -0.4234 -0.4701
  525TIP3    H123066   2.245   1.303  15.713 -0.4750  0.7746 -0.6219
  525TIP3    H223067   2.110   1.234  15.708  0.1216 -0.4238 -0.3930
  526TIP3   OH223068   2.134   1.003   5.313  0.1294 -0.1235 -0.2219
  526TIP3    H123069   2.217   0.961   5.336 -1.0593 -1.1761  2.3284
  526TIP3    H223070   2.089   0.939   5.258  0.2166 -0.3237 -0.0607
  527TIP3   OH223071   3.430   1.000  12.352  0.0865  0.2507 -0.0234
  527TIP3    H123072   3.468   0.992  12.440  0.2597  0.5850 -0.0655
  527TIP3    H223073   3.337   0.980  12.365  0.0532  0.5805  0.2947
  528TIP3   OH223074   6.077   0.132   1.647  0.1115 -0.6902 -0.1776
  528TIP3    H123075   6.020   0.120   1.724  1.2626  0.1674  0.8280
  528TIP3    H223076   6.165   0.132   1.683  0.6215  0.5142 -1.4022
  529TIP3   OH223077   2.337   3.624   2.801 -0.4268  0.2624  0.7482
  529TIP3    H123078   2.361   3.689   2.867  0.4854  1.0514 -0.3414
  529TIP3    H223079   2.343   3.671   2.718 -3.7481 -0.1030  0.2410
  530TIP3   OH223080   3.799   3.555  12.140  0.0368  0.3336  0.1111
  530TIP3    H123081   3.804   3.469  12.100 -1.1458  0.0714  0.5077
  530TIP3    H223082   3.707   3.564  12.167  0.6032  0.8640  1.9260
  531TIP3   OH223083   0.462   0.349  12.808  0.3203  0.4947 -0.6871
  531TIP3    H123084   0.421   0.415  12.752 -0.5930 -0.0982 -0.7148
  531TIP3    H223085   0.547   0.333  12.767  0.3425  1.2937 -0.9583
  532TIP3   OH223086   0.627   6.505   4.588  0.2053 -0.9364 -0.1133
  532TIP3    H123087   0.613   6.464   4.673 -1.1189 -2.1707 -0.9075
  532TIP3    H223088   0.709   6.553   4.598  0.6595 -2.0031  1.5091
  533TIP3   OH223089   0.964   5.896  15.186  0.2306 -0.0343 -0.1695
  533TIP3    H123090   1.040   5.871  15.239  0.2357 -0.1542 -0.2327
  533TIP3    H223091   0.915   5.815  15.174 -0.7208  0.3416  1.1537
  534TIP3   OH223092   1.041   1.342   1.555  0.1645  0.6495  0.8447
  534TIP3    H123093   0.960   1.389   1.535  0.5013  1.1479  0.6305
  534TIP3    H223094   1.024   1.252   1.529 -0.5099  0.6385  1.3162
  535TIP3   OH223095   6.696   5.889   1.260 -0.5040  0.3976  0.1493
  535TIP3    H123096   6.620   5.913   1.207 -1.0620 -0.1444  0.6979
  535TIP3    H223097   6.718   5.968   1.309  0.3480  1.0648 -1.2893
  536TIP3   OH223098   3.613   0.846  13.890  0.8686  0.4516 -0.0990
  536TIP3    H123099   3.653   0.846  13.803  0.9778 -1.0080 -0.0505
  536TIP3    H223100   3.538   0.789  13.883  0.2951  1.1109  0.5151
  537TIP3   OH223101   4.179   4.247   5.662  0.0584  0.0445 -0.4897
  537TIP3    H123102   4.125   4.171   5.686 -2.0176  1.7327  0.3414
  537TIP3    H223103   4.205   4.286   5.745  2.0069 -0.3325 -0.9002
  538TIP3   OH223104   2.769   5.419  14.628  0.1763 -0.2551  0.0882
  538TIP3    H123105   2.727   5.350  14.578  0.7305 -0.4870 -0.0680
  538TIP3    H223106   2.703   5.488  14.636 -0.5543 -1.0314  0.7085
  539TIP3   OH223107   6.330   1.183   2.761 -0.2679 -0.5170  0.3441
  539TIP3    H123108   6.290   1.263   2.726  0.6192 -0.5565 -0.7707
  539TIP3    H223109   6.256   1.125   2.778 -0.7664 -0.2180 -0.7759
  540TIP3   OH223110   1.297   4.055   4.983  0.0043 -0.4016  0.0803
  540TIP3    H123111   1.266   4.144   4.996  0.8961  0.1696 -1.5807
  540TIP3    H223112   1.381   4.052   5.029  0.8382  0.1812 -1.3507
  541TIP3   OH223113   5.006   2.333  16.904  0.0385  0.0222 -0.1325
  541TIP3    H123114   5.027   2.251  16.948  0.7655 -0.0257 -0.5518
  541TIP3    H223115   4.911   2.333  16.895 -0.0434 -0.3207  0.7492
  542TIP3   OH223116   3.411   1.180  16.853 -0.2841 -0.1414  0.2494
  542TIP3    H123117   3.410   1.106  16.913  0.4092  0.1272  0.6014
  542TIP3    H223118   3.389   1.256  16.908  1.8150  0.3236  0.4911
  543TIP3   OH223119   1.863   2.336   3.244 -0.2066  0.1114  0.2680
  543TIP3    H123120   1.847   2.409   3.303  0.6718 -0.0978  0.7725
  543TIP3    H223121   1.946   2.299   3.273 -1.3347 -1.9825  0.9258
  544TIP3   OH223122   2.238   2.890  11.838 -0.2883  0.0598  0.2792
  544TIP3    H123123   2.147   2.875  11.865 -0.7208  2.0580  0.0613
  544TIP3    H223124   2.261   2.973  11.880  1.1132  0.0498 -0.4563
  545TIP3   OH223125   4.226   0.575   0.418 -0.5268 -0.1573 -0.3568
  545TIP3    H123126   4.219   0.670   0.425 -0.6995 -0.1228 -0.9982
  545TIP3    H223127   4.319   0.559   0.403 -0.2494 -0.1907  1.2408
  546TIP3   OH223128   5.681   3.591  17.235  0.5268  0.0775  0.5870
  546TIP3    H123129   5.604   3.641  17.207  1.4928  1.0857 -0.3252
  546TIP3    H223130   5.673   3.587  17.330 -0.3646  0.6502  0.5453
  547TIP3   OH223131   6.364   4.806  14.882 -0.3319 -0.0989 -0.2516
  547TIP3    H123132   6.333   4.719  14.908 -0.8820 -0.1267 -0.9677
  547TIP3    H223133   6.295   4.866  14.909  0.0258  0.1141  0.1963
  548TIP3   OH223134   4.086   0.069   4.547  0.8448  0.4508 -0.5451
  548TIP3    H123135   4.144   0.140   4.573  2.1584 -0.2112 -1.6204
  548TIP3    H223136   4.121  -0.008   4.593 -0.9360  0.5971  1.1020
  549TIP3   OH223137   4.419   4.283   2.784  0.3227  0.0028  0.3334
  549TIP3    H123138   4.371   4.340   2.844 -0.8371  0.7752 -1.2913
  549TIP3    H223139   4.485   4.340   2.745  0.8821 -0.4269  0.6444
  550TIP3   OH223140   3.820   3.681   2.430  0.1084 -0.2725 -0.1918
  550TIP3    H123141   3.897   3.682   2.486 -0.6148  0.8536  0.7919
  550TIP3    H223142   3.766   3.610   2.465 -0.3170  0.3931  0.5239
  551TIP3   OH223143   0.898   4.851   1.351 -0.1376 -0.2675 -0.0891
  551TIP3    H123144   0.964   4.914   1.320  1.0993 -1.0085  0.9862
  551TIP3    H223145   0.914   4.844   1.445 -0.3855 -2.0326 -0.1584
  552TIP3   OH223146   5.295   4.537   0.410  0.2005 -0.5701 -0.7215
  552TIP3    H123147   5.205   4.527   0.442 -0.1673  1.0139 -1.2455
  552TIP3    H223148   5.287   4.594   0.334  1.8448  0.7948  0.1165
  553TIP3   OH223149   2.055   4.301  16.174 -0.0404  0.3986  0.6128
  553TIP3    H123150   1.974   4.254  16.152 -0.1563  0.6790  0.4421
  553TIP3    H223151   2.068   4.284  16.267  0.5826 -0.9998  0.2934
  554TIP3   OH223152   5.357   1.100   3.435 -0.0809  0.4517 -0.4434
  554TIP3    H123153   5.295   1.047   3.384  0.7948 -1.5345  0.4874
  554TIP3    H223154   5.392   1.039   3.500  0.5182  2.3626  1.0682
  555TIP3   OH223155   3.159   4.086  11.053 -0.1530  0.2877 -0.2705
  555TIP3    H123156   3.216   4.039  11.114 -0.0365  1.4073  0.5107
  555TIP3    H223157   3.210   4.093  10.972  0.6012  0.7859  0.2396
  556TIP3   OH223158   3.762   0.115  10.963  0.3503 -0.6318  0.2854
  556TIP3    H123159   3.739   0.023  10.973  0.8600 -0.8905 -0.7981
  556TIP3    H223160   3.833   0.115  10.899  0.1159  0.5425  0.0113
  557TIP3   OH223161   6.106   3.798   3.975  0.1419  0.0347 -0.2234
  557TIP3    H123162   6.037   3.737   4.002  0.3308 -0.2232 -0.3213
  557TIP3    H223163   6.059   3.879   3.954 -0.3565 -0.6938 -2.0337
  558TIP3   OH223164   4.870   0.842   0.487 -0.2765  0.3849  0.2527
  558TIP3    H123165   4.907   0.930   0.479 -0.4879  0.4506 -0.0210
  558TIP3    H223166   4.943   0.787   0.515 -0.5529  0.9667  2.1889
  559TIP3   OH223167   3.873   5.521  11.319 -0.3098 -0.1366  0.3517
  559TIP3    H123168   3.825   5.507  11.237  1.3099 -0.8553 -0.4997
  559TIP3    H223169   3.937   5.589  11.298 -1.0153  0.9148  1.5187
  560TIP3   OH223170   0.394   0.900  15.822  0.7860 -0.4756 -0.3799
  560TIP3    H123171   0.368   0.832  15.885  2.0496 -0.9715 -0.3735
  560TIP3    H223172   0.483   0.924  15.849 -0.3686  2.6666  0.8952
  561TIP3   OH223173   3.278   1.189  15.740  0.2079 -0.0242  1.0843
  561TIP3    H123174   3.226   1.127  15.688 -0.2164  0.4066  1.0015
  561TIP3    H223175   3.284   1.267  15.685 -1.4819  0.9773  2.2870
  562TIP3   OH223176   6.104   6.100   0.576  0.2691 -0.1032  0.0011
  562TIP3    H123177   6.161   6.062   0.642 -0.7208 -1.8801 -0.1156
  562TIP3    H223178   6.015   6.079   0.606 -0.1939 -1.1430 -1.9545
  563TIP3   OH223179   4.184   5.267  16.355  0.1080 -0.2934  0.3788
  563TIP3    H123180   4.217   5.353  16.383 -2.5020  0.7895  0.2717
  563TIP3    H223181   4.262   5.217  16.335  1.8041  1.2519  2.8233
  564TIP3   OH223182   0.359   2.586  15.563  0.3538 -0.0086  0.0788
  564TIP3    H123183   0.435   2.633  15.597  0.5696  0.7680 -1.4667
  564TIP3    H223184   0.311   2.651  15.511 -1.6489 -0.3525  1.4492
  565TIP3   OH223185   2.384   2.822   2.594  0.3792  0.0074 -0.5104
  565TIP3    H123186   2.450   2.867   2.647  0.5400 -0.3344 -0.4152
  565TIP3    H223187   2.313   2.885   2.584  0.2857  0.0290  0.2307
  566TIP3   OH223188   1.696   0.123  12.316  0.3018 -0.0284  0.2623
  566TIP3    H123189   1.610   0.157  12.292  0.0434 -0.6560  0.3121
  566TIP3    H223190   1.682   0.077  12.399  0.5247 -0.8544 -0.1566
  567TIP3   OH223191   6.056   4.866   0.910  0.1525 -0.0904 -0.8508
  567TIP3    H123192   6.109   4.789   0.933 -2.0322 -1.0349  1.2752
  567TIP3    H223193   6.066   4.925   0.984 -0.3655  0.4703 -1.2237
  568TIP3   OH223194   1.784   6.341  11.078 -0.7292 -0.4944 -0.3716
  568TIP3    H123195   1.751   6.346  11.168 -0.5716 -2.2654 -0.2078
  568TIP3    H223196   1.779   6.432  11.046 -2.5463 -0.1491  0.7932
  569TIP3   OH223197   2.023   0.180  12.925  0.0904 -0.8626 -0.3685
  569TIP3    H123198   2.077   0.100  12.925  0.6700 -0.4858  0.8012
  569TIP3    H223199   1.973   0.174  13.006 -0.7955 -0.6458 -0.8995
  570TIP3   OH223200   5.365   3.630  13.773  0.5306  0.0024 -0.9980
  570TIP3    H123201   5.301   3.561  13.754  0.2147  0.1197 -0.3676
  570TIP3    H223202   5.312   3.708  13.791  0.7595 -0.4461  1.7461
  571TIP3   OH223203   3.152   2.334  13.636  0.2635  0.2832  0.0489
  571TIP3    H123204   3.220   2.367  13.577 -0.3199 -0.7488 -1.2373
  571TIP3    H223205   3.074   2.328  13.581 -0.6458  0.6125  1.2927
  572TIP3   OH223206   6.680   5.359   2.930 -0.0305 -0.1612  0.0236
  572TIP3    H123207   6.689   5.438   2.877 -2.2664  0.4392  0.4932
  572TIP3    H223208   6.610   5.310   2.888 -1.2842 -0.0600  1.9517
  573TIP3   OH223209   1.821   4.001  15.550 -0.2571  0.3488 -0.2383
  573TIP3    H123210   1.884   3.964  15.489  0.0484  0.4413  0.0198
  573TIP3    H223211   1.821   3.941  15.624 -0.7927  0.1163 -0.4247
  574TIP3   OH223212   1.764   4.571   4.028  0.1158  0.5230 -0.3012
  574TIP3    H123213   1.821   4.510   4.075  1.7067 -0.1153 -2.9689
  574TIP3    H223214   1.756   4.646   4.086  1.0645 -0.7213  1.4850
  575TIP3   OH223215   6.156   0.223  16.873  0.3527 -0.2129  0.2534
  575TIP3    H123216   6.221   0.264  16.816 -0.8317  1.6313  0.1721
  575TIP3    H223217   6.094   0.293  16.892 -1.4585 -1.8671  0.5574
  576TIP3   OH223218   5.346   1.517  11.472  0.5732  0.9440  0.2653
  576TIP3    H123219   5.385   1.571  11.403  0.8918 -0.0003 -0.2933
  576TIP3    H223220   5.258   1.552  11.482  0.2546  0.5740 -1.1784
  577TIP3   OH223221   5.115   5.432   2.605  0.5749 -0.0879  0.3481
  577TIP3    H123222   5.131   5.379   2.683  2.7716 -0.8672 -0.6037
  577TIP3    H223223   5.067   5.509   2.637  3.8625  0.9882  2.9484
  578TIP3   OH223224   4.580   5.911   3.869 -0.0697  0.0494  0.4530
  578TIP3    H123225   4.533   5.945   3.944  1.7931  0.8062  1.3290
  578TIP3    H223226   4.672   5.932   3.887  0.5279 -0.7252 -1.5159
  579TIP3   OH223227   3.242   3.955   3.123  0.6370 -0.0150 -0.5560
  579TIP3    H123228   3.303   3.897   3.078 -0.3788 -1.0081 -0.6741
  579TIP3    H223229   3.203   4.008   3.054 -0.9473 -1.5619 -0.8876
  580TIP3   OH223230   6.812   4.666   3.731  0.2368 -0.7297  0.4795
  580TIP3    H123231   6.890   4.625   3.768  2.0191  1.6716 -0.5390
  580TIP3    H223232   6.843   4.711   3.653 -1.6197  2.6661  1.6204
  581TIP3   OH223233   4.608   6.027   4.802  0.3545 -0.1614  0.0848
  581TIP3    H123234   4.582   5.967   4.731  0.8810 -1.8563  1.3101
  581TIP3    H223235   4.526   6.068   4.829  0.2052  0.8620 -1.8061
  582TIP3   OH223236   0.349   1.486   2.380 -0.2058 -0.0836  0.4360
  582TIP3    H123237   0.434   1.511   2.343  0.3487  0.6762  2.1566
  582TIP3    H223238   0.336   1.396   2.352  1.8479 -0.6886  1.3138
  583TIP3   OH223239   5.566   2.195  14.120  0.3291 -0.3040  0.5140
  583TIP3    H123240   5.619   2.273  14.137  0.4216 -0.5305  1.3351
  583TIP3    H223241   5.557   2.155  14.207 -2.1965  0.3721  0.5793
  584TIP3   OH223242   2.357   6.465  10.656 -0.0577 -0.5567 -0.1239
  584TIP3    H123243   2.280   6.481  10.602  0.9632  0.0556 -1.4096
  584TIP3    H223244   2.409   6.545  10.649  0.4429 -0.7537  1.1740
  585TIP3   OH223245   4.417   1.675  17.097  0.4626  0.1697 -0.4881
  585TIP3    H123246   4.433   1.769  17.083  0.6997  0.4395  1.4631
  585TIP3    H223247   4.453   1.658  17.184 -0.3265 -1.5606 -0.4938
  586TIP3   OH223248   6.123   3.038   0.531 -0.4316  0.1923 -0.4340
  586TIP3    H123249   6.125   3.074   0.443  1.0258  0.0054 -0.4930
  586TIP3    H223250   6.122   2.943   0.518  2.6790  0.0776 -0.2789
  587TIP3   OH223251   2.231   0.852   4.759  0.4614  0.2885 -0.1480
  587TIP3    H123252   2.240   0.757   4.747  0.3544  0.5970 -2.9064
  587TIP3    H223253   2.285   0.871   4.836  0.9157 -1.9281  0.1268
  588TIP3   OH223254   2.946   1.563  16.667 -0.3911  0.1172 -0.2489
  588TIP3    H123255   3.040   1.561  16.685 -0.3731  1.8338 -0.0989
  588TIP3    H223256   2.915   1.478  16.696  1.1869 -0.6497 -0.7214
  589TIP3   OH223257   3.615   5.390  14.631  0.0574 -0.1371 -0.2645
  589TIP3    H123258   3.557   5.315  14.618 -0.6140  0.2084  0.6739
  589TIP3    H223259   3.601   5.415  14.722 -0.3113  1.6306 -0.7954
  590TIP3   OH223260   3.140   6.440   0.133 -0.4740 -0.4457 -0.2876
  590TIP3    H123261   3.183   6.362   0.100 -1.2395 -0.5031 -1.1901
  590TIP3    H223262   3.206   6.484   0.186  1.0024 -0.0771 -2.3667
  591TIP3   OH223263   5.251   5.848   0.901  0.0665  0.4056 -0.5735
  591TIP3    H123264   5.252   5.753   0.911  0.1417  0.3535 -1.0526
  591TIP3    H223265   5.212   5.862   0.815  0.7827  0.7738 -0.8435
  592TIP3   OH223266   6.306   0.635  16.046 -0.0546 -0.4754  0.6496
  592TIP3    H123267   6.271   0.581  15.976  0.4626 -1.0056  0.8063
  592TIP3    H223268   6.337   0.573  16.112  2.0074 -0.0127  0.1245
  593TIP3   OH223269   0.608   5.926  13.414  0.2792  0.2448 -0.0436
  593TIP3    H123270   0.655   5.942  13.496 -0.2466  0.2546  0.2583
  593TIP3    H223271   0.638   5.995  13.355  1.4507 -0.3850 -0.1936
  594TIP3   OH223272   1.020   1.883  11.601  0.4022  0.6757  0.1710
  594TIP3    H123273   0.985   1.812  11.654  0.0298 -0.0264 -0.9967
  594TIP3    H223274   1.036   1.954  11.663  2.7695 -1.1100  1.7180
  595TIP3   OH223275   1.499   2.733  16.926 -0.9441 -0.1058 -0.6786
  595TIP3    H123276   1.414   2.691  16.920 -0.3131 -1.3113 -1.3329
  595TIP3    H223277   1.558   2.677  16.875  0.2315  0.7311 -0.2789
  596TIP3   OH223278   5.716   4.112   2.612 -0.3896  0.0642  0.3418
  596TIP3    H123279   5.720   4.128   2.517 -1.1020 -2.0000 -0.0676
  596TIP3    H223280   5.634   4.152   2.640 -0.5792 -0.0405 -0.0637
  597TIP3   OH223281   3.098   6.063  16.369  0.1028 -0.1812 -0.3031
  597TIP3    H123282   3.153   6.021  16.435  1.1689  0.9276 -0.4719
  597TIP3    H223283   3.064   6.141  16.412  1.6398  1.1104 -1.3549
  598TIP3   OH223284   5.572   0.444  16.290  0.2302 -0.0064  0.3557
  598TIP3    H123285   5.562   0.369  16.349  0.4199 -0.1375  0.2226
  598TIP3    H223286   5.627   0.506  16.338  0.4778 -0.1606  0.2736
  599TIP3   OH223287   5.342   1.576   5.510 -0.3903  0.5763 -0.0972
  599TIP3    H123288   5.387   1.500   5.547 -0.6849  0.9507  1.0688
  599TIP3    H223289   5.377   1.585   5.422  1.0447  0.2407  0.4299
  600TIP3   OH223290   6.225   4.403  16.392 -0.0552  0.3570 -0.3194
  600TIP3    H123291   6.310   4.427  16.355  0.8565 -2.0412  0.1199
  600TIP3    H223292   6.213   4.311  16.367 -2.8018  0.8204 -0.8950
  601TIP3   OH223293   1.328   1.624  12.765  0.2231  0.0535  0.1911
  601TIP3    H123294   1.338   1.712  12.799 -1.2980  1.1805 -2.1092
  601TIP3    H223295   1.368   1.627  12.678  0.8076 -1.7299  0.3687
  602TIP3   OH223296   3.584   2.659   1.104 -0.0426 -0.4893  0.6536
  602TIP3    H123297   3.601   2.611   1.024 -0.5694 -1.0499  0.8746
  602TIP3    H223298   3.598   2.596   1.174 -6.1054 -2.0003  0.7543
  603TIP3   OH223299   4.065   3.206  12.027 -0.0622 -0.3796  0.2420
  603TIP3    H123300   4.147   3.165  12.000 -0.4971 -2.6951  2.2224
  603TIP3    H223301   4.010   3.204  11.949  1.0148 -0.7729 -0.5170
  604TIP3   OH223302   6.744   0.460  16.945 -0.5143  0.5176 -0.3816
  604TIP3    H123303   6.712   0.482  16.858 -0.9626 -0.3049 -0.4267
  604TIP3    H223304   6.816   0.399  16.930  0.0205  1.0975 -0.2085
  605TIP3   OH223305   4.938   3.982   5.249  0.4530 -0.4938  0.2034
  605TIP3    H123306   4.933   3.975   5.345 -2.2889  0.4511  0.1659
  605TIP3    H223307   4.882   4.057   5.228  2.0905  0.1397 -2.0610
  606TIP3   OH223308   3.389   1.002  17.063 -0.2410 -0.4721  0.0770
  606TIP3    H123309   3.462   1.064  17.065 -1.9403  1.5731  0.3407
  606TIP3    H223310   3.404   0.944  17.137  1.0336  0.0325  0.2112
  607TIP3   OH223311   4.297   1.472   0.023  0.3681 -0.4137 -0.2190
  607TIP3    H123312   4.340   1.556   0.005  2.7915 -1.2329  1.5325
  607TIP3    H223313   4.310   1.420  -0.056  0.5913  0.1682 -0.5665
  608TIP3   OH223314   4.547   2.588  11.512 -0.4153 -0.3742  0.3297
  608TIP3    H123315   4.637   2.560  11.523 -0.3424 -0.0109  0.6827
  608TIP3    H223316   4.552   2.683  11.503 -0.7369 -0.3804  0.0616
  609TIP3   OH223317   4.714   0.486  16.018 -0.0643 -0.1738 -0.2528
  609TIP3    H123318   4.800   0.523  16.036 -1.1945  3.2307 -1.4280
  609TIP3    H223319   4.705   0.412  16.079  2.6027  1.0229  1.6441
  610TIP3   OH223320   6.471   5.501  13.074 -0.4223  0.0445 -0.4001
  610TIP3    H123321   6.431   5.498  13.161 -0.7472  2.9468 -0.3820
  610TIP3    H223322   6.531   5.576  13.078 -0.9746  0.6767 -2.8733
  611TIP3   OH223323   1.389   1.904   4.461 -0.1055 -0.1070  0.2684
  611TIP3    H123324   1.374   1.810   4.468 -0.6362 -0.0368  0.1540
  611TIP3    H223325   1.484   1.914   4.462 -0.0220 -0.7204 -0.6562
  612TIP3   OH223326   5.098   5.912   0.270 -0.7920 -0.1241  0.7180
  612TIP3    H123327   5.131   5.987   0.320  1.4233 -0.6423  0.0870
  612TIP3    H223328   5.052   5.952   0.195 -0.3761  0.6212  0.8530
  613TIP3   OH223329   1.532   5.573  12.818  0.3206  0.1322  0.2851
  613TIP3    H123330   1.546   5.667  12.831  1.5958 -0.3435  2.4846
  613TIP3    H223331   1.606   5.531  12.861 -1.9343 -2.0279  2.2322
  614TIP3   OH223332   3.169   5.285  11.976 -0.4826  0.3053  0.1995
  614TIP3    H123333   3.153   5.196  11.944 -0.9174 -0.2043  1.8067
  614TIP3    H223334   3.177   5.275  12.071  0.5194  1.8325  0.2919
  615TIP3   OH223335   3.464   3.889  10.414 -0.2559 -0.2025  0.3396
  615TIP3    H123336   3.386   3.939  10.437 -0.0144  0.7254 -0.7804
  615TIP3    H223337   3.536   3.935  10.456  0.0444  0.8130 -1.2157
  616TIP3   OH223338   0.506   3.034   4.867 -0.1892  0.1015  0.1696
  616TIP3    H123339   0.420   2.998   4.891 -0.2732  0.3188  0.2006
  616TIP3    H223340   0.543   2.969   4.807  1.5136 -2.1904  3.5325
  617TIP3   OH223341   3.509   5.792  12.796  0.7649  0.1200 -0.3843
  617TIP3    H123342   3.544   5.872  12.757 -0.2062  0.3893 -0.7018
  617TIP3    H223343   3.587   5.738  12.812  1.5350  1.6138  0.9726
  618TIP3   OH223344   2.269   0.245   6.100  0.6052 -0.2171  0.4977
  618TIP3    H123345   2.348   0.280   6.141 -0.2141  2.1443  0.1523
  618TIP3    H223346   2.270   0.282   6.012 -1.0142  0.0814  0.5937
  619TIP3   OH223347   5.937   4.865  11.589 -0.2220  0.3348  0.3887
  619TIP3    H123348   5.963   4.774  11.578  0.5883  0.8067 -1.8125
  619TIP3    H223349   6.015   4.916  11.567 -1.2012  1.5981 -0.2794
  620TIP3   OH223350   0.758   5.232  17.250 -0.0184 -0.1714 -0.1357
  620TIP3    H123351   0.720   5.255  17.165 -3.4443 -0.3402  1.2488
  620TIP3    H223352   0.764   5.137  17.249  1.7947 -0.0751 -0.8829
  621TIP3   OH223353   6.123   4.825   1.503 -0.5292 -0.7219  0.1075
  621TIP3    H123354   6.132   4.821   1.598 -1.7542  0.8137  0.2954
  621TIP3    H223355   6.100   4.916   1.484 -0.1768 -0.9784 -1.6703
  622TIP3   OH223356   5.953   5.603   4.907  0.3508 -0.0535  0.0512
  622TIP3    H123357   5.999   5.568   4.984 -0.1170  1.2817  0.9640
  622TIP3    H223358   5.997   5.687   4.890  0.9706 -0.6999 -1.6364
  623TIP3   OH223359   1.888   6.752  14.374  0.1185  0.0883  0.1615
  623TIP3    H123360   1.912   6.797  14.455  1.6311 -2.3229  1.1183
  623TIP3    H223361   1.858   6.821  14.316 -1.0324  1.8752  2.7841
  624TIP3   OH223362   5.229   5.543  15.619  0.4515  0.9321  0.0183
  624TIP3    H123363   5.171   5.482  15.572  0.6905  0.8810 -0.2107
  624TIP3    H223364   5.247   5.499  15.702 -1.4712  1.8450  0.9413
  625TIP3   OH223365   1.160   3.160   3.896 -0.3543 -0.5391 -0.1265
  625TIP3    H123366   1.159   3.187   3.988 -1.7576  0.6266 -0.4581
  625TIP3    H223367   1.250   3.175   3.868  0.1002 -0.9527  1.0620
  626TIP3   OH223368   6.006   3.087  16.654 -0.5159 -0.1564  0.4627
  626TIP3    H123369   5.951   3.139  16.595 -1.6722 -0.0289  1.6214
  626TIP3    H223370   5.983   2.996  16.634 -1.0903 -0.1056  0.8871
  627TIP3   OH223371   1.647   1.380  11.411 -0.5269  0.3586  0.1443
  627TIP3    H123372   1.668   1.471  11.394  0.1944  0.1279 -0.2046
  627TIP3    H223373   1.710   1.330  11.359 -1.8578 -0.3407 -0.8086
  628TIP3   OH223374   6.296   0.818  13.809 -0.4160 -0.7234 -0.0833
  628TIP3    H123375   6.297   0.911  13.832  0.4106 -1.0196  1.1222
  628TIP3    H223376   6.278   0.817  13.715 -0.3269  0.6551 -0.1277
  629TIP3   OH223377   0.014   2.606   3.826  0.8329  0.3617 -0.0476
  629TIP3    H123378   0.052   2.693   3.842  2.1780 -0.4547  1.2659
  629TIP3    H223379  -0.029   2.583   3.908  1.3722 -0.6740 -0.0580
  630TIP3   OH223380   1.708   3.232  12.031 -0.2817  0.0320 -0.1016
  630TIP3    H123381   1.643   3.245  11.961 -0.8245 -0.5349  0.2856
  630TIP3    H223382   1.792   3.251  11.989 -0.8463  2.7435 -0.0682
  631TIP3   OH223383   6.658   3.866  12.098 -0.1627  0.4633 -0.0615
  631TIP3    H123384   6.703   3.916  12.030  1.6071 -1.7285 -0.5708
  631TIP3    H223385   6.677   3.775  12.077 -0.7992 -0.3190  2.5590
  632TIP3   OH223386   1.119   4.038  11.350  0.1396 -0.5598 -0.9717
  632TIP3    H123387   1.193   4.023  11.408 -1.2742  0.2573  1.1003
  632TIP3    H223388   1.147   4.109  11.292  0.5168  0.6109  0.6357
  633TIP3   OH223389   1.368   0.065  15.048  0.6199 -0.3139  0.0805
  633TIP3    H123390   1.399   0.143  15.002 -0.6932 -0.0855 -0.4271
  633TIP3    H223391   1.303   0.097  15.110  1.6298 -0.7537  1.4004
  634TIP3   OH223392   2.156   2.269   4.159 -0.0029 -0.2101  0.7583
  634TIP3    H123393   2.106   2.351   4.157  0.7147  0.2035 -1.5112
  634TIP3    H223394   2.213   2.277   4.235 -0.3846  1.1235  0.9079
  635TIP3   OH223395   0.689   4.158  15.437  0.3388  0.4902  0.9244
  635TIP3    H123396   0.759   4.213  15.473  2.9521 -1.2831 -1.2347
  635TIP3    H223397   0.720   4.068  15.450 -1.0003 -0.3009 -1.1129
  636TIP3   OH223398   0.537   2.588  12.287 -0.0325  0.3203  0.3110
  636TIP3    H123399   0.476   2.515  12.281 -1.0862  1.1899  0.1431
  636TIP3    H223400   0.491   2.652  12.343  0.3737  1.3219 -0.4923
  637TIP3   OH223401   5.068   3.262  11.165 -0.3942  0.3327  0.5796
  637TIP3    H123402   5.077   3.167  11.173 -1.1015  0.2853  0.8795
  637TIP3    H223403   5.115   3.284  11.084  0.6905 -0.1274  1.0725
  638TIP3   OH223404   0.276   5.400  16.641  0.0747 -0.3624  0.0708
  638TIP3    H123405   0.219   5.477  16.633  0.4141  0.0393  1.3492
  638TIP3    H223406   0.335   5.406  16.566 -0.4528  0.1635 -0.3055
  639TIP3   OH223407   0.239   2.285  13.768 -0.3676 -0.7632 -0.3386
  639TIP3    H123408   0.244   2.336  13.687  0.2088  0.6758  0.5837
  639TIP3    H223409   0.325   2.245  13.776  0.9100  2.1962  1.5179
  640TIP3   OH223410   5.656   1.208  11.148 -0.1384 -0.4498 -0.5477
  640TIP3    H123411   5.672   1.255  11.230  0.0209  0.2520 -0.9792
  640TIP3    H223412   5.612   1.272  11.092 -0.2343 -0.9256 -1.0172
  641TIP3   OH223413   6.145   2.290  13.422 -0.3496 -0.0674  0.4685
  641TIP3    H123414   6.051   2.282  13.409 -0.4112 -2.8892  2.1640
  641TIP3    H223415   6.175   2.345  13.349 -3.0698 -0.2740 -0.8785
  642TIP3   OH223416   5.632   5.848   0.711 -0.3247  0.1111  0.5355
  642TIP3    H123417   5.601   5.812   0.794 -1.6061 -0.0042  0.0202
  642TIP3    H223418   5.552   5.868   0.662  0.3953  1.4303 -0.1411
  643TIP3   OH223419   1.676   0.181   1.782  0.4436  0.2447  0.3224
  643TIP3    H123420   1.749   0.219   1.734 -0.0695  1.5800  0.5630
  643TIP3    H223421   1.599   0.201   1.728  0.0065  0.7497  1.1186
  644TIP3   OH223422   0.958   1.089  14.941 -0.3560 -0.6128 -0.3462
  644TIP3    H123423   1.032   1.083  14.880 -1.0515  1.5994 -1.4606
  644TIP3    H223424   0.916   1.003  14.935  0.1862 -0.7765 -2.2277
  645TIP3   OH223425   6.033   3.106   5.675 -0.1611 -0.7176  0.5306
  645TIP3    H123426   6.049   3.125   5.583 -2.1217 -0.4870  0.2168
  645TIP3    H223427   6.039   3.010   5.681  0.7441 -0.6770  0.3234
  646TIP3   OH223428   6.455   4.793   5.627  0.4288  0.0922  0.5188
  646TIP3    H123429   6.381   4.818   5.683  0.1343  0.4882 -0.0418
  646TIP3    H223430   6.414   4.752   5.550  0.9052 -2.3586  1.5220
  647TIP3   OH223431   3.669   6.314   1.341 -0.2939  0.1570  0.2600
  647TIP3    H123432   3.706   6.247   1.398 -0.7669 -0.9161 -0.6752
  647TIP3    H223433   3.732   6.386   1.344 -0.0376 -0.1217  1.6778
  648TIP3   OH223434   2.962   1.988  12.332  0.0690  0.1528  0.4009
  648TIP3    H123435   3.043   1.986  12.282  1.0549 -1.8223  1.9610
  648TIP3    H223436   2.918   1.906  12.309 -0.9562  0.7044  0.3870
  649TIP3   OH223437   5.056   4.919   0.272  0.2912 -0.9400 -0.1585
  649TIP3    H123438   4.984   4.982   0.260  2.0346  0.8776 -1.3120
  649TIP3    H223439   5.073   4.920   0.366 -0.6390 -0.7851  0.0200
  650TIP3   OH223440   3.527   2.230   4.236 -0.3533  0.2732  0.4236
  650TIP3    H123441   3.622   2.240   4.235 -0.1010 -1.9130 -0.1686
  650TIP3    H223442   3.497   2.280   4.159  0.2372  1.5455  1.0114
  651TIP3   OH223443   5.931   0.979  17.227  0.4305  0.6069  0.2074
  651TIP3    H123444   5.898   0.907  17.173  2.5436 -0.4905  0.3356
  651TIP3    H223445   5.853   1.013  17.271 -0.7851 -0.7966 -0.7924
  652TIP3   OH223446   2.095   5.861  15.427  0.1125  0.1532 -0.6113
  652TIP3    H123447   2.008   5.831  15.453  0.6776  0.7513  2.1264
  652TIP3    H223448   2.154   5.825  15.494  2.1749 -1.3825 -3.1658
  653TIP3   OH223449   3.336   5.323   2.416 -0.2896 -0.6873 -0.3596
  653TIP3    H123450   3.261   5.300   2.361 -1.9356  2.7850  0.3196
  653TIP3    H223451   3.299   5.379   2.485  2.5872 -0.7321  1.2967
  654TIP3   OH223452   3.234   4.637   2.433 -0.5300 -0.1007 -0.4204
  654TIP3    H123453   3.224   4.704   2.501 -2.2724  1.0614 -1.7744
  654TIP3    H223454   3.145   4.606   2.418  0.1971 -2.4235 -0.1560
  655TIP3   OH223455   3.506   3.538  16.796  0.4311 -0.1569 -0.6432
  655TIP3    H123456   3.518   3.465  16.858  1.4288  1.8369  1.5873
  655TIP3    H223457   3.579   3.530  16.736  1.0853 -0.4422  0.1739
  656TIP3   OH223458   1.710   3.595  12.462  0.2568  0.0945 -0.1024
  656TIP3    H123459   1.669   3.680  12.443 -1.6427  0.2314  4.0840
  656TIP3    H223460   1.804   3.614  12.462 -0.1882  2.5417  2.0933
  657TIP3   OH223461   2.066   1.181  11.434  0.3411  0.0697 -0.0016
  657TIP3    H123462   1.995   1.128  11.470  1.9296 -0.1618  2.9691
  657TIP3    H223463   2.082   1.145  11.347 -2.0407 -0.9490 -0.0414
  658TIP3   OH223464   3.755   1.581  16.116 -0.0328  0.3232  0.1903
  658TIP3    H123465   3.703   1.652  16.153 -0.8835 -0.3241  0.2768
  658TIP3    H223466   3.693   1.508  16.109  0.7738 -0.3425 -0.0827
  659TIP3   OH223467   2.424   4.179   4.952 -0.3350 -0.0100 -0.0331
  659TIP3    H123468   2.459   4.139   5.031  0.9493  0.9007 -0.1304
  659TIP3    H223469   2.486   4.157   4.883 -0.8386  0.1888 -0.5589
  660TIP3   OH223470   2.068   4.130   5.350  0.4051 -0.1432 -0.4205
  660TIP3    H123471   2.037   4.097   5.434 -1.2841  3.2115  0.3921
  660TIP3    H223472   2.004   4.098   5.287 -0.4807  0.4406  0.1619
  661TIP3   OH223473   4.814   0.290  11.528 -0.2333 -0.3835  0.0362
  661TIP3    H123474   4.909   0.301  11.532 -0.3585  0.6149  0.2168
  661TIP3    H223475   4.787   0.288  11.620 -0.6678  1.7830 -0.0225
  662TIP3   OH223476   4.690   2.077  12.181 -0.4281 -0.2821 -0.4308
  662TIP3    H123477   4.606   2.093  12.139 -1.1383 -2.9928 -0.1649
  662TIP3    H223478   4.669   2.057  12.272  0.7141  1.1217  0.1722
  663TIP3   OH223479   1.213   1.145  16.710  0.5874 -0.0147  0.2429
  663TIP3    H123480   1.207   1.146  16.614  0.3619 -1.3733  0.2246
  663TIP3    H223481   1.228   1.236  16.734 -1.5038  0.6802 -0.9486
  664TIP3   OH223482   4.470   2.467  17.271 -0.0252 -0.1982  0.1596
  664TIP3    H123483   4.433   2.452  17.358 -0.2869 -1.5697 -0.1799
  664TIP3    H223484   4.450   2.388  17.221 -1.8535  1.4501 -1.8518
  665TIP3   OH223485   4.655   4.247   0.952  0.0933  0.4411  0.8709
  665TIP3    H123486   4.586   4.296   0.908  0.7855  0.8033  0.1791
  665TIP3    H223487   4.732   4.303   0.947  0.3554  0.1886  1.9482
  666TIP3   OH223488   1.506   6.611  16.541  0.1088 -0.8393 -0.3402
  666TIP3    H123489   1.501   6.517  16.556 -0.9986 -0.8647 -0.8282
  666TIP3    H223490   1.423   6.645  16.576  1.9679  0.4229  3.1251
  667TIP3   OH223491   6.390   3.007  12.151 -0.7654  0.4922 -0.4512
  667TIP3    H123492   6.415   2.934  12.207  0.8472  1.3569 -0.0111
  667TIP3    H223493   6.295   2.997  12.139 -0.4075 -2.3439 -1.3785
  668TIP3   OH223494   3.912   6.515  13.387 -0.1942 -0.1972 -0.7367
  668TIP3    H123495   3.821   6.488  13.402 -0.1783  0.7219  1.1949
  668TIP3    H223496   3.940   6.550  13.471  1.9325 -0.3784 -1.3543
  669TIP3   OH223497   6.446   4.066   4.966  0.5341 -0.0620  0.4248
  669TIP3    H123498   6.536   4.035   4.964  0.5542  0.0572 -0.7932
  669TIP3    H223499   6.393   3.986   4.972  0.5172 -0.5541 -4.3386
  670TIP3   OH223500   4.638   3.948  15.765  0.1620 -0.3152 -0.8426
  670TIP3    H123501   4.581   4.020  15.794 -0.8112 -1.3712 -0.0703
  670TIP3    H223502   4.677   3.980  15.684 -0.2951  1.0697 -0.5430
  671TIP3   OH223503   1.053   1.537   2.538  0.0332 -0.4576 -0.1915
  671TIP3    H123504   1.000   1.566   2.612  0.0844  0.0509 -0.3551
  671TIP3    H223505   1.118   1.606   2.526  1.0886 -1.3321  0.3603
  672TIP3   OH223506   2.336   0.399  15.672  0.8202 -0.0691 -0.1831
  672TIP3    H123507   2.301   0.421  15.585  2.5615 -0.3029 -0.9796
  672TIP3    H223508   2.373   0.311  15.661  1.4725  0.0954  0.6697
  673TIP3   OH223509   5.361   0.868   2.434 -0.1065 -0.1653  0.1128
  673TIP3    H123510   5.382   0.896   2.523 -2.1037  0.3392  0.4315
  673TIP3    H223511   5.295   0.930   2.403  2.0120  0.9296 -2.4981
  674TIP3   OH223512   1.820   0.337   1.612 -0.2453 -0.1197 -0.5509
  674TIP3    H123513   1.749   0.402   1.610 -0.6731 -0.5792 -0.3259
  674TIP3    H223514   1.835   0.316   1.520  2.0125  2.5824 -0.8724
  675TIP3   OH223515   4.410   0.796   3.921 -0.4708 -0.1111  0.0811
  675TIP3    H123516   4.319   0.790   3.949 -0.2611  0.0641  0.8286
  675TIP3    H223517   4.413   0.873   3.864 -0.5838  0.5368  0.9250
  676TIP3   OH223518   3.398   1.357  12.589  0.4625 -0.4646 -0.6711
  676TIP3    H123519   3.485   1.341  12.552  0.4631 -0.2529 -0.7614
  676TIP3    H223520   3.401   1.448  12.620  0.2686 -0.4525 -0.6868
  677TIP3   OH223521   0.467   6.094   1.043 -0.2598 -0.8086  0.3416
  677TIP3    H123522   0.495   6.137   0.963  0.7517 -1.0818  0.5442
  677TIP3    H223523   0.476   6.000   1.025 -0.3073 -0.8789  0.6692
  678TIP3   OH223524   3.014   1.945   4.035  0.3956  0.2832 -0.9388
  678TIP3    H123525   2.969   1.980   3.958 -2.1468  0.8152  0.7101
  678TIP3    H223526   3.009   1.850   4.025  2.5574  0.3112 -2.7598
  679TIP3   OH223527   2.981   6.304  16.493 -0.1566 -0.1281  0.0545
  679TIP3    H123528   2.959   6.366  16.562 -0.1070 -0.3187  0.2426
  679TIP3    H223529   2.916   6.321  16.424 -1.1689 -0.9655  0.7761
  680TIP3   OH223530   0.672   5.143   5.944 -0.2233  0.1243 -0.1796
  680TIP3    H123531   0.602   5.205   5.924 -0.6523 -0.4297 -0.4337
  680TIP3    H223532   0.663   5.125   6.038  0.3422  0.9787  0.0380
  681TIP3   OH223533   4.031   5.731   1.796  0.0026 -0.0786  0.3373
  681TIP3    H123534   3.938   5.748   1.788  0.3481  1.9539  0.3577
  681TIP3    H223535   4.050   5.668   1.726 -1.4216 -0.7767  0.5577
  682TIP3   OH223536   3.387   5.663   3.009 -0.0494 -0.1869 -0.2392
  682TIP3    H123537   3.438   5.582   3.004  0.5520  0.2898 -1.9864
  682TIP3    H223538   3.343   5.670   2.925 -1.6780  0.2867  0.6356
  683TIP3   OH223539   3.585   2.906   1.223  0.0761 -0.1132  0.5025
  683TIP3    H123540   3.648   2.857   1.275  0.7060  0.0629 -0.0961
  683TIP3    H223541   3.585   2.862   1.138  0.5794  0.8721 -0.0106
  684TIP3   OH223542   1.908   5.174   1.076 -0.6106  0.2052  0.4761
  684TIP3    H123543   1.889   5.208   1.164 -0.2017 -0.3145  0.7730
  684TIP3    H223544   1.954   5.245   1.032  0.0186  0.1336  1.0072
  685TIP3   OH223545   0.404   0.582  17.257 -0.2052  0.0831  0.2727
  685TIP3    H123546   0.318   0.555  17.290  0.0748 -1.4074 -0.1608
  685TIP3    H223547   0.385   0.648  17.191 -0.8874  1.4494  1.8081
  686TIP3   OH223548   5.115   0.078  14.498 -0.4294  0.1384 -0.4858
  686TIP3    H123549   5.176   0.119  14.437 -2.4999  0.5395 -2.3987
  686TIP3    H223550   5.099   0.144  14.565  0.5179  0.3677 -0.4796
  687TIP3   OH223551   2.186   4.421   0.103 -0.2503  0.0237  0.0343
  687TIP3    H123552   2.114   4.432   0.040 -1.0351 -1.1079  0.7145
  687TIP3    H223553   2.265   4.433   0.051 -0.9297  1.2206 -0.7436
  688TIP3   OH223554   3.939   5.189  12.805  0.1438 -0.5394  0.0898
  688TIP3    H123555   3.931   5.195  12.710 -0.3162 -0.0533  0.1546
  688TIP3    H223556   3.951   5.096  12.822  0.3286 -0.6166 -0.4534
  689TIP3   OH223557   4.701   1.764  12.243  0.5164 -0.2949 -0.0514
  689TIP3    H123558   4.784   1.796  12.207  0.3455  1.2537  0.9014
  689TIP3    H223559   4.717   1.755  12.336 -0.5777  0.6291  0.2376
  690TIP3   OH223560   0.368   5.311   5.458 -0.0054  0.1337  0.0613
  690TIP3    H123561   0.408   5.234   5.418  0.6769  0.5180  0.0038
  690TIP3    H223562   0.274   5.292   5.457 -0.2577  1.1284 -3.9307
  691TIP3   OH223563   4.009   4.557  17.121 -0.3471  0.0857  0.1135
  691TIP3    H123564   3.918   4.539  17.142 -0.1159 -0.3511  0.7651
  691TIP3    H223565   4.007   4.636  17.067 -0.9970  0.9080  1.3323
  692TIP3   OH223566   3.350   6.324  13.536  0.1945 -0.6034  0.1740
  692TIP3    H123567   3.314   6.348  13.450  3.8283  0.2610 -1.2007
  692TIP3    H223568   3.338   6.229  13.541 -2.9806 -0.2607  0.1813
  693TIP3   OH223569   3.459   1.807   3.241  0.8346  0.3817  0.2673
  693TIP3    H123570   3.526   1.865   3.277  0.7963  0.0204  0.9269
  693TIP3    H223571   3.450   1.835   3.150  0.9251  1.3073  0.5338
  694TIP3   OH223572   4.469   2.164  12.796  0.2380  0.2321 -0.0832
  694TIP3    H123573   4.563   2.147  12.803  0.0310 -0.8272  0.1383
  694TIP3    H223574   4.443   2.195  12.883 -0.0203 -1.5110  0.4782
  695TIP3   OH223575   6.203   3.668   5.774  0.4901 -0.4180  0.7811
  695TIP3    H123576   6.109   3.685   5.785  0.7788  1.2844  0.6979
  695TIP3    H223577   6.218   3.587   5.823 -1.4865 -2.0901 -1.2338
  696TIP3   OH223578   1.288   2.731   0.970  0.3378  0.2396 -0.4117
  696TIP3    H123579   1.251   2.673   0.904  0.3330  0.2428 -0.4117
  696TIP3    H223580   1.215   2.785   0.999 -0.0704 -0.9928  0.9156
  697TIP3   OH223581   5.842   4.491   5.085 -0.0924  0.7548 -0.0551
  697TIP3    H123582   5.862   4.398   5.094 -0.2034  0.4649 -2.5388
  697TIP3    H223583   5.927   4.535   5.092  0.2372  0.2838 -0.9801
  698TIP3   OH223584   0.785   5.770   5.267 -0.0398  0.1968 -0.0985
  698TIP3    H123585   0.805   5.694   5.211 -0.3091 -1.1563  1.5782
  698TIP3    H223586   0.714   5.739   5.324  1.8691  0.6868  2.6410
  699TIP3   OH223587   0.622   6.552  15.660  0.2638 -0.1773  0.3093
  699TIP3    H123588   0.711   6.586  15.671  0.4680 -0.8587  0.7900
  699TIP3    H223589   0.595   6.582  15.573  1.9139 -2.1524 -0.9139
  700TIP3   OH223590   4.403   1.877   5.850 -0.0042 -0.5513  0.0250
  700TIP3    H123591   4.460   1.876   5.773 -0.1983  2.5328 -0.2301
  700TIP3    H223592   4.463   1.885   5.924  0.0538 -0.8417  0.0105
  701TIP3   OH223593   4.547   2.840   3.777  0.3974  0.6025  0.2683
  701TIP3    H123594   4.549   2.929   3.813 -0.0353  1.2296 -1.2215
  701TIP3    H223595   4.639   2.813   3.777  0.3659  0.4250  2.2037
  702TIP3   OH223596   2.021   6.492  12.715 -0.2555 -0.4933 -0.4872
  702TIP3    H123597   1.981   6.418  12.669 -1.2478  1.0122 -2.0944
  702TIP3    H223598   1.961   6.564  12.702  0.6312  0.5959  1.1966
  703TIP3   OH223599   1.590   4.201  12.352  0.2289  0.4257  0.1978
  703TIP3    H123600   1.507   4.223  12.310  0.4654  0.3259 -0.3239
  703TIP3    H223601   1.654   4.259  12.311  0.0573  2.0126  2.1230
  704TIP3   OH223602   5.936   0.394  15.266 -0.0378 -0.6612 -0.3337
  704TIP3    H123603   5.971   0.377  15.178  0.8409 -0.0936 -0.0962
  704TIP3    H223604   5.845   0.419  15.251  0.2303 -0.1364 -1.1276
  705TIP3   OH223605   6.113   4.958  12.881 -0.1166 -0.0434  0.0801
  705TIP3    H123606   6.023   4.987  12.866  0.1769  0.4009 -0.8581
  705TIP3    H223607   6.147   4.940  12.794 -0.2127 -3.0253  0.6128
  706TIP3   OH223608   3.284   0.633   2.679  0.1013  0.4256  0.3510
  706TIP3    H123609   3.230   0.599   2.608  0.1960  2.9562 -0.9915
  706TIP3    H223610   3.354   0.569   2.689 -0.3516 -0.3544 -1.3054
  707TIP3   OH223611   2.576   4.042   2.423  0.0557 -0.1920  0.2443
  707TIP3    H123612   2.624   4.013   2.500 -0.8635 -0.7296  0.6272
  707TIP3    H223613   2.569   3.964   2.368  1.5261  0.4131 -0.8289
  708TIP3   OH223614   2.601   0.116   3.805 -0.3524  0.5364 -0.0115
  708TIP3    H123615   2.552   0.188   3.844 -1.2264  0.9204 -1.7493
  708TIP3    H223616   2.546   0.087   3.732 -0.8333 -2.9792  1.6422
  709TIP3   OH223617   2.629   2.299   2.607 -0.0066  0.2906 -0.0019
  709TIP3    H123618   2.552   2.271   2.657  1.5192 -0.7267  1.8359
  709TIP3    H223619   2.599   2.375   2.558 -1.3823  1.8158  3.0503
  710TIP3   OH223620   5.471   5.264   5.956 -0.5019  0.1293  0.4595
  710TIP3    H123621   5.493   5.346   6.000 -0.3541 -0.0449  0.7138
  710TIP3    H223622   5.536   5.202   5.988 -0.0159  0.1481 -0.4645
  711TIP3   OH223623   3.958   5.343  12.091  0.1221 -0.1888 -0.8132
  711TIP3    H123624   3.895   5.360  12.162 -0.2025  1.0789 -1.3943
  711TIP3    H223625   4.029   5.405  12.106 -0.1324  0.3575 -1.8149
  712TIP3   OH223626   0.807   5.572  13.953  0.3144 -0.2702  0.3411
  712TIP3    H123627   0.742   5.519  13.999 -1.1017  1.5516  0.5129
  712TIP3    H223628   0.843   5.629  14.020  1.7957 -0.9686  0.1522
  713TIP3   OH223629   2.212   5.123   0.120  0.5499 -0.5059 -0.0343
  713TIP3    H123630   2.254   5.113   0.035  0.1238 -0.1385 -0.2882
  713TIP3    H223631   2.131   5.072   0.113 -0.1301  0.5909 -0.2984
  714TIP3   OH223632   1.393   3.889   5.243  0.5967  0.2641 -0.6791
  714TIP3    H123633   1.308   3.847   5.230  0.3519  0.5792 -0.1584
  714TIP3    H223634   1.456   3.828   5.206  0.2223 -0.4223 -0.2089
  715TIP3   OH223635   0.699   5.968   5.080  0.1347  0.0369  0.3466
  715TIP3    H123636   0.767   5.932   5.136  2.7046  0.1019 -2.5746
  715TIP3    H223637   0.652   5.891   5.047 -0.7392 -0.0516  1.7764
  716TIP3   OH223638   1.157   0.132   3.652 -0.0651 -0.3635  0.3656
  716TIP3    H123639   1.116   0.209   3.614 -1.9162 -0.9316  1.1583
  716TIP3    H223640   1.203   0.091   3.579 -0.1135  0.8015 -0.3267
  717TIP3   OH223641   3.088   4.730  11.551 -0.1667  0.2576  0.0602
  717TIP3    H123642   2.996   4.744  11.527  0.5266  2.3641 -1.5524
  717TIP3    H223643   3.096   4.635  11.558 -2.1926 -0.0397 -0.9745
  718TIP3   OH223644   4.769   5.651   4.656  0.3713 -0.5581 -0.1519
  718TIP3    H123645   4.727   5.652   4.570 -1.8274  1.0548  0.8591
  718TIP3    H223646   4.847   5.705   4.646 -1.3406  1.9408 -0.5162
  719TIP3   OH223647   2.831   5.447   1.918 -0.3173  0.0631 -0.2480
  719TIP3    H123648   2.804   5.533   1.885  0.6098  0.5623  0.2710
  719TIP3    H223649   2.927   5.448   1.910 -0.3035 -0.9049 -0.1945
  720TIP3   OH223650   4.069   4.840   0.556 -0.2255 -0.1952 -0.1919
  720TIP3    H123651   4.141   4.819   0.495 -0.4152  0.8848 -0.8031
  720TIP3    H223652   4.068   4.935   0.559 -0.8368 -0.2290  0.7916
  721TIP3   OH223653   0.592   1.113  12.512 -0.0244  0.0887 -0.4131
  721TIP3    H123654   0.536   1.149  12.444 -0.0456  1.1782  0.1696
  721TIP3    H223655   0.667   1.076  12.465 -0.8061 -0.5967 -1.1288
  722TIP3   OH223656   4.457   6.102   0.405 -0.2193 -0.4970  0.0030
  722TIP3    H123657   4.402   6.039   0.452 -1.3936  0.6470  0.1887
  722TIP3    H223658   4.547   6.074   0.423 -0.7112 -1.5377  0.8772
  723TIP3   OH223659   3.774   2.348   2.601  0.2417 -0.3821 -0.0228
  723TIP3    H123660   3.830   2.406   2.652  1.5481 -0.1624 -1.6691
  723TIP3    H223661   3.834   2.287   2.558 -0.9929 -1.9214  0.3751
  724TIP3   OH223662   3.006   2.865   1.367  0.1866  0.4209 -1.1577
  724TIP3    H123663   2.951   2.930   1.323 -1.1546  0.2407  0.1741
  724TIP3    H223664   3.034   2.908   1.448 -1.7256 -1.0068  0.3428
  725TIP3   OH223665   2.623   2.104   3.620  0.0752  0.2197 -0.8876
  725TIP3    H123666   2.674   2.024   3.630 -0.0780  0.2191 -0.0704
  725TIP3    H223667   2.638   2.131   3.529  0.8784 -0.2216 -0.8882
  726TIP3   OH223668   0.056   5.973  10.552  0.4406  0.5105  0.1680
  726TIP3    H123669  -0.025   5.959  10.504  0.3858 -1.5407  0.7981
  726TIP3    H223670   0.089   6.057  10.520 -1.3043  0.7921 -0.9638
  727TIP3   OH223671   3.940   6.261   2.223  0.1740  0.0408 -0.4279
  727TIP3    H123672   3.958   6.342   2.176 -0.1210  1.0105  1.0874
  727TIP3    H223673   3.845   6.256   2.228  0.1962 -0.2403 -0.2529
  728TIP3   OH223674   1.513   3.507   3.643  0.4039  0.1152 -0.0243
  728TIP3    H123675   1.431   3.459   3.631  0.0358  1.0336 -1.3619
  728TIP3    H223676   1.535   3.539   3.556  0.7838  2.1039  0.7518
  729TIP3   OH223677   4.267   5.013  12.146 -0.1937 -0.3977 -0.1382
  729TIP3    H123678   4.198   5.004  12.081  0.0674  0.6993 -0.5823
  729TIP3    H223679   4.265   5.105  12.171  0.4250 -0.5772  0.6104
  730TIP3   OH223680   2.377   6.168  16.704 -0.2688  0.2020  0.3262
  730TIP3    H123681   2.365   6.077  16.732  1.1593 -0.1835 -0.2667
  730TIP3    H223682   2.416   6.161  16.617  1.0462  1.3749  0.8041
  731TIP3   OH223683   5.013   1.639  15.247 -0.0976  0.2532 -0.4624
  731TIP3    H123684   5.048   1.702  15.184 -0.1545  1.6297  0.8525
  731TIP3    H223685   4.919   1.641  15.233 -0.1066  0.5321 -0.3686
  732TIP3   OH223686   4.439   4.845   1.526 -0.0658 -0.1524 -0.3716
  732TIP3    H123687   4.435   4.752   1.550 -2.1431 -0.0710 -0.3047
  732TIP3    H223688   4.349   4.876   1.537  0.5607  1.8105 -0.6552
  733TIP3   OH223689   2.121   6.733   3.545  0.4069  0.6791  0.4184
  733TIP3    H123690   2.130   6.772   3.458  0.8654 -0.3175  0.0208
  733TIP3    H223691   2.131   6.639   3.531 -4.9650 -0.1171  0.6808
  734TIP3   OH223692   0.928   3.627   2.082 -0.0367  0.2740 -0.2888
  734TIP3    H123693   0.974   3.559   2.130  1.6273  2.7400  1.7380
  734TIP3    H223694   0.836   3.600   2.083  0.1921 -0.5120  3.0029
  735TIP3   OH223695   3.392   6.256  12.959 -0.4184  0.1597 -0.3087
  735TIP3    H123696   3.384   6.331  12.901  0.7359  1.1553  0.8078
  735TIP3    H223697   3.369   6.290  13.045 -0.4256 -0.9103  0.1182
  736TIP3   OH223698   6.455   4.318   2.288 -0.5377  0.1886  0.0365
  736TIP3    H123699   6.462   4.238   2.235  0.3007 -0.8416  1.6296
  736TIP3    H223700   6.539   4.323   2.334 -0.7118  1.8255  0.1923
  737TIP3   OH223701   2.360   4.438  14.136  0.2966  0.1103  0.5860
  737TIP3    H123702   2.413   4.513  14.108  0.3582 -0.3132 -0.4683
  737TIP3    H223703   2.388   4.367  14.078 -1.2738 -0.1640  0.1411
  738TIP3   OH223704   3.297   6.368  16.741  0.0083  0.0394  0.2768
  738TIP3    H123705   3.308   6.412  16.825  1.3854  0.5101 -0.1323
  738TIP3    H223706   3.218   6.408  16.704 -0.9404 -0.5931  1.5861
  739TIP3   OH223707   0.631   0.397   2.023  0.3155  0.2269  0.1481
  739TIP3    H123708   0.618   0.474   2.079 -0.6026 -2.1636  3.4016
  739TIP3    H223709   0.696   0.344   2.069  0.2627 -1.3801 -1.5536
  740TIP3   OH223710   1.658   5.281  13.194 -0.0846 -0.1039 -0.5282
  740TIP3    H123711   1.693   5.366  13.224 -0.3881 -0.5845  1.2634
  740TIP3    H223712   1.563   5.294  13.194 -0.2204 -0.8896  1.2665
  741TIP3   OH223713   4.402   4.098  13.457  0.3254  0.0551  0.0518
  741TIP3    H123714   4.426   4.012  13.424  1.8147  0.6703 -0.5349
  741TIP3    H223715   4.450   4.107  13.539  0.8368  0.6591 -0.3124
  742TIP3   OH223716   1.775   6.115  11.291 -0.1546  1.1343 -0.8373
  742TIP3    H123717   1.856   6.164  11.307  1.3111 -1.8224  1.0733
  742TIP3    H223718   1.800   6.046  11.230 -0.6568 -1.2196  1.5473
  743TIP3   OH223719   1.536   2.166  16.452 -0.0610  0.2718 -0.0358
  743TIP3    H123720   1.542   2.121  16.368  0.1707 -2.4406  1.3895
  743TIP3    H223721   1.561   2.256  16.432 -1.1297 -0.0306 -3.0832
  744TIP3   OH223722   3.155   3.266  12.936  0.4351  0.8716 -0.0660
  744TIP3    H123723   3.170   3.250  12.843  3.5892  1.2987  0.3149
  744TIP3    H223724   3.164   3.179  12.976 -3.7136  0.1760 -0.3952
  745TIP3   OH223725   1.801   5.087  14.550 -0.5652  0.2755 -0.0770
  745TIP3    H123726   1.734   5.102  14.483 -0.4232  1.1719 -0.0203
  745TIP3    H223727   1.877   5.055  14.501 -0.1653  1.7933 -0.4568
  746TIP3   OH223728   4.047   5.291   4.509 -0.5310 -0.0188 -0.0264
  746TIP3    H123729   4.051   5.386   4.520 -2.2277  0.1901 -0.8921
  746TIP3    H223730   4.138   5.262   4.512 -0.0997  1.4445  1.7716
  747TIP3   OH223731   3.365   4.820   1.076  0.1560  0.4237 -0.2256
  747TIP3    H123732   3.447   4.847   1.116 -0.8550  1.0618  1.5247
  747TIP3    H223733   3.326   4.901   1.042  0.0887  0.1841 -0.7263
  748TIP3   OH223734   0.655   2.675   3.196 -0.2692 -0.0669 -0.1668
  748TIP3    H123735   0.649   2.738   3.125  4.9501  2.0099  0.9928
  748TIP3    H223736   0.737   2.628   3.180 -0.9624 -2.2960  2.3692
  749TIP3   OH223737   1.644   4.635  17.178  0.1176 -0.5409  0.0602
  749TIP3    H123738   1.731   4.664  17.206 -0.4714  2.1122 -0.7285
  749TIP3    H223739   1.620   4.695  17.107 -2.4689 -1.0804  0.4362
  750TIP3   OH223740   2.484   4.203  13.319  0.5712 -0.6477  0.2352
  750TIP3    H123741   2.522   4.281  13.359  0.0556 -0.5338  0.5085
  750TIP3    H223742   2.428   4.165  13.387 -1.6330  0.4743 -0.8744
  751TIP3   OH223743   0.480   4.228   4.081  0.1021  0.1533 -0.1635
  751TIP3    H123744   0.511   4.297   4.023 -0.4244  0.1806 -0.4099
  751TIP3    H223745   0.413   4.182   4.030 -1.2593  0.9546  0.8736
  752TIP3   OH223746   0.210   2.902  14.185  0.4794  0.2710 -0.0489
  752TIP3    H123747   0.288   2.955  14.172 -1.2904  2.4234 -2.1216
  752TIP3    H223748   0.240   2.812  14.171  1.7651  1.3437 -4.9597
  753TIP3   OH223749   4.793   4.938   4.143  0.1482 -0.2670  0.0690
  753TIP3    H123750   4.705   4.960   4.174  0.2636  0.3704 -0.0406
  753TIP3    H223751   4.825   4.873   4.206 -0.3897 -0.4826  0.1223
  754TIP3   OH223752   5.682   2.735  16.662  0.2251  0.2988 -0.0461
  754TIP3    H123753   5.654   2.803  16.601 -0.1262  2.6176  2.5939
  754TIP3    H223754   5.761   2.770  16.703  0.4184 -1.1610  0.8726
  755TIP3   OH223755   5.907   6.465   1.304 -0.4091  0.0881 -0.3988
  755TIP3    H123756   5.999   6.488   1.291  0.0098 -0.4003  1.4601
  755TIP3    H223757   5.864   6.548   1.323  0.0555  0.0651  0.7991
  756TIP3   OH223758   3.015   4.046   0.743 -0.2861  0.6467 -0.1745
  756TIP3    H123759   2.931   4.003   0.760  0.1997 -0.5187 -0.6245
  756TIP3    H223760   2.993   4.139   0.734 -1.2016  0.6527  1.9237
  757TIP3   OH223761   0.800   1.608   5.302 -0.0525  0.1618 -0.2397
  757TIP3    H123762   0.813   1.621   5.208 -1.4009 -0.0727 -0.4688
  757TIP3    H223763   0.838   1.686   5.342 -1.0624  1.1270 -1.1056
  758TIP3   OH223764   6.700   0.277   4.411 -0.3245  0.1299 -0.3662
  758TIP3    H123765   6.767   0.328   4.458 -0.7187  1.5466 -1.3224
  758TIP3    H223766   6.751   0.221   4.353  0.1415 -1.0931  1.1863
  759TIP3   OH223767   4.122   1.270   5.339 -0.4079  0.2168 -0.3206
  759TIP3    H123768   4.154   1.359   5.321  1.0990 -0.4537 -1.0320
  759TIP3    H223769   4.138   1.257   5.432  1.2447 -0.0423 -0.6322
  760TIP3   OH223770   3.534   6.367  15.660  0.5308  0.1772  0.0196
  760TIP3    H123771   3.564   6.363  15.751 -0.0296  1.7132  0.2834
  760TIP3    H223772   3.513   6.277  15.637  0.7539 -0.2230  1.3903
  761TIP3   OH223773   3.478   0.626   3.394  0.1056  0.4506  0.6459
  761TIP3    H123774   3.427   0.655   3.318  1.3151  1.4254  0.1980
  761TIP3    H223775   3.464   0.695   3.460  0.9784  0.8105  0.4588
  762TIP3   OH223776   1.762   3.769  12.714 -0.2996  0.3993 -0.2872
  762TIP3    H123777   1.672   3.751  12.739 -0.1012  2.4209  2.1513
  762TIP3    H223778   1.813   3.701  12.758 -0.3547  1.4504  1.4889
  763TIP3   OH223779   6.308   4.143  17.134  0.2702 -0.7765 -0.6091
  763TIP3    H123780   6.318   4.108  17.223  1.3437 -0.8379 -0.7479
  763TIP3    H223781   6.317   4.237  17.144 -1.2198 -0.6289 -0.4410
  764TIP3   OH223782   1.983   2.796  12.859  0.3738 -0.0751  0.0578
  764TIP3    H123783   1.941   2.790  12.773  0.4100 -0.9005  0.0967
  764TIP3    H223784   2.075   2.777  12.842  0.3420 -0.4605  0.3119
  765TIP3   OH223785   4.626   2.812  14.103 -0.3474 -0.1209  0.1375
  765TIP3    H123786   4.674   2.841  14.025  0.8976  0.7870  1.2137
  765TIP3    H223787   4.622   2.889  14.159 -0.6986 -0.9157  1.2233
  766TIP3   OH223788   6.725   2.080  16.062  0.1219 -0.6053 -0.2894
  766TIP3    H123789   6.687   2.166  16.079  0.8273 -0.4788  0.6400
  766TIP3    H223790   6.654   2.018  16.080  0.4549 -0.3909  1.8131
  767TIP3   OH223791   0.500   0.283   0.952 -0.2163 -0.0884  0.0758
  767TIP3    H123792   0.469   0.343   0.884 -2.0465  0.4497  1.3587
  767TIP3    H223793   0.595   0.297   0.953 -0.3991  1.4196 -0.9276
  768TIP3   OH223794   0.871   3.833  17.120 -0.0514 -0.2992  0.8791
  768TIP3    H123795   0.790   3.796  17.155  0.5961 -0.8307  1.8144
  768TIP3    H223796   0.916   3.871  17.196  0.1213  0.8822  0.2159
  769TIP3   OH223797   0.299   6.180   3.917 -0.9818 -0.4737  0.1338
  769TIP3    H123798   0.354   6.159   3.992 -1.4320 -0.7112  0.3988
  769TIP3    H223799   0.296   6.276   3.916 -0.3897 -0.4527 -0.0154
  770TIP3   OH223800   6.511   4.168  13.438  0.6455  0.4750  0.0240
  770TIP3    H123801   6.432   4.221  13.448  0.9403  0.8814  0.2509
  770TIP3    H223802   6.525   4.129  13.524  0.2185 -0.2750 -0.2454
  771TIP3   OH223803   5.652   5.637   2.116  0.1342 -0.0428  0.3487
  771TIP3    H123804   5.634   5.686   2.036  1.0574 -1.1338 -0.5477
  771TIP3    H223805   5.570   5.594   2.137  0.2143 -0.7143 -0.6970
  772TIP3   OH223806   4.046   3.206   0.454 -0.5053 -0.1747 -0.5482
  772TIP3    H123807   3.964   3.160   0.437 -1.1625  0.7149  0.1818
  772TIP3    H223808   4.023   3.276   0.515  0.9896 -0.5680  0.5086
  773TIP3   OH223809   0.151   1.159  15.979  0.3973 -0.2416 -0.0339
  773TIP3    H123810   0.224   1.109  16.015  0.4446 -0.8744 -1.0003
  773TIP3    H223811   0.192   1.224  15.923  0.2578 -0.1060  0.0206
  774TIP3   OH223812   5.502   1.033   4.383 -0.0294 -0.1989  0.5067
  774TIP3    H123813   5.487   1.072   4.298 -0.2935 -1.6339 -0.1200
  774TIP3    H223814   5.445   0.956   4.385  1.7966 -1.5859  0.9821
  775TIP3   OH223815   0.355   1.589  14.908  0.0884 -0.1170  0.1384
  775TIP3    H123816   0.344   1.684  14.903 -0.6090 -0.0998  1.4875
  775TIP3    H223817   0.448   1.574  14.893 -0.1015  0.6111 -1.9419
  776TIP3   OH223818   1.479   0.589  11.181 -0.2750  0.2418 -0.6514
  776TIP3    H123819   1.387   0.571  11.201 -0.4040  1.3241 -0.2510
  776TIP3    H223820   1.483   0.684  11.167  0.9512  0.3503  0.3083
  777TIP3   OH223821   1.662   3.012   2.296 -0.3829 -0.4104 -0.0912
  777TIP3    H123822   1.748   3.047   2.272 -0.7520  1.7913  1.7290
  777TIP3    H223823   1.623   2.986   2.212  0.9561  1.0749 -1.2015
  778TIP3   OH223824   3.620   2.352  17.100 -0.5049  0.4310 -0.3871
  778TIP3    H123825   3.543   2.350  17.156  0.4732 -0.2421  0.9698
  778TIP3    H223826   3.655   2.441  17.111  1.1515 -0.4728  2.1720
  779TIP3   OH223827   2.740   4.305  13.807  0.3250  0.0560 -0.1211
  779TIP3    H123828   2.686   4.263  13.873 -0.5097 -0.2128 -0.9607
  779TIP3    H223829   2.829   4.275  13.825  0.2498  0.7186  1.4435
  780TIP3   OH223830   5.492   2.572  12.819 -0.0010  0.4771  0.2536
  780TIP3    H123831   5.552   2.515  12.867  2.0855  1.6792 -0.8399
  780TIP3    H223832   5.424   2.513  12.787  0.0785 -0.7696  2.3258
  781TIP3   OH223833   1.141   4.369   4.379  0.3149 -0.4974  0.3653
  781TIP3    H123834   1.174   4.343   4.293 -0.3494 -0.2476  0.0302
  781TIP3    H223835   1.190   4.449   4.400  1.8713 -1.6228  1.0970
  782TIP3   OH223836   3.929   6.709  10.677  0.1271 -0.2666  0.2086
  782TIP3    H123837   3.954   6.799  10.696  1.5278 -0.5170 -0.3483
  782TIP3    H223838   3.955   6.659  10.754  0.6314 -0.3996 -0.0413
  783TIP3   OH223839   3.570   6.251   5.280  0.3895  0.2916  0.3956
  783TIP3    H123840   3.529   6.165   5.272  0.6399  0.4018 -2.6494
  783TIP3    H223841   3.664   6.232   5.290  0.2912  0.1932  1.1743
  784TIP3   OH223842   1.659   4.014   4.647  0.5421 -0.6411 -0.1907
  784TIP3    H123843   1.676   4.108   4.644 -0.7540 -0.3562  1.1979
  784TIP3    H223844   1.650   3.989   4.555 -0.2067  0.7806 -0.5183
  785TIP3   OH223845   2.901   1.921   2.248 -0.0576 -0.0161 -0.4634
  785TIP3    H123846   2.834   1.901   2.182 -0.1371  1.5881 -0.8934
  785TIP3    H223847   2.862   1.892   2.330 -0.6426 -0.5241 -0.9121
  786TIP3   OH223848   5.252   1.276   0.423  0.3358 -0.4016  0.3223
  786TIP3    H123849   5.308   1.207   0.388  0.3590 -0.3075  0.1771
  786TIP3    H223850   5.312   1.345   0.451  0.3971 -0.9699  1.6274
  787TIP3   OH223851   3.157   5.747  15.224  0.2024  0.0682 -0.4246
  787TIP3    H123852   3.226   5.690  15.192 -0.5995 -0.9076 -0.4352
  787TIP3    H223853   3.173   5.753  15.318  1.3970  1.3576 -0.6932
  788TIP3   OH223854   3.609   2.782  11.034  0.0306  0.3053  0.0476
  788TIP3    H123855   3.670   2.724  11.081 -0.6839  1.0276  1.8863
  788TIP3    H223856   3.579   2.729  10.960  1.3735 -0.7626  0.2380
  789TIP3   OH223857   1.861   5.404  11.642 -0.4046 -0.3515  0.4041
  789TIP3    H123858   1.917   5.465  11.690  1.8329  0.0114 -2.5089
  789TIP3    H223859   1.780   5.452  11.627  1.1037  1.7389 -1.3405
  790TIP3   OH223860   1.736   3.223  15.321  0.2156  0.0740 -0.7861
  790TIP3    H123861   1.759   3.147  15.374  0.4752  1.5438  1.2502
  790TIP3    H223862   1.666   3.267  15.370 -0.4480  0.7631 -2.2970
  791TIP3   OH223863   4.798   1.936   3.158 -0.3286  0.3765  0.3790
  791TIP3    H123864   4.771   1.993   3.229 -0.0070  3.8225 -2.1501
  791TIP3    H223865   4.889   1.914   3.177 -0.9084 -0.5693  2.1468
  792TIP3   OH223866   2.013   4.872   4.113 -0.0789  0.1495  0.3330
  792TIP3    H123867   2.023   4.865   4.018 -0.5058 -0.8151  0.3565
  792TIP3    H223868   1.969   4.956   4.126 -0.3938  0.0948 -0.3557
  793TIP3   OH223869   4.783   6.000   5.724  0.1262  0.2446  0.3538
  793TIP3    H123870   4.783   5.907   5.701  0.0965  0.6673 -1.4808
  793TIP3    H223871   4.874   6.018   5.750  0.2611 -0.1980  0.2035
  794TIP3   OH223872   4.766   5.640  12.519  0.2376  0.3164  0.4791
  794TIP3    H123873   4.765   5.612  12.428 -0.9568 -0.7129  0.7906
  794TIP3    H223874   4.782   5.559  12.568  1.7428  0.9976  1.1448
  795TIP3   OH223875   1.460   0.923  13.520  0.2248 -0.0164 -0.1491
  795TIP3    H123876   1.456   0.917  13.425 -0.1169 -1.1925 -0.0680
  795TIP3    H223877   1.371   0.945  13.547  0.3242  0.3305 -0.1002
  796TIP3   OH223878   1.645   6.047   6.532 -0.0882  0.0284  0.3617
  796TIP3    H123879   1.590   6.125   6.541 -0.0778 -0.1615  2.1556
  796TIP3    H223880   1.734   6.079   6.545  0.0626 -0.0080 -0.5502
  797TIP3   OH223881   4.224   0.327  13.983  0.0465  0.2575 -0.5570
  797TIP3    H123882   4.174   0.376  14.048 -0.8717 -0.4883 -0.6910
  797TIP3    H223883   4.316   0.347  14.003 -0.3072  2.1245 -0.6921
  798TIP3   OH223884   3.838   4.852  11.786 -0.1688 -0.0235  0.7290
  798TIP3    H123885   3.858   4.784  11.722 -0.3610 -0.3598  1.0261
  798TIP3    H223886   3.899   4.835  11.859  1.1796  1.3402 -0.0489
  799TIP3   OH223887   5.761   2.757  13.629 -0.0633  0.2697  0.4965
  799TIP3    H123888   5.764   2.756  13.533  0.9092  1.5868  0.5007
  799TIP3    H223889   5.690   2.818  13.649  0.9497  1.4401  0.6032
  800TIP3   OH223890   2.758   4.506   5.889 -0.5278  0.4607 -0.5174
  800TIP3    H123891   2.701   4.577   5.861 -1.0477  0.7786  1.2682
  800TIP3    H223892   2.709   4.461   5.958  0.4507 -0.6595 -0.5175
  801TIP3   OH223893   1.112   3.620  12.722 -0.0584  0.1114 -0.4181
  801TIP3    H123894   1.152   3.544  12.764  1.7183  1.0455 -0.3928
  801TIP3    H223895   1.023   3.591  12.702  0.5980 -2.0099 -0.4814
  802TIP3   OH223896   5.093   3.950  14.832  0.0968 -0.0878  0.5186
  802TIP3    H123897   5.146   4.018  14.875  2.2913 -1.0792 -0.5506
  802TIP3    H223898   5.148   3.872  14.832 -0.8974 -0.8418 -1.6969
  803TIP3   OH223899   3.366   0.281  11.260 -0.0387  0.0178 -0.2233
  803TIP3    H123900   3.408   0.292  11.345 -0.2454  2.9267 -0.4358
  803TIP3    H223901   3.432   0.236  11.207  0.8179 -0.1130  0.9306
  804TIP3   OH223902   0.092   5.222   5.539 -0.7920  0.3347  0.2006
  804TIP3    H123903   0.130   5.155   5.482  1.2930 -1.5908  3.6693
  804TIP3    H223904   0.007   5.240   5.501 -0.0365 -1.8597 -2.7297
  805TIP3   OH223905   1.733   0.648  15.842  0.2859 -0.2268  0.3576
  805TIP3    H123906   1.689   0.682  15.764  1.5482 -2.0300 -1.1658
  805TIP3    H223907   1.677   0.576  15.872 -0.4927  0.8155  1.4896
  806TIP3   OH223908   1.020   0.419   3.552 -0.0345  0.2251 -0.1497
  806TIP3    H123909   0.997   0.436   3.461 -0.7768  0.7418  0.1359
  806TIP3    H223910   0.937   0.417   3.599  0.3434  0.0250  0.5332
  807TIP3   OH223911   2.756   6.617   5.437  0.4853 -0.6852 -0.1579
  807TIP3    H123912   2.792   6.683   5.378  1.1624  0.1224  1.1490
  807TIP3    H223913   2.809   6.539   5.420  0.2279 -0.6693 -1.0940
  808TIP3   OH223914   0.538   1.378  11.352 -0.3375  0.6518 -0.0222
  808TIP3    H123915   0.589   1.341  11.281 -1.5570 -1.5154  0.1806
  808TIP3    H223916   0.598   1.381  11.426 -0.3018 -1.3161  0.0530
  809TIP3   OH223917   4.238   0.319   0.155  0.3966  0.3383  0.1632
  809TIP3    H123918   4.308   0.382   0.135  0.9334  0.4334  2.2357
  809TIP3    H223919   4.269   0.273   0.233 -1.3417 -0.4464  0.4092
  810TIP3   OH223920   3.974   5.309  13.351  0.4695 -0.6307  0.3449
  810TIP3    H123921   4.022   5.338  13.273 -1.1310  1.9026  0.2488
  810TIP3    H223922   3.884   5.301  13.322  0.0706 -0.9133  1.6371
  811TIP3   OH223923   2.349   2.589  13.076  0.0751 -0.0987 -0.1564
  811TIP3    H123924   2.261   2.552  13.068  0.6947 -1.9257  1.1215
  811TIP3    H223925   2.363   2.595  13.171  0.9851  1.0193 -0.3659
  812TIP3   OH223926   0.341   1.387   6.756 -0.5497 -0.1820 -0.8501
  812TIP3    H123927   0.411   1.395   6.691 -0.7637 -1.3566 -1.2262
  812TIP3    H223928   0.300   1.474   6.757  0.4838  0.3164 -1.1117
  813TIP3   OH223929   0.606   0.239   5.413  0.2057  0.4921  0.4026
  813TIP3    H123930   0.617   0.305   5.344 -1.7281  0.2057 -0.2153
  813TIP3    H223931   0.520   0.201   5.396  1.5316 -2.6401  0.3707
  814TIP3   OH223932   6.773   4.861  15.806  0.0618 -0.0200  0.0714
  814TIP3    H123933   6.679   4.874  15.797 -0.5327 -3.5676  0.4068
  814TIP3    H223934   6.805   4.941  15.847 -2.6401  1.6128 -0.9152
  815TIP3   OH223935   4.590   1.753  13.331  0.0084  0.3400 -0.1458
  815TIP3    H123936   4.518   1.800  13.289  0.4153  0.8387 -0.2847
  815TIP3    H223937   4.648   1.822  13.364  0.7902 -0.0680 -0.6556
  816TIP3   OH223938   5.577   3.265  11.351 -0.1451  0.1616  0.2825
  816TIP3    H123939   5.544   3.191  11.403  0.5406  0.2849  0.8982
  816TIP3    H223940   5.560   3.342  11.405 -2.3547  0.6557 -1.0573
  817TIP3   OH223941   3.542   3.894   5.921  0.4710  0.0557 -0.2889
  817TIP3    H123942   3.450   3.880   5.941  0.3841  1.5462  0.4682
  817TIP3    H223943   3.589   3.833   5.978  0.0083  0.4687  0.5427
  818TIP3   OH223944   0.819   2.610   2.647  0.1782  0.1751  0.3038
  818TIP3    H123945   0.884   2.609   2.577 -0.0817 -1.4188  0.0670
  818TIP3    H223946   0.859   2.559   2.718 -1.2239 -1.7348 -0.2484
  819TIP3   OH223947   2.966   0.589  16.873 -0.2323  0.0876 -0.0653
  819TIP3    H123948   3.056   0.568  16.897 -0.3460 -0.4133 -0.0809
  819TIP3    H223949   2.937   0.516  16.819  0.1744  1.4217 -2.1327
  820TIP3   OH223950   3.649   6.764  12.355  0.2913  0.0736 -0.1934
  820TIP3    H123951   3.623   6.809  12.274 -1.3368 -0.1945  0.1659
  820TIP3    H223952   3.739   6.737  12.339  0.8802  2.3357 -0.9131
  821TIP3   OH223953   5.516   6.619  13.907 -0.2286  0.2819  0.2951
  821TIP3    H123954   5.605   6.628  13.940 -0.0406 -0.3807 -0.0196
  821TIP3    H223955   5.463   6.596  13.983 -0.2265  1.1827  0.5782
  822TIP3   OH223956   2.078   5.824  13.328 -0.0005 -0.2528  0.4261
  822TIP3    H123957   2.125   5.908  13.322  1.4627 -1.0600  0.4822
  822TIP3    H223958   1.986   5.849  13.334  0.1448  1.2916 -2.7624
  823TIP3   OH223959   2.702   4.203   0.237  0.3280  0.3676 -0.2090
  823TIP3    H123960   2.697   4.260   0.314  0.4077  0.6962 -0.4468
  823TIP3    H223961   2.734   4.120   0.271 -0.5417  0.2200  0.2711
  824TIP3   OH223962   2.614   5.320   6.396  0.1861  0.2602  0.3386
  824TIP3    H123963   2.647   5.323   6.307  1.3854  1.3810  0.7981
  824TIP3    H223964   2.689   5.292   6.449 -0.1745  0.7460  1.1333
  825TIP3   OH223965   1.124   3.666  16.981 -0.7366  0.0280 -0.3859
  825TIP3    H123966   1.061   3.605  16.944  0.7394 -1.1872 -0.9838
  825TIP3    H223967   1.126   3.645  17.074 -1.1011 -0.0486 -0.3978
  826TIP3   OH223968   1.523   2.502   3.953 -0.0114 -0.4068 -0.0628
  826TIP3    H123969   1.491   2.412   3.956  1.4193 -0.9244  0.1464
  826TIP3    H223970   1.503   2.539   4.039  0.3936 -0.8905  0.2413
  827TIP3   OH223971   1.105   3.143  11.268  0.1830 -0.0373  0.0269
  827TIP3    H123972   1.074   3.208  11.206  3.1338  0.7079 -0.7297
  827TIP3    H223973   1.089   3.182  11.354  0.9878  1.2473 -0.3968
  828TIP3   OH223974   3.536   0.978  12.637 -0.0682  0.4947 -0.1686
  828TIP3    H123975   3.629   1.001  12.635 -0.3601  2.0815  2.6835
  828TIP3    H223976   3.534   0.883  12.623  2.0069  0.3516  0.4396
  829TIP3   OH223977   5.535   6.223   0.766  0.3148  0.2206  0.6133
  829TIP3    H123978   5.479   6.220   0.844 -0.4793 -0.5193  0.0278
  829TIP3    H223979   5.550   6.316   0.750 -1.9598  0.4929 -0.0720
  830TIP3   OH223980   6.184   2.779  10.977 -0.9300 -0.3915 -0.2771
  830TIP3    H123981   6.209   2.871  10.990 -1.5438  0.0964 -2.3608
  830TIP3    H223982   6.236   2.751  10.902  0.1684 -2.1376  1.1008
  831TIP3   OH223983   0.979   1.379  10.748  0.0275 -0.4855 -0.4697
  831TIP3    H123984   0.910   1.400  10.684  0.0707 -1.0092 -0.6906
  831TIP3    H223985   1.012   1.464  10.776 -0.4889 -0.2355 -0.6060
  832TIP3   OH223986   0.903   5.896   3.787  0.0729  0.7081 -0.0743
  832TIP3    H123987   0.921   5.949   3.865  1.9987  1.3220 -0.9118
  832TIP3    H223988   0.928   5.807   3.814 -1.6300  0.4684  0.7988
  833TIP3   OH223989   3.550   6.071   1.842 -0.7162 -0.0747  0.4783
  833TIP3    H123990   3.628   6.080   1.897  0.2854  0.1089 -0.9675
  833TIP3    H223991   3.578   6.015   1.769 -2.0285 -0.2900  0.1339
  834TIP3   OH223992   1.507   2.859   4.915 -0.2381  0.3623 -0.3346
  834TIP3    H123993   1.585   2.885   4.964 -1.3150  0.9635  1.0856
  834TIP3    H223994   1.528   2.879   4.823  0.8352  1.5518  0.1668
  835TIP3   OH223995   1.935   0.713   0.007 -0.2714  0.6020  0.0754
  835TIP3    H123996   1.985   0.633  -0.013  0.6483  1.1946 -0.0435
  835TIP3    H223997   2.001   0.774   0.040 -0.7339  1.7967 -1.1794
  836TIP3   OH223998   2.613   6.604  14.387 -0.4110  0.4680 -0.2794
  836TIP3    H123999   2.518   6.612  14.376 -0.6191 -1.0777  0.2802
  836TIP3    H224000   2.627   6.617  14.481 -0.2130 -0.5585 -0.1597
  837TIP3   OH224001   4.704   4.993   4.558 -0.0353 -0.1146 -0.0188
  837TIP3    H124002   4.775   5.049   4.526  0.5748  0.0367  1.5574
  837TIP3    H224003   4.681   5.029   4.643 -0.7426 -1.2809  0.2987
  838TIP3   OH224004   6.371   5.765   2.874 -0.0330 -0.5958 -0.0425
  838TIP3    H124005   6.417   5.829   2.820 -2.5782 -0.6580 -2.3848
  838TIP3    H224006   6.304   5.815   2.920 -1.1669 -1.3131 -0.8734
  839TIP3   OH224007   5.704   0.963  11.868  0.5595  0.2116 -0.3710
  839TIP3    H124008   5.783   0.978  11.816 -0.0639  0.2930 -1.3094
  839TIP3    H224009   5.667   0.883  11.832  0.8013 -0.4294  0.8040
  840TIP3   OH224010   0.704   2.260  17.101 -0.1488 -0.4939 -0.3509
  840TIP3    H124011   0.651   2.318  17.046 -1.2851 -1.5710 -0.4151
  840TIP3    H224012   0.671   2.276  17.190  2.5861  2.2246  0.2326
  841TIP3   OH224013   0.890   5.750  15.838  0.2295  0.5956  1.1143
  841TIP3    H124014   0.817   5.691  15.821  0.6482  0.1304  0.9373
  841TIP3    H224015   0.922   5.725  15.925  1.0791 -0.1434  0.5916
  842TIP3   OH224016   2.250   5.441   4.380 -0.5743  0.0095  0.1177
  842TIP3    H124017   2.186   5.512   4.386 -2.3847 -1.4585 -1.1175
  842TIP3    H224018   2.245   5.396   4.464 -1.3921 -0.2826 -0.0859
  843TIP3   OH224019   4.388   3.728   4.766 -0.0860  0.2653 -0.5103
  843TIP3    H124020   4.351   3.795   4.823  0.3748  0.9699 -1.0361
  843TIP3    H224021   4.474   3.760   4.742  0.0242 -0.3718 -1.0071
  844TIP3   OH224022   3.421   3.490  17.111  0.4755  0.3051 -0.0822
  844TIP3    H124023   3.415   3.399  17.141  0.9606  0.5701  0.8242
  844TIP3    H224024   3.347   3.500  17.050 -0.3281 -0.3298  0.7767
  845TIP3   OH224025   2.955   4.956   2.126  0.1167 -0.0047  0.6853
  845TIP3    H124026   2.899   4.884   2.101  0.7615  0.3855 -2.0136
  845TIP3    H224027   2.920   4.986   2.210 -3.3104 -0.1573 -0.6089
  846TIP3   OH224028   1.472   6.378   5.332  0.4216  0.2639 -0.2956
  846TIP3    H124029   1.427   6.445   5.383  2.5154  1.2119  0.3590
  846TIP3    H224030   1.433   6.296   5.361  0.3199  0.9260  1.5369
  847TIP3   OH224031   0.820   5.432  13.698  0.7699  0.8835  0.1452
  847TIP3    H124032   0.829   5.433  13.793  0.6265 -0.4006  0.1884
  847TIP3    H224033   0.859   5.348  13.671 -3.1541 -0.8740 -0.4658
  848TIP3   OH224034   3.387   5.827  14.475  0.3350 -0.4254  0.3696
  848TIP3    H124035   3.327   5.830  14.550 -1.9608  1.3393 -1.4409
  848TIP3    H224036   3.369   5.743  14.434  0.1202 -0.5170  0.6451
  849TIP3   OH224037   4.720   6.481  14.834  0.1669  0.1021  0.6664
  849TIP3    H124038   4.641   6.535  14.846  0.5948  0.5987  1.2710
  849TIP3    H224039   4.791   6.535  14.868  0.9092  0.0337 -0.7571
  850TIP3   OH224040   4.836   3.993   3.016 -0.3674  0.4115  0.6241
  850TIP3    H124041   4.922   3.958   2.991  0.1189  2.0693 -0.0447
  850TIP3    H224042   4.783   3.987   2.936 -1.2811 -1.7060  1.3298
  851TIP3   OH224043   5.663   1.195   3.580 -0.1772  0.3599 -0.0942
  851TIP3    H124044   5.758   1.207   3.589 -0.3048  0.9225  0.5574
  851TIP3    H224045   5.653   1.143   3.500  0.8307 -1.8237  1.1325
  852TIP3   OH224046   6.545   2.922   2.233 -0.0873 -0.0935  0.0541
  852TIP3    H124047   6.479   2.884   2.290 -1.2033 -0.8608 -1.7233
  852TIP3    H224048   6.626   2.875   2.255 -1.1862 -2.6760 -1.2301
  853TIP3   OH224049   5.560   4.503  10.601  0.0970  0.2714  0.4070
  853TIP3    H124050   5.642   4.486  10.554 -0.7082 -3.1583  0.1043
  853TIP3    H224051   5.498   4.526  10.532  0.4157  1.3541  0.4748
  854TIP3   OH224052   2.256   2.719   4.639 -0.3839  0.0928  0.6453
  854TIP3    H124053   2.213   2.685   4.718  0.2113 -0.7189  0.6226
  854TIP3    H224054   2.188   2.717   4.572 -1.1727  1.7177  1.3772
  855TIP3   OH224055   6.222   4.838   3.672 -0.2740  0.1666  0.8832
  855TIP3    H124056   6.199   4.762   3.619 -3.3173 -0.7073  3.3068
  855TIP3    H224057   6.161   4.906   3.645  2.4128  1.8466 -1.2477
  856TIP3   OH224058   5.441   2.493   5.241  0.4823  0.1564  0.3565
  856TIP3    H124059   5.402   2.415   5.279 -1.3429  0.9439  0.2115
  856TIP3    H224060   5.406   2.565   5.293  2.5210  0.8505  0.7927
  857TIP3   OH224061   6.703   6.492   7.006  0.2646  0.1403 -0.1425
  857TIP3    H124062   6.779   6.534   6.966 -0.7835  1.7416 -0.5221
  857TIP3    H224063   6.737   6.452   7.086  1.6600  0.1279 -0.7267
  858TIP3   OH224064   4.576   5.576  13.542 -0.8200 -0.3821 -0.0431
  858TIP3    H124065   4.601   5.656  13.589 -0.9903 -0.4568  0.1766
  858TIP3    H224066   4.616   5.505  13.592  0.9391 -0.3005 -1.3329
  859TIP3   OH224067   6.110   3.287  11.817  0.0142  0.3444 -0.0357
  859TIP3    H124068   6.205   3.287  11.832  0.3705 -1.0279 -2.1543
  859TIP3    H224069   6.089   3.377  11.792  0.6118  0.8240  1.1135
  860TIP3   OH224070   0.057   4.672  13.835  0.1600  0.2859 -0.0949
  860TIP3    H124071   0.047   4.766  13.823 -1.0895  0.1719  0.0273
  860TIP3    H224072   0.042   4.657  13.928  1.5471  0.1061  0.1152
  861TIP3   OH224073   5.240   4.635  12.880 -0.1107 -0.2885 -0.7234
  861TIP3    H124074   5.246   4.540  12.870 -0.3554 -0.4648  0.6734
  861TIP3    H224075   5.156   4.650  12.923 -0.4623  0.6354 -1.7021
  862TIP3   OH224076   4.357   4.138  14.486  0.1286 -0.3921  0.7146
  862TIP3    H124077   4.375   4.129  14.393  2.3425  0.3650  1.0359
  862TIP3    H224078   4.397   4.060  14.526  0.9733  0.2958  1.2350
  863TIP3   OH224079   2.825   5.455   3.227 -0.1184  0.3015  0.3934
  863TIP3    H124080   2.869   5.381   3.269  0.5682  0.6852  0.3665
  863TIP3    H224081   2.804   5.514   3.300  2.8633  1.8960  0.0296
  864TIP3   OH224082   0.304   1.668   1.159 -0.1858 -0.1656 -0.4870
  864TIP3    H124083   0.302   1.760   1.186 -0.1550  0.0644 -1.2767
  864TIP3    H224084   0.374   1.663   1.094  1.3426 -1.1912  1.1867
  865TIP3   OH224085   0.512   4.401  13.492  0.1109  0.1778  0.3585
  865TIP3    H124086   0.467   4.472  13.447  0.3901  0.3054  0.2799
  865TIP3    H224087   0.460   4.323  13.473  0.5242  0.1418 -0.6204
  866TIP3   OH224088   5.034   1.265   2.907  0.2058  0.2603 -0.3036
  866TIP3    H124089   5.127   1.287   2.894  0.8346 -1.8122  0.5226
  866TIP3    H224090   5.005   1.324   2.977  0.9628  0.7434 -0.3912
  867TIP3   OH224091   4.889   3.479  13.851  0.4189 -0.2025 -0.2965
  867TIP3    H124092   4.822   3.412  13.868 -0.2537  0.5097 -0.0753
  867TIP3    H224093   4.971   3.431  13.847 -0.1943 -1.1780 -1.2610
  868TIP3   OH224094   3.820   5.154   4.533 -0.1959  0.2019  0.2946
  868TIP3    H124095   3.838   5.060   4.540 -0.0695  0.3211  1.6983
  868TIP3    H224096   3.904   5.193   4.508 -0.2548 -0.0643 -0.3176
  869TIP3   OH224097   1.932   5.644   4.105  0.6889  0.2387  0.2333
  869TIP3    H124098   1.967   5.732   4.123 -1.1520  0.7625  1.4663
  869TIP3    H224099   1.929   5.639   4.009 -1.0117  2.3217  0.1199
  870TIP3   OH224100   3.077   1.322   4.060  0.1626 -0.0021 -0.6657
  870TIP3    H124101   2.991   1.291   4.030  0.4020 -1.0868 -0.2438
  870TIP3    H224102   3.127   1.334   3.979 -0.0019 -0.5110 -0.8440
  871TIP3   OH224103   3.296   6.623  16.006  0.0691 -0.1025 -0.4993
  871TIP3    H124104   3.388   6.649  16.009 -0.0342  0.3929 -1.5226
  871TIP3    H224105   3.297   6.534  15.973  0.1809 -0.0786 -0.5624
  872TIP3   OH224106   4.658   0.260  11.147 -0.8247  0.4731 -0.1051
  872TIP3    H124107   4.698   0.201  11.211 -0.1813  1.2675  0.2267
  872TIP3    H224108   4.668   0.215  11.063 -1.2288 -0.3447  0.2760
  873TIP3   OH224109   1.571   6.349   4.591  1.4020  0.3689  0.2096
  873TIP3    H124110   1.584   6.358   4.496  0.7485 -0.6225  0.0160
  873TIP3    H224111   1.648   6.300   4.621  1.2377  0.0232  0.0690
  874TIP3   OH224112   0.495   0.470   0.425 -0.3009 -0.3638  0.2111
  874TIP3    H124113   0.478   0.402   0.490  1.6479  1.0317  2.2834
  874TIP3    H224114   0.427   0.536   0.442 -0.3595 -0.4231  0.2082
  875TIP3   OH224115   0.527   5.088   5.690  0.3348 -0.4760 -0.3942
  875TIP3    H124116   0.535   5.182   5.704 -1.1878 -0.7021  2.2675
  875TIP3    H224117   0.475   5.080   5.610  0.2535  0.9234 -0.4877
  876TIP3   OH224118   0.651   6.109  11.441 -0.0580  0.2418 -0.2226
  876TIP3    H124119   0.618   6.081  11.527  0.3928  0.4465  0.0197
  876TIP3    H224120   0.737   6.145  11.460  0.0412  0.2853 -0.7671
  877TIP3   OH224121   2.141   3.102  15.134 -0.0989  0.2211  0.3909
  877TIP3    H124122   2.229   3.069  15.119  0.1124  0.6290  0.7198
  877TIP3    H224123   2.109   3.053  15.210  0.3864  1.0815  1.1640
  878TIP3   OH224124   0.079   1.041   5.776 -0.2237  0.7192  0.2766
  878TIP3    H124125   0.078   1.134   5.755 -0.1767  1.3064  2.8233
  878TIP3    H224126   0.151   1.030   5.837 -0.7503 -0.8528  0.6344
  879TIP3   OH224127   5.546   6.685  15.719  0.0772  0.0466  0.5380
  879TIP3    H124128   5.595   6.612  15.756  0.4836 -0.4015 -0.8728
  879TIP3    H224129   5.501   6.724  15.794  2.0160  0.0426  1.7421
  880TIP3   OH224130   4.190   6.083  16.547 -0.2032  0.1373 -0.0024
  880TIP3    H124131   4.203   6.125  16.632  0.4306 -0.5184  0.2243
  880TIP3    H224132   4.230   6.142  16.484 -1.3938  1.0259  0.0639
  881TIP3   OH224133   5.266   2.011   3.761 -0.1328 -0.1572  0.0099
  881TIP3    H124134   5.265   2.101   3.726  0.2937  0.0405  0.4901
  881TIP3    H224135   5.337   1.968   3.713  1.4865  0.5623  1.6910
  882TIP3   OH224136   5.972   2.090   5.296  0.3181 -0.2081  0.2275
  882TIP3    H124137   6.052   2.088   5.348 -0.7274  0.1838  1.8759
  882TIP3    H224138   5.939   2.179   5.306  0.4496  0.0759 -1.6805
  883TIP3   OH224139   2.991   1.909  11.314  0.0162 -0.3590 -0.2912
  883TIP3    H124140   2.945   1.930  11.233  0.2105  1.4425  0.0604
  883TIP3    H224141   3.001   1.992  11.359  0.7320 -1.2113  1.1658
  884TIP3   OH224142   2.796   4.948  16.967 -0.6359  0.2788 -0.0538
  884TIP3    H124143   2.880   4.924  17.006 -0.4267  1.3499  0.1512
  884TIP3    H224144   2.731   4.925  17.033 -0.5078 -0.5099 -0.1980
  885TIP3   OH224145   6.252   0.382   3.205  0.6640 -0.2560  0.3801
  885TIP3    H124146   6.197   0.304   3.200  0.5878 -0.1980  0.3038
  885TIP3    H224147   6.201   0.450   3.159  0.3401  0.0619  1.2015
  886TIP3   OH224148   2.334   3.152   2.715 -0.9481 -0.4330 -0.7171
  886TIP3    H124149   2.255   3.158   2.770 -0.0844  1.8662  0.2988
  886TIP3    H224150   2.352   3.242   2.688  2.3118 -0.6601  0.4618
  887TIP3   OH224151   4.919   5.184   3.215 -0.2583  0.2858 -0.8114
  887TIP3    H124152   4.986   5.216   3.275  0.5928  1.7265 -2.5074
  887TIP3    H224153   4.843   5.239   3.233 -1.2268 -1.7165  1.5092
  888TIP3   OH224154   4.846   1.211   2.389  0.4891  0.3546 -0.4542
  888TIP3    H124155   4.889   1.165   2.461 -3.7298 -1.0932  1.2937
  888TIP3    H224156   4.811   1.291   2.429  0.5249  0.9508 -1.5866
  889TIP3   OH224157   6.214   5.306   0.710 -0.2542  0.1781 -0.6044
  889TIP3    H124158   6.217   5.362   0.633 -2.8372  0.9300 -0.2198
  889TIP3    H224159   6.121   5.281   0.718  0.2349 -1.1409  1.3480
  890TIP3   OH224160   5.651   1.639   5.455 -0.1875  0.1865 -0.4481
  890TIP3    H124161   5.699   1.707   5.407 -0.6217  0.8740  0.0914
  890TIP3    H224162   5.561   1.671   5.459 -0.4843 -0.6087 -0.5294
  891TIP3   OH224163   6.199   1.387   2.655  0.2099  0.5032  0.1069
  891TIP3    H124164   6.223   1.465   2.605  0.6433 -0.3880 -1.1064
  891TIP3    H224165   6.128   1.347   2.603 -0.8098  0.7019  1.3187
  892TIP3   OH224166   2.178   4.164  14.985 -0.0824 -0.0735 -0.0612
  892TIP3    H124167   2.121   4.215  15.042 -0.0703 -0.1618  0.0296
  892TIP3    H224168   2.209   4.091  15.040  1.1245  0.6680  0.2576
  893TIP3   OH224169   3.111   3.408  12.604  0.2362 -0.4602  0.3025
  893TIP3    H124170   3.051   3.397  12.530 -0.9154 -0.6394  1.2447
  893TIP3    H224171   3.053   3.416  12.681  1.3956  0.2857  1.1121
  894TIP3   OH224172   6.298   1.802  12.392  0.0664  0.0154  0.0747
  894TIP3    H124173   6.371   1.748  12.420  2.3355  3.2610  0.7002
  894TIP3    H224174   6.276   1.855  12.468 -2.0177  0.0981 -0.5512
  895TIP3   OH224175   3.234   1.574   2.367  0.5675  0.1685 -0.2420
  895TIP3    H124176   3.161   1.616   2.322  1.2716 -0.3171 -1.8609
  895TIP3    H224177   3.195   1.496   2.406 -0.6655  2.0415  2.4668
  896TIP3   OH224178   1.527   3.447  15.376  0.2523  0.2315 -0.4736
  896TIP3    H124179   1.557   3.430  15.465  0.8584 -2.2188 -1.0955
  896TIP3    H224180   1.583   3.518  15.345  0.8797  0.2499  0.6680
  897TIP3   OH224181   3.294   1.496  16.683  0.1373  0.5017  0.1427
  897TIP3    H124182   3.383   1.483  16.716  0.6140  1.2421 -0.8349
  897TIP3    H224183   3.272   1.413  16.640 -0.0677 -0.0703  1.3383
  898TIP3   OH224184   5.143   3.282  11.638 -0.3815  0.3471  0.3661
  898TIP3    H124185   5.132   3.375  11.658  1.4048  0.5288  0.5899
  898TIP3    H224186   5.185   3.280  11.551  0.5348 -0.2009  0.8026
  899TIP3   OH224187   2.121   3.747   5.022  0.0917 -0.2129 -0.3172
  899TIP3    H124188   2.071   3.682   4.972 -0.3467  0.1206 -0.3207
  899TIP3    H224189   2.154   3.807   4.955  3.4206 -2.3346 -0.6950
  900TIP3   OH224190   4.317   0.490   5.821 -0.1782  0.7328  0.2052
  900TIP3    H124191   4.306   0.543   5.742 -0.1096  0.4141 -0.0186
  900TIP3    H224192   4.397   0.523   5.861 -0.4176  1.1523  0.3467
  901TIP3   OH224193   2.569   2.431   2.924 -0.1037 -0.3704 -0.6380
  901TIP3    H124194   2.534   2.354   2.879 -0.0856 -0.0089 -1.2852
  901TIP3    H224195   2.512   2.503   2.895 -0.1225 -0.1442 -0.0376
  902TIP3   OH224196   0.341   5.767  14.607 -0.2831 -0.0079  0.0161
  902TIP3    H124197   0.395   5.691  14.589  0.6781  1.0324 -1.6194
  902TIP3    H224198   0.263   5.732  14.650  0.4884 -1.8123 -0.0286
  903TIP3   OH224199   1.390   3.766   6.132  0.2406 -0.2834  0.0495
  903TIP3    H124200   1.300   3.744   6.155  0.3949 -0.8148  0.1513
  903TIP3    H224201   1.442   3.692   6.165  0.6983 -0.0327 -0.1086
  904TIP3   OH224202   4.459   1.484   0.800 -0.1617 -0.1378  0.2120
  904TIP3    H124203   4.549   1.514   0.813 -0.8452  2.1270  0.0144
  904TIP3    H224204   4.467   1.394   0.769  2.0393  0.1308 -0.0330
  905TIP3   OH224205   0.147   5.623  16.431 -0.1959  0.3368  0.1250
  905TIP3    H124206   0.240   5.634  16.413  0.1338 -0.3411  1.3899
  905TIP3    H224207   0.117   5.711  16.454  0.9457 -0.0767  3.3668
  906TIP3   OH224208   4.827   3.973  15.552 -0.1988  0.3674 -0.2931
  906TIP3    H124209   4.787   4.026  15.483  0.7447  0.1627 -0.9983
  906TIP3    H224210   4.834   3.886  15.514  0.2365  0.2301  0.1032
  907TIP3   OH224211   1.628   6.380  15.890  0.2630 -0.1933  0.0284
  907TIP3    H124212   1.655   6.315  15.825 -1.1984  0.0278 -0.8174
  907TIP3    H224213   1.607   6.328  15.968 -0.9105 -0.7648 -0.6453
  908TIP3   OH224214   0.115   0.374   3.748  0.0436 -0.4286  0.1822
  908TIP3    H124215   0.081   0.464   3.738 -0.5296 -0.7325 -0.6463
  908TIP3    H224216   0.209   0.386   3.763  0.0947  0.2854 -0.6277
  909TIP3   OH224217   4.908   3.048   0.988  0.2202 -0.0000  0.1753
  909TIP3    H124218   4.845   3.118   1.006 -0.0766 -0.6230  1.6767
  909TIP3    H224219   4.945   3.028   1.074  0.0066 -1.9638 -0.1856
  910TIP3   OH224220   3.325   3.870   2.182  0.0370  1.0336 -0.0949
  910TIP3    H124221   3.369   3.952   2.205 -0.0907  0.9160  0.5851
  910TIP3    H224222   3.310   3.876   2.088  1.0531  1.2968 -0.2383
  911TIP3   OH224223   2.387   3.006  15.043  0.0991  0.2174  0.4840
  911TIP3    H124224   2.432   2.923  15.061 -0.2668 -0.0905 -0.0016
  911TIP3    H224225   2.423   3.035  14.959  0.4213  0.6875  0.7837
  912TIP3   OH224226   4.255   2.217   2.872 -0.3017 -0.1873  0.0112
  912TIP3    H124227   4.263   2.293   2.815 -1.6957 -0.7036 -0.9073
  912TIP3    H224228   4.274   2.250   2.960 -1.2028  1.2918 -0.3421
  913TIP3   OH224229   4.417   1.178   5.878 -0.0075  0.4984  0.1459
  913TIP3    H124230   4.428   1.106   5.940 -3.6148 -0.3704 -0.1162
  913TIP3    H224231   4.500   1.226   5.882  1.7662 -2.5555  1.7251
  914TIP3   OH224232   5.897   3.698  11.543 -0.3523 -0.0974 -0.3681
  914TIP3    H124233   5.814   3.684  11.498  0.9110 -2.0404 -2.2232
  914TIP3    H224234   5.955   3.734  11.476  1.7678 -3.6820 -0.6204
  915TIP3   OH224235   0.408   2.089   1.766 -0.5039  0.5302 -0.4149
  915TIP3    H124236   0.315   2.103   1.784 -0.5475 -1.0071  0.6134
  915TIP3    H224237   0.451   2.095   1.851  0.3600  1.2480 -0.8878
  916TIP3   OH224238   1.183   3.783   5.888  0.2332  0.1553 -0.5430
  916TIP3    H124239   1.187   3.696   5.928  1.6373  0.5519  0.2414
  916TIP3    H224240   1.182   3.767   5.794 -0.9792 -0.7388 -0.3948
  917TIP3   OH224241   6.668   3.554  14.138  0.6929  0.4617 -0.5693
  917TIP3    H124242   6.665   3.648  14.156 -0.2636  0.6163 -1.5806
  917TIP3    H224243   6.751   3.526  14.177  0.5303  1.5414  0.5933
  918TIP3   OH224244   1.458   0.914   6.789  0.8742  0.1998 -0.1538
  918TIP3    H124245   1.542   0.953   6.813  0.6244  0.4956  0.2390
  918TIP3    H224246   1.450   0.838   6.847 -0.3050  1.6195  1.5824
  919TIP3   OH224247   6.711   6.651   0.188 -0.1810 -0.3517 -0.3125
  919TIP3    H124248   6.728   6.652   0.282  0.7621 -0.1761 -0.4845
  919TIP3    H224249   6.627   6.697   0.179 -0.3032 -0.4166  0.4474
  920TIP3   OH224250   3.361   6.615   0.194  0.0858  0.4745  0.3629
  920TIP3    H124251   3.435   6.661   0.156  0.8842  0.3515  1.7354
  920TIP3    H224252   3.286   6.673   0.178  0.9789  2.0139  1.5798
  921TIP3   OH224253   4.937   4.288   5.541  0.0590  0.2039  0.1826
  921TIP3    H124254   5.016   4.252   5.581  0.4187  1.2599  0.4185
  921TIP3    H224255   4.869   4.275   5.607  0.8658  2.9112  1.6245
  922TIP3   OH224256   6.528   5.507  12.291  0.2520 -0.6950 -0.4766
  922TIP3    H124257   6.440   5.501  12.328  0.2447  3.2899  0.3717
  922TIP3    H224258   6.586   5.487  12.365  0.1070 -2.5844 -0.8525
  923TIP3   OH224259   6.305   5.428   3.724  0.2440  0.1069  0.1405
  923TIP3    H124260   6.242   5.441   3.795  0.1348  3.0097 -0.4459
  923TIP3    H224261   6.252   5.402   3.649  0.0929 -0.4192  0.4215
  924TIP3   OH224262   2.097   3.528  11.053 -0.1299  0.1779 -0.1219
  924TIP3    H124263   2.007   3.517  11.021 -0.3970  2.7846 -0.3295
  924TIP3    H224264   2.128   3.608  11.011  1.3228  0.8239  2.0965
  925TIP3   OH224265   1.758   4.979   6.097 -0.2049  0.1353  0.2720
  925TIP3    H124266   1.848   4.993   6.127 -0.6791 -0.5248  2.0846
  925TIP3    H224267   1.711   5.057   6.126  0.6899  2.8145 -4.8811
  926TIP3   OH224268   0.619   1.746   4.569 -0.3744 -0.0091 -0.5226
  926TIP3    H124269   0.649   1.676   4.511  0.1554  0.2777 -0.5999
  926TIP3    H224270   0.524   1.734   4.575 -0.4280 -0.0327 -1.4521
  927TIP3   OH224271   6.669   3.869   3.223  0.2806  0.1862  0.9470
  927TIP3    H124272   6.628   3.875   3.137 -1.4902  0.0621  1.7612
  927TIP3    H224273   6.736   3.802   3.213  0.1265  0.2201 -0.3604
  928TIP3   OH224274   5.843   4.255  15.345  0.1172 -0.2854  0.1123
  928TIP3    H124275   5.914   4.295  15.394  0.6505 -0.3504 -0.6012
  928TIP3    H224276   5.800   4.328  15.301  0.4776 -0.3864 -0.4036
  929TIP3   OH224277   5.294   5.298   5.247 -0.0238  0.9860  0.2145
  929TIP3    H124278   5.238   5.238   5.199 -1.7205  0.4435  2.7759
  929TIP3    H224279   5.304   5.374   5.189  0.4763 -0.8892 -2.2053
  930TIP3   OH224280   4.206   0.369  14.886  0.1111  0.3253 -0.0015
  930TIP3    H124281   4.219   0.403  14.798  0.7287 -0.8660 -0.3895
  930TIP3    H224282   4.190   0.275  14.874  0.7838  0.0356  1.1824
  931TIP3   OH224283   0.668   3.123  16.276  0.2239  0.0116 -0.4608
  931TIP3    H124284   0.709   3.042  16.305 -0.4524  0.4130  1.7146
  931TIP3    H224285   0.740   3.185  16.267  0.2072  0.6809  3.2192
  932TIP3   OH224286   3.635   0.604  15.906 -0.2518  0.7918 -0.1498
  932TIP3    H124287   3.560   0.662  15.917 -0.6852  0.2067  0.0320
  932TIP3    H224288   3.646   0.596  15.811  0.3002  1.7874 -0.1752
  933TIP3   OH224289   6.372   1.416   5.145 -0.1751 -0.2142 -0.5947
  933TIP3    H124290   6.337   1.505   5.149  0.6068  0.0698  0.0699
  933TIP3    H224291   6.295   1.360   5.134 -0.6309  0.5773 -1.5320
  934TIP3   OH224292   4.144   0.289  12.240 -0.5964  0.0513 -0.5004
  934TIP3    H124293   4.235   0.269  12.218  0.2037  1.9663  0.9369
  934TIP3    H224294   4.141   0.283  12.336 -1.9384  0.2125 -0.5225
  935TIP3   OH224295   3.247   0.832  12.761 -0.3184  0.3528  0.1485
  935TIP3    H124296   3.159   0.796  12.756 -0.5940  1.1802 -1.3846
  935TIP3    H224297   3.304   0.755  12.760 -1.0157 -0.1976  1.5117
  936TIP3   OH224298   0.935   5.017  15.104 -0.1768 -0.6872  0.0368
  936TIP3    H124299   0.887   5.062  15.034  0.3297 -1.3269 -0.7266
  936TIP3    H224300   1.000   4.964  15.058  2.3037  1.3129  1.0690
  937TIP3   OH224301   2.570   2.199  15.098 -0.0929  0.0299 -0.1636
  937TIP3    H124302   2.658   2.205  15.061  0.3412 -1.3414  0.6361
  937TIP3    H224303   2.583   2.167  15.187 -1.5256 -1.8968 -0.6280
  938TIP3   OH224304   6.344   3.256  15.588 -0.2556  0.1935 -0.7894
  938TIP3    H124305   6.306   3.191  15.646  0.4174 -0.0178 -0.5791
  938TIP3    H224306   6.426   3.281  15.630 -0.7394  1.5322 -0.6302
  939TIP3   OH224307   6.444   2.557   5.826 -0.0717  0.8646  0.0650
  939TIP3    H124308   6.427   2.651   5.817 -1.7212  0.9988  3.7333
  939TIP3    H224309   6.490   2.549   5.910 -1.3594 -1.7555  0.5688
  940TIP3   OH224310   3.338   1.194  11.643  0.1613 -0.2776  0.4855
  940TIP3    H124311   3.391   1.192  11.723  0.5172  2.1911  0.3383
  940TIP3    H224312   3.397   1.160  11.575 -0.0481 -2.1067  1.1860
  941TIP3   OH224313   2.824   5.900  16.359  0.4355 -1.1751  0.4207
  941TIP3    H124314   2.832   5.880  16.452 -1.3921  1.3915  1.1731
  941TIP3    H224315   2.911   5.930  16.333  1.0533 -2.2832  1.1914
  942TIP3   OH224316   6.368   1.148   3.738 -0.4481  0.2086 -0.0906
  942TIP3    H124317   6.446   1.094   3.749 -0.5661  0.5355  2.5499
  942TIP3    H224318   6.304   1.090   3.696 -0.4170 -1.5646  2.2447
  943TIP3   OH224319   2.003   2.461   5.059 -0.0714  0.1142 -0.4023
  943TIP3    H124320   1.945   2.473   5.135 -0.0826 -2.0987 -0.0473
  943TIP3    H224321   1.943   2.446   4.986  0.0056 -1.9565 -0.0745
  944TIP3   OH224322   1.527   6.158  11.417  0.0619  0.2903  0.0327
  944TIP3    H124323   1.465   6.157  11.344 -1.5514  0.2541  1.3527
  944TIP3    H224324   1.607   6.120  11.382 -1.3879 -1.8150 -1.1008
  945TIP3   OH224325   6.776   5.202  13.392  0.0672  0.0864 -0.0247
  945TIP3    H124326   6.788   5.290  13.356  0.9396 -0.5367 -1.2857
  945TIP3    H224327   6.754   5.148  13.317 -0.3941 -0.7932  0.7381
  946TIP3   OH224328   6.774   1.424   5.297  0.0835  0.6430 -0.1475
  946TIP3    H124329   6.847   1.370   5.330  1.5928  3.0040  0.4980
  946TIP3    H224330   6.744   1.472   5.374 -0.3972  1.6514 -0.9570
  947TIP3   OH224331   6.566   4.216  15.525  0.0473  0.3830  0.2196
  947TIP3    H124332   6.528   4.165  15.597  2.9220 -0.6803  1.0538
  947TIP3    H224333   6.513   4.296  15.522 -1.6588 -0.6375  1.9222
  948TIP3   OH224334   3.065   6.776  16.579  0.0603  0.3408 -0.1395
  948TIP3    H124335   3.026   6.839  16.639  1.4811  0.8323  0.2984
  948TIP3    H224336   3.139   6.739  16.628  0.0134 -0.7188 -0.8569
  949TIP3   OH224337   3.973   0.553  13.455 -0.8012  0.1765 -0.4976
  949TIP3    H124338   3.937   0.604  13.528  0.7212 -2.5348  2.2952
  949TIP3    H224339   4.067   0.558  13.467 -0.6047 -2.3277 -0.8275
  950TIP3   OH224340   4.055   2.286   2.572  0.0842  0.1669  0.7400
  950TIP3    H124341   4.098   2.315   2.491 -1.4952  1.7970  0.4607
  950TIP3    H224342   4.089   2.344   2.640 -0.8773  0.7684  0.7072
  951TIP3   OH224343   2.781   4.156   3.996  0.0311  0.0053  0.2788
  951TIP3    H124344   2.738   4.198   3.921  0.2607  0.1222  0.2142
  951TIP3    H224345   2.769   4.062   3.980 -0.2698  0.0387  0.3006
  952TIP3   OH224346   5.104   5.397   0.229 -0.6184  0.1257  0.1406
  952TIP3    H124347   5.113   5.477   0.178 -0.4835  0.2050  0.2904
  952TIP3    H224348   5.171   5.338   0.193  0.9724  0.9508  1.7134
  953TIP3   OH224349   1.434   3.488   1.741 -0.6047 -0.4894  0.0545
  953TIP3    H124350   1.518   3.449   1.763  0.2497  0.7612 -0.8934
  953TIP3    H224351   1.456   3.573   1.702 -2.2591 -0.4902 -0.9682
  954TIP3   OH224352   3.639   1.937  14.110 -0.2629  0.6050 -0.8402
  954TIP3    H124353   3.610   1.913  14.198  0.7372  0.0809 -0.6460
  954TIP3    H224354   3.562   1.976  14.070 -0.8290  0.5384  0.1529
  955TIP3   OH224355   3.177   1.414   2.597  0.3163 -0.3528 -0.4482
  955TIP3    H124356   3.139   1.436   2.682 -0.5549 -2.5136 -0.2283
  955TIP3    H224357   3.256   1.467   2.591 -0.5495  1.1364  0.9250
  956TIP3   OH224358   6.172   3.085   5.288 -0.2960  0.5553 -0.0932
  956TIP3    H124359   6.203   3.176   5.289 -1.4403  0.9938 -1.9068
  956TIP3    H224360   6.250   3.033   5.271  0.0658  1.3412 -0.8368
  957TIP3   OH224361   3.707   2.611  17.146 -0.4049  0.5426  0.2107
  957TIP3    H124362   3.777   2.630  17.208 -2.2343 -0.0601  2.5119
  957TIP3    H224363   3.645   2.684  17.156 -0.5357  0.6494 -1.2111
  958TIP3   OH224364   0.051   4.500  15.173 -0.3798  0.2742 -0.3405
  958TIP3    H124365  -0.005   4.485  15.249 -1.4743  1.5297 -0.8616
  958TIP3    H224366   0.122   4.554  15.205 -0.2980 -0.0430  0.0077
  959TIP3   OH224367   3.123   6.004  10.477  0.5110  0.4405 -0.5985
  959TIP3    H124368   3.040   6.036  10.512 -1.1691 -1.5333 -2.5887
  959TIP3    H224369   3.162   6.080  10.434  0.0748  1.5534  0.9246
  960TIP3   OH224370   0.553   3.585   4.750 -0.1753 -0.1895  0.2201
  960TIP3    H124371   0.505   3.512   4.709  0.5871 -0.5867  0.0268
  960TIP3    H224372   0.644   3.556   4.752  0.0412  0.5047  0.7221
  961TIP3   OH224373   2.426   3.587   5.898 -0.8088  0.3808  0.3039
  961TIP3    H124374   2.414   3.497   5.865 -1.1248  0.6798 -0.4133
  961TIP3    H224375   2.345   3.606   5.945 -0.4941  0.0718  0.9641
  962TIP3   OH224376   1.438   5.080   5.970  0.3208 -0.3327  0.2764
  962TIP3    H124377   1.451   5.073   6.064 -1.1751 -1.3107  0.4172
  962TIP3    H224378   1.362   5.137   5.959  1.0174  0.4935 -0.3779
  963TIP3   OH224379   5.017   4.644  13.067  0.6612 -0.4981  0.0148
  963TIP3    H124380   5.036   4.727  13.111 -0.4733 -1.1376  1.7223
  963TIP3    H224381   4.931   4.656  13.027  0.3429 -0.9727  0.5557
  964TIP3   OH224382   4.589   3.549  11.154  0.0437  0.4434 -0.7216
  964TIP3    H124383   4.641   3.483  11.108  0.4386  0.8334 -0.8383
  964TIP3    H224384   4.654   3.604  11.199 -0.2537  1.0336 -1.0070
  965TIP3   OH224385   0.482   1.995   0.087 -0.0865 -0.0713 -0.1547
  965TIP3    H124386   0.397   1.951   0.083 -0.5749  0.4135  3.3464
  965TIP3    H224387   0.535   1.949   0.022 -2.0079 -2.6234 -0.0275
  966TIP3   OH224388   6.751   5.293   4.659 -0.1183  0.1252 -0.0458
  966TIP3    H124389   6.666   5.306   4.701 -0.5553 -0.6608 -0.6624
  966TIP3    H224390   6.767   5.376   4.613 -0.4638  0.3472  0.2265
  967TIP3   OH224391   0.922   4.770   5.150  0.8754 -0.0815  0.6742
  967TIP3    H124392   0.874   4.724   5.081 -2.1820  1.3067  1.7595
  967TIP3    H224393   0.959   4.847   5.107 -1.1970  0.8953  0.5618
  968TIP3   OH224394   5.106   6.398  12.768  0.1116 -0.7491  0.2652
  968TIP3    H124395   5.149   6.436  12.691 -2.6810 -3.0732 -2.5697
  968TIP3    H224396   5.022   6.444  12.773  0.4935 -0.2528  2.2751
  969TIP3   OH224397   5.991   5.646   0.769  0.0844 -0.2066  0.1706
  969TIP3    H124398   5.995   5.562   0.814 -0.6782  0.5466  1.6750
  969TIP3    H224399   5.911   5.642   0.717  0.1539 -0.4910  0.0858
  970TIP3   OH224400   1.820   5.479  12.965 -0.0312  0.6076  0.0677
  970TIP3    H124401   1.910   5.453  12.986 -0.0408 -0.1915 -0.8400
  970TIP3    H224402   1.802   5.437  12.880 -1.6639 -0.1936  0.7804
  971TIP3   OH224403   4.811   0.187  15.982  0.0376 -0.7522  0.3291
  971TIP3    H124404   4.890   0.234  16.008 -0.1732 -1.2441  1.9269
  971TIP3    H224405   4.835   0.095  15.989  0.2407 -0.9158 -2.1318
  972TIP3   OH224406   2.068   1.061   5.550 -0.7000 -0.4521  0.4296
  972TIP3    H124407   2.097   1.013   5.472 -1.3714 -0.4750  0.1968
  972TIP3    H224408   1.973   1.056   5.548 -0.7465  0.2435  0.8143
  973TIP3   OH224409   2.635   6.566   1.473 -0.1670  0.0889  0.3392
  973TIP3    H124410   2.565   6.534   1.530 -1.1281  1.7054  0.0662
  973TIP3    H224411   2.686   6.625   1.529 -0.4960  0.8697 -0.1915
  974TIP3   OH224412   5.988   4.926  16.549  0.2225 -0.0011  0.0289
  974TIP3    H124413   5.971   5.002  16.494 -2.0485  1.0139  2.0313
  974TIP3    H224414   5.974   4.851  16.490 -2.8884  1.0325 -0.6581
  975TIP3   OH224415   0.760   5.904   3.356 -0.3965  0.6780  0.0165
  975TIP3    H124416   0.723   5.923   3.442 -1.3656  1.4734 -0.5790
  975TIP3    H224417   0.840   5.956   3.352 -1.5944  2.5385 -0.5037
  976TIP3   OH224418   1.536   6.468  12.365 -0.1375  0.3445  0.2877
  976TIP3    H124419   1.451   6.489  12.326 -0.2752 -0.3220  0.2230
  976TIP3    H224420   1.523   6.383  12.407  0.1611  0.8122  1.3425
  977TIP3   OH224421   5.915   3.905  13.903  0.2467  0.0900  0.0061
  977TIP3    H124422   5.891   3.931  13.814 -1.0376 -2.7102 -0.4940
  977TIP3    H224423   5.884   3.977  13.958 -0.5378  1.0264 -1.6338
  978TIP3   OH224424   4.067   0.578   4.353  0.7752  0.3548 -0.0086
  978TIP3    H124425   4.134   0.556   4.418 -1.2584 -2.2922  1.2328
  978TIP3    H224426   4.064   0.502   4.295 -1.3156  0.3593  0.0722
  979TIP3   OH224427   4.863   5.320   2.252  0.2846 -0.0223 -0.1872
  979TIP3    H124428   4.843   5.408   2.221 -1.7622 -0.5955 -0.5574
  979TIP3    H224429   4.788   5.295   2.306  1.8615 -0.6900  1.7952
  980TIP3   OH224430   5.160   5.126  11.127 -0.0929 -0.0505 -0.0134
  980TIP3    H124431   5.096   5.078  11.179  1.0523  0.5215  1.9996
  980TIP3    H224432   5.108   5.186  11.074 -1.4765 -2.7043 -1.7805
  981TIP3   OH224433   3.144   3.231  10.704 -0.2514  0.0263  0.1633
  981TIP3    H124434   3.181   3.171  10.639  0.5192  0.0553  0.5655
  981TIP3    H224435   3.074   3.181  10.745 -0.0945 -0.3456 -0.0156
  982TIP3   OH224436   3.773   0.912  14.703 -0.2631 -0.2897 -0.2832
  982TIP3    H124437   3.759   0.979  14.769 -1.8567 -1.2669  0.3978
  982TIP3    H224438   3.868   0.911  14.689  0.0954 -0.0893  1.9901
  983TIP3   OH224439   0.835   2.505   5.219 -0.0170  0.6881 -0.0137
  983TIP3    H124440   0.799   2.511   5.307  0.1411  1.1029  0.0256
  983TIP3    H224441   0.872   2.417   5.214 -1.4766  0.0630 -0.2240
  984TIP3   OH224442   5.240   2.552   2.619  0.4050  0.0331  0.1518
  984TIP3    H124443   5.228   2.625   2.680 -0.5055 -0.3046  0.3910
  984TIP3    H224444   5.298   2.586   2.552  0.2163  0.8926  0.4192
  985TIP3   OH224445   2.517   4.864  16.451 -0.5852 -0.2188  0.0906
  985TIP3    H124446   2.532   4.958  16.443  0.9094 -0.5779 -1.5876
  985TIP3    H224447   2.425   4.852  16.427 -1.1663  0.9558  1.6537
  986TIP3   OH224448   6.224   1.876   5.008 -0.2927 -1.1303  0.2121
  986TIP3    H124449   6.157   1.942   5.023 -1.8017 -2.3653 -0.9425
  986TIP3    H224450   6.292   1.895   5.073 -0.7239  1.5039 -0.0868
  987TIP3   OH224451   1.211   0.816   0.013 -0.3014 -0.0313  0.5693
  987TIP3    H124452   1.194   0.909  -0.001  1.9473  0.2237 -0.6546
  987TIP3    H224453   1.303   0.811   0.040 -0.2988 -1.9210  0.3430
  988TIP3   OH224454   6.381   3.854   0.355  0.0456 -0.0425 -0.2242
  988TIP3    H124455   6.456   3.902   0.319  1.3175 -1.8247  0.0373
  988TIP3    H224456   6.404   3.839   0.447 -1.1391  0.3618  0.1524
  989TIP3   OH224457   0.074   6.240  11.705 -0.1081  0.5809 -0.9237
  989TIP3    H124458   0.001   6.273  11.758  0.4344  0.3089 -0.0093
  989TIP3    H224459   0.051   6.149  11.686 -0.2703  0.6586 -1.1054
  990TIP3   OH224460   6.606   1.386  14.435 -0.3498  0.0840 -0.1969
  990TIP3    H124461   6.565   1.430  14.510  1.1303 -0.0287  0.7015
  990TIP3    H224462   6.686   1.347  14.471  0.4534  0.1501 -1.8682
  991TIP3   OH224463   0.506   4.897   3.143 -0.7643  0.3056 -0.6726
  991TIP3    H124464   0.472   4.865   3.226 -0.0134  1.3646  0.0598
  991TIP3    H224465   0.596   4.865   3.139 -0.7061  0.4961 -0.9372
  992TIP3   OH224466   2.065   0.333  11.226  0.2118  0.4037  0.1872
  992TIP3    H124467   2.072   0.289  11.310  0.0540  1.0430  0.5406
  992TIP3    H224468   2.131   0.403  11.230 -0.4252  1.0168  0.1492
  993TIP3   OH224469   0.409   6.558   3.118  1.1366  0.1874  0.2199
  993TIP3    H124470   0.314   6.568   3.131  0.9860 -2.0010  0.9847
  993TIP3    H224471   0.429   6.616   3.044 -0.9665 -0.0161 -0.5430
  994TIP3   OH224472   5.146   3.573  15.509 -0.1001 -0.4972  0.1567
  994TIP3    H124473   5.072   3.631  15.490  0.8788  1.2296  1.5575
  994TIP3    H224474   5.105   3.493  15.542 -1.4607 -0.6790 -1.8341
  995TIP3   OH224475   4.888   4.611  13.526 -0.6027  0.1638 -0.1414
  995TIP3    H124476   4.815   4.613  13.588 -1.8207 -0.8345 -1.5019
  995TIP3    H224477   4.852   4.649  13.446  0.3133 -0.5648 -0.8988
  996TIP3   OH224478   4.839   6.446   4.289 -0.4898  0.0237  0.6340
  996TIP3    H124479   4.840   6.541   4.272  0.5462  0.0468  0.8054
  996TIP3    H224480   4.931   6.422   4.296 -0.6848 -1.3239 -1.1664
  997TIP3   OH224481   1.694   0.888  13.398 -0.1150  0.5661  0.5398
  997TIP3    H124482   1.655   0.847  13.476 -0.0335  0.4586  0.5246
  997TIP3    H224483   1.631   0.954  13.371 -0.1881  0.5373  0.6408
  998TIP3   OH224484   5.908   3.108   2.785  0.1007 -0.2774 -0.2398
  998TIP3    H124485   5.969   3.042   2.817 -0.9345 -0.0274  2.3932
  998TIP3    H224486   5.822   3.067   2.790 -0.2242  0.2004 -1.6068
  999TIP3   OH224487   3.514   3.032  13.782 -0.2804  0.3818  0.7440
  999TIP3    H124488   3.513   2.937  13.794 -1.5941  0.2017 -0.7085
  999TIP3    H224489   3.567   3.046  13.704  0.2983  0.8777  1.2255
 1000TIP3   OH224490   1.130   6.769  11.711 -0.8371  0.3125 -0.4376
 1000TIP3    H124491   1.162   6.837  11.651 -0.8725 -1.0032 -1.9782
 1000TIP3    H224492   1.076   6.712  11.656 -0.8023 -0.9703  0.8321
 1001TIP3   OH224493   0.878   1.340  16.919  0.2458  0.0515 -0.1864
 1001TIP3    H124494   0.866   1.259  16.870 -0.7451 -0.2653  0.5613
 1001TIP3    H224495   0.863   1.315  17.011 -1.6825  1.3901 -0.1049
 1002TIP3   OH224496   4.877   1.493   1.542  0.1868 -0.0424  0.1982
 1002TIP3    H124497   4.829   1.576   1.553 -1.7398 -0.9105 -1.2836
 1002TIP3    H224498   4.852   1.464   1.454 -0.8916 -3.2865  1.5177
 1003TIP3   OH224499   4.457   4.017   2.313  0.2278  0.2826 -0.5995
 1003TIP3    H124500   4.548   4.045   2.304 -0.3337  2.1047 -0.7722
 1003TIP3    H224501   4.407   4.098   2.324 -1.3891 -0.6792 -0.5964
 1004TIP3   OH224502   5.798   0.592  16.418 -0.0305 -0.0562 -0.4609
 1004TIP3    H124503   5.819   0.541  16.497  0.8817  0.4278 -0.3840
 1004TIP3    H224504   5.768   0.676  16.451 -0.1179 -0.0213 -0.6265
 1005TIP3   OH224505   3.517   2.620  16.826  0.2323 -0.2303 -0.6639
 1005TIP3    H124506   3.587   2.675  16.862  2.2948 -3.0582 -0.1477
 1005TIP3    H224507   3.479   2.576  16.902  1.0824 -2.2310 -1.3489
 1006TIP3   OH224508   2.459   3.170   6.200  0.1900 -0.1442 -0.3651
 1006TIP3    H124509   2.546   3.187   6.237 -0.2362  0.3392  0.4340
 1006TIP3    H224510   2.413   3.253   6.211 -1.2140 -1.1403  1.5455
 1007TIP3   OH224511   1.328   3.839   1.749  0.6099  0.7386 -0.1657
 1007TIP3    H124512   1.302   3.926   1.781  0.2557  0.4704  0.2832
 1007TIP3    H224513   1.328   3.784   1.828 -0.5256  0.0062 -0.6604
 1008TIP3   OH224514   0.509   0.658   5.256 -0.2803  0.2211 -0.0200
 1008TIP3    H124515   0.549   0.741   5.282  0.3304 -0.0615 -0.0535
 1008TIP3    H224516   0.576   0.592   5.275 -0.1117 -0.0792 -1.6350
 1009TIP3   OH224517   5.830   2.509   0.958 -0.2884 -0.1784 -0.1563
 1009TIP3    H124518   5.869   2.452   1.025 -0.1636 -0.2660 -0.3020
 1009TIP3    H224519   5.855   2.468   0.875 -3.1662 -1.9001 -0.2344
 1010TIP3   OH224520   4.470   5.394  13.284 -0.2329  0.1722 -0.3134
 1010TIP3    H124521   4.521   5.474  13.273  0.0891  0.2494  1.5720
 1010TIP3    H224522   4.511   5.331  13.225  0.8653  0.7906 -0.2241
 1011TIP3   OH224523   4.984   2.860  12.802  0.2033  0.0111 -0.0063
 1011TIP3    H124524   4.893   2.871  12.775  0.8787  2.4928 -1.4638
 1011TIP3    H224525   4.987   2.891  12.892 -0.5384 -0.8694  0.3274
 1012TIP3   OH224526   4.181   1.290  15.915  0.2541  0.3486  0.0379
 1012TIP3    H124527   4.229   1.273  15.834  0.3079 -1.7797  0.5000
 1012TIP3    H224528   4.139   1.207  15.936  0.3029  0.8627  2.2608
 1013TIP3   OH224529   1.491   5.387   0.628  0.6861  0.1462 -0.2399
 1013TIP3    H124530   1.486   5.449   0.700  0.4241 -0.6233  0.4197
 1013TIP3    H224531   1.560   5.421   0.571  0.1667  1.3208 -0.1782
 1014TIP3   OH224532   2.838   3.044   1.228 -0.1367 -1.0483 -1.0206
 1014TIP3    H124533   2.787   3.056   1.308 -1.5633 -1.9911 -1.7591
 1014TIP3    H224534   2.788   3.090   1.160 -0.3458 -2.4812 -1.8639
 1015TIP3   OH224535   2.025   4.857  14.907 -0.3422  0.0427  0.0808
 1015TIP3    H124536   2.089   4.904  14.852  0.5778  0.4723  1.4827
 1015TIP3    H224537   2.068   4.850  14.993 -2.0776  0.0829  0.9707
 1016TIP3   OH224538   2.598   1.890   1.342  0.0103 -0.1069 -0.3529
 1016TIP3    H124539   2.594   1.796   1.328 -0.2606 -0.1773  0.2041
 1016TIP3    H224540   2.639   1.900   1.428 -2.9963  0.1894  1.0763
 1017TIP3   OH224541   5.477   3.551   4.451 -0.5810 -0.0857 -0.3281
 1017TIP3    H124542   5.518   3.504   4.378  0.9075 -0.5776  0.8085
 1017TIP3    H224543   5.447   3.633   4.412  0.2932 -0.2884 -1.4614
 1018TIP3   OH224544   4.114   2.752   4.968  0.4256 -0.0334 -1.2318
 1018TIP3    H124545   4.166   2.831   4.985 -0.9970  0.6694 -0.0436
 1018TIP3    H224546   4.095   2.717   5.055 -0.1757 -0.8835 -1.7063
 1019TIP3   OH224547   3.375   2.875   5.345  0.1006 -0.1145 -0.1647
 1019TIP3    H124548   3.373   2.781   5.326 -0.4432 -0.0446 -0.4625
 1019TIP3    H224549   3.420   2.914   5.270 -1.1996  0.0547 -0.8643
 1020TIP3   OH224550   2.173   5.094   1.877 -0.3313 -0.1378 -0.0340
 1020TIP3    H124551   2.230   5.133   1.809 -0.0909 -0.3369  0.0526
 1020TIP3    H224552   2.211   5.008   1.893 -0.2650 -0.0101  0.5058
 1021TIP3   OH224553   3.206   4.454  13.550 -0.2225 -0.0465 -0.4153
 1021TIP3    H124554   3.125   4.435  13.503 -0.1883  1.8583 -1.2774
 1021TIP3    H224555   3.266   4.384  13.524 -1.5085 -1.3506  0.0672
 1022TIP3   OH224556   4.534   5.832  15.687  0.5541  0.1451  0.6085
 1022TIP3    H124557   4.621   5.867  15.665  1.1543  0.1840  2.8590
 1022TIP3    H224558   4.543   5.737  15.677  0.5684  0.2181 -0.0852
 1023TIP3   OH224559   1.812   1.927  13.635 -0.8217 -0.9955  0.0035
 1023TIP3    H124560   1.762   1.845  13.636 -0.3198 -1.3044 -0.0852
 1023TIP3    H224561   1.877   1.915  13.704 -0.2939 -0.9547 -0.4862
 1024TIP3   OH224562   3.122   3.954  16.093  0.6821  0.0783 -0.2924
 1024TIP3    H124563   3.067   3.882  16.062  0.2211 -0.4795  1.7434
 1024TIP3    H224564   3.059   4.020  16.125  1.1406 -0.7532  2.4647
 1025TIP3   OH224565   3.815   6.594   4.505 -0.2044 -0.5326  0.1092
 1025TIP3    H124566   3.894   6.611   4.454 -0.2513  0.7996  0.4694
 1025TIP3    H224567   3.847   6.579   4.594 -0.2847 -0.9868  0.0651
 1026TIP3   OH224568   4.779   1.123  12.104  0.1028  0.1205  0.1857
 1026TIP3    H124569   4.838   1.107  12.177  0.7644 -0.2624 -0.4331
 1026TIP3    H224570   4.834   1.116  12.026 -0.5808  0.6118 -0.3492
 1027TIP3   OH224571   4.085   6.229  10.442 -0.0782  0.1906 -0.6861
 1027TIP3    H124572   4.111   6.151  10.393 -1.2321  0.6702 -2.0696
 1027TIP3    H224573   4.050   6.195  10.524  2.2514 -0.5930  0.0219
 1028TIP3   OH224574   0.455   4.256   3.063 -0.2726  0.1822  0.3545
 1028TIP3    H124575   0.548   4.238   3.075  0.1144  1.9294  0.1588
 1028TIP3    H224576   0.452   4.346   3.030 -1.9632 -0.2404 -0.7426
 1029TIP3   OH224577   1.024   1.796   4.548  0.1845  0.1707  0.3922
 1029TIP3    H124578   0.959   1.791   4.619 -0.5236  0.0818 -0.2519
 1029TIP3    H224579   1.108   1.802   4.593 -0.2852  0.4990  1.2449
 1030TIP3   OH224580   3.262   3.611   4.939  0.6888 -0.0598  0.4172
 1030TIP3    H124581   3.213   3.614   4.857  1.4033 -2.1521 -0.1319
 1030TIP3    H224582   3.198   3.632   5.006 -0.5345 -0.8892 -0.4628
 1031TIP3   OH224583   5.095   3.095  12.638  0.1137  0.2940  0.4275
 1031TIP3    H124584   5.080   3.175  12.688  1.6984 -1.3121  3.6605
 1031TIP3    H224585   5.060   3.025  12.694  1.9050 -1.5927 -0.7300
 1032TIP3   OH224586   5.899   4.727  12.127 -0.3048 -0.0621  0.0250
 1032TIP3    H124587   5.825   4.671  12.105  0.3619 -1.1479  0.4644
 1032TIP3    H224588   5.916   4.708  12.220  0.5254  0.1503 -0.0764
 1033TIP3   OH224589   1.886   1.080   4.528  0.3760  0.4917  0.2084
 1033TIP3    H124590   1.795   1.097   4.504  0.5385  2.2037  0.7157
 1033TIP3    H224591   1.914   1.011   4.468 -1.3144 -0.2064  0.1974
 1034TIP3   OH224592   1.032   3.352   5.680  0.3928 -0.1474  0.3539
 1034TIP3    H124593   1.104   3.414   5.668 -1.0865  2.0190  2.1437
 1034TIP3    H224594   0.980   3.360   5.601  0.3230  0.7719  0.4880
 1035TIP3   OH224595   1.863   6.285   3.873 -0.1294 -0.2567 -0.5057
 1035TIP3    H124596   1.869   6.264   3.966  0.2734  2.3573  0.1191
 1035TIP3    H224597   1.937   6.239   3.833 -0.4647 -1.6114  0.4305
 1036TIP3   OH224598   6.017   3.788   3.297  0.0254  0.4627  0.0929
 1036TIP3    H124599   5.985   3.857   3.355 -0.2311 -0.5498  1.1802
 1036TIP3    H224600   5.952   3.718   3.306  0.1306  0.1898 -1.2145
 1037TIP3   OH224601   2.619   4.752  10.819 -0.4786  0.3319 -0.0792
 1037TIP3    H124602   2.528   4.745  10.850 -0.2173 -1.0178  0.4391
 1037TIP3    H224603   2.629   4.680  10.758  1.3738 -2.0193  2.8350
 1038TIP3   OH224604   3.912   0.547  10.999  0.5479 -0.0162  0.1465
 1038TIP3    H124605   3.921   0.641  11.012  0.5689  0.1789 -1.1352
 1038TIP3    H224606   3.914   0.536  10.903  2.8178 -1.5518  0.3327
 1039TIP3   OH224607   1.388   0.695   1.692 -0.3274  0.0384  0.0478
 1039TIP3    H124608   1.452   0.681   1.623 -0.1834 -1.3671  0.4558
 1039TIP3    H224609   1.440   0.716   1.770 -0.2369 -3.0325  0.8532
 1040TIP3   OH224610   5.945   1.188  10.576 -0.2352  0.0529 -0.0449
 1040TIP3    H124611   5.861   1.152  10.603  0.4562 -0.9521  0.7953
 1040TIP3    H224612   5.933   1.283  10.582 -0.3948 -0.1308  2.9391
 1041TIP3   OH224613   1.084   2.214  14.577  0.1303  0.3992 -0.1927
 1041TIP3    H124614   1.119   2.230  14.489 -0.4674 -1.6965 -0.8398
 1041TIP3    H224615   1.141   2.145  14.613 -0.2465  0.5290  0.6634
 1042TIP3   OH224616   6.010   0.771  16.914 -0.3425 -0.1522  0.3094
 1042TIP3    H124617   6.044   0.718  16.986 -1.0124 -0.2788  0.5341
 1042TIP3    H224618   5.917   0.781  16.933 -0.5022 -0.0941 -0.4777
 1043TIP3   OH224619   1.079   3.822  12.533 -0.1780 -0.0560 -0.8180
 1043TIP3    H124620   1.088   3.779  12.618  0.1113 -2.1219 -1.8882
 1043TIP3    H224621   0.989   3.802  12.506  1.1658 -3.3277 -3.0943
 1044TIP3   OH224622   3.499   4.629   0.735 -0.6709  0.3780  0.4129
 1044TIP3    H124623   3.520   4.664   0.649 -1.0841 -0.5267 -0.0664
 1044TIP3    H224624   3.566   4.665   0.793  0.1213  0.3061 -0.4416
 1045TIP3   OH224625   0.092   3.583  13.961  0.1493  0.0410 -0.7210
 1045TIP3    H124626   0.184   3.609  13.952  0.1872 -0.1683 -0.9412
 1045TIP3    H224627   0.071   3.601  14.053  1.3462 -2.9215  0.1924
 1046TIP3   OH224628   1.717   2.830   1.605  0.3895  0.4622 -0.4122
 1046TIP3    H124629   1.734   2.771   1.532  2.7285  1.7423 -0.9545
 1046TIP3    H224630   1.680   2.909   1.565 -1.7653 -0.2153  0.1987
 1047TIP3   OH224631   4.010   3.281  16.172  1.1698 -0.0511 -0.1982
 1047TIP3    H124632   3.943   3.238  16.225  1.5075 -0.3304 -0.0001
 1047TIP3    H224633   3.971   3.365  16.148  0.3689 -0.6225 -0.8998
 1048TIP3   OH224634   2.671   1.023  14.743  0.2726 -0.2992 -0.1260
 1048TIP3    H124635   2.708   1.081  14.676  2.1735 -1.1051  0.2178
 1048TIP3    H224636   2.604   0.973  14.696 -0.8957  1.6310 -0.5920
 1049TIP3   OH224637   2.358   5.092  14.426  0.4475  0.0497  0.5273
 1049TIP3    H124638   2.319   5.007  14.408  0.8439  0.0176 -0.1872
 1049TIP3    H224639   2.297   5.134  14.486 -0.5076 -0.1529 -0.2862
 1050TIP3   OH224640   6.132   1.704  14.959  0.0811  0.2524  0.3107
 1050TIP3    H124641   6.153   1.622  15.003 -0.4174  1.2089  2.3798
 1050TIP3    H224642   6.047   1.688  14.918 -0.8195  0.2476  2.1278
 1051TIP3   OH224643   1.546   0.546   5.241 -0.1953 -0.4713  0.0729
 1051TIP3    H124644   1.467   0.600   5.234 -0.6792 -1.2450 -0.5783
 1051TIP3    H224645   1.531   0.475   5.178  1.4495 -0.0880 -0.7672
 1052TIP3   OH224646   0.441   5.266  16.032  0.1529 -0.1888  0.8456
 1052TIP3    H124647   0.512   5.319  16.069 -0.0175 -0.9942  2.3427
 1052TIP3    H224648   0.484   5.185  16.005  0.2091  0.2454 -0.4291
 1053TIP3   OH224649   4.108   4.989  12.682 -0.0309  0.5231  0.2221
 1053TIP3    H124650   4.138   4.898  12.681 -0.1488  0.4846  0.1550
 1053TIP3    H224651   4.177   5.037  12.727  0.5371  0.5810 -0.6996
 1054TIP3   OH224652   1.617   6.440  14.029  0.3268  0.1679 -0.5588
 1054TIP3    H124653   1.588   6.526  14.059  0.7433  0.4489 -0.9493
 1054TIP3    H224654   1.594   6.381  14.100  0.1706  0.6279 -0.2237
 1055TIP3   OH224655   3.025   1.120  12.222  0.1226  0.6730 -0.4872
 1055TIP3    H124656   3.019   1.197  12.165  0.8253  2.5727  1.9372
 1055TIP3    H224657   2.963   1.138  12.293  0.0995 -1.1366 -0.0265
 1056TIP3   OH224658   2.020   2.613   4.459 -0.5991  0.4092 -0.3258
 1056TIP3    H124659   2.064   2.570   4.385 -1.6458 -0.9806 -0.1626
 1056TIP3    H224660   2.009   2.544   4.524 -2.8736  0.7433 -0.3072
 1057TIP3   OH224661   0.483   2.038  17.080  0.0582 -0.4789  0.0731
 1057TIP3    H124662   0.556   2.072  17.029  0.7468 -0.4708  1.0355
 1057TIP3    H224663   0.525   1.991  17.153 -0.8914 -1.3443  0.0724
 1058TIP3   OH224664   4.262   6.333  11.429  0.0317 -0.1855  0.2308
 1058TIP3    H124665   4.168   6.347  11.436  0.2365  2.2660 -1.3000
 1058TIP3    H224666   4.300   6.401  11.485  0.8885 -0.4657 -0.0069
 1059TIP3   OH224667   0.921   1.820  15.820  0.0466 -0.1665  0.3054
 1059TIP3    H124668   0.871   1.807  15.900  2.6018  0.5846  2.0878
 1059TIP3    H224669   0.960   1.734  15.802  1.3242  0.2242  1.1755
 1060TIP3   OH224670   0.626   2.099  14.564  0.3558  0.4642 -0.0640
 1060TIP3    H124671   0.595   2.012  14.588  1.2432 -0.0040 -0.5705
 1060TIP3    H224672   0.554   2.138  14.516  0.1658 -0.2178 -0.3409
 1061TIP3   OH224673   3.961   5.978  13.265  0.3714 -0.0343 -0.2467
 1061TIP3    H124674   3.889   5.940  13.214 -0.3061  0.4446  0.3534
 1061TIP3    H224675   3.993   5.905  13.319 -0.5191  0.1009  0.4508
 1062TIP3   OH224676   6.308   6.327  15.756 -0.7386 -1.0051 -0.6860
 1062TIP3    H124677   6.398   6.297  15.740  0.0401  1.1541 -0.4046
 1062TIP3    H224678   6.259   6.296  15.679  0.8009  0.1082 -2.1513
 1063TIP3   OH224679   2.601   1.741  14.079  0.2588 -0.4155 -0.3071
 1063TIP3    H124680   2.654   1.730  13.999 -0.2626  0.3624 -0.7671
 1063TIP3    H224681   2.665   1.748  14.149  0.7544  0.1594 -0.8177
 1064TIP3   OH224682   0.828   0.994   3.775 -0.4895 -0.2342  0.1131
 1064TIP3    H124683   0.843   1.046   3.854 -3.2839  1.0349 -0.1130
 1064TIP3    H224684   0.758   0.933   3.800  0.9250 -2.1428 -0.4336
 1065TIP3   OH224685   3.361   6.608  17.109  0.0353 -0.3651 -0.1237
 1065TIP3    H124686   3.421   6.634  17.039 -0.1273  0.0419 -0.1126
 1065TIP3    H224687   3.334   6.519  17.086 -0.8063  0.1322 -1.1226
 1066TIP3   OH224688   5.302   5.739   4.175 -0.2272  0.4577 -0.0079
 1066TIP3    H124689   5.277   5.802   4.243 -1.3658 -0.7779  0.7556
 1066TIP3    H224690   5.391   5.713   4.199 -0.6458 -0.0193  1.0553
 1067TIP3   OH224691   1.186   4.683   4.438 -0.2584 -0.1249  0.0329
 1067TIP3    H124692   1.124   4.662   4.508  1.3890  0.7878  1.7913
 1067TIP3    H224693   1.130   4.710   4.365 -2.1372 -3.5757  0.0666
 1068TIP3   OH224694   1.447   2.485   0.349  0.4120  0.3157 -0.2494
 1068TIP3    H124695   1.509   2.413   0.338  0.7281  0.4809  0.4584
 1068TIP3    H224696   1.393   2.482   0.270  1.5297  0.3918 -1.0235
 1069TIP3   OH224697   3.502   5.793  12.380 -0.0486 -0.3628 -0.2285
 1069TIP3    H124698   3.457   5.762  12.301 -0.0432 -1.2940  0.1307
 1069TIP3    H224699   3.521   5.714  12.430  1.5288  0.0655 -0.1164
 1070TIP3   OH224700   2.610   1.202   4.179  0.4862  0.4692  0.3647
 1070TIP3    H124701   2.541   1.143   4.149 -0.2959  0.4327  2.1411
 1070TIP3    H224702   2.682   1.145   4.203  0.4243  0.3569  0.2811
 1071TIP3   OH224703   4.428   5.140  16.002  0.6348  0.2594  0.0920
 1071TIP3    H124704   4.465   5.079  16.066 -1.6335 -1.3157 -0.0160
 1071TIP3    H224705   4.391   5.211  16.054  0.5981 -0.0002  0.4230
 1072TIP3   OH224706   1.384   4.568   1.313  0.2198 -0.1150 -0.0542
 1072TIP3    H124707   1.397   4.544   1.222 -1.2164  2.2307 -0.9290
 1072TIP3    H224708   1.356   4.487   1.356 -0.1980 -0.9895 -1.9291
 1073TIP3   OH224709   0.824   3.588  11.872 -0.9718  0.3729 -0.5851
 1073TIP3    H124710   0.766   3.588  11.796 -0.3048 -1.8898 -1.1417
 1073TIP3    H224711   0.902   3.636  11.843 -0.3218 -1.3052 -1.6791
 1074TIP3   OH224712   3.655   1.224  16.353 -0.3056  0.0984  0.5428
 1074TIP3    H124713   3.684   1.229  16.261  1.6969 -0.5267  1.1094
 1074TIP3    H224714   3.700   1.297  16.396  0.9090 -1.2439  1.5710
 1075TIP3   OH224715   1.523   4.723  16.893 -0.0386  0.0626 -0.2058
 1075TIP3    H124716   1.577   4.688  16.823  0.9456  2.9844 -0.9539
 1075TIP3    H224717   1.570   4.800  16.924 -1.7834  0.3422  1.8726
 1076TIP3   OH224718   2.318   4.767   4.057  0.7750 -0.1190 -0.3347
 1076TIP3    H124719   2.243   4.803   4.009  1.0164  0.0011 -0.6195
 1076TIP3    H224720   2.385   4.835   4.052  0.1371  0.7321  1.8414
 1077TIP3   OH224721   0.780   2.805   5.416 -0.1257 -0.1003  0.1187
 1077TIP3    H124722   0.806   2.814   5.324  1.7709 -0.6896  0.5571
 1077TIP3    H224723   0.727   2.882   5.434  0.9738  0.9510 -1.0001
 1078TIP3   OH224724   1.790   5.051  13.507  0.2139  0.0825  0.0245
 1078TIP3    H124725   1.885   5.067  13.503  0.7031 -2.3779  1.3943
 1078TIP3    H224726   1.772   4.997  13.430  0.1551 -0.6569  0.5629
 1079TIP3   OH224727   6.394   5.083   4.216  0.1196 -0.1792 -0.4426
 1079TIP3    H124728   6.487   5.061   4.226  0.2546  0.2581 -0.7131
 1079TIP3    H224729   6.376   5.069   4.123  0.1536  0.6488 -0.5712
 1080TIP3   OH224730   0.773   5.009   2.227 -0.3752  0.3208  0.2884
 1080TIP3    H124731   0.762   5.093   2.271  1.8212  0.6236  0.3173
 1080TIP3    H224732   0.696   4.958   2.253 -0.1771  1.2146  2.7663
 1081TIP3   OH224733   5.903   3.096   3.246 -0.2651  0.0940  0.2307
 1081TIP3    H124734   5.944   3.153   3.312 -1.3605  0.3242  0.7188
 1081TIP3    H224735   5.924   3.138   3.162 -2.9543  2.5241  0.6821
 1082TIP3   OH224736   1.699   3.542   0.182  0.2727  0.3851 -0.3277
 1082TIP3    H124737   1.730   3.495   0.104  0.5997 -1.7126  1.0187
 1082TIP3    H224738   1.779   3.559   0.232 -0.2633 -1.1205  1.0597
 1083TIP3   OH224739   4.717   2.660   0.421  0.7137 -0.0629 -0.0204
 1083TIP3    H124740   4.637   2.624   0.460  1.6931 -3.1698 -0.7222
 1083TIP3    H224741   4.739   2.736   0.475 -1.9461  0.0203  1.0051
 1084TIP3   OH224742   0.775   3.141   2.803 -0.0164 -0.2459 -0.1521
 1084TIP3    H124743   0.702   3.179   2.754  0.2095 -0.8580 -0.9810
 1084TIP3    H224744   0.784   3.053   2.768  2.1741  0.3773 -1.2725
 1085TIP3   OH224745   0.245   5.140  13.935 -0.4996  0.3381  0.6782
 1085TIP3    H124746   0.321   5.112  13.987  1.0274 -0.2141 -1.7582
 1085TIP3    H224747   0.280   5.206  13.875 -1.7535 -0.4826 -1.0070
 1086TIP3   OH224748   2.878   6.216  11.829  0.1323 -0.8341 -0.7622
 1086TIP3    H124749   2.805   6.175  11.877  1.3615 -2.9690 -0.6336
 1086TIP3    H224750   2.949   6.222  11.892 -0.2148  2.2108 -0.6015
 1087TIP3   OH224751   1.176   1.990  16.539 -0.2928  0.5333  0.2479
 1087TIP3    H124752   1.260   2.001  16.584  0.3179  1.8885 -1.1789
 1087TIP3    H224753   1.139   2.078  16.537 -1.0586  0.1976 -0.4577
 1088TIP3   OH224754   1.489   4.502   1.075 -0.2061 -0.8764 -0.4658
 1088TIP3    H124755   1.576   4.462   1.078 -0.4826 -1.3888  0.8305
 1088TIP3    H224756   1.451   4.470   0.993  0.9540 -0.3515 -1.2302
 1089TIP3   OH224757   0.793   3.692  15.064  0.5950  0.2978 -0.2215
 1089TIP3    H124758   0.772   3.785  15.061 -1.6270 -0.1914 -0.5072
 1089TIP3    H224759   0.883   3.686  15.031  0.9354  2.3810  0.2820
 1090TIP3   OH224760   6.668   3.974  11.545 -0.5498  0.5336 -0.3066
 1090TIP3    H124761   6.718   4.028  11.484 -2.6914  2.4142 -0.4699
 1090TIP3    H224762   6.577   3.994  11.525 -1.4172 -3.1088 -0.2857
 1091TIP3   OH224763   4.507   1.722  14.882  0.5838  0.1969  0.3192
 1091TIP3    H124764   4.595   1.725  14.919  0.3360  0.9340  0.8514
 1091TIP3    H224765   4.513   1.777  14.804  0.7641 -0.2945 -0.0169
 1092TIP3   OH224766   2.308   1.986   5.502  0.0433  0.4531 -0.1315
 1092TIP3    H124767   2.238   2.025   5.449  0.7287  0.3428 -1.1229
 1092TIP3    H224768   2.356   1.930   5.442 -1.1145 -2.2150  1.3649
 1093TIP3   OH224769   0.410   3.383  11.784  0.9407  0.3235  0.2697
 1093TIP3    H124770   0.453   3.343  11.708  0.4007 -0.9473  0.6368
 1093TIP3    H224771   0.434   3.327  11.857 -0.0888  0.4953  0.7372
 1094TIP3   OH224772   6.476   0.029  15.621  0.1772  0.3187  0.4183
 1094TIP3    H124773   6.503  -0.061  15.639 -1.3291 -0.6821 -2.1227
 1094TIP3    H224774   6.385   0.032  15.649 -0.0162  0.8179 -0.2569
 1095TIP3   OH224775   3.922   1.896  15.415 -0.1481  0.4544 -0.0210
 1095TIP3    H124776   4.011   1.917  15.442 -1.0033  2.6292  1.3011
 1095TIP3    H224777   3.887   1.843  15.486  0.7689 -2.3080 -1.5737
 1096TIP3   OH224778   0.301   5.643   3.531 -0.4527 -0.0185  0.7003
 1096TIP3    H124779   0.297   5.730   3.490  0.2619 -0.9034 -1.3121
 1096TIP3    H224780   0.377   5.648   3.589  1.3874 -0.1915 -1.6246
 1097TIP3   OH224781   4.200   0.648  11.689  0.0737 -0.8726  0.2144
 1097TIP3    H124782   4.258   0.582  11.728  0.4291 -0.5064  0.3131
 1097TIP3    H224783   4.258   0.721  11.667 -0.6655  0.4724  2.4765
 1098TIP3   OH224784   4.262   4.937  12.419  0.2389 -0.1494 -0.5901
 1098TIP3    H124785   4.233   4.948  12.329 -0.4408  1.3635 -0.2073
 1098TIP3    H224786   4.223   5.011  12.466  1.3986 -0.3638  0.7487
 1099TIP3   OH224787   6.425   2.226  12.970 -0.3160 -0.0503 -0.0495
 1099TIP3    H124788   6.367   2.236  13.046 -0.5548 -0.1858 -0.2143
 1099TIP3    H224789   6.389   2.284  12.904 -2.0674 -2.3931 -1.2199
 1100TIP3   OH224790   2.397   2.097  17.116 -0.3336 -0.4066 -0.5301
 1100TIP3    H124791   2.483   2.098  17.157 -1.0556 -0.7239  1.0401
 1100TIP3    H224792   2.337   2.076  17.188 -1.9006  1.5191 -1.2362
 1101TIP3   OH224793   5.317   1.957  16.699 -0.1676 -0.4257  0.3588
 1101TIP3    H124794   5.254   1.998  16.640  0.3979 -1.7258 -1.1645
 1101TIP3    H224795   5.273   1.880  16.733  0.4910 -1.1924 -0.5024
 1102TIP3   OH224796   2.488   4.813   1.047 -0.1824  0.6072 -0.4316
 1102TIP3    H124797   2.440   4.731   1.060  1.2718 -0.1894  0.0133
 1102TIP3    H224798   2.421   4.881   1.055 -1.2144 -0.4720  0.3305
 1103TIP3   OH224799   1.700   0.374  14.014 -0.2662  0.6768 -0.4087
 1103TIP3    H124800   1.722   0.391  13.923 -0.7015 -0.0036 -0.6490
 1103TIP3    H224801   1.719   0.456  14.060  1.4830  0.5135 -0.8295
 1104TIP3   OH224802   0.779   5.944  15.519 -0.6307  0.4259  0.4934
 1104TIP3    H124803   0.712   5.875  15.522 -0.3335  0.1497  0.8971
 1104TIP3    H224804   0.747   6.009  15.581  0.3714 -0.5474  2.0831
 1105TIP3   OH224805   5.912   3.430  15.410  0.0181 -0.1989 -0.1133
 1105TIP3    H124806   5.879   3.349  15.371 -1.3733  0.3092 -0.0141
 1105TIP3    H224807   5.943   3.405  15.497 -0.0136 -0.7029 -0.2480
 1106TIP3   OH224808   3.811   2.378   1.779 -0.0695  0.1640 -0.5130
 1106TIP3    H124809   3.784   2.355   1.868  0.5249 -0.5756 -0.5143
 1106TIP3    H224810   3.888   2.324   1.764  0.6261  1.2897 -0.9862
 1107TIP3   OH224811   1.864   4.082  14.639  0.3580  0.1727 -0.2300
 1107TIP3    H124812   1.867   4.045  14.727  2.8621 -1.1484 -0.8266
 1107TIP3    H224813   1.818   4.016  14.587 -0.8772  0.8312 -0.0021
 1108TIP3   OH224814   1.334   5.259  14.165 -0.6649  0.1837 -0.1768
 1108TIP3    H124815   1.355   5.193  14.098 -1.3397 -2.2008  1.8810
 1108TIP3    H224816   1.242   5.279  14.150 -0.4964  0.5782 -0.7166
 1109TIP3   OH224817   0.977   6.143   1.304  0.5761  0.3915 -0.4266
 1109TIP3    H124818   1.054   6.145   1.362  0.7891  2.4310 -0.7395
 1109TIP3    H224819   0.934   6.227   1.319 -0.6130  0.0062 -1.5859
 1110TIP3   OH224820   3.566   0.411  15.353  0.5467 -0.4031 -0.2310
 1110TIP3    H124821   3.503   0.341  15.372 -0.4214  0.6895  0.6441
 1110TIP3    H224822   3.633   0.401  15.420 -1.1425  1.3531  1.8010
 1111TIP3   OH224823   1.681   1.108  11.090 -0.7069  0.2950  0.0801
 1111TIP3    H124824   1.744   1.038  11.072 -0.3289  0.8382 -0.7002
 1111TIP3    H224825   1.622   1.106  11.014 -0.8922  0.6065  0.2180
 1112TIP3   OH224826   5.783   1.569   6.189 -0.6845 -0.1998  0.0445
 1112TIP3    H124827   5.689   1.587   6.195 -0.7611 -0.8902  0.9470
 1112TIP3    H224828   5.788   1.487   6.141 -0.4647  0.6176 -1.3636
 1113TIP3   OH224829   5.145   2.344  10.934  0.5080  0.7876  0.3640
 1113TIP3    H124830   5.155   2.388  10.849 -0.9061 -0.2428 -0.3587
 1113TIP3    H224831   5.082   2.399  10.982  0.9416  1.1091  0.5702
 1114TIP3   OH224832   2.607   1.837   1.711 -0.0057  0.5925  0.4876
 1114TIP3    H124833   2.514   1.814   1.717 -0.1855  0.7868 -1.3076
 1114TIP3    H224834   2.613   1.924   1.750 -0.7704  1.0715 -0.4731
 1115TIP3   OH224835   2.524   0.900  13.117  0.0986 -0.2635  0.2085
 1115TIP3    H124836   2.431   0.918  13.135  0.1018 -0.6534  0.6392
 1115TIP3    H224837   2.533   0.909  13.023 -0.4617 -0.5981  0.1196
 1116TIP3   OH224838   4.483   5.248   5.194  0.7810 -0.5663 -0.0205
 1116TIP3    H124839   4.402   5.240   5.244  0.7690 -0.0142  0.0531
 1116TIP3    H224840   4.455   5.266   5.104  0.7905 -2.1620 -0.3547
 1117TIP3   OH224841   6.740   4.690   3.398 -0.2556 -0.4303 -0.0539
 1117TIP3    H124842   6.755   4.597   3.416 -0.1095 -0.7727 -1.8943
 1117TIP3    H224843   6.651   4.706   3.431  0.2288 -0.8699  1.5292
 1118TIP3   OH224844   3.050   4.313   1.230  0.0168 -0.3685 -0.0948
 1118TIP3    H124845   2.983   4.341   1.292  0.2001 -0.8917  0.3444
 1118TIP3    H224846   3.023   4.224   1.205  0.6014 -0.6160  0.1558
 1119TIP3   OH224847   6.097   3.513  11.677  0.3288 -0.2719  0.0830
 1119TIP3    H124848   6.052   3.568  11.613 -1.0520 -0.4234  0.8967
 1119TIP3    H224849   6.153   3.456  11.625 -0.2783  0.0597 -0.9494
 1120TIP3   OH224850   2.994   5.612   4.920  0.5038 -0.0071 -0.0515
 1120TIP3    H124851   2.978   5.669   4.995  1.4818  1.2111 -0.7433
 1120TIP3    H224852   2.950   5.655   4.847 -2.1332 -2.2122  0.1828
 1121TIP3   OH224853   6.312   4.383   5.530 -0.0977  0.3937 -0.7504
 1121TIP3    H124854   6.368   4.343   5.597 -2.0610  0.7623  1.1694
 1121TIP3    H224855   6.303   4.316   5.463 -0.0566 -0.9053  0.5150
 1122TIP3   OH224856   2.215   4.220   2.245  0.2667 -0.0616  0.1337
 1122TIP3    H124857   2.219   4.176   2.330  0.3878 -0.6329 -0.1605
 1122TIP3    H224858   2.225   4.313   2.265 -1.0361 -0.0662  0.8758
 1123TIP3   OH224859   2.544   5.337   4.630 -0.3556  0.1600  0.1267
 1123TIP3    H124860   2.615   5.400   4.634  2.1957 -2.6085  0.6521
 1123TIP3    H224861   2.499   5.346   4.715 -0.7878  2.0742 -0.2958
 1124TIP3   OH224862   3.705   4.213   0.057 -0.3308  0.5564  0.0805
 1124TIP3    H124863   3.630   4.166   0.094  1.0161 -1.3388  0.5299
 1124TIP3    H224864   3.698   4.199  -0.037  0.2112 -0.8732  0.2283
 1125TIP3   OH224865   3.564   3.965   3.877 -0.2844  0.5385  0.3505
 1125TIP3    H124866   3.514   3.903   3.930  0.8368 -0.2481  0.5205
 1125TIP3    H224867   3.517   3.969   3.794 -0.6758 -0.1331  0.5327
 1126TIP3   OH224868   0.327   2.513  14.035  0.0907  0.3341 -0.0924
 1126TIP3    H124869   0.320   2.506  13.940 -1.7324  0.0846  0.0433
 1126TIP3    H224870   0.239   2.538  14.064  0.9532  1.7113  1.4198
 1127TIP3   OH224871   1.949   2.248  11.186  0.0079 -0.2054  0.0635
 1127TIP3    H124872   2.041   2.272  11.177 -0.1721 -0.0181 -1.4359
 1127TIP3    H224873   1.931   2.192  11.110 -0.9516 -0.7354  0.6751
 1128TIP3   OH224874   4.074   0.097  14.301 -0.2253 -0.5416  0.7606
 1128TIP3    H124875   4.008   0.115  14.368  0.8916 -0.2835  1.8131
 1128TIP3    H224876   4.151   0.146  14.330 -0.2339  0.9617 -1.5994
 1129TIP3   OH224877   5.844   4.216   1.719 -0.6818 -0.1632  0.3639
 1129TIP3    H124878   5.905   4.144   1.702  0.1726  0.6594 -0.1370
 1129TIP3    H224879   5.802   4.232   1.634 -1.0897 -0.2747  0.5460
 1130TIP3   OH224880   5.611   6.021   3.370 -0.3531 -0.4331 -0.2480
 1130TIP3    H124881   5.660   6.101   3.386 -1.8845  0.4125  0.2764
 1130TIP3    H224882   5.520   6.044   3.389 -0.8927 -2.1135 -0.7127
 1131TIP3   OH224883   5.204   3.816   3.268 -0.0489 -0.2439  0.1894
 1131TIP3    H124884   5.293   3.827   3.301  0.2917  1.7578 -1.3049
 1131TIP3    H224885   5.151   3.877   3.320 -0.3964 -0.7285  0.4148
 1132TIP3   OH224886   5.852   0.176  12.490  0.0581  0.1990 -0.3067
 1132TIP3    H124887   5.905   0.158  12.413 -0.0654  0.5777 -0.4833
 1132TIP3    H224888   5.847   0.093  12.537  0.7013  0.1351 -0.3547
 1133TIP3   OH224889   0.729   6.329   2.539  0.3756 -0.4609  0.3830
 1133TIP3    H124890   0.803   6.326   2.601 -0.8998 -1.6255  1.8847
 1133TIP3    H224891   0.716   6.238   2.513 -1.0930 -0.3927  0.8281
 1134TIP3   OH224892   3.940   6.621   0.184  0.8392  0.0144 -0.0353
 1134TIP3    H124893   3.915   6.546   0.238  0.3920 -0.4182 -0.8383
 1134TIP3    H224894   3.997   6.673   0.241  0.8066 -0.7113  0.6735
 1135TIP3   OH224895   0.256   5.841  12.541 -0.1743 -0.1146 -0.5039
 1135TIP3    H124896   0.217   5.909  12.486 -2.0929  2.3251  3.6097
 1135TIP3    H224897   0.190   5.773  12.546 -0.2551 -0.0541 -0.7533
 1136TIP3   OH224898   5.781   4.130  13.155  0.5154 -1.4363 -0.4616
 1136TIP3    H124899   5.868   4.118  13.116  0.6816 -1.8340  0.0369
 1136TIP3    H224900   5.724   4.075  13.101  0.5755 -1.2135 -0.7588
 1137TIP3   OH224901   2.565   4.673   5.770  0.2888 -0.1149  0.0255
 1137TIP3    H124902   2.529   4.689   5.857  0.5302 -1.1173  0.3201
 1137TIP3    H224903   2.504   4.716   5.710 -1.0228 -1.2147  0.5599
 1138TIP3   OH224904   0.522   5.692  15.218 -0.2473 -1.0985 -0.3148
 1138TIP3    H124905   0.495   5.781  15.192 -1.4943 -2.1207 -2.7002
 1138TIP3    H224906   0.440   5.642  15.222  0.5362 -2.3743  0.0761
 1139TIP3   OH224907   2.887   2.020   0.855  0.3675  0.1845 -0.2330
 1139TIP3    H124908   2.862   1.930   0.836  1.2713 -0.0524 -0.3403
 1139TIP3    H224909   2.841   2.042   0.936  0.4953 -0.5237  0.0294
 1140TIP3   OH224910   2.785   2.912  14.060  0.3280 -0.1917  0.5451
 1140TIP3    H124911   2.788   2.945  13.970  1.9976  0.6532  0.9010
 1140TIP3    H224912   2.837   2.974  14.111 -0.8581 -0.4887  2.1678
 1141TIP3   OH224913   6.383   2.078  15.120  0.7539  0.0713 -0.4547
 1141TIP3    H124914   6.394   2.166  15.155  1.1264 -0.4385  0.7064
 1141TIP3    H224915   6.464   2.032  15.141 -0.0794 -1.0392  0.3982
 1142TIP3   OH224916   5.950   3.397   4.660  0.0295 -0.0965 -0.2532
 1142TIP3    H124917   5.899   3.331   4.707 -1.1508  1.0353  0.1001
 1142TIP3    H224918   6.041   3.379   4.683 -0.2380 -1.7667 -0.3906
 1143TIP3   OH224919   0.860   0.293  14.738 -0.2142  0.3836 -0.1496
 1143TIP3    H124920   0.931   0.353  14.714  0.8783 -1.0701 -0.6460
 1143TIP3    H224921   0.893   0.247  14.815 -0.6835 -0.2045 -0.3007
 1144TIP3   OH224922   2.808   6.762   4.389 -0.3355  0.0325  0.1771
 1144TIP3    H124923   2.747   6.701   4.429  1.1816 -2.4168 -1.0882
 1144TIP3    H224924   2.887   6.756   4.442 -0.2558  1.1421  0.2086
 1145TIP3   OH224925   5.836   2.490  10.982  0.2710 -0.1076 -0.2281
 1145TIP3    H124926   5.860   2.579  11.007 -1.1951 -0.4515  2.5664
 1145TIP3    H224927   5.918   2.440  10.988  0.7011  0.6433  0.1666
 1146TIP3   OH224928   5.534   4.889  10.711 -0.7953 -0.2274 -0.5848
 1146TIP3    H124929   5.463   4.851  10.659 -0.1375 -0.8100 -1.0648
 1146TIP3    H224930   5.607   4.896  10.649  0.3680 -1.9990  0.5530
 1147TIP3   OH224931   3.624   5.082  11.627 -1.0837  0.3061  0.4212
 1147TIP3    H124932   3.705   5.073  11.678 -0.6735  1.6259  0.0110
 1147TIP3    H224933   3.652   5.123  11.545 -1.7361 -1.7652 -0.8840
 1148TIP3   OH224934   1.784   0.018   0.705  0.2472  0.0917 -0.0926
 1148TIP3    H124935   1.727  -0.003   0.631  0.2141  1.2704 -0.4012
 1148TIP3    H224936   1.728   0.067   0.765  0.3233 -0.7027  0.6445
 1149TIP3   OH224937   4.433   3.732  11.722  0.1511  0.3098 -0.3814
 1149TIP3    H124938   4.452   3.647  11.763  0.1222  0.1263 -0.7511
 1149TIP3    H224939   4.468   3.796  11.784  0.6575  0.0130 -0.3592
 1150TIP3   OH224940   0.963   3.586  16.734 -0.5761  0.1684  0.4009
 1150TIP3    H124941   1.015   3.596  16.654  1.5749  0.2841  1.7837
 1150TIP3    H224942   0.916   3.669  16.742  1.0989  1.1242  0.5735
 1151TIP3   OH224943   6.452   2.537  12.112 -0.0502  0.1251  0.0722
 1151TIP3    H124944   6.515   2.609  12.104 -0.3230  0.3033 -0.4921
 1151TIP3    H224945   6.505   2.458  12.101  0.2312  0.2462  0.5811
 1152TIP3   OH224946   2.048   0.228  11.463 -0.3380 -0.2234  0.6512
 1152TIP3    H124947   2.005   0.142  11.468  0.4797 -0.5966  1.2216
 1152TIP3    H224948   2.036   0.266  11.550  0.5709 -0.3744  0.8505
 1153TIP3   OH224949   1.965   3.292   0.600  0.1475  0.1814 -0.2861
 1153TIP3    H124950   2.002   3.287   0.512  0.8363 -0.3840  0.0324
 1153TIP3    H224951   1.949   3.201   0.624 -2.6826  0.4685 -0.9333
 1154TIP3   OH224952   1.524   5.151   5.722  0.4834 -0.5494 -0.3621
 1154TIP3    H124953   1.519   5.156   5.817  2.2213  1.2826 -0.3355
 1154TIP3    H224954   1.441   5.110   5.695 -0.5535  0.0595  1.8296
 1155TIP3   OH224955   2.182   1.042   2.816 -0.4576  0.2059 -0.0414
 1155TIP3    H124956   2.201   1.086   2.733  2.5050  2.1659  1.5862
 1155TIP3    H224957   2.159   1.113   2.876  0.1714 -0.9067  1.5411
 1156TIP3   OH224958   1.948   6.800  11.500 -0.1193  0.1370  0.1491
 1156TIP3    H124959   1.910   6.714  11.483 -1.8006  0.6640  1.1458
 1156TIP3    H224960   1.946   6.809  11.595  2.7066  0.1141  0.2569
 1157TIP3   OH224961   5.888   2.931   1.734  0.2349  0.5200 -0.1543
 1157TIP3    H124962   5.808   2.980   1.754  1.4794  2.3525  0.5094
 1157TIP3    H224963   5.959   2.995   1.746  1.9076 -1.4150  0.6007
 1158TIP3   OH224964   3.181   1.647  12.434 -0.1110 -0.6202 -0.3237
 1158TIP3    H124965   3.100   1.696  12.450  0.6243  0.6313 -0.3231
 1158TIP3    H224966   3.250   1.707  12.462  0.8070 -1.7542 -0.1575
 1159TIP3   OH224967   6.539   6.608   1.988  0.6440  0.2230 -0.2194
 1159TIP3    H124968   6.517   6.551   1.914 -0.3368  1.3637 -0.8215
 1159TIP3    H224969   6.517   6.555   2.065 -0.7099 -0.0628 -0.7740
 1160TIP3   OH224970   6.030   4.641   5.491  0.3202 -0.8915  0.1850
 1160TIP3    H124971   6.040   4.689   5.573  2.3599  0.1720 -0.6593
 1160TIP3    H224972   5.948   4.593   5.502 -1.6370  2.4839  1.2071
 1161TIP3   OH224973   4.316   1.810  14.013  0.3362 -0.2722 -0.3565
 1161TIP3    H124974   4.336   1.851  14.096  0.9355  1.5944 -1.4056
 1161TIP3    H224975   4.368   1.730  14.012  1.2655  0.3178  0.5281
 1162TIP3   OH224976   5.649   5.165   3.313 -0.2414 -0.2048 -0.1256
 1162TIP3    H124977   5.585   5.225   3.351 -1.4784 -0.0378 -2.3659
 1162TIP3    H224978   5.604   5.080   3.309  0.2402 -0.4566 -0.2244
 1163TIP3   OH224979   4.598   6.527   5.361  0.0841  0.8282  0.5732
 1163TIP3    H124980   4.680   6.521   5.311  0.5150 -0.5019  1.4203
 1163TIP3    H224981   4.548   6.595   5.316  0.5442 -0.2135 -1.5705
 1164TIP3   OH224982   3.351   1.378  17.018  0.0154  0.0645  0.0774
 1164TIP3    H124983   3.290   1.451  17.028 -0.7929 -0.4948 -0.7258
 1164TIP3    H224984   3.437   1.415  17.038 -0.4614  1.0971  0.2137
 1165TIP3   OH224985   2.755   3.928  16.455  0.2612  0.2840 -0.9131
 1165TIP3    H124986   2.733   3.971  16.537 -0.6174  2.6488 -2.3366
 1165TIP3    H224987   2.848   3.948  16.441  0.5022 -0.4235 -0.3211
 1166TIP3   OH224988   1.905   3.425  15.214  0.1121 -0.3083 -0.4749
 1166TIP3    H124989   1.988   3.385  15.190  0.9266  0.1112  1.5942
 1166TIP3    H224990   1.856   3.355  15.258  0.2736  0.0784  0.3222
 1167TIP3   OH224991   5.285   3.238   2.544  0.1266 -0.0162 -0.0400
 1167TIP3    H124992   5.202   3.219   2.499 -1.3132 -2.8229  3.4734
 1167TIP3    H224993   5.327   3.152   2.552  2.0371  0.9743  0.7180
 1168TIP3   OH224994   5.884   5.835  11.961  0.2422 -0.5637 -0.9920
 1168TIP3    H124995   5.812   5.880  11.916  0.0212  0.9178  0.7512
 1168TIP3    H224996   5.842   5.758  12.002  0.0336 -0.7676 -1.5902
 1169TIP3   OH224997   5.679   3.867  16.309 -0.3801 -0.5364  0.0502
 1169TIP3    H124998   5.673   3.824  16.394 -0.8857  0.5497  0.5780
 1169TIP3    H224999   5.603   3.835  16.261 -0.6009 -0.4684  0.3462
 1170TIP3   OH225000   1.849   2.980  14.046 -0.3517  0.8226 -0.0946
 1170TIP3    H125001   1.767   2.949  14.008 -1.5138  0.7706  2.3288
 1170TIP3    H225002   1.873   3.056  13.993  0.2969 -1.5982 -3.4484
 1171TIP3   OH225003   0.671   2.540   1.968  0.3012  0.0479 -0.0771
 1171TIP3    H125004   0.610   2.487   2.020 -1.5259  0.9717 -1.2188
 1171TIP3    H225005   0.659   2.509   1.878 -0.3962  1.9890 -0.6829
 1172TIP3   OH225006   2.722   1.191   5.032  0.2743 -0.0518  0.3562
 1172TIP3    H125007   2.735   1.098   5.013 -0.6909 -0.1120 -0.0591
 1172TIP3    H225008   2.698   1.193   5.124 -0.8250 -0.3355  0.0885
 1173TIP3   OH225009   2.314   1.119   5.717 -0.0236  0.3725 -0.5388
 1173TIP3    H125010   2.278   1.156   5.797 -0.1270  1.5566 -1.1244
 1173TIP3    H225011   2.240   1.075   5.675 -0.3044  0.9997 -0.7040
 1174TIP3   OH225012   0.106   4.365   3.985  0.1908 -0.1297 -0.5129
 1174TIP3    H125013   0.131   4.456   3.969 -0.2155  0.0230 -0.2816
 1174TIP3    H225014   0.064   4.367   4.071  0.9994 -0.6860 -0.1030
 1175TIP3   OH225015   0.727   0.083   0.979 -0.4133  0.1599 -0.7285
 1175TIP3    H125016   0.689   0.060   1.064  0.6316 -0.4151 -0.4183
 1175TIP3    H225017   0.764   0.001   0.947  2.3893  1.1382 -0.1129
 1176TIP3   OH225018   5.632   2.722   2.115 -0.2038 -0.0271 -0.3197
 1176TIP3    H125019   5.627   2.631   2.088 -0.9429 -0.1246  0.1467
 1176TIP3    H225020   5.725   2.744   2.109 -0.0550 -0.7475 -0.6255
 1177TIP3   OH225021   2.762   0.269  14.956  0.3688  0.8677 -0.5692
 1177TIP3    H125022   2.779   0.213  15.031  1.2030  0.5817 -0.9649
 1177TIP3    H225023   2.726   0.349  14.993 -0.4131  0.2525  0.0359
 1178TIP3   OH225024   2.236   1.777  15.959 -0.1144  0.0480  0.2650
 1178TIP3    H125025   2.187   1.767  15.878  1.8813 -0.8713 -0.8603
 1178TIP3    H225026   2.184   1.839  16.011 -2.1092 -0.4171 -1.1290
 1179TIP3   OH225027   3.887   6.351  12.409  0.3356 -0.3039 -0.1124
 1179TIP3    H125028   3.936   6.426  12.375 -2.5627  1.2218 -1.0533
 1179TIP3    H225029   3.837   6.386  12.483 -1.9458 -0.9966 -1.2915
 1180TIP3   OH225030   0.632   3.628   1.050  0.4317  0.0700  0.5522
 1180TIP3    H125031   0.635   3.677   0.968 -0.5136  1.6020  1.4331
 1180TIP3    H225032   0.603   3.691   1.115  0.3384 -1.3604  1.9160
 1181TIP3   OH225033   2.730   2.173   0.658  0.7488  0.4071 -0.2204
 1181TIP3    H125034   2.801   2.138   0.712  0.4031 -2.3380 -1.4081
 1181TIP3    H225035   2.653   2.170   0.714  1.0557  0.8550  0.2251
 1182TIP3   OH225036   5.316   2.743   2.441  0.4557  0.2364  0.4871
 1182TIP3    H125037   5.254   2.810   2.412 -0.5272  0.3903  2.8640
 1182TIP3    H225038   5.395   2.761   2.390 -0.3448  2.1644 -0.1268
 1183TIP3   OH225039   6.037   6.053  14.597  0.0103  0.0672  0.0439
 1183TIP3    H125040   6.079   5.970  14.622 -0.1023 -0.0521 -0.1601
 1183TIP3    H225041   5.955   6.027  14.554 -0.1700  0.2944  0.2513
 1184TIP3   OH225042   5.254   6.186   0.095  0.4910  0.0300 -0.3011
 1184TIP3    H125043   5.162   6.186   0.067  1.0905 -0.9462 -2.3590
 1184TIP3    H225044   5.250   6.171   0.189 -1.5499  2.1931  0.0154
 1185TIP3   OH225045   3.812   5.190   6.360  0.2696 -0.9332 -0.2883
 1185TIP3    H125046   3.773   5.229   6.282  1.4878 -1.3114 -1.1021
 1185TIP3    H225047   3.746   5.128   6.391 -0.4002 -0.4703 -0.7682
 1186TIP3   OH225048   1.124   6.191   1.518 -0.8662  0.2819  0.5443
 1186TIP3    H125049   1.170   6.215   1.598  0.1376 -0.8515  0.3257
 1186TIP3    H225050   1.156   6.253   1.452 -0.6797  0.3583  0.7082
 1187TIP3   OH225051   2.342   1.604   5.603  0.3571  0.9842 -0.3496
 1187TIP3    H125052   2.336   1.648   5.687 -0.5001 -0.9832  0.6564
 1187TIP3    H225053   2.258   1.623   5.560  1.0614  2.5448 -1.0553
 1188TIP3   OH225054   1.511   0.434   1.842  0.2587 -0.5519 -0.1412
 1188TIP3    H125055   1.568   0.449   1.917 -0.1633 -1.0854  0.2879
 1188TIP3    H225056   1.551   0.485   1.771  0.1501  0.6500  0.6687
 1189TIP3   OH225057   6.077   4.331   0.637  0.1003 -0.1864  0.5674
 1189TIP3    H125058   6.158   4.291   0.668 -0.0300 -1.2038 -0.3579
 1189TIP3    H225059   6.010   4.301   0.699  0.2930 -0.0103  0.8607
 1190TIP3   OH225060   2.852   2.948   6.298  0.4430 -0.1577  0.0110
 1190TIP3    H125061   2.867   3.016   6.364 -0.0702 -0.4975  0.4821
 1190TIP3    H225062   2.805   2.994   6.228 -0.9268 -0.2860  0.8395
 1191TIP3   OH225063   0.100   0.794   1.003  0.2391  0.6245 -0.2219
 1191TIP3    H125064   0.055   0.781   0.920  1.6588 -0.6953 -0.8022
 1191TIP3    H225065   0.171   0.730   1.003  1.1699  1.6067  1.3611
 1192TIP3   OH225066   1.316   3.406   3.314 -0.1665  0.0785  0.2797
 1192TIP3    H125067   1.241   3.409   3.255 -0.3474  1.1527  0.5491
 1192TIP3    H225068   1.294   3.468   3.383  0.5996 -0.2319  0.8011
 1193TIP3   OH225069   6.424   5.495  10.481  0.4880 -0.1234  0.0055
 1193TIP3    H125070   6.461   5.552  10.548 -3.2754  0.3856  1.8044
 1193TIP3    H225071   6.445   5.407  10.510  1.1823  0.1811  0.4293
 1194TIP3   OH225072   4.068   0.696   5.933 -0.0197 -0.1071 -0.0654
 1194TIP3    H125073   4.142   0.704   5.873 -0.0573  2.8911  0.2174
 1194TIP3    H225074   3.993   0.731   5.884 -0.3166  1.1293  1.2380
 1195TIP3   OH225075   6.806   6.354   3.703  0.9872  1.3829  0.1911
 1195TIP3    H125076   6.787   6.435   3.751  2.6899  1.3123  1.0568
 1195TIP3    H225077   6.902   6.355   3.694  1.0139 -0.5057  0.1620
 1196TIP3   OH225078   0.595   3.304   1.719 -0.1005 -0.1781 -0.3916
 1196TIP3    H125079   0.506   3.269   1.713  0.0610 -0.7278  0.2149
 1196TIP3    H225080   0.590   3.372   1.787 -0.3067  0.6262 -1.2080
 1197TIP3   OH225081   4.973   6.669  13.351 -0.2978 -0.2869  0.4009
 1197TIP3    H125082   5.057   6.693  13.313 -0.4908  0.2116  0.2864
 1197TIP3    H225083   4.950   6.743  13.407 -0.0508 -0.9782  1.4358
 1198TIP3   OH225084   1.645   6.441  12.041 -0.0577  0.6305 -0.0098
 1198TIP3    H125085   1.586   6.415  12.111  0.8714 -1.9616 -0.1140
 1198TIP3    H225086   1.717   6.485  12.085  1.9942 -3.5859  1.1151
 1199TIP3   OH225087   3.457   5.174  10.935  0.2070 -0.3276 -0.2843
 1199TIP3    H125088   3.460   5.270  10.941  0.0893 -0.4087  1.4048
 1199TIP3    H225089   3.371   5.155  10.897 -0.0354  0.2246 -0.0238
 1200TIP3   OH225090   2.611   3.111   0.252  0.6191 -0.3403  0.1667
 1200TIP3    H125091   2.628   3.119   0.158 -0.9497 -0.4526 -0.1433
 1200TIP3    H225092   2.517   3.090   0.258  0.4837  0.6120  1.7845
 1201TIP3   OH225093   2.014   1.608   4.562  0.1856  0.2062  0.0861
 1201TIP3    H125094   1.986   1.548   4.492  0.9152  0.4410 -0.4154
 1201TIP3    H225095   2.107   1.589   4.574  0.2359  0.6888  0.4790
 1202TIP3   OH225096   5.352   4.997  16.452 -0.5666  0.2250 -0.3588
 1202TIP3    H125097   5.347   5.092  16.445 -2.3222  0.2007  0.3657
 1202TIP3    H225098   5.446   4.978  16.451 -0.1863  1.9944  0.0074
 1203TIP3   OH225099   0.711   2.926   4.326 -0.1769  0.6256  0.4362
 1203TIP3    H125100   0.754   2.840   4.333  1.1759  1.2905  0.5637
 1203TIP3    H225101   0.708   2.959   4.416 -0.4410  0.8308  0.3519
 1204TIP3   OH225102   5.723   1.089   5.188 -0.0486  0.3437 -0.3112
 1204TIP3    H125103   5.656   1.119   5.127 -0.7571 -1.3362 -0.3722
 1204TIP3    H225104   5.788   1.159   5.188 -0.3078  0.6097 -2.5650
 1205TIP3   OH225105   1.436   4.224  13.822 -0.4379 -0.8129 -0.5815
 1205TIP3    H125106   1.363   4.171  13.857 -0.9554 -0.4164 -1.0540
 1205TIP3    H225107   1.394   4.301  13.785  0.1549 -0.9357 -1.5381
 1206TIP3   OH225108   1.417   5.927   4.712 -0.1306  0.0019 -0.2946
 1206TIP3    H125109   1.426   5.892   4.800  0.1303  0.7646 -0.0186
 1206TIP3    H225110   1.500   5.908   4.669 -1.0844 -2.4866 -1.1464
 1207TIP3   OH225111   6.388   3.239   6.830 -0.7025 -0.2579  0.2690
 1207TIP3    H125112   6.354   3.236   6.919 -1.7021  1.9572 -0.0079
 1207TIP3    H225113   6.460   3.301   6.834 -1.8487  1.1627 -0.8088
 1208TIP3   OH225114   6.231   0.096  17.099 -0.0594 -0.1264 -0.0381
 1208TIP3    H125115   6.221   0.001  17.097  0.7583 -0.2128 -3.5299
 1208TIP3    H225116   6.168   0.128  17.035 -1.1406  1.8286  1.9278
 1209TIP3   OH225117   4.654   5.849   3.028 -0.6464 -0.1539 -0.1630
 1209TIP3    H125118   4.572   5.878   2.987 -1.3287 -0.6522  0.8318
 1209TIP3    H225119   4.645   5.874   3.120  0.9605  1.1483 -0.3290
 1210TIP3   OH225120   5.424   6.585   5.803  0.1141  0.0284 -0.1790
 1210TIP3    H125121   5.334   6.584   5.771 -0.5569  0.9520  1.5814
 1210TIP3    H225122   5.460   6.668   5.772 -0.0199  0.1766  0.0542
 1211TIP3   OH225123   6.768   4.017   3.405 -0.6562 -0.2987  0.4739
 1211TIP3    H125124   6.724   3.982   3.482  0.1361 -1.4652  0.4120
 1211TIP3    H225125   6.752   3.952   3.336 -1.0085  0.5268 -0.2280
 1212TIP3   OH225126   5.115   4.188   2.390 -0.0056  0.1569 -0.0084
 1212TIP3    H125127   5.186   4.126   2.403  1.0479  0.9179 -1.8754
 1212TIP3    H225128   5.043   4.136   2.354  0.5395 -0.1388 -0.6679
 1213TIP3   OH225129   4.157   4.077  11.421 -0.2087  0.1414  0.0219
 1213TIP3    H125130   4.143   4.152  11.478 -1.0095  0.2006 -0.2492
 1213TIP3    H225131   4.125   4.002  11.471 -0.5366  0.1401 -0.1906
 1214TIP3   OH225132   0.259   1.598  11.804  0.5243 -0.1392 -0.0632
 1214TIP3    H125133   0.323   1.669  11.800  0.4991 -0.0747  0.5473
 1214TIP3    H225134   0.310   1.518  11.797  0.3452 -0.0460 -3.1286
 1215TIP3   OH225135   4.369   3.375   5.403  0.1427  0.3734  0.3349
 1215TIP3    H125136   4.412   3.349   5.485  1.5373  0.0694 -0.4864
 1215TIP3    H225137   4.430   3.350   5.334  0.4579  3.5994 -0.6411
 1216TIP3   OH225138   1.550   0.975  16.369 -0.1830 -0.3548 -0.3636
 1216TIP3    H125139   1.457   0.992  16.384 -0.0144 -1.0396  1.5255
 1216TIP3    H225140   1.581   1.053  16.323 -1.0132  1.2787  1.7485
 1217TIP3   OH225141   5.719   2.374   5.630 -0.2354 -0.4740  0.2649
 1217TIP3    H125142   5.644   2.343   5.680  0.3308  0.2571  1.5860
 1217TIP3    H225143   5.690   2.458   5.593 -0.3617 -0.6043  0.0687
 1218TIP3   OH225144   3.984   0.128   2.973  0.2217  0.0931 -0.6383
 1218TIP3    H125145   3.965   0.093   3.060  1.1756  1.2998  0.0698
 1218TIP3    H225146   3.899   0.130   2.929 -0.3384 -0.1011  0.4179
 1219TIP3   OH225147   3.360   2.840  16.997  0.2237 -0.1215 -0.1488
 1219TIP3    H125148   3.366   2.930  17.028 -0.2458 -0.4013  0.7718
 1219TIP3    H225149   3.416   2.838  16.920  2.9791  0.1097  1.7764
 1220TIP3   OH225150   4.256   3.706   1.124  0.0373 -0.1916  0.0818
 1220TIP3    H125151   4.187   3.649   1.090  0.8203 -0.6540 -0.7653
 1220TIP3    H225152   4.308   3.649   1.180  0.8869 -0.3603 -0.8508
 1221TIP3   OH225153   4.940   1.046  12.325 -0.4165 -0.0069 -0.0485
 1221TIP3    H125154   5.002   1.119  12.329 -0.2306 -0.1669 -0.0046
 1221TIP3    H225155   4.909   1.036  12.415 -0.4489  0.0226 -0.0557
 1222TIP3   OH225156   2.681   0.174   3.417  0.1812  0.0069  0.6829
 1222TIP3    H125157   2.726   0.189   3.500  1.3497 -0.9225  0.2314
 1222TIP3    H225158   2.729   0.227   3.353  0.7181 -1.0699  0.1789
 1223TIP3   OH225159   5.979   2.380   1.198 -0.0203 -0.6648 -0.2028
 1223TIP3    H125160   6.021   2.298   1.175  0.3585 -0.8588  1.1112
 1223TIP3    H225161   5.899   2.354   1.244  0.1437 -0.3159  0.2911
 1224TIP3   OH225162   0.399   2.549   5.551 -0.4282 -1.1493 -0.8791
 1224TIP3    H125163   0.326   2.489   5.534  0.4328 -2.0834 -1.2999
 1224TIP3    H225164   0.418   2.589   5.466 -1.6469  0.4764 -0.4073
 1225TIP3   OH225165   6.351   1.890  11.799  0.4228  0.1057 -0.5288
 1225TIP3    H125166   6.284   1.954  11.775 -0.9370 -1.0820  0.0084
 1225TIP3    H225167   6.325   1.811  11.752  0.7155 -0.7377  0.7253
 1226TIP3   OH225168   4.107   4.981  13.275 -0.4373 -0.6866 -0.2613
 1226TIP3    H125169   4.162   5.047  13.234 -0.6088 -1.0858 -1.1502
 1226TIP3    H225170   4.074   5.023  13.355 -0.2458  0.1655 -0.6247
 1227TIP3   OH225171   5.549   0.564   0.761  0.0919 -0.1369 -0.1401
 1227TIP3    H125172   5.486   0.492   0.765  0.8396 -0.8226 -0.7306
 1227TIP3    H225173   5.494   0.642   0.754 -0.6959 -0.8693 -2.9172
 1228TIP3   OH225174   1.701   2.170  12.544  0.5274  0.2891 -0.2244
 1228TIP3    H125175   1.681   2.077  12.538  0.1951  0.3267  0.2435
 1228TIP3    H225176   1.648   2.201  12.618  0.8466  0.7913 -0.2046
 1229TIP3   OH225177   1.729   1.953   5.731  0.1390 -0.9302  0.2255
 1229TIP3    H125178   1.792   1.986   5.668 -2.0248  0.1707 -1.4027
 1229TIP3    H225179   1.648   1.942   5.681 -0.7913 -2.9754  2.1111
 1230TIP3   OH225180   3.310   4.173   0.819  0.6965  0.4696 -0.2621
 1230TIP3    H125181   3.381   4.211   0.767  0.7142 -2.1199 -2.1889
 1230TIP3    H225182   3.242   4.152   0.755  0.9668 -3.3782  0.6421
 1231TIP3   OH225183   5.592   3.696   4.006 -0.1584  0.3902 -0.6163
 1231TIP3    H125184   5.516   3.688   3.948 -0.2316  1.3884 -0.6622
 1231TIP3    H225185   5.667   3.700   3.947  0.2239 -3.4182 -0.5173
 1232TIP3   OH225186   1.514   5.801   0.443  0.0330  0.1070 -0.2491
 1232TIP3    H125187   1.537   5.749   0.366  1.2431 -0.1923  0.3106
 1232TIP3    H225188   1.437   5.850   0.416 -0.0442 -0.6241 -1.3813
 1233TIP3   OH225189   0.595   2.410   2.437 -0.1421  0.2641 -0.0772
 1233TIP3    H125190   0.684   2.375   2.438 -0.3030 -0.3251 -2.5046
 1233TIP3    H225191   0.551   2.367   2.511  0.5901 -2.2226 -1.0427
 1234TIP3   OH225192   0.517   5.828   4.163 -0.0701 -0.4852  0.8179
 1234TIP3    H125193   0.477   5.773   4.095  0.5053 -0.4060  0.4126
 1234TIP3    H225194   0.453   5.828   4.234 -0.7298 -0.4698  0.2255
 1235TIP3   OH225195   6.415   1.839   2.635  0.1054 -0.4235 -0.2548
 1235TIP3    H125196   6.398   1.925   2.673 -1.1524 -0.1094 -1.4713
 1235TIP3    H225197   6.484   1.802   2.689 -1.3578  0.1564  2.1043
 1236TIP3   OH225198   3.874   5.845   5.049 -0.5117  0.0038  0.3121
 1236TIP3    H125199   3.813   5.917   5.028  2.6160  2.7897  0.3565
 1236TIP3    H225200   3.846   5.816   5.136 -2.0358  0.9307  0.1586
 1237TIP3   OH225201   6.281   4.311  11.367 -0.5796  0.2824  0.2417
 1237TIP3    H125202   6.310   4.352  11.449 -2.9244  1.7487  0.3906
 1237TIP3    H225203   6.188   4.295  11.380 -1.1084  1.0336 -2.3389
 1238TIP3   OH225204   2.443   0.392   0.871 -0.2339  0.0170  0.2515
 1238TIP3    H125205   2.405   0.480   0.881 -0.0819 -0.1122  2.0363
 1238TIP3    H225206   2.520   0.406   0.815  0.4979  1.2259  1.5346
 1239TIP3   OH225207   6.285   0.250   0.971 -0.3532 -0.4057  0.3367
 1239TIP3    H125208   6.239   0.176   0.931 -1.0660 -0.8744  1.9915
 1239TIP3    H225209   6.216   0.301   1.014 -0.0499  1.8894 -1.7538
 1240TIP3   OH225210   1.617   0.469  12.456  0.4794  0.4400 -0.2336
 1240TIP3    H125211   1.593   0.380  12.482  1.3076 -0.1540 -1.4397
 1240TIP3    H225212   1.591   0.524  12.530 -0.6528 -0.7152  0.2414
 1241TIP3   OH225213   5.507   5.202  14.325  0.3560  0.3518  0.6486
 1241TIP3    H125214   5.475   5.272  14.381  0.4346 -0.9491  2.3562
 1241TIP3    H225215   5.542   5.136  14.385  0.4923 -1.0553 -0.9156
 1242TIP3   OH225216   0.283   0.043   5.579 -0.5177 -0.3754  0.3968
 1242TIP3    H125217   0.191   0.045   5.553  0.4558  0.7695 -3.2577
 1242TIP3    H225218   0.324  -0.017   5.518  1.3027 -0.4310  1.6307
 1243TIP3   OH225219   3.563   5.369  13.506 -0.4032  0.4203 -0.4220
 1243TIP3    H125220   3.561   5.458  13.541 -2.8168  0.4303 -0.4669
 1243TIP3    H225221   3.510   5.318  13.568  0.4939 -0.8775 -0.6978
 1244TIP3   OH225222   4.734   3.965   4.390  0.2355  0.0593 -0.0440
 1244TIP3    H125223   4.741   3.915   4.308  0.5337 -0.2065  0.1457
 1244TIP3    H225224   4.813   3.943   4.439  0.9673  1.6591 -0.4804
 1245TIP3   OH225225   1.378   6.636   4.581  0.4039  0.0721  0.0790
 1245TIP3    H125226   1.408   6.619   4.670  2.2146 -1.2333 -0.7372
 1245TIP3    H225227   1.456   6.622   4.527 -0.6164  1.0630 -1.6798
 1246TIP3   OH225228   5.487   0.041  11.364 -0.3145  0.7660 -0.2649
 1246TIP3    H125229   5.485   0.015  11.456 -0.7910  0.1107 -0.4514
 1246TIP3    H225230   5.556  -0.014  11.326 -2.4310 -1.4914 -1.0110
 1247TIP3   OH225231   4.124   3.109   4.516 -0.9621 -0.1366 -0.0875
 1247TIP3    H125232   4.174   3.031   4.493  0.0329  0.5070 -0.1202
 1247TIP3    H225233   4.065   3.122   4.441 -1.1116 -0.8384 -0.0958
 1248TIP3   OH225234   0.969   1.614  14.987 -0.0934 -0.2197  0.6208
 1248TIP3    H125235   0.951   1.523  15.010 -0.9553  0.2825  1.9900
 1248TIP3    H225236   0.895   1.663  15.023 -0.1692  0.9041 -1.0069
 1249TIP3   OH225237   2.250   0.073  16.433 -0.1613  0.2592 -0.4993
 1249TIP3    H125238   2.226   0.033  16.517 -0.3995  0.3564 -0.5197
 1249TIP3    H225239   2.172   0.067  16.379 -1.3522  3.7830  0.6407
 1250TIP3   OH225240   1.991   2.850  15.255  0.3316  0.5884  0.0719
 1250TIP3    H125241   2.037   2.766  15.251 -0.1778  0.2331  1.4257
 1250TIP3    H225242   1.912   2.832  15.305 -0.1136  1.7395 -0.1874
 1251TIP3   OH225243   1.617   6.171   6.207 -0.5152 -0.5250 -0.2304
 1251TIP3    H125244   1.594   6.209   6.291 -0.0528 -0.8557  0.0457
 1251TIP3    H225245   1.709   6.194   6.193 -0.4531 -0.8718 -0.4210
 1252TIP3   OH225246   2.607   0.611  17.054 -0.6986  0.0144  0.1588
 1252TIP3    H125247   2.544   0.588  16.985 -1.0684  1.0967  0.1289
 1252TIP3    H225248   2.575   0.695  17.088  1.2017  1.0045 -0.4484
 1253TIP3   OH225249   0.316   0.618   5.048  0.0799  0.1896 -0.1636
 1253TIP3    H125250   0.378   0.622   5.120 -0.8402  1.5916  0.5763
 1253TIP3    H225251   0.244   0.676   5.074 -0.6253  0.1341 -1.8690
 1254TIP3   OH225252   5.938   3.733   5.806  0.1663 -0.2484 -0.2732
 1254TIP3    H125253   5.867   3.716   5.744  0.0051  0.1327 -0.1945
 1254TIP3    H225254   5.914   3.816   5.848 -0.2739 -1.0507  1.0760
 1255TIP3   OH225255   5.464   5.087  10.870  0.0077 -0.3494 -0.2428
 1255TIP3    H125256   5.486   5.006  10.823 -1.4658 -0.2689 -1.1273
 1255TIP3    H225257   5.471   5.156  10.804  2.4017  0.4466  0.7871
 1256TIP3   OH225258   2.756   6.781   6.272  0.1636 -0.1518 -0.1541
 1256TIP3    H125259   2.841   6.825   6.265 -0.1314  0.1978 -1.7797
 1256TIP3    H225260   2.756   6.716   6.202 -0.9562 -0.0356 -0.2847
 1257TIP3   OH225261   0.075   3.305   1.567  0.2997 -0.4818 -0.0945
 1257TIP3    H125262   0.082   3.294   1.472  2.3119  2.7038 -0.3803
 1257TIP3    H225263   0.014   3.378   1.577  0.6850 -0.3174  1.0483
 1258TIP3   OH225264   2.203   6.455  13.020 -0.1285 -0.3076  0.0135
 1258TIP3    H125265   2.271   6.521  13.019 -1.7270  1.4653  2.0205
 1258TIP3    H225266   2.199   6.422  12.930  1.0009  1.9981 -0.9044
 1259TIP3   OH225267   1.290   0.151   6.302  0.4767 -0.2129 -0.4476
 1259TIP3    H125268   1.276   0.074   6.247 -0.6893 -0.7426  0.5630
 1259TIP3    H225269   1.203   0.190   6.310  0.9927  0.9939 -0.6321
 1260TIP3   OH225270   6.522   3.808  12.703 -0.4189 -0.4600 -0.2477
 1260TIP3    H125271   6.598   3.796  12.646  0.3180 -1.6731  0.9657
 1260TIP3    H225272   6.521   3.902  12.722  1.2444 -0.5570  0.3679
 1261TIP3   OH225273   0.056   1.864  15.595 -0.2732  0.2151  0.3796
 1261TIP3    H125274  -0.009   1.845  15.663 -1.5228  0.8964 -0.6085
 1261TIP3    H225275   0.026   1.946  15.555  1.4499  0.8030  0.2129
 1262TIP3   OH225276   1.662   5.559  12.400 -0.3240 -0.1901 -0.1932
 1262TIP3    H125277   1.715   5.479  12.394 -0.3326 -0.2181  0.0734
 1262TIP3    H225278   1.646   5.569  12.494  0.8834  0.9118 -0.0975
 1263TIP3   OH225279   0.471   1.573   2.874 -0.5221 -0.0756  0.0690
 1263TIP3    H125280   0.434   1.533   2.795  0.3843  0.4357 -0.6237
 1263TIP3    H225281   0.530   1.506   2.909  0.9606  0.5926 -1.0657
 1264TIP3   OH225282   1.418   2.671   2.964  0.0883  0.0809  0.0483
 1264TIP3    H125283   1.473   2.743   2.993  0.0129  1.4777 -3.1313
 1264TIP3    H225284   1.330   2.709   2.959 -0.1476 -0.5415 -0.5398
 1265TIP3   OH225285   0.091   3.461   0.228  0.1503  0.3856  0.0905
 1265TIP3    H125286   0.165   3.415   0.268 -0.5001  1.2863  2.4196
 1265TIP3    H225287   0.129   3.506   0.153  1.7665 -0.0036  0.6434
 1266TIP3   OH225288   4.902   1.071  11.575  0.2829  0.2506 -0.0729
 1266TIP3    H125289   4.988   1.049  11.610  0.6467  1.3996 -0.2033
 1266TIP3    H225290   4.913   1.066  11.480 -0.0216 -0.4023 -0.0771
 1267TIP3   OH225291   6.338   5.797  14.986  0.6422  0.3763  0.3505
 1267TIP3    H125292   6.326   5.876  15.039  0.0519  0.2352  0.4298
 1267TIP3    H225293   6.349   5.726  15.050 -2.7338 -0.2234  0.3504
 1268TIP3   OH225294   2.045   5.346   0.303 -0.1442  0.0427 -0.8369
 1268TIP3    H125295   1.995   5.351   0.384 -0.1735 -0.2427 -0.8355
 1268TIP3    H225296   2.033   5.432   0.262  1.9506  1.0859  0.6722
 1269TIP3   OH225297   4.730   0.326  16.253  0.1464 -0.3522 -0.0285
 1269TIP3    H125298   4.818   0.342  16.220  0.4261 -2.6391 -0.4735
 1269TIP3    H225299   4.707   0.406  16.300  1.9001  0.8105 -1.1132
 1270TIP3   OH225300   1.510   6.636  15.114 -0.1183  0.8171  0.1341
 1270TIP3    H125301   1.440   6.575  15.136 -0.1145  1.5736  2.3796
 1270TIP3    H225302   1.466   6.707  15.067 -0.4229  0.0315 -0.7812
 1271TIP3   OH225303   2.139   5.575   4.786  0.4414  0.4704 -0.2444
 1271TIP3    H125304   2.080   5.573   4.711  1.1593  0.5677 -0.8166
 1271TIP3    H225305   2.226   5.588   4.748  0.6511  2.0054  0.6802
 1272TIP3   OH225306   5.343   0.781   0.859 -0.1102 -0.6183 -0.1551
 1272TIP3    H125307   5.395   0.835   0.919 -0.5338  0.2324 -0.5561
 1272TIP3    H225308   5.297   0.843   0.803  0.1027 -1.4087 -1.2225
 1273TIP3   OH225309   6.204   3.814  13.992 -0.0133  0.1581  0.0205
 1273TIP3    H125310   6.260   3.757  13.939 -0.5702 -1.0760  0.7529
 1273TIP3    H225311   6.140   3.849  13.929 -0.6665 -1.2997 -0.1401
 1274TIP3   OH225312   2.859   0.301   0.935 -0.2697  0.2795 -0.1983
 1274TIP3    H125313   2.807   0.378   0.960  0.5755  0.2672  1.7253
 1274TIP3    H225314   2.807   0.227   0.968  0.2611  0.1952  0.4648
 1275TIP3   OH225315   5.288   3.270  11.414 -0.4809  0.6593  0.3841
 1275TIP3    H125316   5.290   3.230  11.327  0.3966 -0.3219  0.8414
 1275TIP3    H225317   5.364   3.233  11.460 -1.1617  0.8504  1.7071
 1276TIP3   OH225318   3.742   6.399  17.088  0.2383 -0.3602 -0.4731
 1276TIP3    H125319   3.739   6.340  17.163 -1.1463  0.9702  0.5373
 1276TIP3    H225320   3.804   6.467  17.113 -1.1073  0.7288 -0.0264
 1277TIP3   OH225321   3.608   2.757   2.909  0.3806  0.1126  0.1440
 1277TIP3    H125322   3.543   2.822   2.938 -1.0359  0.5034 -3.5129
 1277TIP3    H225323   3.557   2.677   2.897  0.9147 -0.0595 -1.0123
 1278TIP3   OH225324   2.726   0.034   5.016  0.1157  0.0233 -0.4279
 1278TIP3    H125325   2.672   0.105   4.982  0.8102  0.8924  0.2534
 1278TIP3    H225326   2.684  -0.046   4.985 -1.7930  0.6814  0.4359
 1279TIP3   OH225327   0.779   4.989  16.134 -0.3023  0.2257 -0.3926
 1279TIP3    H125328   0.743   5.008  16.047 -0.4465 -1.2347 -0.6628
 1279TIP3    H225329   0.800   4.896  16.131  1.2321  0.5274  0.5905
 1280TIP3   OH225330   5.220   6.468  13.144  0.2447 -0.3518 -0.2268
 1280TIP3    H125331   5.140   6.476  13.093 -0.0579 -2.7696 -0.1949
 1280TIP3    H225332   5.241   6.558  13.170 -3.7395  0.1320  1.7249
 1281TIP3   OH225333   4.226   2.343   0.633  0.1795 -0.0410  0.0481
 1281TIP3    H125334   4.232   2.434   0.663 -0.2510 -0.7133  2.2147
 1281TIP3    H225335   4.139   2.315   0.659  0.0818 -0.8926 -1.1892
 1282TIP3   OH225336   3.676   6.118  11.036 -0.5189  0.0490 -0.3812
 1282TIP3    H125337   3.735   6.180  11.079 -0.0915 -0.3546 -0.3756
 1282TIP3    H225338   3.664   6.048  11.102 -0.3479 -0.2724 -0.6912
 1283TIP3   OH225339   2.299   4.076  11.219 -0.6630  0.2957  0.0846
 1283TIP3    H125340   2.266   4.136  11.286 -1.9092  0.3167 -0.5311
 1283TIP3    H225341   2.236   4.083  11.147 -0.1156 -0.7848 -0.5201
 1284TIP3   OH225342   4.835   1.641  11.910  0.4277 -0.7326  0.3305
 1284TIP3    H125343   4.924   1.664  11.936  1.0213 -1.2260 -1.1976
 1284TIP3    H225344   4.840   1.631  11.815 -1.2052 -1.0043  0.2655
 1285TIP3   OH225345   1.308   5.966  13.705 -0.2407  0.1355 -0.1902
 1285TIP3    H125346   1.283   5.882  13.743 -1.8753  0.0380 -1.4222
 1285TIP3    H225347   1.263   6.031  13.759  2.2701  0.3376  1.7325
 1286TIP3   OH225348   5.094   1.595  14.074  0.7454 -0.9046  0.5777
 1286TIP3    H125349   5.166   1.577  14.134  0.6790 -2.8602  0.1127
 1286TIP3    H225350   5.136   1.603  13.988  0.8926  2.3221  0.9004
 1287TIP3   OH225351   2.200   3.227   4.282  0.1724  0.4972  0.2171
 1287TIP3    H125352   2.142   3.231   4.358  0.4733  1.2658  0.4221
 1287TIP3    H225353   2.287   3.248   4.318  0.7596 -1.6530  0.0954
 1288TIP3   OH225354   5.809   1.986  10.415 -0.6533 -0.7730  0.1768
 1288TIP3    H125355   5.783   1.894  10.414  0.3136 -1.0662  0.8485
 1288TIP3    H225356   5.785   2.019  10.329 -2.1544 -1.3284  0.3661
 1289TIP3   OH225357   3.383   0.593  12.784  0.2806  0.4959 -0.1405
 1289TIP3    H125358   3.382   0.504  12.750 -1.1420  0.7992 -0.9340
 1289TIP3    H225359   3.357   0.585  12.875 -2.4507  0.3386 -0.8806
 1290TIP3   OH225360   0.065   0.189  16.231  0.3409 -0.0058 -0.1847
 1290TIP3    H125361  -0.018   0.174  16.185 -0.0021  2.7537 -0.5145
 1290TIP3    H225362   0.128   0.206  16.162  1.2374 -2.0992  0.0719
 1291TIP3   OH225363   4.328   0.595  12.859 -0.1770 -0.1801  0.8760
 1291TIP3    H125364   4.382   0.589  12.938 -0.0531  0.1462  0.8174
 1291TIP3    H225365   4.332   0.508  12.820  0.3677 -0.1335  0.8337
 1292TIP3   OH225366   6.667   0.919   6.699 -0.6667  0.4353  0.3626
 1292TIP3    H125367   6.590   0.900   6.644 -1.0820  0.3771  0.9608
 1292TIP3    H225368   6.685   0.836   6.742 -0.7750  0.6710  0.8583
 1293TIP3   OH225369   0.188   3.019   2.609  0.2377 -0.2483 -0.3337
 1293TIP3    H125370   0.203   3.084   2.540 -1.9007 -1.2327 -1.7613
 1293TIP3    H225371   0.255   2.952   2.594 -0.1692 -0.4170 -1.4204
 1294TIP3   OH225372   6.403   3.935   4.453 -0.1948  0.1886  0.0798
 1294TIP3    H125373   6.405   3.840   4.462 -0.6753  0.0737 -0.9454
 1294TIP3    H225374   6.342   3.965   4.521 -0.8067 -0.3250 -0.2359
 1295TIP3   OH225375   2.959   5.570  14.955 -0.5627 -0.4747  0.6123
 1295TIP3    H125376   3.026   5.513  14.991  0.4018 -0.4467 -1.0905
 1295TIP3    H225377   2.884   5.512  14.939 -0.4324 -0.7887  1.1294
 1296TIP3   OH225378   6.043   5.960  15.174 -0.4465  0.0234 -0.2035
 1296TIP3    H125379   6.116   5.943  15.233 -1.3286  0.4261  1.0526
 1296TIP3    H225380   5.965   5.947  15.229 -1.2436  2.5065 -0.7009
 1297TIP3   OH225381   4.618   3.224   1.067 -0.2882 -0.4352  0.0253
 1297TIP3    H125382   4.573   3.309   1.063 -0.7596 -0.7226 -1.0943
 1297TIP3    H225383   4.698   3.236   1.016  0.2448 -0.3099  0.8942
 1298TIP3   OH225384   4.007   4.436   5.381 -0.1438 -0.3204 -0.0026
 1298TIP3    H125385   4.064   4.513   5.383  0.6714 -0.9061 -0.2727
 1298TIP3    H225386   4.067   4.363   5.366 -0.6869 -1.2251  2.1203
 1299TIP3   OH225387   2.573   5.624  14.688  1.1121  0.8626  0.2763
 1299TIP3    H125388   2.481   5.600  14.688  1.0910  0.9450 -0.5246
 1299TIP3    H225389   2.580   5.692  14.755  0.3562  1.7434 -0.5334
 1300TIP3   OH225390   3.513   4.847  15.343 -0.2843  0.2329  0.5386
 1300TIP3    H125391   3.586   4.893  15.301 -0.8834  1.4842  0.8651
 1300TIP3    H225392   3.506   4.765  15.294  1.1020  0.2625  0.2640
 1301TIP3   OH225393   1.817   1.421   1.467  0.4873  0.1880  0.4757
 1301TIP3    H125394   1.898   1.385   1.503 -0.1285 -2.1599 -0.4164
 1301TIP3    H225395   1.753   1.351   1.477 -1.5967  2.1586  1.5913
 1302TIP3   OH225396   3.420   0.923  15.532 -0.0441 -0.0947 -0.7147
 1302TIP3    H125397   3.438   0.900  15.440  1.2985  1.2574 -0.8159
 1302TIP3    H225398   3.470   1.004  15.546  2.1569 -1.8302  2.0312
 1303TIP3   OH225399   4.805   6.274  13.989  0.0693  0.0494  0.4988
 1303TIP3    H125400   4.767   6.340  14.046 -2.6452 -2.1491  1.3358
 1303TIP3    H225401   4.776   6.298  13.901 -1.8942 -0.6365  0.9337
 1304TIP3   OH225402   6.042   5.878   2.691 -0.1375  0.6281  0.5231
 1304TIP3    H125403   6.067   5.894   2.782 -1.6254  3.1815  0.5598
 1304TIP3    H225404   5.948   5.896   2.689 -0.3113 -0.3811 -1.3148
 1305TIP3   OH225405   1.325   6.342   0.749  0.2956  0.3559  0.4929
 1305TIP3    H125406   1.263   6.407   0.717 -0.6557 -0.3312  0.9004
 1305TIP3    H225407   1.282   6.258   0.734  1.3729 -0.1714  0.2576
 1306TIP3   OH225408   4.564   1.290   3.635 -0.3006  1.0626 -0.3815
 1306TIP3    H125409   4.578   1.353   3.705  0.4201  0.8690 -0.3478
 1306TIP3    H225410   4.540   1.208   3.680  1.2892  0.6274 -0.2911
 1307TIP3   OH225411   2.014   5.567   3.814 -0.0100  0.1594  0.5361
 1307TIP3    H125412   2.061   5.529   3.740  0.6966 -0.3353  1.2279
 1307TIP3    H225413   1.931   5.521   3.816  0.6831 -1.0960  1.1243
 1308TIP3   OH225414   2.665   3.994  12.761 -0.3565 -0.0499 -0.2582
 1308TIP3    H125415   2.721   4.004  12.684 -1.0926  0.0520 -0.7872
 1308TIP3    H225416   2.700   4.057  12.823  0.3718 -0.2775 -0.4340
 1309TIP3   OH225417   3.638   3.531   5.524  1.0021 -0.3312  0.3640
 1309TIP3    H125418   3.599   3.448   5.494 -0.8790 -0.1266  2.1704
 1309TIP3    H225419   3.616   3.594   5.456 -0.4254 -0.5897  0.5817
 1310TIP3   OH225420   2.872   6.000   3.083  0.2780 -0.0534  0.3385
 1310TIP3    H125421   2.867   6.042   2.998 -0.7366 -0.3814  0.2273
 1310TIP3    H225422   2.949   6.038   3.125  0.1304  0.9349 -0.2841
 1311TIP3   OH225423   0.881   2.004   1.980  0.4871 -0.0144  0.1812
 1311TIP3    H125424   0.901   1.929   2.036  0.8899  0.4839  0.7082
 1311TIP3    H225425   0.927   1.986   1.898 -1.3873 -1.5051 -0.5654
 1312TIP3   OH225426   4.465   5.191   1.722 -0.2445 -0.4376  0.0935
 1312TIP3    H125427   4.530   5.235   1.778  0.1253 -0.8666  0.0062
 1312TIP3    H225428   4.509   5.111   1.692 -0.8406 -0.7628  0.0825
 1313TIP3   OH225429   0.284   2.949   4.298 -0.1845  1.0533  0.0536
 1313TIP3    H125430   0.278   2.973   4.391 -1.3154  0.9061  0.0313
 1313TIP3    H225431   0.211   2.888   4.285  0.3510  0.5854 -0.7849
 1314TIP3   OH225432   0.816   2.136  16.234  0.3946 -0.3233  0.1699
 1314TIP3    H125433   0.789   2.118  16.144 -0.6142  1.1140  0.1672
 1314TIP3    H225434   0.874   2.063  16.257  0.3035 -0.9338 -1.4821
 1315TIP3   OH225435   1.072   2.933   0.245 -0.0839 -0.1753  0.1611
 1315TIP3    H125436   1.037   2.848   0.272 -0.8980  1.2053  3.7625
 1315TIP3    H225437   1.159   2.913   0.210 -0.1662 -2.4843  1.1632
 1316TIP3   OH225438   1.202   4.515  12.391 -0.2472 -0.3003 -0.2081
 1316TIP3    H125439   1.231   4.424  12.393 -0.1656 -0.2847 -0.7363
 1316TIP3    H225440   1.210   4.541  12.300 -0.0764  0.2986 -0.0273
 1317TIP3   OH225441   2.841   0.910   1.746 -0.7500 -0.4448 -0.5222
 1317TIP3    H125442   2.883   0.892   1.662 -0.5098 -0.1239 -0.4724
 1317TIP3    H225443   2.748   0.915   1.727 -0.6767 -0.1681 -0.8041
 1318TIP3   OH225444   3.100   0.134  14.935 -0.8821  0.3078  0.2375
 1318TIP3    H125445   3.078   0.057  14.988 -1.0106 -0.4394 -0.8826
 1318TIP3    H225446   3.183   0.165  14.971 -0.0723 -1.2411 -0.2286
 1319TIP3   OH225447   0.151   1.092  13.018  0.4639  0.5768 -0.3193
 1319TIP3    H125448   0.205   1.014  13.019  0.1748  0.3789  0.1691
 1319TIP3    H225449   0.075   1.069  13.071 -0.3118  0.6974 -1.3401
 1320TIP3   OH225450   0.544   2.203   6.015 -0.0036  0.5763 -0.0056
 1320TIP3    H125451   0.611   2.145   6.051 -0.9401  0.1006  1.0119
 1320TIP3    H225452   0.545   2.280   6.072 -1.0175  0.1203  0.6516
 1321TIP3   OH225453   3.156   1.972   0.928 -0.1487 -0.6412  0.1192
 1321TIP3    H125454   3.177   2.026   1.003 -1.2419 -0.0568  0.0104
 1321TIP3    H225455   3.064   1.990   0.910 -0.0119 -1.0865 -1.0950
 1322TIP3   OH225456   4.197   6.554  14.657  0.4863  0.2881 -0.5692
 1322TIP3    H125457   4.291   6.538  14.644  0.1706 -0.3531 -2.2440
 1322TIP3    H225458   4.155   6.475  14.624 -0.6494  0.4334  0.4794
 1323TIP3   OH225459   3.779   3.391  13.775  0.3902 -0.1006  0.3155
 1323TIP3    H125460   3.717   3.318  13.772 -1.9143  1.8307 -1.6134
 1323TIP3    H225461   3.770   3.426  13.864 -0.3704 -0.6277  0.4557
 1324TIP3   OH225462   3.339   2.583  11.594  0.0588  0.2260 -0.8502
 1324TIP3    H125463   3.389   2.543  11.665 -1.3874  1.9961  1.2483
 1324TIP3    H225464   3.405   2.625  11.539  1.0780  0.5304  0.5671
 1325TIP3   OH225465   5.832   5.847   1.503  0.0961 -0.3099  0.0865
 1325TIP3    H125466   5.737   5.841   1.493  0.0152  1.5651 -0.4733
 1325TIP3    H225467   5.848   5.814   1.592 -1.2151  0.4438  0.6249
 1326TIP3   OH225468   1.901   1.679  17.211 -0.0348 -0.2253  0.3288
 1326TIP3    H125469   1.823   1.623  17.217 -0.6790  0.4906 -1.2491
 1326TIP3    H225470   1.947   1.647  17.134  1.3673 -0.7915  1.3900
 1327TIP3   OH225471   4.534   0.588   6.328 -0.4641 -0.2812 -0.4716
 1327TIP3    H125472   4.591   0.663   6.345  0.2764 -1.1419  0.9127
 1327TIP3    H225473   4.581   0.513   6.366 -1.5852 -1.3137 -1.0900
 1328TIP3   OH225474   1.286   5.439   3.445  0.1565 -0.0746 -0.5974
 1328TIP3    H125475   1.214   5.451   3.507  0.0618  0.5982 -0.8344
 1328TIP3    H225476   1.295   5.344   3.437 -0.4248 -0.1635 -0.2421
 1329TIP3   OH225477   3.111   0.802   0.014 -0.3980  0.2270  0.4236
 1329TIP3    H125478   3.202   0.832   0.006 -0.6525  1.2705  1.3827
 1329TIP3    H225479   3.099   0.744  -0.061  1.4704 -0.9973  1.0065
 1330TIP3   OH225480   4.650   0.353  15.412  0.3160  0.5657 -0.2653
 1330TIP3    H125481   4.682   0.336  15.500  0.7557  0.5078 -0.4337
 1330TIP3    H225482   4.555   0.359  15.422  0.4127  1.1720  0.3028
 1331TIP3   OH225483   3.837   5.264  10.846  0.4435  0.2174 -0.2137
 1331TIP3    H125484   3.931   5.262  10.866  0.5808  0.9428 -0.7754
 1331TIP3    H225485   3.818   5.355  10.826 -0.5665  0.2244  0.7073
 1332TIP3   OH225486   4.338   1.593  12.926  0.4151 -0.5507 -0.2694
 1332TIP3    H125487   4.415   1.635  12.887 -0.1242  0.2598 -0.4745
 1332TIP3    H225488   4.279   1.578  12.852  0.1245 -0.6254 -0.0249
 1333TIP3   OH225489   0.591   6.112   2.238 -0.4492  0.1511 -0.2753
 1333TIP3    H125490   0.684   6.101   2.216 -0.7166  0.4978 -1.6657
 1333TIP3    H225491   0.585   6.093   2.331  0.9353 -0.4159 -0.2962
 1334TIP3   OH225492   1.795   0.260  17.286  0.3182 -0.0331 -0.2963
 1334TIP3    H125493   1.724   0.270  17.222 -1.3646  1.7244  1.7456
 1334TIP3    H225494   1.827   0.349  17.300  2.2983 -0.7083 -0.4794
 1335TIP3   OH225495   2.591   5.747   3.914  0.1786 -0.3567 -0.4751
 1335TIP3    H125496   2.529   5.675   3.929  0.7423 -0.5207  1.1786
 1335TIP3    H225497   2.677   5.706   3.918  0.4565  0.1639 -1.0204
 1336TIP3   OH225498   3.341   2.178   4.409  0.1174  0.4555 -0.1720
 1336TIP3    H125499   3.423   2.202   4.365 -1.6216  1.2754 -3.1202
 1336TIP3    H225500   3.313   2.098   4.364 -2.3701  2.0309 -1.5503
 1337TIP3   OH225501   3.016   2.063   5.757 -0.0832 -0.0472  0.2439
 1337TIP3    H125502   2.927   2.096   5.744 -0.6417 -1.1509  1.2094
 1337TIP3    H225503   3.040   2.090   5.845  0.0826 -0.7753  0.4274
 1338TIP3   OH225504   6.661   5.351   1.048  0.3217  0.0267  0.3412
 1338TIP3    H125505   6.731   5.404   1.011  0.0204  0.2041  0.0273
 1338TIP3    H225506   6.706   5.273   1.082  0.6139 -0.0662 -0.2548
 1339TIP3   OH225507   2.592   3.789   0.950  0.1612  0.0617  0.7902
 1339TIP3    H125508   2.522   3.837   0.995  0.5228 -0.0021  1.4282
 1339TIP3    H225509   2.575   3.802   0.857 -0.5613  0.2495  0.9486
 1340TIP3   OH225510   5.842   2.423  16.775 -0.1390  0.0953  0.4190
 1340TIP3    H125511   5.845   2.328  16.774  1.9642  0.1327  0.8604
 1340TIP3    H225512   5.924   2.449  16.817 -0.5145  2.1028 -0.0438
 1341TIP3   OH225513   2.368   4.291   5.269  0.3436 -0.2715  0.2163
 1341TIP3    H125514   2.278   4.320   5.257  0.6233  0.5629  0.1148
 1341TIP3    H225515   2.362   4.196   5.279 -0.5761 -0.1797  0.5334
 1342TIP3   OH225516   2.735   3.092   2.908  0.6444 -0.0515  1.0727
 1342TIP3    H125517   2.793   3.089   2.984  1.0819 -0.0550  0.7395
 1342TIP3    H225518   2.793   3.105   2.833  0.0982  1.2472  0.8668
 1343TIP3   OH225519   3.952   6.533  12.083  0.0692 -0.1482 -0.3445
 1343TIP3    H125520   3.900   6.475  12.028  1.3069  0.0587 -1.7743
 1343TIP3    H225521   3.939   6.501  12.172  0.1096 -2.1350 -1.0392
 1344TIP3   OH225522   6.068   4.258   3.442  0.0159  0.1591  0.2310
 1344TIP3    H125523   6.069   4.177   3.494  2.2168  0.0396  0.0371
 1344TIP3    H225524   6.119   4.320   3.494  2.6135 -0.0766 -1.9130
 1345TIP3   OH225525   4.807   3.019  10.807  0.6272 -0.2888  0.3218
 1345TIP3    H125526   4.894   2.981  10.793  0.3634 -0.4632 -0.9127
 1345TIP3    H225527   4.823   3.099  10.857  1.3036 -1.3632  1.8641
 1346TIP3   OH225528   0.642   4.294  11.781  0.4332  0.0692 -0.2368
 1346TIP3    H125529   0.665   4.383  11.806 -0.9238  0.3230  0.1729
 1346TIP3    H225530   0.655   4.290  11.686  1.2531  0.4555 -0.1435
 1347TIP3   OH225531   2.373   6.769  11.519 -0.2793  0.0536  0.5844
 1347TIP3    H125532   2.348   6.851  11.562  0.3258  1.3803 -1.4642
 1347TIP3    H225533   2.389   6.795  11.428  0.2813 -2.2958 -0.0121
 1348TIP3   OH225534   0.270   2.718  16.384 -0.1492 -0.6005  0.2653
 1348TIP3    H125535   0.364   2.701  16.397 -0.0177 -0.6192 -0.7008
 1348TIP3    H225536   0.234   2.633  16.359 -0.2538 -0.3920 -0.2974
 1349TIP3   OH225537   5.589   5.277   2.945 -0.8469  0.2159 -0.5997
 1349TIP3    H125538   5.599   5.213   3.016  1.0008  0.4708 -0.5894
 1349TIP3    H225539   5.611   5.228   2.866 -1.2593  0.3569 -0.8004
 1350TIP3   OH225540   1.131   3.867  12.074 -0.2202  0.7116  0.5642
 1350TIP3    H125541   1.125   3.863  12.169  0.4703  1.4871  0.6406
 1350TIP3    H225542   1.116   3.959  12.052 -5.7543 -0.2504 -0.4796
 1351TIP3   OH225543   1.732   4.876   5.828  0.5934  0.8096  0.3642
 1351TIP3    H125544   1.773   4.790   5.831  0.1376  0.6433  2.0357
 1351TIP3    H225545   1.758   4.918   5.910 -1.6908  1.1047  0.9596
 1352TIP3   OH225546   6.345   2.456  11.020 -0.4951  0.4283 -0.3941
 1352TIP3    H125547   6.325   2.525  10.958  0.3387 -0.1135 -1.2845
 1352TIP3    H225548   6.401   2.395  10.971 -1.6285 -1.1317  0.2166
 1353TIP3   OH225549   3.553   1.128  15.836 -0.0479 -0.1333  0.0949
 1353TIP3    H125550   3.545   1.112  15.742 -1.1573 -0.2788  0.2190
 1353TIP3    H225551   3.468   1.161  15.863  0.5877  0.9173  0.8580
 1354TIP3   OH225552   5.862   3.304   2.607  0.2805 -0.2737 -0.4195
 1354TIP3    H125553   5.769   3.321   2.590  0.5840  2.3223  0.3311
 1354TIP3    H225554   5.861   3.235   2.674 -1.1368  0.5049  0.4005
 1355TIP3   OH225555   4.841   5.928  12.020 -0.3460  0.0542  0.5021
 1355TIP3    H125556   4.776   5.997  12.003  0.3270  0.9310  1.4246
 1355TIP3    H225557   4.808   5.852  11.972 -1.3403  0.8842 -0.1618
 1356TIP3   OH225558   6.134   4.619  13.586 -0.0795 -0.1765  0.1809
 1356TIP3    H125559   6.049   4.655  13.562  0.2441 -0.1076 -0.8793
 1356TIP3    H225560   6.126   4.598  13.679 -1.2829 -0.2489  0.0642
 1357TIP3   OH225561   6.700   5.195  13.679 -0.1770 -0.5634  0.0921
 1357TIP3    H125562   6.746   5.176  13.597  0.4885 -0.8030  0.5101
 1357TIP3    H225563   6.646   5.118  13.695 -0.1837 -0.5856 -0.0372
 1358TIP3   OH225564   2.798   1.483   6.053  0.3204 -0.4729 -0.8949
 1358TIP3    H125565   2.748   1.509   6.130  3.3682  1.9148  0.4095
 1358TIP3    H225566   2.732   1.462   5.988 -2.3664  0.7988  1.2773
 1359TIP3   OH225567   1.233   5.720   3.605  0.5882  0.4202  0.0990
 1359TIP3    H125568   1.258   5.698   3.694 -0.0931 -1.5562 -0.1553
 1359TIP3    H225569   1.168   5.653   3.581  0.6134  1.0310 -1.8022
 1360TIP3   OH225570   6.276   5.605  13.897 -0.3738 -0.4583 -0.2343
 1360TIP3    H125571   6.303   5.542  13.963  1.8314  1.2687  0.5574
 1360TIP3    H225572   6.236   5.676  13.947  0.3642  0.3841 -0.8272
 1361TIP3   OH225573   6.224   3.402   2.529 -0.3164  0.7268  0.6042
 1361TIP3    H125574   6.282   3.473   2.556  1.0860 -0.0543 -0.3283
 1361TIP3    H225575   6.188   3.368   2.611  1.5097  0.3952  1.2846
 1362TIP3   OH225576   1.851   0.384   6.454 -0.2351 -0.8346 -0.2057
 1362TIP3    H125577   1.755   0.381   6.450 -0.2809 -0.9237  0.9433
 1362TIP3    H225578   1.872   0.477   6.444 -0.2988 -1.0652 -3.0615
 1363TIP3   OH225579   3.914   4.744   6.197 -0.3562 -0.3698  0.5361
 1363TIP3    H125580   3.902   4.770   6.288 -1.0934  0.0153  0.3368
 1363TIP3    H225581   4.009   4.753   6.182 -0.3203  0.1960  1.0723
 1364TIP3   OH225582   6.756   3.038   0.923  0.0173  0.0452 -0.0466
 1364TIP3    H125583   6.668   3.030   0.886  0.5060 -0.3574 -1.1580
 1364TIP3    H225584   6.784   2.948   0.937  0.3626  0.1654  0.0358
 1365TIP3   OH225585   2.097   4.755  16.444 -0.3306 -0.1924 -0.3306
 1365TIP3    H125586   2.108   4.684  16.507 -1.2737 -1.2947 -1.3752
 1365TIP3    H225587   2.180   4.758  16.396  0.3069  0.5047  0.8101
 1366TIP3   OH225588   0.667   1.621   4.808  0.3704  0.0979 -0.4247
 1366TIP3    H125589   0.634   1.684   4.744 -0.2801  1.2750  1.0487
 1366TIP3    H225590   0.760   1.610   4.787  0.4014  1.2912 -0.8917
 1367TIP3   OH225591   3.091   1.295   0.061  0.3597  0.0371  0.2951
 1367TIP3    H125592   3.046   1.380   0.055  2.2598  1.0362 -0.4446
 1367TIP3    H225593   3.030   1.238   0.107 -2.2661  0.9079 -1.9830
 1368TIP3   OH225594   0.571   4.586  11.726  0.0258 -0.5548 -0.5085
 1368TIP3    H125595   0.604   4.674  11.746  0.2113 -0.8861  0.6551
 1368TIP3    H225596   0.560   4.586  11.631 -0.7311  1.0059 -0.4440
 1369TIP3   OH225597   1.133   0.424   5.586  0.6849 -0.0628  0.2942
 1369TIP3    H125598   1.087   0.508   5.579  0.0650 -0.2836  1.6560
 1369TIP3    H225599   1.118   0.382   5.501 -3.6030 -1.1225  1.4672
 1370TIP3   OH225600   6.292   2.072   0.660 -0.3048  0.3407 -0.6794
 1370TIP3    H125601   6.269   2.017   0.585 -3.2836  2.5107 -1.4496
 1370TIP3    H225602   6.268   2.020   0.736 -0.4665 -0.5270 -1.3146
 1371TIP3   OH225603   4.443   6.819   0.339  0.0215  0.2262  0.0018
 1371TIP3    H125604   4.455   6.808   0.245 -0.3845  1.2973 -0.1763
 1371TIP3    H225605   4.413   6.733   0.370  2.0228 -0.6870 -0.5246
 1372TIP3   OH225606   4.279   1.752  13.630 -0.1059 -0.0703 -0.1482
 1372TIP3    H125607   4.312   1.822  13.574  0.1242 -0.8435 -0.9862
 1372TIP3    H225608   4.185   1.748  13.612 -0.2444  0.5028  0.4357
 1373TIP3   OH225609   6.032   2.378  11.924  0.3172 -0.1230 -0.0434
 1373TIP3    H125610   6.096   2.425  11.977  0.2164  0.2229 -0.2322
 1373TIP3    H225611   5.968   2.345  11.986  0.0159  0.5667  0.0163
 1374TIP3   OH225612   4.911   1.989   2.706 -0.3360 -0.0718 -0.2629
 1374TIP3    H125613   4.966   2.060   2.738 -0.4928  0.3192 -0.8608
 1374TIP3    H225614   4.902   1.930   2.781  2.1258 -0.8940 -0.5578
 1375TIP3   OH225615   4.456   2.866   4.279  0.2209  0.0222  0.5810
 1375TIP3    H125616   4.383   2.893   4.336 -0.0304  1.4227 -0.3827
 1375TIP3    H225617   4.450   2.925   4.204  2.1623 -0.0602  0.3501
 1376TIP3   OH225618   0.592   6.802   2.176 -0.1625 -0.2267  0.0981
 1376TIP3    H125619   0.615   6.872   2.237 -0.5200  0.4069 -0.4706
 1376TIP3    H225620   0.568   6.728   2.232 -0.3575  0.3003  0.7291
 1377TIP3   OH225621   1.200   2.315  15.466  0.3040  0.5635  0.0852
 1377TIP3    H125622   1.146   2.316  15.545  0.2771 -0.8591  0.1024
 1377TIP3    H225623   1.259   2.389  15.476  0.5396  0.1903  1.6175
 1378TIP3   OH225624   6.177   5.934   1.305  0.9777 -0.3658  0.4153
 1378TIP3    H125625   6.173   5.841   1.283  2.1552 -0.5375  0.8396
 1378TIP3    H225626   6.207   5.935   1.396 -0.8821  0.3926  1.0276
 1379TIP3   OH225627   2.729   6.532  10.805  0.5562  0.2832  0.0326
 1379TIP3    H125628   2.798   6.533  10.738  0.6122  0.2245  0.0899
 1379TIP3    H225629   2.691   6.620  10.801  1.9075  0.9344  1.3381
 1380TIP3   OH225630   3.203   1.112  12.618 -0.1302 -0.3327  0.1492
 1380TIP3    H125631   3.209   1.207  12.630  1.6596 -0.4853  0.5710
 1380TIP3    H225632   3.110   1.093  12.626 -0.2765  1.0923  2.2449
 1381TIP3   OH225633   0.086   1.734   2.386  0.4397 -0.0490 -0.3231
 1381TIP3    H125634   0.106   1.665   2.449 -1.2776 -0.5071 -0.2751
 1381TIP3    H225635   0.041   1.801   2.438 -0.0530  0.0338 -0.8619
 1382TIP3   OH225636   3.510   1.062   3.797  0.0238 -0.2550 -0.6533
 1382TIP3    H125637   3.482   0.994   3.735 -0.7828  0.4218 -1.0336
 1382TIP3    H225638   3.604   1.046   3.807 -0.5750 -2.9915  1.2089
 1383TIP3   OH225639   2.344   5.875   4.583 -0.2902  0.8138  0.1953
 1383TIP3    H125640   2.249   5.890   4.582 -0.5817 -1.0080 -1.4391
 1383TIP3    H225641   2.376   5.922   4.506  0.2616  2.0080  1.1282
 1384TIP3   OH225642   5.613   5.309  15.158  0.0181 -0.1887 -0.0882
 1384TIP3    H125643   5.652   5.359  15.231  1.2198 -0.9908 -0.1733
 1384TIP3    H225644   5.523   5.294  15.186  0.4424 -0.4201  1.2157
 1385TIP3   OH225645   4.363   3.959   5.494  0.0972 -0.3761 -0.6673
 1385TIP3    H125646   4.334   3.926   5.579 -0.2937  0.4211 -0.4815
 1385TIP3    H225647   4.458   3.967   5.503 -0.1304  1.4689  0.3472
 1386TIP3   OH225648   5.718   5.970   5.998  0.1282  0.3457  0.1055
 1386TIP3    H125649   5.733   6.043   6.058 -0.7803  0.6292 -0.0136
 1386TIP3    H225650   5.772   5.899   6.033  0.8993  1.0218  0.3059
 1387TIP3   OH225651   1.326   4.989   2.083 -0.1952 -0.2364 -0.0846
 1387TIP3    H125652   1.271   5.058   2.120 -0.7589  0.0102 -1.3732
 1387TIP3    H225653   1.330   5.009   1.990 -0.6282 -2.1197 -0.5272
 1388TIP3   OH225654   6.390   2.926  15.603  0.0217 -0.1336  0.3215
 1388TIP3    H125655   6.322   2.977  15.648  0.4067  0.7924 -0.1437
 1388TIP3    H225656   6.345   2.888  15.527 -0.4439 -1.0857  1.0593
 1389TIP3   OH225657   2.406   4.788  16.728  0.3194 -0.1348 -0.0493
 1389TIP3    H125658   2.466   4.716  16.748 -0.3605 -0.4053  1.0500
 1389TIP3    H225659   2.427   4.811  16.637  1.9015 -0.3957  0.2236
 1390TIP3   OH225660   2.857   3.022   0.367 -0.8900  0.5409 -0.1861
 1390TIP3    H125661   2.785   3.041   0.306 -0.1776  1.7307 -0.6600
 1390TIP3    H225662   2.887   2.934   0.341 -0.7741  0.9230 -1.3794
 1391TIP3   OH225663   2.426   1.233  13.256 -0.4569  0.1428 -0.3432
 1391TIP3    H125664   2.513   1.203  13.283  0.3674  1.7604 -1.1365
 1391TIP3    H225665   2.383   1.154  13.223  0.8910 -0.5825 -0.4136
 1392TIP3   OH225666   1.801   2.718  17.052  0.8445  0.3082  0.0773
 1392TIP3    H125667   1.755   2.798  17.078  1.7009  0.8100  0.0779
 1392TIP3    H225668   1.775   2.704  16.961 -1.1790 -0.7542  0.7870
 1393TIP3   OH225669   0.467   6.435  12.510  1.0739  0.5328  0.0688
 1393TIP3    H125670   0.483   6.416  12.418  0.0058  0.5560 -0.1240
 1393TIP3    H225671   0.382   6.478  12.512  1.0040  0.3669  1.0842
 1394TIP3   OH225672   5.110   3.467   3.801  0.1395  0.4818 -0.4865
 1394TIP3    H125673   5.041   3.474   3.735  0.4802  1.1345 -0.7730
 1394TIP3    H225674   5.070   3.416   3.872 -0.7453  1.1327 -0.5102
 1395TIP3   OH225675   2.200   1.889   4.729  0.4147  0.5927  0.0225
 1395TIP3    H125676   2.183   1.946   4.654  1.9661  0.5128 -0.4192
 1395TIP3    H225677   2.243   1.813   4.691 -1.1030 -0.6198  0.6882
 1396TIP3   OH225678   4.093   1.069   3.349 -0.5572 -0.1957 -0.2105
 1396TIP3    H125679   4.083   1.067   3.253  1.7214 -0.1874 -0.4730
 1396TIP3    H225680   4.070   1.159   3.373 -0.5967 -0.0437 -0.8060
 1397TIP3   OH225681   2.920   3.139   4.641 -0.5716 -0.1444  0.0825
 1397TIP3    H125682   2.903   3.194   4.564  1.1769 -2.7266 -2.2535
 1397TIP3    H225683   2.834   3.108   4.669 -1.2522  1.0811 -0.6432
 1398TIP3   OH225684   5.490   4.234  12.033  0.2020  0.2735 -0.2367
 1398TIP3    H125685   5.473   4.273  11.948  1.3550  1.9495  0.2612
 1398TIP3    H225686   5.536   4.152  12.013 -1.3886 -0.3901 -1.2680
 1399TIP3   OH225687   6.819   4.318   1.092 -0.0222  0.4966 -0.1572
 1399TIP3    H125688   6.886   4.301   1.157 -0.4302  0.4209  0.2500
 1399TIP3    H225689   6.763   4.385   1.132 -0.6052  0.0362 -0.1823
 1400TIP3   OH225690   2.726   2.963  14.907  0.4730 -0.1273  0.3550
 1400TIP3    H125691   2.698   2.871  14.913  0.7539 -0.1916  0.7582
 1400TIP3    H225692   2.667   3.002  14.843  1.0680 -0.8548 -0.6582
 1401TIP3   OH225693   5.867   0.139  13.452 -0.3250 -0.4735 -0.3265
 1401TIP3    H125694   5.903   0.079  13.517 -1.0264 -1.8335 -1.1583
 1401TIP3    H225695   5.935   0.146  13.385 -0.1037 -0.0490 -0.0619
 1402TIP3   OH225696   1.697   5.064   0.943 -0.1275  0.4254  0.2459
 1402TIP3    H125697   1.714   5.105   0.858  2.2125  1.1704  1.0240
 1402TIP3    H225698   1.770   5.092   0.998 -1.0830 -0.8497  2.2293
 1403TIP3   OH225699   1.657   2.822   3.949 -0.2643 -0.0590 -0.6411
 1403TIP3    H125700   1.624   2.761   4.015  1.5104  0.3891  0.7305
 1403TIP3    H225701   1.727   2.774   3.904 -0.3286  0.2063 -1.0240
 1404TIP3   OH225702   0.165   2.668  11.515  0.3706 -0.0949 -0.0934
 1404TIP3    H125703   0.111   2.651  11.593  0.8033 -0.0806  0.2110
 1404TIP3    H225704   0.237   2.722  11.548 -1.3145  2.9644 -1.1426
 1405TIP3   OH225705   1.261   1.108  11.395  0.0437 -0.2372  0.1388
 1405TIP3    H125706   1.226   1.038  11.341  1.0651 -0.1910 -0.5775
 1405TIP3    H225707   1.233   1.086  11.484 -0.3221 -1.1171 -0.1942
 1406TIP3   OH225708   0.487   0.476   2.432  0.2052  0.2841 -0.0351
 1406TIP3    H125709   0.442   0.491   2.515  0.5819 -1.8919  0.5879
 1406TIP3    H225710   0.421   0.495   2.365 -1.0799 -1.0103  0.8432
 1407TIP3   OH225711   6.188   6.232  16.557 -0.0612 -0.5015  0.2110
 1407TIP3    H125712   6.170   6.266  16.470 -0.7120 -2.5662 -0.4824
 1407TIP3    H225713   6.243   6.299  16.598 -3.2854  2.5480 -0.2089
 1408TIP3   OH225714   3.385   1.623  11.796 -0.5152  1.0861  0.3732
 1408TIP3    H125715   3.464   1.605  11.847 -0.4510  1.2751  0.3432
 1408TIP3    H225716   3.366   1.715  11.815 -0.0448  1.3811 -0.5557
 1409TIP3   OH225717   6.164   0.902  11.939 -0.1005 -0.4320 -0.1001
 1409TIP3    H125718   6.118   0.976  11.979  1.1821  0.7060 -0.6815
 1409TIP3    H225719   6.127   0.824  11.982  0.2553  0.6794  2.2970
 1410TIP3   OH225720   0.045   0.971  12.154  0.3023  0.3040 -0.2974
 1410TIP3    H125721   0.098   0.914  12.211 -0.2084 -0.1777 -0.2930
 1410TIP3    H225722   0.096   1.051  12.146  1.3365 -0.4008 -0.8276
 1411TIP3   OH225723   2.506   2.959   5.954  0.0260  0.0506 -0.1062
 1411TIP3    H125724   2.421   2.951   5.996 -0.3986  1.7368 -0.5932
 1411TIP3    H225725   2.487   2.955   5.860  0.3743  1.1305 -0.2353
 1412TIP3   OH225726   0.184   1.779  11.287  0.0879 -0.2638 -0.2991
 1412TIP3    H125727   0.228   1.823  11.214  0.2250 -0.8979 -0.6051
 1412TIP3    H225728   0.094   1.810  11.282  0.6636  1.6471  0.8125
 1413TIP3   OH225729   5.842   4.938  12.762 -0.2182 -0.9055  0.2366
 1413TIP3    H125730   5.804   4.948  12.849 -1.6452  0.2539 -0.5146
 1413TIP3    H225731   5.779   4.886  12.713 -0.4252  0.2397 -0.7391
 1414TIP3   OH225732   4.665   2.250   2.643  0.2012 -0.6250  0.3058
 1414TIP3    H125733   4.718   2.329   2.649 -0.7316  0.1525 -1.4853
 1414TIP3    H225734   4.728   2.178   2.652  1.1910  0.3010  0.8617
 1415TIP3   OH225735   2.672   2.488  11.625  0.2439  0.5271 -0.2285
 1415TIP3    H125736   2.619   2.514  11.550 -0.9536  0.7489  0.6808
 1415TIP3    H225737   2.728   2.417  11.592  0.2664  1.1435 -1.5127
 1416TIP3   OH225738   3.768   6.465   0.439 -0.1217  0.2658 -0.4367
 1416TIP3    H125739   3.816   6.548   0.444 -0.5849  0.4137  2.4244
 1416TIP3    H225740   3.714   6.464   0.518 -0.5598 -2.5112 -0.7341
 1417TIP3   OH225741   1.027   2.234  14.987  0.2913  0.0295 -0.2366
 1417TIP3    H125742   0.934   2.242  15.005  0.2340 -1.2203  0.0347
 1417TIP3    H225743   1.048   2.142  15.005  1.5163  0.2352 -0.5443
 1418TIP3   OH225744   1.484   6.351   4.105 -0.1796 -0.5758  0.2751
 1418TIP3    H125745   1.437   6.423   4.147  1.6508 -0.2394  1.8303
 1418TIP3    H225746   1.498   6.381   4.015 -1.8163 -0.1739  0.1357
 1419TIP3   OH225747   1.112   0.867   5.403  0.5480 -0.5922  0.0291
 1419TIP3    H125748   1.030   0.917   5.412  0.6891 -0.5144  0.9251
 1419TIP3    H225749   1.167   0.923   5.348  0.1250 -0.4867 -0.2970
 1420TIP3   OH225750   6.697   6.081  11.359 -0.2883 -0.0078 -0.3459
 1420TIP3    H125751   6.791   6.096  11.347 -0.0474 -0.5195  0.8031
 1420TIP3    H225752   6.665   6.057  11.272  0.8838 -1.0419 -0.5155
 1421TIP3   OH225753   0.065   4.446  16.209 -0.3140 -0.1828 -0.1069
 1421TIP3    H125754  -0.026   4.419  16.194 -0.3023  0.2824 -1.0312
 1421TIP3    H225755   0.077   4.438  16.304 -1.4374  0.1228  0.0639
 1422TIP3   OH225756   2.067   2.781   3.298  0.0637  0.4301 -0.1052
 1422TIP3    H125757   2.151   2.768   3.343  0.0266 -0.0699 -0.1817
 1422TIP3    H225758   2.092   2.799   3.207  0.0997  0.4791 -0.0857
 1423TIP3   OH225759   5.293   0.102   0.749 -0.1022 -0.5249 -0.2059
 1423TIP3    H125760   5.340   0.156   0.812 -0.3840 -1.8680  1.1689
 1423TIP3    H225761   5.321   0.013   0.767 -0.6909 -0.9944 -1.5431
 1424TIP3   OH225762   2.615   5.851   3.514 -0.4373  0.1241  0.2867
 1424TIP3    H125763   2.697   5.898   3.499  0.1267 -0.6886  0.7888
 1424TIP3    H225764   2.592   5.817   3.427  0.1634 -0.3008  0.2912
 1425TIP3   OH225765   0.214   5.518   0.440 -0.0049  0.1211  0.5795
 1425TIP3    H125766   0.296   5.475   0.418  0.5605  1.2140  0.4965
 1425TIP3    H225767   0.219   5.603   0.396 -2.3052 -0.7893 -1.5866
 1426TIP3   OH225768   1.366   1.573   0.455  0.0283  0.0367  0.2601
 1426TIP3    H125769   1.311   1.506   0.414 -1.8188 -0.0814  2.7786
 1426TIP3    H225770   1.308   1.648   0.465  0.1180 -0.2342  3.3721
 1427TIP3   OH225771   3.079   5.970   2.327 -0.0943  0.1332  0.1281
 1427TIP3    H125772   3.123   6.028   2.389  0.1860  1.0604 -0.9235
 1427TIP3    H225773   3.072   5.886   2.373  2.1636  0.1651  0.5648
 1428TIP3   OH225774   6.013   1.470  12.324  0.2239 -0.1675 -0.0380
 1428TIP3    H125775   6.040   1.487  12.234 -0.0181  1.1990  0.1344
 1428TIP3    H225776   5.917   1.472  12.321  0.2225  2.3032  0.6725
 1429TIP3   OH225777   0.566   4.106  16.858  0.3972 -0.4870 -0.3051
 1429TIP3    H125778   0.643   4.138  16.906  0.2538 -0.3633 -0.1584
 1429TIP3    H225779   0.498   4.098  16.925  0.2195 -0.3849 -0.4772
 1430TIP3   OH225780   3.260   2.134   1.125 -0.5575 -0.3920 -0.3092
 1430TIP3    H125781   3.332   2.141   1.188  0.7056 -1.9269 -1.5227
 1430TIP3    H225782   3.289   2.189   1.051 -2.5876  2.4080  0.9025
 1431TIP3   OH225783   5.093   5.118   4.000  0.3161  0.0587  0.0117
 1431TIP3    H125784   5.155   5.112   3.927  3.5280  2.3099  2.4258
 1431TIP3    H225785   5.044   5.198   3.983 -0.2457 -0.4158 -0.6300
 1432TIP3   OH225786   3.526   5.887   4.958  0.4951 -0.0665  0.5696
 1432TIP3    H125787   3.496   5.814   4.904  1.2336 -1.4204  1.9466
 1432TIP3    H225788   3.499   5.966   4.910  1.5116 -1.2259 -1.9865
 1433TIP3   OH225789   5.705   3.001  16.864  0.3437 -0.2461 -0.3454
 1433TIP3    H125790   5.622   3.010  16.910  0.9460  0.4664  0.6157
 1433TIP3    H225791   5.695   3.054  16.785 -0.0940 -0.1269 -0.2084
 1434TIP3   OH225792   0.324   0.236  13.454 -0.1767 -0.0246 -0.1995
 1434TIP3    H125793   0.397   0.222  13.394 -0.0343 -1.3237  0.2637
 1434TIP3    H225794   0.261   0.289  13.404  0.4002 -0.2100 -1.1274
 1435TIP3   OH225795   3.293   2.320   5.625 -0.3317  0.1432 -0.0642
 1435TIP3    H125796   3.259   2.271   5.700  0.0726  0.0719  0.0750
 1435TIP3    H225797   3.272   2.411   5.645  1.1506  0.2857  0.8782
 1436TIP3   OH225798   5.137   4.116  12.741 -0.2238 -0.1153  0.1632
 1436TIP3    H125799   5.102   4.138  12.654  0.6536  0.1443 -0.1234
 1436TIP3    H225800   5.189   4.037  12.727  1.7447  1.1687  0.0206
 1437TIP3   OH225801   6.042   0.750   4.759  0.2210  0.1172  0.5305
 1437TIP3    H125802   6.076   0.788   4.840  0.9590 -1.9179  1.2277
 1437TIP3    H225803   6.041   0.656   4.776  1.2468 -0.4237 -2.1504
 1438TIP3   OH225804   6.327   5.210  11.820 -0.3186 -0.0939  0.1402
 1438TIP3    H125805   6.316   5.122  11.856 -1.0956 -0.6096 -1.3523
 1438TIP3    H225806   6.306   5.201  11.727 -0.0443  1.5941 -0.0944
 1439TIP3   OH225807   2.809   3.044   3.374 -0.2049 -0.1468  0.3304
 1439TIP3    H125808   2.796   2.958   3.335 -0.5202  0.4650 -0.9241
 1439TIP3    H225809   2.750   3.102   3.326  1.2580  1.1060 -0.0046
 1440TIP3   OH225810   2.972   3.471  14.095 -0.4399  0.3230  0.2488
 1440TIP3    H125811   2.987   3.566  14.086 -1.7369  0.5788  0.7244
 1440TIP3    H225812   2.894   3.464  14.149  0.7063 -1.0473  1.7924
 1441TIP3   OH225813   4.238   6.469   5.133 -0.1949  0.2508  0.3256
 1441TIP3    H125814   4.187   6.472   5.214 -0.0444  0.8293  0.4000
 1441TIP3    H225815   4.274   6.380   5.131  1.0465  0.7072  1.6625
 1442TIP3   OH225816   6.690   4.049   1.173 -0.2889 -0.2274 -0.1563
 1442TIP3    H125817   6.631   3.979   1.144 -1.0004  0.5940 -0.7266
 1442TIP3    H225818   6.767   4.039   1.118 -0.0987 -0.9940  0.2432
 1443TIP3   OH225819   4.513   0.481  14.321  0.6360 -0.6442 -0.7320
 1443TIP3    H125820   4.498   0.475  14.227 -2.9049  1.6814 -0.4207
 1443TIP3    H225821   4.542   0.572  14.335  1.0973 -0.9601  0.4224
 1444TIP3   OH225822   5.964   5.735   0.212 -0.2263  0.0689  0.0701
 1444TIP3    H125823   6.028   5.759   0.146  0.1141 -0.9127  0.0346
 1444TIP3    H225824   5.881   5.728   0.165  0.0011 -0.5557 -0.2440
 1445TIP3   OH225825   2.406   5.292  11.461  0.4711 -0.4715  0.5619
 1445TIP3    H125826   2.482   5.243  11.432 -0.2894 -1.9614  1.0495
 1445TIP3    H225827   2.437   5.342  11.537  0.8331 -1.4711  1.0771
 1446TIP3   OH225828   0.241   6.344   4.284  0.1181  0.8801  0.7239
 1446TIP3    H125829   0.199   6.274   4.334 -0.5151 -0.0340 -1.0345
 1446TIP3    H225830   0.330   6.348   4.318  0.3341 -1.1787  0.4928
 1447TIP3   OH225831   6.457   1.233   2.304 -0.7578 -0.1866 -0.1297
 1447TIP3    H125832   6.524   1.266   2.244 -0.7591 -1.0313 -0.6000
 1447TIP3    H225833   6.447   1.303   2.369 -0.1982  0.4018 -0.6679
 1448TIP3   OH225834   3.385   1.937  15.255  0.2307  0.2006 -0.2382
 1448TIP3    H125835   3.424   1.853  15.230  1.7013  0.1095  2.2437
 1448TIP3    H225836   3.292   1.917  15.266  0.4350 -0.9167 -0.4511
 1449TIP3   OH225837   0.901   2.003   6.523  0.2061  0.5536  0.5385
 1449TIP3    H125838   0.811   1.969   6.530 -0.2785  1.7654  0.3521
 1449TIP3    H225839   0.920   2.039   6.609  0.4147  0.5441  0.4978
 1450TIP3   OH225840   6.038   1.012   5.696  0.3811  0.6347  0.1403
 1450TIP3    H125841   6.065   1.097   5.662  1.2335  0.4192  0.2811
 1450TIP3    H225842   6.012   0.962   5.619  0.2105  0.8991  0.0262
 1451TIP3   OH225843   6.558   0.504  12.246  0.1154 -0.7432 -0.2363
 1451TIP3    H125844   6.499   0.570  12.210  0.9346 -0.1593 -0.5013
 1451TIP3    H225845   6.646   0.534  12.222  0.5223 -1.6165  0.1480
 1452TIP3   OH225846   2.667   2.617  16.857  0.2448  0.2812 -0.4006
 1452TIP3    H125847   2.608   2.617  16.782  1.0172  0.5442 -1.0180
 1452TIP3    H225848   2.644   2.696  16.907 -1.3371 -0.7286  0.5043
 1453TIP3   OH225849   5.715   2.856   6.291 -0.0495  0.1244  0.4195
 1453TIP3    H125850   5.689   2.777   6.339 -0.3888  0.9229  1.5772
 1453TIP3    H225851   5.807   2.868   6.312 -0.3614  0.8379  1.4068
 1454TIP3   OH225852   0.405   3.744  15.042  0.2986  0.0563  0.0291
 1454TIP3    H125853   0.434   3.656  15.065  0.1986 -0.3450 -1.3523
 1454TIP3    H225854   0.373   3.736  14.952  0.6829  1.5988 -0.2578
 1455TIP3   OH225855   1.679   6.569  17.123  0.1773 -0.6775 -0.1918
 1455TIP3    H125856   1.748   6.635  17.112 -0.8581  0.4873  0.2059
 1455TIP3    H225857   1.714   6.509  17.188 -0.5320  1.8454  2.6297
 1456TIP3   OH225858   4.207   5.966   4.089  0.4907 -0.3580 -0.5837
 1456TIP3    H125859   4.251   6.049   4.072  0.3551 -0.1135  0.2282
 1456TIP3    H225860   4.125   5.991   4.132 -0.7648 -0.7638 -2.6534
 1457TIP3   OH225861   6.475   0.053   0.787 -0.0964 -0.7083 -0.5112
 1457TIP3    H125862   6.495  -0.029   0.833 -1.4394 -0.6392  0.2096
 1457TIP3    H225863   6.383   0.044   0.761 -0.3858  0.7821 -0.0075
 1458TIP3   OH225864   0.681   4.427  15.007  0.1660 -0.3339 -0.0745
 1458TIP3    H125865   0.632   4.362  15.057 -1.5077  0.5981 -0.4794
 1458TIP3    H225866   0.653   4.413  14.916  1.0044 -0.1028 -0.3727
 1459TIP3   OH225867   1.550   1.469   1.764 -0.0750 -0.2082 -0.5235
 1459TIP3    H125868   1.483   1.467   1.832  1.3296  0.3242  0.9047
 1459TIP3    H225869   1.556   1.379   1.733 -1.0717 -0.3545 -0.2994
 1460TIP3   OH225870   1.325   3.552  11.788  0.8304 -0.1708 -0.3967
 1460TIP3    H125871   1.329   3.518  11.699 -0.4247 -2.6699  0.4437
 1460TIP3    H225872   1.244   3.603  11.791  1.1468  0.3547 -0.8329
 1461TIP3   OH225873   2.161   6.666  12.484  0.3671  0.2660 -0.2059
 1461TIP3    H125874   2.113   6.725  12.425  0.3142  0.4286 -0.0004
 1461TIP3    H225875   2.106   6.589  12.491  0.2089  0.3907 -0.0910
 1462TIP3   OH225876   5.314   6.441   0.044  0.1311  0.1289 -0.0853
 1462TIP3    H125877   5.234   6.455  -0.007 -0.4170  2.1475  1.2817
 1462TIP3    H225878   5.305   6.354   0.080 -0.6089 -0.3607 -1.4085
 1463TIP3   OH225879   4.606   1.119   4.513  0.2398  0.1760 -0.3554
 1463TIP3    H125880   4.607   1.023   4.517 -0.9301  0.2317  1.6584
 1463TIP3    H225881   4.692   1.146   4.544 -0.2260 -0.1683  1.2595
 1464TIP3   OH225882   4.437   4.091  11.488 -0.3234 -0.0749 -0.3910
 1464TIP3    H125883   4.453   4.110  11.580  0.2309 -1.3434 -0.2167
 1464TIP3    H225884   4.346   4.062  11.485 -0.5434  0.5880 -0.3538
 1465TIP3   OH225885   4.749   6.258   0.915  0.7118 -0.3113  0.1017
 1465TIP3    H125886   4.831   6.296   0.884  0.1579 -0.2711 -1.3135
 1465TIP3    H225887   4.708   6.329   0.965  0.6286  0.2960 -0.8232
 1466TIP3   OH225888   4.108   3.042  13.304  0.4619  0.5141 -0.3127
 1466TIP3    H125889   4.086   2.956  13.269  1.4328  0.4435 -0.7830
 1466TIP3    H225890   4.145   3.090  13.229  0.2198  1.2337  0.0190
 1467TIP3   OH225891   4.130   4.735  16.902  0.2607 -0.4274 -0.1105
 1467TIP3    H125892   4.134   4.647  16.865  1.8246 -1.2697  1.9378
 1467TIP3    H225893   4.071   4.783  16.844  2.2502 -1.7748 -3.4450
 1468TIP3   OH225894   5.135   1.248  12.308  0.1692  0.1104  0.4534
 1468TIP3    H125895   5.223   1.258  12.344 -0.3566  0.2510  1.7138
 1468TIP3    H225896   5.080   1.305  12.361 -1.0152 -1.4070  0.9170
 1469TIP3   OH225897   2.533   0.948  16.180  0.9285  0.0776 -0.1356
 1469TIP3    H125898   2.450   0.982  16.211  0.7085 -1.2299  0.7275
 1469TIP3    H225899   2.582   1.026  16.153 -1.3318  0.6973 -2.5919
 1470TIP3   OH225900   3.310   5.358  16.046  0.8856 -0.1119  0.4500
 1470TIP3    H125901   3.297   5.336  16.138  0.9197  2.7075  1.1622
 1470TIP3    H225902   3.223   5.348  16.007  0.4165  0.7007  1.2514
 1471TIP3   OH225903   2.295   2.895  16.470 -0.5297  0.0881 -0.1331
 1471TIP3    H125904   2.378   2.934  16.442 -0.7353  0.1786 -0.6261
 1471TIP3    H225905   2.280   2.824  16.407 -0.4313 -0.4313  0.4337
 1472TIP3   OH225906   2.661   5.505  16.993 -0.2911  0.2267  0.0775
 1472TIP3    H125907   2.600   5.449  16.945  0.4462 -0.7240  0.2435
 1472TIP3    H225908   2.668   5.584  16.939 -1.8035  0.4315  0.1465
 1473TIP3   OH225909   4.723   1.294  11.602  0.7150  0.1343 -0.0910
 1473TIP3    H125910   4.641   1.249  11.621 -0.4211  2.6534  1.2258
 1473TIP3    H225911   4.791   1.230  11.622 -0.8737 -1.5544  0.0233
 1474TIP3   OH225912   3.846   0.255  14.459 -0.6057 -0.0576 -0.2401
 1474TIP3    H125913   3.835   0.187  14.525 -0.3876  1.3895  1.3262
 1474TIP3    H225914   3.841   0.337  14.508  0.1477  1.0354 -1.9457
 1475TIP3   OH225915   0.155   3.613   5.773 -0.4873 -0.0358  0.0873
 1475TIP3    H125916   0.122   3.673   5.839 -1.7035 -0.9362  0.3225
 1475TIP3    H225917   0.095   3.539   5.776 -0.2285 -0.3347 -1.6461
 1476TIP3   OH225918   0.259   6.255   0.626  0.3083 -0.2416  0.0917
 1476TIP3    H125919   0.228   6.287   0.541 -0.1066 -2.0803 -0.4827
 1476TIP3    H225920   0.348   6.224   0.609 -0.0828 -1.4115  0.1042
 1477TIP3   OH225921   2.900   2.538  16.153 -0.0220 -0.3531  0.0693
 1477TIP3    H125922   2.917   2.525  16.060  1.0376 -1.8351  0.4582
 1477TIP3    H225923   2.843   2.465  16.177  0.5522 -0.5670  0.8010
 1478TIP3   OH225924   5.771   4.913   3.469 -0.0016  0.1985 -0.4069
 1478TIP3    H125925   5.735   4.824   3.478  1.0576 -0.1332  0.7885
 1478TIP3    H225926   5.698   4.970   3.492 -0.2891 -0.4179  0.2710
 1479TIP3   OH225927   0.925   5.350   0.299  0.6650 -0.1943 -0.0902
 1479TIP3    H125928   0.972   5.299   0.234 -0.9683 -3.0560  0.8753
 1479TIP3    H225929   0.960   5.319   0.383 -0.5671  0.0388  0.5208
 1480TIP3   OH225930   0.879   0.399   4.393 -0.3290 -0.3979 -0.1033
 1480TIP3    H125931   0.867   0.371   4.484 -0.4484 -0.2313 -0.0670
 1480TIP3    H225932   0.792   0.426   4.364 -0.5123 -1.4855 -0.6171
 1481TIP3   OH225933   1.339   2.852   0.178 -0.2789 -0.4215 -0.4684
 1481TIP3    H125934   1.345   2.869   0.272 -0.6030 -0.5338 -0.4281
 1481TIP3    H225935   1.318   2.758   0.172  1.7435 -0.8939 -0.6824
 1482TIP3   OH225936   1.813   1.999  17.224 -0.0274  0.7014  0.0321
 1482TIP3    H125937   1.871   1.944  17.172  2.0373 -0.2137  3.1272
 1482TIP3    H225938   1.752   1.937  17.265  1.0075  0.8930  1.9197
 1483TIP3   OH225939   0.663   6.780   1.226 -0.3008 -0.4432 -0.0844
 1483TIP3    H125940   0.641   6.798   1.318 -2.8339 -2.0983 -0.3095
 1483TIP3    H225941   0.758   6.774   1.225 -0.1570  0.7947  2.2004
 1484TIP3   OH225942   6.190   3.621  16.557 -0.2380  0.2612  0.5175
 1484TIP3    H125943   6.230   3.600  16.642 -0.5901  2.9482  1.3990
 1484TIP3    H225944   6.131   3.548  16.540  2.0193 -1.7806  1.1439
 1485TIP3   OH225945   5.785   6.451  14.504 -0.2174  0.0994  0.3697
 1485TIP3    H125946   5.812   6.397  14.578 -0.3852  2.1049  1.9299
 1485TIP3    H225947   5.868   6.481  14.465 -0.1287  0.7168  1.0184
 1486TIP3   OH225948   0.564   4.165   1.702  0.4310 -1.0505 -0.6057
 1486TIP3    H125949   0.584   4.174   1.795 -0.4818 -0.5828 -0.4436
 1486TIP3    H225950   0.518   4.082   1.695  0.3554 -1.0091 -0.6098
 1487TIP3   OH225951   1.918   5.172   2.535  0.4125 -0.0087  0.2240
 1487TIP3    H125952   1.965   5.255   2.544  1.0448 -0.5729  2.4615
 1487TIP3    H225953   1.893   5.168   2.443  0.5266  2.5798  0.0585
 1488TIP3   OH225954   4.674   0.458  10.532  0.0778  0.5062  0.7735
 1488TIP3    H125955   4.593   0.497  10.500  1.4522  1.5770 -1.5777
 1488TIP3    H225956   4.667   0.366  10.507 -0.8854  0.3545  1.5824
 1489TIP3   OH225957   0.438   4.692   0.390  0.3337  0.3090 -0.9059
 1489TIP3    H125958   0.370   4.689   0.458  2.0999  0.0102  0.9024
 1489TIP3    H225959   0.395   4.655   0.312 -1.5231 -0.0302  0.2337
 1490TIP3   OH225960   0.166   1.833  11.557 -0.1447  0.1747 -0.0526
 1490TIP3    H125961   0.189   1.758  11.611 -1.4261 -0.3482 -0.2118
 1490TIP3    H225962   0.176   1.802  11.467  0.1227  0.4523 -0.1219
 1491TIP3   OH225963   4.749   6.165  12.737 -0.0822 -0.9217  0.5342
 1491TIP3    H125964   4.773   6.141  12.648  1.9539  0.0288  0.8149
 1491TIP3    H225965   4.691   6.240  12.727  1.4777  0.2427  0.0586
 1492TIP3   OH225966   1.770   2.005  11.491 -0.1763  0.3344 -0.0484
 1492TIP3    H125967   1.753   2.098  11.507  1.2310  0.6688 -0.4194
 1492TIP3    H225968   1.712   1.981  11.419  0.2441  1.2147 -0.6836
 1493TIP3   OH225969   4.912   5.515  13.544  0.1531 -0.0724  0.4184
 1493TIP3    H125970   4.940   5.438  13.594 -1.1205 -0.0078  1.2530
 1493TIP3    H225971   4.821   5.497  13.522 -0.2767  1.3735  0.9534
 1494TIP3   OH225972   3.109   6.138  16.820  0.1925 -0.1612 -0.8385
 1494TIP3    H125973   3.155   6.220  16.836  1.2525 -1.0567  0.7930
 1494TIP3    H225974   3.154   6.099  16.745 -0.5775  0.9182 -1.8844
 1495TIP3   OH225975   4.936   4.616  11.038  0.1054 -0.4305 -0.5721
 1495TIP3    H125976   5.013   4.562  11.020  1.1083  1.1542 -1.2129
 1495TIP3    H225977   4.878   4.559  11.088  1.6740 -1.6848 -0.1168
 1496TIP3   OH225978   1.798   5.225   1.321 -0.5375  0.8613 -0.6528
 1496TIP3    H125979   1.720   5.257   1.276 -0.3976 -0.7273 -2.0429
 1496TIP3    H225980   1.764   5.172   1.394 -0.7864 -1.1819 -2.2216
 1497TIP3   OH225981   5.902   0.018   6.390  0.1698  0.3527 -0.0226
 1497TIP3    H125982   5.832   0.080   6.411  0.2709  0.5497 -0.2595
 1497TIP3    H225983   5.874  -0.065   6.428 -0.8499  0.0904 -1.3269
 1498TIP3   OH225984   6.664   2.600   4.028 -0.2761  0.2950  0.2359
 1498TIP3    H125985   6.683   2.547   4.106  0.2448  0.2295  0.0679
 1498TIP3    H225986   6.581   2.566   3.995  0.5522 -1.0990 -0.4509
 1499TIP3   OH225987   0.933   3.618   1.022 -0.2624 -0.2971  0.1293
 1499TIP3    H125988   0.841   3.611   1.048  0.5358 -4.3048  2.3284
 1499TIP3    H225989   0.938   3.570   0.939  0.0595 -1.1028  0.6149
 1500TIP3   OH225990   5.624   1.902   3.849 -0.0894 -0.5734  0.0833
 1500TIP3    H125991   5.599   1.882   3.759  1.6866  0.4703 -0.6509
 1500TIP3    H225992   5.672   1.825   3.879 -0.7461 -0.9515  0.1722
 1501TIP3   OH225993   4.650   5.669  10.635  0.3073  0.0296  0.1056
 1501TIP3    H125994   4.588   5.682  10.564 -0.5128  0.1836  0.8325
 1501TIP3    H225995   4.685   5.581  10.621  0.2453  0.1112 -0.5571
 1502TIP3   OH225996   0.516   2.198  13.801 -0.2352  0.2014 -0.3904
 1502TIP3    H125997   0.546   2.146  13.727 -1.1119  0.9624 -1.2865
 1502TIP3    H225998   0.563   2.282  13.791 -1.7261  0.9633 -1.1233
 1503TIP3   OH225999   2.177   1.673   2.469  0.1079 -0.4210 -0.2959
 1503TIP3    H126000   2.148   1.752   2.424  1.4420 -0.6650 -1.6268
 1503TIP3    H226001   2.097   1.632   2.501 -0.7761  0.2600 -1.6273
 1504TIP3   OH226002   3.840   6.489   3.743  0.1991 -0.0805  0.3137
 1504TIP3    H126003   3.788   6.441   3.807  0.2554  0.3678  0.7043
 1504TIP3    H226004   3.783   6.496   3.666  1.1769 -3.0550 -0.7193
 1505TIP3   OH226005   1.101   6.266  10.995  0.3991 -0.3565  0.3541
 1505TIP3    H126006   1.143   6.197  11.047 -0.5253  0.1601  1.8002
 1505TIP3    H226007   1.008   6.257  11.015  0.1248  0.3639 -0.6082
 1506TIP3   OH226008   2.532   0.686   1.172  0.6940  0.1106  0.1360
 1506TIP3    H126009   2.552   0.715   1.261 -2.1662 -0.7620  1.1352
 1506TIP3    H226010   2.474   0.754   1.138 -0.6188 -1.0320  0.0466
 1507TIP3   OH226011   2.651   3.122   1.438  0.3176  0.1455 -0.3450
 1507TIP3    H126012   2.590   3.192   1.415 -0.1379 -0.2005 -0.2192
 1507TIP3    H226013   2.711   3.162   1.501 -1.2474 -0.1386  1.3591
 1508TIP3   OH226014   3.299   5.371  17.239 -0.3560 -0.7017 -0.2778
 1508TIP3    H126015   3.301   5.442  17.174 -1.6778  0.1577  0.6075
 1508TIP3    H226016   3.374   5.388  17.295 -1.4175  0.8126  0.7449
 1509TIP3   OH226017   4.484   0.500  12.347  0.1371 -0.0640 -0.2124
 1509TIP3    H126018   4.448   0.538  12.427 -1.5569 -0.2434 -0.8567
 1509TIP3    H226019   4.465   0.407  12.354  1.9103 -0.4138  0.1520
 1510TIP3   OH226020   4.493   2.197   3.300  0.6306  0.0049 -0.3281
 1510TIP3    H126021   4.409   2.236   3.323  1.6220  0.3956  2.8023
 1510TIP3    H226022   4.482   2.104   3.316 -0.3210 -0.4855 -3.5037
 1511TIP3   OH226023   5.096   1.954   1.569 -0.3748  0.1468 -0.2037
 1511TIP3    H126024   5.081   1.913   1.655  0.1681  1.1589  0.3868
 1511TIP3    H226025   5.129   2.041   1.590  1.0134 -0.0625 -1.4535
 1512TIP3   OH226026   0.403   0.409   3.813 -0.7210  0.1064 -0.4204
 1512TIP3    H126027   0.408   0.428   3.907 -0.2032 -1.4814 -0.1076
 1512TIP3    H226028   0.470   0.343   3.799 -1.2828 -0.1758 -1.7871
 1513TIP3   OH226029   5.322   3.304  14.462  0.1843 -0.2983  0.1701
 1513TIP3    H126030   5.351   3.337  14.547  3.6026 -0.1016 -1.0150
 1513TIP3    H226031   5.323   3.209  14.472  0.6271 -0.2761  0.3405
 1514TIP3   OH226032   1.024   5.883  15.592 -0.1467 -0.0247 -0.1128
 1514TIP3    H126033   1.033   5.918  15.681 -1.0977 -2.0248  0.8003
 1514TIP3    H226034   0.939   5.916  15.562  0.2143  0.7237 -0.3376
 1515TIP3   OH226035   3.208   4.641   0.781  0.1732 -0.0406  0.5053
 1515TIP3    H126036   3.299   4.619   0.761  0.6613  2.2648  0.0389
 1515TIP3    H226037   3.183   4.703   0.714 -1.0854  0.9143  1.8282
 1516TIP3   OH226038   0.205   4.027   0.738 -0.5499 -0.3343 -0.0856
 1516TIP3    H126039   0.206   4.031   0.642  0.2586 -0.2744 -0.0757
 1516TIP3    H226040   0.248   3.944   0.759 -0.2042 -0.0757  0.2372
 1517TIP3   OH226041   0.608   1.569  16.384  0.7269 -0.0636 -0.0749
 1517TIP3    H126042   0.621   1.593  16.475  0.8141 -0.5472  0.0406
 1517TIP3    H226043   0.537   1.625  16.354 -0.3854 -1.0076  0.7478
 1518TIP3   OH226044   4.494   2.554  12.683  0.6637  0.2692 -0.0465
 1518TIP3    H126045   4.416   2.507  12.712 -0.2116  1.1928 -0.8438
 1518TIP3    H226046   4.548   2.488  12.641  0.1980 -0.3372  0.3129
 1519TIP3   OH226047   2.222   0.206  12.430  0.0908  0.0624 -0.1888
 1519TIP3    H126048   2.176   0.202  12.514 -0.2710  1.0294 -0.3396
 1519TIP3    H226049   2.166   0.259  12.374  2.3951  3.1626  0.2739
 1520TIP3   OH226050   0.853   5.779   4.562  0.3797 -0.2836  0.4296
 1520TIP3    H126051   0.860   5.840   4.636  1.8525 -1.1275  1.0068
 1520TIP3    H226052   0.943   5.762   4.537 -0.0789 -1.0727 -0.6963
 1521TIP3   OH226053   6.527   1.638  12.220  0.0674  0.1719  0.4659
 1521TIP3    H126054   6.517   1.705  12.152 -0.1148  0.1052  0.4262
 1521TIP3    H226055   6.476   1.564  12.188  1.1247 -0.3658  0.0192
 1522TIP3   OH226056   1.638   6.613   5.658 -0.1982 -0.3511  0.2581
 1522TIP3    H126057   1.727   6.644   5.676  0.3786 -1.6659 -0.2624
 1522TIP3    H226058   1.602   6.594   5.744  0.4952 -1.0660  0.3983
 1523TIP3   OH226059   0.145   0.025  14.184  0.2034  0.4413  0.4509
 1523TIP3    H126060   0.140   0.119  14.164  0.8047  0.5659  0.8736
 1523TIP3    H226061   0.060   0.005  14.224 -0.3315  0.5712 -0.5958
 1524TIP3   OH226062   0.844   4.279   0.978 -0.1272  0.3406 -0.0784
 1524TIP3    H126063   0.751   4.284   0.998 -0.1289 -0.9438  0.2542
 1524TIP3    H226064   0.855   4.335   0.901 -1.3999 -0.4789 -0.8641
 1525TIP3   OH226065   4.685   6.254  14.250  0.8125 -0.1108 -0.1687
 1525TIP3    H126066   4.757   6.217  14.200 -0.2703 -2.7165  0.1541
 1525TIP3    H226067   4.615   6.190  14.243 -1.6214  2.4991 -0.7249
 1526TIP3   OH226068   3.969   5.826  15.530  0.8998 -0.3038 -0.6823
 1526TIP3    H126069   4.045   5.795  15.481  2.2832  2.6931 -0.5233
 1526TIP3    H226070   4.003   5.847  15.617 -0.8439 -2.2241  0.5232
 1527TIP3   OH226071   5.397   3.371   0.768 -0.4118  0.5544 -0.5920
 1527TIP3    H126072   5.391   3.465   0.751 -0.5888  0.7399  0.4151
 1527TIP3    H226073   5.313   3.349   0.809  0.4825  0.4303  1.2393
 1528TIP3   OH226074   4.103   5.563  14.431 -0.0706  0.1542  0.0284
 1528TIP3    H126075   4.125   5.653  14.405  0.4123  0.7057  2.2916
 1528TIP3    H226076   4.094   5.516  14.348  2.5446  1.6140 -1.1330
 1529TIP3   OH226077   1.742   2.181  14.668  0.6689 -0.2112  0.3396
 1529TIP3    H126078   1.741   2.133  14.586 -0.6428 -0.3046  0.4106
 1529TIP3    H226079   1.674   2.140  14.721  1.7409 -0.3925  1.6171
 1530TIP3   OH226080   3.067   3.971   4.976 -0.3656 -0.7379 -0.5661
 1530TIP3    H126081   3.070   3.988   5.070  0.4348 -1.5699 -0.4339
 1530TIP3    H226082   3.073   4.058   4.936 -2.2552 -0.2325  0.1535
 1531TIP3   OH226083   5.589   1.862   1.869 -0.1180 -0.0233  0.1368
 1531TIP3    H126084   5.631   1.948   1.858 -1.1154  0.3967 -0.4328
 1531TIP3    H226085   5.536   1.851   1.790  1.0406 -1.7598 -0.4248
 1532TIP3   OH226086   3.584   6.252  13.703 -0.0050  0.7370  0.4571
 1532TIP3    H126087   3.580   6.286  13.792  1.0314  1.3545  0.2826
 1532TIP3    H226088   3.510   6.292  13.658 -0.5476  0.4001  1.0527
 1533TIP3   OH226089   2.777   1.269   6.369 -0.3296  0.0377  0.0904
 1533TIP3    H126090   2.846   1.217   6.408 -0.4122 -0.5958 -0.5920
 1533TIP3    H226091   2.736   1.211   6.305 -0.1974  1.0449 -0.9292
 1534TIP3   OH226092   1.877   2.638   1.823 -0.5633  0.1386  0.3572
 1534TIP3    H126093   1.873   2.690   1.743 -0.6605 -1.5630 -0.7628
 1534TIP3    H226094   1.844   2.552   1.797  2.6060 -1.4623  1.4006
 1535TIP3   OH226095   1.042   2.511  16.340  0.5239 -0.0482  0.7600
 1535TIP3    H126096   0.988   2.517  16.419  0.4191  0.0030  0.6842
 1535TIP3    H226097   0.988   2.550  16.271  0.2766 -0.8396  0.4941
 1536TIP3   OH226098   0.958   4.541   3.567  0.2396 -0.0432  0.2187
 1536TIP3    H126099   0.890   4.548   3.499  0.7438 -0.8314 -0.3818
 1536TIP3    H226100   0.953   4.450   3.596  0.5472  0.0907  0.6948
 1537TIP3   OH226101   2.956   0.911  12.915  0.6086 -0.0865  0.3825
 1537TIP3    H126102   2.945   0.956  12.999 -0.2523 -0.6421  0.5705
 1537TIP3    H226103   3.036   0.860  12.926 -0.7607 -2.0504  1.7413
 1538TIP3   OH226104   0.621   1.558   2.188 -0.1755 -0.0979  0.4058
 1538TIP3    H126105   0.597   1.623   2.121 -1.6043 -1.4389 -0.4177
 1538TIP3    H226106   0.589   1.475   2.153 -0.1571 -0.9530  2.3633
 1539TIP3   OH226107   1.109   0.845  15.407 -0.6576  0.2532 -0.2278
 1539TIP3    H126108   1.176   0.790  15.365 -1.7308 -0.0367 -1.5982
 1539TIP3    H226109   1.086   0.798  15.487  0.6743  0.2902  0.1975
 1540TIP3   OH226110   5.559   6.418  13.167 -0.7172  0.3159 -0.3406
 1540TIP3    H126111   5.642   6.395  13.125 -1.4181 -0.1303 -1.5212
 1540TIP3    H226112   5.566   6.512  13.185  0.3853  0.1006  0.3728
 1541TIP3   OH226113   0.861   4.649   4.922  0.4693  0.1414 -0.2644
 1541TIP3    H126114   0.907   4.568   4.902  0.0789 -0.1324 -0.0624
 1541TIP3    H226115   0.779   4.644   4.872  0.3391  0.3011 -0.0732
 1542TIP3   OH226116   1.683   5.737   1.371 -0.1497 -0.3357  0.0686
 1542TIP3    H126117   1.641   5.651   1.375  0.4438 -0.6022  0.8323
 1542TIP3    H226118   1.617   5.797   1.404 -0.3881 -0.5753  0.0308
 1543TIP3   OH226119   4.958   5.149  12.583  0.4465 -0.6023  0.4860
 1543TIP3    H126120   5.015   5.222  12.607  2.3196 -2.1812  0.9553
 1543TIP3    H226121   4.902   5.135  12.659  0.8629 -0.3868  0.8313
 1544TIP3   OH226122   4.388   6.170  16.063  0.4795  0.2139 -0.0360
 1544TIP3    H126123   4.347   6.106  16.122  1.9572 -1.1046 -0.4092
 1544TIP3    H226124   4.376   6.132  15.976  0.9021  0.7203 -0.3112
 1545TIP3   OH226125   2.659   1.994   2.406  0.3405 -0.4560 -0.2020
 1545TIP3    H126126   2.610   2.037   2.336  0.1693  1.1441  0.8765
 1545TIP3    H226127   2.719   2.061   2.439  1.4276 -1.6121  0.2447
 1546TIP3   OH226128   4.629   4.417   2.645 -0.0308  0.1615 -0.2544
 1546TIP3    H126129   4.721   4.389   2.652  0.4726  1.7014 -0.3748
 1546TIP3    H226130   4.611   4.417   2.551  0.1781  0.8207 -0.3020
 1547TIP3   OH226131   4.787   4.654  17.043  0.3903 -0.0550 -0.4749
 1547TIP3    H126132   4.866   4.620  17.084  0.1799 -0.5497 -0.4756
 1547TIP3    H226133   4.715   4.606  17.085  0.2139 -1.0575 -1.8930
 1548TIP3   OH226134   3.520   2.905  16.025 -0.2116 -0.0906 -0.5211
 1548TIP3    H126135   3.540   2.822  16.068  1.3002  0.7027  0.3308
 1548TIP3    H226136   3.513   2.882  15.932 -1.2697 -1.4096 -0.1354
 1549TIP3   OH226137   2.912   0.756  15.995 -0.2807 -0.2865 -0.1345
 1549TIP3    H126138   2.996   0.774  15.952  0.3849  3.2109  2.3837
 1549TIP3    H226139   2.848   0.806  15.944 -0.2712 -0.0713  0.0658
 1550TIP3   OH226140   4.144   2.446   3.850  0.1806 -0.9285  0.2212
 1550TIP3    H126141   4.238   2.434   3.857 -0.1247 -2.1785  2.7252
 1550TIP3    H226142   4.123   2.508   3.921 -0.6334  0.9482 -1.5939
 1551TIP3   OH226143   1.725   1.739  14.057  0.2934  0.2072 -0.1241
 1551TIP3    H126144   1.666   1.779  13.992  1.1847 -0.9130 -1.6439
 1551TIP3    H226145   1.797   1.704  14.005  2.0436  1.0564  1.6638
 1552TIP3   OH226146   5.664   0.201   0.759 -0.6177 -0.0242  0.0027
 1552TIP3    H126147   5.592   0.239   0.709 -0.4232  0.6266  0.2160
 1552TIP3    H226148   5.632   0.198   0.849 -0.7406 -0.6379 -0.0557
 1553TIP3   OH226149   3.354   6.773  14.233 -0.2276 -0.2017  0.1359
 1553TIP3    H126150   3.270   6.780  14.278 -0.8780 -1.2422 -0.9051
 1553TIP3    H226151   3.349   6.836  14.161 -0.6015 -1.1393 -0.6703
 1554TIP3   OH226152   5.645   5.783  17.126 -0.6891 -0.1013  0.2223
 1554TIP3    H126153   5.591   5.735  17.063 -0.4360  2.1266 -1.7582
 1554TIP3    H226154   5.582   5.827  17.183 -1.0104  1.2237 -1.1085
 1555TIP3   OH226155   6.055   2.426  15.373 -0.0213  0.8967 -0.4485
 1555TIP3    H126156   6.008   2.509  15.375 -0.9865  0.4049 -2.1124
 1555TIP3    H226157   6.143   2.448  15.404 -0.4574  2.3928 -0.2219
 1556TIP3   OH226158   5.975   0.624   6.452 -0.0185  0.4410 -0.3028
 1556TIP3    H126159   6.045   0.564   6.477 -0.5250 -0.1048 -0.1857
 1556TIP3    H226160   6.011   0.711   6.467  0.7115  0.1639 -0.4491
 1557TIP3   OH226161   1.245   1.740   3.759 -0.2370 -0.8850  0.2512
 1557TIP3    H126162   1.244   1.691   3.842  0.8023 -1.3454  0.0092
 1557TIP3    H226163   1.304   1.690   3.703  0.4599  0.3860 -0.1689
 1558TIP3   OH226164   3.363   4.024  16.872 -0.0746  0.4163 -0.1569
 1558TIP3    H126165   3.382   4.072  16.953 -0.1474  2.3749 -1.2802
 1558TIP3    H226166   3.297   4.077  16.827  0.0719 -0.5811 -1.5881
 1559TIP3   OH226167   0.141   2.396   5.404 -0.2627  0.1484  0.0568
 1559TIP3    H126168   0.068   2.336   5.417 -1.7703  1.7974 -0.7407
 1559TIP3    H226169   0.204   2.345   5.352 -0.9297 -1.1846  0.5257
 1560TIP3   OH226170   4.023   5.565  16.618 -0.7413 -0.1782 -0.4980
 1560TIP3    H126171   4.031   5.660  16.617  0.0691 -0.2389 -0.5821
 1560TIP3    H226172   3.965   5.545  16.544  0.4843  0.1460 -1.5756
 1561TIP3   OH226173   5.294   0.549   4.869 -0.6212  0.0511  0.9032
 1561TIP3    H126174   5.377   0.546   4.917  0.9795 -1.3419 -1.7730
 1561TIP3    H226175   5.308   0.617   4.802 -1.1993 -0.9771 -0.2796
 1562TIP3   OH226176   5.635   2.384   0.271 -0.6171 -0.4215 -0.1089
 1562TIP3    H126177   5.683   2.317   0.222 -0.3238 -0.2522 -0.0534
 1562TIP3    H226178   5.661   2.466   0.230  1.2359 -0.0859  1.6254
 1563TIP3   OH226179   3.959   1.248   3.097  0.2098  0.1851  0.0569
 1563TIP3    H126180   3.918   1.309   3.036  0.5448  0.3676  0.0157
 1563TIP3    H226181   3.908   1.256   3.177 -0.7194 -0.6151 -0.4359
 1564TIP3   OH226182   4.361   4.583  16.589 -0.1483 -0.8994 -0.7053
 1564TIP3    H126183   4.416   4.560  16.514  2.4883 -0.4126  1.0242
 1564TIP3    H226184   4.422   4.595  16.661 -2.4903  0.2514  1.1598
 1565TIP3   OH226185   6.344   2.935   0.688 -0.0266  0.3159  0.3218
 1565TIP3    H126186   6.263   2.885   0.691  0.6407 -0.8423 -0.5707
 1565TIP3    H226187   6.316   3.024   0.665 -0.9677 -0.2450 -0.7491
 1566TIP3   OH226188   4.997   2.520   6.758 -0.0437 -0.0441 -0.2887
 1566TIP3    H126189   5.055   2.557   6.825  0.3327  0.5163 -0.9188
 1566TIP3    H226190   4.936   2.591   6.739  0.7735  0.3142 -1.6165
 1567TIP3   OH226191   2.350   3.068  12.755 -0.2850  0.2091  0.0971
 1567TIP3    H126192   2.280   3.129  12.732 -0.9018  0.5963  2.9057
 1567TIP3    H226193   2.305   2.990  12.785  0.5224 -1.0106 -1.7358
 1568TIP3   OH226194   2.181   2.531   4.879  0.1143  0.1326 -0.2693
 1568TIP3    H126195   2.134   2.499   4.956 -1.2463  0.7954 -0.8033
 1568TIP3    H226196   2.271   2.500   4.891 -0.4161 -1.0267  0.8523
 1569TIP3   OH226197   3.308   0.172  10.859  0.4552 -0.0036 -0.3550
 1569TIP3    H126198   3.241   0.115  10.822  1.9351 -1.1167 -1.3646
 1569TIP3    H226199   3.378   0.113  10.886  1.1102  1.1543  0.5072
 1570TIP3   OH226200   4.260   4.555   2.697  0.3879  0.3432 -0.6698
 1570TIP3    H126201   4.211   4.528   2.619  0.7902 -0.5854 -0.6111
 1570TIP3    H226202   4.194   4.563   2.766  0.0169  1.2589 -1.1231
 1571TIP3   OH226203   0.856   6.310  12.174  0.2074  0.2452 -0.3249
 1571TIP3    H126204   0.854   6.305  12.269 -0.3092 -0.3151 -0.3659
 1571TIP3    H226205   0.919   6.380  12.155  0.1069  0.5395  0.4256
 1572TIP3   OH226206   2.917   4.843   0.288  0.1538 -0.1317 -0.1931
 1572TIP3    H126207   2.853   4.914   0.296 -0.5456 -0.4212 -2.7450
 1572TIP3    H226208   2.867   4.768   0.258  1.0846 -1.4556  1.4641
 1573TIP3   OH226209   2.871   2.678   5.800 -0.1818 -0.0738 -0.1528
 1573TIP3    H126210   2.881   2.650   5.709 -1.4521 -0.2052 -0.2713
 1573TIP3    H226211   2.954   2.656   5.842  0.0627 -0.8958 -1.0574
 1574TIP3   OH226212   4.950   3.754  13.308 -0.3099 -0.0202  0.3884
 1574TIP3    H126213   4.952   3.844  13.276  2.8601  0.3794  1.5241
 1574TIP3    H226214   4.917   3.761  13.398 -0.7453 -0.0871  0.2354
 1575TIP3   OH226215   5.618   2.611   4.433  0.4433  0.6941 -0.6614
 1575TIP3    H126216   5.689   2.654   4.481  0.9064 -0.4472 -0.3138
 1575TIP3    H226217   5.542   2.617   4.492  0.0274  2.5669 -1.3348
 1576TIP3   OH226218   1.774   0.622  17.056 -0.1525 -0.4045  0.3387
 1576TIP3    H126219   1.698   0.565  17.068 -1.8315  2.0477  1.7772
 1576TIP3    H226220   1.826   0.609  17.135 -1.3152  1.1230  1.3979
 1577TIP3   OH226221   0.319   6.672  15.980 -0.2900 -0.3478 -0.1682
 1577TIP3    H126222   0.341   6.624  15.899  2.5654  2.5152 -1.1756
 1577TIP3    H226223   0.269   6.748  15.950  0.0909  0.3151  0.8666
 1578TIP3   OH226224   2.983   3.829   0.160  0.0422 -0.1624  0.7461
 1578TIP3    H126225   3.001   3.736   0.175 -1.2403 -0.5235  0.0751
 1578TIP3    H226226   2.916   3.830   0.093  0.4282  1.2766  0.3654
 1579TIP3   OH226227   2.033   5.650   1.137 -0.0822 -0.1629 -0.3035
 1579TIP3    H126228   2.113   5.633   1.087  0.8876 -2.5405  1.9829
 1579TIP3    H226229   2.064   5.688   1.219 -1.2201 -1.7905  0.9042
 1580TIP3   OH226230   4.040   0.006   5.930 -0.7903  0.4446  0.3934
 1580TIP3    H126231   4.110   0.057   5.971 -0.7734  0.5310  0.2584
 1580TIP3    H226232   4.000  -0.042   6.002 -2.1627  2.2563  0.8569
 1581TIP3   OH226233   5.514   5.610  16.587  0.5488 -0.3642  0.4231
 1581TIP3    H126234   5.422   5.592  16.566 -0.0675  1.1462  1.7707
 1581TIP3    H226235   5.549   5.650  16.507 -0.2046 -0.1039  0.2191
 1582TIP3   OH226236   6.580   6.131  15.940  0.0667  0.0876  0.0875
 1582TIP3    H126237   6.598   6.189  15.866 -2.2871  0.4336 -0.2553
 1582TIP3    H226238   6.602   6.184  16.017 -2.3885  1.5889 -0.2085
 1583TIP3   OH226239   2.833   4.223   2.120  0.2463  0.2872 -0.0867
 1583TIP3    H126240   2.748   4.237   2.161 -1.0411  0.8615 -2.7953
 1583TIP3    H226241   2.894   4.274   2.173 -1.4943  1.7130  0.5892
 1584TIP3   OH226242   1.873   1.455  16.154  0.2830  0.1838 -0.2373
 1584TIP3    H126243   1.900   1.408  16.075  1.6177 -0.6272  0.6684
 1584TIP3    H226244   1.822   1.529  16.122  0.0926 -0.6133 -1.8158
 1585TIP3   OH226245   1.244   0.046  12.279 -0.6332  0.5316  0.0290
 1585TIP3    H126246   1.280  -0.024  12.226  1.2061 -0.0243  1.9726
 1585TIP3    H226247   1.267   0.126  12.231  0.7823  0.0281 -0.1645
 1586TIP3   OH226248   6.787   2.521   1.604 -0.5205  0.0001  0.8572
 1586TIP3    H126249   6.753   2.605   1.574 -0.0671  0.6678  2.1559
 1586TIP3    H226250   6.775   2.524   1.699 -0.8531 -1.5625  0.8684
 1587TIP3   OH226251   5.552   5.940   3.057 -0.6415  0.5923  0.1536
 1587TIP3    H126252   5.568   5.974   3.145 -1.4031  0.9436  0.1614
 1587TIP3    H226253   5.520   5.851   3.071 -1.2912  0.8394  0.2618
 1588TIP3   OH226254   0.870   0.177   2.553 -0.6278 -0.0158 -0.0229
 1588TIP3    H126255   0.818   0.247   2.514  1.6472  0.4143 -2.4165
 1588TIP3    H226256   0.832   0.096   2.517 -1.9255  0.0736  1.1093
 1589TIP3   OH226257   1.474   5.947  15.843  0.3959  0.3112  0.1332
 1589TIP3    H126258   1.397   6.003  15.855  0.4289  0.4808 -0.4169
 1589TIP3    H226259   1.448   5.885  15.774 -0.1053 -1.2046  1.6545
 1590TIP3   OH226260   1.931   1.616  14.312  0.4633 -0.2048 -0.2413
 1590TIP3    H126261   1.992   1.636  14.384  1.0972  1.5252 -1.2438
 1590TIP3    H226262   1.975   1.549  14.261 -0.0071 -1.4783  0.9829
 1591TIP3   OH226263   0.814   6.350  12.438  0.1427 -0.2964 -0.5597
 1591TIP3    H126264   0.830   6.361  12.532 -0.5863 -1.7449 -0.2478
 1591TIP3    H226265   0.799   6.439  12.405  2.8075  0.5082  0.2250
 1592TIP3   OH226266   2.324   4.129  14.316 -0.3486  0.4209 -0.1219
 1592TIP3    H126267   2.284   4.042  14.316 -2.4397  1.3481  1.1368
 1592TIP3    H226268   2.279   4.176  14.246  2.2542 -0.1089 -2.2426
 1593TIP3   OH226269   0.685   6.336  10.823 -0.0602 -0.1559  0.4126
 1593TIP3    H126270   0.599   6.376  10.836  0.0205 -0.3748  1.7587
 1593TIP3    H226271   0.720   6.377  10.744 -1.0976  0.4632  0.2736
 1594TIP3   OH226272   5.801   5.790   1.756  0.5696  0.9845 -0.1331
 1594TIP3    H126273   5.723   5.845   1.765  1.4500  2.0403  1.3129
 1594TIP3    H226274   5.785   5.717   1.816 -0.0053  0.3392 -1.0528
 1595TIP3   OH226275   0.753   5.886  11.998  0.5983  0.4347 -0.1374
 1595TIP3    H126276   0.802   5.914  12.075  1.9009  0.3213 -0.8939
 1595TIP3    H226277   0.734   5.967  11.951  1.3688  0.3606 -0.5900
 1596TIP3   OH226278   4.697   5.306   5.814  0.3970  0.0459 -0.2416
 1596TIP3    H126279   4.767   5.317   5.878  1.1755 -1.0889 -0.8674
 1596TIP3    H226280   4.625   5.267   5.864  1.5667 -2.3682 -0.3275
 1597TIP3   OH226281   2.989   5.355  15.969 -0.4027  0.2380 -0.1755
 1597TIP3    H126282   2.932   5.311  16.032  2.7375 -0.0221  2.6755
 1597TIP3    H226283   2.998   5.292  15.897 -1.4649 -0.8748  0.6376
 1598TIP3   OH226284   3.139   5.087  14.946  0.0658  0.2244  0.2981
 1598TIP3    H126285   3.065   5.122  14.996  0.7846  0.6299  1.0901
 1598TIP3    H226286   3.159   5.155  14.882 -0.3880  0.0176 -0.0658
 1599TIP3   OH226287   4.394   5.339  14.698 -0.3846 -0.1547  0.1482
 1599TIP3    H126288   4.391   5.399  14.624  2.1763 -0.5263 -0.2785
 1599TIP3    H226289   4.388   5.251  14.659  0.0337 -0.3201  0.4541
 1600TIP3   OH226290   6.233   6.481   2.384 -0.5116 -0.4231 -0.2253
 1600TIP3    H126291   6.167   6.424   2.423 -0.2329  0.1050  1.0480
 1600TIP3    H226292   6.248   6.445   2.297 -1.5975 -1.2603 -0.0699
 1601TIP3   OH226293   0.289   3.970  13.463 -0.0267 -0.3805  0.2494
 1601TIP3    H126294   0.265   3.879  13.481 -1.0251 -0.0589  0.5880
 1601TIP3    H226295   0.206   4.018  13.467  0.5987  0.6655  0.8444
 1602TIP3   OH226296   4.139   3.055   4.812  0.2900 -0.4613  0.1963
 1602TIP3    H126297   4.196   2.978   4.806 -0.7001 -1.1864 -0.2275
 1602TIP3    H226298   4.133   3.088   4.722 -1.4214 -1.5113 -0.1150
 1603TIP3   OH226299   0.909   1.478  12.548  0.1653 -0.5150  0.4080
 1603TIP3    H126300   0.916   1.490  12.643  0.5959 -3.8259  0.8427
 1603TIP3    H226301   0.990   1.516  12.513  0.1919  0.3523  1.3887
 1604TIP3   OH226302   0.951   0.769  17.148  0.6449  0.3550  0.3028
 1604TIP3    H126303   0.907   0.854  17.144  1.6518  0.9639  1.6751
 1604TIP3    H226304   1.026   0.784  17.205 -0.1734 -1.9035  2.0620
 1605TIP3   OH226305   3.617   1.535   0.846  0.1864  0.7329 -0.2287
 1605TIP3    H126306   3.546   1.538   0.782  1.0652  0.8437 -1.2054
 1605TIP3    H226307   3.574   1.510   0.928 -1.0577  1.2715 -0.6972
 1606TIP3   OH226308   3.380   5.553   5.822 -0.6706  0.3773 -0.0013
 1606TIP3    H126309   3.462   5.569   5.777 -0.4577 -1.2116 -0.1799
 1606TIP3    H226310   3.313   5.591   5.765  0.0635  3.7505  1.2107
 1607TIP3   OH226311   1.719   2.504  10.753  0.0061 -0.0787  0.0904
 1607TIP3    H126312   1.711   2.526  10.660 -1.7610  0.1364  0.2760
 1607TIP3    H226313   1.633   2.523  10.790 -0.4372 -3.6357  1.0651
 1608TIP3   OH226314   3.805   0.089  14.670 -1.0910  0.3204  0.8073
 1608TIP3    H126315   3.813   0.146  14.747  0.1258  0.7106  0.4017
 1608TIP3    H226316   3.808   0.001  14.706  0.7188  0.4830  1.1287
 1609TIP3   OH226317   3.188   5.219   4.200  0.1917  0.3873 -0.6634
 1609TIP3    H126318   3.145   5.254   4.277  2.6078  1.6190  0.1733
 1609TIP3    H226319   3.164   5.127   4.199 -1.4414  0.7728  0.4363
 1610TIP3   OH226320   1.315   0.896  16.039 -0.0787 -0.2087  0.4056
 1610TIP3    H126321   1.312   0.980  16.085 -2.8310 -1.1146  1.9844
 1610TIP3    H226322   1.291   0.832  16.106 -0.9747 -1.9422 -1.5395
 1611TIP3   OH226323   4.199   6.077   3.701 -0.1021 -0.1911 -0.4233
 1611TIP3    H126324   4.183   5.982   3.702 -0.2674 -0.1600  0.4429
 1611TIP3    H226325   4.117   6.115   3.671 -0.6842 -0.2149  1.0917
 1612TIP3   OH226326   2.735   3.089  17.267  0.3590  0.0277 -0.6159
 1612TIP3    H126327   2.652   3.055  17.233  0.3034  0.0185 -0.4724
 1612TIP3    H226328   2.799   3.020  17.248  0.4366  0.2628 -1.2000
 1613TIP3   OH226329   4.887   1.353  17.206  0.2865  0.4391 -0.2179
 1613TIP3    H126330   4.922   1.269  17.179  0.4946  0.6112 -0.4793
 1613TIP3    H226331   4.894   1.409  17.129 -1.9107  0.0588 -0.7311
 1614TIP3   OH226332   0.903   5.377   3.962  0.1184  1.0773 -0.5575
 1614TIP3    H126333   0.966   5.309   3.986 -0.8268 -0.0559 -1.1858
 1614TIP3    H226334   0.855   5.396   4.043  0.0158  0.5932 -0.5051
 1615TIP3   OH226335   3.007   1.597  12.014  0.2239 -0.2572 -0.5778
 1615TIP3    H126336   2.960   1.643  12.083 -1.0176 -2.6702  0.2675
 1615TIP3    H226337   3.085   1.649  11.999 -1.6676  2.7137 -0.5108
 1616TIP3   OH226338   3.664   2.005  16.424 -0.3424 -0.1055  0.3718
 1616TIP3    H126339   3.753   1.999  16.388  0.2380  0.3074  1.6825
 1616TIP3    H226340   3.652   2.099  16.440 -0.5919 -0.2766  1.2060
 1617TIP3   OH226341   2.304   0.909  16.966 -0.1245 -0.5481  0.0818
 1617TIP3    H126342   2.262   0.823  16.960 -0.5130 -0.1895 -3.2768
 1617TIP3    H226343   2.302   0.943  16.877  2.7877  1.6686  0.7821
 1618TIP3   OH226344   0.547   0.980  11.896 -0.0457 -0.7246  0.1615
 1618TIP3    H126345   0.531   1.073  11.877  2.6195 -0.2899 -0.1191
 1618TIP3    H226346   0.461   0.945  11.918 -1.3539  1.4628 -1.2655
 1619TIP3   OH226347   4.525   5.915  12.943 -0.5554  0.1866 -0.8392
 1619TIP3    H126348   4.570   5.885  12.864 -0.5459 -1.0821 -0.3527
 1619TIP3    H226349   4.591   5.908  13.012 -1.0369 -0.2267 -0.4162
 1620TIP3   OH226350   0.492   4.931   1.541 -0.3871 -0.1871  0.0760
 1620TIP3    H126351   0.442   4.942   1.622 -1.1337  0.8787 -0.5278
 1620TIP3    H226352   0.427   4.934   1.471  0.5103  1.4043 -0.7330
 1621TIP3   OH226353   0.511   5.526  12.771 -0.1105 -0.1295 -0.6571
 1621TIP3    H126354   0.449   5.454  12.763 -1.0678  0.7786 -1.4358
 1621TIP3    H226355   0.458   5.601  12.796  1.0389  0.0899  1.2768
 1622TIP3   OH226356   2.742   2.850   4.465  0.2691  0.8129  0.1861
 1622TIP3    H126357   2.820   2.856   4.410  2.1104  0.8520  2.7011
 1622TIP3    H226358   2.709   2.761   4.450  1.7007  0.2591  0.2525
 1623TIP3   OH226359   5.016   6.020  14.240 -0.2208  0.6054 -0.2236
 1623TIP3    H126360   5.059   6.104  14.227  1.6349 -0.2993 -0.0857
 1623TIP3    H226361   5.004   5.984  14.152  2.5509 -0.7105 -0.1032
 1624TIP3   OH226362   3.375   2.196  11.450  0.1671 -0.4648  0.1659
 1624TIP3    H126363   3.384   2.286  11.420 -1.2518 -0.9452 -1.8147
 1624TIP3    H226364   3.463   2.171  11.479  1.1922  0.6554 -1.8747
 1625TIP3   OH226365   5.467   4.799  13.872  0.0150 -0.1573 -0.1118
 1625TIP3    H126366   5.372   4.795  13.862 -0.0203 -1.2401  0.5692
 1625TIP3    H226367   5.501   4.792  13.783 -0.5437  0.5275 -0.3860
 1626TIP3   OH226368   4.058   6.534   0.437 -0.3737  0.2257 -0.4836
 1626TIP3    H126369   4.091   6.453   0.475 -0.6012 -0.2908 -1.4049
 1626TIP3    H226370   4.008   6.575   0.509  2.2532  1.0607  0.9627
 1627TIP3   OH226371   0.242   3.737  13.624 -0.4318 -0.5047 -0.1263
 1627TIP3    H126372   0.154   3.707  13.601  0.1810 -1.5434 -1.1479
 1627TIP3    H226373   0.293   3.657  13.634  0.2722  0.0675  1.0220
 1628TIP3   OH226374   1.783   3.685  11.914  0.5007  0.1947 -0.0418
 1628TIP3    H126375   1.838   3.754  11.951  1.1616 -0.3928  0.0801
 1628TIP3    H226376   1.709   3.679  11.974  0.3638  0.8968 -0.1323
 1629TIP3   OH226377   2.238   2.267   1.534  0.0466  0.4254  0.2195
 1629TIP3    H126378   2.260   2.176   1.517 -1.1425  0.2275 -0.2883
 1629TIP3    H226379   2.257   2.312   1.452  0.8476  0.6811  0.5402
 1630TIP3   OH226380   4.517   4.606  11.270 -0.6683  0.8021  0.5304
 1630TIP3    H126381   4.532   4.624  11.178  0.0687  0.2254  0.5358
 1630TIP3    H226382   4.485   4.516  11.273 -3.4595  1.7258  0.5912
 1631TIP3   OH226383   1.824   6.543  11.511 -0.1439  0.3088  0.8495
 1631TIP3    H126384   1.849   6.467  11.564 -0.7916 -0.0410  0.6589
 1631TIP3    H226385   1.776   6.506  11.437  1.9570  0.6686 -0.7325
 1632TIP3   OH226386   2.742   1.843  15.318 -0.6550 -0.0833  0.3094
 1632TIP3    H126387   2.788   1.923  15.340 -0.5945 -0.3177  1.0393
 1632TIP3    H226388   2.721   1.803  15.402 -1.0697 -0.6125 -0.0413
 1633TIP3   OH226389   3.031   2.759  10.306 -0.2148 -0.2773  0.3131
 1633TIP3    H126390   3.011   2.765  10.213 -0.9464  1.3755  0.5599
 1633TIP3    H226391   3.124   2.780  10.312 -0.4982  1.0968  0.0884
 1634TIP3   OH226392   5.799   5.489  13.615  0.6106 -0.7950 -0.3032
 1634TIP3    H126393   5.727   5.482  13.678  1.3397  0.4148  0.6886
 1634TIP3    H226394   5.846   5.569  13.640  0.8648 -0.2208 -2.4437
 1635TIP3   OH226395   1.086   2.144  13.488  0.3575 -0.7816 -0.1705
 1635TIP3    H126396   1.117   2.127  13.399  0.5193 -1.6870  0.0552
 1635TIP3    H226397   0.990   2.145  13.480  0.4153  0.8285 -0.6537
 1636TIP3   OH226398   3.072   0.341  13.537  0.5744 -0.1758 -0.0497
 1636TIP3    H126399   3.093   0.296  13.455  2.6213  0.3117  0.1822
 1636TIP3    H226400   3.031   0.423  13.510 -2.3070 -1.7091 -0.4920
 1637TIP3   OH226401   2.726   4.910  15.872  0.3010  0.6436 -0.2993
 1637TIP3    H126402   2.753   4.844  15.935  0.6542  0.2989 -0.8077
 1637TIP3    H226403   2.650   4.872  15.828  0.1166  0.8405 -0.1532
 1638TIP3   OH226404   3.170   3.393  11.329  0.2291 -0.2606  0.1410
 1638TIP3    H126405   3.095   3.413  11.385 -0.2015  0.4490 -0.6593
 1638TIP3    H226406   3.133   3.391  11.240  1.1487  0.1030 -0.2590
 1639TIP3   OH226407   2.205   6.304  12.036  0.7825  0.3144 -0.4168
 1639TIP3    H126408   2.286   6.342  12.068  0.4241  0.4234  0.3699
 1639TIP3    H226409   2.229   6.216  12.007  1.0608  0.1175  0.4052
 1640TIP3   OH226410   6.600   5.500   4.940 -0.1120 -0.8526 -0.1703
 1640TIP3    H126411   6.569   5.424   4.990 -1.2016  0.2892  0.9039
 1640TIP3    H226412   6.555   5.492   4.855  1.4834 -2.6007 -0.9020
 1641TIP3   OH226413   1.011   4.179   6.692  0.3637  0.1218 -0.3823
 1641TIP3    H126414   0.979   4.089   6.685 -0.0059  0.3505 -1.8675
 1641TIP3    H226415   1.106   4.171   6.686  0.8283 -0.6773  5.2050
 1642TIP3   OH226416   3.120   0.545  14.620 -0.1617 -0.4655  0.0401
 1642TIP3    H126417   3.193   0.483  14.625 -0.1761 -0.6396 -1.4765
 1642TIP3    H226418   3.144   0.604  14.548 -0.5123  0.8073  0.9567
 1643TIP3   OH226419   5.696   3.263  11.851  0.1133 -0.1687 -0.0385
 1643TIP3    H126420   5.702   3.169  11.832 -1.7551 -0.1838 -0.6549
 1643TIP3    H226421   5.628   3.295  11.791  0.6908  1.5676  0.2161
 1644TIP3   OH226422   1.092   1.100  15.217  0.4240  0.2022  0.4477
 1644TIP3    H126423   1.062   1.044  15.146  1.8851  0.3295 -0.2882
 1644TIP3    H226424   1.096   1.043  15.293  1.2782 -0.5521 -0.1495
 1645TIP3   OH226425   5.877   2.130   0.686  0.2129 -0.0972 -0.5304
 1645TIP3    H126426   5.781   2.135   0.679  0.0406 -2.7458 -0.6626
 1645TIP3    H226427   5.906   2.108   0.598  0.9425  0.4101 -0.4200
 1646TIP3   OH226428   3.337   5.247  16.627 -0.5556  0.3594 -0.8529
 1646TIP3    H126429   3.415   5.279  16.582 -1.1927  0.3681 -1.9728
 1646TIP3    H226430   3.334   5.153  16.606 -0.0320  0.0488  0.4112
 1647TIP3   OH226431   2.994   4.720   4.279  0.9567 -0.1538  0.3626
 1647TIP3    H126432   2.932   4.781   4.320  1.0235  1.8314 -2.3740
 1647TIP3    H226433   2.939   4.655   4.237  0.8457 -0.8613  1.5755
 1648TIP3   OH226434   1.184   1.361  13.873 -0.3870  0.1356 -0.4761
 1648TIP3    H126435   1.210   1.452  13.890 -1.5215  0.6973 -1.6280
 1648TIP3    H226436   1.190   1.352  13.778 -1.7758 -0.5128 -0.5123
 1649TIP3   OH226437   0.610   0.736   4.248  0.4160  0.0294 -0.3540
 1649TIP3    H126438   0.521   0.731   4.213  0.5480  0.3188 -0.7376
 1649TIP3    H226439   0.629   0.829   4.255  0.7165 -0.0292 -0.3452
 1650TIP3   OH226440   3.272   1.839  11.243 -0.0851  0.0377  0.6070
 1650TIP3    H126441   3.241   1.814  11.156 -1.6774 -2.3651  1.8261
 1650TIP3    H226442   3.197   1.884  11.283 -0.6641 -2.1518  2.0679
 1651TIP3   OH226443   2.792   5.034   0.063  1.1265 -0.7902  0.1523
 1651TIP3    H126444   2.766   5.099  -0.002  0.1277 -0.7232  0.6116
 1651TIP3    H226445   2.885   5.049   0.076  0.7842  0.9637  0.7128
 1652TIP3   OH226446   5.307   2.538  16.056 -0.5569  0.8869 -0.2941
 1652TIP3    H126447   5.259   2.455  16.061  0.3226  0.4098  0.2878
 1652TIP3    H226448   5.268   2.592  16.125  1.3169 -0.3434  1.7844
 1653TIP3   OH226449   1.559   4.731   0.400 -0.3885 -0.1932 -0.1262
 1653TIP3    H126450   1.552   4.752   0.493  0.3792  1.2021 -0.3635
 1653TIP3    H226451   1.502   4.796   0.358  1.3591  0.9414 -0.8181
 1654TIP3   OH226452   4.072   4.101   3.597 -0.1167 -0.4262  0.1712
 1654TIP3    H126453   4.164   4.111   3.620  0.1389 -0.5564 -0.7748
 1654TIP3    H226454   4.072   4.048   3.517 -0.9803  0.0525 -0.1596
 1655TIP3   OH226455   6.657   1.578   1.596  0.7430 -0.2287  0.0328
 1655TIP3    H126456   6.718   1.651   1.590 -0.0259  0.3389 -0.9659
 1655TIP3    H226457   6.573   1.618   1.620  0.6266 -0.9316  0.8227
 1656TIP3   OH226458   5.590   0.962   5.400  0.9506 -0.1589  0.3214
 1656TIP3    H126459   5.506   1.005   5.390  1.2974  1.0712  2.2842
 1656TIP3    H226460   5.650   1.012   5.346  0.0142 -2.5000 -3.0395
 1657TIP3   OH226461   1.279   5.633  16.198  0.2563 -0.2426  0.0035
 1657TIP3    H126462   1.333   5.711  16.189 -0.9692  0.6391  0.1922
 1657TIP3    H226463   1.285   5.590  16.112  0.9474  0.0586 -0.0959
 1658TIP3   OH226464   5.012   5.134   4.724 -0.2770  0.0397  0.6771
 1658TIP3    H126465   5.003   5.185   4.643 -0.4851 -0.2205  0.5349
 1658TIP3    H226466   5.102   5.149   4.752  0.4615 -1.5519 -0.7549
 1659TIP3   OH226467   4.115   6.354  14.327 -0.0611 -0.4138 -0.1818
 1659TIP3    H126468   4.105   6.317  14.415  1.3031  1.4247  0.7751
 1659TIP3    H226469   4.084   6.444  14.335  1.1902  0.1349 -1.2661
 1660TIP3   OH226470   5.076   0.805  16.384 -0.0775 -0.2365 -0.0718
 1660TIP3    H126471   5.168   0.782  16.399 -1.0131 -3.1277  1.7391
 1660TIP3    H226472   5.070   0.897  16.408  1.6045 -0.9850  3.6134
 1661TIP3   OH226473   0.737   2.858  10.791 -0.2231 -0.0393  0.3109
 1661TIP3    H126474   0.723   2.767  10.764 -0.5483 -0.1012  0.6876
 1661TIP3    H226475   0.684   2.909  10.730 -1.9481 -0.2571  1.5912
 1662TIP3   OH226476   2.219   1.140   2.534  0.4085  0.6909  0.2066
 1662TIP3    H126477   2.222   1.227   2.573 -2.7667  2.5686 -3.3545
 1662TIP3    H226478   2.276   1.146   2.458  0.5746 -0.4929  0.2335
 1663TIP3   OH226479   4.465   6.684   3.884 -0.0511  1.2780 -0.5109
 1663TIP3    H126480   4.424   6.726   3.809  1.4211  2.1478 -0.8600
 1663TIP3    H226481   4.417   6.718   3.960 -0.2634  1.9402 -0.9392
 1664TIP3   OH226482   5.942   5.848  12.909 -0.2566 -0.0803  0.0664
 1664TIP3    H126483   5.965   5.904  12.834  1.6165 -1.2749 -0.2834
 1664TIP3    H226484   5.960   5.759  12.879 -1.3064 -0.7134  1.3020
 1665TIP3   OH226485   0.788   5.363   0.635  0.1182 -0.5031  0.0677
 1665TIP3    H126486   0.801   5.447   0.591 -0.6923 -0.4002  0.0086
 1665TIP3    H226487   0.874   5.321   0.633  0.3179 -0.0762 -0.7407
 1666TIP3   OH226488   0.053   0.976  13.594  0.0995 -0.0109 -0.0829
 1666TIP3    H126489   0.088   0.894  13.626 -0.2681 -0.6319 -1.2389
 1666TIP3    H226490   0.019   1.021  13.671 -0.9881 -1.5765  0.3574
 1667TIP3   OH226491   1.426   5.836  16.992  0.2716 -0.2299  0.2075
 1667TIP3    H126492   1.350   5.785  17.018 -0.0179  0.5204  0.8410
 1667TIP3    H226493   1.403   5.872  16.907 -1.1952  2.2353  1.6041
 1668TIP3   OH226494   1.841   5.855   4.289 -0.3021  0.3738  0.3576
 1668TIP3    H126495   1.910   5.789   4.290 -1.1629 -0.5178  1.9901
 1668TIP3    H226496   1.888   5.938   4.286  0.8432 -0.2250  1.2884
 1669TIP3   OH226497   2.081   3.392  13.661  0.4289 -0.1758 -0.0883
 1669TIP3    H126498   2.060   3.474  13.705  1.1953 -0.0392  0.0122
 1669TIP3    H226499   1.995   3.353  13.643  0.0862  0.1904  0.7157
 1670TIP3   OH226500   5.591   1.778  14.110 -0.2490 -0.4229 -0.9090
 1670TIP3    H126501   5.540   1.716  14.161 -0.4099  0.6869  0.2987
 1670TIP3    H226502   5.526   1.831  14.064 -0.1344 -0.4822 -1.1408
 1671TIP3   OH226503   3.489   0.250  16.559 -0.3980  0.6027  0.5828
 1671TIP3    H126504   3.477   0.187  16.630  1.5680  0.8658  1.1766
 1671TIP3    H226505   3.564   0.216  16.509 -0.5783  1.4284 -0.2586
 1672TIP3   OH226506   1.157   6.092  10.722 -0.8708 -0.2164  0.1981
 1672TIP3    H126507   1.180   6.146  10.647 -0.5282  0.1098  0.5325
 1672TIP3    H226508   1.179   6.146  10.798 -0.0452 -1.0177  0.5435
 1673TIP3   OH226509   2.135   6.070  12.592 -0.3054  0.5743  0.5562
 1673TIP3    H126510   2.173   6.027  12.515 -0.0980  1.6432  0.0572
 1673TIP3    H226511   2.204   6.129  12.623 -1.0348  1.4554  0.5074
 1674TIP3   OH226512   0.602   5.997  11.734 -0.0395  0.2636  1.1501
 1674TIP3    H126513   0.550   6.070  11.767 -0.6164  0.7348 -0.7588
 1674TIP3    H226514   0.553   5.919  11.761 -2.1095  0.7053 -1.0708
 1675TIP3   OH226515   4.415   2.235  14.625  0.2434  0.0606  0.7031
 1675TIP3    H126516   4.345   2.300  14.631 -0.5377 -0.4594 -1.8834
 1675TIP3    H226517   4.472   2.269  14.555 -0.4055 -2.1825 -0.9670
 1676TIP3   OH226518   0.925   0.513   3.284 -0.3149  0.6005  0.0318
 1676TIP3    H126519   0.907   0.578   3.216  1.8397  1.1383 -0.0585
 1676TIP3    H226520   1.019   0.495   3.276 -0.7056 -1.9295  0.5898
 1677TIP3   OH226521   1.210   5.689   3.307 -0.0866  0.0936 -0.1474
 1677TIP3    H126522   1.256   5.719   3.386 -0.5790  0.7291 -0.0971
 1677TIP3    H226523   1.215   5.593   3.311  0.7618  0.1458  0.1346
 1678TIP3   OH226524   2.172   0.105   3.776 -0.0993  0.7920 -0.0695
 1678TIP3    H126525   2.078   0.124   3.770 -0.2720  0.0867  0.3305
 1678TIP3    H226526   2.187   0.036   3.711 -0.0128  0.3399  0.4301
 1679TIP3   OH226527   4.657   2.906  15.186  0.2420 -0.0245 -0.0563
 1679TIP3    H126528   4.631   2.839  15.249  0.7407 -0.0052  0.1726
 1679TIP3    H226529   4.746   2.881  15.159  0.2778  0.3192 -0.2656
 1680TIP3   OH226530   2.252   1.432  13.419 -0.2209 -0.4622  0.1204
 1680TIP3    H126531   2.244   1.384  13.336  1.2248 -1.0612  0.2955
 1680TIP3    H226532   2.168   1.419  13.462 -0.7992 -0.6014 -1.0173
 1681TIP3   OH226533   6.470   5.466   5.318 -0.3067  0.0765  0.1140
 1681TIP3    H126534   6.429   5.536   5.369  0.0689  2.4928 -2.7290
 1681TIP3    H226535   6.407   5.446   5.249  0.4052 -1.0055 -0.2280
 1682TIP3   OH226536   4.095   5.553   4.536 -0.0316 -0.2986 -0.0167
 1682TIP3    H126537   4.024   5.617   4.533 -0.4528 -0.6764  1.4761
 1682TIP3    H226538   4.152   5.584   4.606  0.2958 -1.0072  0.0284
 1683TIP3   OH226539   0.757   5.393   5.675 -0.2473  0.0863 -0.0554
 1683TIP3    H126540   0.666   5.417   5.663 -0.1361  0.6804  0.2896
 1683TIP3    H226541   0.795   5.464   5.728  1.5807  2.3456 -4.1232
 1684TIP3   OH226542   4.818   2.557  12.787  0.3419  0.3503  0.2001
 1684TIP3    H126543   4.741   2.550  12.843  0.9599 -3.7417  0.6713
 1684TIP3    H226544   4.876   2.617  12.835 -0.5547 -0.3788  2.2658
 1685TIP3   OH226545   3.285   3.587  15.591  0.2589 -0.0689  0.0563
 1685TIP3    H126546   3.321   3.516  15.644  1.1884  2.2680  2.6522
 1685TIP3    H226547   3.349   3.601  15.522  1.0432 -0.4456  0.7046
 1686TIP3   OH226548   2.098   5.900   4.838  0.1492 -0.6058  0.0761
 1686TIP3    H126549   2.153   5.828   4.871 -1.5657 -2.0298 -0.0838
 1686TIP3    H226550   2.142   5.979   4.869  1.2478 -1.7609  1.6058
 1687TIP3   OH226551   4.873   4.179  12.991 -0.7129  0.1852  0.3439
 1687TIP3    H126552   4.923   4.235  12.932  0.7823  0.6134  1.9656
 1687TIP3    H226553   4.848   4.237  13.064 -2.0588 -0.4522  0.4071
 1688TIP3   OH226554   2.595   0.504  15.011 -0.1615 -0.0610 -0.6819
 1688TIP3    H126555   2.511   0.498  14.964 -1.2249 -0.0723  1.1448
 1688TIP3    H226556   2.658   0.529  14.944 -2.1415  2.7918 -1.5983
 1689TIP3   OH226557   0.836   2.163   2.208  0.0797 -0.1132 -0.1815
 1689TIP3    H126558   0.924   2.132   2.227  0.4058 -0.0540 -1.5312
 1689TIP3    H226559   0.824   2.144   2.115 -1.0423  0.5910 -0.1877
 1690TIP3   OH226560   5.970   6.635   2.787  0.1337  0.4158  0.3995
 1690TIP3    H126561   6.026   6.698   2.833  0.6512 -0.1518  0.5574
 1690TIP3    H226562   5.883   6.649   2.823  0.5013  0.1096  1.4151
 1691TIP3   OH226563   1.861   0.995  15.041 -0.0910 -0.1067 -0.2893
 1691TIP3    H126564   1.956   1.007  15.045  0.1468 -1.9026 -0.3713
 1691TIP3    H226565   1.835   1.047  14.964  0.5443  1.9323  0.8335
 1692TIP3   OH226566   4.276   4.416   3.897 -0.0268  0.7582 -0.3990
 1692TIP3    H126567   4.337   4.359   3.850 -0.2510  1.2005 -1.2546
 1692TIP3    H226568   4.325   4.497   3.911 -0.1141  0.7893 -0.2721
 1693TIP3   OH226569   0.334   2.939  15.682 -0.0082  0.2572 -0.1666
 1693TIP3    H126570   0.261   2.977  15.634 -0.4457 -2.1787 -1.5317
 1693TIP3    H226571   0.406   2.935  15.619  0.5431  0.3599  0.4444
 1694TIP3   OH226572   6.499   2.360   0.037  0.2734 -0.2152  0.0810
 1694TIP3    H126573   6.555   2.312   0.099 -0.0469 -0.8001 -0.0762
 1694TIP3    H226574   6.511   2.314  -0.046 -2.4258 -1.9738  0.6154
 1695TIP3   OH226575   6.594   1.589  11.529  0.1271  0.4473 -0.2182
 1695TIP3    H126576   6.546   1.592  11.446  0.5627 -0.9569 -0.5265
 1695TIP3    H226577   6.655   1.662  11.524  1.0152 -0.3795 -1.6660
 1696TIP3   OH226578   3.875   2.001   6.064 -0.0761 -0.6001  0.2890
 1696TIP3    H126579   3.828   2.082   6.084  0.8804  0.2677 -0.9102
 1696TIP3    H226580   3.833   1.935   6.119 -1.8293  0.4066  0.1892
 1697TIP3   OH226581   5.869   3.584   6.488 -0.1475  0.3388 -0.5118
 1697TIP3    H126582   5.927   3.619   6.420 -0.7027  0.5937 -0.8569
 1697TIP3    H226583   5.928   3.549   6.555  0.4107  1.5170 -0.3850
 1698TIP3   OH226584   1.309   1.776  14.168 -0.2957  0.1724  0.4854
 1698TIP3    H126585   1.393   1.775  14.214 -1.6780  1.5367  3.1794
 1698TIP3    H226586   1.277   1.865  14.179 -1.5216  0.0290 -1.6511
 1699TIP3   OH226587   0.489   5.424  16.479 -0.1505 -0.3601 -0.1398
 1699TIP3    H126588   0.542   5.485  16.428 -1.1568  0.4627 -0.2101
 1699TIP3    H226589   0.535   5.340  16.471  0.8278  0.2150 -0.6643
 1700TIP3   OH226590   1.439   1.868  16.621 -0.4557  0.5279 -0.3268
 1700TIP3    H126591   1.470   1.948  16.665 -2.5994  0.4062  1.4948
 1700TIP3    H226592   1.448   1.800  16.687 -1.0741 -0.2309 -1.0228
 1701TIP3   OH226593   2.094   0.324  13.525  0.4857 -0.3596 -0.2597
 1701TIP3    H126594   2.147   0.297  13.450 -1.0286  0.5658 -1.6972
 1701TIP3    H226595   2.013   0.274  13.516 -0.1553  0.5988  0.1448
 1702TIP3   OH226596   4.868   2.714  14.252 -0.3515 -0.3192  0.2556
 1702TIP3    H126597   4.951   2.749  14.221 -1.4093  1.8912 -0.1949
 1702TIP3    H226598   4.829   2.673  14.174  0.0262 -0.7913  0.3136
 1703TIP3   OH226599   2.571   6.276  14.142  0.0518 -0.3734  0.4075
 1703TIP3    H126600   2.518   6.223  14.200 -0.6720  0.3470  0.4110
 1703TIP3    H226601   2.647   6.221  14.121  0.6822 -0.3790  2.6031
 1704TIP3   OH226602   1.147   5.814   4.645  0.2617  0.8728 -0.2013
 1704TIP3    H126603   1.209   5.862   4.700  0.3023 -0.0103  0.5474
 1704TIP3    H226604   1.199   5.744   4.605  0.2218  1.4861 -1.3417
 1705TIP3   OH226605   5.469   2.371  16.547  0.0353  0.3862  0.3518
 1705TIP3    H126606   5.462   2.393  16.639  0.4867 -1.5807  0.8893
 1705TIP3    H226607   5.379   2.374  16.514 -0.3780 -0.8133  1.3401
 1706TIP3   OH226608   4.834   2.120  14.735  0.0919  0.0550  0.2083
 1706TIP3    H126609   4.915   2.160  14.702  0.5921 -2.1828 -1.3793
 1706TIP3    H226610   4.813   2.171  14.812  2.0433  1.8366 -0.3676
 1707TIP3   OH226611   4.877   0.292   2.754  0.3551  0.1531  0.0877
 1707TIP3    H126612   4.958   0.303   2.804  0.4749  0.6077 -0.2033
 1707TIP3    H226613   4.894   0.338   2.672 -0.2117  0.2735  0.0399
 1708TIP3   OH226614   3.370   6.059   2.868 -0.1091  0.0668 -0.0537
 1708TIP3    H126615   3.323   6.141   2.884 -0.5218 -0.0150 -0.8731
 1708TIP3    H226616   3.457   6.074   2.907 -0.4293  0.6192  0.4593
 1709TIP3   OH226617   0.963   0.126   1.605  0.2111  0.3063  0.1608
 1709TIP3    H126618   1.009   0.138   1.688 -0.0746  0.0361  0.3639
 1709TIP3    H226619   0.907   0.050   1.621  1.0177 -0.4659 -0.6587
 1710TIP3   OH226620   1.735   0.199  16.756  0.4794 -0.1223 -0.0631
 1710TIP3    H126621   1.713   0.285  16.791 -2.1640 -1.0417  0.6077
 1710TIP3    H226622   1.738   0.141  16.832 -0.0551 -1.0762 -0.7431
 1711TIP3   OH226623   4.655   4.018  17.259 -0.2710  0.8111 -0.0828
 1711TIP3    H126624   4.717   3.997  17.329 -1.3458 -4.0643 -0.3981
 1711TIP3    H226625   4.574   4.041  17.305 -0.3534 -0.2140  0.2882
 1712TIP3   OH226626   5.995   2.018  15.366  0.4071  0.3498  0.0847
 1712TIP3    H126627   6.040   1.960  15.305 -0.7306 -1.3401  0.7946
 1712TIP3    H226628   6.065   2.060  15.415  1.3604  2.1201 -2.6803
 1713TIP3   OH226629   3.476   1.650  16.456  0.0811 -0.4007 -0.2378
 1713TIP3    H126630   3.502   1.702  16.532  1.0542  0.2580 -1.0218
 1713TIP3    H226631   3.503   1.561  16.478 -0.7807 -0.4351  0.7263
 1714TIP3   OH226632   5.273   4.897  12.766  0.0079  0.9228 -0.4282
 1714TIP3    H126633   5.251   4.884  12.674 -2.0815 -0.4647  0.2128
 1714TIP3    H226634   5.252   4.813  12.807  0.3418  1.7062  1.3994
 1715TIP3   OH226635   6.498   6.328  17.175 -0.4459 -0.4030  0.0606
 1715TIP3    H126636   6.471   6.389  17.244 -0.7012 -1.1829  0.6552
 1715TIP3    H226637   6.431   6.338  17.107 -1.5772 -1.4251  0.9973
 1716TIP3   OH226638   6.806   1.769   5.129 -0.8197 -0.1439 -0.0129
 1716TIP3    H126639   6.886   1.721   5.152 -0.4137  0.8289  0.6539
 1716TIP3    H226640   6.771   1.798   5.214 -1.0913  0.6750 -0.3995
 1717TIP3   OH226641   2.048   0.636   1.779 -0.2923 -0.3429  0.2817
 1717TIP3    H126642   1.995   0.703   1.824 -0.4284 -0.0069 -0.3798
 1717TIP3    H226643   2.110   0.686   1.726 -0.1468 -0.7466  0.0725
 1718TIP3   OH226644   4.001   3.134   5.038  0.0578 -0.3841 -0.0826
 1718TIP3    H126645   4.026   3.226   5.046  1.2632 -0.9045  2.7648
 1718TIP3    H226646   4.056   3.100   4.967  1.6093  0.4364  0.7064
 1719TIP3   OH226647   5.248   4.193   4.501  0.1611  0.1857 -0.4225
 1719TIP3    H126648   5.194   4.212   4.578  0.9831 -0.8132  0.4123
 1719TIP3    H226649   5.314   4.262   4.501 -0.0850  0.4250 -0.4726
 1720TIP3   OH226650   6.582   4.040  14.083 -0.1232  0.1616 -0.1772
 1720TIP3    H126651   6.628   3.976  14.138 -1.4112 -0.1265  0.6003
 1720TIP3    H226652   6.647   4.068  14.018  0.9864 -0.5975  0.5866
 1721TIP3   OH226653   3.643   5.083   4.749  0.4380 -0.0572 -0.4734
 1721TIP3    H126654   3.661   5.122   4.663 -2.6037  1.6009 -0.4419
 1721TIP3    H226655   3.673   5.147   4.812 -1.4943  0.7961 -0.3856
 1722TIP3   OH226656   2.325   0.228   0.056  0.1856  0.1738 -0.6200
 1722TIP3    H126657   2.368   0.242   0.140  1.1535  0.4587 -1.1416
 1722TIP3    H226658   2.318   0.133   0.047  1.4075  0.0864 -0.8461
 1723TIP3   OH226659   3.292   0.467   5.948  0.3168 -0.1752  0.4169
 1723TIP3    H126660   3.356   0.483   6.018 -0.8544  0.6480  1.3183
 1723TIP3    H226661   3.207   0.487   5.988 -0.3751  0.2161 -1.2133
 1724TIP3   OH226662   5.212   4.468   1.087  0.0555 -0.0143  0.2201
 1724TIP3    H126663   5.183   4.399   1.027 -0.4245  1.3538 -1.1386
 1724TIP3    H226664   5.300   4.490   1.057  0.4676 -0.4872  1.0697
 1725TIP3   OH226665   0.781   5.047   2.627  0.2276 -0.4541 -0.1728
 1725TIP3    H126666   0.739   5.125   2.591 -0.1671  0.2502  1.7599
 1725TIP3    H226667   0.794   5.068   2.719  0.7829 -2.4061  0.2011
 1726TIP3   OH226668   3.155   5.962  15.873  0.6468  0.2514  0.2331
 1726TIP3    H126669   3.198   5.878  15.892 -1.5293 -0.7624  0.7921
 1726TIP3    H226670   3.176   6.017  15.949  2.3846  0.3457 -0.3006
 1727TIP3   OH226671   3.943   3.292   2.438  0.1938 -0.1757 -0.2754
 1727TIP3    H126672   3.984   3.282   2.352  0.1725  0.5545 -0.3774
 1727TIP3    H226673   3.874   3.357   2.424 -2.0042 -2.4694 -0.4458
 1728TIP3   OH226674   1.246   6.101   5.319  0.1904  0.3904  0.0815
 1728TIP3    H126675   1.166   6.154   5.320  0.0278  0.1355  2.2415
 1728TIP3    H226676   1.271   6.093   5.411  3.1069  1.0415 -0.5975
 1729TIP3   OH226677   4.751   2.863   3.085 -0.2190  0.0307  0.0333
 1729TIP3    H126678   4.811   2.808   3.035 -0.6776 -0.5689  0.1437
 1729TIP3    H226679   4.664   2.827   3.068 -0.2662 -1.1034  2.3785
 1730TIP3   OH226680   6.155   0.221   5.259  0.1563 -0.3480  0.1612
 1730TIP3    H126681   6.173   0.290   5.195 -3.2007  1.6178  1.2002
 1730TIP3    H226682   6.070   0.185   5.232  0.3882 -1.9091  1.4468
 1731TIP3   OH226683   3.158   5.693   2.403  0.3831 -0.0232  0.1033
 1731TIP3    H126684   3.246   5.701   2.365 -0.1312  2.0847 -0.7121
 1731TIP3    H226685   3.131   5.604   2.382  1.7317 -0.1977 -0.9538
 1732TIP3   OH226686   3.238   3.728   0.458  0.2888 -0.6279  0.9691
 1732TIP3    H126687   3.215   3.755   0.547 -0.7018  2.9362 -0.2840
 1732TIP3    H226688   3.309   3.787   0.432 -0.6347 -0.4118 -1.2018
 1733TIP3   OH226689   2.325   3.967  10.603  0.1440 -0.3458 -0.4744
 1733TIP3    H126690   2.283   3.997  10.683  1.7171  0.2907  0.1247
 1733TIP3    H226691   2.415   3.946  10.629  0.0840 -2.1264 -1.6373
 1734TIP3   OH226692   0.594   0.248   4.847 -0.0027 -0.4469 -0.2543
 1734TIP3    H126693   0.625   0.192   4.917 -1.1236 -0.8821 -0.0853
 1734TIP3    H226694   0.626   0.207   4.767  1.3167  0.0773 -0.0033
 1735TIP3   OH226695   1.870   5.805   2.228  0.3223  0.7820  0.1650
 1735TIP3    H126696   1.793   5.861   2.218 -0.6259 -0.5641 -0.2021
 1735TIP3    H226697   1.834   5.720   2.255  1.6192 -0.0729 -0.7697
 1736TIP3   OH226698   5.867   2.574  12.610  0.8928  0.2891  0.5541
 1736TIP3    H126699   5.957   2.596  12.586 -0.0693  2.1784 -1.5010
 1736TIP3    H226700   5.819   2.656  12.600 -1.5616 -1.2712 -1.0051
 1737TIP3   OH226701   6.018   6.017   5.195 -0.0187  0.2010  0.2014
 1737TIP3    H126702   5.929   6.044   5.219  0.2708  0.7618  0.6617
 1737TIP3    H226703   6.046   6.083   5.131  0.2915  0.3707  0.5131
 1738TIP3   OH226704   4.272   1.742   3.280 -0.2882 -0.3438 -0.6934
 1738TIP3    H126705   4.351   1.761   3.331 -0.2518  3.0204 -1.9032
 1738TIP3    H226706   4.296   1.667   3.226  1.5896 -0.2768  0.0039
 1739TIP3   OH226707   4.229   3.273   1.551  0.1580  0.0850  0.0814
 1739TIP3    H126708   4.183   3.202   1.508  1.0534 -0.5833  0.1968
 1739TIP3    H226709   4.205   3.264   1.644  1.1029 -0.7484  0.2650
 1740TIP3   OH226710   1.877   4.990  16.779  0.2736 -0.5170 -0.3286
 1740TIP3    H126711   1.902   5.002  16.870  0.8394 -5.3364  0.2810
 1740TIP3    H226712   1.960   4.982  16.732 -0.0379  0.3023 -1.0437
 1741TIP3   OH226713   2.020   0.477  13.897 -0.1960  0.1067 -0.0535
 1741TIP3    H126714   2.042   0.457  13.988  0.7610  2.0117  0.1676
 1741TIP3    H226715   1.949   0.540  13.902 -0.0673  0.3037 -0.6139
 1742TIP3   OH226716   6.024   3.721   1.553  0.0822 -0.0308  0.2591
 1742TIP3    H126717   6.009   3.645   1.609 -1.5042 -0.5192 -0.7886
 1742TIP3    H226718   6.098   3.698   1.498  1.1925  0.1678  1.6556
 1743TIP3   OH226719   1.581   3.808   3.210 -0.1381 -0.2950  0.4272
 1743TIP3    H126720   1.666   3.846   3.232  0.2094 -0.8809  0.1028
 1743TIP3    H226721   1.593   3.771   3.123 -0.9101  0.1808  0.1178
 1744TIP3   OH226722   3.931   6.174  11.167 -0.3044  0.5273  0.1870
 1744TIP3    H126723   3.916   6.082  11.145  0.9163  0.5750 -0.8829
 1744TIP3    H226724   3.976   6.171  11.252  2.7156 -0.0128 -1.3874
 1745TIP3   OH226725   6.508   1.292  15.615  0.2532  0.6577 -0.4004
 1745TIP3    H126726   6.515   1.333  15.529  0.8266 -0.0107 -0.6800
 1745TIP3    H226727   6.421   1.253  15.616 -1.4056  4.1650  0.9002
 1746TIP3   OH226728   3.982   4.008   3.357  0.2662 -0.2719 -0.3168
 1746TIP3    H126729   3.961   4.088   3.309  0.7889  0.2050  0.2595
 1746TIP3    H226730   3.903   3.953   3.346 -0.0068  0.2226 -0.8864
 1747TIP3   OH226731   0.975   6.040  12.752 -0.0120  0.5229 -0.3989
 1747TIP3    H126732   1.061   6.079  12.764 -0.4348  1.6290 -0.9048
 1747TIP3    H226733   0.921   6.080  12.820 -0.3836  0.6079 -0.7419
 1748TIP3   OH226734   3.454   5.370   4.214  0.1725  0.6288 -0.3316
 1748TIP3    H126735   3.429   5.461   4.203 -1.6393  0.2335  0.2931
 1748TIP3    H226736   3.374   5.321   4.199 -0.2671 -0.5014  4.7657
 1749TIP3   OH226737   1.856   5.421   5.117 -0.2735 -0.3363  0.2807
 1749TIP3    H126738   1.833   5.328   5.125 -0.6462 -0.3588 -0.9479
 1749TIP3    H226739   1.835   5.443   5.026 -1.8686  1.4156  1.0396
 1750TIP3   OH226740   6.423   3.330   6.057  0.5443 -0.0948  0.6146
 1750TIP3    H126741   6.477   3.282   5.994  1.3059  1.0329  0.3879
 1750TIP3    H226742   6.465   3.315   6.141  0.2231 -0.6069  0.6876
 1751TIP3   OH226743   2.470   3.139  14.791  0.1215  0.4375 -0.0120
 1751TIP3    H126744   2.504   3.227  14.809 -0.2190  0.6341 -0.3098
 1751TIP3    H226745   2.445   3.142  14.698 -0.9533  0.3876  0.2715
 1752TIP3   OH226746   5.649   5.452   1.794 -0.3508  0.2578  0.2453
 1752TIP3    H126747   5.736   5.468   1.829  0.5528 -0.4442 -1.6046
 1752TIP3    H226748   5.620   5.372   1.837  0.4720 -0.2255 -0.0788
 1753TIP3   OH226749   0.898   4.839   2.044 -0.2714 -0.3266  0.4896
 1753TIP3    H126750   0.865   4.902   2.108  1.3476  1.1001 -0.0190
 1753TIP3    H226751   0.991   4.829   2.067 -0.3257 -1.8867  0.0436
 1754TIP3   OH226752   2.829   4.708  11.452 -0.6517 -0.3142  0.4797
 1754TIP3    H126753   2.774   4.778  11.417 -1.4759 -0.6583  1.0688
 1754TIP3    H226754   2.779   4.628  11.438  0.1052 -0.7374  0.1872
 1755TIP3   OH226755   1.021   3.296  16.687 -0.8482  0.2104 -0.0430
 1755TIP3    H126756   0.940   3.330  16.725 -1.6911 -0.9311 -0.7795
 1755TIP3    H226757   1.012   3.313  16.593  0.6582  1.8682  0.0853
 1756TIP3   OH226758   5.432   5.647   2.441 -0.1857  0.2825  0.7957
 1756TIP3    H126759   5.365   5.617   2.379  2.3911  0.8417 -2.3996
 1756TIP3    H226760   5.390   5.719   2.488 -2.6819 -1.0550  0.7391
 1757TIP3   OH226761   3.123   0.910  15.890  0.5508 -0.1623 -0.0461
 1757TIP3    H126762   3.098   0.940  15.803 -1.2232  0.4418  0.6411
 1757TIP3    H226763   3.136   0.990  15.941  1.8069 -0.5086  0.1743
 1758TIP3   OH226764   5.688   2.786  14.939 -0.2875 -0.2907 -0.0337
 1758TIP3    H126765   5.592   2.790  14.944 -0.2932 -0.7700  0.1973
 1758TIP3    H226766   5.705   2.720  14.871 -0.1215 -0.0418 -0.2348
 1759TIP3   OH226767   4.692   0.457  13.860  0.3522 -0.4079 -0.1757
 1759TIP3    H126768   4.694   0.520  13.787 -0.4438 -0.7980 -0.5443
 1759TIP3    H226769   4.780   0.419  13.862 -0.1176 -1.6650 -2.0713
 1760TIP3   OH226770   2.184   0.782  16.298 -0.2574  0.2048 -0.8201
 1760TIP3    H126771   2.117   0.762  16.233  0.2909 -1.1326 -0.9965
 1760TIP3    H226772   2.227   0.861  16.264 -0.7580  0.1996 -1.4792
 1761TIP3   OH226773   4.742   6.258   4.693  0.4414 -0.2451 -0.5222
 1761TIP3    H126774   4.720   6.187   4.754 -0.6941  1.5083  1.1753
 1761TIP3    H226775   4.836   6.249   4.678  0.5164 -1.4182  0.5728
 1762TIP3   OH226776   4.363   1.073  13.654  0.1194  0.1255  0.3449
 1762TIP3    H126777   4.365   1.167  13.670 -1.9309  0.1426  0.6402
 1762TIP3    H226778   4.344   1.065  13.561 -1.2638  0.0249  0.6217
 1763TIP3   OH226779   4.391   1.356   2.950  0.7296 -0.3141  0.3138
 1763TIP3    H126780   4.454   1.300   2.904  0.4862 -0.4492  0.1426
 1763TIP3    H226781   4.403   1.443   2.910 -0.8506 -0.8469 -1.4089
 1764TIP3   OH226782   5.845   2.639  14.006 -0.1746 -0.6330  0.2497
 1764TIP3    H126783   5.785   2.712  13.994 -0.6361 -1.0026  0.2646
 1764TIP3    H226784   5.796   2.577  14.060 -0.4761 -1.7398 -1.2600
 1765TIP3   OH226785   0.720   4.663  11.087  0.7337  0.0809 -0.5509
 1765TIP3    H126786   0.700   4.690  10.997 -0.1497 -0.4812 -0.5342
 1765TIP3    H226787   0.671   4.725  11.141  2.8538  1.6813 -0.3954
 1766TIP3   OH226788   3.371   3.950   0.425  0.0325  0.1346 -0.0404
 1766TIP3    H126789   3.291   4.002   0.418  0.7032  1.2806  0.5023
 1766TIP3    H226790   3.397   3.934   0.334 -0.9623 -0.5094 -0.2241
 1767TIP3   OH226791   1.444   3.389   0.104  0.0163  0.1704 -0.1427
 1767TIP3    H126792   1.370   3.375   0.163 -0.2749 -0.2350 -0.5963
 1767TIP3    H226793   1.481   3.473   0.131 -0.3447  0.1663  0.3704
 1768TIP3   OH226794   6.783   2.371   4.956  0.1177 -0.1012 -0.1659
 1768TIP3    H126795   6.808   2.436   5.020  0.8099  1.0000 -1.5271
 1768TIP3    H226796   6.861   2.360   4.901 -1.1250  0.5317 -2.0965
 1769TIP3   OH226797   6.126   5.539   4.674  0.1076 -1.2514  0.2353
 1769TIP3    H126798   6.034   5.549   4.699  0.5033 -0.0957  1.3013
 1769TIP3    H226799   6.140   5.603   4.605  0.1478 -1.3399  0.1609
 1770TIP3   OH226800   4.178   1.538  13.442  0.6956 -0.1351  0.0833
 1770TIP3    H126801   4.171   1.532  13.347  1.3747 -0.8952  0.0806
 1770TIP3    H226802   4.271   1.550  13.458  0.9929 -3.2057  0.8266
 1771TIP3   OH226803   4.835   4.294   3.579  0.0431  0.1927 -0.1412
 1771TIP3    H126804   4.796   4.209   3.601 -1.1192  1.0049  1.0444
 1771TIP3    H226805   4.928   4.276   3.570 -0.3851 -1.5184 -1.5079
 1772TIP3   OH226806   0.681   2.763  14.273 -0.5606 -0.3338 -0.1535
 1772TIP3    H126807   0.646   2.810  14.198 -0.4529 -0.3383 -0.2075
 1772TIP3    H226808   0.697   2.831  14.339  0.1896 -0.2066 -0.4597
 1773TIP3   OH226809   4.816   3.472  15.780  0.3506 -0.2652 -0.5334
 1773TIP3    H126810   4.772   3.408  15.835 -1.7135  1.1522 -0.5000
 1773TIP3    H226811   4.797   3.556  15.821 -0.1249  0.7043 -2.6872
 1774TIP3   OH226812   2.495   2.886   5.259  0.0473 -0.1951  0.0317
 1774TIP3    H126813   2.516   2.947   5.189 -0.4070 -1.9278 -1.6571
 1774TIP3    H226814   2.579   2.869   5.303  0.2531  1.2229  0.1912
 1775TIP3   OH226815   3.152   0.981  11.124  0.1260 -0.5683 -0.0434
 1775TIP3    H126816   3.231   1.034  11.121  0.4224 -0.7941  2.5690
 1775TIP3    H226817   3.136   0.956  11.033  2.6401  0.0666 -0.6957
 1776TIP3   OH226818   2.325   4.739   5.615 -0.3954 -0.0742  0.1237
 1776TIP3    H126819   2.294   4.650   5.596  0.4879 -0.8467  2.0783
 1776TIP3    H226820   2.245   4.792   5.620 -1.0414 -1.0512  0.2973
 1777TIP3   OH226821   4.383   3.987  12.390  0.3841  0.2477  0.2504
 1777TIP3    H126822   4.476   3.966  12.377 -0.0020 -1.9430  0.7519
 1777TIP3    H226823   4.340   3.902  12.391 -1.2213  1.0550  3.2512
 1778TIP3   OH226824   6.078   2.453   2.243  0.5351 -0.3157  0.2227
 1778TIP3    H126825   6.158   2.443   2.192  1.0002 -1.6324  1.1858
 1778TIP3    H226826   6.099   2.416   2.329 -0.3184  1.6299  1.2960
 1779TIP3   OH226827   0.222   2.440  11.727 -0.1844  0.4880  0.4301
 1779TIP3    H126828   0.277   2.393  11.789  0.1151 -0.8291 -0.8169
 1779TIP3    H226829   0.133   2.412  11.749 -0.3000  1.8685  1.8086
 1780TIP3   OH226830   0.659   0.497  12.537  0.1735  0.3870 -0.0808
 1780TIP3    H126831   0.610   0.545  12.604 -0.3487 -0.4692  0.1569
 1780TIP3    H226832   0.595   0.437  12.498  0.9225 -0.4287 -0.0779
 1781TIP3   OH226833   2.664   1.702  11.952  0.8096  0.1180 -0.0246
 1781TIP3    H126834   2.574   1.719  11.925  0.5129 -2.6089 -0.9970
 1781TIP3    H226835   2.671   1.606  11.950  3.7090  0.2923  0.0761
 1782TIP3   OH226836   4.970   3.965   5.534 -0.2631  0.1692 -0.5204
 1782TIP3    H126837   4.983   3.892   5.594 -1.4820 -0.3858 -0.9231
 1782TIP3    H226838   5.035   4.030   5.561 -1.0921  0.1067  1.6888
 1783TIP3   OH226839   3.024   4.697  13.723 -0.4380 -0.3679  0.0851
 1783TIP3    H126840   3.066   4.781  13.708 -1.3225 -0.1065 -1.0190
 1783TIP3    H226841   3.089   4.645  13.769  1.3000 -0.1670 -2.0826
 1784TIP3   OH226842   4.403   4.597   3.647  0.3061 -0.1492 -0.2232
 1784TIP3    H126843   4.419   4.505   3.624  0.8712  0.3833 -2.0282
 1784TIP3    H226844   4.437   4.605   3.736  1.3874 -1.3882 -0.5049
 1785TIP3   OH226845   2.115   1.160   5.904 -0.2584  0.2726 -0.2124
 1785TIP3    H126846   2.096   1.168   5.997  1.3589 -0.1403  0.1660
 1785TIP3    H226847   2.068   1.080   5.877 -0.7308  0.3958  0.2416
 1786TIP3   OH226848   6.616   1.315   2.785 -0.5557  0.1083 -0.8115
 1786TIP3    H126849   6.681   1.340   2.719  0.9559 -0.0183  0.5776
 1786TIP3    H226850   6.615   1.388   2.847 -1.1641 -0.2475 -0.4009
 1787TIP3   OH226851   2.396   2.275   3.301 -0.2529  0.3593  0.1016
 1787TIP3    H126852   2.489   2.253   3.303  0.0840  1.7818  0.4238
 1787TIP3    H226853   2.353   2.193   3.277  0.9532 -0.7218  1.5233
 1788TIP3   OH226854   2.767   4.564  13.762  0.1197 -0.0989  0.3472
 1788TIP3    H126855   2.849   4.611  13.775 -1.1528  2.0821  0.7069
 1788TIP3    H226856   2.761   4.504  13.836  2.1435 -1.4578 -0.5372
 1789TIP3   OH226857   1.124   3.591  13.886 -0.2562  0.0925 -0.6936
 1789TIP3    H126858   1.109   3.522  13.950 -0.5389  0.4725 -0.3486
 1789TIP3    H226859   1.204   3.634  13.915  0.0965 -0.2894 -1.0885
 1790TIP3   OH226860   1.428   6.040   6.804 -0.0777  0.4353 -0.3576
 1790TIP3    H126861   1.365   6.097   6.759 -0.1092  1.1958  0.6302
 1790TIP3    H226862   1.404   6.046   6.896  0.0635 -1.0183 -0.2095
 1791TIP3   OH226863   1.227   4.189  15.676 -0.6865  0.1079 -0.2503
 1791TIP3    H126864   1.320   4.209  15.663 -0.1509 -1.2782  1.2007
 1791TIP3    H226865   1.181   4.249  15.618  1.1221  0.8150 -0.9985
 1792TIP3   OH226866   0.278   2.926  11.576  0.0479  0.1394  0.0478
 1792TIP3    H126867   0.187   2.956  11.571 -0.4641 -1.5034 -0.9537
 1792TIP3    H226868   0.314   2.942  11.489  0.8911  1.2502  0.5862
 1793TIP3   OH226869   4.858   5.188  12.237  0.0486 -0.3371 -0.4116
 1793TIP3    H126870   4.818   5.112  12.280  0.0402 -0.2773 -0.3142
 1793TIP3    H226871   4.788   5.227  12.186 -0.3789  0.5661  0.8490
 1794TIP3   OH226872   4.665   4.019  12.407 -0.0249 -0.1974 -0.3840
 1794TIP3    H126873   4.702   3.963  12.476 -1.0179 -0.1591  0.1789
 1794TIP3    H226874   4.722   4.096  12.406 -1.2337  0.7796  1.8586
 1795TIP3   OH226875   0.562   2.789   4.110 -0.4354  0.3527  0.3052
 1795TIP3    H126876   0.621   2.763   4.039 -0.4358  0.5551  0.2314
 1795TIP3    H226877   0.620   2.815   4.181 -0.4280 -0.6135  0.6661
 1796TIP3   OH226878   0.913   5.674  14.773  0.2934 -0.5411  0.3787
 1796TIP3    H126879   0.966   5.709  14.845  0.3920  1.3864 -0.6062
 1796TIP3    H226880   0.824   5.670  14.809  0.4666 -0.3040  0.8446
 1797TIP3   OH226881   1.814   0.879   6.629 -0.0157  0.2460  0.7238
 1797TIP3    H126882   1.747   0.928   6.676  1.4100  3.8444 -0.8529
 1797TIP3    H226883   1.888   0.876   6.690 -0.2946 -0.5240  1.0385
 1798TIP3   OH226884   5.752   0.386  15.607 -0.1007 -0.1905  0.2059
 1798TIP3    H126885   5.692   0.417  15.540  0.3888  0.9581  0.3024
 1798TIP3    H226886   5.715   0.417  15.689 -0.0859 -0.6293  0.3832
 1799TIP3   OH226887   2.034   3.135  14.348  0.0074  0.2798 -0.1067
 1799TIP3    H126888   2.072   3.124  14.435 -1.0515  2.5833  0.7021
 1799TIP3    H226889   1.972   3.063  14.339 -1.9243  1.5813  2.2305
 1800TIP3   OH226890   2.059   1.767   6.084  0.1508  0.1028  0.0978
 1800TIP3    H126891   2.084   1.674   6.092  2.2078  0.7090  1.1798
 1800TIP3    H226892   1.985   1.767   6.023  0.8686 -2.1390 -0.8300
 1801TIP3   OH226893   3.124   5.156   2.306  0.5993 -0.0742  0.3134
 1801TIP3    H126894   3.082   5.239   2.283  1.9483  0.8654  1.2002
 1801TIP3    H226895   3.084   5.131   2.389  0.0491 -0.4277 -0.0521
 1802TIP3   OH226896   4.845   1.720  17.247  0.5704 -0.2947  0.1353
 1802TIP3    H126897   4.780   1.733  17.179  1.1826  2.6552  0.0346
 1802TIP3    H226898   4.856   1.625  17.253 -1.6548 -0.7018 -1.7845
 1803TIP3   OH226899   1.630   5.239  15.993 -0.0903 -0.2743  0.0053
 1803TIP3    H126900   1.641   5.145  16.009  3.0938 -0.1984 -1.3587
 1803TIP3    H226901   1.622   5.277  16.080 -0.2997 -1.6790  0.6239
 1804TIP3   OH226902   1.241   5.518  12.803 -0.6344 -0.2305 -0.4342
 1804TIP3    H126903   1.316   5.576  12.794 -0.5534 -0.2806 -0.0976
 1804TIP3    H226904   1.168   5.576  12.824 -0.4015 -0.3197  0.6620
 1805TIP3   OH226905   0.617   0.778   3.822 -0.2709 -0.6849  0.2845
 1805TIP3    H126906   0.545   0.801   3.881 -0.9922 -0.9960 -0.4531
 1805TIP3    H226907   0.574   0.732   3.750  0.3489  1.2122 -1.3643
 1806TIP3   OH226908   0.270   4.905   4.426 -0.1977  0.3542 -0.0991
 1806TIP3    H126909   0.314   4.836   4.476  0.3243 -0.4583 -1.6182
 1806TIP3    H226910   0.296   4.986   4.469  1.2058 -0.2458  0.2237
 1807TIP3   OH226911   6.604   1.844   2.878 -0.0712 -0.3121 -0.2315
 1807TIP3    H126912   6.532   1.794   2.916  0.2240 -0.3314  0.3120
 1807TIP3    H226913   6.675   1.780   2.870 -0.5149 -0.6037 -1.9519
 1808TIP3   OH226914   3.370   3.564   3.241  0.8830  0.2796 -0.3249
 1808TIP3    H126915   3.379   3.623   3.316 -2.6854 -2.2117  2.2017
 1808TIP3    H226916   3.424   3.489   3.263 -1.3328 -1.1086  0.5161
 1809TIP3   OH226917   0.779   4.547  13.864  0.0710  0.0242  0.4944
 1809TIP3    H126918   0.755   4.463  13.903 -1.4996  1.3012  2.3304
 1809TIP3    H226919   0.829   4.592  13.932  0.5786  0.7323 -0.3397
 1810TIP3   OH226920   3.106   3.675  17.225  0.5372 -0.3351 -0.0482
 1810TIP3    H126921   3.101   3.767  17.201 -0.0286  0.0891  1.5898
 1810TIP3    H226922   3.123   3.629  17.143  0.3552  1.1807 -0.9501
 1811TIP3   OH226923   1.140   1.744  11.410 -0.2357 -0.5474  0.4028
 1811TIP3    H126924   1.093   1.811  11.459  0.7594  0.8814 -0.5792
 1811TIP3    H226925   1.081   1.721  11.338 -1.0402 -1.5328  1.3630
 1812TIP3   OH226926   4.983   6.054   0.071 -0.0206  0.3034  0.3290
 1812TIP3    H126927   4.912   6.086   0.126 -2.0426 -1.7891 -0.9903
 1812TIP3    H226928   4.944   6.042  -0.015  2.1169 -0.2459 -0.6163
 1813TIP3   OH226929   5.588   6.761   3.086 -0.6865 -0.2806  0.2234
 1813TIP3    H126930   5.498   6.793   3.095 -1.4344 -2.3206  0.1182
 1813TIP3    H226931   5.624   6.766   3.174 -0.9580  0.3281  0.3058
 1814TIP3   OH226932   1.085   5.995  17.077  0.8761  0.0560 -0.4761
 1814TIP3    H126933   1.100   5.912  17.123  0.9172  0.1272 -0.3622
 1814TIP3    H226934   1.087   5.971  16.984 -2.3632 -0.6391 -0.4225
 1815TIP3   OH226935   0.272   1.111   2.104  0.1939 -1.2185 -0.3330
 1815TIP3    H126936   0.332   1.156   2.044 -0.0521 -0.5048 -0.0513
 1815TIP3    H226937   0.296   1.143   2.191 -2.0179  0.7834 -0.3992
 1816TIP3   OH226938   0.370   3.688   3.678  0.4793  0.4578 -0.2963
 1816TIP3    H126939   0.309   3.617   3.698  0.9574  0.3347  0.7190
 1816TIP3    H226940   0.322   3.768   3.698 -0.2272  0.4552 -1.8846
 1817TIP3   OH226941   3.275   2.131  12.152  0.3377  0.0415 -0.2632
 1817TIP3    H126942   3.278   2.174  12.238  0.0665  1.1739 -0.8101
 1817TIP3    H226943   3.221   2.053  12.166  0.4558  0.1123  0.6362
 1818TIP3   OH226944   4.595   2.979  13.269  0.8362  0.3272  0.3153
 1818TIP3    H126945   4.615   3.061  13.315  0.3848  0.4478  0.2937
 1818TIP3    H226946   4.657   2.916  13.306  0.4202  0.4008  1.1399
 1819TIP3   OH226947   0.600   5.765   4.879  0.1229 -0.4009  0.0821
 1819TIP3    H126948   0.618   5.671   4.882 -0.7086 -0.6211 -1.5999
 1819TIP3    H226949   0.565   5.781   4.791  1.2490  1.6647 -0.0230
 1820TIP3   OH226950   5.184   3.023   3.888  0.0753  0.3743 -0.3533
 1820TIP3    H126951   5.221   3.084   3.824 -1.3015  0.4827 -1.0848
 1820TIP3    H226952   5.107   2.987   3.844 -0.5694  0.0162  1.0393
 1821TIP3   OH226953   5.093   1.358   2.246 -0.2295  0.5283 -0.7102
 1821TIP3    H126954   5.122   1.421   2.180  1.3049 -0.7546 -1.3050
 1821TIP3    H226955   5.012   1.321   2.211  1.0474 -0.8078 -2.3646
 1822TIP3   OH226956   1.908   3.764  12.315 -0.6545  0.3628  0.0972
 1822TIP3    H126957   1.943   3.837  12.367 -0.3148  0.4567 -0.2629
 1822TIP3    H226958   1.833   3.801  12.269  0.0220  0.7100 -0.7372
 1823TIP3   OH226959   4.999   3.280   1.361  0.0484  0.4736 -0.4242
 1823TIP3    H126960   4.986   3.330   1.441  0.1792  0.1474 -0.1968
 1823TIP3    H226961   4.912   3.273   1.322 -0.4694 -1.5978  1.0232
 1824TIP3   OH226962   2.977   3.891  13.060  0.2039 -0.2963  0.5108
 1824TIP3    H126963   3.009   3.801  13.073 -0.2637 -0.6016 -0.4331
 1824TIP3    H226964   3.029   3.924  12.987 -0.7766 -0.3658 -0.2251
 1825TIP3   OH226965   4.796   5.236  14.260  0.3404 -0.3521  0.5573
 1825TIP3    H126966   4.890   5.240  14.245  0.3069 -1.4040  0.0854
 1825TIP3    H226967   4.785   5.265  14.351  1.1623 -0.7282  0.7766
 1826TIP3   OH226968   0.002   0.442  12.138  0.4374 -0.4737  0.4610
 1826TIP3    H126969   0.087   0.486  12.144  1.5777 -2.3313 -1.4032
 1826TIP3    H226970  -0.018   0.416  12.228  1.8668 -0.0745  0.9117
 1827TIP3   OH226971   2.801   4.298  12.564  0.4776  0.2919  0.1158
 1827TIP3    H126972   2.708   4.303  12.542  0.6991  1.5234 -0.6537
 1827TIP3    H226973   2.827   4.390  12.578  2.0989  0.2160 -2.0584
 1828TIP3   OH226974   4.153   4.428   0.440  0.1624 -0.2341 -0.3707
 1828TIP3    H126975   4.231   4.375   0.453  0.4273  0.1785 -0.2662
 1828TIP3    H226976   4.126   4.453   0.528  0.0517 -0.1758 -0.4207
 1829TIP3   OH226977   3.994   3.435  11.004  0.7720 -0.5154 -0.5483
 1829TIP3    H126978   4.017   3.349  10.970  2.1891  0.2463 -1.5840
 1829TIP3    H226979   3.921   3.464  10.950  1.5160 -0.2837 -1.4403
 1830TIP3   OH226980   0.765   4.397  11.128  0.2157  0.2824 -0.1145
 1830TIP3    H126981   0.794   4.368  11.041 -0.2521  1.1757 -0.5841
 1830TIP3    H226982   0.741   4.489  11.115  2.8642  1.3014  1.5707
 1831TIP3   OH226983   5.730   2.864   5.970 -0.4335 -0.2440 -0.0870
 1831TIP3    H126984   5.672   2.916   5.914  1.6739  0.9049 -1.2739
 1831TIP3    H226985   5.705   2.773   5.952 -0.7219  0.1569 -1.8958
 1832TIP3   OH226986   6.726   4.789   1.898  0.3644  0.2321  0.1716
 1832TIP3    H126987   6.727   4.723   1.967  2.7516  0.9289  0.8692
 1832TIP3    H226988   6.740   4.872   1.945 -0.7786  1.0171 -0.8654
 1833TIP3   OH226989   3.083   0.521   2.969  0.1920 -0.0099 -0.8658
 1833TIP3    H126990   3.017   0.565   2.914  1.1550 -0.1047 -2.1256
 1833TIP3    H226991   3.145   0.590   2.991 -0.3818  0.1082  0.4393
 1834TIP3   OH226992   5.682   1.675   5.041  0.4477 -0.7273 -0.1841
 1834TIP3    H126993   5.648   1.592   5.074 -0.1071 -0.6347 -0.5084
 1834TIP3    H226994   5.616   1.739   5.068  1.0330 -0.3422  0.3484
 1835TIP3   OH226995   0.418   1.905  13.150  0.4410  0.9298  0.1717
 1835TIP3    H126996   0.472   1.884  13.074 -0.4458  0.2854 -0.2852
 1835TIP3    H226997   0.347   1.841  13.147  1.1133  0.0585  2.2918
 1836TIP3   OH226998   5.368   6.525   1.948 -0.0779 -0.0438 -0.0747
 1836TIP3    H126999   5.294   6.584   1.956  0.5165  0.7707 -0.5285
 1836TIP3    H227000   5.408   6.548   1.864  0.6310 -0.5390  0.1232
 1837TIP3   OH227001   0.589   1.642   2.573 -0.1226  0.1903 -0.2879
 1837TIP3    H127002   0.588   1.702   2.647  0.4342 -0.0307 -0.0987
 1837TIP3    H227003   0.618   1.696   2.499 -4.1370  1.2981 -1.1451
 1838TIP3   OH227004   2.500   0.498   3.556  0.5324  0.1120 -0.1491
 1838TIP3    H127005   2.570   0.533   3.502  1.0424 -0.2762  0.2593
 1838TIP3    H227006   2.470   0.419   3.509  1.1864 -0.4020  0.2894
 1839TIP3   OH227007   0.117   2.664  13.820  0.4441  0.2740  0.5048
 1839TIP3    H127008   0.115   2.639  13.912  0.7953 -1.2698  0.1090
 1839TIP3    H227009   0.044   2.726  13.810 -0.6682 -0.8681  1.4436
 1840TIP3   OH227010   1.875   3.604   4.625 -0.0719 -0.0845  0.3495
 1840TIP3    H127011   1.782   3.588   4.644 -0.5157 -0.6127 -2.1019
 1840TIP3    H227012   1.903   3.664   4.694 -3.4414  3.8083 -1.4603
 1841TIP3   OH227013   3.755   4.238  12.128  0.2801 -0.3071  0.1696
 1841TIP3    H127014   3.683   4.261  12.187 -0.3771  3.8690 -2.0168
 1841TIP3    H227015   3.834   4.247  12.181 -0.6209 -2.5927  1.9647
 1842TIP3   OH227016   1.635   2.412  10.336  0.2309 -0.0729 -0.3573
 1842TIP3    H127017   1.556   2.374  10.373  0.3298  0.4806  0.4224
 1842TIP3    H227018   1.655   2.486  10.393 -0.1402  1.3498 -2.0460
 1843TIP3   OH227019   0.397   5.682  11.452  0.1082 -0.5633 -0.3678
 1843TIP3    H127020   0.443   5.649  11.374  2.8230 -0.9564  1.3394
 1843TIP3    H227021   0.398   5.777  11.441  0.6940 -0.6050 -0.6914
 1844TIP3   OH227022   3.756   4.131  10.271 -0.2482  0.3623 -0.6026
 1844TIP3    H127023   3.689   4.121  10.339 -0.2903 -1.6274 -0.9225
 1844TIP3    H227024   3.789   4.043  10.256  2.6540  1.3478 -0.2853
 1845TIP3   OH227025   3.793   4.214  13.486 -0.5348  0.5583 -0.7092
 1845TIP3    H127026   3.786   4.119  13.485 -1.3272  0.6077 -0.3079
 1845TIP3    H227027   3.885   4.232  13.465 -0.5550 -0.2685 -1.5186
 1846TIP3   OH227028   0.734   5.164   0.835  0.5597  0.0162 -0.0598
 1846TIP3    H127029   0.697   5.227   0.898  0.0677 -0.8813  0.5596
 1846TIP3    H227030   0.799   5.215   0.787 -0.3610  1.2049 -0.0900
 1847TIP3   OH227031   5.095   3.852  15.178  0.0909  0.2865 -0.2627
 1847TIP3    H127032   5.118   3.943  15.164 -0.5607  0.5478  0.3150
 1847TIP3    H227033   5.123   3.807  15.098  1.4706  0.7843 -0.0758
 1848TIP3   OH227034   2.454   0.753  11.426  0.4316 -0.0629  0.4385
 1848TIP3    H127035   2.380   0.754  11.365 -0.0694 -1.4389  1.0084
 1848TIP3    H227036   2.418   0.717  11.507  1.6311 -0.3586  0.8493
 1849TIP3   OH227037   5.441   5.766   3.818 -0.0132  0.0698 -0.4886
 1849TIP3    H127038   5.449   5.780   3.724  0.6127 -1.0357 -0.6106
 1849TIP3    H227039   5.448   5.671   3.829 -1.2503  0.0810  0.5612
 1850TIP3   OH227040   2.874   3.643  14.336  0.2425  0.5948 -0.3640
 1850TIP3    H127041   2.926   3.723  14.326  2.5960 -0.8792 -0.0394
 1850TIP3    H227042   2.853   3.641  14.430  1.6631 -0.0919 -0.0650
 1851TIP3   OH227043   3.361   1.077  16.480  0.2970  0.0230 -0.0358
 1851TIP3    H127044   3.286   1.091  16.538  0.4423  1.1308 -0.1073
 1851TIP3    H227045   3.325   1.028  16.406 -0.3407  0.4857 -0.0368
 1852TIP3   OH227046   4.437   5.468   4.009 -0.3154 -0.0997  0.1834
 1852TIP3    H127047   4.346   5.468   3.980 -0.5045  0.0228  0.7563
 1852TIP3    H227048   4.481   5.529   3.951 -1.2674  2.2707  1.8530
 1853TIP3   OH227049   0.464   1.627   5.042  0.4941  0.4809 -0.1083
 1853TIP3    H127050   0.550   1.586   5.029  0.1359 -0.6058  0.7820
 1853TIP3    H227051   0.431   1.642   4.954  0.3722 -1.7738 -0.4922
 1854TIP3   OH227052   3.278   4.573  13.295  0.1035 -0.0907 -0.3689
 1854TIP3    H127053   3.197   4.614  13.263 -0.4760 -0.3824  0.7014
 1854TIP3    H227054   3.251   4.523  13.372  1.3567  0.0104  0.1506
 1855TIP3   OH227055   3.501   3.626  15.445 -0.1443  0.1311  0.1068
 1855TIP3    H127056   3.541   3.558  15.499 -1.4350  0.9237  2.1281
 1855TIP3    H227057   3.543   3.617  15.359  2.2604 -0.8715  1.3498
 1856TIP3   OH227058   3.085   0.988  15.622 -0.3218 -0.3695  0.0026
 1856TIP3    H127059   3.088   0.956  15.532 -0.3352 -0.7592  0.1372
 1856TIP3    H227060   3.037   1.071  15.617  0.6007  0.1397 -0.5041
 1857TIP3   OH227061   6.398   6.026   3.363  0.5409  0.1466  0.1280
 1857TIP3    H127062   6.336   6.070   3.422  1.1523  1.3334 -0.0927
 1857TIP3    H227063   6.431   5.953   3.414 -0.5275 -0.0996  0.4937
 1858TIP3   OH227064   4.693   5.987   1.074 -0.2395 -0.5828  0.7144
 1858TIP3    H127065   4.670   5.934   0.997  0.0382  1.0564 -0.5211
 1858TIP3    H227066   4.617   6.044   1.087 -0.5335 -1.2354  2.0441
 1859TIP3   OH227067   2.817   4.388   1.381  0.6232  0.8069  0.3270
 1859TIP3    H127068   2.781   4.385   1.470  1.3553  0.3191  0.6071
 1859TIP3    H227069   2.853   4.476   1.373 -1.8431  1.7956 -0.4430
 1860TIP3   OH227070   0.723   2.229  11.273 -0.2076  0.1068 -0.6289
 1860TIP3    H127071   0.806   2.205  11.232  0.6591  0.5293  0.8678
 1860TIP3    H227072   0.718   2.324  11.263  0.5326  0.3557  1.1808
 1861TIP3   OH227073   3.902   3.106  15.369 -0.2858  0.0379  0.5146
 1861TIP3    H127074   3.948   3.022  15.366  0.5879  0.5078  0.7106
 1861TIP3    H227075   3.820   3.089  15.323 -0.0608 -0.8921  0.4375
 1862TIP3   OH227076   6.495   6.431   2.181  0.0355  0.2463 -0.3329
 1862TIP3    H127077   6.572   6.385   2.148 -0.7496 -0.1209 -1.7256
 1862TIP3    H227078   6.507   6.434   2.276  1.8764  0.4243 -0.5640
 1863TIP3   OH227079   5.860   3.219   1.264  0.1299 -0.3887  0.3006
 1863TIP3    H127080   5.945   3.225   1.220  0.2107  1.2271  0.6454
 1863TIP3    H227081   5.803   3.276   1.213 -0.9580 -2.0520 -0.3666
 1864TIP3   OH227082   3.909   6.744  12.311  0.8020  0.0881  0.0021
 1864TIP3    H127083   3.965   6.758  12.387 -1.2682  3.6111  0.9770
 1864TIP3    H227084   3.903   6.829  12.269 -2.8752 -0.4061 -0.6947
 1865TIP3   OH227085   1.306   6.251   1.716 -0.1532  0.5033  0.3919
 1865TIP3    H127086   1.306   6.261   1.811 -0.9353 -1.5366  0.6328
 1865TIP3    H227087   1.319   6.339   1.683  2.0109  0.9871  2.4104
 1866TIP3   OH227088   6.095   6.452  14.093  0.1115  0.0868 -0.3608
 1866TIP3    H127089   6.097   6.520  14.026  1.6279 -0.1704 -0.5942
 1866TIP3    H227090   6.160   6.388  14.064 -0.6602 -1.0200  0.3161
 1867TIP3   OH227091   6.655   0.586  10.636 -0.2807 -0.1033  0.3358
 1867TIP3    H127092   6.644   0.578  10.731 -0.1579 -1.0510  0.2747
 1867TIP3    H227093   6.657   0.680  10.620  0.7545  0.0632  1.3931
 1868TIP3   OH227094   1.588   3.896   2.036  1.0080  0.0203  0.1541
 1868TIP3    H127095   1.630   3.810   2.033  0.3433 -0.3177  0.5485
 1868TIP3    H227096   1.524   3.889   2.106 -0.6202  0.1096 -1.2830
 1869TIP3   OH227097   4.103   0.310  16.815  0.0404  0.8237  0.0719
 1869TIP3    H127098   4.072   0.300  16.725 -0.5676  0.4258  0.3222
 1869TIP3    H227099   4.177   0.370  16.809 -1.0021  2.0597 -0.4867
 1870TIP3   OH227100   4.986   1.570   2.699  0.1314  0.0672 -0.5701
 1870TIP3    H127101   4.952   1.537   2.782 -2.6668 -0.2002 -1.7857
 1870TIP3    H227102   5.018   1.492   2.653 -0.7995 -0.1593 -0.8494
 1871TIP3   OH227103   2.857   3.667  13.804 -0.1755 -0.0817  0.6643
 1871TIP3    H127104   2.946   3.678  13.770  0.1033 -2.1613  0.6655
 1871TIP3    H227105   2.867   3.664  13.899 -0.2513 -0.3003  0.6662
 1872TIP3   OH227106   4.382   1.108  15.358 -0.0609 -0.2003 -0.0937
 1872TIP3    H127107   4.287   1.110  15.342 -0.0671 -0.1018 -0.0418
 1872TIP3    H227108   4.420   1.078  15.276 -0.1263 -0.1048 -0.1580
 1873TIP3   OH227109   6.294   1.877   3.726  1.0757 -0.4519  0.3092
 1873TIP3    H127110   6.381   1.881   3.767  0.9340  2.4137  0.3982
 1873TIP3    H227111   6.233   1.880   3.799  0.8739 -0.5672  0.1457
 1874TIP3   OH227112   0.926   0.955   0.741 -0.2161 -0.2085  0.2419
 1874TIP3    H127113   0.918   0.862   0.720 -0.0301 -0.1847  0.0656
 1874TIP3    H227114   0.847   0.995   0.703  0.8967  0.0868 -1.8435
 1875TIP3   OH227115   3.983   5.023  16.066 -0.5208  0.1588  0.7119
 1875TIP3    H127116   4.065   4.978  16.087 -1.9547 -2.0054  1.8826
 1875TIP3    H227117   4.002   5.115  16.081  2.3949 -0.0328 -1.3534
 1876TIP3   OH227118   5.475   1.999  10.921  0.0246  0.9032 -1.0036
 1876TIP3    H127119   5.516   1.973  10.838  0.8128 -0.8081 -0.0910
 1876TIP3    H227120   5.411   2.065  10.896  0.0043  0.1508 -3.0229
 1877TIP3   OH227121   6.220   1.117   3.093 -0.0911  0.2432 -0.2608
 1877TIP3    H127122   6.270   1.174   3.151  1.2641 -0.3541 -0.8150
 1877TIP3    H227123   6.170   1.177   3.037  0.0774  0.8520  0.2382
 1878TIP3   OH227124   0.151   3.911  15.036 -0.2899 -0.6248  0.8347
 1878TIP3    H127125   0.115   3.997  15.058 -0.4995 -0.2792 -0.8006
 1878TIP3    H227126   0.197   3.883  15.115 -1.0361  0.5623  1.7004
 1879TIP3   OH227127   5.734   5.219   5.407 -0.3248 -0.4905 -0.2072
 1879TIP3    H127128   5.668   5.289   5.408  1.3277  1.1057  1.6018
 1879TIP3    H227129   5.749   5.198   5.499  2.0880 -0.4125 -0.5487
 1880TIP3   OH227130   5.113   2.713  15.571 -0.4127  0.3004  0.5556
 1880TIP3    H127131   5.071   2.675  15.648 -0.2133 -0.0648  0.4851
 1880TIP3    H227132   5.068   2.797  15.558 -0.9552  0.0226  0.6218
 1881TIP3   OH227133   0.693   1.632  11.875  0.1704 -0.7996  0.2618
 1881TIP3    H127134   0.694   1.646  11.780  0.8285  1.2189  0.5337
 1881TIP3    H227135   0.604   1.653  11.902 -0.7553 -3.8559 -0.2014
 1882TIP3   OH227136   4.177   5.537   3.891  0.4990 -0.5590  0.4459
 1882TIP3    H127137   4.102   5.512   3.945  1.4041 -3.7328  0.3255
 1882TIP3    H227138   4.155   5.504   3.804  1.3528 -0.1117  0.0621
 1883TIP3   OH227139   0.545   5.045  11.346 -0.0630 -0.2221 -0.0802
 1883TIP3    H127140   0.548   4.951  11.326 -0.3401  0.0442 -1.4485
 1883TIP3    H227141   0.562   5.088  11.262  3.7052  0.9331  1.1509
 1884TIP3   OH227142   3.735   5.646  12.768 -0.1998  0.7661  0.4278
 1884TIP3    H127143   3.776   5.722  12.728  1.0610 -0.7895 -1.3146
 1884TIP3    H227144   3.797   5.617  12.836  0.4233 -0.0824 -0.4938
 1885TIP3   OH227145   0.975   0.236   4.955 -0.3559  0.3503 -0.3244
 1885TIP3    H127146   0.899   0.243   5.013 -0.1664  1.0069 -0.1559
 1885TIP3    H227147   1.047   0.276   5.004 -0.3106  1.3829 -1.2071
 1886TIP3   OH227148   0.973   4.558  17.114 -0.3373  0.1286 -0.3160
 1886TIP3    H127149   0.893   4.603  17.139 -0.6063 -0.5060 -0.0070
 1886TIP3    H227150   0.959   4.467  17.143 -0.5647 -0.5741 -2.5506
 1887TIP3   OH227151   2.227   0.946   2.186 -0.0739  0.5754 -0.0305
 1887TIP3    H127152   2.251   1.023   2.239  0.0513  0.6912 -0.2552
 1887TIP3    H227153   2.303   0.931   2.130 -0.1154  0.3125 -0.0162
 1888TIP3   OH227154   5.720   6.074  12.225  0.5181 -0.4260 -0.4712
 1888TIP3    H127155   5.714   6.089  12.131 -0.0847  1.2562 -0.1823
 1888TIP3    H227156   5.813   6.062  12.243  0.9635  2.2311 -0.8616
 1889TIP3   OH227157   5.769   5.679  16.422  0.5741  0.4172 -0.9085
 1889TIP3    H127158   5.796   5.595  16.460 -0.0801  0.5216 -0.2030
 1889TIP3    H227159   5.824   5.689  16.345  0.6872 -0.6507 -0.9804
 1890TIP3   OH227160   1.300   1.421  10.663  0.6708 -0.2368 -0.1610
 1890TIP3    H127161   1.388   1.445  10.691  0.8008  0.0954 -0.8294
 1890TIP3    H227162   1.244   1.493  10.694  0.8082  0.1122 -0.7189
 1891TIP3   OH227163   1.570   5.739   3.015 -0.0172 -0.9559 -0.0336
 1891TIP3    H127164   1.661   5.728   2.985  0.5997  1.8119  0.7298
 1891TIP3    H227165   1.567   5.691   3.098  0.6000 -1.4973 -0.3163
 1892TIP3   OH227166   4.356   1.077   0.986 -0.9155 -0.0882  0.1187
 1892TIP3    H127167   4.369   1.122   1.070  0.8384 -0.2390 -0.0730
 1892TIP3    H227168   4.286   1.013   1.005  0.8760 -1.5736  2.0439
 1893TIP3   OH227169   3.245   2.058   2.494 -0.3228  0.0002  0.1029
 1893TIP3    H127170   3.189   2.042   2.570 -1.7521  2.3863 -0.3952
 1893TIP3    H227171   3.291   2.139   2.514  1.5693 -0.9255 -0.3330
 1894TIP3   OH227172   4.870   3.593   3.380  0.1704  0.0383 -0.1009
 1894TIP3    H127173   4.915   3.630   3.304 -0.9472 -1.2965 -1.4456
 1894TIP3    H227174   4.876   3.499   3.368 -2.5227 -0.1872 -0.0914
 1895TIP3   OH227175   3.995   1.914  12.722 -0.3722 -0.0685 -0.2435
 1895TIP3    H127176   4.065   1.941  12.781 -0.5356 -0.1169 -0.0231
 1895TIP3    H227177   3.916   1.952  12.761 -0.6294 -0.9837  0.1476
 1896TIP3   OH227178   0.899   2.546   2.118  0.0694 -0.1230  0.4470
 1896TIP3    H127179   0.815   2.592   2.124  0.5462  0.4997  2.8353
 1896TIP3    H227180   0.885   2.479   2.052 -1.8189  1.0000 -0.3337
 1897TIP3   OH227181   0.203   4.014   3.690  0.2645 -0.3861 -0.0770
 1897TIP3    H127182   0.135   3.953   3.663 -0.5560  0.5098 -0.0937
 1897TIP3    H227183   0.266   4.014   3.619  0.3280 -1.2921 -0.0236
 1898TIP3   OH227184   0.189   2.068  13.236 -0.1280  0.8400 -0.1756
 1898TIP3    H127185   0.103   2.030  13.253  0.9630 -1.4559  0.3977
 1898TIP3    H227186   0.228   2.011  13.171  0.8498  2.0638 -0.6801
 1899TIP3   OH227187   6.799   1.772   0.001 -0.3004  0.4266  0.5407
 1899TIP3    H127188   6.735   1.837  -0.027 -0.3432 -0.8692 -2.5164
 1899TIP3    H227189   6.750   1.714   0.060 -1.1837  1.0635  0.4430
 1900TIP3   OH227190   4.291   6.558   0.681  0.1841 -0.5368 -0.2388
 1900TIP3    H127191   4.263   6.581   0.593 -0.8228  1.6715  0.6188
 1900TIP3    H227192   4.382   6.533   0.672  0.5815  1.3305 -1.6757
 1901TIP3   OH227193   1.109   4.835   5.819  0.1629  0.0208  0.5395
 1901TIP3    H127194   1.059   4.841   5.738  0.6182 -0.8500  0.1932
 1901TIP3    H227195   1.190   4.883   5.801 -0.3588  1.0637  0.9585
 1902TIP3   OH227196   5.886   0.809   1.791  0.2530 -0.0602  0.4568
 1902TIP3    H127197   5.864   0.719   1.764 -0.0589 -0.6911  2.7479
 1902TIP3    H227198   5.909   0.853   1.709 -1.4019 -1.7149 -0.9626
 1903TIP3   OH227199   6.077   1.213   2.205 -0.2036  0.1002  0.3525
 1903TIP3    H127200   6.088   1.305   2.230  1.7039  0.9539 -3.4105
 1903TIP3    H227201   6.001   1.213   2.146  0.2677 -0.6206 -0.2528
 1904TIP3   OH227202   4.914   0.538   0.056  0.2654  0.5802  0.1394
 1904TIP3    H127203   4.968   0.567   0.130  0.6784 -0.6081  0.3070
 1904TIP3    H227204   4.974   0.538  -0.018  0.3462 -0.1332  0.2001
 1905TIP3   OH227205   2.316   2.544   5.418  0.5779 -0.1078  0.3796
 1905TIP3    H127206   2.401   2.562   5.456  0.1241  0.2994  1.2055
 1905TIP3    H227207   2.336   2.508   5.331  1.5695  0.6605  0.2779
 1906TIP3   OH227208   5.731   4.878   0.709 -0.1624 -0.4927 -0.2237
 1906TIP3    H127209   5.761   4.794   0.744 -1.9340  0.1565  3.0209
 1906TIP3    H227210   5.812   4.927   0.694  0.7771 -1.7649  0.5418
 1907TIP3   OH227211   4.193   3.306  15.829 -0.1644 -0.6712 -0.2717
 1907TIP3    H127212   4.132   3.287  15.757  0.6200 -1.9389 -0.6054
 1907TIP3    H227213   4.195   3.227  15.882 -0.4514  0.1292  0.9617
 1908TIP3   OH227214   0.918   4.014  15.795 -0.2040 -0.1536  0.3335
 1908TIP3    H127215   0.861   4.013  15.872 -1.2564  0.8763 -0.4115
 1908TIP3    H227216   0.907   4.102  15.759 -0.5836 -0.9950 -1.6412
 1909TIP3   OH227217   0.775   3.269   2.129 -0.1494  0.1692 -0.4556
 1909TIP3    H127218   0.830   3.209   2.079 -0.2374 -1.4930  1.4261
 1909TIP3    H227219   0.837   3.326   2.174 -0.0268 -0.1974 -0.1661
 1910TIP3   OH227220   2.620   3.269   2.529 -0.0614  0.3112  0.3168
 1910TIP3    H127221   2.571   3.235   2.454 -0.5222  0.5483  0.5059
 1910TIP3    H227222   2.553   3.285   2.595  0.2979  0.4772  0.6400
 1911TIP3   OH227223   0.220   4.223  13.821  0.1310 -0.1784 -0.3368
 1911TIP3    H127224   0.307   4.242  13.857 -0.6601 -1.2761  2.2643
 1911TIP3    H227225   0.160   4.276  13.874 -1.0052 -1.3733 -0.4066
 1912TIP3   OH227226   3.082   1.907  11.892 -0.2382 -0.2088 -0.1087
 1912TIP3    H127227   2.992   1.911  11.925 -0.2806 -1.1343 -0.0984
 1912TIP3    H227228   3.088   1.977  11.828 -0.3192  1.3041  1.4800
 1913TIP3   OH227229   2.825   6.757   1.583  0.8945  0.5813  0.2304
 1913TIP3    H127230   2.866   6.710   1.655 -0.6305 -0.2879  0.5418
 1913TIP3    H227231   2.884   6.831   1.566  2.8696 -0.9478  0.2894
 1914TIP3   OH227232   5.376   4.108   2.907 -0.5401 -0.0660 -0.1460
 1914TIP3    H127233   5.374   4.202   2.887  0.6853  0.1223  0.5904
 1914TIP3    H227234   5.439   4.071   2.845 -2.8982 -0.8561 -2.1810
 1915TIP3   OH227235   0.259   2.365  16.865 -0.1391  0.0955 -0.0026
 1915TIP3    H127236   0.346   2.390  16.896  0.1111 -0.0264 -0.6097
 1915TIP3    H227237   0.199   2.418  16.918  0.2263 -1.0985  1.6295
 1916TIP3   OH227238   6.520   4.713  11.086  0.0127 -0.3887 -0.0397
 1916TIP3    H127239   6.490   4.804  11.079 -1.1770 -0.4026  3.9152
 1916TIP3    H227240   6.465   4.665  11.025 -1.6489  1.0668  0.2806
 1917TIP3   OH227241   5.092   6.812  16.742  0.1129 -0.2154 -0.9383
 1917TIP3    H127242   5.042   6.736  16.773  1.0958 -0.4574  0.0887
 1917TIP3    H227243   5.122   6.855  16.822  1.6360 -0.1373 -1.5504
 1918TIP3   OH227244   3.480   5.409   5.267  0.4087  0.3974  0.8518
 1918TIP3    H127245   3.494   5.331   5.214 -0.0488 -0.7091  2.3145
 1918TIP3    H227246   3.388   5.432   5.253  0.3194  0.1714  1.0496
 1919TIP3   OH227247   5.002   5.569   1.949  0.3210  0.3928  0.4644
 1919TIP3    H127248   4.924   5.516   1.934  0.7897 -0.8987  2.3934
 1919TIP3    H227249   5.003   5.631   1.876 -1.0647 -1.2631 -1.0147
 1920TIP3   OH227250   1.004   6.494   0.982  0.1338  0.1488  0.2550
 1920TIP3    H127251   0.992   6.404   0.950  0.0708  0.6849 -1.2778
 1920TIP3    H227252   1.021   6.484   1.076  0.4298 -1.4856  0.0477
 1921TIP3   OH227253   4.087   6.305  17.027  0.1628 -0.3346  0.2597
 1921TIP3    H127254   4.123   6.292  17.114 -1.2296 -0.4387  0.8249
 1921TIP3    H227255   4.083   6.400  17.016  1.7978 -0.3108 -0.3198
 1922TIP3   OH227256   0.297   0.018  10.967 -0.1327  0.0851 -0.3489
 1922TIP3    H127257   0.302  -0.070  10.929  1.1563 -0.1577  0.3614
 1922TIP3    H227258   0.330   0.075  10.897 -0.4701 -0.0518 -0.6215
 1923TIP3   OH227259   4.278   6.384  10.613 -0.1732 -0.5127 -0.4392
 1923TIP3    H127260   4.245   6.322  10.549  1.4436 -2.5590  0.6757
 1923TIP3    H227261   4.226   6.368  10.691  0.3272 -0.5323 -0.1081
 1924TIP3   OH227262   1.801   1.710  15.511 -0.6464  0.5620 -0.0476
 1924TIP3    H127263   1.848   1.641  15.557 -2.9792 -1.4532 -0.6058
 1924TIP3    H227264   1.850   1.723  15.430 -0.2518 -0.5514  0.0066
 1925TIP3   OH227265   1.185   1.772   0.534 -0.2219  0.0105  0.0248
 1925TIP3    H127266   1.192   1.779   0.629  0.7479  0.1406 -0.0562
 1925TIP3    H227267   1.214   1.857   0.501  0.4395 -0.3957 -0.4412
 1926TIP3   OH227268   4.390   1.020  13.376  0.6007  0.0119  0.0698
 1926TIP3    H127269   4.395   1.100  13.324  0.0568 -1.2257 -1.9321
 1926TIP3    H227270   4.410   0.950  13.314 -0.8055 -1.5632  1.3619
 1927TIP3   OH227271   0.058   1.042  14.184 -0.4236 -0.0801  0.0028
 1927TIP3    H127272   0.044   1.021  14.276 -0.3244 -3.7586 -0.7140
 1927TIP3    H227273  -0.022   1.013  14.140 -0.5037  1.6968 -1.0788
 1928TIP3   OH227274   4.429   2.054  15.406 -0.4382  0.0930  0.1631
 1928TIP3    H127275   4.437   1.960  15.390  0.0136  0.3429 -1.0908
 1928TIP3    H227276   4.355   2.081  15.352  0.6750  0.8164 -1.0108
 1929TIP3   OH227277   4.744   1.955  13.389  0.1251  0.1056  0.3751
 1929TIP3    H127278   4.832   1.941  13.354 -0.0017  0.6722 -0.1743
 1929TIP3    H227279   4.753   2.028  13.449  0.5181 -1.4237  2.2123
 1930TIP3   OH227280   2.077   4.176   1.085 -0.5579 -0.2326 -0.2703
 1930TIP3    H127281   2.131   4.249   1.117 -0.4720  0.7161 -2.5562
 1930TIP3    H227282   2.013   4.162   1.155  0.5295  0.8466  0.9799
 1931TIP3   OH227283   2.561   6.345  11.340 -0.4632  0.0946 -0.1857
 1931TIP3    H127284   2.599   6.358  11.253  2.3045 -1.7130  0.6867
 1931TIP3    H227285   2.607   6.408  11.395 -1.2030  0.2604  0.2491
 1932TIP3   OH227286   0.450   3.301  16.646 -0.0535 -0.1686  0.3048
 1932TIP3    H127287   0.413   3.317  16.559 -1.7118 -0.1601  0.9930
 1932TIP3    H227288   0.503   3.379  16.664 -1.7525  1.0016  0.3428
 1933TIP3   OH227289   6.735   2.860   5.690 -0.0363 -0.0159 -0.0968
 1933TIP3    H127290   6.712   2.839   5.780  1.3046  0.1315  0.2822
 1933TIP3    H227291   6.653   2.890   5.651 -0.8277 -0.9575  0.8070
 1934TIP3   OH227292   0.082   3.154   4.675  0.1500 -0.2747 -0.0080
 1934TIP3    H127293   0.011   3.205   4.636  0.6511 -0.5541 -1.2948
 1934TIP3    H227294   0.038   3.095   4.737 -0.6790 -0.0615 -0.3869
 1935TIP3   OH227295   5.790   5.884   2.188  0.7023  0.3216 -0.1814
 1935TIP3    H127296   5.751   5.902   2.102 -0.7744  4.9099  1.3718
 1935TIP3    H227297   5.719   5.846   2.239  0.4034  1.5346  0.3044
 1936TIP3   OH227298   4.631   4.008   5.443 -0.3549  0.2566  0.0537
 1936TIP3    H127299   4.675   4.040   5.364 -2.9376  1.8821 -0.7663
 1936TIP3    H227300   4.627   4.083   5.502 -1.5339  0.0021  0.3240
 1937TIP3   OH227301   6.790   5.980  13.081 -0.2610  0.0283  0.1891
 1937TIP3    H127302   6.783   6.018  13.169 -1.0396  0.6094 -0.1227
 1937TIP3    H227303   6.874   6.012  13.048  0.0668 -0.2493  0.7481
 1938TIP3   OH227304   3.776   2.053   5.131  0.0026  0.3188 -0.1299
 1938TIP3    H127305   3.773   1.980   5.193  1.1563 -0.9095 -1.4656
 1938TIP3    H227306   3.868   2.079   5.129 -0.1324  0.7488 -0.8666
 1939TIP3   OH227307   2.493   0.441  11.465  0.1730  0.8588 -0.1392
 1939TIP3    H127308   2.466   0.502  11.533 -1.6245  2.4711 -2.2204
 1939TIP3    H227309   2.424   0.375  11.461  0.4865  0.5238 -0.1362
 1940TIP3   OH227310   3.640   6.312   3.191  0.2483  0.4650 -0.3268
 1940TIP3    H127311   3.643   6.256   3.269  1.4927  0.3921 -0.4270
 1940TIP3    H227312   3.574   6.378   3.211 -0.3519 -0.3122  0.2781
 1941TIP3   OH227313   5.691   0.779  12.293  0.3460 -0.1429  0.5093
 1941TIP3    H127314   5.746   0.773  12.370  1.7233 -0.3712 -0.4725
 1941TIP3    H227315   5.648   0.693  12.287  0.5183 -0.2488  0.8015
 1942TIP3   OH227316   5.063   2.730   4.041 -0.1842  0.4621  0.5685
 1942TIP3    H127317   4.990   2.788   4.022 -0.8627 -0.9427 -1.3212
 1942TIP3    H227318   5.106   2.717   3.956  0.2727 -1.3240  1.0521
 1943TIP3   OH227319   4.898   0.507   1.870 -0.3094 -0.2697  0.1009
 1943TIP3    H127320   4.987   0.473   1.868  0.0022  0.4844  0.8645
 1943TIP3    H227321   4.842   0.429   1.879  0.2437 -0.7690 -0.7497
 1944TIP3   OH227322   4.030   1.717   4.318 -0.1729  0.3942 -0.3673
 1944TIP3    H127323   4.115   1.715   4.274  0.2639  3.3005  0.2177
 1944TIP3    H227324   3.992   1.630   4.302  2.0195 -0.2508 -2.3609
 1945TIP3   OH227325   2.524   3.491  14.394 -0.7214 -0.2172  0.2832
 1945TIP3    H127326   2.485   3.432  14.457 -0.1229 -1.1235 -0.1868
 1945TIP3    H227327   2.581   3.548  14.447 -0.2105 -0.9800  0.5713
 1946TIP3   OH227328   5.451   4.020  12.611  0.5155 -0.1905 -0.7266
 1946TIP3    H127329   5.479   3.943  12.660 -1.3073 -0.5738 -0.2286
 1946TIP3    H227330   5.391   3.985  12.544 -0.4491  0.7936 -0.3993
 1947TIP3   OH227331   6.582   0.632   5.331 -0.1571  0.4180 -0.3022
 1947TIP3    H127332   6.638   0.573   5.381 -0.2833  1.4848  1.1345
 1947TIP3    H227333   6.499   0.632   5.378 -0.6105  0.6688 -1.0846
 1948TIP3   OH227334   2.046   5.898   0.548 -0.2999  0.1047 -0.5235
 1948TIP3    H127335   2.010   5.844   0.478 -0.7977  0.1414 -0.2926
 1948TIP3    H227336   2.079   5.835   0.612  0.5325  0.0642 -0.9731
 1949TIP3   OH227337   0.104   1.482  13.802 -0.6713  0.5412 -0.7538
 1949TIP3    H127338   0.137   1.568  13.831 -0.0847  0.0432  0.0898
 1949TIP3    H227339   0.011   1.483  13.824 -0.7938  1.1731 -1.2692
 1950TIP3   OH227340   4.125   6.518  12.355 -0.1333 -0.2877  0.5397
 1950TIP3    H127341   4.118   6.584  12.424  0.5636 -0.0010  0.3472
 1950TIP3    H227342   4.175   6.562  12.286 -0.2708 -0.7883  0.1217
 1951TIP3   OH227343   6.000   1.182   3.307 -0.2447 -0.3377 -0.5746
 1951TIP3    H127344   5.996   1.121   3.233 -0.6078 -0.0698 -0.7751
 1951TIP3    H227345   6.012   1.268   3.266  2.2418 -0.4808 -0.2346
 1952TIP3   OH227346   1.099   4.912  11.731  1.0084  0.2548 -0.3596
 1952TIP3    H127347   1.165   4.945  11.669  0.0624  2.1855 -0.3794
 1952TIP3    H227348   1.017   4.954  11.703  0.1763 -0.4882  0.9324
 1953TIP3   OH227349   6.315   5.983  16.663 -0.1777 -0.0121 -0.2278
 1953TIP3    H127350   6.275   6.067  16.642 -3.2473 -0.3703  3.7411
 1953TIP3    H227351   6.359   5.998  16.747 -0.5757 -2.2723  0.4124
 1954TIP3   OH227352   5.569   0.121  13.228 -0.3702  0.0136 -0.6139
 1954TIP3    H127353   5.625   0.158  13.297  2.2201 -0.1972 -2.5475
 1954TIP3    H227354   5.481   0.154  13.249  0.6574  1.4152  1.7531
 1955TIP3   OH227355   3.306   6.255   0.331 -0.4820 -0.2166  0.6199
 1955TIP3    H127356   3.381   6.314   0.335 -0.6910  0.0081  1.2270
 1955TIP3    H227357   3.328   6.194   0.260 -0.1240  0.3828  0.2054
 1956TIP3   OH227358   1.509   1.629  13.385  0.0242  0.6208  0.4793
 1956TIP3    H127359   1.468   1.561  13.439  1.6050  0.4075  1.4465
 1956TIP3    H227360   1.553   1.580  13.316  0.6873  0.6957  0.8492
 1957TIP3   OH227361   1.681   4.890  14.181  0.9165 -0.3218 -0.4257
 1957TIP3    H127362   1.697   4.835  14.104 -0.3349  0.2205 -1.0883
 1957TIP3    H227363   1.739   4.965  14.169  0.4228 -0.0371 -1.0541
 1958TIP3   OH227364   0.107   4.481   2.956  0.0169  0.3720  0.2084
 1958TIP3    H127365   0.120   4.405   3.013 -1.1703 -0.6399 -0.8358
 1958TIP3    H227366   0.103   4.556   3.015 -0.7833 -0.6188  1.4189
 1959TIP3   OH227367   4.227   2.558   5.912 -0.0972  0.8591  0.1839
 1959TIP3    H127368   4.156   2.556   5.976 -1.8226 -2.4278 -1.6929
 1959TIP3    H227369   4.292   2.498   5.946 -1.2243 -1.2587 -1.2771
 1960TIP3   OH227370   5.302   2.052  14.577  0.4299 -0.4845 -0.5484
 1960TIP3    H127371   5.269   2.135  14.543 -0.8756 -0.8258 -0.1718
 1960TIP3    H227372   5.223   1.998  14.587  0.8208 -0.5693  2.4620
 1961TIP3   OH227373   4.696   4.455   1.807  0.1493 -0.4381 -0.6549
 1961TIP3    H127374   4.784   4.419   1.806 -0.0478 -1.0540  1.3545
 1961TIP3    H227375   4.703   4.539   1.852 -0.4961 -1.1480  0.8162
 1962TIP3   OH227376   3.698   2.220   5.970  0.7409 -0.7187 -0.2559
 1962TIP3    H127377   3.669   2.272   6.045  1.0057 -0.0458 -0.6147
 1962TIP3    H227378   3.705   2.283   5.898  0.9604 -1.2694 -0.7237
 1963TIP3   OH227379   5.210   2.670   5.056 -0.1775 -0.3266  0.4896
 1963TIP3    H127380   5.147   2.606   5.022 -0.1861  0.0216 -0.1686
 1963TIP3    H227381   5.175   2.754   5.028  1.0122 -0.1835 -0.5886
 1964TIP3   OH227382   3.016   1.672   4.012  0.6408 -0.5332 -0.3461
 1964TIP3    H127383   3.105   1.640   4.004  0.2733 -1.1916 -2.0025
 1964TIP3    H227384   2.961   1.596   3.991 -0.3474 -0.5147  2.0095
 1965TIP3   OH227385   0.898   3.857  13.158 -0.1616 -0.2235  0.0533
 1965TIP3    H127386   0.851   3.864  13.075  1.8445 -1.5822 -1.2464
 1965TIP3    H227387   0.965   3.926  13.153 -1.9882  1.7662  1.9246
 1966TIP3   OH227388   3.450   1.677   2.569  0.6134 -0.9179  0.8560
 1966TIP3    H127389   3.497   1.601   2.603 -0.0181 -1.7643 -0.1143
 1966TIP3    H227390   3.378   1.690   2.631  2.3774  0.6970  2.6264
 1967TIP3   OH227391   0.134   0.356   2.292 -0.0601 -0.4793  0.3577
 1967TIP3    H127392   0.083   0.280   2.320 -0.6615 -0.1585  0.1344
 1967TIP3    H227393   0.154   0.402   2.374 -0.8718 -0.1415  0.3780
 1968TIP3   OH227394   0.387   4.229  13.310  0.0203  0.3392 -0.1631
 1968TIP3    H127395   0.341   4.258  13.232 -1.0232  0.4841  0.5012
 1968TIP3    H227396   0.319   4.219  13.376  1.0759  1.6715  1.1688
 1969TIP3   OH227397   2.819   5.560  10.541  0.3238 -0.0100 -0.1583
 1969TIP3    H127398   2.732   5.596  10.552 -0.0442 -0.8932 -0.1681
 1969TIP3    H227399   2.821   5.482  10.597  1.7389  1.0522  1.3570
 1970TIP3   OH227400   4.691   0.483  11.310  0.2713  0.1978  0.0141
 1970TIP3    H127401   4.727   0.425  11.378 -0.1948  0.6504  0.6473
 1970TIP3    H227402   4.646   0.424  11.250 -0.1946 -0.1027  0.6539
 1971TIP3   OH227403   6.538   0.733  12.489 -0.0395  0.2251  0.0634
 1971TIP3    H127404   6.595   0.663  12.520  0.3340  1.1903  1.6106
 1971TIP3    H227405   6.546   0.731  12.394  2.7708  0.5203  0.2650
 1972TIP3   OH227406   5.631   5.994  14.133  0.7415 -0.2052 -0.6027
 1972TIP3    H127407   5.704   6.025  14.186  1.1588 -0.2560 -1.1435
 1972TIP3    H227408   5.669   5.980  14.046 -0.3677  1.7710 -1.4404
 1973TIP3   OH227409   3.682   4.795  14.688 -0.8186  0.0316 -0.1482
 1973TIP3    H127410   3.629   4.874  14.694 -0.1044  0.6397 -1.6436
 1973TIP3    H227411   3.627   4.733  14.640 -0.8781  0.0409 -0.0937
 1974TIP3   OH227412   0.245   4.329  12.598 -0.0937 -0.5380  0.1328
 1974TIP3    H127413   0.282   4.241  12.598  1.3598  0.0584 -0.6060
 1974TIP3    H227414   0.315   4.384  12.632 -0.6772  0.4722 -0.2963
 1975TIP3   OH227415   3.070   0.938   5.507 -0.1564  0.0969  0.1925
 1975TIP3    H127416   2.982   0.915   5.478  0.2333 -0.0005 -0.9221
 1975TIP3    H227417   3.076   1.033   5.495 -0.4484  0.2449  1.1985
 1976TIP3   OH227418   2.603   5.965  17.130 -0.0067  0.1012 -0.3432
 1976TIP3    H127419   2.634   6.056  17.134  1.5486 -0.4142 -0.4540
 1976TIP3    H227420   2.595   5.938  17.221 -2.9627  1.1353 -0.2117
 1977TIP3   OH227421   4.421   0.555  14.908  0.3843  0.1440  0.4371
 1977TIP3    H127422   4.381   0.471  14.932  0.7752  0.2231  1.3587
 1977TIP3    H227423   4.388   0.572  14.820  2.5897 -2.3903 -0.9391
 1978TIP3   OH227424   1.151   2.493   3.671 -0.4068  0.1198 -0.2387
 1978TIP3    H127425   1.103   2.562   3.626 -2.1004 -1.1412 -0.4330
 1978TIP3    H227426   1.215   2.539   3.726 -1.6243  1.8286 -0.2208
 1979TIP3   OH227427   2.226   1.710   5.859  0.8578  0.2817 -0.4819
 1979TIP3    H127428   2.222   1.751   5.945  0.7714 -1.1900  0.2240
 1979TIP3    H227429   2.161   1.640   5.862  0.4960  0.5349 -1.9150
 1980TIP3   OH227430   6.470   5.879  16.453  0.3630  0.4228  0.4997
 1980TIP3    H127431   6.419   5.909  16.529 -1.9125  1.1949 -1.2658
 1980TIP3    H227432   6.429   5.923  16.379  0.9230 -2.2811 -1.4664
 1981TIP3   OH227433   0.295   5.020  13.279  0.5396  0.2167 -0.0228
 1981TIP3    H127434   0.242   5.051  13.353  2.2534  1.3513  0.7510
 1981TIP3    H227435   0.345   5.096  13.252  0.5275 -0.4034 -1.8665
 1982TIP3   OH227436   1.282   0.351  14.774 -0.3658 -0.5220 -0.0492
 1982TIP3    H127437   1.333   0.397  14.707 -1.4774  1.3959  0.3634
 1982TIP3    H227438   1.343   0.342  14.848 -0.3458  1.0603  0.1590
 1983TIP3   OH227439   6.002   3.902  11.814 -0.0651 -0.2923  0.2484
 1983TIP3    H127440   5.998   3.991  11.850 -0.5639 -0.2889  0.1955
 1983TIP3    H227441   5.994   3.845  11.890 -2.0509 -0.2866  0.0865
 1984TIP3   OH227442   1.776   0.188   6.008  0.2036 -0.8292 -0.4561
 1984TIP3    H127443   1.738   0.160   6.091 -0.0159 -0.6070 -0.4787
 1984TIP3    H227444   1.727   0.140   5.942  0.0891 -0.6864 -0.4761
 1985TIP3   OH227445   4.508   3.251   2.009  0.1514 -0.1360 -0.0608
 1985TIP3    H127446   4.493   3.330   1.958  3.3422 -1.2345 -2.9617
 1985TIP3    H227447   4.461   3.182   1.961  3.8308 -1.3292 -2.1931
 1986TIP3   OH227448   3.706   4.618  11.258  0.1729 -0.0464 -0.0894
 1986TIP3    H127449   3.755   4.563  11.319 -0.1741 -1.3606 -0.9485
 1986TIP3    H227450   3.717   4.574  11.173  0.6170  1.7168 -0.9618
 1987TIP3   OH227451   1.032   6.479  15.538 -0.2325  0.3705 -0.3893
 1987TIP3    H127452   0.981   6.557  15.562 -0.4743  0.5221 -1.3807
 1987TIP3    H227453   0.979   6.434  15.473 -0.1810 -0.7449  0.3350
 1988TIP3   OH227454   5.028   5.947   3.376  0.3894 -0.5321  0.2156
 1988TIP3    H127455   4.989   6.001   3.307 -1.8763 -0.7908  1.2786
 1988TIP3    H227456   5.094   6.004   3.416 -1.5124  1.2591  0.8802
 1989TIP3   OH227457   4.816   6.274   0.231 -0.0219 -0.5535 -0.0073
 1989TIP3    H127458   4.847   6.284   0.321  2.0820 -0.1371 -0.7429
 1989TIP3    H227459   4.795   6.363   0.203  3.1131 -0.1212 -1.1897
 1990TIP3   OH227460   1.576   5.560   6.525  0.1801 -0.0717  0.6569
 1990TIP3    H127461   1.491   5.540   6.563 -0.0409 -2.1194 -0.8552
 1990TIP3    H227462   1.638   5.505   6.571  0.3272 -0.4043  0.0711
 1991TIP3   OH227463   3.584   4.788   4.354  0.0839 -0.2389 -0.2867
 1991TIP3    H127464   3.556   4.738   4.277 -0.4794 -0.1782 -0.1225
 1991TIP3    H227465   3.502   4.815   4.396  0.3726  1.5381 -0.8416
 1992TIP3   OH227466   5.823   6.537  13.419  0.3733 -0.0674  0.5562
 1992TIP3    H127467   5.911   6.540  13.381  0.4676  0.8329  0.8470
 1992TIP3    H227468   5.789   6.450  13.394  0.4946  0.4308 -1.4490
 1993TIP3   OH227469   2.737   2.479   0.837 -0.3128  0.3263  0.0395
 1993TIP3    H127470   2.798   2.405   0.830  1.3749  1.5820  1.0554
 1993TIP3    H227471   2.791   2.556   0.818 -2.3091  1.2342 -2.1124
 1994TIP3   OH227472   2.946   3.940   3.531 -0.4437  0.0912 -0.1534
 1994TIP3    H127473   2.942   3.873   3.599 -0.8924  0.1383 -0.1332
 1994TIP3    H227474   2.905   3.899   3.455  2.1472 -0.8109 -1.1155
 1995TIP3   OH227475   3.873   5.911   4.406  0.0321 -0.5399 -0.1230
 1995TIP3    H127476   3.924   5.940   4.481 -0.8182  0.7071 -0.0036
 1995TIP3    H227477   3.933   5.858   4.354  1.3172  0.5917  0.2017
 1996TIP3   OH227478   1.709   0.328   0.729 -0.4833  0.2423 -0.2588
 1996TIP3    H127479   1.721   0.404   0.672 -2.4113  1.7624  1.2929
 1996TIP3    H227480   1.680   0.365   0.812 -0.3109 -2.1349  0.9051
 1997TIP3   OH227481   1.230   6.576  14.644  0.9460  0.9439 -0.2994
 1997TIP3    H127482   1.253   6.516  14.715 -0.5957 -0.9029 -1.3040
 1997TIP3    H227483   1.312   6.620  14.622  2.2371 -1.1646  0.1697
 1998TIP3   OH227484   5.328   6.183   6.724  0.3564  0.0332 -0.6981
 1998TIP3    H127485   5.368   6.242   6.787 -0.2051 -0.8597  0.5139
 1998TIP3    H227486   5.285   6.242   6.661 -1.3497  0.9515  1.2338
 1999TIP3   OH227487   3.152   3.171   5.044 -0.3599 -0.4987 -0.1981
 1999TIP3    H127488   3.160   3.250   4.990 -1.0205 -0.7556 -0.6889
 1999TIP3    H227489   3.223   3.115   5.014 -0.7540 -0.6597 -0.8538
 2000TIP3   OH227490   1.614   4.153   2.338 -0.0744  0.1320  0.3902
 2000TIP3    H127491   1.614   4.194   2.424 -1.5148  0.0486  0.4471
 2000TIP3    H227492   1.601   4.225   2.277 -0.8300 -0.0176  0.3701
 2001TIP3   OH227493   2.254   4.744  10.411  0.5847  0.0571 -0.0744
 2001TIP3    H127494   2.191   4.747  10.338 -0.5067 -0.2900  0.8407
 2001TIP3    H227495   2.335   4.776  10.373  0.9294 -3.2258 -2.3256
 2002TIP3   OH227496   0.641   0.518   4.405  0.3591  0.3235  0.2872
 2002TIP3    H127497   0.579   0.445   4.398  1.7693 -0.7094 -1.9939
 2002TIP3    H227498   0.607   0.583   4.343  0.2986  0.7444  0.7533
 2003TIP3   OH227499   0.924   3.895  14.226  0.1521 -0.0894  0.2258
 2003TIP3    H127500   0.949   3.957  14.295  0.8582  1.0583 -1.0438
 2003TIP3    H227501   0.852   3.937  14.180 -1.7603 -1.7879  1.5415
 2004TIP3   OH227502   2.746   0.564  13.269 -0.3378 -0.1057 -0.5262
 2004TIP3    H127503   2.717   0.511  13.343 -3.4690  3.7052  1.1921
 2004TIP3    H227504   2.670   0.568  13.211 -0.0493  2.0904 -0.7990
 2005TIP3   OH227505   1.652   2.239  13.873  0.3047  0.2134  0.6376
 2005TIP3    H127506   1.723   2.301  13.887  0.8321 -0.4126  0.7321
 2005TIP3    H227507   1.629   2.250  13.781  0.7378  0.1791  0.5273
 2006TIP3   OH227508   4.902   2.801  15.131 -0.3602 -0.0815  0.1121
 2006TIP3    H127509   4.957   2.770  15.203 -0.7137  1.9177  1.2768
 2006TIP3    H227510   4.964   2.828  15.063  0.0868  1.4587  1.1217
 2007TIP3   OH227511   4.644   4.565  14.420  0.5543  0.0682 -0.3000
 2007TIP3    H127512   4.725   4.517  14.406  0.8183  0.2827  0.4489
 2007TIP3    H227513   4.583   4.530  14.355  1.2198 -0.1429 -0.8169
 2008TIP3   OH227514   0.772   5.491   1.496  0.4786  0.5949  0.1922
 2008TIP3    H127515   0.741   5.417   1.550 -0.2554  1.0829  0.4464
 2008TIP3    H227516   0.730   5.478   1.411 -1.1752  1.7399  0.7986
 2009TIP3   OH227517   2.119   3.664  15.677 -0.1625 -0.4524 -0.8406
 2009TIP3    H127518   2.040   3.648  15.625  0.0211 -1.6493 -0.7589
 2009TIP3    H227519   2.182   3.598  15.646 -0.0325 -1.1571  0.8596
 2010TIP3   OH227520   0.799   4.426   0.731  0.1867 -0.2441  0.0291
 2010TIP3    H127521   0.873   4.487   0.729  0.0095 -0.0254  0.1902
 2010TIP3    H227522   0.726   4.476   0.696  0.3441 -0.7743 -1.0677
 2011TIP3   OH227523   2.491   5.308  13.708 -0.2512 -0.0402 -0.2180
 2011TIP3    H127524   2.430   5.246  13.668  0.7336 -1.1677 -0.0266
 2011TIP3    H227525   2.487   5.289  13.801  0.6604 -0.3869 -0.2423
 2012TIP3   OH227526   5.705   3.607  14.536 -0.2500  0.6040  0.0991
 2012TIP3    H127527   5.647   3.562  14.598  0.2961  0.0893  0.2438
 2012TIP3    H227528   5.650   3.673  14.494 -1.7162 -1.7357 -1.8098
 2013TIP3   OH227529   1.959   0.805   5.204  0.0269  0.2362  0.1415
 2013TIP3    H127530   1.921   0.783   5.289  0.1248 -1.0556 -0.1398
 2013TIP3    H227531   2.037   0.750   5.197  1.1422  1.8002  0.0735
 2014TIP3   OH227532   0.382   2.162  15.972  0.0676 -0.1593 -0.4429
 2014TIP3    H127533   0.357   2.074  15.946 -3.2225  0.6886 -0.3260
 2014TIP3    H227534   0.366   2.165  16.067  0.7860  0.3757 -0.3294
 2015TIP3   OH227535   0.949   3.576   0.753 -0.0984  0.4990 -0.2746
 2015TIP3    H127536   0.859   3.546   0.742 -0.9856  2.3753  1.5900
 2015TIP3    H227537   0.946   3.670   0.736  1.2797  0.7615  0.8221
 2016TIP3   OH227538   2.226   0.748  12.232 -0.1731 -0.3354  0.6579
 2016TIP3    H127539   2.304   0.773  12.281 -0.0431  2.4297 -0.9137
 2016TIP3    H227540   2.198   0.828  12.188 -2.4239 -1.8974 -0.8445
 2017TIP3   OH227541   0.401   4.129   0.197  0.2496 -0.5872 -0.0224
 2017TIP3    H127542   0.335   4.168   0.140 -0.2217  0.1462  0.9960
 2017TIP3    H227543   0.485   4.161   0.162 -0.1468  1.8388  1.1013
 2018TIP3   OH227544   0.247   0.364  13.676 -0.2641  0.1128 -0.4533
 2018TIP3    H127545   0.222   0.450  13.643 -3.2342 -1.3525 -2.2093
 2018TIP3    H227546   0.255   0.310  13.597  1.9942 -1.1428  0.5980
 2019TIP3   OH227547   1.243   2.707   1.941  1.0701 -0.0396 -0.3450
 2019TIP3    H127548   1.243   2.763   1.863 -0.7587 -0.6093 -0.7745
 2019TIP3    H227549   1.300   2.634   1.917  0.0204 -0.5396 -1.4211
 2020TIP3   OH227550   1.284   6.572   5.441  0.4269  0.4928 -0.4043
 2020TIP3    H127551   1.210   6.544   5.493  1.0078 -1.3104 -0.5133
 2020TIP3    H227552   1.330   6.635   5.496 -0.9435  1.3037 -0.1742
 2021TIP3   OH227553   6.413   6.125  15.229  0.1418  0.1852  0.2290
 2021TIP3    H127554   6.375   6.207  15.260 -0.6221 -0.5330  1.1877
 2021TIP3    H227555   6.368   6.057  15.279  1.1087 -0.7930 -0.2261
 2022TIP3   OH227556   3.477   1.250  13.413 -0.4876  0.2290 -0.2422
 2022TIP3    H127557   3.570   1.261  13.395  0.1885 -0.5545  2.5845
 2022TIP3    H227558   3.448   1.337  13.441 -0.1157 -0.0212  0.9330
 2023TIP3   OH227559   2.713   1.081  15.364  0.3760  0.0890 -0.2073
 2023TIP3    H127560   2.686   1.158  15.313 -1.1004  0.0667  0.5242
 2023TIP3    H227561   2.766   1.030  15.303 -3.0374 -0.9511 -2.4512
 2024TIP3   OH227562   1.964   4.022   4.940  0.1805 -0.0849 -0.8102
 2024TIP3    H127563   2.036   4.082   4.958 -0.1089  0.4127 -1.2941
 2024TIP3    H227564   1.950   3.977   5.023 -0.5562  1.5536 -0.0126
 2025TIP3   OH227565   0.909   4.228  16.650  0.5475 -0.2510 -0.2009
 2025TIP3    H127566   0.939   4.138  16.660 -2.2978 -1.3080 -0.7150
 2025TIP3    H227567   0.934   4.252  16.560  0.8355 -0.7297 -0.2450
 2026TIP3   OH227568   2.965   2.494   1.576  0.4888  0.4473  0.3338
 2026TIP3    H127569   2.996   2.531   1.493 -2.1167  0.2113 -0.8155
 2026TIP3    H227570   2.951   2.570   1.632 -0.8383  0.9074 -0.5867
 2027TIP3   OH227571   3.858   2.850   4.872 -0.2245  0.3533 -0.3618
 2027TIP3    H127572   3.953   2.855   4.869 -0.2696  0.6615 -2.3366
 2027TIP3    H227573   3.829   2.939   4.851 -0.9578  0.5176  1.2690
 2028TIP3   OH227574   2.709   0.576   3.378 -0.2833  0.2376 -0.2101
 2028TIP3    H127575   2.688   0.670   3.376 -1.9928 -0.0987  0.9787
 2028TIP3    H227576   2.723   0.553   3.286 -2.1281  1.1739 -0.7573
 2029TIP3   OH227577   5.873   4.615   0.767 -0.1074 -0.1633 -0.0793
 2029TIP3    H127578   5.906   4.574   0.847  3.2309  3.6839  0.6889
 2029TIP3    H227579   5.949   4.616   0.709 -0.9212  2.2225 -1.1470
 2030TIP3   OH227580   0.842   6.224  11.043 -0.1105 -0.2540 -0.9347
 2030TIP3    H127581   0.791   6.276  10.981  0.7149  1.8921  0.1162
 2030TIP3    H227582   0.790   6.225  11.123  0.5032  0.0300 -0.5363
 2031TIP3   OH227583   0.064   0.821   1.444 -0.0945  0.4635  0.7701
 2031TIP3    H127584  -0.006   0.885   1.437  1.9034  2.6892  0.4038
 2031TIP3    H227585   0.092   0.826   1.536  1.3115  1.4953  0.2956
 2032TIP3   OH227586   5.151   0.926   5.991 -0.3227  0.2038  0.4118
 2032TIP3    H127587   5.150   0.904   6.084 -0.4197  0.8789  0.5688
 2032TIP3    H227588   5.216   0.996   5.983  0.3246 -0.4534 -0.1663
 2033TIP3   OH227589   6.249   6.184  11.915  0.3437 -0.0009  0.1273
 2033TIP3    H127590   6.216   6.094  11.911 -1.5180  0.7228 -1.4183
 2033TIP3    H227591   6.197   6.225  11.985 -0.5739  0.5338 -0.8464
 2034TIP3   OH227592   1.021   2.374   0.014 -0.9339 -0.0823  0.2645
 2034TIP3    H127593   1.010   2.301  -0.047  0.2135 -0.5142  0.5720
 2034TIP3    H227594   0.990   2.340   0.098 -2.1912  0.4031  0.0054
 2035TIP3   OH227595   2.092   3.694  12.116  0.2375 -0.4481 -0.1119
 2035TIP3    H127596   2.161   3.655  12.169  1.3987  1.2886 -0.3239
 2035TIP3    H227597   2.030   3.729  12.180  2.0298  2.3463  0.1901
 2036TIP3   OH227598   0.486   5.163  13.592 -0.5285  0.0351 -0.1253
 2036TIP3    H127599   0.446   5.081  13.564 -1.5640  0.3475  0.4312
 2036TIP3    H227600   0.420   5.205  13.646  0.2913  0.8804  0.2352
 2037TIP3   OH227601   4.555   6.734   2.962  0.4876 -0.3281 -1.1097
 2037TIP3    H127602   4.486   6.800   2.965  1.2077  0.3684  0.3940
 2037TIP3    H227603   4.632   6.783   2.933  0.7856 -0.7237 -0.9763
 2038TIP3   OH227604   5.406   5.443  14.999 -0.2930  0.4542  0.2662
 2038TIP3    H127605   5.446   5.502  15.063  1.3856  0.5956 -0.8968
 2038TIP3    H227606   5.436   5.476  14.914 -3.6290  1.1525 -0.7268
 2039TIP3   OH227607   1.671   0.335   3.122  0.1736 -0.3243 -0.5625
 2039TIP3    H127608   1.731   0.261   3.108  2.9705  1.6820  0.3028
 2039TIP3    H227609   1.699   0.372   3.206 -1.0864  1.7841 -1.0350
 2040TIP3   OH227610   0.673   2.828  16.976  0.4576 -0.1822 -0.1788
 2040TIP3    H127611   0.690   2.851  17.067 -1.2616  1.5676 -0.2702
 2040TIP3    H227612   0.581   2.850  16.962  0.2419 -1.9548 -1.9000
 2041TIP3   OH227613   4.338   3.914   4.964  0.2308  0.6954 -0.6338
 2041TIP3    H127614   4.365   3.963   5.042 -0.0924 -2.5558  1.6272
 2041TIP3    H227615   4.243   3.907   4.972  0.2306  0.0469 -1.1098
 2042TIP3   OH227616   1.410   2.236  10.932 -0.4935 -0.7055  0.1029
 2042TIP3    H127617   1.503   2.224  10.916  0.0522  1.2115  1.6215
 2042TIP3    H227618   1.404   2.263  11.024 -2.6887 -2.2983  0.4811
 2043TIP3   OH227619   6.027   3.635   2.251  0.0121 -0.2598  0.5094
 2043TIP3    H127620   6.001   3.599   2.335  0.4341  1.0080  1.1947
 2043TIP3    H227621   6.118   3.606   2.239  0.5444  0.9949  1.3261
 2044TIP3   OH227622   6.028   5.196  14.677 -0.0329 -0.2013  0.3967
 2044TIP3    H127623   5.951   5.158  14.719  0.2894  0.2576  1.4085
 2044TIP3    H227624   6.022   5.289  14.695  0.0124  0.0319 -0.7512
 2045TIP3   OH227625   2.743   5.954  11.300 -0.5767  0.1949 -0.3827
 2045TIP3    H127626   2.660   5.905  11.296 -1.9892  2.5474 -1.1803
 2045TIP3    H227627   2.723   6.038  11.258  2.1988  0.8663 -0.4553
 2046TIP3   OH227628   2.817   6.353   3.505 -0.0988  0.4287  0.4566
 2046TIP3    H127629   2.888   6.289   3.501 -1.6560 -1.2851 -0.3132
 2046TIP3    H227630   2.757   6.327   3.436 -0.8889  2.6043  0.2830
 2047TIP3   OH227631   2.320   2.220   0.635  0.1350  0.0656  0.3383
 2047TIP3    H127632   2.404   2.265   0.632  0.3359 -0.3449 -0.6982
 2047TIP3    H227633   2.311   2.189   0.725  0.3284  1.5311  0.8675
 2048TIP3   OH227634   2.709   5.178   4.018  0.2446 -0.3976 -0.4880
 2048TIP3    H127635   2.775   5.162   3.950  0.7470 -1.1764  0.1768
 2048TIP3    H227636   2.706   5.273   4.026  1.3256 -0.3539 -0.5007
 2049TIP3   OH227637   2.473   5.681  14.056  0.3765 -0.5835  0.6496
 2049TIP3    H127638   2.509   5.704  13.971  2.2634  0.5256  1.7167
 2049TIP3    H227639   2.416   5.605  14.039  2.7639 -2.0081 -1.1830
 2050TIP3   OH227640   0.315   3.621   5.296 -0.3318  0.2378 -0.1122
 2050TIP3    H127641   0.281   3.532   5.297  1.4466 -0.4458  2.5691
 2050TIP3    H227642   0.344   3.634   5.205  0.2889 -2.2576 -0.3059
 2051TIP3   OH227643   2.318   6.057  13.392  0.2598 -0.5055  0.7776
 2051TIP3    H127644   2.393   6.097  13.436 -1.0805  1.8477  1.0123
 2051TIP3    H227645   2.244   6.113  13.415 -1.2017 -1.5566 -1.2048
 2052TIP3   OH227646   0.823   0.080   5.576  0.0410  0.3019  0.0727
 2052TIP3    H127647   0.740   0.126   5.568  0.2099  0.6096  0.1017
 2052TIP3    H227648   0.803  -0.010   5.551 -0.3865  0.2882  0.4612
 2053TIP3   OH227649   4.737   6.455   1.437 -0.0052  0.9094 -0.1607
 2053TIP3    H127650   4.806   6.390   1.447 -0.1800  0.6536 -0.6260
 2053TIP3    H227651   4.658   6.412   1.468 -0.0193  1.0918  0.0622
 2054TIP3   OH227652   4.222   1.530  14.234  0.2507 -0.5234 -0.1427
 2054TIP3    H127653   4.270   1.605  14.200  0.0365 -1.0767 -1.7092
 2054TIP3    H227654   4.169   1.566  14.305  4.4572 -0.2797  3.0641
 2055TIP3   OH227655   4.825   1.728   0.248 -0.4827 -0.0423  0.2157
 2055TIP3    H127656   4.811   1.656   0.187  0.4960  0.8511 -1.0856
 2055TIP3    H227657   4.805   1.807   0.198 -0.3909  0.6726  1.2658
 2056TIP3   OH227658   6.664   3.761  13.022 -0.9816  1.0801 -0.4164
 2056TIP3    H127659   6.627   3.820  13.087  0.2014  1.1725  0.1934
 2056TIP3    H227660   6.729   3.814  12.975  0.1283  0.2700  0.1738
 2057TIP3   OH227661   5.462   4.374  10.959  0.3431  0.2415 -0.3598
 2057TIP3    H127662   5.550   4.359  10.992  0.3954  2.1589  0.4334
 2057TIP3    H227663   5.460   4.468  10.938 -1.1498 -0.0095 -1.4272
 2058TIP3   OH227664   5.194   6.268   0.910 -0.0171 -0.1925 -1.0879
 2058TIP3    H127665   5.118   6.210   0.905 -0.2829 -0.1835  2.2622
 2058TIP3    H227666   5.171   6.332   0.976  2.1583  0.9886 -1.4429
 2059TIP3   OH227667   0.765   1.220   0.805  0.2678  0.1251  0.8474
 2059TIP3    H127668   0.740   1.263   0.723 -0.0276 -1.6268 -0.0208
 2059TIP3    H227669   0.851   1.182   0.787 -0.7092 -2.0450  0.6305
 2060TIP3   OH227670   1.816   4.617  14.885  0.7498  0.6961 -0.4024
 2060TIP3    H127671   1.745   4.644  14.944 -0.5438 -0.9061 -1.1682
 2060TIP3    H227672   1.885   4.682  14.898  0.5103  0.3845  2.9032
 2061TIP3   OH227673   5.074   3.233   5.754 -0.1271 -0.6782 -0.4734
 2061TIP3    H127674   5.112   3.293   5.817  0.6104 -2.4814  0.8395
 2061TIP3    H227675   4.979   3.243   5.765 -0.0055 -0.0948  0.0389
 2062TIP3   OH227676   1.785   4.841   2.540 -0.1528  0.0380  0.2209
 2062TIP3    H127677   1.793   4.860   2.447 -2.4885  0.4089  0.0668
 2062TIP3    H227678   1.749   4.752   2.543 -0.8707  0.3388  0.7366
 2063TIP3   OH227679   1.910   3.498   2.161 -0.0827  0.2508  0.1332
 2063TIP3    H127680   1.989   3.503   2.216  0.1121  0.1836 -0.1425
 2063TIP3    H227681   1.941   3.461   2.078 -0.5088 -0.3408  0.2341
 2064TIP3   OH227682   5.815   3.200   4.040  0.3594 -0.0366  0.4523
 2064TIP3    H127683   5.817   3.287   4.082 -1.4059 -0.0057  0.5161
 2064TIP3    H227684   5.797   3.140   4.112 -0.5177 -0.2194  0.0839
 2065TIP3   OH227685   0.804   4.295   4.566 -0.3249 -0.2606  0.3322
 2065TIP3    H127686   0.859   4.270   4.492  1.8194  0.2374  1.7279
 2065TIP3    H227687   0.750   4.367   4.534  1.0992  0.4269 -0.5184
 2066TIP3   OH227688   3.313   5.252   1.011 -0.3164 -0.4172 -0.3472
 2066TIP3    H127689   3.334   5.315   1.080  0.2075 -0.4228 -0.5008
 2066TIP3    H227690   3.232   5.211   1.041 -0.6108  0.2616 -0.2051
 2067TIP3   OH227691   0.639   5.101  12.033  0.4000 -0.6171 -0.6374
 2067TIP3    H127692   0.642   5.089  12.128  2.1519  0.4873 -0.5302
 2067TIP3    H227693   0.729   5.122  12.008 -0.6864  2.8111 -2.0270
 2068TIP3   OH227694   0.173   0.313   4.111  0.1244 -0.6382 -0.3614
 2068TIP3    H127695   0.218   0.327   4.195  2.0708 -0.5146 -1.3844
 2068TIP3    H227696   0.104   0.250   4.130  1.1263 -1.3034  1.1641
 2069TIP3   OH227697   0.750   5.840   4.051  0.1156  0.2657 -0.5187
 2069TIP3    H127698   0.666   5.825   4.094  0.9056 -1.3888  0.4755
 2069TIP3    H227699   0.805   5.881   4.118  0.4598  0.3047 -0.8223
 2070TIP3   OH227700   2.813   2.844  12.241  0.1095  0.5842  0.1185
 2070TIP3    H127701   2.727   2.861  12.279 -0.0350  0.1571 -0.0143
 2070TIP3    H227702   2.805   2.873  12.150  0.3632  1.3237  0.3281
 2071TIP3   OH227703   5.479   3.785   5.444  0.4153  0.3890  0.2921
 2071TIP3    H127704   5.460   3.697   5.477  0.3235  1.1325  2.3250
 2071TIP3    H227705   5.393   3.826   5.437  0.4525  0.2897 -0.7537
 2072TIP3   OH227706   3.250   0.851  14.741 -0.2186 -0.0830  0.4221
 2072TIP3    H127707   3.299   0.833  14.661  0.2775  2.4327  0.1230
 2072TIP3    H227708   3.298   0.805  14.810  0.2779 -0.9188 -0.4729
 2073TIP3   OH227709   3.991   5.787   5.406 -0.4472 -0.7452 -0.0037
 2073TIP3    H127710   3.930   5.713   5.410 -2.7995  1.1955  0.8777
 2073TIP3    H227711   3.942   5.861   5.441  2.5439  0.8272  1.0336
 2074TIP3   OH227712   2.362   1.695  16.684  0.2837 -0.2943  0.3318
 2074TIP3    H127713   2.339   1.603  16.695 -1.5809  0.2044  0.7757
 2074TIP3    H227714   2.402   1.699  16.597  0.7081 -1.5838  0.4581
 2075TIP3   OH227715   3.000   4.820   1.196 -0.1295  0.1436 -0.1915
 2075TIP3    H127716   3.063   4.750   1.211  0.6424  0.8499 -0.0898
 2075TIP3    H227717   2.919   4.775   1.173  0.2384 -0.7942  0.3143
 2076TIP3   OH227718   1.050   2.426  16.820 -0.4415  0.4120  0.3817
 2076TIP3    H127719   1.116   2.389  16.762  0.5232  0.4263  1.4467
 2076TIP3    H227720   0.968   2.386  16.792 -0.5626  2.8788 -3.1433
 2077TIP3   OH227721   5.923   3.210   0.812 -0.2738  0.0219 -0.3510
 2077TIP3    H127722   5.852   3.273   0.823 -0.3302  0.0467 -0.8463
 2077TIP3    H227723   5.892   3.152   0.743 -0.6275 -1.1277  0.7604
 2078TIP3   OH227724   4.753   0.328   4.214 -0.0528  0.2836  0.3414
 2078TIP3    H127725   4.837   0.301   4.251  0.1714  1.0599  0.4106
 2078TIP3    H227726   4.720   0.251   4.168 -0.0465 -0.5018  1.6549
 2079TIP3   OH227727   4.733   4.580   6.061 -0.0873  0.7105 -0.8541
 2079TIP3    H127728   4.652   4.529   6.064 -0.0419  0.6948  0.2879
 2079TIP3    H227729   4.791   4.529   6.005 -0.3293 -0.0632 -0.4001
 2080TIP3   OH227730   4.334   6.597   4.848  0.3232 -0.6494 -0.6819
 2080TIP3    H127731   4.417   6.644   4.857  0.9515 -1.6668 -1.0316
 2080TIP3    H227732   4.322   6.552   4.931 -0.6030  0.6156 -0.1081
 2081TIP3   OH227733   1.251   1.911  12.445  0.3513  0.2819 -0.2614
 2081TIP3    H127734   1.185   1.881  12.508  1.5498  1.1400  1.4411
 2081TIP3    H227735   1.217   1.994  12.412  0.0331  0.1529 -0.2624
 2082TIP3   OH227736   0.310   3.475  15.931  0.5225 -0.0148 -0.9084
 2082TIP3    H127737   0.404   3.463  15.921  0.2963 -1.6236 -1.2461
 2082TIP3    H227738   0.290   3.552  15.878  1.9036  1.4032  0.5792
 2083TIP3   OH227739   2.198   4.555   3.338  0.4560 -0.0246 -0.2267
 2083TIP3    H127740   2.126   4.537   3.399 -0.1058  0.2264 -0.8003
 2083TIP3    H227741   2.247   4.473   3.334  0.7736  0.0974  0.9089
 2084TIP3   OH227742   0.160   3.473   2.044 -0.3402 -0.0318 -0.0256
 2084TIP3    H127743   0.076   3.514   2.064 -0.9321 -1.4215  0.4533
 2084TIP3    H227744   0.224   3.519   2.098 -1.0975 -0.2243  1.0544
 2085TIP3   OH227745   5.338   5.720   6.257  0.4159  0.6471  0.4013
 2085TIP3    H127746   5.287   5.656   6.208  0.3145  1.2754 -0.3205
 2085TIP3    H227747   5.415   5.671   6.287  0.5149  0.2731 -0.4415
 2086TIP3   OH227748   1.678   1.640   2.589  0.0037 -0.2896  0.0813
 2086TIP3    H127749   1.639   1.666   2.673 -0.1069  0.2132 -0.1183
 2086TIP3    H227750   1.624   1.567   2.558 -1.0524  0.6550 -0.3836
 2087TIP3   OH227751   4.548   0.659   4.778  0.0504  0.3824 -0.7572
 2087TIP3    H127752   4.563   0.580   4.830  0.6646  1.3787  0.6181
 2087TIP3    H227753   4.535   0.728   4.843 -1.4181  1.2596 -1.9375
 2088TIP3   OH227754   2.692   3.310  15.827 -0.2495  0.0892  0.2647
 2088TIP3    H127755   2.657   3.222  15.810  0.2286 -0.0360 -0.1096
 2088TIP3    H227756   2.787   3.297  15.830  0.0384  1.0925 -2.9710
 2089TIP3   OH227757   0.096   6.740  12.209 -0.9602  0.3971  0.0607
 2089TIP3    H127758   0.187   6.754  12.235 -1.1194  0.9391  0.3259
 2089TIP3    H227759   0.100   6.662  12.153 -0.2095  0.9346 -0.6434
 2090TIP3   OH227760   2.091   2.908  16.196 -0.4344  0.8814  0.1376
 2090TIP3    H127761   2.045   2.887  16.277 -0.1977  0.0836  0.0716
 2090TIP3    H227762   2.182   2.887  16.214 -0.5630 -0.5013 -0.7305
 2091TIP3   OH227763   5.661   1.242   0.652  0.2515  0.2043 -0.3264
 2091TIP3    H127764   5.729   1.300   0.688 -0.9470  1.1238  0.4935
 2091TIP3    H227765   5.582   1.296   0.649 -1.0522 -1.5692  1.0718
 2092TIP3   OH227766   1.545   1.934  11.362 -0.1697 -0.1280  0.5932
 2092TIP3    H127767   1.551   1.902  11.271  0.9045 -1.8018  1.2335
 2092TIP3    H227768   1.468   1.890  11.397  0.5610 -1.0330  1.0837
 2093TIP3   OH227769   2.543   5.385  12.083  0.3505 -0.6165 -0.2663
 2093TIP3    H127770   2.502   5.449  12.025 -0.5598 -0.4035  0.5948
 2093TIP3    H227771   2.473   5.323  12.103  0.5224 -0.4117  0.9870
 2094TIP3   OH227772   3.761   6.425  10.753  0.2982 -0.2150  0.5949
 2094TIP3    H127773   3.746   6.485  10.679  0.6339 -0.6758  0.1470
 2094TIP3    H227774   3.833   6.465  10.802  0.6384 -0.3408  0.2005
 2095TIP3   OH227775   4.495   5.396  12.671 -0.3871 -0.2608 -0.3867
 2095TIP3    H127776   4.588   5.414  12.662 -0.2678 -0.4767  0.3855
 2095TIP3    H227777   4.462   5.467  12.726 -0.8835  0.3969 -1.5038
 2096TIP3   OH227778   1.583   6.703   3.530 -0.3625  0.6980 -0.1538
 2096TIP3    H127779   1.647   6.728   3.463 -0.0929  1.6714  0.4556
 2096TIP3    H227780   1.637   6.680   3.606 -0.6167 -1.4770 -0.6090
 2097TIP3   OH227781   0.527   4.652   5.333  0.1602 -0.0634 -0.2488
 2097TIP3    H127782   0.514   4.709   5.257  2.4226  1.2898  0.3099
 2097TIP3    H227783   0.617   4.620   5.324 -0.3083 -1.6802  0.6908
 2098TIP3   OH227784   6.074   0.162   3.249 -0.6633 -0.1030 -0.0358
 2098TIP3    H127785   6.131   0.086   3.232  1.2585  1.6517 -1.6065
 2098TIP3    H227786   5.993   0.142   3.202 -0.7958 -1.8785  0.8747
 2099TIP3   OH227787   0.342   4.205  14.133 -0.4121  0.0095  0.7319
 2099TIP3    H127788   0.297   4.210  14.218 -2.0128 -0.6590 -0.0629
 2099TIP3    H227789   0.282   4.247  14.071 -0.8792 -2.6971 -0.7078
 2100TIP3   OH227790   1.311   4.586  14.306 -0.0688  0.2922  0.3554
 2100TIP3    H127791   1.283   4.677  14.296  2.2157  1.2075  1.7206
 2100TIP3    H227792   1.328   4.556  14.216 -1.1921  1.0900 -0.1253
 2101TIP3   OH227793   4.394   1.897  16.159  0.2381  0.5404  0.3928
 2101TIP3    H127794   4.422   1.963  16.222 -1.5441  1.6641  0.0616
 2101TIP3    H227795   4.304   1.921  16.137  0.0697 -1.1175 -0.9026
 2102TIP3   OH227796   0.054   1.478  15.469  0.2363  0.4590  0.1800
 2102TIP3    H127797   0.104   1.397  15.478 -1.4336 -0.7282 -1.0118
 2102TIP3    H227798   0.001   1.482  15.548 -0.5013 -0.1899 -0.2802
 2103TIP3   OH227799   1.358   1.507   2.012 -0.7126 -0.0268 -0.3081
 2103TIP3    H127800   1.427   1.571   2.026 -0.9924  0.0266  0.8197
 2103TIP3    H227801   1.280   1.559   1.993 -0.4856 -0.0844 -1.4454
 2104TIP3   OH227802   3.025   2.277  15.047  0.2601  0.1464 -0.0091
 2104TIP3    H127803   3.000   2.363  15.013 -0.6914 -1.2935 -3.1193
 2104TIP3    H227804   3.036   2.291  15.141  0.3959  3.7174 -0.4780
 2105TIP3   OH227805   1.280   0.166   2.322 -0.1845 -0.8068 -0.4930
 2105TIP3    H127806   1.257   0.247   2.367 -2.1721 -1.3040 -0.5673
 2105TIP3    H227807   1.328   0.115   2.388  1.2980  0.4937 -0.5222
 2106TIP3   OH227808   6.457   3.854   2.978  0.0753 -0.0784  0.0657
 2106TIP3    H127809   6.410   3.858   2.894  0.4029 -2.3835 -0.2776
 2106TIP3    H227810   6.530   3.794   2.961  0.0231 -0.7314  2.0466
 2107TIP3   OH227811   5.643   2.544  16.925 -0.8052 -0.0670  0.4308
 2107TIP3    H127812   5.667   2.611  16.861  2.4441  1.2139  2.8897
 2107TIP3    H227813   5.667   2.462  16.883  2.1289  0.8083  0.2993
 2108TIP3   OH227814   4.247   4.438  11.068 -0.0572 -0.1706  0.1031
 2108TIP3    H127815   4.248   4.440  10.973  1.3474  1.0104  0.1207
 2108TIP3    H227816   4.190   4.365  11.090  0.7584 -1.3723 -1.6655
 2109TIP3   OH227817   0.163   3.939   5.147  0.0550 -0.3551  0.1031
 2109TIP3    H127818   0.102   4.006   5.177  0.7137  0.2682  0.0778
 2109TIP3    H227819   0.249   3.971   5.174  0.4621 -0.7727 -0.6621
 2110TIP3   OH227820   6.026   5.401   5.751  0.7073  0.4284  0.3835
 2110TIP3    H127821   5.942   5.447   5.753  0.8462  0.7393 -0.7322
 2110TIP3    H227822   6.013   5.328   5.692  1.3900  0.8335 -0.2859
 2111TIP3   OH227823   2.835   4.899   5.241  0.9806  0.2765 -0.0938
 2111TIP3    H127824   2.749   4.888   5.201  0.8181 -0.2464  0.3929
 2111TIP3    H227825   2.875   4.812   5.238  1.6611  0.6030 -0.6941
 2112TIP3   OH227826   0.976   0.952  14.524 -0.5954 -0.3437 -0.2085
 2112TIP3    H127827   0.996   0.880  14.464 -1.8414  0.6763 -1.8791
 2112TIP3    H227828   0.985   0.913  14.611  4.1400 -1.1089 -0.8780
 2113TIP3   OH227829   0.522   0.793   0.828  0.2684  0.2309  0.1057
 2113TIP3    H127830   0.576   0.725   0.868 -1.2566 -0.5895  0.8394
 2113TIP3    H227831   0.479   0.835   0.903 -0.3829  0.6279 -0.4917
 2114TIP3   OH227832   6.013   6.588  14.338  0.0203 -0.0245 -0.4277
 2114TIP3    H127833   6.033   6.681  14.333 -0.5812  0.1156 -0.2980
 2114TIP3    H227834   6.066   6.548  14.270 -1.8420  0.7983 -2.4240
 2115TIP3   OH227835   4.691   0.509   0.784  0.4919  0.0981 -0.0670
 2115TIP3    H127836   4.605   0.552   0.784  0.9433  1.0184 -2.0862
 2115TIP3    H227837   4.732   0.539   0.865 -0.8491  0.1130  0.6277
 2116TIP3   OH227838   6.334   0.685  15.685  0.2477  0.6757  0.3296
 2116TIP3    H127839   6.251   0.727  15.664 -0.0350  1.1653  2.3642
 2116TIP3    H227840   6.354   0.632  15.607 -2.9040 -0.9571  0.5329
 2117TIP3   OH227841   1.546   1.362  16.535 -0.0979 -0.0574  0.1933
 2117TIP3    H127842   1.605   1.370  16.460  2.2102 -0.8753  1.8760
 2117TIP3    H227843   1.578   1.286  16.583 -1.0311  0.9389  2.4662
 2118TIP3   OH227844   4.613   1.672   2.645 -0.1460  0.3504  0.1141
 2118TIP3    H127845   4.605   1.649   2.737 -2.3725 -1.8781 -0.5682
 2118TIP3    H227846   4.584   1.763   2.640 -2.4211 -0.2796  1.2702
 2119TIP3   OH227847   1.731   1.655   5.383 -0.0342  0.0881 -0.2155
 2119TIP3    H127848   1.792   1.593   5.342 -0.1938 -0.0895 -0.1876
 2119TIP3    H227849   1.781   1.693   5.455 -0.0925 -0.3751  0.0760
 2120TIP3   OH227850   3.075   6.186   1.856  0.4839  0.5581  0.3347
 2120TIP3    H127851   3.158   6.223   1.826 -1.8603  3.0006 -3.6496
 2120TIP3    H227852   3.048   6.126   1.787 -0.7939 -0.6640  1.8426
 2121TIP3   OH227853   4.178   1.452   4.742  0.3411  0.5387 -0.2043
 2121TIP3    H127854   4.194   1.448   4.836 -0.6378 -1.5081 -0.0940
 2121TIP3    H227855   4.199   1.364   4.710  0.1623  1.0603 -1.8122
 2122TIP3   OH227856   4.607   2.557  16.300 -0.4763  0.7686 -1.1158
 2122TIP3    H127857   4.678   2.599  16.251  1.9701 -1.4283  0.4419
 2122TIP3    H227858   4.614   2.464  16.277 -2.5998  0.4741 -0.6316
 2123TIP3   OH227859   4.033   3.413  17.119  0.5024 -0.2614 -0.0508
 2123TIP3    H127860   4.050   3.452  17.205  0.0190 -0.1994  0.0209
 2123TIP3    H227861   4.112   3.363  17.099  0.7424 -0.0255  0.2892
 2124TIP3   OH227862   2.203   0.576   3.401  0.7496 -0.3143  0.1157
 2124TIP3    H127863   2.205   0.582   3.306 -0.2696  1.2902  0.1808
 2124TIP3    H227864   2.269   0.637   3.432  0.6459 -0.3679  0.4527
 2125TIP3   OH227865   2.606   2.866  16.641  0.5795  0.3220  0.1655
 2125TIP3    H127866   2.632   2.798  16.579  0.3409  0.8588 -0.5220
 2125TIP3    H227867   2.582   2.941  16.587  1.6618  1.2447  0.9493
 2126TIP3   OH227868   0.781   3.096   0.583  0.1801 -0.3268  0.2055
 2126TIP3    H127869   0.714   3.072   0.519  0.1654 -0.1426  0.1510
 2126TIP3    H227870   0.732   3.129   0.658  0.2259  0.5179 -0.1244
 2127TIP3   OH227871   2.672   1.632  13.821 -0.1971 -0.3191  0.5231
 2127TIP3    H127872   2.698   1.542  13.798 -1.3807 -0.1599 -1.5960
 2127TIP3    H227873   2.737   1.687  13.777 -1.9013 -0.0355 -1.7015
 2128TIP3   OH227874   0.221   3.515  15.214 -0.0900 -0.1854 -0.8464
 2128TIP3    H127875   0.288   3.451  15.237  0.0975  0.3333  0.0812
 2128TIP3    H227876   0.240   3.539  15.123 -0.2286 -1.5090 -1.2381
 2129TIP3   OH227877   1.406   4.715  11.344 -0.5947 -0.4540  0.1942
 2129TIP3    H127878   1.327   4.752  11.303 -0.8703 -2.3675 -1.0571
 2129TIP3    H227879   1.469   4.787  11.344 -2.0760  0.8873  0.5227
 2130TIP3   OH227880   0.381   2.499  14.918  0.1100 -0.4703 -0.2561
 2130TIP3    H127881   0.321   2.532  14.985  0.1593  0.0598 -0.4643
 2130TIP3    H227882   0.468   2.524  14.949  0.1483 -0.3966 -0.4230
 2131TIP3   OH227883   4.359   6.453  15.756  0.4991  0.4532 -0.0809
 2131TIP3    H127884   4.328   6.517  15.692 -0.6001  0.6213  0.6066
 2131TIP3    H227885   4.425   6.500  15.806  0.4927  0.7033 -0.3054
 2132TIP3   OH227886   3.560   6.590  14.190  0.2909  0.2600 -0.0723
 2132TIP3    H127887   3.500   6.663  14.200  0.4823  0.3061  0.7692
 2132TIP3    H227888   3.643   6.622  14.226  0.4334 -0.2939  0.0954
 2133TIP3   OH227889   1.229   1.790   2.110  0.2394 -0.5116 -0.1920
 2133TIP3    H127890   1.207   1.816   2.020 -1.0626  1.7732  0.7518
 2133TIP3    H227891   1.324   1.776   2.108  0.2164 -0.5272 -1.9395
 2134TIP3   OH227892   1.641   3.230   4.731  0.7404 -0.4843  0.7243
 2134TIP3    H127893   1.720   3.186   4.760  0.9199  0.2072  1.3045
 2134TIP3    H227894   1.581   3.226   4.806  0.0908 -1.3087  0.1739
 2135TIP3   OH227895   5.328   3.994   2.371 -0.4785 -0.2257  0.2704
 2135TIP3    H127896   5.315   3.968   2.281  0.1536  1.9069 -0.4815
 2135TIP3    H227897   5.372   3.920   2.412 -2.6150 -2.0393 -0.6038
 2136TIP3   OH227898   0.008   2.509  15.272 -0.0264 -0.3097  0.5180
 2136TIP3    H127899   0.057   2.427  15.272  1.4706  0.5556  0.0718
 2136TIP3    H227900   0.056   2.565  15.334  0.1492  0.8978 -0.6886
 2137TIP3   OH227901   6.142   0.087  16.150  0.3808 -0.1621 -0.4896
 2137TIP3    H127902   6.115   0.124  16.066  1.1105 -2.8132 -1.9484
 2137TIP3    H227903   6.226   0.128  16.168  0.0314  0.7237 -0.8734
 2138TIP3   OH227904   1.661   0.038   1.158  0.2232 -0.1149 -0.6412
 2138TIP3    H127905   1.569   0.063   1.159 -0.0886 -1.2368 -0.2045
 2138TIP3    H227906   1.700   0.093   1.090 -0.8087  0.2383 -0.9604
 2139TIP3   OH227907   6.820   2.315  10.785  0.1162 -0.0391 -1.0323
 2139TIP3    H127908   6.887   2.314  10.853 -0.6576 -1.1114 -0.2617
 2139TIP3    H227909   6.859   2.266  10.713  0.2824 -0.3886 -0.7081
 2140TIP3   OH227910   6.259   3.234  11.271 -0.1675  0.0736  0.6815
 2140TIP3    H127911   6.240   3.144  11.247 -2.5414  0.4072  1.1898
 2140TIP3    H227912   6.320   3.265  11.204 -0.1415 -1.5750 -0.0714
 2141TIP3   OH227913   4.083   2.520  14.123 -0.0557 -0.1223  0.5697
 2141TIP3    H127914   4.011   2.549  14.068 -0.7945 -1.8255  0.6172
 2141TIP3    H227915   4.115   2.440  14.081  1.9484  0.7057  0.4331
 2142TIP3   OH227916   2.972   4.104  10.794 -0.2635  0.3036  0.0949
 2142TIP3    H127917   3.054   4.151  10.811 -0.2282  0.1322  0.3998
 2142TIP3    H227918   2.930   4.154  10.724  0.5162 -0.1107 -0.6856
 2143TIP3   OH227919   1.458   5.695   1.775  0.0085 -0.2596  0.5050
 2143TIP3    H127920   1.416   5.780   1.770 -0.2553 -0.2978  1.7960
 2143TIP3    H227921   1.422   5.654   1.854 -0.0287 -1.6550 -0.2119
 2144TIP3   OH227922   5.735   3.195  13.763 -0.0142 -0.0963  0.0522
 2144TIP3    H127923   5.759   3.191  13.856 -0.0690 -1.0405  0.0308
 2144TIP3    H227924   5.672   3.268  13.758 -1.0753 -0.9175  0.9996
 2145TIP3   OH227925   0.087   1.021  14.647  0.3673 -0.7443 -0.2199
 2145TIP3    H127926   0.167   0.975  14.670  0.3864 -0.9515 -0.6919
 2145TIP3    H227927   0.034   1.020  14.727  0.5415 -1.2196 -0.1097
 2146TIP3   OH227928   5.350   2.047  11.941 -0.1023  0.0317  0.5524
 2146TIP3    H127929   5.259   2.040  11.914 -0.0434  1.8817 -0.1263
 2146TIP3    H227930   5.371   2.140  11.936  1.5282 -0.2372  1.6896
 2147TIP3   OH227931   5.718   5.362   0.800  0.6861 -0.7234 -0.1283
 2147TIP3    H127932   5.695   5.424   0.870  0.1718 -1.1589  0.0815
 2147TIP3    H227933   5.636   5.343   0.756  1.3025  1.2268 -2.2508
 2148TIP3   OH227934   1.740   2.065  11.983 -0.0589  0.1465  0.3474
 2148TIP3    H127935   1.759   1.977  11.952 -1.9565 -1.1212  2.6319
 2148TIP3    H227936   1.773   2.067  12.073  0.0096  1.7679  0.3059
 2149TIP3   OH227937   4.797   3.185   4.555 -0.2338  0.2886 -0.0135
 2149TIP3    H127938   4.804   3.265   4.504 -1.0872  0.1137 -0.4149
 2149TIP3    H227939   4.810   3.115   4.491  0.2993  0.1019  0.2978
 2150TIP3   OH227940   4.939   6.045   3.708 -0.1850  0.1434  0.0793
 2150TIP3    H127941   4.917   5.983   3.638 -1.9809  0.1596  0.6122
 2150TIP3    H227942   4.999   6.107   3.667  1.5985 -1.8804 -0.4821
 2151TIP3   OH227943   0.252   3.248   0.999 -0.0827  0.7921  0.3999
 2151TIP3    H127944   0.295   3.247   1.084 -0.4001  1.1593  0.5663
 2151TIP3    H227945   0.267   3.336   0.965  0.5800  0.4521 -0.2006
 2152TIP3   OH227946   5.590   4.149   1.808  0.0136 -0.4298  0.3756
 2152TIP3    H127947   5.685   4.148   1.797 -0.1528 -0.5636 -1.1325
 2152TIP3    H227948   5.569   4.241   1.826  0.2738 -0.1361 -0.7793
 2153TIP3   OH227949   4.368   5.571   3.535 -0.2791 -0.3983  0.1607
 2153TIP3    H127950   4.409   5.632   3.595 -4.3168  1.8006  0.8650
 2153TIP3    H227951   4.377   5.485   3.577  1.2120  0.3961  1.5076
 2154TIP3   OH227952   0.452   3.154  12.879 -0.2711 -0.5489  0.2109
 2154TIP3    H127953   0.484   3.242  12.899 -1.5931 -0.1443  0.5913
 2154TIP3    H227954   0.474   3.140  12.787 -1.7721  0.9530 -0.4027
 2155TIP3   OH227955   0.593   2.291   1.610  0.2450 -0.1810 -0.2944
 2155TIP3    H127956   0.665   2.318   1.667  1.3781 -1.3330 -1.1466
 2155TIP3    H227957   0.535   2.240   1.668  0.5289  0.0556  0.2037
 2156TIP3   OH227958   3.860   2.207   3.521  0.2210  0.0027  0.1278
 2156TIP3    H127959   3.797   2.275   3.495  2.2010  1.9584  0.2495
 2156TIP3    H227960   3.823   2.171   3.602 -0.0830  2.0859  0.9610
 2157TIP3   OH227961   0.210   0.013   1.119  0.5984  0.2648  0.2265
 2157TIP3    H127962   0.274   0.061   1.172 -0.5364  1.5579  0.4446
 2157TIP3    H227963   0.131   0.009   1.173  0.3904 -1.1161 -0.1369
 2158TIP3   OH227964   6.809   5.778   4.597  0.2546 -0.1320 -0.2916
 2158TIP3    H127965   6.841   5.739   4.515 -0.5002  1.9070 -1.5931
 2158TIP3    H227966   6.730   5.827   4.571 -0.0365  0.4697  1.6688
 2159TIP3   OH227967   3.996   2.951  14.481 -0.6172 -0.1437 -0.0627
 2159TIP3    H127968   4.085   2.935  14.516 -1.2465 -0.6790  1.3631
 2159TIP3    H227969   3.962   3.023  14.534 -1.8016 -1.3402  0.8464
 2160TIP3   OH227970   2.985   1.908   0.059  0.1776  0.4332  0.4368
 2160TIP3    H127971   3.011   1.861   0.138 -0.0716  0.4035  0.5007
 2160TIP3    H227972   2.892   1.929   0.072 -0.0028 -0.0292 -0.0679
 2161TIP3   OH227973   2.319   6.141  12.249 -0.0501  0.5165 -0.6053
 2161TIP3    H127974   2.272   6.087  12.312  0.0496  2.0701  0.8301
 2161TIP3    H227975   2.375   6.080  12.202 -1.3247 -0.9062 -0.3126
 2162TIP3   OH227976   5.845   6.421   2.663 -0.0677  0.1236 -0.0076
 2162TIP3    H127977   5.911   6.365   2.622 -0.8808 -0.7000 -0.2115
 2162TIP3    H227978   5.894   6.498   2.694  1.1017 -0.8162  0.5005
 2163TIP3   OH227979   4.847   2.294   5.707  1.0185  0.0950  0.5764
 2163TIP3    H127980   4.812   2.329   5.789  0.8064  1.0173  0.0968
 2163TIP3    H227981   4.887   2.211   5.732  1.8825  0.8598  1.8022
 2164TIP3   OH227982   3.589   5.643   1.289 -0.2854 -0.1198 -0.7269
 2164TIP3    H127983   3.585   5.721   1.233  0.2574  0.1485 -0.4014
 2164TIP3    H227984   3.550   5.671   1.372 -0.0823 -0.1897 -0.6079
 2165TIP3   OH227985   3.776   4.519  11.907 -0.3507 -0.3835  0.4561
 2165TIP3    H127986   3.714   4.457  11.868 -0.8432  0.6927 -0.5033
 2165TIP3    H227987   3.860   4.497  11.866 -0.5155 -0.4360  0.1456
 2166TIP3   OH227988   5.810   4.992  13.188 -0.3241  0.2147 -0.1340
 2166TIP3    H127989   5.881   5.015  13.248  2.1802  2.0226 -3.5660
 2166TIP3    H227990   5.845   4.918  13.137 -0.9637  0.9712 -1.7006
 2167TIP3   OH227991   3.533   3.823   0.189  0.9580  0.1670  0.3515
 2167TIP3    H127992   3.476   3.760   0.145  1.2078 -2.0073  2.9919
 2167TIP3    H227993   3.622   3.788   0.175  1.2942  1.1608 -0.0432
 2168TIP3   OH227994   4.582   6.787   5.624 -0.4684 -0.6442  0.0631
 2168TIP3    H127995   4.629   6.812   5.703 -0.0858 -1.2843  0.0343
 2168TIP3    H227996   4.501   6.838   5.628  0.2231  0.4583  0.1027
 2169TIP3   OH227997   4.011   6.792   5.278  0.5626 -0.3957  0.2471
 2169TIP3    H127998   3.960   6.741   5.341  1.0395  0.8837  1.7035
 2169TIP3    H227999   4.000   6.746   5.195 -1.7488 -0.9920  0.8424
 2170TIP3   OH228000   0.132   5.737  13.861 -0.1855 -0.4881  0.3377
 2170TIP3    H128001   0.170   5.697  13.783  0.9048 -1.0940  1.1602
 2170TIP3    H228002   0.069   5.801  13.827 -2.0671 -2.9581 -1.0278
 2171TIP3   OH228003   3.579   5.078   4.379 -0.1630 -0.4995 -0.0604
 2171TIP3    H128004   3.656   5.109   4.427 -0.7762  0.1861  0.4956
 2171TIP3    H228005   3.607   4.995   4.340  0.9644 -0.0886 -0.1478
 2172TIP3   OH228006   3.690   0.281  16.808 -0.3415 -0.1896  0.2439
 2172TIP3    H128007   3.645   0.227  16.873  3.1744 -0.7202  2.3433
 2172TIP3    H228008   3.725   0.218  16.745 -0.3114  0.0195  0.0522
 2173TIP3   OH228009   6.615   2.656  10.992  0.2728  0.2739  0.7723
 2173TIP3    H128010   6.559   2.652  10.914 -0.7711 -0.8612  1.5653
 2173TIP3    H228011   6.667   2.735  10.980  1.1097 -0.6270 -1.7403
 2174TIP3   OH228012   1.645   1.941  15.897  0.0709  0.0038  0.4342
 2174TIP3    H128013   1.610   2.017  15.944 -1.2547  0.5302 -1.3658
 2174TIP3    H228014   1.717   1.977  15.845 -1.3989  0.3351 -1.4440
 2175TIP3   OH228015   4.930   2.797  13.687  0.0574 -1.1046  0.2359
 2175TIP3    H128016   4.972   2.827  13.767 -0.7277 -1.0165  0.6217
 2175TIP3    H228017   4.988   2.826  13.616 -0.7667  1.5374  0.5760
 2176TIP3   OH228018   1.482   1.027  13.013 -0.1987  0.4155 -0.1784
 2176TIP3    H128019   1.405   0.974  13.028 -1.0245  1.2177 -1.4628
 2176TIP3    H228020   1.544   0.969  12.969  0.0897 -0.3348  1.2005
 2177TIP3   OH228021   2.247   1.181  17.045 -0.6380  0.0124 -0.3890
 2177TIP3    H128022   2.266   1.090  17.020  1.2718  0.5777 -1.0592
 2177TIP3    H228023   2.264   1.184  17.139 -1.4272 -0.4956 -0.2243
 2178TIP3   OH228024   0.783   4.565  13.181 -0.0933  0.0639  0.7122
 2178TIP3    H128025   0.749   4.479  13.205  1.6078 -0.9158 -0.2514
 2178TIP3    H228026   0.775   4.567  13.085 -0.6599  1.2107  0.7815
 2179TIP3   OH228027   4.691   3.036  11.595  0.5367  0.1905  0.0756
 2179TIP3    H128028   4.701   2.952  11.641  1.3114  0.1039 -0.2513
 2179TIP3    H228029   4.776   3.052  11.554 -0.2806  0.0620 -1.6870
 2180TIP3   OH228030   0.472   2.135   2.021 -0.2853 -0.9090  0.2670
 2180TIP3    H128031   0.554   2.086   2.023  0.3693  0.0595 -1.4311
 2180TIP3    H228032   0.479   2.197   2.094  0.6727 -0.5749 -0.0987
 2181TIP3   OH228033   5.477   5.213   0.230  0.1982 -0.0640  0.0164
 2181TIP3    H128034   5.424   5.274   0.178 -1.3148  0.1874  1.7886
 2181TIP3    H228035   5.415   5.177   0.294  1.6662 -1.5427  0.6413
 2182TIP3   OH228036   6.742   4.927  14.556 -0.2719  0.2568  0.3086
 2182TIP3    H128037   6.659   4.974  14.559 -0.5592 -0.2725  0.9976
 2182TIP3    H228038   6.791   4.969  14.486 -0.8931  0.9545  0.2806
 2183TIP3   OH228039   2.248   3.479   4.969 -0.0243  0.0126 -0.2168
 2183TIP3    H128040   2.163   3.499   4.929  0.1212  1.2511  0.0653
 2183TIP3    H228041   2.236   3.392   5.007 -1.0324 -0.0072 -0.5470
 2184TIP3   OH228042   4.002   3.524  13.488  0.2800 -0.2342  0.7261
 2184TIP3    H128043   3.934   3.533  13.420  0.5345 -0.7686  0.4019
 2184TIP3    H228044   4.025   3.431  13.487  0.9967 -0.0619  0.8525
 2185TIP3   OH228045   3.758   3.257  12.607 -0.1925  0.0572 -0.0539
 2185TIP3    H128046   3.845   3.270  12.645 -0.9104  0.4734  1.5182
 2185TIP3    H228047   3.744   3.333  12.551  0.1270  0.4171  0.3509
 2186TIP3   OH228048   3.740   1.203  13.405 -0.7971 -0.0938  0.8630
 2186TIP3    H128049   3.787   1.266  13.460 -1.8730  1.6362 -0.1516
 2186TIP3    H228050   3.744   1.121  13.454  2.6588  0.1361  1.1319
 2187TIP3   OH228051   4.476   5.549  10.975 -0.0400 -0.6158  0.3877
 2187TIP3    H128052   4.427   5.534  10.894  0.5142  2.3821 -0.5665
 2187TIP3    H228053   4.476   5.464  11.020 -1.2200 -2.0651 -2.2759
 2188TIP3   OH228054   0.572   3.426  15.714 -0.7525 -0.1341  0.5013
 2188TIP3    H128055   0.556   3.332  15.702  1.7249 -0.5566  0.1869
 2188TIP3    H228056   0.523   3.468  15.643 -1.4455 -1.2305  0.3200
 2189TIP3   OH228057   0.767   5.864  16.532  0.1802  0.4643 -0.3471
 2189TIP3    H128058   0.839   5.834  16.587 -1.9347 -1.1577  1.6686
 2189TIP3    H228059   0.733   5.785  16.491 -0.9983  1.0666 -0.5589
 2190TIP3   OH228060   2.894   5.699  12.871 -0.2305  0.1901 -0.0967
 2190TIP3    H128061   2.975   5.710  12.822 -0.4392 -2.5422 -1.1895
 2190TIP3    H228062   2.917   5.640  12.942 -1.0481  0.1199  0.1198
 2191TIP3   OH228063   4.619   6.142   0.081 -0.0942  0.4284 -0.1107
 2191TIP3    H128064   4.682   6.147   0.154  0.4656 -0.5270 -0.5067
 2191TIP3    H228065   4.591   6.232   0.067 -0.0001  0.6581  1.1133
 2192TIP3   OH228066   0.245   6.775  11.831 -0.0142  0.4672  0.0637
 2192TIP3    H128067   0.219   6.685  11.850  0.0893  0.7886  1.8294
 2192TIP3    H228068   0.332   6.767  11.792 -0.0959 -0.2081  0.0096
 2193TIP3   OH228069   6.613   1.593  12.838 -0.2915  0.0254 -0.3314
 2193TIP3    H128070   6.578   1.679  12.812 -0.3326 -0.5350 -2.2008
 2193TIP3    H228071   6.700   1.612  12.874 -1.1836  1.0766  1.3619
 2194TIP3   OH228072   1.672   6.235   5.225 -0.1484 -0.6265  0.0892
 2194TIP3    H128073   1.601   6.293   5.250  0.0152 -0.1196 -0.5854
 2194TIP3    H228074   1.671   6.165   5.290  0.3501  0.7115  1.5471
 2195TIP3   OH228075   4.143   5.148   2.500 -0.2136  0.5975 -0.3558
 2195TIP3    H128076   4.051   5.158   2.523 -0.1455  0.2700  0.0627
 2195TIP3    H228077   4.174   5.076   2.556 -0.7655 -2.2407 -3.5331
 2196TIP3   OH228078   5.802   1.793  13.229 -0.2240  0.2283  0.5472
 2196TIP3    H128079   5.802   1.727  13.298 -0.3556  1.3767  1.6673
 2196TIP3    H228080   5.895   1.810  13.212 -0.1958  0.8666  1.3407
 2197TIP3   OH228081   3.814   3.288   0.935 -0.2722  0.2756 -0.6428
 2197TIP3    H128082   3.843   3.321   0.850 -2.5045  1.2899 -1.0498
 2197TIP3    H228083   3.827   3.361   0.995  0.8178 -0.2684 -0.2164
 2198TIP3   OH228084   2.991   5.557  15.624  0.3497  0.1805 -0.0336
 2198TIP3    H128085   2.936   5.485  15.594  1.1013  0.6871 -2.7572
 2198TIP3    H228086   3.080   5.525  15.611  0.6859  0.8571  0.6124
 2199TIP3   OH228087   6.643   3.044  15.412  0.0994  0.1274  0.0263
 2199TIP3    H128088   6.707   3.101  15.370 -1.7839  0.3555 -2.7009
 2199TIP3    H228089   6.657   2.958  15.372 -0.2824 -0.1816  0.5472
 2200TIP3   OH228090   3.023   1.641   2.209  0.2484 -0.0418  0.0004
 2200TIP3    H128091   3.006   1.690   2.129 -0.6511 -0.3005  0.0268
 2200TIP3    H228092   2.991   1.698   2.279 -1.6592 -1.0375 -0.0314
 2201TIP3   OH228093   1.125   5.790  14.329  0.5481  0.2002  0.2407
 2201TIP3    H128094   1.121   5.855  14.259  0.3751 -0.2274 -0.1502
 2201TIP3    H228095   1.188   5.725  14.298  1.6431  0.8005  1.1711
 2202TIP3   OH228096   5.147   1.448   3.442  0.6550  0.0484  0.1887
 2202TIP3    H128097   5.235   1.417   3.422 -0.4264 -3.6072  0.7826
 2202TIP3    H228098   5.114   1.387   3.508 -2.1962  1.6121  0.3011
 2203TIP3   OH228099   5.423   1.628   5.262  0.2801  0.0514  0.1355
 2203TIP3    H128100   5.364   1.594   5.195 -0.1030  1.0034 -0.0179
 2203TIP3    H228101   5.445   1.716   5.231  1.4983 -0.1727  0.3726
 2204TIP3   OH228102   4.054   2.951   3.658  0.1043  0.0185  0.5099
 2204TIP3    H128103   4.051   2.861   3.691  0.6367 -0.6154 -1.1042
 2204TIP3    H228104   3.964   2.971   3.635  0.0764 -0.3327  0.3056
 2205TIP3   OH228105   4.014   2.332  13.217 -0.6957 -0.4699  0.1284
 2205TIP3    H128106   3.981   2.287  13.294 -0.5320  2.6357  2.0857
 2205TIP3    H228107   4.106   2.305  13.210 -1.1998 -2.1464 -0.0506
 2206TIP3   OH228108   4.220   6.365  10.893 -0.0802  0.7509  0.3934
 2206TIP3    H128109   4.237   6.274  10.869 -1.6001  0.8814 -1.2106
 2206TIP3    H228110   4.201   6.361  10.987 -1.0309 -0.7229  0.1568
 2207TIP3   OH228111   5.703   0.518  13.265 -0.0097  0.4154 -0.0382
 2207TIP3    H128112   5.686   0.546  13.175  0.0734 -0.7196 -0.4146
 2207TIP3    H228113   5.663   0.586  13.320 -0.9982  0.5473 -0.9280
 2208TIP3   OH228114   3.317   6.302   2.225 -0.2983  0.3697 -0.0511
 2208TIP3    H128115   3.407   6.279   2.202 -0.1447  0.2964  0.6132
 2208TIP3    H228116   3.272   6.311   2.141 -0.1568 -1.5412 -0.3561
 2209TIP3   OH228117   3.009   3.532   2.682 -0.1628  0.0492 -0.3264
 2209TIP3    H128118   2.972   3.607   2.729  0.0470 -0.1076  0.1007
 2209TIP3    H228119   2.940   3.503   2.622 -1.1561 -0.9197  1.2314
 2210TIP3   OH228120   3.939   4.251  13.189 -0.7398 -0.0517 -0.2088
 2210TIP3    H128121   3.893   4.330  13.160 -1.9093 -0.6255  0.0377
 2210TIP3    H228122   3.874   4.181  13.179 -1.1478 -0.3205  3.5819
 2211TIP3   OH228123   0.656   0.976   0.643  0.4154  0.5653  0.1197
 2211TIP3    H128124   0.605   0.899   0.667  0.9053 -0.4497 -1.9448
 2211TIP3    H228125   0.605   1.050   0.676  0.0894 -0.6179  2.4094
 2212TIP3   OH228126   2.857   6.074   4.676  0.1285  0.1600 -0.4969
 2212TIP3    H128127   2.791   6.012   4.644  1.4668 -1.3734 -0.3784
 2212TIP3    H228128   2.831   6.158   4.640 -0.8057 -0.7649 -2.0535
 2213TIP3   OH228129   4.082   5.914   0.533 -0.9270  0.0616  0.6140
 2213TIP3    H128130   4.010   5.961   0.490 -0.8817 -0.4333 -0.0084
 2213TIP3    H228131   4.054   5.823   0.533 -0.4573 -0.0817  0.6868
 2214TIP3   OH228132   5.856   1.389   4.091 -0.0542  0.2305  0.0371
 2214TIP3    H128133   5.926   1.352   4.146 -0.1345 -1.1253 -0.7369
 2214TIP3    H228134   5.877   1.359   4.002 -1.8789 -0.6096 -0.1329
 2215TIP3   OH228135   1.355   1.898  13.386 -0.3959  0.3076  0.2314
 2215TIP3    H128136   1.388   1.828  13.443  0.1881  0.0698 -0.3941
 2215TIP3    H228137   1.263   1.875  13.370  0.7573 -2.4261 -3.1011
 2216TIP3   OH228138   5.917   6.411  16.893  0.3766 -0.5773 -0.0580
 2216TIP3    H128139   5.857   6.456  16.952 -1.5784 -1.0934 -1.5714
 2216TIP3    H228140   5.950   6.337  16.944 -1.5342 -1.2041  0.3358
 2217TIP3   OH228141   1.844   3.950  14.886  0.0637  0.3324 -0.0321
 2217TIP3    H128142   1.910   3.917  14.946  0.2073 -0.6427 -0.7209
 2217TIP3    H228143   1.793   3.872  14.861 -0.9598  0.9702  0.0231
 2218TIP3   OH228144   4.514   2.307   5.763 -0.0674 -0.1376  0.3083
 2218TIP3    H128145   4.595   2.343   5.799 -0.9784  2.1505  0.1513
 2218TIP3    H228146   4.457   2.294   5.839 -0.0414 -0.4657  0.2721
 2219TIP3   OH228147   2.502   4.040   3.249 -0.3586 -0.5034 -0.0027
 2219TIP3    H128148   2.541   4.100   3.186  0.1275 -2.2938 -1.4647
 2219TIP3    H228149   2.508   4.086   3.333  2.5687  0.3430 -0.5961
 2220TIP3   OH228150   0.066   6.095  13.639 -0.4824 -0.2433 -0.0086
 2220TIP3    H128151   0.110   6.065  13.560 -1.1081 -0.8382 -0.1453
 2220TIP3    H228152   0.136   6.119  13.699  0.0104 -0.7638 -0.3793
 2221TIP3   OH228153   0.510   2.514  14.639  0.8039 -0.1568  0.0412
 2221TIP3    H128154   0.518   2.604  14.669 -1.5890  0.4770 -1.1166
 2221TIP3    H228155   0.416   2.499  14.631  1.2400 -1.7199 -2.8470
 2222TIP3   OH228156   0.362   3.070   5.162  0.4587 -0.3325  0.3608
 2222TIP3    H128157   0.275   3.109   5.156 -0.3828 -2.1842  0.1624
 2222TIP3    H228158   0.361   3.000   5.096  1.5481 -1.3799  1.4381
 2223TIP3   OH228159   1.679   1.694   0.810  0.1885  0.2667  0.2191
 2223TIP3    H128160   1.667   1.666   0.901  2.3247  0.0895  0.4789
 2223TIP3    H228161   1.723   1.779   0.817  1.3951 -0.2718 -0.6455
 2224TIP3   OH228162   4.520   4.918  11.972  0.0480  0.7491  0.1020
 2224TIP3    H128163   4.469   4.891  11.895  0.4094  0.8077 -0.1600
 2224TIP3    H228164   4.454   4.934  12.040 -0.1545 -1.5085  0.4981
 2225TIP3   OH228165   4.570   4.497   4.853 -0.1772 -0.1415 -0.5950
 2225TIP3    H128166   4.481   4.484   4.820  0.0250  0.2792 -1.3174
 2225TIP3    H228167   4.610   4.557   4.791  1.0504 -1.3737 -1.0262
 2226TIP3   OH228168   3.341   0.390  14.566 -0.6518 -0.1873 -0.1127
 2226TIP3    H128169   3.402   0.463  14.557 -1.2252  0.3642  0.3760
 2226TIP3    H228170   3.395   0.315  14.590 -0.2238  0.4102  0.8042
 2227TIP3   OH228171   3.225   0.062  16.009 -0.0506 -0.5361 -0.1187
 2227TIP3    H128172   3.240  -0.031  16.026  0.4115  0.1905  3.9175
 2227TIP3    H228173   3.308   0.104  16.033 -0.9081  1.1241 -0.0286
 2228TIP3   OH228174   1.966   3.368  14.574 -0.0142  0.1573  0.6669
 2228TIP3    H128175   1.883   3.355  14.529  0.4519 -1.8231  0.3115
 2228TIP3    H228176   2.003   3.280  14.582  1.7347  0.9269  1.4250
 2229TIP3   OH228177   1.287   2.106  16.051  0.1952  0.5889 -0.0657
 2229TIP3    H128178   1.239   2.174  16.099 -0.3965 -0.2356  0.5150
 2229TIP3    H228179   1.275   2.129  15.959 -0.6113  0.8771  0.1051
 2230TIP3   OH228180   4.495   0.910   5.728 -0.2554  0.4221  0.2845
 2230TIP3    H128181   4.545   0.908   5.809  0.2673  3.3194  0.0952
 2230TIP3    H228182   4.561   0.915   5.659 -0.7300 -0.4241 -0.2432
 2231TIP3   OH228183   6.174   0.970   0.358  0.3315 -0.2015 -0.2961
 2231TIP3    H128184   6.217   0.885   0.366 -1.0756 -0.8600  0.3961
 2231TIP3    H228185   6.128   0.966   0.274  1.2241  0.3424 -0.8303
 2232TIP3   OH228186   1.142   2.390  13.642 -0.1390  0.0421 -0.1928
 2232TIP3    H128187   1.179   2.464  13.593 -0.8300  0.4741 -0.0632
 2232TIP3    H228188   1.151   2.315  13.583  0.4366  0.2570 -0.3779
 2233TIP3   OH228189   4.619   6.318  15.046  0.3987  0.0494 -0.1997
 2233TIP3    H128190   4.663   6.336  14.963  0.7850  0.4944  0.0999
 2233TIP3    H228191   4.647   6.229  15.069  1.9861  0.7132  0.5069
 2234TIP3   OH228192   3.391   4.123  14.326  0.2607  0.1790  0.0075
 2234TIP3    H128193   3.366   4.039  14.364  0.2846  0.2456  0.1734
 2234TIP3    H228194   3.324   4.142  14.261  0.6337 -0.2980 -0.5175
 2235TIP3   OH228195   4.645   5.825  12.681 -0.1618 -0.8785  0.1593
 2235TIP3    H128196   4.688   5.899  12.639 -2.4950 -0.1086 -0.9977
 2235TIP3    H228197   4.700   5.750  12.661  0.6500  0.0742 -1.2463
 2236TIP3   OH228198   5.978   1.542   4.296  0.0174 -0.1550 -0.2788
 2236TIP3    H128199   5.901   1.485   4.303  0.9019 -0.9863  3.5218
 2236TIP3    H228200   6.053   1.483   4.309  1.0979  1.3378  0.4027
 2237TIP3   OH228201   3.868   4.162  11.293  0.1217  0.0532  0.0446
 2237TIP3    H128202   3.953   4.153  11.251 -0.2176  0.7737 -0.8045
 2237TIP3    H228203   3.888   4.163  11.387  0.9729 -0.5508 -0.1259
 2238TIP3   OH228204   5.230   4.149  15.983  0.3437 -0.6042  0.0666
 2238TIP3    H128205   5.161   4.170  16.046  0.5918  1.2318 -0.2397
 2238TIP3    H228206   5.183   4.126  15.902  0.0669 -1.1490  0.3784
 2239TIP3   OH228207   0.317   6.376   1.066  0.1979  0.5957  0.1927
 2239TIP3    H128208   0.349   6.430   1.138 -0.6058  1.4020 -0.0569
 2239TIP3    H228209   0.344   6.423   0.987  1.2135 -0.3622 -0.0541
 2240TIP3   OH228210   1.666   0.574   1.671  0.1781  0.0034  0.4841
 2240TIP3    H128211   1.745   0.586   1.723  0.1380  0.4612  0.4421
 2240TIP3    H228212   1.657   0.655   1.621 -0.2867 -0.0699  0.4437
 2241TIP3   OH228213   4.826   1.738  11.518  0.4113 -0.3405  0.4967
 2241TIP3    H128214   4.747   1.713  11.470  0.6040 -0.3780  0.1980
 2241TIP3    H228215   4.813   1.831  11.539  1.6015  0.4634 -2.1538
 2242TIP3   OH228216   4.556   1.427   1.713  0.5893 -0.3377 -0.0623
 2242TIP3    H128217   4.625   1.491   1.702 -0.3595  0.3104 -2.7457
 2242TIP3    H228218   4.487   1.473   1.760  0.3019  0.3459 -1.1292
 2243TIP3   OH228219   0.132   6.570   4.309  0.3879 -0.3326  0.2795
 2243TIP3    H128220   0.111   6.561   4.402 -0.0040 -0.1654  0.2105
 2243TIP3    H228221   0.179   6.490   4.287  0.0866 -0.5775  0.5167
 2244TIP3   OH228222   1.139   6.597  10.711  0.4166  0.1255  0.1393
 2244TIP3    H128223   1.077   6.666  10.687  1.8694  1.7460  0.9240
 2244TIP3    H228224   1.225   6.633  10.690  1.1064 -2.3346 -1.5039
 2245TIP3   OH228225   4.080   4.020  14.305  0.1360 -0.0895 -0.2477
 2245TIP3    H128226   4.099   4.094  14.247 -0.1551 -2.1429 -3.0663
 2245TIP3    H228227   4.145   3.954  14.282 -0.2386 -1.0997  1.5202
 2246TIP3   OH228228   5.073   4.794  16.895 -0.7274 -0.7533  0.3338
 2246TIP3    H128229   5.076   4.777  16.801  0.8819 -1.6009  0.5110
 2246TIP3    H228230   5.063   4.707  16.934 -1.2973 -0.4100  0.9365
 2247TIP3   OH228231   6.448   4.557   1.663  0.2060  0.2621 -0.7704
 2247TIP3    H128232   6.355   4.555   1.686 -0.0551  3.6241 -1.2940
 2247TIP3    H228233   6.494   4.536   1.744 -0.9643  0.3802 -0.0730
 2248TIP3   OH228234   1.144   4.943  15.964  0.3351 -0.3256  0.5219
 2248TIP3    H128235   1.137   5.035  15.988 -1.7598 -0.8732  2.2471
 2248TIP3    H228236   1.061   4.924  15.920  2.2053 -0.5441 -3.0969
 2249TIP3   OH228237   4.245   4.971   5.273 -0.0112 -0.0954 -0.0508
 2249TIP3    H128238   4.319   5.015   5.315  0.2372 -0.6793  0.1188
 2249TIP3    H228239   4.240   4.885   5.315  0.2614 -0.7002 -1.2281
 2250TIP3   OH228240   4.772   1.506   2.033 -0.2262  0.2360  0.1251
 2250TIP3    H128241   4.745   1.419   2.005 -1.6614  0.2748  1.3015
 2250TIP3    H228242   4.868   1.503   2.034 -0.2235 -0.6535 -1.8617
 2251TIP3   OH228243   6.464   1.784   0.706  0.0001 -0.0395  0.5970
 2251TIP3    H128244   6.393   1.808   0.765  0.1399  0.1844  0.6753
 2251TIP3    H228245   6.539   1.835   0.737  0.2410 -0.4030  0.6231
 2252TIP3   OH228246   0.308   3.700   1.611 -0.2836  0.5014  0.7149
 2252TIP3    H128247   0.348   3.761   1.673  0.2060 -0.0654  0.9538
 2252TIP3    H228248   0.377   3.681   1.548 -0.0080 -0.8794  1.4202
 2253TIP3   OH228249   4.625   2.538  12.311 -0.2505 -0.0974  0.0466
 2253TIP3    H128250   4.680   2.505  12.382 -0.4363  0.4993  0.4746
 2253TIP3    H228251   4.537   2.507  12.334 -0.3451  0.2800  0.1923
 2254TIP3   OH228252   3.722   4.589   5.496 -0.0009 -0.0264 -0.7290
 2254TIP3    H128253   3.709   4.647   5.571 -1.3633 -0.4297 -0.6302
 2254TIP3    H228254   3.792   4.530   5.523 -2.0861 -1.6933  1.1709
 2255TIP3   OH228255   0.112   2.340   1.881  0.3753 -0.2133  0.1198
 2255TIP3    H128256   0.167   2.404   1.836 -0.4898 -0.5313 -1.4061
 2255TIP3    H228257   0.045   2.316   1.817 -2.2363  0.9954  2.3013
 2256TIP3   OH228258   0.402   2.954   6.077  0.5111  0.0247  0.0044
 2256TIP3    H128259   0.473   2.998   6.124  0.4417 -1.4092  1.5019
 2256TIP3    H228260   0.371   2.887   6.137 -1.8487  0.3354 -0.7909
 2257TIP3   OH228261   2.428   4.630   2.618  0.3544  0.4610 -0.0597
 2257TIP3    H128262   2.504   4.578   2.592  0.5683  1.3273 -1.1953
 2257TIP3    H228263   2.438   4.713   2.571 -1.1059  0.7101  0.0490
 2258TIP3   OH228264   3.885   1.214  13.842  0.3946 -0.0433 -0.0601
 2258TIP3    H128265   3.899   1.165  13.923  2.0471  1.4919  0.6128
 2258TIP3    H228266   3.799   1.254  13.854  0.7068  0.3332  1.0469
 2259TIP3   OH228267   5.289   5.443  11.031  0.4356 -0.4862 -0.0259
 2259TIP3    H128268   5.237   5.516  11.065  0.5615 -0.9867  1.2871
 2259TIP3    H228269   5.225   5.387  10.986  0.2532  0.1646 -0.5775
 2260TIP3   OH228270   0.982   1.593  12.846  0.1296  0.4586 -0.2230
 2260TIP3    H128271   1.036   1.529  12.892 -0.8293  1.1708  1.9459
 2260TIP3    H228272   0.893   1.557  12.851  0.3274 -0.6915 -3.7395
 2261TIP3   OH228273   1.005   0.726   0.550 -0.3113 -0.2487  0.1996
 2261TIP3    H128274   1.092   0.744   0.584 -0.6085  0.6368  0.5038
 2261TIP3    H228275   0.955   0.697   0.626 -0.7573  0.9688  0.3962
 2262TIP3   OH228276   2.124   6.562  12.125 -0.0334  0.2723  0.1757
 2262TIP3    H128277   2.191   6.496  12.107 -1.5743 -1.3372  0.1511
 2262TIP3    H228278   2.103   6.550  12.218  1.0931  2.1002  0.6923
 2263TIP3   OH228279   6.649   4.421   2.830 -0.2390  0.2707 -0.2199
 2263TIP3    H128280   6.690   4.383   2.908 -1.0254  0.8809  0.4870
 2263TIP3    H228281   6.723   4.442   2.773  0.2255 -2.0762 -0.5121
 2264TIP3   OH228282   0.260   3.369   1.781  0.3236 -0.5011  0.1819
 2264TIP3    H128283   0.178   3.349   1.735  0.5717  0.0067 -0.4829
 2264TIP3    H228284   0.232   3.403   1.866 -0.1737  0.2398 -0.2738
 2265TIP3   OH228285   5.050   1.682   2.267 -0.4945  0.0369 -0.2135
 2265TIP3    H128286   4.998   1.657   2.343 -0.3273 -0.7259 -0.3457
 2265TIP3    H228287   5.003   1.643   2.193 -0.1663  0.0188 -0.4110
 2266TIP3   OH228288   1.245   0.741  16.254  0.0903  0.3217  0.3657
 2266TIP3    H128289   1.163   0.722  16.299  0.1707  1.0335  0.8101
 2266TIP3    H228290   1.311   0.688  16.299 -0.1325 -0.3017 -0.0359
 2267TIP3   OH228291   5.252   4.151   5.375  0.2119 -0.1221 -0.3703
 2267TIP3    H128292   5.238   4.170   5.468  1.3267  1.1899 -0.4538
 2267TIP3    H228293   5.206   4.222   5.329 -0.5376 -0.9000 -0.8356
 2268TIP3   OH228294   3.298   0.101  11.634 -0.1365 -0.4074 -0.3314
 2268TIP3    H128295   3.360   0.126  11.565 -0.5548  1.1567 -0.1648
 2268TIP3    H228296   3.347   0.109  11.715  0.3219 -2.1374 -0.4249
 2269TIP3   OH228297   3.717   6.819   1.496  0.2214  0.5758  0.8740
 2269TIP3    H128298   3.761   6.895   1.535  0.9593 -0.3678  1.8979
 2269TIP3    H228299   3.763   6.806   1.412 -0.2562  1.5741  0.4497
 2270TIP3   OH228300   5.650   3.084   3.704  0.5505 -0.7704  0.5523
 2270TIP3    H128301   5.688   3.162   3.665 -0.3798 -0.4834  0.2206
 2270TIP3    H228302   5.579   3.059   3.645  1.2630 -2.2479  0.2980
 2271TIP3   OH228303   2.344   6.067   5.749  0.8121  0.0043  0.5048
 2271TIP3    H128304   2.317   5.979   5.723 -0.5454  0.7785 -0.7708
 2271TIP3    H228305   2.265   6.120   5.741  1.4211  1.1956  2.0259
 2272TIP3   OH228306   4.915   3.417   1.574  0.0461 -0.0957 -0.2908
 2272TIP3    H128307   4.861   3.382   1.645 -0.3059  1.5330  0.2506
 2272TIP3    H228308   4.883   3.506   1.560  1.3595  0.2499 -1.2222
 2273TIP3   OH228309   5.151   6.777  12.001 -0.0756 -0.3485 -0.0236
 2273TIP3    H128310   5.216   6.763  11.932 -0.7676  1.1773 -1.0192
 2273TIP3    H228311   5.203   6.798  12.079  0.6484  0.4065 -0.7009
 2274TIP3   OH228312   5.581   5.085   5.248  0.3056  0.2499  0.0563
 2274TIP3    H128313   5.624   5.161   5.287  0.0675  1.2237 -1.5335
 2274TIP3    H228314   5.642   5.013   5.263  2.1318  1.4410 -1.4152
 2275TIP3   OH228315   2.558   1.204  11.643 -0.3758  0.3431  0.1302
 2275TIP3    H128316   2.567   1.111  11.620 -3.5535 -0.0239  0.1338
 2275TIP3    H228317   2.542   1.248  11.560  4.1927  1.4477 -0.3127
 2276TIP3   OH228318   4.129   2.116  12.220  0.4667 -0.0448 -0.1152
 2276TIP3    H128319   4.123   2.128  12.315 -1.6268  2.0869 -0.4728
 2276TIP3    H228320   4.180   2.190  12.189  0.8962 -0.5772 -0.6837
 2277TIP3   OH228321   3.857   3.136  14.695  0.5053 -0.2116  0.6352
 2277TIP3    H128322   3.783   3.185  14.730  0.5028  1.8541 -2.0582
 2277TIP3    H228323   3.930   3.159  14.753 -0.8898 -2.2694  3.3108
 2278TIP3   OH228324   6.032   1.718   4.081  0.2636 -0.0735 -0.5659
 2278TIP3    H128325   5.998   1.653   4.141  0.7755 -0.5932 -0.8355
 2278TIP3    H228326   6.119   1.740   4.115  0.3453  0.0086 -0.8240
 2279TIP3   OH228327   1.950   3.541  17.290 -0.2471 -0.3117 -0.1822
 2279TIP3    H128328   2.028   3.526  17.344  0.3658 -0.6603 -1.1427
 2279TIP3    H228329   1.946   3.465  17.232 -2.2997 -1.1590  1.0149
 2280TIP3   OH228330   0.575   3.830  12.115 -0.6458  0.3817 -0.0908
 2280TIP3    H128331   0.660   3.873  12.117 -0.6810  0.4325  1.4833
 2280TIP3    H228332   0.512   3.902  12.114 -0.6704  0.3428 -2.7210
 2281TIP3   OH228333   1.334   5.119  10.969 -0.2228 -0.0909 -0.2431
 2281TIP3    H128334   1.303   5.094  11.056  0.5349 -1.9056 -0.4589
 2281TIP3    H228335   1.259   5.161  10.927 -1.2482 -1.1146  0.5378
 2282TIP3   OH228336   0.350   3.431  13.142 -0.5066  0.1733  0.4364
 2282TIP3    H128337   0.344   3.506  13.200  0.1634  0.9425 -0.4759
 2282TIP3    H228338   0.409   3.459  13.072 -1.8223 -0.4806 -0.9810
 2283TIP3   OH228339   1.311   0.276  13.300  0.0179  0.6048  0.2521
 2283TIP3    H128340   1.341   0.341  13.236 -1.5165 -0.2262 -1.3369
 2283TIP3    H228341   1.256   0.216  13.249 -0.3539 -0.6837  2.1483
 2284TIP3   OH228342   3.852   6.259  14.490 -0.1104  0.1037 -0.0709
 2284TIP3    H128343   3.814   6.251  14.403 -1.0092  2.4933  0.0534
 2284TIP3    H228344   3.798   6.203  14.546  0.2806 -1.1876 -0.9694
 2285TIP3   OH228345   1.603   2.579  13.528 -0.4035 -0.0072 -0.2381
 2285TIP3    H128346   1.567   2.644  13.468 -1.0369  0.5720  0.7481
 2285TIP3    H228347   1.624   2.629  13.607 -0.3236 -0.8933  0.3072
 2286TIP3   OH228348   6.812   0.694   2.387 -0.0170  0.4524 -0.1645
 2286TIP3    H128349   6.739   0.710   2.447  0.1356  0.2298  0.0799
 2286TIP3    H228350   6.878   0.649   2.440 -0.0354 -0.0796 -0.5886
 2287TIP3   OH228351   0.478   6.443  14.405  0.3107  0.0703 -0.0745
 2287TIP3    H128352   0.407   6.432  14.469 -0.5602 -1.0259 -1.2234
 2287TIP3    H228353   0.524   6.359  14.406  0.6028  0.2256 -0.5488
 2288TIP3   OH228354   1.638   1.977   4.372 -0.5705  0.3094 -0.2146
 2288TIP3    H128355   1.719   1.930   4.389 -0.3467  0.9574  0.5532
 2288TIP3    H228356   1.629   1.978   4.277  0.9134  1.2427 -0.3499
 2289TIP3   OH228357   2.622   3.753   5.362  0.7988 -0.7295 -0.1016
 2289TIP3    H128358   2.530   3.773   5.379  0.6485 -1.1818 -0.3755
 2289TIP3    H228359   2.641   3.797   5.279  0.4396 -1.7956 -0.7560
 2290TIP3   OH228360   3.322   1.671  15.738 -0.3156 -0.3411  0.4885
 2290TIP3    H128361   3.233   1.705  15.746 -0.1733  0.2102 -0.2504
 2290TIP3    H228362   3.374   1.725  15.796 -0.4689 -0.7121  0.9778
 2291TIP3   OH228363   3.318   5.269   4.805 -0.6290 -0.1174  0.6445
 2291TIP3    H128364   3.344   5.232   4.890  2.2475 -0.5812 -0.3927
 2291TIP3    H228365   3.386   5.333   4.785 -1.1196 -0.2423 -1.4720
 2292TIP3   OH228366   4.284   5.217   4.365 -0.0943 -0.8717  0.0424
 2292TIP3    H128367   4.235   5.185   4.289 -0.4919  0.3772 -0.2499
 2292TIP3    H228368   4.306   5.138   4.414 -1.8754 -1.5180 -0.1429
 2293TIP3   OH228369   4.197   2.132   1.000 -0.0147  0.4178 -0.1847
 2293TIP3    H128370   4.265   2.152   0.936  0.9895 -0.2303  0.6528
 2293TIP3    H228371   4.243   2.084   1.069 -1.0856  1.0632  0.9959
 2294TIP3   OH228372   3.087   6.616   5.126  0.0203 -0.4229 -0.1135
 2294TIP3    H128373   3.089   6.548   5.058  0.4744 -0.2435 -0.2841
 2294TIP3    H228374   3.120   6.572   5.204  0.7607 -0.2838 -0.3384
 2295TIP3   OH228375   1.262   3.347   0.301 -0.4354  0.8642  0.1998
 2295TIP3    H128376   1.185   3.290   0.300  0.4308 -0.3060 -0.5782
 2295TIP3    H228377   1.232   3.427   0.346 -1.9009  0.1540  0.5123
 2296TIP3   OH228378   0.045   0.588   5.615  0.2391  0.0471 -0.2890
 2296TIP3    H128379   0.109   0.557   5.551 -0.3764 -1.7357 -0.0690
 2296TIP3    H228380  -0.038   0.547   5.588  0.0896 -1.2800  2.0066
 2297TIP3   OH228381   5.979   5.486   1.501  0.4601 -0.2512  0.1426
 2297TIP3    H128382   5.908   5.426   1.522  1.9301 -1.5721  1.4384
 2297TIP3    H228383   6.051   5.429   1.472  1.9213  0.8399  1.5132
 2298TIP3   OH228384   5.894   6.582  13.751 -0.4521 -0.1152 -1.1768
 2298TIP3    H128385   5.810   6.627  13.744 -0.7205 -0.7415 -1.9884
 2298TIP3    H228386   5.934   6.591  13.664  0.5259  0.5743 -0.6743
 2299TIP3   OH228387   2.907   3.068   2.381 -0.0917  0.2584  0.3171
 2299TIP3    H128388   2.981   3.008   2.369  0.8291  1.4035  0.2641
 2299TIP3    H228389   2.908   3.124   2.304 -1.0700  0.2315  0.2767
 2300TIP3   OH228390   1.076   5.706   0.792  0.7231 -0.6867 -0.1517
 2300TIP3    H128391   1.153   5.764   0.790  1.0801 -1.1992 -1.2991
 2300TIP3    H228392   1.052   5.694   0.700  1.4684 -3.4376 -0.0349
 2301TIP3   OH228393   3.206   4.901   6.128 -0.1248 -0.0483 -0.5824
 2301TIP3    H128394   3.271   4.889   6.198 -1.3342  1.3184  0.7948
 2301TIP3    H228395   3.127   4.860   6.162 -0.6423  0.3618 -1.2814
 2302TIP3   OH228396   3.078   1.732  15.964 -0.0772  0.2110  0.3278
 2302TIP3    H128397   3.077   1.818  15.922  1.6025  1.4373  2.6455
 2302TIP3    H228398   3.039   1.748  16.050 -0.5257 -1.5389  0.4685
 2303TIP3   OH228399   2.076   2.856   4.325  0.4358 -0.1508 -0.1228
 2303TIP3    H128400   2.025   2.937   4.315  1.4543  0.5365  0.1626
 2303TIP3    H228401   2.013   2.792   4.356  0.2643  1.3358  2.7308
 2304TIP3   OH228402   3.001   2.010  12.933  0.4381  0.2977 -0.1574
 2304TIP3    H128403   2.961   1.961  12.861 -0.3420 -3.4857  2.7072
 2304TIP3    H228404   2.927   2.050  12.979  0.7512  0.8130 -0.0937
 2305TIP3   OH228405   3.353   6.542   1.155 -0.0115 -0.1567 -0.0651
 2305TIP3    H128406   3.421   6.563   1.090 -0.7408  0.1883 -0.7291
 2305TIP3    H228407   3.298   6.476   1.112  0.0435 -0.6191  0.5645
 2306TIP3   OH228408   3.508   6.437  13.931 -0.0818  0.1188  0.3997
 2306TIP3    H128409   3.416   6.416  13.948 -0.6389  2.1854  0.0298
 2306TIP3    H228410   3.531   6.503  13.996  0.3236  1.6060 -1.1965
 2307TIP3   OH228411   6.235   2.999   2.438 -0.3268  0.0801  0.2471
 2307TIP3    H128412   6.162   2.946   2.471  1.5401 -2.9561 -0.3612
 2307TIP3    H228413   6.234   2.985   2.343  1.4159 -0.4648  0.2999
 2308TIP3   OH228414   5.394   3.630   3.801 -0.4249 -1.1162 -0.4304
 2308TIP3    H128415   5.379   3.593   3.714  0.8688 -0.5730 -0.8875
 2308TIP3    H228416   5.409   3.553   3.857 -0.6766 -1.4338 -0.7957
 2309TIP3   OH228417   0.608   4.820   1.919  0.3504 -0.3371  0.4755
 2309TIP3    H128418   0.534   4.793   1.974  1.6952  1.7474  3.3986
 2309TIP3    H228419   0.676   4.755   1.937  0.6619  0.1349  1.0256
 2310TIP3   OH228420   4.767   5.051  11.167 -0.1169 -0.5006  0.0080
 2310TIP3    H128421   4.699   5.038  11.234  0.6054 -0.1192  0.8160
 2310TIP3    H228422   4.730   5.116  11.108 -0.2405  0.1282  0.7600
 2311TIP3   OH228423   1.054   4.771  14.629 -0.0580 -0.1469  0.0495
 2311TIP3    H128424   1.117   4.706  14.660 -3.1605 -2.6656  1.3064
 2311TIP3    H228425   0.968   4.733  14.649 -1.9993  3.3515 -1.2412
 2312TIP3   OH228426   3.046   5.958   4.813  0.4226 -0.0450  0.0601
 2312TIP3    H128427   3.008   5.939   4.898  0.7481 -0.8893  0.0187
 2312TIP3    H228428   2.975   6.000   4.764  0.6816  1.8039  1.2276
 2313TIP3   OH228429   2.421   1.219  16.820  0.0265  0.0901 -0.1041
 2313TIP3    H128430   2.403   1.222  16.914 -0.6477 -0.3248 -0.2137
 2313TIP3    H228431   2.475   1.296  16.803  1.3812 -0.6151  0.8779
 2314TIP3   OH228432   0.860   5.640  15.558 -0.3760 -0.0330 -0.2557
 2314TIP3    H128433   0.955   5.634  15.552 -0.5544 -1.8463 -1.6023
 2314TIP3    H228434   0.841   5.732  15.540  0.9282 -0.2858 -3.1265
 2315TIP3   OH228435   1.963   2.168  13.033  0.5600 -0.0859  0.2780
 2315TIP3    H128436   1.951   2.243  12.974  1.5431  0.7172  1.0902
 2315TIP3    H228437   2.008   2.204  13.109  1.3270 -1.5649  0.5440
 2316TIP3   OH228438   3.844   1.032  12.547  0.1779 -0.5259  0.0720
 2316TIP3    H128439   3.892   1.112  12.526 -0.0040 -0.6119 -0.6829
 2316TIP3    H228440   3.911   0.973  12.581  0.6588 -0.6919 -1.1048
 2317TIP3   OH228441   5.168   3.696  12.959  0.0039  0.2974  0.0106
 2317TIP3    H128442   5.227   3.697  13.035 -0.9705  0.8358  0.7656
 2317TIP3    H228443   5.206   3.630  12.901  0.9844  0.1606  0.7887
 2318TIP3   OH228444   1.586   5.641   3.272 -0.2776  0.0670 -0.0809
 2318TIP3    H128445   1.646   5.568   3.258  0.4572  1.1227 -2.7190
 2318TIP3    H228446   1.576   5.646   3.367  0.4124 -2.8339  0.1826
 2319TIP3   OH228447   6.103   0.287   2.946  0.2760 -0.0970  0.0329
 2319TIP3    H128448   6.058   0.235   2.879 -0.6145  0.5384  0.1253
 2319TIP3    H228449   6.181   0.236   2.967  0.4450 -0.4301 -1.3071
 2320TIP3   OH228450   2.195   3.489  11.927  0.4550 -0.5487 -0.5064
 2320TIP3    H128451   2.188   3.481  12.022 -2.0976 -1.6046 -0.7346
 2320TIP3    H228452   2.207   3.583  11.912  0.6044 -0.3405  0.8388
 2321TIP3   OH228453   5.383   6.131  11.901 -0.1785 -0.3821  0.1572
 2321TIP3    H128454   5.457   6.079  11.933  0.1398 -1.0193 -1.5305
 2321TIP3    H228455   5.317   6.125  11.970  0.9638 -0.6415  1.2365
 2322TIP3   OH228456   5.976   2.527   3.167  0.2132 -0.0022  0.5156
 2322TIP3    H128457   5.887   2.559   3.150  0.9421  1.9038  0.1249
 2322TIP3    H228458   5.967   2.432   3.171 -1.0585 -0.2320 -4.4555
 2323TIP3   OH228459   2.051   0.026   2.463 -0.0620 -0.4164 -0.4134
 2323TIP3    H128460   2.109   0.049   2.390  1.7249 -2.9738  0.1362
 2323TIP3    H228461   2.074   0.089   2.532  0.4459  0.0538 -1.0042
 2324TIP3   OH228462   1.604   1.202   2.285  0.3595 -0.6086 -0.2956
 2324TIP3    H128463   1.681   1.244   2.322 -0.2079 -0.4390  0.6916
 2324TIP3    H228464   1.634   1.114   2.262  0.7262 -0.7040  0.5364
 2325TIP3   OH228465   6.530   1.733  16.176 -0.2433 -0.0231  0.3027
 2325TIP3    H128466   6.556   1.665  16.237 -0.2179  0.5638  0.9459
 2325TIP3    H228467   6.499   1.805  16.231 -2.9413 -0.5678 -0.3945
 2326TIP3   OH228468   1.538   4.711  12.300 -0.2078  0.4329  0.4193
 2326TIP3    H128469   1.628   4.687  12.280  0.1697  0.9426  1.4526
 2326TIP3    H228470   1.505   4.751  12.219  0.5636  0.4487  0.1115
 2327TIP3   OH228471   4.826   4.883  16.386 -0.3050  0.5573 -0.3672
 2327TIP3    H128472   4.734   4.864  16.403 -0.0681 -1.9551 -1.6993
 2327TIP3    H228473   4.836   4.873  16.292  1.3325  0.8853 -0.2456
 2328TIP3   OH228474   1.868   6.363   0.723  0.0738 -0.1584  0.2749
 2328TIP3    H128475   1.820   6.333   0.800  1.1176 -0.1470  0.9341
 2328TIP3    H228476   1.913   6.284   0.691  2.3608  0.5316  1.6746
 2329TIP3   OH228477   0.765   6.434  14.763 -0.3664  0.5922 -0.0347
 2329TIP3    H128478   0.800   6.453  14.850  0.7260  1.2516 -0.6069
 2329TIP3    H228479   0.842   6.427  14.707 -1.0544  0.0402 -0.9280
 2330TIP3   OH228480   0.781   2.878   2.207  0.1604 -0.0712 -0.2127
 2330TIP3    H128481   0.796   2.920   2.122 -1.6442 -0.2754 -0.6674
 2330TIP3    H228482   0.766   2.951   2.267  0.8756  0.0587 -0.1945
 2331TIP3   OH228483   1.721   5.938  14.060 -0.3567  0.0628  0.4639
 2331TIP3    H128484   1.805   5.892  14.056 -0.1788  0.2987  1.2735
 2331TIP3    H228485   1.733   6.014  14.003  0.5741  0.9977  1.8472
 2332TIP3   OH228486   3.982   0.141   2.048  0.0577  0.2965  0.0017
 2332TIP3    H128487   4.016   0.052   2.039  1.3623  0.7724  0.0807
 2332TIP3    H228488   3.907   0.132   2.106  1.3536 -0.4834  1.5958
 2333TIP3   OH228489   4.222   3.937   1.387 -0.7775 -0.2410  0.4098
 2333TIP3    H128490   4.151   3.909   1.330 -1.2688  0.0623  0.8721
 2333TIP3    H228491   4.179   3.971   1.465 -0.1492  0.6094  0.3924
 2334TIP3   OH228492   2.620   6.254   6.464  0.0412 -0.0319  0.2971
 2334TIP3    H128493   2.529   6.237   6.488  0.4265 -1.8950  0.5537
 2334TIP3    H228494   2.669   6.243   6.545  0.9378 -2.9717 -0.5814
 2335TIP3   OH228495   3.615   4.467   6.118  0.6739  0.0844  0.2294
 2335TIP3    H128496   3.604   4.406   6.191  1.8029 -1.6801 -1.0411
 2335TIP3    H228497   3.530   4.467   6.074  1.0259 -1.5331 -0.4754
 2336TIP3   OH228498   4.015   0.078  13.488 -0.2399  0.7104  0.2471
 2336TIP3    H128499   3.921   0.066  13.479 -0.2295  0.9523 -0.1782
 2336TIP3    H228500   4.043   0.007  13.546 -0.6662  0.5778  0.2876
 2337TIP3   OH228501   6.597   6.777   6.048  1.0126 -0.1973 -0.0062
 2337TIP3    H128502   6.574   6.818   6.131 -0.1503  1.9599 -1.3254
 2337TIP3    H228503   6.513   6.767   6.003  1.7749 -0.0534 -1.4795
 2338TIP3   OH228504   2.142   1.307   5.316 -0.2373 -0.5154  0.3492
 2338TIP3    H128505   2.146   1.338   5.406  0.2451  1.0760 -0.2001
 2338TIP3    H228506   2.101   1.221   5.321  0.1042 -0.5793  2.1186
 2339TIP3   OH228507   1.460   1.934   2.281  0.1730 -0.4811 -0.1015
 2339TIP3    H128508   1.474   1.847   2.319  1.3473  0.3906  1.5258
 2339TIP3    H228509   1.516   1.936   2.203 -0.3538 -1.3948 -0.5127
 2340TIP3   OH228510   1.066   2.897  16.751 -0.2737 -0.5548 -0.5897
 2340TIP3    H128511   1.144   2.877  16.700  0.0867 -2.0060  0.5100
 2340TIP3    H228512   1.084   2.984  16.789  2.0525 -2.0444  1.9449
 2341TIP3   OH228513   6.352   6.312   2.632  0.0969  0.3977  0.2053
 2341TIP3    H128514   6.313   6.389   2.674 -0.9685 -0.2504  0.4289
 2341TIP3    H228515   6.397   6.266   2.703  0.1482  0.4489  0.2067
 2342TIP3   OH228516   5.692   2.320  10.817 -0.1225 -0.8478 -0.3178
 2342TIP3    H128517   5.738   2.376  10.880 -0.7975  2.1114 -2.3640
 2342TIP3    H228518   5.757   2.254  10.792  1.8746  1.1080 -0.4496
 2343TIP3   OH228519   5.713   3.370  16.837 -0.1112  0.3514  0.0539
 2343TIP3    H128520   5.762   3.449  16.859  1.9039 -0.5730 -1.0169
 2343TIP3    H228521   5.699   3.326  16.920 -1.5527  1.9834  0.7073
 2344TIP3   OH228522   3.840   4.717  16.373  0.1077 -0.5538  0.1195
 2344TIP3    H128523   3.748   4.726  16.399 -0.0099  0.7012 -0.7034
 2344TIP3    H228524   3.843   4.639  16.318 -0.2236 -1.3567  1.2244
 2345TIP3   OH228525   4.429   1.845  13.097 -0.1972  0.0468  0.6338
 2345TIP3    H128526   4.470   1.822  13.014  0.7430 -0.3880  1.2060
 2345TIP3    H228527   4.350   1.791  13.100  0.1374 -0.4650  0.3414
 2346TIP3   OH228528   2.694   2.346   1.347 -0.5918  0.0824 -0.5005
 2346TIP3    H128529   2.754   2.391   1.288 -0.9518  2.3072  0.7898
 2346TIP3    H228530   2.687   2.403   1.424 -1.3536 -1.9919  1.0380
 2347TIP3   OH228531   1.006   0.632  12.700 -0.5637 -0.2791  0.1549
 2347TIP3    H128532   0.985   0.578  12.623  0.3995 -0.8437  0.2713
 2347TIP3    H228533   0.960   0.589  12.772 -1.6545  0.3815 -0.1331
 2348TIP3   OH228534   0.199   5.374   1.693  0.2823 -0.2767  0.0549
 2348TIP3    H128535   0.166   5.453   1.650  3.0229  1.1114  0.3583
 2348TIP3    H228536   0.191   5.392   1.786  2.5939  0.4647  0.1512
 2349TIP3   OH228537   1.317   6.405  13.070  0.6224  0.4105 -0.3690
 2349TIP3    H128538   1.283   6.316  13.058  0.2930  0.6072 -0.9313
 2349TIP3    H228539   1.407   6.400  13.039  0.9236  0.0370  0.5344
 2350TIP3   OH228540   3.969   1.185   2.228  0.0954  0.1492 -0.2038
 2350TIP3    H128541   3.940   1.220   2.312  0.5655 -1.7797  0.7913
 2350TIP3    H228542   3.894   1.135   2.196 -0.1953  1.1397 -1.1021
 2351TIP3   OH228543   6.405   2.733  16.857  0.3160  0.2877  0.2016
 2351TIP3    H128544   6.447   2.647  16.857 -1.9197 -0.8473 -0.4262
 2351TIP3    H228545   6.477   2.795  16.844  1.7327 -1.6051 -1.3134
 2352TIP3   OH228546   4.185   5.505   5.210 -0.1179  0.6927  0.1920
 2352TIP3    H128547   4.113   5.521   5.150  0.2949 -0.4886 -0.6490
 2352TIP3    H228548   4.199   5.589   5.254 -2.5337  0.7197  0.9835
 2353TIP3   OH228549   1.194   2.455   3.209  0.3935 -0.0652  0.1212
 2353TIP3    H128550   1.264   2.520   3.215  0.2302  0.1169  0.0147
 2353TIP3    H228551   1.196   2.426   3.118  1.2278 -1.0419  0.4279
 2354TIP3   OH228552   2.642   3.373  14.762  0.5300 -0.1677  0.0665
 2354TIP3    H128553   2.721   3.353  14.711  0.1760 -0.6163 -0.3053
 2354TIP3    H228554   2.675   3.422  14.838  1.1079  0.1032 -0.3525
 2355TIP3   OH228555   6.112   0.246  11.321 -0.6999  0.0435 -0.1529
 2355TIP3    H128556   6.201   0.230  11.353 -0.6901  0.4026  0.0119
 2355TIP3    H228557   6.058   0.245  11.400 -0.9148 -0.6660 -0.3106
 2356TIP3   OH228558   2.243   5.129   5.980 -0.1216  0.0077 -0.1760
 2356TIP3    H128559   2.274   5.217   5.957 -1.1281 -0.0795 -2.0185
 2356TIP3    H228560   2.314   5.090   6.030  1.1274  1.1989 -0.9985
 2357TIP3   OH228561   5.316   0.525  16.425  0.2173  0.4126  0.2566
 2357TIP3    H128562   5.322   0.612  16.465 -0.2897  0.2842  0.6113
 2357TIP3    H228563   5.350   0.538  16.336  0.2900  0.9418  0.3564
 2358TIP3   OH228564   6.661   2.017   0.544  0.0956 -0.0125 -0.6818
 2358TIP3    H128565   6.737   1.961   0.562  0.5491  0.0659 -2.2776
 2358TIP3    H228566   6.623   1.980   0.464 -2.2349 -0.7554  0.7028
 2359TIP3   OH228567   2.529   2.153   0.849  0.5855  0.1052 -0.1824
 2359TIP3    H128568   2.532   2.069   0.895  0.3729  0.2517  0.0973
 2359TIP3    H228569   2.438   2.181   0.854  0.0416 -1.0406 -2.8106
 2360TIP3   OH228570   4.962   4.502  15.166 -0.0732 -0.3627 -0.0025
 2360TIP3    H128571   4.951   4.413  15.200 -1.1040  0.1741  1.1242
 2360TIP3    H228572   4.941   4.495  15.073  1.1530 -1.5423 -0.2052
 2361TIP3   OH228573   0.218   5.459  11.527  0.3740 -0.3637 -0.4650
 2361TIP3    H128574   0.227   5.553  11.517  0.3410 -0.4393 -1.2353
 2361TIP3    H228575   0.278   5.436  11.598 -0.3087  0.3597  0.3690
 2362TIP3   OH228576   0.212   3.561  17.234  0.2673  0.1532 -0.6827
 2362TIP3    H128577   0.131   3.523  17.199 -0.0703 -1.5407  1.7613
 2362TIP3    H228578   0.189   3.652  17.253 -0.3910  0.2876 -2.1034
 2363TIP3   OH228579   5.146   1.963   0.441  0.3931 -0.2347  0.0760
 2363TIP3    H128580   5.084   1.981   0.371  0.7105  0.2842 -0.0765
 2363TIP3    H228581   5.215   2.028   0.428  0.7491 -0.5302  0.5041
 2364TIP3   OH228582   6.654   6.774   2.714  0.6870  0.1238  0.3342
 2364TIP3    H128583   6.734   6.826   2.721 -0.1429  1.4546  0.2489
 2364TIP3    H228584   6.589   6.835   2.679 -0.3630 -0.9322  0.3979
 2365TIP3   OH228585   5.334   5.773   1.141 -0.3835 -0.2028 -0.5716
 2365TIP3    H128586   5.291   5.859   1.147  0.6103  0.2047  0.9011
 2365TIP3    H228587   5.283   5.716   1.197 -1.3386 -0.7225 -1.9369
 2366TIP3   OH228588   6.136   3.008   4.155 -0.1513 -0.3931 -0.2376
 2366TIP3    H128589   6.109   3.098   4.135  0.6850 -0.2388 -0.6716
 2366TIP3    H228590   6.156   2.970   4.070  0.4407 -0.6899  0.0388
 2367TIP3   OH228591   4.390   6.109   5.292 -0.0342  0.0397 -0.0455
 2367TIP3    H128592   4.309   6.133   5.336  0.6516  0.5772  0.9300
 2367TIP3    H228593   4.406   6.182   5.231  0.3947  0.5508  0.6791
 2368TIP3   OH228594   4.938   4.661  12.366  0.5393  0.0609 -0.4153
 2368TIP3    H128595   4.892   4.618  12.438  2.3731 -0.7903  0.2731
 2368TIP3    H228596   4.928   4.601  12.292  0.0958  0.1349 -0.4191
 2369TIP3   OH228597   3.483   0.483   0.069  1.0140 -0.5725 -0.2615
 2369TIP3    H128598   3.503   0.570   0.103 -0.9793 -0.0149 -0.4723
 2369TIP3    H228599   3.443   0.437   0.143  0.0257 -0.5745 -0.7988
 2370TIP3   OH228600   4.454   4.292  11.290 -0.5151 -0.3146  0.2987
 2370TIP3    H128601   4.476   4.273  11.198 -0.6083  0.6308  0.0740
 2370TIP3    H228602   4.499   4.224  11.340  0.7446  0.0163 -0.3522
 2371TIP3   OH228603   5.919   1.553  13.468  0.3106 -0.0017 -0.2123
 2371TIP3    H128604   5.943   1.507  13.548  0.1383  0.7924  0.3029
 2371TIP3    H228605   5.829   1.525  13.451 -0.2310  1.0638  0.7794
 2372TIP3   OH228606   1.343   0.297   2.642 -0.6139  0.3901  0.4518
 2372TIP3    H128607   1.358   0.292   2.736  1.6777 -1.0293  0.0461
 2372TIP3    H228608   1.289   0.221   2.623 -0.2144  0.0988  0.4736
 2373TIP3   OH228609   4.331   2.643  15.836  0.0604 -0.4170  0.1027
 2373TIP3    H128610   4.337   2.561  15.787  2.0381 -0.6697  0.7147
 2373TIP3    H228611   4.264   2.694  15.789 -0.5154 -1.9921 -0.8284
 2374TIP3   OH228612   4.419   4.764  13.402 -0.7634 -0.4521  0.3753
 2374TIP3    H128613   4.357   4.725  13.463  0.5696 -0.9159  1.4628
 2374TIP3    H228614   4.388   4.738  13.315 -2.2951 -0.3467  0.8762
 2375TIP3   OH228615   5.591   1.526  13.162  0.5739  0.1162  0.4986
 2375TIP3    H128616   5.551   1.600  13.207 -0.2365 -0.4190  0.6661
 2375TIP3    H228617   5.577   1.452  13.221 -1.9964 -0.9431 -1.3950
 2376TIP3   OH228618   1.400   3.102   5.573  0.2748  0.0145 -0.0067
 2376TIP3    H128619   1.307   3.081   5.579 -0.0602  1.7367  1.0600
 2376TIP3    H228620   1.442   3.043   5.637  0.0819 -1.5874 -1.3323
 2377TIP3   OH228621   2.651   3.814   0.221 -0.2298 -0.2915  0.2791
 2377TIP3    H128622   2.685   3.856   0.142 -3.0057  0.3913 -0.6055
 2377TIP3    H228623   2.696   3.730   0.224  0.7372  0.1358 -1.4214
 2378TIP3   OH228624   5.593   6.399   4.360 -0.4085  0.6295 -0.0572
 2378TIP3    H128625   5.662   6.464   4.346 -0.1445 -0.0738 -2.2238
 2378TIP3    H228626   5.518   6.433   4.311 -1.0185  0.4707  0.7602
 2379TIP3   OH228627   2.188   2.246   6.248  0.0442  0.0548 -0.3287
 2379TIP3    H128628   2.107   2.194   6.243 -0.1680  0.3995 -0.5468
 2379TIP3    H228629   2.157   2.335   6.268  0.5859 -0.4511  3.0438
 2380TIP3   OH228630   4.308   4.477   4.706  0.2035 -0.6005  0.2191
 2380TIP3    H128631   4.217   4.465   4.731  0.4348 -0.1164  1.2990
 2380TIP3    H228632   4.304   4.503   4.614 -0.7522 -0.3563  0.3251
 2381TIP3   OH228633   6.560   4.050  12.818  0.1235  0.1782  0.7982
 2381TIP3    H128634   6.525   4.137  12.799 -0.8250 -0.0677  1.3729
 2381TIP3    H228635   6.651   4.054  12.792  0.0992  1.3784  0.9010
 2382TIP3   OH228636   4.615   5.729   4.140 -0.6878 -0.5532 -0.1088
 2382TIP3    H128637   4.610   5.676   4.061  0.4763 -0.7954 -0.0371
 2382TIP3    H228638   4.565   5.809   4.120  0.4585 -0.1564 -1.4570
 2383TIP3   OH228639   3.843   2.697  10.809 -0.4856 -0.5295 -0.3260
 2383TIP3    H128640   3.856   2.654  10.724 -2.0306 -2.8829  0.5874
 2383TIP3    H228641   3.749   2.687  10.826 -0.4896  1.3916  0.9165
 2384TIP3   OH228642   5.781   0.892  13.875  0.3387  0.3107  0.0768
 2384TIP3    H128643   5.842   0.964  13.856  1.1704  0.0909  1.7584
 2384TIP3    H228644   5.713   0.900  13.809  0.1255  2.9995  0.5558
 2385TIP3   OH228645   3.633   1.701  12.749  0.1795  0.6069 -0.2752
 2385TIP3    H128646   3.605   1.787  12.781  1.4296  0.8648  0.1824
 2385TIP3    H228647   3.662   1.655  12.828 -1.8486 -0.7796 -0.3213
 2386TIP3   OH228648   5.097   6.233   3.627 -0.6059 -0.1610 -0.1112
 2386TIP3    H128649   5.043   6.307   3.597 -1.0140  0.0616  1.1497
 2386TIP3    H228650   5.178   6.240   3.575  0.0520  2.1665  1.1481
 2387TIP3   OH228651   5.322   0.886  14.125  0.1070  0.0976  0.1094
 2387TIP3    H128652   5.380   0.810  14.130 -1.2754 -0.8679  2.5044
 2387TIP3    H228653   5.277   0.877  14.041 -0.5117 -2.1168  0.6425
 2388TIP3   OH228654   2.874   4.041  12.573 -0.1740 -0.8702  0.2218
 2388TIP3    H128655   2.945   4.029  12.509  0.1624 -0.5212  0.5219
 2388TIP3    H228656   2.865   4.136  12.581 -1.1748 -0.9216 -0.3549
 2389TIP3   OH228657   2.815   2.532   5.369  0.2195  0.0875  0.0230
 2389TIP3    H128658   2.760   2.567   5.298  1.1575  1.3594 -0.1094
 2389TIP3    H228659   2.871   2.468   5.325 -0.1979 -0.1974 -0.1022
 2390TIP3   OH228660   4.711   0.204  16.485 -0.5355 -0.7983 -0.3101
 2390TIP3    H128661   4.702   0.225  16.392 -1.8704  0.0672 -0.0051
 2390TIP3    H228662   4.803   0.180  16.496  0.2582  1.6425 -1.3603
 2391TIP3   OH228663   6.741   3.363  14.974  0.4567  0.0366  0.8790
 2391TIP3    H128664   6.735   3.406  14.888 -1.0914 -0.5947  0.6594
 2391TIP3    H228665   6.833   3.371  14.998  1.0720 -0.3959 -1.1834
 2392TIP3   OH228666   0.128   3.053   0.305  0.0857  0.0490  0.0358
 2392TIP3    H128667   0.058   3.006   0.260 -0.9090  0.2383  1.3463
 2392TIP3    H228668   0.178   2.984   0.350  0.8476 -0.1008 -1.0149
 2393TIP3   OH228669   0.714   4.779   1.600 -0.0985  0.5950  0.5031
 2393TIP3    H128670   0.690   4.740   1.684 -0.5320  0.6674  0.4142
 2393TIP3    H228671   0.636   4.828   1.573 -0.0251  0.4245 -0.0260
 2394TIP3   OH228672   4.487   1.028   3.743  0.3039  0.3206 -0.0920
 2394TIP3    H128673   4.573   1.008   3.706 -0.2256  0.9125 -1.6758
 2394TIP3    H228674   4.429   0.961   3.708 -0.0637  0.4702  0.2214
 2395TIP3   OH228675   4.940   0.939  15.906  0.2030  0.1924 -0.0145
 2395TIP3    H128676   4.891   0.988  15.840  0.1345  0.9014  0.5452
 2395TIP3    H228677   4.999   1.004  15.945  0.6816 -0.3623  0.1917
 2396TIP3   OH228678   3.143   5.404  15.123  0.4742 -0.2014  0.2518
 2396TIP3    H128679   3.231   5.404  15.160  1.4503 -4.0710 -1.8096
 2396TIP3    H228680   3.089   5.361  15.189  0.9916 -1.5546 -0.1847
 2397TIP3   OH228681   0.097   1.697   6.297  0.4059  0.1471  0.5421
 2397TIP3    H128682   0.073   1.787   6.273 -2.4367 -0.7345 -0.0833
 2397TIP3    H228683   0.174   1.678   6.243 -0.4884  1.3606 -1.2200
 2398TIP3   OH228684   2.965   3.370   4.046 -0.2277 -0.1829  0.4209
 2398TIP3    H128685   2.972   3.279   4.019 -1.9991  0.4528 -2.4313
 2398TIP3    H228686   3.027   3.379   4.118 -0.4952 -3.7843  1.1718
 2399TIP3   OH228687   5.553   1.816   0.947  0.1844  0.4005  0.2089
 2399TIP3    H128688   5.610   1.880   0.991 -1.0002  0.8891  1.0542
 2399TIP3    H228689   5.464   1.843   0.970 -0.3969 -0.3132 -1.1743
 2400TIP3   OH228690   5.467   3.522   0.204  0.1210 -0.1658 -0.1426
 2400TIP3    H128691   5.466   3.549   0.112 -0.6255 -1.0736 -0.4146
 2400TIP3    H228692   5.444   3.429   0.201  1.3760 -0.5294  0.8560
 2401TIP3   OH228693   0.701   1.986   6.087 -0.3990  0.1089 -0.1403
 2401TIP3    H128694   0.669   1.924   6.021 -0.7458  2.3492 -2.1673
 2401TIP3    H228695   0.649   1.967   6.165 -0.9704 -1.6985 -0.9381
 2402TIP3   OH228696   2.939   0.407   1.499  0.6224  0.1787 -0.1052
 2402TIP3    H128697   3.014   0.360   1.536  2.8763  3.9466  0.4061
 2402TIP3    H228698   2.866   0.384   1.555  1.7898 -2.1558  0.5158
 2403TIP3   OH228699   5.496   0.574  16.050 -0.2768  0.6331 -0.5976
 2403TIP3    H128700   5.538   0.534  16.126  1.1750  0.7655 -1.3209
 2403TIP3    H228701   5.433   0.636  16.087 -0.2757 -0.0038  0.4985
 2404TIP3   OH228702   2.256   2.842   2.885 -0.0578  0.6245  0.3595
 2404TIP3    H128703   2.351   2.845   2.878 -0.1620 -0.5470 -2.4843
 2404TIP3    H228704   2.234   2.750   2.873 -1.6441  1.1610 -1.0309
 2405TIP3   OH228705   2.047   5.388   2.436  0.6590 -0.4762  0.4753
 2405TIP3    H128706   2.125   5.430   2.471  0.6934 -0.1467  0.0105
 2405TIP3    H228707   1.974   5.443   2.466  0.6578 -0.4072  0.3446
 2406TIP3   OH228708   5.606   3.347  15.404  0.5580 -0.0526  0.2099
 2406TIP3    H128709   5.510   3.353  15.396  0.2524 -0.9386  2.8348
 2406TIP3    H228710   5.639   3.412  15.343 -1.7512  0.7359 -0.2441
 2407TIP3   OH228711   6.109   0.341  16.516  0.1808 -0.4260  0.4562
 2407TIP3    H128712   6.175   0.322  16.583  1.1072 -0.4012 -0.4370
 2407TIP3    H228713   6.038   0.279  16.534 -0.2241  0.5299  2.3366
 2408TIP3   OH228714   4.720   2.395  14.616 -0.5163  0.2987 -0.1798
 2408TIP3    H128715   4.638   2.396  14.567 -0.8527 -0.3375  0.3436
 2408TIP3    H228716   4.784   2.437  14.559 -1.5972  2.3819  0.1187
 2409TIP3   OH228717   1.738   5.439  14.984  0.3064 -0.0127 -0.6225
 2409TIP3    H128718   1.792   5.490  15.044  1.4456  2.3672 -3.5395
 2409TIP3    H228719   1.800   5.384  14.937 -0.4662 -1.2045 -0.2663
 2410TIP3   OH228720   6.734   5.090   6.080 -0.3379 -0.2579  0.1712
 2410TIP3    H128721   6.702   5.109   5.991 -0.3578 -0.4818  0.1294
 2410TIP3    H228722   6.766   5.000   6.074  1.0377  0.2339  0.0033
 2411TIP3   OH228723   4.504   2.420  14.449 -0.2484 -0.0833  0.0918
 2411TIP3    H128724   4.408   2.419  14.445 -0.2131 -0.2586 -0.7123
 2411TIP3    H228725   4.531   2.458  14.366  0.4658 -3.0805 -1.1017
 2412TIP3   OH228726   0.610   5.096   6.203 -0.2430 -0.2156 -0.0700
 2412TIP3    H128727   0.639   5.066   6.289  0.7273  1.6037  0.2700
 2412TIP3    H228728   0.515   5.088   6.205 -0.3393  1.0380  1.6611
 2413TIP3   OH228729   2.450   5.418  10.522  0.1590 -0.2307 -0.7488
 2413TIP3    H128730   2.495   5.346  10.566  0.3246  0.0256 -0.5001
 2413TIP3    H228731   2.505   5.495  10.539 -1.5261  0.5426  1.4580
 2414TIP3   OH228732   5.336   6.644  11.098  0.1924 -0.4686  0.1656
 2414TIP3    H128733   5.395   6.642  11.023 -0.1505  1.1508 -0.1702
 2414TIP3    H228734   5.291   6.560  11.095 -0.4581 -0.0699 -1.9752
 2415TIP3   OH228735   4.332   1.259  15.672  0.3890 -0.3162  0.5335
 2415TIP3    H128736   4.423   1.259  15.701  0.2959 -1.6445  0.8722
 2415TIP3    H228737   4.315   1.168  15.647 -1.0098 -0.2104  1.0366
 2416TIP3   OH228738   3.107   2.057  14.490 -0.0840 -0.0009  0.7366
 2416TIP3    H128739   3.169   2.033  14.421  0.3345  0.0095  1.1071
 2416TIP3    H228740   3.097   1.978  14.542 -1.2041 -0.3212  0.0630
 2417TIP3   OH228741   2.683   3.503  11.352 -0.0322 -0.1799  0.3255
 2417TIP3    H128742   2.687   3.476  11.260  0.0054 -0.1036  0.3045
 2417TIP3    H228743   2.716   3.593  11.351 -0.5895  0.0232  0.3296
 2418TIP3   OH228744   1.391   1.222   2.065 -0.0173 -0.0594  0.3383
 2418TIP3    H128745   1.370   1.310   2.033  0.1994  0.2955  1.1502
 2418TIP3    H228746   1.461   1.236   2.128  1.4202 -1.0338 -0.9964
 2419TIP3   OH228747   6.410   5.506   1.006 -0.5589 -0.4457  0.0822
 2419TIP3    H128748   6.462   5.427   1.021 -0.2393 -0.2121  0.2369
 2419TIP3    H228749   6.455   5.551   0.934 -0.3190 -0.0498  0.4739
 2420TIP3   OH228750   0.488   0.179   1.625 -0.5512  0.4615  0.3056
 2420TIP3    H128751   0.476   0.209   1.715 -2.0226 -0.3335  0.3954
 2420TIP3    H228752   0.503   0.258   1.574 -0.7747  1.0112  1.0885
 2421TIP3   OH228753   2.185   3.442   3.394  0.0309  0.2309  0.2996
 2421TIP3    H128754   2.166   3.524   3.440 -1.4494 -0.2654  0.6216
 2421TIP3    H228755   2.194   3.468   3.302 -1.8654  0.5925  0.1784
 2422TIP3   OH228756   1.047   2.657  15.966  0.1160 -0.4048 -0.9240
 2422TIP3    H128757   1.027   2.741  15.927  2.2886  0.8991  0.6168
 2422TIP3    H228758   0.983   2.647  16.036  0.4796  0.4782 -0.4495
 2423TIP3   OH228759   5.141   4.398   5.376  0.5350  0.0221  0.2263
 2423TIP3    H128760   5.080   4.371   5.444  0.2350 -1.6710 -0.6908
 2423TIP3    H228761   5.162   4.489   5.397  0.2505 -0.3953  2.4175
 2424TIP3   OH228762   3.183   2.191  12.601 -0.3977 -0.6614 -0.0519
 2424TIP3    H128763   3.247   2.161  12.666  0.3460  1.8555  0.4294
 2424TIP3    H228764   3.236   2.223  12.528 -1.1410 -0.4979 -0.5255
 2425TIP3   OH228765   6.066   0.932  11.214  0.0563 -0.8670 -0.5474
 2425TIP3    H128766   5.984   0.982  11.207  0.6510  0.1383 -0.4811
 2425TIP3    H228767   6.084   0.901  11.126  1.3616  1.7779 -1.2613
 2426TIP3   OH228768   4.234   5.672   0.966 -0.0629 -0.3077  0.9911
 2426TIP3    H128769   4.271   5.729   1.034  1.9170 -0.5820  0.1725
 2426TIP3    H228770   4.267   5.585   0.987  0.2576 -0.4588 -0.1048
 2427TIP3   OH228771   3.764   0.029  13.291  0.3582 -0.4391 -0.4213
 2427TIP3    H128772   3.674  -0.003  13.298  0.6456 -0.8611  1.5828
 2427TIP3    H228773   3.755   0.124  13.281 -0.2958 -0.3117  1.1702
 2428TIP3   OH228774   3.305   2.655   1.179 -0.9343 -0.4445 -0.6942
 2428TIP3    H128775   3.399   2.641   1.187 -0.9619 -0.1036  0.3314
 2428TIP3    H228776   3.297   2.732   1.122 -0.4921  1.1930  1.3987
 2429TIP3   OH228777   3.310   0.899   4.027 -0.3691  0.6500 -0.2423
 2429TIP3    H128778   3.294   0.992   4.015  1.1336  0.8990 -0.5066
 2429TIP3    H228779   3.323   0.888   4.121 -1.7948  0.4891 -0.0630
 2430TIP3   OH228780   6.798   6.027   0.337  0.3117 -0.1026 -0.4321
 2430TIP3    H128781   6.732   6.004   0.403  1.5948 -1.1583  0.5330
 2430TIP3    H228782   6.836   6.109   0.369  0.9785 -0.6472  0.2156
 2431TIP3   OH228783   0.403   0.942   1.034  0.7150 -0.4864 -0.1049
 2431TIP3    H128784   0.327   0.968   1.087  1.1264  0.3540  0.0816
 2431TIP3    H228785   0.450   1.024   1.019  2.2957 -1.2052  0.8921
 2432TIP3   OH228786   0.385   4.395   2.593  0.8783 -0.4422  0.1255
 2432TIP3    H128787   0.304   4.388   2.644 -0.1630  1.2410 -1.2431
 2432TIP3    H228788   0.441   4.452   2.645  1.2471 -1.6940  1.1272
 2433TIP3   OH228789   3.110   2.819  15.085 -0.1919 -0.3687  0.6706
 2433TIP3    H128790   3.039   2.805  15.022 -0.1773  1.7116  0.1496
 2433TIP3    H228791   3.183   2.767  15.050 -0.4179  0.1750 -0.6331
 2434TIP3   OH228792   4.309   6.431  16.214  0.8027 -0.2297 -0.1347
 2434TIP3    H128793   4.377   6.499  16.208  0.2859  0.4858  1.8484
 2434TIP3    H228794   4.286   6.412  16.123  1.4059  1.7974 -0.7304
 2435TIP3   OH228795   4.793   5.701  16.130 -0.0862 -0.6704 -0.0115
 2435TIP3    H128796   4.788   5.762  16.056 -1.3640 -1.7763 -0.8520
 2435TIP3    H228797   4.886   5.686  16.143  0.1246 -0.7164 -1.6024
 2436TIP3   OH228798   3.121   5.855   2.919 -0.0917  0.4062  0.4717
 2436TIP3    H128799   3.182   5.893   2.982  0.3014 -0.8553  0.8554
 2436TIP3    H228800   3.041   5.840   2.968  0.7568 -2.1424  1.1053
 2437TIP3   OH228801   3.924   1.274   0.818 -0.4438 -0.1342 -0.4122
 2437TIP3    H128802   3.995   1.232   0.769  1.3691  0.2601  1.7940
 2437TIP3    H228803   3.915   1.360   0.778 -0.2540 -0.4710 -1.2035
 2438TIP3   OH228804   1.291   6.246   2.329 -0.3075  0.3320  0.0259
 2438TIP3    H128805   1.278   6.338   2.304 -0.7955  0.2459 -0.0483
 2438TIP3    H228806   1.348   6.211   2.260  1.7813  1.1643  1.2984
 2439TIP3   OH228807   5.479   4.457  15.990 -0.2044  0.2669 -0.8785
 2439TIP3    H128808   5.571   4.470  16.011 -0.8231  1.9195  0.9791
 2439TIP3    H228809   5.453   4.379  16.040  0.3483 -0.6527 -1.9997
 2440TIP3   OH228810   6.175   1.336   6.284  0.2579 -0.2330 -0.0043
 2440TIP3    H128811   6.133   1.386   6.215 -0.9795 -1.5858 -0.2623
 2440TIP3    H228812   6.153   1.382   6.365 -2.2479 -1.2344 -0.0773
 2441TIP3   OH228813   0.611   1.819  15.116 -0.0517  0.0688 -0.1854
 2441TIP3    H128814   0.523   1.814  15.152 -0.9480 -0.1402 -2.3327
 2441TIP3    H228815   0.657   1.881  15.173 -2.0201  1.3314  0.0723
 2442TIP3   OH228816   1.490   6.765  13.737 -0.1835 -0.0489 -0.0375
 2442TIP3    H128817   1.438   6.705  13.791  0.0092  0.2236  0.4502
 2442TIP3    H228818   1.566   6.786  13.790  0.5953 -0.7040 -0.8937
 2443TIP3   OH228819   2.055   5.012  13.641  0.1393  0.0112 -0.3690
 2443TIP3    H128820   2.107   4.942  13.680  0.5259  0.4604 -0.0582
 2443TIP3    H228821   1.976   5.017  13.694  0.6417  0.5872  0.3311
 2444TIP3   OH228822   2.812   3.594   0.294 -0.3594 -0.2674  0.2924
 2444TIP3    H128823   2.741   3.553   0.343 -0.3443 -0.0984  0.4580
 2444TIP3    H228824   2.889   3.584   0.350 -0.1920 -0.7000 -0.0111
 2445TIP3   OH228825   3.502   5.372   0.354  0.3753 -0.3491 -0.1858
 2445TIP3    H128826   3.593   5.346   0.339  0.3942 -1.4025  1.6805
 2445TIP3    H228827   3.466   5.303   0.410 -1.3774  0.4169 -0.3416
 2446TIP3   OH228828   1.716   2.400   6.670  0.4995  0.3049  0.3823
 2446TIP3    H128829   1.669   2.319   6.649 -1.2364  0.9515  1.6587
 2446TIP3    H228830   1.801   2.390   6.626  0.3967 -2.2803  0.6742
 2447TIP3   OH228831   5.514   4.987   3.520 -0.2459 -0.0155  0.3029
 2447TIP3    H128832   5.519   5.038   3.602 -1.0960  1.6973 -0.6843
 2447TIP3    H228833   5.458   4.912   3.543  1.0794 -0.5839  1.7980
 2448TIP3   OH228834   1.974   1.197  15.573 -0.5202  0.0323  0.3990
 2448TIP3    H128835   1.920   1.268  15.539 -1.2922 -0.5493  0.4143
 2448TIP3    H228836   2.013   1.156  15.495  0.4599  0.8811  0.4231
 2449TIP3   OH228837   2.714   1.609   5.658  0.4370  0.2409 -0.2055
 2449TIP3    H128838   2.629   1.597   5.615  0.2410 -0.2400  0.3153
 2449TIP3    H228839   2.735   1.523   5.694  0.0433  0.9146  1.6682
 2450TIP3   OH228840   2.636   2.650   2.275  0.0125  0.3947 -0.0758
 2450TIP3    H128841   2.609   2.742   2.280  2.5152  1.1581 -0.2811
 2450TIP3    H228842   2.617   2.624   2.185  1.0954  1.2758 -0.5590
 2451TIP3   OH228843   4.332   1.260  12.601  0.0262  0.2747  0.3613
 2451TIP3    H128844   4.312   1.182  12.653  0.9961  0.5892  1.2199
 2451TIP3    H228845   4.418   1.242  12.564  0.6466  1.3149  1.2888
 2452TIP3   OH228846   1.178   2.100   3.323  0.4657  0.1406  0.1258
 2452TIP3    H128847   1.270   2.113   3.301  0.4191 -0.0854 -0.2181
 2452TIP3    H228848   1.154   2.175   3.378  0.5914  0.7059 -0.5882
 2453TIP3   OH228849   3.117   5.876  13.702  0.6681 -0.6523 -0.2901
 2453TIP3    H128850   3.119   5.788  13.742  1.9418 -1.0348 -1.1861
 2453TIP3    H228851   3.099   5.859  13.610  0.8048  0.0475 -0.4412
 2454TIP3   OH228852   5.309   4.011  13.770  0.3871  0.4907  0.3872
 2454TIP3    H128853   5.318   3.946  13.700 -2.6947 -1.7022  1.9053
 2454TIP3    H228854   5.267   4.086  13.728  0.8358  0.1607 -0.6630
 2455TIP3   OH228855   1.987   1.042   6.428 -0.2605  0.0568 -0.2976
 2455TIP3    H128856   2.007   1.114   6.488  0.4518  0.5150 -1.0662
 2455TIP3    H228857   1.904   1.007   6.459 -0.3235  0.8459  0.4344
 2456TIP3   OH228858   2.750   4.118   3.561  0.0718 -0.1429  0.0753
 2456TIP3    H128859   2.679   4.054   3.557  0.2505 -0.3263 -0.1265
 2456TIP3    H228860   2.830   4.066   3.563  0.2848  0.0920 -1.7140
 2457TIP3   OH228861   1.722   1.525   5.052 -0.1062 -0.0253  0.0786
 2457TIP3    H128862   1.784   1.491   5.117  1.7006  1.1137 -1.0198
 2457TIP3    H228863   1.643   1.544   5.103  1.0526  0.2371  1.8493
 2458TIP3   OH228864   4.705   2.247  10.840 -0.2667  0.3039  0.5801
 2458TIP3    H128865   4.745   2.198  10.912  0.9283 -0.4902 -0.6239
 2458TIP3    H228866   4.632   2.294  10.882  0.4393 -0.1033  2.3155
 2459TIP3   OH228867   5.684   0.853  12.576  0.0502 -0.5591  0.2641
 2459TIP3    H128868   5.679   0.761  12.601 -1.5404 -0.1421  1.6226
 2459TIP3    H228869   5.729   0.895  12.649  1.0774 -0.2940 -0.5073
 2460TIP3   OH228870   5.758   5.218   5.741 -0.2455 -0.1902  0.1513
 2460TIP3    H128871   5.745   5.310   5.766 -1.2481 -0.2570 -0.0899
 2460TIP3    H228872   5.737   5.169   5.820 -0.6682 -0.2602 -0.0047
 2461TIP3   OH228873   5.093   0.703   0.617 -0.3424 -0.2926 -0.2141
 2461TIP3    H128874   5.016   0.645   0.617 -0.4386 -0.1642 -0.2489
 2461TIP3    H228875   5.166   0.644   0.634 -0.4048 -0.4733 -0.5617
 2462TIP3   OH228876   4.296   1.510   2.179 -0.2165 -0.3115 -0.0700
 2462TIP3    H128877   4.338   1.425   2.191 -1.4453 -0.8678  0.3246
 2462TIP3    H228878   4.360   1.573   2.213  1.7571 -0.8378 -2.6285
 2463TIP3   OH228879   2.863   4.083  16.160  0.4717  0.4040 -0.3285
 2463TIP3    H128880   2.846   4.071  16.067  1.5332  2.1117 -0.7654
 2463TIP3    H228881   2.818   4.164  16.182 -1.5432 -1.0530  1.1645
 2464TIP3   OH228882   4.047   1.878   1.209 -0.2949  0.2480  0.0928
 2464TIP3    H128883   4.055   1.782   1.206 -3.2288 -0.1098  1.3812
 2464TIP3    H228884   3.976   1.898   1.148  0.8632  1.7099 -0.7959
 2465TIP3   OH228885   3.526   5.111  15.731 -0.7682  0.0633 -0.0108
 2465TIP3    H128886   3.559   5.027  15.701 -2.2709 -0.1918 -1.0018
 2465TIP3    H228887   3.444   5.091  15.774 -0.4385  0.8657  1.0053
 2466TIP3   OH228888   0.299   6.793   5.077 -0.1328  0.3083  0.7875
 2466TIP3    H128889   0.224   6.818   5.023 -0.2686 -0.3579  0.6643
 2466TIP3    H228890   0.376   6.813   5.023 -0.2126  0.9881  0.9126
 2467TIP3   OH228891   5.817   1.938  11.323  0.0025  0.4838 -0.1604
 2467TIP3    H128892   5.807   1.998  11.396  3.7897  1.6053 -0.4532
 2467TIP3    H228893   5.829   1.852  11.364  0.0555  0.7894  0.4681
 2468TIP3   OH228894   0.278   6.406  16.081 -0.8483  0.7766  0.7651
 2468TIP3    H128895   0.292   6.337  16.016  0.3782  0.7413  1.0482
 2468TIP3    H228896   0.305   6.487  16.037  2.3914  0.4436  2.0103
 2469TIP3   OH228897   5.657   4.133   3.118 -0.1817 -0.3853 -0.1491
 2469TIP3    H128898   5.694   4.131   3.030 -0.6430 -2.3516 -0.3176
 2469TIP3    H228899   5.656   4.042   3.146 -1.9745 -0.0190  1.0805
 2470TIP3   OH228900   1.445   3.464   2.970  0.1196 -0.2244 -0.2750
 2470TIP3    H128901   1.419   3.373   2.985  1.5172 -0.3792  1.4663
 2470TIP3    H228902   1.370   3.504   2.927 -1.1911 -1.7735  0.5038
 2471TIP3   OH228903   6.224   5.177  11.562  0.6715 -0.6306  0.1557
 2471TIP3    H128904   6.226   5.097  11.510  0.2145 -1.3640  1.2310
 2471TIP3    H228905   6.131   5.191  11.581  0.9826 -1.6883  2.6995
 2472TIP3   OH228906   5.923   2.539   2.500 -0.3957 -0.0041  0.6449
 2472TIP3    H128907   5.832   2.509   2.501  0.3176 -2.2880  0.6126
 2472TIP3    H228908   5.945   2.542   2.406 -0.3800  0.3147  0.6612
 2473TIP3   OH228909   5.542   4.890  12.853  0.8111 -0.9387 -0.3279
 2473TIP3    H128910   5.474   4.896  12.785  0.1834 -1.8956  0.2081
 2473TIP3    H228911   5.521   4.961  12.914  0.6677 -0.8245 -0.5095
 2474TIP3   OH228912   5.866   5.662  15.717  0.4509 -0.1523  0.2374
 2474TIP3    H128913   5.935   5.645  15.782 -1.2551  0.6984  2.3579
 2474TIP3    H228914   5.905   5.723  15.656  2.0501 -0.8122  0.5674
 2475TIP3   OH228915   4.005   4.478  12.987  0.3490  0.0055 -0.0181
 2475TIP3    H128916   3.940   4.474  12.916  0.4753 -0.0261 -0.1311
 2475TIP3    H228917   3.952   4.490  13.067  0.0727 -1.9200  0.1057
 2476TIP3   OH228918   6.298   5.215  14.299 -0.1956 -0.0792  0.2476
 2476TIP3    H128919   6.364   5.174  14.243  0.6206  1.9466 -0.3078
 2476TIP3    H228920   6.231   5.245  14.238  0.4633  1.7045  0.3758
 2477TIP3   OH228921   0.596   6.445   6.338  0.2974 -0.7073 -0.7640
 2477TIP3    H128922   0.577   6.494   6.418 -1.5358 -0.7722 -1.1342
 2477TIP3    H228923   0.607   6.355   6.367 -1.3599 -0.9066 -0.6581
 2478TIP3   OH228924   5.485   4.455   3.494  0.3517 -0.3024  0.0827
 2478TIP3    H128925   5.406   4.435   3.444 -0.2055  0.3456  0.6817
 2478TIP3    H228926   5.539   4.377   3.487  0.7075  0.1374 -2.3337
 2479TIP3   OH228927   0.764   0.132   6.795 -0.5774  0.0139 -0.2053
 2479TIP3    H128928   0.779   0.203   6.732  0.8010  1.1983  1.3681
 2479TIP3    H228929   0.680   0.154   6.835 -0.5599  0.3023 -0.3195
 2480TIP3   OH228930   0.568   2.452  16.952  0.2224 -0.3208 -0.3959
 2480TIP3    H128931   0.545   2.514  16.884  0.1092 -0.7188 -0.7248
 2480TIP3    H228932   0.511   2.474  17.026 -0.5477 -0.7101 -0.8831
 2481TIP3   OH228933   5.125   6.316  14.554  1.0094  0.5225  0.1516
 2481TIP3    H128934   5.043   6.340  14.598  0.9535 -0.2730  0.4971
 2481TIP3    H228935   5.100   6.246  14.493  1.4040  0.3656  0.1680
 2482TIP3   OH228936   4.814   2.843   4.002 -0.1056  0.1291  0.3428
 2482TIP3    H128937   4.791   2.862   4.093 -1.2879  1.2918 -0.1808
 2482TIP3    H228938   4.787   2.752   3.989 -0.2270  0.0626  1.0713
 2483TIP3   OH228939   2.248   4.018   1.374  0.1029 -0.1867  0.1764
 2483TIP3    H128940   2.247   3.927   1.343  0.0132  0.2202 -1.0784
 2483TIP3    H228941   2.241   4.012   1.469 -1.0482 -1.4491  0.0238
 2484TIP3   OH228942   3.831   2.864  12.446  0.0901 -0.0855  0.6682
 2484TIP3    H128943   3.794   2.796  12.502 -0.5832 -1.2352 -1.1247
 2484TIP3    H228944   3.755   2.911  12.412  0.5264  1.2001  1.4052
 2485TIP3   OH228945   3.912   4.117   0.799  0.0242 -0.5158  0.1971
 2485TIP3    H128946   3.951   4.046   0.748  0.1508 -1.3598  1.4551
 2485TIP3    H228947   3.984   4.179   0.812 -0.1034 -0.1168 -0.9589
 2486TIP3   OH228948   0.558   5.090  11.615  0.8298  0.0316 -0.2029
 2486TIP3    H128949   0.561   5.083  11.520 -0.9660 -0.0527 -0.2763
 2486TIP3    H228950   0.490   5.155  11.633  0.0136 -1.1050  1.0235
 2487TIP3   OH228951   5.488   6.449   5.312  0.0537  0.5722  0.2311
 2487TIP3    H128952   5.470   6.380   5.376 -2.0028  1.0481  0.1928
 2487TIP3    H228953   5.434   6.523   5.340  0.3628  1.3413 -1.1332
 2488TIP3   OH228954   3.007   4.572   2.720  0.0466 -0.2491 -0.3665
 2488TIP3    H128955   3.078   4.555   2.782 -0.9221  0.7062  1.0625
 2488TIP3    H228956   2.973   4.658   2.747 -0.0628  0.4333 -2.5694
 2489TIP3   OH228957   3.659   3.264   1.511  0.8735 -0.5679  0.3528
 2489TIP3    H128958   3.671   3.240   1.418  0.5396 -2.4365  0.7635
 2489TIP3    H228959   3.565   3.275   1.521  0.8346 -1.1592  0.6487
 2490TIP3   OH228960   3.551   0.493  16.691  0.4575  0.2625  0.2287
 2490TIP3    H128961   3.489   0.427  16.659 -1.5888  1.8335  0.8439
 2490TIP3    H228962   3.605   0.445  16.754  0.1829 -1.2647 -0.6804
 2491TIP3   OH228963   2.893   5.337   0.117  0.2495  0.3490  0.2348
 2491TIP3    H128964   2.942   5.276   0.062 -1.4168 -0.1200 -0.8010
 2491TIP3    H228965   2.908   5.423   0.079 -0.3433  0.1109 -0.5370
 2492TIP3   OH228966   0.614   5.183  16.453  0.5331  0.2325  0.1275
 2492TIP3    H128967   0.540   5.131  16.423  0.8167  0.9425 -1.8799
 2492TIP3    H228968   0.689   5.124  16.447  0.5452  0.2922 -0.3231
 2493TIP3   OH228969   0.695   2.039   4.137  0.2977  1.0926 -0.7780
 2493TIP3    H128970   0.632   2.045   4.210  0.4479  1.6825 -0.6961
 2493TIP3    H228971   0.777   2.070   4.174  0.7857 -0.2650 -0.7179
 2494TIP3   OH228972   3.844   3.937  10.851 -0.4636  0.1608  0.4408
 2494TIP3    H128973   3.810   3.865  10.797  0.1369 -0.0185  0.3053
 2494TIP3    H228974   3.802   4.015  10.816  0.3132  0.1132 -0.6250
 2495TIP3   OH228975   1.281   5.383  11.621 -0.0954 -0.9582  0.0429
 2495TIP3    H128976   1.216   5.426  11.677  0.5107 -1.8296  1.4373
 2495TIP3    H228977   1.231   5.350  11.546 -0.7353  1.2279 -0.5355
 2496TIP3   OH228978   6.525   0.646  15.291  0.1860  0.0161  0.2628
 2496TIP3    H128979   6.468   0.666  15.366  0.0532 -1.2704  0.5185
 2496TIP3    H228980   6.572   0.567  15.317  1.7912  0.8164 -0.1248
 2497TIP3   OH228981   0.343   0.889  13.976  0.1272 -0.0134 -0.0412
 2497TIP3    H128982   0.286   0.812  13.967 -0.0340  0.0474  0.4218
 2497TIP3    H228983   0.285   0.957  14.010  0.6845 -0.2290  1.4064
 2498TIP3   OH228984   5.578   3.511  11.507 -0.9675 -0.9452  0.7147
 2498TIP3    H128985   5.531   3.573  11.563  0.9871  0.5567  0.7175
 2498TIP3    H228986   5.596   3.559  11.427 -0.8430 -2.0418  0.0718
 2499TIP3   OH228987   6.145   1.657  16.819 -0.3636  0.3927 -0.2562
 2499TIP3    H128988   6.201   1.656  16.741 -0.7417  2.5030 -0.5916
 2499TIP3    H228989   6.061   1.624  16.788 -0.0447 -0.2996 -0.3756
 2500TIP3   OH228990   0.272   1.125   3.548  0.4218 -0.1547  0.3834
 2500TIP3    H128991   0.295   1.050   3.602  0.6688 -0.4931 -0.1907
 2500TIP3    H228992   0.320   1.112   3.466 -0.0778  0.2745  0.0168
 2501TIP3   OH228993   2.421   0.269   1.454  0.3788 -0.3261  0.0912
 2501TIP3    H128994   2.477   0.298   1.383  1.3024  1.2976  1.4468
 2501TIP3    H228995   2.470   0.198   1.496  1.7070  1.4101  1.5731
 2502TIP3   OH228996   3.470   1.231   2.686  0.8375  0.3507  0.5514
 2502TIP3    H128997   3.512   1.316   2.670  0.3499  0.7373  1.3026
 2502TIP3    H228998   3.528   1.188   2.749  1.6232 -0.2996 -0.5895
 2503TIP3   OH228999   4.504   0.498   3.883  0.0796 -0.4382 -0.3383
 2503TIP3    H129000   4.424   0.447   3.872 -1.3583  1.6200  0.3215
 2503TIP3    H229001   4.478   0.573   3.936  1.8253  1.6811 -2.3493
 2504TIP3   OH229002   1.088   5.433  14.762 -0.4197 -0.5050  0.3081
 2504TIP3    H129003   1.089   5.383  14.680 -2.4063 -1.9084  1.1156
 2504TIP3    H229004   1.025   5.503  14.747  0.4653  0.2609  0.0795
 2505TIP3   OH229005   1.010   6.771  12.175 -0.1163 -0.1701  0.3162
 2505TIP3    H129006   1.000   6.830  12.100 -1.4799  0.0276  0.6290
 2505TIP3    H229007   1.092   6.797  12.215 -0.6803  1.5252  0.4338
 2506TIP3   OH229008   1.480   3.784   5.745 -0.1827  0.3137  0.1830
 2506TIP3    H129009   1.429   3.846   5.795  0.7791  0.1386  1.4081
 2506TIP3    H229010   1.504   3.831   5.665 -2.7432  0.1863 -0.6945
 2507TIP3   OH229011   4.028   6.724   3.430 -0.1124 -0.1958 -0.6311
 2507TIP3    H129012   3.969   6.705   3.502 -1.1751  1.4932 -1.0439
 2507TIP3    H229013   3.996   6.805   3.392  1.9406  0.2869 -1.4354
 2508TIP3   OH229014   2.398   5.009  17.225  0.2362  0.1611  0.2679
 2508TIP3    H129015   2.472   5.012  17.165  0.3620 -1.3333  0.3282
 2508TIP3    H229016   2.430   4.957  17.299 -0.0221  1.6883  1.4892
 2509TIP3   OH229017   3.538   4.824  11.559  0.5293  0.0773  0.8855
 2509TIP3    H129018   3.567   4.859  11.474 -1.0707  1.8257  1.0216
 2509TIP3    H229019   3.565   4.890  11.622 -0.3167 -0.1217  1.4587
 2510TIP3   OH229020   1.752   6.637   4.173 -0.3970 -0.3021 -0.1108
 2510TIP3    H129021   1.773   6.727   4.199 -1.3616 -0.4404  1.1961
 2510TIP3    H229022   1.720   6.644   4.083  2.9706  0.1981 -1.3262
 2511TIP3   OH229023   1.767   5.484   4.867  0.0175  0.2132  0.2046
 2511TIP3    H129024   1.715   5.553   4.824  0.0987 -0.7547 -1.4897
 2511TIP3    H229025   1.707   5.410   4.874  0.7479 -0.4677 -0.5590
 2512TIP3   OH229026   4.831   5.067   3.909  0.4607 -0.7422  0.2811
 2512TIP3    H129027   4.790   5.018   3.980  1.1418 -1.6798  0.0393
 2512TIP3    H229028   4.924   5.045   3.916  0.4489 -1.3796 -1.2984
 2513TIP3   OH229029   5.209   1.636   3.028  0.6812  0.1326  0.1669
 2513TIP3    H129030   5.270   1.567   3.056  0.0280 -0.1504  0.9072
 2513TIP3    H229031   5.252   1.675   2.952  1.5962 -0.3370  0.4216
 2514TIP3   OH229032   0.072   2.494   3.104  0.1169 -0.0782 -1.1296
 2514TIP3    H129033   0.096   2.523   3.192  0.2903  0.0795 -1.2302
 2514TIP3    H229034   0.052   2.574   3.056 -3.6708 -0.3480 -0.1731
 2515TIP3   OH229035   5.585   1.627  13.452 -0.0971 -0.4712 -0.2840
 2515TIP3    H129036   5.616   1.709  13.491 -1.1579 -0.4684  0.5784
 2515TIP3    H229037   5.590   1.563  13.522  1.9311 -1.4731 -1.3076
 2516TIP3   OH229038   0.792   3.945  11.661 -0.2108 -0.0576  0.2071
 2516TIP3    H129039   0.842   3.882  11.608 -0.3761 -0.2091  0.2313
 2516TIP3    H229040   0.701   3.927  11.639 -0.1959  1.2867 -1.0238
 2517TIP3   OH229041   3.325   4.797  12.006 -0.3732 -0.2094 -0.1383
 2517TIP3    H129042   3.402   4.752  12.042  0.8819  1.8868 -0.1152
 2517TIP3    H229043   3.339   4.796  11.912  0.1610  0.9496 -0.0848
 2518TIP3   OH229044   6.360   4.543  13.450 -0.4295 -0.1717 -0.6294
 2518TIP3    H129045   6.287   4.600  13.473 -0.0306 -0.4807  1.5177
 2518TIP3    H229046   6.389   4.506  13.533  2.7132  0.5926 -1.2982
 2519TIP3   OH229047   0.150   4.280   2.163 -0.0386 -0.0471  0.3461
 2519TIP3    H129048   0.142   4.334   2.242  0.8303 -0.6112  0.8209
 2519TIP3    H229049   0.175   4.343   2.095 -2.1990  0.6818  0.1921
 2520TIP3   OH229050   4.716   5.625  12.900  0.4536 -0.4096 -0.3449
 2520TIP3    H129051   4.806   5.650  12.878 -0.3629 -0.1728 -3.6423
 2520TIP3    H229052   4.726   5.545  12.951  2.6679  1.6074  2.5794
 2521TIP3   OH229053   0.998   2.646  11.848  0.3711 -0.5972 -0.3790
 2521TIP3    H129054   1.038   2.585  11.786  1.3515 -0.5843  0.2344
 2521TIP3    H229055   1.060   2.719  11.853 -1.6930  1.4345 -2.6458
 2522TIP3   OH229056   5.983   1.634   6.377 -0.5708 -0.0542 -0.0519
 2522TIP3    H129057   5.954   1.721   6.405 -0.4088  0.1226 -0.4320
 2522TIP3    H229058   5.910   1.601   6.325 -2.1719 -1.6197  3.0307
 2523TIP3   OH229059   4.547   2.732  15.358  0.0842  0.2997 -0.2891
 2523TIP3    H129060   4.540   2.644  15.395 -0.5783  0.8246  0.8721
 2523TIP3    H229061   4.472   2.779  15.394  0.6927  1.4637 -0.5180
 2524TIP3   OH229062   0.935   1.532   4.734 -0.2053  0.0406  0.1216
 2524TIP3    H129063   0.965   1.582   4.810  0.4747  0.5582 -0.4783
 2524TIP3    H229064   1.016   1.507   4.688 -0.5894 -0.6669 -0.1777
 2525TIP3   OH229065   6.072   2.143   3.316  0.0071 -0.0210 -0.0858
 2525TIP3    H129066   5.988   2.145   3.362 -0.7192 -1.1172 -1.3366
 2525TIP3    H229067   6.123   2.077   3.363 -0.8469 -1.3652 -1.0166
 2526TIP3   OH229068   5.725   1.346   1.039  0.2110  0.1408  0.3435
 2526TIP3    H129069   5.769   1.321   0.958  0.5110 -0.9741  0.8445
 2526TIP3    H229070   5.793   1.384   1.094  0.1099  0.4176  0.2805
 2527TIP3   OH229071   3.665   3.323   3.707  0.2073  0.1691  0.8051
 2527TIP3    H129072   3.619   3.307   3.625  1.3604 -0.6826  0.3086
 2527TIP3    H229073   3.595   3.332   3.772 -0.6849 -0.1199 -0.0990
 2528TIP3   OH229074   5.318   1.644   4.994  0.2457 -0.3284  0.8403
 2528TIP3    H129075   5.243   1.658   4.936  0.3433 -0.5600  0.6545
 2528TIP3    H229076   5.394   1.665   4.940  0.4067 -1.7215  0.4900
 2529TIP3   OH229077   0.613   5.955  16.178  0.1897 -0.0155  0.1018
 2529TIP3    H129078   0.639   5.874  16.222 -0.3992  0.2109  0.8712
 2529TIP3    H229079   0.572   5.926  16.097 -1.3002 -0.5521  1.0352
 2530TIP3   OH229080   3.975   3.812  16.434  0.1182 -1.1892  0.4321
 2530TIP3    H129081   4.004   3.798  16.525  0.9309 -0.0855  0.3530
 2530TIP3    H229082   4.000   3.732  16.389  2.8097 -0.4129  0.4438
 2531TIP3   OH229083   3.460   6.582  12.351 -0.1766  0.0638 -0.3727
 2531TIP3    H129084   3.478   6.525  12.276  0.7627  0.4377 -0.4392
 2531TIP3    H229085   3.528   6.649  12.347  2.1580 -1.9450  2.8730
 2532TIP3   OH229086   1.407   0.489   1.142  0.0734 -0.1766 -0.5072
 2532TIP3    H129087   1.402   0.423   1.072  0.7944 -0.4609 -0.2894
 2532TIP3    H229088   1.462   0.449   1.209  2.7296  1.7106 -1.5082
 2533TIP3   OH229089   6.210   3.505  12.784 -0.6072  0.9914 -0.2280
 2533TIP3    H129090   6.285   3.456  12.751 -0.0489  1.9245 -0.3406
 2533TIP3    H229091   6.133   3.456  12.753 -0.0581 -0.8863  1.2415
 2534TIP3   OH229092   3.340   0.513  12.360 -0.4551  0.0412 -0.5022
 2534TIP3    H129093   3.361   0.435  12.412 -2.0553  0.4445  0.7998
 2534TIP3    H229094   3.423   0.538  12.320  0.5136 -1.1500  0.7000
 2535TIP3   OH229095   4.402   2.142  11.835  0.3580  0.2438  0.3398
 2535TIP3    H129096   4.310   2.118  11.823  0.4649 -0.9585  1.6777
 2535TIP3    H229097   4.450   2.062  11.812  1.0970  0.9798 -0.7126
 2536TIP3   OH229098   4.347   4.640   1.276 -0.2209 -0.2139 -0.2053
 2536TIP3    H129099   4.341   4.649   1.181 -2.2624  1.0240  0.0043
 2536TIP3    H229100   4.350   4.730   1.309 -0.5708 -0.6124  0.9496
 2537TIP3   OH229101   0.480   3.518   3.020  0.1144  0.2776  0.0016
 2537TIP3    H129102   0.543   3.500   3.091  1.7174 -0.0087 -1.4716
 2537TIP3    H229103   0.518   3.475   2.943 -2.2917 -0.5552 -0.7485
 2538TIP3   OH229104   2.072   4.420  13.094 -1.1944 -0.2121 -0.0628
 2538TIP3    H129105   2.093   4.395  13.184 -1.4679  1.8792  0.6036
 2538TIP3    H229106   1.983   4.388  13.080 -2.0437  1.4524  1.2363
 2539TIP3   OH229107   6.216   4.207   1.681 -0.0208  0.2005  0.6883
 2539TIP3    H129108   6.251   4.142   1.621  1.3225  0.3266  1.3149
 2539TIP3    H229109   6.171   4.270   1.624  0.3000 -0.2507 -0.0747
 2540TIP3   OH229110   3.762   2.936   5.412  0.2851 -0.0923 -0.3351
 2540TIP3    H129111   3.847   2.979   5.421 -1.5717  3.7721 -0.3321
 2540TIP3    H229112   3.749   2.930   5.317 -1.2625  3.3186 -0.4105
 2541TIP3   OH229113   3.309   4.401  17.226  0.1732  0.3906  0.8271
 2541TIP3    H129114   3.232   4.420  17.280 -0.0939  1.9927 -0.0864
 2541TIP3    H229115   3.383   4.432  17.279  0.0706  0.1887  1.0896
 2542TIP3   OH229116   0.177   6.253  16.904 -0.6453  0.2037  0.5939
 2542TIP3    H129117   0.200   6.306  16.980  1.2193  2.5361 -1.4874
 2542TIP3    H229118   0.120   6.311  16.852  1.1872  0.1006 -1.5869
 2543TIP3   OH229119   1.170   3.685  14.184  0.2582  0.0571 -0.2722
 2543TIP3    H129120   1.075   3.694  14.171 -0.2079 -0.0734  2.7226
 2543TIP3    H229121   1.191   3.753  14.248  1.8630 -1.2293  0.5717
 2544TIP3   OH229122   1.071   6.034   2.218 -0.1288 -0.7949  0.4573
 2544TIP3    H129123   1.048   5.956   2.269  0.1549 -1.7833 -0.8704
 2544TIP3    H229124   1.123   6.087   2.277  0.5302 -2.0980  1.0804
 2545TIP3   OH229125   3.381   3.708  16.508  0.4890 -0.0983  0.1173
 2545TIP3    H129126   3.331   3.716  16.426  1.1860  0.6214 -0.2496
 2545TIP3    H229127   3.341   3.634  16.553  1.3368 -1.7598 -1.7729
 2546TIP3   OH229128   1.921   0.255   5.006 -0.7708 -0.0401 -0.2436
 2546TIP3    H129129   1.905   0.161   5.012 -1.7709  0.0932 -0.7525
 2546TIP3    H229130   1.941   0.281   5.095 -1.9272 -0.4820  0.1536
 2547TIP3   OH229131   3.763   2.698   3.864 -0.5900  0.3452 -0.1703
 2547TIP3    H129132   3.788   2.671   3.776 -1.0393  0.2668 -0.2738
 2547TIP3    H229133   3.833   2.757   3.892 -0.4479  0.3686 -0.5774
 2548TIP3   OH229134   1.918   5.037  15.291 -0.1938  0.1294 -0.5955
 2548TIP3    H129135   1.842   5.088  15.262  1.1625  2.1265 -0.7187
 2548TIP3    H229136   1.882   4.976  15.356 -1.9707  0.7783 -0.9455
 2549TIP3   OH229137   4.499   1.503  16.866 -0.1308 -0.0863 -0.0893
 2549TIP3    H129138   4.448   1.567  16.915  0.4616 -1.2707  2.1482
 2549TIP3    H229139   4.464   1.507  16.777 -2.3467  0.9632  0.7966
 2550TIP3   OH229140   1.892   1.772   5.870  0.3070 -0.0971 -0.4699
 2550TIP3    H129141   1.851   1.846   5.826 -0.0284 -0.7760 -1.3200
 2550TIP3    H229142   1.907   1.708   5.800  2.0525 -0.1972 -0.0356
 2551TIP3   OH229143   6.314   4.264   0.746  0.4152  0.1635  0.1500
 2551TIP3    H129144   6.385   4.321   0.777  1.6618 -1.1520 -0.2595
 2551TIP3    H229145   6.359   4.189   0.706 -1.2064 -0.4842 -0.4832
 2552TIP3   OH229146   6.344   2.274  11.340  0.2842  1.0349 -0.1143
 2552TIP3    H129147   6.266   2.303  11.387 -1.3839  1.0313 -2.7888
 2552TIP3    H229148   6.372   2.350  11.290 -0.1974 -0.0039 -2.0126
 2553TIP3   OH229149   2.536   5.481   0.424 -0.0482  0.2597  0.6920
 2553TIP3    H129150   2.570   5.536   0.494  0.8397 -0.1803  0.6084
 2553TIP3    H229151   2.597   5.407   0.419 -0.2561  0.1495 -0.3591
 2554TIP3   OH229152   2.845   0.629   1.840  0.0403  0.1521  0.7011
 2554TIP3    H129153   2.856   0.706   1.784 -0.0618  0.2836  0.8646
 2554TIP3    H229154   2.806   0.563   1.782 -1.1085  0.6447  0.9133
 2555TIP3   OH229155   6.545   0.471  15.060 -0.0769  0.2694  0.1778
 2555TIP3    H129156   6.538   0.408  15.131 -0.7755 -1.0947 -1.0591
 2555TIP3    H229157   6.624   0.522  15.080  0.7056 -1.2352  1.0365
 2556TIP3   OH229158   3.826   0.747   1.330 -0.0279  0.6899 -0.5617
 2556TIP3    H129159   3.793   0.787   1.249 -1.7851  1.6054  0.5775
 2556TIP3    H229160   3.856   0.821   1.382 -1.5818  0.3847  0.8012
 2557TIP3   OH229161   6.154   3.929   0.222 -0.4449  0.3698 -0.3482
 2557TIP3    H129162   6.228   3.898   0.274  0.6260 -0.0204 -2.0852
 2557TIP3    H229163   6.109   3.992   0.279  0.2928 -0.5753  1.2971
 2558TIP3   OH229164   1.287   3.491   5.709 -0.6230 -1.1621 -0.4235
 2558TIP3    H129165   1.261   3.559   5.646 -1.1589 -0.6472  0.3457
 2558TIP3    H229166   1.254   3.523   5.793 -0.5783 -2.2185 -0.0030
 2559TIP3   OH229167   5.244   4.264   0.189 -0.5013 -0.2528  0.1136
 2559TIP3    H129168   5.238   4.355   0.159 -1.5178 -0.6251 -0.8474
 2559TIP3    H229169   5.194   4.262   0.270 -0.4918  0.0345  0.1289
 2560TIP3   OH229170   1.233   1.641  13.515  0.0632 -0.1608  0.5448
 2560TIP3    H129171   1.269   1.576  13.455  0.9014  1.5551 -0.8592
 2560TIP3    H229172   1.175   1.694  13.461  1.4925  1.9425  1.0352
 2561TIP3   OH229173   2.154   3.106  16.619 -0.0951  0.4624 -0.2205
 2561TIP3    H129174   2.172   3.034  16.558 -1.2002  1.5076 -1.8259
 2561TIP3    H229175   2.091   3.069  16.681 -1.2729  0.2671 -1.5095
 2562TIP3   OH229176   0.132   1.453   2.188 -0.4179  0.6987 -0.5317
 2562TIP3    H129177   0.086   1.521   2.139 -0.9383  0.7070 -0.0399
 2562TIP3    H229178   0.158   1.495   2.269 -0.8566  0.2811 -0.1668
 2563TIP3   OH229179   5.383   1.122  16.111 -0.6581 -0.5286  0.5926
 2563TIP3    H129180   5.417   1.090  16.028 -1.6260  1.9813 -0.8225
 2563TIP3    H229181   5.456   1.170  16.150  0.1826 -2.7303  1.8063
 2564TIP3   OH229182   4.643   1.768  15.611 -0.2089  0.2137 -0.0360
 2564TIP3    H129183   4.650   1.855  15.652  0.2981 -0.0081  0.3528
 2564TIP3    H229184   4.652   1.786  15.517 -1.0812  0.6899 -0.0367
 2565TIP3   OH229185   4.980   0.228  12.648 -0.4377 -0.6173 -0.4190
 2565TIP3    H129186   4.980   0.312  12.693 -0.2398 -1.1477  0.6090
 2565TIP3    H229187   4.892   0.193  12.661  0.1417 -1.5653  1.1175
 2566TIP3   OH229188   2.806   5.444  11.572 -0.2687 -0.1299  0.0166
 2566TIP3    H129189   2.852   5.362  11.588 -0.3794 -0.5914 -1.8598
 2566TIP3    H229190   2.823   5.463  11.480  0.3105  2.3140  0.5946
 2567TIP3   OH229191   5.920   4.047  13.653  0.1350 -0.4841 -0.6098
 2567TIP3    H129192   5.930   4.089  13.568  0.6299  2.4876  0.8479
 2567TIP3    H229193   6.009   4.023  13.679 -0.2291 -3.2472 -1.7919
 2568TIP3   OH229194   6.233   6.218  14.023  0.9498 -0.3201 -0.1662
 2568TIP3    H129195   6.141   6.192  14.025  1.0587 -0.7175  2.3579
 2568TIP3    H229196   6.274   6.158  13.961 -0.2526 -1.0116 -0.3037
 2569TIP3   OH229197   0.787   1.408  10.573  0.3293 -0.0358 -0.5071
 2569TIP3    H129198   0.741   1.340  10.524 -1.0039 -0.8600  1.8173
 2569TIP3    H229199   0.718   1.468  10.603  0.8899 -0.4443  1.7096
 2570TIP3   OH229200   1.497   5.523   6.244 -0.0056  0.7977 -0.3657
 2570TIP3    H129201   1.465   5.441   6.280 -0.1356 -1.1073 -4.4923
 2570TIP3    H229202   1.539   5.567   6.317 -0.1980 -2.7970  2.0297
 2571TIP3   OH229203   1.475   5.122   0.334 -0.3066 -0.3166  0.4189
 2571TIP3    H129204   1.425   5.066   0.274 -0.4139 -0.0127  0.2229
 2571TIP3    H229205   1.562   5.081   0.337 -0.2030 -0.1513 -0.2024
 2572TIP3   OH229206   0.207   5.156  13.493  0.2702  0.2727 -0.6930
 2572TIP3    H129207   0.114   5.167  13.470 -0.3337 -0.0073  1.5129
 2572TIP3    H229208   0.242   5.245  13.494 -0.8663  0.7469  1.9218
 2573TIP3   OH229209   5.179   6.523  12.234 -0.5974 -0.0575  0.3226
 2573TIP3    H129210   5.198   6.518  12.140  2.9285 -1.8854  1.0431
 2573TIP3    H229211   5.211   6.610  12.260 -2.6520  0.9258 -0.3330
 2574TIP3   OH229212   3.830   1.649   0.137  0.0145 -0.6722  0.4153
 2574TIP3    H129213   3.783   1.567   0.124 -2.2173  0.4165  1.4183
 2574TIP3    H229214   3.772   1.716   0.102 -0.2841  0.9309  3.7881
 2575TIP3   OH229215   5.242   5.193   4.856  0.2724 -0.3603 -0.1698
 2575TIP3    H129216   5.188   5.219   4.931 -0.6939  0.1696 -1.0406
 2575TIP3    H229217   5.316   5.147   4.895 -0.5320 -0.6239  1.0783
 2576TIP3   OH229218   4.356   5.889   0.538  0.5489 -0.1338  0.3173
 2576TIP3    H129219   4.261   5.884   0.529  0.6529 -0.0208 -0.9087
 2576TIP3    H229220   4.390   5.820   0.480  1.2526  0.7993 -0.3967
 2577TIP3   OH229221   1.766   4.363  12.244  0.2013 -0.1332 -0.1440
 2577TIP3    H129222   1.782   4.396  12.156 -0.3225 -1.3263 -0.7016
 2577TIP3    H229223   1.781   4.438  12.301  0.5674  0.6443 -1.2441
 2578TIP3   OH229224   5.908   2.398   3.910  0.0279  0.0019  0.0981
 2578TIP3    H129225   5.938   2.483   3.941 -0.6534  0.6034 -0.8663
 2578TIP3    H229226   5.923   2.401   3.815  0.7494 -1.2511  0.1621
 2579TIP3   OH229227   5.012   0.396  15.822 -0.6602  0.1852  0.3064
 2579TIP3    H129228   5.005   0.481  15.778 -1.8050  0.3224  0.7325
 2579TIP3    H229229   5.096   0.400  15.869  0.4286  0.1590 -1.5913
 2580TIP3   OH229230   0.653   3.985  14.384  0.3397 -0.2370 -0.0205
 2580TIP3    H129231   0.620   3.921  14.447  0.6542  0.8546  1.2888
 2580TIP3    H229232   0.597   3.974  14.307 -1.8201  0.2029  1.4275
 2581TIP3   OH229233   2.730   6.196  17.227  0.1274 -0.5275  0.2164
 2581TIP3    H129234   2.744   6.259  17.156  0.2283 -1.8683 -0.9764
 2581TIP3    H229235   2.741   6.248  17.307  2.2355  0.5359 -0.7220
 2582TIP3   OH229236   6.621   2.547  14.670 -1.2069 -0.7875 -0.9650
 2582TIP3    H129237   6.609   2.487  14.596 -2.0261 -0.7771 -0.8468
 2582TIP3    H229238   6.626   2.489  14.746 -0.7373 -0.7770 -0.9880
 2583TIP3   OH229239   3.177   5.035  11.826  0.5499  0.2554  0.6995
 2583TIP3    H129240   3.216   4.948  11.837  1.8351  0.5188 -1.5098
 2583TIP3    H229241   3.252   5.093  11.811 -0.4004  1.5058  0.6680
 2584TIP3   OH229242   5.928   2.411   3.611 -0.2286  0.4634 -0.2678
 2584TIP3    H129243   5.882   2.367   3.539 -0.0072 -0.3850  0.1080
 2584TIP3    H229244   5.968   2.487   3.569 -0.3565  0.1494 -0.9842
 2585TIP3   OH229245   2.053   4.507  13.736 -0.1453  0.0869  0.4555
 2585TIP3    H129246   1.985   4.560  13.696  0.6297 -0.7066 -2.0047
 2585TIP3    H229247   2.135   4.553  13.716  0.2521 -0.2322  1.3055
 2586TIP3   OH229248   0.059   3.161  15.906  0.0460  0.2699 -0.1504
 2586TIP3    H129249   0.122   3.215  15.953 -1.5178  2.2796 -0.2645
 2586TIP3    H229250  -0.021   3.214  15.905 -1.8301 -2.4461  0.5252
 2587TIP3   OH229251   4.534   5.616   0.656 -0.0084  0.7492 -0.4980
 2587TIP3    H129252   4.607   5.558   0.678 -0.5842 -0.1568 -0.9257
 2587TIP3    H229253   4.549   5.639   0.564 -1.1596 -0.8250 -1.1109
 2588TIP3   OH229254   1.949   2.652   2.258  0.2398  0.8390 -0.1357
 2588TIP3    H129255   1.981   2.738   2.283  0.2578  0.7294  0.2187
 2588TIP3    H229256   1.934   2.606   2.340 -2.0875  1.3238 -0.2610
 2589TIP3   OH229257   1.187   4.053   6.005 -0.0532  0.4026  0.2438
 2589TIP3    H129258   1.172   3.961   5.982  2.4735  0.0654 -0.2145
 2589TIP3    H229259   1.254   4.050   6.074 -1.6595  1.8038  1.9083
 2590TIP3   OH229260   4.791   3.168   3.547 -0.7156  0.1837  0.6128
 2590TIP3    H129261   4.858   3.109   3.583 -1.1412 -1.2305 -0.8156
 2590TIP3    H229262   4.710   3.116   3.549 -1.0758  0.6726 -0.7563
 2591TIP3   OH229263   2.133   0.254  12.147 -0.2010  0.8593  0.3362
 2591TIP3    H129264   2.042   0.249  12.119 -1.0119  0.4272  2.8860
 2591TIP3    H229265   2.160   0.344  12.127 -0.8316  0.6746 -1.4131
 2592TIP3   OH229266   1.211   1.674   1.203  0.3202  0.4306 -0.1507
 2592TIP3    H129267   1.185   1.617   1.275  0.3138  0.7692  0.1140
 2592TIP3    H229268   1.294   1.711   1.231 -0.0125  1.0830 -0.0277
 2593TIP3   OH229269   0.117   5.490   6.774 -0.0692  0.0584  0.1392
 2593TIP3    H129270   0.065   5.420   6.735 -0.2994  0.3212 -0.0277
 2593TIP3    H229271   0.205   5.453   6.782 -0.1043 -0.1209 -0.2881
 2594TIP3   OH229272   4.278   4.490  16.179 -0.1406 -0.5862 -0.3216
 2594TIP3    H129273   4.324   4.411  16.207 -0.4620 -0.5948  0.1812
 2594TIP3    H229274   4.215   4.458  16.114  1.0524 -0.4744 -1.5714
 2595TIP3   OH229275   3.075   0.204   3.830  0.0252 -0.3994 -0.3120
 2595TIP3    H129276   3.110   0.283   3.790 -1.8290  1.6180  1.8542
 2595TIP3    H229277   3.147   0.171   3.885 -0.2122  1.6832  1.3229
 2596TIP3   OH229278   0.291   1.192  10.361  0.0834  0.2061 -0.2150
 2596TIP3    H129279   0.254   1.267  10.314 -0.1783 -0.3102 -0.8282
 2596TIP3    H229280   0.218   1.159  10.415  0.8641  1.9136  1.9759
 2597TIP3   OH229281   6.372   5.592   4.168  0.3500  0.0110 -0.1654
 2597TIP3    H129282   6.389   5.540   4.247 -0.0442  1.3402  0.8212
 2597TIP3    H229283   6.452   5.642   4.154  1.0411 -1.4393 -1.6035
 2598TIP3   OH229284   6.045   3.627   0.227  0.4950  0.6642 -0.2294
 2598TIP3    H129285   6.071   3.631   0.135 -1.6029 -0.6769 -0.9348
 2598TIP3    H229286   6.119   3.584   0.271  0.7024 -0.4997 -1.6575
 2599TIP3   OH229287   4.854   4.911  17.291  0.2842  0.5437  0.5155
 2599TIP3    H129288   4.832   4.930  17.200  2.8768  0.4846 -0.1661
 2599TIP3    H229289   4.929   4.852  17.286 -0.1573 -0.2614  2.6927
 2600TIP3   OH229290   1.488   2.485  12.845 -0.0213  0.1318  0.6017
 2600TIP3    H129291   1.583   2.475  12.837  0.1143  0.8021  1.3086
 2600TIP3    H229292   1.458   2.491  12.754  0.7961  1.4927  0.4056
 2601TIP3   OH229293   6.238   3.211  17.154 -0.9713 -0.0537 -0.0945
 2601TIP3    H129294   6.178   3.140  17.176 -2.7565  0.5294 -2.7885
 2601TIP3    H229295   6.230   3.220  17.059  0.5909  2.5202 -0.0190
 2602TIP3   OH229296   4.734   2.343   0.895  0.1368  0.2093  0.0751
 2602TIP3    H129297   4.774   2.430   0.906  1.2212 -0.2301 -0.2730
 2602TIP3    H229298   4.809   2.285   0.878 -0.6379 -0.6838 -0.3033
 2603TIP3   OH229299   0.321   4.142   4.310  0.5517 -0.0351 -0.0684
 2603TIP3    H129300   0.363   4.164   4.227  0.1558  1.0341  0.0049
 2603TIP3    H229301   0.393   4.130   4.371  0.9492 -2.7453 -0.9903
 2604TIP3   OH229302   2.005   1.974   1.310 -0.2255  0.5767  0.4084
 2604TIP3    H129303   1.999   2.044   1.245 -0.8365  0.5298  0.4139
 2604TIP3    H229304   1.916   1.939   1.316  0.3403 -1.0895 -0.5777
 2605TIP3   OH229305   6.543   6.608  14.444 -0.2619  0.3702  0.4009
 2605TIP3    H129306   6.578   6.600  14.533 -0.6732  3.0824  0.8405
 2605TIP3    H229307   6.450   6.624  14.456 -0.9207 -2.4027 -0.6485
 2606TIP3   OH229308   2.140   1.739  11.499  0.5728  0.2492 -0.0012
 2606TIP3    H129309   2.207   1.674  11.479 -0.5152 -0.0912 -2.8330
 2606TIP3    H229310   2.180   1.823  11.475  0.7634  0.2739  0.4011
 2607TIP3   OH229311   5.653   1.289  15.842 -0.0430 -0.4525 -0.2908
 2607TIP3    H129312   5.573   1.332  15.873 -0.2487 -1.0108 -0.0537
 2607TIP3    H229313   5.705   1.361  15.807 -1.4348 -0.3196 -2.1756
 2608TIP3   OH229314   2.606   0.999  15.007  0.4268  0.2942  0.1476
 2608TIP3    H129315   2.605   1.090  15.036 -0.0805  1.0609 -2.1218
 2608TIP3    H229316   2.641   1.003  14.917  1.6495 -1.8995  0.4853
 2609TIP3   OH229317   5.547   3.066  10.415  0.1404 -0.0999  0.1026
 2609TIP3    H129318   5.539   2.990  10.358  0.0374  0.6065 -0.8412
 2609TIP3    H229319   5.459   3.101  10.422  0.0645 -0.4772  1.1205
 2610TIP3   OH229320   4.224   0.537   3.046  0.0274 -0.2990  0.0491
 2610TIP3    H129321   4.142   0.585   3.050  0.3141  0.2418 -0.4650
 2610TIP3    H229322   4.292   0.605   3.055  0.4127 -0.8013  1.0669
 2611TIP3   OH229323   1.121   5.584   2.707 -0.1618  0.2796 -0.5312
 2611TIP3    H129324   1.155   5.526   2.775 -0.6368  0.9418  0.2814
 2611TIP3    H229325   1.146   5.672   2.735  0.0780  0.5174 -1.4752
 2612TIP3   OH229326   1.820   0.080   4.270 -0.0887  0.1494 -0.3898
 2612TIP3    H129327   1.837   0.117   4.183 -0.7462 -0.1262 -0.6376
 2612TIP3    H229328   1.872   0.134   4.329 -0.3740  0.9356 -0.8460
 2613TIP3   OH229329   3.457   6.673   2.970  0.6828  0.2257  0.0269
 2613TIP3    H129330   3.384   6.630   3.013 -0.1667 -1.8924 -3.3099
 2613TIP3    H229331   3.451   6.765   2.996 -4.0959  0.4058 -1.3226
 2614TIP3   OH229332   1.790   3.732   4.372  0.1476 -0.3088 -0.6753
 2614TIP3    H129333   1.849   3.721   4.447 -1.0779 -2.3202  0.0382
 2614TIP3    H229334   1.735   3.807   4.395 -0.4422 -1.1115  0.6292
 2615TIP3   OH229335   2.086   0.880   3.454  0.1348 -0.0042  0.6509
 2615TIP3    H129336   2.060   0.947   3.518 -0.9262 -0.9580  1.2516
 2615TIP3    H229337   2.115   0.929   3.377  2.0892  1.1764  2.1010
 2616TIP3   OH229338   1.904   0.357  16.081 -0.0591 -0.5373  0.3126
 2616TIP3    H129339   1.921   0.448  16.055 -0.0641 -0.6675 -0.1515
 2616TIP3    H229340   1.826   0.362  16.136  0.9110 -0.0501  1.6679
 2617TIP3   OH229341   1.166   2.283   3.849 -0.8789 -0.0120  0.3169
 2617TIP3    H129342   1.180   2.326   3.765  1.3536 -0.9208  0.1944
 2617TIP3    H229343   1.135   2.195   3.826 -1.7648  0.2446  0.4971
 2618TIP3   OH229344   4.931   4.404  12.815  0.2813  0.3226  0.2690
 2618TIP3    H129345   4.875   4.477  12.840  0.5432  0.3902  0.6661
 2618TIP3    H229346   5.020   4.439  12.818  0.5056 -0.3520  1.7107
 2619TIP3   OH229347   6.483   0.178  17.091 -0.2752 -0.0150 -0.3987
 2619TIP3    H129348   6.396   0.138  17.093  0.2480 -1.1605  0.0446
 2619TIP3    H229349   6.472   0.257  17.037 -1.0686 -1.4314 -2.3960
 2620TIP3   OH229350   3.434   1.492   6.220  0.0782  0.1788 -0.5457
 2620TIP3    H129351   3.487   1.570   6.236  0.6535 -0.3895  0.3414
 2620TIP3    H229352   3.362   1.499   6.284 -1.1932  1.1891 -2.0574
 2621TIP3   OH229353   1.684   5.027   2.001 -0.4481 -0.3165 -0.1191
 2621TIP3    H129354   1.690   5.103   2.059 -1.9758 -0.0099 -0.3255
 2621TIP3    H229355   1.658   5.063   1.917  0.1714 -0.9340 -0.5828
 2622TIP3   OH229356   6.707   2.371  14.012 -0.4807  0.1655 -0.5320
 2622TIP3    H129357   6.684   2.288  14.054 -0.7279 -0.5741 -2.0971
 2622TIP3    H229358   6.747   2.346  13.929 -1.5495  1.6301 -1.5154
 2623TIP3   OH229359   2.607   1.939   4.602 -0.1507 -0.1542  0.3379
 2623TIP3    H129360   2.694   1.902   4.588 -0.1994 -0.1141 -0.0660
 2623TIP3    H229361   2.568   1.884   4.671  1.3308  1.6770  2.6807
 2624TIP3   OH229362   0.171   5.401   1.976 -0.5785  0.4365 -0.4101
 2624TIP3    H129363   0.180   5.360   2.062 -2.1365  0.0570 -0.4158
 2624TIP3    H229364   0.213   5.487   1.986 -0.3684  0.2163  0.6059
 2625TIP3   OH229365   4.540   4.810  16.779 -0.3432 -0.3598 -0.3048
 2625TIP3    H129366   4.562   4.779  16.867 -0.2850  0.4645 -0.0231
 2625TIP3    H229367   4.478   4.882  16.793 -0.5575 -0.4128 -0.9471
 2626TIP3   OH229368   3.652   0.098  14.174  0.2242 -0.1270 -0.7193
 2626TIP3    H129369   3.717   0.167  14.168  0.8437 -0.6433 -0.0266
 2626TIP3    H229370   3.702   0.017  14.166 -0.4667 -0.5095 -1.2760
 2627TIP3   OH229371   4.640   5.887   2.579 -0.1058 -0.6794 -1.3178
 2627TIP3    H129372   4.559   5.901   2.627  0.6755 -1.8516  0.4259
 2627TIP3    H229373   4.670   5.974   2.555 -1.3870 -0.1846 -1.1361
 2628TIP3   OH229374   1.945   5.022   0.216  0.5296  0.0250  0.2281
 2628TIP3    H129375   1.906   5.058   0.296  0.2335 -2.5590  1.3000
 2628TIP3    H229376   1.873   4.978   0.172  0.6684  1.5614 -1.5797
 2629TIP3   OH229377   1.503   6.174  13.127 -0.5023  0.0725 -0.5593
 2629TIP3    H129378   1.478   6.175  13.219  0.0015 -0.5877 -0.4163
 2629TIP3    H229379   1.551   6.092  13.115  1.2506  1.1136 -0.9231
 2630TIP3   OH229380   4.572   6.510   0.676  0.0743  0.3116  0.2765
 2630TIP3    H129381   4.639   6.559   0.723  0.2718  0.6363 -0.3432
 2630TIP3    H229382   4.600   6.510   0.585  0.5448 -1.7269  0.3879
 2631TIP3   OH229383   0.254   2.076  16.468 -0.2304  0.0611 -0.3365
 2631TIP3    H129384   0.158   2.071  16.465 -0.3727  2.2984  0.1451
 2631TIP3    H229385   0.274   2.109  16.555  0.9963 -0.4906 -0.3985
 2632TIP3   OH229386   2.399   3.911   4.607  0.1675  0.2513  0.5111
 2632TIP3    H129387   2.479   3.865   4.580  0.9772  0.4340  2.5266
 2632TIP3    H229388   2.412   4.001   4.577 -0.4949 -0.3329 -1.5820
 2633TIP3   OH229389   3.842   5.555  13.399 -0.0199 -0.7672  0.0559
 2633TIP3    H129390   3.919   5.607  13.373 -0.3853  0.4964  1.4296
 2633TIP3    H229391   3.875   5.466  13.407  0.7821 -0.6492 -1.6569
 2634TIP3   OH229392   5.706   2.510  15.973 -0.0395 -0.1825  0.3006
 2634TIP3    H129393   5.691   2.471  15.886 -0.5998 -0.2392  0.4188
 2634TIP3    H229394   5.799   2.496  15.990  0.3645  0.9617 -0.8527
 2635TIP3   OH229395   5.728   5.996  14.794 -0.8945  0.2212  0.7109
 2635TIP3    H129396   5.755   6.063  14.857  1.7773  1.0052 -1.1928
 2635TIP3    H229397   5.737   5.914  14.842 -0.8241  0.9447  1.9675
 2636TIP3   OH229398   4.348   3.399   0.938 -0.2358 -0.3226 -0.5190
 2636TIP3    H129399   4.306   3.329   0.887 -1.3606 -0.3708  0.4511
 2636TIP3    H229400   4.276   3.438   0.988  0.5064  1.1041 -0.5673
 2637TIP3   OH229401   5.453   1.564   4.422 -0.4383 -0.0646 -0.2890
 2637TIP3    H129402   5.377   1.599   4.468 -1.6859 -0.7371 -1.8192
 2637TIP3    H229403   5.418   1.502   4.359  1.4475 -1.0285 -0.4485
 2638TIP3   OH229404   5.415   3.877  10.777  0.2061 -0.0460  0.9150
 2638TIP3    H129405   5.473   3.914  10.843 -0.0102  0.3082  0.9092
 2638TIP3    H229406   5.472   3.862  10.701 -0.2092  2.7738 -0.0080
 2639TIP3   OH229407   2.507   3.965  14.920 -0.0098 -0.6762  0.6049
 2639TIP3    H129408   2.445   3.897  14.893  1.2108 -0.8960 -1.7494
 2639TIP3    H229409   2.549   3.930  14.999 -1.8362 -1.1405  1.3929
 2640TIP3   OH229410   5.512   6.806   1.158 -0.1788  0.0385  0.5412
 2640TIP3    H129411   5.599   6.792   1.196 -0.5049 -0.5162  1.0956
 2640TIP3    H229412   5.457   6.829   1.233 -0.6992 -0.4739  0.3220
 2641TIP3   OH229413   3.477   5.787  13.926 -0.0445 -0.6607 -0.3282
 2641TIP3    H129414   3.513   5.701  13.947  2.1288  0.7593  2.0590
 2641TIP3    H229415   3.421   5.809  14.001 -1.7712 -0.5894 -1.6057
 2642TIP3   OH229416   3.207   2.493  11.367 -0.2861  0.3457 -0.0812
 2642TIP3    H129417   3.253   2.504  11.451 -2.0110 -0.5682  1.0266
 2642TIP3    H229418   3.249   2.555  11.308  2.0820 -0.1707  0.9924
 2643TIP3   OH229419   2.567   4.404   1.903 -0.0680 -0.2320 -0.1219
 2643TIP3    H129420   2.546   4.417   1.996  1.8886 -2.7387  0.7232
 2643TIP3    H229421   2.517   4.327   1.877 -0.7665  0.5781 -1.2216
 2644TIP3   OH229422   2.402   5.945   2.967  0.5861 -0.3326  0.0796
 2644TIP3    H129423   2.408   6.024   3.020 -0.1791 -0.7306  0.7797
 2644TIP3    H229424   2.448   5.878   3.018 -0.3731 -0.7798  0.3683
 2645TIP3   OH229425   5.866   3.289  15.757  0.6104 -0.2123 -0.2070
 2645TIP3    H129426   5.950   3.328  15.733 -0.0250  1.1966 -0.1666
 2645TIP3    H229427   5.806   3.363  15.766 -0.1864 -1.0306  1.6415
 2646TIP3   OH229428   6.384   0.866   0.086  0.1289 -0.3306 -0.2216
 2646TIP3    H129429   6.407   0.800   0.151 -1.9740  0.8839  1.8372
 2646TIP3    H229430   6.361   0.815   0.008  0.4468 -1.9275  0.7042
 2647TIP3   OH229431   0.533   1.271   6.120  0.4515  0.1640  0.5250
 2647TIP3    H129432   0.627   1.282   6.134  0.3402  0.0734  1.3684
 2647TIP3    H229433   0.496   1.264   6.208 -0.3156 -0.0676  0.1914
 2648TIP3   OH229434   1.719   2.979  13.091  0.5767  0.5354 -0.5673
 2648TIP3    H129435   1.774   2.902  13.103  0.4624  0.9852  3.5230
 2648TIP3    H229436   1.781   3.051  13.075  1.0156  0.4662  0.7580
 2649TIP3   OH229437   3.205   3.041  13.715 -0.0724 -0.0626 -0.0953
 2649TIP3    H129438   3.166   3.096  13.647 -3.2235 -0.7523  1.0917
 2649TIP3    H229439   3.196   3.092  13.795  1.3912 -0.2942  0.2313
 2650TIP3   OH229440   0.679   2.977  15.986 -0.1797 -0.2113  0.1726
 2650TIP3    H129441   0.631   2.905  16.027 -0.8091 -0.5752 -1.1746
 2650TIP3    H229442   0.648   3.056  16.031 -1.1031 -0.5705  0.1647
 2651TIP3   OH229443   2.033   5.190   5.722 -0.7235  0.1713  0.3361
 2651TIP3    H129444   1.985   5.137   5.658 -1.5088  1.0118  0.2182
 2651TIP3    H229445   2.044   5.133   5.798  0.0487 -0.7746 -0.4745
 2652TIP3   OH229446   6.756   5.485   5.297 -0.1484 -0.3768 -0.0429
 2652TIP3    H129447   6.732   5.446   5.213  2.0734  3.1231 -2.4423
 2652TIP3    H229448   6.672   5.502   5.340 -1.4486 -0.6520 -2.3495
 2653TIP3   OH229449   2.250   6.517   0.584  0.5286  0.1831 -0.0276
 2653TIP3    H129450   2.289   6.435   0.614  0.6067  0.2298 -0.0014
 2653TIP3    H229451   2.287   6.529   0.496 -0.3750 -0.4104 -0.5047
 2654TIP3   OH229452   1.914   5.903   1.392  0.4327 -0.0032  0.2135
 2654TIP3    H129453   1.892   5.857   1.473  1.0198 -2.7528 -1.1530
 2654TIP3    H229454   1.837   5.890   1.336  0.0526  1.8388  0.2848
 2655TIP3   OH229455   3.172   3.009   1.052 -0.4443 -0.2353  0.2996
 2655TIP3    H129456   3.157   2.991   1.145 -1.0768 -2.4146 -0.1914
 2655TIP3    H229457   3.095   3.058   1.024 -1.0096 -0.9351  0.5895
 2656TIP3   OH229458   5.832   3.335   0.362  0.1205  0.2018 -0.0014
 2656TIP3    H129459   5.920   3.298   0.357  0.0316 -0.0236  0.1136
 2656TIP3    H229460   5.775   3.260   0.374 -0.4238  0.0025 -3.3325
 2657TIP3   OH229461   5.308   1.756   5.707 -0.4552  0.2099  0.0867
 2657TIP3    H129462   5.318   1.708   5.625 -2.9393  1.4178 -0.9830
 2657TIP3    H229463   5.283   1.688   5.771 -0.1415 -0.4888 -0.5293
 2658TIP3   OH229464   1.481   2.522  11.435  0.1271 -0.6743 -0.3362
 2658TIP3    H129465   1.560   2.576  11.428  0.5408 -0.9807  1.6913
 2658TIP3    H229466   1.409   2.584  11.437  0.2980 -0.3862 -2.0962
 2659TIP3   OH229467   3.386   2.196  15.130  0.4837  0.1241  0.0274
 2659TIP3    H129468   3.470   2.231  15.160  0.7084  0.3095 -0.7900
 2659TIP3    H229469   3.375   2.115  15.179  1.4082 -0.1769 -0.2490
 2660TIP3   OH229470   1.358   0.101  10.820 -0.2233  0.1191  0.3411
 2660TIP3    H129471   1.420   0.091  10.893 -1.6183 -4.3781  1.0887
 2660TIP3    H229472   1.273   0.079  10.858 -1.4122  0.5651 -2.0048
 2661TIP3   OH229473   5.708   3.805   5.283  0.3982  0.4478  0.0229
 2661TIP3    H129474   5.646   3.808   5.355 -1.6140 -0.2509 -1.6385
 2661TIP3    H229475   5.702   3.891   5.242 -1.7144 -0.5641 -1.9207
 2662TIP3   OH229476   4.494   0.824  14.929  0.6408 -0.0315 -0.7736
 2662TIP3    H129477   4.588   0.827  14.949  0.3238 -0.1643  0.8071
 2662TIP3    H229478   4.469   0.734  14.947 -0.0819  0.3582  0.1928
 2663TIP3   OH229479   3.090   0.667  12.344 -0.5619 -0.4314  0.1049
 2663TIP3    H129480   3.172   0.619  12.352 -0.8951 -0.8871  0.9585
 2663TIP3    H229481   3.115   0.759  12.342 -0.0524 -0.5467  0.8976
 2664TIP3   OH229482   4.149   1.418  12.772 -0.2628 -0.4675 -0.4093
 2664TIP3    H129483   4.075   1.412  12.712 -0.0632 -1.1678 -0.5895
 2664TIP3    H229484   4.215   1.359  12.736 -0.3060 -1.2307  0.7223
 2665TIP3   OH229485   3.270   4.575   3.554  0.6833 -0.0789 -0.0345
 2665TIP3    H129486   3.237   4.521   3.626 -1.6311  0.7601 -0.4271
 2665TIP3    H229487   3.212   4.555   3.480  2.4460 -0.2299 -1.4178
 2666TIP3   OH229488   3.735   3.143   0.606  0.3537  0.6586 -0.3442
 2666TIP3    H129489   3.771   3.223   0.645  0.8060  0.3557 -0.1360
 2666TIP3    H229490   3.646   3.137   0.642  0.7929  0.3455  0.7053
 2667TIP3   OH229491   1.904   1.881  14.546  0.5759 -0.6449  0.3801
 2667TIP3    H129492   1.990   1.846  14.568  0.9128 -0.4453 -0.6012
 2667TIP3    H229493   1.908   1.898  14.452 -0.8738 -1.6082  0.1266
 2668TIP3   OH229494   4.212   6.587   1.324 -0.0440 -0.0042  0.0940
 2668TIP3    H129495   4.164   6.612   1.245 -0.1636  1.1950  0.5348
 2668TIP3    H229496   4.303   6.605   1.304  0.0274 -0.5823 -0.1027
 2669TIP3   OH229497   5.091   6.159   4.093  0.6483  0.3746  0.0844
 2669TIP3    H129498   5.067   6.238   4.045 -1.5991  0.1662  0.8213
 2669TIP3    H229499   5.128   6.101   4.026 -0.2089  1.0121 -0.9614
 2670TIP3   OH229500   6.026   2.676  17.262  0.2013  0.4590 -0.1914
 2670TIP3    H129501   6.113   2.649  17.231  0.9605  0.6690  1.6810
 2670TIP3    H229502   5.965   2.622  17.213  1.5754 -2.8867  1.5776
 2671TIP3   OH229503   3.629   6.029   4.531 -1.0437 -0.2004 -0.4760
 2671TIP3    H129504   3.667   6.115   4.549 -1.1667 -0.4134  0.8339
 2671TIP3    H229505   3.703   5.975   4.504 -0.5334 -0.3885  1.2537
 2672TIP3   OH229506   1.654   4.962  13.735  0.0667 -0.4963  0.0289
 2672TIP3    H129507   1.622   5.052  13.725 -0.1442 -0.6181 -0.3966
 2672TIP3    H229508   1.722   4.953  13.668  0.2412 -0.5854  0.2152
 2673TIP3   OH229509   3.604   0.465   5.664  0.3466  0.1650 -0.0938
 2673TIP3    H129510   3.603   0.372   5.646 -3.0890  0.1074  0.1068
 2673TIP3    H229511   3.599   0.507   5.578  2.4360  0.2259 -0.2202
 2674TIP3   OH229512   2.467   4.245  13.994  0.6630  0.0997 -0.4445
 2674TIP3    H129513   2.548   4.282  14.029 -1.1210  2.8249  0.9268
 2674TIP3    H229514   2.476   4.150  14.009  2.5461  0.5916  1.9352
 2675TIP3   OH229515   3.166   3.437   4.694 -0.1606 -0.7462 -0.6915
 2675TIP3    H129516   3.137   3.516   4.648 -0.4532 -1.2827 -1.4400
 2675TIP3    H229517   3.220   3.391   4.630  0.5776 -0.8157 -0.0195
 2676TIP3   OH229518   5.321   5.566   6.914  0.0605  0.3756 -0.3527
 2676TIP3    H129519   5.344   5.521   6.995 -0.3683  0.6823 -0.0588
 2676TIP3    H229520   5.303   5.496   6.852  0.7066  0.1369 -0.2730
 2677TIP3   OH229521   4.082   4.639   3.714 -0.4253  0.0408 -0.0059
 2677TIP3    H129522   4.172   4.617   3.693 -0.3974 -0.6791  0.8603
 2677TIP3    H229523   4.068   4.724   3.672  1.0350  0.7352  0.8554
 2678TIP3   OH229524   3.962   3.558  16.178  0.0885  0.0801 -0.5014
 2678TIP3    H129525   3.917   3.541  16.096  0.3425 -3.1148 -0.0479
 2678TIP3    H229526   3.898   3.536  16.246  0.8663 -0.1929  0.1493
 2679TIP3   OH229527   4.705   1.398   0.140  0.4214 -0.5157  0.4516
 2679TIP3    H129528   4.776   1.387   0.076 -1.0268  0.2246 -1.3181
 2679TIP3    H229529   4.662   1.313   0.143 -0.2110 -0.2329 -0.4261
 2680TIP3   OH229530   3.046   5.203   5.777  0.2516  0.1657  0.8240
 2680TIP3    H129531   3.040   5.124   5.724  0.2640  0.2120  0.7549
 2680TIP3    H229532   3.122   5.188   5.833  1.3552  0.9052 -0.4594
 2681TIP3   OH229533   2.726   0.821  15.585 -0.4520  0.1732 -0.3781
 2681TIP3    H129534   2.799   0.808  15.524 -0.2359  0.4084 -0.1674
 2681TIP3    H229535   2.734   0.749  15.647 -0.7769 -0.1699 -0.7283
 2682TIP3   OH229536   1.466   4.019  16.504  0.1148 -0.8435 -0.6992
 2682TIP3    H129537   1.390   4.069  16.535  0.4093 -0.1368 -1.1148
 2682TIP3    H229538   1.538   4.082  16.504  0.7712 -1.5757 -0.0578
 2683TIP3   OH229539   0.819   6.361  13.455 -0.1864 -0.2975  0.6531
 2683TIP3    H129540   0.759   6.294  13.487  0.5693 -0.8006  1.0302
 2683TIP3    H229541   0.862   6.321  13.380  1.4499 -0.8578  1.8516
 2684TIP3   OH229542   3.851   2.015  12.264  0.6191  0.3807  0.2114
 2684TIP3    H129543   3.860   2.105  12.296 -1.5349  0.3006  1.0901
 2684TIP3    H229544   3.817   1.966  12.338 -1.2873 -0.4820 -1.1942
 2685TIP3   OH229545   1.759   3.103  15.089 -0.1932  0.2003 -0.0275
 2685TIP3    H129546   1.777   3.136  15.177 -4.7490  1.1391  0.6823
 2685TIP3    H229547   1.727   3.179  15.041  0.3615 -0.7334 -1.9346
 2686TIP3   OH229548   4.442   6.116   1.072 -0.1917  0.6577  0.9307
 2686TIP3    H129549   4.439   6.142   0.980 -0.3711  1.1939  1.0856
 2686TIP3    H229550   4.360   6.149   1.109  0.9578  2.5492  1.8313
 2687TIP3   OH229551   3.828   6.218   0.869 -0.4089  0.1974 -0.3033
 2687TIP3    H129552   3.778   6.234   0.789  0.9470  1.1009 -0.9846
 2687TIP3    H229553   3.764   6.181   0.930 -1.1721 -1.7252 -2.2114
 2688TIP3   OH229554   4.765   3.275   4.931 -0.5046  0.0529 -0.2194
 2688TIP3    H129555   4.821   3.202   4.959  0.5202  1.0842  0.4580
 2688TIP3    H229556   4.692   3.233   4.885  0.7227 -1.3321 -0.9472
 2689TIP3   OH229557   1.441   1.536   2.780  0.0312  0.1336 -0.2342
 2689TIP3    H129558   1.379   1.549   2.851 -0.4165  1.2853 -0.8166
 2689TIP3    H229559   1.392   1.560   2.701  0.3739 -1.5523 -0.9856
 2690TIP3   OH229560   0.472   3.752  16.963 -0.2348  0.1525  0.3497
 2690TIP3    H129561   0.433   3.751  16.876 -1.8018  1.2702  1.0276
 2690TIP3    H229562   0.447   3.668  17.001 -1.2157  0.4918  0.4512
 2691TIP3   OH229563   3.996   6.202   3.334 -0.4358 -0.2824 -0.4813
 2691TIP3    H129564   4.026   6.123   3.288  0.5747 -0.0076 -0.3211
 2691TIP3    H229565   3.972   6.262   3.265  0.1253 -0.2362 -0.6441
 2692TIP3   OH229566   2.745   4.658   4.972  0.0672 -0.1138 -0.1007
 2692TIP3    H129567   2.837   4.676   4.988  0.1025 -1.0691  0.8543
 2692TIP3    H229568   2.726   4.581   5.026 -0.3049 -2.3206 -3.2180
 2693TIP3   OH229569   2.912   1.204  11.227  0.5594  0.1445  0.3508
 2693TIP3    H129570   2.976   1.180  11.293 -0.7084  0.1247  1.6057
 2693TIP3    H229571   2.833   1.155  11.252  0.3834 -0.7573 -1.8295
 2694TIP3   OH229572   3.600   5.457  11.138 -0.2414  0.7094 -0.4226
 2694TIP3    H129573   3.677   5.511  11.125  0.1617  0.3885  0.5846
 2694TIP3    H229574   3.633   5.367  11.144 -0.5582  0.6671  1.0496
 2695TIP3   OH229575   2.433   2.019   5.134 -0.5722 -0.4225 -0.5392
 2695TIP3    H129576   2.474   2.095   5.176  1.5357 -1.4773 -0.5953
 2695TIP3    H229577   2.438   1.950   5.200  0.5226 -1.4082 -1.6380
 2696TIP3   OH229578   1.572   1.601  15.404 -1.1015 -0.0007 -0.3532
 2696TIP3    H129579   1.545   1.559  15.486  3.8461 -2.4640  0.2361
 2696TIP3    H229580   1.662   1.630  15.422  0.1125 -0.6561 -4.9745
 2697TIP3   OH229581   4.497   2.738  13.018  0.1935 -0.1106 -0.3834
 2697TIP3    H129582   4.456   2.824  13.011 -0.1186  0.1100  3.2754
 2697TIP3    H229583   4.587   2.755  13.044  0.4605 -0.8594 -0.7841
 2698TIP3   OH229584   0.461   0.434  11.222 -0.2384 -0.4932 -0.2254
 2698TIP3    H129585   0.448   0.520  11.261  0.2952 -0.6927  0.4019
 2698TIP3    H229586   0.541   0.444  11.170  0.4296 -0.8882  0.7003
 2699TIP3   OH229587   0.471   2.927   2.820  0.4105  0.0285 -0.2137
 2699TIP3    H129588   0.445   2.898   2.733 -0.4160  0.3230 -0.0684
 2699TIP3    H229589   0.430   3.013   2.830  0.4088 -0.0538  0.5077
 2700TIP3   OH229590   4.141   1.278   0.995  0.4857 -0.6224 -0.3400
 2700TIP3    H129591   4.134   1.278   1.090  0.3567  0.0745 -0.3454
 2700TIP3    H229592   4.055   1.249   0.965 -0.1551  1.1090 -0.2696
 2701TIP3   OH229593   4.896   4.556   4.696  0.0697 -0.1919  0.0444
 2701TIP3    H129594   4.950   4.505   4.634 -1.7146 -1.3295 -0.6337
 2701TIP3    H229595   4.831   4.598   4.641 -0.7414 -0.1546  1.0291
 2702TIP3   OH229596   1.589   4.003   2.880 -0.8185 -0.3444 -0.6241
 2702TIP3    H129597   1.661   3.957   2.837 -0.0123 -0.1488  0.4857
 2702TIP3    H229598   1.627   4.087   2.907 -1.0777 -0.7589  1.1195
 2703TIP3   OH229599   5.626   4.001   1.203  0.3419  0.1501 -0.7740
 2703TIP3    H129600   5.672   3.947   1.267 -0.3344  0.5700  0.0730
 2703TIP3    H229601   5.692   4.062   1.171  1.0269 -0.9502 -1.4929
 2704TIP3   OH229602   3.880   3.804  11.555  0.0580  0.0709  0.7596
 2704TIP3    H129603   3.830   3.843  11.484 -0.0179 -0.4905  0.5060
 2704TIP3    H229604   3.964   3.780  11.515 -0.1576 -0.6678  0.7518
 2705TIP3   OH229605   5.814   2.790   1.022 -0.0999  0.3633  0.0388
 2705TIP3    H129606   5.837   2.837   1.102 -0.0570  0.0230  0.2236
 2705TIP3    H229607   5.800   2.700   1.050  0.9138  0.0284 -0.4973
 2706TIP3   OH229608   2.062   0.346   0.847  0.2634  0.4313  0.4024
 2706TIP3    H129609   2.051   0.437   0.875  0.5697  0.8698 -0.8937
 2706TIP3    H229610   2.143   0.317   0.891  0.1176  0.7468  0.8860
 2707TIP3   OH229611   4.768   1.574  16.199  0.2140 -0.5997 -0.1307
 2707TIP3    H129612   4.854   1.532  16.193  0.4339 -0.1533 -0.1112
 2707TIP3    H229613   4.743   1.566  16.291  0.4924 -0.2254 -0.0204
 2708TIP3   OH229614   5.309   2.284   3.669  0.5934  0.2637  0.1894
 2708TIP3    H129615   5.300   2.379   3.660 -2.4649 -0.3045 -4.3563
 2708TIP3    H229616   5.394   2.264   3.629  1.2283  1.0404  1.1219
 2709TIP3   OH229617   4.670   3.255   2.245  0.4127  0.2341  0.4529
 2709TIP3    H129618   4.616   3.196   2.298 -0.1766  1.9027  1.7569
 2709TIP3    H229619   4.657   3.225   2.155  1.8744 -3.0173  1.2677
 2710TIP3   OH229620   2.255   3.726  17.219  0.4157 -0.1710 -0.2382
 2710TIP3    H129621   2.291   3.798  17.272 -0.9836 -0.1278  0.6873
 2710TIP3    H229622   2.240   3.656  17.282  1.6646 -1.2541 -1.1217
 2711TIP3   OH229623   4.659   0.776   0.947  0.6972 -0.5136 -0.5080
 2711TIP3    H129624   4.740   0.762   0.997  0.7776 -0.1648 -0.5390
 2711TIP3    H229625   4.687   0.768   0.855  0.9252  0.7446 -0.5607
 2712TIP3   OH229626   5.882   1.659  14.833 -0.2572 -0.5629  0.1922
 2712TIP3    H129627   5.806   1.648  14.889 -0.7025 -0.3670 -0.3682
 2712TIP3    H229628   5.879   1.585  14.772  0.7394 -1.2935  1.0054
 2713TIP3   OH229629   5.501   1.754   0.086 -0.1063 -0.1103  0.2651
 2713TIP3    H129630   5.495   1.847   0.066 -2.6602  0.2412  2.3705
 2713TIP3    H229631   5.410   1.726   0.098  0.7978 -2.1249  2.8302
 2714TIP3   OH229632   1.192   4.182   2.619 -0.3630 -0.2449 -0.3197
 2714TIP3    H129633   1.121   4.246   2.615  0.1942  0.5357  1.3380
 2714TIP3    H229634   1.215   4.164   2.528 -0.5181  1.9561 -0.8164
 2715TIP3   OH229635   1.804   0.846  13.973 -0.0626 -0.2047  0.6800
 2715TIP3    H129636   1.724   0.893  13.949 -0.5090 -0.8836  0.8341
 2715TIP3    H229637   1.849   0.832  13.890  0.5474  1.3439  0.7327
 2716TIP3   OH229638   4.489   3.566   0.741 -0.4320 -0.4241 -0.3733
 2716TIP3    H129639   4.554   3.498   0.723  1.2113  0.9426  0.2468
 2716TIP3    H229640   4.437   3.531   0.813  0.0522 -1.2547 -0.4161
 2717TIP3   OH229641   3.955   4.245   3.219 -0.3537 -0.0018  0.5001
 2717TIP3    H129642   3.861   4.229   3.214 -0.6808  1.9347  0.1173
 2717TIP3    H229643   3.979   4.277   3.132  0.4000  0.7751  0.9825
 2718TIP3   OH229644   5.116   1.551  15.483 -0.2768  0.8981 -0.2674
 2718TIP3    H129645   5.032   1.534  15.525 -1.1477  1.4422 -1.7678
 2718TIP3    H229646   5.094   1.592  15.400  1.4865  1.3099 -0.5562
 2719TIP3   OH229647   3.782   5.370  13.806  0.2252 -0.2073  1.0804
 2719TIP3    H129648   3.819   5.304  13.748  0.9850 -0.8554  2.2929
 2719TIP3    H229649   3.851   5.388  13.870 -1.2875 -0.9098  2.9401
 2720TIP3   OH229650   4.648   4.662  16.156 -0.1028 -0.0876  0.4368
 2720TIP3    H129651   4.728   4.715  16.145  1.1793 -2.0092  0.1716
 2720TIP3    H229652   4.649   4.602  16.081 -2.4124  0.5958 -0.1732
 2721TIP3   OH229653   0.603   0.347   3.327  0.0264  0.1317  0.3229
 2721TIP3    H129654   0.626   0.349   3.234  0.8242 -0.2749  0.5016
 2721TIP3    H229655   0.522   0.296   3.331 -0.3741  0.7247 -0.2210
 2722TIP3   OH229656   1.968   3.566   0.368 -0.1785  0.3673 -1.0536
 2722TIP3    H129657   1.989   3.556   0.461  0.9360 -1.0122 -1.4508
 2722TIP3    H229658   1.947   3.659   0.358 -1.0104  0.3835  0.7211
 2723TIP3   OH229659   4.269   4.425   4.195  0.1470 -0.2975  0.8251
 2723TIP3    H129660   4.359   4.414   4.166 -0.4376 -0.7621 -0.8423
 2723TIP3    H229661   4.238   4.504   4.150 -0.8747 -1.2145 -0.1021
 2724TIP3   OH229662   4.825   1.831   0.497 -0.4771  0.3518  0.4450
 2724TIP3    H129663   4.812   1.775   0.421 -0.6080 -1.0529  1.4800
 2724TIP3    H229664   4.741   1.828   0.543 -0.4326  1.2808  0.5967
 2725TIP3   OH229665   0.765   6.584  12.279  0.3068 -0.3179  0.0375
 2725TIP3    H129666   0.790   6.654  12.219 -0.9820  0.4650  0.4079
 2725TIP3    H229667   0.701   6.531  12.231  1.0282 -1.0655 -0.1238
 2726TIP3   OH229668   4.715   3.150   3.135  0.0299 -0.2194 -0.3472
 2726TIP3    H129669   4.728   3.055   3.134 -0.3726 -0.2704 -1.0539
 2726TIP3    H229670   4.620   3.160   3.146  0.3753  0.1294  3.0563
 2727TIP3   OH229671   6.517   5.282  14.997  0.3889  0.1151 -0.0218
 2727TIP3    H129672   6.439   5.326  15.031  1.4169  2.2515 -0.3902
 2727TIP3    H229673   6.590   5.320  15.045  1.5364  0.7360 -2.1674
 2728TIP3   OH229674   6.558   5.982  11.869  0.0307  0.3709 -0.3055
 2728TIP3    H129675   6.631   5.990  11.808 -0.3275  0.6809 -0.7049
 2728TIP3    H229676   6.481   6.002  11.815 -0.3363  0.0959  0.1210
 2729TIP3   OH229677   4.131   6.501   3.782 -0.8066 -0.1624  0.9883
 2729TIP3    H129678   4.155   6.455   3.863  0.3994 -1.3422 -0.0318
 2729TIP3    H229679   4.054   6.455   3.750 -0.3709 -0.6436  0.6463
 2730TIP3   OH229680   2.839   0.041   2.458 -0.0563 -0.1748  0.1929
 2730TIP3    H129681   2.895   0.067   2.385  0.9333 -0.3208  0.9005
 2730TIP3    H229682   2.863  -0.050   2.477 -0.2434 -0.1112  0.7610
 2731TIP3   OH229683   0.041   2.326  11.479 -0.1777  0.3422  0.6007
 2731TIP3    H129684   0.022   2.420  11.473  1.2319  0.7311  1.9383
 2731TIP3    H229685   0.048   2.308  11.573 -0.9336 -1.2140  0.3756
 2732TIP3   OH229686   4.272   2.905   3.229 -0.1223 -0.2111 -0.2099
 2732TIP3    H129687   4.280   2.951   3.312  2.6131 -0.1568 -0.4435
 2732TIP3    H229688   4.207   2.837   3.244  0.0605  0.0590  1.8519
 2733TIP3   OH229689   2.139   2.204   2.012  0.3480  0.3147 -0.3092
 2733TIP3    H129690   2.164   2.282   2.062  3.1394  0.4206 -1.7639
 2733TIP3    H229691   2.160   2.131   2.070  0.3911  0.5458 -0.0301
 2734TIP3   OH229692   5.053   2.566   1.629 -0.1644  0.4192 -0.4453
 2734TIP3    H129693   5.069   2.496   1.566  1.8653  0.9224 -0.5202
 2734TIP3    H229694   5.133   2.618   1.628 -1.6846  2.8418 -0.4971
 2735TIP3   OH229695   2.843   2.273   5.219  0.0671  0.6800  0.7303
 2735TIP3    H129696   2.910   2.276   5.150  0.0531 -0.6775  0.6422
 2735TIP3    H229697   2.889   2.237   5.295 -0.9810 -2.0067  0.1479
 2736TIP3   OH229698   1.123   2.329   3.448 -0.1198  0.1813  0.0571
 2736TIP3    H129699   1.139   2.393   3.379  1.9390 -1.8019 -1.3533
 2736TIP3    H229700   1.142   2.377   3.529  0.5360  1.5931 -0.9110
 2737TIP3   OH229701   5.052   4.563  17.109  0.7557 -0.4689  0.0387
 2737TIP3    H129702   5.073   4.501  17.039 -0.8712 -0.8636 -0.1181
 2737TIP3    H229703   5.089   4.522  17.188  1.9732 -0.3657 -0.4696
 2738TIP3   OH229704   2.201   1.740   4.966  0.0054 -0.0118  0.0574
 2738TIP3    H129705   2.177   1.792   4.889 -1.1256  0.4769  0.7118
 2738TIP3    H229706   2.288   1.707   4.947  0.3159  1.2771 -0.8325
 2739TIP3   OH229707   3.383   6.086  14.363  0.0218  0.3572 -0.1755
 2739TIP3    H129708   3.375   5.991  14.370 -1.2763  0.4958  0.5473
 2739TIP3    H229709   3.429   6.100  14.280  1.6516 -0.9372  0.4867
 2740TIP3   OH229710   2.664   3.976  11.457  0.6892  0.0629 -0.6060
 2740TIP3    H129711   2.709   4.060  11.469  0.1980  0.1937  0.3269
 2740TIP3    H229712   2.652   3.942  11.546 -1.2203  0.1120 -0.8218
 2741TIP3   OH229713   0.422   5.475   4.477  0.4664 -0.0354 -0.0277
 2741TIP3    H129714   0.416   5.407   4.410  2.3562 -1.4452  1.1894
 2741TIP3    H229715   0.352   5.454   4.539 -0.0043  0.1119 -0.5041
 2742TIP3   OH229716   3.924   4.907   4.584  0.0208  0.8434  0.2209
 2742TIP3    H129717   3.995   4.924   4.646  1.6639  0.1885 -1.4368
 2742TIP3    H229718   3.933   4.815   4.562  0.0990  1.3124 -1.7804
 2743TIP3   OH229719   6.616   4.788  11.814 -0.3388  0.5157  0.0567
 2743TIP3    H129720   6.581   4.707  11.778 -0.4733 -0.2932  1.9078
 2743TIP3    H229721   6.631   4.844  11.739 -0.2057 -1.2476 -1.2601
 2744TIP3   OH229722   5.179   3.378  15.903  0.4894  0.4912 -0.6277
 2744TIP3    H129723   5.131   3.368  15.820  0.9763 -0.6180 -0.7791
 2744TIP3    H229724   5.115   3.420  15.962 -0.7993 -1.2699 -0.7297
 2745TIP3   OH229725   2.693   5.959   6.499  0.2853  0.8176 -0.0691
 2745TIP3    H129726   2.629   5.955   6.428 -0.7488  0.8607  0.8306
 2745TIP3    H229727   2.721   5.868   6.512  0.6296  0.8391 -0.6670
 2746TIP3   OH229728   3.072   6.383  16.022  0.2268  0.3919 -0.5759
 2746TIP3    H129729   3.029   6.411  15.941  1.4713  2.0324 -0.6900
 2746TIP3    H229730   3.031   6.299  16.044  0.0985 -0.2137 -3.0655
 2747TIP3   OH229731   4.616   6.718  12.159  0.1157 -0.2591  0.4774
 2747TIP3    H129732   4.628   6.722  12.254 -1.5644  0.0420  0.6853
 2747TIP3    H229733   4.654   6.800  12.127  0.4130 -0.2236  0.9119
 2748TIP3   OH229734   3.666   5.814  14.385  0.7009  0.4540 -0.4807
 2748TIP3    H129735   3.576   5.815  14.417  1.9576  3.5420  3.3436
 2748TIP3    H229736   3.703   5.733  14.421  0.3635  0.8304  0.7316
 2749TIP3   OH229737   1.606   4.260  16.475  0.4997  0.1748  0.1105
 2749TIP3    H129738   1.650   4.332  16.430 -0.2809  0.3635 -0.3606
 2749TIP3    H229739   1.532   4.300  16.521  1.2954 -0.0164  1.5929
 2750TIP3   OH229740   6.089   6.111  11.654 -0.7567  0.2499 -0.3370
 2750TIP3    H129741   6.067   6.198  11.689  1.1225  0.2388  0.9823
 2750TIP3    H229742   6.077   6.052  11.728  0.5201 -0.2127 -0.4932
 2751TIP3   OH229743   5.938   3.584  14.734 -0.4856  0.1102 -0.0209
 2751TIP3    H129744   5.867   3.586  14.669 -1.5168  2.2110  1.1251
 2751TIP3    H229745   5.962   3.491  14.740 -2.8749 -0.6009 -0.7170
 2752TIP3   OH229746   2.576   1.526   2.617 -0.2724  0.2843 -0.1046
 2752TIP3    H129747   2.609   1.611   2.646  0.6979  0.4530 -1.6478
 2752TIP3    H229748   2.651   1.467   2.627 -1.0865 -0.5054  1.4211
 2753TIP3   OH229749   2.109   2.648   5.558  0.2410 -0.0030  0.9778
 2753TIP3    H129750   2.167   2.579   5.528  0.4909  1.5991 -2.4705
 2753TIP3    H229751   2.032   2.602   5.591  1.1532 -1.9583  0.4689
 2754TIP3   OH229752   4.733   1.702   5.485  0.3480 -0.3076  0.4015
 2754TIP3    H129753   4.680   1.637   5.439  0.6566 -1.1600  1.2412
 2754TIP3    H229754   4.791   1.737   5.417 -1.6153  1.0093 -0.6473
 2755TIP3   OH229755   3.251   5.798   3.217 -0.1177  0.0273 -0.2064
 2755TIP3    H129756   3.292   5.747   3.148 -0.3856 -0.1365 -0.2455
 2755TIP3    H229757   3.296   5.772   3.297  1.3686  1.4739 -0.5419
 2756TIP3   OH229758   6.486   5.385   4.634  0.2684 -0.7079  0.2930
 2756TIP3    H129759   6.470   5.392   4.540 -0.6653  1.2037  0.5673
 2756TIP3    H229760   6.461   5.295   4.656 -2.2382 -0.3266 -0.7915
 2757TIP3   OH229761   2.481   6.229   1.152  0.1245 -0.3470  0.1104
 2757TIP3    H129762   2.543   6.295   1.184 -1.2434  1.5217 -0.9892
 2757TIP3    H229763   2.423   6.213   1.227  0.9599 -0.9410  0.6444
 2758TIP3   OH229764   0.736   0.549  16.251 -0.1663 -0.1446 -0.4106
 2758TIP3    H129765   0.742   0.477  16.188  0.8203  0.3029 -0.8380
 2758TIP3    H229766   0.662   0.525  16.308 -0.9474 -0.6458 -1.6164
 2759TIP3   OH229767   5.062   0.355  14.969 -0.0942  0.6382 -0.7130
 2759TIP3    H129768   4.974   0.349  15.007  0.0839 -0.3378 -0.4679
 2759TIP3    H229769   5.102   0.428  15.016 -0.7379  1.0350 -0.7623
 2760TIP3   OH229770   2.403   4.025   5.364  0.2486 -0.2742  1.3790
 2760TIP3    H129771   2.352   4.034   5.444 -0.9134  3.5678  0.3141
 2760TIP3    H229772   2.478   4.084   5.376  1.6546 -1.9121  0.8147
 2761TIP3   OH229773   0.849   5.988   5.912 -0.2772  0.2123 -0.0599
 2761TIP3    H129774   0.929   6.004   5.863 -0.4905  1.2181 -0.0754
 2761TIP3    H229775   0.872   6.005   6.003 -0.0843 -0.9291  0.1191
 2762TIP3   OH229776   4.867   1.009  11.871  0.2732  0.5521 -0.1879
 2762TIP3    H129777   4.805   0.980  11.804 -0.4690 -0.4603  0.9085
 2762TIP3    H229778   4.914   1.082  11.831 -2.1195  1.8199 -0.8019
 2763TIP3   OH229779   5.637   6.321   1.268  0.2687  0.1757  0.2497
 2763TIP3    H129780   5.618   6.272   1.188 -2.8202  0.5925  0.6812
 2763TIP3    H229781   5.730   6.344   1.261  1.0818 -3.2439 -1.2987
 2764TIP3   OH229782   0.847   5.441   5.396  0.1655  0.6237  0.4377
 2764TIP3    H129783   0.917   5.506   5.401 -0.4209  1.2091  1.1371
 2764TIP3    H229784   0.817   5.431   5.486 -0.7913  0.5353  0.1129
 2765TIP3   OH229785   4.925   4.193  11.209  0.0880 -0.0484 -0.5847
 2765TIP3    H129786   4.980   4.140  11.150 -1.0158 -1.3288 -0.4992
 2765TIP3    H229787   4.858   4.231  11.151  1.5504  2.2276 -0.8339
 2766TIP3   OH229788   3.208   6.558   3.012  0.4115  0.7283 -0.0207
 2766TIP3    H129789   3.170   6.627   2.957 -0.2523 -0.2250 -0.7628
 2766TIP3    H229790   3.188   6.585   3.101 -0.0410  1.3812 -0.3171
 2767TIP3   OH229791   3.516   0.015   3.525  0.0031 -0.0785 -0.5037
 2767TIP3    H129792   3.477   0.078   3.585  0.5712  0.1051 -0.3215
 2767TIP3    H229793   3.463  -0.063   3.534 -0.6661  0.3497 -0.6793
 2768TIP3   OH229794   3.174   4.069   5.223  0.2360  0.2143  0.0732
 2768TIP3    H129795   3.135   4.138   5.276 -0.2784 -0.0919  0.0892
 2768TIP3    H229796   3.238   4.115   5.168  0.7188  0.5385  0.8995
 2769TIP3   OH229797   4.577   0.191  14.149 -0.0076 -0.4803 -0.2050
 2769TIP3    H129798   4.648   0.164  14.091 -1.5106  0.0974 -2.3803
 2769TIP3    H229799   4.515   0.118  14.146 -0.4926 -0.0783  0.0121
 2770TIP3   OH229800   4.092   4.907  11.945  0.4327 -0.2149 -0.2441
 2770TIP3    H129801   4.168   4.930  11.891  0.9879  0.7956  0.9684
 2770TIP3    H229802   4.087   4.811  11.938  0.4316 -0.1096 -2.1534
 2771TIP3   OH229803   3.735   2.510   3.250  0.1403 -0.1042  0.0610
 2771TIP3    H129804   3.721   2.602   3.274  0.6407 -0.1260  0.4326
 2771TIP3    H229805   3.715   2.461   3.329  0.4120 -0.2789  0.0213
 2772TIP3   OH229806   6.687   5.342   1.681 -0.5810 -0.8290 -0.1873
 2772TIP3    H129807   6.728   5.278   1.624 -1.3367 -0.2773 -1.3689
 2772TIP3    H229808   6.683   5.422   1.628 -0.5587 -0.0829  0.9193
 2773TIP3   OH229809   1.599   4.980   4.108  0.3487 -0.2107  0.1691
 2773TIP3    H129810   1.530   5.046   4.116 -0.3649 -0.7155 -1.5357
 2773TIP3    H229811   1.552   4.899   4.091  1.4144 -0.2264 -2.9660
 2774TIP3   OH229812   3.790   2.842  15.173 -0.1825  0.1038  0.3630
 2774TIP3    H129813   3.839   2.783  15.115 -0.0171  0.1892  0.4190
 2774TIP3    H229814   3.709   2.794  15.192 -0.6880  0.4848 -0.7399
 2775TIP3   OH229815   5.885   5.390  12.762  0.3290  0.1132  0.0601
 2775TIP3    H129816   5.804   5.426  12.724  1.0867  3.4686  1.4014
 2775TIP3    H229817   5.862   5.373  12.853  1.0329  0.8325  0.3783
 2776TIP3   OH229818   0.412   5.231   4.363 -0.2526 -0.3669 -0.3829
 2776TIP3    H129819   0.504   5.205   4.358 -0.3656 -0.7718 -0.3538
 2776TIP3    H229820   0.382   5.197   4.447 -0.2666  0.2873 -0.1207
 2777TIP3   OH229821   2.454   4.453   1.508 -0.5169 -0.1280  0.1329
 2777TIP3    H129822   2.485   4.541   1.530  0.2170 -0.6925  1.3914
 2777TIP3    H229823   2.488   4.397   1.578 -0.9852 -1.4168 -0.6531
 2778TIP3   OH229824   1.726   3.009   5.032 -0.3783 -0.1877 -0.2867
 2778TIP3    H129825   1.722   3.103   5.050 -1.3011 -0.0895 -1.0219
 2778TIP3    H229826   1.768   2.972   5.110  1.5238  1.0250 -0.6927
 2779TIP3   OH229827   6.350   2.887   2.754 -0.4912 -0.2912  0.4456
 2779TIP3    H129828   6.409   2.840   2.695 -0.7217 -0.4956  0.3792
 2779TIP3    H229829   6.346   2.833   2.833  0.2827  0.2760  0.8868
 2780TIP3   OH229830   3.934   0.913  12.154  0.0939 -0.1994 -0.0033
 2780TIP3    H129831   3.883   0.905  12.234 -0.6213 -2.1350 -0.6348
 2780TIP3    H229832   3.898   0.991  12.111 -0.4128  0.0718  0.8979
 2781TIP3   OH229833   3.773   5.997   2.577 -0.3135  0.7068  0.3130
 2781TIP3    H129834   3.705   6.053   2.539 -2.4210 -1.8145  0.2372
 2781TIP3    H229835   3.739   5.973   2.664 -0.4128 -2.0462 -0.4398
 2782TIP3   OH229836   0.025   2.992   2.980 -0.5400  0.5747  0.1008
 2782TIP3    H129837  -0.053   2.951   3.019 -0.8969  0.8469 -0.3248
 2782TIP3    H229838   0.066   3.039   3.053  0.3214 -1.1888  0.7851
 2783TIP3   OH229839   5.376   1.042  10.991 -0.2131 -0.2595  0.3197
 2783TIP3    H129840   5.400   0.999  10.909  0.8622  2.1464 -0.6894
 2783TIP3    H229841   5.445   1.018  11.052  0.3222 -0.0598 -0.2003
 2784TIP3   OH229842   6.351   1.412   1.525 -0.0067 -0.2372  0.4932
 2784TIP3    H129843   6.412   1.474   1.565  1.5079 -0.9023 -0.7528
 2784TIP3    H229844   6.403   1.333   1.510 -1.4347 -1.1630  0.3304
 2785TIP3   OH229845   2.037   3.884  15.081 -0.1373 -0.3578  0.1082
 2785TIP3    H129846   2.011   3.971  15.110 -0.8488 -0.1884 -0.9997
 2785TIP3    H229847   2.128   3.876  15.108 -0.6868 -0.1023  2.0919
 2786TIP3   OH229848   6.243   5.770  15.952  0.2512  0.5653 -0.5292
 2786TIP3    H129849   6.333   5.791  15.978  0.3518  2.6953 -2.4459
 2786TIP3    H229850   6.237   5.798  15.861 -2.7667  1.7757 -0.0259
 2787TIP3   OH229851   4.473   0.265   5.828 -0.1222 -0.1433  0.5500
 2787TIP3    H129852   4.420   0.344   5.821 -0.0284 -0.1689 -0.5372
 2787TIP3    H229853   4.411   0.193   5.820 -0.0250 -0.1758  0.0899
 2788TIP3   OH229854   2.994   1.205   4.914 -0.4180  0.6353 -0.0022
 2788TIP3    H129855   2.932   1.214   4.986 -0.3312 -2.0558  0.4679
 2788TIP3    H229856   3.068   1.260   4.937 -1.6589  2.1167  0.5118
 2789TIP3   OH229857   5.422   2.491  14.345 -0.1024  0.3625 -0.1143
 2789TIP3    H129858   5.514   2.482  14.321  0.5363  0.8305  2.0235
 2789TIP3    H229859   5.396   2.577  14.312  0.7368  0.9762  0.8197
 2790TIP3   OH229860   2.427   2.043  16.082  0.1672 -0.1826  0.1005
 2790TIP3    H129861   2.440   2.012  16.172  0.5432  3.1904  1.3013
 2790TIP3    H229862   2.401   2.135  16.093  2.2540  0.8905 -3.3069
 2791TIP3   OH229863   0.601   1.024  16.229  0.5359  0.2510 -0.5052
 2791TIP3    H129864   0.629   1.115  16.237  1.6268 -0.0525 -0.8061
 2791TIP3    H229865   0.682   0.973  16.232 -0.0621 -0.7066 -0.3871
 2792TIP3   OH229866   6.755   0.566   3.177 -0.0936 -0.5381  0.2347
 2792TIP3    H129867   6.742   0.491   3.235  0.3594 -0.4965  0.3959
 2792TIP3    H229868   6.745   0.642   3.234  1.4360 -0.5138  0.5006
 2793TIP3   OH229869   4.469   5.429   2.708  0.4425 -0.5295 -0.5472
 2793TIP3    H129870   4.449   5.460   2.797  0.7357 -2.9851  0.4390
 2793TIP3    H229871   4.561   5.452   2.695  0.2705  0.2526 -0.3961
 2794TIP3   OH229872   4.233   4.945  16.137  0.4412  0.2462 -0.6501
 2794TIP3    H129873   4.234   4.883  16.211 -1.4061  0.7492 -0.1722
 2794TIP3    H229874   4.289   5.017  16.165 -0.7672  0.7452  0.5793
 2795TIP3   OH229875   1.356   1.408   1.077 -0.5357 -0.2870 -0.4412
 2795TIP3    H129876   1.269   1.416   1.115 -0.3381 -0.1641 -0.0081
 2795TIP3    H229877   1.381   1.316   1.092 -0.7590 -0.4295 -0.9351
 2796TIP3   OH229878   2.410   3.189  15.674  0.0788  0.0533  0.2613
 2796TIP3    H129879   2.345   3.141  15.622  1.6350 -1.2498 -0.5323
 2796TIP3    H229880   2.480   3.126  15.690  1.9027  1.8639 -0.2663
 2797TIP3   OH229881   6.769   4.463  11.388 -0.3544  0.2304  0.2901
 2797TIP3    H129882   6.712   4.540  11.388  1.2277  1.4149  0.0066
 2797TIP3    H229883   6.824   4.474  11.310  0.6352 -0.6087  0.8648
 2798TIP3   OH229884   5.660   6.532  17.010 -0.2276 -0.9695  0.0799
 2798TIP3    H129885   5.667   6.535  17.106 -1.9674 -3.6267  0.3642
 2798TIP3    H229886   5.593   6.465  16.994  0.3128 -0.8166 -3.0160
 2799TIP3   OH229887   3.440   2.555   4.781 -0.3154  0.4579  0.2985
 2799TIP3    H129888   3.520   2.566   4.832  0.6036 -0.5458 -0.9224
 2799TIP3    H229889   3.369   2.570   4.845  0.8036 -0.7167  1.8472
 2800TIP3   OH229890   4.260   3.488  15.393 -0.2676  0.3194  0.0621
 2800TIP3    H129891   4.208   3.415  15.360  0.4962  0.3051 -1.1405
 2800TIP3    H229892   4.350   3.455  15.392 -0.1430  0.5780  1.4587
 2801TIP3   OH229893   1.408   5.995  16.402 -0.0262 -0.0787  0.3953
 2801TIP3    H129894   1.320   5.962  16.386 -0.3924 -0.1167  2.3866
 2801TIP3    H229895   1.461   5.917  16.419  0.3507 -0.0323 -0.4892
 2802TIP3   OH229896   5.740   3.294  11.111 -0.1685  0.4000 -0.1335
 2802TIP3    H129897   5.684   3.246  11.050  1.1447 -0.9200 -0.3249
 2802TIP3    H229898   5.724   3.252  11.195 -1.1463  1.5016  0.2495
 2803TIP3   OH229899   1.544   3.770  10.998  0.0861  0.4130  0.0123
 2803TIP3    H129900   1.613   3.835  11.008 -1.8612  2.3358  1.5561
 2803TIP3    H229901   1.493   3.800  10.923  1.2805 -1.3965 -1.5830
 2804TIP3   OH229902   2.162   4.200   4.992 -0.0150  0.1882 -0.3200
 2804TIP3    H129903   2.247   4.189   4.950 -0.1953  0.1042 -0.6637
 2804TIP3    H229904   2.167   4.285   5.035  0.1063  0.3500 -0.6560
 2805TIP3   OH229905   4.062   3.338  14.485  0.1712 -0.1957 -0.4012
 2805TIP3    H129906   3.972   3.314  14.463 -0.3722  0.4551  1.0026
 2805TIP3    H229907   4.073   3.426  14.449  0.3651 -0.4159 -0.8796
 2806TIP3   OH229908   2.835   4.529   0.657  0.0526 -0.0206 -0.2206
 2806TIP3    H129909   2.908   4.573   0.702 -0.5850  0.4121  0.3995
 2806TIP3    H229910   2.761   4.589   0.666 -0.8744 -1.2941  0.7795
 2807TIP3   OH229911   4.384   4.793  14.127 -0.0918  0.9504 -0.6634
 2807TIP3    H129912   4.293   4.783  14.099 -0.3677  1.9400 -0.1440
 2807TIP3    H229913   4.378   4.840  14.210  0.7301 -1.7354  0.9497
 2808TIP3   OH229914   0.883   6.623   4.643  0.3327 -0.1682 -0.0648
 2808TIP3    H129915   0.846   6.634   4.730  1.7831  1.5354  0.3551
 2808TIP3    H229916   0.974   6.596   4.658 -0.3312 -3.2231 -1.0786
 2809TIP3   OH229917   4.547   1.757  12.868  0.2186  0.3023 -0.0541
 2809TIP3    H129918   4.550   1.786  12.777  0.4721 -0.8754 -0.4252
 2809TIP3    H229919   4.635   1.723  12.886 -0.2256 -0.7049  0.2203
 2810TIP3   OH229920   5.904   4.972  16.910  0.0004 -0.3682  0.3857
 2810TIP3    H129921   5.979   5.030  16.902 -0.8557  0.7192  0.2457
 2810TIP3    H229922   5.860   5.000  16.990 -1.4253  0.3644 -0.6356
 2811TIP3   OH229923   4.359   6.755  11.151 -0.0936  0.1313  0.0988
 2811TIP3    H129924   4.386   6.770  11.061 -1.3576 -1.2286 -0.5380
 2811TIP3    H229925   4.274   6.798  11.159 -0.5181 -0.7091  0.2774
 2812TIP3   OH229926   2.892   4.676  13.472  0.5299  0.3235 -0.2332
 2812TIP3    H129927   2.897   4.581  13.479  0.7367  0.4261  1.1852
 2812TIP3    H229928   2.935   4.708  13.551  0.6911  1.6018 -0.8240
 2813TIP3   OH229929   3.759   1.390  15.758  0.0382  0.4253  0.1691
 2813TIP3    H129930   3.714   1.361  15.838  2.0283 -1.4190  0.6809
 2813TIP3    H229931   3.774   1.309  15.709  0.6618  1.3025 -1.1028
 2814TIP3   OH229932   5.355   5.540   2.782  0.6741 -0.9857 -0.5206
 2814TIP3    H129933   5.343   5.528   2.688  0.0017  0.7489 -0.6846
 2814TIP3    H229934   5.294   5.479   2.823 -0.0923 -0.7053 -1.2386
 2815TIP3   OH229935   5.647   0.376   2.912 -0.5503 -0.1626 -0.1549
 2815TIP3    H129936   5.721   0.394   2.971 -1.2668 -1.4830  1.1900
 2815TIP3    H229937   5.683   0.320   2.844 -0.5760 -1.9213  1.2364
 2816TIP3   OH229938   5.896   3.664   4.208 -0.1880 -0.7380  0.1641
 2816TIP3    H129939   5.860   3.749   4.234 -2.1057 -1.0565 -1.4266
 2816TIP3    H229940   5.948   3.637   4.284  0.1966  1.6818  0.8250
 2817TIP3   OH229941   5.829   3.864  15.108  0.3272  0.0751  0.8047
 2817TIP3    H129942   5.751   3.861  15.054  0.8087  1.0865  0.0369
 2817TIP3    H229943   5.816   3.794  15.173 -0.8248 -0.3036  0.1825
 2818TIP3   OH229944   1.498   4.953  16.283 -0.1930 -0.1337  0.0076
 2818TIP3    H129945   1.574   5.001  16.250 -0.8300  0.3419 -0.7908
 2818TIP3    H229946   1.458   4.914  16.205 -3.0079  2.8506 -0.1430
 2819TIP3   OH229947   4.935   5.337  14.706  0.2113  0.0387  0.2785
 2819TIP3    H129948   4.910   5.322  14.797  0.7270  0.0634  0.4264
 2819TIP3    H229949   5.018   5.385  14.711  1.2800 -1.7051 -0.1919
 2820TIP3   OH229950   4.330   1.781  14.287 -0.4356  0.1831  0.5246
 2820TIP3    H129951   4.414   1.813  14.322  0.1981 -1.6226  0.7108
 2820TIP3    H229952   4.264   1.819  14.345  0.1710  2.3125 -0.1292
 2821TIP3   OH229953   6.780   3.944   2.437  0.5944  0.1348  0.1091
 2821TIP3    H129954   6.820   3.922   2.353  1.1204 -0.9379  0.6365
 2821TIP3    H229955   6.855   3.958   2.495  0.2194 -1.8136  1.0852
 2822TIP3   OH229956   4.237   3.056  14.991  0.0360  0.3664  0.6645
 2822TIP3    H129957   4.178   3.131  14.975  1.1845  0.6906 -2.4570
 2822TIP3    H229958   4.318   3.096  15.022  0.1356  0.3013  0.4907
 2823TIP3   OH229959   3.854   1.585   2.671  1.1091 -0.1225  0.2809
 2823TIP3    H129960   3.822   1.673   2.690 -1.3099 -0.9795  0.2953
 2823TIP3    H229961   3.898   1.594   2.586  0.9252  1.0967  0.3019
 2824TIP3   OH229962   5.874   1.384  15.682 -0.6358 -0.2856  0.0532
 2824TIP3    H129963   5.899   1.442  15.755 -0.4847  2.1752 -1.9068
 2824TIP3    H229964   5.949   1.387  15.623 -1.3114 -1.2440 -0.8610
 2825TIP3   OH229965   1.051   3.225  15.601 -0.1629 -0.0544 -0.5030
 2825TIP3    H129966   1.131   3.270  15.626  0.1830 -2.2099  2.5729
 2825TIP3    H229967   0.985   3.258  15.663  0.0617 -3.5058  1.6879
 2826TIP3   OH229968   6.478   0.780  15.048  0.1028 -0.2345 -0.3757
 2826TIP3    H129969   6.496   0.724  15.123 -0.1528 -0.3503 -0.3989
 2826TIP3    H229970   6.413   0.842  15.080 -0.9697 -1.0932 -0.8639
 2827TIP3   OH229971   5.457   5.990  14.924 -0.1777  0.1643 -0.3571
 2827TIP3    H129972   5.489   6.011  14.836  0.1132  2.6349  0.3001
 2827TIP3    H229973   5.391   6.056  14.942 -2.0368 -1.8419  0.3257
 2828TIP3   OH229974   2.635   3.731   6.543 -0.0844 -0.5085  0.1502
 2828TIP3    H129975   2.555   3.681   6.533  0.6557 -1.4790 -1.1117
 2828TIP3    H229976   2.693   3.699   6.474  0.5491  1.8363 -0.4762
 2829TIP3   OH229977   6.781   3.158  13.368  0.0447  0.1448 -0.4501
 2829TIP3    H129978   6.819   3.228  13.421 -2.4261 -0.6746  2.5689
 2829TIP3    H229979   6.831   3.079  13.392  0.7184  0.2433 -1.4614
 2830TIP3   OH229980   1.753   3.766   1.758 -0.0127 -0.3933 -0.2987
 2830TIP3    H129981   1.772   3.709   1.833  3.1178 -0.3066 -0.9620
 2830TIP3    H229982   1.787   3.852   1.783  0.4013 -0.1901 -1.4973
 2831TIP3   OH229983   4.839   5.971   3.954  0.7553 -0.0666  0.2175
 2831TIP3    H129984   4.900   6.011   3.892 -0.0196 -1.8655 -1.7672
 2831TIP3    H229985   4.886   5.896   3.989 -0.0228 -1.0566 -0.8043
 2832TIP3   OH229986   0.412   5.397  12.354 -0.7969 -0.0268 -0.6985
 2832TIP3    H129987   0.394   5.431  12.266 -1.8071  1.9155  0.2359
 2832TIP3    H229988   0.491   5.443  12.381 -1.3481  0.5155  0.0009
 2833TIP3   OH229989   4.544   1.949  10.602 -0.8057 -0.1586  0.2763
 2833TIP3    H129990   4.479   1.880  10.592 -0.7094 -0.3182  0.7310
 2833TIP3    H229991   4.628   1.903  10.603 -0.6642  0.0688 -0.5687
 2834TIP3   OH229992   2.770   4.520  16.480 -0.4162  0.5058  0.2989
 2834TIP3    H129993   2.860   4.488  16.479  0.3032  2.4494 -0.8932
 2834TIP3    H229994   2.741   4.508  16.570  1.2016  0.2719  0.8107
 2835TIP3   OH229995   2.996   0.111   1.453 -0.1197 -0.6101 -0.4079
 2835TIP3    H129996   3.052   0.111   1.375  0.2283  1.9627 -0.1803
 2835TIP3    H229997   3.055   0.134   1.525 -0.8749 -0.8516  0.2917
 2836TIP3   OH229998   1.370   4.779  14.988 -0.1834 -0.0170 -0.2282
 2836TIP3    H129999   1.322   4.697  14.974  1.0893 -0.7746 -0.2588
 2836TIP3    H230000   1.377   4.818  14.901  0.5630 -0.6522 -0.4580
 2837TIP3   OH230001   3.743   0.593  10.739  0.5334  0.4174 -0.0879
 2837TIP3    H130002   3.796   0.518  10.714 -0.3605 -0.8255  1.6010
 2837TIP3    H230003   3.765   0.661  10.676 -1.1158 -2.3304 -3.8120
 2838TIP3   OH230004   2.855   6.651  14.740 -0.3271 -0.5354 -0.3684
 2838TIP3    H130005   2.818   6.738  14.754 -3.6435 -1.6750 -1.4346
 2838TIP3    H230006   2.907   6.658  14.660 -0.7430  0.4212 -0.5588
 2839TIP3   OH230007   3.774   6.692   5.056  0.3218 -0.0741  0.1148
 2839TIP3    H130008   3.792   6.605   5.019  0.4620 -0.5305  1.2298
 2839TIP3    H230009   3.728   6.673   5.138  0.9893  0.8831  0.7176
 2840TIP3   OH230010   0.564   2.760  16.104 -0.2986 -0.3714 -0.0062
 2840TIP3    H130011   0.549   2.734  16.195 -2.3654  0.4311 -0.0767
 2840TIP3    H230012   0.492   2.719  16.055  1.2028 -1.4143 -1.4236
 2841TIP3   OH230013   3.839   5.516   1.385  0.0681 -0.4269  0.0165
 2841TIP3    H130014   3.785   5.451   1.430  2.0690 -0.1274  2.9985
 2841TIP3    H230015   3.779   5.589   1.368 -1.0658 -1.1159  0.9629
 2842TIP3   OH230016   4.985   0.167  16.532  0.3924 -0.1353 -0.5002
 2842TIP3    H130017   5.028   0.248  16.558 -2.6085  0.3766  3.3038
 2842TIP3    H230018   5.020   0.101  16.593 -2.4099 -0.1437  1.2031
 2843TIP3   OH230019   3.071   2.820  16.981 -0.5420  0.6995 -0.2317
 2843TIP3    H130020   3.159   2.845  16.953 -0.4608  0.7185  0.0443
 2843TIP3    H230021   3.073   2.725  16.985 -0.5908  0.6903 -0.4092
 2844TIP3   OH230022   2.963   5.061   2.524 -0.1852 -0.4300  0.4915
 2844TIP3    H130023   2.989   5.102   2.606  0.0217 -0.1267  0.2787
 2844TIP3    H230024   2.896   4.998   2.548  0.1032 -0.5674  0.9306
 2845TIP3   OH230025   5.804   4.777  15.973 -0.1586  0.7215 -0.2192
 2845TIP3    H130026   5.760   4.773  15.887  0.1771  1.6894 -0.4396
 2845TIP3    H230027   5.778   4.696  16.016 -3.5389  2.0054  0.3020
 2846TIP3   OH230028   3.063   0.734  16.520 -0.3899 -0.2311  0.3141
 2846TIP3    H130029   3.042   0.794  16.449  0.8504 -0.9307 -0.6697
 2846TIP3    H230030   3.050   0.647  16.483  1.5707 -0.6336  0.4916
 2847TIP3   OH230031   2.555   2.125  15.380  0.2589 -0.1331 -0.4461
 2847TIP3    H130032   2.520   2.043  15.414 -0.1174  0.4635  0.6441
 2847TIP3    H230033   2.514   2.193  15.434 -2.2795  1.0540 -3.6380
 2848TIP3   OH230034   2.966   1.735   3.110  0.4990  0.8506  0.0342
 2848TIP3    H130035   3.029   1.805   3.093  1.0058  0.7578  1.4901
 2848TIP3    H230036   2.978   1.674   3.038  1.9448  0.9321  0.1889
 2849TIP3   OH230037   2.809   6.532   3.018  0.3581  0.5714 -0.5517
 2849TIP3    H130038   2.735   6.543   2.958  0.4250  1.1252 -0.5287
 2849TIP3    H230039   2.878   6.589   2.983  0.8476 -0.0978 -0.6916
 2850TIP3   OH230040   6.690   5.494   4.417 -0.2205 -0.1681 -0.1487
 2850TIP3    H130041   6.668   5.577   4.373 -2.4944 -0.9330 -0.5134
 2850TIP3    H230042   6.689   5.429   4.347 -3.4794 -1.3344  0.8937
 2851TIP3   OH230043   2.099   2.800  14.876  0.5182 -0.3238  0.0609
 2851TIP3    H130044   2.044   2.779  14.801  1.2224 -0.1518 -0.5107
 2851TIP3    H230045   2.068   2.885  14.906 -0.2599 -0.7328  0.4365
 2852TIP3   OH230046   4.217   6.069  13.480  0.2189 -0.0353  0.2894
 2852TIP3    H130047   4.130   6.046  13.446  0.1903 -0.7927  0.8683
 2852TIP3    H230048   4.275   6.060  13.404 -0.5728  2.8315 -0.7052
 2853TIP3   OH230049   2.212   2.249  16.927  0.0289  0.1748  0.2219
 2853TIP3    H130050   2.278   2.307  16.888  0.8038 -1.1851 -0.5357
 2853TIP3    H230051   2.249   2.225  17.013  1.0967 -1.5082 -0.6781
 2854TIP3   OH230052   2.711   4.710   2.784  0.3770  0.0508 -0.2422
 2854TIP3    H130053   2.772   4.701   2.857  0.4160 -1.1356 -0.4072
 2854TIP3    H230054   2.700   4.621   2.751 -1.5569  0.2194 -0.1154
 2855TIP3   OH230055   6.560   3.609   0.055  0.9347 -0.3337  0.3946
 2855TIP3    H130056   6.501   3.680   0.029  0.4865 -1.0091 -0.4537
 2855TIP3    H230057   6.586   3.631   0.145  1.3011  1.2279 -0.0808
 2856TIP3   OH230058   5.670   6.170   4.176 -0.1938  0.7026 -0.7457
 2856TIP3    H130059   5.607   6.193   4.107 -0.0621 -0.4212 -1.2568
 2856TIP3    H230060   5.654   6.233   4.245 -0.7995  1.4289 -1.5341
 2857TIP3   OH230061   2.489   3.467  13.874  0.3927 -0.1508 -0.0592
 2857TIP3    H130062   2.448   3.486  13.958 -0.1003  1.6158 -0.6536
 2857TIP3    H230063   2.524   3.379  13.882  0.2293 -0.0391  1.9422
 2858TIP3   OH230064   3.657   1.308  16.053  0.4520 -0.3104  0.4048
 2858TIP3    H130065   3.593   1.374  16.026  0.5844  0.4589  1.9319
 2858TIP3    H230066   3.611   1.224  16.043  0.4085 -0.0348 -1.9060
 2859TIP3   OH230067   1.863   1.465  17.015  0.1611  0.4346 -0.1009
 2859TIP3    H130068   1.770   1.459  16.991 -0.0317  2.4018  0.0989
 2859TIP3    H230069   1.882   1.381  17.057 -1.2685 -0.3691 -1.0269
 2860TIP3   OH230070   6.754   5.879  12.792  0.1305  0.4044  0.1761
 2860TIP3    H130071   6.800   5.940  12.735  1.7801  0.6888  1.7616
 2860TIP3    H230072   6.686   5.931  12.835  0.6347  0.7999  0.4887
 2861TIP3   OH230073   5.452   2.692   5.807 -0.4634  0.5658  0.4267
 2861TIP3    H130074   5.403   2.733   5.879  2.7260  1.6437  2.0769
 2861TIP3    H230075   5.514   2.634   5.851  1.3111  0.9835 -1.4798
 2862TIP3   OH230076   0.488   4.172   1.966 -0.5129 -0.2766 -0.3516
 2862TIP3    H130077   0.448   4.091   1.934  1.2806 -0.9801 -0.8584
 2862TIP3    H230078   0.562   4.143   2.019 -1.1408  0.9901  1.2818
 2863TIP3   OH230079   0.176   1.860  16.233 -0.0574  0.0731  0.6018
 2863TIP3    H130080   0.116   1.927  16.266  0.9768  0.9983  0.6211
 2863TIP3    H230081   0.145   1.843  16.144 -0.1596  0.7798  0.4948
 2864TIP3   OH230082   5.431   4.866   5.147  0.6849 -0.3596  0.2514
 2864TIP3    H130083   5.468   4.949   5.176 -0.6191  0.7148 -1.0803
 2864TIP3    H230084   5.484   4.840   5.072 -1.2131  1.2179 -1.7034
 2865TIP3   OH230085   3.967   2.136   1.424 -0.1467 -0.4702 -0.5032
 2865TIP3    H130086   3.969   2.110   1.516 -1.5602 -2.0727 -0.8933
 2865TIP3    H230087   4.047   2.098   1.387  1.0441  1.2148  0.3096
 2866TIP3   OH230088   3.432   4.355   0.632 -0.1690  0.2519  0.5938
 2866TIP3    H130089   3.417   4.436   0.680 -0.1248  1.5474 -1.5173
 2866TIP3    H230090   3.521   4.328   0.657 -0.4964  0.3866  1.9378
 2867TIP3   OH230091   4.513   6.323   1.579 -0.6889 -0.1914  0.0358
 2867TIP3    H130092   4.458   6.248   1.602  0.2630 -1.0193 -0.3496
 2867TIP3    H230093   4.497   6.387   1.648  0.5086 -1.7993  1.8706
 2868TIP3   OH230094   2.646   0.778  15.166 -0.8663  0.6075  0.7056
 2868TIP3    H130095   2.643   0.849  15.101 -1.3385 -0.3131 -0.3031
 2868TIP3    H230096   2.704   0.811  15.234 -0.4794  1.6707 -0.1084
 2869TIP3   OH230097   1.472   1.197  16.220  0.1552  0.5615  0.1073
 2869TIP3    H130098   1.387   1.154  16.209 -0.1583  1.6112 -1.8633
 2869TIP3    H230099   1.465   1.277  16.168  2.7347  0.1048 -1.0264
 2870TIP3   OH230100   6.065   2.129   2.976  0.6596 -0.0176 -0.0894
 2870TIP3    H130101   6.081   2.196   2.909  1.3983  0.8251  0.9335
 2870TIP3    H230102   5.987   2.160   3.022 -0.2951 -0.9765 -1.0220
 2871TIP3   OH230103   2.978   3.489  15.150  0.5179 -0.4043  0.1910
 2871TIP3    H130104   3.057   3.534  15.180  0.8554  0.5730 -2.0525
 2871TIP3    H230105   2.908   3.553  15.160  0.9975  0.7396 -3.0008
 2872TIP3   OH230106   3.124   0.666   1.251 -0.2743 -0.4788 -0.2591
 2872TIP3    H130107   3.092   0.577   1.237 -2.1139  0.0505  0.3701
 2872TIP3    H230108   3.073   0.720   1.190 -1.2507  0.4957  1.3682
 2873TIP3   OH230109   1.176   6.330  11.332  0.0916  0.6676  0.0153
 2873TIP3    H130110   1.234   6.367  11.398  0.3465  0.8027 -0.2814
 2873TIP3    H230111   1.229   6.266  11.286 -0.1363  0.4516  0.0533
 2874TIP3   OH230112   1.349   6.386  16.665 -0.0234  0.1535 -0.6690
 2874TIP3    H130113   1.312   6.438  16.736 -0.5740  0.8318 -1.4528
 2874TIP3    H230114   1.276   6.370  16.606 -0.1111 -2.4180  0.0857
 2875TIP3   OH230115   5.040   1.098   0.318  0.6662 -0.6139  0.1926
 2875TIP3    H130116   4.992   1.105   0.401 -1.3975  2.6115 -1.1611
 2875TIP3    H230117   5.124   1.140   0.335 -0.1073  0.8618  0.4428
 2876TIP3   OH230118   2.694   4.900  11.292  0.4265 -0.1794  0.4481
 2876TIP3    H130119   2.608   4.857  11.291  0.0747  0.5027  0.7634
 2876TIP3    H230120   2.674   4.992  11.310  1.2900 -0.1648  1.3272
 2877TIP3   OH230121   6.092   2.129   4.136  0.2793  0.2706 -0.1819
 2877TIP3    H130122   6.162   2.093   4.190 -1.4704 -0.8759  1.4193
 2877TIP3    H230123   6.094   2.078   4.055  1.1510  0.1197 -0.0603
 2878TIP3   OH230124   0.639   3.553  12.098  0.1551 -0.4703 -0.0763
 2878TIP3    H130125   0.692   3.545  12.019  1.6966 -1.8281  1.0728
 2878TIP3    H230126   0.648   3.645  12.124 -0.1122 -0.0940 -1.2854
 2879TIP3   OH230127   6.050   5.311  13.600 -1.2927 -0.1181 -0.3667
 2879TIP3    H130128   5.967   5.294  13.554 -1.3878  0.1778 -0.3046
 2879TIP3    H230129   6.065   5.405  13.589  0.6579 -0.6857 -3.0460
 2880TIP3   OH230130   5.875   5.774  11.453  0.1266  0.3803  0.6920
 2880TIP3    H130131   5.825   5.748  11.376  0.8049  0.8572  0.0783
 2880TIP3    H230132   5.910   5.861  11.430  1.5937 -0.1327  0.9268
 2881TIP3   OH230133   5.030   6.374   3.955 -0.0214 -0.2183 -0.3949
 2881TIP3    H130134   4.962   6.442   3.960 -0.5108 -0.6348 -1.2378
 2881TIP3    H230135   5.023   6.340   3.866 -0.2340 -1.8466  0.2323
 2882TIP3   OH230136   0.891   1.427  15.584  0.3502 -0.7954  0.2818
 2882TIP3    H130137   0.907   1.333  15.591 -0.4199 -1.0113 -0.8595
 2882TIP3    H230138   0.978   1.465  15.574  0.8712 -1.1630  3.0271
 2883TIP3   OH230139   5.423   2.674  13.782 -0.1966 -0.1730  0.0029
 2883TIP3    H130140   5.394   2.691  13.872 -4.2412 -1.1609 -1.0375
 2883TIP3    H230141   5.388   2.748  13.732  1.1366 -0.1860 -0.9648
 2884TIP3   OH230142   2.456   6.051  11.631  0.3328  0.3330 -0.1956
 2884TIP3    H130143   2.518   6.124  11.630 -1.0588  1.5725  0.9525
 2884TIP3    H230144   2.397   6.071  11.705  0.1845 -2.1629  0.4068
 2885TIP3   OH230145   3.561   0.721   3.044 -0.2598 -0.1226  0.1639
 2885TIP3    H130146   3.535   0.631   3.021 -0.1079 -0.2348  0.4361
 2885TIP3    H230147   3.626   0.744   2.978 -0.8132  0.0424 -0.3278
 2886TIP3   OH230148   4.275   5.704   5.704 -0.3031 -0.1975  0.3753
 2886TIP3    H130149   4.253   5.669   5.790 -1.2120  1.2708  0.7497
 2886TIP3    H230150   4.244   5.638   5.642  0.8081 -1.4944  1.1746
 2887TIP3   OH230151   0.487   4.911   5.191 -0.4692 -0.2401  0.0188
 2887TIP3    H130152   0.392   4.900   5.198 -0.6136  1.4594  0.8876
 2887TIP3    H230153   0.501   4.934   5.099 -1.0527  0.8322  0.1867
 2888TIP3   OH230154   3.409   2.647  12.471 -0.2639  0.4549 -0.6094
 2888TIP3    H130155   3.446   2.671  12.386 -0.8937  0.8575 -0.7789
 2888TIP3    H230156   3.315   2.641  12.454 -0.1570 -1.9338 -0.5195
 2889TIP3   OH230157   3.532   1.557   2.989  0.3969  0.6216  0.1078
 2889TIP3    H130158   3.612   1.523   3.028  1.2120  1.4231 -0.8178
 2889TIP3    H230159   3.544   1.652   2.987 -1.3791  0.8961  1.6571
 2890TIP3   OH230160   0.562   2.795  14.753  0.1645  0.4224 -1.1627
 2890TIP3    H130161   0.480   2.844  14.764 -0.6979 -0.8322 -1.8632
 2890TIP3    H230162   0.603   2.797  14.839  0.4752  2.9186 -1.3227
 2891TIP3   OH230163   6.219   0.600   5.330 -0.2579 -0.0881  0.1716
 2891TIP3    H130164   6.279   0.548   5.277  1.0335  1.4051  0.1329
 2891TIP3    H230165   6.137   0.599   5.280  0.1202 -1.0112 -0.4551
 2892TIP3   OH230166   5.344   0.722  11.040  0.7311 -0.2748 -0.0864
 2892TIP3    H130167   5.407   0.656  11.070  2.2378  1.2268  0.1635
 2892TIP3    H230168   5.371   0.741  10.950  1.9597  1.8420  0.6775
 2893TIP3   OH230169   0.118   4.867   3.584 -0.7748 -0.1294 -0.3714
 2893TIP3    H130170   0.075   4.923   3.649 -0.2419  0.6383 -0.6839
 2893TIP3    H230171   0.062   4.871   3.507 -1.5211 -1.2107  0.1035
 2894TIP3   OH230172   5.723   1.315  14.935 -0.0156  0.2909  0.4772
 2894TIP3    H130173   5.677   1.346  14.856  1.8377 -0.1045 -0.7776
 2894TIP3    H230174   5.717   1.220  14.931  0.7759  0.2470  0.4091
 2895TIP3   OH230175   5.831   0.073   1.771  0.2317  0.0694 -0.4034
 2895TIP3    H130176   5.820  -0.017   1.802  0.7769  0.0444 -0.2842
 2895TIP3    H230177   5.844   0.125   1.851  3.7374 -0.2912 -0.6963
 2896TIP3   OH230178   0.738   4.286  11.506 -0.1117  0.3580 -0.1066
 2896TIP3    H130179   0.655   4.300  11.460 -0.4749 -1.9610 -0.2156
 2896TIP3    H230180   0.790   4.234  11.445  0.0270 -1.3268  1.4000
 2897TIP3   OH230181   2.352   4.980  13.704 -0.9541 -0.2369 -0.6314
 2897TIP3    H130182   2.313   5.048  13.649  0.3576 -0.9582 -2.5132
 2897TIP3    H230183   2.446   4.999  13.702 -0.9650  0.5336  2.5189
 2898TIP3   OH230184   2.614   2.933   4.955  0.1347 -0.6333 -0.0978
 2898TIP3    H130185   2.678   2.869   4.925  0.5370  0.0918 -0.7979
 2898TIP3    H230186   2.583   2.976   4.875 -0.8221 -0.5958  0.2825
 2899TIP3   OH230187   4.311   4.736   0.497 -0.2650 -0.2392  0.4333
 2899TIP3    H130188   4.391   4.688   0.474 -0.9442 -1.3566  0.3793
 2899TIP3    H230189   4.317   4.748   0.592 -0.5636 -1.3298  0.6042
 2900TIP3   OH230190   1.086   3.140  14.223 -0.0464 -0.3329 -0.5472
 2900TIP3    H130191   0.994   3.113  14.212 -0.1775 -0.7162  1.2553
 2900TIP3    H230192   1.083   3.235  14.227 -0.4417 -0.3723  0.1146
 2901TIP3   OH230193   5.219   2.942   2.264 -0.2941 -0.3682 -0.1294
 2901TIP3    H130194   5.301   2.991   2.255 -0.0340 -0.7197  0.3181
 2901TIP3    H230195   5.161   3.002   2.311  0.0576 -0.5282  0.5084
 2902TIP3   OH230196   2.170   1.367   5.580  0.7292 -0.1912  0.7483
 2902TIP3    H130197   2.215   1.285   5.596 -0.1325 -0.5642  1.2881
 2902TIP3    H230198   2.199   1.425   5.651  0.6056 -0.3275  0.9098
 2903TIP3   OH230199   4.412   1.785  15.755 -0.4073  0.1319 -0.5320
 2903TIP3    H130200   4.374   1.698  15.747  1.3680 -0.8951  1.6640
 2903TIP3    H230201   4.481   1.788  15.688 -0.1226 -0.3214 -0.2529
 2904TIP3   OH230202   6.373   0.413   5.148 -0.3036 -0.3971 -0.0818
 2904TIP3    H130203   6.354   0.398   5.055  0.8495 -2.3041 -0.0416
 2904TIP3    H230204   6.401   0.327   5.180  0.5908  0.5549  1.7169
 2905TIP3   OH230205   1.149   2.165   0.523 -0.2254  0.0016 -0.4698
 2905TIP3    H130206   1.059   2.148   0.496  0.3420 -1.4960 -1.4403
 2905TIP3    H230207   1.144   2.175   0.618 -1.1472 -1.8620 -0.3058
 2906TIP3   OH230208   3.855   1.930  17.006  0.4662  0.5407  0.5671
 2906TIP3    H130209   3.944   1.902  17.031  0.1555  0.6853  1.8493
 2906TIP3    H230210   3.799   1.897  17.076 -0.9281 -2.1363 -1.6895
 2907TIP3   OH230211   0.200   1.316  12.825  0.1034  0.5194 -0.3706
 2907TIP3    H130212   0.202   1.270  12.909  1.4539 -0.3297 -0.8641
 2907TIP3    H230213   0.273   1.377  12.829  0.4134  0.1973 -1.0900
 2908TIP3   OH230214   4.175   1.259  13.339  0.3516 -0.2173 -0.1003
 2908TIP3    H130215   4.176   1.265  13.434  0.6034 -3.9662  0.2345
 2908TIP3    H230216   4.230   1.330  13.309  1.6473 -0.0061  2.6477
 2909TIP3   OH230217   3.729   1.963  12.516 -0.1192 -0.3736 -0.5714
 2909TIP3    H130218   3.730   2.020  12.592  0.2874  0.0838 -0.9201
 2909TIP3    H230219   3.674   1.889  12.542 -0.0969 -0.1476  0.1105
 2910TIP3   OH230220   6.345   2.438  15.187  0.2789  0.0128 -0.3029
 2910TIP3    H130221   6.309   2.479  15.265  0.7471  0.8632 -0.5273
 2910TIP3    H230222   6.288   2.466  15.116 -0.1359 -0.7448 -0.2737
 2911TIP3   OH230223   4.137   0.534   4.880  0.3222 -0.1610  0.5902
 2911TIP3    H130224   4.043   0.513   4.888 -0.0940  1.4870  0.1988
 2911TIP3    H230225   4.173   0.510   4.965 -0.3447 -1.3014  0.5755
 2912TIP3   OH230226   4.509   5.229  14.144 -0.6185 -0.4566  0.8827
 2912TIP3    H130227   4.539   5.156  14.198  1.0585  0.0391  0.6287
 2912TIP3    H230228   4.481   5.188  14.062  0.7758 -0.7700  0.5558
 2913TIP3   OH230229   3.115   4.633   1.718 -0.3105 -0.0624  0.2915
 2913TIP3    H130230   3.188   4.646   1.657  0.2622 -1.0305  0.7600
 2913TIP3    H230231   3.133   4.693   1.790 -0.4039  0.2789  0.0340
 2914TIP3   OH230232   3.799   3.307  10.795  0.2094  0.0003 -0.3130
 2914TIP3    H130233   3.817   3.233  10.853 -2.1405 -1.7668 -1.7176
 2914TIP3    H230234   3.879   3.320  10.746  1.6424  0.3788  2.0348
 2915TIP3   OH230235   3.681   0.969   0.665 -0.5329 -0.2317 -0.5529
 2915TIP3    H130236   3.721   0.983   0.579 -1.0577 -1.6481 -1.0451
 2915TIP3    H230237   3.597   0.927   0.645 -1.2759  0.6995  0.5869
 2916TIP3   OH230238   6.511   5.123  15.306 -0.2662 -0.3680  0.1970
 2916TIP3    H130239   6.533   5.075  15.226 -1.2583 -0.0743 -0.2509
 2916TIP3    H230240   6.505   5.214  15.279  2.7297  0.2108  1.2611
 2917TIP3   OH230241   1.389   0.168   1.223 -0.0746 -0.7006 -0.7519
 2917TIP3    H130242   1.380   0.212   1.138 -1.0652  0.2486 -0.1801
 2917TIP3    H230243   1.300   0.167   1.259  0.2716 -1.4156  0.1205
 2918TIP3   OH230244   1.675   3.658  15.690 -0.1910 -0.1461 -0.6002
 2918TIP3    H130245   1.714   3.728  15.743 -0.6121 -1.6284  1.7343
 2918TIP3    H230246   1.688   3.687  15.600  3.1677  1.0786  0.1861
 2919TIP3   OH230247   3.195   1.210   2.269  0.1641  0.4412 -0.0167
 2919TIP3    H130248   3.249   1.232   2.194  0.2561  1.4278  0.3383
 2919TIP3    H230249   3.257   1.182   2.337  0.1850  0.9956  0.1918
 2920TIP3   OH230250   1.865   4.707  14.340  0.5063 -0.9131 -0.4809
 2920TIP3    H130251   1.848   4.660  14.421  1.5143  0.7734  0.7449
 2920TIP3    H230252   1.785   4.696  14.288 -0.2418 -1.8051  0.8434
 2921TIP3   OH230253   0.399   6.440   5.864 -0.0102  0.2385 -0.1357
 2921TIP3    H130254   0.428   6.445   5.773 -2.0755 -1.1621 -0.8943
 2921TIP3    H230255   0.340   6.515   5.874 -1.6470 -0.9572 -0.6633
 2922TIP3   OH230256   2.174   2.397   3.738 -0.3038 -0.2114 -1.0421
 2922TIP3    H130257   2.171   2.307   3.707  1.0210 -0.2366 -1.1004
 2922TIP3    H230258   2.241   2.439   3.685  0.9365  0.1210  0.7575
 2923TIP3   OH230259   3.029   6.720  15.081  0.8338 -0.4710  0.4135
 2923TIP3    H130260   3.008   6.637  15.038  1.6415 -0.8375  0.6981
 2923TIP3    H230261   2.968   6.725  15.154 -0.8872  0.4041 -1.0634
 2924TIP3   OH230262   0.805   4.288  12.646  0.7026 -0.1775  0.9081
 2924TIP3    H130263   0.842   4.356  12.589 -0.7742 -0.0782  0.0498
 2924TIP3    H230264   0.881   4.236  12.672  1.7859  1.4575  1.1300
 2925TIP3   OH230265   0.124   3.523   1.017  0.2088  0.1009  0.3891
 2925TIP3    H130266   0.067   3.467   0.964  0.9109  0.8935 -1.2382
 2925TIP3    H230267   0.071   3.599   1.038  0.6218  0.7875 -1.0322
 2926TIP3   OH230268   1.433   3.934  10.517 -0.2720 -0.1118  0.6479
 2926TIP3    H130269   1.378   4.009  10.496 -1.3531 -0.7533  1.1081
 2926TIP3    H230270   1.389   3.860  10.475  1.4199 -0.3223 -0.8024
 2927TIP3   OH230271   0.313   1.248   0.980  0.5517  0.3206  0.3295
 2927TIP3    H130272   0.315   1.261   1.075  0.1155 -1.0420  0.5281
 2927TIP3    H230273   0.385   1.303   0.947 -0.4504  2.2566  1.2445
 2928TIP3   OH230274   6.808   6.459  16.494  0.5094 -0.6823  0.6304
 2928TIP3    H130275   6.885   6.495  16.448  0.2091 -0.8027  0.0275
 2928TIP3    H230276   6.733   6.497  16.448  0.2192  1.3226  2.7419
 2929TIP3   OH230277   6.671   5.421  15.894  0.3788 -0.5576 -0.1430
 2929TIP3    H130278   6.601   5.360  15.917  0.1809 -0.0689  0.5731
 2929TIP3    H230279   6.644   5.458  15.810  0.5252 -1.4861 -0.6085
 2930TIP3   OH230280   3.988   6.417  10.218 -0.3610  0.0658  0.3635
 2930TIP3    H130281   3.966   6.446  10.306  1.2911  0.4943  0.6565
 2930TIP3    H230282   4.076   6.378  10.226  0.8037  2.1936 -1.4919
 2931TIP3   OH230283   0.464   3.949   3.922  0.4967 -0.9942  0.2927
 2931TIP3    H130284   0.374   3.981   3.917  2.0396  3.4289 -0.6885
 2931TIP3    H230285   0.483   3.919   3.833  0.9657  0.8515 -0.2321
 2932TIP3   OH230286   3.310   5.344  14.615 -0.1567  0.2909 -0.5136
 2932TIP3    H130287   3.282   5.338  14.706 -1.7392 -0.0615 -1.0056
 2932TIP3    H230288   3.371   5.271  14.604 -0.0283  0.2795  0.2346
 2933TIP3   OH230289   5.725   6.595   0.259 -0.0171 -0.4103 -0.0487
 2933TIP3    H130290   5.779   6.520   0.282  2.6291  1.3667 -0.2907
 2933TIP3    H230291   5.665   6.561   0.191  1.5017 -2.1528 -0.5653
 2934TIP3   OH230292   1.641   0.477  16.810  0.0816  0.8562 -0.1405
 2934TIP3    H130293   1.572   0.543  16.818 -0.3707  0.5219 -1.1960
 2934TIP3    H230294   1.716   0.525  16.774 -0.7347  0.4979 -2.3966
 2935TIP3   OH230295   3.045   6.633  16.927 -0.1580  0.2479 -0.1935
 2935TIP3    H130296   2.971   6.676  16.971 -0.8726 -0.7805 -0.3614
 2935TIP3    H230297   3.122   6.669  16.970 -0.7630  1.1640  0.1543
 2936TIP3   OH230298   3.989   4.594   4.049  0.9691 -0.0492  0.0695
 2936TIP3    H130299   3.991   4.506   4.011 -0.6496 -0.4907  0.9548
 2936TIP3    H230300   3.915   4.637   4.007  0.2776  0.0676  1.3840
 2937TIP3   OH230301   2.006   1.665   0.540  0.0092 -0.4256 -0.0415
 2937TIP3    H130302   1.974   1.574   0.538 -0.0228 -0.5100  2.5535
 2937TIP3    H230303   2.057   1.671   0.621  1.6211  1.3700 -1.1459
 2938TIP3   OH230304   4.857   4.378  14.402  0.3705  0.1653 -0.0291
 2938TIP3    H130305   4.899   4.293  14.396 -0.4137 -0.0349 -4.3255
 2938TIP3    H230306   4.844   4.392  14.496  1.7662 -3.7747  0.8416
 2939TIP3   OH230307   5.900   0.288  16.060 -0.2897 -0.5624  0.8251
 2939TIP3    H130308   5.904   0.295  16.155  0.1249  0.2192  0.7550
 2939TIP3    H230309   5.989   0.311  16.031 -0.2411 -1.4164  0.2907
 2940TIP3   OH230310   4.691   6.306  16.437  0.4938 -0.4702  0.1597
 2940TIP3    H130311   4.774   6.286  16.394  0.5459 -0.1905  0.1268
 2940TIP3    H230312   4.692   6.254  16.517  0.4010 -0.9872 -0.1764
 2941TIP3   OH230313   5.028   3.304  12.857  0.7179 -0.1253 -0.8179
 2941TIP3    H130314   4.934   3.317  12.852  1.0245  3.2932  0.8027
 2941TIP3    H230315   5.042   3.267  12.944  0.8632 -0.7607 -1.1115
 2942TIP3   OH230316   1.214   4.289   2.000  0.0672  0.0179  0.2320
 2942TIP3    H130317   1.180   4.313   2.087 -0.9943  0.2448 -0.2396
 2942TIP3    H230318   1.274   4.359   1.978  1.0793 -0.5252  1.1974
 2943TIP3   OH230319   6.480   6.778   0.199  0.0292  0.2721 -0.4050
 2943TIP3    H130320   6.392   6.744   0.180  0.2619 -0.7696  0.3526
 2943TIP3    H230321   6.478   6.798   0.292  0.3828  0.8977 -0.5337
 2944TIP3   OH230322   0.184   5.385   3.489 -0.1977 -0.2731  0.3020
 2944TIP3    H130323   0.203   5.474   3.520  1.6270 -0.2359 -0.8308
 2944TIP3    H230324   0.155   5.397   3.399 -0.3317 -0.7940  0.2754
 2945TIP3   OH230325   1.034   5.192  16.028  0.3128 -0.3788 -0.3352
 2945TIP3    H130326   1.061   5.283  16.020  0.3580 -0.4052 -0.4796
 2945TIP3    H230327   1.042   5.173  16.122 -0.4510 -0.0022 -0.1866
 2946TIP3   OH230328   2.106   4.018  11.620  0.5602  0.3024  0.2768
 2946TIP3    H130329   2.156   3.968  11.556  0.3638  0.4946 -0.0280
 2946TIP3    H230330   2.060   4.084  11.568  0.0105  0.1428  0.5597
 2947TIP3   OH230331   4.703   5.706   2.097 -0.7464  0.0363 -0.9072
 2947TIP3    H130332   4.729   5.631   2.044 -1.1074  0.5122 -1.7816
 2947TIP3    H230333   4.615   5.684   2.127  0.2405 -1.1354  1.2227
 2948TIP3   OH230334   0.633   1.257   0.081 -0.6555 -0.5653  0.9502
 2948TIP3    H130335   0.711   1.258   0.025 -1.8165 -1.5712 -0.7220
 2948TIP3    H230336   0.653   1.190   0.147  0.8877  0.9178  2.0289
 2949TIP3   OH230337   5.365   4.540   0.840  0.0140 -0.5423  0.7264
 2949TIP3    H130338   5.456   4.519   0.819 -0.3820 -2.1128  0.5776
 2949TIP3    H230339   5.316   4.461   0.818 -1.4811  0.5001  0.2167
 2950TIP3   OH230340   0.649   6.442   6.775  0.2221 -0.0296 -0.5832
 2950TIP3    H130341   0.716   6.510   6.786  0.9144 -0.5571 -1.3977
 2950TIP3    H230342   0.583   6.482   6.719  0.0146  0.3938 -0.0282
 2951TIP3   OH230343   6.585   1.868   4.968 -0.3828  0.5534  0.3902
 2951TIP3    H130344   6.660   1.868   5.027  0.0081  0.4295 -0.0972
 2951TIP3    H230345   6.564   1.776   4.955 -1.6610  0.6298  1.8162
 2952TIP3   OH230346   4.309   6.709  16.745 -0.0301  0.0605 -0.1219
 2952TIP3    H130347   4.298   6.749  16.832 -0.5740 -0.1619 -0.0829
 2952TIP3    H230348   4.308   6.782  16.684 -0.1063  0.1808  0.0223
 2953TIP3   OH230349   4.730   1.083  17.225  0.4390  0.2231  0.3440
 2953TIP3    H130350   4.790   1.010  17.207 -0.0837 -0.2367  0.4456
 2953TIP3    H230351   4.719   1.083  17.320 -0.6502 -0.4479  0.2285
 2954TIP3   OH230352   1.875   1.709   3.701 -0.3717 -0.1746 -0.2978
 2954TIP3    H130353   1.920   1.771   3.759  0.3437  0.2839 -1.3225
 2954TIP3    H230354   1.786   1.704   3.736 -0.5656  1.7803 -0.4696
 2955TIP3   OH230355   6.726   1.285  13.638  0.5098 -0.2322  0.3574
 2955TIP3    H130356   6.697   1.212  13.692 -0.1953 -0.0477  0.2347
 2955TIP3    H230357   6.813   1.307  13.671  0.0907 -0.1348  1.3975
 2956TIP3   OH230358   0.112   1.606  14.453 -0.2179  0.5663  0.5612
 2956TIP3    H130359   0.184   1.659  14.418 -0.0393 -0.1420 -0.1762
 2956TIP3    H230360   0.065   1.577  14.375 -1.3951  1.1442  1.0499
 2957TIP3   OH230361   3.116   1.493  11.722 -0.0915 -0.2012 -0.5746
 2957TIP3    H130362   3.042   1.550  11.742 -1.1187 -1.2334 -1.3817
 2957TIP3    H230363   3.130   1.442  11.801 -0.0096  0.2300 -0.3054
 2958TIP3   OH230364   6.597   3.792  16.138  0.4174  0.3209 -0.5271
 2958TIP3    H130365   6.579   3.703  16.169 -2.4042  0.3041 -2.0310
 2958TIP3    H230366   6.586   3.847  16.216 -0.1887 -0.4015 -0.1004
 2959TIP3   OH230367   6.238   1.872   4.703 -0.1245 -0.2652  0.1373
 2959TIP3    H130368   6.160   1.928   4.711  1.4206  1.9231  0.4143
 2959TIP3    H230369   6.271   1.865   4.792  1.1625  0.5838 -0.2570
 2960TIP3   OH230370   2.773   1.384   0.982 -0.2088  0.4632  0.1783
 2960TIP3    H130371   2.697   1.408   1.036 -1.8079 -0.6674 -1.5226
 2960TIP3    H230372   2.743   1.310   0.931  2.9897 -1.8858  1.5608
 2961TIP3   OH230373   0.161   2.461  13.175  0.6668  0.5738 -0.3182
 2961TIP3    H130374   0.216   2.413  13.113  1.9495  0.4467  0.9072
 2961TIP3    H230375   0.073   2.426  13.161  1.5144 -1.9079  0.3478
 2962TIP3   OH230376   5.217   5.670  12.301 -0.5629  0.5263 -0.8732
 2962TIP3    H130377   5.150   5.720  12.348 -1.1695 -0.4497 -0.6918
 2962TIP3    H230378   5.173   5.639  12.222 -0.2954 -0.0148 -0.8136
 2963TIP3   OH230379   4.709   1.253   5.633  0.0603 -0.1076 -0.3519
 2963TIP3    H130380   4.766   1.218   5.565  0.3131 -1.0411  0.3191
 2963TIP3    H230381   4.624   1.263   5.591 -0.2760 -2.5198 -0.3082
 2964TIP3   OH230382   6.385   0.626   0.607  0.1311  0.0340  0.1286
 2964TIP3    H130383   6.464   0.575   0.623  0.3192  0.7459  1.5806
 2964TIP3    H230384   6.363   0.664   0.693 -0.6936  1.3803 -0.6513
 2965TIP3   OH230385   5.301   3.953  16.158  0.0870  0.1659 -0.5280
 2965TIP3    H130386   5.235   3.901  16.111  0.1297 -0.6825  0.3265
 2965TIP3    H230387   5.322   4.025  16.098 -0.9886 -0.0323 -1.1660
 2966TIP3   OH230388   3.679   2.075  12.027  0.2287 -0.0201  0.6742
 2966TIP3    H130389   3.743   2.070  12.098 -0.4285  0.2245  1.2882
 2966TIP3    H230390   3.645   2.164  12.031 -0.4782 -0.2844  0.6419
 2967TIP3   OH230391   5.457   3.882   3.394  0.5938 -0.3762 -0.0503
 2967TIP3    H130392   5.411   3.947   3.448 -0.9794 -0.4644 -1.2217
 2967TIP3    H230393   5.542   3.921   3.376 -1.0487  2.3684 -2.4240
 2968TIP3   OH230394   1.655   1.990  14.440  0.5194  0.5009 -0.4349
 2968TIP3    H130395   1.676   1.998  14.347  0.8117  0.6444 -0.3557
 2968TIP3    H230396   1.711   1.920  14.471  0.0111  0.0632 -0.4894
 2969TIP3   OH230397   4.983   2.135  13.287  0.4460 -0.1101 -0.1400
 2969TIP3    H130398   5.028   2.148  13.203  1.0426  1.2497  0.3746
 2969TIP3    H230399   4.914   2.202  13.288  2.2158  1.7381  1.6489
 2970TIP3   OH230400   6.479   0.402   0.840 -0.5414  0.0361 -0.0084
 2970TIP3    H130401   6.455   0.490   0.870 -1.3596 -0.2605  0.2050
 2970TIP3    H230402   6.408   0.345   0.871  1.4240 -1.1848  2.4015
 2971TIP3   OH230403   0.352   3.706  14.756 -0.1057  0.3449  0.5999
 2971TIP3    H130404   0.279   3.760  14.726  0.3992  1.1325  0.7608
 2971TIP3    H230405   0.311   3.633  14.802 -0.8149  0.2799 -0.1274
 2972TIP3   OH230406   6.021   1.636  16.400  0.1672  0.0219 -0.1390
 2972TIP3    H130407   6.018   1.731  16.384  0.0663  0.1099  0.3925
 2972TIP3    H230408   6.114   1.617  16.411  0.1321  0.1856  0.4818
 2973TIP3   OH230409   5.783   4.317  11.636 -0.3785  0.2863  0.5114
 2973TIP3    H130410   5.835   4.256  11.688  0.5806 -0.0429 -0.8042
 2973TIP3    H230411   5.725   4.359  11.700 -0.1640 -1.0573  1.6359
 2974TIP3   OH230412   6.674   0.972   1.736  0.6527 -0.1088 -0.0320
 2974TIP3    H130413   6.754   0.926   1.711  0.6456 -0.7176  1.0393
 2974TIP3    H230414   6.703   1.039   1.798  0.6658  1.3773 -1.6069
 2975TIP3   OH230415   3.589   0.548   1.019 -0.0248 -0.3100 -0.2804
 2975TIP3    H130416   3.625   0.570   1.105 -1.4456 -1.9905  0.7633
 2975TIP3    H230417   3.502   0.589   1.019 -0.0781 -0.4250 -0.8824
 2976TIP3   OH230418   2.537   3.981  13.963  0.0582  0.2632 -0.4155
 2976TIP3    H130419   2.460   3.925  13.967  1.0549 -0.9925  1.8986
 2976TIP3    H230420   2.597   3.935  13.904 -1.0213  1.4203 -2.5163
 2977TIP3   OH230421   4.763   2.746  12.194 -0.4126 -0.7124  0.0101
 2977TIP3    H130422   4.715   2.672  12.233 -1.8775  0.9645  1.5133
 2977TIP3    H230423   4.805   2.789  12.269  1.1509 -0.5131 -0.9649
 2978TIP3   OH230424   6.291   6.463  13.816  0.2924 -0.1228 -0.0384
 2978TIP3    H130425   6.251   6.377  13.832 -3.1041  1.0779 -1.5917
 2978TIP3    H230426   6.330   6.456  13.729  0.3966 -0.2265  0.0161
 2979TIP3   OH230427   2.453   3.027   3.281 -0.5658  0.6344  0.2753
 2979TIP3    H130428   2.533   2.982   3.308  0.3655  1.7234 -0.6057
 2979TIP3    H230429   2.468   3.051   3.189 -1.2474  2.2025  0.5449
 2980TIP3   OH230430   4.501   1.129  11.669 -0.0468  0.1126 -0.2915
 2980TIP3    H130431   4.449   1.147  11.747  0.5563  0.4761  0.0316
 2980TIP3    H230432   4.528   1.038  11.678 -0.7082 -0.1104 -0.5110
 2981TIP3   OH230433   3.296   5.643   5.396  0.1716  0.3983 -0.0302
 2981TIP3    H130434   3.307   5.548   5.391  0.4182  0.4267 -0.0216
 2981TIP3    H230435   3.305   5.673   5.306 -2.6818  0.1157 -0.4690
 2982TIP3   OH230436   2.679   1.466   0.414  0.2198  0.0377 -0.2847
 2982TIP3    H130437   2.681   1.561   0.428  0.2892 -0.0120  0.0547
 2982TIP3    H230438   2.589   1.448   0.386  0.0156  0.1194  0.2937
 2983TIP3   OH230439   0.049   2.637   4.321  0.1149  0.0763 -0.2206
 2983TIP3    H130440  -0.018   2.569   4.324  0.9573 -0.7225  0.4631
 2983TIP3    H230441   0.001   2.719   4.334 -0.5483 -0.6061  1.6825
 2984TIP3   OH230442   4.027   6.679  16.738 -0.4407 -0.4474 -0.0312
 2984TIP3    H130443   4.118   6.701  16.756 -0.3551 -1.0024  0.2167
 2984TIP3    H230444   4.028   6.585  16.721 -0.7709 -0.2307 -1.3130
 2985TIP3   OH230445   4.017   0.918   5.184 -0.2779  0.9508  0.5515
 2985TIP3    H130446   3.975   0.997   5.216 -0.3853  0.8202  0.7343
 2985TIP3    H230447   4.092   0.949   5.133 -0.6281  1.1815  0.1802
 2986TIP3   OH230448   0.040   4.064   0.961 -0.2786  0.1504  0.3279
 2986TIP3    H130449   0.076   4.067   0.873 -1.8540 -0.3872 -0.3408
 2986TIP3    H230450   0.019   4.155   0.982 -1.4503  0.0884 -0.5142
 2987TIP3   OH230451   1.976   0.016   4.539  0.0979 -0.0350 -0.0719
 2987TIP3    H130452   2.024  -0.062   4.508 -0.7140 -0.5295 -0.0986
 2987TIP3    H230453   1.903  -0.020   4.590  0.5267  0.7412  1.1204
 2988TIP3   OH230454   6.529   5.698   3.916  0.2285  0.1238 -0.3432
 2988TIP3    H130455   6.605   5.742   3.878 -0.3813 -0.1433 -1.9272
 2988TIP3    H230456   6.465   5.695   3.845 -0.5258 -1.4422  0.3616
 2989TIP3   OH230457   3.300   4.544  14.376 -0.1468  0.2610 -0.4179
 2989TIP3    H130458   3.308   4.590  14.459 -0.7436  0.9230 -0.7222
 2989TIP3    H230459   3.268   4.611  14.315 -1.3082 -0.6392 -0.7957
 2990TIP3   OH230460   5.966   3.604  16.105  0.1171 -0.1487 -0.0327
 2990TIP3    H130461   5.912   3.599  16.184 -0.0579  0.6674 -0.1014
 2990TIP3    H230462   5.905   3.628  16.036  1.0669  3.9339  0.4463
 2991TIP3   OH230463   0.767   2.988  13.676 -0.7194 -0.1710 -0.1727
 2991TIP3    H130464   0.716   3.052  13.728  0.0110 -1.1294  1.7746
 2991TIP3    H230465   0.730   2.903  13.701  0.3192 -0.7152 -0.4876
 2992TIP3   OH230466   0.348   2.371  15.334  0.2751 -0.4859 -0.3568
 2992TIP3    H130467   0.429   2.348  15.288  0.5946  0.1651 -0.1313
 2992TIP3    H230468   0.378   2.420  15.411 -0.3261 -0.4097 -0.1712
 2993TIP3   OH230469   0.037   4.088  13.439 -0.0408  0.1485  0.6012
 2993TIP3    H130470   0.083   4.172  13.443  0.5761  0.0941 -3.2748
 2993TIP3    H230471  -0.056   4.111  13.447  0.1436  1.1896 -0.1778
 2994TIP3   OH230472   5.704   1.036   0.096  0.3759 -0.2092 -0.4348
 2994TIP3    H130473   5.680   1.126   0.073 -2.8006 -0.6793  0.9115
 2994TIP3    H230474   5.681   1.027   0.188 -1.3329 -3.0110 -1.0692
 2995TIP3   OH230475   6.706   6.161   6.432 -0.0335  0.4704  0.0888
 2995TIP3    H130476   6.639   6.176   6.499  1.4986  0.9851  1.5282
 2995TIP3    H230477   6.770   6.230   6.446  0.5846  0.2597 -1.5786
 2996TIP3   OH230478   3.300   1.421  15.575  0.8629  0.3852 -0.2242
 2996TIP3    H130479   3.325   1.504  15.615  0.1870  0.2586  0.4887
 2996TIP3    H230480   3.211   1.436  15.544  1.2227  0.3368 -1.2856
 2997TIP3   OH230481   4.032   2.107  15.729  0.8351 -0.8777 -0.2425
 2997TIP3    H130482   4.070   2.039  15.674  0.1016  1.0853 -3.2678
 2997TIP3    H230483   3.937   2.092  15.723  0.6402  0.6978 -1.3518
 2998TIP3   OH230484   4.991   1.340   3.688  0.3034  0.1603  0.0764
 2998TIP3    H130485   5.062   1.356   3.750  2.4085  0.7577 -2.4379
 2998TIP3    H230486   4.938   1.419   3.691  2.1156  1.4279 -1.1304
 2999TIP3   OH230487   5.328   2.416   4.506 -0.2139 -0.6409 -0.7479
 2999TIP3    H130488   5.324   2.496   4.453  1.9161  0.1933  0.3031
 2999TIP3    H230489   5.262   2.430   4.574  0.9508  0.7676  0.1299
 3000TIP3   OH230490   1.192   4.480   5.795  0.0974 -0.0809 -0.4227
 3000TIP3    H130491   1.207   4.387   5.812  0.4928  0.2086  0.8600
 3000TIP3    H230492   1.110   4.500   5.842  0.6606  0.5008  0.3225
 3001TIP3   OH230493   6.472   6.639  12.231 -0.1886 -0.1601 -0.0192
 3001TIP3    H130494   6.529   6.694  12.179 -2.4363  0.7606 -1.5851
 3001TIP3    H230495   6.471   6.680  12.318 -1.3983  1.9900 -1.0138
 3002TIP3   OH230496   4.623   1.111   2.217  0.5854  0.0177 -0.5816
 3002TIP3    H130497   4.696   1.152   2.266  0.9790 -0.6309 -0.6234
 3002TIP3    H230498   4.627   1.019   2.241 -0.2445 -0.0173 -0.5742
 3003TIP3   OH230499   4.418   3.346   5.755 -0.5965 -0.1635  0.3251
 3003TIP3    H130500   4.351   3.286   5.787 -0.1672 -1.9368 -1.9772
 3003TIP3    H230501   4.501   3.300   5.772 -0.0112  1.4787  2.0499
 3004TIP3   OH230502   4.462   4.741  10.776  0.3306 -0.4397  0.1531
 3004TIP3    H130503   4.528   4.774  10.714 -1.3208  2.5574 -0.0841
 3004TIP3    H230504   4.409   4.680  10.724  2.0481 -1.8806  0.0091
 3005TIP3   OH230505   4.674   0.305   3.348 -0.3854  0.0531  0.4586
 3005TIP3    H130506   4.594   0.316   3.399 -1.0170 -3.4802  0.3666
 3005TIP3    H230507   4.644   0.295   3.258 -0.1444 -4.1162  0.7699
 3006TIP3   OH230508   6.009   6.391  16.178  0.0350 -0.0772 -0.2494
 3006TIP3    H130509   6.057   6.322  16.132  1.2754  0.7576 -0.2457
 3006TIP3    H230510   6.060   6.407  16.257 -0.6203  0.3546  0.0882
 3007TIP3   OH230511   3.051   1.785  16.235  0.3306  0.2932  0.5052
 3007TIP3    H130512   3.132   1.740  16.259  0.5278  0.2538 -0.2164
 3007TIP3    H230513   2.982   1.724  16.258  0.5387  0.0578  0.5090
 3008TIP3   OH230514   0.800   2.787  16.706 -0.8868 -0.1036 -0.1101
 3008TIP3    H130515   0.879   2.835  16.731 -0.6503  0.0383 -1.1255
 3008TIP3    H230516   0.746   2.788  16.785  0.3501 -0.6700  0.7644
 3009TIP3   OH230517   1.579   6.435  15.303  0.2150 -0.2212 -0.0711
 3009TIP3    H130518   1.498   6.385  15.291  0.4791 -0.5490 -0.4852
 3009TIP3    H230519   1.568   6.513  15.248 -0.8504  0.9611  1.7656
 3010TIP3   OH230520   1.054   6.487  12.094  0.2820  0.5758 -0.2109
 3010TIP3    H130521   1.114   6.528  12.032  0.0317  0.7986 -0.3101
 3010TIP3    H230522   1.013   6.560  12.140 -0.5732  0.4574 -0.7690
 3011TIP3   OH230523   6.306   1.217   4.472 -0.1854 -0.5102  0.1123
 3011TIP3    H130524   6.238   1.277   4.503  0.0516  0.0128 -0.3561
 3011TIP3    H230525   6.387   1.251   4.510 -0.4522 -2.3382  2.3384
 3012TIP3   OH230526   6.420   4.693  13.776  0.3342  0.4461  0.4536
 3012TIP3    H130527   6.406   4.673  13.869 -2.8976  0.9027  0.1349
 3012TIP3    H230528   6.397   4.612  13.731  0.5745  0.6445 -0.0231
 3013TIP3   OH230529   0.644   3.217   3.300 -0.1481 -0.2400 -0.2992
 3013TIP3    H130530   0.660   3.184   3.212 -0.4507  0.2761 -0.5500
 3013TIP3    H230531   0.596   3.146   3.344 -2.8600  0.7381 -1.5530
 3014TIP3   OH230532   2.429   0.344   3.777 -0.0590 -1.2483 -0.3678
 3014TIP3    H130533   2.338   0.316   3.764 -0.8431  0.5288  1.0302
 3014TIP3    H230534   2.448   0.400   3.702 -1.3663  1.2978  1.1401
 3015TIP3   OH230535   2.032   6.457  13.226  0.0030  0.2604 -0.2742
 3015TIP3    H130536   2.087   6.445  13.149 -1.1058 -0.1286 -1.0097
 3015TIP3    H230537   1.953   6.499  13.193 -0.4972  0.0458  0.6465
 3016TIP3   OH230538   0.542   6.087  15.775 -0.5137  0.1182  0.1714
 3016TIP3    H130539   0.635   6.088  15.796 -0.3946  0.9921 -0.3612
 3016TIP3    H230540   0.507   6.012  15.824  0.5603 -0.5528 -0.0712
 3017TIP3   OH230541   1.953   1.773  12.824  0.0545 -0.4137  0.4789
 3017TIP3    H130542   1.910   1.738  12.747 -0.5091 -0.8123  0.9784
 3017TIP3    H230543   1.940   1.868  12.818  0.4976 -0.3963 -0.2067
 3018TIP3   OH230544   0.283   0.945   3.754  0.2652 -0.2377  0.1774
 3018TIP3    H130545   0.196   0.905   3.757 -0.0833  0.6435  2.4002
 3018TIP3    H230546   0.323   0.922   3.837  1.2976  1.2605  0.1128
 3019TIP3   OH230547   0.396   0.005   4.793 -0.3902  0.3238  0.5735
 3019TIP3    H130548   0.345  -0.068   4.829 -1.1529  0.3022 -0.5295
 3019TIP3    H230549   0.427  -0.027   4.709 -0.1151  1.0128  0.4118
 3020TIP3   OH230550   6.540   0.185  13.249  0.3291 -0.1780 -0.2820
 3020TIP3    H130551   6.540   0.111  13.309 -0.4229  0.1192  0.0836
 3020TIP3    H230552   6.517   0.148  13.164  1.5243 -0.6198 -0.4200
 3021TIP3   OH230553   5.180   6.818   4.131 -0.0752 -0.1073 -0.4299
 3021TIP3    H130554   5.211   6.777   4.050  1.8457  0.4513 -0.0153
 3021TIP3    H230555   5.241   6.891   4.145 -0.2966 -0.2840  1.5882
 3022TIP3   OH230556   3.643   0.606   1.516 -0.1231 -0.0866 -0.0630
 3022TIP3    H130557   3.707   0.645   1.457  0.8139 -1.4529  0.0499
 3022TIP3    H230558   3.612   0.527   1.472 -1.8654  0.6273 -0.1873
 3023TIP3   OH230559   6.706   1.090   0.975 -0.0862  0.3251 -0.0295
 3023TIP3    H130560   6.783   1.111   0.924  0.3882 -2.5726 -0.6250
 3023TIP3    H230561   6.707   1.152   1.048  1.1528  2.2075 -1.6211
 3024TIP3   OH230562   4.829   5.662  14.711 -0.0338 -0.6255  0.9425
 3024TIP3    H130563   4.759   5.714  14.752  0.7934  1.0764  0.2555
 3024TIP3    H230564   4.793   5.639  14.625  0.6809  1.3620  0.0560
 3025TIP3   OH230565   2.830   0.420   2.410 -0.0862 -0.2824 -0.4813
 3025TIP3    H130566   2.761   0.460   2.462 -0.7896 -2.1738  0.0948
 3025TIP3    H230567   2.847   0.483   2.340 -1.0745  1.0401  0.4353
 3026TIP3   OH230568   1.632   5.973  11.752 -0.1106 -0.2850 -0.2602
 3026TIP3    H130569   1.704   5.910  11.759  0.2926  0.2857  0.9739
 3026TIP3    H230570   1.673   6.058  11.769 -1.0599  0.0525  0.4145
 3027TIP3   OH230571   6.256   1.075  13.866  0.1821  0.4249  0.2484
 3027TIP3    H130572   6.176   1.116  13.898  1.9974  2.5680  2.2205
 3027TIP3    H230573   6.303   1.146  13.822  1.8220 -0.3384  0.7361
 3028TIP3   OH230574   1.539   2.662  15.581 -0.3762  0.8696  0.3013
 3028TIP3    H130575   1.585   2.720  15.640 -1.1911  1.1949  0.6288
 3028TIP3    H230576   1.451   2.653  15.619  0.1574 -1.7445  1.0586
 3029TIP3   OH230577   6.647   3.006   4.507  0.7167  0.0652  0.4937
 3029TIP3    H130578   6.654   2.927   4.559 -0.7877  0.2482  0.9968
 3029TIP3    H230579   6.568   3.049   4.539  1.8714  2.1180  0.7125
 3030TIP3   OH230580   6.559   2.615   0.159 -0.2303  0.0252 -0.0821
 3030TIP3    H130581   6.597   2.602   0.246 -0.9084 -1.3998  0.0131
 3030TIP3    H230582   6.607   2.554   0.103 -2.4228 -1.8824  0.0641
 3031TIP3   OH230583   0.154   4.853  15.514 -0.0152  0.4834 -0.1004
 3031TIP3    H130584   0.222   4.886  15.574  1.1104 -1.0285 -0.5046
 3031TIP3    H230585   0.200   4.791  15.458 -1.0739  1.8386 -2.5312
 3032TIP3   OH230586   4.515   3.728   0.167  0.2109  0.5993  0.3383
 3032TIP3    H130587   4.601   3.713   0.127 -0.2647  1.2869 -0.9674
 3032TIP3    H230588   4.456   3.670   0.118  0.4554 -2.3811  3.4040
 3033TIP3   OH230589   6.405   5.103   6.166  0.7728 -0.1459 -0.3555
 3033TIP3    H130590   6.492   5.097   6.127  1.0199 -1.2550  0.3358
 3033TIP3    H230591   6.377   5.012   6.175 -0.4210  0.2059 -0.4887
 3034TIP3   OH230592   3.014   4.335   0.303 -0.1707  0.2665 -0.2110
 3034TIP3    H130593   3.052   4.271   0.363 -2.0558 -0.5337  0.1652
 3034TIP3    H230594   2.973   4.400   0.359 -0.7407  0.2534 -0.6023
 3035TIP3   OH230595   0.061   1.039   6.608  0.0263  0.2061 -0.5130
 3035TIP3    H130596   0.111   0.958   6.603 -0.5608 -0.1825 -0.1076
 3035TIP3    H230597  -0.025   1.013   6.639  0.0798  1.0888  0.4122
 3036TIP3   OH230598   3.852   0.001   2.748  0.2930 -0.4854  0.1039
 3036TIP3    H130599   3.940  -0.037   2.745  0.1309 -0.9347  0.8682
 3036TIP3    H230600   3.807  -0.049   2.816  0.1136  1.1421  1.2295
 3037TIP3   OH230601   3.918   6.135  11.785 -0.2702  0.2927 -0.0783
 3037TIP3    H130602   3.888   6.067  11.725  0.9693  0.4506 -0.9006
 3037TIP3    H230603   3.869   6.213  11.760  1.3584  0.7583 -1.9562
 3038TIP3   OH230604   0.526   1.084  11.218 -0.3977  0.8061  0.3437
 3038TIP3    H130605   0.510   1.007  11.273 -0.0922  0.5828  0.1195
 3038TIP3    H230606   0.467   1.151  11.253 -1.3915  0.1701 -0.1127
 3039TIP3   OH230607   2.433   6.649  14.012 -0.1610  0.0998 -0.1793
 3039TIP3    H130608   2.377   6.573  14.026 -0.3688  0.4139  0.7195
 3039TIP3    H230609   2.520   6.621  14.042 -0.1712  0.1100 -0.1401
 3040TIP3   OH230610   1.174   4.171  14.670  0.6101  0.2466  0.0155
 3040TIP3    H130611   1.200   4.254  14.631  0.4411 -0.2370 -1.1357
 3040TIP3    H230612   1.096   4.192  14.721  0.2826  0.6900 -0.6687
 3041TIP3   OH230613   5.578   2.808  12.058 -0.1574  0.0377  0.0817
 3041TIP3    H130614   5.614   2.846  11.978  1.0138 -2.6083 -0.7087
 3041TIP3    H230615   5.594   2.874  12.125  3.3818  0.2907 -0.9067
 3042TIP3   OH230616   6.684   2.763   4.665  0.1790  0.1350  0.0299
 3042TIP3    H130617   6.779   2.771   4.659  0.0718  2.1502  0.8771
 3042TIP3    H230618   6.667   2.748   4.758 -0.2645 -1.4142 -0.2857
 3043TIP3   OH230619   1.261   1.409   5.526 -0.4485 -0.0774 -0.4084
 3043TIP3    H130620   1.347   1.385   5.561 -0.7425 -1.3130 -0.5178
 3043TIP3    H230621   1.198   1.367   5.585 -0.9903  0.7987 -0.3409
 3044TIP3   OH230622   2.307   2.707  11.613 -0.2147  0.2629 -0.0686
 3044TIP3    H130623   2.343   2.793  11.589 -1.7953  1.0915  0.4620
 3044TIP3    H230624   2.219   2.707  11.576 -0.2419 -1.1358 -0.0339
 3045TIP3   OH230625   1.593   0.880  14.197  0.0475  0.1182 -0.0347
 3045TIP3    H130626   1.636   0.933  14.264  0.8708  0.1763 -0.6026
 3045TIP3    H230627   1.659   0.869  14.129  0.3549 -2.7821  0.6673
 3046TIP3   OH230628   5.914   3.889   1.961 -0.0262  0.0934 -0.3907
 3046TIP3    H130629   5.946   3.920   1.876 -0.7650 -2.9659 -1.8294
 3046TIP3    H230630   5.926   3.965   2.019  1.0505  2.0590 -3.0401
 3047TIP3   OH230631   3.859   4.500  15.365 -0.5311  0.0187  0.6389
 3047TIP3    H130632   3.879   4.528  15.454 -0.1203  1.4737  0.1065
 3047TIP3    H230633   3.830   4.410  15.374  0.2503 -0.0961  2.1583
 3048TIP3   OH230634   6.553   0.785   2.600  0.1835 -0.4063 -0.0554
 3048TIP3    H130635   6.474   0.797   2.547  0.5259  1.1799 -0.2540
 3048TIP3    H230636   6.523   0.793   2.690 -0.1244 -1.3596 -0.0700
 3049TIP3   OH230637   5.471   5.546  14.751 -0.4167 -0.1839 -0.5235
 3049TIP3    H130638   5.425   5.625  14.724  0.0485  1.1578  2.3450
 3049TIP3    H230639   5.560   5.558  14.720 -0.6048 -0.1000 -1.0416
 3050TIP3   OH230640   1.646   0.526  11.777 -0.8813 -0.2075  0.2883
 3050TIP3    H130641   1.720   0.486  11.823  0.3370 -0.9329 -2.2410
 3050TIP3    H230642   1.580   0.457  11.771  0.4825 -1.3319 -2.4104
 3051TIP3   OH230643   5.001   1.425  16.257 -0.5191  0.6202 -0.5177
 3051TIP3    H130644   5.096   1.410  16.253 -0.9752 -2.8306  0.3116
 3051TIP3    H230645   4.985   1.453  16.347 -0.3079  1.1075 -0.6288
 3052TIP3   OH230646   2.984   5.145  17.232 -0.4566  0.4919 -0.3097
 3052TIP3    H130647   2.963   5.189  17.150  1.1067  0.6012 -0.6762
 3052TIP3    H230648   3.040   5.072  17.206 -2.3311 -1.2144  0.3774
 3053TIP3   OH230649   0.150   1.761  13.796  0.2738 -0.0954  0.2526
 3053TIP3    H130650   0.215   1.806  13.850 -0.1009 -0.6025  1.1504
 3053TIP3    H230651   0.183   1.767  13.707  0.4173  1.6170  0.4159
 3054TIP3   OH230652   6.208   5.667  11.764 -0.4739  0.6076 -0.3536
 3054TIP3    H130653   6.258   5.593  11.798 -0.9947  0.6916  0.5974
 3054TIP3    H230654   6.156   5.630  11.692 -1.5589 -0.1891  0.8328
 3055TIP3   OH230655   1.813   3.327  12.474 -0.7651 -0.6787 -0.1910
 3055TIP3    H130656   1.780   3.417  12.483 -1.0124 -0.6286 -1.5512
 3055TIP3    H230657   1.859   3.326  12.391 -0.5071 -1.7448 -0.0413
 3056TIP3   OH230658   4.349   5.853   1.789 -0.9125 -0.4316  0.3795
 3056TIP3    H130659   4.332   5.775   1.841 -1.6817 -0.1705  0.5220
 3056TIP3    H230660   4.312   5.925   1.840 -0.5327 -0.0174  0.0780
 3057TIP3   OH230661   1.866   0.702   5.903 -0.9893 -0.0950  0.2999
 3057TIP3    H130662   1.891   0.610   5.893  0.0428  0.0376  1.5292
 3057TIP3    H230663   1.806   0.719   5.830  1.3766 -0.8517 -1.8763
 3058TIP3   OH230664   6.284   2.219  15.394 -0.6002 -0.5633  0.1130
 3058TIP3    H130665   6.210   2.225  15.455  0.0305 -1.9053  1.0377
 3058TIP3    H230666   6.305   2.310  15.373 -0.8886 -0.0744  1.8491
 3059TIP3   OH230667   3.680   2.347  10.966 -0.0427  0.1900  0.4568
 3059TIP3    H130668   3.628   2.307  10.897  0.4004  0.7555 -0.2069
 3059TIP3    H230669   3.770   2.318  10.949  0.2450  1.2800  0.1096
 3060TIP3   OH230670   1.766   0.157   5.322 -0.3915  0.4537  0.1935
 3060TIP3    H130671   1.676   0.180   5.297 -0.8732  0.2130  1.6373
 3060TIP3    H230672   1.775   0.065   5.295 -1.2584 -0.1222  1.7858
 3061TIP3   OH230673   3.334   0.973   5.148 -0.5518  0.5517 -1.0041
 3061TIP3    H130674   3.265   0.973   5.081 -2.0052 -2.7918  0.3876
 3061TIP3    H230675   3.288   0.995   5.229  0.5975  1.3615 -0.5642
 3062TIP3   OH230676   3.736   1.210   5.040 -0.2691 -0.4067  0.0517
 3062TIP3    H130677   3.790   1.159   5.100  1.3622  1.2265  0.0449
 3062TIP3    H230678   3.707   1.147   4.975  1.5548 -1.3853  0.1357
 3063TIP3   OH230679   3.007   5.607   3.099 -0.1298 -0.4820  0.5075
 3063TIP3    H130680   3.061   5.532   3.075  0.2367  0.0142 -0.2499
 3063TIP3    H230681   2.933   5.570   3.147  0.2749 -1.2789  0.5116
 3064TIP3   OH230682   1.342   4.086   1.041  0.1942 -0.6598  0.3293
 3064TIP3    H130683   1.353   4.010   1.098 -0.8745  1.4894  3.5791
 3064TIP3    H230684   1.261   4.128   1.072  0.8114  1.8256 -1.2797
 3065TIP3   OH230685   5.231   0.512  13.604 -0.0079 -0.2565  0.3708
 3065TIP3    H130686   5.303   0.455  13.630  0.0619  0.5155  1.8798
 3065TIP3    H230687   5.254   0.539  13.515  0.7715 -1.2666  0.2503
 3066TIP3   OH230688   6.715   0.921  16.967  0.0098 -0.3022  0.4552
 3066TIP3    H130689   6.752   0.840  17.001 -1.1307 -0.4264  1.4462
 3066TIP3    H230690   6.636   0.935  17.020  1.4483  2.7255  1.9325
 3067TIP3   OH230691   3.959   6.586  17.204 -0.1887 -0.0572 -0.2349
 3067TIP3    H130692   3.914   6.669  17.184  1.7246  0.9132 -0.6449
 3067TIP3    H230693   3.947   6.575  17.299  1.2816  1.7682  0.1902
 3068TIP3   OH230694   6.715   0.756   0.556 -0.1820 -0.1471 -0.2342
 3068TIP3    H130695   6.778   0.795   0.496  0.4575  0.0222  0.5274
 3068TIP3    H230696   6.630   0.775   0.519  0.2446 -1.4374 -1.9412
 3069TIP3   OH230697   1.501   0.158  16.193 -0.1000 -0.3045  0.1760
 3069TIP3    H130698   1.553   0.157  16.113  0.4796 -1.8220  0.5606
 3069TIP3    H230699   1.420   0.113  16.170  0.1506 -0.9233  0.4926
 3070TIP3   OH230700   4.661   6.032  15.082 -0.2545  0.2509 -0.5000
 3070TIP3    H130701   4.728   6.021  15.150 -0.8476 -0.5936 -0.0417
 3070TIP3    H230702   4.708   6.025  14.999  0.2505 -0.1918 -0.1775
 3071TIP3   OH230703   3.686   3.833  12.493  0.0372 -0.5252 -0.2328
 3071TIP3    H130704   3.728   3.759  12.448  0.9409  1.4247 -2.7156
 3071TIP3    H230705   3.757   3.896  12.506 -1.0057  0.4991  0.5486
 3072TIP3   OH230706   5.633   2.805  11.573  0.0741  0.2411  0.1797
 3072TIP3    H130707   5.554   2.762  11.541  0.8845 -1.2158  0.0861
 3072TIP3    H230708   5.682   2.828  11.494  0.8016 -0.9245  0.2690
 3073TIP3   OH230709   5.105   6.546  14.357 -0.4116 -0.0767 -0.6004
 3073TIP3    H130710   5.162   6.518  14.286  0.5205  0.2629 -0.0011
 3073TIP3    H230711   5.039   6.478  14.364  1.0458 -1.4711 -0.0288
 3074TIP3   OH230712   6.447   6.380  11.941  0.0881  0.2555  0.4744
 3074TIP3    H130713   6.457   6.395  12.035 -0.4138 -0.8448  0.7152
 3074TIP3    H230714   6.385   6.307  11.935 -0.2458  0.6254 -0.7232
 3075TIP3   OH230715   6.431   0.779   3.867 -0.4204  0.6180  0.1233
 3075TIP3    H130716   6.441   0.707   3.928  2.4513 -0.3341 -1.3767
 3075TIP3    H230717   6.352   0.757   3.816  0.2375 -1.3099 -0.0926
 3076TIP3   OH230718   3.732   2.450  13.651  0.6769 -0.2191 -0.0651
 3076TIP3    H130719   3.661   2.479  13.708  0.4440 -1.5631  0.3384
 3076TIP3    H230720   3.812   2.468  13.701  0.4962 -0.9428  0.4882
 3077TIP3   OH230721   1.001   4.528  15.743 -0.2922  0.1905  0.2723
 3077TIP3    H130722   0.982   4.496  15.831 -0.0543  0.4252  0.4082
 3077TIP3    H230723   1.096   4.528  15.737 -0.2969  0.6214  0.1792
 3078TIP3   OH230724   6.799   3.076  13.095  0.4529  0.7543  0.2567
 3078TIP3    H130725   6.794   3.106  13.186 -1.5736 -0.4652  0.5708
 3078TIP3    H230726   6.851   3.143  13.051  0.5433  1.9274  2.0788
 3079TIP3   OH230727   5.143   5.768  12.953 -0.2186  0.4654 -0.0650
 3079TIP3    H130728   5.154   5.848  12.902  1.4662  1.1005  1.2580
 3079TIP3    H230729   5.101   5.796  13.034 -1.6641 -0.3427 -0.5027
 3080TIP3   OH230730   0.938   3.979   0.913 -0.4977 -0.5733 -0.0827
 3080TIP3    H130731   0.888   4.055   0.883 -3.2570 -2.1435  0.3607
 3080TIP3    H230732   0.973   3.940   0.833 -0.2462  0.3608 -0.4329
 3081TIP3   OH230733   6.082   6.333   5.806 -0.0271 -0.7248  0.3794
 3081TIP3    H130734   6.028   6.262   5.841 -0.0632 -0.9799 -0.1843
 3081TIP3    H230735   6.136   6.291   5.739 -1.4246  0.1478 -1.3118
 3082TIP3   OH230736   0.008   6.422   2.864 -0.2019 -0.2832 -0.0648
 3082TIP3    H130737   0.077   6.488   2.876 -1.0519  0.4744  0.6806
 3082TIP3    H230738  -0.009   6.390   2.953 -0.7803 -0.5059 -0.2598
 3083TIP3   OH230739   2.312   6.238  15.986 -0.1049 -0.3987 -0.4504
 3083TIP3    H130740   2.242   6.300  15.967  1.0212  1.8342  2.3903
 3083TIP3    H230741   2.277   6.181  16.053  0.1134 -0.5274 -0.4470
 3084TIP3   OH230742   2.293   2.020   2.199 -0.4021  0.2947  0.2157
 3084TIP3    H130743   2.226   2.013   2.267 -3.1755  2.1487 -2.2128
 3084TIP3    H230744   2.330   2.107   2.211  1.7179 -0.7379  1.5737
 3085TIP3   OH230745   0.691   2.566  13.115 -0.0188  0.2336 -0.1079
 3085TIP3    H130746   0.741   2.532  13.040  0.5483 -2.4748  1.4408
 3085TIP3    H230747   0.758   2.595  13.177 -0.4573  0.6906  0.1527
 3086TIP3   OH230748   5.005   1.594   4.338 -0.5997 -0.4774  0.5587
 3086TIP3    H130749   5.060   1.560   4.409  1.9069  0.5168 -0.8758
 3086TIP3    H230750   5.055   1.666   4.301 -3.2685  1.0120 -0.2560
 3087TIP3   OH230751   1.525   1.733   2.028  0.5361 -0.4173  0.0872
 3087TIP3    H130752   1.508   1.808   1.972  0.5306 -0.3852  0.1321
 3087TIP3    H230753   1.620   1.725   2.029  0.7549  1.8197  3.0241
 3088TIP3   OH230754   0.377   0.831   3.996 -0.3732 -0.1688  0.2642
 3088TIP3    H130755   0.327   0.902   4.037  0.0111 -0.0929  0.6184
 3088TIP3    H230756   0.319   0.755   3.999 -0.7181  0.0872  0.0541
 3089TIP3   OH230757   0.022   1.418  11.374 -0.7139  0.4090 -0.0321
 3089TIP3    H130758  -0.036   1.459  11.438  1.6202  0.5927  2.0309
 3089TIP3    H230759   0.056   1.341  11.419  1.7129  1.0738 -0.6563
 3090TIP3   OH230760   4.578   3.114   0.564 -0.0778  0.1537  0.9741
 3090TIP3    H130761   4.578   3.042   0.501 -0.8596  0.3005  0.7995
 3090TIP3    H230762   4.490   3.153   0.556  1.2708  2.9592 -1.0162
 3091TIP3   OH230763   4.825   3.639   4.622 -0.1111  0.0483  0.2149
 3091TIP3    H130764   4.919   3.656   4.627  0.2667 -1.8325  0.0312
 3091TIP3    H230765   4.819   3.553   4.580 -1.9531  0.5707 -0.6112
 3092TIP3   OH230766   6.506   2.096   0.191 -0.6165  0.2668 -0.0784
 3092TIP3    H130767   6.494   2.001   0.197 -0.3156  0.2057 -0.4188
 3092TIP3    H230768   6.570   2.108   0.121 -0.0273  0.6786  0.5266
 3093TIP3   OH230769   6.598   4.062  12.285 -0.2352  0.4234  0.1266
 3093TIP3    H130770   6.677   4.075  12.336 -0.9283 -1.7481  1.8357
 3093TIP3    H230771   6.615   3.984  12.233 -0.7994  0.6720 -0.4437
 3094TIP3   OH230772   1.889   0.111  13.392  0.0506  0.4127  0.9389
 3094TIP3    H130773   1.931   0.136  13.309  0.6541  0.0133  1.1131
 3094TIP3    H230774   1.798   0.093  13.369 -0.1313  1.6942  0.6212
 3095TIP3   OH230775   2.322   6.146   3.111  0.9713 -0.2477 -0.1128
 3095TIP3    H130776   2.353   6.235   3.128  0.0580 -0.0088  0.3205
 3095TIP3    H230777   2.292   6.115   3.196  1.3169 -0.9907 -0.2560
 3096TIP3   OH230778   3.372   5.046   3.113  0.0793 -0.2583  0.5093
 3096TIP3    H130779   3.296   4.987   3.115  0.8126 -1.3307 -1.5422
 3096TIP3    H230780   3.407   5.036   3.025  2.2368  0.7096  1.2348
 3097TIP3   OH230781   6.776   5.764  11.140 -0.1937  0.3127  0.1597
 3097TIP3    H130782   6.855   5.798  11.181  0.7529 -0.3317 -1.1128
 3097TIP3    H230783   6.714   5.837  11.143 -0.0668  0.3476  2.5029
 3098TIP3   OH230784   3.695   2.723  15.487 -0.0805  0.2715 -0.3534
 3098TIP3    H130785   3.691   2.697  15.579 -0.1811  0.7143 -0.2329
 3098TIP3    H230786   3.622   2.677  15.446  0.7964 -1.0362 -0.4914
 3099TIP3   OH230787   6.212   2.011  16.421  0.0596  0.0459  0.0952
 3099TIP3    H130788   6.164   1.959  16.356  2.2435 -1.9216  0.0125
 3099TIP3    H230789   6.286   2.047  16.373  2.6617 -2.8139  1.7734
 3100TIP3   OH230790   2.315   5.044   5.493  0.1201  0.0200 -0.1340
 3100TIP3    H130791   2.384   5.025   5.557  0.4950  0.9315 -0.2685
 3100TIP3    H230792   2.233   5.026   5.541  0.4062  0.4402  0.5253
 3101TIP3   OH230793   3.670   1.318  14.228  0.1748 -0.6477  0.1059
 3101TIP3    H130794   3.585   1.312  14.184 -0.0391 -0.6996  0.5193
 3101TIP3    H230795   3.669   1.404  14.271  1.2102  0.2889 -1.6701
 3102TIP3   OH230796   1.820   5.415   3.430  0.3770 -0.5148  0.3809
 3102TIP3    H130797   1.823   5.435   3.524 -1.9214 -1.0836  0.6002
 3102TIP3    H230798   1.837   5.321   3.425  1.8010 -0.2605  0.0940
 3103TIP3   OH230799   4.211   5.393   0.395  0.2424 -0.2291 -0.2927
 3103TIP3    H130800   4.299   5.360   0.376 -0.3647 -0.9900 -1.8590
 3103TIP3    H230801   4.205   5.474   0.344  1.4412  1.9647  2.9104
 3104TIP3   OH230802   2.416   1.873   2.586 -0.0228  0.1230 -0.0490
 3104TIP3    H130803   2.489   1.919   2.544  0.5621  0.5069  1.3602
 3104TIP3    H230804   2.370   1.830   2.514  0.6663  1.1840 -1.1382
 3105TIP3   OH230805   2.617   4.988   0.264  0.2932 -0.1517 -0.1065
 3105TIP3    H130806   2.545   4.940   0.222 -0.8393  1.7529 -0.4247
 3105TIP3    H230807   2.680   5.002   0.194  1.0790 -2.0092  0.2200
 3106TIP3   OH230808   5.841   0.296  13.129  1.2024 -0.4132  0.1264
 3106TIP3    H130809   5.824   0.341  13.046  1.2313 -1.7849 -0.6469
 3106TIP3    H230810   5.786   0.341  13.193  2.2190  1.5516 -0.3545
 3107TIP3   OH230811   2.152   5.433   4.142  0.0223 -0.0154  0.4820
 3107TIP3    H130812   2.066   5.474   4.127  0.4039  0.9730  0.9453
 3107TIP3    H230813   2.171   5.451   4.234  0.0863 -1.4826  0.7606
 3108TIP3   OH230814   3.865   3.442  14.896  0.3136  0.3926 -0.0430
 3108TIP3    H130815   3.799   3.383  14.859  0.5543  0.1957 -0.1574
 3108TIP3    H230816   3.856   3.523  14.847 -0.1170  0.5001  0.2098
 3109TIP3   OH230817   2.291   6.462  16.280  0.2531 -0.3981 -0.2684
 3109TIP3    H130818   2.254   6.471  16.368 -0.2175  0.1485 -0.5189
 3109TIP3    H230819   2.379   6.427  16.294  0.1576 -0.3674  0.4138
 3110TIP3   OH230820   0.728   3.012   2.510 -0.1190  0.4296  0.5024
 3110TIP3    H130821   0.676   2.934   2.492 -0.5489  0.7788  0.2162
 3110TIP3    H230822   0.813   2.978   2.538  0.2592 -0.1424 -1.2723
 3111TIP3   OH230823   2.792   4.239   5.607  0.0575 -0.1722  0.6358
 3111TIP3    H130824   2.818   4.325   5.575  1.3011 -0.2872  1.3018
 3111TIP3    H230825   2.700   4.249   5.632  0.6805  1.4361  2.3762
 3112TIP3   OH230826   4.576   2.562  16.980  0.2797 -0.2408  0.5454
 3112TIP3    H130827   4.608   2.498  17.045  0.9457  0.3237  0.7855
 3112TIP3    H230828   4.486   2.535  16.963  1.5134 -3.1991 -1.7750
 3113TIP3   OH230829   5.991   6.117   1.823  0.0950  0.0978 -0.4944
 3113TIP3    H130830   6.009   6.026   1.799  2.5931  0.6608 -0.9399
 3113TIP3    H230831   6.019   6.123   1.914  0.2037  0.4881 -0.5544
 3114TIP3   OH230832   1.422   1.635  12.489 -0.2872 -0.3650 -0.1411
 3114TIP3    H130833   1.432   1.692  12.413 -2.0478 -0.0338 -0.1552
 3114TIP3    H230834   1.491   1.570  12.480  0.6466  0.7407 -1.0593
 3115TIP3   OH230835   5.815   4.370   6.255 -0.4185 -0.5430 -0.3532
 3115TIP3    H130836   5.883   4.342   6.316 -1.1206 -0.2376  0.5929
 3115TIP3    H230837   5.762   4.292   6.240  0.5779 -0.9764 -1.6959
 3116TIP3   OH230838   5.152   2.422  13.591 -0.3024 -0.7808 -0.0397
 3116TIP3    H130839   5.148   2.327  13.580 -0.7662 -0.7592 -0.0820
 3116TIP3    H230840   5.104   2.438  13.672  0.1931 -0.6255  0.2277
 3117TIP3   OH230841   6.480   1.290  12.457  0.4192 -0.7964  0.1261
 3117TIP3    H130842   6.542   1.283  12.530  0.3600 -1.0132  0.1556
 3117TIP3    H230843   6.395   1.271  12.496  0.4738 -1.5876 -0.1374
 3118TIP3   OH230844   2.082   6.006   2.584 -0.0412  0.1001  0.0470
 3118TIP3    H130845   2.133   5.953   2.522  2.6038  2.1454  0.3660
 3118TIP3    H230846   2.122   5.988   2.669 -1.4892 -0.1270  0.6886
 3119TIP3   OH230847   5.032   3.462   5.096  0.3455  0.2979  0.4222
 3119TIP3    H130848   4.952   3.414   5.120  0.7845 -0.6537 -0.0074
 3119TIP3    H230849   5.009   3.554   5.108 -0.4195 -0.0263  1.5395
 3120TIP3   OH230850   2.707   1.193   2.938 -0.2273 -0.1405 -0.7170
 3120TIP3    H130851   2.622   1.178   2.898 -1.1168  0.2360  0.9941
 3120TIP3    H230852   2.710   1.288   2.954  0.1358 -0.2798  0.0580
 3121TIP3   OH230853   5.012   5.793   4.731 -0.1507  0.2116  0.8929
 3121TIP3    H130854   5.079   5.825   4.670 -0.8663  2.4002  1.2109
 3121TIP3    H230855   5.046   5.708   4.761  1.0517 -0.0887 -1.1856
 3122TIP3   OH230856   4.471   4.092   0.767  0.2459 -0.0042 -0.1395
 3122TIP3    H130857   4.399   4.154   0.776  0.3327  0.6122 -3.1558
 3122TIP3    H230858   4.536   4.121   0.832 -0.6946  1.6429  0.0933
 3123TIP3   OH230859   5.184   3.980  14.035  0.1779  0.1018 -0.4020
 3123TIP3    H130860   5.242   3.972  13.959  1.6090  0.9691  0.5922
 3123TIP3    H230861   5.191   4.071  14.061  0.0849 -0.3065  1.0804
 3124TIP3   OH230862   3.452   6.396  12.548  0.3518 -0.3072  0.2280
 3124TIP3    H130863   3.449   6.471  12.488  1.8239  1.0096  1.7287
 3124TIP3    H230864   3.459   6.320  12.491 -2.0196  0.5921 -1.3730
 3125TIP3   OH230865   4.776   5.310  15.288  0.4706  0.1113 -0.1784
 3125TIP3    H130866   4.820   5.239  15.335  1.0202  0.5088 -0.0966
 3125TIP3    H230867   4.840   5.381  15.284  0.0301  0.4971 -0.5296
 3126TIP3   OH230868   2.769   1.708  13.485 -0.1577  0.5354  0.3939
 3126TIP3    H130869   2.800   1.767  13.416  0.2096  0.4438  0.4816
 3126TIP3    H230870   2.697   1.659  13.444 -1.2168  1.8223  0.6518
 3127TIP3   OH230871   2.674   3.852   5.074 -0.0721  0.0191  0.4792
 3127TIP3    H130872   2.587   3.818   5.054  0.4397 -0.4358 -1.0283
 3127TIP3    H230873   2.658   3.940   5.108 -1.0730  0.2479 -0.5608
 3128TIP3   OH230874   0.483   0.739  16.846  0.2170 -0.1709 -0.3875
 3128TIP3    H130875   0.565   0.746  16.896  0.4967  2.6851 -1.1864
 3128TIP3    H230876   0.511   0.739  16.755 -0.5933 -0.7876 -0.6344
 3129TIP3   OH230877   3.211   5.556  12.431 -0.6462 -0.1114 -0.5876
 3129TIP3    H130878   3.246   5.583  12.517  0.0236 -0.8169 -0.6291
 3129TIP3    H230879   3.116   5.562  12.441 -0.5995 -0.8250  0.4295
 3130TIP3   OH230880   0.703   4.320  16.433 -0.3928  0.1084  0.3106
 3130TIP3    H130881   0.700   4.302  16.527 -0.2246  1.9536  0.7054
 3130TIP3    H230882   0.795   4.337  16.414 -0.3458 -0.8220 -0.3060
 3131TIP3   OH230883   0.885   1.843  17.032  0.5255 -0.1697 -0.6669
 3131TIP3    H130884   0.868   1.750  17.018  0.3530 -0.2254 -0.1207
 3131TIP3    H230885   0.964   1.845  17.086  0.1409 -0.0222 -0.1059
 3132TIP3   OH230886   4.552   0.525   1.325 -0.0156 -0.1974 -0.0816
 3132TIP3    H130887   4.524   0.437   1.299 -0.0183 -1.3403  3.5568
 3132TIP3    H230888   4.470   0.575   1.332 -0.3273 -0.8467  1.0537
 3133TIP3   OH230889   2.408   5.149  15.807 -0.0284  0.0669  0.3581
 3133TIP3    H130890   2.396   5.130  15.714 -0.3176 -0.6558  0.5395
 3133TIP3    H230891   2.380   5.240  15.817  1.0376  0.4976 -0.4602
 3134TIP3   OH230892   5.380   0.096   6.077  0.2161 -0.0131 -0.0767
 3134TIP3    H130893   5.322   0.104   6.153 -0.3806 -2.5408 -0.2268
 3134TIP3    H230894   5.468   0.099   6.115 -0.0465  0.6299  0.5024
 3135TIP3   OH230895   1.345   6.542   3.519  0.4996  0.3724 -0.5994
 3135TIP3    H130896   1.407   6.605   3.482  1.2975 -0.4071 -0.6082
 3135TIP3    H230897   1.280   6.595   3.564 -0.1175  1.3243 -2.5552
 3136TIP3   OH230898   0.554   0.827   3.292  0.5080 -0.5358 -0.1755
 3136TIP3    H130899   0.515   0.759   3.237  1.7533 -1.2569 -0.1928
 3136TIP3    H230900   0.646   0.802   3.299  1.0091  1.2255 -0.2859
 3137TIP3   OH230901   3.459   1.602   2.102 -0.1639  0.4213 -0.5263
 3137TIP3    H130902   3.536   1.641   2.062  0.6644 -2.1346 -1.4770
 3137TIP3    H230903   3.389   1.616   2.039  0.1621  0.2475 -0.9276
 3138TIP3   OH230904   3.704   1.799  13.124  0.0445 -0.0373  0.6311
 3138TIP3    H130905   3.671   1.770  13.209  0.9498 -0.5125  0.8311
 3138TIP3    H230906   3.746   1.722  13.087 -0.7413  0.0485 -0.4565
 3139TIP3   OH230907   2.222   1.393   4.132 -0.2332  0.1909  0.3842
 3139TIP3    H130908   2.237   1.395   4.226 -0.1892 -1.1615  0.4147
 3139TIP3    H230909   2.292   1.447   4.096  0.2795 -0.0105  1.0636
 3140TIP3   OH230910   2.692   3.625   3.845 -0.6831 -0.0059 -0.6981
 3140TIP3    H130911   2.655   3.562   3.907 -0.7367  0.7023 -0.0072
 3140TIP3    H230912   2.638   3.617   3.767 -1.2641 -0.1567 -0.2787
 3141TIP3   OH230913   6.781   5.307   6.606  0.5487 -0.6825  0.1430
 3141TIP3    H130914   6.795   5.213   6.589  0.7019 -1.2246  3.0165
 3141TIP3    H230915   6.687   5.315   6.621  0.5438 -0.3616 -0.0463
 3142TIP3   OH230916   4.397   5.812   1.165  0.4299 -0.8636 -0.0476
 3142TIP3    H130917   4.479   5.772   1.137  1.6112  1.1580  0.4144
 3142TIP3    H230918   4.396   5.898   1.123 -1.9034 -1.2135 -0.7890
 3143TIP3   OH230919   1.939   1.514   4.288 -0.4098  0.3085 -0.0302
 3143TIP3    H130920   1.922   1.607   4.268 -1.0645  0.4290  1.0713
 3143TIP3    H230921   1.875   1.467   4.234  0.6726  0.4220 -1.4647
 3144TIP3   OH230922   6.355   0.572  13.304 -0.4116  0.0843  0.1714
 3144TIP3    H130923   6.422   0.608  13.361  0.0260 -1.4208  0.6242
 3144TIP3    H230924   6.357   0.478  13.321 -0.4069 -0.3652 -2.1593
 3145TIP3   OH230925   2.064   2.290  13.253 -0.0729  0.1763 -0.0411
 3145TIP3    H130926   2.151   2.269  13.286  1.0608  1.7418 -1.9130
 3145TIP3    H230927   2.033   2.361  13.309 -0.4614 -0.8664  1.0792
 3146TIP3   OH230928   2.412   3.939   3.815  0.6198 -0.0475 -0.0041
 3146TIP3    H130929   2.340   3.876   3.826  0.1378  0.6281  0.7936
 3146TIP3    H230930   2.373   4.024   3.837  1.2320  0.5518 -1.2025
 3147TIP3   OH230931   0.317   3.755  15.320 -0.0120 -0.4958  0.1762
 3147TIP3    H130932   0.287   3.665  15.329  0.3873 -0.8950 -2.2056
 3147TIP3    H230933   0.244   3.808  15.353 -1.0539 -1.6295 -0.2563
 3148TIP3   OH230934   3.821   2.275  15.057  0.5349  0.2350  0.3886
 3148TIP3    H130935   3.764   2.205  15.027  0.9382  0.1662 -0.2461
 3148TIP3    H230936   3.763   2.337  15.101 -0.1855  0.6523 -1.0960
 3149TIP3   OH230937   1.711   3.154  11.379  0.2824 -0.5920 -0.0798
 3149TIP3    H130938   1.639   3.166  11.317  0.1669 -2.2120 -0.2766
 3149TIP3    H230939   1.775   3.221  11.354 -1.1879  0.9524  0.1898
 3150TIP3   OH230940   5.620   5.423  12.614  0.1559  0.0538 -0.2213
 3150TIP3    H130941   5.549   5.367  12.645  0.0177  0.1344 -0.3910
 3150TIP3    H230942   5.655   5.378  12.538 -0.1222  0.3208 -0.5115
 3151TIP3   OH230943   1.617   5.802  15.385 -0.3343  0.5564 -0.1698
 3151TIP3    H130944   1.553   5.871  15.371 -0.6097  0.3444  0.0214
 3151TIP3    H230945   1.587   5.730  15.330 -1.9633 -0.6247  2.1602
 3152TIP3   OH230946   3.078   5.959   4.159  0.6020 -0.1301 -0.6955
 3152TIP3    H130947   3.170   5.982   4.150  0.6129 -0.2892 -1.0166
 3152TIP3    H230948   3.078   5.865   4.180  0.5338 -0.0011 -0.1207
 3153TIP3   OH230949   2.598   0.254  12.055  0.2749  0.4603 -0.2418
 3153TIP3    H130950   2.650   0.283  12.131  0.3236  0.0215 -0.1090
 3153TIP3    H230951   2.532   0.196  12.091  1.2615 -0.9846 -0.7212
 3154TIP3   OH230952   4.155   2.465  11.706  0.5982 -0.1025 -0.2094
 3154TIP3    H130953   4.092   2.396  11.730  0.0963  0.8845  1.4308
 3154TIP3    H230954   4.238   2.419  11.694 -0.2095 -1.2901 -1.3563
 3155TIP3   OH230955   0.700   0.414   2.624  0.5444 -0.1785  0.5910
 3155TIP3    H130956   0.623   0.372   2.587 -0.0604 -0.6859  2.3744
 3155TIP3    H230957   0.735   0.350   2.686  0.9908  1.0060  1.5860
 3156TIP3   OH230958   6.688   6.152  15.284 -0.1459  0.1235 -0.4799
 3156TIP3    H130959   6.598   6.120  15.285  0.2506 -1.0359  0.6241
 3156TIP3    H230960   6.683   6.239  15.246 -1.8287  0.3273  0.1682
 3157TIP3   OH230961   2.591   3.165   1.805 -0.0265  0.3760 -0.2655
 3157TIP3    H130962   2.629   3.160   1.717 -1.6772  0.4903 -1.0178
 3157TIP3    H230963   2.563   3.075   1.824  0.5303  0.3085  0.2376
 3158TIP3   OH230964   0.457   0.322  16.656 -0.1834 -0.2029 -0.4746
 3158TIP3    H130965   0.519   0.390  16.629  0.0355  0.3266  1.2863
 3158TIP3    H230966   0.431   0.348  16.745 -3.2575 -0.1669 -1.3428
 3159TIP3   OH230967   2.682   5.873   4.605  0.4185  0.1738 -0.1885
 3159TIP3    H130968   2.762   5.822   4.617  0.0458 -0.5265 -0.6865
 3159TIP3    H230969   2.612   5.816   4.636  0.2693  1.4379  1.8701
 3160TIP3   OH230970   3.167   0.939  12.369 -0.3623 -0.0893 -0.3554
 3160TIP3    H130971   3.137   1.008  12.311  1.2558  0.4264 -0.6000
 3160TIP3    H230972   3.128   0.960  12.454  0.3509  1.2999 -0.3522
 3161TIP3   OH230973   5.134   0.840   1.818 -0.2576 -0.0854 -0.2602
 3161TIP3    H130974   5.067   0.891   1.773 -0.7849 -0.9234 -0.4344
 3161TIP3    H230975   5.159   0.772   1.756 -0.5865 -0.9025  0.4747
 3162TIP3   OH230976   2.130   6.217   2.380  0.1233  0.4949  0.2515
 3162TIP3    H130977   2.060   6.162   2.416 -0.2572  0.8459  0.0510
 3162TIP3    H230978   2.211   6.177   2.413 -0.2138  0.6905  1.3280
 3163TIP3   OH230979   3.734   1.058   4.197 -0.8559 -0.2638  0.5247
 3163TIP3    H130980   3.655   1.112   4.196 -0.4543  0.3459  1.0095
 3163TIP3    H230981   3.706   0.974   4.233 -1.3532 -0.1507  0.3958
 3164TIP3   OH230982   2.878   2.412   0.177 -0.0639  0.5000 -0.4020
 3164TIP3    H130983   2.930   2.467   0.119  0.4160  2.0190  1.4179
 3164TIP3    H230984   2.799   2.464   0.193 -0.7139 -0.4171 -0.6095
 3165TIP3   OH230985   1.470   6.575  15.602 -0.4708 -0.1260 -0.1394
 3165TIP3    H130986   1.562   6.548  15.609 -1.0724 -2.0254  0.9142
 3165TIP3    H230987   1.421   6.503  15.643 -2.2909  1.8138  1.2273
 3166TIP3   OH230988   3.986   2.343  16.284  0.3426  0.7466 -0.0976
 3166TIP3    H130989   4.031   2.400  16.347 -0.4851  1.4289 -0.1200
 3166TIP3    H230990   4.038   2.263  16.284  0.9299  1.1151  0.7101
 3167TIP3   OH230991   1.002   1.925  16.214 -0.2811 -0.2848  0.6991
 3167TIP3    H130992   1.066   1.903  16.147  1.3025 -1.5423  2.5608
 3167TIP3    H230993   0.925   1.872  16.194  0.9118 -2.1862  1.0147
 3168TIP3   OH230994   5.194   1.180  16.739  0.3956 -0.3084 -0.2397
 3168TIP3    H130995   5.269   1.224  16.699  0.8477 -0.7132  0.1668
 3168TIP3    H230996   5.216   1.087  16.736 -2.0076 -0.9020 -4.2588
 3169TIP3   OH230997   0.785   0.746   3.412  0.5861 -0.1830 -0.1109
 3169TIP3    H130998   0.721   0.699   3.465  0.6888  0.2730  0.4313
 3169TIP3    H230999   0.818   0.681   3.350 -1.2382 -0.1130 -1.1709
 3170TIP3   OH231000   6.737   3.127   3.419 -0.7637 -0.4713  0.1635
 3170TIP3    H131001   6.659   3.131   3.365 -0.5414 -0.2049 -0.1454
 3170TIP3    H231002   6.751   3.034   3.436  0.6497 -0.7556 -2.4228
 3171TIP3   OH231003   1.548   4.419  15.848 -0.0948 -0.1126 -0.2322
 3171TIP3    H131004   1.625   4.458  15.888  0.1088 -0.8813  0.1370
 3171TIP3    H231005   1.492   4.395  15.922 -0.7815  0.6306 -0.5032
 3172TIP3   OH231006   4.148   5.060  14.867 -0.8371  0.0428 -0.6428
 3172TIP3    H131007   4.129   4.967  14.852 -0.0323  0.1873 -2.6932
 3172TIP3    H231008   4.090   5.106  14.806 -1.9712  0.9666  1.0688
 3173TIP3   OH231009   0.507   4.201   5.753 -0.1334  0.2029  0.0136
 3173TIP3    H131010   0.443   4.165   5.692 -0.6717  1.1804 -0.0049
 3173TIP3    H231011   0.462   4.275   5.794  1.1695  1.2168 -0.3829
 3174TIP3   OH231012   6.304   6.657  15.467 -0.2068  0.0441 -0.0983
 3174TIP3    H131013   6.278   6.657  15.559 -1.0009  0.0160 -0.3231
 3174TIP3    H231014   6.368   6.586  15.461 -0.1505  0.0444  0.4254
 3175TIP3   OH231015   3.658   3.575   1.299 -0.0939 -0.8040 -0.2169
 3175TIP3    H131016   3.712   3.520   1.243 -1.2607 -0.7148 -1.4623
 3175TIP3    H231017   3.605   3.627   1.239 -1.3134 -0.6344  0.9549
 3176TIP3   OH231018   1.636   0.125  15.127 -0.0661 -0.4163  0.3024
 3176TIP3    H131019   1.664   0.182  15.198 -2.0637  0.4312  0.4419
 3176TIP3    H231020   1.543   0.109  15.144 -0.2220 -1.3496 -1.3342
 3177TIP3   OH231021   4.153   6.666  11.963  0.0605  0.2412  0.3362
 3177TIP3    H131022   4.169   6.601  11.894 -0.3772 -0.1658  0.6212
 3177TIP3    H231023   4.075   6.634  12.009 -1.0002  1.6964 -0.4076
 3178TIP3   OH231024   1.884   0.172   3.763 -0.3676 -0.1402  0.5025
 3178TIP3    H131025   1.828   0.243   3.733 -3.3094 -1.9464  1.4783
 3178TIP3    H231026   1.837   0.092   3.737  3.2472 -1.7638 -1.3343
 3179TIP3   OH231027   3.318   1.450   3.551  0.2951 -0.4165 -0.0459
 3179TIP3    H131028   3.338   1.540   3.573 -2.5160 -0.1237  1.6023
 3179TIP3    H231029   3.297   1.452   3.457  2.5978  0.1480 -0.5842
 3180TIP3   OH231030   6.055   2.303   0.778 -0.4442 -0.0994 -0.0822
 3180TIP3    H131031   6.142   2.279   0.812 -1.6389 -2.8708  1.1668
 3180TIP3    H231032   6.016   2.219   0.752 -2.1984  1.2723 -1.9917
 3181TIP3   OH231033   3.436   5.092   1.740 -0.4428  0.2267  0.1301
 3181TIP3    H131034   3.470   5.091   1.830 -0.9580  2.0825  0.3654
 3181TIP3    H231035   3.465   5.008   1.703  0.3195 -0.2870  1.8173
 3182TIP3   OH231036   2.264   5.025  12.556  0.3105  0.2607  0.0464
 3182TIP3    H131037   2.186   5.080  12.564  0.9760  1.1166  0.7799
 3182TIP3    H231038   2.255   4.961  12.626 -0.0455 -0.0417 -0.2716
 3183TIP3   OH231039   4.898   6.761   2.126 -0.2810  0.4022 -0.6475
 3183TIP3    H131040   4.806   6.766   2.098 -0.9272 -0.6697  1.2327
 3183TIP3    H231041   4.928   6.852   2.125 -1.3204  0.7492 -1.3918
 3184TIP3   OH231042   2.595   1.908  13.626  0.2555 -0.2976  0.1339
 3184TIP3    H131043   2.664   1.860  13.580  1.9863  0.4930  1.8432
 3184TIP3    H231044   2.556   1.844  13.685  2.8051  0.3795  2.6782
 3185TIP3   OH231045   4.964   4.032   1.444 -0.1252  0.1146  0.2768
 3185TIP3    H131046   4.951   4.079   1.527  0.2063 -0.2638  0.5426
 3185TIP3    H231047   5.057   4.009   1.444 -0.2876 -0.5353  0.1385
 3186TIP3   OH231048   5.103   1.848  15.043 -0.6774 -0.2888  0.4814
 3186TIP3    H131049   5.049   1.829  14.966  2.0309  1.0596 -1.8633
 3186TIP3    H231050   5.084   1.939  15.065  0.8934  0.3300 -0.6275
 3187TIP3   OH231051   5.872   3.994   1.024 -0.3337 -0.0443 -0.4526
 3187TIP3    H131052   5.923   3.953   1.094 -0.7913 -0.3083 -0.2715
 3187TIP3    H231053   5.885   4.088   1.036 -1.7870 -0.0286  1.0300
 3188TIP3   OH231054   4.948   3.469  12.498  0.4763  0.1314  0.5075
 3188TIP3    H131055   4.912   3.555  12.472 -1.6484 -0.6413  0.7921
 3188TIP3    H231056   5.013   3.449  12.430 -1.1341  0.6292 -1.2445
 3189TIP3   OH231057   5.203   3.495  12.762  0.3481 -0.3887 -0.1700
 3189TIP3    H131058   5.134   3.431  12.780 -1.3744  1.6263  0.7183
 3189TIP3    H231059   5.207   3.500  12.667 -0.8108 -0.4655 -0.2319
 3190TIP3   OH231060   2.277   4.828  12.759  0.0803 -0.9647  0.5232
 3190TIP3    H131061   2.360   4.844  12.805  0.7031  1.3679 -1.3036
 3190TIP3    H231062   2.291   4.745  12.713  0.8995 -1.2911  1.3503
 3191TIP3   OH231063   6.667   2.765   1.544 -0.2011  0.4524  0.4414
 3191TIP3    H131064   6.592   2.803   1.591 -0.0094  0.3771  0.8034
 3191TIP3    H231065   6.727   2.838   1.532 -1.0789  0.9238 -1.3644
 3192TIP3   OH231066   2.626   4.410  13.446  0.2938  0.0340 -0.2678
 3192TIP3    H131067   2.708   4.453  13.420  1.3387 -0.2944  2.3376
 3192TIP3    H231068   2.603   4.452  13.529 -1.3375 -1.0045 -0.1860
 3193TIP3   OH231069   1.603   3.280  16.289 -0.2485  0.0453  0.6418
 3193TIP3    H131070   1.671   3.329  16.242 -0.2090 -0.1396  0.5088
 3193TIP3    H231071   1.530   3.276  16.228  0.2180 -1.2071  0.1503
 3194TIP3   OH231072   6.468   5.181  14.086  0.1724  0.2275 -0.2106
 3194TIP3    H131073   6.450   5.198  13.993  1.8557  1.0441 -0.4019
 3194TIP3    H231074   6.550   5.133  14.086  0.8311  1.3420  0.9350
 3195TIP3   OH231075   6.575   0.841   2.873 -0.2508  0.0366  0.2024
 3195TIP3    H131076   6.521   0.917   2.893 -0.4890 -0.3323  1.0118
 3195TIP3    H231077   6.655   0.853   2.924 -0.5146 -0.5097  0.7615
 3196TIP3   OH231078   2.521   5.076  12.987 -0.1273 -0.2983 -0.1723
 3196TIP3    H131079   2.512   4.986  13.019  0.0513 -0.2358  0.0545
 3196TIP3    H231080   2.594   5.072  12.925 -0.7055 -0.4911 -0.8433
 3197TIP3   OH231081   4.748   3.721   3.748  0.3295 -0.2982  0.6987
 3197TIP3    H131082   4.697   3.673   3.814 -0.0852  0.7105  1.1263
 3197TIP3    H231083   4.812   3.771   3.800  1.3538 -1.0829  0.2019
 3198TIP3   OH231084   3.338   3.050   4.860 -0.1175 -0.3526  0.4517
 3198TIP3    H131085   3.331   2.980   4.795  1.5391 -1.7622  1.7406
 3198TIP3    H231086   3.395   3.115   4.820 -0.4344 -0.4428 -0.1465
 3199TIP3   OH231087   1.260   5.252   1.745 -0.9919 -0.0671  0.5677
 3199TIP3    H131088   1.225   5.322   1.799  0.0413 -0.5285  1.8729
 3199TIP3    H231089   1.186   5.223   1.691 -1.3492  2.2070 -0.2079
 3200TIP3   OH231090   6.416   3.111   3.248  0.0747 -0.2956 -0.1244
 3200TIP3    H131091   6.323   3.089   3.253  0.6809 -2.3884  2.4527
 3200TIP3    H231092   6.421   3.202   3.279 -1.1412  0.0585 -0.9134
 3201TIP3   OH231093   2.644   5.650   5.418 -0.1059  0.4657 -0.0049
 3201TIP3    H131094   2.602   5.610   5.342  0.1800 -1.5080  0.8397
 3201TIP3    H231095   2.607   5.603   5.493  0.4061  1.6547  1.0035
 3202TIP3   OH231096   5.997   3.854   4.855 -0.0415  0.2467  0.5393
 3202TIP3    H131097   5.922   3.889   4.807  0.5108  0.0329 -0.5010
 3202TIP3    H231098   5.991   3.893   4.942 -2.8389 -1.8120  1.3385
 3203TIP3   OH231099   4.251   0.097   3.000 -0.3736 -0.1109 -0.2695
 3203TIP3    H131100   4.281   0.157   3.069 -0.8918  1.1546 -1.1136
 3203TIP3    H231101   4.156   0.109   2.998 -0.1471  1.5758 -2.7247
 3204TIP3   OH231102   0.367   0.653   1.543  0.2979 -0.5717  0.0392
 3204TIP3    H131103   0.287   0.653   1.595  1.1068 -1.7265  1.2938
 3204TIP3    H231104   0.397   0.744   1.547 -0.0460 -0.4911  0.9715
 3205TIP3   OH231105   1.321   0.886  14.202  0.1272  0.0572  0.5257
 3205TIP3    H131106   1.415   0.892  14.217  0.0743 -0.0423  0.8947
 3205TIP3    H231107   1.295   0.973  14.173  0.5482 -0.2329 -0.7768
 3206TIP3   OH231108   2.475   6.681   5.124  0.4257  0.0722  0.9358
 3206TIP3    H131109   2.415   6.670   5.050  0.5153  1.7519  0.5981
 3206TIP3    H231110   2.557   6.642   5.094 -0.2327 -1.4826  1.0897
 3207TIP3   OH231111   5.837   0.963  16.408  0.3176 -0.6216 -0.0457
 3207TIP3    H131112   5.874   0.971  16.496 -1.3456  1.8327  0.5023
 3207TIP3    H231113   5.911   0.981  16.350  0.5327  2.2282  0.9916
 3208TIP3   OH231114   4.747   4.405  11.118 -0.1948  0.3945 -0.2302
 3208TIP3    H131115   4.671   4.349  11.101 -0.7202  0.3184  2.2746
 3208TIP3    H231116   4.751   4.412  11.213  2.9530  0.4098 -0.3338
 3209TIP3   OH231117   4.783   6.404   5.829  1.2677  0.1557 -0.4959
 3209TIP3    H131118   4.755   6.357   5.907  1.6522  0.4337 -0.1874
 3209TIP3    H231119   4.732   6.366   5.758  0.8603 -0.0462 -0.0968
 3210TIP3   OH231120   6.663   1.313   1.715 -0.2679 -0.6836  0.1378
 3210TIP3    H131121   6.743   1.290   1.669 -1.1572 -0.6980 -1.4657
 3210TIP3    H231122   6.630   1.390   1.669 -0.0212  0.6863  2.1888
 3211TIP3   OH231123   0.266   5.114   2.311  0.6360 -0.0507 -0.3723
 3211TIP3    H131124   0.183   5.162   2.314  0.4514 -0.3495 -0.6046
 3211TIP3    H231125   0.280   5.095   2.218 -0.1933 -1.9473 -0.1511
 3212TIP3   OH231126   4.567   0.331   1.631  0.2146  0.2094 -0.0072
 3212TIP3    H131127   4.537   0.406   1.579  0.5667 -0.0133 -0.5406
 3212TIP3    H231128   4.636   0.291   1.577 -0.1575 -0.6510  0.1555
 3213TIP3   OH231129   4.228   4.685   3.365  0.3223  0.2465 -0.2463
 3213TIP3    H131130   4.265   4.597   3.364  0.1992  0.1753  0.6617
 3213TIP3    H231131   4.304   4.743   3.370  0.4754  0.2648 -2.3658
 3214TIP3   OH231132   2.694   2.203  12.379  0.0503  0.6032 -0.4289
 3214TIP3    H131133   2.654   2.266  12.438 -1.0720 -2.1907  1.9112
 3214TIP3    H231134   2.753   2.152  12.434 -0.7168 -1.8146 -1.7446
 3215TIP3   OH231135   0.924   0.123   6.527 -0.2564  0.0868  0.2920
 3215TIP3    H131136   0.946   0.210   6.493  1.0865 -0.9711 -1.5949
 3215TIP3    H231137   0.999   0.099   6.582  0.2672 -0.6899 -0.7512
 3216TIP3   OH231138   1.277   2.768   5.283  0.2734 -0.2540 -0.0744
 3216TIP3    H131139   1.337   2.719   5.340 -0.5910  0.0480  1.1165
 3216TIP3    H231140   1.288   2.859   5.310  0.6698  0.0211 -1.1602
 3217TIP3   OH231141   2.624   1.854   4.191 -0.2055  0.1405  0.0534
 3217TIP3    H131142   2.649   1.831   4.102 -0.5311 -1.5598  0.3836
 3217TIP3    H231143   2.686   1.807   4.246 -0.9045  0.0171  0.7487
 3218TIP3   OH231144   5.162   0.595  17.188  0.1265 -0.8463 -0.3410
 3218TIP3    H131145   5.210   0.605  17.270 -3.2275  0.9220  1.5004
 3218TIP3    H231146   5.178   0.676  17.140 -1.5074  0.0770  0.6109
 3219TIP3   OH231147   4.543   0.388   4.876  0.2595  0.2676 -0.4550
 3219TIP3    H131148   4.565   0.295   4.878 -1.5298 -0.1655 -0.3067
 3219TIP3    H231149   4.474   0.396   4.811  0.4464  1.5169 -0.5231
 3220TIP3   OH231150   4.548   4.567  12.238  0.1447 -0.1868  0.0254
 3220TIP3    H131151   4.609   4.495  12.256  0.7091  0.8580  2.3309
 3220TIP3    H231152   4.598   4.628  12.183  0.2886 -0.5993 -0.3117
 3221TIP3   OH231153   3.858   6.411  12.964 -0.6713 -0.3533 -0.3757
 3221TIP3    H131154   3.822   6.479  13.021  1.0293 -0.9589  1.4717
 3221TIP3    H231155   3.853   6.331  13.015 -1.1815 -1.3413 -1.9402
 3222TIP3   OH231156   2.640   2.074   5.524 -0.4614 -0.0237 -0.0313
 3222TIP3    H131157   2.695   2.118   5.588 -0.3839 -1.2645  0.7911
 3222TIP3    H231158   2.580   2.021   5.577 -1.0086 -0.3557 -0.9632
 3223TIP3   OH231159   5.726   2.272   2.552  0.0840  0.0563 -0.4807
 3223TIP3    H131160   5.817   2.265   2.581 -0.1588 -2.7743 -0.2473
 3223TIP3    H231161   5.717   2.362   2.522  2.6496  0.6925  0.5319
 3224TIP3   OH231162   6.349   4.555  11.488  0.2303 -0.1564  0.3634
 3224TIP3    H131163   6.272   4.594  11.447  1.6726  2.5590  0.1258
 3224TIP3    H231164   6.424   4.595  11.443  1.7941 -1.0489  2.0780
 3225TIP3   OH231165   3.726   1.260   4.712 -1.0135  0.0588 -0.2668
 3225TIP3    H131166   3.712   1.166   4.696  2.4092 -0.8589  1.5884
 3225TIP3    H231167   3.810   1.278   4.669  1.1939  0.8880  4.1509
 3226TIP3   OH231168   1.265   5.061  11.563 -0.8043  0.6113  0.4660
 3226TIP3    H131169   1.211   5.133  11.531  1.1461  1.3045 -1.4121
 3226TIP3    H231170   1.355   5.094  11.556 -0.0113 -1.2875  1.4531
 3227TIP3   OH231171   4.048   4.136  15.396  0.5351 -0.4204 -0.1080
 3227TIP3    H131172   4.042   4.218  15.445  1.5070  0.2297 -1.0454
 3227TIP3    H231173   4.072   4.071  15.461 -1.1542 -0.1444  0.8140
 3228TIP3   OH231174   0.910   4.551   4.452 -0.2445  0.7698  0.3510
 3228TIP3    H131175   0.845   4.547   4.381  0.3829  0.2840 -0.1963
 3228TIP3    H231176   0.965   4.473   4.439  0.6802  1.3803  0.5966
 3229TIP3   OH231177   0.677   4.073   4.222 -0.1238 -0.2456 -0.1889
 3229TIP3    H131178   0.736   4.111   4.287  0.1620 -1.4559  0.2612
 3229TIP3    H231179   0.613   4.142   4.204  0.9642  0.7979 -0.1019
 3230TIP3   OH231180   6.218   6.772   3.706 -0.1532  0.1742 -0.1271
 3230TIP3    H131181   6.171   6.836   3.652  0.9347  1.2130  0.1498
 3230TIP3    H231182   6.163   6.763   3.785 -1.5960 -1.1366 -1.2499
 3231TIP3   OH231183   1.329   3.265  14.674 -0.4132 -0.4112 -0.1279
 3231TIP3    H131184   1.392   3.213  14.723  0.7526  1.4460  0.3841
 3231TIP3    H231185   1.259   3.284  14.737 -0.5428 -0.8281 -0.1452
 3232TIP3   OH231186   3.027   4.965   5.641 -0.0186  0.1865  0.0002
 3232TIP3    H131187   2.953   4.910   5.617  0.5116  0.4702 -2.3820
 3232TIP3    H231188   3.084   4.906   5.691 -0.5846 -0.7843 -0.4668
 3233TIP3   OH231189   3.791   5.505   0.918 -0.4342 -0.4214  0.0557
 3233TIP3    H131190   3.841   5.568   0.866 -0.6121  0.6430  1.1547
 3233TIP3    H231191   3.837   5.500   1.001 -1.1567 -0.7664  0.4422
 3234TIP3   OH231192   2.455   3.758  16.125 -0.2696  0.2626 -0.0882
 3234TIP3    H131193   2.463   3.767  16.219 -0.7873  0.0038 -0.0139
 3234TIP3    H231194   2.361   3.746  16.110 -0.1215 -0.3310 -0.5809
 3235TIP3   OH231195   1.843   3.492   4.248 -0.2861 -0.5025 -0.0128
 3235TIP3    H131196   1.804   3.570   4.288  0.4765  0.5924 -1.3744
 3235TIP3    H231197   1.869   3.520   4.161  0.4070 -2.1723 -0.3598
 3236TIP3   OH231198   5.397   4.160   3.794 -0.3568 -0.2713  0.6150
 3236TIP3    H131199   5.319   4.198   3.754  0.6475 -0.0253 -1.1560
 3236TIP3    H231200   5.385   4.065   3.784  0.5550 -0.1834 -1.6419
 3237TIP3   OH231201   1.379   5.250   4.351  0.7643  0.1526 -0.6158
 3237TIP3    H131202   1.393   5.302   4.271  0.6467  0.7668 -0.2429
 3237TIP3    H231203   1.327   5.175   4.322 -0.3122  0.9895 -0.9060
 3238TIP3   OH231204   0.002   2.287  11.759 -0.1491 -0.0076  0.1512
 3238TIP3    H131205  -0.093   2.291  11.769 -0.1624 -0.8954  0.4601
 3238TIP3    H231206   0.025   2.199  11.790  0.7080  0.0023 -0.4528
 3239TIP3   OH231207   0.543   5.906   2.664  0.0941 -0.5380  0.0933
 3239TIP3    H131208   0.553   5.823   2.710  0.5967 -1.4260 -1.5606
 3239TIP3    H231209   0.473   5.890   2.600 -3.4287  1.8853  3.1646
 3240TIP3   OH231210   5.466   5.256   0.726 -0.0740  0.0919  0.1116
 3240TIP3    H131211   5.511   5.176   0.700 -1.0591 -0.8743  1.3160
 3240TIP3    H231212   5.407   5.229   0.797 -2.1785  1.4277 -1.0824
 3241TIP3   OH231213   0.067   4.643  10.895  0.1689  0.2009 -0.8432
 3241TIP3    H131214   0.094   4.615  10.983 -0.2863  0.3377 -0.6571
 3241TIP3    H231215   0.101   4.732  10.886 -0.5910  0.5348 -0.4430
 3242TIP3   OH231216   4.001   2.302   5.898  0.2394 -0.0009  0.2480
 3242TIP3    H131217   3.920   2.348   5.922  0.6027 -0.2863  2.1383
 3242TIP3    H231218   4.045   2.360   5.836 -0.2626  1.2682  1.0674
 3243TIP3   OH231219   1.996   4.315  14.525  0.4476 -0.4937 -0.5416
 3243TIP3    H131220   2.062   4.339  14.590 -0.9825  0.9413  0.4440
 3243TIP3    H231221   1.946   4.245  14.567  0.2348 -0.3533 -0.5613
 3244TIP3   OH231222   2.808   5.142  14.327 -0.3606 -0.8268 -0.0736
 3244TIP3    H131223   2.782   5.203  14.258 -0.5254  0.0150  0.7176
 3244TIP3    H231224   2.747   5.161  14.399 -0.3800 -1.8923  0.2017
 3245TIP3   OH231225   6.471   2.377   3.990 -0.6098 -0.5425  0.8627
 3245TIP3    H131226   6.435   2.375   3.901 -1.0754  2.2643  0.9443
 3245TIP3    H231227   6.395   2.394   4.046 -0.0343 -0.3927  1.6123
 3246TIP3   OH231228   4.593   0.562   5.650 -0.4821 -0.2268 -0.1682
 3246TIP3    H131229   4.678   0.525   5.675 -0.6795  0.7662  2.0849
 3246TIP3    H231230   4.578   0.632   5.713 -2.9170 -0.2762 -0.6464
 3247TIP3   OH231231   5.944   1.679  11.046  0.4899 -0.2783  0.2404
 3247TIP3    H131232   5.975   1.763  11.079  1.7951 -0.6706  0.0425
 3247TIP3    H231233   5.968   1.679  10.953 -1.2813 -0.0471 -0.2305
 3248TIP3   OH231234   6.496   4.131   4.276  0.4521  0.0830  0.0278
 3248TIP3    H131235   6.466   4.046   4.307  0.6012 -0.2648 -0.7548
 3248TIP3    H231236   6.487   4.189   4.351 -0.1022 -0.5180  0.4301
 3249TIP3   OH231237   1.746   0.367   3.369  0.3936 -0.2583  0.0412
 3249TIP3    H131238   1.773   0.458   3.378 -0.9525 -0.1617  3.6111
 3249TIP3    H231239   1.820   0.317   3.403  0.6455 -0.4771 -0.8095
 3250TIP3   OH231240   0.095   5.872  16.499  0.3646 -0.0925 -0.1137
 3250TIP3    H131241   0.036   5.909  16.433  0.4964 -0.3873 -0.3978
 3250TIP3    H231242   0.102   5.939  16.566 -0.2524 -0.0305 -0.1092
 3251TIP3   OH231243   2.654   0.602  11.285 -0.8442  0.0594  0.3528
 3251TIP3    H131244   2.604   0.647  11.353 -0.5311  0.8529  0.0624
 3251TIP3    H231245   2.601   0.525  11.264 -0.4197 -0.7563  2.2191
 3252TIP3   OH231246   2.961   3.321   4.874  0.0868 -0.2817 -0.0289
 3252TIP3    H131247   3.015   3.392   4.839  2.3716 -1.2956  1.3473
 3252TIP3    H231248   2.959   3.256   4.804 -1.6675  0.9268 -1.1337
 3253TIP3   OH231249   2.410   2.448  11.089 -0.6659 -0.2109 -0.2759
 3253TIP3    H131250   2.407   2.467  10.996 -1.0159 -0.3520 -0.2938
 3253TIP3    H231251   2.466   2.371  11.097 -0.9821 -0.4519 -0.4078
 3254TIP3   OH231252   2.398   6.613  13.193 -0.0348 -0.1393 -0.4464
 3254TIP3    H131253   2.412   6.529  13.238 -0.0026 -0.2453 -0.6564
 3254TIP3    H231254   2.389   6.677  13.264  1.6122 -0.0496 -0.2989
 3255TIP3   OH231255   5.574   0.945  15.430  0.1380  0.0694 -0.0970
 3255TIP3    H131256   5.542   0.878  15.369 -0.9811 -0.4846  1.0638
 3255TIP3    H231257   5.669   0.938  15.426  0.0676 -0.3417 -1.3479
 3256TIP3   OH231258   3.044   3.000  10.970 -0.4084 -0.2432 -0.4096
 3256TIP3    H131259   3.008   3.088  10.959  0.8278  0.4299  0.7803
 3256TIP3    H231260   3.062   2.971  10.880  1.0975  1.5524 -0.7303
 3257TIP3   OH231261   1.100   3.235  11.536  0.2442 -0.1538  0.2026
 3257TIP3    H131262   1.007   3.213  11.528  0.4374 -0.8080 -0.2431
 3257TIP3    H231263   1.100   3.330  11.548 -0.4447 -0.0311 -0.6789
 3258TIP3   OH231264   5.670   0.633   3.783  0.3272 -0.2188 -0.0572
 3258TIP3    H131265   5.648   0.668   3.870  0.0926 -0.5047 -0.0004
 3258TIP3    H231266   5.639   0.700   3.723  2.3768  0.9506  0.1523
 3259TIP3   OH231267   2.904   1.040  13.141 -0.1262  0.4556  0.0042
 3259TIP3    H131268   2.970   1.067  13.205 -1.9783  1.6851  1.4599
 3259TIP3    H231269   2.863   0.962  13.180 -0.8922  0.8911  0.0853
 3260TIP3   OH231270   1.058   6.322   5.317  0.2765  0.2807  0.0160
 3260TIP3    H131271   0.982   6.379   5.330  0.0110 -0.1708  0.4697
 3260TIP3    H231272   1.066   6.315   5.222 -1.3784 -1.1150 -0.0636
 3261TIP3   OH231273   1.299   3.693   2.012  0.0130  0.0349 -0.1775
 3261TIP3    H131274   1.282   3.600   1.996  0.2753 -0.2603  1.1711
 3261TIP3    H231275   1.322   3.697   2.105 -0.0357  1.4561 -0.2202
 3262TIP3   OH231276   0.210   5.023   5.352 -0.3384 -0.5725 -0.1120
 3262TIP3    H131277   0.147   4.952   5.366 -1.1644  0.1678 -0.0818
 3262TIP3    H231278   0.184   5.062   5.269  1.0094 -1.2313 -0.8627
 3263TIP3   OH231279   2.749   1.761  15.570 -0.3675  0.3002 -0.3690
 3263TIP3    H131280   2.842   1.736  15.565 -1.0805 -2.2002 -1.8374
 3263TIP3    H231281   2.714   1.706  15.640 -0.9412  0.6469 -0.3840
 3264TIP3   OH231282   0.047   5.440  14.450  0.3683  0.0333 -0.2013
 3264TIP3    H131283   0.090   5.405  14.372  0.0504  1.0397 -0.8374
 3264TIP3    H231284  -0.045   5.415  14.440  0.2501  0.5298 -0.3614
 3265TIP3   OH231285   6.532   1.018   3.971 -0.0722 -0.5545  0.1133
 3265TIP3    H131286   6.559   0.992   4.059 -0.8612  0.1054  0.5601
 3265TIP3    H231287   6.490   0.940   3.935  2.1506 -1.5154 -0.4989
 3266TIP3   OH231288   1.383   4.634   5.925 -0.2812  0.1200 -0.1745
 3266TIP3    H131289   1.334   4.590   5.856  0.0403  0.6533 -0.7427
 3266TIP3    H231290   1.447   4.687   5.879 -0.6059  1.1167  0.5074
 3267TIP3   OH231291   0.126   4.466   5.391  0.1836  0.0742  0.0591
 3267TIP3    H131292   0.149   4.537   5.330 -0.3151 -0.4883 -0.7862
 3267TIP3    H231293   0.189   4.476   5.463  0.6011  0.9160 -0.4076
 3268TIP3   OH231294   0.742   6.158   0.004 -0.1157 -0.4961 -0.0835
 3268TIP3    H131295   0.671   6.098  -0.019  0.4616 -1.1925 -0.0801
 3268TIP3    H231296   0.698   6.239   0.027 -1.0083 -1.4015  1.4845
 3269TIP3   OH231297   4.218   4.735  16.308  0.1385  0.3960 -0.0096
 3269TIP3    H131298   4.240   4.724  16.401 -1.5915 -1.6286  0.1989
 3269TIP3    H231299   4.239   4.651  16.268 -0.6342  0.7178 -1.1312
 3270TIP3   OH231300   0.768   5.629  17.022  0.1278  0.7322 -0.1816
 3270TIP3    H131301   0.676   5.605  17.030 -0.0523  1.1159 -1.0118
 3270TIP3    H231302   0.785   5.686  17.097  0.4622 -1.6180  1.5910
 3271TIP3   OH231303   6.686   4.220  13.257  0.6474 -0.2042 -0.4066
 3271TIP3    H131304   6.619   4.215  13.326 -0.9613  1.6431 -1.7687
 3271TIP3    H231305   6.750   4.283  13.291 -0.5535  1.3194 -0.8661
 3272TIP3   OH231306   5.114   6.006  14.664  0.4591 -0.3435  0.7196
 3272TIP3    H131307   5.053   5.998  14.590  0.8761 -0.5737  0.3969
 3272TIP3    H231308   5.153   5.919  14.672  2.1725  0.3042 -0.3201
 3273TIP3   OH231309   3.120   1.487   3.315 -0.5613  0.3976 -0.3953
 3273TIP3    H131310   3.182   1.494   3.242 -0.5337 -1.6787 -0.6107
 3273TIP3    H231311   3.050   1.431   3.281 -1.2298  0.5328  0.7336
 3274TIP3   OH231312   6.741   5.536   1.880  0.1968  0.4597  0.2234
 3274TIP3    H131313   6.751   5.443   1.857  2.3655  1.2549 -2.2692
 3274TIP3    H231314   6.830   5.571   1.875 -0.6229  2.7237  1.0829
 3275TIP3   OH231315   1.214   0.098  11.315  0.3612 -0.3033  0.0283
 3275TIP3    H131316   1.152   0.126  11.247  2.8024  2.8348 -1.0524
 3275TIP3    H231317   1.266   0.030  11.274  0.0232 -0.3736 -0.2870
 3276TIP3   OH231318   1.540   5.658  11.962  0.5545 -0.1283  0.3656
 3276TIP3    H131319   1.523   5.581  11.908  0.0269 -0.1273  0.5198
 3276TIP3    H231320   1.491   5.728  11.919  1.8983  0.3725 -0.3774
 3277TIP3   OH231321   6.732   1.184  11.159  0.5752  0.1288 -0.1517
 3277TIP3    H131322   6.722   1.172  11.254  3.0295  0.4761  0.1774
 3277TIP3    H231323   6.792   1.114  11.133 -0.7751 -0.5087 -1.6285
 3278TIP3   OH231324   6.578   4.989   0.308  0.1427 -0.2216 -0.5628
 3278TIP3    H131325   6.643   5.032   0.252  0.6546  0.2005  0.3588
 3278TIP3    H231326   6.494   5.009   0.266  0.5329 -0.0260 -1.2618
 3279TIP3   OH231327   6.224   1.028   4.317  1.0349  0.5929  0.7516
 3279TIP3    H131328   6.280   1.073   4.380  1.5635 -0.2603  0.9083
 3279TIP3    H231329   6.259   1.053   4.232  0.5747  1.4256  0.8032
 3280TIP3   OH231330   2.014   6.748  15.109 -0.1959  0.5835 -0.2271
 3280TIP3    H131331   1.937   6.707  15.149 -1.2470  1.2045 -1.5471
 3280TIP3    H231332   1.986   6.837  15.087  0.0210  0.0047 -3.0954
 3281TIP3   OH231333   0.229   1.811   2.172  0.2437  0.2520 -0.0446
 3281TIP3    H131334   0.266   1.897   2.190  2.4301 -0.6463 -0.1241
 3281TIP3    H231335   0.195   1.782   2.257 -2.6087  2.1117 -0.4736
 3282TIP3   OH231336   6.177   0.164  15.341 -0.5008  0.1111 -0.1446
 3282TIP3    H131337   6.156   0.075  15.368  0.3455 -0.4293 -1.2031
 3282TIP3    H231338   6.111   0.219  15.383 -0.6048 -0.9448  1.0833
 3283TIP3   OH231339   2.200   3.321  16.807  0.1024 -0.1657  0.5177
 3283TIP3    H131340   2.210   3.240  16.757 -1.9933  0.9552 -1.8195
 3283TIP3    H231341   2.135   3.372  16.758  1.2465  2.8730  2.0259
 3284TIP3   OH231342   0.010   6.712  15.302 -0.2246  0.1024 -0.0403
 3284TIP3    H131343   0.040   6.627  15.272 -1.3122  0.2144 -1.4884
 3284TIP3    H231344   0.080   6.773  15.277 -0.2945 -0.0836 -0.6974
 3285TIP3   OH231345   3.027   3.555   0.444  0.8727 -0.3128 -0.4161
 3285TIP3    H131346   3.096   3.488   0.447 -0.4316 -1.6038  2.5182
 3285TIP3    H231347   3.067   3.632   0.483  0.5632 -1.2091  1.7390
 3286TIP3   OH231348   3.514   1.430  11.571  0.2917  0.0412 -0.0781
 3286TIP3    H131349   3.579   1.418  11.640  0.4647 -2.7405 -0.6412
 3286TIP3    H231350   3.564   1.457  11.494  0.5544 -0.1505  0.0246
 3287TIP3   OH231351   2.328   4.959   3.503  0.1489 -0.3813  0.4243
 3287TIP3    H131352   2.303   4.879   3.550 -0.4347 -0.5677 -0.1920
 3287TIP3    H231353   2.414   4.982   3.539  0.2043 -1.1409  0.7929
 3288TIP3   OH231354   0.277   3.344  15.626 -0.0310  0.1198 -0.3731
 3288TIP3    H131355   0.309   3.369  15.713 -1.5585  0.2444  0.1612
 3288TIP3    H231356   0.183   3.356  15.630 -0.2576 -1.0255 -1.6816
 3289TIP3   OH231357   0.471   3.629   1.396 -0.1777 -0.1832 -0.2119
 3289TIP3    H131358   0.465   3.684   1.318  1.4576 -0.4317 -0.5149
 3289TIP3    H231359   0.564   3.626   1.417 -0.5995 -0.0955  1.7825
 3290TIP3   OH231360   4.655   5.647   1.410  0.1914  0.0713  0.2733
 3290TIP3    H131361   4.591   5.579   1.389  2.4087 -2.1620  0.5220
 3290TIP3    H231362   4.634   5.672   1.500  0.9909 -2.1968  1.1185
 3291TIP3   OH231363   4.358   1.160  14.607 -0.5567 -0.0849 -0.3748
 3291TIP3    H131364   4.445   1.197  14.590 -1.0606  1.4778  0.3473
 3291TIP3    H231365   4.375   1.069  14.631  0.6210 -0.6518 -3.2092
 3292TIP3   OH231366   3.236   5.143   5.968  0.1398 -0.1364 -0.1937
 3292TIP3    H131367   3.270   5.230   5.991 -0.8441  0.1255  0.3029
 3292TIP3    H231368   3.236   5.094   6.050  0.1199 -0.4066 -0.3543
 3293TIP3   OH231369   0.900   3.436  15.300 -0.2164 -0.8356  0.3267
 3293TIP3    H131370   0.934   3.471  15.382 -1.7418  0.0263  0.6061
 3293TIP3    H231371   0.809   3.463  15.298  0.6465  2.2796 -3.3448
 3294TIP3   OH231372   4.820   2.018  16.978 -0.1202 -0.1014 -0.3503
 3294TIP3    H131373   4.767   2.040  16.901 -0.2008 -1.6133 -0.7344
 3294TIP3    H231374   4.881   1.951  16.947  0.4706 -0.0474  0.6766
 3295TIP3   OH231375   0.740   0.431   5.044 -0.0563 -0.1026 -0.0218
 3295TIP3    H131376   0.647   0.452   5.036  0.0586  0.2781 -0.3623
 3295TIP3    H231377   0.785   0.503   5.000  0.5169  1.0020  2.3400
 3296TIP3   OH231378   2.866   0.622   0.817  0.3201 -0.2914  0.3026
 3296TIP3    H131379   2.873   0.603   0.910  1.0944  0.9272  0.5145
 3296TIP3    H231380   2.956   0.616   0.784  0.0819 -0.5015 -0.3204
 3297TIP3   OH231381   5.363   6.288   4.466 -0.6747 -0.1420  0.0677
 3297TIP3    H131382   5.444   6.323   4.426 -0.2593 -1.4075 -0.2196
 3297TIP3    H231383   5.344   6.348   4.538  0.6938 -0.0044  0.3242
 3298TIP3   OH231384   6.401   4.661   2.302 -0.4041  0.0388  0.3281
 3298TIP3    H131385   6.474   4.694   2.354 -0.4268  0.3764  0.1457
 3298TIP3    H231386   6.431   4.666   2.212 -0.0007 -1.4757  0.3779
 3299TIP3   OH231387   2.446   1.912  15.502 -0.2136 -0.1756 -0.7053
 3299TIP3    H131388   2.354   1.934  15.487 -0.4058  0.2055  1.0367
 3299TIP3    H231389   2.469   1.956  15.583  0.5861 -2.8903  0.6210
 3300TIP3   OH231390   3.648   2.053  13.739  0.0613  0.0825  0.1514
 3300TIP3    H131391   3.738   2.023  13.754 -0.1861 -0.5332  0.4429
 3300TIP3    H231392   3.598   1.972  13.727 -0.2763  0.4466 -1.0612
 3301TIP3   OH231393   0.886   2.239  14.312 -0.7716 -1.1230 -0.2693
 3301TIP3    H131394   0.923   2.326  14.298  0.3448 -1.3711  1.0082
 3301TIP3    H231395   0.791   2.253  14.313 -0.5702  0.5392  2.5385
 3302TIP3   OH231396   3.091   5.602  10.393  0.2942  0.3549  0.2791
 3302TIP3    H131397   3.011   5.551  10.406  1.3483 -2.0104 -1.9849
 3302TIP3    H231398   3.125   5.617  10.481 -2.5301  1.3316  1.2914
 3303TIP3   OH231399   6.616   4.075   2.213  0.1681  0.4609 -0.3364
 3303TIP3    H131400   6.638   4.023   2.290 -0.4199  1.4128  0.4916
 3303TIP3    H231401   6.644   4.022   2.139  1.5514 -0.0912  0.5615
 3304TIP3   OH231402   6.447   4.285  13.111  0.1431 -0.3260  0.2900
 3304TIP3    H131403   6.536   4.298  13.142  0.1255  0.1887  0.1328
 3304TIP3    H231404   6.457   4.257  13.020  0.0814  3.5402 -1.0332
 3305TIP3   OH231405   0.151   5.575  16.117 -0.1891 -0.2952 -0.3679
 3305TIP3    H131406   0.238   5.534  16.117  0.3641  0.8732 -0.7289
 3305TIP3    H231407   0.122   5.569  16.208  1.1447  1.1532  0.1610
 3306TIP3   OH231408   1.228   6.689   4.072  0.1835  0.2427  0.2245
 3306TIP3    H131409   1.148   6.656   4.031 -0.7394  2.8678 -0.1988
 3306TIP3    H231410   1.213   6.783   4.081  2.4349  0.4748  1.9789
 3307TIP3   OH231411   1.517   5.588  13.273 -0.1236  0.0665 -0.3209
 3307TIP3    H131412   1.461   5.515  13.247 -0.3868 -0.1436  0.8030
 3307TIP3    H231413   1.456   5.660  13.288  0.1071  0.4345 -1.1280
 3308TIP3   OH231414   5.126   6.001  12.220  0.3498  0.0720 -0.2486
 3308TIP3    H131415   5.205   6.035  12.177  0.3038 -0.5938 -0.8570
 3308TIP3    H231416   5.053   6.038  12.170  0.1653  3.4221  2.3202
 3309TIP3   OH231417   6.302   1.912   0.895  0.1137 -0.3564 -0.0202
 3309TIP3    H131418   6.347   1.910   0.980 -0.5887  0.1566  0.3721
 3309TIP3    H231419   6.212   1.937   0.917 -0.0201 -0.0356 -0.9397
 3310TIP3   OH231420   3.327   4.352  13.848 -0.2674 -0.0404  0.2929
 3310TIP3    H131421   3.396   4.357  13.914  2.1727  1.0600 -2.2386
 3310TIP3    H231422   3.367   4.303  13.775 -2.3283  0.1501 -1.0106
 3311TIP3   OH231423   0.800   0.406   3.704  0.1367 -0.2036  0.5303
 3311TIP3    H131424   0.763   0.470   3.643  0.4111  1.0258  1.6202
 3311TIP3    H231425   0.725   0.354   3.733 -0.2987  0.4449  0.5810
 3312TIP3   OH231426   6.463   1.216   1.897 -0.3911 -0.0151  0.0620
 3312TIP3    H131427   6.527   1.229   1.827 -0.0211 -0.1550  0.3746
 3312TIP3    H231428   6.425   1.130   1.880  0.9314 -0.7985  1.0173
 3313TIP3   OH231429   1.837   2.967   3.200  0.1497 -0.1382  0.1209
 3313TIP3    H131430   1.881   2.920   3.271  2.3918 -0.6050 -1.5266
 3313TIP3    H231431   1.868   3.057   3.207  0.8673 -0.3175 -0.6130
 3314TIP3   OH231432   3.898   4.297   0.502  0.1777  0.1303 -0.7194
 3314TIP3    H131433   3.945   4.219   0.531  0.1126  0.5581  0.5524
 3314TIP3    H231434   3.965   4.351   0.459  0.7486  0.4930  0.6103
 3315TIP3   OH231435   5.615   5.513   3.086 -0.4685  0.6069  0.3168
 3315TIP3    H131436   5.642   5.426   3.057 -1.3982  0.7416 -1.0069
 3315TIP3    H231437   5.676   5.572   3.042 -0.2814  0.6705  0.6580
 3316TIP3   OH231438   6.567   1.334   5.673 -0.1802  0.6351  0.0233
 3316TIP3    H131439   6.646   1.314   5.724 -0.2132  2.3957  0.7861
 3316TIP3    H231440   6.556   1.257   5.616  2.3940  0.5963 -0.5105
 3317TIP3   OH231441   3.435   3.098   0.965  0.5069  0.2383 -0.3308
 3317TIP3    H131442   3.426   3.030   0.897 -0.0162  1.3655 -1.4091
 3317TIP3    H231443   3.350   3.098   1.009  0.2334  0.7393 -0.8546
 3318TIP3   OH231444   2.175   1.429   5.851 -0.6720  0.1250  0.4981
 3318TIP3    H131445   2.173   1.452   5.944 -0.5982 -0.5513  0.6672
 3318TIP3    H231446   2.153   1.336   5.849  2.9382 -0.7657  0.1178
 3319TIP3   OH231447   5.317   5.703  13.445  0.3736  0.2516  0.7463
 3319TIP3    H131448   5.313   5.661  13.359 -3.7341 -2.1704  1.9955
 3319TIP3    H231449   5.348   5.635  13.504 -1.7541  0.3103  1.9862
 3320TIP3   OH231450   1.844   2.135   3.585  0.2607 -0.3157  0.1140
 3320TIP3    H131451   1.763   2.160   3.540  1.5981 -0.3172 -2.3458
 3320TIP3    H231452   1.872   2.215   3.629 -0.6581 -0.1183  0.3649
 3321TIP3   OH231453   3.386   6.300   2.640 -0.3154 -0.5516 -0.0052
 3321TIP3    H131454   3.405   6.280   2.732 -1.7685 -0.8014  0.2694
 3321TIP3    H231455   3.438   6.378   2.620  1.5371 -1.6468  0.4293
 3322TIP3   OH231456   3.197   1.203   3.546 -0.1123 -0.9202  0.0108
 3322TIP3    H131457   3.233   1.292   3.556 -2.1561 -0.0402 -0.2100
 3322TIP3    H231458   3.255   1.161   3.483  2.1400 -0.4554  1.7040
 3323TIP3   OH231459   6.071   0.485   0.571  0.3061 -0.1867  0.0915
 3323TIP3    H131460   6.025   0.553   0.620  1.8239  0.4599  0.6673
 3323TIP3    H231461   6.006   0.416   0.558 -1.0644  1.0726  0.0951
 3324TIP3   OH231462   3.367   1.350  14.713  0.6865  0.2673  0.3601
 3324TIP3    H131463   3.409   1.402  14.782  0.9769  0.8344 -0.2426
 3324TIP3    H231464   3.441   1.308  14.668  0.5938  1.1342 -0.5974
 3325TIP3   OH231465   5.416   4.614  17.146  0.4033  0.2141 -0.4872
 3325TIP3    H131466   5.417   4.687  17.084  0.7536  0.7353  0.1282
 3325TIP3    H231467   5.470   4.644  17.220  1.6717 -1.1618 -0.8167
 3326TIP3   OH231468   2.306   3.983  16.300 -0.2038  0.5007  0.2534
 3326TIP3    H131469   2.246   4.058  16.297  0.6094  1.1995  1.2893
 3326TIP3    H231470   2.255   3.911  16.262 -1.5630  1.1789  0.7461
 3327TIP3   OH231471   0.560   3.614  16.273 -0.3089 -0.1398 -0.1084
 3327TIP3    H131472   0.532   3.694  16.317  2.7177 -1.2168  4.0655
 3327TIP3    H231473   0.636   3.640  16.221 -0.3240 -0.0022 -0.0593
 3328TIP3   OH231474   3.881   2.984  12.938 -0.4200  0.0627 -0.3461
 3328TIP3    H131475   3.880   3.078  12.959  1.0699 -0.1528  0.7948
 3328TIP3    H231476   3.974   2.964  12.922 -0.7071 -1.2459 -0.4331
 3329TIP3   OH231477   0.907   1.159   6.385 -0.1244 -0.5031  0.1187
 3329TIP3    H131478   0.865   1.187   6.467 -0.7643 -0.6502 -0.1537
 3329TIP3    H231479   0.867   1.074   6.366 -0.1545 -0.3544 -0.4780
 3330TIP3   OH231480   0.400   5.126  12.888 -0.4544 -0.1596 -0.1080
 3330TIP3    H131481   0.406   5.036  12.920 -1.3365 -0.4826 -0.8353
 3330TIP3    H231482   0.491   5.150  12.869 -0.4074 -1.6070 -1.8208
 3331TIP3   OH231483   4.980   0.002  15.023 -0.2237 -0.0255 -0.6928
 3331TIP3    H131484   4.928  -0.001  14.943 -1.2052  0.2038 -0.0839
 3331TIP3    H231485   4.917  -0.016  15.093  0.3985  0.8378  0.1123
 3332TIP3   OH231486   5.513   0.082  13.806  0.0574 -0.2972  0.1956
 3332TIP3    H131487   5.469   0.000  13.831  1.1398 -1.0068 -0.2062
 3332TIP3    H231488   5.547   0.116  13.889 -1.7527  0.5617  0.5983
 3333TIP3   OH231489   2.816   4.863   4.000  0.0391 -0.9447  0.1930
 3333TIP3    H131490   2.820   4.778   4.044  1.7584 -0.3336  1.2611
 3333TIP3    H231491   2.872   4.920   4.053 -0.0720  0.5174 -1.2375
 3334TIP3   OH231492   1.852   3.499  16.472  0.2395  0.3579 -0.0143
 3334TIP3    H131493   1.799   3.578  16.480 -0.4084  0.0246 -0.8959
 3334TIP3    H231494   1.940   3.527  16.494 -0.0034  1.3146 -0.2267
 3335TIP3   OH231495   0.810   4.028   5.142 -0.3789 -0.6102  0.0362
 3335TIP3    H131496   0.741   4.003   5.081  1.3495 -0.8369 -1.8772
 3335TIP3    H231497   0.850   4.106   5.102  1.1720 -1.1228  0.5548
 3336TIP3   OH231498   5.233   3.629   1.489  0.5935 -0.1877 -0.4300
 3336TIP3    H131499   5.150   3.621   1.441 -0.1999 -1.5011  1.0983
 3336TIP3    H231500   5.300   3.604   1.426 -0.3722 -1.2158 -1.0742
 3337TIP3   OH231501   3.404   3.761   4.009  0.8305  0.4994 -0.1458
 3337TIP3    H131502   3.324   3.708   4.012  1.0593  0.0181 -1.6155
 3337TIP3    H231503   3.464   3.716   4.068  0.0216  0.8618  0.9633
 3338TIP3   OH231504   6.436   2.132  16.745  0.1723  0.0567 -0.7370
 3338TIP3    H131505   6.370   2.101  16.807 -0.3683 -1.5357 -2.0761
 3338TIP3    H231506   6.508   2.068  16.753  1.3751  1.5057  0.3616
 3339TIP3   OH231507   2.046   1.689  13.437 -0.4110 -0.3508  0.1760
 3339TIP3    H131508   2.019   1.609  13.481  1.3449  0.4560  2.8021
 3339TIP3    H231509   2.133   1.708  13.473  0.2704  1.3719 -2.2732
 3340TIP3   OH231510   4.504   1.648  16.108  0.0858  0.6252 -0.6717
 3340TIP3    H131511   4.465   1.735  16.096 -0.3652  0.4555 -0.4672
 3340TIP3    H231512   4.530   1.621  16.020 -1.5258  0.1601 -1.0245
 3341TIP3   OH231513   0.577   6.359   1.680  0.1031  0.5177 -0.5366
 3341TIP3    H131514   0.588   6.292   1.747 -0.8915 -1.0090 -1.8844
 3341TIP3    H231515   0.657   6.354   1.628 -0.9895 -1.2507 -2.0671
 3342TIP3   OH231516   0.343   3.752  13.872 -0.0400 -0.2329 -0.5631
 3342TIP3    H131517   0.436   3.730  13.877 -0.7911 -3.5890 -0.5098
 3342TIP3    H231518   0.329   3.774  13.780  0.5871 -0.6718 -0.7661
 3343TIP3   OH231519   1.624   5.095  15.682  0.2423  0.1159  0.0580
 3343TIP3    H131520   1.663   5.046  15.609  2.4270  1.8302  0.0403
 3343TIP3    H231521   1.698   5.124  15.734 -1.2848 -0.6491  2.7373
 3344TIP3   OH231522   1.333   3.365  11.129  0.2761 -0.5516  0.2647
 3344TIP3    H131523   1.364   3.448  11.164  0.6913 -1.3134  1.7255
 3344TIP3    H231524   1.238   3.376  11.121  0.4169  0.3182 -0.2618
 3345TIP3   OH231525   6.250   4.669   0.952 -0.3662 -0.2382  0.0560
 3345TIP3    H131526   6.311   4.641   1.020 -0.2974  1.2033  0.6137
 3345TIP3    H231527   6.292   4.746   0.913 -0.6716 -0.7222 -1.2480
 3346TIP3   OH231528   5.008   1.357   5.199 -0.0779  0.3367 -0.3594
 3346TIP3    H131529   4.954   1.278   5.203  0.0767  0.2655  0.5445
 3346TIP3    H231530   4.970   1.409   5.129  0.3993 -0.9605 -1.5940
 3347TIP3   OH231531   5.676   5.594  11.330 -0.5235  0.5192  0.2195
 3347TIP3    H131532   5.631   5.678  11.342  0.4865  0.9630  0.8755
 3347TIP3    H231533   5.622   5.532  11.379 -0.6401  0.9796  0.6863
 3348TIP3   OH231534   0.676   3.150  11.739  0.2845  0.7537  0.3893
 3348TIP3    H131535   0.616   3.180  11.670  1.1495  0.9933 -0.2735
 3348TIP3    H231536   0.639   3.066  11.768  0.8210 -0.1869 -1.5471
 3349TIP3   OH231537   0.385   2.366   4.245 -0.4508  0.3868 -0.2299
 3349TIP3    H131538   0.378   2.462   4.244  0.7938  0.4779 -0.6023
 3349TIP3    H231539   0.462   2.347   4.193 -0.1281 -0.7726  0.6517
 3350TIP3   OH231540   2.068   2.158   1.712  0.6428 -0.2871 -0.5214
 3350TIP3    H131541   2.100   2.186   1.798 -1.2754  0.5802 -0.0534
 3350TIP3    H231542   2.110   2.217   1.650  1.9850 -0.8725 -0.1908
 3351TIP3   OH231543   3.771   1.995  11.092  0.1531 -0.3342  0.3251
 3351TIP3    H131544   3.708   1.961  11.027  1.1535  1.3956 -1.5934
 3351TIP3    H231545   3.810   1.916  11.130 -0.5371 -1.4045 -1.1123
 3352TIP3   OH231546   1.574   3.272   3.317  0.4272  0.0574 -0.1319
 3352TIP3    H131547   1.502   3.239   3.264  0.3132 -0.3253  0.2652
 3352TIP3    H231548   1.545   3.358   3.347 -0.7400 -0.9611  1.7582
 3353TIP3   OH231549   3.286   3.008  14.031 -0.1931  0.3155 -0.4125
 3353TIP3    H131550   3.211   3.067  14.036 -1.5808 -1.4175 -0.0891
 3353TIP3    H231551   3.353   3.057  13.983 -2.0056  1.4187 -1.8690
 3354TIP3   OH231552   6.199   2.947  15.971  0.5107  0.1797  0.2967
 3354TIP3    H131553   6.276   2.990  16.009  0.9953 -0.6286  0.2354
 3354TIP3    H231554   6.132   2.956  16.038  0.9736 -0.0678  0.8040
 3355TIP3   OH231555   2.497   3.630   1.869 -0.2141 -0.3701 -0.3380
 3355TIP3    H131556   2.577   3.580   1.857 -0.0678 -0.3491  0.5032
 3355TIP3    H231557   2.521   3.699   1.932 -1.0421 -0.7173  0.3658
 3356TIP3   OH231558   1.669   1.733  13.000  0.7287 -0.0489  0.1413
 3356TIP3    H131559   1.581   1.717  13.034  0.6851 -0.5986 -0.2257
 3356TIP3    H231560   1.707   1.796  13.062 -0.4805  1.4427 -0.5819
 3357TIP3   OH231561   4.666   3.688   5.114 -0.2776  0.0663 -0.8273
 3357TIP3    H131562   4.753   3.694   5.076 -0.3055 -0.2575 -0.9448
 3357TIP3    H231563   4.609   3.734   5.052  0.2441  2.8567  0.6921
 3358TIP3   OH231564   2.980   3.477   2.209 -0.4185  0.1242  0.5750
 3358TIP3    H131565   3.013   3.557   2.168  0.6907 -0.3756  0.4761
 3358TIP3    H231566   3.038   3.462   2.283  0.0924 -1.2164 -0.0827
 3359TIP3   OH231567   2.815   1.236   0.352 -0.0527 -0.5186  0.0319
 3359TIP3    H131568   2.806   1.331   0.355  1.6028 -0.3454 -0.2741
 3359TIP3    H231569   2.763   1.205   0.426 -0.6256  0.6199  0.1145
 3360TIP3   OH231570   5.024   1.235   1.495  0.1369 -0.9084 -0.0336
 3360TIP3    H131571   5.008   1.308   1.555 -0.0272 -0.6421 -0.4028
 3360TIP3    H231572   5.120   1.230   1.488  0.1425  1.3474 -2.5341
 3361TIP3   OH231573   5.826   3.239  17.174 -0.0658  0.0912 -0.2214
 3361TIP3    H131574   5.898   3.268  17.231  0.3066 -0.5496 -0.3688
 3361TIP3    H231575   5.861   3.247  17.085 -0.0089 -0.6842 -0.2709
 3362TIP3   OH231576   4.467   0.122  14.624 -0.6996  0.3414  0.4266
 3362TIP3    H131577   4.437   0.201  14.579  0.2715 -0.7188 -2.1607
 3362TIP3    H231578   4.530   0.153  14.689 -2.6278  1.9640  1.5592
 3363TIP3   OH231579   4.775   2.464   1.344  0.0841  0.1063  0.0573
 3363TIP3    H131580   4.867   2.437   1.340  0.1814  0.4860 -0.3682
 3363TIP3    H231581   4.729   2.401   1.289  0.4084  1.1979 -1.4855
 3364TIP3   OH231582   2.065   1.544   3.600  0.1137  0.0731  0.7858
 3364TIP3    H131583   2.013   1.464   3.598 -2.1802  1.4982 -3.2911
 3364TIP3    H231584   2.005   1.612   3.630 -0.2292  1.5260 -2.8672
 3365TIP3   OH231585   0.416   5.604  14.908  0.1956  0.2709 -0.4531
 3365TIP3    H131586   0.362   5.531  14.936 -0.2260  0.2746 -1.2500
 3365TIP3    H231587   0.441   5.583  14.818  1.0799  0.5237 -0.2769
 3366TIP3   OH231588   6.267   2.946  13.197 -0.4120  0.2092  0.3508
 3366TIP3    H131589   6.219   3.014  13.150 -2.0545 -0.8420  0.4530
 3366TIP3    H231590   6.348   2.988  13.224 -0.3343  1.4230 -1.6622
 3367TIP3   OH231591   2.495   2.162  13.635  0.1096  0.0392 -0.5015
 3367TIP3    H131592   2.537   2.230  13.687  0.8889 -1.1517  0.4515
 3367TIP3    H231593   2.527   2.080  13.672 -1.1491 -0.8599 -1.3579
 3368TIP3   OH231594   5.071   0.111  11.619  0.4873 -0.0807 -0.1715
 3368TIP3    H131595   5.081   0.130  11.713  1.2480 -1.6097  0.0724
 3368TIP3    H231596   5.082   0.196  11.577  2.7562  0.2438  0.9594
 3369TIP3   OH231597   4.501   5.610  16.602 -0.3379  0.3084  0.1306
 3369TIP3    H131598   4.431   5.667  16.570 -0.5863 -0.5459 -0.8612
 3369TIP3    H231599   4.542   5.660  16.673 -0.8586  1.5250 -0.4078
 3370TIP3   OH231600   3.593   6.061  16.267 -0.0621  0.1757 -0.1623
 3370TIP3    H131601   3.577   6.155  16.271  2.2787  0.8958 -4.7438
 3370TIP3    H231602   3.514   6.025  16.225 -0.3942  0.2481  0.3987
 3371TIP3   OH231603   2.618   4.906  12.361 -0.3232  0.6007 -0.1769
 3371TIP3    H131604   2.575   4.979  12.405 -1.0311 -0.4611  0.9521
 3371TIP3    H231605   2.694   4.885  12.417 -0.7291 -0.1885  0.1001
 3372TIP3   OH231606   2.454   3.050  12.437  0.1852  0.1063  0.2662
 3372TIP3    H131607   2.364   3.035  12.468 -0.5297  3.1852 -0.1178
 3372TIP3    H231608   2.508   3.000  12.498 -1.8407 -2.8295 -0.2573
 3373TIP3   OH231609   4.154   0.937   4.720  0.6573  0.3673  0.4963
 3373TIP3    H131610   4.200   1.010   4.680  0.6305  1.1153  1.7752
 3373TIP3    H231611   4.067   0.939   4.680  1.4336 -0.4850 -1.2517
 3374TIP3   OH231612   3.833   4.841   6.442 -0.4575  0.2512  0.1110
 3374TIP3    H131613   3.769   4.900   6.404  1.1090  2.4552  0.8193
 3374TIP3    H231614   3.793   4.813   6.525 -1.0224  0.6537 -0.0227
 3375TIP3   OH231615   5.948   4.253  14.572  0.0841  0.0618 -0.2822
 3375TIP3    H131616   5.880   4.222  14.633  0.0428 -0.3094 -0.5115
 3375TIP3    H231617   5.913   4.233  14.485  0.5079 -0.1798 -0.4011
 3376TIP3   OH231618   4.244   1.693  16.847 -0.2541 -0.1647  0.0140
 3376TIP3    H131619   4.270   1.774  16.803 -0.2097  0.5516  1.3084
 3376TIP3    H231620   4.202   1.723  16.928 -0.8913 -1.4238  0.1662
 3377TIP3   OH231621   1.848   0.192   1.382  0.0970  0.0855 -0.0992
 3377TIP3    H131622   1.940   0.187   1.406  0.2464  1.6251 -0.3260
 3377TIP3    H231623   1.840   0.133   1.306  0.7059 -0.6783  0.4212
 3378TIP3   OH231624   1.600   4.840   5.494  0.3340 -0.2940 -0.2327
 3378TIP3    H131625   1.636   4.754   5.517  0.7138 -0.0184  0.2307
 3378TIP3    H231626   1.517   4.821   5.452 -1.2440 -0.7776  2.9615
 3379TIP3   OH231627   1.897   5.582   3.237 -0.2341 -0.4857 -0.2266
 3379TIP3    H131628   1.900   5.544   3.325 -0.1528 -0.3388 -0.1661
 3379TIP3    H231629   1.834   5.527   3.190 -1.4394  0.3735  0.3737
 3380TIP3   OH231630   0.659   0.008   1.898  0.6816  0.0059 -0.8259
 3380TIP3    H131631   0.651   0.019   1.993 -0.6938  0.8215 -1.0252
 3380TIP3    H231632   0.631   0.093   1.861  0.8771 -0.4130 -1.9667
 3381TIP3   OH231633   3.271   5.309  14.087 -0.4628 -0.1728 -0.2558
 3381TIP3    H131634   3.208   5.295  14.158 -0.2824 -1.9267 -0.4178
 3381TIP3    H231635   3.290   5.403  14.090  2.0317 -0.6853  4.1588
 3382TIP3   OH231636   4.980   0.625  15.042 -0.0825  0.2649 -1.1578
 3382TIP3    H131637   5.058   0.657  14.995  0.6194 -0.0838 -0.2435
 3382TIP3    H231638   4.953   0.699  15.096  1.5072 -0.6418  0.9155
 3383TIP3   OH231639   6.538   4.953  15.907 -0.1977 -0.5357 -0.4589
 3383TIP3    H131640   6.513   4.976  15.817  0.6159  0.7601 -0.3674
 3383TIP3    H231641   6.557   5.037  15.949 -1.7091 -1.0591  1.2847
 3384TIP3   OH231642   6.484   1.221   0.802  0.4416 -0.2357 -0.8878
 3384TIP3    H131643   6.539   1.283   0.754  1.3527 -0.8875 -0.6969
 3384TIP3    H231644   6.546   1.165   0.849 -0.4087 -0.3888  0.0717
 3385TIP3   OH231645   0.358   1.346  13.722  0.1180 -0.6276 -0.2118
 3385TIP3    H131646   0.328   1.275  13.664 -1.1478  1.0667 -1.6836
 3385TIP3    H231647   0.278   1.379  13.763  0.5867  0.5412 -0.2276
 3386TIP3   OH231648   2.619   3.005  15.735 -0.0938 -0.1282 -0.6994
 3386TIP3    H131649   2.679   2.992  15.662  0.3828 -1.3641 -0.1061
 3386TIP3    H231650   2.577   2.920  15.747 -0.8427  0.3181 -0.1301
 3387TIP3   OH231651   3.590   6.484   4.184  0.1651 -0.3494 -0.6939
 3387TIP3    H131652   3.684   6.474   4.174  0.4006  2.2469 -1.3641
 3387TIP3    H231653   3.552   6.432   4.112  1.0708 -0.9381 -0.7529
 3388TIP3   OH231654   2.028   4.579  16.686 -0.1328 -0.1121  0.4143
 3388TIP3    H131655   1.940   4.603  16.713 -0.5317 -1.0550 -0.0378
 3388TIP3    H231656   2.072   4.554  16.767 -0.1079  0.8588  0.7133
 3389TIP3   OH231657   4.493   2.303   3.911 -0.0356  0.2516  0.2166
 3389TIP3    H131658   4.538   2.242   3.969  0.7882 -1.0200 -1.7403
 3389TIP3    H231659   4.483   2.256   3.829  0.8935  2.8209 -1.4405
 3390TIP3   OH231660   4.832   3.598   0.924 -0.1496  0.2953  0.6463
 3390TIP3    H131661   4.760   3.659   0.907  0.2121  0.7148  0.6098
 3390TIP3    H231662   4.829   3.584   1.019  0.2442  0.9722  0.7619
 3391TIP3   OH231663   5.362   4.425   2.895  0.1435  0.6411  0.1768
 3391TIP3    H131664   5.343   4.515   2.923 -0.7966  1.0096 -1.5953
 3391TIP3    H231665   5.277   4.384   2.884  0.5852 -1.4064  3.7666
 3392TIP3   OH231666   0.022   5.423   1.332  0.6028 -0.2155  0.2330
 3392TIP3    H131667   0.041   5.352   1.270  0.9871  0.6565 -0.6699
 3392TIP3    H231668   0.108   5.458   1.355  0.3964  0.2308  0.3408
 3393TIP3   OH231669   6.812   1.216   2.284  0.0652  0.1391  0.3159
 3393TIP3    H131670   6.739   1.237   2.226 -0.5542  0.0073  1.0384
 3393TIP3    H231671   6.882   1.275   2.257 -0.3247  0.2948 -0.3572
 3394TIP3   OH231672   4.942   1.745  16.895  0.1915  0.0803 -0.4614
 3394TIP3    H131673   4.950   1.653  16.922  0.1888  0.8638  2.3246
 3394TIP3    H231674   4.847   1.758  16.887  0.1955 -0.1805 -0.9609
 3395TIP3   OH231675   6.071   1.921  11.555  0.1224 -0.1877  0.2500
 3395TIP3    H131676   6.069   2.015  11.539 -2.3731 -0.5472 -1.7968
 3395TIP3    H231677   6.164   1.897  11.550  0.5289  1.7139 -1.8468
 3396TIP3   OH231678   0.259   4.891   0.683  0.3082  0.5901 -0.6199
 3396TIP3    H131679   0.342   4.926   0.717 -0.8277  1.4036  1.3675
 3396TIP3    H231680   0.197   4.963   0.692 -1.4481 -1.0746  1.0571
 3397TIP3   OH231681   6.063   2.773   0.487  0.7831  0.7737  0.0164
 3397TIP3    H131682   5.985   2.747   0.439 -0.4196 -0.2288  2.4493
 3397TIP3    H231683   6.135   2.728   0.442 -0.4541 -1.0659 -0.1641
 3398TIP3   OH231684   0.995   5.403   0.877 -0.1837  0.2240  0.1728
 3398TIP3    H131685   1.077   5.361   0.851 -0.3636  0.1385 -0.2438
 3398TIP3    H231686   1.011   5.497   0.866 -1.2801  0.0576 -3.1875
 3399TIP3   OH231687   4.873   4.581   0.728 -0.0203  0.0059  0.5903
 3399TIP3    H131688   4.881   4.506   0.787  1.5924  0.1359  0.5621
 3399TIP3    H231689   4.886   4.545   0.640  0.1161  0.2097  0.5242
 3400TIP3   OH231690   5.746   2.642   0.512  0.1393 -0.8461 -0.1943
 3400TIP3    H131691   5.801   2.641   0.590 -1.5728 -0.1358  1.0482
 3400TIP3    H231692   5.696   2.723   0.519 -2.1393 -2.1701 -0.5184
 3401TIP3   OH231693   5.586   1.374   4.637 -0.2068  0.1436 -0.1982
 3401TIP3    H131694   5.631   1.436   4.695 -0.6447  0.7201 -0.4627
 3401TIP3    H231695   5.538   1.430   4.576 -1.8770 -0.4613  0.5334
 3402TIP3   OH231696   3.906   6.396   3.090 -0.1362  0.1685 -0.1934
 3402TIP3    H131697   3.815   6.389   3.120 -0.8218  2.0608 -1.7100
 3402TIP3    H231698   3.913   6.333   3.018 -0.2574  0.0724 -0.1204
 3403TIP3   OH231699   2.855   0.646  12.019  0.1669 -0.1371  0.4927
 3403TIP3    H131700   2.914   0.600  11.959 -0.7742 -1.5602  0.6295
 3403TIP3    H231701   2.894   0.733  12.029  1.6436 -0.6867 -0.2803
 3404TIP3   OH231702   3.520   6.186  16.651 -0.5740 -0.5694  0.3941
 3404TIP3    H131703   3.476   6.253  16.703 -0.0264 -0.4138  0.6561
 3404TIP3    H231704   3.608   6.220  16.637 -0.6620 -0.6996 -0.4797
 3405TIP3   OH231705   4.178   1.689   0.741 -0.8423  0.5010 -0.3541
 3405TIP3    H131706   4.234   1.765   0.752 -1.1992  0.7103  0.0029
 3405TIP3    H231707   4.173   1.649   0.828 -0.9352  0.2649 -0.4668
 3406TIP3   OH231708   6.523   0.659  11.899  0.0817 -0.2956 -0.4018
 3406TIP3    H131709   6.465   0.727  11.933  0.1165 -0.4027 -0.1187
 3406TIP3    H231710   6.611   0.687  11.924  0.0827 -0.5180 -0.1427
 3407TIP3   OH231711   6.688   1.354   0.652  0.1623  0.0597  0.1434
 3407TIP3    H131712   6.636   1.432   0.632 -0.9802  0.1440  3.2136
 3407TIP3    H231713   6.774   1.388   0.674  0.2665  0.2758 -0.5735
 3408TIP3   OH231714   1.299   0.057  15.713  0.0649 -0.0500  0.4900
 3408TIP3    H131715   1.389   0.030  15.730  0.9026  1.1670 -1.8017
 3408TIP3    H231716   1.248  -0.023  15.720  2.1075 -1.8315 -3.6039
 3409TIP3   OH231717   1.876   4.296  13.402  0.3175 -0.2148  0.0396
 3409TIP3    H131718   1.832   4.213  13.421  1.9046 -1.1673 -0.3323
 3409TIP3    H231719   1.927   4.316  13.480 -1.7619  1.5729  0.9832
 3410TIP3   OH231720   0.142   0.590   1.316 -0.3104  0.8151  0.0470
 3410TIP3    H131721   0.107   0.513   1.360 -1.9910  0.4238 -1.8422
 3410TIP3    H231722   0.112   0.664   1.369 -2.0701  0.3446 -0.2378
 3411TIP3   OH231723   0.210   2.504  13.590 -0.4584 -0.1226  0.2752
 3411TIP3    H131724   0.173   2.561  13.658  0.0765 -0.5154  0.9094
 3411TIP3    H231725   0.138   2.486  13.531 -1.2991 -0.8780  1.4930
 3412TIP3   OH231726   2.681   0.507   6.273 -0.2763 -0.2343 -0.3475
 3412TIP3    H131727   2.643   0.558   6.345  0.0610  0.5541 -0.7259
 3412TIP3    H231728   2.775   0.514   6.287 -0.2369 -1.7878  0.3088
 3413TIP3   OH231729   2.300   3.142  13.733  0.2481 -0.1404 -0.3317
 3413TIP3    H131730   2.285   3.120  13.825  0.8319 -1.1432 -0.4650
 3413TIP3    H231731   2.247   3.220  13.717 -1.2780 -1.0213  0.3720
 3414TIP3   OH231732   1.262   4.313   3.279  0.0451 -0.3706 -0.0389
 3414TIP3    H131733   1.182   4.263   3.292 -0.5573  0.4235 -0.6427
 3414TIP3    H231734   1.264   4.374   3.353 -0.6231  0.5389 -0.7638
 3415TIP3   OH231735   3.361   2.758   5.686  0.1623  1.2448  0.4569
 3415TIP3    H131736   3.435   2.702   5.664  0.3299  0.8896  1.8401
 3415TIP3    H231737   3.372   2.836   5.632 -0.6100 -0.4496 -2.2211
 3416TIP3   OH231738   3.546   3.147   5.764 -0.5279  0.7173 -0.2948
 3416TIP3    H131739   3.562   3.173   5.673 -1.1129  1.5166 -0.1717
 3416TIP3    H231740   3.509   3.059   5.757 -1.4323  1.1355 -0.8784
 3417TIP3   OH231741   6.385   2.039  15.986  0.1548 -0.1279 -0.1845
 3417TIP3    H131742   6.423   1.996  16.063 -0.2619  0.0028  0.0974
 3417TIP3    H231743   6.329   1.972  15.946 -2.7647  0.9845  1.8682
 3418TIP3   OH231744   1.555   3.786  14.790 -0.4719  0.2610  0.6106
 3418TIP3    H131745   1.518   3.800  14.703  0.1061 -1.1126  0.1326
 3418TIP3    H231746   1.541   3.869  14.836 -1.5330  0.7088 -0.5104
 3419TIP3   OH231747   6.440   0.207  16.011 -0.6653  0.4268  0.0632
 3419TIP3    H131748   6.432   0.286  16.065 -2.3224 -0.8038  1.6628
 3419TIP3    H231749   6.530   0.177  16.025 -0.0755  1.8987 -0.4259
 3420TIP3   OH231750   3.905   3.362   4.710  0.2100  0.2131  1.1808
 3420TIP3    H131751   3.960   3.386   4.785  1.7759 -0.7916  0.3784
 3420TIP3    H231752   3.967   3.339   4.641 -1.1428 -3.5695  1.0893
 3421TIP3   OH231753   1.897   2.719  14.434 -0.5197  0.1686 -0.5007
 3421TIP3    H131754   1.865   2.798  14.390  1.8674  0.6719 -1.3678
 3421TIP3    H231755   1.873   2.648  14.375 -2.5824  0.2155  0.2292
 3422TIP3   OH231756   2.305   4.919  13.968  0.4511  0.1726  0.1377
 3422TIP3    H131757   2.222   4.881  13.939  0.9715 -0.7428 -0.1946
 3422TIP3    H231758   2.348   4.947  13.887  1.5631 -1.6717  0.0507
 3423TIP3   OH231759   3.743   2.293  14.036 -0.1322  0.3224  0.2367
 3423TIP3    H131760   3.650   2.312  14.031  0.1373  1.7313  0.4854
 3423TIP3    H231761   3.779   2.327  13.954 -0.0801 -1.6930 -0.6092
 3424TIP3   OH231762   1.881   2.497   3.011  0.4740 -0.3260  0.2557
 3424TIP3    H131763   1.818   2.564   3.036 -0.2001 -0.8557 -0.0125
 3424TIP3    H231764   1.881   2.436   3.085 -1.4645 -1.8562 -0.9639
 3425TIP3   OH231765   3.455   1.096  16.183 -0.1775 -0.1234 -0.7823
 3425TIP3    H131766   3.515   1.032  16.221  2.5691  0.8003 -3.3764
 3425TIP3    H231767   3.461   1.172  16.241 -0.2858 -0.7194  0.0196
 3426TIP3   OH231768   6.594   2.155   3.444  0.0992  0.3283  0.7845
 3426TIP3    H131769   6.688   2.143   3.429 -0.1804  0.2530 -1.0425
 3426TIP3    H231770   6.556   2.069   3.425 -0.5085  0.7731 -0.0239
 3427TIP3   OH231771   6.282   2.474   3.605  0.6638 -0.1412 -0.3102
 3427TIP3    H131772   6.368   2.488   3.566  0.5126 -0.1515 -0.6493
 3427TIP3    H231773   6.220   2.486   3.532  0.4773 -1.7453 -0.4403
 3428TIP3   OH231774   3.231   2.970  12.784  0.3884 -0.6177  0.5004
 3428TIP3    H131775   3.155   2.985  12.727  0.1043  0.1260  1.0663
 3428TIP3    H231776   3.194   2.969  12.873  1.2759  1.5802  0.9262
 3429TIP3   OH231777   6.335   2.715  11.821  0.2967 -0.0335 -0.7379
 3429TIP3    H131778   6.310   2.692  11.732 -1.0432 -1.3351 -0.0619
 3429TIP3    H231779   6.259   2.689  11.874  0.9913  0.9045  0.7544
 3430TIP3   OH231780   1.970   2.523  13.463  0.8504 -0.6854 -0.3739
 3430TIP3    H131781   1.884   2.501  13.429  1.1083 -1.1936 -0.7058
 3430TIP3    H231782   1.968   2.493  13.554  1.0500 -1.7000 -0.6987
 3431TIP3   OH231783   1.783   1.288  11.669 -0.2417 -0.0623  0.2487
 3431TIP3    H131784   1.820   1.338  11.596 -0.0240  1.3480  1.2951
 3431TIP3    H231785   1.715   1.346  11.706 -1.3022 -1.3193  0.3140
 3432TIP3   OH231786   3.936   0.473   2.342 -0.3611  0.0933  0.2024
 3432TIP3    H131787   3.977   0.386   2.341 -1.5734 -0.4876 -0.2032
 3432TIP3    H231788   3.944   0.504   2.252 -0.8950 -0.0701  0.0955
 3433TIP3   OH231789   2.832   2.197  16.934  0.4669 -0.6269 -0.1427
 3433TIP3    H131790   2.869   2.258  16.997  1.1105 -2.3838  1.2206
 3433TIP3    H231791   2.758   2.244  16.895  0.0881  0.5054  1.8780
 3434TIP3   OH231792   3.429   5.143  14.266 -0.2184  0.7559 -0.1467
 3434TIP3    H131793   3.420   5.053  14.235  0.6828  0.3103  0.8660
 3434TIP3    H231794   3.359   5.190  14.222 -0.7895 -0.4687 -0.5773
 3435TIP3   OH231795   2.541   1.552  15.353 -0.3209  0.0947 -0.3448
 3435TIP3    H131796   2.531   1.571  15.259 -0.9922 -0.5654 -0.4062
 3435TIP3    H231797   2.501   1.466  15.364  1.6743 -0.8121  0.1410
 3436TIP3   OH231798   4.430   5.719   4.879  0.6003 -0.2896  0.2878
 3436TIP3    H131799   4.421   5.780   4.952  1.4684 -1.3124  1.2683
 3436TIP3    H231800   4.457   5.637   4.920 -1.5694 -1.6360 -0.9005
 3437TIP3   OH231801   0.004   2.235   4.230 -0.1289  0.2593 -0.3275
 3437TIP3    H131802   0.039   2.150   4.257  1.0020  0.8263  0.0211
 3437TIP3    H231803   0.036   2.248   4.141  0.4857  0.7321 -0.0452
 3438TIP3   OH231804   2.762   5.312  16.459  0.4642  0.7685  0.4534
 3438TIP3    H131805   2.768   5.306  16.554 -1.9443  1.9162  0.7305
 3438TIP3    H231806   2.750   5.222  16.429  2.6446  0.2430  1.0774
 3439TIP3   OH231807   2.496   1.795  16.921 -0.0918  0.1834  0.4550
 3439TIP3    H131808   2.488   1.888  16.901  0.9224 -0.2455 -2.1998
 3439TIP3    H231809   2.454   1.750  16.847  2.3664 -1.4840 -0.0157
 3440TIP3   OH231810   6.635   2.755   4.932 -0.0364  0.1320  0.2135
 3440TIP3    H131811   6.634   2.661   4.950 -2.2250  0.1600  0.3707
 3440TIP3    H231812   6.543   2.779   4.926  0.5048  2.2664  0.1094
 3441TIP3   OH231813   6.235   4.534  15.529 -0.2910 -0.1314 -0.0047
 3441TIP3    H131814   6.161   4.574  15.575 -0.8861  0.1360 -1.1547
 3441TIP3    H231815   6.290   4.608  15.503  0.4284 -0.3328  0.9040
 3442TIP3   OH231816   4.989   1.341  13.252 -0.0204  0.6606 -0.3258
 3442TIP3    H131817   5.000   1.351  13.158 -0.6234  2.5744 -0.2040
 3442TIP3    H231818   4.951   1.423  13.281 -0.3799 -0.1281  1.5137
 3443TIP3   OH231819   5.212   5.602  13.196  0.3456  0.5153 -0.7099
 3443TIP3    H131820   5.214   5.508  13.209  1.5773  0.7475  0.8311
 3443TIP3    H231821   5.277   5.618  13.127 -0.5223  0.1540 -1.6266
 3444TIP3   OH231822   4.196   1.600  14.757 -0.3470 -0.3358 -0.0038
 3444TIP3    H131823   4.269   1.537  14.758  0.2283  0.3400  1.3341
 3444TIP3    H231824   4.173   1.611  14.849 -2.3452 -0.7531 -0.4295
 3445TIP3   OH231825   5.434   6.505   0.553  0.2361  0.6448 -0.0218
 3445TIP3    H131826   5.392   6.566   0.492  0.0779  0.5091 -0.0493
 3445TIP3    H231827   5.504   6.556   0.593 -0.6649  1.2020  0.8595
 3446TIP3   OH231828   2.562   2.884  13.285 -0.0909 -0.5417  0.1036
 3446TIP3    H131829   2.634   2.841  13.238 -1.0624 -2.3717  0.2227
 3446TIP3    H231830   2.572   2.854  13.376 -1.9850 -2.2390 -0.1977
 3447TIP3   OH231831   0.766   6.377   3.427 -0.0304 -0.0113 -0.8092
 3447TIP3    H131832   0.777   6.454   3.484 -0.7299 -0.5693  0.0882
 3447TIP3    H231833   0.677   6.347   3.444  0.2663 -1.0750 -1.1021
 3448TIP3   OH231834   3.890   2.551  14.327  0.0984  0.6090 -0.0945
 3448TIP3    H131835   3.927   2.499  14.399 -1.9140  1.1511  1.3813
 3448TIP3    H231836   3.965   2.573  14.272  1.6977  0.2598  1.8942
 3449TIP3   OH231837   2.176   2.518  11.184  0.5086 -0.0001 -0.2470
 3449TIP3    H131838   2.188   2.513  11.279  1.8703  2.2047 -0.2629
 3449TIP3    H231839   2.263   2.499  11.148 -0.0518 -1.0428 -1.0915
 3450TIP3   OH231840   1.501   3.712  17.186 -0.3451  0.2089  0.1362
 3450TIP3    H131841   1.431   3.647  17.187  1.1081 -1.4136 -1.0307
 3450TIP3    H231842   1.509   3.739  17.095  2.0945 -1.3751 -0.1700
 3451TIP3   OH231843   5.504   2.953   6.133 -0.0825  0.3258  0.6801
 3451TIP3    H131844   5.454   2.954   6.214  0.8105  2.3185  1.2353
 3451TIP3    H231845   5.584   2.905   6.155 -1.0040 -1.4598  0.2273
 3452TIP3   OH231846   6.424   0.180   5.271  0.4736 -0.5087  0.0254
 3452TIP3    H131847   6.331   0.188   5.293  0.1240  2.5691 -2.1472
 3452TIP3    H231848   6.463   0.135   5.345 -2.2646  0.7697  2.3431
 3453TIP3   OH231849   6.247   0.928  16.908  0.3415 -0.7706 -0.4518
 3453TIP3    H131850   6.273   0.867  16.977  0.4715 -0.1888  0.0251
 3453TIP3    H231851   6.152   0.933  16.914  0.2526 -1.6881 -1.1484
 3454TIP3   OH231852   4.612   6.751  16.606 -0.4627 -0.0390 -0.4928
 3454TIP3    H131853   4.557   6.673  16.601 -0.9115 -0.1463  4.1257
 3454TIP3    H231854   4.550   6.824  16.592 -0.9226 -0.3277  0.0292
 3455TIP3   OH231855   4.996   1.486   3.103  0.0716  0.1205  0.2180
 3455TIP3    H131856   5.083   1.525   3.097  0.7653 -1.2294  1.0997
 3455TIP3    H231857   4.940   1.542   3.049  2.0045 -0.3940 -2.4185
 3456TIP3   OH231858   1.327   0.486   0.502  0.1350  0.2341  0.6269
 3456TIP3    H131859   1.245   0.443   0.528 -0.7041  2.1836  1.2780
 3456TIP3    H231860   1.382   0.415   0.469 -1.2081 -1.3419  1.7113
 3457TIP3   OH231861   4.650   0.696  17.255 -0.3204 -0.2457  0.2155
 3457TIP3    H131862   4.673   0.624  17.196  1.0630 -0.9469  1.5754
 3457TIP3    H231863   4.724   0.756  17.250  0.3951 -0.9339  2.1878
 3458TIP3   OH231864   6.188   3.079   6.112 -0.0861  0.2990 -0.0805
 3458TIP3    H131865   6.182   3.157   6.167 -1.1429 -1.1647  1.9437
 3458TIP3    H231866   6.097   3.051   6.100  0.3703 -1.6588  0.7614
 3459TIP3   OH231867   1.992   3.186   3.209 -0.2483 -0.2315  0.2465
 3459TIP3    H131868   2.052   3.139   3.151 -0.7315 -0.5764  0.0204
 3459TIP3    H231869   2.021   3.164   3.297 -1.3413 -2.0951  0.1510
 3460TIP3   OH231870   5.766   3.713  15.915 -0.2236  0.4618 -0.3298
 3460TIP3    H131871   5.693   3.653  15.929 -0.1615 -0.1204 -2.3281
 3460TIP3    H231872   5.726   3.800  15.914 -0.5889  0.3074  0.6028
 3461TIP3   OH231873   1.392   1.021  16.864  0.2497 -0.1308 -0.3361
 3461TIP3    H131874   1.440   0.976  16.794  0.6367 -0.2731  0.0227
 3461TIP3    H231875   1.319   1.064  16.819  0.2299 -0.6071 -0.7653
 3462TIP3   OH231876   2.307   1.927   1.274 -0.3692  0.8083 -0.0043
 3462TIP3    H131877   2.382   1.868   1.268 -1.6140 -0.7237 -0.9016
 3462TIP3    H231878   2.266   1.907   1.358 -1.4131 -0.4172 -0.7766
 3463TIP3   OH231879   2.438   3.967   1.895 -0.0692 -0.4366  0.2438
 3463TIP3    H131880   2.448   3.892   1.955 -1.8634 -0.9017 -0.0073
 3463TIP3    H231881   2.343   3.975   1.883  0.1651  1.2404 -0.5520
 3464TIP3   OH231882   5.807   6.345   0.386  0.1160 -0.0415 -0.5009
 3464TIP3    H131883   5.827   6.352   0.480 -1.3630 -1.2092 -0.0779
 3464TIP3    H231884   5.855   6.267   0.357 -0.9872 -0.8121 -0.2698
 3465TIP3   OH231885   1.372   2.533  15.388  0.3449  0.8235  0.6674
 3465TIP3    H131886   1.436   2.584  15.437 -0.0413  0.1287  1.9314
 3465TIP3    H231887   1.292   2.586  15.391  0.3858  0.8883  0.6010
 3466TIP3   OH231888   5.776   3.721   2.154  0.2737 -1.0270  0.1934
 3466TIP3    H131889   5.868   3.709   2.176  1.8621  0.0321 -5.2421
 3466TIP3    H231890   5.755   3.808   2.187  1.3917 -0.9807  0.8117
 3467TIP3   OH231891   2.352   3.592   5.396 -0.2121  0.2955 -0.0837
 3467TIP3    H131892   2.418   3.566   5.332  1.2415  0.3001  1.4059
 3467TIP3    H231893   2.305   3.664   5.354  0.1037 -0.3144 -1.5204
 3468TIP3   OH231894   5.103   0.023  12.492  0.4298  0.0173 -0.5376
 3468TIP3    H131895   5.159  -0.029  12.550 -0.1994 -1.2349 -1.0390
 3468TIP3    H231896   5.071   0.094  12.547  2.3610  0.6570 -0.1882
 3469TIP3   OH231897   0.481   0.742   1.208  0.7115  0.1985  0.7797
 3469TIP3    H131898   0.417   0.714   1.274 -0.9510  0.1523 -0.8220
 3469TIP3    H231899   0.444   0.823   1.171  0.9216 -0.5303 -1.0675
 3470TIP3   OH231900   0.420   1.720   3.892  0.2418 -0.0275 -0.0003
 3470TIP3    H131901   0.487   1.758   3.950 -1.0391  1.0992  0.7646
 3470TIP3    H231902   0.408   1.632   3.925 -1.8009  1.1911  2.6679
 3471TIP3   OH231903   2.508   3.342   1.418 -0.1325 -0.4072  0.3079
 3471TIP3    H131904   2.450   3.302   1.483 -0.5368 -1.0534 -0.4498
 3471TIP3    H231905   2.450   3.371   1.348  0.2565  0.6703  0.4167
 3472TIP3   OH231906   2.515   1.608  15.039 -0.1146  0.2619 -0.1541
 3472TIP3    H131907   2.558   1.693  15.039  0.7323 -0.1591  0.6440
 3472TIP3    H231908   2.546   1.565  14.959  0.9703 -0.0477  0.4271
 3473TIP3   OH231909   0.117   4.247   4.541 -0.0952  0.4640 -0.0329
 3473TIP3    H131910   0.204   4.265   4.505 -0.2393  0.7431 -0.2475
 3473TIP3    H231911   0.120   4.154   4.565 -0.4443 -0.0868 -2.0434
 3474TIP3   OH231912   3.162   3.712  14.416  0.1190  0.0862  0.3435
 3474TIP3    H131913   3.165   3.650  14.489 -0.6514  1.5097  1.6016
 3474TIP3    H231914   3.181   3.658  14.338  2.4164 -1.1992  1.7181
 3475TIP3   OH231915   6.139   3.132  13.060 -0.4282 -0.0767  0.5802
 3475TIP3    H131916   6.138   3.103  12.969 -0.9591 -1.0860  0.8881
 3475TIP3    H231917   6.153   3.226  13.056  0.4676 -0.2490 -0.5055
 3476TIP3   OH231918   0.233   5.092  16.530 -0.5091  0.2425  0.2643
 3476TIP3    H131919   0.176   5.016  16.537 -1.2398  0.6594 -0.9874
 3476TIP3    H231920   0.182   5.164  16.568 -0.6469  0.5209 -0.4345
 3477TIP3   OH231921   6.117   0.881  14.583  0.2038  0.4465 -0.6083
 3477TIP3    H131922   6.199   0.859  14.538  1.3500  1.4080  0.9298
 3477TIP3    H231923   6.143   0.896  14.674 -1.6823  0.8052 -0.1034
 3478TIP3   OH231924   0.267   1.682  13.170 -0.4258  0.1756  0.5709
 3478TIP3    H131925   0.186   1.671  13.219 -1.0514  0.4754 -0.3873
 3478TIP3    H231926   0.242   1.669  13.078  0.6952 -0.2057  0.3125
 3479TIP3   OH231927   5.648   6.691  16.795  0.0419  0.3081 -0.0585
 3479TIP3    H131928   5.554   6.701  16.812 -0.3321 -0.5925 -1.5160
 3479TIP3    H231929   5.679   6.636  16.867 -1.0543 -1.5241 -0.9528
 3480TIP3   OH231930   0.284   2.090  15.606  0.1054 -0.3482  0.5394
 3480TIP3    H131931   0.256   2.182  15.604  0.7826 -0.1661 -0.5780
 3480TIP3    H231932   0.209   2.044  15.643 -0.2917  0.6351  0.9999
 3481TIP3   OH231933   3.648   0.396  16.303 -0.3557  0.6201  0.2644
 3481TIP3    H131934   3.629   0.307  16.330  1.2160 -0.0846 -0.8767
 3481TIP3    H231935   3.630   0.397  16.209  1.8602  0.8226 -0.2039
 3482TIP3   OH231936   1.891   4.721  12.028  0.0073 -0.1446  0.2197
 3482TIP3    H131937   1.986   4.729  12.017  0.1906 -1.5629  0.6489
 3482TIP3    H231938   1.856   4.800  11.988  1.3327  0.1093 -0.4917
 3483TIP3   OH231939   1.466   4.735   1.858  0.4362 -0.1840  0.4327
 3483TIP3    H131940   1.504   4.818   1.831  1.0011 -1.1219 -1.8045
 3483TIP3    H231941   1.378   4.757   1.888  0.6307  1.2270 -0.0166
 3484TIP3   OH231942   1.607   2.548   4.673 -0.1932 -0.4291  0.1821
 3484TIP3    H131943   1.692   2.570   4.635  0.3422 -0.6925  1.2200
 3484TIP3    H231944   1.544   2.594   4.618  0.4853 -1.8165 -1.8076
 3485TIP3   OH231945   6.535   0.351  14.797  0.2004 -0.2332 -0.0211
 3485TIP3    H131946   6.536   0.410  14.872  0.3309 -0.8684  0.4753
 3485TIP3    H231947   6.443   0.326  14.787  0.5689 -2.4215  1.7196
 3486TIP3   OH231948   1.937   6.225  15.928  0.6902  0.0990 -0.0645
 3486TIP3    H131949   1.981   6.150  15.888 -0.2371 -0.8968  0.7471
 3486TIP3    H231950   1.849   6.223  15.891  0.2009 -0.1084  1.1073
 3487TIP3   OH231951   4.840   5.624  15.695 -0.2763  0.4411 -0.4514
 3487TIP3    H131952   4.931   5.618  15.666 -1.0014  0.8404 -2.9151
 3487TIP3    H231953   4.830   5.715  15.723  0.3871  0.0981  0.9121
 3488TIP3   OH231954   5.767   0.240  12.132  0.0706 -0.1187  0.3587
 3488TIP3    H131955   5.850   0.266  12.172  0.8626  0.4461 -1.6036
 3488TIP3    H231956   5.712   0.318  12.139  0.5177  0.2713 -0.4701
 3489TIP3   OH231957   6.508   1.216   1.433  0.2449  0.3880  0.1539
 3489TIP3    H131958   6.553   1.261   1.362  1.2031  1.0861  1.1711
 3489TIP3    H231959   6.552   1.131   1.440 -1.3626 -0.6102 -1.5685
 3490TIP3   OH231960   2.562   1.345   3.878  0.5687 -0.0148 -0.3974
 3490TIP3    H131961   2.594   1.295   3.953 -0.5972  0.0334  0.1394
 3490TIP3    H231962   2.522   1.423   3.916 -0.2638 -0.1165 -1.0525
 3491TIP3   OH231963   4.446   0.300   1.218  0.3496  0.3277  0.1940
 3491TIP3    H131964   4.403   0.313   1.134 -0.8544  1.2013  0.9274
 3491TIP3    H231965   4.505   0.225   1.204 -2.2223 -1.6445 -0.5386
 3492TIP3   OH231966   5.537   0.685   4.039 -0.4259  0.1623  0.1962
 3492TIP3    H131967   5.590   0.663   4.116 -1.1058 -0.0263  0.6182
 3492TIP3    H231968   5.447   0.662   4.065 -0.8671  1.5371 -0.0886
 3493TIP3   OH231969   3.728   0.335  15.967  0.0048 -0.1083 -0.0139
 3493TIP3    H131970   3.780   0.264  16.005  0.7058  0.8079  0.7628
 3493TIP3    H231971   3.791   0.386  15.916 -0.5776 -0.2856 -0.9196
 3494TIP3   OH231972   3.021   1.320   3.090  0.7359  0.3880  0.1320
 3494TIP3    H131973   3.012   1.386   3.021  0.9741  1.7439  1.3730
 3494TIP3    H231974   3.056   1.243   3.045  0.5712  1.1506 -1.3207
 3495TIP3   OH231975   4.529   3.118  15.760  0.7967  0.3801  0.3339
 3495TIP3    H131976   4.441   3.088  15.740  0.5282  0.5301  1.2825
 3495TIP3    H231977   4.533   3.207  15.723  0.1226  0.8626  1.3926
 3496TIP3   OH231978   0.734   3.284   4.994  0.1333 -0.0925 -0.0895
 3496TIP3    H131979   0.694   3.263   5.079 -2.2493  1.1705 -0.8340
 3496TIP3    H231980   0.784   3.207   4.971 -1.3943 -1.5220  1.2160
 3497TIP3   OH231981   3.096   4.952   4.176  0.2418 -0.1465  0.2791
 3497TIP3    H131982   3.079   4.874   4.229  2.0536  0.2687  1.4792
 3497TIP3    H231983   3.167   4.927   4.117 -0.1154  0.1779 -0.3071
 3498TIP3   OH231984   1.433   5.354   3.758  0.3249  0.0977  0.1166
 3498TIP3    H131985   1.524   5.384   3.761  0.5672 -0.5131 -0.8786
 3498TIP3    H231986   1.381   5.434   3.765  0.9230  0.3703  1.6400
 3499TIP3   OH231987   0.808   5.396  12.159 -0.8119  0.2303 -0.6538
 3499TIP3    H131988   0.757   5.465  12.201 -0.6450 -0.2623  0.3728
 3499TIP3    H231989   0.898   5.428  12.160 -0.2304 -1.2369  2.5673
 3500TIP3   OH231990   2.223   0.469   2.951  0.2014 -0.5709 -0.5412
 3500TIP3    H131991   2.133   0.454   2.923  0.0236  0.1556 -0.3833
 3500TIP3    H231992   2.273   0.399   2.910 -0.3082 -0.4886 -1.3255
 3501TIP3   OH231993   4.001   5.796   2.402  0.3884 -0.7156  0.1130
 3501TIP3    H131994   4.094   5.797   2.425  0.0221 -0.6210  1.6539
 3501TIP3    H231995   3.990   5.718   2.347  1.5840 -0.1094 -1.0310
 3502TIP3   OH231996   4.902   1.474  14.815  0.4243  0.0458 -0.1929
 3502TIP3    H131997   4.966   1.478  14.744 -0.9217  1.0411 -1.3770
 3502TIP3    H231998   4.850   1.396  14.795  0.5161 -0.0948  0.1190
 3503TIP3   OH231999   4.914   2.940  17.176  0.3139  0.3509  0.3341
 3503TIP3    H132000   4.913   2.874  17.106 -3.8066 -1.8270  2.2716
 3503TIP3    H232001   4.948   2.894  17.252 -0.3032  1.1285  1.0875
 3504TIP3   OH232002   3.313   1.703  16.961  0.2244 -0.4529  0.3561
 3504TIP3    H132003   3.322   1.753  16.880 -2.1027 -1.3409 -0.4850
 3504TIP3    H232004   3.254   1.755  17.015  0.4864 -0.6418  0.8215
 3505TIP3   OH232005   0.157   1.437   6.022 -0.3554 -0.3788  0.6687
 3505TIP3    H132006   0.165   1.389   6.105 -0.9855  0.6908  1.3662
 3505TIP3    H232007   0.223   1.506   6.028 -0.0911 -0.5738  0.0733
 3506TIP3   OH232008   0.869   6.397   0.404 -0.4222 -0.0189  0.1616
 3506TIP3    H132009   0.857   6.304   0.385 -2.9771  0.6615 -1.7893
 3506TIP3    H232010   0.782   6.429   0.427  0.4450  1.8809  0.9245
 3507TIP3   OH232011   5.784   2.888  17.088  0.6313 -0.4136 -0.0532
 3507TIP3    H132012   5.833   2.963  17.124 -0.5620  0.6101 -0.5100
 3507TIP3    H232013   5.771   2.910  16.996 -0.3049 -0.8741 -0.0399
 3508TIP3   OH232014   2.063   2.155   3.315  0.0827  0.4050  0.2782
 3508TIP3    H132015   2.147   2.109   3.315  0.4130  0.9932 -1.2744
 3508TIP3    H232016   1.999   2.086   3.331  0.7242 -0.3050 -0.1427
 3509TIP3   OH232017   4.037   2.773   3.164  0.1745 -0.6445  0.3029
 3509TIP3    H132018   4.000   2.816   3.242  1.1617 -1.3468  1.1721
 3509TIP3    H232019   3.981   2.802   3.092 -1.0172 -0.3219  1.3371
 3510TIP3   OH232020   6.454   3.491  13.979  0.2130 -0.1553  0.2069
 3510TIP3    H132021   6.518   3.522  14.043  0.2856  0.8369 -0.3473
 3510TIP3    H232022   6.393   3.564  13.968 -0.7623 -0.9154  0.3817
 3511TIP3   OH232023   2.281   5.561  10.878 -0.0076 -0.1774  0.0990
 3511TIP3    H132024   2.328   5.609  10.810 -3.0015  1.9390 -0.5652
 3511TIP3    H232025   2.272   5.472  10.842 -0.3822  0.5662 -1.6966
 3512TIP3   OH232026   2.584   0.310  14.597 -0.0425 -0.1864  0.4945
 3512TIP3    H132027   2.559   0.264  14.517 -0.2953  0.3579  0.2516
 3512TIP3    H232028   2.658   0.365  14.571 -1.2049  1.2930  0.1871
 3513TIP3   OH232029   4.877   3.983  10.626  0.6733  0.7717 -0.3322
 3513TIP3    H132030   4.948   4.047  10.627  2.0411 -0.6770 -2.1938
 3513TIP3    H232031   4.905   3.915  10.688  0.8679  0.2588 -0.9775
 3514TIP3   OH232032   3.515   4.136   1.720 -0.7109  0.1061  0.4700
 3514TIP3    H132033   3.494   4.178   1.637 -1.7269 -0.8444  0.2400
 3514TIP3    H232034   3.541   4.208   1.777  2.2895  0.5594 -1.3364
 3515TIP3   OH232035   0.116   3.046  15.580 -0.0373 -0.2654 -0.4075
 3515TIP3    H132036   0.096   3.031  15.488  0.9368 -2.4510 -0.2831
 3515TIP3    H232037   0.105   3.141  15.592  0.8502  0.2016 -3.0113
 3516TIP3   OH232038   6.733   2.716   2.370  0.3658  0.0424  0.5012
 3516TIP3    H132039   6.816   2.759   2.349  0.6832 -1.2637 -0.9775
 3516TIP3    H232040   6.759   2.638   2.420 -0.1367  0.8769  2.1213
 3517TIP3   OH232041   2.999   5.657  12.161  0.4285  0.1878 -0.0007
 3517TIP3    H132042   2.920   5.607  12.141  1.6460 -1.1378 -1.6821
 3517TIP3    H232043   2.973   5.716  12.231 -2.1632  0.0882 -0.8258
 3518TIP3   OH232044   3.972   2.451  13.804  0.4158  0.2445 -0.1539
 3518TIP3    H132045   4.030   2.512  13.758  0.0410  0.6480 -0.1020
 3518TIP3    H232046   4.029   2.381  13.834  1.1036  1.3323  1.1028
 3519TIP3   OH232047   4.473   3.525   4.966  0.6406  0.1184 -0.1326
 3519TIP3    H132048   4.460   3.568   4.881 -0.2548 -1.6337 -0.8995
 3519TIP3    H232049   4.567   3.529   4.982  0.9939 -0.8865 -1.9232
 3520TIP3   OH232050   5.435   5.233  12.680  0.0989 -0.2225 -1.2393
 3520TIP3    H132051   5.444   5.160  12.619 -0.1638 -1.3600  0.0674
 3520TIP3    H232052   5.416   5.192  12.764  1.7782  1.2498 -0.1077
 3521TIP3   OH232053   4.810   6.137  17.161  0.4997 -0.7522  0.0980
 3521TIP3    H132054   4.795   6.219  17.114  1.0235  0.3148  1.7391
 3521TIP3    H232055   4.723   6.113  17.195  0.3047 -1.0090 -0.5653
 3522TIP3   OH232056   5.532   1.852  16.987  0.0103 -0.0031  0.2313
 3522TIP3    H132057   5.623   1.845  16.960  0.0141 -0.0669  0.2597
 3522TIP3    H232058   5.515   1.946  16.993 -0.3194  0.0413 -1.1273
 3523TIP3   OH232059   3.058   1.505  15.435  0.4891  0.0765 -0.4985
 3523TIP3    H132060   3.123   1.505  15.365  0.1882 -4.1445 -0.8905
 3523TIP3    H232061   2.974   1.513  15.389  0.4005 -0.5817 -0.4474
 3524TIP3   OH232062   0.470   0.402   1.444 -0.1958  0.0774 -0.7102
 3524TIP3    H132063   0.491   0.445   1.361 -2.2532 -1.0084 -1.8388
 3524TIP3    H232064   0.432   0.471   1.498  2.5360  1.1397 -0.0738
 3525TIP3   OH232065   2.696   6.672  13.447 -0.2385 -0.0846  0.5103
 3525TIP3    H132066   2.747   6.625  13.381 -1.6888 -2.2764  0.8802
 3525TIP3    H232067   2.637   6.727  13.396  0.6350  0.4289  0.0451
 3526TIP3   OH232068   4.364   5.845  16.484 -0.2284 -0.2308 -0.2849
 3526TIP3    H132069   4.285   5.889  16.454  0.7439  1.0564 -1.0105
 3526TIP3    H232070   4.427   5.915  16.499  0.6881 -1.2112  0.5973
 3527TIP3   OH232071   4.574   2.434   0.598 -0.2414  0.0024 -0.2321
 3527TIP3    H132072   4.607   2.392   0.678  1.1779  2.4643  0.5437
 3527TIP3    H232073   4.493   2.478   0.626  0.9292  1.9391  0.2130
 3528TIP3   OH232074   2.547   2.324   0.155 -0.3322  0.4877  0.0276
 3528TIP3    H132075   2.618   2.311   0.218 -0.4504  1.5191  0.3824
 3528TIP3    H232076   2.492   2.246   0.164  1.4745 -0.9540 -1.2111
 3529TIP3   OH232077   3.423   5.635  15.220  0.2725  0.3876  0.0498
 3529TIP3    H132078   3.384   5.548  15.229  1.6339 -0.1123  1.2483
 3529TIP3    H232079   3.515   5.622  15.244  0.7929  1.8854 -1.0965
 3530TIP3   OH232080   3.572   2.385  11.411  0.9109 -0.3857 -0.1157
 3530TIP3    H132081   3.621   2.337  11.343  2.8999  0.7765  0.4486
 3530TIP3    H232082   3.582   2.332  11.490  0.3863 -0.6498 -0.2195
 3531TIP3   OH232083   4.209   0.280   2.034  0.0868 -0.4515 -0.3110
 3531TIP3    H132084   4.238   0.272   2.125 -0.8312 -0.4454 -0.0207
 3531TIP3    H232085   4.117   0.254   2.035  0.2689 -1.1650 -1.3654
 3532TIP3   OH232086   1.488   3.807   2.717  0.0121 -0.1462 -0.0852
 3532TIP3    H132087   1.452   3.809   2.628  1.0779 -0.9171 -0.5322
 3532TIP3    H232088   1.480   3.897   2.747  1.0378  0.4368 -1.5173
 3533TIP3   OH232089   6.504   0.349   2.381  0.0962 -0.3203 -0.2178
 3533TIP3    H132090   6.418   0.338   2.339 -0.2327  0.2776  0.2975
 3533TIP3    H232091   6.495   0.429   2.432  0.4197 -1.1790  1.2013
 3534TIP3   OH232092   1.648   4.156  13.485  0.3494 -0.5684  0.4270
 3534TIP3    H132093   1.586   4.204  13.431  1.8207  1.0668  0.1320
 3534TIP3    H232094   1.636   4.064  13.460 -2.7803 -0.4392  1.2895
 3535TIP3   OH232095   4.739   3.218   1.302  0.2259  0.0739  0.3357
 3535TIP3    H132096   4.702   3.215   1.391 -1.3972 -0.0652 -0.3376
 3535TIP3    H232097   4.672   3.181   1.246  0.6700  1.4400 -1.1593
 3536TIP3   OH232098   1.159   0.439   4.386 -0.6025  0.8470  0.0667
 3536TIP3    H132099   1.161   0.404   4.297 -0.2871 -0.7119  0.6780
 3536TIP3    H232100   1.066   0.446   4.408 -0.8318 -5.5436  2.1871
 3537TIP3   OH232101   4.330   3.588  11.233 -0.4757  0.2649  1.2203
 3537TIP3    H132102   4.362   3.670  11.271 -0.6202  0.5738  0.6857
 3537TIP3    H232103   4.406   3.530  11.233  0.3371  1.2818 -0.8619
 3538TIP3   OH232104   3.463   4.455  14.886 -0.3523 -0.4178  0.0131
 3538TIP3    H132105   3.442   4.417  14.801  0.8066  0.6620 -0.7808
 3538TIP3    H232106   3.378   4.483  14.921 -1.1140 -2.9541  0.2709
 3539TIP3   OH232107   3.906   0.152   0.724 -0.0080  0.2639  0.1218
 3539TIP3    H132108   3.847   0.123   0.793 -0.8701 -0.0449 -0.7490
 3539TIP3    H232109   3.850   0.198   0.662  0.9057  1.3385  0.0677
 3540TIP3   OH232110   0.358   5.981   7.190 -0.4285 -0.0967  0.8193
 3540TIP3    H132111   0.376   5.905   7.245 -0.3363 -0.5099  0.2192
 3540TIP3    H232112   0.333   5.944   7.105  2.4587  0.5563 -0.3693
 3541TIP3   OH232113   5.090   6.658  14.610 -0.6462 -0.6547  0.2804
 3541TIP3    H132114   5.074   6.742  14.567 -1.2732 -1.3681 -0.9061
 3541TIP3    H232115   5.115   6.599  14.540  1.5392 -1.0364  1.3509
 3542TIP3   OH232116   6.374   5.681   2.201  0.4345 -0.0496 -1.1166
 3542TIP3    H132117   6.330   5.761   2.170  0.1265  0.5879  0.8881
 3542TIP3    H232118   6.306   5.614   2.197  1.1839 -0.6892 -4.5590
 3543TIP3   OH232119   3.482   0.117   1.578  0.3517 -0.3476  0.3655
 3543TIP3    H132120   3.530   0.200   1.584 -0.4204  0.2534 -1.3937
 3543TIP3    H232121   3.551   0.051   1.562  0.7535  0.3055 -0.6830
 3544TIP3   OH232122   0.222   4.254  13.544  0.2795 -0.5987 -0.1777
 3544TIP3    H132123   0.212   4.349  13.547  0.1812 -0.6267  0.4068
 3544TIP3    H232124   0.253   4.230  13.631  0.2167 -1.1125 -0.2928
 3545TIP3   OH232125   1.130   5.568  15.475 -0.8385 -0.4419 -0.1889
 3545TIP3    H132126   1.156   5.508  15.405 -2.0503 -1.8598  0.5671
 3545TIP3    H232127   1.129   5.654  15.433  2.8459 -0.6142 -0.7984
 3546TIP3   OH232128   1.761   4.596  11.794  0.0465 -0.1348  0.0536
 3546TIP3    H132129   1.818   4.523  11.770  1.7183  1.0046  0.5362
 3546TIP3    H232130   1.819   4.660  11.836 -1.0012  2.3563 -2.1415
 3547TIP3   OH232131   2.438   2.748   1.554 -0.8446 -0.4627  0.5102
 3547TIP3    H132132   2.384   2.726   1.478 -0.6249  0.4019  0.0947
 3547TIP3    H232133   2.377   2.745   1.628 -1.4934  0.5615  0.0421
 3548TIP3   OH232134   5.882   6.727   0.556  0.0402  0.9163  0.0494
 3548TIP3    H132135   5.929   6.696   0.478 -2.0342 -4.2479  0.6374
 3548TIP3    H232136   5.951   6.744   0.620  1.5302  1.2407 -1.5774
 3549TIP3   OH232137   1.915   5.225  16.559  0.1835 -0.4895  0.5166
 3549TIP3    H132138   1.824   5.214  16.532 -0.4989 -2.1792  3.3054
 3549TIP3    H232139   1.959   5.146  16.526  0.2915 -0.4546  0.5766
 3550TIP3   OH232140   1.367   4.415   0.540  0.0372  0.2948  0.3161
 3550TIP3    H132141   1.460   4.394   0.537  0.0314  0.2884  0.1767
 3550TIP3    H232142   1.355   4.458   0.625  0.1091  0.0203  0.4653
 3551TIP3   OH232143   1.612   3.074   1.479  0.2566  0.0650 -0.3899
 3551TIP3    H132144   1.584   3.078   1.388 -3.0045  0.9837  0.5648
 3551TIP3    H232145   1.555   3.137   1.524  1.1702 -1.0362  2.4099
 3552TIP3   OH232146   0.316   2.862   0.701 -0.2248  0.4416  0.5003
 3552TIP3    H132147   0.337   2.927   0.768 -0.8793  0.3802  0.7658
 3552TIP3    H232148   0.220   2.863   0.695 -0.3320 -1.6262  1.6376
 3553TIP3   OH232149   2.503   6.421   6.277 -1.0753  0.1839  0.6219
 3553TIP3    H132150   2.559   6.368   6.334  0.0829 -1.0963 -1.6164
 3553TIP3    H232151   2.415   6.384   6.288 -1.1819  1.0050  2.7572
 3554TIP3   OH232152   3.315   0.210   2.282 -0.1874  0.0998  0.1711
 3554TIP3    H132153   3.353   0.280   2.335  0.2691  2.5867 -3.2396
 3554TIP3    H232154   3.339   0.232   2.192 -1.6782 -3.4462 -1.2156
 3555TIP3   OH232155   5.221   6.576   0.971 -0.4474 -0.0035 -0.8906
 3555TIP3    H132156   5.128   6.573   0.950 -0.4703  0.0707 -0.7970
 3555TIP3    H232157   5.230   6.516   1.045 -0.1937 -1.0858 -1.7780
 3556TIP3   OH232158   3.369   3.737   5.347  0.6999 -0.1726  0.4282
 3556TIP3    H132159   3.311   3.755   5.274  0.9252  2.2590  0.8015
 3556TIP3    H232160   3.319   3.680   5.405  0.2364 -1.4666 -1.2105
 3557TIP3   OH232161   4.609   6.745  13.702 -0.4386  0.0574  0.2928
 3557TIP3    H132162   4.655   6.688  13.641 -0.5396 -1.0458  1.2286
 3557TIP3    H232163   4.671   6.817  13.719 -0.1437  0.0023 -0.5554
 3558TIP3   OH232164   6.804   6.195  16.422 -0.0019 -0.2290  0.2025
 3558TIP3    H132165   6.833   6.272  16.471 -3.0143  1.7630 -0.9366
 3558TIP3    H232166   6.837   6.209  16.333 -0.8530 -0.0400 -0.0927
 3559TIP3   OH232167   5.339   0.064   1.654  0.1339 -0.8737 -0.3313
 3559TIP3    H132168   5.368   0.054   1.744  1.6088  1.7869 -0.4361
 3559TIP3    H232169   5.251   0.101   1.661  0.1609 -0.8826  0.0379
 3560TIP3   OH232170   3.911   5.517   5.415 -0.1023 -0.1378 -0.0668
 3560TIP3    H132171   3.825   5.493   5.382  0.5638  0.8842 -2.6608
 3560TIP3    H232172   3.970   5.501   5.342  2.1393 -1.9910  2.0837
 3561TIP3   OH232173   4.365   0.521   0.902 -0.3862 -0.1490  0.6834
 3561TIP3    H132174   4.367   0.615   0.880  0.1832 -0.2253  0.4023
 3561TIP3    H232175   4.367   0.477   0.817 -0.7139 -0.4141  0.8158
 3562TIP3   OH232176   1.085   0.354   5.324 -0.7286  0.6181  0.7991
 3562TIP3    H132177   1.127   0.269   5.311  0.2585  1.2269 -0.0126
 3562TIP3    H232178   1.155   0.418   5.312 -1.3768  1.5357  1.8122
 3563TIP3   OH232179   0.279   2.194   4.455 -0.6402  0.6427 -0.2804
 3563TIP3    H132180   0.209   2.247   4.493 -0.3587  0.7228  0.1285
 3563TIP3    H232181   0.306   2.243   4.378 -0.1776  1.2457  0.2614
 3564TIP3   OH232182   5.736   0.678   3.117 -0.9481  0.6684  0.4751
 3564TIP3    H132183   5.786   0.722   3.185 -1.1086 -0.4302  1.3169
 3564TIP3    H232184   5.800   0.626   3.069 -0.8722  1.2601 -0.0606
 3565TIP3   OH232185   3.134   3.973  14.347  0.0116 -0.7273  0.7015
 3565TIP3    H132186   3.167   3.887  14.373 -1.3613 -1.1531  1.1195
 3565TIP3    H232187   3.088   4.005  14.425 -0.3615 -0.0687  0.2172
 3566TIP3   OH232188   5.107   0.090   3.044 -0.1219 -0.1895  0.5637
 3566TIP3    H132189   5.078   0.004   3.014  1.4051 -0.3139 -0.6141
 3566TIP3    H232190   5.085   0.149   2.972  1.0939 -0.0343  0.3002
 3567TIP3   OH232191   1.878   1.761  11.573 -0.0783 -0.2477  0.2120
 3567TIP3    H132192   1.852   1.850  11.550 -0.6664  0.0738  2.0572
 3567TIP3    H232193   1.962   1.748  11.529 -1.3633  0.1625 -2.4501
 3568TIP3   OH232194   4.015   1.603  16.662 -0.1775  0.5596  0.0130
 3568TIP3    H132195   4.083   1.668  16.677 -1.1559  1.3496  1.0886
 3568TIP3    H232196   3.949   1.648  16.609  0.4885 -0.4419 -1.7056
 3569TIP3   OH232197   4.312   0.466  16.336 -0.6228 -0.2695  0.2907
 3569TIP3    H132198   4.352   0.546  16.300 -2.8685  0.2129 -1.2850
 3569TIP3    H232199   4.218   0.479  16.324 -1.0730 -2.8687  0.6369
 3570TIP3   OH232200   3.165   6.229   0.658  0.1032  0.1696 -0.3603
 3570TIP3    H132201   3.101   6.287   0.616 -1.2542  0.0773  1.5042
 3570TIP3    H232202   3.119   6.146   0.669  1.0892 -0.3937 -0.4671
 3571TIP3   OH232203   3.924   4.619  12.155 -0.5027  0.3143  0.2141
 3571TIP3    H132204   3.916   4.576  12.240 -0.1928 -0.3352 -0.0848
 3571TIP3    H232205   3.896   4.552  12.092  0.4207  0.4010 -0.2878
 3572TIP3   OH232206   1.541   2.750   5.946 -0.3731 -0.1479 -0.3827
 3572TIP3    H132207   1.476   2.680   5.958  0.4541 -0.9031 -0.2468
 3572TIP3    H232208   1.538   2.799   6.028  0.2486 -1.0547  0.1930
 3573TIP3   OH232209   2.385   5.103  15.531 -0.4345  0.2300 -0.0308
 3573TIP3    H132210   2.303   5.127  15.489  0.6080  0.4643 -1.9641
 3573TIP3    H232211   2.406   5.016  15.495  0.6198  0.5651 -0.2539
 3574TIP3   OH232212   5.736   3.527  12.504 -0.2260 -0.8341  0.3334
 3574TIP3    H132213   5.684   3.482  12.570 -1.7949 -0.1446 -0.4100
 3574TIP3    H232214   5.707   3.490  12.421  0.4006 -0.3750 -0.0930
 3575TIP3   OH232215   6.721   5.552   3.167 -0.5761  0.7252  0.3811
 3575TIP3    H132216   6.807   5.577   3.199 -0.1754  0.2501 -0.2998
 3575TIP3    H232217   6.739   5.488   3.097 -1.4800  0.4811  0.3626
 3576TIP3   OH232218   3.517   5.904   3.224  0.1098 -0.5798 -0.1774
 3576TIP3    H132219   3.471   5.866   3.149  0.2702  1.2358 -1.2250
 3576TIP3    H232220   3.461   5.976   3.253  0.4746 -0.7238  0.8966
 3577TIP3   OH232221   6.634   4.622   0.844  0.1452  0.0193  0.0178
 3577TIP3    H132222   6.570   4.552   0.842  0.2210 -0.0228 -1.2920
 3577TIP3    H232223   6.643   4.650   0.752  2.8803 -0.7842 -0.0033
 3578TIP3   OH232224   3.737   3.792  13.962  0.0100  0.4302 -0.0137
 3578TIP3    H132225   3.832   3.800  13.952  0.0032 -1.8193 -2.2800
 3578TIP3    H232226   3.701   3.838  13.887 -0.5620 -1.6469 -1.0538
 3579TIP3   OH232227   5.695   4.498  14.108 -0.1968 -0.1186 -0.5240
 3579TIP3    H132228   5.752   4.563  14.067 -0.4339  1.1140  1.0398
 3579TIP3    H232229   5.647   4.459  14.035  1.4060  0.0332 -1.6840
 3580TIP3   OH232230   6.153   2.863  12.355 -0.1455  0.2148 -0.0209
 3580TIP3    H132231   6.133   2.933  12.293 -0.3505  0.0857 -0.1022
 3580TIP3    H232232   6.245   2.842  12.339 -0.7279 -1.1785 -1.6523
 3581TIP3   OH232233   1.150   5.929  14.101  0.6652 -0.0444  0.1227
 3581TIP3    H132234   1.153   5.876  14.021  0.1026  0.9601 -0.5704
 3581TIP3    H232235   1.206   6.004  14.082 -1.7097  1.6541 -0.4170
 3582TIP3   OH232236   5.263   5.930  11.723  0.3417 -0.4440  0.6304
 3582TIP3    H132237   5.286   6.017  11.754 -1.2215 -0.0820  0.7992
 3582TIP3    H232238   5.207   5.893  11.791  0.1878 -1.2042  0.1076
 3583TIP3   OH232239   6.364   2.872   4.338 -0.3434 -0.0110 -0.4059
 3583TIP3    H132240   6.277   2.882   4.298  0.9570 -1.1869 -3.6866
 3583TIP3    H232241   6.384   2.779   4.330  1.4305  0.3227 -0.0882
 3584TIP3   OH232242   2.112   4.559  15.403  0.3497 -1.1599  0.6201
 3584TIP3    H132243   2.037   4.586  15.455  1.1918 -0.8560  1.6747
 3584TIP3    H232244   2.174   4.524  15.466  0.9816 -1.6833 -0.2810
 3585TIP3   OH232245   5.948   6.734   5.016 -0.6332 -0.8886 -0.1364
 3585TIP3    H132246   5.869   6.788   5.025 -0.2060 -0.1648 -0.6469
 3585TIP3    H232247   5.985   6.733   5.104 -0.9821 -0.8684  0.0142
 3586TIP3   OH232248   0.884   0.956  16.292 -0.3306  0.4237 -0.1091
 3586TIP3    H132249   0.853   1.043  16.268  0.9111  0.3984 -1.9164
 3586TIP3    H232250   0.959   0.973  16.349  1.9918  0.6423 -3.1074
 3587TIP3   OH232251   4.207   3.812   3.314  0.2146  0.1951 -0.0717
 3587TIP3    H132252   4.181   3.745   3.378 -1.5884  0.4736 -0.5120
 3587TIP3    H232253   4.129   3.866   3.302  1.0945  1.2426 -1.1580
 3588TIP3   OH232254   1.991   0.938  14.697  0.2792  0.1728 -0.2138
 3588TIP3    H132255   1.950   1.022  14.716 -0.1340 -0.6065  2.4670
 3588TIP3    H232256   1.917   0.879  14.683  0.5345 -0.2871  0.3739
 3589TIP3   OH232257   5.121   2.652  12.744 -0.2048 -0.0577 -0.1248
 3589TIP3    H132258   5.111   2.647  12.649 -1.9462  0.1882  0.0292
 3589TIP3    H232259   5.085   2.737  12.768 -0.8054 -0.5781  0.8821
 3590TIP3   OH232260   5.550   6.235   4.795 -0.0114  0.1853  0.1022
 3590TIP3    H132261   5.463   6.220   4.834 -0.9416  2.3187 -1.0493
 3590TIP3    H232262   5.538   6.314   4.741  1.9738 -1.0222 -2.1727
 3591TIP3   OH232263   3.822   3.286  14.321 -0.2119 -1.0207 -0.1493
 3591TIP3    H132264   3.841   3.255  14.232 -1.8650 -2.4040 -0.0460
 3591TIP3    H232265   3.762   3.220  14.357 -0.6341  0.2418  1.5066
 3592TIP3   OH232266   2.493   4.837  15.356 -0.4363 -0.1871  0.1061
 3592TIP3    H132267   2.482   4.889  15.277  1.8331 -0.4678 -0.4111
 3592TIP3    H232268   2.504   4.747  15.325  0.8688 -0.2461  0.7200
 3593TIP3   OH232269   6.671   6.585  13.089 -0.1991  0.2127  0.0118
 3593TIP3    H132270   6.758   6.548  13.104  0.3446  2.1360  1.8199
 3593TIP3    H232271   6.688   6.672  13.053 -1.4449 -0.6337 -2.7176
 3594TIP3   OH232272   2.503   2.634   6.412 -0.5367  0.2916  0.0233
 3594TIP3    H132273   2.445   2.686   6.357 -1.1378  1.5793  1.8322
 3594TIP3    H232274   2.590   2.671   6.398 -0.4843 -0.2286 -1.0335
 3595TIP3   OH232275   6.470   6.059  15.568 -0.5104 -0.4013  0.2847
 3595TIP3    H132276   6.391   6.105  15.599 -0.7942  0.1643 -1.2460
 3595TIP3    H232277   6.438   6.000  15.500  0.0901 -1.7682  1.1661
 3596TIP3   OH232278   0.692   0.076   4.614 -0.1375  0.0462  0.7634
 3596TIP3    H132279   0.625   0.027   4.663  1.5515 -1.0558  2.0626
 3596TIP3    H232280   0.725   0.013   4.550 -1.5313  1.1332 -1.0707
 3597TIP3   OH232281   4.470   1.196  15.018  0.7458  0.1995 -0.0037
 3597TIP3    H132282   4.423   1.120  15.052  0.7295  0.0553 -0.3390
 3597TIP3    H232283   4.563   1.173  15.026  0.7357  0.0239 -0.3671
 3598TIP3   OH232284   0.274   6.365  14.624 -0.5464 -0.0059 -0.2930
 3598TIP3    H132285   0.244   6.274  14.632 -0.6156  0.0464  0.0293
 3598TIP3    H232286   0.326   6.380  14.703 -2.7650  1.1050  1.0012
 3599TIP3   OH232287   2.920   3.513   0.026 -0.1619 -0.6935 -0.1782
 3599TIP3    H132288   2.885   3.543   0.110  0.3575 -2.1021  0.5624
 3599TIP3    H232289   2.985   3.580   0.002 -0.8190  0.0764  0.1907
 3600TIP3   OH232290   2.991   2.687   1.764  0.4487 -0.2272 -0.0891
 3600TIP3    H132291   2.910   2.730   1.791  1.3348  0.4306  1.6238
 3600TIP3    H232292   3.008   2.623   1.834  1.2647 -0.5319 -0.5572
 3601TIP3   OH232293   6.163   6.710   3.965  0.1302  0.1031  0.5866
 3601TIP3    H132294   6.082   6.746   4.003  0.0945 -1.1697  1.7759
 3601TIP3    H232295   6.233   6.758   4.010  0.0611  2.5363 -1.7885
 3602TIP3   OH232296   2.144   4.265   4.269  0.2493  0.1347 -0.1123
 3602TIP3    H132297   2.234   4.261   4.302  0.4989 -1.1240 -0.9325
 3602TIP3    H232298   2.104   4.183   4.298 -0.6080  0.6364  0.1411
 3603TIP3   OH232299   4.544   1.615   6.410 -0.3244  0.5573  0.1093
 3603TIP3    H132300   4.621   1.593   6.357  0.0212 -0.7228  1.1339
 3603TIP3    H232301   4.549   1.710   6.421  0.4581  0.6279 -0.8308
 3604TIP3   OH232302   3.497   0.384  14.261  0.2855 -0.3030  0.2252
 3604TIP3    H132303   3.459   0.325  14.195 -0.1354 -1.7106  1.7063
 3604TIP3    H232304   3.453   0.467  14.245 -1.2843 -1.1431 -0.0104
 3605TIP3   OH232305   5.497   2.794   0.758  0.2473 -0.0257  0.1309
 3605TIP3    H132306   5.450   2.861   0.709 -1.1181  0.4606  2.0586
 3605TIP3    H232307   5.456   2.712   0.731 -0.1047  0.1830  0.0228
 3606TIP3   OH232308   5.692   5.665   2.520 -0.2309 -0.2502 -0.2487
 3606TIP3    H132309   5.605   5.675   2.481  0.0304 -0.7815 -0.9746
 3606TIP3    H232310   5.707   5.748   2.566 -1.8152 -0.7857  1.2723
 3607TIP3   OH232311   3.809   6.477  16.229 -0.1207 -0.0973 -0.2171
 3607TIP3    H132312   3.813   6.397  16.281  0.1323 -0.3326 -0.6035
 3607TIP3    H232313   3.899   6.508  16.225 -0.0699 -0.3307 -0.9150
 3608TIP3   OH232314   2.936   2.918  17.254  0.0703  0.6767 -0.4131
 3608TIP3    H132315   3.013   2.957  17.295 -0.3683  1.8935 -0.7076
 3608TIP3    H232316   2.969   2.879  17.173  0.5239  0.4308 -0.1089
 3609TIP3   OH232317   5.276   0.301  12.451 -0.0638 -0.3133 -0.6940
 3609TIP3    H132318   5.347   0.326  12.393 -1.5851  2.1791 -1.5785
 3609TIP3    H232319   5.312   0.232  12.506  3.6834  2.3719  0.3466
 3610TIP3   OH232320   6.562   2.003   4.570  0.0529 -0.2167  0.3164
 3610TIP3    H132321   6.632   1.938   4.574  0.1677 -0.0949  0.2750
 3610TIP3    H232322   6.514   1.982   4.489  2.3122  2.0182 -1.6974
 3611TIP3   OH232323   0.672   5.874  13.716 -0.0826  0.2896 -1.2595
 3611TIP3    H132324   0.728   5.797  13.709 -0.6728 -0.0985 -1.7555
 3611TIP3    H232325   0.726   5.939  13.761 -0.5007 -1.3057  1.7080
 3612TIP3   OH232326   3.660   4.258  17.076  0.1144  0.2031  0.3569
 3612TIP3    H132327   3.689   4.346  17.097  0.4251  0.6186 -1.7274
 3612TIP3    H232328   3.725   4.225  17.013  0.3003 -1.7055  1.4957
 3613TIP3   OH232329   1.973   6.795  16.744  0.0125 -0.1628 -0.0566
 3613TIP3    H132330   1.909   6.858  16.775 -0.0991 -0.6612  0.7210
 3613TIP3    H232331   1.923   6.715  16.728  0.0775  0.0627 -1.4622
 3614TIP3   OH232332   4.754   2.430  11.621 -0.1684 -0.2144  0.5791
 3614TIP3    H132333   4.778   2.411  11.712  0.8349  0.8948  0.5518
 3614TIP3    H232334   4.827   2.397  11.569  0.1203  0.8386  0.3124
 3615TIP3   OH232335   1.560   4.415   5.687 -0.1295  0.0379 -0.0191
 3615TIP3    H132336   1.619   4.417   5.762 -0.2292 -0.1187  0.0640
 3615TIP3    H232337   1.569   4.501   5.647  1.5804 -0.6000 -1.1016
 3616TIP3   OH232338   3.706   0.851  15.067 -0.2216  0.4851  0.0881
 3616TIP3    H132339   3.638   0.900  15.113 -1.6460 -1.4154  0.0881
 3616TIP3    H232340   3.740   0.912  15.001 -1.9410  1.4696  0.0900
 3617TIP3   OH232341   4.767   5.544  14.943 -0.5298  0.2955 -0.0144
 3617TIP3    H132342   4.789   5.451  14.940 -1.6173  0.0262  0.3004
 3617TIP3    H232343   4.795   5.578  14.858 -1.8701 -0.7163 -0.8826
 3618TIP3   OH232344   1.167   3.864  16.800  0.1676  0.6883 -0.3871
 3618TIP3    H132345   1.228   3.831  16.734 -0.0535  0.5642 -0.5327
 3618TIP3    H232346   1.149   3.788  16.855  0.8493  0.9518  0.2020
 3619TIP3   OH232347   6.009   3.322  16.952  0.2526 -0.4404  0.0667
 3619TIP3    H132348   6.060   3.398  16.926  1.3688 -1.0527  0.4299
 3619TIP3    H232349   5.980   3.283  16.870 -0.7163  0.6306 -0.1051
 3620TIP3   OH232350   1.405   3.945  16.253  0.0340 -1.0716 -0.0475
 3620TIP3    H132351   1.311   3.925  16.250 -0.3182  0.3622  0.8809
 3620TIP3    H232352   1.421   3.970  16.344  1.7401 -3.2456  0.2773
 3621TIP3   OH232353   5.751   5.785   3.373  0.2754  0.5888  0.3878
 3621TIP3    H132354   5.833   5.827   3.348 -0.1891  1.2570 -0.0496
 3621TIP3    H232355   5.685   5.855   3.365 -0.3486  0.0341  0.6208
 3622TIP3   OH232356   6.277   6.011   1.569 -0.7212  0.4411 -0.3786
 3622TIP3    H132357   6.244   6.101   1.564  0.6661  1.2081  2.8138
 3622TIP3    H232358   6.369   6.019   1.542  0.2371  0.5767  2.7206
 3623TIP3   OH232359   5.002   3.736  15.885  0.4927  0.2375 -0.8831
 3623TIP3    H132360   5.020   3.674  15.956  2.0360  0.0002 -1.4640
 3623TIP3    H232361   4.908   3.728  15.870  0.6677 -2.0323 -0.9892
 3624TIP3   OH232362   3.994   3.607   3.880 -0.1990 -0.0822  0.7704
 3624TIP3    H132363   4.066   3.545   3.875  0.0467  0.3012 -0.6969
 3624TIP3    H232364   3.986   3.642   3.791  1.1534  3.6916  2.0331
 3625TIP3   OH232365   2.077   3.231  15.431 -0.0478 -0.0808  0.2012
 3625TIP3    H132366   1.993   3.186  15.447  1.3329 -3.0780 -0.5613
 3625TIP3    H232367   2.143   3.172  15.468  1.8132  1.7592 -0.0987
 3626TIP3   OH232368   3.726   3.566   5.915 -0.0489  0.3085  0.5371
 3626TIP3    H132369   3.645   3.542   5.870  0.1596 -0.1083  0.3885
 3626TIP3    H232370   3.696   3.599   6.001 -0.4133  0.7290  0.2538
 3627TIP3   OH232371   6.590   0.305   1.190  0.2947 -0.2555 -0.1558
 3627TIP3    H132372   6.592   0.268   1.278  0.1185 -0.4880 -0.2500
 3627TIP3    H232373   6.642   0.385   1.197 -0.4335  0.1809  0.3732
 3628TIP3   OH232374   6.745   2.696  12.540  0.4017 -0.1683  0.5815
 3628TIP3    H132375   6.687   2.652  12.478  0.0522 -1.2545  1.6599
 3628TIP3    H232376   6.707   2.784  12.549 -0.1255 -0.3349  0.0283
 3629TIP3   OH232377   2.136   6.621  14.318  0.2310 -0.4997  0.0688
 3629TIP3    H132378   2.118   6.555  14.251  1.7430 -1.1365  0.2769
 3629TIP3    H232379   2.058   6.677  14.318 -1.5192 -2.9070  0.6618
 3630TIP3   OH232380   6.033   5.982  14.893 -0.1762  0.0982 -0.0632
 3630TIP3    H132381   6.055   5.996  14.985 -0.8641  2.9192 -0.2925
 3630TIP3    H232382   6.075   6.054  14.846 -1.3067 -0.2970 -1.7366
 3631TIP3   OH232383   3.436   2.813   1.451  0.1074 -0.1581  0.4488
 3631TIP3    H132384   3.341   2.798   1.449 -0.1966  1.4610  1.4149
 3631TIP3    H232385   3.463   2.808   1.360 -1.7056  4.0050 -0.4441
 3632TIP3   OH232386   0.351   6.150  12.371  0.1836 -0.2021  0.3271
 3632TIP3    H132387   0.264   6.113  12.358 -0.1655  0.9756 -0.7974
 3632TIP3    H232388   0.338   6.223  12.432  0.4476 -0.2670  0.4650
 3633TIP3   OH232389   3.797   3.692   0.049 -0.4847  0.1455 -0.4359
 3633TIP3    H132390   3.796   3.690  -0.046  3.4788  0.3644 -0.5860
 3633TIP3    H232391   3.793   3.786   0.071 -0.4494  0.1422 -0.4168
 3634TIP3   OH232392   4.203   3.773   2.575 -0.6146  0.0709  0.2849
 3634TIP3    H132393   4.294   3.765   2.603 -0.2834  1.0239 -0.4712
 3634TIP3    H232394   4.153   3.718   2.636  0.5805 -1.2112  0.1098
 3635TIP3   OH232395   6.602   6.189   0.644 -0.2597  0.3954  0.7509
 3635TIP3    H132396   6.618   6.100   0.613  0.8471  0.4308  1.1931
 3635TIP3    H232397   6.594   6.180   0.739  2.7304  1.1243  1.1325
 3636TIP3   OH232398   2.472   4.252   2.764  0.3360  0.0506  0.3849
 3636TIP3    H132399   2.451   4.179   2.706 -0.6787  1.6578 -1.3208
 3636TIP3    H232400   2.389   4.298   2.777  1.2980  1.9494 -0.0443
 3637TIP3   OH232401   6.620   1.820   4.305 -0.2611 -0.6279 -0.5079
 3637TIP3    H132402   6.707   1.860   4.311  0.1482 -1.7034  0.7882
 3637TIP3    H232403   6.634   1.728   4.327 -2.0148 -0.4521  1.4426
 3638TIP3   OH232404   6.801   6.343   5.845 -0.2903 -0.3264  0.2808
 3638TIP3    H132405   6.830   6.294   5.768  1.7906 -0.2391  0.9937
 3638TIP3    H232406   6.876   6.343   5.904 -2.1357 -1.1055  2.6897
 3639TIP3   OH232407   0.311   0.730  16.427 -0.0684 -0.3996  0.6514
 3639TIP3    H132408   0.298   0.805  16.370  0.6451 -1.3369 -0.7778
 3639TIP3    H232409   0.226   0.715  16.467 -0.4938  0.4618  0.0761
 3640TIP3   OH232410   1.033   6.176   5.584  0.5011 -0.1533  0.0946
 3640TIP3    H132411   1.113   6.228   5.578  2.5012 -3.1827 -0.6830
 3640TIP3    H232412   0.996   6.177   5.496 -0.4936  1.4866  0.5226
 3641TIP3   OH232413   4.379   2.074  15.680 -0.7671 -0.1924  0.1607
 3641TIP3    H132414   4.391   2.059  15.586  3.0090 -0.4458  0.6086
 3641TIP3    H232415   4.328   1.999  15.709  1.9489 -2.5683 -0.9448
 3642TIP3   OH232416   1.490   0.698  12.954  0.3663  0.7053 -0.3470
 3642TIP3    H132417   1.554   0.764  12.925 -0.4537  1.8187  0.3188
 3642TIP3    H232418   1.440   0.677  12.876  1.6267 -0.2790 -0.9076
 3643TIP3   OH232419   6.302   4.089  16.662  0.2725 -0.2817 -0.2049
 3643TIP3    H132420   6.219   4.072  16.619 -0.1051  1.8044 -0.3680
 3643TIP3    H232421   6.280   4.101  16.755  0.3854  0.2294 -0.2407
 3644TIP3   OH232422   1.833   5.710  15.046  0.2870  0.1452  0.4322
 3644TIP3    H132423   1.921   5.748  15.048  0.0081  0.8257  0.0760
 3644TIP3    H232424   1.814   5.699  14.952 -0.1753  0.3998  0.4927
 3645TIP3   OH232425   6.418   0.565  12.784  0.2258 -0.0844 -0.5133
 3645TIP3    H132426   6.353   0.583  12.852 -1.9749 -1.5640 -2.1585
 3645TIP3    H232427   6.419   0.645  12.732  2.0806  1.1376  1.3475
 3646TIP3   OH232428   0.932   3.820   4.093 -0.1382 -0.2035 -0.3526
 3646TIP3    H132429   0.853   3.842   4.044 -0.0611  0.1544 -0.3122
 3646TIP3    H232430   0.942   3.725   4.080 -1.0872 -0.4186  0.3989
 3647TIP3   OH232431   1.173   2.697  16.538  0.0989 -0.0881  0.3313
 3647TIP3    H132432   1.077   2.688  16.534 -0.1574  1.1197  2.7100
 3647TIP3    H232433   1.203   2.669  16.452 -2.4515  0.1078 -0.6837
 3648TIP3   OH232434   4.021   6.194  10.710  0.1340 -0.1113 -0.0976
 3648TIP3    H132435   4.075   6.139  10.766  1.4626  1.8764  0.6236
 3648TIP3    H232436   3.957   6.233  10.769 -1.2956 -1.4270 -0.7352
 3649TIP3   OH232437   1.733   2.233   2.359  0.7320 -0.3547  0.3562
 3649TIP3    H132438   1.745   2.280   2.276  1.5470  0.9320  1.1736
 3649TIP3    H232439   1.646   2.260   2.389  0.8598 -0.0001  0.4167
 3650TIP3   OH232440   5.118   5.262  15.230  0.0942  0.7739 -0.4940
 3650TIP3    H132441   5.054   5.204  15.271  0.8939  1.4226  1.7454
 3650TIP3    H232442   5.078   5.349  15.233  0.2287  0.8500 -0.9166
 3651TIP3   OH232443   2.551   1.320   4.463  0.3062  0.1116 -0.0919
 3651TIP3    H132444   2.511   1.310   4.377 -0.6929  0.1415  0.3637
 3651TIP3    H232445   2.482   1.294   4.524 -0.1743  3.4344  0.8654
 3652TIP3   OH232446   4.302   5.109  17.066  0.9524  0.2588 -0.2608
 3652TIP3    H132447   4.224   5.073  17.107  1.2196  0.1311  0.1325
 3652TIP3    H232448   4.280   5.201  17.049  0.1106 -0.1854 -1.6722
 3653TIP3   OH232449   5.173   1.671  13.806  0.2418  0.1365 -0.8423
 3653TIP3    H132450   5.121   1.645  13.730 -1.2664 -0.8648  0.5071
 3653TIP3    H232451   5.163   1.766  13.811 -0.5569  0.0781 -1.2583
 3654TIP3   OH232452   1.679   4.599   1.944  0.0431  0.4275  0.0921
 3654TIP3    H132453   1.592   4.630   1.917  0.2514 -0.4503 -1.7115
 3654TIP3    H232454   1.738   4.671   1.920 -0.1225  0.7988  0.8026
 3655TIP3   OH232455   1.626   3.799  14.212 -0.1895 -0.2404  0.1781
 3655TIP3    H132456   1.708   3.829  14.250 -0.1857 -0.9070  0.6985
 3655TIP3    H232457   1.569   3.876  14.212  0.2098  0.0531  0.4236
 3656TIP3   OH232458   1.092   4.444   1.206  0.4178  0.1542  0.8098
 3656TIP3    H132459   1.016   4.392   1.231  0.6787 -1.0506 -0.7801
 3656TIP3    H232460   1.055   4.522   1.164  0.0426 -0.2403  0.3993
 3657TIP3   OH232461   5.110   3.736   3.685  0.2952 -0.4423  0.4463
 3657TIP3    H132462   5.122   3.651   3.728 -1.4714 -0.9970 -0.0895
 3657TIP3    H232463   5.077   3.794   3.754  0.0923 -0.5919  0.4760
 3658TIP3   OH232464   5.503   4.247  16.137 -0.6520  0.1728 -0.0018
 3658TIP3    H132465   5.414   4.231  16.168 -0.1708 -2.0342  0.3520
 3658TIP3    H232466   5.558   4.227  16.212  0.2128  0.4591 -0.5551
 3659TIP3   OH232467   4.744   0.680   1.215 -0.7645 -0.1387 -0.4892
 3659TIP3    H132468   4.826   0.659   1.260 -0.0755 -0.2393 -1.7649
 3659TIP3    H232469   4.677   0.630   1.261  0.1004 -1.0898 -0.2639
 3660TIP3   OH232470   0.516   3.557  14.515  0.0276  1.1901 -0.0978
 3660TIP3    H132471   0.471   3.475  14.495  2.6652 -0.6968  1.3999
 3660TIP3    H232472   0.466   3.595  14.588  0.0607 -0.1855  0.6485
 3661TIP3   OH232473   5.539   1.142   4.050  0.1884  0.1023  0.6900
 3661TIP3    H132474   5.562   1.231   4.077 -1.7071  1.0531 -0.7992
 3661TIP3    H232475   5.474   1.153   3.981  0.1234 -2.4427  0.3002
 3662TIP3   OH232476   2.402   6.211  15.091  0.0122  0.0376 -0.6760
 3662TIP3    H132477   2.465   6.178  15.155  0.5821  0.3614 -1.0601
 3662TIP3    H232478   2.441   6.293  15.060 -0.7680  0.4185 -0.6632
 3663TIP3   OH232479   5.547   5.383  12.304  0.4395  0.2527 -0.6342
 3663TIP3    H132480   5.568   5.346  12.218 -0.5234 -0.4583 -0.5833
 3663TIP3    H232481   5.628   5.376  12.354  0.5989 -0.7146 -1.0186
 3664TIP3   OH232482   5.196   3.021   5.938  0.2047  0.2175 -0.6320
 3664TIP3    H132483   5.197   3.094   5.999  2.8314  2.0457 -2.7395
 3664TIP3    H232484   5.245   2.952   5.983  0.7494  0.9811 -0.0374
 3665TIP3   OH232485   4.703   4.853   0.472  0.2421  0.5077 -0.1149
 3665TIP3    H132486   4.673   4.762   0.469 -0.6154  0.8038 -0.8029
 3665TIP3    H232487   4.634   4.902   0.427  0.5029  1.5510  0.6100
 3666TIP3   OH232488   2.008   5.784   3.402  0.0927 -0.1226 -0.1496
 3666TIP3    H132489   1.983   5.725   3.331 -0.1025  1.0406 -1.0749
 3666TIP3    H232490   1.938   5.775   3.467 -1.2504  0.9299 -1.4048
 3667TIP3   OH232491   5.571   1.696  14.756 -0.0877 -0.2405  1.3478
 3667TIP3    H132492   5.634   1.634  14.720  0.8315 -0.3644  3.1438
 3667TIP3    H232493   5.559   1.761  14.687  1.5665 -0.5312  0.7680
 3668TIP3   OH232494   0.534   1.366   0.890 -0.4371 -0.2228 -0.4595
 3668TIP3    H132495   0.575   1.431   0.947  0.1640 -0.1031 -1.0088
 3668TIP3    H232496   0.608   1.315   0.856 -0.6381  0.6551 -2.2803
 3669TIP3   OH232497   0.672   1.471  13.876 -0.6431 -0.2459  0.5843
 3669TIP3    H132498   0.634   1.393  13.835 -0.0501 -0.8326  1.1357
 3669TIP3    H232499   0.767   1.458  13.870 -0.5461 -0.1950  1.8464
 3670TIP3   OH232500   1.987   4.704  13.035  0.6751  0.2944 -0.1843
 3670TIP3    H132501   1.968   4.719  12.942  1.1606 -0.6506 -0.4445
 3670TIP3    H232502   2.033   4.620  13.037 -1.5846 -0.9738  1.1533
 3671TIP3   OH232503   3.935   4.724  11.510 -0.5596  0.1297  0.2419
 3671TIP3    H132504   3.917   4.661  11.441 -1.1487  0.1125  0.4093
 3671TIP3    H232505   3.899   4.807  11.477 -0.4914  0.2052  0.3567
 3672TIP3   OH232506   6.151   3.286  14.401  0.0029  0.5025  0.4544
 3672TIP3    H132507   6.109   3.244  14.325 -3.2355  2.1110  1.2678
 3672TIP3    H232508   6.142   3.222  14.471 -1.7329  1.0817  0.7834
 3673TIP3   OH232509   1.314   6.689   3.220 -0.0735  0.3503 -0.1381
 3673TIP3    H132510   1.395   6.653   3.184  0.8238  1.5850  0.6054
 3673TIP3    H232511   1.248   6.623   3.200  1.2656 -1.0671 -0.0243
 3674TIP3   OH232512   3.415   4.642  11.358  0.2292 -0.9348  0.2011
 3674TIP3    H132513   3.477   4.569  11.356  0.8819 -0.3870  0.3255
 3674TIP3    H232514   3.450   4.702  11.424 -0.1147 -0.3466 -0.1408
 3675TIP3   OH232515   2.223   2.966   3.782  0.6005  0.2704 -0.6633
 3675TIP3    H132516   2.203   3.003   3.868  2.5160  0.1788 -0.1553
 3675TIP3    H232517   2.232   2.872   3.797  0.3810  0.1866 -1.0581
 3676TIP3   OH232518   0.680   2.936   3.532 -0.3137  0.6242  0.2922
 3676TIP3    H132519   0.606   2.886   3.498 -0.3663  1.7016 -1.1941
 3676TIP3    H232520   0.659   2.948   3.625 -1.4786 -0.0053  0.1243
 3677TIP3   OH232521   0.994   5.247  16.937 -0.7099  0.1540  0.5751
 3677TIP3    H132522   0.906   5.211  16.940 -0.0951 -1.3072  2.2552
 3677TIP3    H232523   0.987   5.331  16.983 -1.4313  0.5346 -0.2271
 3678TIP3   OH232524   5.613   0.578   4.922  0.3269  0.5042  0.1009
 3678TIP3    H132525   5.660   0.611   4.845 -0.7407 -1.2425 -1.3310
 3678TIP3    H232526   5.681   0.537   4.975  1.0012  1.3136 -0.1154
 3679TIP3   OH232527   4.908   6.387   4.957 -0.9482 -0.0453 -0.3298
 3679TIP3    H132528   4.982   6.329   4.976 -1.1914 -0.3180 -0.2044
 3679TIP3    H232529   4.937   6.441   4.884  0.6120  2.1321  1.8426
 3680TIP3   OH232530   0.194   4.486   1.974  0.3359 -0.4909  0.1154
 3680TIP3    H132531   0.165   4.423   1.908  1.3613 -1.7783  0.8683
 3680TIP3    H232532   0.289   4.487   1.966  0.3795  0.3567  0.6617
 3681TIP3   OH232533   5.993   0.129  14.752  0.2472 -0.0381  0.0190
 3681TIP3    H132534   6.049   0.063  14.711 -1.5904 -0.6775 -1.5926
 3681TIP3    H232535   5.970   0.188  14.681  1.5751  2.1737  1.3798
 3682TIP3   OH232536   3.624   3.387   4.694  0.0642  0.0511 -0.0952
 3682TIP3    H132537   3.718   3.388   4.677 -0.0893 -1.2461 -1.1029
 3682TIP3    H232538   3.616   3.399   4.788  1.3283 -1.6917  0.2527
 3683TIP3   OH232539   2.930   3.969  13.624  0.8547  0.2407  0.0764
 3683TIP3    H132540   2.915   3.885  13.581 -0.1817  0.4322  0.0566
 3683TIP3    H232541   2.955   3.946  13.714  0.0090 -0.0818  0.2354
 3684TIP3   OH232542   4.623   5.132   4.785 -0.1895 -0.3616 -0.2242
 3684TIP3    H132543   4.639   5.097   4.873 -1.3942 -0.2114  0.0556
 3684TIP3    H232544   4.654   5.223   4.790 -0.2025 -0.3693  0.0233
 3685TIP3   OH232545   3.926   2.465   2.802 -0.3919  0.4280 -0.4346
 3685TIP3    H132546   4.007   2.510   2.829  0.7112 -1.6333 -0.2215
 3685TIP3    H232547   3.904   2.410   2.876 -1.5593  0.3715 -0.8238
 3686TIP3   OH232548   3.111   1.879   3.559  0.2263  0.7038  0.2882
 3686TIP3    H132549   3.070   1.793   3.565 -1.3507  1.3305 -1.2714
 3686TIP3    H232550   3.188   1.865   3.504  0.8289 -0.0002  1.2915
 3687TIP3   OH232551   5.681   6.518  10.723  0.4084 -0.3887  0.3218
 3687TIP3    H132552   5.607   6.576  10.704 -0.9894 -1.6498  1.8179
 3687TIP3    H232553   5.754   6.555  10.672 -0.7510  1.9598  0.3080
 3688TIP3   OH232554   2.863   4.166  15.652 -0.2670  0.1002 -0.0632
 3688TIP3    H132555   2.789   4.108  15.634  0.3210 -1.1927  1.5407
 3688TIP3    H232556   2.860   4.231  15.582 -1.5324 -1.2888 -1.3495
 3689TIP3   OH232557   1.455   2.373  16.896 -0.5152 -0.8949 -0.4568
 3689TIP3    H132558   1.538   2.391  16.852 -0.5878  1.3452  0.2805
 3689TIP3    H232559   1.391   2.425  16.849 -1.1498 -0.9670  0.3080
 3690TIP3   OH232560   5.844   1.948   2.896 -0.4354  1.1237  0.4813
 3690TIP3    H132561   5.841   1.890   2.820 -0.1022  2.2999 -0.4435
 3690TIP3    H232562   5.929   1.991   2.890  0.2708  0.0277  2.4299
 3691TIP3   OH232563   4.950   4.718   0.425 -0.5495 -0.0193  0.0999
 3691TIP3    H132564   4.884   4.787   0.427  0.4672  0.9309  2.3216
 3691TIP3    H232565   5.022   4.754   0.373  0.0337  0.6469  1.3665
 3692TIP3   OH232566   1.673   2.805   4.308 -0.1372 -0.4201  0.2434
 3692TIP3    H132567   1.646   2.893   4.281  0.3412 -0.0490  0.9590
 3692TIP3    H232568   1.671   2.807   4.403  1.9437 -0.5231  0.3161
 3693TIP3   OH232569   5.952   4.079   1.433 -0.0232  0.1528  0.0813
 3693TIP3    H132570   6.028   4.125   1.470  0.7882  0.7664 -2.3032
 3693TIP3    H232571   5.879   4.140   1.446  0.3907  0.6595  0.0578
 3694TIP3   OH232572   0.985   0.187  15.000 -0.5582 -0.3601  0.4857
 3694TIP3    H132573   1.052   0.138  15.047  0.8812  0.0728 -1.0611
 3694TIP3    H232574   1.015   0.278  15.006 -2.1951  0.1238  1.6847
 3695TIP3   OH232575   5.056   0.079   1.813 -0.1946 -0.6940  0.0752
 3695TIP3    H132576   5.080   0.163   1.775  3.8323 -1.9393 -0.4274
 3695TIP3    H232577   5.037   0.098   1.905  0.8886  0.7620  0.0168
 3696TIP3   OH232578   2.622   6.050  16.266 -0.2949 -0.1584 -0.3655
 3696TIP3    H132579   2.684   6.000  16.319 -0.7509 -2.4762 -1.9596
 3696TIP3    H232580   2.639   6.023  16.176 -1.2943  1.7731 -1.1662
 3697TIP3   OH232581   2.492   1.213   3.207 -0.1456 -0.1755  0.6275
 3697TIP3    H132582   2.572   1.211   3.259 -0.0169  0.5786  0.4735
 3697TIP3    H232583   2.494   1.132   3.156  0.4962 -0.1797  0.6580
 3698TIP3   OH232584   4.940   6.498  11.475 -0.3920 -0.2348 -0.5756
 3698TIP3    H132585   4.990   6.477  11.397  2.5755 -0.3716  1.3127
 3698TIP3    H232586   4.906   6.413  11.505 -0.4643 -0.3546 -0.9904
 3699TIP3   OH232587   3.724   2.820  13.322  0.4443 -0.1834 -0.0276
 3699TIP3    H132588   3.801   2.831  13.266  0.5038 -0.5298 -0.0190
 3699TIP3    H232589   3.749   2.752  13.384  0.1205 -0.3249 -0.0491
 3700TIP3   OH232590   3.964   0.310   0.293 -0.0366  0.3222 -0.3711
 3700TIP3    H132591   4.044   0.312   0.240  0.2222 -1.7392 -0.1091
 3700TIP3    H232592   3.926   0.397   0.283 -1.4192 -0.7348 -6.1391
 3701TIP3   OH232593   3.531   6.327   4.390  0.6557 -0.1252 -0.1265
 3701TIP3    H132594   3.553   6.399   4.332 -1.4696  0.0545 -0.7475
 3701TIP3    H232595   3.495   6.260   4.332 -0.5635 -0.3342  0.8622
 3702TIP3   OH232596   4.159   5.256   0.011 -0.1260 -0.0456  0.0010
 3702TIP3    H132597   4.217   5.194   0.055  0.6675  0.0208 -0.9241
 3702TIP3    H232598   4.104   5.202  -0.046  0.6098  0.0920 -0.8546
 3703TIP3   OH232599   3.173   5.358  12.238  0.5603  0.5624 -0.3419
 3703TIP3    H132600   3.209   5.429  12.291 -0.7885 -0.3541  1.8405
 3703TIP3    H232601   3.079   5.376  12.233  0.0519 -1.5595  1.0300
 3704TIP3   OH232602   2.450   5.667  11.085 -0.2605  0.1257 -0.0568
 3704TIP3    H132603   2.442   5.762  11.075  0.5275  0.1043 -0.9757
 3704TIP3    H232604   2.380   5.631  11.031 -0.3291  0.1785 -0.0030
 3705TIP3   OH232605   3.885   1.522   1.617  0.1018  0.0327 -0.0678
 3705TIP3    H132606   3.883   1.455   1.549  1.9878  0.0238 -0.1471
 3705TIP3    H232607   3.893   1.605   1.569 -1.6785  0.2937  0.0501
 3706TIP3   OH232608   1.339   6.059   4.461 -0.1976  0.2375  0.2641
 3706TIP3    H132609   1.338   5.999   4.536 -1.3947  0.4482  0.4204
 3706TIP3    H232610   1.314   6.144   4.498 -1.2414  0.2446 -0.4406
 3707TIP3   OH232611   1.568   4.958   4.972  0.3139  0.0413  0.5771
 3707TIP3    H132612   1.648   4.942   5.022  0.8456 -0.4435 -0.4074
 3707TIP3    H232613   1.577   4.903   4.894 -0.9466  0.0422  0.4203
 3708TIP3   OH232614   2.162   2.915  17.233  0.2242  0.2377 -0.0612
 3708TIP3    H132615   2.222   2.849  17.198 -1.6897 -1.7481  0.2716
 3708TIP3    H232616   2.155   2.980  17.163  2.1873  0.1499 -0.3729
 3709TIP3   OH232617   3.818   4.164   3.797  0.0897  0.0545 -0.0769
 3709TIP3    H132618   3.828   4.116   3.879 -2.5462 -2.0262 -0.8871
 3709TIP3    H232619   3.907   4.167   3.760  1.0892 -0.0576  2.2169
 3710TIP3   OH232620   1.016   1.387   2.860 -0.4440 -0.0471  0.1400
 3710TIP3    H132621   1.090   1.448   2.855 -1.6246  1.2646 -1.6204
 3710TIP3    H232622   0.947   1.435   2.906 -0.4434 -1.0534  1.2250
 3711TIP3   OH232623   5.471   0.697   5.986  0.0882  0.1631 -0.4183
 3711TIP3    H132624   5.485   0.686   5.892 -0.9408 -0.9120 -0.4576
 3711TIP3    H232625   5.378   0.717   5.994 -0.0707 -0.9076  0.4572
 3712TIP3   OH232626   5.425   3.802  14.467  0.3496 -0.3906 -0.1971
 3712TIP3    H132627   5.475   3.849  14.400 -1.5366  0.1455 -1.2784
 3712TIP3    H232628   5.399   3.870  14.530 -0.7210 -0.2936 -0.7251
 3713TIP3   OH232629   0.788   1.744  15.474 -0.3600 -0.1612 -0.0582
 3713TIP3    H132630   0.710   1.786  15.439 -0.9564 -1.0177  0.2186
 3713TIP3    H232631   0.836   1.815  15.517 -1.8937  0.0670  1.3574
 3714TIP3   OH232632   4.532   1.088   0.417 -0.2499 -0.1666  0.4331
 3714TIP3    H132633   4.501   1.155   0.356 -1.7931 -0.7975  0.4840
 3714TIP3    H232634   4.558   1.137   0.495 -0.3796  0.4652  0.0810
 3715TIP3   OH232635   4.819   4.706  13.957 -0.7128  0.0128  0.3309
 3715TIP3    H132636   4.909   4.706  13.987 -1.0782 -0.0362  1.4443
 3715TIP3    H232637   4.775   4.770  14.013 -1.7108 -1.0916  0.8337
 3716TIP3   OH232638   1.691   3.666   0.479 -0.6215 -0.5555 -0.3852
 3716TIP3    H132639   1.616   3.626   0.525 -1.3075 -0.2872 -1.2555
 3716TIP3    H232640   1.760   3.671   0.545 -1.0389 -1.7541  0.1555
 3717TIP3   OH232641   2.609   3.208  13.917 -0.2376 -0.4352 -0.2928
 3717TIP3    H132642   2.690   3.164  13.890 -0.9898 -3.3635  1.9866
 3717TIP3    H232643   2.636   3.263  13.991 -0.3014 -1.4597  0.5084
 3718TIP3   OH232644   4.145   6.301  14.581  0.2223 -0.4978  1.1888
 3718TIP3    H132645   4.190   6.224  14.617 -0.1127 -1.0335  0.4809
 3718TIP3    H232646   4.052   6.284  14.596  0.0220 -1.1139 -0.6260
 3719TIP3   OH232647   3.916   3.827  15.252  0.2051 -0.2656 -0.2048
 3719TIP3    H132648   3.941   3.739  15.225 -0.7228 -0.5000 -0.3129
 3719TIP3    H232649   3.995   3.879  15.240 -0.0096 -0.4895 -2.8091
 3720TIP3   OH232650   3.238   6.026  12.913  0.6905  0.1321 -0.2658
 3720TIP3    H132651   3.296   6.102  12.919 -0.5928  1.0749  0.5703
 3720TIP3    H232652   3.150   6.064  12.907  0.0788 -1.2832 -0.3097
 3721TIP3   OH232653   5.513   5.224   1.100  0.5096 -0.1893 -0.3889
 3721TIP3    H132654   5.477   5.226   1.189 -0.7918  0.1950 -0.9102
 3721TIP3    H232655   5.466   5.154   1.056 -0.3068  0.9429 -1.3637
 3722TIP3   OH232656   4.393   1.956  13.457  0.0316  0.0121 -0.4039
 3722TIP3    H132657   4.371   2.040  13.495 -0.5423 -0.0085 -0.6817
 3722TIP3    H232658   4.485   1.942  13.480 -0.6713 -0.6047  2.0922
 3723TIP3   OH232659   2.982   3.087   3.093 -0.3192 -0.4315 -0.2520
 3723TIP3    H132660   3.077   3.077   3.095 -0.0185  1.6539 -2.7734
 3723TIP3    H232661   2.958   3.103   3.185  1.6211 -1.8275  0.5352
 3724TIP3   OH232662   3.449   0.530   4.446 -0.0094 -0.0383  0.0950
 3724TIP3    H132663   3.450   0.542   4.541  1.1782  1.5777 -0.0889
 3724TIP3    H232664   3.516   0.591   4.414  0.2107 -1.1852 -1.7102
 3725TIP3   OH232665   5.096   5.987  15.813  0.0576  0.1402 -0.3972
 3725TIP3    H132666   5.177   6.038  15.821 -0.2868  0.6670 -0.2497
 3725TIP3    H232667   5.037   6.044  15.762  0.3471 -0.9091 -1.9346
 3726TIP3   OH232668   2.451   1.618  12.839 -0.1169 -0.1448 -0.0054
 3726TIP3    H132669   2.476   1.709  12.823 -1.3019  0.6916  2.6720
 3726TIP3    H232670   2.362   1.623  12.875 -0.1762 -2.3702  0.2357
 3727TIP3   OH232671   4.713   0.717  15.503 -0.4026  0.1709  0.5100
 3727TIP3    H132672   4.645   0.775  15.469 -0.6548  0.8002  2.0568
 3727TIP3    H232673   4.737   0.663  15.428 -2.5572 -0.0259 -0.0928
 3728TIP3   OH232674   4.409   5.733   2.127 -0.1117 -0.0462  0.2914
 3728TIP3    H132675   4.389   5.671   2.196  0.1504 -1.9602 -1.3070
 3728TIP3    H232676   4.325   5.772   2.104 -0.1243  1.0297  2.0325
 3729TIP3   OH232677   5.692   5.192   2.711 -0.2578 -0.4955 -0.1529
 3729TIP3    H132678   5.781   5.221   2.691 -1.0976  1.8468 -0.5645
 3729TIP3    H232679   5.652   5.175   2.626 -0.6995 -0.0340 -0.0418
 3730TIP3   OH232680   1.608   6.436   2.924 -0.0310  0.0337 -0.4275
 3730TIP3    H132681   1.696   6.450   2.890 -0.4713  2.7935 -0.5093
 3730TIP3    H232682   1.551   6.445   2.848 -0.6095  1.1806  0.1309
 3731TIP3   OH232683   1.322   4.144   4.669  0.0973 -0.2932  0.4994
 3731TIP3    H132684   1.371   4.067   4.698 -0.3982 -1.0923 -0.7213
 3731TIP3    H232685   1.238   4.109   4.640  0.0541  0.6311 -0.5422
 3732TIP3   OH232686   4.505   6.724   5.092 -0.7725 -0.6949  0.0858
 3732TIP3    H132687   4.523   6.788   5.161  2.0399 -0.1116 -1.1477
 3732TIP3    H232688   4.410   6.717   5.091 -0.9594  0.5746  2.8518
 3733TIP3   OH232689   1.914   3.463   2.778 -0.4620  0.3753  0.1014
 3733TIP3    H132690   1.843   3.439   2.838  0.2649 -1.0317  0.4196
 3733TIP3    H232691   1.983   3.495   2.836 -1.2158  2.7667 -0.2822
 3734TIP3   OH232692   0.507   4.976   0.774 -0.4257 -0.1017 -0.6854
 3734TIP3    H132693   0.512   5.042   0.844  0.3541 -1.8318  0.9242
 3734TIP3    H232694   0.591   4.930   0.779 -1.1697 -1.5557 -1.4311
 3735TIP3   OH232695   2.296   6.698   1.520  0.4609 -0.1329 -0.0555
 3735TIP3    H132696   2.337   6.621   1.560 -1.6887 -0.8578  0.8233
 3735TIP3    H232697   2.301   6.765   1.588 -0.9913 -0.6353  0.5750
 3736TIP3   OH232698   2.995   3.687   4.687 -0.1089 -0.7544 -0.3046
 3736TIP3    H132699   2.913   3.716   4.727  0.5009  0.0174  0.3997
 3736TIP3    H232700   3.058   3.756   4.708  0.8966 -1.6845 -0.2320
 3737TIP3   OH232701   3.219   4.041   5.752 -0.2045  0.1233  0.2942
 3737TIP3    H132702   3.276   4.107   5.714 -0.9581  0.4833 -0.2335
 3737TIP3    H232703   3.226   4.054   5.847  0.8038 -0.0313  0.2412
 3738TIP3   OH232704   1.305   3.832  15.912  0.8703 -0.5203  0.0622
 3738TIP3    H132705   1.313   3.927  15.926 -1.0767 -0.0637 -1.5871
 3738TIP3    H232706   1.217   3.811  15.943  1.0084 -1.6534 -0.2834
 3739TIP3   OH232707   1.439   6.692   1.289  0.3025 -0.0291 -0.1765
 3739TIP3    H132708   1.517   6.650   1.255  0.8333  0.9294 -0.1678
 3739TIP3    H232709   1.460   6.786   1.288 -0.2178  0.1099  1.4456
 3740TIP3   OH232710   2.635   2.915   0.933  0.3630 -0.0195 -0.6513
 3740TIP3    H132711   2.558   2.964   0.904 -1.2573 -1.7896  0.5442
 3740TIP3    H232712   2.620   2.900   1.026  1.5456 -1.4961 -0.6839
 3741TIP3   OH232713   4.395   6.817  13.544 -0.4466  0.1678 -0.3114
 3741TIP3    H132714   4.473   6.780  13.584  0.6441 -0.5623 -3.0168
 3741TIP3    H232715   4.385   6.903  13.584  2.3290  0.6818 -0.6400
 3742TIP3   OH232716   4.181   5.287   2.822  0.2987 -0.1093  0.4659
 3742TIP3    H132717   4.205   5.216   2.764  1.2970 -0.0509  0.7993
 3742TIP3    H232718   4.086   5.278   2.833  0.2000 -0.5038 -0.6400
 3743TIP3   OH232719   0.343   5.055   3.510  0.5616 -0.4711 -0.2492
 3743TIP3    H132720   0.300   5.141   3.511  2.0894  0.3164 -0.5131
 3743TIP3    H232721   0.281   4.997   3.555 -1.3707  0.3144 -1.8064
 3744TIP3   OH232722   0.011   3.244  10.678  0.3415 -0.1652  0.0082
 3744TIP3    H132723  -0.078   3.275  10.696  0.3725  0.9622 -1.6527
 3744TIP3    H232724   0.004   3.148  10.679 -0.8951 -0.0850 -0.1623
 3745TIP3   OH232725   0.047   2.282   4.583  0.0484  0.1089  0.3919
 3745TIP3    H132726   0.045   2.223   4.658 -0.1987  1.6977  1.6431
 3745TIP3    H232727  -0.046   2.294   4.561  0.1387 -0.7793 -0.5257
 3746TIP3   OH232728   3.201   2.440   3.444 -0.0201 -0.2426  0.3181
 3746TIP3    H132729   3.265   2.427   3.514  0.2895 -0.4782 -0.0090
 3746TIP3    H232730   3.145   2.362   3.447 -1.4810  0.8390  1.8496
 3747TIP3   OH232731   6.776   2.580   5.420  0.2293  0.2641 -0.3920
 3747TIP3    H132732   6.814   2.647   5.476 -0.9778  1.3335 -0.8285
 3747TIP3    H232733   6.845   2.515   5.410  1.7008  1.8228 -0.5976
 3748TIP3   OH232734   5.817   4.467   2.722 -0.5573 -0.3169 -0.5620
 3748TIP3    H132735   5.835   4.436   2.811 -1.8487 -2.3608 -0.9779
 3748TIP3    H232736   5.749   4.408   2.689 -0.6635  0.9059 -2.6329
 3749TIP3   OH232737   6.745   2.667  11.338 -0.5878 -0.1503  0.4108
 3749TIP3    H132738   6.812   2.673  11.406 -1.1917 -1.8400  1.1870
 3749TIP3    H232739   6.704   2.753  11.336  0.3051  0.2945  1.2927
 3750TIP3   OH232740   2.757   1.982  15.788 -0.3558 -0.2232 -0.7887
 3750TIP3    H132741   2.713   1.915  15.736 -1.0988 -0.5910  0.2955
 3750TIP3    H232742   2.687   2.021  15.841  0.7901 -1.7330  1.9477
 3751TIP3   OH232743   1.297   5.775   1.547 -0.5784  0.1710  0.1480
 3751TIP3    H132744   1.344   5.704   1.590 -1.6954 -0.6719  0.0148
 3751TIP3    H232745   1.354   5.802   1.476  0.2761  0.0480  0.7748
 3752TIP3   OH232746   3.453   1.718   5.406  0.4807 -0.0546 -0.0625
 3752TIP3    H132747   3.493   1.763   5.480 -1.0126 -0.5826  1.0970
 3752TIP3    H232748   3.509   1.642   5.391  1.3779  0.6182 -0.1520
 3753TIP3   OH232749   4.421   2.232  14.185 -0.1951  0.2046  0.3445
 3753TIP3    H132750   4.401   2.273  14.101  0.8566  0.6691  0.3105
 3753TIP3    H232751   4.347   2.253  14.241 -0.3671  0.8718 -0.1325
 3754TIP3   OH232752   5.916   0.059   3.803  0.2980  0.4130  0.1223
 3754TIP3    H132753   5.918  -0.007   3.733  2.9947  0.0179  0.5497
 3754TIP3    H232754   5.884   0.010   3.879  0.2485  0.1281 -0.0772
 3755TIP3   OH232755   6.730   1.646  13.153  0.2568  0.2417  0.8275
 3755TIP3    H132756   6.767   1.558  13.156  1.6487  0.7189 -1.4650
 3755TIP3    H232757   6.680   1.653  13.234  1.4808 -2.0519  1.8371
 3756TIP3   OH232758   5.343   1.464   2.084  0.0503  0.0056 -0.4630
 3756TIP3    H132759   5.420   1.430   2.129 -0.7244  0.5091  1.3327
 3756TIP3    H232760   5.356   1.443   1.992  1.3511 -1.7295  0.1064
 3757TIP3   OH232761   2.716   6.522   4.054 -0.0665  0.1609 -0.6261
 3757TIP3    H132762   2.800   6.477   4.060  0.7042  1.7333  0.8984
 3757TIP3    H232763   2.722   6.574   3.974  1.3147  1.9915  0.6344
 3758TIP3   OH232764   4.258   4.950  14.402 -0.1083  0.2629 -0.2769
 3758TIP3    H132765   4.190   4.958  14.336  0.2435 -0.0329 -0.6795
 3758TIP3    H232766   4.252   4.860  14.433 -0.0959  0.3220 -0.0974
 3759TIP3   OH232767   3.374   5.960  11.733  0.1203  0.0499  0.0538
 3759TIP3    H132768   3.415   5.943  11.818 -1.3667  0.1093  0.7964
 3759TIP3    H232769   3.396   5.883  11.680  0.2016 -0.4614  0.8230
 3760TIP3   OH232770   0.505   0.303  16.201  0.0482 -0.1851 -0.8474
 3760TIP3    H132771   0.481   0.213  16.179  2.3719 -0.6293 -1.6947
 3760TIP3    H232772   0.582   0.321  16.147  1.1177  1.4610  1.1707
 3761TIP3   OH232773   6.527   5.789   3.114  0.3461 -0.4448  0.2534
 3761TIP3    H132774   6.581   5.721   3.154  0.6451 -0.8118 -0.7530
 3761TIP3    H232775   6.517   5.761   3.023 -1.2557 -0.2023  0.3449
 3762TIP3   OH232776   4.809   5.959  16.461  0.5473 -0.0060  0.2613
 3762TIP3    H132777   4.872   6.028  16.439  0.8920 -0.3419  0.1904
 3762TIP3    H232778   4.802   5.964  16.557  1.2082 -0.4195  0.3368
 3763TIP3   OH232779   3.968   3.654   2.683  0.3389  0.1054  0.0306
 3763TIP3    H132780   3.918   3.618   2.756  0.6591 -0.9178 -0.2412
 3763TIP3    H232781   3.998   3.740   2.714  0.7339 -0.4431  1.2228
 3764TIP3   OH232782   5.321   1.209  15.274  0.5382  0.6164  0.1895
 3764TIP3    H132783   5.277   1.271  15.217  1.1357 -0.2145 -1.2009
 3764TIP3    H232784   5.256   1.187  15.340 -0.3258  1.2235 -0.4509
 3765TIP3   OH232785   0.352   6.491   1.915  0.2504  0.0263  0.5252
 3765TIP3    H132786   0.446   6.479   1.906  0.2164 -1.0305  1.3726
 3765TIP3    H232787   0.332   6.571   1.866  1.8781  1.3568  1.9797
 3766TIP3   OH232788   3.691   0.452  13.829  0.2038  0.4426 -0.3652
 3766TIP3    H132789   3.599   0.474  13.846  0.7619  1.3071  1.6834
 3766TIP3    H232790   3.687   0.369  13.782 -1.5763 -0.5759  1.4941
 3767TIP3   OH232791   4.727   3.087  13.738  0.0793  0.2950  0.6185
 3767TIP3    H132792   4.669   3.162  13.749 -1.1958 -0.4762 -0.6392
 3767TIP3    H232793   4.791   3.115  13.673 -0.7706  0.1111 -0.3202
 3768TIP3   OH232794   6.748   1.861   3.197  0.1274 -0.0429  0.3116
 3768TIP3    H132795   6.730   1.787   3.255 -0.5008  1.4252  2.0354
 3768TIP3    H232796   6.661   1.889   3.167  0.3899 -0.2311 -0.6437
 3769TIP3   OH232797   4.896   6.119   3.198  0.1965  0.0109  0.3074
 3769TIP3    H132798   4.803   6.108   3.221  0.2287 -2.1104 -0.4989
 3769TIP3    H232799   4.896   6.133   3.103  0.6191  1.6092  0.5155
 3770TIP3   OH232800   0.429   5.179   6.518  0.0286  0.1208  0.0553
 3770TIP3    H132801   0.385   5.235   6.455 -0.2671  0.7616  0.8236
 3770TIP3    H232802   0.522   5.190   6.500 -0.1022 -1.0912 -1.4456
 3771TIP3   OH232803   0.617   3.960  12.508  0.1046  0.1561 -0.2872
 3771TIP3    H132804   0.633   3.968  12.414  0.2259 -1.3404 -0.4069
 3771TIP3    H232805   0.664   3.880  12.533  0.1828  0.6189  1.0717
 3772TIP3   OH232806   5.543   1.514   2.903 -0.1400 -0.2259 -0.2278
 3772TIP3    H132807   5.505   1.501   2.990 -1.9382 -1.9783 -1.2331
 3772TIP3    H232808   5.484   1.574   2.859  1.0045  1.0055 -0.1172
 3773TIP3   OH232809   1.725   5.333   0.134  0.3743 -0.4738  0.1046
 3773TIP3    H132810   1.679   5.251   0.111  0.7785 -0.1654 -1.8858
 3773TIP3    H232811   1.816   5.317   0.108  0.3408  0.8099 -0.8031
 3774TIP3   OH232812   6.242   3.770   0.636 -0.1500 -0.5930 -0.2460
 3774TIP3    H132813   6.333   3.753   0.614 -0.4100 -0.2702 -1.6031
 3774TIP3    H232814   6.196   3.688   0.618 -0.1809 -0.6722  0.1779
 3775TIP3   OH232815   3.822   6.303  11.547  0.4726 -0.4257 -0.6015
 3775TIP3    H132816   3.855   6.344  11.467  2.0947  0.5044  0.5075
 3775TIP3    H232817   3.865   6.351  11.617 -0.5924 -1.5293  0.8261
 3776TIP3   OH232818   1.319   5.630   2.974  0.5017 -0.1502 -0.2142
 3776TIP3    H132819   1.341   5.681   2.896  1.8303 -0.6789 -0.1914
 3776TIP3    H232820   1.398   5.631   3.027 -0.0086 -0.8139  0.5782
 3777TIP3   OH232821   6.480   4.940  14.684 -0.1829  0.3666  0.0324
 3777TIP3    H132822   6.408   4.979  14.633 -0.5411 -1.5817 -0.9944
 3777TIP3    H232823   6.436   4.900  14.759  0.1395  1.4611  0.8261
 3778TIP3   OH232824   5.666   0.221   2.661 -0.3460 -0.3274  0.3797
 3778TIP3    H132825   5.673   0.293   2.599  2.9040 -0.5588  0.3732
 3778TIP3    H232826   5.644   0.145   2.607 -0.4417  0.0301 -0.0858
 3779TIP3   OH232827   6.041   2.694   4.731 -0.4293  0.1220  0.1229
 3779TIP3    H132828   6.031   2.613   4.683  0.8756 -0.0263  0.0916
 3779TIP3    H232829   6.128   2.726   4.708 -0.8557  1.4428  0.2676
 3780TIP3   OH232830   4.289   4.628   2.217  0.9861 -0.1320 -0.1829
 3780TIP3    H132831   4.366   4.581   2.186 -1.2585 -2.4516 -2.5217
 3780TIP3    H232832   4.242   4.654   2.137 -0.7995  1.0020  1.1676
 3781TIP3   OH232833   0.995   6.131  15.336 -0.3419 -0.5391 -0.7546
 3781TIP3    H132834   0.971   6.049  15.293  0.9787 -1.6964  0.6868
 3781TIP3    H232835   0.911   6.170  15.361 -0.9576 -1.5577 -1.2079
 3782TIP3   OH232836   6.797   5.946  15.458 -0.2234  0.3462 -0.2236
 3782TIP3    H132837   6.737   6.020  15.470 -0.7588 -0.2757  1.1379
 3782TIP3    H232838   6.882   5.980  15.484 -0.5289  0.4131  0.7328
 3783TIP3   OH232839   1.914   1.454   3.024  0.0978 -0.2042 -0.1193
 3783TIP3    H132840   1.822   1.472   3.006 -0.9236 -4.3909  0.2797
 3783TIP3    H232841   1.946   1.532   3.068 -3.3077  1.2753 -0.1109
 3784TIP3   OH232842   6.374   3.546   1.858  0.2735 -0.1962  0.2829
 3784TIP3    H132843   6.412   3.623   1.816 -1.5009  0.5726  0.0365
 3784TIP3    H232844   6.434   3.526   1.930  3.0911 -1.2086 -2.2385
 3785TIP3   OH232845   6.201   4.309  14.294  0.0953 -0.6432 -0.1611
 3785TIP3    H132846   6.124   4.293  14.239 -1.6479 -0.8817  2.3001
 3785TIP3    H232847   6.179   4.387  14.344  1.0889 -1.2252  1.2079
 3786TIP3   OH232848   1.602   2.649   2.490  0.0106 -0.2795 -0.0171
 3786TIP3    H132849   1.569   2.640   2.579  0.3014 -0.0949  0.1072
 3786TIP3    H232850   1.523   2.646   2.435 -0.2660  0.6329  0.3150
 3787TIP3   OH232851   3.554   4.877   3.773  0.1058  0.6777 -0.6424
 3787TIP3    H132852   3.469   4.918   3.785  0.0416  0.5670 -0.7193
 3787TIP3    H232853   3.540   4.810   3.706  0.3226  0.8691 -0.8783
 3788TIP3   OH232854   1.888   6.269  13.741 -0.0226  0.3750  0.2119
 3788TIP3    H132855   1.938   6.350  13.730  0.1726  0.1755 -0.4484
 3788TIP3    H232856   1.953   6.200  13.737 -0.2664  0.1506  0.0587
 3789TIP3   OH232857   5.695   4.097   4.470 -0.1853 -0.4899  0.0260
 3789TIP3    H132858   5.623   4.138   4.421 -0.2671  1.0816  1.4314
 3789TIP3    H232859   5.739   4.170   4.513  0.7678 -1.7075  1.1471
 3790TIP3   OH232860   5.661   2.430   4.896 -0.2895 -0.6681  0.1727
 3790TIP3    H132861   5.652   2.461   4.806 -1.2952 -0.5181  0.3209
 3790TIP3    H232862   5.753   2.403   4.903  0.8437  2.8313  0.1937
 3791TIP3   OH232863   1.313   5.814   1.091  0.1587  0.1253  0.0382
 3791TIP3    H132864   1.310   5.888   1.029  1.9425  1.0272  0.9855
 3791TIP3    H232865   1.241   5.831   1.151 -0.2898  0.3711 -0.5628
 3792TIP3   OH232866   5.214   6.239  12.140  0.5242  0.4310  0.2247
 3792TIP3    H132867   5.145   6.247  12.206  0.1837  0.9879 -0.2045
 3792TIP3    H232868   5.293   6.223  12.191  0.3601  1.4291  0.8043
 3793TIP3   OH232869   6.685   2.255  11.136 -0.3248 -0.4920  0.2922
 3793TIP3    H132870   6.742   2.331  11.143  1.5302 -2.0425  3.0881
 3793TIP3    H232871   6.598   2.288  11.159 -0.2705  1.5283 -2.2451
 3794TIP3   OH232872   1.057   5.257   4.162  0.2760  0.0357 -0.3741
 3794TIP3    H132873   1.127   5.193   4.170 -0.9736 -1.5451 -1.7712
 3794TIP3    H232874   1.013   5.256   4.246  0.1897 -1.0271 -0.4318
 3795TIP3   OH232875   2.277   5.691  15.276 -0.5169  0.0778 -0.2209
 3795TIP3    H132876   2.273   5.777  15.317 -0.5516 -0.4866  0.9997
 3795TIP3    H232877   2.187   5.672  15.250 -0.8280 -0.3414  1.1288
 3796TIP3   OH232878   2.080   0.683  14.184  0.3164  0.1576  0.3732
 3796TIP3    H132879   2.046   0.766  14.219  0.4609  0.0890  0.6781
 3796TIP3    H232880   2.175   0.695  14.182  0.4725 -0.6819  2.1631
 3797TIP3   OH232881   5.218   5.294   1.905  0.1730 -0.1502  0.5154
 3797TIP3    H132882   5.278   5.290   1.978 -0.6323 -1.0365  1.1398
 3797TIP3    H232883   5.131   5.297   1.945 -0.2752 -0.6540 -0.3908
 3798TIP3   OH232884   1.587   3.517  11.691 -0.1155 -0.0178  0.3674
 3798TIP3    H132885   1.578   3.424  11.673 -0.9823 -0.0089  0.7395
 3798TIP3    H232886   1.509   3.540  11.742 -1.3079  1.4724 -2.0140
 3799TIP3   OH232887   3.129   5.640   6.363  0.4345 -0.6716  0.9088
 3799TIP3    H132888   3.216   5.600   6.351  0.5876  0.1631 -1.0389
 3799TIP3    H232889   3.148   5.730   6.390  0.2273 -0.2493 -0.2839
 3800TIP3   OH232890   4.437   2.721   0.602  0.1576 -0.2484  0.1017
 3800TIP3    H132891   4.506   2.769   0.648 -0.9477 -0.8207  2.4888
 3800TIP3    H232892   4.389   2.789   0.555  0.8695  0.4930  0.4282
 3801TIP3   OH232893   2.888   5.889   5.010 -0.0641 -0.0206 -0.2394
 3801TIP3    H132894   2.820   5.949   4.978  1.1445  0.6902 -1.4905
 3801TIP3    H232895   2.841   5.832   5.071 -1.5848  1.1088 -0.3012
 3802TIP3   OH232896   2.435   0.340  16.418  0.0269  0.0970 -0.4382
 3802TIP3    H132897   2.402   0.275  16.356  1.4161 -0.2794 -0.8201
 3802TIP3    H232898   2.378   0.415  16.408 -0.8046 -0.5928 -0.9476
 3803TIP3   OH232899   5.007   6.732  14.169  0.6136 -0.2079  0.2438
 3803TIP3    H132900   5.027   6.683  14.249  0.6918 -1.0529 -0.2791
 3803TIP3    H232901   4.996   6.822  14.198  1.7782 -0.3075  1.0448
 3804TIP3   OH232902   1.718   2.582  16.378 -0.0324 -0.6277 -0.1384
 3804TIP3    H132903   1.695   2.660  16.329 -0.2255 -0.1352  0.7249
 3804TIP3    H232904   1.766   2.527  16.316 -1.6841 -0.7356 -1.3627
 3805TIP3   OH232905   5.459   4.702   2.512 -0.1983 -0.1185  0.4672
 3805TIP3    H132906   5.554   4.690   2.520 -0.0740 -0.6946 -1.6923
 3805TIP3    H232907   5.448   4.796   2.501  0.0221  0.0773  1.8041
 3806TIP3   OH232908   1.125   2.456  12.673  0.0556  0.2637 -0.4097
 3806TIP3    H132909   1.075   2.522  12.625 -0.4812  0.1948  0.0490
 3806TIP3    H232910   1.111   2.478  12.766 -1.6956 -1.6330 -0.2036
 3807TIP3   OH232911   0.495   0.101  15.770  0.3207 -0.4857  0.3141
 3807TIP3    H132912   0.405   0.125  15.752 -0.1857 -2.1603  0.5094
 3807TIP3    H232913   0.496   0.005  15.766  2.2235 -0.4726 -0.3555
 3808TIP3   OH232914   6.621   4.909   6.279  0.2575 -0.4033 -0.1126
 3808TIP3    H132915   6.606   4.837   6.217  2.8916 -1.8441  0.8885
 3808TIP3    H232916   6.590   4.876   6.363  2.5903 -0.8688  0.5966
 3809TIP3   OH232917   3.715   4.988  10.812  0.1178  0.5208 -0.4752
 3809TIP3    H132918   3.719   5.077  10.777  0.2942  0.3794 -0.8194
 3809TIP3    H232919   3.682   4.935  10.739 -0.7430  0.4330 -0.0225
 3810TIP3   OH232920   1.988   4.963  14.393  0.3980 -0.6244  0.2916
 3810TIP3    H132921   1.967   5.002  14.308 -0.8756 -0.4918  0.6469
 3810TIP3    H232922   1.975   4.869  14.380 -0.7052 -0.5253  0.5659
 3811TIP3   OH232923   2.810   5.914  13.629 -0.0461 -0.7265  0.8420
 3811TIP3    H132924   2.880   5.855  13.600  0.1780  0.2855 -0.7505
 3811TIP3    H232925   2.853   5.973  13.692  0.2908 -0.7801  0.6648
 3812TIP3   OH232926   6.025   1.899   0.995  0.9158 -0.6287  0.5736
 3812TIP3    H132927   5.971   1.970   0.962  2.1580  0.1783  0.2197
 3812TIP3    H232928   6.001   1.823   0.942  2.7540  0.6006 -2.1510
 3813TIP3   OH232929   3.857   3.844   0.403 -0.5308 -0.5684 -0.5757
 3813TIP3    H132930   3.824   3.924   0.445 -0.8652 -0.6952 -0.5933
 3813TIP3    H232931   3.912   3.876   0.331  1.9395 -0.3301  1.3578
 3814TIP3   OH232932   3.191   2.600  10.908 -0.0942  0.0596  0.1169
 3814TIP3    H132933   3.148   2.530  10.859  0.0574 -0.8505  1.2661
 3814TIP3    H232934   3.244   2.645  10.842 -1.3967  0.0822 -0.9470
 3815TIP3   OH232935   1.532   4.274   4.555 -0.3844 -0.1652  0.1940
 3815TIP3    H132936   1.450   4.239   4.589  0.1403 -1.5527  0.0447
 3815TIP3    H232937   1.543   4.357   4.601 -0.8764 -0.9063  1.6763
 3816TIP3   OH232938   6.250   5.866   6.735  0.1893 -0.4996  0.1174
 3816TIP3    H132939   6.248   5.929   6.807  0.1574 -0.2528 -0.1015
 3816TIP3    H232940   6.160   5.862   6.703  0.5150  0.5753 -0.9406
 3817TIP3   OH232941   6.795   1.038  11.384 -0.2918 -0.1788 -0.2737
 3817TIP3    H132942   6.853   0.976  11.428  0.0062  0.2938  0.0151
 3817TIP3    H232943   6.823   1.036  11.292 -1.0520 -1.3149 -0.4836
 3818TIP3   OH232944   0.565   1.436  16.684 -0.3485  0.3710  0.9996
 3818TIP3    H132945   0.637   1.376  16.703 -0.5069  0.7870  3.0080
 3818TIP3    H232946   0.605   1.523  16.684 -0.1253  0.3098 -1.8811
 3819TIP3   OH232947   6.169   1.920   3.164  0.2466  0.3418 -0.5920
 3819TIP3    H132948   6.148   2.003   3.121 -0.5946 -0.3623 -1.5762
 3819TIP3    H232949   6.095   1.863   3.142  1.0466 -0.8110 -0.3177
 3820TIP3   OH232950   3.472   0.651  11.542  0.3872  0.1881 -0.2728
 3820TIP3    H132951   3.557   0.608  11.532  0.9455  1.3767 -0.7358
 3820TIP3    H232952   3.493   0.741  11.564 -0.6965  1.1544 -2.9177
 3821TIP3   OH232953   5.659   6.770  12.575  0.3888 -0.2885  0.5946
 3821TIP3    H132954   5.650   6.677  12.597  0.6085 -0.4090  0.1695
 3821TIP3    H232955   5.660   6.772  12.480  3.0049 -0.0920  0.6036
 3822TIP3   OH232956   6.582   4.756   2.496  0.2918 -0.6522  0.0028
 3822TIP3    H132957   6.550   4.835   2.540  2.3574  0.4138 -0.3286
 3822TIP3    H232958   6.566   4.686   2.559 -2.7511 -0.2227 -0.2149
 3823TIP3   OH232959   1.067   3.459  14.591  0.2702  0.4498  0.0184
 3823TIP3    H132960   0.994   3.453  14.652 -0.5063  0.6496 -0.8723
 3823TIP3    H232961   1.136   3.505  14.640 -0.5027  1.0276  0.5826
 3824TIP3   OH232962   5.136   2.183   4.418 -0.1955  0.1209 -0.0175
 3824TIP3    H132963   5.179   2.175   4.333  0.9156 -1.0935  0.6383
 3824TIP3    H232964   5.189   2.248   4.465  0.7414 -1.0974  0.6536
 3825TIP3   OH232965   3.473   4.189  12.188 -0.0795 -0.4482  0.6794
 3825TIP3    H132966   3.438   4.276  12.208  0.8868 -0.3259  1.9112
 3825TIP3    H232967   3.504   4.156  12.273 -1.8834 -2.6570  0.5163
 3826TIP3   OH232968   0.227   3.172  16.813 -0.0050 -0.4666 -0.2665
 3826TIP3    H132969   0.299   3.203  16.869 -0.1227  0.6358 -0.7138
 3826TIP3    H232970   0.226   3.233  16.739 -0.7236 -1.1106 -0.7937
 3827TIP3   OH232971   0.264   2.502   0.332 -0.0984 -0.3091 -0.4826
 3827TIP3    H132972   0.351   2.514   0.294 -0.2957  1.4638 -0.4202
 3827TIP3    H232973   0.280   2.450   0.412  0.7284 -1.0612 -1.1226
 3828TIP3   OH232974   4.860   0.156   3.182 -0.0612  0.3063 -0.5969
 3828TIP3    H132975   4.868   0.250   3.164 -2.3310  0.5616 -0.3995
 3828TIP3    H232976   4.944   0.119   3.155  1.0798  2.4728 -0.1476
 3829TIP3   OH232977   4.982   0.173   4.289 -0.0962 -0.4567  0.0115
 3829TIP3    H132978   5.043   0.175   4.214  2.3844  0.9184  1.9792
 3829TIP3    H232979   5.027   0.121   4.355 -1.0333  0.6284  1.5351
 3830TIP3   OH232980   3.177   4.310  12.042  0.0158  0.4420 -0.5450
 3830TIP3    H132981   3.263   4.268  12.031 -0.5026 -0.4272 -1.3780
 3830TIP3    H232982   3.129   4.286  11.963 -0.9233  1.1110 -0.1813
 3831TIP3   OH232983   0.061   1.006  15.548 -0.3248  0.0329  0.6189
 3831TIP3    H132984   0.103   0.926  15.516  0.8262  0.0801  1.9858
 3831TIP3    H232985   0.035   0.986  15.638  0.0100  1.2031  0.9921
 3832TIP3   OH232986   3.911   2.741  13.943  0.0547  0.4759 -0.1145
 3832TIP3    H132987   3.907   2.708  13.853  2.7174 -0.2482 -0.0073
 3832TIP3    H232988   3.857   2.680  13.993 -1.5474  0.9540 -1.2328
 3833TIP3   OH232989   5.408   3.677   1.817 -0.5306  0.5404 -0.2565
 3833TIP3    H132990   5.338   3.737   1.790 -0.7154 -0.0132 -1.0035
 3833TIP3    H232991   5.484   3.703   1.765  0.1675  1.8931  1.3739
 3834TIP3   OH232992   3.920   1.409  17.128  0.2202  0.1265 -0.2884
 3834TIP3    H132993   3.910   1.503  17.110  1.1388 -0.0657 -1.8838
 3834TIP3    H232994   3.905   1.367  17.043 -2.3139 -1.3472  0.8221
 3835TIP3   OH232995   3.999   2.525  12.795  0.0175  0.7539 -0.4389
 3835TIP3    H132996   3.927   2.477  12.754 -0.1636  1.9843 -1.6182
 3835TIP3    H232997   3.962   2.610  12.819  0.9269  1.2077 -0.5869
 3836TIP3   OH232998   1.504   3.055   1.919 -0.1091 -0.3502  0.0038
 3836TIP3    H132999   1.548   3.115   1.979  0.9593 -1.5524  0.4264
 3836TIP3    H233000   1.469   3.112   1.850  2.0786  0.6206 -0.3356
 3837TIP3   OH233001   3.887   6.666   6.088 -0.7756 -0.0049  0.9372
 3837TIP3    H133002   3.950   6.608   6.130 -0.4941 -0.9497 -0.7382
 3837TIP3    H233003   3.807   6.614   6.080 -0.4011 -0.3223 -0.9394
 3838TIP3   OH233004   6.709   5.195   2.000 -0.6857  0.3168 -0.1230
 3838TIP3    H133005   6.752   5.177   1.916 -2.6130 -3.1294 -0.4760
 3838TIP3    H233006   6.616   5.194   1.979 -1.1210  1.8906  1.6476
 3839TIP3   OH233007   3.526   1.936  12.822 -0.2012  0.3565 -0.0387
 3839TIP3    H133008   3.438   1.973  12.827  0.3324  1.7071 -0.4084
 3839TIP3    H233009   3.573   1.978  12.894  0.5344  0.7537 -0.7453
 3840TIP3   OH233010   4.550   3.567  16.286 -0.2183 -0.5300  0.3282
 3840TIP3    H133011   4.478   3.589  16.345  1.3382  0.8928  1.7513
 3840TIP3    H233012   4.578   3.651  16.250  0.1173 -1.1762 -0.9696
 3841TIP3   OH233013   1.083   0.712  15.640  0.5885  0.5701  0.1267
 3841TIP3    H133014   1.054   0.628  15.675  0.8296  0.7854  0.8323
 3841TIP3    H233015   1.054   0.777  15.704 -0.4434  1.1242 -0.8734
 3842TIP3   OH233016   2.030   2.261  12.446  0.9175 -0.1840  0.1321
 3842TIP3    H133017   2.033   2.341  12.394  0.7644  0.8218  1.6249
 3842TIP3    H233018   2.122   2.240  12.463  0.9626 -0.4333 -0.4043
 3843TIP3   OH233019   5.198   3.442  13.681 -0.0360 -0.1989  0.1448
 3843TIP3    H133020   5.202   3.354  13.644 -1.2939 -0.7216  1.2243
 3843TIP3    H233021   5.168   3.497  13.609 -1.2945 -1.0042  0.0452
 3844TIP3   OH233022   2.430   3.817   4.936  0.1294 -0.5612  0.0193
 3844TIP3    H133023   2.362   3.870   4.893  0.1579  1.0747  1.9434
 3844TIP3    H233024   2.439   3.740   4.880 -0.5297  1.0557 -2.3928
 3845TIP3   OH233025   0.423   0.366   3.092 -0.2757 -0.0951 -0.0755
 3845TIP3    H133026   0.424   0.456   3.123 -1.7636 -0.5519  1.3964
 3845TIP3    H233027   0.336   0.334   3.115 -0.0651 -1.6346 -1.3708
 3846TIP3   OH233028   2.860   3.305  16.194 -0.1056 -0.0589  0.6162
 3846TIP3    H133029   2.791   3.362  16.227 -0.7700 -0.3986 -0.1708
 3846TIP3    H233030   2.895   3.262  16.272 -0.5471  0.3738  1.0567
 3847TIP3   OH233031   4.351   0.804   5.214  0.0772  0.2855 -0.1982
 3847TIP3    H133032   4.294   0.792   5.138 -0.0696 -1.8185  0.1957
 3847TIP3    H233033   4.349   0.898   5.231 -2.1390  0.4459 -1.0857
 3848TIP3   OH233034   1.978   5.419  10.522 -0.3427  0.0437  0.8478
 3848TIP3    H133035   2.060   5.463  10.498 -1.4661  1.5482 -0.4236
 3848TIP3    H233036   2.000   5.326  10.523  1.2504  0.3806 -0.0516
 3849TIP3   OH233037   0.338   2.808  13.745 -0.0085  0.4407 -0.0358
 3849TIP3    H133038   0.370   2.755  13.672  2.2578 -1.1326  2.0148
 3849TIP3    H233039   0.269   2.754  13.785  1.6083 -0.6109  1.4391
 3850TIP3   OH233040   2.102   1.684  14.503  0.0747  0.0211 -0.3063
 3850TIP3    H133041   2.099   1.642  14.589  0.6656 -0.0871 -0.3336
 3850TIP3    H233042   2.157   1.761  14.516 -0.0344  0.1359 -0.5273
 3851TIP3   OH233043   5.970   6.278  15.445 -0.1682 -0.4012 -0.3464
 3851TIP3    H133044   5.988   6.368  15.473  2.5332 -0.8320 -0.5998
 3851TIP3    H233045   5.960   6.285  15.350 -0.1513 -0.3379 -0.3434
 3852TIP3   OH233046   3.866   6.466  15.635  0.1887  0.3244 -0.1677
 3852TIP3    H133047   3.855   6.380  15.676  2.0685 -0.4392 -1.2245
 3852TIP3    H233048   3.792   6.474  15.575  0.5690 -1.0246 -0.8372
 3853TIP3   OH233049   0.709   2.296  13.598 -0.4386 -0.6049 -0.4659
 3853TIP3    H133050   0.630   2.343  13.571 -1.4148 -0.5798  2.2695
 3853TIP3    H233051   0.755   2.357  13.655  0.3156 -1.5077 -0.0959
 3854TIP3   OH233052   2.720   2.461  14.771  0.4896 -0.0768  0.3414
 3854TIP3    H133053   2.746   2.470  14.679  0.9750 -0.0271  0.4798
 3854TIP3    H233054   2.645   2.402  14.769 -0.5919  1.2723 -0.2584
 3855TIP3   OH233055   3.045   5.412  10.753 -0.1318  0.2332  0.3570
 3855TIP3    H133056   3.108   5.342  10.770 -0.1864  0.3015  0.8439
 3855TIP3    H233057   2.963   5.368  10.732  0.5048  0.1044 -2.0745
 3856TIP3   OH233058   0.340   4.631  14.406  0.0934  0.1253  0.0865
 3856TIP3    H133059   0.334   4.633  14.501  1.6736 -0.6971  0.2268
 3856TIP3    H233060   0.307   4.545  14.381 -0.9472  0.5893 -0.1770
 3857TIP3   OH233061   3.237   2.411   5.923 -0.8963  0.7668  0.3503
 3857TIP3    H133062   3.302   2.366   5.976 -0.4927  0.8860 -0.0382
 3857TIP3    H233063   3.156   2.407   5.975 -0.6453  0.3908  0.7152
 3858TIP3   OH233064   0.105   5.330  14.187 -0.2369  0.5319  0.1701
 3858TIP3    H133065   0.099   5.263  14.119 -0.0485 -0.1243  0.7976
 3858TIP3    H233066   0.096   5.413  14.140 -0.0807  0.0817 -0.6556
 3859TIP3   OH233067   3.457   3.478   5.847  0.2188  0.5704 -0.5761
 3859TIP3    H133068   3.397   3.514   5.911 -0.2113  0.3413 -0.8484
 3859TIP3    H233069   3.402   3.454   5.772  0.5057 -0.5668 -0.4370
 3860TIP3   OH233070   6.617   5.833   5.219  0.5367 -0.0118 -0.0127
 3860TIP3    H133071   6.664   5.904   5.261  0.8945 -0.6669  0.6980
 3860TIP3    H233072   6.647   5.835   5.128  1.9319 -0.4267  0.4381
 3861TIP3   OH233073   1.047   4.800   4.189  0.1782 -0.2850  0.0002
 3861TIP3    H133074   1.099   4.864   4.141 -0.7085  0.5843  0.1890
 3861TIP3    H233075   0.957   4.825   4.173 -0.1294  0.0793  2.2136
 3862TIP3   OH233076   4.147   0.421  15.951  0.1087 -0.0620  0.1694
 3862TIP3    H133077   4.212   0.368  15.997  0.0386 -0.5792 -0.3345
 3862TIP3    H233078   4.108   0.475  16.020  0.7478 -0.0796  0.5495
 3863TIP3   OH233079   6.629   0.948  12.045 -1.0784  0.7424  0.0724
 3863TIP3    H133080   6.718   0.960  12.080 -0.9343  0.0381 -0.0635
 3863TIP3    H233081   6.635   0.974  11.953 -0.1978 -2.6428 -0.8879
 3864TIP3   OH233082   0.423   0.887  15.342  0.2429  0.3106 -0.3044
 3864TIP3    H133083   0.462   0.881  15.429  1.1007  2.7645 -0.4729
 3864TIP3    H233084   0.451   0.807  15.297  0.8775 -0.3420  1.2413
 3865TIP3   OH233085   1.153   1.392   1.839  0.0008  0.4011 -0.8002
 3865TIP3    H133086   1.154   1.380   1.744 -0.7813  2.5183 -1.0985
 3865TIP3    H233087   1.189   1.479   1.853  0.7085 -0.1416  0.9098
 3866TIP3   OH233088   5.339   3.979  11.932 -0.0482  0.7074  0.0668
 3866TIP3    H133089   5.365   3.941  11.848  1.2758  0.5694  0.5353
 3866TIP3    H233090   5.413   3.963  11.990 -1.9937 -1.4972  2.0052
 3867TIP3   OH233091   3.695   6.368   2.844  0.0442  0.5450  0.0463
 3867TIP3    H133092   3.763   6.310   2.809  0.1820 -0.3798  1.8149
 3867TIP3    H233093   3.644   6.313   2.903 -0.9207  1.7924  0.3966
 3868TIP3   OH233094   3.968   5.552   1.113  0.1262  0.6316  0.3263
 3868TIP3    H133095   4.050   5.569   1.158  0.5205 -0.8788  0.2071
 3868TIP3    H233096   3.904   5.541   1.183  0.0439  1.6784  0.4226
 3869TIP3   OH233097   6.454   2.524  13.185 -0.3802  0.2950  0.1692
 3869TIP3    H133098   6.473   2.580  13.259 -0.6434 -0.8951  1.1479
 3869TIP3    H233099   6.538   2.486  13.161 -0.2206  1.0155 -0.4251
 3870TIP3   OH233100   2.007   0.168   0.635 -0.4147 -0.1675  0.0700
 3870TIP3    H133101   2.011   0.246   0.689 -1.5824  1.4639 -2.1191
 3870TIP3    H233102   1.925   0.126   0.659  0.9119 -1.5529  2.3048
 3871TIP3   OH233103   5.593   2.564  11.151 -0.5868  0.3419 -0.1287
 3871TIP3    H133104   5.679   2.536  11.121 -0.0304  3.2040 -1.3635
 3871TIP3    H233105   5.532   2.525  11.088  0.0538  0.7645 -1.0249
 3872TIP3   OH233106   4.426   1.895   2.893 -0.5124 -0.0144 -0.2567
 3872TIP3    H133107   4.515   1.906   2.924 -0.5994 -0.9911  0.3798
 3872TIP3    H233108   4.423   1.942   2.810  0.4414  0.4603 -0.0286
 3873TIP3   OH233109   1.815   0.026  15.429 -0.6847 -0.2057  0.1753
 3873TIP3    H133110   1.748   0.046  15.494 -0.7846 -0.6017  0.1942
 3873TIP3    H233111   1.878  -0.028  15.475 -0.8617 -0.6608 -0.1098
 3874TIP3   OH233112   1.493   0.667   5.547  0.2183 -0.2962 -0.1269
 3874TIP3    H133113   1.401   0.694   5.546  0.2142 -0.3076 -0.0629
 3874TIP3    H233114   1.533   0.715   5.474  0.1663 -0.2759 -0.1423
 3875TIP3   OH233115   6.628   5.144  12.799 -0.1434 -0.2254  0.0001
 3875TIP3    H133116   6.549   5.192  12.822  0.3790  0.4778  0.3645
 3875TIP3    H233117   6.689   5.212  12.770  0.6906 -0.6313  0.7735
 3876TIP3   OH233118   0.659   2.879   0.308  0.0920 -0.4036  0.0251
 3876TIP3    H133119   0.664   2.787   0.333  0.2924  0.0619  1.7957
 3876TIP3    H233120   0.587   2.914   0.362  0.0100  0.4673 -0.6361
 3877TIP3   OH233121   3.260   1.472   0.306  0.0415 -0.3833 -0.2368
 3877TIP3    H133122   3.238   1.519   0.387  1.3807 -1.3459  0.7101
 3877TIP3    H233123   3.221   1.525   0.236  0.1155  1.2459  0.9344
 3878TIP3   OH233124   1.337   3.488  12.064 -0.3648  0.0827  0.5459
 3878TIP3    H133125   1.258   3.437  12.079  0.9677 -1.8112  1.3729
 3878TIP3    H233126   1.345   3.494  11.969 -0.4288 -1.4454  0.4409
 3879TIP3   OH233127   0.062   6.525   0.835  0.1872  0.7014  0.5424
 3879TIP3    H133128   0.098   6.613   0.834 -0.1437  0.8283 -0.3493
 3879TIP3    H233129  -0.020   6.531   0.785 -0.1088  0.0119  0.9310
 3880TIP3   OH233130   4.728   2.932  12.701  0.0477 -0.1683 -0.5857
 3880TIP3    H133131   4.643   2.908  12.665 -0.1502  1.7426 -1.4627
 3880TIP3    H233132   4.789   2.923  12.628  0.0847  1.2215 -0.7452
 3881TIP3   OH233133   5.338   0.471  12.666  0.1967 -0.0712 -0.2202
 3881TIP3    H133134   5.343   0.397  12.726 -1.0212 -0.1825 -0.2509
 3881TIP3    H233135   5.288   0.439  12.592 -0.3156  0.7804 -0.2494
 3882TIP3   OH233136   1.098   4.989  12.329  0.6764  0.4114 -0.0308
 3882TIP3    H133137   1.032   4.926  12.358 -0.2796  1.2407 -0.3791
 3882TIP3    H233138   1.182   4.946  12.347  0.0485 -0.5615  0.6125
 3883TIP3   OH233139   5.927   1.080  13.770  0.2778 -0.9519 -0.4045
 3883TIP3    H133140   5.945   1.167  13.806  2.1615 -0.8023 -1.6787
 3883TIP3    H233141   5.942   1.088  13.676 -1.3439 -2.1994 -0.8019
 3884TIP3   OH233142   0.987   2.849   2.528 -0.5024 -0.3538  0.1905
 3884TIP3    H133143   0.955   2.830   2.440 -0.0907 -2.7629  0.5021
 3884TIP3    H233144   1.071   2.803   2.533 -0.7875 -0.7224  2.0026
 3885TIP3   OH233145   4.252   1.780   5.054  0.2548 -0.9605 -0.8924
 3885TIP3    H133146   4.165   1.740   5.061 -0.1081  0.2541  2.3477
 3885TIP3    H233147   4.291   1.766   5.140  2.4631  0.3531 -1.6552
 3886TIP3   OH233148   6.726   4.963   0.600  0.0875  0.0494 -0.2030
 3886TIP3    H133149   6.795   5.022   0.570 -1.3949  1.5332 -0.8127
 3886TIP3    H233150   6.673   5.016   0.660 -1.8570 -0.3097 -1.5265
 3887TIP3   OH233151   6.567   5.938   4.507  0.2340  0.0453 -0.0356
 3887TIP3    H133152   6.553   6.031   4.491 -0.3872  0.3146  2.0706
 3887TIP3    H233153   6.496   5.912   4.565  0.9755 -1.5188  0.1865
 3888TIP3   OH233154   1.254   5.645   4.465  0.1113  0.3770  0.0630
 3888TIP3    H133155   1.334   5.656   4.415  0.1896  2.1745  0.5479
 3888TIP3    H233156   1.192   5.607   4.403  0.7810  0.7713 -0.8598
 3889TIP3   OH233157   3.061   5.801  14.865 -0.4394  0.1997 -0.1431
 3889TIP3    H133158   3.021   5.721  14.901  0.1905  0.4318  1.1254
 3889TIP3    H233159   3.103   5.842  14.941  3.5525 -0.8569 -1.6581
 3890TIP3   OH233160   4.061   2.966   0.890 -0.0622  0.1318  0.3749
 3890TIP3    H133161   3.999   2.983   0.962 -0.1643  0.3388  0.2384
 3890TIP3    H233162   4.124   2.904   0.927 -0.2834  0.0109  0.5529
 3891TIP3   OH233163   0.756   2.377  15.705 -1.2522 -0.1657 -0.4827
 3891TIP3    H133164   0.684   2.313  15.700  0.6430 -2.2906 -1.7967
 3891TIP3    H233165   0.780   2.392  15.614 -1.7961  2.6623 -0.1983
 3892TIP3   OH233166   6.489   6.113  16.865  0.3424  0.1923 -0.6578
 3892TIP3    H133167   6.551   6.148  16.929  2.0245 -1.2567 -1.4440
 3892TIP3    H233168   6.405   6.150  16.890  1.9070  4.3960 -1.1720
 3893TIP3   OH233169   0.405   3.762   2.699  0.5344 -0.1594 -0.2042
 3893TIP3    H133170   0.406   3.785   2.792 -2.5171  0.0552 -0.1598
 3893TIP3    H233171   0.496   3.768   2.672  1.4961 -0.3296  2.7944
 3894TIP3   OH233172   5.162   3.842  13.545 -0.0178  0.3226 -0.1642
 3894TIP3    H133173   5.114   3.814  13.622  0.6839  0.0462  0.1757
 3894TIP3    H233174   5.162   3.766  13.487  2.5391 -0.6874  1.0761
 3895TIP3   OH233175   2.191   5.258  14.557 -0.8500 -0.1598 -0.2917
 3895TIP3    H133176   2.246   5.262  14.636  1.7599  1.1015 -2.1223
 3895TIP3    H233177   2.108   5.297  14.584  0.4883  1.5376  1.4678
 3896TIP3   OH233178   1.731   6.388   0.400  1.0108  0.2813  0.0701
 3896TIP3    H133179   1.654   6.444   0.399  0.3871 -0.5663 -0.3698
 3896TIP3    H233180   1.795   6.435   0.453  1.5961  2.8287 -2.8123
 3897TIP3   OH233181   3.559   0.165  13.501  0.3167  0.3679 -0.1407
 3897TIP3    H133182   3.607   0.131  13.576  1.8498 -2.1563 -2.1977
 3897TIP3    H233183   3.623   0.218  13.454 -0.6599  1.9989  0.3065
 3898TIP3   OH233184   5.778   6.479   3.047  0.0155  0.2749 -0.1951
 3898TIP3    H133185   5.756   6.541   2.977  2.0313  1.5845  0.2952
 3898TIP3    H233186   5.773   6.530   3.127 -1.9869 -1.1569  0.6412
 3899TIP3   OH233187   1.726   4.237  14.363 -0.1727 -0.4635  0.0226
 3899TIP3    H133188   1.674   4.311  14.396 -1.4422 -1.3504  0.0122
 3899TIP3    H233189   1.810   4.277  14.338 -0.9626  1.0420 -0.3098
 3900TIP3   OH233190   2.694   1.861   4.887 -0.5122  0.9217 -0.2100
 3900TIP3    H133191   2.642   1.936   4.916  0.4961  1.2970  0.6545
 3900TIP3    H233192   2.688   1.798   4.958 -0.5946  0.5609 -0.5338
 3901TIP3   OH233193   5.101   1.895  14.620 -0.0379 -0.1787  0.9568
 3901TIP3    H133194   5.079   1.847  14.700 -0.5629  2.0233  2.2014
 3901TIP3    H233195   5.021   1.942  14.597  1.2004  2.2240  1.3800
 3902TIP3   OH233196   4.351   0.790   0.879 -0.1889  0.3434  0.2870
 3902TIP3    H133197   4.442   0.803   0.902 -0.0413 -2.4621  1.4916
 3902TIP3    H233198   4.339   0.841   0.799  2.5379  0.3984 -0.1289
 3903TIP3   OH233199   0.672   6.137  12.006  0.0429  0.1931 -0.4490
 3903TIP3    H133200   0.743   6.186  12.046  1.0355 -1.1663 -0.5030
 3903TIP3    H233201   0.612   6.204  11.972  1.7001  1.3648 -1.1312
 3904TIP3   OH233202   0.622   2.906  12.318 -0.0596  0.1321  0.3284
 3904TIP3    H133203   0.602   2.865  12.403 -0.0540 -0.3667  0.0882
 3904TIP3    H233204   0.669   2.839  12.269 -0.5041  0.2430 -0.2582
 3905TIP3   OH233205   4.152   4.752   4.929 -0.2334 -0.3577 -0.1486
 3905TIP3    H133206   4.195   4.680   4.976 -0.4003  0.7454  1.7516
 3905TIP3    H233207   4.115   4.807   4.998  1.3120  2.4623 -1.4707
 3906TIP3   OH233208   5.624   0.290   1.965  0.3732 -0.3674  0.0493
 3906TIP3    H133209   5.708   0.334   1.967  0.9500 -1.3392 -1.3718
 3906TIP3    H233210   5.628   0.225   2.036  0.3692  0.3620  0.7171
 3907TIP3   OH233211   1.495   2.879   5.717  0.0478  0.5769  0.7099
 3907TIP3    H133212   1.526   2.841   5.799 -0.6944 -2.2948 -0.2724
 3907TIP3    H233213   1.427   2.819   5.687 -2.0186  3.3721 -0.3552
 3908TIP3   OH233214   1.457   0.281  13.871  0.0311 -0.1780 -0.5080
 3908TIP3    H133215   1.428   0.285  13.780 -1.2559  2.3276 -0.0312
 3908TIP3    H233216   1.552   0.296  13.867  0.1109 -0.9503 -1.5062
 3909TIP3   OH233217   0.012   5.765   0.806 -0.1907  0.6913 -0.1077
 3909TIP3    H133218   0.033   5.845   0.758 -0.1806  1.3438  0.9683
 3909TIP3    H233219   0.040   5.783   0.896 -2.5234  0.4261  0.7063
 3910TIP3   OH233220   3.400   0.364  11.507 -0.7638 -0.1843 -0.1640
 3910TIP3    H133221   3.452   0.315  11.571 -0.6477  0.0254 -0.0964
 3910TIP3    H233222   3.395   0.452  11.544 -0.6797 -0.0593 -0.4544
 3911TIP3   OH233223   3.292   5.240  16.300  0.3081  0.1622 -0.1789
 3911TIP3    H133224   3.335   5.314  16.343 -0.4310  1.2040 -1.2097
 3911TIP3    H233225   3.365   5.182  16.275  0.7266 -0.6237  2.6966
 3912TIP3   OH233226   3.735   6.264   5.539 -0.1648  0.0378  0.3619
 3912TIP3    H133227   3.662   6.205   5.556 -0.5309  0.4166  0.1220
 3912TIP3    H233228   3.715   6.342   5.590 -2.5094  2.1720 -3.5687
 3913TIP3   OH233229   0.199   2.921   3.584  0.1630  0.1213 -0.1499
 3913TIP3    H133230   0.163   2.925   3.673  0.3912  4.9900 -0.1354
 3913TIP3    H233231   0.125   2.895   3.529 -1.1360  1.3136  0.9906
 3914TIP3   OH233232   0.798   1.145  11.274  0.1458 -0.1191 -0.1196
 3914TIP3    H133233   0.713   1.105  11.289  0.8624 -1.5935  0.1125
 3914TIP3    H233234   0.812   1.203  11.349  1.2568 -3.2062  2.1477
 3915TIP3   OH233235   0.790   1.534  16.190  0.0528 -0.1002 -0.4367
 3915TIP3    H133236   0.875   1.551  16.230 -0.1628  1.8134 -0.7335
 3915TIP3    H233237   0.729   1.530  16.264  0.5090 -2.2994 -0.1613
 3916TIP3   OH233238   1.521   5.605   4.310 -0.3144 -0.2191  0.0067
 3916TIP3    H133239   1.547   5.642   4.226 -0.0677 -1.1828 -0.3531
 3916TIP3    H233240   1.602   5.569   4.346 -0.3010  0.7337  0.9469
 3917TIP3   OH233241   3.680   5.167   0.801  0.0799 -0.7296  0.1544
 3917TIP3    H133242   3.762   5.129   0.832  0.4240  0.2103  0.4191
 3917TIP3    H233243   3.615   5.099   0.814  0.5054 -0.8905  1.5125
 3918TIP3   OH233244   1.987   4.336  15.714 -0.2561 -0.3184 -0.2821
 3918TIP3    H133245   2.055   4.392  15.677  1.0852 -1.4782  0.4185
 3918TIP3    H233246   1.910   4.355  15.659  1.1605 -0.5348 -2.4262
 3919TIP3   OH233247   4.242   6.655  12.638 -0.3760  0.2985 -0.3972
 3919TIP3    H133248   4.159   6.702  12.634 -0.9545 -0.6526  0.3238
 3919TIP3    H233249   4.226   6.581  12.697  1.6659  1.5358  1.8130
 3920TIP3   OH233250   0.203   3.661  13.280  0.3100  0.8811 -0.5832
 3920TIP3    H133251   0.150   3.687  13.355  0.8055  0.2656 -0.0127
 3920TIP3    H233252   0.140   3.626  13.216  0.0528 -0.1841  0.2350
 3921TIP3   OH233253   5.762   1.999  12.866 -0.5151 -0.2634  0.3923
 3921TIP3    H133254   5.829   2.019  12.932 -0.4398 -0.6182  0.4227
 3921TIP3    H233255   5.747   1.905  12.874  0.7275 -0.6324 -1.2488
 3922TIP3   OH233256   0.364   1.794  12.800 -0.0512  0.0184  0.3236
 3922TIP3    H133257   0.300   1.844  12.850  0.8931 -0.2127  1.7959
 3922TIP3    H233258   0.341   1.809  12.709 -1.6689  0.6224  0.8235
 3923TIP3   OH233259   2.255   2.902   0.886 -0.0126  0.2581 -0.0604
 3923TIP3    H133260   2.233   2.815   0.852 -1.3399  0.1699  0.9755
 3923TIP3    H233261   2.342   2.921   0.850  1.1263 -2.3073  1.2519
 3924TIP3   OH233262   4.787   4.406  15.370  0.2215  0.2126  0.3334
 3924TIP3    H133263   4.861   4.369  15.417  0.3796  0.9156  0.6413
 3924TIP3    H233264   4.733   4.331  15.346  0.7607 -0.2486  0.5754
 3925TIP3   OH233265   1.938   4.259   2.226 -0.8379 -0.2132 -0.1835
 3925TIP3    H133266   1.884   4.193   2.182 -1.0157 -1.3322  1.6355
 3925TIP3    H233267   2.028   4.236   2.204 -1.0289  1.3886 -2.8614
 3926TIP3   OH233268   1.047   3.947  15.452  0.0664 -0.6747  0.2599
 3926TIP3    H133269   1.049   3.959  15.547  0.9629 -1.2207  0.3169
 3926TIP3    H233270   1.105   3.872  15.436 -1.5367 -1.7950 -0.5383
 3927TIP3   OH233271   1.445   4.378   5.203 -0.9297 -0.0444 -0.6287
 3927TIP3    H133272   1.510   4.438   5.166 -0.6091 -1.2582 -2.1040
 3927TIP3    H233273   1.427   4.413   5.290  1.3102  0.6341 -0.3848
 3928TIP3   OH233274   1.630   0.081   1.552 -0.9043  0.7528  0.8619
 3928TIP3    H133275   1.710   0.123   1.523 -0.7867 -0.8266 -1.1808
 3928TIP3    H233276   1.563   0.150   1.548 -0.2495  1.3206 -0.2430
 3929TIP3   OH233277   5.253   4.681   1.910 -0.8261 -0.3718  0.0644
 3929TIP3    H133278   5.290   4.602   1.870  0.5072 -0.4462  1.4086
 3929TIP3    H233279   5.272   4.751   1.847 -1.7365 -1.0496 -0.9857
 3930TIP3   OH233280   1.595   2.451   2.930 -0.1844 -0.0130 -0.0391
 3930TIP3    H133281   1.596   2.394   3.007 -0.9701 -0.0932 -0.0830
 3930TIP3    H233282   1.522   2.511   2.945 -0.3838 -0.0688 -0.7537
 3931TIP3   OH233283   2.007   1.325   3.437 -0.3723  0.0552  0.2666
 3931TIP3    H133284   2.076   1.387   3.413 -1.1741  0.7283 -0.3587
 3931TIP3    H233285   1.960   1.310   3.355 -2.0527  0.9806  1.0288
 3932TIP3   OH233286   0.160   3.031  12.230 -0.6942  0.1453  0.1230
 3932TIP3    H133287   0.157   3.089  12.154  1.1201  1.2709  0.8767
 3932TIP3    H233288   0.212   2.956  12.201  1.4349  1.3395  0.7073
 3933TIP3   OH233289   6.812   6.752   4.647 -0.2109 -0.2237 -0.1906
 3933TIP3    H133290   6.872   6.747   4.722 -1.4499 -1.0292  0.7613
 3933TIP3    H233291   6.738   6.804   4.679 -0.5758 -0.2564 -0.9787
 3934TIP3   OH233292   1.070   3.505  15.068 -0.1053  0.3600  0.1455
 3934TIP3    H133293   1.010   3.453  15.122 -1.1981  3.8064  2.3950
 3934TIP3    H233294   1.149   3.513  15.121  0.7254 -0.4819 -0.9502
 3935TIP3   OH233295   6.177   5.426   2.217  0.1113 -0.1916  0.7504
 3935TIP3    H133296   6.195   5.378   2.137 -2.1319 -0.2400  0.2516
 3935TIP3    H233297   6.095   5.473   2.199  0.9641  1.8737  2.0813
 3936TIP3   OH233298   2.174   2.711   1.768 -0.0134  0.2170 -0.3481
 3936TIP3    H133299   2.110   2.678   1.706  0.7422 -1.8566 -0.0651
 3936TIP3    H233300   2.174   2.647   1.840  1.1072  1.0983  0.4734
 3937TIP3   OH233301   6.018   5.404   0.875 -0.2509  0.4320  0.8436
 3937TIP3    H133302   6.020   5.426   0.968  1.5524 -0.4536  1.0249
 3937TIP3    H233303   6.107   5.377   0.854 -0.8047 -0.0699 -0.9836
 3938TIP3   OH233304   0.721   4.683  15.068 -0.0387  0.0010  0.0382
 3938TIP3    H133305   0.718   4.591  15.044 -1.1977 -0.3161  1.3036
 3938TIP3    H233306   0.671   4.727  14.999 -1.5506 -0.6340  0.6954
 3939TIP3   OH233307   5.224   0.441  15.981  0.6086 -0.6335  0.3953
 3939TIP3    H133308   5.204   0.533  15.965 -1.4685 -1.0178  0.6167
 3939TIP3    H233309   5.318   0.439  15.999  0.9841  1.2217 -1.2053
 3940TIP3   OH233310   3.387   0.640   1.266 -0.2207  0.4519  0.3336
 3940TIP3    H133311   3.296   0.639   1.296 -0.4966 -0.3985 -0.5034
 3940TIP3    H233312   3.383   0.678   1.179  0.6666  3.5709  1.5869
 3941TIP3   OH233313   6.323   1.597  12.778 -0.1909  0.6988 -0.3360
 3941TIP3    H133314   6.363   1.637  12.701 -0.1220 -0.3354 -0.8506
 3941TIP3    H233315   6.394   1.547  12.819 -0.5347  0.2259 -0.3098
 3942TIP3   OH233316   0.432   0.038  16.141  0.1763  0.3308  0.3383
 3942TIP3    H133317   0.410  -0.049  16.107  2.1967 -1.1000  2.5253
 3942TIP3    H233318   0.367   0.054  16.210  0.5465 -0.0131  0.7748
 3943TIP3   OH233319   1.646   6.121  16.093  0.5682  0.2455 -0.5381
 3943TIP3    H133320   1.594   6.079  16.162 -0.4229  0.0395 -1.3880
 3943TIP3    H233321   1.644   6.058  16.021  0.4477  1.0526 -1.2388
 3944TIP3   OH233322   0.472   3.467   6.321 -0.1577  0.6058 -0.3294
 3944TIP3    H133323   0.562   3.462   6.290  0.2444 -0.1316  0.8944
 3944TIP3    H233324   0.473   3.418   6.403 -1.6723  0.6057 -0.2998
 3945TIP3   OH233325   2.974   1.687  17.137  0.4514  0.1658 -0.2034
 3945TIP3    H133326   2.920   1.681  17.059  1.8474 -1.6879 -1.0637
 3945TIP3    H233327   2.922   1.737  17.199 -1.8773 -0.8624 -1.2956
 3946TIP3   OH233328   4.743   2.766  13.136 -0.0153 -0.3916 -0.3542
 3946TIP3    H133329   4.794   2.845  13.118 -0.6155  0.5411  1.8963
 3946TIP3    H233330   4.747   2.755  13.231 -2.9388 -1.0062 -0.2449
 3947TIP3   OH233331   1.850   6.179   4.644  0.1333 -0.0648 -0.1065
 3947TIP3    H133332   1.900   6.257   4.669 -0.3214  0.5622 -1.0779
 3947TIP3    H233333   1.837   6.131   4.725 -0.0529  1.1596  0.5928
 3948TIP3   OH233334   0.543   3.444  16.913  0.3440  0.4073 -0.2362
 3948TIP3    H133335   0.448   3.454  16.925  0.4532  0.2746  0.7484
 3948TIP3    H233336   0.563   3.499  16.837 -0.6228 -0.0689 -0.8488
 3949TIP3   OH233337   2.743   6.362  13.707 -0.7611 -0.5670  0.4555
 3949TIP3    H133338   2.833   6.389  13.725 -0.6064  0.6669 -1.9489
 3949TIP3    H233339   2.690   6.439  13.726 -0.9700 -0.3689 -0.8587
 3950TIP3   OH233340   2.302   0.576   3.946 -0.2806  0.2667 -0.4319
 3950TIP3    H133341   2.239   0.505   3.947  0.1216 -0.0993  1.1880
 3950TIP3    H233342   2.308   0.602   3.854 -2.4124 -0.0034 -0.6694
 3951TIP3   OH233343   5.339   2.845  13.585  0.5483  0.4919 -0.5720
 3951TIP3    H133344   5.314   2.936  13.599  0.0005  0.6023 -2.1189
 3951TIP3    H233345   5.399   2.848  13.510 -0.0751 -0.4992 -1.1176
 3952TIP3   OH233346   0.116   6.205  12.007 -0.4776  0.3430  0.6255
 3952TIP3    H133347   0.026   6.176  12.018  0.0608 -1.1944  1.0190
 3952TIP3    H233348   0.126   6.215  11.912  0.2461 -3.8387  0.1769
 3953TIP3   OH233349   5.097   5.704  14.741  0.1128  0.3475 -0.0874
 3953TIP3    H133350   5.147   5.623  14.749  1.9240  1.4114 -0.2604
 3953TIP3    H233351   5.006   5.678  14.755  0.1768 -2.4014 -3.9640
 3954TIP3   OH233352   4.001   5.723  14.868 -0.3427  0.2895  0.2797
 3954TIP3    H133353   4.079   5.769  14.837  0.1133  0.0813  1.0716
 3954TIP3    H233354   3.975   5.668  14.795 -0.7360  1.5981 -0.5838
 3955TIP3   OH233355   6.551   1.958  17.213  0.2841  0.5151  0.0551
 3955TIP3    H133356   6.502   1.893  17.263  2.9504 -0.8809  0.9322
 3955TIP3    H233357   6.506   1.962  17.128 -0.9317 -1.2101  0.5974
 3956TIP3   OH233358   6.146   0.856   3.058 -0.3857  0.0941  0.3065
 3956TIP3    H133359   6.149   0.787   3.124 -0.6094 -1.0420 -0.8573
 3956TIP3    H233360   6.212   0.919   3.086  0.1097 -0.7969  1.1596
 3957TIP3   OH233361   4.336   5.779   6.472  0.0188  0.0357 -0.3199
 3957TIP3    H133362   4.417   5.803   6.428  1.4185  0.4635  2.3613
 3957TIP3    H233363   4.356   5.696   6.516 -1.3265 -0.3924 -0.4787
 3958TIP3   OH233364   5.940   3.970  15.425  0.1037 -0.2976 -0.0897
 3958TIP3    H133365   5.896   4.020  15.357  0.0680 -2.0386 -1.4070
 3958TIP3    H233366   5.925   3.878  15.401  2.0885 -0.9424  0.9453
 3959TIP3   OH233367   5.089   6.559   1.673  0.2766 -0.2946 -0.1885
 3959TIP3    H133368   5.129   6.546   1.587  2.4341  0.7792  0.6086
 3959TIP3    H233369   5.115   6.482   1.724 -2.0786 -1.5800 -0.8202
 3960TIP3   OH233370   5.433   1.396  17.157  0.0299  0.9655  0.3250
 3960TIP3    H133371   5.347   1.438  17.153  0.2006  1.3289  0.4459
 3960TIP3    H233372   5.492   1.461  17.118  0.2882  0.8224  0.4829
 3961TIP3   OH233373   1.459   5.422  15.015 -0.0128  0.7518 -0.4725
 3961TIP3    H133374   1.407   5.470  14.951  0.5690  1.5466 -0.3555
 3961TIP3    H233375   1.549   5.427  14.981  0.0227 -0.4496 -0.5845
 3962TIP3   OH233376   4.703   3.931  13.134 -0.3240  0.0810 -0.1993
 3962TIP3    H133377   4.674   4.022  13.124 -1.0386  0.4535  4.2039
 3962TIP3    H233378   4.792   3.938  13.169 -0.5247 -0.8858  0.5344
 3963TIP3   OH233379   5.928   6.782   3.412 -0.0851  0.2839  0.0630
 3963TIP3    H133380   5.974   6.861   3.440 -0.3265  0.1917  0.7326
 3963TIP3    H233381   5.907   6.736   3.493  0.6028 -0.7794 -0.3507
 3964TIP3   OH233382   3.220   5.537  13.571 -0.2727 -0.6207  0.1121
 3964TIP3    H133383   3.277   5.505  13.642 -0.6936 -0.8204  0.3568
 3964TIP3    H233384   3.261   5.620  13.544  0.2215 -0.8389  0.1867
 3965TIP3   OH233385   4.837   5.944  15.273  0.1578 -0.4488  0.4668
 3965TIP3    H133386   4.932   5.945  15.262 -0.0438  1.8970 -1.5481
 3965TIP3    H233387   4.820   6.018  15.332 -0.5155  0.1210 -0.4297
 3966TIP3   OH233388   4.528   4.958  10.936  0.5924  0.2797 -1.2298
 3966TIP3    H133389   4.492   4.880  10.893 -1.0202 -0.1186  0.7769
 3966TIP3    H233390   4.453   5.016  10.948  0.9312  0.2842  1.1828
 3967TIP3   OH233391   2.412   4.417   4.777  0.0742 -0.2203  0.0742
 3967TIP3    H133392   2.401   4.325   4.800  0.4184 -0.5353 -0.9828
 3967TIP3    H233393   2.333   4.439   4.727  1.1464 -0.6677 -1.8787
 3968TIP3   OH233394   4.597   6.302  13.464 -0.4185  0.3692 -0.1632
 3968TIP3    H133395   4.565   6.292  13.553 -3.5119  0.7038 -1.1666
 3968TIP3    H233396   4.548   6.377  13.429 -0.9805 -1.1752 -2.8390
 3969TIP3   OH233397   3.061   5.892   1.657  0.4191 -0.0560  0.3941
 3969TIP3    H133398   3.023   5.804   1.654  2.7347 -1.0944  0.6131
 3969TIP3    H233399   2.985   5.950   1.660 -1.1816 -1.9580 -1.3464
 3970TIP3   OH233400   0.445   5.500  11.655 -0.0107  0.2198 -0.5633
 3970TIP3    H133401   0.434   5.553  11.576 -0.7715 -0.1990 -0.7448
 3970TIP3    H233402   0.531   5.459  11.645 -0.0106  0.3395 -1.0692
 3971TIP3   OH233403   4.035   3.247  12.713 -0.1567 -0.1804 -0.1924
 3971TIP3    H133404   4.070   3.163  12.683 -0.1961 -0.2739  0.0248
 3971TIP3    H233405   3.988   3.226  12.794 -0.4155  0.0023 -0.2934
 3972TIP3   OH233406   6.370   1.510   1.842  0.0380 -0.2647  0.0804
 3972TIP3    H133407   6.407   1.433   1.885  0.5866  1.1098  2.1284
 3972TIP3    H233408   6.289   1.528   1.890 -0.5578 -0.0700 -0.9669
 3973TIP3   OH233409   0.149   1.004  15.198  0.4110 -0.6029  0.2354
 3973TIP3    H133410   0.086   0.992  15.269 -0.2240  0.3222 -0.1635
 3973TIP3    H233411   0.154   1.099  15.186 -0.6345 -0.8003 -1.9823
 3974TIP3   OH233412   5.918   1.262  14.383 -0.1730 -0.4685 -0.3536
 3974TIP3    H133413   5.908   1.301  14.296 -1.3598  0.6027  0.2409
 3974TIP3    H233414   5.997   1.303  14.418 -0.7963  0.5877 -0.1661
 3975TIP3   OH233415   0.396   0.709   3.526 -0.2877 -0.0675 -0.3918
 3975TIP3    H133416   0.437   0.756   3.453 -1.6221 -0.0589 -1.1667
 3975TIP3    H233417   0.303   0.733   3.520 -0.4876 -0.4529  1.0270
 3976TIP3   OH233418   5.032   5.410   1.474  0.1714 -0.2615  0.5633
 3976TIP3    H133419   4.979   5.346   1.425  1.4370 -0.2378 -0.8845
 3976TIP3    H233420   4.969   5.473   1.507 -0.8240 -0.8168 -0.2390
 3977TIP3   OH233421   6.636   6.519  15.965  0.4267  0.1155 -0.3413
 3977TIP3    H133422   6.711   6.574  15.943  0.5164  1.4861  3.1148
 3977TIP3    H233423   6.675   6.439  16.000  0.3299  0.9739  1.7993
 3978TIP3   OH233424   4.667   5.921  13.295  0.1425  0.2135  0.3219
 3978TIP3    H133425   4.696   5.907  13.205  1.3315 -0.6840  0.8265
 3978TIP3    H233426   4.718   5.996  13.326 -0.1641  0.4335  0.3026
 3979TIP3   OH233427   4.111   3.863  17.239  0.2160 -0.5656 -0.0975
 3979TIP3    H133428   4.101   3.841  17.147 -1.8814 -0.0644 -0.0225
 3979TIP3    H233429   4.098   3.958  17.243  2.2617 -0.2942  0.4618
 3980TIP3   OH233430   0.841   1.233   6.129  0.5144  0.0845  0.2670
 3980TIP3    H133431   0.810   1.145   6.109 -3.2395  0.8440  2.2991
 3980TIP3    H233432   0.888   1.224   6.212 -0.6153  0.1100  0.9194
 3981TIP3   OH233433   2.542   1.008  16.707  0.6022 -0.1620 -0.1585
 3981TIP3    H133434   2.514   1.097  16.728  1.5129  0.1603 -0.2793
 3981TIP3    H233435   2.490   0.983  16.631  0.5928  0.3919 -0.3356
 3982TIP3   OH233436   5.320   6.028   4.648  0.0182 -0.4619 -0.2718
 3982TIP3    H133437   5.354   5.950   4.605  1.6782  1.7390 -3.1782
 3982TIP3    H233438   5.348   6.100   4.592  2.2214  2.6422  4.4948
 3983TIP3   OH233439   2.878   2.536  14.210 -0.1463 -0.1216  0.9629
 3983TIP3    H133440   2.946   2.469  14.202 -0.0727 -0.0214  0.7300
 3983TIP3    H233441   2.924   2.614  14.241 -0.7365 -1.0047  4.1818
 3984TIP3   OH233442   1.257   3.599   0.388  0.3137 -0.4934  0.4771
 3984TIP3    H133443   1.331   3.621   0.331 -0.1517 -0.7189 -0.2249
 3984TIP3    H233444   1.268   3.656   0.464  0.7435  0.0772 -0.0018
 3985TIP3   OH233445   3.282   1.592  12.176 -0.0143 -0.0641 -0.2631
 3985TIP3    H133446   3.368   1.550  12.175 -0.2926 -0.6564  0.1956
 3985TIP3    H233447   3.242   1.562  12.258 -0.6739  0.1779 -0.4974
 3986TIP3   OH233448   1.493   0.054  15.486 -0.1851 -0.2359 -0.4579
 3986TIP3    H133449   1.547  -0.006  15.538  0.8242  1.3071  0.3394
 3986TIP3    H233450   1.405   0.019  15.493  0.3711 -1.5414  0.1303
 3987TIP3   OH233451   5.143   2.462  10.686  0.2906  0.3186 -0.0938
 3987TIP3    H133452   5.141   2.556  10.702  0.6592  0.6173 -1.7185
 3987TIP3    H233453   5.233   2.444  10.659 -0.5162  0.0279 -2.7251
 3988TIP3   OH233454   1.358   1.796  13.119 -0.0618  0.6168 -0.5439
 3988TIP3    H133455   1.375   1.809  13.212  2.6890  0.0203 -0.9070
 3988TIP3    H233456   1.355   1.884  13.082 -1.0579  0.8478  0.0862
 3989TIP3   OH233457   3.904   2.298   2.275 -0.6052  0.0040 -0.3546
 3989TIP3    H133458   3.966   2.368   2.295  0.4740 -1.0298 -0.0623
 3989TIP3    H233459   3.823   2.325   2.319  0.2599  0.2819  1.0986
 3990TIP3   OH233460   0.150   2.572   6.185 -0.2751  0.2522  0.0613
 3990TIP3    H133461   0.241   2.543   6.175 -0.1521 -1.3101  4.6648
 3990TIP3    H233462   0.153   2.640   6.252 -2.4277  0.7889 -0.3356
 3991TIP3   OH233463   4.091   1.580   0.383  0.4193 -0.7775 -0.7220
 3991TIP3    H133464   4.150   1.647   0.347 -0.8097  0.3240 -0.7233
 3991TIP3    H233465   4.144   1.535   0.449  0.4878  1.9100  1.1350
 3992TIP3   OH233466   2.429   0.744   3.415 -0.0330  0.0445 -0.3019
 3992TIP3    H133467   2.414   0.783   3.501 -1.3012  0.9564 -0.9290
 3992TIP3    H233468   2.478   0.811   3.367  1.7344 -0.9360  0.0828
 3993TIP3   OH233469   0.767   0.392   0.374 -0.4886 -0.4213 -0.9638
 3993TIP3    H133470   0.681   0.433   0.379 -0.6328 -0.9878  1.4933
 3993TIP3    H233471   0.750   0.307   0.332 -1.0917 -0.4647 -0.6309
 3994TIP3   OH233472   0.957   1.173   3.487 -0.1150  0.5238  0.6538
 3994TIP3    H133473   1.052   1.184   3.480  0.1849 -1.5810  1.1667
 3994TIP3    H233474   0.943   1.079   3.477 -2.4304  1.1289 -2.2788
 3995TIP3   OH233475   6.085   0.993  16.270  0.2716 -0.0205  0.4648
 3995TIP3    H133476   6.161   0.936  16.279 -0.9204 -1.6333  0.5812
 3995TIP3    H233477   6.038   0.959  16.194 -0.8604  0.3195  0.9974
 3996TIP3   OH233478   3.777   1.142  14.923  0.0427 -0.1059 -0.1156
 3996TIP3    H133479   3.732   1.196  14.988  0.7885  0.7818 -0.3301
 3996TIP3    H233480   3.866   1.177  14.919  1.2954 -2.9378  1.5411
 3997TIP3   OH233481   5.864   5.062  15.901  0.0758 -0.0709 -0.8293
 3997TIP3    H133482   5.943   5.047  15.849  0.6403  0.2679 -0.0800
 3997TIP3    H233483   5.825   4.975  15.910 -0.1358 -0.1047 -1.9847
 3998TIP3   OH233484   1.156   3.309  13.592 -0.0645 -0.4305 -0.2800
 3998TIP3    H133485   1.218   3.273  13.656 -0.6976 -0.7564  0.1545
 3998TIP3    H233486   1.185   3.399  13.579  0.2761 -0.4656  0.2040
 3999TIP3   OH233487   3.181   4.216  16.745 -0.4853 -0.3504  0.5602
 3999TIP3    H133488   3.242   4.278  16.705 -0.7407 -0.3920  0.1042
 3999TIP3    H233489   3.103   4.268  16.762 -1.0803 -0.7766 -0.7757
 4000TIP3   OH233490   5.319   5.087   3.278  0.1948  0.0978  0.1785
 4000TIP3    H133491   5.231   5.082   3.315 -0.7165 -1.1414 -2.0702
 4000TIP3    H233492   5.349   4.996   3.276  0.0511  0.0743 -2.4269
 4001TIP3   OH233493   4.115   2.404  11.309  0.1327 -0.0544  0.0556
 4001TIP3    H133494   4.077   2.475  11.361 -1.4930 -1.7329  1.2443
 4001TIP3    H233495   4.164   2.352  11.373  0.3677 -0.6244 -0.5905
 4002TIP3   OH233496   3.749   5.891  12.046 -0.1864 -0.0107 -0.1166
 4002TIP3    H133497   3.728   5.885  12.139 -2.0993  0.9168 -0.4582
 4002TIP3    H233498   3.838   5.857  12.039 -0.0117 -0.0696  2.0478
 4003TIP3   OH233499   3.988   2.233   0.671  0.2572 -0.2538  0.1883
 4003TIP3    H133500   3.921   2.202   0.611  2.2943 -0.4772 -2.0530
 4003TIP3    H233501   3.958   2.206   0.758 -1.3927 -2.3441 -1.0094
 4004TIP3   OH233502   0.646   6.310  11.221  0.1238  0.3129  0.2534
 4004TIP3    H133503   0.560   6.329  11.185 -0.1474 -0.4432  0.4888
 4004TIP3    H233504   0.631   6.240  11.284  1.1738 -1.1395 -1.0691
 4005TIP3   OH233505   2.488   6.507  14.625 -0.0397  0.2198 -0.1038
 4005TIP3    H133506   2.457   6.578  14.681  1.0900  0.5784  0.0717
 4005TIP3    H233507   2.442   6.430  14.658  0.2015  0.5190  0.9727
 4006TIP3   OH233508   0.474   6.297  13.353 -0.1776  0.1222  0.7299
 4006TIP3    H133509   0.498   6.354  13.425  1.3539 -0.2001  0.4774
 4006TIP3    H233510   0.542   6.230  13.350  0.5130  0.8632 -1.8040
 4007TIP3   OH233511   1.364   2.662   2.338  0.3256 -0.1372 -0.6005
 4007TIP3    H133512   1.280   2.655   2.294  1.1687 -2.1000 -1.9588
 4007TIP3    H233513   1.416   2.719   2.281  0.2274  0.3272 -0.2305
 4008TIP3   OH233514   2.759   1.229   1.290 -1.1152  0.3195 -0.3078
 4008TIP3    H133515   2.851   1.238   1.316 -1.0660 -2.9841  0.9162
 4008TIP3    H233516   2.762   1.180   1.208 -1.8771 -3.9288  2.0807
 4009TIP3   OH233517   1.588   4.149   0.921 -0.3921  0.3922  0.3225
 4009TIP3    H133518   1.512   4.117   0.970 -0.8945  2.4279  0.8906
 4009TIP3    H233519   1.618   4.226   0.970  2.0017 -0.3204  0.0644
 4010TIP3   OH233520   3.996   5.762  11.699 -0.3578  0.0030  0.2855
 4010TIP3    H133521   4.076   5.748  11.750 -0.3455  0.0372  0.2761
 4010TIP3    H233522   3.950   5.678  11.704 -1.0873  0.4690  1.6212
 4011TIP3   OH233523   0.127   5.618   5.489  0.4703 -0.8471 -0.1372
 4011TIP3    H133524   0.089   5.541   5.445 -1.0098 -0.2327  0.0335
 4011TIP3    H233525   0.159   5.673   5.418 -0.6652 -0.5027 -0.3968
 4012TIP3   OH233526   0.080   0.281   5.711  0.1210  0.0786  0.7463
 4012TIP3    H133527   0.090   0.192   5.676  0.9373  0.2815  0.4414
 4012TIP3    H233528  -0.011   0.304   5.692  0.8130  0.5952 -2.2382
 4013TIP3   OH233529   5.098   0.501   0.379 -0.2185 -0.0781 -0.4022
 4013TIP3    H133530   5.140   0.423   0.415  0.9354  0.1052 -1.3001
 4013TIP3    H233531   5.021   0.515   0.434 -0.0338 -1.4214  0.2142
 4014TIP3   OH233532   3.755   3.273  13.412  0.0135 -0.3687 -0.0129
 4014TIP3    H133533   3.751   3.346  13.351 -2.5965  1.0123  1.7262
 4014TIP3    H233534   3.848   3.261  13.429  0.5586  1.4959 -1.5423
 4015TIP3   OH233535   3.657   2.283  16.430 -0.4705  0.8926 -0.1926
 4015TIP3    H133536   3.591   2.348  16.455 -2.1707 -1.0234  0.4554
 4015TIP3    H233537   3.722   2.286  16.500 -1.5744  0.5295  0.8701
 4016TIP3   OH233538   1.993   1.138   2.394  0.4849 -0.1517 -0.2007
 4016TIP3    H133539   2.056   1.137   2.466  0.7556 -0.9263 -0.4417
 4016TIP3    H233540   1.928   1.204   2.419  2.3415  1.9849 -0.7591
 4017TIP3   OH233541   0.990   0.688  12.317 -0.1078 -0.9002 -0.6466
 4017TIP3    H133542   0.939   0.762  12.351  2.1029  0.5979 -0.4913
 4017TIP3    H233543   0.968   0.615  12.376 -0.9794  0.0994  0.2854
 4018TIP3   OH233544   2.903   3.728   5.410 -0.1460 -0.7121 -0.1002
 4018TIP3    H133545   2.909   3.712   5.316  1.0310  0.8159 -0.3188
 4018TIP3    H233546   2.812   3.754   5.424  0.1188  0.8713 -1.1515
 4019TIP3   OH233547   3.247   3.707  11.397  0.4590 -0.3743  0.1719
 4019TIP3    H133548   3.342   3.719  11.392  0.4544  0.0077  0.8625
 4019TIP3    H233549   3.221   3.683  11.308  0.8635  2.0359 -0.6338
 4020TIP3   OH233550   4.445   0.980   2.497  0.4682 -0.0667  0.0502
 4020TIP3    H133551   4.393   1.039   2.551 -1.6325 -0.9841 -0.9199
 4020TIP3    H233552   4.382   0.941   2.436  2.0084 -2.3965 -0.1169
 4021TIP3   OH233553   6.806   1.010   3.512 -0.2987 -0.2173  0.3111
 4021TIP3    H133554   6.875   1.065   3.548  0.1614 -1.9376  2.1314
 4021TIP3    H233555   6.846   0.924   3.501 -1.7020 -0.8344 -0.1119
 4022TIP3   OH233556   2.517   4.441  13.692  0.6154 -0.5041  0.5194
 4022TIP3    H133557   2.597   4.488  13.712  0.7031 -0.7388  0.7186
 4022TIP3    H233558   2.534   4.350  13.718 -0.3263 -0.2133  2.1932
 4023TIP3   OH233559   6.152   1.451  14.458 -0.0345 -0.0620  0.1574
 4023TIP3    H133560   6.223   1.430  14.519  0.4475 -0.9140 -0.6826
 4023TIP3    H233561   6.195   1.503  14.390 -0.0618 -1.2326 -0.7530
 4024TIP3   OH233562   0.245   6.067  14.581  0.2287  0.1768  0.3778
 4024TIP3    H133563   0.253   5.978  14.618 -0.6477  0.0687  0.3055
 4024TIP3    H233564   0.295   6.064  14.500  0.5800 -0.1231  0.6016
 4025TIP3   OH233565   1.451   1.545  15.148 -0.5400  0.3111  0.1846
 4025TIP3    H133566   1.392   1.471  15.161  0.8523 -0.7910  0.3849
 4025TIP3    H233567   1.489   1.560  15.235  0.4815  0.1339 -0.2268
 4026TIP3   OH233568   4.439   5.043  16.852  0.0586  0.9996 -0.2401
 4026TIP3    H133569   4.392   5.069  16.931 -0.1422 -0.7186  0.2170
 4026TIP3    H233570   4.525   5.084  16.861 -0.3334  1.7133  0.3388
 4027TIP3   OH233571   5.111   5.038  16.059  0.5812  0.5104  0.0199
 4027TIP3    H133572   5.159   4.978  16.002 -1.5026  0.1966 -1.4662
 4027TIP3    H233573   5.124   5.124  16.020 -0.7002  0.3187 -0.8610
 4028TIP3   OH233574   0.217   0.790  13.112  0.0491 -0.6101 -0.1197
 4028TIP3    H133575   0.140   0.752  13.154  0.4322 -0.0013  1.1556
 4028TIP3    H233576   0.289   0.734  13.140  0.3152 -0.1676  0.0863
 4029TIP3   OH233577   2.151   3.615  14.705 -0.1178 -0.7686  0.1888
 4029TIP3    H133578   2.207   3.565  14.764  1.0852  1.0939  0.6975
 4029TIP3    H233579   2.178   3.588  14.617  0.7014 -0.8193  0.4539
 4030TIP3   OH233580   5.966   3.814   3.661  0.0052  0.3220 -0.0456
 4030TIP3    H133581   6.039   3.866   3.695  0.3396  0.1219 -0.4499
 4030TIP3    H233582   5.999   3.778   3.579  0.0445 -1.1731  0.6273
 4031TIP3   OH233583   4.342   6.226   2.775 -0.3115 -0.1641  0.1240
 4031TIP3    H133584   4.345   6.153   2.714 -1.6406  0.6028 -0.8766
 4031TIP3    H233585   4.359   6.187   2.861 -0.7010 -1.5787 -0.4385
 4032TIP3   OH233586   5.809   3.206   4.816  0.6517 -0.0790 -0.2561
 4032TIP3    H133587   5.781   3.161   4.736 -0.8456  0.5358 -0.1080
 4032TIP3    H233588   5.893   3.167   4.838  1.2635 -0.0220 -2.3351
 4033TIP3   OH233589   4.443   4.024  16.387 -0.0578  0.3260 -0.9192
 4033TIP3    H133590   4.523   3.973  16.401 -0.9238 -0.5836  0.8415
 4033TIP3    H233591   4.378   3.959  16.360 -0.6528  0.7888 -0.6048
 4034TIP3   OH233592   2.797   5.452   3.688  0.0075 -0.0803  0.3394
 4034TIP3    H133593   2.822   5.360   3.693  1.4870  0.3634  1.3847
 4034TIP3    H233594   2.803   5.483   3.779 -1.6266  0.7620  0.1846
 4035TIP3   OH233595   2.817   3.242  12.931  0.0653  0.2743  0.0995
 4035TIP3    H133596   2.859   3.292  13.001 -0.9676  1.1036  0.1376
 4035TIP3    H233597   2.740   3.202  12.972  2.5193 -3.9811  0.9007
 4036TIP3   OH233598   5.853   5.819   6.194 -0.1321 -0.1048 -0.1861
 4036TIP3    H133599   5.806   5.796   6.274  1.1210 -1.5517  0.1477
 4036TIP3    H233600   5.943   5.834   6.221 -0.0036  0.8663 -1.1002
 4037TIP3   OH233601   3.735   3.940   1.651 -0.0096 -0.4355  0.2922
 4037TIP3    H133602   3.738   3.974   1.740 -1.0382  0.2776  0.0580
 4037TIP3    H233603   3.768   4.011   1.597  1.2628 -1.1054  0.1497
 4038TIP3   OH233604   6.485   2.333   2.361 -0.1277 -0.3148  0.1714
 4038TIP3    H133605   6.461   2.408   2.415  0.5951 -0.7658  1.1322
 4038TIP3    H233606   6.412   2.323   2.300 -0.7759  0.4419  0.8115
 4039TIP3   OH233607   1.889   3.146  11.760 -0.2735 -0.2994 -0.2496
 4039TIP3    H133608   1.925   3.071  11.807 -0.5475 -2.1125 -2.7892
 4039TIP3    H233609   1.955   3.166  11.693 -0.6345  1.1368 -0.1984
 4040TIP3   OH233610   3.847   3.374   0.686 -0.0619 -0.5518  0.3976
 4040TIP3    H133611   3.836   3.444   0.622 -0.0556  0.4966  1.5202
 4040TIP3    H233612   3.942   3.359   0.689 -0.0536 -0.5263  0.2366
 4041TIP3   OH233613   4.961   5.410  16.970  1.0157 -0.1025 -0.8345
 4041TIP3    H133614   4.917   5.482  16.926  0.0893  1.2095  2.0769
 4041TIP3    H233615   4.901   5.336  16.960 -1.5571  1.3982  2.1601
 4042TIP3   OH233616   1.949   1.863  13.876  0.7280 -0.0825 -0.0163
 4042TIP3    H133617   2.035   1.877  13.916  0.6502  0.0362  0.1096
 4042TIP3    H233618   1.888   1.907  13.935  0.5114 -0.6980  0.2228
 4043TIP3   OH233619   2.153   0.404   2.368 -0.0476 -0.0591  0.4874
 4043TIP3    H133620   2.138   0.346   2.443 -2.2829  1.2620  1.1249
 4043TIP3    H233621   2.097   0.479   2.385  0.6149  0.9916 -1.7643
 4044TIP3   OH233622   5.591   2.082  15.723  0.0332 -0.2190  0.1192
 4044TIP3    H133623   5.599   2.050  15.813  1.2313  0.0854  0.1381
 4044TIP3    H233624   5.590   2.178  15.732 -0.5234 -0.1993 -0.1450
 4045TIP3   OH233625   5.643   0.679   2.449 -0.4320 -0.2566 -0.2025
 4045TIP3    H133626   5.558   0.721   2.459 -0.9429 -0.9771 -1.4400
 4045TIP3    H233627   5.694   0.710   2.524 -1.8466  0.0050  0.6663
 4046TIP3   OH233628   5.057   1.536   2.013  0.4232 -0.3637 -0.8358
 4046TIP3    H133629   5.042   1.503   1.924 -0.0155 -0.4463 -0.7336
 4046TIP3    H233630   5.152   1.537   2.023  0.4592 -0.9338 -1.0907
 4047TIP3   OH233631   6.784   5.365  12.765  0.7444  0.3638 -0.3038
 4047TIP3    H133632   6.795   5.450  12.808 -1.9562  0.9271 -0.6048
 4047TIP3    H233633   6.750   5.386  12.678 -1.0939 -1.0272  0.0318
 4048TIP3   OH233634   3.408   0.443  13.906  0.5404  0.6949 -0.2185
 4048TIP3    H133635   3.364   0.408  13.828 -0.3819 -0.1119  0.6577
 4048TIP3    H233636   3.357   0.410  13.979 -1.4675  5.2771  0.6310
 4049TIP3   OH233637   0.694   6.798  17.263  0.2209  0.3893  0.1475
 4049TIP3    H133638   0.611   6.836  17.236  0.4283 -0.2101 -1.4372
 4049TIP3    H233639   0.724   6.749  17.186  0.7839 -1.5402  1.5470
 4050TIP3   OH233640   6.228   3.435   5.900  0.2183  0.0822  0.3671
 4050TIP3    H133641   6.300   3.391   5.945 -0.9817 -1.0600  1.2379
 4050TIP3    H233642   6.153   3.377   5.914 -0.8960  1.3111 -0.4070
 4051TIP3   OH233643   5.644   4.830  14.681  0.2728  0.1481  0.1332
 4051TIP3    H133644   5.570   4.815  14.740  0.0205  2.1102  0.3523
 4051TIP3    H233645   5.679   4.743  14.663 -1.0774 -0.6578  1.3412
 4052TIP3   OH233646   1.055   3.955  15.134  0.0252 -0.4527 -0.3979
 4052TIP3    H133647   1.072   3.968  15.227  1.6040  0.3534 -0.7743
 4052TIP3    H233648   1.078   3.863  15.118  1.1048 -0.2164 -0.2582
 4053TIP3   OH233649   3.715   3.735   4.924  0.1909  0.1142  0.0045
 4053TIP3    H133650   3.664   3.781   4.991 -1.2836 -1.2044 -0.1880
 4053TIP3    H233651   3.660   3.738   4.846  1.4606  0.7401 -0.8968
 4054TIP3   OH233652   6.329   1.905  13.803  0.1122 -0.6766 -0.3099
 4054TIP3    H133653   6.330   1.847  13.879  0.0090 -1.2904 -0.7676
 4054TIP3    H233654   6.415   1.948  13.805  0.0030 -0.4828  0.3037
 4055TIP3   OH233655   4.395   5.067  15.744 -0.4644 -0.3294  0.5270
 4055TIP3    H133656   4.489   5.050  15.742 -0.6124 -1.1126 -0.5884
 4055TIP3    H233657   4.381   5.120  15.822  0.7935 -0.8589  1.1200
 4056TIP3   OH233658   1.114   2.261  11.299 -0.2890 -0.2783  0.1566
 4056TIP3    H133659   1.154   2.174  11.300 -2.4293 -1.2804  0.3290
 4056TIP3    H233660   1.042   2.254  11.236 -0.5638  1.3356  0.2685
 4057TIP3   OH233661   0.672   3.229  17.239  0.4809 -0.3814 -0.6615
 4057TIP3    H133662   0.581   3.198  17.238 -0.4254  2.0846  0.7086
 4057TIP3    H233663   0.709   3.192  17.319 -0.0557  0.5952  0.0433
 4058TIP3   OH233664   3.358   1.835   0.609 -0.0290  1.0449 -0.2951
 4058TIP3    H133665   3.286   1.802   0.555 -0.9061  0.0801  1.4183
 4058TIP3    H233666   3.342   1.797   0.696  2.6112  0.7362  0.0867
 4059TIP3   OH233667   1.996   6.256  16.185 -0.0401 -0.0552  0.1376
 4059TIP3    H133668   2.063   6.195  16.216 -0.8812 -0.4945  1.1388
 4059TIP3    H233669   1.963   6.217  16.104  0.8430  0.1132 -0.3026
 4060TIP3   OH233670   1.837   3.120   2.716 -0.2537  0.6865  0.1372
 4060TIP3    H133671   1.796   3.048   2.668  1.7437 -0.8369  0.6512
 4060TIP3    H233672   1.829   3.196   2.658  0.9663 -0.8151 -2.0541
 4061TIP3   OH233673   4.844   5.241  10.521 -0.2462 -0.3543  0.1580
 4061TIP3    H133674   4.927   5.239  10.570  0.4131 -1.0702 -0.9560
 4061TIP3    H233675   4.788   5.299  10.572  1.3713  1.1799  0.2578
 4062TIP3   OH233676   6.353   3.383   4.392 -0.1654  0.3028  0.4719
 4062TIP3    H133677   6.316   3.327   4.324  1.8759 -0.2138 -0.2546
 4062TIP3    H233678   6.320   3.471   4.371 -0.0509  0.0518 -0.8370
 4063TIP3   OH233679   2.634   0.810   6.250 -0.1852  0.3885  0.3957
 4063TIP3    H133680   2.631   0.751   6.325  0.6252  3.0742  2.6518
 4063TIP3    H233681   2.693   0.880   6.277  1.5034  0.5772 -3.4452
 4064TIP3   OH233682   5.333   6.396   1.177  0.4012  0.4811  0.0615
 4064TIP3    H133683   5.403   6.416   1.240  1.3048  1.4556 -1.2069
 4064TIP3    H233684   5.313   6.304   1.192  0.3475  0.7914  2.0108
 4065TIP3   OH233685   1.451   5.765  14.576 -0.3241  0.2068  0.4427
 4065TIP3    H133686   1.513   5.693  14.582 -0.2770  0.4254  3.2468
 4065TIP3    H233687   1.497   5.840  14.613 -0.8644  1.3608 -1.1640
 4066TIP3   OH233688   6.276   3.712  11.809 -0.3834  0.5741  0.1710
 4066TIP3    H133689   6.254   3.638  11.751  0.0589 -0.4650  1.3134
 4066TIP3    H233690   6.203   3.772  11.799 -0.3202  0.4167 -1.4804
 4067TIP3   OH233691   1.255   0.560   2.876 -0.1457  0.4695 -0.3906
 4067TIP3    H133692   1.279   0.488   2.935  1.3630 -0.3670 -2.0028
 4067TIP3    H233693   1.159   0.562   2.878 -0.1306  0.2791  1.8719
 4068TIP3   OH233694   4.876   0.986   2.815  0.2663 -0.1715  0.4570
 4068TIP3    H133695   4.897   0.932   2.738  0.3412 -0.9106  0.9872
 4068TIP3    H233696   4.946   0.966   2.878  0.2910  0.5466  0.6570
 4069TIP3   OH233697   2.112   0.325  12.714 -0.4852 -0.2137 -0.0245
 4069TIP3    H133698   2.205   0.307  12.703 -0.6179 -1.2325  0.4536
 4069TIP3    H233699   2.083   0.264  12.783 -1.4581  0.2171 -0.0371
 4070TIP3   OH233700   2.083   6.810  15.571 -0.4242  0.3390 -0.2764
 4070TIP3    H133701   2.135   6.762  15.507  0.7574 -1.3797  1.9091
 4070TIP3    H233702   2.145   6.834  15.640 -1.9820  0.6878  1.0437
 4071TIP3   OH233703   1.687   4.715  13.556  0.5767  0.7209 -0.3920
 4071TIP3    H133704   1.607   4.768  13.554  0.4192  0.4748 -0.8207
 4071TIP3    H233705   1.671   4.646  13.492  0.5664 -0.1556  0.5421
 4072TIP3   OH233706   0.239   3.255  13.997  0.1064 -0.1911  0.1364
 4072TIP3    H133707   0.242   3.194  13.923  0.3208 -0.3174  0.2501
 4072TIP3    H233708   0.148   3.286  13.998  0.1186 -0.1344 -0.2246
 4073TIP3   OH233709   2.088   6.804  12.015 -0.0450  0.0994 -0.3491
 4073TIP3    H133710   2.128   6.874  12.066 -1.0882  0.6854 -0.3188
 4073TIP3    H233711   2.129   6.723  12.048 -0.4633  0.4966  1.1668
 4074TIP3   OH233712   1.888   5.149   3.370  0.9874 -1.0528  0.0876
 4074TIP3    H133713   1.886   5.077   3.306  2.0184 -2.9851  2.1519
 4074TIP3    H233714   1.974   5.142   3.411 -0.3184 -1.0350  2.9718
 4075TIP3   OH233715   3.167   1.759  13.294  0.3121 -0.0496  0.2871
 4075TIP3    H133716   3.164   1.750  13.389  1.7181  1.2286  0.4729
 4075TIP3    H233717   3.245   1.813  13.277 -0.2782  0.2680 -1.5454
 4076TIP3   OH233718   0.568   6.180   4.901  0.6318 -0.4272 -0.0450
 4076TIP3    H133719   0.631   6.242   4.862  0.4972 -1.0180 -1.2013
 4076TIP3    H233720   0.622   6.105   4.926  0.5919 -0.3864  0.1612
 4077TIP3   OH233721   0.988   1.948  15.045 -0.1008  0.2980  0.2618
 4077TIP3    H133722   1.002   1.890  15.119  1.5602  0.0302 -0.2477
 4077TIP3    H233723   1.043   1.913  14.976 -1.1018  0.9532 -0.8876
 4078TIP3   OH233724   4.220   5.294   5.025 -0.3996 -0.5067 -0.1475
 4078TIP3    H133725   4.210   5.357   5.096  1.9425 -1.3538  0.9814
 4078TIP3    H233726   4.158   5.324   4.958  0.0603  2.5017  0.6913
 4079TIP3   OH233727   4.364   2.301   6.028  0.2714 -0.1440 -0.1019
 4079TIP3    H133728   4.377   2.350   6.110 -1.8283  1.4026 -0.6429
 4079TIP3    H233729   4.297   2.236   6.049  0.8437 -0.7772 -0.2046
 4080TIP3   OH233730   2.944   4.387   2.920 -0.5865  0.3096 -0.4458
 4080TIP3    H133731   2.995   4.336   2.857  2.8636  3.3453 -0.3044
 4080TIP3    H233732   2.885   4.441   2.867  0.8172  1.3096 -1.0276
 4081TIP3   OH233733   6.219   0.712  16.590  0.0474 -0.4919  0.0940
 4081TIP3    H133734   6.213   0.642  16.524  0.6471  0.3557 -0.8794
 4081TIP3    H233735   6.256   0.669  16.667  0.2313 -1.2939 -0.4292
 4082TIP3   OH233736   4.478   1.091   4.236  0.5246  0.0669  0.3135
 4082TIP3    H133737   4.500   1.104   4.328  1.9783 -0.6404  0.0747
 4082TIP3    H233738   4.493   0.998   4.220  1.9335  0.5095 -1.0652
 4083TIP3   OH233739   2.778   6.109   6.255 -0.4031  0.1789  0.8349
 4083TIP3    H133740   2.699   6.056   6.265 -0.0103 -0.3157  1.4146
 4083TIP3    H233741   2.769   6.178   6.321 -1.7176  1.8658 -1.0711
 4084TIP3   OH233742   6.562   2.552  14.228  0.0369  0.0226  0.2280
 4084TIP3    H133743   6.591   2.501  14.153 -2.7890 -1.3800 -0.0065
 4084TIP3    H233744   6.472   2.523  14.243 -1.0648  3.6584  1.2431
 4085TIP3   OH233745   3.877   3.259   0.188 -0.0995  0.0613  0.2826
 4085TIP3    H133746   3.855   3.172   0.156 -0.4107 -0.2955  1.4637
 4085TIP3    H233747   3.799   3.288   0.236  0.2993  0.6562  0.5862
 4086TIP3   OH233748   2.835   3.865  10.833 -0.1170  0.3099 -0.1673
 4086TIP3    H133749   2.867   3.944  10.789  0.7843  0.2084  0.3090
 4086TIP3    H233750   2.909   3.835  10.886 -0.4335 -0.8806 -0.3825
 4087TIP3   OH233751   4.489   5.081  16.573  0.1282 -0.2127 -0.9521
 4087TIP3    H133752   4.471   4.999  16.527 -1.0674  0.2342 -1.2994
 4087TIP3    H233753   4.460   5.065  16.663  0.8792 -0.5083 -0.7493
 4088TIP3   OH233754   6.610   0.670   6.613  0.6586 -0.3038 -0.8179
 4088TIP3    H133755   6.563   0.704   6.537  0.7024  0.4515 -0.5044
 4088TIP3    H233756   6.691   0.633   6.577 -0.5951 -2.4890 -1.4851
 4089TIP3   OH233757   6.814   5.365  16.439  0.6631  0.2582 -0.1090
 4089TIP3    H133758   6.785   5.384  16.350 -0.9012 -1.5721 -0.0277
 4089TIP3    H233759   6.834   5.450  16.477 -1.8158  1.3443 -1.1710
 4090TIP3   OH233760   3.056   6.562  12.482 -0.1281 -0.0419 -0.1834
 4090TIP3    H133761   3.100   6.477  12.475  0.0098  0.2287 -3.0371
 4090TIP3    H233762   3.116   6.623  12.440 -2.3305  0.6576 -2.3895
 4091TIP3   OH233763   2.254   1.424  13.820  0.7016  0.1392  0.2708
 4091TIP3    H133764   2.278   1.359  13.755  0.9410  0.3402  0.1568
 4091TIP3    H233765   2.312   1.498  13.804  1.1499 -0.0311  1.0734
 4092TIP3   OH233766   3.924   0.142   4.025 -0.6686 -0.1711 -0.1616
 4092TIP3    H133767   3.936   0.054   3.990 -0.1704  0.0706 -0.6073
 4092TIP3    H233768   3.879   0.190   3.955  1.7224  0.7453 -1.1168
 4093TIP3   OH233769   1.597   2.451  14.827 -0.2196  0.1434 -0.1320
 4093TIP3    H133770   1.681   2.459  14.872 -0.4776 -0.6304  0.4950
 4093TIP3    H233771   1.533   2.442  14.898 -0.6280 -1.0840 -0.6486
 4094TIP3   OH233772   5.774   0.316   4.250  0.4177 -0.3977  0.2037
 4094TIP3    H133773   5.720   0.391   4.223  0.5663 -0.0809  0.7761
 4094TIP3    H233774   5.858   0.330   4.204  0.5581 -0.0325  0.5622
 4095TIP3   OH233775   3.917   1.389  16.268 -0.2491 -0.0978  0.3207
 4095TIP3    H133776   3.927   1.483  16.259  0.2076 -0.1604  0.1383
 4095TIP3    H233777   3.917   1.356  16.178 -0.7347 -0.2387  0.3700
 4096TIP3   OH233778   3.740   5.915   1.360  0.2792  0.3289  0.3282
 4096TIP3    H133779   3.826   5.953   1.341  0.9137 -0.8857  0.7218
 4096TIP3    H233780   3.712   5.877   1.277 -0.7059  2.3142 -0.2642
 4097TIP3   OH233781   6.457   1.271  12.175  0.2333  0.4922  0.3049
 4097TIP3    H133782   6.374   1.305  12.144  0.8087  2.0745  0.4900
 4097TIP3    H233783   6.458   1.291  12.269  0.6035  0.0134  0.4071
 4098TIP3   OH233784   3.731   1.494  12.919  0.4198 -0.5499  0.4712
 4098TIP3    H133785   3.737   1.430  12.848 -0.8345 -1.5484  1.2372
 4098TIP3    H233786   3.822   1.513  12.942  0.8205 -2.0325  0.1953
 4099TIP3   OH233787   5.935   1.749  12.603  0.5911  0.1371  0.1782
 4099TIP3    H133788   5.985   1.667  12.608  1.5424  0.6605 -0.5417
 4099TIP3    H233789   5.851   1.723  12.567  0.7561 -0.5943  0.3145
 4100TIP3   OH233790   2.887   0.678   2.835 -0.1006 -0.9093  0.0660
 4100TIP3    H133791   2.924   0.765   2.846  0.0246 -1.1623  1.7942
 4100TIP3    H233792   2.904   0.656   2.743 -0.7522  1.1453 -0.5821
 4101TIP3   OH233793   1.269   2.194  13.052 -0.7683 -0.0847 -0.2889
 4101TIP3    H133794   1.350   2.151  13.081 -1.7119 -1.3245  0.5838
 4101TIP3    H233795   1.261   2.168  12.960  0.0246  0.3729 -0.4975
 4102TIP3   OH233796   2.786   3.865   0.718  0.0061  0.3828 -0.1698
 4102TIP3    H133797   2.808   3.779   0.681  0.5190  0.6840 -0.5719
 4102TIP3    H233798   2.770   3.848   0.811  0.0043 -0.1655 -0.2679
 4103TIP3   OH233799   1.656   2.547  12.061 -0.8829  0.1768 -0.6421
 4103TIP3    H133800   1.647   2.510  11.973 -1.4998 -0.5953 -0.2689
 4103TIP3    H233801   1.728   2.498  12.100  1.5929  2.7430 -1.8086
 4104TIP3   OH233802   3.771   4.432  12.814  0.2068  0.5737 -0.4927
 4104TIP3    H133803   3.726   4.374  12.876  0.4079 -0.0637 -0.9332
 4104TIP3    H233804   3.708   4.502  12.797  0.3432  1.0146  0.8046
 4105TIP3   OH233805   4.735   4.873  14.159  0.0101  0.4428 -1.1257
 4105TIP3    H133806   4.805   4.859  14.223 -0.7353  0.1656 -0.3681
 4105TIP3    H233807   4.684   4.946  14.193 -1.7103 -1.1247 -0.2290
 4106TIP3   OH233808   5.918   3.064   5.417  0.3063  0.0476 -0.0961
 4106TIP3    H133809   6.006   3.083   5.383  0.1572 -0.2386 -0.6391
 4106TIP3    H233810   5.862   3.131   5.379  0.2702  0.1795  0.1847
 4107TIP3   OH233811   3.601   1.501  16.717  0.2490  0.6467  0.3635
 4107TIP3    H133812   3.606   1.577  16.774  2.2492  0.9936 -0.2676
 4107TIP3    H233813   3.686   1.496  16.675 -1.0459  0.1593 -2.3026
 4108TIP3   OH233814   2.572   3.344  15.339  0.7666 -0.0902 -0.1139
 4108TIP3    H133815   2.600   3.321  15.428  0.2082 -0.6028 -0.0701
 4108TIP3    H233816   2.651   3.336  15.286  0.8485 -0.9164  0.1228
 4109TIP3   OH233817   3.879   6.676   1.902  0.5317 -0.3046  0.4863
 4109TIP3    H133818   3.907   6.757   1.858 -0.4788 -0.5843 -0.6942
 4109TIP3    H233819   3.828   6.706   1.977  0.6402  0.1696  0.3747
 4110TIP3   OH233820   0.386   3.240  15.044 -0.3188  0.0988  0.1813
 4110TIP3    H133821   0.455   3.305  15.061 -0.8662  0.6242  0.4449
 4110TIP3    H233822   0.324   3.286  14.988  0.1599 -0.7845 -1.0980
 4111TIP3   OH233823   5.291   5.808   1.733 -0.7549 -0.1504 -0.0650
 4111TIP3    H133824   5.328   5.741   1.790 -1.1661  2.3181  3.2626
 4111TIP3    H233825   5.202   5.777   1.715 -0.5965 -0.9999  0.5696
 4112TIP3   OH233826   2.287   3.913  15.559 -0.3556  0.1125 -0.3314
 4112TIP3    H133827   2.208   3.889  15.511  0.1226  0.1982 -1.1865
 4112TIP3    H233828   2.278   4.006  15.576 -0.0929  0.2902 -1.1212
 4113TIP3   OH233829   1.664   2.276  17.105  0.0870 -0.3845 -0.5245
 4113TIP3    H133830   1.616   2.358  17.095  0.4130 -0.3641 -2.2029
 4113TIP3    H233831   1.749   2.293  17.065  0.6955 -1.0930  0.4509
 4114TIP3   OH233832   4.100   2.004   4.325 -0.0744  0.5297 -0.3064
 4114TIP3    H133833   4.061   1.918   4.307 -0.0331  0.8139 -1.8384
 4114TIP3    H233834   4.193   1.986   4.334  0.0489  0.5005 -1.4589
 4115TIP3   OH233835   4.354   2.512   3.035  0.4027  0.3903  0.5052
 4115TIP3    H133836   4.338   2.423   3.068  1.0827 -0.0383 -0.2829
 4115TIP3    H233837   4.278   2.532   2.982  1.8240 -1.1674 -2.2615
 4116TIP3   OH233838   0.977   4.644  13.702 -0.1239  0.2132  0.4960
 4116TIP3    H133839   0.948   4.594  13.626  0.1798  1.1244 -0.2326
 4116TIP3    H233840   0.925   4.611  13.775  0.4988 -1.5887  0.1497
 4117TIP3   OH233841   5.322   2.708   4.381 -0.2817  0.3201  0.0519
 4117TIP3    H133842   5.229   2.702   4.360 -0.2769  1.5804 -0.3818
 4117TIP3    H233843   5.361   2.754   4.306  0.2374  2.2379  1.4626
 4118TIP3   OH233844   2.798   6.066  15.056  0.3100 -0.6642 -0.4516
 4118TIP3    H133845   2.786   5.973  15.072  0.0035 -0.7463 -1.1627
 4118TIP3    H233846   2.838   6.071  14.969  1.8151 -0.2091  0.2418
 4119TIP3   OH233847   0.672   4.964   4.974  1.0927  0.2160  0.1729
 4119TIP3    H133848   0.687   4.950   4.881 -0.1345 -0.3846  0.0632
 4119TIP3    H233849   0.758   4.990   5.008  1.4588  0.8160 -1.1853
 4120TIP3   OH233850   0.271   4.997  14.590 -0.0156  0.0397 -0.1617
 4120TIP3    H133851   0.351   4.962  14.553  1.1254 -0.5331  2.7398
 4120TIP3    H233852   0.298   5.077  14.636 -1.0828 -0.1881  0.8889
 4121TIP3   OH233853   2.978   6.407   2.792 -0.6316 -0.1757 -0.3093
 4121TIP3    H133854   2.989   6.382   2.701 -1.1573 -2.1036  0.1341
 4121TIP3    H233855   2.941   6.495   2.789 -0.6332 -0.2264 -1.9432
 4122TIP3   OH233856   6.393   0.765  14.076  0.1859  0.0738 -0.0261
 4122TIP3    H133857   6.410   0.737  13.986  0.5270  0.8768 -0.2155
 4122TIP3    H233858   6.316   0.822  14.070  0.4007  0.3831  0.1500
 4123TIP3   OH233859   6.165   2.202  12.412  0.2048 -0.3610 -0.2859
 4123TIP3    H133860   6.088   2.239  12.455  0.3660 -1.9266  1.4112
 4123TIP3    H233861   6.210   2.277  12.374 -1.3253  0.7480  0.0697
 4124TIP3   OH233862   5.173   4.292   3.668 -0.4123 -0.3036  0.0042
 4124TIP3    H133863   5.203   4.378   3.639 -2.0291  0.1800 -0.2665
 4124TIP3    H233864   5.103   4.311   3.730  1.5286 -1.3683  2.5896
 4125TIP3   OH233865   1.530   4.134   5.676 -0.5746  0.3356  0.0302
 4125TIP3    H133866   1.443   4.146   5.714 -0.3378  0.2117  0.6147
 4125TIP3    H233867   1.568   4.222   5.675  0.7359 -0.1267  3.2885
 4126TIP3   OH233868   5.275   4.227   2.052  0.5803 -0.0862  0.0538
 4126TIP3    H133869   5.219   4.161   2.092 -0.1514  0.1759 -0.5229
 4126TIP3    H233870   5.286   4.295   2.119  0.7530 -0.4523  0.3967
 4127TIP3   OH233871   0.984   3.429  13.089  0.1497  0.4064  0.4832
 4127TIP3    H133872   0.911   3.406  13.032  0.4696 -1.4878  0.7883
 4127TIP3    H233873   1.043   3.480  13.034 -0.3652  0.0497 -0.3969
 4128TIP3   OH233874   5.926   5.853   3.144  0.1457 -0.0092 -0.2807
 4128TIP3    H133875   5.885   5.778   3.100 -1.8872  0.9583 -0.1031
 4128TIP3    H233876   5.948   5.913   3.073  0.1575 -0.0040 -0.2727
 4129TIP3   OH233877   1.049   4.169  13.154 -0.3228  0.4375  0.0305
 4129TIP3    H133878   0.982   4.193  13.090 -0.3309 -1.8047 -0.8636
 4129TIP3    H233879   1.013   4.196  13.239 -2.3100 -0.5747 -0.4565
 4130TIP3   OH233880   4.081   3.532  11.587  0.0864 -0.0676  0.2062
 4130TIP3    H133881   4.080   3.498  11.498 -1.0664 -0.9795  0.5541
 4130TIP3    H233882   3.989   3.544  11.609  0.4391  2.5856  0.3775
 4131TIP3   OH233883   6.152   6.359   4.466 -0.0563  0.1536  0.1017
 4131TIP3    H133884   6.076   6.336   4.413 -0.3007 -1.1916  1.0058
 4131TIP3    H233885   6.121   6.430   4.523 -0.6005 -0.2879  0.3634
 4132TIP3   OH233886   0.106   3.339  13.516 -0.1688  0.1707 -0.0462
 4132TIP3    H133887   0.080   3.406  13.580  1.0709  1.3381 -0.7478
 4132TIP3    H233888   0.142   3.269  13.570 -0.6913  0.4186  0.6474
 4133TIP3   OH233889   1.365   6.561   2.202  0.2790  0.2370 -0.1598
 4133TIP3    H133890   1.420   6.553   2.124  0.6429  0.3980  0.0795
 4133TIP3    H233891   1.275   6.557   2.168  0.4371 -0.5068 -0.4958
 4134TIP3   OH233892   1.389   3.507   5.119 -0.6232 -0.0077 -0.3044
 4134TIP3    H133893   1.415   3.512   5.211  0.0199  0.0945 -0.4913
 4134TIP3    H233894   1.446   3.570   5.074  1.1142 -2.2144 -1.2443
 4135TIP3   OH233895   0.008   2.990  11.489  0.2350  0.2502 -0.4655
 4135TIP3    H133896   0.004   2.958  11.399 -0.3465 -0.5335 -0.1673
 4135TIP3    H233897  -0.019   3.082  11.483  0.8089  0.3743 -1.1752
 4136TIP3   OH233898   1.054   2.628  11.102  0.3611 -0.1679  0.3393
 4136TIP3    H133899   1.127   2.576  11.069  0.3974 -0.4133  0.8123
 4136TIP3    H233900   0.996   2.637  11.026  1.4432  1.0401 -0.3707
 4137TIP3   OH233901   5.276   3.169  17.235  0.1706 -0.0076  0.1490
 4137TIP3    H133902   5.207   3.217  17.280  0.1288 -1.0982  1.2458
 4137TIP3    H233903   5.351   3.228  17.237  0.0292  0.1353  1.2087
 4138TIP3   OH233904   1.449   4.861   5.790  0.0572 -0.3857  0.2832
 4138TIP3    H133905   1.450   4.929   5.858 -0.8843  1.9408 -1.9368
 4138TIP3    H233906   1.538   4.860   5.756  0.0048 -0.0599  0.1340
 4139TIP3   OH233907   4.520   0.546   3.616  0.2983  0.4018  0.1612
 4139TIP3    H133908   4.520   0.465   3.565 -0.7330 -0.0950  0.9330
 4139TIP3    H233909   4.526   0.517   3.707 -0.7999  1.1551  0.4863
 4140TIP3   OH233910   1.251   6.411  11.604  0.4334 -0.0427 -0.3369
 4140TIP3    H133911   1.298   6.329  11.616 -0.2317 -0.2615  0.8138
 4140TIP3    H233912   1.159   6.389  11.619  0.4537  1.2994  2.0650
 4141TIP3   OH233913   1.983   4.331   2.491  0.0380 -0.0618 -0.6421
 4141TIP3    H133914   2.049   4.395   2.465 -0.9570  0.9240 -0.7688
 4141TIP3    H233915   1.969   4.278   2.412  1.8723 -1.3364 -0.1242
 4142TIP3   OH233916   2.993   4.187  14.812  0.5171 -0.1014  0.1534
 4142TIP3    H133917   3.059   4.153  14.873  0.2845  0.9476  0.9949
 4142TIP3    H233918   2.915   4.134  14.829  0.4594  0.1791  0.7499
 4143TIP3   OH233919   4.777   4.869  11.723 -0.2210 -0.3351  0.6752
 4143TIP3    H133920   4.764   4.956  11.687  3.0245  0.5544  1.5256
 4143TIP3    H233921   4.694   4.824  11.707 -1.6848  2.6418 -0.4408
 4144TIP3   OH233922   2.124   3.345   0.381 -0.1556  0.0005  0.0082
 4144TIP3    H133923   2.050   3.402   0.361 -0.8923 -0.9133  0.1360
 4144TIP3    H233924   2.138   3.295   0.301 -0.4313 -0.6712  0.3798
 4145TIP3   OH233925   3.825   1.985  16.739  0.0057 -0.4063 -0.0846
 4145TIP3    H133926   3.766   1.922  16.698  0.4865 -0.9919  0.1284
 4145TIP3    H233927   3.808   1.976  16.833 -0.6386  0.4833 -0.1118
 4146TIP3   OH233928   1.815   6.138  14.265 -0.1226 -0.0242 -0.3955
 4146TIP3    H133929   1.897   6.186  14.264 -0.2912  0.3010  0.7999
 4146TIP3    H233930   1.812   6.094  14.180  1.5655 -0.5273 -0.2070
 4147TIP3   OH233931   1.426   3.815  10.757 -0.0037  0.9224 -0.2447
 4147TIP3    H133932   1.412   3.869  10.679 -0.7008  3.6457  1.6924
 4147TIP3    H233933   1.485   3.746  10.728 -2.1934  0.4122 -3.8102
 4148TIP3   OH233934   6.379   6.465  11.672 -0.3129  0.1464 -0.1877
 4148TIP3    H133935   6.463   6.497  11.638  0.3989  1.1884  2.3766
 4148TIP3    H233936   6.403   6.418  11.752 -2.1487  0.2432  0.4361
 4149TIP3   OH233937   3.570   0.278   5.116 -0.3652  0.1169  0.3763
 4149TIP3    H133938   3.646   0.240   5.073 -1.3061 -0.0603 -1.1789
 4149TIP3    H233939   3.563   0.366   5.078 -1.7066 -0.3524 -0.4984
 4150TIP3   OH233940   0.542   6.690  16.789  0.4179  0.2542  0.2893
 4150TIP3    H133941   0.561   6.738  16.709  0.4938 -1.7876 -0.9578
 4150TIP3    H233942   0.577   6.602  16.773  2.5804  0.4241  3.4562
 4151TIP3   OH233943   5.881   5.501  17.037 -0.3405  0.2866  0.3936
 4151TIP3    H133944   5.935   5.527  16.963  1.1748  1.1281  1.7672
 4151TIP3    H233945   5.886   5.575  17.098 -1.6519 -0.3405  1.3068
 4152TIP3   OH233946   6.238   6.673   0.146  0.2578 -0.5037 -0.7438
 4152TIP3    H133947   6.233   6.653   0.052  1.3010 -1.5249 -0.5909
 4152TIP3    H233948   6.150   6.655   0.178 -0.0704 -0.2861 -1.4969
 4153TIP3   OH233949   3.998   2.364  15.629 -0.4132  0.5608 -0.6807
 4153TIP3    H133950   4.014   2.439  15.686 -2.0304  0.4206 -0.0273
 4153TIP3    H233951   4.012   2.288  15.685 -2.7326  0.4293 -0.2536
 4154TIP3   OH233952   0.492   5.752   2.199 -0.0020  0.0412  0.4218
 4154TIP3    H133953   0.549   5.675   2.210 -1.3398 -1.2554 -1.4203
 4154TIP3    H233954   0.538   5.808   2.137  1.4905  1.2821  2.5943
 4155TIP3   OH233955   5.793   3.632  11.826 -0.1318  0.6006  0.0163
 4155TIP3    H133956   5.826   3.639  11.736 -1.9594 -3.6836 -1.1581
 4155TIP3    H233957   5.705   3.670  11.822  0.8909  3.1702  0.8067
 4156TIP3   OH233958   2.706   0.335  17.143 -0.1132  0.2002 -0.2678
 4156TIP3    H133959   2.678   0.421  17.112 -0.7934  0.7329  1.7680
 4156TIP3    H233960   2.631   0.278  17.129 -0.5343  0.5153  0.6904
 4157TIP3   OH233961   4.316   3.648   4.110  0.0430  0.0802  0.0807
 4157TIP3    H133962   4.235   3.617   4.150  0.0625 -0.8559 -0.5784
 4157TIP3    H233963   4.375   3.663   4.183 -0.4578 -0.0094  0.5087
 4158TIP3   OH233964   6.332   4.376   3.391  0.3200 -0.1028  0.4239
 4158TIP3    H133965   6.338   4.355   3.484  0.7098 -0.3303  0.3514
 4158TIP3    H233966   6.367   4.298   3.347 -0.8524 -0.4373  0.0466
 4159TIP3   OH233967   2.419   4.096  13.078 -0.2538  0.2169  0.5689
 4159TIP3    H133968   2.421   4.141  13.163 -0.5105 -1.6379  1.5844
 4159TIP3    H233969   2.463   4.013  13.093  0.5072  0.2416 -1.3676
 4160TIP3   OH233970   1.740   6.053   2.875  0.4275  0.0657  0.1894
 4160TIP3    H133971   1.813   6.105   2.842 -0.5711  1.1985 -0.2520
 4160TIP3    H233972   1.765   6.030   2.965  1.1301  0.7977  0.1806
 4161TIP3   OH233973   4.771   5.527  13.858 -0.1471  0.1695 -0.1077
 4161TIP3    H133974   4.826   5.450  13.868  1.1618  1.2681  1.2808
 4161TIP3    H233975   4.803   5.569  13.778  0.7229  0.5465  0.4351
 4162TIP3   OH233976   4.306   4.228  15.532 -0.4943 -0.1484  0.0718
 4162TIP3    H133977   4.271   4.139  15.541 -0.8457 -0.0152  0.0307
 4162TIP3    H233978   4.229   4.283  15.518 -0.0732 -0.2373 -3.0787
 4163TIP3   OH233979   6.339   4.393   3.689 -0.4156 -0.0472 -0.7773
 4163TIP3    H133980   6.289   4.377   3.769  2.3880  0.5389  1.1298
 4163TIP3    H233981   6.398   4.465   3.711  2.0956 -1.4887 -2.6019
 4164TIP3   OH233982   6.267   2.609   0.412  0.1347  0.0907 -0.6554
 4164TIP3    H133983   6.268   2.592   0.318 -0.5440 -0.4150 -0.5716
 4164TIP3    H233984   6.353   2.580   0.443 -0.1725 -1.0778 -0.8836
 4165TIP3   OH233985   2.355   6.690   2.468 -0.2387 -0.1472 -0.3806
 4165TIP3    H133986   2.387   6.779   2.452  1.4564 -0.4651  0.9871
 4165TIP3    H233987   2.316   6.662   2.386  1.6070  0.8937 -1.6380
 4166TIP3   OH233988   2.157   6.086  13.149 -0.9163  0.1210  0.2302
 4166TIP3    H133989   2.212   6.013  13.121  0.2598  1.2405 -0.4536
 4166TIP3    H233990   2.076   6.076  13.099 -0.5983 -0.4679 -0.1741
 4167TIP3   OH233991   1.199   3.279  13.962  0.1952  0.0594 -0.0050
 4167TIP3    H133992   1.233   3.335  14.031 -0.4157 -0.7248  0.9478
 4167TIP3    H233993   1.112   3.313  13.944  0.6620  0.7695 -0.9761
 4168TIP3   OH233994   2.169   5.860   2.201  0.2414 -0.3161  0.5955
 4168TIP3    H133995   2.179   5.795   2.132  0.2859 -0.3877  0.6693
 4168TIP3    H233996   2.117   5.816   2.268  2.3622 -1.1468  1.7455
 4169TIP3   OH233997   2.366   6.184  10.607 -0.2575  0.1153  0.2227
 4169TIP3    H133998   2.397   6.271  10.630 -0.6451  0.0491  1.0221
 4169TIP3    H233999   2.279   6.178  10.648  0.3301 -1.1467  1.3484
 4170TIP3   OH234000   2.816   4.739   3.742 -0.1032 -0.1613  0.1098
 4170TIP3    H134001   2.818   4.808   3.676 -1.5957  0.6115  0.8466
 4170TIP3    H234002   2.807   4.785   3.825 -2.0286 -1.2786  0.5413
 4171TIP3   OH234003   1.492   3.226  13.959 -0.2878 -0.1146  0.1799
 4171TIP3    H134004   1.544   3.303  13.939 -0.4936  0.0289  0.1978
 4171TIP3    H234005   1.402   3.251  13.937 -0.2090 -0.7294 -0.9001
 4172TIP3   OH234006   2.512   5.871  14.786 -0.2456 -0.0365 -0.0950
 4172TIP3    H134007   2.455   5.902  14.857 -0.5731 -0.8526  0.0077
 4172TIP3    H234008   2.559   5.949  14.757 -0.1462  0.3213  0.9883
 4173TIP3   OH234009   6.092   1.309  12.882  0.1048  0.4683  0.1809
 4173TIP3    H134010   6.060   1.227  12.922  2.6521 -1.3846 -1.4188
 4173TIP3    H234011   6.156   1.342  12.945  1.9194 -0.8690 -0.9139
 4174TIP3   OH234012   2.711   6.692  15.293  0.2746 -0.1709  0.2217
 4174TIP3    H134013   2.676   6.610  15.259  0.8548  0.1450 -1.1584
 4174TIP3    H234014   2.790   6.667  15.340 -0.8509 -0.6807  1.8777
 4175TIP3   OH234015   4.970   0.712   2.106 -0.1502 -0.4830 -0.0692
 4175TIP3    H134016   4.949   0.773   2.035 -3.0958 -2.2139 -0.8021
 4175TIP3    H234017   5.010   0.637   2.062 -1.8764 -1.5112  0.0303
 4176TIP3   OH234018   1.430   6.601   2.464 -0.3352  0.5524  0.0234
 4176TIP3    H134019   1.401   6.583   2.375  0.1129  0.1625 -0.0465
 4176TIP3    H234020   1.472   6.687   2.459 -2.6164  1.7321  0.3861
 4177TIP3   OH234021   5.321   0.795   4.386 -0.4110  0.2428  0.5554
 4177TIP3    H134022   5.293   0.804   4.295  1.0041 -1.4860 -0.0865
 4177TIP3    H234023   5.250   0.833   4.438 -0.7041  2.3161 -1.3118
 4178TIP3   OH234024   4.440   6.723   2.676  0.1139 -0.6486 -0.2377
 4178TIP3    H134025   4.397   6.690   2.754  0.4364  0.0319  0.2314
 4178TIP3    H234026   4.372   6.771   2.629  0.1941 -0.1114  0.1874
 4179TIP3   OH234027   1.015   4.835  12.871  0.2733  0.0193 -0.1330
 4179TIP3    H134028   0.966   4.790  12.940 -0.4275 -0.3012 -0.8457
 4179TIP3    H234029   1.106   4.830  12.901 -0.1511  0.9729  1.3946
 4180TIP3   OH234030   2.014   0.107   0.002 -0.0048  0.2844 -0.0335
 4180TIP3    H134031   1.956   0.174  -0.035 -0.5206 -1.2314 -2.0638
 4180TIP3    H234032   1.961   0.066   0.071 -1.4095 -1.1070 -1.8897
 4181TIP3   OH234033   4.805   5.075   0.217  0.1341  0.2845 -0.0073
 4181TIP3    H134034   4.829   5.011   0.150 -0.3382  3.0664 -2.9953
 4181TIP3    H234035   4.711   5.087   0.206  0.1737  1.2829  0.6881
 4182TIP3   OH234036   6.558   3.890   4.075  0.6390  0.0433 -0.1965
 4182TIP3    H134037   6.524   3.951   4.010  0.4233 -0.5547 -0.6482
 4182TIP3    H234038   6.646   3.924   4.096  0.6136  0.3724 -0.6165
 4183TIP3   OH234039   3.855   2.327   3.036 -0.1622  0.0352  0.2918
 4183TIP3    H134040   3.878   2.259   3.099 -1.5604  0.6820  1.5253
 4183TIP3    H234041   3.825   2.401   3.090 -0.8464  0.7983 -1.1072
 4184TIP3   OH234042   1.323   4.046   3.032  0.0670 -0.0470  0.3941
 4184TIP3    H134043   1.383   3.993   2.979 -0.0647 -0.5325  0.7304
 4184TIP3    H234044   1.322   4.003   3.118 -1.6841 -0.7271  0.0430
 4185TIP3   OH234045   3.711   0.210   2.998  0.1128 -0.0283  0.9446
 4185TIP3    H134046   3.632   0.211   2.943  0.3566  0.0018  0.5925
 4185TIP3    H234047   3.732   0.302   3.011  1.3792 -0.0269 -0.8403
 4186TIP3   OH234048   4.313   1.029  12.735  0.2128  0.1257  0.1684
 4186TIP3    H134049   4.318   1.029  12.830  0.2104  2.0236  0.1709
 4186TIP3    H234050   4.386   0.972  12.708  1.3333  1.0198  1.2490
 4187TIP3   OH234051   1.393   4.232  17.034  0.3362 -0.0906 -0.8602
 4187TIP3    H134052   1.403   4.149  17.080  0.3480  1.4432  2.0009
 4187TIP3    H234053   1.483   4.260  17.015  0.4955  0.8648  1.1854
 4188TIP3   OH234054   4.263   6.464   4.018  0.4442 -0.0682  0.6572
 4188TIP3    H134055   4.177   6.467   4.060  0.3743 -0.7203  0.5677
 4188TIP3    H234056   4.274   6.552   3.981 -1.2038 -0.6480 -1.3451
 4189TIP3   OH234057   6.818   5.942  16.963  0.3588  0.1290  0.0769
 4189TIP3    H134058   6.735   5.895  16.967  0.4832 -0.1325 -0.3857
 4189TIP3    H234059   6.812   6.007  17.033  0.0993 -0.4327  0.5811
 4190TIP3   OH234060   6.436   6.450  13.564  0.1372  0.0518 -0.0245
 4190TIP3    H134061   6.369   6.455  13.496  2.2550 -0.2655 -2.2257
 4190TIP3    H234062   6.483   6.369  13.545  0.3746 -0.3820  2.2510
 4191TIP3   OH234063   6.700   0.499   4.245 -0.1964  0.0367  0.4259
 4191TIP3    H134064   6.782   0.547   4.255 -0.2184  0.0873  0.3610
 4191TIP3    H234065   6.693   0.447   4.325  0.1975 -0.4155  0.1682
 4192TIP3   OH234066   6.711   6.735  12.392  0.4258  0.2355 -0.2500
 4192TIP3    H134067   6.702   6.646  12.426  0.1057  0.4433  0.2237
 4192TIP3    H234068   6.777   6.728  12.323  0.9617 -0.2305  0.3024
 4193TIP3   OH234069   0.935   1.033   5.527  0.3972  0.1636  0.0393
 4193TIP3    H134070   0.935   1.107   5.587  0.4993  1.4969 -1.5541
 4193TIP3    H234071   0.856   0.985   5.548  0.0314  1.0460  0.7082
 4194TIP3   OH234072   2.610   3.216   0.526 -0.2925  0.1867 -0.3822
 4194TIP3    H134073   2.629   3.193   0.436  2.3405 -1.3503  0.5275
 4194TIP3    H234074   2.519   3.189   0.540 -0.6932  0.3920 -2.5198
 4195TIP3   OH234075   3.821   0.367  12.446  0.6442  0.5225 -0.0798
 4195TIP3    H134076   3.776   0.423  12.509  0.7516  0.8467 -0.2901
 4195TIP3    H234077   3.849   0.291  12.497  1.1640  1.0108  0.3715
 4196TIP3   OH234078   6.122   1.156  14.634  0.1148  0.2310  0.2651
 4196TIP3    H134079   6.030   1.150  14.609 -0.1102  0.3267  1.0476
 4196TIP3    H234080   6.170   1.135  14.554 -0.5619  2.6752 -0.8269
 4197TIP3   OH234081   3.582   3.413   3.315  0.6693  0.3344  0.7023
 4197TIP3    H134082   3.633   3.354   3.260  0.6189 -1.1401  2.1941
 4197TIP3    H234083   3.647   3.464   3.362  0.7125  2.9285 -2.0636
 4198TIP3   OH234084   0.584   6.645  12.965 -0.0152 -0.4108  0.3621
 4198TIP3    H134085   0.515   6.606  13.018 -2.0538  0.3828 -1.6083
 4198TIP3    H234086   0.617   6.718  13.017 -2.4046  0.7435  0.3164
 4199TIP3   OH234087   3.153   0.991   1.639  0.7373 -0.3294 -0.1637
 4199TIP3    H134088   3.208   0.988   1.562  0.2532 -1.0674 -0.4814
 4199TIP3    H234089   3.086   0.925   1.624 -0.4321  0.7700  0.0655
 4200TIP3   OH234090   2.442   6.336   4.000 -0.1722 -0.4465 -0.0577
 4200TIP3    H134091   2.389   6.404   3.959  0.0042 -0.0474  0.3712
 4200TIP3    H234092   2.518   6.384   4.035 -0.1735 -0.8289  0.4635
 4201TIP3   OH234093   1.347   2.576  13.804  0.0295  0.2561  0.2699
 4201TIP3    H134094   1.302   2.501  13.766  0.8827 -0.8410  1.3835
 4201TIP3    H234095   1.387   2.542  13.884  1.4653  1.6011  0.1438
 4202TIP3   OH234096   6.046   6.710   0.995  0.2467 -0.0339  0.0504
 4202TIP3    H134097   6.118   6.764   1.028  0.4447 -0.0924 -0.2790
 4202TIP3    H234098   6.073   6.687   0.906  0.0213 -0.4228  0.0822
 4203TIP3   OH234099   2.128   6.271   0.140  0.2641  0.0862  0.0629
 4203TIP3    H134100   2.121   6.273   0.045 -2.7340  0.5162  0.2300
 4203TIP3    H234101   2.181   6.193   0.158  2.1667  0.8597 -1.9742
 4204TIP3   OH234102   4.746   1.494   1.297 -0.9422 -0.4596  0.0168
 4204TIP3    H134103   4.783   1.539   1.222 -0.8192 -0.3260  0.1567
 4204TIP3    H234104   4.676   1.551   1.328  0.2792  0.4417  1.1937
 4205TIP3   OH234105   6.639   1.814  15.945  0.3908 -0.7799 -0.2001
 4205TIP3    H134106   6.578   1.805  15.873  0.4966 -0.3651 -0.3398
 4205TIP3    H234107   6.592   1.780  16.021  0.1562 -0.8917 -0.3959
 4206TIP3   OH234108   6.298   1.426   3.213  0.8029  0.2740  0.5373
 4206TIP3    H134109   6.218   1.455   3.257  1.0133  0.8262  0.5573
 4206TIP3    H234110   6.275   1.422   3.120 -0.5638 -3.8531  0.9383
 4207TIP3   OH234111   2.251   4.702   1.547  0.7543  0.0353  0.4813
 4207TIP3    H134112   2.249   4.692   1.642 -1.8795  0.4896  0.5078
 4207TIP3    H234113   2.296   4.786   1.533  0.1300  0.5309  1.3875
 4208TIP3   OH234114   2.333   0.285  16.651 -0.0114  0.0416  0.0018
 4208TIP3    H134115   2.262   0.228  16.623 -0.1509  1.4664 -2.6887
 4208TIP3    H234116   2.401   0.275  16.584  1.3412  0.5253  1.2504
 4209TIP3   OH234117   5.060   6.659   2.954  0.1054 -0.2439 -0.0159
 4209TIP3    H134118   5.133   6.599   2.937  0.6191  0.4388 -0.2085
 4209TIP3    H234119   4.999   6.643   2.882 -0.7170 -2.0024  1.0240
 4210TIP3   OH234120   6.682   5.924   0.558 -0.1566 -0.1646 -0.3316
 4210TIP3    H134121   6.743   5.852   0.546 -0.1244  0.0897 -1.8857
 4210TIP3    H234122   6.595   5.883   0.555 -0.1350 -0.1602 -1.0863
 4211TIP3   OH234123   2.574   4.582  15.245 -0.1629 -0.0734  0.0702
 4211TIP3    H134124   2.599   4.490  15.240 -0.6963 -0.2904  1.2859
 4211TIP3    H234125   2.528   4.598  15.163  0.5559 -0.6929 -0.4655
 4212TIP3   OH234126   1.245   2.982   2.862 -0.2210  0.2165  0.1727
 4212TIP3    H134127   1.218   2.890   2.865 -0.5878  0.3148 -0.0217
 4212TIP3    H234128   1.164   3.031   2.879 -0.3073  0.5315 -1.0561
 4213TIP3   OH234129   5.799   3.723   4.582  0.2531  0.1848  0.1600
 4213TIP3    H134130   5.781   3.631   4.600 -1.4931  0.5440  0.3573
 4213TIP3    H234131   5.716   3.767   4.601  1.3709  1.9334  1.0639
 4214TIP3   OH234132   1.752   5.826   4.732 -0.2333 -0.3072  0.0863
 4214TIP3    H134133   1.837   5.810   4.692 -0.1193 -0.5615  0.4265
 4214TIP3    H234134   1.693   5.764   4.689  0.0708 -1.1911  0.9287
 4215TIP3   OH234135   2.273   2.792   3.474 -0.3171  0.2610 -0.0281
 4215TIP3    H134136   2.311   2.831   3.553 -0.1975  2.2273 -1.0436
 4215TIP3    H234137   2.349   2.770   3.420 -0.5109  1.5038 -0.8042
 4216TIP3   OH234138   0.877   6.278   1.657 -0.1068 -0.2757 -0.2849
 4216TIP3    H134139   0.958   6.239   1.624  1.0552 -0.0485  2.1894
 4216TIP3    H234140   0.901   6.367   1.683 -1.1737 -0.1414  0.3121
 4217TIP3   OH234141   0.822   2.385  14.646 -0.1267 -0.8245  0.3278
 4217TIP3    H134142   0.831   2.435  14.564  0.1665 -2.4109 -0.6231
 4217TIP3    H234143   0.888   2.423  14.704  0.1066 -0.1080 -0.3845
 4218TIP3   OH234144   0.702   0.649  13.427 -0.1473  0.2110 -0.4674
 4218TIP3    H134145   0.672   0.578  13.370 -0.4121  0.3871 -0.5526
 4218TIP3    H234146   0.675   0.729  13.382 -0.4560  0.3507 -0.0444
 4219TIP3   OH234147   3.974   5.531  15.590 -0.2880  0.6999  0.1655
 4219TIP3    H134148   3.970   5.626  15.603  0.1342  0.6848  0.4342
 4219TIP3    H234149   3.946   5.495  15.674  0.2756  0.5933  0.3143
 4220TIP3   OH234150   5.184   3.841  12.721  0.0026  0.1835 -0.2658
 4220TIP3    H134151   5.177   3.806  12.810 -0.3637  0.8371 -0.0333
 4220TIP3    H234152   5.267   3.807  12.688 -1.5122 -2.9879 -0.9590
 4221TIP3   OH234153   5.595   5.118   2.350 -0.4376 -0.0022 -0.3909
 4221TIP3    H134154   5.611   5.120   2.255  1.7213 -0.3395 -0.0466
 4221TIP3    H234155   5.611   5.208   2.378  0.3549 -0.2211 -0.1313
 4222TIP3   OH234156   5.878   6.258  15.856 -0.4691  0.5782 -0.0725
 4222TIP3    H134157   5.803   6.228  15.907  0.0906  0.4381  0.6931
 4222TIP3    H234158   5.876   6.205  15.776 -0.9434  0.2852  0.1319
 4223TIP3   OH234159   5.498   5.128  17.006  0.2322  0.1195 -0.0458
 4223TIP3    H134160   5.451   5.129  16.923 -0.0971 -1.0799  0.1192
 4223TIP3    H234161   5.467   5.205  17.052 -0.5049  0.1161 -0.5319
 4224TIP3   OH234162   6.410   2.453  16.365 -0.1286 -0.3333 -0.0362
 4224TIP3    H134163   6.472   2.384  16.390  0.6373 -0.5014 -2.2811
 4224TIP3    H234164   6.324   2.415  16.384  0.2302 -2.3961 -2.1901
 4225TIP3   OH234165   0.481   2.457  13.519  0.2596  0.4899 -0.3379
 4225TIP3    H134166   0.495   2.453  13.424  0.9664 -0.3397 -0.2054
 4225TIP3    H234167   0.388   2.475  13.529  0.0389 -0.1409 -1.1873
 4226TIP3   OH234168   4.873   0.701  13.881  0.2389 -0.1362  0.2466
 4226TIP3    H134169   4.793   0.700  13.829  0.7652  0.7912 -0.6113
 4226TIP3    H234170   4.843   0.708  13.971 -0.6395  0.7596 -0.1031
 4227TIP3   OH234171   6.766   4.667  14.869  0.9080  0.9851  0.0699
 4227TIP3    H134172   6.691   4.643  14.813  1.4238 -2.1174  0.6102
 4227TIP3    H234173   6.837   4.683  14.807  0.3476  1.8445 -0.3573
 4228TIP3   OH234174   6.071   5.489  14.675 -0.0630 -0.4896 -0.0301
 4228TIP3    H134175   6.086   5.528  14.761 -0.6017  2.4074 -1.1959
 4228TIP3    H234176   6.130   5.536  14.616 -0.4825 -1.6751 -1.4370
 4229TIP3   OH234177   0.418   2.877   1.726 -0.1667 -0.2396 -0.0673
 4229TIP3    H134178   0.408   2.969   1.752  0.2366 -0.3257  0.3967
 4229TIP3    H234179   0.333   2.837   1.747  0.0288 -0.2225  0.7983
 4230TIP3   OH234180   4.210   3.597  15.014 -0.0774 -0.3916 -0.8517
 4230TIP3    H134181   4.118   3.570  15.015  0.1779 -1.4693 -2.9066
 4230TIP3    H234182   4.210   3.680  14.966 -0.1943  0.5644  0.7777
 4231TIP3   OH234183   5.552   5.070  13.151  0.3533  0.1551 -0.2893
 4231TIP3    H134184   5.640   5.044  13.179  0.6906  0.5009 -1.0263
 4231TIP3    H234185   5.495   5.001  13.184  0.1081  2.6974  5.1886
 4232TIP3   OH234186   0.785   4.556   5.286 -0.0257 -0.4204  0.6009
 4232TIP3    H134187   0.836   4.506   5.351 -0.0318 -0.3066  0.6924
 4232TIP3    H234188   0.839   4.633   5.268 -0.1423 -0.3264  0.6579
 4233TIP3   OH234189   0.604   5.491  14.145  0.2440 -0.2139 -0.8857
 4233TIP3    H134190   0.524   5.444  14.122  0.4374 -1.0023  0.0327
 4233TIP3    H234191   0.573   5.570  14.189 -0.0166 -1.4638  1.2570
 4234TIP3   OH234192   2.606   2.311  16.839 -0.1217 -0.0355  0.4595
 4234TIP3    H134193   2.535   2.370  16.863 -0.8057 -0.5142 -0.3896
 4234TIP3    H234194   2.646   2.351  16.762 -0.0546 -0.2477  0.3820
 4235TIP3   OH234195   6.127   5.096   4.613 -0.0167 -0.5887 -0.1756
 4235TIP3    H134196   6.052   5.138   4.571 -0.2823  0.4328  1.3165
 4235TIP3    H234197   6.097   5.074   4.701  1.0841 -1.1944  0.0623
 4236TIP3   OH234198   5.707   4.863  14.295  0.5209 -0.4857  0.0073
 4236TIP3    H134199   5.669   4.878  14.209  0.8272 -0.1778 -0.0713
 4236TIP3    H234200   5.741   4.948  14.322 -0.2903 -0.3970  0.7824
 4237TIP3   OH234201   4.829   5.797   4.362 -0.4523 -0.3775  0.0316
 4237TIP3    H134202   4.736   5.811   4.384 -0.1879  1.8650 -0.2438
 4237TIP3    H234203   4.846   5.856   4.290  1.7461  0.8086  1.4710
 4238TIP3   OH234204   1.971   2.958   6.003 -0.3266 -0.3977  0.0215
 4238TIP3    H134205   1.961   2.912   6.086  1.0402 -0.4011  0.2049
 4238TIP3    H234206   2.039   2.909   5.957 -1.8207 -1.0062 -1.5390
 4239TIP3   OH234207   5.737   5.884   4.523 -0.1331 -0.1210 -0.5341
 4239TIP3    H134208   5.743   5.931   4.440  0.5315 -1.7811 -1.4498
 4239TIP3    H234209   5.668   5.819   4.510 -1.6060  1.0783  0.9868
 4240TIP3   OH234210   2.473   4.121   1.674 -0.1760 -0.4795 -0.1633
 4240TIP3    H134211   2.399   4.167   1.713 -1.4473 -1.2270 -1.6468
 4240TIP3    H234212   2.496   4.054   1.739 -0.5519 -0.0136  0.4614
 4241TIP3   OH234213   5.138   4.170   5.665  0.5796 -0.2854  0.2357
 4241TIP3    H134214   5.231   4.192   5.665  0.4300  0.4343 -1.2794
 4241TIP3    H234215   5.115   4.158   5.757  1.6162  1.8358  0.7778
 4242TIP3   OH234216   2.578   0.072   1.564 -0.3203  0.0400  0.3482
 4242TIP3    H134217   2.553   0.100   1.652 -0.4945  1.5575 -0.1609
 4242TIP3    H234218   2.646   0.007   1.577 -0.3934  0.2155  1.6126
 4243TIP3   OH234219   4.163   4.263  12.914 -0.1321  0.1317 -0.3057
 4243TIP3    H134220   4.128   4.266  12.825  1.3749  0.7193 -0.8843
 4243TIP3    H234221   4.107   4.324  12.963 -1.0008 -0.2356 -0.8209
 4244TIP3   OH234222   1.007   0.658  12.052  0.1232  0.6408 -0.1923
 4244TIP3    H134223   1.087   0.710  12.059  0.2447  0.4694 -0.3126
 4244TIP3    H234224   0.959   0.677  12.132  1.2717 -0.9186  0.8830
 4245TIP3   OH234225   5.274   1.223   1.788  0.0166 -0.4186  0.6297
 4245TIP3    H134226   5.189   1.243   1.829 -0.1423 -1.1439  0.6661
 4245TIP3    H234227   5.331   1.295   1.815 -0.1478 -0.7651  1.9662
 4246TIP3   OH234228   1.129   5.744  17.241  0.2169 -0.8321  0.2934
 4246TIP3    H134229   1.172   5.720  17.323 -1.5943  0.8213  1.7513
 4246TIP3    H234230   1.169   5.686  17.176  1.3886 -2.4405  2.3836
 4247TIP3   OH234231   2.023   6.082  14.092  0.4219 -0.4294  0.0290
 4247TIP3    H134232   2.102   6.033  14.116  1.1322  0.0753 -1.2515
 4247TIP3    H234233   2.055   6.154  14.038 -0.8075  0.4282  0.4270
 4248TIP3   OH234234   4.392   5.455   2.973  0.3035  0.2701 -0.0345
 4248TIP3    H134235   4.317   5.397   2.957  2.2253 -2.1885 -0.5480
 4248TIP3    H234236   4.396   5.461   3.069  0.5105 -1.0521  0.0510
 4249TIP3   OH234237   1.105   5.410   1.965 -0.0820 -0.8159  0.1327
 4249TIP3    H134238   1.069   5.425   2.053  2.0764 -1.4399  1.1689
 4249TIP3    H234239   1.031   5.379   1.913 -1.4970  0.0443  1.6129
 4250TIP3   OH234240   4.582   0.222  15.149  0.6671  0.1983 -0.9339
 4250TIP3    H134241   4.570   0.129  15.167 -0.0370  0.1239 -1.7435
 4250TIP3    H234242   4.518   0.266  15.204  0.3849  0.1390 -1.2100
 4251TIP3   OH234243   4.545   3.707  13.853  0.4951  0.0012  0.1798
 4251TIP3    H134244   4.529   3.748  13.938  1.3072  1.1072 -0.1818
 4251TIP3    H234245   4.636   3.729  13.833  0.3882 -0.4616 -0.8641
 4252TIP3   OH234246   2.583   2.722   0.342 -0.0015  0.0248  0.1660
 4252TIP3    H134247   2.607   2.786   0.410  0.2011 -1.8813  1.9356
 4252TIP3    H234248   2.513   2.670   0.381 -0.7273 -0.3390 -1.5652
 4253TIP3   OH234249   2.942   4.058   1.134  0.1957 -0.1870  0.0812
 4253TIP3    H134250   2.903   4.041   1.219  2.1210 -2.4225  0.5616
 4253TIP3    H234251   3.014   3.996   1.127  1.6452  1.6309 -2.1359
 4254TIP3   OH234252   3.961   6.425  11.318  0.3065  0.2609  0.6345
 4254TIP3    H134253   4.002   6.448  11.234  1.4163 -0.4628  0.9761
 4254TIP3    H234254   3.956   6.508  11.365  0.7243  0.4755  0.3054
 4255TIP3   OH234255   6.799   0.303  12.611 -0.0584  0.2548 -0.0631
 4255TIP3    H134256   6.722   0.358  12.627 -0.8995 -1.1037  0.6775
 4255TIP3    H234257   6.855   0.356  12.555 -0.7367  1.9599  0.8213
 4256TIP3   OH234258   0.943   4.046   4.880  0.2607 -1.1051  0.6074
 4256TIP3    H134259   1.026   4.094   4.871 -0.5558  0.1667 -0.4486
 4256TIP3    H234260   0.967   3.964   4.922  2.1119 -0.9006  0.0082
 4257TIP3   OH234261   6.265   0.280   0.499  0.6971 -0.1864 -0.3033
 4257TIP3    H134262   6.224   0.359   0.535 -1.9644 -1.8544  0.4719
 4257TIP3    H234263   6.333   0.313   0.441  1.3246  2.6394  1.9137
 4258TIP3   OH234264   5.768   6.328  12.991  0.5893  0.0727 -0.1020
 4258TIP3    H134265   5.852   6.312  13.035  1.0169  2.7044  0.1156
 4258TIP3    H234266   5.775   6.418  12.958 -1.3493 -0.3977 -1.9196
 4259TIP3   OH234267   3.507   1.398   4.137  0.2362 -0.2179 -0.1473
 4259TIP3    H134268   3.501   1.450   4.058  0.7172  0.1788  0.0704
 4259TIP3    H234269   3.480   1.310   4.111  2.0289 -0.5048 -1.1621
 4260TIP3   OH234270   4.217   3.455  16.495 -0.4167 -0.1955  0.4226
 4260TIP3    H134271   4.300   3.411  16.479  0.1075  1.1387 -0.5755
 4260TIP3    H234272   4.161   3.429  16.422 -1.3792 -2.2370  1.8306
 4261TIP3   OH234273   2.333   4.577  11.639 -1.2006 -0.2196 -0.1600
 4261TIP3    H134274   2.366   4.566  11.550 -3.0995 -2.5276 -0.6350
 4261TIP3    H234275   2.372   4.659  11.670 -0.0782  0.3110 -2.8903
 4262TIP3   OH234276   1.076   6.551  11.223  0.2748  0.1424 -0.3307
 4262TIP3    H134277   1.103   6.463  11.250  2.1580  0.9964  0.7025
 4262TIP3    H234278   1.123   6.566  11.141 -1.5033 -0.5121 -1.4856
 4263TIP3   OH234279   6.772   0.852   5.610  0.5766  0.1238  0.0543
 4263TIP3    H134280   6.800   0.918   5.673  1.2064 -0.9723  0.9579
 4263TIP3    H234281   6.827   0.776   5.630 -0.4382 -0.8102 -0.6810
 4264TIP3   OH234282   5.916   6.695   2.457  0.5597 -0.6155 -0.3710
 4264TIP3    H134283   5.892   6.624   2.398 -0.5154  0.3297 -1.0867
 4264TIP3    H234284   5.834   6.717   2.502  1.1145 -0.5218  0.6061
 4265TIP3   OH234285   3.331   3.651  14.180  0.1657  0.1301 -0.2438
 4265TIP3    H134286   3.422   3.669  14.203  0.0110 -1.0559  1.3506
 4265TIP3    H234287   3.331   3.559  14.151 -0.7086 -0.2277  0.8437
 4266TIP3   OH234288   1.937   5.660   0.258  0.1966  0.2968 -0.3580
 4266TIP3    H134289   1.896   5.742   0.284 -0.7635  0.0149 -0.9589
 4266TIP3    H234290   1.966   5.675   0.168  0.6991  0.2229 -0.2119
 4267TIP3   OH234291   2.566   4.891   1.328  0.0285 -0.4740  0.0443
 4267TIP3    H134292   2.615   4.815   1.360  0.8716 -0.4804 -1.2572
 4267TIP3    H234293   2.548   4.872   1.236  1.3716  1.4608 -0.6517
 4268TIP3   OH234294   1.894   0.970  16.002 -0.2268  0.4950  0.7714
 4268TIP3    H134295   1.929   0.945  15.917  0.0319  1.8420  0.4693
 4268TIP3    H234296   1.808   1.008  15.982 -1.2550 -1.4083  1.3653
 4269TIP3   OH234297   3.082   0.542   3.997  0.2598  0.6627  0.2057
 4269TIP3    H134298   3.015   0.534   4.065  0.4253 -1.3129  0.1659
 4269TIP3    H234299   3.163   0.515   4.040  0.2282 -1.3892 -0.9626
 4270TIP3   OH234300   5.162   4.817  14.742  0.3699  0.3415  0.2605
 4270TIP3    H134301   5.183   4.788  14.830 -4.9329 -2.5642  0.7452
 4270TIP3    H234302   5.181   4.742  14.686 -1.1332  0.3788 -0.3196
 4271TIP3   OH234303   4.201   1.223   1.691 -0.6456 -0.1548 -0.4833
 4271TIP3    H134304   4.121   1.251   1.736 -0.8079 -1.5035  0.0701
 4271TIP3    H234305   4.262   1.203   1.762  0.0359  0.4215 -0.9025
 4272TIP3   OH234306   6.659   3.593   2.223  0.3947  0.0977 -0.3733
 4272TIP3    H134307   6.630   3.604   2.314  2.0671  0.8065  0.0970
 4272TIP3    H234308   6.734   3.652   2.215  0.5426 -0.3049 -2.0930
 4273TIP3   OH234309   6.180   3.088  12.807  0.2881  0.4921 -0.0063
 4273TIP3    H134310   6.149   3.173  12.776 -0.6752 -0.2179 -0.9967
 4273TIP3    H234311   6.141   3.024  12.747 -2.1209 -0.9717  2.9645
 4274TIP3   OH234312   5.232   2.474  12.071  0.1782 -0.5515 -0.4044
 4274TIP3    H134313   5.138   2.491  12.072  0.1352 -0.6998 -1.3343
 4274TIP3    H234314   5.273   2.556  12.097 -0.1772 -0.2015 -0.9529
 4275TIP3   OH234315   3.032   2.066  16.750 -0.1693 -0.2827  0.4914
 4275TIP3    H134316   2.961   2.083  16.811 -1.8445  0.7523 -1.6594
 4275TIP3    H234317   3.025   1.973  16.728 -1.2992 -0.0306 -0.2317
 4276TIP3   OH234318   4.299   3.788   2.298  0.0484  0.0083  0.0931
 4276TIP3    H134319   4.358   3.862   2.309 -0.7799  0.5060  1.3417
 4276TIP3    H234320   4.250   3.784   2.380  0.1210 -1.9527  0.0674
 4277TIP3   OH234321   6.346   4.448  12.222 -1.0100  0.0594 -0.2183
 4277TIP3    H134322   6.428   4.489  12.249 -0.7519 -0.7149  0.1639
 4277TIP3    H234323   6.372   4.375  12.167 -1.4152 -0.7796  0.6960
 4278TIP3   OH234324   1.850   1.312   5.614 -0.4460  0.0347 -0.4998
 4278TIP3    H134325   1.825   1.219   5.619 -0.7617 -0.0230 -2.7560
 4278TIP3    H234326   1.940   1.314   5.647 -0.2480 -1.1490 -0.9525
 4279TIP3   OH234327   3.601   1.472   0.116  0.1316 -0.3777 -0.1934
 4279TIP3    H134328   3.648   1.390   0.132  0.8423 -0.3284 -1.9118
 4279TIP3    H234329   3.512   1.445   0.096  0.1073 -0.6564  0.2717
 4280TIP3   OH234330   5.730   5.915   4.250  0.4715  0.4316 -0.1256
 4280TIP3    H134331   5.807   5.901   4.194  1.8868  0.0748  1.8358
 4280TIP3    H234332   5.691   5.996   4.217  2.3940  1.2755 -0.4193
 4281TIP3   OH234333   2.794   4.127  15.903  0.0983 -0.4940  0.1501
 4281TIP3    H134334   2.698   4.134  15.907  0.1099 -0.5722  0.5132
 4281TIP3    H234335   2.814   4.135  15.809 -0.1488  1.0065  0.2157
 4282TIP3   OH234336   1.823   5.200  16.988  0.5569  0.3169 -0.5148
 4282TIP3    H134337   1.911   5.228  16.963 -0.4670  1.1208 -3.4495
 4282TIP3    H234338   1.765   5.246  16.927 -1.7069 -2.3647 -0.4784
 4283TIP3   OH234339   6.343   2.411  14.318  0.5564  0.2423  0.3654
 4283TIP3    H134340   6.269   2.384  14.264  1.1780 -2.1086  0.6585
 4283TIP3    H234341   6.302   2.452  14.395 -0.4843 -1.3818  0.7075
 4284TIP3   OH234342   1.926   2.606   6.048 -0.5824 -0.1848  0.2844
 4284TIP3    H134343   1.957   2.696   6.048 -0.2599 -0.2946 -0.3957
 4284TIP3    H234344   1.982   2.561   6.111  1.0414 -0.5206 -1.3918
 4285TIP3   OH234345   5.891   3.429  11.984 -0.3219 -0.4393  0.9226
 4285TIP3    H134346   5.825   3.371  11.945 -1.1876  0.5264  0.9186
 4285TIP3    H234347   5.871   3.515  11.948  1.4886 -0.2692  0.2532
 4286TIP3   OH234348   1.311   4.940  11.892  0.6492 -0.0349 -0.1799
 4286TIP3    H134349   1.232   4.925  11.841  1.0595 -0.7431 -0.6074
 4286TIP3    H234350   1.282   4.993  11.967  0.1364  1.4803 -1.4240
 4287TIP3   OH234351   3.621   1.206   1.067  0.2799  0.6598 -0.2432
 4287TIP3    H134352   3.561   1.218   0.993  4.2313  3.0498 -3.3144
 4287TIP3    H234353   3.693   1.154   1.031  1.4577  0.3131  2.4711
 4288TIP3   OH234354   3.554   5.188   3.746  0.2597  0.5058 -1.0241
 4288TIP3    H134355   3.549   5.106   3.796 -0.9465  0.7543 -0.7172
 4288TIP3    H234356   3.630   5.233   3.780  1.4536 -0.8853 -1.8006
 4289TIP3   OH234357   6.024   0.476  13.260  0.5952  0.2347  0.6071
 4289TIP3    H134358   6.073   0.548  13.219  1.8427 -0.3290  1.0860
 4289TIP3    H234359   5.993   0.424  13.186 -0.2431  1.1974  0.2550
 4290TIP3   OH234360   4.107   6.361  15.213  0.5044  0.2853 -0.3454
 4290TIP3    H134361   4.022   6.344  15.173  1.0714 -0.9382 -1.0523
 4290TIP3    H234362   4.096   6.334  15.305  0.7952 -2.1339 -0.9833
 4291TIP3   OH234363   2.274   6.021   1.638  0.9108 -0.5053  0.7865
 4291TIP3    H134364   2.222   5.950   1.674  1.3673 -0.6361  1.1917
 4291TIP3    H234365   2.345   6.033   1.701  0.9823  0.1311  0.5891
 4292TIP3   OH234366   4.432   6.364   0.276 -0.4828  0.3566  0.0023
 4292TIP3    H134367   4.397   6.291   0.327  0.0754  1.0051  1.3234
 4292TIP3    H234368   4.488   6.322   0.210  0.2484 -0.3724  1.0828
 4293TIP3   OH234369   1.150   5.753  11.170 -0.3940 -0.1906 -0.3763
 4293TIP3    H134370   1.198   5.676  11.140 -0.4173  1.2149 -4.1821
 4293TIP3    H234371   1.217   5.808  11.211  0.2083 -0.7457 -0.6104
 4294TIP3   OH234372   3.546   6.382   0.291 -0.0455 -0.4283 -0.3364
 4294TIP3    H134373   3.620   6.412   0.344 -0.0200 -1.1251  0.0253
 4294TIP3    H234374   3.530   6.454   0.230  1.9659 -0.9677 -1.5223
 4295TIP3   OH234375   2.605   6.191   4.538  0.2807 -0.3415 -0.6332
 4295TIP3    H134376   2.566   6.171   4.623  0.5466 -0.1308 -0.4618
 4295TIP3    H234377   2.544   6.155   4.474 -0.7208  0.9313 -0.3967
 4296TIP3   OH234378   0.008   4.283   4.826 -1.1187  0.1712  0.2723
 4296TIP3    H134379  -0.060   4.350   4.837 -0.4367  1.2127 -1.5656
 4296TIP3    H234380   0.036   4.293   4.735  1.1299 -0.5987  0.8591
 4297TIP3   OH234381   1.712   6.669   4.635 -0.3022 -0.2564 -0.2346
 4297TIP3    H134382   1.665   6.751   4.648 -2.6766 -1.6283  0.1406
 4297TIP3    H234383   1.668   6.627   4.561 -0.9303 -2.4215  1.2852
 4298TIP3   OH234384   5.434   3.671  17.175  0.1140 -0.1589  0.3179
 4298TIP3    H134385   5.386   3.664  17.092  0.8168  1.5904 -0.2598
 4298TIP3    H234386   5.388   3.739  17.224  0.7389  0.0377  0.6373
 4299TIP3   OH234387   5.141   4.648  15.343 -0.4034 -0.1194 -0.4823
 4299TIP3    H134388   5.135   4.729  15.292  0.9939 -0.0971 -0.6272
 4299TIP3    H234389   5.075   4.591  15.304 -2.3842  1.3981  0.5107
 4300TIP3   OH234390   1.842   2.393  12.159 -0.3185  0.2743 -0.1941
 4300TIP3    H134391   1.823   2.334  12.232 -1.1581 -0.1864 -0.7814
 4300TIP3    H234392   1.893   2.340  12.098 -1.6784 -0.0743 -1.0529
 4301TIP3   OH234393   1.564   4.868   0.687  0.2461  0.3049  0.0433
 4301TIP3    H134394   1.485   4.888   0.737 -0.5586 -0.5742 -0.8595
 4301TIP3    H234395   1.579   4.775   0.703  0.3595  0.1746 -0.8117
 4302TIP3   OH234396   3.596   3.191   5.017  0.0382  0.1082 -0.4518
 4302TIP3    H134397   3.577   3.184   5.111  5.9409  0.5900  0.9515
 4302TIP3    H234398   3.593   3.284   4.999 -0.9225  0.0269 -0.7686
 4303TIP3   OH234399   1.975   1.271  14.870  0.1361 -0.6630 -0.0960
 4303TIP3    H134400   1.881   1.265  14.884 -0.0376 -0.5676 -1.1805
 4303TIP3    H234401   2.009   1.314  14.949 -0.6657 -1.0638  0.4788
 4304TIP3   OH234402   5.672   2.017   2.502 -0.4197  0.3877 -0.5208
 4304TIP3    H134403   5.664   2.111   2.515  1.4345  0.7298 -1.7409
 4304TIP3    H234404   5.616   1.998   2.427 -0.5556  0.5493 -0.4623
 4305TIP3   OH234405   4.296   5.958   2.383 -0.0196 -0.5529 -0.0117
 4305TIP3    H134406   4.228   5.999   2.329 -0.1481 -1.3095 -0.4191
 4305TIP3    H234407   4.371   5.949   2.325 -0.0766 -1.1419  0.0047
 4306TIP3   OH234408   4.587   3.177   1.648 -0.1757 -0.1391  0.3784
 4306TIP3    H134409   4.534   3.250   1.616  1.6588  0.8010 -0.6026
 4306TIP3    H234410   4.534   3.100   1.633 -1.1710  0.7585 -0.7825
 4307TIP3   OH234411   0.427   1.391  12.496  0.0921  0.3166  0.1082
 4307TIP3    H134412   0.411   1.485  12.503  0.6560  0.3156  1.7179
 4307TIP3    H234413   0.519   1.384  12.471 -0.0847  0.1958 -0.5156
 4308TIP3   OH234414   5.577   1.454  11.012 -0.3713  0.2807  0.2732
 4308TIP3    H134415   5.526   1.501  11.079  0.2819  1.1183  0.1917
 4308TIP3    H234416   5.584   1.517  10.940  0.1431 -0.1115 -0.0146
 4309TIP3   OH234417   5.764   3.248   5.971 -0.3668  0.2262 -0.4720
 4309TIP3    H134418   5.682   3.200   5.958 -0.2572 -0.0013 -0.3152
 4309TIP3    H234419   5.797   3.263   5.882 -0.9711  0.9983 -0.5689
 4310TIP3   OH234420   6.061   3.112  14.593  0.6763  0.3537 -0.2045
 4310TIP3    H134421   6.133   3.053  14.616  2.0271  2.4670  1.2292
 4310TIP3    H234422   6.034   3.150  14.676 -2.7346 -1.0228 -0.6003
 4311TIP3   OH234423   6.427   5.681  13.490  0.2783  0.2488  0.7838
 4311TIP3    H134424   6.360   5.643  13.433  1.7799  0.3152 -1.0872
 4311TIP3    H234425   6.410   5.642  13.576  0.1222 -2.6346 -0.4704
 4312TIP3   OH234426   5.229   4.036   1.174 -0.5911  0.2008 -0.4338
 4312TIP3    H134427   5.139   4.009   1.156  0.1213 -1.8096 -1.2023
 4312TIP3    H234428   5.283   3.970   1.129  1.2581  0.1689  1.7263
 4313TIP3   OH234429   3.140   5.775  11.457 -0.2661 -0.5458 -0.4022
 4313TIP3    H134430   3.109   5.708  11.519 -2.5740 -0.5556 -1.4923
 4313TIP3    H234431   3.104   5.857  11.491  2.3583  0.1616  0.8004
 4314TIP3   OH234432   2.768   2.867   1.834 -0.0373  0.3809  0.3684
 4314TIP3    H134433   2.710   2.853   1.908 -0.6193 -0.5829 -0.2500
 4314TIP3    H234434   2.709   2.886   1.761  0.2888 -2.0528 -0.5992
 4315TIP3   OH234435   1.397   3.178  11.464  0.0956 -0.0194 -0.2545
 4315TIP3    H134436   1.305   3.204  11.459 -0.1668 -1.2181 -2.0984
 4315TIP3    H234437   1.443   3.240  11.408  0.6796  1.5463  1.8710
 4316TIP3   OH234438   0.040   3.289  15.396  0.0244 -0.4434 -0.2548
 4316TIP3    H134439   0.002   3.314  15.480  2.0522 -0.5679  0.7344
 4316TIP3    H234440   0.068   3.372  15.357  1.2061 -0.5913  0.2626
 4317TIP3   OH234441   4.520   3.362  14.644  0.4144 -0.3509  0.2601
 4317TIP3    H134442   4.507   3.292  14.707  0.2749  0.6717  1.3707
 4317TIP3    H234443   4.594   3.332  14.590  1.9960 -0.2658  2.2993
 4318TIP3   OH234444   6.070   1.461  11.557 -0.0260  0.5157  0.4614
 4318TIP3    H134445   6.106   1.506  11.633  1.2769  0.7282 -0.2611
 4318TIP3    H234446   6.093   1.517  11.483 -0.7343  0.0022 -0.1484
 4319TIP3   OH234447   6.556   0.701   2.278  0.8169 -0.4385  0.7213
 4319TIP3    H134448   6.509   0.766   2.226 -0.5103 -2.0225 -0.1323
 4319TIP3    H234449   6.636   0.745   2.306  0.7430  1.0088 -1.2463
 4320TIP3   OH234450   2.280   6.291  15.680 -0.7376 -0.3720  0.2417
 4320TIP3    H134451   2.196   6.323  15.645 -0.0389 -0.0169 -1.1626
 4320TIP3    H234452   2.263   6.276  15.773 -1.6338  2.2651  0.5616
 4321TIP3   OH234453   1.414   4.389  16.662  0.0958  0.2616  0.0236
 4321TIP3    H134454   1.433   4.436  16.743 -1.4582  1.5539 -0.3370
 4321TIP3    H234455   1.346   4.326  16.687  0.8431 -0.5333  0.0887
 4322TIP3   OH234456   0.950   3.874   3.289  1.0478 -0.2838 -0.0492
 4322TIP3    H134457   0.915   3.789   3.261  1.2374 -0.9561  1.7053
 4322TIP3    H234458   0.908   3.937   3.230 -2.1713 -1.2025  1.1482
 4323TIP3   OH234459   6.201   4.137  11.143  0.1304  0.4477 -0.1195
 4323TIP3    H134460   6.245   4.156  11.060 -1.2456  0.9798 -0.7314
 4323TIP3    H234461   6.180   4.223  11.179 -1.9700  0.1773 -0.6720
 4324TIP3   OH234462   5.132   0.993  10.892 -0.4871  0.2623  0.0561
 4324TIP3    H134463   5.077   0.946  10.954  1.0666 -0.4946  0.8912
 4324TIP3    H234464   5.206   1.024  10.944  0.7952 -0.3066 -1.3788
 4325TIP3   OH234465   2.741   4.694   2.302 -0.0558 -0.1252  0.3439
 4325TIP3    H134466   2.674   4.748   2.343 -0.2690  0.3357 -0.5948
 4325TIP3    H234467   2.709   4.679   2.213  0.8954 -0.2382  0.0089
 4326TIP3   OH234468   4.360   2.221   4.321  0.5257 -0.0050  0.1509
 4326TIP3    H134469   4.277   2.269   4.317  0.3890 -0.2214  0.3864
 4326TIP3    H234470   4.426   2.289   4.330  0.1190  0.0196  3.3219
 4327TIP3   OH234471   2.902   1.500   0.190 -0.2952  0.2686  0.3309
 4327TIP3    H134472   2.814   1.535   0.173 -0.1827 -0.8798 -3.1153
 4327TIP3    H234473   2.957   1.577   0.202 -1.3282  1.0705 -0.0413
 4328TIP3   OH234474   3.740   5.845  16.391 -0.0591  0.1427 -0.1604
 4328TIP3    H134475   3.686   5.876  16.464 -0.8435  0.5148 -0.8999
 4328TIP3    H234476   3.718   5.903  16.318  3.1093  1.8707  0.1692
 4329TIP3   OH234477   6.123   3.741  11.395 -0.2566  0.2395 -0.5626
 4329TIP3    H134478   6.127   3.654  11.355  1.8793 -0.7574  1.6703
 4329TIP3    H234479   6.194   3.789  11.354  0.1031  0.1414 -0.0570
 4330TIP3   OH234480   5.740   2.903  14.291 -0.5432  0.2614  0.2440
 4330TIP3    H134481   5.777   2.968  14.350 -0.1022 -0.4016  0.7153
 4330TIP3    H234482   5.774   2.819  14.324 -2.0734 -0.3233  0.4129
 4331TIP3   OH234483   5.972   5.520  13.017  0.1296  0.1475  0.3667
 4331TIP3    H134484   5.966   5.477  13.103  2.3465  0.3740  0.6639
 4331TIP3    H234485   5.901   5.585  13.018 -0.0325 -0.0301  1.9213
 4332TIP3   OH234486   0.401   2.978   2.208 -0.3877 -0.9087 -0.4764
 4332TIP3    H134487   0.481   2.996   2.158  0.4490 -1.3651  0.6550
 4332TIP3    H234488   0.363   2.901   2.166  0.1652 -1.1282 -0.5877
 4333TIP3   OH234489   3.501   1.187  15.520  0.2415  0.3783  0.1605
 4333TIP3    H134490   3.509   1.269  15.569 -0.8304  0.6078 -0.0452
 4333TIP3    H234491   3.479   1.214  15.431  0.6882 -0.1064 -0.1036
 4334TIP3   OH234492   5.059   6.485  17.262  0.9221  0.4437  0.2643
 4334TIP3    H134493   4.988   6.488  17.326  0.4080  0.0971 -0.2891
 4334TIP3    H234494   5.034   6.415  17.201  0.9100  1.4373 -0.9019
 4335TIP3   OH234495   5.922   6.114   5.895 -0.1438 -0.2160  0.1800
 4335TIP3    H134496   5.932   6.125   5.990 -2.4148  0.3156  0.3848
 4335TIP3    H234497   5.827   6.108   5.882  0.0680  1.1112 -2.2023
 4336TIP3   OH234498   6.655   4.698   0.572 -0.0484  0.2704 -0.6615
 4336TIP3    H134499   6.570   4.722   0.537 -0.0324 -2.5624 -2.7990
 4336TIP3    H234500   6.706   4.779   0.571 -1.8486  1.4026 -1.9047
 4337TIP3   OH234501   6.648   2.098  10.888 -0.6157  0.1378 -0.0606
 4337TIP3    H134502   6.659   2.164  10.820 -0.1542  0.8125  0.6629
 4337TIP3    H234503   6.588   2.137  10.951  0.9072  0.5280  1.1898
 4338TIP3   OH234504   2.957   0.799  15.408  0.2549 -0.2187 -0.3990
 4338TIP3    H134505   2.984   0.711  15.435 -0.2036  0.2117  1.5292
 4338TIP3    H234506   3.029   0.831  15.353  1.1200 -1.2063  0.1535
 4339TIP3   OH234507   1.786   3.817   2.781  0.4605 -0.1171 -0.1670
 4339TIP3    H134508   1.762   3.782   2.695  2.9595 -0.6635 -0.6968
 4339TIP3    H234509   1.727   3.773   2.842 -0.2718 -0.9381 -1.4341
 4340TIP3   OH234510   4.983   6.370   0.448  0.2846 -0.4717  0.0268
 4340TIP3    H134511   4.955   6.459   0.426 -1.0042 -0.5429  1.3363
 4340TIP3    H234512   5.064   6.382   0.498 -0.9892  0.0991  2.0164
 4341TIP3   OH234513   6.620   1.351  15.854  0.5270 -0.9289 -0.0902
 4341TIP3    H134514   6.555   1.313  15.913 -0.7148  1.3940  0.0661
 4341TIP3    H234515   6.581   1.344  15.767 -0.2234  0.9684  0.0659
 4342TIP3   OH234516   3.192   1.393  11.342  0.3831 -0.1799  0.2116
 4342TIP3    H134517   3.140   1.473  11.349 -0.0603 -0.5062  0.6685
 4342TIP3    H234518   3.179   1.364  11.251 -0.4242 -0.3874  0.3870
 4343TIP3   OH234519   2.992   5.183  12.959  0.5113  0.1367 -0.7999
 4343TIP3    H134520   3.043   5.218  12.886 -0.6453  0.4525 -1.4607
 4343TIP3    H234521   2.932   5.254  12.983  1.4311  0.3481  1.0073
 4344TIP3   OH234522   5.782   0.766  17.127 -0.1913  0.3178 -0.6501
 4344TIP3    H134523   5.689   0.745  17.112  0.4459 -2.4624 -0.8806
 4344TIP3    H234524   5.823   0.682  17.147  2.3866  1.4489 -0.9985
 4345TIP3   OH234525   6.213   6.005  14.241 -0.5070  0.1177 -0.5977
 4345TIP3    H134526   6.196   6.098  14.222 -2.2869 -0.4916 -2.1075
 4345TIP3    H234527   6.130   5.972  14.273 -0.2282 -1.2919 -1.3257
 4346TIP3   OH234528   5.666   6.666  13.192  0.3434  0.0706 -0.4293
 4346TIP3    H134529   5.636   6.757  13.202  0.2589  0.0554 -0.5339
 4346TIP3    H234530   5.720   6.650  13.269  0.2921  0.1835 -0.3682
 4347TIP3   OH234531   0.820   5.941   4.300 -0.4474  0.4951  1.1507
 4347TIP3    H134532   0.910   5.961   4.274 -0.4763  0.2418  0.8524
 4347TIP3    H234533   0.829   5.884   4.377 -0.3510  0.0568  0.8118
 4348TIP3   OH234534   5.366   3.686  15.178  0.6239  0.0515 -0.1255
 4348TIP3    H134535   5.351   3.613  15.237 -1.2163  0.7460  0.3084
 4348TIP3    H234536   5.413   3.751  15.231 -1.7995  1.0341  0.8895
 4349TIP3   OH234537   0.810   2.054  14.843  0.2408 -0.5153  0.2480
 4349TIP3    H134538   0.754   2.070  14.919  0.5244 -3.7253  1.2449
 4349TIP3    H234539   0.853   1.970  14.863  0.2096 -1.5097 -3.4978
 4350TIP3   OH234540   1.464   5.877   1.366 -0.0893 -0.0483 -0.3331
 4350TIP3    H134541   1.425   5.861   1.280 -0.5975  1.5062 -0.3993
 4350TIP3    H234542   1.476   5.972   1.370  0.3545 -0.1532  1.1376
 4351TIP3   OH234543   6.176   5.057   5.544  0.0717  0.2763 -0.2230
 4351TIP3    H134544   6.129   5.007   5.477 -1.9310  1.0366  0.5798
 4351TIP3    H234545   6.130   5.037   5.625  1.2186  0.9589  0.6096
 4352TIP3   OH234546   1.594   0.762   3.108 -0.2271  0.1301  0.9783
 4352TIP3    H134547   1.582   0.700   3.036 -1.2229  1.0907  0.2992
 4352TIP3    H234548   1.521   0.824   3.099  0.5103  1.1529  1.8883
 4353TIP3   OH234549   3.438   6.130   0.562 -0.5164 -0.6068  0.2211
 4353TIP3    H134550   3.420   6.037   0.548 -1.8694 -0.2620 -0.4197
 4353TIP3    H234551   3.361   6.175   0.527 -0.2500  0.7130  1.2901
 4354TIP3   OH234552   0.385   0.848  11.020 -0.1727  0.3464  0.0308
 4354TIP3    H134553   0.439   0.924  11.039  0.6875 -0.3363  0.3203
 4354TIP3    H234554   0.379   0.801  11.103  0.1890 -0.4663 -0.3953
 4355TIP3   OH234555   3.736   6.077  14.021  0.8340  0.8281  0.3857
 4355TIP3    H134556   3.757   6.164  13.988  0.3052  0.4877 -0.8690
 4355TIP3    H234557   3.732   6.022  13.943 -0.4222  0.0018  1.0132
 4356TIP3   OH234558   5.497   4.474   5.424  0.8495  0.0241 -0.2881
 4356TIP3    H134559   5.445   4.410   5.376 -0.4337  0.3505  0.6384
 4356TIP3    H234560   5.564   4.423   5.468 -0.1515 -0.7069  0.4246
 4357TIP3   OH234561   4.187   1.133   3.021 -0.1564 -0.2008 -0.7798
 4357TIP3    H134562   4.259   1.191   3.045 -0.6047 -0.8161  2.3159
 4357TIP3    H234563   4.108   1.183   3.042 -0.5560 -1.5448  1.0319
 4358TIP3   OH234564   1.253   2.451   5.749  0.0818 -0.5794  0.1371
 4358TIP3    H134565   1.305   2.377   5.718  0.2760 -0.1909 -0.4715
 4358TIP3    H234566   1.185   2.411   5.803 -0.6961 -1.3340 -1.3758
 4359TIP3   OH234567   3.119   0.351  11.382 -0.2664 -0.2716 -0.8427
 4359TIP3    H134568   3.198   0.306  11.353  1.0746  0.3900  1.7070
 4359TIP3    H234569   3.143   0.444  11.381 -0.5989 -0.1490  1.1036
 4360TIP3   OH234570   6.349   1.737   2.103 -0.3973 -0.1936 -0.3125
 4360TIP3    H134571   6.290   1.664   2.085 -1.1802  0.5915 -0.9790
 4360TIP3    H234572   6.381   1.721   2.192 -2.0511 -0.3387  0.2667
 4361TIP3   OH234573   2.062   4.275   3.408 -0.2887 -0.3126 -0.3710
 4361TIP3    H134574   2.092   4.301   3.496  1.2823  1.7461 -1.4614
 4361TIP3    H234575   1.967   4.264   3.418 -0.3096  1.0378  1.3473
 4362TIP3   OH234576   5.781   5.580  14.775  0.0830  0.4010  0.3627
 4362TIP3    H134577   5.803   5.504  14.828  0.3675  0.8562  0.9042
 4362TIP3    H234578   5.820   5.654  14.822 -1.7482  1.0948  0.8169
 4363TIP3   OH234579   5.354   3.045  12.570  0.1015  0.4843  0.2294
 4363TIP3    H134580   5.367   2.967  12.624  0.9535  1.1992  1.0846
 4363TIP3    H234581   5.265   3.074  12.590 -0.8370 -1.1933 -1.3423
 4364TIP3   OH234582   1.776   6.175   1.957  0.2917  0.4509  0.1069
 4364TIP3    H134583   1.742   6.255   1.998 -0.1573  0.1248  0.3628
 4364TIP3    H234584   1.855   6.154   2.007 -0.0353  0.2778  0.5510
 4365TIP3   OH234585   4.632   5.398  10.690  0.0045  0.0907 -0.8946
 4365TIP3    H134586   4.698   5.365  10.751  0.0313  0.8951 -0.4845
 4365TIP3    H234587   4.575   5.453  10.744 -0.4763  0.1144 -1.4254
 4366TIP3   OH234588   2.252   2.774  12.794 -0.2783 -0.1814  0.5592
 4366TIP3    H134589   2.324   2.749  12.851  0.6746  0.1634 -0.4787
 4366TIP3    H234590   2.290   2.777  12.706 -1.5648 -0.0571 -0.0149
 4367TIP3   OH234591   4.976   2.692   0.339 -0.1659 -0.0740 -0.0489
 4367TIP3    H134592   4.887   2.664   0.362  0.1275 -3.1991 -2.3636
 4367TIP3    H234593   5.031   2.660   0.411 -0.5757 -0.5371  0.0600
 4368TIP3   OH234594   1.672   0.717  16.485  0.1971 -0.4763 -0.3117
 4368TIP3    H134595   1.766   0.728  16.500  0.2528  0.7379 -1.5818
 4368TIP3    H234596   1.651   0.774  16.412 -1.1502 -2.2977 -1.4069
 4369TIP3   OH234597   4.319   1.740   5.355 -0.4841 -0.2174  0.9672
 4369TIP3    H134598   4.366   1.695   5.426  2.8026  2.7665  0.8505
 4369TIP3    H234599   4.276   1.814   5.399 -1.0000 -0.1102  0.2826
 4370TIP3   OH234600   3.330   2.615   5.252 -0.0527 -0.3076  0.0496
 4370TIP3    H134601   3.370   2.650   5.172  1.8672 -0.4295  0.9248
 4370TIP3    H234602   3.372   2.529   5.264 -1.0416 -0.7174  0.6643
 4371TIP3   OH234603   2.149   1.128  16.041 -0.5957  0.4126  0.2631
 4371TIP3    H134604   2.197   1.103  15.962 -1.0663 -0.4594  0.2568
 4371TIP3    H234605   2.057   1.124  16.016 -0.8272 -1.8053  1.4158
 4372TIP3   OH234606   5.330   0.808  13.661  0.2997 -0.2905  0.3177
 4372TIP3    H134607   5.402   0.760  13.702 -0.1055 -0.3053  1.0330
 4372TIP3    H234608   5.296   0.863  13.732  0.1194  0.3091 -0.2282
 4373TIP3   OH234609   3.262   4.661   2.862 -0.3327 -0.1582 -0.5115
 4373TIP3    H134610   3.251   4.727   2.930 -1.2292 -0.3128 -0.5056
 4373TIP3    H234611   3.357   4.645   2.860  0.0975  2.3997 -1.7431
 4374TIP3   OH234612   3.961   5.912   0.270  0.3043  0.6326  0.4183
 4374TIP3    H134613   3.874   5.915   0.310 -0.7595  0.7142 -1.8243
 4374TIP3    H234614   3.947   5.869   0.186  2.1189  2.2815 -0.7637
 4375TIP3   OH234615   3.530   4.103   2.843 -0.0697  0.4849  0.2702
 4375TIP3    H134616   3.530   4.012   2.873  2.6209  0.2105 -0.4162
 4375TIP3    H234617   3.438   4.125   2.832 -0.7762 -1.9589  1.0600
 4376TIP3   OH234618   4.237   4.586  12.805  0.2614 -0.3170 -0.3806
 4376TIP3    H134619   4.166   4.597  12.742  1.0278 -1.7860 -1.5228
 4376TIP3    H234620   4.210   4.511  12.858  0.2539  0.0706  0.1705
 4377TIP3   OH234621   3.796   1.855   0.378 -0.1997 -0.0577 -0.3059
 4377TIP3    H134622   3.820   1.856   0.470  4.1502 -1.7011 -1.2676
 4377TIP3    H234623   3.802   1.762   0.352  2.5255  0.7493 -2.9989
 4378TIP3   OH234624   5.538   6.571  13.456  0.4454 -0.7097 -0.5061
 4378TIP3    H134625   5.480   6.601  13.526  0.0689 -1.3888 -0.5196
 4378TIP3    H234626   5.610   6.527  13.501  0.7896 -0.1430 -0.5023
 4379TIP3   OH234627   2.258   1.998  11.936 -0.2224  0.3528 -0.1334
 4379TIP3    H134628   2.260   1.912  11.977 -2.9645  1.1624  1.8607
 4379TIP3    H234629   2.345   2.008  11.897  0.1326 -3.2900 -0.4281
 4380TIP3   OH234630   5.683   0.062   4.220  0.0892  0.4988 -0.6484
 4380TIP3    H134631   5.628   0.036   4.293 -0.5138 -1.0280 -1.6202
 4380TIP3    H234632   5.699   0.155   4.234  0.3951  0.1310  1.6845
 4381TIP3   OH234633   3.531   0.501   2.668 -0.1206  0.5669  0.2731
 4381TIP3    H134634   3.618   0.540   2.659 -0.0742 -0.0269 -2.1628
 4381TIP3    H234635   3.536   0.419   2.620 -1.7394  0.0370  0.9682
 4382TIP3   OH234636   2.851   2.054   3.134 -0.4026 -0.3184  0.1697
 4382TIP3    H134637   2.834   2.001   3.211 -0.1152 -1.4140 -0.5090
 4382TIP3    H234638   2.946   2.046   3.120 -0.1880  1.1729  0.6310
 4383TIP3   OH234639   6.217   3.007   2.141  0.3144  0.4203  0.4022
 4383TIP3    H134640   6.209   2.917   2.109  2.0201  0.0584  0.9463
 4383TIP3    H234641   6.269   3.052   2.075  0.1413  0.8006  0.5249
 4384TIP3   OH234642   4.138   5.800   3.748 -0.2235 -0.0934 -0.4664
 4384TIP3    H134643   4.085   5.740   3.695 -1.8384 -0.1860  1.2129
 4384TIP3    H234644   4.178   5.744   3.815  0.4520  0.2879 -0.5479
 4385TIP3   OH234645   6.669   6.775   5.786  0.2984  0.0024  0.5527
 4385TIP3    H134646   6.657   6.870   5.787  0.1959  0.0405 -1.5035
 4385TIP3    H234647   6.675   6.751   5.878  0.1472  1.9785  1.1153
 4386TIP3   OH234648   2.855   0.722   0.158 -0.0128 -0.4631 -0.3693
 4386TIP3    H134649   2.918   0.726   0.086 -0.2914 -2.0493 -0.7165
 4386TIP3    H234650   2.819   0.633   0.154 -1.5099  0.0788  0.4702
 4387TIP3   OH234651   5.133   5.249  15.902 -0.5928  0.2305  0.1754
 4387TIP3    H134652   5.041   5.257  15.875 -0.1995  0.5409 -1.0625
 4387TIP3    H234653   5.166   5.338  15.901  0.6221 -0.2111 -2.5677
 4388TIP3   OH234654   4.062   6.181  16.180  0.0089  0.3757 -0.1701
 4388TIP3    H134655   4.135   6.241  16.194 -0.6539  0.8590  1.2613
 4388TIP3    H234656   3.995   6.209  16.242 -1.0689 -0.6065 -0.8666
 4389TIP3   OH234657   0.766   1.581  13.606 -0.1036  0.1062  0.1317
 4389TIP3    H134658   0.674   1.571  13.580  0.4396  0.0832 -1.9179
 4389TIP3    H234659   0.777   1.521  13.680 -1.1482 -1.7580 -1.1638
 4390TIP3   OH234660   4.758   5.068  11.937  0.2854  0.4664 -0.0564
 4390TIP3    H134661   4.817   5.042  12.007  0.5634  1.5757  0.1423
 4390TIP3    H234662   4.688   5.003  11.938  0.8688 -0.1518  0.5220
 4391TIP3   OH234663   1.323   3.107   3.351 -0.1340  0.4113  0.0018
 4391TIP3    H134664   1.293   3.198   3.352  0.3897  0.5973 -0.7679
 4391TIP3    H234665   1.242   3.055   3.348 -0.4314  0.8482  0.4642
 4392TIP3   OH234666   0.269   0.221   0.734  0.3521  0.3095 -0.1997
 4392TIP3    H134667   0.195   0.259   0.782 -0.9900 -1.0823 -1.1163
 4392TIP3    H234668   0.315   0.167   0.798  0.5386  1.1106  0.3530
 4393TIP3   OH234669   0.051   1.625   3.521 -0.1801  0.4100 -0.0766
 4393TIP3    H134670   0.109   1.621   3.445 -1.3541  1.2228 -1.0253
 4393TIP3    H234671   0.110   1.641   3.595  0.8563  0.7394 -0.9636
 4394TIP3   OH234672   2.985   2.045  13.647 -0.8495  0.0027  0.1967
 4394TIP3    H134673   3.021   2.052  13.559  0.2250 -0.0522  0.6327
 4394TIP3    H234674   2.920   2.116  13.651  0.7720  1.5319  0.1665
 4395TIP3   OH234675   1.825   4.772   1.768  0.1119 -0.3312  0.1781
 4395TIP3    H134676   1.753   4.781   1.705  0.0902  1.7574  0.4536
 4395TIP3    H234677   1.904   4.780   1.715  0.0966  0.6963  0.2899
 4396TIP3   OH234678   2.128   2.563   2.920  0.0170 -0.2022 -0.0925
 4396TIP3    H134679   2.193   2.536   2.986 -0.4388  0.2034  0.5268
 4396TIP3    H234680   2.044   2.549   2.963 -0.2875 -0.1710 -0.6843
 4397TIP3   OH234681   6.605   3.560  12.780 -0.2198  1.1203 -0.2987
 4397TIP3    H134682   6.555   3.641  12.769  0.7959  1.9646  1.2438
 4397TIP3    H234683   6.609   3.547  12.874 -2.1648 -1.8776 -0.5687
 4398TIP3   OH234684   2.476   1.394  10.911 -1.0822  0.0820  0.0161
 4398TIP3    H134685   2.444   1.342  10.985  1.9015  1.9549  2.7877
 4398TIP3    H234686   2.559   1.351  10.887 -0.6156  1.1613 -0.3155
 4399TIP3   OH234687   0.919   5.478  15.120 -0.4646 -0.2703  0.0334
 4399TIP3    H134688   0.844   5.536  15.130 -0.7040 -0.5526 -0.1069
 4399TIP3    H234689   0.988   5.534  15.084  0.2972  0.6557  2.8636
 4400TIP3   OH234690   2.858   2.314  10.652  0.0117  0.1202  0.0120
 4400TIP3    H134691   2.781   2.354  10.692  1.2528  3.0552 -0.4293
 4400TIP3    H234692   2.823   2.244  10.597 -2.1938  0.3975  1.0056
 4401TIP3   OH234693   3.052   5.506   5.887 -0.0538  0.0969 -0.3491
 4401TIP3    H134694   3.143   5.477   5.881 -0.1110  0.1389 -1.6311
 4401TIP3    H234695   3.053   5.596   5.854 -0.6147 -0.0255 -0.7123
 4402TIP3   OH234696   2.502   1.320   1.719  0.6581  0.3076  0.4928
 4402TIP3    H134697   2.459   1.314   1.633 -0.3331  0.3930  0.9721
 4402TIP3    H234698   2.590   1.285   1.705  0.2916 -0.2522 -0.4151
 4403TIP3   OH234699   1.994   4.297  15.373 -0.1206  1.2753  0.9334
 4403TIP3    H134700   2.017   4.380  15.331 -0.5765  0.8678 -0.1491
 4403TIP3    H234701   1.899   4.293  15.367  0.1676 -1.9197 -4.1623
 4404TIP3   OH234702   1.812   6.198   5.495  0.2463 -0.5801 -0.3713
 4404TIP3    H134703   1.885   6.243   5.537 -0.6869 -1.3003  2.0890
 4404TIP3    H234704   1.853   6.141   5.429  1.8559 -0.5898  0.6147
 4405TIP3   OH234705   2.562   2.229   5.295  0.8133 -0.0214 -0.4118
 4405TIP3    H134706   2.652   2.241   5.268  1.3999 -1.9065  0.5781
 4405TIP3    H234707   2.568   2.200   5.386 -0.9180  2.3344  0.5158
 4406TIP3   OH234708   1.783   4.149   3.969  0.3893  0.2244  0.3874
 4406TIP3    H134709   1.724   4.154   4.044  0.4539  0.9040  0.4000
 4406TIP3    H234710   1.869   4.132   4.007  0.1639 -1.0803  0.3475
 4407TIP3   OH234711   0.289   1.650   0.690  0.3621 -0.0452  0.4944
 4407TIP3    H134712   0.380   1.658   0.717  0.2530 -0.0146  0.8542
 4407TIP3    H234713   0.239   1.690   0.761  0.1109  0.5938 -0.0388
 4408TIP3   OH234714   5.428   1.809  11.827 -0.4957 -0.4318 -0.2854
 4408TIP3    H134715   5.380   1.762  11.895 -2.3769  0.4820 -0.9388
 4408TIP3    H234716   5.394   1.898  11.831 -0.7377 -0.3826 -2.4768
 4409TIP3   OH234717   6.346   1.112  14.845  0.0705 -0.1194  0.1465
 4409TIP3    H134718   6.275   1.137  14.786 -2.0397 -2.2064  1.7674
 4409TIP3    H234719   6.354   1.186  14.906  0.9815  1.1929 -1.5078
 4410TIP3   OH234720   5.019   6.530  14.851  0.2932  0.4404 -0.3247
 4410TIP3    H134721   5.098   6.547  14.903 -0.1295  1.7122 -0.0815
 4410TIP3    H234722   5.033   6.578  14.770  0.0434  0.1360 -0.5500
 4411TIP3   OH234723   6.454   1.891   3.205  0.8521 -0.3701  0.2611
 4411TIP3    H134724   6.360   1.909   3.199  0.6056 -1.8049 -0.2711
 4411TIP3    H234725   6.469   1.874   3.298  0.9137  1.5732  0.6241
 4412TIP3   OH234726   5.740   2.159  15.012 -0.8475  0.0948 -0.2181
 4412TIP3    H134727   5.758   2.217  15.086 -1.4771  0.5240 -0.4047
 4412TIP3    H234728   5.735   2.072  15.052  1.7378 -0.0777 -0.1709
 4413TIP3   OH234729   3.730   2.619   5.227  0.1577 -0.0881  0.6982
 4413TIP3    H134730   3.737   2.613   5.322 -1.6873 -0.0708  0.8456
 4413TIP3    H234731   3.789   2.690   5.203  0.4451  0.0708  1.8508
 4414TIP3   OH234732   4.503   2.364  16.634  0.0567  0.7546  0.1499
 4414TIP3    H134733   4.529   2.394  16.547  0.7265  1.5978  0.6414
 4414TIP3    H234734   4.480   2.272  16.621 -3.0959  1.7313 -1.5796
 4415TIP3   OH234735   4.685   6.694  14.320  0.0057 -0.3599 -0.3715
 4415TIP3    H134736   4.592   6.699  14.296  0.4265 -0.3683 -2.0338
 4415TIP3    H234737   4.728   6.658  14.243  1.3633 -0.6635  0.5096
 4416TIP3   OH234738   4.761   5.274   1.416 -0.1822  0.1379 -0.3629
 4416TIP3    H134739   4.768   5.204   1.352  2.7636  0.1656 -0.1643
 4416TIP3    H234740   4.807   5.241   1.493 -0.3159  1.5983  0.3668
 4417TIP3   OH234741   4.952   4.729   2.028 -0.4946  0.4074 -0.2598
 4417TIP3    H134742   5.028   4.707   2.083 -1.1055 -0.4740  0.2343
 4417TIP3    H234743   4.966   4.821   2.006  1.5471 -0.1603 -1.4845
 4418TIP3   OH234744   6.312   5.035   2.402 -0.1607  0.0406 -0.4698
 4418TIP3    H134745   6.226   5.023   2.443  0.1083  2.5758  0.9647
 4418TIP3    H234746   6.374   5.007   2.469  0.1811  0.6723 -0.5199
 4419TIP3   OH234747   5.412   2.509  14.655 -0.3267  0.3839 -0.3797
 4419TIP3    H134748   5.489   2.453  14.670  0.8653  2.0427 -0.1506
 4419TIP3    H234749   5.354   2.456  14.600  0.5394 -1.2636  0.2487
 4420TIP3   OH234750   3.772   3.809   3.903  0.1944 -0.0213  0.2553
 4420TIP3    H134751   3.702   3.864   3.867 -0.9931  0.2810  2.9327
 4420TIP3    H234752   3.813   3.863   3.970  0.7435 -1.4390  1.0776
 4421TIP3   OH234753   4.266   0.046   5.239  0.1601 -0.0581  0.1788
 4421TIP3    H134754   4.177   0.012   5.239  0.6856 -1.5063 -1.1645
 4421TIP3    H234755   4.266   0.114   5.306 -1.8154 -0.3876  0.5387
 4422TIP3   OH234756   4.110   1.985  14.017 -0.0794 -0.5067 -0.3169
 4422TIP3    H134757   4.176   1.917  14.003  1.6168  1.1228 -0.4232
 4422TIP3    H234758   4.045   1.970  13.948 -0.5753 -2.9643  0.6193
 4423TIP3   OH234759   4.315   6.426   2.196 -0.8127  0.1882  0.3489
 4423TIP3    H134760   4.326   6.471   2.280  1.4960  1.2844 -0.4878
 4423TIP3    H234761   4.222   6.435   2.176 -0.8519  2.4955  1.3871
 4424TIP3   OH234762   4.594   2.389   4.307 -0.2894 -0.5414  0.0209
 4424TIP3    H134763   4.623   2.453   4.373 -0.8288 -1.3871  1.0937
 4424TIP3    H234764   4.642   2.309   4.329 -0.0592 -0.6736 -0.9583
 4425TIP3   OH234765   6.542   1.214   5.235 -0.0582 -0.0822 -0.5988
 4425TIP3    H134766   6.637   1.205   5.239 -0.1292 -1.9952 -2.4620
 4425TIP3    H234767   6.528   1.293   5.183  0.5117  0.3750 -0.0610
 4426TIP3   OH234768   2.991   0.439   6.529 -0.2049  0.3406  0.0000
 4426TIP3    H134769   2.977   0.471   6.440 -0.7360  0.2604  0.0545
 4426TIP3    H234770   2.964   0.512   6.586 -2.0882 -0.4371  0.1376
 4427TIP3   OH234771   5.142   3.699   0.113 -0.0256 -0.0397 -0.1329
 4427TIP3    H134772   5.093   3.692   0.032  2.4433 -1.4440 -1.5719
 4427TIP3    H234773   5.172   3.790   0.115 -0.4651  0.1166 -0.5744
 4428TIP3   OH234774   0.480   2.638   0.617  0.0190  0.0953 -0.2394
 4428TIP3    H134775   0.430   2.566   0.578 -0.7496  1.4171 -1.7446
 4428TIP3    H234776   0.416   2.686   0.671  0.6355 -0.5887  1.1380
 4429TIP3   OH234777   5.456   4.141   0.451 -0.0006  0.6493  0.3773
 4429TIP3    H134778   5.410   4.059   0.431 -1.7459  1.3549  1.4226
 4429TIP3    H234779   5.549   4.118   0.446 -0.4605 -1.1278 -0.4335
 4430TIP3   OH234780   3.223   4.578  13.946 -0.1294 -0.1016  0.8197
 4430TIP3    H134781   3.279   4.503  13.926  0.0847  0.0194  0.9679
 4430TIP3    H234782   3.148   4.540  13.993 -0.8543 -0.4436 -0.5987
 4431TIP3   OH234783   3.305   2.075   1.931  0.2861  0.2013  0.2167
 4431TIP3    H134784   3.363   1.998   1.928 -1.3683 -1.0891  0.6494
 4431TIP3    H234785   3.251   2.061   2.009  0.5940  2.2911  0.8405
 4432TIP3   OH234786   3.071   1.724  12.989  0.5339  0.1991 -0.4331
 4432TIP3    H134787   3.131   1.786  13.029  0.4485 -0.1557  0.2388
 4432TIP3    H234788   3.071   1.748  12.896  0.6904  1.0452 -0.2188
 4433TIP3   OH234789   4.590   1.738   3.107  0.2358 -0.7410  0.1030
 4433TIP3    H134790   4.538   1.817   3.116 -1.7726 -1.9610 -0.5044
 4433TIP3    H234791   4.595   1.701   3.195  1.5642  0.2625  0.4725
 4434TIP3   OH234792   6.027   6.402   4.160 -0.1657 -0.4182 -0.3883
 4434TIP3    H134793   6.035   6.310   4.185 -0.2861 -0.6364 -1.1285
 4434TIP3    H234794   6.093   6.414   4.092 -0.0750  0.0697 -0.2146
 4435TIP3   OH234795   6.459   5.372   1.365 -0.5647  0.0047 -0.0411
 4435TIP3    H134796   6.472   5.436   1.296 -1.2557  0.9402  0.6715
 4435TIP3    H234797   6.498   5.292   1.332  0.9996  0.9861 -0.6312
 4436TIP3   OH234798   0.531   0.649  15.240 -0.0414  0.6321  0.0832
 4436TIP3    H134799   0.621   0.617  15.251 -0.0257  0.7479  0.3122
 4436TIP3    H234800   0.476   0.575  15.267 -0.0039  0.8260  0.7157
 4437TIP3   OH234801   0.929   4.403   4.818 -0.1651  0.2798  1.0825
 4437TIP3    H134802   1.024   4.396   4.806 -0.2741  1.4628 -0.6943
 4437TIP3    H234803   0.892   4.378   4.733 -1.4985 -1.0186  2.0060
 4438TIP3   OH234804   5.513   3.314  13.508 -0.3741  0.6953  0.2430
 4438TIP3    H134805   5.558   3.349  13.585 -1.1008  1.9655  0.1049
 4438TIP3    H234806   5.450   3.251  13.544  0.1997  0.3146  0.5860
 4439TIP3   OH234807   2.011   1.902  17.053  0.3443 -0.3836 -0.0409
 4439TIP3    H134808   2.080   1.845  17.086  1.4957  1.2554  0.4229
 4439TIP3    H234809   2.029   1.911  16.959 -0.1574 -1.1865 -0.2243
 4440TIP3   OH234810   6.300   3.587  13.035  0.7143  0.1967  0.1858
 4440TIP3    H134811   6.389   3.613  13.012  0.1415  1.0201 -1.2026
 4440TIP3    H234812   6.261   3.560  12.952 -0.1087 -0.8403  0.9026
 4441TIP3   OH234813   4.892   0.519   0.579 -0.0593  0.3195  0.1883
 4441TIP3    H134814   4.832   0.489   0.510 -0.2633  2.4789 -0.5921
 4441TIP3    H234815   4.836   0.536   0.655 -0.5316  2.6582 -0.6417
 4442TIP3   OH234816   0.605   4.367   3.906  0.8077  0.1031  0.6156
 4442TIP3    H134817   0.563   4.424   3.841 -1.8943 -1.5080  0.8495
 4442TIP3    H234818   0.625   4.287   3.858  1.3230 -0.0605  1.1045
 4443TIP3   OH234819   1.841   1.238  13.130  0.7094  0.4550  0.9443
 4443TIP3    H134820   1.844   1.330  13.103  1.6637  0.0588 -0.3567
 4443TIP3    H234821   1.911   1.229  13.194  1.5831  0.3242 -0.0044
 4444TIP3   OH234822   1.512   4.191  15.697 -0.5660 -0.5909  1.2484
 4444TIP3    H134823   1.531   4.267  15.751 -2.2126  1.1607 -0.5430
 4444TIP3    H234824   1.593   4.174  15.650 -0.2468  0.1791  1.5155
 4445TIP3   OH234825   6.016   6.776  12.607  0.1640  0.3070 -0.1022
 4445TIP3    H134826   6.007   6.776  12.512 -0.5469  0.5833 -0.0357
 4445TIP3    H234827   6.099   6.730  12.623 -0.4549 -1.0918 -0.7927
 4446TIP3   OH234828   1.087   2.633   5.036  0.2975  0.8001 -0.0721
 4446TIP3    H134829   1.084   2.631   5.131  0.0441  2.4936 -0.0274
 4446TIP3    H234830   1.158   2.574   5.012 -0.8693 -1.1296  1.0697
 4447TIP3   OH234831   1.487   0.752   0.028 -0.4356 -0.0128 -0.7452
 4447TIP3    H134832   1.483   0.838  -0.014  2.5802 -0.4690 -2.1632
 4447TIP3    H234833   1.463   0.691  -0.042 -2.5742 -0.3485  0.2621
 4448TIP3   OH234834   2.316   3.490  11.337 -0.2110 -0.5819 -0.1673
 4448TIP3    H134835   2.259   3.434  11.391 -0.1470 -2.4709 -1.9742
 4448TIP3    H234836   2.402   3.484  11.379 -0.3823 -1.2161  0.1121
 4449TIP3   OH234837   4.962   3.279  10.852 -0.0487 -0.1220 -0.5767
 4449TIP3    H134838   5.054   3.279  10.878  0.2473  1.8802 -1.5123
 4449TIP3    H234839   4.963   3.309  10.761 -1.6171 -0.1900 -0.6391
 4450TIP3   OH234840   3.054   4.782   3.397 -0.0870  0.0295  0.1345
 4450TIP3    H134841   3.065   4.687   3.395 -0.0319 -0.0800  2.9275
 4450TIP3    H234842   3.102   4.814   3.321 -0.0578 -2.1600 -0.8107
 4451TIP3   OH234843   5.069   4.311  16.938 -0.5381 -0.3912 -0.0271
 4451TIP3    H134844   4.990   4.270  16.973 -0.4708 -0.2280  0.3173
 4451TIP3    H234845   5.085   4.265  16.855 -0.3112 -1.2367  0.4876
 4452TIP3   OH234846   6.136   2.791  13.418 -0.0694  0.2944 -0.0628
 4452TIP3    H134847   6.172   2.837  13.343  0.8522 -0.4786 -0.1102
 4452TIP3    H234848   6.208   2.787  13.480 -0.3230 -0.5456  0.1830
 4453TIP3   OH234849   3.585   5.606   5.651  0.5670 -0.1411  0.0672
 4453TIP3    H134850   3.676   5.613   5.680  0.6949  0.4266 -0.4806
 4453TIP3    H234851   3.584   5.531   5.592  0.6804 -0.1444  0.0699
 4454TIP3   OH234852   5.697   0.083   3.357  0.2560  0.5644  0.6115
 4454TIP3    H134853   5.625   0.034   3.398 -1.2165  1.0651 -1.3099
 4454TIP3    H234854   5.774   0.028   3.372 -1.3384 -2.3998 -1.4955
 4455TIP3   OH234855   1.778   5.511   4.363 -0.3513  0.0029 -0.3263
 4455TIP3    H134856   1.831   5.568   4.307  0.6222 -0.0025  0.5899
 4455TIP3    H234857   1.825   5.428   4.365  0.0605  0.2568  1.1739
 4456TIP3   OH234858   4.272   3.125   3.728 -0.0728  0.3579 -0.1117
 4456TIP3    H134859   4.243   3.043   3.688 -1.4173  1.1089 -0.7000
 4456TIP3    H234860   4.298   3.180   3.654 -0.1023  0.8119  0.2141
 4457TIP3   OH234861   4.617   1.152   5.324  0.1431  0.1055 -0.2511
 4457TIP3    H134862   4.536   1.108   5.297  0.5058 -0.9949  0.4610
 4457TIP3    H234863   4.686   1.088   5.306  0.6960  0.4639  0.5968
 4458TIP3   OH234864   6.311   0.792  14.399 -0.3300  0.5232  0.0599
 4458TIP3    H134865   6.376   0.776  14.467 -0.5097  1.3445  0.4409
 4458TIP3    H234866   6.345   0.868  14.351 -0.6675  0.5338 -0.1670
 4459TIP3   OH234867   0.775   6.473  11.507 -0.0903  0.1320  0.0472
 4459TIP3    H134868   0.849   6.530  11.488  0.1913 -0.2460  0.0015
 4459TIP3    H234869   0.786   6.399  11.448 -0.5466  0.1135 -0.0133
 4460TIP3   OH234870   0.683   3.792  13.798 -0.1644 -0.4674 -0.7622
 4460TIP3    H134871   0.777   3.773  13.798  0.2286  1.4011 -0.4819
 4460TIP3    H234872   0.670   3.847  13.875 -1.6752 -1.5073 -0.2427
 4461TIP3   OH234873   2.830   1.419   2.139  0.4003 -0.6822 -0.0247
 4461TIP3    H134874   2.901   1.483   2.141 -0.5908  0.4395 -0.0629
 4461TIP3    H234875   2.751   1.472   2.128 -0.6255 -1.7613  1.8271
 4462TIP3   OH234876   3.597   4.766   2.619  0.3744  0.0781  0.1000
 4462TIP3    H134877   3.556   4.699   2.565  0.2746 -0.6367  1.0570
 4462TIP3    H234878   3.576   4.848   2.575  0.2789 -0.4902 -0.9394
 4463TIP3   OH234879   6.404   2.832   5.821 -0.7662 -0.1239  0.0858
 4463TIP3    H134880   6.446   2.890   5.885  2.4072 -2.2727  0.1161
 4463TIP3    H234881   6.437   2.862   5.737 -2.3935  0.6732 -0.2792
 4464TIP3   OH234882   4.872   2.964   4.385  0.7339 -0.0426 -0.6398
 4464TIP3    H134883   4.942   2.914   4.426 -1.1862 -1.4841  0.9483
 4464TIP3    H234884   4.817   2.898   4.343  0.0052  1.0253 -1.3763
 4465TIP3   OH234885   1.452   0.124   0.688  0.7831 -0.2128 -0.1066
 4465TIP3    H134886   1.461   0.083   0.602 -0.2149  1.7158 -1.1596
 4465TIP3    H234887   1.510   0.200   0.685  2.1190 -1.1238  1.5933
 4466TIP3   OH234888   0.347   1.579   4.775 -0.4300  0.3185 -0.3770
 4466TIP3    H134889   0.259   1.609   4.794 -0.1590  1.7623 -1.3578
 4466TIP3    H234890   0.360   1.598   4.682 -0.2941 -2.9496 -1.0912
 4467TIP3   OH234891   5.035   6.094  12.853  0.2354 -0.0408  0.0907
 4467TIP3    H134892   5.019   6.016  12.800  1.0393 -0.9073  1.1041
 4467TIP3    H234893   4.978   6.161  12.815 -0.9311 -1.2915 -0.3913
 4468TIP3   OH234894   4.808   3.142  11.811 -0.0826 -0.3187  0.7061
 4468TIP3    H134895   4.771   3.120  11.725 -1.5091  1.3111  0.8725
 4468TIP3    H234896   4.761   3.087  11.873 -1.7523  1.2282  0.8382
 4469TIP3   OH234897   2.862   0.281   3.970 -0.0617 -0.0017 -0.2332
 4469TIP3    H134898   2.900   0.270   4.057 -0.3487  2.7568  0.2921
 4469TIP3    H234899   2.928   0.247   3.910  1.8720  1.7244  0.8523
 4470TIP3   OH234900   2.507   2.559   4.703 -0.1534  0.3560 -0.1904
 4470TIP3    H134901   2.432   2.617   4.693  0.0448  0.3946 -1.6988
 4470TIP3    H234902   2.573   2.595   4.643  1.1965  0.5120  1.3471
 4471TIP3   OH234903   3.576   2.494  12.884 -0.1167  0.6978  0.0794
 4471TIP3    H134904   3.524   2.574  12.882 -0.4807  0.4604 -0.1873
 4471TIP3    H234905   3.630   2.502  12.963  0.5063  1.6085 -0.4379
 4472TIP3   OH234906   0.136   2.042   5.455  0.5957  0.2567 -0.3042
 4472TIP3    H134907   0.066   2.081   5.508  0.6589  0.6845 -0.5385
 4472TIP3    H234908   0.150   2.104   5.383  1.3487  0.2665 -0.1558
 4473TIP3   OH234909   2.718   0.026  16.762  0.6342  0.1250 -0.0914
 4473TIP3    H134910   2.637  -0.026  16.758  0.2700  0.5567  1.3396
 4473TIP3    H234911   2.759   0.000  16.845 -0.0514  2.7999  1.1502
 4474TIP3   OH234912   2.440   6.561   2.921  0.1111  0.4769  0.3719
 4474TIP3    H134913   2.502   6.531   2.855  1.3814  0.7269  1.4195
 4474TIP3    H234914   2.372   6.494   2.923  1.6422 -1.0859  0.9587
 4475TIP3   OH234915   5.490   2.562  16.318  0.0499 -0.0447 -0.4869
 4475TIP3    H134916   5.498   2.496  16.249 -1.3589 -0.5086 -0.2146
 4475TIP3    H234917   5.579   2.569  16.354  0.6349 -0.3451 -1.8306
 4476TIP3   OH234918   1.470   5.489   5.775  0.3510 -0.5241 -0.2439
 4476TIP3    H134919   1.461   5.412   5.718 -0.3025 -0.4985 -0.1796
 4476TIP3    H234920   1.565   5.497   5.790  0.5721 -0.1634 -1.8107
 4477TIP3   OH234921   0.319   0.888   4.394 -0.1970 -0.0084 -0.6431
 4477TIP3    H134922   0.310   0.868   4.487 -0.3795  0.0564 -0.6470
 4477TIP3    H234923   0.405   0.930   4.386 -0.6691  1.0500 -0.3218
 4478TIP3   OH234924   2.567   2.650  11.842 -0.4962  0.0039 -0.2805
 4478TIP3    H134925   2.598   2.589  11.776  2.2224  0.9373  0.0792
 4478TIP3    H234926   2.644   2.700  11.867 -2.0740  1.6341  1.5179
 4479TIP3   OH234927   1.727   2.257  11.569 -0.4007 -0.2442  0.0096
 4479TIP3    H134928   1.753   2.333  11.518  0.3375 -0.9974 -0.7474
 4479TIP3    H234929   1.783   2.260  11.647  0.1203 -0.3996 -0.3568
 4480TIP3   OH234930   5.345   0.222  13.307 -0.4673 -0.0251  0.6058
 4480TIP3    H134931   5.296   0.239  13.226  0.5999  0.9256  0.1398
 4480TIP3    H234932   5.309   0.285  13.370  0.4610  1.0132  0.1240
 4481TIP3   OH234933   0.961   1.275  11.103 -0.2366 -0.0609 -0.4437
 4481TIP3    H134934   0.898   1.229  11.158  0.0422  0.6414  0.4942
 4481TIP3    H234935   0.910   1.341  11.056 -0.2252  0.4362  0.2345
 4482TIP3   OH234936   0.384   5.597   3.093 -0.0680  0.2639  0.0154
 4482TIP3    H134937   0.459   5.565   3.043  0.0458  2.1309 -1.0685
 4482TIP3    H234938   0.315   5.610   3.027 -1.5791 -2.0090  1.0767
 4483TIP3   OH234939   2.420   1.430  17.047  0.2033  0.1977  0.0144
 4483TIP3    H134940   2.417   1.378  17.128  0.9455 -3.2414 -2.0633
 4483TIP3    H234941   2.329   1.448  17.027 -0.3229 -2.9735 -0.7782
 4484TIP3   OH234942   5.502   2.137  12.879 -0.0339  0.4045 -0.2928
 4484TIP3    H134943   5.464   2.081  12.811 -0.8691 -0.6925  1.0454
 4484TIP3    H234944   5.596   2.134  12.862 -0.2558  0.4454 -1.6142
 4485TIP3   OH234945   0.786   3.809  15.692 -0.0382  0.0965  0.1327
 4485TIP3    H134946   0.703   3.825  15.648  0.7823 -1.3929 -2.0664
 4485TIP3    H234947   0.834   3.891  15.685 -0.4405  0.2699 -0.5703
 4486TIP3   OH234948   2.550   5.023   3.218 -0.1413  0.0870 -0.1616
 4486TIP3    H134949   2.616   4.955   3.235 -0.3176 -0.2066 -0.6507
 4486TIP3    H234950   2.478   5.001   3.278  0.4248  0.7234  0.7642
 4487TIP3   OH234951   2.960   1.708   1.048 -0.0267 -0.0655  0.2779
 4487TIP3    H134952   3.020   1.759   1.101  0.1232 -0.0681  0.1118
 4487TIP3    H234953   2.888   1.686   1.107 -0.1539  0.4464  0.3187
 4488TIP3   OH234954   6.727   4.166   2.644 -0.1696  0.1853 -0.2118
 4488TIP3    H134955   6.726   4.204   2.732  0.9105  1.4863 -0.7359
 4488TIP3    H234956   6.800   4.104   2.646  1.0237  1.5268 -0.6868
 4489TIP3   OH234957   2.839   2.098  15.351  0.3442 -0.1864 -0.3370
 4489TIP3    H134958   2.749   2.129  15.361 -0.3255 -0.5958 -4.3884
 4489TIP3    H234959   2.881   2.163  15.294  1.4106 -2.0863 -1.7728
 4490TIP3   OH234960   4.342   5.036  11.218 -0.5370  0.5767 -0.2826
 4490TIP3    H134961   4.287   5.101  11.263 -0.8662  0.4689 -0.5219
 4490TIP3    H234962   4.312   5.040  11.127 -1.7743 -1.1632  0.0308
 4491TIP3   OH234963   6.743   6.179   1.662 -0.0375 -1.0531 -0.0960
 4491TIP3    H134964   6.814   6.171   1.599 -0.5122 -0.8338 -0.6674
 4491TIP3    H234965   6.774   6.242   1.727  0.4410 -1.2588 -0.1242
 4492TIP3   OH234966   6.332   6.091  12.373 -0.1065  0.0236  0.0345
 4492TIP3    H134967   6.243   6.077  12.341  0.4802  0.4262 -1.8192
 4492TIP3    H234968   6.358   6.007  12.411 -1.2433 -0.1010  0.5561
 4493TIP3   OH234969   0.760   6.790  16.042  0.3288 -0.1193 -0.3453
 4493TIP3    H134970   0.765   6.802  16.137 -0.3561 -4.2839  0.2785
 4493TIP3    H234971   0.668   6.806  16.021  0.4904  0.8539 -0.3750
 4494TIP3   OH234972   3.935   3.735   5.785 -0.2553  0.0919  0.1576
 4494TIP3    H134973   3.854   3.716   5.832  1.5910 -2.5019  2.4310
 4494TIP3    H234974   3.960   3.651   5.746  0.7745  1.1262 -1.4899
 4495TIP3   OH234975   5.771   6.634   6.573 -0.3054 -0.2194 -0.5851
 4495TIP3    H134976   5.676   6.619   6.579 -0.4369  0.4628 -1.0429
 4495TIP3    H234977   5.809   6.548   6.595 -0.9813 -0.0726  1.3256
 4496TIP3   OH234978   1.029   0.182  14.226 -0.0384 -0.0269  0.0547
 4496TIP3    H134979   1.098   0.205  14.163  0.1327  2.5571  1.1208
 4496TIP3    H234980   1.072   0.185  14.311 -0.8040 -1.3157  0.5067
 4497TIP3   OH234981   5.982   1.290  16.294  0.2071 -0.7599 -0.1875
 4497TIP3    H134982   6.077   1.294  16.290  0.1638 -0.4297 -1.1025
 4497TIP3    H234983   5.961   1.197  16.282  0.4946 -1.1573  2.3073
 4498TIP3   OH234984   2.433   2.543  15.648  0.0975  0.5310 -0.2002
 4498TIP3    H134985   2.509   2.592  15.682 -0.2605  0.7122  0.3474
 4498TIP3    H234986   2.408   2.485  15.720  1.0722 -1.1255 -1.1544
 4499TIP3   OH234987   1.188   6.568  16.089 -0.3836 -0.5839 -0.0186
 4499TIP3    H134988   1.278   6.586  16.062 -0.4580 -0.3894 -0.1364
 4499TIP3    H234989   1.161   6.493  16.035 -0.1795 -0.8568  0.2572
 4500TIP3   OH234990   6.628   0.175   5.111  0.8533 -0.2047  0.5853
 4500TIP3    H134991   6.631   0.081   5.092 -1.6978 -0.3640  0.8778
 4500TIP3    H234992   6.562   0.184   5.180 -2.2217  2.2825 -2.4967
 4501TIP3   OH234993   2.173   0.702  14.570 -0.3302 -0.0417  0.2979
 4501TIP3    H134994   2.145   0.785  14.609 -0.9125  0.1199 -0.4601
 4501TIP3    H234995   2.098   0.644  14.578 -0.0463 -0.3876  0.4943
 4502TIP3   OH234996   6.740   1.731  16.984  0.0578 -0.7612  0.1442
 4502TIP3    H134997   6.802   1.795  17.019 -1.3481 -0.0376  1.3836
 4502TIP3    H234998   6.795   1.661  16.949  1.5672 -0.1495  1.2261
 4503TIP3   OH234999   0.905   2.928   4.852  0.0183  0.0965 -0.1704
 4503TIP3    H135000   0.997   2.902   4.861  0.3097  0.6373 -1.4217
 4503TIP3    H235001   0.877   2.949   4.941  1.0054 -0.4304  0.2707
 4504TIP3   OH235002   2.897   6.073   5.335  0.2304 -0.1224 -0.0766
 4504TIP3    H135003   2.985   6.040   5.320  0.3208  0.9475 -2.0225
 4504TIP3    H235004   2.909   6.166   5.357 -0.4571  0.2972 -1.3928
 4505TIP3   OH235005   3.590   3.750  10.861  0.0389  0.3432  0.3681
 4505TIP3    H135006   3.583   3.779  10.770 -0.7412  4.1886  1.5772
 4505TIP3    H235007   3.500   3.734  10.887  0.3718 -2.1926  0.0840
 4506TIP3   OH235008   5.429   5.927   0.552 -0.3016 -0.1439 -0.9558
 4506TIP3    H135009   5.355   5.870   0.530 -0.8887 -0.0032  0.6275
 4506TIP3    H235010   5.390   6.013   0.567 -0.1853 -0.6045  2.3583
 4507TIP3   OH235011   6.681   1.549   4.118 -0.3500 -0.0814  0.4222
 4507TIP3    H135012   6.624   1.544   4.194 -0.5505  0.3079  0.3013
 4507TIP3    H235013   6.632   1.503   4.049 -0.9141  1.0220  0.0814
 4508TIP3   OH235014   5.581   3.912   0.070 -0.1967  0.2516  1.0272
 4508TIP3    H135015   5.586   3.997   0.115  0.1789  1.4706 -1.2330
 4508TIP3    H235016   5.516   3.925   0.001  0.5788 -1.0155  0.0389
 4509TIP3   OH235017   0.135   4.040  12.203  0.1715  0.5556  0.5381
 4509TIP3    H135018   0.149   3.946  12.216 -1.2058  0.1340 -0.9763
 4509TIP3    H235019   0.096   4.069  12.285  0.5145 -0.2187  0.9859
 4510TIP3   OH235020   3.957   4.836   1.933 -0.3003  0.3521  0.1769
 4510TIP3    H135021   4.047   4.807   1.947 -0.1999  0.7109  0.2622
 4510TIP3    H235022   3.960   4.883   1.850 -0.2980  0.8643  0.4695
 4511TIP3   OH235023   3.251   2.529   6.265 -0.0439  0.0238  0.0498
 4511TIP3    H135024   3.170   2.523   6.214 -0.1921 -0.6471  0.3707
 4511TIP3    H235025   3.248   2.616   6.305 -0.0205  0.4808 -0.9231
 4512TIP3   OH235026   2.985   2.869  12.492 -0.5088 -0.2324 -0.4976
 4512TIP3    H135027   2.933   2.890  12.569 -0.6601  1.3746 -1.0144
 4512TIP3    H235028   2.923   2.872  12.419  0.1845  1.1964 -1.0478
 4513TIP3   OH235029   1.420   1.628   1.597  0.6972  0.0165  0.7114
 4513TIP3    H135030   1.474   1.595   1.669  2.7923  1.5295 -0.1183
 4513TIP3    H235031   1.464   1.597   1.518 -1.2705 -1.1528  0.0269
 4514TIP3   OH235032   2.497   6.592   2.060  0.4316 -0.5042 -0.7375
 4514TIP3    H135033   2.546   6.623   2.137  1.1704  1.1819 -1.8361
 4514TIP3    H235034   2.565   6.575   1.995 -0.3581  0.5948 -1.8575
 4515TIP3   OH235035   3.652   3.279  14.787 -0.3290 -0.4970 -0.2461
 4515TIP3    H135036   3.633   3.309  14.876 -2.1595 -2.2461  0.0106
 4515TIP3    H235037   3.598   3.335  14.731 -0.2567 -0.3108 -0.1297
 4516TIP3   OH235038   2.058   1.344  12.439 -0.8408  0.3087 -0.1483
 4516TIP3    H135039   2.077   1.303  12.355  0.2774  0.1795  0.1489
 4516TIP3    H235040   2.017   1.275  12.491 -1.3947  0.3453 -0.5437
 4517TIP3   OH235041   2.029   2.741  12.434 -0.0287 -0.2136 -0.2029
 4517TIP3    H135042   2.037   2.675  12.365 -0.8636  0.8723 -1.3627
 4517TIP3    H235043   1.958   2.708  12.489 -0.3548 -0.3520 -0.6981
 4518TIP3   OH235044   0.172   5.100   2.577  0.0974 -0.5663 -0.6861
 4518TIP3    H135045   0.167   5.045   2.499 -0.5948  0.6086 -1.4859
 4518TIP3    H235046   0.085   5.141   2.584  0.4626  0.0972  0.1358
 4519TIP3   OH235047   6.029   4.512  11.262  0.6042 -0.2724  0.5566
 4519TIP3    H135048   6.039   4.466  11.178 -1.1631 -0.2977  0.3493
 4519TIP3    H235049   6.011   4.442  11.325 -0.1030 -0.0527  0.5965
 4520TIP3   OH235050   3.365   5.540  14.418  0.0234 -0.2348  0.0425
 4520TIP3    H135051   3.443   5.487  14.401  0.4549  0.2002  0.6517
 4520TIP3    H235052   3.318   5.493  14.487 -0.6027 -0.8460 -0.7884
 4521TIP3   OH235053   6.254   1.753  14.667  0.2079 -0.2606 -0.1718
 4521TIP3    H135054   6.316   1.711  14.727  1.3368  0.1079 -1.0575
 4521TIP3    H235055   6.309   1.788  14.597 -0.9898  0.2924 -0.8453
 4522TIP3   OH235056   6.087   3.874  15.784  0.5029  0.2789 -0.1351
 4522TIP3    H135057   6.104   3.786  15.819  1.9456  0.3930 -0.5414
 4522TIP3    H235058   6.064   3.859  15.692  0.3393  0.2946 -0.0972
 4523TIP3   OH235059   4.066   2.756   3.925 -0.1976 -0.6563 -0.5064
 4523TIP3    H135060   4.117   2.818   3.978  1.1576 -0.5695 -1.9006
 4523TIP3    H235061   4.061   2.678   3.980 -0.3654  0.0492  0.5134
 4524TIP3   OH235062   4.609   1.495  12.360  0.0202  0.5565 -0.2054
 4524TIP3    H135063   4.671   1.440  12.312 -0.2368  1.1144 -1.1871
 4524TIP3    H235064   4.618   1.581  12.320 -0.7842  0.8356  0.2150
 4525TIP3   OH235065   2.531   6.515  17.238 -1.2547 -0.6217 -0.1202
 4525TIP3    H135066   2.542   6.607  17.211 -1.2592  0.0321  2.0694
 4525TIP3    H235067   2.572   6.465  17.167 -0.8069  1.0922 -1.1005
 4526TIP3   OH235068   2.334   3.658  12.275 -0.1665  0.5104 -0.5248
 4526TIP3    H135069   2.345   3.753  12.283 -0.5257  0.5147 -0.1036
 4526TIP3    H235070   2.289   3.631  12.355  0.3185 -0.0787 -0.4394
 4527TIP3   OH235071   1.502   5.589  15.253  0.2125 -0.1421 -0.3047
 4527TIP3    H135072   1.494   5.669  15.202 -0.1769 -0.2199 -0.3713
 4527TIP3    H235073   1.498   5.518  15.189  5.8741 -0.1490 -0.8647
 4528TIP3   OH235074   6.765   3.268  13.962  0.1459  0.1966 -0.3471
 4528TIP3    H135075   6.762   3.345  14.019 -2.3561  1.1106 -1.6070
 4528TIP3    H235076   6.693   3.213  13.993  0.8721 -0.8737 -0.5324
 4529TIP3   OH235077   0.223   4.698   1.755 -0.2748  0.1036  0.3081
 4529TIP3    H135078   0.190   4.701   1.665 -0.9784  0.6215  0.5779
 4529TIP3    H235079   0.178   4.623   1.794  1.5493 -1.3528 -0.3515
 4530TIP3   OH235080   6.635   5.696   5.528  0.1444 -0.1872 -0.0735
 4530TIP3    H135081   6.654   5.735   5.443 -1.1233  1.4177  0.3296
 4530TIP3    H235082   6.544   5.721   5.545 -1.3674 -4.8619 -0.5502
 4531TIP3   OH235083   3.827   5.211   4.104  0.1449  0.2417  0.0773
 4531TIP3    H135084   3.740   5.171   4.099 -0.4903  1.5125  0.7394
 4531TIP3    H235085   3.888   5.137   4.094 -0.9678 -1.3756  4.2061
 4532TIP3   OH235086   0.897   4.707  16.299 -0.1204  0.4156  0.4720
 4532TIP3    H135087   0.810   4.686  16.265  0.5079 -1.4016 -0.1096
 4532TIP3    H235088   0.957   4.656  16.244  1.1607  0.0571  2.1398
 4533TIP3   OH235089   3.503   0.721  12.545 -0.4040  0.9671  0.4839
 4533TIP3    H135090   3.531   0.705  12.455 -0.7549 -0.8259  0.6906
 4533TIP3    H235091   3.427   0.665  12.557  0.3642  0.2837  2.3077
 4534TIP3   OH235092   5.084   4.608   3.167  0.5898 -0.3538 -0.3350
 4534TIP3    H135093   5.052   4.595   3.256  0.5842  0.1166 -0.2634
 4534TIP3    H235094   5.009   4.587   3.111  0.3713  0.0341 -0.1962
 4535TIP3   OH235095   3.745   5.636   1.814 -0.2531  0.5371  0.9926
 4535TIP3    H135096   3.682   5.703   1.790  0.3700  0.6559 -0.3528
 4535TIP3    H235097   3.710   5.555   1.777 -0.0486  0.4436  1.0006
 4536TIP3   OH235098   5.047   2.727   4.365 -0.3888  0.5296  0.8052
 4536TIP3    H135099   5.001   2.687   4.440  0.2589  1.8869  1.9591
 4536TIP3    H235100   4.995   2.702   4.289  0.2700 -2.9156  1.4190
 4537TIP3   OH235101   3.415   5.200   1.470 -0.6017  0.2968  0.1827
 4537TIP3    H135102   3.430   5.166   1.558 -0.3961 -0.5156 -0.1572
 4537TIP3    H235103   3.325   5.174   1.449 -0.8673  1.0389  0.3954
 4538TIP3   OH235104   0.164   2.786   1.788  0.6603  0.7671  0.2675
 4538TIP3    H135105   0.133   2.808   1.876  1.3939  0.7082  0.5466
 4538TIP3    H235106   0.113   2.841   1.730 -0.5662  0.0521  0.6564
 4539TIP3   OH235107   1.304   5.820  12.251  0.2118 -0.3787 -0.1780
 4539TIP3    H135108   1.319   5.727  12.231 -1.2119 -0.7556  0.4578
 4539TIP3    H235109   1.229   5.845  12.196 -0.1201  0.0920  0.4882
 4540TIP3   OH235110   1.780   2.943   0.520 -0.5810 -0.4291 -0.6750
 4540TIP3    H135111   1.715   3.013   0.515 -0.5917 -0.4298 -0.5416
 4540TIP3    H235112   1.807   2.941   0.612 -0.1612 -0.2206 -0.7917
 4541TIP3   OH235113   0.457   2.661   4.346  0.3685 -0.2992 -0.0271
 4541TIP3    H135114   0.379   2.708   4.375  0.3444 -0.6454  0.4858
 4541TIP3    H235115   0.480   2.702   4.263 -0.7766 -0.6578 -0.5457
 4542TIP3   OH235116   0.077   0.953  11.785  0.1926 -0.1962 -0.2620
 4542TIP3    H135117  -0.017   0.950  11.801  0.2303  0.0485 -0.0048
 4542TIP3    H235118   0.087   0.920  11.695  0.0042 -1.7285  0.2649
 4543TIP3   OH235119   5.456   6.012   2.111  0.6049  0.2961 -0.0812
 4543TIP3    H135120   5.376   5.984   2.066  0.5142 -0.2463  0.4154
 4543TIP3    H235121   5.439   5.994   2.203  0.9075  1.1333  0.1384
 4544TIP3   OH235122   6.098   1.735   1.360  0.4066 -0.1935 -0.8799
 4544TIP3    H135123   6.006   1.725   1.336  0.0251  1.1317 -0.0099
 4544TIP3    H235124   6.111   1.669   1.428 -0.7078  1.6081  1.1224
 4545TIP3   OH235125   1.496   3.351  12.811  0.2395  0.3914  0.3509
 4545TIP3    H135126   1.522   3.260  12.794  0.9748  0.5800  0.4160
 4545TIP3    H235127   1.572   3.388  12.855 -0.1562  0.9734  0.5362
 4546TIP3   OH235128   2.175   3.227   5.119 -0.6206 -0.3461  0.3334
 4546TIP3    H135129   2.213   3.147   5.081 -2.3122 -0.4881 -1.0950
 4546TIP3    H235130   2.087   3.202   5.145 -0.1412  0.2728  2.6735
 4547TIP3   OH235131   0.713   0.098  13.035  0.2723  0.6776 -0.0801
 4547TIP3    H135132   0.796   0.052  13.019  1.4142  2.6293  0.0633
 4547TIP3    H235133   0.722   0.180  12.987 -1.6310  0.8820 -0.1152
 4548TIP3   OH235134   6.367   3.808  15.760  0.1846  0.0281  1.6414
 4548TIP3    H135135   6.286   3.859  15.754  0.1959  0.1935  2.7863
 4548TIP3    H235136   6.427   3.865  15.809  1.6173  0.6809 -0.7959
 4549TIP3   OH235137   1.522   2.820  13.387  0.0902 -0.5982 -0.6175
 4549TIP3    H135138   1.570   2.883  13.442 -1.4768 -0.3316  0.4896
 4549TIP3    H235139   1.534   2.853  13.298  1.4045 -0.1628 -0.2928
 4550TIP3   OH235140   0.452   1.261   6.402 -0.2087  0.1022 -0.0729
 4550TIP3    H135141   0.489   1.331   6.455  3.0878 -1.8836  0.3673
 4550TIP3    H235142   0.401   1.209   6.464  1.2068 -0.5399  0.5628
 4551TIP3   OH235143   1.929   6.099   5.084  0.3116  0.1581 -0.2837
 4551TIP3    H135144   1.897   6.036   5.019  2.1618 -2.1741  0.9852
 4551TIP3    H235145   1.876   6.177   5.069 -2.5770 -1.9232 -1.4498
 4552TIP3   OH235146   6.661   3.972  14.765  0.0117  0.1322  0.1090
 4552TIP3    H135147   6.713   4.001  14.690  1.2052 -0.2321  0.7675
 4552TIP3    H235148   6.720   3.984  14.840 -0.8402 -0.3601  0.8612
 4553TIP3   OH235149   5.208   4.057  12.312 -0.4161  0.4965 -0.3062
 4553TIP3    H135150   5.207   4.018  12.225 -0.6668 -3.8587  1.4792
 4553TIP3    H235151   5.300   4.075  12.330 -0.0523 -1.1182 -0.4765
 4554TIP3   OH235152   2.264   1.008  14.493 -0.5167 -0.2115  0.1596
 4554TIP3    H135153   2.229   1.089  14.529 -1.3469  0.4095 -1.9728
 4554TIP3    H235154   2.263   1.021  14.398  1.8314 -1.6962 -0.1210
 4555TIP3   OH235155   1.841   5.929   3.976  0.1228  0.6843  0.0293
 4555TIP3    H135156   1.911   5.923   3.911  0.4804  0.4194  0.4397
 4555TIP3    H235157   1.857   6.011   4.021  0.4350  0.4099  0.4242
 4556TIP3   OH235158   0.802   2.440  12.446  0.5356 -0.5704  0.4195
 4556TIP3    H135159   0.784   2.347  12.434 -0.8776 -0.0641 -1.6552
 4556TIP3    H235160   0.779   2.480  12.362  3.0751  1.3694  0.5795
 4557TIP3   OH235161   1.136   6.772  16.388  0.7232  0.6745 -0.2307
 4557TIP3    H135162   1.143   6.768  16.484  3.6309  0.7789 -0.3693
 4557TIP3    H235163   1.062   6.715  16.367 -0.4153  1.2204  2.1207
 4558TIP3   OH235164   3.644   5.484   2.514 -0.2079  0.0169  0.1413
 4558TIP3    H135165   3.702   5.455   2.584 -0.1758  1.3917  0.7096
 4558TIP3    H235166   3.665   5.427   2.440  1.3209 -0.0219  0.5773
 4559TIP3   OH235167   2.727   0.760   5.777  0.0267 -0.0423  0.7628
 4559TIP3    H135168   2.813   0.717   5.778  0.9758  1.8185  1.5294
 4559TIP3    H235169   2.682   0.725   5.854  1.0607  0.8574  1.7926
 4560TIP3   OH235170   4.966   2.664   2.962  0.5460 -0.0361  0.0186
 4560TIP3    H135171   4.916   2.593   3.003 -0.6088  0.9367  0.3531
 4560TIP3    H235172   5.056   2.650   2.992  0.0421 -0.4007  1.4377
 4561TIP3   OH235173   1.178   3.775   4.431  0.1493  0.2007 -0.1978
 4561TIP3    H135174   1.184   3.771   4.336  0.1454  1.5000 -0.2696
 4561TIP3    H235175   1.089   3.805   4.448 -0.2507 -1.1968  0.2662
 4562TIP3   OH235176   1.992   5.076  12.407 -0.3644  0.0206  0.2787
 4562TIP3    H135177   1.976   4.998  12.460  1.0331  0.3078  1.1217
 4562TIP3    H235178   2.047   5.045  12.335 -1.7019 -0.2291 -0.6577
 4563TIP3   OH235179   3.907   3.900   1.355 -0.8565 -0.1773  0.0953
 4563TIP3    H135180   3.937   3.817   1.393 -2.3280 -1.0488 -0.6087
 4563TIP3    H235181   3.852   3.874   1.282 -1.3276  1.4403 -0.1316
 4564TIP3   OH235182   3.779   1.096   1.268 -0.3833  0.7108  0.0878
 4564TIP3    H135183   3.698   1.117   1.221 -2.0324 -0.8492  2.1338
 4564TIP3    H235184   3.749   1.062   1.352  2.4362  0.2907  0.9557
 4565TIP3   OH235185   1.150   5.156   3.621 -0.2345  0.5670 -0.3507
 4565TIP3    H135186   1.227   5.197   3.662 -0.6692  3.1618 -2.0350
 4565TIP3    H235187   1.169   5.159   3.527 -0.8554 -2.0253 -0.5969
 4566TIP3   OH235188   3.984   6.580  13.632  0.0400  0.1306  0.2839
 4566TIP3    H135189   4.080   6.573  13.629  0.0174  0.3350 -1.3599
 4566TIP3    H235190   3.968   6.653  13.692  0.8553 -0.8136  1.6930
 4567TIP3   OH235191   2.270   4.426   2.787  0.4924  0.0092 -0.1806
 4567TIP3    H135192   2.179   4.449   2.765  0.6917  2.3244  1.2048
 4567TIP3    H235193   2.321   4.499   2.752  1.9211 -1.6199 -1.5563
 4568TIP3   OH235194   1.926   0.744  16.176 -0.3927  0.1970  0.0739
 4568TIP3    H135195   1.933   0.709  16.087 -1.7384  0.6987 -0.2427
 4568TIP3    H235196   1.929   0.839  16.165  0.6157  0.2461  0.6843
 4569TIP3   OH235197   5.761   0.719   4.675  0.4105  0.4075 -0.3471
 4569TIP3    H135198   5.765   0.678   4.588  2.4234 -0.2477  0.0306
 4569TIP3    H235199   5.853   0.732   4.699 -0.1546  1.1544  1.4157
 4570TIP3   OH235200   2.358   5.818   4.946 -0.2508 -0.4413  0.1879
 4570TIP3    H135201   2.427   5.756   4.921 -0.1295  0.0359 -0.6800
 4570TIP3    H235202   2.353   5.811   5.041  0.7024 -0.8008  0.2161
 4571TIP3   OH235203   6.396   0.353  11.671  0.1663 -0.6350  0.7161
 4571TIP3    H135204   6.437   0.267  11.666  0.2351 -0.6246  1.0992
 4571TIP3    H235205   6.465   0.415  11.649  0.1100 -0.6789  0.4158
 4572TIP3   OH235206   4.041   3.846   6.003 -0.5298 -0.7334 -0.8395
 4572TIP3    H135207   4.017   3.801   5.922 -0.0129 -0.7585 -0.9802
 4572TIP3    H235208   4.135   3.830   6.013 -0.3614  0.2063 -0.8340
 4573TIP3   OH235209   0.381   5.320   2.872  0.5185 -0.1487 -0.3968
 4573TIP3    H135210   0.287   5.337   2.876  0.5685  0.1731 -0.5651
 4573TIP3    H235211   0.396   5.293   2.781  0.9068  1.7261 -0.9073
 4574TIP3   OH235212   3.946   0.412   5.682  0.1623 -0.0106  0.3842
 4574TIP3    H135213   3.966   0.406   5.775 -0.5480 -0.8069  0.4910
 4574TIP3    H235214   3.873   0.351   5.669  0.0811  0.2938 -0.6395
 4575TIP3   OH235215   5.513   6.156   1.483 -0.2402 -0.1391  0.5472
 4575TIP3    H135216   5.526   6.062   1.489 -1.1968 -0.3329 -0.3583
 4575TIP3    H235217   5.566   6.183   1.408 -0.9438 -0.1386  0.0550
 4576TIP3   OH235218   3.619   6.209   2.474  0.2528 -0.5253  0.2123
 4576TIP3    H135219   3.602   6.242   2.386 -2.0212 -1.9822  0.0616
 4576TIP3    H235220   3.557   6.257   2.529  0.4919 -0.8635  0.7771
 4577TIP3   OH235221   1.148   0.571   3.724  0.1725 -0.7611  0.7590
 4577TIP3    H135222   1.094   0.527   3.790  0.0938 -0.8375  0.6424
 4577TIP3    H235223   1.107   0.549   3.641  1.1547 -1.8791  0.5792
 4578TIP3   OH235224   3.079   6.385   0.408  0.0912 -0.6799 -0.1104
 4578TIP3    H135225   3.074   6.427   0.322 -0.9520  1.2047  0.8346
 4578TIP3    H235226   3.151   6.323   0.401  2.3404  1.9516 -1.2999
 4579TIP3   OH235227   6.515   1.624  15.502  0.0327  0.4881  0.1239
 4579TIP3    H135228   6.576   1.589  15.438 -0.8814 -1.7751  0.4595
 4579TIP3    H235229   6.554   1.603  15.587 -0.8589 -0.3610  0.3357
 4580TIP3   OH235230   2.629   0.607   3.858 -0.1424 -0.3796  0.2449
 4580TIP3    H135231   2.582   0.565   3.930  0.3466 -0.6194  0.4243
 4580TIP3    H235232   2.704   0.549   3.841  2.4210  2.0657  2.6866
 4581TIP3   OH235233   3.636   4.686  12.764  0.5116 -0.0605  0.5615
 4581TIP3    H135234   3.690   4.737  12.824  1.2448  0.9617 -0.9494
 4581TIP3    H235235   3.687   4.681  12.683 -1.0294 -0.2775 -0.4202
 4582TIP3   OH235236   0.833   1.215  16.252 -0.2588  0.4608 -0.2271
 4582TIP3    H135237   0.925   1.237  16.235  0.0928  1.4628  2.7500
 4582TIP3    H235238   0.783   1.282  16.205  0.5704  1.0721 -0.2500
 4583TIP3   OH235239   0.730   2.793  17.246 -0.3164 -0.1812 -0.0665
 4583TIP3    H135240   0.790   2.727  17.281 -0.1363 -0.5750 -1.1078
 4583TIP3    H235241   0.731   2.863  17.312  2.8879  0.7645 -1.0420
 4584TIP3   OH235242   5.946   2.170   1.544  0.0880 -0.0006 -0.1657
 4584TIP3    H135243   5.998   2.249   1.561 -1.0265  0.9032 -0.9025
 4584TIP3    H235244   6.007   2.110   1.501  0.6878  0.8210 -0.4757
 4585TIP3   OH235245   5.926   0.942  16.682  0.4782 -0.1450  0.2745
 4585TIP3    H135246   5.877   0.943  16.765  0.6631 -1.6549  0.4282
 4585TIP3    H235247   6.018   0.947  16.708  0.5609 -1.1192  0.2077
 4586TIP3   OH235248   2.604   1.863  12.884 -0.2910  0.0436 -0.2012
 4586TIP3    H135249   2.657   1.941  12.897 -1.1520  0.2776  2.1140
 4586TIP3    H235250   2.636   1.800  12.949  0.7624 -1.7502 -2.3827
 4587TIP3   OH235251   2.936   1.053  11.787 -0.0438 -0.2133 -0.4331
 4587TIP3    H135252   2.908   1.106  11.712  0.0789  0.2922 -0.1266
 4587TIP3    H235253   3.020   1.092  11.813 -0.8961  0.7231  1.0415
 4588TIP3   OH235254   6.753   1.183  12.776  0.7355 -0.0303 -0.3159
 4588TIP3    H135255   6.716   1.095  12.769 -0.2251  0.5154 -2.3438
 4588TIP3    H235256   6.845   1.168  12.798 -0.1940 -1.4358  2.8357
 4589TIP3   OH235257   2.259   5.232   2.285 -0.4064  0.1414  0.0623
 4589TIP3    H135258   2.279   5.150   2.330 -1.7701  0.5457  1.4573
 4589TIP3    H235259   2.193   5.274   2.341 -0.2226  1.8609 -0.9946
 4590TIP3   OH235260   6.002   1.412   6.557  0.5284 -0.0296 -0.2458
 4590TIP3    H135261   6.021   1.485   6.498 -1.5130  0.0721 -0.8194
 4590TIP3    H235262   6.003   1.451   6.645 -0.5699  0.7052 -0.5499
 4591TIP3   OH235263   2.231   3.280  13.015  0.0806  0.0889  0.2700
 4591TIP3    H135264   2.247   3.266  13.108  2.5555  0.9899  0.0048
 4591TIP3    H235265   2.192   3.198  12.985 -0.6687 -0.2391  2.0582
 4592TIP3   OH235266   0.776   4.826   4.152 -0.5961 -0.6300  0.0014
 4592TIP3    H135267   0.706   4.865   4.099 -1.8975 -1.9589  0.7375
 4592TIP3    H235268   0.744   4.831   4.242  0.4445 -0.8794  0.3942
 4593TIP3   OH235269   5.018   2.339   1.338 -0.5091  0.0169 -0.5972
 4593TIP3    H135270   5.047   2.302   1.255 -1.5687 -0.3566 -0.8037
 4593TIP3    H235271   5.071   2.294   1.404 -1.5743 -1.6704 -0.8675
 4594TIP3   OH235272   1.808   5.530  13.873 -0.0358 -0.5947 -0.1796
 4594TIP3    H135273   1.840   5.551  13.786 -0.4051 -0.9298 -0.3990
 4594TIP3    H235274   1.839   5.602  13.929  2.1147 -1.5199 -0.1517
 4595TIP3   OH235275   0.097   5.415  15.789  0.0521 -0.3159  0.4704
 4595TIP3    H135276   0.023   5.425  15.849  0.5203  2.2684  0.6564
 4595TIP3    H235277   0.082   5.330  15.747 -2.9032  0.0557  0.6694
 4596TIP3   OH235278   0.302   1.790   5.778  0.5144  0.1410  0.2760
 4596TIP3    H135279   0.323   1.835   5.697 -1.2903  0.4475 -0.0530
 4596TIP3    H235280   0.344   1.841   5.847 -0.7095  1.7961 -0.1759
 4597TIP3   OH235281   0.074   2.043  11.003  0.0169 -0.5778 -0.2406
 4597TIP3    H135282   0.066   2.099  11.080 -2.4477 -1.0311 -0.1248
 4597TIP3    H235283  -0.004   2.062  10.951  0.9049 -1.3600 -1.9079
 4598TIP3   OH235284   6.139   2.668  12.829  0.9952  0.3015  0.3809
 4598TIP3    H135285   6.137   2.709  12.915 -0.9431 -1.3639  1.1691
 4598TIP3    H235286   6.105   2.734  12.769  1.4387  1.1336  1.0456
 4599TIP3   OH235287   4.096   0.146  11.927 -0.8153  0.2496 -0.1754
 4599TIP3    H135288   4.090   0.051  11.937 -0.3294  0.2969  0.5719
 4599TIP3    H235289   4.187   0.167  11.948 -1.3549  1.0981  1.4488
 4600TIP3   OH235290   1.097   1.837  13.394  0.7713 -0.8856 -0.2443
 4600TIP3    H135291   1.075   1.927  13.369  1.2794  0.5499  3.9174
 4600TIP3    H235292   1.018   1.787  13.378 -1.1190  1.3508  1.7163
 4601TIP3   OH235293   6.623   1.292   2.108 -0.2604 -0.5240 -0.3990
 4601TIP3    H135294   6.665   1.353   2.048  0.5527 -0.0748  0.6371
 4601TIP3    H235295   6.562   1.243   2.052  0.4011 -0.0281 -1.5692
 4602TIP3   OH235296   2.879   2.032  16.422  0.5217  0.5790  0.6681
 4602TIP3    H135297   2.884   1.958  16.483 -0.0831  0.1305  0.1873
 4602TIP3    H235298   2.810   2.087  16.456 -0.4175 -0.1191 -0.0829
 4603TIP3   OH235299   6.614   5.348   5.889 -0.2457 -0.4860 -0.2990
 4603TIP3    H135300   6.643   5.427   5.843 -0.2319 -1.2382 -1.5999
 4603TIP3    H235301   6.540   5.316   5.838  0.9724 -2.4040 -0.9392
 4604TIP3   OH235302   4.809   0.461  13.539  0.1137  0.1885  0.4081
 4604TIP3    H135303   4.800   0.549  13.502 -0.7156  0.8321  2.0412
 4604TIP3    H235304   4.838   0.477  13.629 -1.3997 -1.1245  1.1581
 4605TIP3   OH235305   1.792   4.667   6.102 -0.9262  0.5986 -0.1838
 4605TIP3    H135306   1.723   4.734   6.104 -1.2834  0.1844  2.3695
 4605TIP3    H235307   1.757   4.594   6.153  0.2079 -0.8210 -1.3865
 4606TIP3   OH235308   3.185   6.286   3.217  0.4118  0.2394 -0.3275
 4606TIP3    H135309   3.185   6.335   3.135  2.3300  1.5595  0.4176
 4606TIP3    H235310   3.171   6.351   3.285  1.4695 -0.4297  0.5664
 4607TIP3   OH235311   2.163   1.892  15.702  0.5633 -0.4553 -0.0017
 4607TIP3    H135312   2.094   1.831  15.727  0.9385 -0.9070 -0.0543
 4607TIP3    H235313   2.148   1.909  15.609 -0.3241  0.5594  0.3261
 4608TIP3   OH235314   0.341   0.112   3.347 -0.7471 -0.1703 -0.5057
 4608TIP3    H135315   0.281   0.177   3.309 -0.5194  0.6678  0.5269
 4608TIP3    H235316   0.287   0.035   3.362 -1.0111 -0.2485 -1.8015
 4609TIP3   OH235317   2.149   4.467   5.106  0.0288  0.3987  0.2952
 4609TIP3    H135318   2.207   4.481   5.031  1.0765  1.6217  1.3016
 4609TIP3    H235319   2.151   4.550   5.154 -0.5249 -0.3983  1.7379
 4610TIP3   OH235320   4.259   3.958  11.996 -0.1109 -0.6629  0.0250
 4610TIP3    H135321   4.240   3.907  12.075 -1.7636  0.0433  0.0963
 4610TIP3    H235322   4.353   3.949  11.984  0.1957 -0.6069  2.2066
 4611TIP3   OH235323   6.229   2.371  13.178 -0.3881 -0.2840  0.2507
 4611TIP3    H135324   6.155   2.430  13.187  0.1503  0.2038  1.5803
 4611TIP3    H235325   6.303   2.428  13.156 -0.3781 -0.7539 -0.9708
 4612TIP3   OH235326   2.374   1.866  14.064  0.2840 -0.4184 -0.1216
 4612TIP3    H135327   2.370   1.916  14.145  0.3894  0.8009 -0.8610
 4612TIP3    H235328   2.466   1.840  14.056  0.2235 -0.7542  0.2769
 4613TIP3   OH235329   1.759   6.088  12.871 -0.1670 -0.4632  0.0964
 4613TIP3    H135330   1.810   6.082  12.951 -0.5940  0.1980  0.4164
 4613TIP3    H235331   1.729   6.179  12.868 -1.7986 -0.9822  0.2086
 4614TIP3   OH235332   3.556   2.195   1.637  0.0649  0.1734 -0.0517
 4614TIP3    H135333   3.483   2.178   1.578  0.3999 -2.4410  0.2467
 4614TIP3    H235334   3.520   2.256   1.702 -1.2806  0.4188 -1.0021
 4615TIP3   OH235335   5.048   6.601   1.291 -0.3918 -0.4957  0.1761
 4615TIP3    H135336   5.000   6.615   1.209  0.7674  0.6452 -0.3379
 4615TIP3    H235337   5.087   6.687   1.311  0.4802 -1.1089  1.1753
 4616TIP3   OH235338   1.028   3.386   1.720 -0.5509  0.4810 -0.8261
 4616TIP3    H135339   1.022   3.400   1.626 -3.4116 -1.0651 -0.9158
 4616TIP3    H235340   0.998   3.469   1.758  1.2189  1.3378 -1.2261
 4617TIP3   OH235341   4.535   4.372  14.617  0.2217 -0.2518 -0.1592
 4617TIP3    H135342   4.582   4.430  14.558 -0.8765  0.5473 -0.2700
 4617TIP3    H235343   4.479   4.320  14.559 -2.3132  1.8727  0.2596
 4618TIP3   OH235344   6.504   3.892  17.291 -0.4205 -0.1961 -0.3458
 4618TIP3    H135345   6.449   3.960  17.329 -0.8642 -0.9887  0.4572
 4618TIP3    H235346   6.583   3.891  17.346 -0.2489 -0.0701 -0.5887
 4619TIP3   OH235347   4.906   5.684   1.503 -0.0585 -0.2015 -0.2544
 4619TIP3    H135348   4.945   5.737   1.434  0.3839  0.9855  0.8873
 4619TIP3    H235349   4.819   5.662   1.469 -0.1898  1.1231 -0.8156
 4620TIP3   OH235350   2.647   4.905  14.417 -0.0799 -0.1400  0.3742
 4620TIP3    H135351   2.563   4.866  14.438 -1.4393  1.7649 -1.2485
 4620TIP3    H235352   2.701   4.892  14.495 -2.4505  0.1481  2.0945
 4621TIP3   OH235353   5.340   5.736   6.712 -0.6267  0.1869  0.0327
 4621TIP3    H135354   5.366   5.669   6.649 -0.9598  0.7800 -0.7384
 4621TIP3    H235355   5.339   5.690   6.796 -0.5146 -0.6907 -0.4363
 4622TIP3   OH235356   0.511   1.933   1.552  0.2119  0.6432  0.2842
 4622TIP3    H135357   0.486   2.013   1.505 -0.5321  1.5413  2.1771
 4622TIP3    H235358   0.496   1.953   1.644  0.8716 -1.3850  0.8611
 4623TIP3   OH235359   1.412   1.166  11.792  0.2429  0.3717  0.2020
 4623TIP3    H135360   1.362   1.233  11.839  0.8088  0.5012  0.6341
 4623TIP3    H235361   1.352   1.092  11.783  0.2970  0.1429  1.6121
 4624TIP3   OH235362   5.306   6.184  15.850 -0.2465 -0.1735  0.4265
 4624TIP3    H135363   5.383   6.179  15.793 -1.1895  0.3157 -0.9091
 4624TIP3    H235364   5.289   6.277  15.860 -2.3834 -0.3034 -1.6695
 4625TIP3   OH235365   1.439   5.013  14.015  0.1303 -0.2888 -0.1943
 4625TIP3    H135366   1.409   4.925  13.991  3.5495 -2.1321  1.8688
 4625TIP3    H235367   1.482   5.046  13.936  0.7776 -1.3954 -0.3114
 4626TIP3   OH235368   0.719   1.429   0.315  0.2708  0.1533 -0.4377
 4626TIP3    H135369   0.669   1.421   0.234 -1.7014  0.8645  0.6679
 4626TIP3    H235370   0.801   1.385   0.297 -0.7702 -1.0847 -2.3088
 4627TIP3   OH235371   6.043   6.525  15.532  0.8166  0.3180 -0.7522
 4627TIP3    H135372   5.969   6.585  15.531 -0.6982 -1.4438  1.0819
 4627TIP3    H235373   6.098   6.557  15.605 -0.0433 -0.5427  0.2936
 4628TIP3   OH235374   1.369   3.959   3.281  0.1800  0.5312 -0.3998
 4628TIP3    H135375   1.433   3.893   3.256  0.6702  1.0600 -0.5631
 4628TIP3    H235376   1.286   3.912   3.286  0.6023 -0.1789 -0.0778
 4629TIP3   OH235377   6.308   5.462   5.097 -0.1130  0.1214 -0.2875
 4629TIP3    H135378   6.214   5.452   5.113 -0.1802  0.1338 -0.6719
 4629TIP3    H235379   6.314   5.488   5.005  0.2002  1.3880  0.0906
 4630TIP3   OH235380   3.092   2.411  13.910  0.5516 -0.0345 -0.0415
 4630TIP3    H135381   3.109   2.366  13.827  2.0500 -0.1802  0.3238
 4630TIP3    H235382   3.015   2.367  13.946 -0.5456  0.5093 -1.6955
 4631TIP3   OH235383   4.276   3.373   3.114 -0.3023  0.0240 -0.0066
 4631TIP3    H135384   4.237   3.452   3.152  0.6857  0.6761 -0.3117
 4631TIP3    H235385   4.215   3.346   3.045  0.0875  1.4103 -0.9223
 4632TIP3   OH235386   6.413   6.433  15.030  0.3025  0.1496 -0.1280
 4632TIP3    H135387   6.485   6.396  14.979  0.8860  2.5737 -1.1094
 4632TIP3    H235388   6.371   6.495  14.970 -0.2207  1.5856  1.6894
 4633TIP3   OH235389   6.673   5.560   1.500 -0.6669 -0.5690 -0.4991
 4633TIP3    H135390   6.721   5.535   1.421 -0.6192 -2.1713  0.0246
 4633TIP3    H235391   6.582   5.540   1.480 -0.7424 -0.3449 -0.3863
 4634TIP3   OH235392   2.510   3.430  12.206 -0.1394 -0.6561 -0.2813
 4634TIP3    H135393   2.448   3.357  12.199 -2.2816  0.9638  0.9530
 4634TIP3    H235394   2.457   3.508  12.189  1.9782  0.6733 -0.9833
 4635TIP3   OH235395   5.090   6.000   2.672  0.3572  0.3100 -0.1515
 4635TIP3    H135396   5.043   6.068   2.624  0.4100  0.1773 -0.3921
 4635TIP3    H235397   5.026   5.966   2.734  0.5664  1.1330  0.5263
 4636TIP3   OH235398   0.834   3.263  11.496  0.5780  0.0644 -0.0956
 4636TIP3    H135399   0.769   3.292  11.560  0.7833  0.7705 -0.2052
 4636TIP3    H235400   0.784   3.249  11.416  0.8888  2.7208 -0.7863
 4637TIP3   OH235401   3.220   2.979  11.331  0.7428 -0.3026  0.3249
 4637TIP3    H135402   3.264   3.063  11.326 -0.4194  0.2401 -1.1533
 4637TIP3    H235403   3.225   2.943  11.242 -0.6318 -0.8130  0.4346
 4638TIP3   OH235404   3.442   5.327  11.360  0.5637 -0.8048 -0.8006
 4638TIP3    H135405   3.395   5.246  11.382  1.2288 -0.8481  0.4648
 4638TIP3    H235406   3.393   5.363  11.286 -1.1026 -1.1861  0.0806
 4639TIP3   OH235407   6.566   6.521   2.810  0.2619  0.3185 -0.0750
 4639TIP3    H135408   6.575   6.611   2.779  0.0547 -0.2577 -1.9071
 4639TIP3    H235409   6.655   6.487   2.815  0.2099 -0.1751 -1.9666
 4640TIP3   OH235410   5.406   0.295   0.303  0.0471 -0.3842 -0.4652
 4640TIP3    H135411   5.460   0.337   0.370  1.7774 -0.0954 -2.0001
 4640TIP3    H235412   5.344   0.241   0.352 -0.0663  1.4013  1.4319
 4641TIP3   OH235413   3.017   0.996   0.556  0.3118  0.0325 -0.2884
 4641TIP3    H135414   3.051   1.056   0.490 -0.3404  0.2751 -0.4132
 4641TIP3    H235415   2.946   0.950   0.512  1.1935 -1.2751 -0.3840
 4642TIP3   OH235416   2.248   1.422   4.400  0.1661  0.0697  0.4793
 4642TIP3    H135417   2.266   1.364   4.474 -1.5118 -0.0944  0.7817
 4642TIP3    H235418   2.271   1.509   4.432  0.2685 -0.1136  0.9122
 4643TIP3   OH235419   3.790   5.401  16.671 -0.2929  0.5173  0.0670
 4643TIP3    H135420   3.791   5.384  16.577  0.2290  0.0860  0.1516
 4643TIP3    H235421   3.698   5.420  16.691 -0.5560 -0.2803 -0.3691
 4644TIP3   OH235422   5.418   4.516   1.593  0.0041 -0.6077  0.3842
 4644TIP3    H135423   5.352   4.517   1.523  1.5825 -1.4335 -1.1564
 4644TIP3    H235424   5.383   4.454   1.658 -0.6418 -1.1959 -0.5165
 4645TIP3   OH235425   6.427   5.218   0.593  0.2386 -0.1361  0.3647
 4645TIP3    H135426   6.354   5.236   0.653  0.4272  0.2447  0.4874
 4645TIP3    H235427   6.489   5.168   0.646 -0.6107 -1.8084 -0.1903
 4646TIP3   OH235428   6.020   2.383   5.568  0.0105  0.2051  0.1611
 4646TIP3    H135429   6.091   2.365   5.630  0.6147 -0.0551 -0.5883
 4646TIP3    H235430   5.960   2.308   5.577  0.2616  0.0075  0.2024
 4647TIP3   OH235431   6.605   3.525   4.284 -0.1485 -0.6382  0.1920
 4647TIP3    H135432   6.607   3.522   4.188  1.3882 -0.5161  0.2174
 4647TIP3    H235433   6.515   3.501   4.306 -0.6934 -0.0378 -1.3011
 4648TIP3   OH235434   6.157   0.824   5.000  0.3266  0.0432 -0.3569
 4648TIP3    H135435   6.245   0.860   5.010  0.8255 -0.6855 -1.8865
 4648TIP3    H235436   6.103   0.873   5.061  1.5871  1.2634 -0.2098
 4649TIP3   OH235437   5.713   5.052   4.744 -0.0948  0.3717  0.2406
 4649TIP3    H135438   5.738   5.139   4.775 -1.0178  0.2976  1.2132
 4649TIP3    H235439   5.627   5.037   4.781  0.9234 -1.8064  1.8040
 4650TIP3   OH235440   4.411   6.197   3.300 -0.1131 -0.6983 -0.1240
 4650TIP3    H135441   4.345   6.266   3.293  1.3777  0.7471 -0.2147
 4650TIP3    H235442   4.403   6.166   3.391  0.8564  1.2922  0.6678
 4651TIP3   OH235443   0.118   2.919   3.860 -0.0555  0.4260  0.6703
 4651TIP3    H135444   0.203   2.905   3.901  0.5775  0.2722 -0.6568
 4651TIP3    H235445   0.112   3.014   3.848  0.3770  0.3526 -0.1548
 4652TIP3   OH235446   2.959   4.279   5.835  0.2725  0.0706  0.2781
 4652TIP3    H135447   2.927   4.246   5.751  1.0983  2.4265 -1.0073
 4652TIP3    H235448   2.885   4.330   5.869  0.1394 -0.4214  0.7327
 4653TIP3   OH235449   0.310   3.585   4.094 -0.3395  0.2276  0.3083
 4653TIP3    H135450   0.242   3.541   4.044 -0.0564 -0.1513  0.2588
 4653TIP3    H235451   0.391   3.539   4.072 -0.1727  0.2274  0.9067
 4654TIP3   OH235452   0.657   6.763  11.499  0.0816  0.2019 -0.0687
 4654TIP3    H135453   0.607   6.842  11.517 -0.2874 -0.3184  1.2674
 4654TIP3    H235454   0.713   6.786  11.425  0.7303  2.0540  0.9583
 4655TIP3   OH235455   5.662   5.935  10.773  0.2519  0.6689  0.0667
 4655TIP3    H135456   5.628   5.945  10.862 -1.9416 -1.5095 -0.4909
 4655TIP3    H235457   5.633   6.015  10.728 -1.5067  0.2427  0.4239
 4656TIP3   OH235458   3.379   0.062   1.859 -0.1531  0.5864 -0.2579
 4656TIP3    H135459   3.334  -0.020   1.839  2.1633 -1.1494  1.4366
 4656TIP3    H235460   3.442   0.073   1.787  1.1838 -0.3646  0.7688
 4657TIP3   OH235461   6.280   0.020  11.988 -0.2364 -0.0338 -0.2498
 4657TIP3    H135462   6.186   0.022  12.003  0.0417  1.5369  1.3712
 4657TIP3    H235463   6.295  -0.064  11.944 -2.3533 -0.3662 -0.4008
 4658TIP3   OH235464   0.229   3.206   2.051  0.4157 -0.0441 -0.0971
 4658TIP3    H135465   0.175   3.283   2.069 -1.8410 -1.0592 -2.1935
 4658TIP3    H235466   0.318   3.232   2.075 -0.6314  2.4607  1.2479
 4659TIP3   OH235467   4.496   2.572  14.929  0.3759  0.0968 -0.3555
 4659TIP3    H135468   4.544   2.606  15.004 -0.8159 -0.9743  0.8983
 4659TIP3    H235469   4.543   2.491  14.905  0.8748  0.5423 -0.9039
 4660TIP3   OH235470   4.784   0.853  16.124  0.3881  0.4584  0.0350
 4660TIP3    H135471   4.836   0.775  16.145  0.6336  1.0363  1.7213
 4660TIP3    H235472   4.818   0.883  16.040 -1.0845 -2.3896 -1.6601
 4661TIP3   OH235473   0.798   4.805   3.272  0.0703 -0.3765  0.1074
 4661TIP3    H135474   0.746   4.770   3.344  0.0018  0.8379  0.6598
 4661TIP3    H235475   0.884   4.822   3.310 -0.3315  1.4637  0.2396
 4662TIP3   OH235476   3.632   6.536  11.294  0.0595  0.3112 -0.4770
 4662TIP3    H135477   3.669   6.448  11.303  0.0944  0.2836 -0.8984
 4662TIP3    H235478   3.570   6.543  11.366  0.0141 -0.0805 -0.4782
 4663TIP3   OH235479   5.290   0.348   4.158 -0.2224 -0.4309  0.6714
 4663TIP3    H135480   5.336   0.300   4.089 -1.9971  1.8163 -2.1769
 4663TIP3    H235481   5.337   0.431   4.165 -0.6660 -0.2435  1.4808
 4664TIP3   OH235482   0.134   2.169  12.096  0.2254 -0.0994  0.1439
 4664TIP3    H135483   0.060   2.165  12.157  1.5387  3.8911  2.1503
 4664TIP3    H235484   0.095   2.153  12.010 -2.3941 -1.3633  1.5093
 4665TIP3   OH235485   3.737   0.397   0.002  0.7798  0.5005 -0.4267
 4665TIP3    H135486   3.776   0.313   0.026 -0.0531  0.7226  1.8158
 4665TIP3    H235487   3.648   0.392   0.035  0.8597  2.4427  0.1092
 4666TIP3   OH235488   3.768   3.121  15.044  0.2424 -0.4645  0.0342
 4666TIP3    H135489   3.783   3.029  15.068 -0.6038 -0.8615 -0.9693
 4666TIP3    H235490   3.673   3.130  15.043  0.2829 -0.1153 -1.8906
 4667TIP3   OH235491   3.700   1.738  14.694  0.5269  0.8215 -0.4200
 4667TIP3    H135492   3.657   1.669  14.744 -0.0611  0.3236 -1.6113
 4667TIP3    H235493   3.704   1.812  14.755  2.4185 -0.6539  1.3405
 4668TIP3   OH235494   4.757   3.821   1.775  0.6688 -0.1233 -0.0797
 4668TIP3    H135495   4.667   3.825   1.743  0.0725 -2.1912  1.2337
 4668TIP3    H235496   4.805   3.779   1.704  0.4557  0.3216 -0.4887
 4669TIP3   OH235497   0.146   3.928  10.673  0.3823  0.1457 -0.0592
 4669TIP3    H135498   0.155   3.914  10.579  0.4262 -1.5282  0.1845
 4669TIP3    H235499   0.061   3.892  10.695  0.9778 -0.7905  0.7790
 4670TIP3   OH235500   0.183   4.719  11.662  0.5452  0.1038  0.0637
 4670TIP3    H135501   0.217   4.631  11.678 -2.0167 -1.1979 -1.2160
 4670TIP3    H235502   0.144   4.745  11.745 -1.0394 -1.1226 -0.2630
 4671TIP3   OH235503   1.027   5.806   2.376 -0.3199 -0.2663 -0.5483
 4671TIP3    H135504   0.940   5.766   2.384 -0.0351 -0.8072 -0.0867
 4671TIP3    H235505   1.086   5.731   2.370  0.2866  0.0694  0.9825
 4672TIP3   OH235506   0.966   4.510   6.142 -0.0022  0.3504  0.4238
 4672TIP3    H135507   1.037   4.523   6.205 -0.3406 -0.3878  0.9648
 4672TIP3    H235508   0.966   4.590   6.089  0.9787  0.5149  0.6687
 4673TIP3   OH235509   5.992   3.321  12.408  0.1628 -0.5384  0.0506
 4673TIP3    H135510   6.066   3.370  12.444 -0.1909 -1.1931  1.7217
 4673TIP3    H235511   5.957   3.378  12.339  2.0386 -0.1054 -0.5767
 4674TIP3   OH235512   5.409   0.170   2.852 -0.3443  0.1806  0.8286
 4674TIP3    H135513   5.493   0.136   2.883 -0.3582 -1.2566 -0.6171
 4674TIP3    H235514   5.416   0.265   2.862  1.1206  0.0123  1.5273
 4675TIP3   OH235515   5.897   2.138  14.091  0.5711  0.7556 -0.4555
 4675TIP3    H135516   5.805   2.111  14.091  0.8726 -0.3460  1.1873
 4675TIP3    H235517   5.908   2.186  14.009 -1.0689 -0.4975 -1.4455
 4676TIP3   OH235518   6.410   6.432  16.675  0.2004  0.2017  0.4559
 4676TIP3    H135519   6.475   6.363  16.668 -0.8003 -0.8532  1.3394
 4676TIP3    H235520   6.462   6.512  16.687  1.3415 -0.6407  1.3213
 4677TIP3   OH235521   2.165   3.558   2.337  0.2011  0.1006 -0.2240
 4677TIP3    H135522   2.133   3.536   2.424 -0.7002 -0.3648 -0.6733
 4677TIP3    H235523   2.149   3.652   2.328 -0.5097 -0.0218 -0.2251
 4678TIP3   OH235524   0.768   3.572  11.447 -0.5258  0.3837 -0.1402
 4678TIP3    H135525   0.800   3.655  11.412 -0.0971  2.2240  4.3094
 4678TIP3    H235526   0.844   3.513  11.446 -0.7405  0.0734 -2.9456
 4679TIP3   OH235527   3.701   0.995  12.855 -0.6384 -0.3526  0.0685
 4679TIP3    H135528   3.684   0.999  12.949 -1.3762  0.8363 -0.1043
 4679TIP3    H235529   3.752   1.074  12.837  0.5052 -1.1602 -0.3471
 4680TIP3   OH235530   6.613   0.268   5.813 -0.1322 -0.1658  0.3053
 4680TIP3    H135531   6.523   0.298   5.827 -0.3083 -1.3695  1.9215
 4680TIP3    H235532   6.668   0.335   5.853 -0.4214 -0.6483  1.5369
 4681TIP3   OH235533   4.994   0.433  13.724 -0.2155  0.2800  0.5040
 4681TIP3    H135534   5.064   0.435  13.660  0.1573  0.7566  0.9255
 4681TIP3    H235535   5.039   0.434  13.809 -0.7824  2.8129  0.7939
 4682TIP3   OH235536   5.764   6.639  11.105 -0.2260  0.1762  0.3815
 4682TIP3    H135537   5.737   6.571  11.044  1.3630  0.5802 -0.8177
 4682TIP3    H235538   5.842   6.603  11.148 -1.0927  0.0558  1.9221
 4683TIP3   OH235539   6.353   6.741   5.896  1.0488  0.2114 -0.5188
 4683TIP3    H135540   6.275   6.700   5.859  1.5022  0.6117 -1.9511
 4683TIP3    H235541   6.326   6.769   5.983 -0.3685  0.2141 -0.9390
 4684TIP3   OH235542   6.554   1.116   5.509 -0.8141 -0.2149  0.5986
 4684TIP3    H135543   6.648   1.133   5.504 -0.5489 -1.8698 -0.3660
 4684TIP3    H235544   6.517   1.163   5.434 -0.5248 -1.0770 -0.0840
 4685TIP3   OH235545   1.297   5.605  14.202 -0.5361  0.1644 -0.1542
 4685TIP3    H135546   1.392   5.607  14.217 -0.6376  0.6158  0.4719
 4685TIP3    H235547   1.287   5.564  14.117  0.2523  0.5355 -0.4340
 4686TIP3   OH235548   5.662   1.245  16.156 -0.9774  0.3343  0.4469
 4686TIP3    H135549   5.720   1.320  16.162  1.1878 -1.1341 -1.2991
 4686TIP3    H235550   5.655   1.228  16.062 -2.2695 -1.0137  0.7698
 4687TIP3   OH235551   3.377   5.750  13.539  0.0199 -0.1553  0.0620
 4687TIP3    H135552   3.402   5.838  13.565 -0.6567  0.0866 -0.1012
 4687TIP3    H235553   3.459   5.701  13.539  0.1745  0.0932  1.6529
 4688TIP3   OH235554   6.388   6.239  14.721 -0.1947  0.5261 -0.1094
 4688TIP3    H135555   6.317   6.257  14.659 -0.4302  1.3070  0.3730
 4688TIP3    H235556   6.393   6.144  14.726  2.2485  0.3426 -4.0770
 4689TIP3   OH235557   3.476   4.686   1.969  0.2642  0.1344 -0.1126
 4689TIP3    H135558   3.502   4.732   1.890  1.1823  0.4775  0.3817
 4689TIP3    H235559   3.558   4.672   2.017 -0.1863 -0.7001  0.4399
 4690TIP3   OH235560   6.549   5.574   0.328  0.0236 -0.4113 -0.3976
 4690TIP3    H135561   6.593   5.550   0.247  1.5949 -0.4564  0.4652
 4690TIP3    H235562   6.505   5.494   0.357  0.8594 -0.8443 -0.3219
 4691TIP3   OH235563   3.208   1.187   2.814  0.0815  0.5746 -0.0628
 4691TIP3    H135564   3.152   1.184   2.737  0.1368 -0.5101 -0.0562
 4691TIP3    H235565   3.295   1.211   2.779 -0.0365  0.7325 -0.2521
 4692TIP3   OH235566   0.861   5.576  11.428 -0.1188 -0.0126  0.2927
 4692TIP3    H135567   0.833   5.531  11.508  1.3220  0.0227  0.8251
 4692TIP3    H235568   0.815   5.531  11.358 -1.5102  0.0353  1.1467
 4693TIP3   OH235569   2.174   0.232   3.301  0.3027 -0.5322  0.1651
 4693TIP3    H135570   2.193   0.149   3.257  1.4445 -0.5233  0.6242
 4693TIP3    H235571   2.260   0.265   3.326 -0.0616  1.2308 -0.8168
 4694TIP3   OH235572   4.394   1.361  13.717 -0.1086 -0.1069  0.0603
 4694TIP3    H135573   4.320   1.388  13.772  1.0766 -0.2574  1.7679
 4694TIP3    H235574   4.418   1.440  13.668 -0.2724  0.4127  0.8136
 4695TIP3   OH235575   1.307   6.454  13.726 -0.8664  0.1863  0.3915
 4695TIP3    H135576   1.290   6.522  13.791 -2.5322 -1.9155  2.2254
 4695TIP3    H235577   1.234   6.461  13.665 -0.4107  0.7668 -0.1061
 4696TIP3   OH235578   3.641   1.263  14.656 -0.2677 -0.0653 -0.3774
 4696TIP3    H135579   3.703   1.244  14.726 -0.1747 -0.1138 -0.4743
 4696TIP3    H235580   3.678   1.338  14.610 -0.2700 -0.1078 -0.4480
 4697TIP3   OH235581   2.585   0.863   4.646  0.2539 -0.4035  0.0181
 4697TIP3    H135582   2.554   0.820   4.566 -0.5749  0.0075  0.1206
 4697TIP3    H235583   2.614   0.950   4.617 -0.2772 -0.1621  0.1994
 4698TIP3   OH235584   0.506   6.460  15.144 -0.5064 -0.4736 -0.2047
 4698TIP3    H135585   0.587   6.409  15.131 -0.1224  0.2965 -0.8741
 4698TIP3    H235586   0.448   6.429  15.074 -0.0397  0.4573 -1.0208
 4699TIP3   OH235587   3.672   6.702  14.458  0.4261  0.2951 -0.0268
 4699TIP3    H135588   3.737   6.654  14.509  0.0792 -1.2482 -0.9843
 4699TIP3    H235589   3.723   6.761  14.403  0.8744  0.8763  0.9971
 4700TIP3   OH235590   5.356   5.505  12.804 -0.0559  0.1609 -0.1727
 4700TIP3    H135591   5.371   5.410  12.802  0.2511  0.2295 -1.0888
 4700TIP3    H235592   5.338   5.529  12.714  1.3654  1.2102 -0.1933
 4701TIP3   OH235593   0.769   1.593  10.853  1.0080 -1.1957 -0.0929
 4701TIP3    H135594   0.800   1.682  10.869  1.9804 -1.7219  0.9845
 4701TIP3    H235595   0.718   1.600  10.772  0.4119  0.4844  0.4137
 4702TIP3   OH235596   5.544   2.105  11.631 -0.6513 -0.1806  0.4711
 4702TIP3    H135597   5.457   2.105  11.671 -1.3346  0.2416 -0.9739
 4702TIP3    H235598   5.601   2.143  11.698 -1.8153  0.7359  0.9656
 4703TIP3   OH235599   0.789   0.769  14.106  0.0992 -0.1491  0.2145
 4703TIP3    H135600   0.743   0.844  14.067  0.7483 -0.0882 -0.4485
 4703TIP3    H235601   0.719   0.710  14.132 -0.3557 -0.2946 -1.2849
 4704TIP3   OH235602   1.289   6.263  14.280  0.2211  0.1122 -0.0963
 4704TIP3    H135603   1.277   6.329  14.212  0.1768  0.3420  0.1281
 4704TIP3    H235604   1.302   6.314  14.360 -2.3568 -0.1124  0.5306
 4705TIP3   OH235605   3.587   0.839   4.319  0.5938  0.0964 -0.0175
 4705TIP3    H135606   3.597   0.789   4.400 -1.6923  0.0511  0.2708
 4705TIP3    H235607   3.522   0.905   4.339  0.8324  0.8153 -1.5105
 4706TIP3   OH235608   2.834   3.254  15.471 -0.5387 -0.1917 -0.4839
 4706TIP3    H135609   2.833   3.171  15.520 -1.2978  1.0891  1.7835
 4706TIP3    H235610   2.902   3.306  15.513 -1.4375  1.0752 -0.5582
 4707TIP3   OH235611   3.921   2.795   1.754  0.6714  0.4051  0.0965
 4707TIP3    H135612   3.955   2.817   1.667 -0.4602  1.8241 -0.0144
 4707TIP3    H235613   3.846   2.738   1.736  0.5960  0.4904  0.1346
 4708TIP3   OH235614   5.694   6.273   0.099 -0.1060 -0.3358 -0.5783
 4708TIP3    H135615   5.638   6.289   0.176  0.6146 -1.1526  0.1144
 4708TIP3    H235616   5.725   6.184   0.109 -0.0431 -0.4727 -1.8599
 4709TIP3   OH235617   1.509   0.759   1.927  0.2073  0.3733  0.3682
 4709TIP3    H135618   1.467   0.775   2.011  0.6441 -0.7481  0.8151
 4709TIP3    H235619   1.555   0.676   1.939  0.2015  0.1596 -1.0056
 4710TIP3   OH235620   2.512   4.134   4.517  0.5001 -0.2681  0.3687
 4710TIP3    H135621   2.487   4.209   4.463 -0.2707 -0.1053  0.9419
 4710TIP3    H235622   2.599   4.109   4.484  0.6347  0.6822 -0.0315
 4711TIP3   OH235623   3.449   5.690   1.542  0.1673 -0.3371 -0.1381
 4711TIP3    H135624   3.477   5.653   1.625 -1.2015 -0.6006  0.2109
 4711TIP3    H235625   3.370   5.641   1.518 -0.6168  1.0922 -0.5843
 4712TIP3   OH235626   1.124   1.145  13.090  0.3125 -0.1708  0.3660
 4712TIP3    H135627   1.094   1.157  13.000  0.2327  1.9203  0.6412
 4712TIP3    H235628   1.158   1.055  13.092  0.2594 -0.2696 -1.7221
 4713TIP3   OH235629   6.075   6.154  12.823  0.1340 -0.4812 -0.1312
 4713TIP3    H135630   6.080   6.226  12.886  1.1674 -0.8219  0.1838
 4713TIP3    H235631   5.996   6.172  12.773 -0.5665 -0.0657  1.0927
 4714TIP3   OH235632   5.986   0.507   3.267 -0.0243 -0.6852 -0.1803
 4714TIP3    H135633   5.972   0.493   3.173 -0.3813  0.1453 -0.2477
 4714TIP3    H235634   5.945   0.431   3.308  0.0755 -1.0231 -0.6902
 4715TIP3   OH235635   4.800   5.874  16.713 -0.0178  0.5949  0.6523
 4715TIP3    H135636   4.844   5.889  16.797 -0.5359  0.4298  0.9571
 4715TIP3    H235637   4.715   5.835  16.737 -0.5245  1.3427  0.1012
 4716TIP3   OH235638   6.216   6.623  15.746 -0.2413 -0.4644  0.5281
 4716TIP3    H135639   6.262   6.548  15.782 -0.9097 -0.9901  0.2906
 4716TIP3    H235640   6.129   6.620  15.786 -0.1386  0.4310  0.8496
 4717TIP3   OH235641   0.322   4.014   3.063 -0.2922 -0.1908  0.0902
 4717TIP3    H135642   0.358   4.102   3.047  0.0707 -0.1214  1.2360
 4717TIP3    H235643   0.386   3.954   3.025  0.0085 -0.0000  0.2968
 4718TIP3   OH235644   4.885   1.347  12.739 -0.2879  0.7485  0.6168
 4718TIP3    H135645   4.842   1.428  12.711  1.6922  1.2937 -1.0607
 4718TIP3    H235646   4.825   1.277  12.711 -0.3969  1.5054 -1.1439
 4719TIP3   OH235647   0.103   3.324   5.831 -0.2391  0.0640 -0.3098
 4719TIP3    H135648   0.060   3.239   5.835  0.4937 -0.3197 -0.6338
 4719TIP3    H235649   0.138   3.337   5.919  0.5096 -0.4149 -0.5361
 4720TIP3   OH235650   0.508   6.297  13.892 -0.7516 -0.1377  0.4275
 4720TIP3    H135651   0.496   6.288  13.987  2.5489 -0.8930  0.8592
 4720TIP3    H235652   0.572   6.368  13.882 -0.6707 -0.4163 -1.1866
 4721TIP3   OH235653   3.465   4.900   2.882 -0.4212 -0.2827 -0.8548
 4721TIP3    H135654   3.532   4.857   2.935  0.5801  0.3045 -1.6291
 4721TIP3    H235655   3.467   4.854   2.798  1.0848  1.6354 -1.9059
 4722TIP3   OH235656   0.014   1.607  11.925 -0.2974 -0.0839  0.5780
 4722TIP3    H135657   0.015   1.548  12.000 -0.7449  0.6665  1.1868
 4722TIP3    H235658   0.100   1.596  11.885  0.2097  0.0077  1.6040
 4723TIP3   OH235659   4.980   2.390   3.544  0.5860  0.5182 -0.4764
 4723TIP3    H135660   4.953   2.438   3.622  0.4177  0.2539 -0.3727
 4723TIP3    H235661   4.928   2.310   3.545 -0.2772  1.0578 -1.5033
 4724TIP3   OH235662   1.904   0.383   1.122 -0.5251  0.4129 -0.5326
 4724TIP3    H135663   1.878   0.463   1.077  2.7849  2.4223  0.9427
 4724TIP3    H235664   1.847   0.378   1.198 -2.2706  0.0871 -1.8246
 4725TIP3   OH235665   4.774   5.377   1.835 -0.1416  0.4110 -0.1314
 4725TIP3    H135666   4.800   5.311   1.771  1.1274  0.5675  0.2139
 4725TIP3    H235667   4.700   5.422   1.794 -1.5581 -1.7325 -0.0260
 4726TIP3   OH235668   3.613   3.325  12.061  0.0957 -0.2516 -0.1530
 4726TIP3    H135669   3.644   3.346  11.972  1.1971 -2.3715 -0.2930
 4726TIP3    H235670   3.517   3.323  12.053  0.2172 -1.2602 -1.4931
 4727TIP3   OH235671   0.050   4.831   1.273  0.1897 -0.1890  0.3720
 4727TIP3    H135672   0.021   4.922   1.277  0.3097 -0.2310  2.4673
 4727TIP3    H235673   0.048   4.810   1.179  1.2604  2.3032 -0.2481
 4728TIP3   OH235674   2.535   4.499   5.330  0.2752 -0.4324 -0.9842
 4728TIP3    H135675   2.567   4.414   5.358  0.2943  0.0434  0.4712
 4728TIP3    H235676   2.450   4.481   5.289 -0.0159 -1.0762 -0.1093
 4729TIP3   OH235677   0.499   3.327   2.080  0.0271 -0.3063  0.9123
 4729TIP3    H135678   0.591   3.342   2.098  0.3304 -1.4530  0.3445
 4729TIP3    H235679   0.483   3.370   1.996  0.5191 -1.7778  0.0540
 4730TIP3   OH235680   3.128   5.507   4.342  0.7032  0.2937 -0.3385
 4730TIP3    H135681   3.058   5.491   4.279  0.6697  2.1555 -0.7876
 4730TIP3    H235682   3.131   5.428   4.395 -2.6785  0.7759  0.6252
 4731TIP3   OH235683   5.127   3.660   2.854 -0.1683 -0.2020  0.4969
 4731TIP3    H135684   5.112   3.566   2.847  2.5835 -0.5985 -0.8324
 4731TIP3    H235685   5.039   3.699   2.849 -1.4748 -2.7207  2.5298
 4732TIP3   OH235686   0.938   6.608  16.484  0.3996  0.6421 -0.6238
 4732TIP3    H135687   0.941   6.560  16.567 -1.7974 -1.0913 -1.5169
 4732TIP3    H235688   0.923   6.541  16.418 -0.1866  2.2784 -2.1901
 4733TIP3   OH235689   3.100   4.322  11.205  0.1535  0.2692  0.1076
 4733TIP3    H135690   3.176   4.315  11.262  1.3971  0.6048 -1.4645
 4733TIP3    H235691   3.103   4.244  11.150  0.8452  1.4972 -1.6761
 4734TIP3   OH235692   0.160   2.194   1.304 -0.0894 -0.0748 -0.6019
 4734TIP3    H135693   0.218   2.228   1.236  1.5886 -0.8430  0.3971
 4734TIP3    H235694   0.198   2.226   1.386 -2.5477  1.5329 -0.0343
 4735TIP3   OH235695   5.045   4.839   2.592 -0.1513  0.0963  0.6066
 4735TIP3    H135696   4.992   4.846   2.672 -0.7943  0.8687  0.1216
 4735TIP3    H235697   5.019   4.915   2.539 -0.5943 -1.0215 -0.8374
 4736TIP3   OH235698   4.694   1.740  11.139  0.0856 -0.4431 -0.6825
 4736TIP3    H135699   4.776   1.789  11.129 -1.0333  1.3233 -1.6018
 4736TIP3    H235700   4.704   1.664  11.082  0.4246  0.6813 -2.1732
 4737TIP3   OH235701   6.564   5.850  17.081  0.6498  0.3684 -0.3267
 4737TIP3    H135702   6.506   5.848  17.005  0.3750  1.2839 -0.1431
 4737TIP3    H235703   6.567   5.942  17.108 -1.2506 -0.2416  2.2550
 4738TIP3   OH235704   0.470   6.055   4.469 -0.4263  0.2008  0.2996
 4738TIP3    H135705   0.510   6.130   4.424 -1.9054  1.8200  1.6062
 4738TIP3    H235706   0.414   6.095   4.536 -3.6312 -1.9886 -0.9733
 4739TIP3   OH235707   4.725   2.185   4.430  0.2789 -0.2640  0.2312
 4739TIP3    H135708   4.649   2.133   4.455 -0.9365  0.0419 -2.6825
 4739TIP3    H235709   4.781   2.125   4.381  1.3466 -0.1600  1.2959
 4740TIP3   OH235710   0.889   4.798  15.849 -0.3326 -0.8313 -0.4771
 4740TIP3    H135711   0.812   4.743  15.864 -1.3137  0.5149 -0.4315
 4740TIP3    H235712   0.945   4.746  15.791 -1.3536 -1.7570 -0.6566
 4741TIP3   OH235713   1.364   4.638   4.647 -0.5431  0.0918 -0.2189
 4741TIP3    H135714   1.298   4.625   4.715 -1.3736 -1.5421 -1.3172
 4741TIP3    H235715   1.314   4.649   4.566  0.4998 -0.0018 -0.8870
 4742TIP3   OH235716   3.056   4.425  10.829  0.5576 -0.1991 -0.3488
 4742TIP3    H135717   2.983   4.403  10.772 -0.5541  0.0045  0.9858
 4742TIP3    H235718   3.130   4.374  10.794 -0.8617 -2.5148 -0.0625
 4743TIP3   OH235719   0.674   2.003  10.470 -0.5591  0.1588 -0.3650
 4743TIP3    H135720   0.702   1.920  10.432 -1.4558 -0.6402  0.6935
 4743TIP3    H235721   0.723   2.011  10.551 -2.0108 -0.3597  0.5809
 4744TIP3   OH235722   1.071   5.583   5.387 -0.0929  0.0230 -0.2378
 4744TIP3    H135723   1.132   5.654   5.406 -0.0558 -0.5247  1.9269
 4744TIP3    H235724   1.117   5.528   5.323  0.9253  0.6214 -0.0319
 4745TIP3   OH235725   3.183   2.944  12.132  0.0834 -0.1035 -0.1895
 4745TIP3    H135726   3.163   2.894  12.053 -0.1264  1.3940 -1.0914
 4745TIP3    H235727   3.146   2.891  12.203 -0.8683 -0.8189 -1.2016
 4746TIP3   OH235728   5.771   4.473  12.473 -0.0180  0.3872 -0.0604
 4746TIP3    H135729   5.867   4.479  12.468  0.1727 -1.3256  0.9006
 4746TIP3    H235730   5.752   4.381  12.456 -1.6517  1.0199 -1.8855
 4747TIP3   OH235731   6.772   0.403  16.029 -0.2976 -0.1789 -0.8584
 4747TIP3    H135732   6.845   0.464  16.018 -0.2081 -0.4612 -1.8546
 4747TIP3    H235733   6.759   0.399  16.124 -0.0344  1.0604 -0.7604
 4748TIP3   OH235734   4.872   6.001   4.890 -0.0831 -0.0686  0.3016
 4748TIP3    H135735   4.778   5.993   4.874 -0.4119  0.7496  1.7275
 4748TIP3    H235736   4.912   5.941   4.827 -1.5841 -0.8077  0.0174
 4749TIP3   OH235737   3.883   0.097  15.461  0.2781 -0.3103  0.8628
 4749TIP3    H135738   3.887   0.059  15.373 -2.0439  0.7032  0.3024
 4749TIP3    H235739   3.912   0.026  15.518  1.1241 -1.2142 -0.6352
 4750TIP3   OH235740   3.250   1.285   5.897  0.1271 -0.3984 -0.4539
 4750TIP3    H135741   3.211   1.307   5.813  2.0158  0.1212 -1.2085
 4750TIP3    H235742   3.217   1.198   5.917 -2.3997  0.5195 -0.4731
 4751TIP3   OH235743   6.751   3.872  16.783  0.0101 -0.2509  0.2628
 4751TIP3    H135744   6.656   3.866  16.780 -0.0427 -0.6367  1.8883
 4751TIP3    H235745   6.768   3.956  16.825  0.3704 -0.3912  0.4027
 4752TIP3   OH235746   1.877   4.009  12.050 -0.1273 -0.6155 -0.0165
 4752TIP3    H135747   1.795   3.978  12.089 -1.5642 -1.6834 -3.7004
 4752TIP3    H235748   1.862   4.102  12.033  0.5230 -0.1338  1.9329
 4753TIP3   OH235749   5.425   4.943   0.248 -0.6409 -0.1433  0.4806
 4753TIP3    H135750   5.459   4.952   0.337 -0.6247 -0.0886  0.4690
 4753TIP3    H235751   5.466   5.014   0.199 -1.9303  0.8693  0.8214
 4754TIP3   OH235752   0.656   4.333  13.171 -0.3302  0.3147  0.1878
 4754TIP3    H135753   0.636   4.246  13.136  0.1514  0.3584 -0.1991
 4754TIP3    H235754   0.576   4.359  13.216  0.2570 -1.2766  2.2656
 4755TIP3   OH235755   2.683   0.789  12.841  0.1733 -0.2062  0.1343
 4755TIP3    H135756   2.764   0.834  12.866  0.3577  0.3111 -1.3228
 4755TIP3    H235757   2.691   0.776  12.746 -0.2382 -2.6255  0.4073
 4756TIP3   OH235758   1.075   0.204   1.372  0.3965 -0.1978  0.1481
 4756TIP3    H135759   1.040   0.132   1.320 -1.0982  1.1233 -0.7360
 4756TIP3    H235760   1.047   0.185   1.462  1.4849 -1.5832  0.2118
 4757TIP3   OH235761   3.954   4.320   0.093 -0.6778 -0.5741 -0.3027
 4757TIP3    H135762   3.861   4.299   0.086 -0.5770 -1.0507 -0.2124
 4757TIP3    H235763   3.955   4.412   0.120 -1.1257 -0.7739  0.4009
 4758TIP3   OH235764   4.761   2.256   4.987 -0.1522  0.4797  0.1178
 4758TIP3    H135765   4.820   2.215   5.050 -1.0009 -0.1962  0.4685
 4758TIP3    H235766   4.761   2.197   4.912 -0.1932  0.6065  0.0179
 4759TIP3   OH235767   3.545   1.027  12.131 -0.2292 -0.1800  0.2576
 4759TIP3    H135768   3.478   1.079  12.086 -0.8925 -1.0084  0.2897
 4759TIP3    H235769   3.514   1.021  12.221  1.0346  1.3671  0.8359
 4760TIP3   OH235770   1.769   3.457   1.319  0.0025  0.0204  0.0958
 4760TIP3    H135771   1.705   3.528   1.327 -0.2027 -0.2591  0.9791
 4760TIP3    H235772   1.853   3.502   1.312 -0.1633  0.3595  0.2646
 4761TIP3   OH235773   2.188   1.470  16.714 -0.1622  0.0291  0.1213
 4761TIP3    H135774   2.098   1.447  16.737 -0.9129  2.9270  0.3557
 4761TIP3    H235775   2.241   1.399  16.748 -2.2937 -1.3176  0.7306
 4762TIP3   OH235776   6.164   1.378  12.516 -0.1296 -0.3359 -0.4185
 4762TIP3    H135777   6.108   1.418  12.583 -0.2063  0.1641 -0.7829
 4762TIP3    H235778   6.149   1.430  12.438  1.5708  0.3841 -0.2746
 4763TIP3   OH235779   4.606   6.335  16.133 -0.1684  0.1126  1.0464
 4763TIP3    H135780   4.525   6.295  16.102 -0.6582  0.2983  2.0789
 4763TIP3    H235781   4.638   6.276  16.201  1.2836 -0.6720 -0.2751
 4764TIP3   OH235782   5.392   3.384   2.207 -0.4269  0.6413  0.0671
 4764TIP3    H135783   5.457   3.426   2.152 -0.1551  0.8308  0.5339
 4764TIP3    H235784   5.309   3.400   2.162  0.0183 -1.0911 -1.4559
 4765TIP3   OH235785   0.855   1.826   5.460  0.1604 -0.3483 -0.1569
 4765TIP3    H135786   0.923   1.776   5.504  0.2344  0.3260  0.5045
 4765TIP3    H235787   0.894   1.912   5.446 -1.0274  0.4810  1.4798
 4766TIP3   OH235788   3.874   5.069  16.896 -0.3684  0.1487 -0.1553
 4766TIP3    H135789   3.893   5.152  16.940  0.6175 -0.3957  0.4511
 4766TIP3    H235790   3.844   5.011  16.967  0.2119 -0.4107 -0.3659
 4767TIP3   OH235791   1.540   2.433   5.146  0.0829  0.0668 -0.1801
 4767TIP3    H135792   1.550   2.527   5.155  1.2691 -0.2459  2.1045
 4767TIP3    H235793   1.538   2.400   5.235 -0.9703 -2.0244 -0.9388
 4768TIP3   OH235794   4.562   6.618   3.211 -0.4139  0.2974 -0.1200
 4768TIP3    H135795   4.556   6.647   3.120 -0.7373 -2.3185 -0.9887
 4768TIP3    H235796   4.473   6.627   3.245 -0.6825 -0.3665 -0.6236
 4769TIP3   OH235797   0.127   6.110   4.389  0.3427  0.7316  0.3068
 4769TIP3    H135798   0.180   6.051   4.443  0.6795  0.8457  0.0997
 4769TIP3    H235799   0.081   6.051   4.328  2.1522  0.8236 -1.1848
 4770TIP3   OH235800   3.804   4.806   0.412 -0.0358  0.3131  0.1630
 4770TIP3    H135801   3.893   4.784   0.440  0.2559 -0.5789 -1.3715
 4770TIP3    H235802   3.817   4.863   0.336 -0.7935  1.2186  0.6953
 4771TIP3   OH235803   0.801   4.214  16.940 -0.6996 -1.0576 -0.5719
 4771TIP3    H135804   0.795   4.260  16.856 -0.2161  0.1640  0.0480
 4771TIP3    H235805   0.879   4.159  16.931  1.1477  1.3651  0.1453
 4772TIP3   OH235806   2.032   0.369   1.801 -0.2553 -0.0613 -0.1457
 4772TIP3    H135807   1.969   0.350   1.732  0.4232  2.1403 -1.4143
 4772TIP3    H235808   2.047   0.463   1.795  1.6117 -0.2165  1.4592
 4773TIP3   OH235809   0.444   4.092  11.835 -0.3543  1.0990 -0.2397
 4773TIP3    H135810   0.506   4.166  11.840 -1.9035  2.3958  0.2747
 4773TIP3    H235811   0.434   4.064  11.926 -0.8040  1.1331 -0.2785
 4774TIP3   OH235812   0.940   0.744  14.325  0.0849  0.4559  0.3292
 4774TIP3    H135813   0.881   0.755  14.250  1.8783  1.4508 -0.9837
 4774TIP3    H235814   1.015   0.696  14.289  0.1451 -0.6449  1.9268
 4775TIP3   OH235815   2.624   6.265  14.477 -0.2941 -0.3068 -0.3732
 4775TIP3    H135816   2.629   6.241  14.569 -0.6357 -1.6179 -0.6840
 4775TIP3    H235817   2.626   6.361  14.477 -2.6894 -0.1988  1.1508
 4776TIP3   OH235818   2.592   4.527   4.427 -0.1540 -0.3429  0.2776
 4776TIP3    H135819   2.574   4.609   4.381 -1.4745 -0.7488  0.0536
 4776TIP3    H235820   2.557   4.541   4.515  0.6508 -0.2538  0.5841
 4777TIP3   OH235821   1.089   0.097   0.828  0.1076 -0.5455  0.6823
 4777TIP3    H135822   1.079   0.193   0.822  0.2160 -0.4780  1.5751
 4777TIP3    H235823   0.999   0.064   0.819  0.1132 -0.3873 -0.0280
 4778TIP3   OH235824   2.606   5.788  16.918  0.2841 -0.4041 -0.3501
 4778TIP3    H135825   2.603   5.875  16.957 -0.7966 -0.3428 -0.5586
 4778TIP3    H235826   2.624   5.803  16.825 -0.7399 -0.3360 -0.5511
 4779TIP3   OH235827   3.088   3.767  16.680 -0.0477  0.1441  0.0641
 4779TIP3    H135828   3.109   3.836  16.616 -2.8452  0.9386 -0.0779
 4779TIP3    H235829   3.163   3.766  16.739  0.3522  2.9163 -0.2964
 4780TIP3   OH235830   3.795   1.457  16.505 -0.1894  0.4827 -0.5523
 4780TIP3    H135831   3.838   1.420  16.427 -0.2611 -0.0742 -0.3323
 4780TIP3    H235832   3.831   1.545  16.512  0.3494  0.2896 -0.8136
 4781TIP3   OH235833   3.361   5.552   6.270  0.4078 -0.0798  0.2671
 4781TIP3    H135834   3.408   5.609   6.208 -0.5829 -1.4820 -1.8549
 4781TIP3    H235835   3.430   5.501   6.312  0.9546 -1.4378 -2.1304
 4782TIP3   OH235836   6.203   6.787  14.659  0.4928  0.3590 -0.3546
 4782TIP3    H135837   6.202   6.770  14.564 -0.9005 -1.9388  0.0439
 4782TIP3    H235838   6.227   6.703  14.698 -1.0428  0.7311  1.4304
 4783TIP3   OH235839   1.785   0.417  12.757 -0.0503  0.3800  0.3800
 4783TIP3    H135840   1.694   0.409  12.728  0.2867  0.3612 -0.6711
 4783TIP3    H235841   1.810   0.328  12.783 -0.0406  0.2098 -0.2061
 4784TIP3   OH235842   3.931   0.396   2.996 -0.1318 -0.7579  0.5658
 4784TIP3    H135843   3.987   0.318   2.995 -0.1337 -0.7541  0.1747
 4784TIP3    H235844   3.985   0.464   3.037 -0.2733 -1.0708  1.2713
 4785TIP3   OH235845   1.822   4.085   5.239  0.2449  0.7197 -0.4160
 4785TIP3    H135846   1.809   4.063   5.331 -0.8964 -0.1270 -0.7597
 4785TIP3    H235847   1.739   4.125   5.212  0.3424  0.3932 -1.2166
 4786TIP3   OH235848   1.326   0.358  11.057  0.2356  0.5492  0.3390
 4786TIP3    H135849   1.232   0.348  11.068  0.4148 -1.7808  0.0263
 4786TIP3    H235850   1.363   0.333  11.142  0.6396  0.1944  0.0604
 4787TIP3   OH235851   1.957   1.917   1.902 -0.3084 -0.3385  0.2656
 4787TIP3    H135852   2.031   1.949   1.850  0.4440  0.6175  1.8903
 4787TIP3    H235853   1.914   1.996   1.933  0.6496 -0.8589  3.0488
 4788TIP3   OH235854   2.713   3.402   4.303  0.0840  0.3521  0.3306
 4788TIP3    H135855   2.725   3.413   4.209  1.6017  1.7147  0.6481
 4788TIP3    H235856   2.763   3.323   4.325  2.6785  1.9772  0.5005
 4789TIP3   OH235857   3.495   3.552  14.429  0.4023 -0.4267  0.2128
 4789TIP3    H135858   3.494   3.528  14.336 -0.4699  1.4239 -0.2730
 4789TIP3    H235859   3.576   3.601  14.441  0.1308  0.0107  0.2546
 4790TIP3   OH235860   0.757   4.578   1.870  0.0939 -0.7946  0.0235
 4790TIP3    H135861   0.757   4.484   1.852  2.0087 -1.0024  0.9722
 4790TIP3    H235862   0.847   4.598   1.896 -0.3420  1.2611  0.0755
 4791TIP3   OH235863   0.762   2.622  15.253  0.1386 -0.0432  0.0618
 4791TIP3    H135864   0.750   2.707  15.296  1.0411 -1.0092  2.3015
 4791TIP3    H235865   0.848   2.593  15.282 -1.0560 -2.6950  1.1024
 4792TIP3   OH235866   3.036   5.136  16.450  0.3550  0.3857 -0.2048
 4792TIP3    H135867   2.966   5.199  16.431  0.5683  0.8788  0.5918
 4792TIP3    H235868   3.058   5.153  16.542 -0.1979 -1.4652  0.2915
 4793TIP3   OH235869   3.256   4.178   2.206 -0.2266 -0.1983  0.1232
 4793TIP3    H135870   3.202   4.257   2.212  0.7626  0.5420 -0.6246
 4793TIP3    H235871   3.281   4.173   2.114 -0.7074 -1.6734  0.0683
 4794TIP3   OH235872   0.597   0.399  17.285 -0.1340 -0.1200  0.1421
 4794TIP3    H135873   0.674   0.418  17.231  1.1506 -0.5370  1.7864
 4794TIP3    H235874   0.538   0.473  17.270  0.5692  0.2087 -1.1171
 4795TIP3   OH235875   1.914   3.621  14.536 -0.2223 -0.2648  0.2965
 4795TIP3    H135876   1.932   3.529  14.519  2.8665  0.8015 -2.8201
 4795TIP3    H235877   1.994   3.655  14.576 -0.1154  1.7565 -1.5545
 4796TIP3   OH235878   0.103   2.860   2.233  0.5855  0.3100  0.5702
 4796TIP3    H135879   0.109   2.909   2.151  0.3699  1.0748  1.0071
 4796TIP3    H235880   0.146   2.916   2.298  1.1144 -0.4653  0.9029
 4797TIP3   OH235881   6.050   3.551   0.656  0.1476 -0.3607 -0.4725
 4797TIP3    H135882   6.081   3.522   0.742  1.0119 -2.2567 -1.3954
 4797TIP3    H235883   5.974   3.496   0.638 -0.4505  0.5059 -0.6310
 4798TIP3   OH235884   0.139   5.160  13.027  0.2776  0.5641 -0.1447
 4798TIP3    H135885   0.223   5.131  12.992  0.5328 -1.4691  2.0715
 4798TIP3    H235886   0.159   5.241  13.074  0.6921  0.9422 -0.9633
 4799TIP3   OH235887   2.291   3.433   1.260 -0.5311  0.1893 -0.9102
 4799TIP3    H135888   2.200   3.454   1.237 -0.6729 -1.1419 -1.6705
 4799TIP3    H235889   2.339   3.443   1.178 -0.5671 -2.0960 -1.2519
 4800TIP3   OH235890   3.258   4.995  11.131  0.0417 -0.1510  0.3901
 4800TIP3    H135891   3.222   5.010  11.044 -0.8898  0.7977  0.9288
 4800TIP3    H235892   3.190   4.947  11.178  0.1005  0.2889  0.9324
 4801TIP3   OH235893   3.440   2.580   1.586  0.1442  0.1594  0.3970
 4801TIP3    H135894   3.374   2.616   1.645 -1.6510  0.1736 -1.5528
 4801TIP3    H235895   3.460   2.651   1.526  1.7929  0.0811  0.8317
 4802TIP3   OH235896   6.202   6.210   3.027 -0.7296  0.2748 -0.0812
 4802TIP3    H135897   6.140   6.229   3.097 -1.0384 -1.1678  0.0465
 4802TIP3    H235898   6.284   6.248   3.057 -0.9598  0.0173  0.8887
 4803TIP3   OH235899   6.489   4.713   4.970 -0.2807  0.8816 -0.2743
 4803TIP3    H135900   6.528   4.738   4.886 -0.7290  0.6393 -0.5637
 4803TIP3    H235901   6.494   4.617   4.971  1.0912  0.9617  0.6602
 4804TIP3   OH235902   1.430   6.250  12.455 -0.3722 -1.0358  0.0540
 4804TIP3    H135903   1.375   6.176  12.430  0.5873 -1.6338 -0.3001
 4804TIP3    H235904   1.469   6.224  12.538  1.1434 -1.5561 -0.8171
 4805TIP3   OH235905   6.623   6.026   6.734  0.3487 -0.2482  0.5675
 4805TIP3    H135906   6.586   6.103   6.692  1.0247 -1.2950 -2.0081
 4805TIP3    H235907   6.703   6.058   6.777  1.0476  0.3504 -1.1452
 4806TIP3   OH235908   0.263   2.004   2.735 -0.9473 -0.2613  0.2293
 4806TIP3    H135909   0.269   1.911   2.754  0.1255 -0.1135  0.6586
 4806TIP3    H235910   0.184   2.033   2.781 -0.7472 -0.7641  0.8914
 4807TIP3   OH235911   5.306   2.916   0.617  0.2238  0.4927  0.1835
 4807TIP3    H135912   5.239   2.905   0.684  0.6427 -0.4983  0.4615
 4807TIP3    H235913   5.262   2.961   0.545 -0.7192 -0.0895  0.3901
 4808TIP3   OH235914   3.513   2.120   1.262  0.5378 -0.0275  0.0970
 4808TIP3    H135915   3.479   2.184   1.324  0.3167  0.2446 -0.3003
 4808TIP3    H235916   3.588   2.163   1.221 -1.2067  1.0137 -2.0807
 4809TIP3   OH235917   3.482   5.990  12.594 -0.2793 -0.2116  0.1662
 4809TIP3    H135918   3.477   5.911  12.540 -0.7830 -0.8439  1.1255
 4809TIP3    H235919   3.419   5.975  12.664 -2.1912  2.1144 -0.9944
 4810TIP3   OH235920   5.258   6.313   6.496  0.2889 -0.0274  0.4016
 4810TIP3    H135921   5.296   6.312   6.408 -0.8009 -2.1613 -0.0730
 4810TIP3    H235922   5.168   6.283   6.484 -0.7103  2.2211  1.9104
 4811TIP3   OH235923   3.207   2.528  12.913  0.3736  0.1626  0.3342
 4811TIP3    H135924   3.276   2.592  12.900 -1.0025  1.3512 -1.4348
 4811TIP3    H235925   3.136   2.577  12.956 -0.0225 -0.5970  0.5552
 4812TIP3   OH235926   0.055   1.005  12.535  0.3064 -0.3375  0.4488
 4812TIP3    H135927   0.128   0.958  12.577  0.9898  1.4714  1.3221
 4812TIP3    H235928   0.096   1.079  12.491 -0.8828  0.0568 -0.0049
 4813TIP3   OH235929   4.081   0.153   0.509  0.6484 -0.0814 -0.0945
 4813TIP3    H135930   4.060   0.225   0.451  0.4435 -0.6507 -0.7312
 4813TIP3    H235931   4.007   0.148   0.570 -0.8618 -1.7528 -2.0060
 4814TIP3   OH235932   2.908   1.342  11.626 -0.1269 -0.3248  0.0228
 4814TIP3    H135933   2.992   1.388  11.625 -0.1724 -0.2504 -1.0077
 4814TIP3    H235934   2.848   1.404  11.666 -0.0119  0.2281 -0.6419
 4815TIP3   OH235935   0.119   1.596   3.224  0.0523  0.3013  0.1988
 4815TIP3    H135936   0.194   1.654   3.240 -0.2700  0.2965  1.8206
 4815TIP3    H235937   0.153   1.529   3.164  1.2367  0.5320  0.5897
 4816TIP3   OH235938   1.250   0.562  12.546  0.1135 -0.0105 -0.0222
 4816TIP3    H135939   1.195   0.485  12.538 -1.1736  1.0518 -1.6680
 4816TIP3    H235940   1.258   0.596  12.457  0.2143  2.0683  0.7508
 4817TIP3   OH235941   2.714   3.687  15.135  0.4133  0.3455  0.0579
 4817TIP3    H135942   2.757   3.771  15.155  0.6745 -0.0585  1.2244
 4817TIP3    H235943   2.708   3.642  15.219  1.1045 -1.2047 -0.6962
 4818TIP3   OH235944   5.946   5.202   6.140  0.4949  0.2749 -0.2397
 4818TIP3    H135945   6.021   5.239   6.094  0.5172 -0.9038 -1.1612
 4818TIP3    H235946   5.960   5.107   6.138 -0.5222  0.0994  0.4292
 4819TIP3   OH235947   5.400   1.191   5.191 -0.3665 -0.5080 -0.0723
 4819TIP3    H135948   5.411   1.097   5.175 -0.9559 -0.4782 -0.6969
 4819TIP3    H235949   5.430   1.232   5.110  1.0967 -0.0817  0.6746
 4820TIP3   OH235950   3.088   2.668   0.450 -0.1886 -0.0291 -0.0938
 4820TIP3    H135951   3.024   2.599   0.468  0.7007 -1.3655 -1.8348
 4820TIP3    H235952   3.042   2.729   0.392 -0.5024  0.0381  0.2269
 4821TIP3   OH235953   1.873   5.005  11.315  0.6450 -0.3467 -0.1461
 4821TIP3    H135954   1.916   5.077  11.362 -0.2893  0.3332 -0.3331
 4821TIP3    H235955   1.813   5.048  11.255  0.4911 -1.2756 -0.6654
 4822TIP3   OH235956   2.850   1.975   3.466 -0.1044  0.5704  0.3830
 4822TIP3    H135957   2.880   1.888   3.440 -0.4313  0.8479 -0.9428
 4822TIP3    H235958   2.928   2.016   3.504  0.3756  0.1355 -0.1161
 4823TIP3   OH235959   0.101   4.289   3.148 -0.2323 -0.1447 -0.4715
 4823TIP3    H135960   0.046   4.299   3.226 -0.9212  1.3157 -1.0959
 4823TIP3    H235961   0.044   4.246   3.084 -0.9909  2.1268 -1.3971
 4824TIP3   OH235962   2.591   0.406  12.578  0.0864 -0.1696  0.1894
 4824TIP3    H135963   2.557   0.495  12.576  2.3900  0.7401 -1.1509
 4824TIP3    H235964   2.670   0.412  12.632  0.4053 -1.3415 -0.1347
 4825TIP3   OH235965   1.317   2.368   2.601 -0.1494 -0.4619 -0.1554
 4825TIP3    H135966   1.360   2.366   2.516 -1.2882  1.7591 -0.8277
 4825TIP3    H235967   1.357   2.442   2.648 -0.9126 -0.4306  0.4658
 4826TIP3   OH235968   4.725   0.579  16.346 -0.3485  0.6283  0.2711
 4826TIP3    H135969   4.759   0.633  16.417 -0.4030  0.5450  0.3598
 4826TIP3    H235970   4.789   0.590  16.275 -0.8630  1.5639 -0.0510
 4827TIP3   OH235971   0.173   6.626   5.291  0.2183  0.0158  0.0643
 4827TIP3    H135972   0.226   6.632   5.212 -0.9597 -1.1756 -0.8570
 4827TIP3    H235973   0.092   6.673   5.269 -0.7712 -1.6692 -0.0551
 4828TIP3   OH235974   1.866   1.598   5.650 -1.0163  0.1978  0.3603
 4828TIP3    H135975   1.857   1.503   5.646  0.2223  0.0831 -0.0117
 4828TIP3    H235976   1.919   1.620   5.573 -2.0159  1.2881 -0.0362
 4829TIP3   OH235977   2.573   6.476  16.349 -0.1942  0.8036  0.1528
 4829TIP3    H135978   2.632   6.423  16.295 -1.4920  0.0917 -0.5941
 4829TIP3    H235979   2.559   6.555  16.298 -0.7219  0.5156 -0.1429
 4830TIP3   OH235980   5.128   3.270  13.906 -0.4947 -0.5241  0.5187
 4830TIP3    H135981   5.219   3.257  13.933 -0.1207 -0.0358 -0.4755
 4830TIP3    H235982   5.130   3.264  13.810 -1.2543  0.8817  0.3921
 4831TIP3   OH235983   1.378   1.523   3.563 -0.4571  0.3526 -0.5920
 4831TIP3    H135984   1.386   1.608   3.522 -0.2352  0.8242  0.4014
 4831TIP3    H235985   1.374   1.461   3.491 -3.5748  1.4213 -1.4232
 4832TIP3   OH235986   1.746   0.483  13.046  1.0751  0.3707  0.0971
 4832TIP3    H135987   1.737   0.570  13.084 -1.1576  0.5309 -0.7099
 4832TIP3    H235988   1.836   0.480  13.014  1.0830  2.5113 -0.1752
 4833TIP3   OH235989   0.945   0.274  16.535 -0.2633  0.0129  0.0618
 4833TIP3    H135990   0.872   0.214  16.520 -1.3358  1.4537 -0.5489
 4833TIP3    H235991   0.992   0.277  16.451 -0.0671 -0.1489  0.1647
 4834TIP3   OH235992   4.363   3.243  11.836  0.2166  0.1541  0.0569
 4834TIP3    H135993   4.342   3.163  11.883 -1.4146  0.4065 -0.2305
 4834TIP3    H235994   4.289   3.257  11.777  0.0295  2.3627  0.7605
 4835TIP3   OH235995   5.634   0.434  14.294 -0.5525  0.3015  0.3118
 4835TIP3    H135996   5.549   0.469  14.267  0.5919  1.2888 -2.0867
 4835TIP3    H235997   5.690   0.511  14.302  0.6495 -0.5269 -0.0752
 4836TIP3   OH235998   4.191   1.042   5.797 -0.4937  0.0783  0.5071
 4836TIP3    H135999   4.279   1.081   5.803 -0.3318 -0.1513 -0.3798
 4836TIP3    H236000   4.206   0.955   5.760 -1.0111 -0.2832  1.1500
 4837TIP3   OH236001   0.019   6.426   1.378  0.3422  0.1893  0.0535
 4837TIP3    H136002   0.101   6.399   1.337  0.5009 -0.5762  0.8569
 4837TIP3    H236003  -0.048   6.402   1.315  0.6553 -0.1726 -0.1464
 4838TIP3   OH236004   2.962   3.749   0.959 -0.0392  0.3529 -0.4801
 4838TIP3    H136005   2.970   3.655   0.948 -0.8430  0.1939  0.2421
 4838TIP3    H236006   3.051   3.782   0.949 -0.0828 -0.2177 -3.0332
 4839TIP3   OH236007   4.912   3.443  16.391  0.1238 -0.1410 -0.9272
 4839TIP3    H136008   4.998   3.468  16.357 -0.0866  0.7692 -0.8097
 4839TIP3    H236009   4.857   3.434  16.313 -0.5813  2.7851 -0.8382
 4840TIP3   OH236010   2.394   4.150  16.049 -0.3916  1.0469 -0.4712
 4840TIP3    H136011   2.369   4.097  16.124  0.4091  1.2429 -0.0643
 4840TIP3    H236012   2.419   4.087  15.982  2.0480  0.8956  0.5204
 4841TIP3   OH236013   2.161   2.818   0.490 -0.0248 -0.3296  0.1344
 4841TIP3    H136014   2.176   2.810   0.395  0.7640  0.3184  0.2066
 4841TIP3    H236015   2.246   2.799   0.529  0.3461  2.2000  0.5960
 4842TIP3   OH236016   1.340   5.869  12.840 -0.3209  0.4422  0.4806
 4842TIP3    H136017   1.247   5.848  12.844 -0.6394  1.7069 -0.0259
 4842TIP3    H236018   1.373   5.849  12.927 -1.4782  1.8511  1.2605
 4843TIP3   OH236019   3.880   0.609  12.347  0.3045 -0.0727  0.0469
 4843TIP3    H136020   3.884   0.539  12.412  1.0827  0.5310  0.6533
 4843TIP3    H236021   3.796   0.652  12.363  0.4853  0.0627  0.6451
 4844TIP3   OH236022   3.841   2.963   2.188  0.3177  0.0579 -0.7498
 4844TIP3    H136023   3.848   3.052   2.153 -0.9392  0.6004  0.3679
 4844TIP3    H236024   3.913   2.957   2.251 -0.0401  0.5210 -0.2986
 4845TIP3   OH236025   2.693   2.382  15.625 -0.4775 -0.3368  0.0859
 4845TIP3    H136026   2.788   2.390  15.630 -0.7066  2.2624  0.9449
 4845TIP3    H236027   2.671   2.415  15.538 -0.7398  0.8118  0.5815
 4846TIP3   OH236028   1.855   2.257  11.810 -0.3483  0.3555  0.3515
 4846TIP3    H136029   1.941   2.219  11.791  0.2784  1.8174  0.2316
 4846TIP3    H236030   1.816   2.197  11.874  0.2623 -0.9685 -0.5075
 4847TIP3   OH236031   2.306   4.286  16.606 -0.1155  0.0602  0.5036
 4847TIP3    H136032   2.332   4.200  16.638  0.4001 -0.0182 -0.1316
 4847TIP3    H236033   2.285   4.335  16.685 -4.0762 -1.7931  0.7148
 4848TIP3   OH236034   5.052   5.716  16.206  0.0694 -0.4194  0.5113
 4848TIP3    H136035   5.088   5.805  16.215 -1.2332  0.3624 -1.5619
 4848TIP3    H236036   5.111   5.661  16.257  1.9054  1.4081  0.4370
 4849TIP3   OH236037   5.282   6.246  11.658 -0.0156  0.5933 -0.4942
 4849TIP3    H136038   5.332   6.228  11.737  0.4247 -0.5789 -1.0181
 4849TIP3    H236039   5.203   6.291  11.689  0.9798  1.7196  0.4103
 4850TIP3   OH236040   6.085   4.593   0.564  0.0561  0.1134  0.0754
 4850TIP3    H136041   6.167   4.603   0.517  0.0721  0.0874  0.0971
 4850TIP3    H236042   6.070   4.498   0.567 -1.9832  0.2572 -3.3854
 4851TIP3   OH236043   4.659   2.934  14.872  0.6069  0.4467 -0.5710
 4851TIP3    H136044   4.630   2.843  14.878 -0.4352  0.7514 -0.8920
 4851TIP3    H236045   4.662   2.964  14.963  1.2505  0.0037 -0.4430
 4852TIP3   OH236046   3.768   6.036  13.518 -0.4241  0.3748  1.2911
 4852TIP3    H136047   3.741   6.034  13.610  0.5940  0.0766  1.5924
 4852TIP3    H236048   3.828   6.111  13.513  0.4959 -0.3675  1.1523
 4853TIP3   OH236049   2.891   1.698   3.400 -0.3903 -0.1806  0.5920
 4853TIP3    H136050   2.916   1.683   3.309  0.9615 -0.9170  1.0726
 4853TIP3    H236051   2.954   1.647   3.451 -0.1687  1.4539  1.9997
 4854TIP3   OH236052   3.834   5.576   3.827  0.3735  0.1076 -0.3032
 4854TIP3    H136053   3.890   5.628   3.886  1.2218  0.7649 -1.6753
 4854TIP3    H236054   3.752   5.625   3.825  0.2818 -0.0053  0.4696
 4855TIP3   OH236055   2.066   6.667   2.665  1.0963  0.3033 -0.1799
 4855TIP3    H136056   2.049   6.589   2.612  0.2549  0.6995 -0.5084
 4855TIP3    H236057   2.057   6.740   2.604  1.5888  0.6784  0.1916
 4856TIP3   OH236058   1.437   5.550   2.329 -0.4531 -0.0827  0.0162
 4856TIP3    H136059   1.529   5.549   2.303 -1.0900 -0.3883 -2.3121
 4856TIP3    H236060   1.410   5.458   2.330 -1.1400  0.1026 -0.8292
 4857TIP3   OH236061   4.016   1.946   4.810  0.2281 -0.5185  0.1910
 4857TIP3    H136062   3.951   2.016   4.805 -0.1721 -0.8604  0.5339
 4857TIP3    H236063   3.964   1.866   4.817  0.6899 -0.7919  0.4767
 4858TIP3   OH236064   1.171   3.927   2.205 -0.5443 -0.4539 -0.3389
 4858TIP3    H136065   1.227   3.852   2.228 -1.7227 -1.0807  0.5510
 4858TIP3    H236066   1.215   4.003   2.244  0.9313 -0.5982 -1.6845
 4859TIP3   OH236067   0.567   0.804   0.046  0.1289 -0.4048 -0.3231
 4859TIP3    H136068   0.622   0.769   0.116  0.1348 -0.5467 -0.3975
 4859TIP3    H236069   0.510   0.731   0.022  0.3593 -0.4626 -0.7006
 4860TIP3   OH236070   4.173   3.830  14.903  0.0455  0.4449 -0.6955
 4860TIP3    H136071   4.221   3.905  14.869 -1.1959  1.5806  0.0233
 4860TIP3    H236072   4.144   3.857  14.990 -2.6640  0.1281 -1.4573
 4861TIP3   OH236073   1.734   3.403  15.584  0.0826 -0.0801  0.2242
 4861TIP3    H136074   1.814   3.401  15.532 -0.4753  0.0447 -0.6523
 4861TIP3    H236075   1.746   3.477  15.644 -0.6445  1.8801 -1.9809
 4862TIP3   OH236076   1.909   5.169  16.095  0.2045  0.5092 -0.0209
 4862TIP3    H136077   1.980   5.133  16.042  1.1305  0.3240  1.3424
 4862TIP3    H236078   1.854   5.094  16.117  0.2023  0.4828 -0.1130
 4863TIP3   OH236079   4.060   2.555  10.961  0.6315  0.0050 -0.7265
 4863TIP3    H136080   4.028   2.518  10.879  0.8868  0.7237 -1.1578
 4863TIP3    H236081   3.980   2.577  11.011  0.4819 -0.8094 -0.6063
 4864TIP3   OH236082   4.695   5.837   0.038 -0.1857  0.0025 -0.1654
 4864TIP3    H136083   4.666   5.791   0.116 -1.1975 -0.1940 -0.6477
 4864TIP3    H236084   4.660   5.926   0.048  1.8193  0.7066  0.7976
 4865TIP3   OH236085   0.444   6.391  15.409  0.1186 -0.3664 -0.0656
 4865TIP3    H136086   0.418   6.299  15.420 -0.0717 -0.4039 -0.8227
 4865TIP3    H236087   0.482   6.395  15.322 -0.2117  0.3549 -0.1812
 4866TIP3   OH236088   2.719   2.030   0.123 -0.3371  0.1712 -0.2367
 4866TIP3    H136089   2.624   2.038   0.125 -0.3904 -0.2159 -1.0659
 4866TIP3    H236090   2.743   2.051   0.033  0.4555  1.2565  0.2192
 4867TIP3   OH236091   3.283   5.484   2.620  0.6331  0.2544 -0.4145
 4867TIP3    H136092   3.353   5.549   2.609  0.9079  0.3278  1.6177
 4867TIP3    H236093   3.227   5.521   2.689  1.1645 -1.9483  1.2463
 4868TIP3   OH236094   5.050   2.109   2.173 -0.0026  0.1256  0.0005
 4868TIP3    H136095   4.998   2.034   2.146  1.5166 -0.6783 -0.7604
 4868TIP3    H236096   5.096   2.079   2.252 -0.8673  0.9061  0.8078
 4869TIP3   OH236097   0.931   5.990   6.289  0.0105 -0.3737  0.2580
 4869TIP3    H136098   0.948   6.045   6.213 -0.4772 -1.2597 -0.5071
 4869TIP3    H236099   0.923   6.051   6.362 -1.2445  0.6205 -0.6965
 4870TIP3   OH236100   4.537   5.798  11.060  0.2717 -0.4515  0.4645
 4870TIP3    H136101   4.522   5.705  11.045  1.9903 -0.5392 -0.8782
 4870TIP3    H236102   4.605   5.822  10.997 -1.6317  2.2051 -0.6536
 4871TIP3   OH236103   6.816   4.932   2.913 -0.4617  0.7848 -0.2055
 4871TIP3    H136104   6.827   4.878   2.835 -1.2859 -1.1375  0.9755
 4871TIP3    H236105   6.905   4.942   2.947 -0.4364 -1.1466  0.3952
 4872TIP3   OH236106   1.977   0.687   4.075 -0.1553 -0.6450 -0.3665
 4872TIP3    H136107   2.011   0.765   4.119  1.2093 -1.8581  0.8082
 4872TIP3    H236108   2.015   0.614   4.125 -3.6626 -2.0880  0.3191
 4873TIP3   OH236109   6.708   6.077   5.325 -0.0998 -0.4070  0.5399
 4873TIP3    H136110   6.728   6.099   5.416  0.5979 -2.6404  0.9483
 4873TIP3    H236111   6.653   6.149   5.295  1.5456  1.5416  2.0227
 4874TIP3   OH236112   2.011   6.506  13.676 -0.3136  0.3920  0.1607
 4874TIP3    H136113   2.093   6.499  13.628  0.1170  1.8603  0.6668
 4874TIP3    H236114   1.972   6.588  13.646 -1.4165 -0.0989  0.2122
 4875TIP3   OH236115   4.108   3.547   3.214 -0.2431 -0.2178  0.1599
 4875TIP3    H136116   4.091   3.627   3.164  0.9567  1.4652  2.3428
 4875TIP3    H236117   4.104   3.575   3.306  1.6989 -2.3445  0.9332
 4876TIP3   OH236118   5.545   2.567   1.828 -0.4547 -0.3472  0.0638
 4876TIP3    H136119   5.577   2.641   1.777 -0.4205 -0.1267  0.4012
 4876TIP3    H236120   5.452   2.561   1.806 -0.3188 -0.6058 -0.4499
 4877TIP3   OH236121   1.132   1.248  17.125 -0.0465  0.1104 -0.2519
 4877TIP3    H136122   1.216   1.237  17.170  0.9175  0.6812 -1.8646
 4877TIP3    H236123   1.117   1.163  17.082  0.7200  0.6336 -1.6004
 4878TIP3   OH236124   4.310   0.968  15.092 -0.2763 -0.2400 -0.2323
 4878TIP3    H136125   4.250   0.899  15.119  0.4571 -0.6873  0.2427
 4878TIP3    H236126   4.375   0.925  15.037  0.3845 -0.0037  0.3468
 4879TIP3   OH236127   1.531   1.378   4.668 -0.1676  0.2141 -0.0172
 4879TIP3    H136128   1.537   1.472   4.685 -0.9189  0.4745 -1.1231
 4879TIP3    H236129   1.618   1.344   4.688  0.4520  1.3421 -0.7272
 4880TIP3   OH236130   0.402   3.097  14.146  0.1504  0.0235  0.1709
 4880TIP3    H136131   0.335   3.154  14.108  1.3314  1.1140 -0.2992
 4880TIP3    H236132   0.410   3.126  14.237  2.2670  2.0698 -0.6295
 4881TIP3   OH236133   0.753   4.255  10.778 -0.6502 -0.2707 -0.0584
 4881TIP3    H136134   0.750   4.211  10.692  3.6442  0.7611 -0.8919
 4881TIP3    H236135   0.771   4.184  10.840  1.9812 -0.3811 -0.8540
 4882TIP3   OH236136   5.905   6.192  10.928  0.2306 -0.2195  0.2844
 4882TIP3    H136137   5.959   6.121  10.895  1.8473  0.7932  0.6959
 4882TIP3    H236138   5.958   6.271  10.915 -0.9806  0.7468  1.0500
 4883TIP3   OH236139   2.466   4.399  12.528 -0.4008 -0.2017 -0.1950
 4883TIP3    H136140   2.526   4.460  12.487 -0.8795  1.0607  0.9490
 4883TIP3    H236141   2.391   4.395  12.470 -1.2124  1.8178  0.6858
 4884TIP3   OH236142   2.156   3.569  15.067 -0.1628 -0.1793 -0.8925
 4884TIP3    H136143   2.191   3.485  15.096 -1.4643  0.5272  2.9738
 4884TIP3    H236144   2.080   3.547  15.013  1.1644 -1.4930 -2.2719
 4885TIP3   OH236145   4.304   3.172   0.208  0.4566 -0.3635  0.4179
 4885TIP3    H136146   4.287   3.180   0.114  0.6898 -1.2120  0.3018
 4885TIP3    H236147   4.331   3.260   0.234 -0.8509  0.1836 -0.0460
 4886TIP3   OH236148   0.595   0.445  14.983  0.2217 -0.1447 -0.1704
 4886TIP3    H136149   0.629   0.518  15.035  0.7117 -0.3081 -0.2640
 4886TIP3    H236150   0.643   0.368  15.013  0.4675 -0.2499 -0.8237
 4887TIP3   OH236151   0.159   4.730   2.666 -0.1336 -0.1074  0.1222
 4887TIP3    H136152   0.141   4.639   2.689  0.9805 -0.4189 -0.2208
 4887TIP3    H236153   0.226   4.759   2.728 -1.4160  0.8920  1.0664
 4888TIP3   OH236154   4.880   0.839  17.165 -0.3876  0.1081  0.2728
 4888TIP3    H136155   4.849   0.895  17.095 -2.1579  1.0378  1.7539
 4888TIP3    H236156   4.958   0.796  17.129 -0.5953  1.4257 -1.8243
 4889TIP3   OH236157   5.038   3.657   1.310 -0.0979 -0.8277  0.7355
 4889TIP3    H136158   5.054   3.677   1.218  0.6099  0.8059  1.2048
 4889TIP3    H236159   4.948   3.624   1.312 -0.5181  0.2122 -0.3868
 4890TIP3   OH236160   6.330   6.239  11.224  0.0713 -0.3457 -0.6825
 4890TIP3    H136161   6.354   6.191  11.144  0.0448 -0.3873 -0.6664
 4890TIP3    H236162   6.300   6.324  11.193  0.5048 -0.1952 -0.6796
 4891TIP3   OH236163   6.401   0.214  13.705  0.2511  0.4835 -0.4726
 4891TIP3    H136164   6.416   0.123  13.680  0.2367  0.3443  0.0183
 4891TIP3    H236165   6.363   0.209  13.793  2.4599  1.0465  0.5395
 4892TIP3   OH236166   1.093   2.119  13.841  0.6474 -0.5648 -0.2740
 4892TIP3    H136167   1.111   2.195  13.784 -0.3760  0.2717  0.5077
 4892TIP3    H236168   0.999   2.103  13.831  0.9162 -1.9363 -0.6707
 4893TIP3   OH236169   0.045   2.024  11.857 -0.4761  0.1954  0.4594
 4893TIP3    H136170   0.090   1.946  11.889  1.7554  1.6577  1.0436
 4893TIP3    H236171  -0.043   1.994  11.836 -0.2132 -2.0846  2.3612
 4894TIP3   OH236172   6.626   5.636  13.904 -0.0709  0.4134  0.5690
 4894TIP3    H136173   6.652   5.704  13.843  4.3304  0.2266  2.0499
 4894TIP3    H236174   6.574   5.575  13.852  1.4216  1.5402 -2.3147
 4895TIP3   OH236175   6.340   0.482  15.485 -0.0453  0.0080 -0.2058
 4895TIP3    H136176   6.362   0.420  15.415 -0.0827  1.0415 -1.1394
 4895TIP3    H236177   6.313   0.426  15.558 -0.2090 -1.0819 -1.0801
 4896TIP3   OH236178   4.028   2.462   0.414 -0.2179  0.8732  0.0490
 4896TIP3    H136179   3.964   2.396   0.441  1.0957 -0.2988  0.3597
 4896TIP3    H236180   4.045   2.512   0.494 -1.2279  1.6142 -0.1909
 4897TIP3   OH236181   2.136   0.416   6.286 -0.1973 -0.6298  0.4094
 4897TIP3    H136182   2.055   0.368   6.266 -0.9134  1.8349 -3.1729
 4897TIP3    H236183   2.204   0.366   6.240  0.0448 -1.6288  1.8294
 4898TIP3   OH236184   6.225   5.840   0.104 -0.8501  0.0275  0.2544
 4898TIP3    H136185   6.249   5.815   0.193 -0.8030 -1.2521 -0.1059
 4898TIP3    H236186   6.280   5.916   0.084 -1.8580  1.1922  1.8078
 4899TIP3   OH236187   2.920   4.906  14.205 -0.2822 -0.1380  0.1244
 4899TIP3    H136188   2.892   4.986  14.250 -0.7911 -0.8370  1.0834
 4899TIP3    H236189   2.840   4.872  14.165 -0.1013 -0.2534 -0.1372
 4900TIP3   OH236190   2.931   6.487   5.935  0.0807  0.1649 -0.4466
 4900TIP3    H136191   2.867   6.537   5.986 -1.1401  0.3912 -2.1595
 4900TIP3    H236192   2.898   6.397   5.936 -0.7778  0.4293 -2.0416
 4901TIP3   OH236193   3.534   6.773   4.047 -0.1920  0.2853  0.1209
 4901TIP3    H136194   3.505   6.683   4.058 -0.1941  0.1078 -1.2802
 4901TIP3    H236195   3.619   6.776   4.091 -0.2173 -0.3844  0.2192
 4902TIP3   OH236196   5.582   2.918  15.805  0.2789  0.1891  0.1014
 4902TIP3    H136197   5.550   2.950  15.890 -1.1334  1.1386 -0.7571
 4902TIP3    H236198   5.510   2.864  15.771  1.6183 -1.8060  0.3686
 4903TIP3   OH236199   1.467   3.928  14.993  0.1323 -0.6909 -0.4276
 4903TIP3    H136200   1.454   3.973  15.076  0.9630 -0.2161 -0.5494
 4903TIP3    H236201   1.379   3.905  14.963 -0.2522  0.3298 -0.0713
 4904TIP3   OH236202   4.727   5.057  15.702  0.0210 -0.5784  0.0183
 4904TIP3    H136203   4.780   4.994  15.653  0.2650 -0.7980  0.5674
 4904TIP3    H236204   4.775   5.139  15.695 -0.1838 -0.4993 -0.5094
 4905TIP3   OH236205   1.591   1.030  11.514  0.9638  0.6218 -0.2842
 4905TIP3    H136206   1.684   1.010  11.517  0.4958 -2.1636 -2.3375
 4905TIP3    H236207   1.548   0.949  11.541 -0.8995  1.4522 -0.6765
 4906TIP3   OH236208   2.363   1.666  11.019  0.0640  0.7007  0.1145
 4906TIP3    H136209   2.387   1.573  11.008  2.1136  1.5079 -2.9751
 4906TIP3    H236210   2.268   1.667  11.015  0.0073 -1.3412  0.5509
 4907TIP3   OH236211   5.060   1.786  16.182  0.4010 -0.2856  0.0426
 4907TIP3    H136212   4.974   1.795  16.141  0.4639 -0.6497 -0.1736
 4907TIP3    H236213   5.076   1.872  16.222 -0.6595 -0.6359  1.2563
 4908TIP3   OH236214   1.744   6.406   2.249 -0.2569 -0.5067  0.6391
 4908TIP3    H136215   1.678   6.409   2.181 -0.5581  0.6527  0.9662
 4908TIP3    H236216   1.810   6.470   2.222 -0.7383  0.4954  1.7782
 4909TIP3   OH236217   4.139   6.429  12.833 -0.0236 -0.5824  0.4084
 4909TIP3    H136218   4.139   6.334  12.842  0.9724 -0.6006  0.2893
 4909TIP3    H236219   4.060   6.458  12.879 -0.8149 -1.5317 -0.3552
 4910TIP3   OH236220   2.772   2.570  13.532 -0.7972 -0.3148  0.1109
 4910TIP3    H136221   2.784   2.620  13.451 -1.2515  2.8809  1.9144
 4910TIP3    H236222   2.755   2.637  13.599  0.8431 -2.7715  3.0952
 4911TIP3   OH236223   1.168   1.044   3.733  0.2331 -0.1354 -0.5648
 4911TIP3    H136224   1.219   0.963   3.743  1.1632  0.4814 -0.3127
 4911TIP3    H236225   1.086   1.015   3.692  1.3887 -0.9223 -2.3709
 4912TIP3   OH236226   5.772   4.562  13.700  0.3266 -0.3787  0.2788
 4912TIP3    H136227   5.746   4.487  13.646 -1.2547  0.5628 -0.3121
 4912TIP3    H236228   5.800   4.629  13.637  0.2907  0.0595  0.7212
 4913TIP3   OH236229   3.523   6.467  12.073  0.4520 -0.1625  0.3557
 4913TIP3    H136230   3.517   6.516  11.991  1.0691  0.5062  0.7041
 4913TIP3    H236231   3.547   6.379  12.047 -2.0659 -0.6764 -0.3942
 4914TIP3   OH236232   5.050   5.932   5.108  0.4496 -0.8553 -0.4063
 4914TIP3    H136233   4.976   5.974   5.063  1.0728  0.8645  0.1689
 4914TIP3    H236234   5.120   5.931   5.043  0.7914  0.0222 -0.0528
 4915TIP3   OH236235   1.592   5.625  15.851 -0.1187  0.4046  0.4299
 4915TIP3    H136236   1.566   5.593  15.764  0.7661  0.4107  0.1597
 4915TIP3    H236237   1.686   5.637  15.845 -0.0866  0.6363  1.3268
 4916TIP3   OH236238   4.546   3.415   3.532 -0.2562  0.0090  0.4766
 4916TIP3    H136239   4.606   3.387   3.601  0.6872  1.3851  0.2514
 4916TIP3    H236240   4.511   3.498   3.563 -1.3549 -0.3409  0.1851
 4917TIP3   OH236241   1.189   1.346   0.428 -0.1605 -0.3580 -0.5618
 4917TIP3    H136242   1.229   1.270   0.470  0.1749 -0.3739 -0.9010
 4917TIP3    H236243   1.157   1.400   0.501 -0.9274 -1.0997 -0.3369
 4918TIP3   OH236244   3.083   4.097   0.466  0.3496  0.1059  0.7480
 4918TIP3    H136245   3.004   4.069   0.420 -0.3769  1.8951  0.8999
 4918TIP3    H236246   3.079   4.051   0.550 -0.5024  0.1506  0.7356
 4919TIP3   OH236247   5.779   3.560  16.299  0.0892 -0.7904 -1.0115
 4919TIP3    H136248   5.691   3.595  16.305  0.0694 -0.7792 -1.3803
 4919TIP3    H236249   5.772   3.485  16.240  0.7904  0.7490 -3.1238
 4920TIP3   OH236250   1.852   6.672  12.136  0.2003  0.7136  0.0709
 4920TIP3    H136251   1.915   6.736  12.169 -0.3427  1.8614 -1.0302
 4920TIP3    H236252   1.902   6.616  12.077  0.3713  1.1036 -0.1567
 4921TIP3   OH236253   4.226   5.962  16.263 -0.4279 -0.2340 -0.1162
 4921TIP3    H136254   4.158   6.028  16.249 -0.6185 -0.6083 -1.0047
 4921TIP3    H236255   4.178   5.883  16.288 -0.2314 -0.1570  0.5122
 4922TIP3   OH236256   0.876   1.325  15.002 -0.1030  0.2178 -0.9258
 4922TIP3    H136257   0.830   1.304  14.921 -0.9815  0.9681 -0.6296
 4922TIP3    H236258   0.937   1.252  15.014 -0.5821 -0.3427 -1.7925
 4923TIP3   OH236259   1.676   2.675   1.039 -0.5086  0.3817  0.1297
 4923TIP3    H136260   1.606   2.653   1.101 -0.1845  0.7008  0.6211
 4923TIP3    H236261   1.750   2.698   1.096 -0.3093  1.0041 -0.3840
 4924TIP3   OH236262   4.941   5.498  11.929  0.1852  0.2909  0.0404
 4924TIP3    H136263   5.001   5.510  12.002  0.7947 -0.8775 -0.2593
 4924TIP3    H236264   4.984   5.435  11.872 -1.4466 -0.7913 -0.0442
 4925TIP3   OH236265   5.793   3.856   1.460 -0.0428 -0.2282 -0.5421
 4925TIP3    H136266   5.817   3.946   1.439 -1.4784  0.4109  0.4330
 4925TIP3    H236267   5.871   3.819   1.501  1.0641  0.0870 -2.3393
 4926TIP3   OH236268   3.934   0.776  15.864  0.4230  0.0662 -0.1740
 4926TIP3    H136269   3.894   0.704  15.913 -1.1736  1.8319  1.1634
 4926TIP3    H236270   4.027   0.753  15.862 -0.0561 -2.0833  0.1456
 4927TIP3   OH236271   6.704   3.322  12.633 -0.0085  0.4417  0.1699
 4927TIP3    H136272   6.787   3.284  12.661  1.5040  3.3241 -0.1366
 4927TIP3    H236273   6.679   3.379  12.706 -2.0799 -0.9427  0.5518
 4928TIP3   OH236274   3.592   6.790   4.700 -0.3768  0.1949 -0.1101
 4928TIP3    H136275   3.633   6.739   4.630 -0.4790  0.1983 -0.1724
 4928TIP3    H236276   3.518   6.738   4.729 -0.8345  0.5797 -0.5805
 4929TIP3   OH236277   2.346   2.060   0.412  0.1993 -0.3624  0.5791
 4929TIP3    H136278   2.273   1.999   0.426  3.0673 -3.7263  1.6433
 4929TIP3    H236279   2.338   2.123   0.484 -1.7631 -0.5940  0.5832
 4930TIP3   OH236280   3.453   0.906   4.825  0.5520 -0.3700  0.0732
 4930TIP3    H136281   3.399   0.948   4.892  1.3654  0.9848 -0.0942
 4930TIP3    H236282   3.395   0.843   4.783 -0.6158  0.3795  0.5400
 4931TIP3   OH236283   4.739   4.592  13.742 -0.4065 -0.2404 -0.1404
 4931TIP3    H136284   4.766   4.652  13.811 -1.7015  0.6006 -0.3465
 4931TIP3    H236285   4.666   4.542  13.780 -0.7405 -0.1847 -0.6910
 4932TIP3   OH236286   3.031   6.147  15.248  0.9327  0.0439  1.3400
 4932TIP3    H136287   2.948   6.131  15.202  1.7678 -0.2483 -0.0626
 4932TIP3    H236288   3.043   6.242  15.242 -0.3413  0.3692  3.3687
 4933TIP3   OH236289   5.283   6.300   2.604 -0.1975 -0.3109 -0.1194
 4933TIP3    H136290   5.358   6.288   2.546 -1.2338 -1.4147 -1.2575
 4933TIP3    H236291   5.207   6.272   2.553 -1.2924 -0.1273  1.3403
 4934TIP3   OH236292   2.382   6.266   2.007  0.1531  0.2160 -0.1690
 4934TIP3    H136293   2.443   6.265   2.081  0.3227  0.4431 -0.3058
 4934TIP3    H236294   2.345   6.178   2.006 -1.2518  0.7498  1.3400
 4935TIP3   OH236295   1.011   0.582   1.511 -0.1118  0.0646  0.5060
 4935TIP3    H136296   1.046   0.497   1.539 -1.4536 -0.5324  0.4344
 4935TIP3    H236297   0.920   0.563   1.485 -1.1553  1.9354  2.6517
 4936TIP3   OH236298   0.524   2.196  15.737  0.2216  0.2871 -0.8155
 4936TIP3    H136299   0.466   2.166  15.667  0.7517  0.6222 -1.4088
 4936TIP3    H236300   0.472   2.187  15.817 -0.8490  1.0804 -1.3947
 4937TIP3   OH236301   3.029   0.145  12.000 -0.6291  0.4282 -0.2146
 4937TIP3    H136302   2.973   0.221  12.011 -4.5112 -2.4210  0.9831
 4937TIP3    H236303   3.011   0.113  11.912  2.5719  2.0460 -1.4992
 4938TIP3   OH236304   5.258   4.411  15.668  0.2002 -0.6850  0.1628
 4938TIP3    H136305   5.291   4.434  15.755 -0.5443  1.3443 -0.0572
 4938TIP3    H236306   5.320   4.450  15.607 -0.7824  0.3170 -0.2220
 4939TIP3   OH236307   1.237   2.748   2.582  0.0798 -0.1748 -0.4811
 4939TIP3    H136308   1.290   2.716   2.509 -0.9443 -0.3525 -1.1590
 4939TIP3    H236309   1.279   2.829   2.609  1.1412 -0.7046 -0.5036
 4940TIP3   OH236310   1.234   0.165   0.314 -0.1532 -0.1088 -0.0883
 4940TIP3    H136311   1.149   0.124   0.298 -0.2493 -0.0312  0.2187
 4940TIP3    H236312   1.283   0.101   0.366 -0.3512  0.2148  0.5061
 4941TIP3   OH236313   0.240   0.047  15.250 -0.0052  0.7662 -0.4299
 4941TIP3    H136314   0.248   0.078  15.340  0.6999  4.6373 -1.7473
 4941TIP3    H236315   0.329   0.028  15.223 -0.3610 -1.8624  0.1251
 4942TIP3   OH236316   5.424   0.084   5.812 -0.5301 -0.3101  0.3136
 4942TIP3    H136317   5.519   0.094   5.818 -0.7658  2.3513  0.1859
 4942TIP3    H236318   5.395   0.078   5.903 -0.2589 -1.0468  0.3550
 4943TIP3   OH236319   6.035   1.739  13.746 -0.0357 -0.0301 -0.2572
 4943TIP3    H136320   5.964   1.802  13.761 -0.8040 -0.7091 -0.9509
 4943TIP3    H236321   6.084   1.774  13.672 -0.8459 -0.5476 -1.0581
 4944TIP3   OH236322   4.793   0.149   5.594  0.2439 -0.4872  0.8394
 4944TIP3    H136323   4.767   0.229   5.641  1.6996 -1.0810  2.7471
 4944TIP3    H236324   4.799   0.176   5.503  0.5680  1.5701  1.4407
 4945TIP3   OH236325   3.952   5.561   2.781  0.4935 -0.5111  0.0855
 4945TIP3    H136326   3.886   5.492   2.782 -0.5116  0.4388  0.0375
 4945TIP3    H236327   3.911   5.633   2.733  1.1537  0.4803  0.9813
 4946TIP3   OH236328   3.904   0.243   5.394 -0.0521 -0.5718 -0.3245
 4946TIP3    H136329   3.977   0.181   5.395  0.0124 -0.4917 -0.1458
 4946TIP3    H236330   3.899   0.272   5.303 -1.2027 -2.1788 -0.8142
 4947TIP3   OH236331   3.497   4.086  13.089  0.2239 -0.4890 -0.5054
 4947TIP3    H136332   3.434   4.109  13.021  1.9259 -1.7182 -2.5774
 4947TIP3    H236333   3.456   4.015  13.138 -1.2605  0.8036  0.1546
 4948TIP3   OH236334   2.409   0.873  16.498 -0.2004  0.1931 -0.3827
 4948TIP3    H136335   2.385   0.805  16.434 -0.9069 -1.0687  1.1638
 4948TIP3    H236336   2.498   0.850  16.525 -0.3783 -0.0430  0.0178
 4949TIP3   OH236337   2.855   6.384   1.553  0.6455  0.6001 -0.4057
 4949TIP3    H136338   2.771   6.424   1.531  0.4824  0.3926 -0.1657
 4949TIP3    H236339   2.872   6.323   1.482 -0.4250 -0.8969  0.5848
 4950TIP3   OH236340   6.250   6.155  14.996  0.3406 -0.6932  0.1069
 4950TIP3    H136341   6.284   6.202  14.920  0.1921  1.8670  1.5800
 4950TIP3    H236342   6.324   6.151  15.057 -0.6105  0.7232  1.3903
 4951TIP3   OH236343   2.272   2.989  15.931 -1.0416 -0.0126 -0.0407
 4951TIP3    H136344   2.267   3.082  15.954 -0.7457  0.2507 -1.0442
 4951TIP3    H236345   2.186   2.970  15.893 -0.4945  0.2962 -1.4686
 4952TIP3   OH236346   5.896   0.323  16.327 -0.4677 -0.0634  0.3767
 4952TIP3    H136347   5.816   0.344  16.375 -0.9468  0.4075 -0.6005
 4952TIP3    H236348   5.967   0.343  16.387 -1.0512  0.7104  0.8148
 4953TIP3   OH236349   4.282   4.310  12.610 -0.1629  0.3476 -0.0063
 4953TIP3    H136350   4.272   4.222  12.574 -1.5026 -1.3954  4.3036
 4953TIP3    H236351   4.193   4.346  12.612 -0.0239  0.6666  0.8689
 4954TIP3   OH236352   2.145   2.016   4.499  0.3129 -0.2907 -0.0129
 4954TIP3    H136353   2.176   2.106   4.506 -1.1475  0.2446 -0.2860
 4954TIP3    H236354   2.205   1.975   4.437  0.5413  0.6944 -0.4486
 4955TIP3   OH236355   5.322   4.604  16.438 -0.0041 -0.2621 -0.2504
 4955TIP3    H136356   5.358   4.611  16.526  0.6981  1.0619 -0.6348
 4955TIP3    H236357   5.334   4.512  16.414  0.6119 -0.4244  0.6802
 4956TIP3   OH236358   2.228   1.131   0.009 -0.0121  0.1769 -0.5642
 4956TIP3    H136359   2.204   1.203   0.068 -1.8752 -0.8937  0.0398
 4956TIP3    H236360   2.304   1.090   0.051  0.1573  0.8853 -0.1607
 4957TIP3   OH236361   3.566   5.917  13.359 -0.1892  0.5169 -0.2367
 4957TIP3    H136362   3.642   5.945  13.410  1.0568 -1.0552 -1.1974
 4957TIP3    H236363   3.578   5.823  13.347 -1.0835  0.6357 -2.3684
 4958TIP3   OH236364   3.299   4.264  14.738 -0.0539 -0.3543 -0.3056
 4958TIP3    H136365   3.230   4.237  14.677  0.3432  0.3624 -1.0879
 4958TIP3    H236366   3.282   4.214  14.818  0.2866 -2.4674 -1.5073
 4959TIP3   OH236367   2.695   3.209  13.223 -0.0672  0.0724 -0.1507
 4959TIP3    H136368   2.672   3.302  13.221  0.7670  0.3030  0.6115
 4959TIP3    H236369   2.647   3.173  13.297 -2.1725 -0.6077 -1.7949
 4960TIP3   OH236370   3.095   0.267   3.156 -0.2884  0.0817 -0.5172
 4960TIP3    H136371   3.154   0.343   3.159  1.1507 -0.9207 -2.2336
 4960TIP3    H236372   3.074   0.249   3.247  3.3902 -0.4924  0.2899
 4961TIP3   OH236373   4.600   2.204  16.000 -0.0046 -0.6096  0.0653
 4961TIP3    H136374   4.511   2.238  15.995 -0.0547 -0.9331 -1.6461
 4961TIP3    H236375   4.590   2.109  15.996  0.3747 -0.6708  0.5590
 4962TIP3   OH236376   2.373   1.915  12.755 -0.1388  0.1646 -0.3974
 4962TIP3    H136377   2.290   1.939  12.795  0.3959 -2.1570  2.2809
 4962TIP3    H236378   2.434   1.906  12.828  1.5579 -1.6966 -1.9638
 4963TIP3   OH236379   2.656   6.557  11.501 -0.0464  0.2277 -0.7085
 4963TIP3    H136380   2.618   6.615  11.567 -0.5947  1.3705 -1.9804
 4963TIP3    H236381   2.708   6.615  11.446  2.3475 -1.0949  0.1110
 4964TIP3   OH236382   0.964   3.610  11.132  0.1368 -0.1002  0.2442
 4964TIP3    H136383   0.904   3.685  11.132 -2.4931 -2.1060 -1.3295
 4964TIP3    H236384   1.034   3.635  11.072  0.6175  2.0971  1.6998
 4965TIP3   OH236385   4.736   1.994  15.131  0.1456 -0.4905  0.3427
 4965TIP3    H136386   4.732   2.085  15.162  1.7460 -0.5559  0.7940
 4965TIP3    H236387   4.656   1.982  15.081 -0.4988  0.9081  1.0152
 4966TIP3   OH236388   3.188   1.531  13.134  0.9666  0.0697 -0.4160
 4966TIP3    H136389   3.173   1.577  13.217 -1.8508 -1.3620 -0.0569
 4966TIP3    H236390   3.144   1.584  13.068  0.1805 -0.6146 -0.4459
 4967TIP3   OH236391   3.821   0.922  17.006 -0.0539 -0.2073 -0.2983
 4967TIP3    H136392   3.849   0.921  17.097 -0.6113 -0.2239 -0.1222
 4967TIP3    H236393   3.850   1.007  16.973 -0.3061  0.0139  0.0435
 4968TIP3   OH236394   0.786   2.469   5.706 -0.6989 -0.7608 -0.3213
 4968TIP3    H136395   0.799   2.486   5.799  1.1872  0.9164 -0.8641
 4968TIP3    H236396   0.777   2.374   5.701  2.1514 -1.1845  1.2650
 4969TIP3   OH236397   6.401   5.724   5.109 -0.2778  0.0543  0.9318
 4969TIP3    H136398   6.413   5.629   5.102 -0.6795  0.0180  0.7450
 4969TIP3    H236399   6.472   5.752   5.166 -0.9425 -0.5326  2.0638
 4970TIP3   OH236400   4.770   2.435  10.238 -0.3256  0.1753 -0.4557
 4970TIP3    H136401   4.833   2.420  10.308 -0.8973 -0.9548 -0.1542
 4970TIP3    H236402   4.813   2.401  10.159 -0.3998 -0.2517 -0.3164
 4971TIP3   OH236403   4.132   6.378   4.773 -0.5795 -0.4042 -0.5769
 4971TIP3    H136404   4.175   6.313   4.717 -0.1037 -0.4776 -0.1291
 4971TIP3    H236405   4.199   6.444   4.789 -0.4719 -0.7564  0.5140
 4972TIP3   OH236406   1.792   6.666  12.724  0.4864 -0.0910  0.2424
 4972TIP3    H136407   1.729   6.603  12.688  1.0355  0.5167 -1.8320
 4972TIP3    H236408   1.783   6.656  12.819 -0.5074 -2.2316 -0.0310
 4973TIP3   OH236409   4.657   1.210   1.323  0.2343  0.0570  0.1766
 4973TIP3    H136410   4.692   1.288   1.280  0.8516 -0.3215 -0.0110
 4973TIP3    H236411   4.720   1.141   1.304 -0.2249 -0.4553  0.4802
 4974TIP3   OH236412   0.396   2.438  11.495 -0.0836  0.1588 -0.5188
 4974TIP3    H136413   0.376   2.495  11.421 -1.7649 -0.8539 -0.8580
 4974TIP3    H236414   0.317   2.439  11.548  0.7456  0.0622  0.7485
 4975TIP3   OH236415   2.080   6.147   5.839 -0.4577  0.2333 -0.2520
 4975TIP3    H136416   2.092   6.099   5.921 -2.0800 -0.2739 -0.2929
 4975TIP3    H236417   2.045   6.231   5.865 -0.5001  0.2604 -0.3972
 4976TIP3   OH236418   4.281   1.319  12.174 -0.4558 -0.5043 -0.1045
 4976TIP3    H136419   4.336   1.379  12.125 -0.0445 -0.2158  0.6971
 4976TIP3    H236420   4.288   1.236  12.128 -0.3133 -0.1649 -0.6995
 4977TIP3   OH236421   1.733   2.936   1.856 -0.7202 -0.5017  0.6666
 4977TIP3    H136422   1.719   2.889   1.774 -1.2103  1.7595 -0.5658
 4977TIP3    H236423   1.646   2.944   1.895 -0.8123  0.4253  0.2844
 4978TIP3   OH236424   4.521   6.497   5.624 -0.0404  0.2392  0.2910
 4978TIP3    H136425   4.527   6.509   5.529 -0.0950  3.0726  0.5895
 4978TIP3    H236426   4.589   6.554   5.659 -0.5612 -0.1634  1.9953
 4979TIP3   OH236427   0.204   1.020   4.092 -0.1516  0.0256 -0.1889
 4979TIP3    H136428   0.138   1.043   4.027  0.6062 -0.6135 -1.1954
 4979TIP3    H236429   0.155   1.016   4.175 -1.2625  0.1117 -0.8285
 4980TIP3   OH236430   4.988   3.878  16.437 -0.3558  0.1785  0.1920
 4980TIP3    H136431   4.937   3.811  16.482 -0.9604  2.4234  3.0067
 4980TIP3    H236432   4.925   3.944  16.411  0.4478  0.4862 -1.0251
 4981TIP3   OH236433   5.381   0.345  14.111 -0.0909 -0.3405 -1.0873
 4981TIP3    H136434   5.466   0.364  14.071  1.3763  2.9480  3.1696
 4981TIP3    H236435   5.400   0.280  14.178 -0.7662  0.9193  0.3457
 4982TIP3   OH236436   0.006   1.466  12.145 -0.4142 -0.0187  0.5539
 4982TIP3    H136437  -0.027   1.504  12.226 -1.0257 -1.4785  1.0176
 4982TIP3    H236438   0.048   1.384  12.173 -1.5213 -1.0381 -0.7086
 4983TIP3   OH236439   0.825   4.118  11.283 -0.1987 -0.2690  0.6312
 4983TIP3    H136440   0.813   4.157  11.196  1.1037  1.4994  1.2195
 4983TIP3    H236441   0.915   4.088  11.283  0.6722  2.1968  2.2948
 4984TIP3   OH236442   5.756   5.265  13.410  0.1874 -0.3374 -0.0272
 4984TIP3    H136443   5.751   5.353  13.446  1.6549 -1.4756  3.1055
 4984TIP3    H236444   5.667   5.231  13.413 -0.0892  0.4253  0.2992
 4985TIP3   OH236445   5.456   6.012   2.383  0.4471  0.6926 -0.0376
 4985TIP3    H136446   5.385   6.077   2.387  1.2044  1.4800  0.9116
 4985TIP3    H236447   5.426   5.941   2.441 -1.0684 -0.5328 -2.2535
 4986TIP3   OH236448   1.319   1.866  17.121  0.8953 -0.0324  0.1764
 4986TIP3    H136449   1.225   1.861  17.106  1.1546 -1.0208 -1.3192
 4986TIP3    H236450   1.329   1.926  17.195 -0.8398  0.9122 -0.3251
 4987TIP3   OH236451   3.993   0.632  11.858  0.0992 -0.0689 -0.2353
 4987TIP3    H136452   4.031   0.593  11.937 -0.7280 -2.3006 -0.9038
 4987TIP3    H236453   4.065   0.635  11.795 -0.1184 -1.6325 -0.5646
 4988TIP3   OH236454   4.994   6.391  15.698 -0.4837 -0.3528 -0.3655
 4988TIP3    H136455   5.081   6.424  15.678 -0.7359  0.8194  0.4032
 4988TIP3    H236456   4.995   6.300  15.668  1.1877 -0.5259  0.1662
 4989TIP3   OH236457   4.759   0.325  15.684 -0.3332  0.0910 -0.5248
 4989TIP3    H136458   4.792   0.254  15.629 -0.8514  0.0197 -0.7467
 4989TIP3    H236459   4.822   0.331  15.755  0.5766  0.4637 -1.3448
 4990TIP3   OH236460   6.536   2.419  16.874  0.2667  0.6336 -0.2231
 4990TIP3    H136461   6.545   2.437  16.967 -0.4131 -0.1362  0.0042
 4990TIP3    H236462   6.619   2.378  16.849  0.9559  2.0342 -0.2555
 4991TIP3   OH236463   5.839   0.840   5.812 -0.1035  0.2798  0.0698
 4991TIP3    H136464   5.785   0.897   5.757  1.6326  0.4867 -1.4819
 4991TIP3    H236465   5.927   0.879   5.808  0.7323 -1.5261  0.3869
 4992TIP3   OH236466   3.087   2.324   2.896  0.1673  0.0269 -0.1809
 4992TIP3    H136467   2.994   2.346   2.889 -0.3668 -2.4038 -1.3083
 4992TIP3    H236468   3.106   2.329   2.989 -1.8431 -2.1857  0.3967
 4993TIP3   OH236469   2.444   6.747   3.636  0.3599 -0.3023  0.0280
 4993TIP3    H136470   2.388   6.670   3.639 -1.9469  1.2690 -0.7930
 4993TIP3    H236471   2.473   6.753   3.545  0.8679 -0.4075  0.1786
 4994TIP3   OH236472   3.102   5.569   2.794  0.8404 -0.0755  0.1696
 4994TIP3    H136473   3.109   5.586   2.888  3.8073  0.9265 -0.1840
 4994TIP3    H236474   3.056   5.645   2.759  0.4688 -0.0515  0.7111
 4995TIP3   OH236475   4.087   0.800  13.630  0.5706 -0.2933 -0.0462
 4995TIP3    H136476   4.158   0.746  13.595  0.7790 -0.7823  1.0970
 4995TIP3    H236477   4.059   0.854  13.556  1.0360 -1.2485 -0.9338
 4996TIP3   OH236478   5.958   1.747   6.031 -0.0538 -0.2122 -0.3543
 4996TIP3    H136479   6.011   1.808   6.081  1.2034 -1.5259 -0.0550
 4996TIP3    H236480   5.913   1.693   6.097 -0.0222 -0.5667 -0.6175
 4997TIP3   OH236481   3.545   1.152   5.378 -0.0465  0.1852 -0.2754
 4997TIP3    H136482   3.483   1.217   5.346 -0.5470  0.5981  1.4720
 4997TIP3    H236483   3.490   1.086   5.420  0.6160 -0.0933  0.1575
 4998TIP3   OH236484   4.458   3.214  11.556 -0.1906 -0.7168 -0.1375
 4998TIP3    H136485   4.542   3.169  11.559  0.2060  0.0086 -0.3099
 4998TIP3    H236486   4.441   3.239  11.646 -0.2030 -0.8216 -0.1097
 4999TIP3   OH236487   2.982   6.094  12.907 -0.0747  0.2438 -0.1128
 4999TIP3    H136488   2.946   6.177  12.876 -1.1196  0.8410  2.6196
 4999TIP3    H236489   2.905   6.038  12.918  0.1958  0.2824  2.0709
 5000TIP3   OH236490   5.002   4.421  12.265 -0.0177 -0.3142  0.0965
 5000TIP3    H136491   5.064   4.411  12.337 -0.0266 -2.3290 -0.1536
 5000TIP3    H236492   4.963   4.334  12.255 -1.6418  0.5104 -0.8705
 5001TIP3   OH236493   4.670   2.064   0.717 -0.5387 -0.0601 -0.5088
 5001TIP3    H136494   4.578   2.060   0.691 -0.4384 -1.9965 -0.6703
 5001TIP3    H236495   4.714   2.104   0.642 -1.2610  1.0203 -0.3677
 5002TIP3   OH236496   3.169   0.454  10.719  0.0665  0.3960 -0.2689
 5002TIP3    H136497   3.111   0.527  10.740 -1.5051 -1.4746  2.0735
 5002TIP3    H236498   3.146   0.430  10.629  2.8324  4.7604 -2.3171
 5003TIP3   OH236499   2.777   1.985  16.137 -0.0813 -0.3279  0.1411
 5003TIP3    H136500   2.706   1.921  16.142 -0.1692 -0.2580 -0.1790
 5003TIP3    H236501   2.828   1.972  16.217  1.3705 -2.5258 -1.1053
 5004TIP3   OH236502   2.283   3.878  12.956 -0.5704  0.0788  0.7026
 5004TIP3    H136503   2.293   3.965  12.995  0.8231 -0.1333  0.8563
 5004TIP3    H236504   2.369   3.836  12.968 -0.6440 -0.6191 -1.0732
 5005TIP3   OH236505   0.505   0.396  11.612  0.2450  0.9555 -0.4617
 5005TIP3    H136506   0.533   0.405  11.703 -1.1376  1.3607 -0.0753
 5005TIP3    H236507   0.552   0.466  11.566  0.0233  1.5044  0.1451
 5006TIP3   OH236508   2.636   3.498   1.628 -0.9132 -0.4231  0.3566
 5006TIP3    H136509   2.663   3.588   1.611 -0.4397 -0.2408  2.0049
 5006TIP3    H236510   2.607   3.465   1.543 -1.8943  1.5600 -0.0976
 5007TIP3   OH236511   0.756   0.912  16.894 -0.0513  0.2798  1.0174
 5007TIP3    H136512   0.693   0.981  16.874  0.1663  0.3476  0.5677
 5007TIP3    H236513   0.822   0.919  16.825  0.0577 -0.2715  1.0676
 5008TIP3   OH236514   5.979   1.327  15.974  0.4439  0.4798  0.1894
 5008TIP3    H136515   5.935   1.385  16.036  0.2129  1.2589 -0.6910
 5008TIP3    H236516   5.910   1.295  15.916  0.5537 -0.7727  0.7332
 5009TIP3   OH236517   5.693   5.129   4.270  0.2420  0.9157  0.4185
 5009TIP3    H136518   5.603   5.099   4.256  0.5334  0.8297 -1.3586
 5009TIP3    H236519   5.748   5.055   4.242  0.8833  1.1934  0.9274
 5010TIP3   OH236520   1.676   3.872  12.475 -0.3159 -0.1745 -0.5507
 5010TIP3    H136521   1.723   3.840  12.552 -1.2235  0.0529  0.1027
 5010TIP3    H236522   1.623   3.945  12.507 -0.2337  0.3280 -1.5155
 5011TIP3   OH236523   0.881   2.493  13.744 -0.4743 -0.0566 -0.0218
 5011TIP3    H136524   0.891   2.561  13.677 -1.3347 -1.8165 -2.0229
 5011TIP3    H236525   0.951   2.431  13.725 -0.8551 -0.6712  0.5750
 5012TIP3   OH236526   3.144   1.135  16.738  0.1297  0.2068  0.5032
 5012TIP3    H136527   3.098   1.060  16.775 -0.4942 -0.5151 -1.6638
 5012TIP3    H236528   3.229   1.135  16.783  0.1151 -1.7653  0.5957
 5013TIP3   OH236529   6.247   5.319  15.507  0.0903 -0.0221  0.0327
 5013TIP3    H136530   6.266   5.382  15.575  3.4503 -1.2833  0.3329
 5013TIP3    H236531   6.319   5.327  15.445 -0.7058 -1.8360 -1.1859
 5014TIP3   OH236532   6.285   3.648   1.462 -0.5456 -0.1588  0.1641
 5014TIP3    H136533   6.339   3.640   1.384 -0.9747 -1.0474 -0.0527
 5014TIP3    H236534   6.346   3.676   1.531 -0.2242  0.8800 -0.5353
 5015TIP3   OH236535   5.927   1.204   3.587 -0.5257 -0.4290 -0.4140
 5015TIP3    H136536   5.924   1.228   3.494 -0.3993 -1.0700 -0.5877
 5015TIP3    H236537   5.997   1.138   3.592 -1.2431 -1.1631 -0.0371
 5016TIP3   OH236538   5.954   2.738  11.770  0.2305 -0.4183  0.1384
 5016TIP3    H136539   5.978   2.825  11.737  1.2927 -1.1855 -1.1326
 5016TIP3    H236540   6.012   2.678  11.724 -0.0918 -1.7619  1.4576
 5017TIP3   OH236541   6.459   0.020  12.469  0.3970  0.6168  0.2100
 5017TIP3    H136542   6.440   0.098  12.418 -1.8270 -1.3830 -2.1761
 5017TIP3    H236543   6.552   0.003  12.455  0.3254  1.4395 -1.2741
 5018TIP3   OH236544   3.720   4.503  11.564  0.0427  0.1875 -0.5970
 5018TIP3    H136545   3.780   4.481  11.636 -0.7665  0.3706  0.1438
 5018TIP3    H236546   3.642   4.538  11.608 -0.4485  0.3234 -1.5702
 5019TIP3   OH236547   2.208   3.589   3.158 -0.4595 -0.0253  0.3346
 5019TIP3    H136548   2.158   3.543   3.091  1.6486 -1.1368 -0.5233
 5019TIP3    H236549   2.207   3.681   3.129 -1.2672 -0.1724 -0.1292
 5020TIP3   OH236550   6.634   0.786  11.261 -0.0621 -0.8070 -0.3063
 5020TIP3    H136551   6.576   0.829  11.198 -0.2165 -0.2509  0.2032
 5020TIP3    H236552   6.700   0.853  11.282 -0.3327 -0.7906  0.5328
 5021TIP3   OH236553   6.566   6.254   2.841  0.0780  0.0033 -0.6376
 5021TIP3    H136554   6.533   6.343   2.829 -1.1870 -0.5925 -1.6786
 5021TIP3    H236555   6.661   6.262   2.828 -0.0188  1.1873 -0.7174
 5022TIP3   OH236556   2.144   1.856   1.057 -0.7744  0.7028 -0.0784
 5022TIP3    H136557   2.061   1.824   1.093 -0.4529 -1.1810 -0.9544
 5022TIP3    H236558   2.190   1.894   1.132 -1.7413  0.3058  0.7185
 5023TIP3   OH236559   0.726   2.543  13.937 -0.6394 -0.1874 -0.1093
 5023TIP3    H136560   0.699   2.470  13.993 -0.1088 -0.3076 -0.0019
 5023TIP3    H236561   0.783   2.503  13.872 -1.8493 -0.1638 -1.1952
 5024TIP3   OH236562   5.786   2.917   4.202  0.1411  0.1916  0.2510
 5024TIP3    H136563   5.845   2.900   4.129 -0.2497  1.0963 -0.2878
 5024TIP3    H236564   5.834   2.889   4.280  1.9571  2.5209  0.0029
 5025TIP3   OH236565   4.622   5.014   5.075  0.0866 -0.3764 -0.0718
 5025TIP3    H136566   4.571   5.066   5.138  0.9218  1.2151 -0.6782
 5025TIP3    H236567   4.713   5.030   5.099  0.5427  2.1750 -3.0730
 5026TIP3   OH236568   4.995   4.566   1.773  0.3040 -0.0917  0.2549
 5026TIP3    H136569   5.056   4.596   1.840 -0.1810 -0.1053  0.7010
 5026TIP3    H236570   5.034   4.485   1.739  0.8246  0.2076  0.1339
 5027TIP3   OH236571   4.817   2.780  15.451 -0.0962  0.0444  0.0519
 5027TIP3    H136572   4.724   2.761  15.440  0.1873 -0.8387 -1.0338
 5027TIP3    H236573   4.853   2.701  15.491  0.4679 -0.3076 -1.1045
 5028TIP3   OH236574   1.731   0.095  12.645  0.4819  0.0967 -0.0416
 5028TIP3    H136575   1.799   0.150  12.608 -0.2531 -0.1600 -1.8425
 5028TIP3    H236576   1.775   0.013  12.666  1.0524  0.4869  0.2898
 5029TIP3   OH236577   1.511   4.524  15.449  0.2084 -0.2210 -0.2233
 5029TIP3    H136578   1.454   4.536  15.373  0.7151 -1.3173 -0.7780
 5029TIP3    H236579   1.473   4.581  15.516 -1.0351 -0.2802 -0.8599
 5030TIP3   OH236580   2.709   6.613   0.991 -0.3396 -0.2588  0.0324
 5030TIP3    H136581   2.781   6.597   0.930 -2.0506 -0.7432 -1.9431
 5030TIP3    H236582   2.638   6.646   0.936 -2.1297 -1.2298  1.6922
 5031TIP3   OH236583   4.121   0.870   0.393  0.4301  0.2637 -0.1596
 5031TIP3    H136584   4.106   0.913   0.477  1.1783 -0.2204  0.2354
 5031TIP3    H236585   4.052   0.902   0.336 -0.2825  0.3483  0.7392
 5032TIP3   OH236586   4.390   6.063   1.629 -0.5011  0.0553  0.5223
 5032TIP3    H136587   4.364   5.981   1.670  0.4463 -0.5827 -0.1110
 5032TIP3    H236588   4.373   6.049   1.536 -0.0765  0.4706  0.3829
 5033TIP3   OH236589   4.230   4.400   1.377 -0.1201 -0.0412 -0.0542
 5033TIP3    H136590   4.266   4.436   1.458 -1.4159  0.8750  0.1088
 5033TIP3    H236591   4.269   4.454   1.308 -0.7960  0.6428  0.0951
 5034TIP3   OH236592   5.279   5.864  14.351  0.5881 -0.4250  0.1886
 5034TIP3    H136593   5.326   5.946  14.333  0.0235  0.0405  0.8098
 5034TIP3    H236594   5.188   5.883  14.327  0.8236 -1.5478 -1.6780
 5035TIP3   OH236595   5.806   3.943   0.257  0.3921 -0.3342  0.2654
 5035TIP3    H136596   5.860   3.949   0.179  0.4606  1.5647  0.4299
 5035TIP3    H236597   5.845   3.873   0.309  1.6896 -0.1068 -0.3873
 5036TIP3   OH236598   6.273   0.227  12.778 -0.7483 -0.2510  0.9002
 5036TIP3    H136599   6.188   0.247  12.739 -0.5525 -0.4236  0.3840
 5036TIP3    H236600   6.255   0.220  12.872 -1.0842  0.8732  0.9244
 5037TIP3   OH236601   6.502   0.596   3.011 -0.3727 -0.0945  0.0293
 5037TIP3    H136602   6.526   0.618   3.101  1.2302 -0.2452 -0.3391
 5037TIP3    H236603   6.542   0.665   2.958  1.7570 -1.9182 -0.8401
 5038TIP3   OH236604   0.935   6.577   4.214 -0.2724  0.0825 -0.0967
 5038TIP3    H136605   0.943   6.485   4.189 -1.0655  0.1310 -0.5373
 5038TIP3    H236606   0.943   6.624   4.131 -1.4363  0.3305 -0.0648
 5039TIP3   OH236607   3.629   0.763  16.891  0.1403 -0.1467 -0.1737
 5039TIP3    H136608   3.638   0.690  16.951  0.6624 -0.3335 -0.4842
 5039TIP3    H236609   3.664   0.838  16.939 -2.0880  0.2906  0.8619
 5040TIP3   OH236610   0.667   4.825   4.396 -0.6125 -0.1868  0.1489
 5040TIP3    H136611   0.599   4.788   4.451 -0.8084 -1.3546 -0.8383
 5040TIP3    H236612   0.696   4.904   4.441 -0.9820 -0.9568  1.7400
 5041TIP3   OH236613   4.268   3.782  13.677 -0.2070  0.0392  0.6402
 5041TIP3    H136614   4.285   3.874  13.697 -2.3024  0.7548 -0.6979
 5041TIP3    H236615   4.254   3.781  13.582 -2.6266 -1.2581  0.9796
 5042TIP3   OH236616   0.104   3.766  16.556  0.1273 -0.0828  0.6305
 5042TIP3    H136617   0.020   3.797  16.589 -0.4570 -1.5924  0.6090
 5042TIP3    H236618   0.120   3.819  16.477 -1.1866 -0.3249  0.1935
 5043TIP3   OH236619   3.885   5.101  11.712 -0.2825 -0.6065 -0.4364
 5043TIP3    H136620   3.856   5.026  11.764 -0.1204 -1.7057 -1.8813
 5043TIP3    H236621   3.978   5.112  11.735 -0.9990  0.9126  1.8265
 5044TIP3   OH236622   1.960   4.343  14.257 -0.1675 -0.3221 -0.0250
 5044TIP3    H136623   1.988   4.332  14.348  0.2751 -0.1255 -0.1395
 5044TIP3    H236624   2.025   4.400  14.218 -0.7347  0.1474 -0.2890
 5045TIP3   OH236625   3.396   1.996  14.000  0.1571  0.4986  0.0755
 5045TIP3    H136626   3.323   2.022  13.944 -0.3022 -0.7348  0.1095
 5045TIP3    H236627   3.391   2.055  14.076 -0.1693  1.1020 -0.4138
 5046TIP3   OH236628   0.468   3.518   4.364 -0.2493  0.3078 -0.3595
 5046TIP3    H136629   0.515   3.453   4.312  1.2374  1.0257  0.0397
 5046TIP3    H236630   0.446   3.472   4.445 -0.5483 -0.1389 -0.6919
 5047TIP3   OH236631   4.217   5.450   5.561 -0.3520  0.5662 -0.0746
 5047TIP3    H136632   4.266   5.399   5.497 -0.1067  0.8415 -0.1110
 5047TIP3    H236633   4.132   5.465   5.520  0.1268  1.5467 -0.7467
 5048TIP3   OH236634   1.525   5.579   3.544 -0.3842  0.0958  0.1608
 5048TIP3    H136635   1.451   5.524   3.520  1.0412 -1.2687 -1.3174
 5048TIP3    H236636   1.579   5.523   3.599 -0.5557  1.1499  1.4130
 5049TIP3   OH236637   3.066   2.601   4.519  0.1537 -0.0032  0.6545
 5049TIP3    H136638   3.041   2.537   4.586 -0.0333  0.1924  0.7742
 5049TIP3    H236639   3.102   2.675   4.569 -1.0520  0.6207  0.6091
 5050TIP3   OH236640   4.116   3.996   4.252  0.3378  0.1786  0.2321
 5050TIP3    H136641   4.140   3.937   4.324 -0.3549  0.5205  0.7443
 5050TIP3    H236642   4.178   4.069   4.260  0.6062 -0.0371  0.1531
 5051TIP3   OH236643   0.498   3.962  14.127 -0.0905 -0.5905  0.0959
 5051TIP3    H136644   0.434   4.033  14.127 -0.6632 -1.1037 -0.8047
 5051TIP3    H236645   0.446   3.882  14.125  0.5837 -1.0132 -0.5913
 5052TIP3   OH236646   5.600   5.363   2.483 -0.1151  0.3626  0.0772
 5052TIP3    H136647   5.617   5.457   2.488  0.1799  0.2278  2.0240
 5052TIP3    H236648   5.543   5.344   2.558 -0.8435 -0.8740 -0.7633
 5053TIP3   OH236649   0.966   1.696   0.381  0.6321 -0.1397 -0.0624
 5053TIP3    H136650   0.970   1.601   0.386  0.8708 -0.0377  2.2955
 5053TIP3    H236651   1.044   1.726   0.428  0.0446  1.2196  0.0736
 5054TIP3   OH236652   2.680   1.734   3.137  0.2851 -0.7949 -0.3435
 5054TIP3    H136653   2.774   1.715   3.135  0.4823  0.2834 -2.2656
 5054TIP3    H236654   2.659   1.760   3.048 -1.2058  2.0024  0.7754
 5055TIP3   OH236655   0.724   2.435   4.754  0.3768 -0.1577  0.3843
 5055TIP3    H136656   0.693   2.479   4.675  0.3490  0.0653  0.5194
 5055TIP3    H236657   0.657   2.369   4.774  0.0249  0.2774  0.6381
 5056TIP3   OH236658   3.591   0.120  16.338  0.1945  0.0064 -0.0455
 5056TIP3    H136659   3.535   0.044  16.323  1.1103 -0.2819 -2.0351
 5056TIP3    H236660   3.677   0.084  16.360  0.4802  0.4639 -0.3960
 5057TIP3   OH236661   5.856   2.207  17.096  0.4053 -0.2443 -0.3036
 5057TIP3    H136662   5.824   2.164  17.017 -1.1339  2.7288 -1.3648
 5057TIP3    H236663   5.928   2.262  17.066 -0.2099  0.9232  0.3329
 5058TIP3   OH236664   2.482   5.914   3.748 -0.3832  0.3902  0.0438
 5058TIP3    H136665   2.522   5.887   3.666 -1.8342 -0.2493 -0.4745
 5058TIP3    H236666   2.518   5.854   3.814  0.8456  0.9601 -0.1040
 5059TIP3   OH236667   4.662   1.677  16.676 -0.5951 -0.0904  0.1546
 5059TIP3    H136668   4.647   1.695  16.769  0.7172 -2.3158  0.8303
 5059TIP3    H236669   4.592   1.616  16.652  1.0082 -2.1341  0.5729
 5060TIP3   OH236670   2.985   6.407  10.975 -0.1020  0.0346 -0.9262
 5060TIP3    H136671   2.905   6.420  10.923 -1.0693  1.7365  0.9111
 5060TIP3    H236672   3.036   6.487  10.960  0.2109 -0.0477 -0.2986
 5061TIP3   OH236673   1.688   5.599  11.173  0.1258 -0.4415 -0.0708
 5061TIP3    H136674   1.763   5.649  11.142 -0.2458 -0.8583 -1.6941
 5061TIP3    H236675   1.699   5.513  11.134 -0.4078 -0.9693  0.9205
 5062TIP3   OH236676   3.621   0.232   1.167 -0.0872  0.3070 -0.8910
 5062TIP3    H136677   3.668   0.288   1.105  0.0955 -0.4057 -1.4093
 5062TIP3    H236678   3.569   0.292   1.219 -0.0087  0.9480 -1.5396
 5063TIP3   OH236679   3.424   0.719   5.255 -0.0740  0.2212  0.1926
 5063TIP3    H136680   3.395   0.805   5.225  1.8123  0.8378  0.0492
 5063TIP3    H236681   3.379   0.707   5.339 -0.6108  1.2054  0.0627
 5064TIP3   OH236682   2.149   5.347   5.428 -0.2103 -0.2098  0.1769
 5064TIP3    H136683   2.095   5.303   5.362 -1.6451  1.7500 -0.0011
 5064TIP3    H236684   2.087   5.382   5.491  0.7835  2.6784 -0.3826
 5065TIP3   OH236685   1.340   0.512  16.733 -0.1578  0.8197  0.2397
 5065TIP3    H136686   1.345   0.421  16.705 -0.3494  0.8678  0.0477
 5065TIP3    H236687   1.270   0.550  16.680  0.0305  1.1196  0.2021
 5066TIP3   OH236688   0.987   1.480  13.177  0.3780  0.3350 -0.5129
 5066TIP3    H136689   0.957   1.539  13.246 -2.2213 -1.8309  0.2939
 5066TIP3    H236690   1.055   1.529  13.132 -0.0238  3.0027  1.6411
 5067TIP3   OH236691   3.604   5.423   1.727 -0.2062 -0.1182 -0.4148
 5067TIP3    H136692   3.519   5.396   1.691  0.9562 -2.3302 -1.6671
 5067TIP3    H236693   3.618   5.365   1.802  0.5175 -0.3093 -0.6882
 5068TIP3   OH236694   2.003   2.162  13.529  0.1100  0.4993 -0.1182
 5068TIP3    H136695   1.964   2.149  13.443  0.6130  1.2925 -0.4732
 5068TIP3    H236696   1.929   2.188  13.585 -0.4535 -1.3757  0.0241
 5069TIP3   OH236697   0.343   5.345   6.765 -0.1828 -0.0976 -0.7025
 5069TIP3    H136698   0.365   5.297   6.685 -2.1567 -0.3557 -1.1049
 5069TIP3    H236699   0.419   5.332   6.822  0.5327 -1.2926 -1.8998
 5070TIP3   OH236700   4.446   1.730  15.160  0.0608  0.1663 -0.4047
 5070TIP3    H136701   4.439   1.759  15.069 -0.0505  0.4642 -0.3043
 5070TIP3    H236702   4.460   1.636  15.155 -1.2673 -0.0229 -0.7027
 5071TIP3   OH236703   0.568   3.499  15.101 -0.4566 -0.2818 -0.0788
 5071TIP3    H136704   0.635   3.567  15.114  0.9593 -1.5260 -0.7113
 5071TIP3    H236705   0.618   3.422  15.074 -2.1407 -1.3189 -0.2575
 5072TIP3   OH236706   6.116   2.061   6.124 -0.1429  0.4546  0.0317
 5072TIP3    H136707   6.127   2.100   6.210 -1.2413 -1.2854  0.9851
 5072TIP3    H236708   6.136   1.968   6.137 -2.0060 -0.1513 -1.2010
 5073TIP3   OH236709   3.093   3.169  13.332 -0.1274  0.4802 -0.1407
 5073TIP3    H136710   3.028   3.221  13.284 -0.3757  1.2094  0.9615
 5073TIP3    H236711   3.053   3.083  13.341  0.4417 -0.0586 -2.3179
 5074TIP3   OH236712   0.605   6.155   5.866  0.7307  0.0039 -0.3888
 5074TIP3    H136713   0.681   6.100   5.887 -0.6115 -1.1064  1.7992
 5074TIP3    H236714   0.607   6.224   5.932  1.1521  1.3280 -1.7741
 5075TIP3   OH236715   1.228   6.674   0.697  0.2517  0.2949  0.1208
 5075TIP3    H136716   1.305   6.660   0.752 -0.7078 -0.3055  1.3424
 5075TIP3    H236717   1.174   6.736   0.747 -0.3555  0.2192 -0.4313
 5076TIP3   OH236718   5.585   0.875  16.347 -0.3269  0.0139 -0.4671
 5076TIP3    H136719   5.573   0.879  16.253  1.5987  0.0312 -0.7296
 5076TIP3    H236720   5.671   0.914  16.362 -0.8349  0.5012  1.3533
 5077TIP3   OH236721   2.836   3.912   6.595  0.4515 -0.6405 -0.0746
 5077TIP3    H136722   2.762   3.852   6.594  0.7537 -1.0075 -0.5098
 5077TIP3    H236723   2.825   3.963   6.675 -0.4213 -0.5066 -0.2779
 5078TIP3   OH236724   5.053   5.147  16.681  0.3519  0.0326 -0.2252
 5078TIP3    H136725   5.067   5.242  16.690 -3.0374  0.4992  0.9068
 5078TIP3    H236726   5.060   5.114  16.771 -1.1274 -0.3723 -0.2551
 5079TIP3   OH236727   0.900   0.085  11.382  0.2543  0.1101  0.0921
 5079TIP3    H136728   0.872   0.172  11.409 -0.3617 -0.6741  2.0552
 5079TIP3    H236729   0.978   0.100  11.329  0.7594  1.7762  1.2738
 5080TIP3   OH236730   3.108   5.382   4.964 -0.2254  0.4735  0.2995
 5080TIP3    H136731   3.098   5.475   4.941 -1.0072  0.6336  1.2273
 5080TIP3    H236732   3.157   5.344   4.892 -0.0835  1.5742 -0.1916
 5081TIP3   OH236733   1.365   0.752   1.051  0.1602  0.2910  0.1281
 5081TIP3    H136734   1.278   0.776   1.082  0.1247 -0.0087  0.2627
 5081TIP3    H236735   1.377   0.661   1.080  0.5146  0.3292  0.1065
 5082TIP3   OH236736   3.642   3.142  13.016  0.1337  0.7175 -0.0173
 5082TIP3    H136737   3.732   3.175  13.016  0.0492  0.9483 -0.5849
 5082TIP3    H236738   3.633   3.097  13.101  0.4131  1.6663  0.5169
 5083TIP3   OH236739   1.503   6.610  11.570 -0.2870  0.5121 -0.1537
 5083TIP3    H136740   1.432   6.550  11.546  0.7378 -2.0518  2.9236
 5083TIP3    H236741   1.534   6.579  11.655  2.2644  3.6705  0.1956
 5084TIP3   OH236742   1.716   0.314  16.262  0.7821 -0.0081  0.4134
 5084TIP3    H136743   1.645   0.262  16.224 -0.7886  0.8706  2.0591
 5084TIP3    H236744   1.730   0.276  16.349  1.9783  0.1549  0.2902
 5085TIP3   OH236745   5.118   0.091  14.789  0.3351  0.0129 -0.0117
 5085TIP3    H136746   5.150   0.066  14.702 -0.7907  3.6948 -1.6137
 5085TIP3    H236747   5.025   0.069  14.787  0.5735 -1.1170  0.7890
 5086TIP3   OH236748   3.159   0.489  15.787  0.6260 -0.3118 -0.6403
 5086TIP3    H136749   3.190   0.399  15.772  2.0892  0.2337 -1.0019
 5086TIP3    H236750   3.222   0.544  15.740 -0.0878  0.9234 -0.1754
 5087TIP3   OH236751   2.226   3.768   4.444  0.1955 -0.4562 -0.1647
 5087TIP3    H136752   2.241   3.673   4.444  0.7943 -0.3788 -2.6101
 5087TIP3    H236753   2.293   3.803   4.502 -0.3133 -1.5538  1.1163
 5088TIP3   OH236754   0.188   3.317   4.872 -0.6674 -0.4801 -0.4283
 5088TIP3    H136755   0.151   3.268   4.799  0.0234  0.6757 -1.5641
 5088TIP3    H236756   0.137   3.288   4.948 -1.4732 -1.5940 -1.3729
 5089TIP3   OH236757   0.547   1.820   3.674 -0.4501 -0.5409 -0.5569
 5089TIP3    H136758   0.489   1.798   3.747 -0.6336 -0.6737 -0.7431
 5089TIP3    H236759   0.605   1.887   3.710 -0.4484 -0.7046 -0.2450
 5090TIP3   OH236760   3.602   3.193  14.515  0.6237  0.2798 -0.0352
 5090TIP3    H136761   3.652   3.181  14.595 -0.1220 -0.4470  0.3265
 5090TIP3    H236762   3.538   3.261  14.536  0.0450 -0.3248  0.1692
 5091TIP3   OH236763   3.980   3.967  16.037  0.0757  0.0124  0.1105
 5091TIP3    H136764   3.920   3.903  16.074  0.7786 -0.9257 -0.3344
 5091TIP3    H236765   3.924   4.030  15.991 -0.4872 -2.0063 -2.0687
 5092TIP3   OH236766   2.063   6.318   1.095 -0.0933 -0.1707  0.7148
 5092TIP3    H136767   2.065   6.255   1.167 -1.0782 -0.3099  0.6363
 5092TIP3    H236768   2.028   6.398   1.134  2.5093  0.7954  1.1489
 5093TIP3   OH236769   5.048   3.340   0.005 -0.2962 -0.3266  0.1493
 5093TIP3    H136770   4.972   3.284   0.019 -0.6351  0.3463  1.0000
 5093TIP3    H236771   5.030   3.385  -0.077 -1.1870  0.4375  0.7607
 5094TIP3   OH236772   3.893   6.241   6.272 -0.4570 -0.7397 -0.2576
 5094TIP3    H136773   3.815   6.251   6.326 -0.0452 -2.2781  0.6585
 5094TIP3    H236774   3.869   6.174   6.207  0.3634 -1.8801  0.5842
 5095TIP3   OH236775   5.861   1.520  16.128 -0.5715  0.0761 -0.3989
 5095TIP3    H136776   5.895   1.608  16.142  1.3901 -0.7268  0.0907
 5095TIP3    H236777   5.870   1.476  16.213  0.1501 -1.1299 -1.0746
 5096TIP3   OH236778   0.234   4.737  16.458  0.5084  0.5129  1.1981
 5096TIP3    H136779   0.204   4.753  16.548  0.3043 -0.2678  1.2780
 5096TIP3    H236780   0.315   4.686  16.469  0.8591  1.0083  0.9458
 5097TIP3   OH236781   2.488   3.582  16.506 -0.3397 -0.0215 -0.2496
 5097TIP3    H136782   2.457   3.582  16.596  1.2924  0.7341  0.3299
 5097TIP3    H236783   2.496   3.675  16.483  0.4881 -0.2048 -0.7260
 5098TIP3   OH236784   0.987   5.476  17.077  0.1181  0.2040  0.4051
 5098TIP3    H136785   1.025   5.512  17.157 -1.6548  0.4938  1.1346
 5098TIP3    H236786   0.913   5.534  17.058  0.6710  0.2964 -1.6012
 5099TIP3   OH236787   0.752   5.707  15.080 -0.3197 -0.5802 -0.6201
 5099TIP3    H136788   0.706   5.699  14.997  0.3722 -1.4815 -0.9108
 5099TIP3    H236789   0.682   5.709  15.146 -0.7704 -2.2226 -1.0435
 5100TIP3   OH236790   4.373   1.623   4.639  0.1295  0.2728  0.7901
 5100TIP3    H136791   4.439   1.559   4.611 -0.1944  0.5395 -0.6521
 5100TIP3    H236792   4.315   1.574   4.697 -0.8945 -1.1171 -1.3639
 5101TIP3   OH236793   6.384   5.217  16.457 -0.3146 -0.0190 -0.0233
 5101TIP3    H136794   6.344   5.132  16.475 -1.4542  0.8303  1.5523
 5101TIP3    H236795   6.449   5.199  16.389 -2.8942 -1.5275 -2.1507
 5102TIP3   OH236796   5.861   2.188  11.183  0.7977  0.4307  0.3636
 5102TIP3    H136797   5.786   2.213  11.129  1.7893 -0.7940 -1.6493
 5102TIP3    H236798   5.828   2.116  11.237  0.0041  1.1802  0.8988
 5103TIP3   OH236799   3.755   0.033   6.642 -0.7832 -0.1514  0.1301
 5103TIP3    H136800   3.737  -0.031   6.710  0.0650  0.2156  0.7089
 5103TIP3    H236801   3.710  -0.001   6.565  1.3423 -2.5065 -0.1310
 5104TIP3   OH236802   6.089   4.379  16.776 -0.0284  0.3896 -0.5111
 5104TIP3    H136803   6.054   4.296  16.808  1.0384 -0.3607 -1.2717
 5104TIP3    H236804   6.066   4.442  16.844 -0.6806 -0.5685  0.1627
 5105TIP3   OH236805   0.776   3.168  12.823 -0.3625  0.5271 -0.1010
 5105TIP3    H136806   0.792   3.104  12.754 -2.6153  1.7653 -1.8772
 5105TIP3    H236807   0.743   3.117  12.897  1.5486 -0.7602 -0.1102
 5106TIP3   OH236808   1.063   1.597   4.233  0.2038 -0.0104  0.8534
 5106TIP3    H136809   1.060   1.501   4.224  1.8030  0.0262 -0.2552
 5106TIP3    H236810   0.972   1.622   4.247 -0.6504 -1.4019 -1.8976
 5107TIP3   OH236811   4.717   3.624  10.301  0.0198 -0.2860 -0.3882
 5107TIP3    H136812   4.638   3.671  10.277 -1.6085 -2.6100  0.2186
 5107TIP3    H236813   4.738   3.654  10.389  1.1638  1.9914 -1.3795
 5108TIP3   OH236814   1.994   0.258  14.089 -0.1711 -0.5825  0.1940
 5108TIP3    H136815   2.008   0.164  14.081  0.1140 -0.4966 -0.2985
 5108TIP3    H236816   1.899   0.269  14.082 -0.4945 -1.1255  3.1305
 5109TIP3   OH236817   5.658   4.637   0.298 -0.1723  0.6125 -0.9234
 5109TIP3    H136818   5.625   4.598   0.218  0.5253 -0.2154 -0.8102
 5109TIP3    H236819   5.631   4.576   0.367 -0.6072  1.2242 -0.5445
 5110TIP3   OH236820   3.814   0.038   1.243 -0.6387 -0.2006 -0.2783
 5110TIP3    H136821   3.755   0.111   1.227 -0.6796 -0.2209 -0.2223
 5110TIP3    H236822   3.886   0.051   1.182 -0.5758 -0.0342 -0.1703
 5111TIP3   OH236823   5.675   2.876   0.336  0.0725 -0.1650 -0.1188
 5111TIP3    H136824   5.679   2.782   0.322  1.4846 -0.2483  0.6679
 5111TIP3    H236825   5.582   2.897   0.339 -0.2427 -1.5633 -0.1188
 5112TIP3   OH236826   2.965   1.490   1.621  0.1841 -0.5400 -0.7603
 5112TIP3    H136827   3.006   1.470   1.705  0.0485  3.1706  0.2621
 5112TIP3    H236828   2.874   1.464   1.632 -0.1639  1.2683  0.7743
 5113TIP3   OH236829   6.580   0.876   4.941  0.2791 -0.1091  0.3941
 5113TIP3    H136830   6.596   0.792   4.982 -1.2921 -0.0968  1.0709
 5113TIP3    H236831   6.642   0.880   4.868  2.5335 -0.4983  2.2101
 5114TIP3   OH236832   4.679   2.318  16.253 -0.0037  1.1410 -0.0251
 5114TIP3    H136833   4.772   2.298  16.263  0.0916  1.0153 -1.1056
 5114TIP3    H236834   4.651   2.266  16.178 -0.6408  2.1718 -0.5239
 5115TIP3   OH236835   1.051   6.373   3.809 -0.1844 -0.2532  0.1842
 5115TIP3    H136836   0.991   6.310   3.769 -0.3085 -1.2049  1.8209
 5115TIP3    H236837   1.112   6.319   3.859  0.2567  0.8752  0.8831
 5116TIP3   OH236838   4.599   0.319  14.855  0.7164  0.0782  0.0561
 5116TIP3    H136839   4.631   0.409  14.858 -0.8165  0.5968  1.9346
 5116TIP3    H236840   4.639   0.276  14.929  0.5359 -0.4712 -0.1633
 5117TIP3   OH236841   1.235   4.843  13.981 -0.2008  0.1326 -0.0360
 5117TIP3    H136842   1.216   4.853  14.075  0.1406 -0.2506  0.0755
 5117TIP3    H236843   1.168   4.895  13.938 -0.8857 -0.3901  0.3879
 5118TIP3   OH236844   1.404   5.284   2.097  0.0129  0.2855 -0.4911
 5118TIP3    H136845   1.327   5.332   2.066  1.3798  2.6647 -0.3583
 5118TIP3    H236846   1.380   5.254   2.184 -0.7071  1.1410 -0.3905
 5119TIP3   OH236847   4.481   5.003   6.258  0.4500  0.4376  0.4785
 5119TIP3    H136848   4.404   4.958   6.224  0.1077  1.2291  0.2054
 5119TIP3    H236849   4.453   5.093   6.271  1.2166  0.6439  0.7589
 5120TIP3   OH236850   6.493   2.364   4.884 -0.0555 -0.0313  0.1124
 5120TIP3    H136851   6.469   2.273   4.865 -1.3774  0.4205 -0.3941
 5120TIP3    H236852   6.586   2.359   4.907 -0.3554 -1.6524  1.0837
 5121TIP3   OH236853   0.177   6.520  16.292 -0.5910  0.4018  0.0640
 5121TIP3    H136854   0.123   6.590  16.255  2.4191  2.0935 -1.3483
 5121TIP3    H236855   0.199   6.464  16.217  0.1917  0.1251  0.4966
 5122TIP3   OH236856   4.123   4.868   2.311  0.0839  0.0036  0.0005
 5122TIP3    H136857   4.034   4.880   2.346 -0.0120  1.4265 -0.6878
 5122TIP3    H236858   4.131   4.774   2.297 -1.1250 -0.1972  0.5887
 5123TIP3   OH236859   2.108   4.278   0.400  0.2096 -0.4766  0.1861
 5123TIP3    H136860   2.137   4.334   0.472 -0.7830  0.8079 -0.4104
 5123TIP3    H236861   2.130   4.327   0.321  0.8641 -1.6777 -0.3989
 5124TIP3   OH236862   5.679   3.159  14.645 -0.4192  0.3182  0.0504
 5124TIP3    H136863   5.708   3.123  14.729  0.6194  1.9910  0.4176
 5124TIP3    H236864   5.734   3.116  14.580 -0.6197 -0.3114  0.2903
 5125TIP3   OH236865   0.400   4.963   0.384  0.4014  0.0885  0.5711
 5125TIP3    H136866   0.426   4.871   0.385 -2.1136 -0.6547  0.9774
 5125TIP3    H236867   0.312   4.964   0.422 -1.1717  2.1818 -2.9021
 5126TIP3   OH236868   1.737   6.136  14.825 -0.1004  0.1648  0.0605
 5126TIP3    H136869   1.812   6.108  14.877  0.3631  0.4728 -0.4332
 5126TIP3    H236870   1.776   6.183  14.750 -0.7902  0.5246 -0.0774
 5127TIP3   OH236871   2.988   3.257  17.287 -0.5972 -0.4163 -0.1233
 5127TIP3    H136872   2.903   3.214  17.283 -0.8883 -0.0729  1.8315
 5127TIP3    H236873   2.967   3.349  17.303  0.1507 -0.4409  1.0196
 5128TIP3   OH236874   2.298   2.298  12.471 -0.2216  0.4696  0.2551
 5128TIP3    H136875   2.364   2.324  12.406  1.6112 -1.9807  1.0381
 5128TIP3    H236876   2.338   2.319  12.555 -0.2394 -1.3694  0.7518
 5129TIP3   OH236877   3.417   0.904  12.979 -0.5956  0.0635  0.7643
 5129TIP3    H136878   3.400   0.910  13.073 -2.2121  0.6988  0.4432
 5129TIP3    H236879   3.511   0.884  12.973 -0.5338 -0.2409  2.5098
 5130TIP3   OH236880   1.377   4.268  11.550 -0.0035 -0.3143 -0.0237
 5130TIP3    H136881   1.371   4.357  11.514  3.2985 -0.2325 -0.5275
 5130TIP3    H236882   1.428   4.279  11.631 -2.3441 -1.3276  1.6205
 5131TIP3   OH236883   1.106   0.783  10.693 -0.4364 -0.8564 -0.2898
 5131TIP3    H136884   1.084   0.874  10.676  0.0431 -0.3074  1.9462
 5131TIP3    H236885   1.193   0.786  10.732  1.6357 -2.6293 -4.4487
 5132TIP3   OH236886   2.504   3.463  11.749 -0.4584 -0.2801 -0.3824
 5132TIP3    H136887   2.590   3.464  11.708  0.3729  2.0700  1.2872
 5132TIP3    H236888   2.521   3.432  11.838 -1.5545 -1.1460 -0.4670
 5133TIP3   OH236889   4.592   3.554   1.041 -0.7250  0.0629 -0.1697
 5133TIP3    H136890   4.531   3.548   1.115  0.8076  2.4775  1.3543
 5133TIP3    H236891   4.552   3.619   0.983 -1.9956 -1.9268 -1.6189
 5134TIP3   OH236892   2.816   3.835  15.741  0.4475  0.3555 -1.0645
 5134TIP3    H136893   2.774   3.763  15.789  0.7541  0.8970  0.0296
 5134TIP3    H236894   2.844   3.896  15.809  0.2411  1.4899 -1.9848
 5135TIP3   OH236895   5.406   2.232   2.974 -0.1345  0.1862 -0.3335
 5135TIP3    H136896   5.482   2.193   2.930 -0.5850 -1.1980  0.0876
 5135TIP3    H236897   5.341   2.244   2.905  0.0162  0.2232 -0.4684
 5136TIP3   OH236898   0.287   3.048  11.856  0.1857  0.0874  0.0539
 5136TIP3    H136899   0.218   2.990  11.889  1.3767 -1.4172 -0.0547
 5136TIP3    H236900   0.303   3.018  11.766  0.9786  0.4403  0.0715
 5137TIP3   OH236901   3.473   4.081   0.079  0.3474 -0.3091 -0.1253
 5137TIP3    H136902   3.379   4.083   0.101  0.3756 -0.8072  0.0412
 5137TIP3    H236903   3.505   4.001   0.121  0.7842 -0.2945 -0.4408
 5138TIP3   OH236904   5.388   3.417  16.971  0.5728  0.2241 -0.0461
 5138TIP3    H136905   5.354   3.394  16.884  0.0740  0.3614  0.1100
 5138TIP3    H236906   5.370   3.510  16.979  1.5646  0.4322 -0.2166
 5139TIP3   OH236907   0.705   0.909   5.627 -0.2469 -0.4924 -0.3530
 5139TIP3    H136908   0.654   0.969   5.681 -0.5299 -0.5295 -0.5786
 5139TIP3    H236909   0.685   0.822   5.664 -0.8866 -0.5715 -0.8757
 5140TIP3   OH236910   4.706   2.784   4.248  0.2256  0.0905  0.0910
 5140TIP3    H136911   4.619   2.824   4.258 -0.2094 -0.4579 -1.3409
 5140TIP3    H236912   4.696   2.695   4.281  0.4724  0.3017  0.7337
 5141TIP3   OH236913   5.031   3.110   5.096 -0.4352 -0.0408  0.7494
 5141TIP3    H136914   5.126   3.112   5.108 -0.2422 -0.0985 -0.6786
 5141TIP3    H236915   5.013   3.021   5.067 -0.8939  0.0476  0.7632
 5142TIP3   OH236916   0.840   4.615  13.461 -0.6583  0.3004 -0.8233
 5142TIP3    H136917   0.819   4.531  13.421  2.5054 -1.0290  0.1517
 5142TIP3    H236918   0.872   4.670  13.389  1.4510 -0.8382 -0.7898
 5143TIP3   OH236919   2.643   6.103   2.048 -0.4255  0.6760  0.2340
 5143TIP3    H136920   2.664   6.028   2.103 -0.0179 -0.0946 -0.9457
 5143TIP3    H236921   2.615   6.171   2.109  1.0522  0.2014  1.4581
 5144TIP3   OH236922   3.227   1.685   5.677 -0.2560  0.1004  0.1074
 5144TIP3    H136923   3.134   1.707   5.681  0.0616  1.2312  1.4118
 5144TIP3    H236924   3.270   1.748   5.735  1.0467 -1.9708  1.4588
 5145TIP3   OH236925   5.568   2.347  15.689  0.2653 -0.6661  0.3048
 5145TIP3    H136926   5.498   2.404  15.720  1.3063 -0.3920  2.2196
 5145TIP3    H236927   5.603   2.392  15.612 -2.3758 -1.3672 -1.3913
 5146TIP3   OH236928   0.935   2.223   2.680 -0.1624 -0.2534  0.4971
 5146TIP3    H136929   0.873   2.188   2.617  0.4332  2.2016 -1.5441
 5146TIP3    H236930   0.883   2.234   2.760 -2.3740  1.5778 -1.1112
 5147TIP3   OH236931   0.393   3.657   4.993 -0.4490 -0.0266  0.2729
 5147TIP3    H136932   0.446   3.659   4.914  0.5163  0.5161  0.9347
 5147TIP3    H236933   0.390   3.564   5.018 -1.9233 -0.3900 -1.1634
 5148TIP3   OH236934   0.533   1.806   2.093 -0.0973  0.3687  0.3180
 5148TIP3    H136935   0.526   1.869   2.165  0.1547  0.9762 -0.1872
 5148TIP3    H236936   0.450   1.759   2.094 -0.3085  0.7467  0.6545
 5149TIP3   OH236937   6.200   6.099   4.934  0.2526  0.2881 -0.0956
 5149TIP3    H136938   6.262   6.092   5.008  2.9953 -0.0883 -2.3470
 5149TIP3    H236939   6.249   6.146   4.867 -2.5305  1.4123 -1.3714
 5150TIP3   OH236940   0.931   2.825  15.122 -0.0006 -0.6779 -0.3887
 5150TIP3    H136941   0.916   2.752  15.062  1.0043 -3.8905  3.1370
 5150TIP3    H236942   0.844   2.849  15.153 -0.0997 -2.4195  0.7378
 5151TIP3   OH236943   5.902   2.435   4.613 -0.4017  0.2186 -0.2299
 5151TIP3    H136944   5.953   2.371   4.564  0.8589 -0.0711  1.4151
 5151TIP3    H236945   5.811   2.404   4.606  0.1127 -1.3736 -0.0290
 5152TIP3   OH236946   4.534   1.464   3.864 -0.0545 -0.1970 -0.0211
 5152TIP3    H136947   4.595   1.417   3.920 -0.1685 -1.2689 -0.7879
 5152TIP3    H236948   4.562   1.555   3.869  0.7915 -0.4900  0.6726
 5153TIP3   OH236949   2.356   2.718  14.152  0.0201  0.3954  0.0258
 5153TIP3    H136950   2.373   2.625  14.164  0.5375  0.5491  0.4817
 5153TIP3    H236951   2.415   2.745  14.081  1.5289  0.8686  1.4285
 5154TIP3   OH236952   6.463   4.322  14.371 -0.2143 -0.5581  0.0716
 5154TIP3    H136953   6.439   4.368  14.451 -0.6606  0.7255 -0.7889
 5154TIP3    H236954   6.380   4.298  14.330 -0.0845  1.9295 -1.7852
 5155TIP3   OH236955   3.769   5.349  16.210 -0.3184 -0.1254  0.0397
 5155TIP3    H136956   3.854   5.355  16.166 -0.1601  1.3625  0.5193
 5155TIP3    H236957   3.749   5.255  16.211 -0.1039 -0.2543 -2.7971
 5156TIP3   OH236958   0.442   2.200  12.575 -0.2282 -0.7549  0.0077
 5156TIP3    H136959   0.502   2.206  12.500  0.5129  0.7763  0.7072
 5156TIP3    H236960   0.456   2.281  12.624 -0.0930 -2.1195  2.2771
 5157TIP3   OH236961   3.142   3.908  13.859 -0.6969 -0.7434 -0.7497
 5157TIP3    H136962   3.218   3.936  13.807 -0.6856 -1.2347 -1.0014
 5157TIP3    H236963   3.174   3.910  13.949 -0.7870  0.3370 -0.7365
 5158TIP3   OH236964   2.930   0.398  13.810  0.2258 -0.0953 -0.6498
 5158TIP3    H136965   2.987   0.360  13.744 -0.1409 -0.0040 -1.0224
 5158TIP3    H236966   2.959   0.489  13.817  1.1261 -0.4490  0.2660
 5159TIP3   OH236967   4.764   6.185   0.644  0.1324 -0.7880  0.7666
 5159TIP3    H136968   4.809   6.258   0.600  0.3485 -0.4122  1.6137
 5159TIP3    H236969   4.753   6.215   0.734 -0.7345 -1.3710  0.8566
 5160TIP3   OH236970   6.743   2.253   0.132  0.3897  0.1485  0.2735
 5160TIP3    H136971   6.749   2.235   0.226 -2.4448 -0.3535  0.3910
 5160TIP3    H236972   6.797   2.332   0.120 -0.7815  1.3786  2.6770
 5161TIP3   OH236973   5.176   5.565   2.377  0.1300 -0.2479  0.0163
 5161TIP3    H136974   5.172   5.522   2.463  1.2720 -0.3623  0.0210
 5161TIP3    H236975   5.091   5.546   2.337 -0.6036  0.2036  1.3039
 5162TIP3   OH236976   6.777   3.004   4.868 -0.8236  0.2207 -0.1113
 5162TIP3    H136977   6.754   2.912   4.880 -1.6985  0.5308  0.6277
 5162TIP3    H236978   6.723   3.051   4.932 -0.7998  1.2975 -0.8680
 5163TIP3   OH236979   5.072   3.074  15.679  0.2822  0.9206  0.0449
 5163TIP3    H136980   5.057   3.156  15.725  2.5657  1.5202 -0.2324
 5163TIP3    H236981   5.166   3.072  15.663 -0.1145 -0.4704 -2.3646
 5164TIP3   OH236982   2.073   0.153   1.149  0.0274 -0.1357 -0.3387
 5164TIP3    H136983   2.031   0.238   1.166 -0.5141 -0.5453  0.4191
 5164TIP3    H236984   2.107   0.125   1.234  0.8325 -0.3510 -0.7255
 5165TIP3   OH236985   6.399   0.302  15.259  0.2882  0.1258  0.7293
 5165TIP3    H136986   6.463   0.249  15.307  0.0087  0.4743  1.4950
 5165TIP3    H236987   6.318   0.250  15.262  0.3367  0.0220  0.3845
 5166TIP3   OH236988   2.867   1.280  16.804  0.0795 -0.4409 -0.5613
 5166TIP3    H136989   2.863   1.298  16.898  0.1455  0.6284 -0.7577
 5166TIP3    H236990   2.958   1.257  16.788 -0.4965 -3.5963  0.1400
 5167TIP3   OH236991   5.618   4.727  13.334 -0.2033 -0.0657  0.4315
 5167TIP3    H136992   5.535   4.754  13.295  0.7702  0.2239 -1.5177
 5167TIP3    H236993   5.657   4.668  13.269  0.9853 -0.4227  1.4508
 5168TIP3   OH236994   1.615   3.079   4.237  0.8783  0.4218 -0.3444
 5168TIP3    H136995   1.615   3.083   4.333 -0.5390 -0.9781 -0.2750
 5168TIP3    H236996   1.642   3.167   4.210  1.0882  0.8933  1.3250
 5169TIP3   OH236997   3.613   3.711  16.314 -0.5876  0.2414  0.5675
 5169TIP3    H136998   3.650   3.630  16.351  0.6480  1.6953  2.5943
 5169TIP3    H236999   3.550   3.740  16.380 -0.7995  1.1154 -0.0209
 5170TIP3   OH237000   0.310   4.455  16.053 -0.1938  0.0816 -0.0935
 5170TIP3    H137001   0.224   4.416  16.072  0.1779 -0.5951  0.2136
 5170TIP3    H237002   0.363   4.436  16.130  0.7893 -1.0996 -1.0461
 5171TIP3   OH237003   3.083   4.529   5.931 -0.5193  0.1568 -0.7380
 5171TIP3    H137004   3.025   4.465   5.889  0.1896 -0.9702 -0.0222
 5171TIP3    H237005   3.041   4.613   5.915 -0.5764 -0.2850 -3.2248
 5172TIP3   OH237006   2.330   0.049  14.145 -0.0978 -0.4431 -0.1138
 5172TIP3    H137007   2.295   0.072  14.059 -0.3111 -0.3381  0.0035
 5172TIP3    H237008   2.374  -0.035  14.130 -0.4626 -0.6122 -0.2406
 5173TIP3   OH237009   2.937   0.874  14.528  0.4672 -0.3183 -0.0391
 5173TIP3    H137010   3.008   0.937  14.523 -0.8965  1.3150  0.6018
 5173TIP3    H237011   2.946   0.834  14.615  2.9134 -2.9973 -1.4292
 5174TIP3   OH237012   3.970   0.804  11.033 -0.0116  0.6122  0.2488
 5174TIP3    H137013   3.981   0.877  11.093 -0.7695  0.4778  0.5597
 5174TIP3    H237014   4.044   0.810  10.972  0.3833  1.1398  0.7862
 5175TIP3   OH237015   0.842   5.017  11.647  0.5221 -0.2090  0.2529
 5175TIP3    H137016   0.812   5.073  11.576  0.6857 -2.0144 -1.2788
 5175TIP3    H237017   0.856   5.077  11.721 -2.4124  1.2966 -0.3416
 5176TIP3   OH237018   4.718   3.279  12.437 -0.4482 -0.0819  0.2069
 5176TIP3    H137019   4.809   3.290  12.467 -0.1181 -0.9381 -0.4597
 5176TIP3    H237020   4.721   3.300  12.344 -0.9803  0.0753  0.2224
 5177TIP3   OH237021   4.942   4.870   4.781 -0.2611 -0.0747 -0.1142
 5177TIP3    H137022   4.945   4.963   4.761  2.2371  0.9982  4.4703
 5177TIP3    H237023   5.029   4.838   4.759  0.4694 -0.1931  2.7252
 5178TIP3   OH237024   1.845   4.682  16.338  0.0891  0.8075 -0.0227
 5178TIP3    H137025   1.815   4.759  16.290 -1.6722 -0.0803 -0.3986
 5178TIP3    H237026   1.931   4.707  16.372  0.1230  2.4508 -1.2512
 5179TIP3   OH237027   5.864   0.062  15.743  0.6829 -0.0367  0.0508
 5179TIP3    H137028   5.780   0.103  15.763  0.6777 -0.7669  1.6330
 5179TIP3    H237029   5.926   0.135  15.737  0.4100  0.3368  1.4755
 5180TIP3   OH237030   1.018   3.354   2.248 -0.2417  0.0202 -0.1749
 5180TIP3    H137031   1.026   3.284   2.312  0.6835  0.9948  0.7696
 5180TIP3    H237032   1.104   3.361   2.208 -0.6182 -0.0939 -1.0209
 5181TIP3   OH237033   1.537   1.400  15.597 -0.0316  0.5693  0.1848
 5181TIP3    H137034   1.611   1.340  15.610  0.0605  0.9333  1.4326
 5181TIP3    H237035   1.470   1.369  15.657 -0.4007  1.0327  0.0170
 5182TIP3   OH237036   4.714   2.523   5.296 -0.0846 -0.0409 -0.2979
 5182TIP3    H137037   4.664   2.442   5.284 -0.9963  0.7899 -2.2796
 5182TIP3    H237038   4.665   2.571   5.362  1.4717 -1.8674  2.2851
 5183TIP3   OH237039   3.210   3.412   0.891 -0.0404 -0.8508  0.0066
 5183TIP3    H137040   3.294   3.380   0.923  0.6376 -1.2115 -2.0397
 5183TIP3    H237041   3.176   3.340   0.837 -1.2250 -0.3463  0.0582
 5184TIP3   OH237042   4.084   6.485   2.063 -0.4102  0.3099 -0.3636
 5184TIP3    H137043   4.097   6.571   2.103 -0.0728  0.4241 -0.7117
 5184TIP3    H237044   4.033   6.503   1.984  0.7619  0.3536 -1.1192
 5185TIP3   OH237045   1.941   6.490   1.717 -0.5778  0.3415  0.6080
 5185TIP3    H137046   1.902   6.576   1.702 -0.0850  0.4143 -0.3016
 5185TIP3    H237047   1.922   6.471   1.809 -2.7665  0.3523  0.1766
 5186TIP3   OH237048   0.540   6.239   1.276  0.4333  0.2427 -0.1358
 5186TIP3    H137049   0.546   6.160   1.330 -1.3619  0.5217  0.5138
 5186TIP3    H237050   0.520   6.207   1.189 -0.1266 -0.0333  0.0927
 5187TIP3   OH237051   3.518   2.077  17.288 -0.1024 -0.0391 -0.8806
 5187TIP3    H137052   3.472   2.071  17.204  0.1869  1.1519 -1.1218
 5187TIP3    H237053   3.471   2.144  17.337 -0.5960 -1.1025  0.1269
 5188TIP3   OH237054   0.364   4.176  11.568  0.2112 -0.3145 -0.3490
 5188TIP3    H137055   0.358   4.269  11.547 -0.1165  0.0495  1.2373
 5188TIP3    H237056   0.348   4.172  11.663 -0.6909 -2.0732 -0.5507
 5189TIP3   OH237057   3.732   0.335  13.328 -0.7114  0.3119  0.1196
 5189TIP3    H137058   3.680   0.415  13.321 -0.2092  0.6857  0.6376
 5189TIP3    H237059   3.807   0.360  13.381 -1.2193 -0.8335  1.4086
 5190TIP3   OH237060   6.744   5.746   4.897 -0.5036 -0.2698 -1.0567
 5190TIP3    H137061   6.757   5.715   4.807 -0.7703 -1.2731 -0.7539
 5190TIP3    H237062   6.700   5.674   4.941 -0.8586  0.4333 -0.2553
 5191TIP3   OH237063   5.055   0.675   4.871  0.0547 -0.3828 -0.5468
 5191TIP3    H137064   4.981   0.617   4.853  0.4379 -1.5346  1.4349
 5191TIP3    H237065   5.131   0.616   4.874  0.2257 -0.0551  3.0585
 5192TIP3   OH237066   5.414   1.492   3.129  0.5218  0.1335  0.8824
 5192TIP3    H137067   5.392   1.427   3.195 -0.3310  1.5868  2.0704
 5192TIP3    H237068   5.480   1.547   3.171  0.8367  0.3633  0.0976
 5193TIP3   OH237069   5.258   0.410   5.747  0.4776  0.1660 -0.0662
 5193TIP3    H137070   5.176   0.387   5.791  0.6407 -0.8625 -0.2746
 5193TIP3    H237071   5.325   0.388   5.812  0.6003  0.7062 -0.0149
 5194TIP3   OH237072   5.131   0.289   1.643 -0.6444  0.4487  0.1438
 5194TIP3    H137073   5.060   0.302   1.580 -0.9075  2.0254  0.7426
 5194TIP3    H237074   5.185   0.367   1.634  0.5192 -0.3213  0.3399
 5195TIP3   OH237075   4.868   1.161  15.473  0.7573 -0.1219  0.2038
 5195TIP3    H137076   4.912   1.223  15.531 -0.9865  0.6775  0.7111
 5195TIP3    H237077   4.897   1.186  15.385  0.5861  1.0048  0.4560
 5196TIP3   OH237078   2.584   2.911  16.904 -0.0676 -0.0119 -0.1964
 5196TIP3    H137079   2.573   2.895  16.810 -1.4237  1.8342 -0.3782
 5196TIP3    H237080   2.608   3.004  16.910  0.1826 -0.1527  1.2876
 5197TIP3   OH237081   1.541   3.595   4.284 -0.0254  0.6727  0.2145
 5197TIP3    H137082   1.463   3.635   4.245 -0.2047  0.4258  0.3231
 5197TIP3    H237083   1.594   3.669   4.313 -0.8901  0.8163  1.4655
 5198TIP3   OH237084   3.319   4.849   0.347 -0.1318  0.0807 -0.1160
 5198TIP3    H137085   3.259   4.863   0.420  0.1577  1.2512 -0.0819
 5198TIP3    H237086   3.273   4.788   0.289 -0.5384 -0.5160  0.8360
 5199TIP3   OH237087   6.735   0.682  16.741 -0.4740  0.1170 -0.3438
 5199TIP3    H137088   6.729   0.764  16.789  0.7526 -0.6149  1.1063
 5199TIP3    H237089   6.683   0.696  16.662  0.0454  2.4195 -0.3089
 5200TIP3   OH237090   2.358   3.269   1.923 -0.0817  0.2733 -0.0768
 5200TIP3    H137091   2.378   3.335   1.989 -2.1755 -1.3070  2.1981
 5200TIP3    H237092   2.439   3.261   1.872  1.8517  0.8746  2.8215
 5201TIP3   OH237093   4.976   4.174  11.995  0.5619  0.1205 -0.0800
 5201TIP3    H137094   4.938   4.120  11.924  0.1062  0.9252 -0.4592
 5201TIP3    H237095   5.068   4.182  11.972  0.4309  0.3147 -0.5391
 5202TIP3   OH237096   6.223   4.441   2.213 -0.3377 -0.2267  0.1213
 5202TIP3    H137097   6.292   4.469   2.273  0.5714 -0.9117 -0.5909
 5202TIP3    H237098   6.247   4.351   2.188 -0.2306  0.3465 -1.9268
 5203TIP3   OH237099   4.999   5.731   1.736 -0.2087 -0.6743 -0.0339
 5203TIP3    H137100   4.963   5.679   1.664 -2.1102  0.9768 -0.3095
 5203TIP3    H237101   4.929   5.791   1.760  1.0609  0.0625  1.9735
 5204TIP3   OH237102   4.328   2.267   0.376 -1.0009  0.5122 -0.8922
 5204TIP3    H137103   4.294   2.306   0.456 -0.8186  0.2979 -0.7120
 5204TIP3    H237104   4.304   2.175   0.381 -0.0642  0.2862 -0.5915
 5205TIP3   OH237105   4.066   5.963  12.087  0.0376 -0.0348  0.2871
 5205TIP3    H137106   4.117   5.984  12.009 -0.6318  0.7071  0.0456
 5205TIP3    H237107   4.018   6.043  12.106  0.7527  0.0233  1.8927
 5206TIP3   OH237108   0.209   2.450  16.335 -0.1916  0.3647 -0.4323
 5206TIP3    H137109   0.206   2.429  16.428  2.0027 -0.0838 -0.4354
 5206TIP3    H237110   0.158   2.381  16.293 -0.0332 -0.2180  0.3209
 5207TIP3   OH237111   1.518   0.995  10.854  0.0696 -0.7359 -0.2022
 5207TIP3    H137112   1.472   0.915  10.830 -1.5858  0.6208 -1.6891
 5207TIP3    H237113   1.481   1.062  10.796  2.2798  0.8565  0.1787
 5208TIP3   OH237114   3.824   1.551   0.526 -0.3734  0.3439 -0.0285
 5208TIP3    H137115   3.746   1.515   0.483  0.9117 -0.8805 -1.3697
 5208TIP3    H237116   3.897   1.525   0.470  1.0995  0.7614  1.6495
 5209TIP3   OH237117   0.623   1.806  11.484 -0.4423  0.3823  0.5071
 5209TIP3    H137118   0.696   1.779  11.540  0.0357 -0.2363 -0.3983
 5209TIP3    H237119   0.546   1.766  11.524  0.2790 -2.6217 -0.9650
 5210TIP3   OH237120   1.770   5.844  12.059 -0.1175 -0.2913  0.4248
 5210TIP3    H137121   1.677   5.824  12.056 -0.0364 -0.6814  0.5169
 5210TIP3    H237122   1.774   5.938  12.081 -0.4580 -0.6589  2.1123
 5211TIP3   OH237123   0.708   6.230   6.436 -0.0570 -0.2748 -0.0092
 5211TIP3    H137124   0.798   6.196   6.445 -0.2601 -1.1613 -1.1629
 5211TIP3    H237125   0.669   6.215   6.522  1.3271  1.4342  0.9577
 5212TIP3   OH237126   2.129   6.716  16.139  0.3251  0.1636 -0.3958
 5212TIP3    H137127   2.208   6.758  16.172  0.4072 -1.5846  1.8243
 5212TIP3    H237128   2.059   6.779  16.157  0.5590 -0.2216  2.1643
 5213TIP3   OH237129   3.733   1.000   2.510  0.0775 -0.3652  0.2015
 5213TIP3    H137130   3.681   0.967   2.584 -0.7793 -0.1289 -0.2843
 5213TIP3    H237131   3.674   0.993   2.435  1.3684 -1.7963 -0.7037
 5214TIP3   OH237132   2.079   4.439   1.792 -0.2091  0.6647  0.1114
 5214TIP3    H137133   2.061   4.478   1.878  0.8080  0.4656  0.4269
 5214TIP3    H237134   1.993   4.416   1.757 -0.6797  1.3683  0.7860
 5215TIP3   OH237135   2.279   6.723  15.211 -0.0929  0.0618 -0.4528
 5215TIP3    H137136   2.193   6.755  15.184  0.1036  1.0353  0.0501
 5215TIP3    H237137   2.277   6.725  15.307  0.7611  0.8260 -0.4468
 5216TIP3   OH237138   1.074   0.035   5.196  0.5721  0.1226  0.4084
 5216TIP3    H137139   1.110  -0.036   5.250  1.0721  0.8422  1.0320
 5216TIP3    H237140   1.093   0.009   5.106  0.3727 -0.7452  0.6131
 5217TIP3   OH237141   3.365   0.291  13.173 -0.1818  0.1728  0.0914
 5217TIP3    H137142   3.425   0.333  13.234 -0.4172 -0.3609  0.6906
 5217TIP3    H237143   3.329   0.216  13.221 -1.1041  0.3166 -0.3604
 5218TIP3   OH237144   0.657   3.216  12.373 -0.5769 -0.3161 -0.1904
 5218TIP3    H137145   0.693   3.150  12.313  0.0355 -0.2032  0.0485
 5218TIP3    H237146   0.601   3.271  12.318  0.3850  0.0977 -0.7723
 5219TIP3   OH237147   5.524   2.019   0.085  0.5912  0.4300 -0.4281
 5219TIP3    H137148   5.581   2.094   0.067  2.7482 -0.7061  1.3729
 5219TIP3    H237149   5.510   2.021   0.179 -1.2274 -0.1242 -0.6808
 5220TIP3   OH237150   4.090   1.039   0.128 -0.3677  0.4579  0.1895
 5220TIP3    H137151   4.126   1.004   0.047  0.5337 -0.1587  0.8414
 5220TIP3    H237152   4.059   1.127   0.105 -0.8414 -0.0092 -0.9945
 5221TIP3   OH237153   1.406   1.830   3.020  0.2569  0.3673  0.4613
 5221TIP3    H137154   1.448   1.905   3.063 -0.4501  0.1838  1.4919
 5221TIP3    H237155   1.313   1.840   3.042 -0.0539  0.0465 -0.7012
 5222TIP3   OH237156   4.642   6.782   2.009 -0.8936  0.1625 -0.6644
 5222TIP3    H137157   4.661   6.794   1.916 -1.0891 -2.9391 -1.1513
 5222TIP3    H237158   4.575   6.714   2.012 -0.6439 -0.0281  1.7593
 5223TIP3   OH237159   6.201   2.571  12.031 -0.0823  0.4385 -0.5977
 5223TIP3    H137160   6.292   2.546  12.050 -0.1378  1.3525  0.9685
 5223TIP3    H237161   6.183   2.642  12.092 -1.8700  0.2271 -0.8621
 5224TIP3   OH237162   1.308   2.998  12.078  0.3120  0.1406 -0.2190
 5224TIP3    H137163   1.399   2.973  12.061  0.3937  0.1766  0.1490
 5224TIP3    H237164   1.309   3.029  12.169 -0.0636  0.1562 -0.2205
 5225TIP3   OH237165   1.603   3.449  15.947  0.2524 -0.2465  0.0875
 5225TIP3    H137166   1.655   3.452  16.027 -0.4750 -1.0856  0.5994
 5225TIP3    H237167   1.565   3.536  15.940 -1.4379 -0.8105  1.8473
 5226TIP3   OH237168   0.208   3.920  11.576  0.2907  0.1700 -0.1171
 5226TIP3    H137169   0.218   4.015  11.570  1.0947  0.0807 -0.1771
 5226TIP3    H237170   0.254   3.887  11.499 -0.8182 -0.2175 -0.6320
 5227TIP3   OH237171   0.117   4.969   6.284 -0.2662  0.7720 -0.4457
 5227TIP3    H137172   0.096   4.878   6.262 -2.0086  1.0101  0.1353
 5227TIP3    H237173   0.174   4.963   6.361  0.9853  0.1356 -1.3978
 5228TIP3   OH237174   2.515   2.646  16.266 -0.1468  0.3774 -0.2857
 5228TIP3    H137175   2.555   2.665  16.182 -0.3093  1.4079 -0.1389
 5228TIP3    H237176   2.436   2.700  16.267 -0.5264 -0.1851  0.2212
 5229TIP3   OH237177   5.236   1.841  12.778  0.2531 -0.2134  0.1274
 5229TIP3    H137178   5.238   1.777  12.707 -0.8234 -0.1639  0.0321
 5229TIP3    H237179   5.264   1.792  12.855 -2.9035 -1.5159  0.5507
 5230TIP3   OH237180   0.952   5.684  12.526 -0.2409 -0.4597 -0.0181
 5230TIP3    H137181   0.998   5.614  12.573 -0.2255 -0.4256  0.0167
 5230TIP3    H237182   0.868   5.692  12.570  0.7694  1.3394  1.6608
 5231TIP3   OH237183   5.279   1.254  13.604  0.0097 -0.4129  0.3303
 5231TIP3    H137184   5.217   1.241  13.676  0.7293 -0.0697  1.0166
 5231TIP3    H237185   5.226   1.241  13.525 -0.9436 -0.1093  0.9006
 5232TIP3   OH237186   6.492   3.839  15.486 -0.6490  0.1016 -0.0615
 5232TIP3    H137187   6.414   3.827  15.541 -0.0346  4.0878  1.9216
 5232TIP3    H237188   6.461   3.892  15.412 -0.2397 -0.0371 -0.3303
 5233TIP3   OH237189   3.997   4.617   0.314 -0.1202 -0.0316  0.1298
 5233TIP3    H137190   4.058   4.553   0.349 -0.2125 -0.3752 -0.3299
 5233TIP3    H237191   4.049   4.671   0.255  0.2512  1.1739  1.5453
 5234TIP3   OH237192   6.133   0.725   2.286 -0.0513  0.2422 -0.1273
 5234TIP3    H137193   6.176   0.763   2.209 -1.1166  0.2654 -0.7146
 5234TIP3    H237194   6.043   0.709   2.258 -0.6650  0.9845  1.3609
 5235TIP3   OH237195   5.260   5.749  15.886 -0.4656 -0.2185 -0.9310
 5235TIP3    H137196   5.337   5.797  15.855  1.3046 -0.6361  2.5527
 5235TIP3    H237197   5.187   5.809  15.873  0.6621  0.7883 -2.8738
 5236TIP3   OH237198   3.665   2.877  16.779 -0.5184  0.1489  0.1897
 5236TIP3    H137199   3.753   2.844  16.796 -0.4752 -0.1266 -0.5347
 5236TIP3    H237200   3.669   2.969  16.805 -0.2421 -0.0661  0.9015
 5237TIP3   OH237201   6.419   4.081  11.486 -0.0749 -0.1697 -1.8998
 5237TIP3    H137202   6.395   4.160  11.437 -0.8107 -0.3963 -1.9120
 5237TIP3    H237203   6.368   4.088  11.567  0.4038 -0.2774 -1.5894
 5238TIP3   OH237204   2.226   3.635   1.872 -0.3950  0.6981 -0.2491
 5238TIP3    H137205   2.321   3.623   1.879 -0.8349 -2.0771  2.1113
 5238TIP3    H237206   2.203   3.683   1.953 -1.0392  1.2657 -0.7635
 5239TIP3   OH237207   1.182   1.117   0.946  0.5504 -0.2752  0.6078
 5239TIP3    H137208   1.179   1.204   0.985 -0.8815 -0.0086 -0.0587
 5239TIP3    H237209   1.174   1.057   1.020 -0.6881  0.2081  0.8805
 5240TIP3   OH237210   4.940   0.996  11.309 -0.1540 -0.2745  0.1568
 5240TIP3    H137211   4.989   1.077  11.291 -0.2832  0.1091  1.4222
 5240TIP3    H237212   4.987   0.928  11.261  1.4916  0.1353  1.1355
 5241TIP3   OH237213   6.397   5.038   1.037 -0.2817  0.2911  0.1135
 5241TIP3    H137214   6.482   4.993   1.037 -0.6229 -0.3456 -0.4468
 5241TIP3    H237215   6.377   5.052   0.945 -0.9196  0.2007  0.2403
 5242TIP3   OH237216   5.980   2.725  14.790  0.1470 -0.5668  0.5737
 5242TIP3    H137217   5.996   2.687  14.877  1.6882 -0.5440  0.3168
 5242TIP3    H237218   6.025   2.810  14.793 -2.4689  0.8571  0.8230
 5243TIP3   OH237219   2.245   4.775  16.937  0.1907 -0.0878  0.0427
 5243TIP3    H137220   2.315   4.746  16.996  1.1225  2.2211  0.1395
 5243TIP3    H237221   2.288   4.786  16.852  0.4061  3.0510  0.5026
 5244TIP3   OH237222   6.464   3.105  13.591 -0.3650 -0.1985  0.3367
 5244TIP3    H137223   6.437   3.014  13.581 -1.4635  0.0772  0.7331
 5244TIP3    H237224   6.427   3.132  13.675  0.5900  0.3901  0.5760
 5245TIP3   OH237225   3.553   1.603   6.556 -0.1248  0.0384  0.2443
 5245TIP3    H137226   3.567   1.582   6.464  0.6794  0.8167  0.1802
 5245TIP3    H237227   3.458   1.618   6.563 -0.0228  1.2401 -0.7385
 5246TIP3   OH237228   3.749   6.348   1.742  0.2451  0.0719 -0.1677
 5246TIP3    H137229   3.720   6.433   1.707 -2.0165 -0.6902 -0.2691
 5246TIP3    H237230   3.779   6.299   1.666 -1.1498 -0.2331 -0.5352
 5247TIP3   OH237231   3.590   5.371  14.313  0.4528  0.5093 -0.0333
 5247TIP3    H137232   3.654   5.334  14.373  1.4149 -0.4605 -1.5918
 5247TIP3    H237233   3.540   5.295  14.282 -0.8853  1.1459  0.4931
 5248TIP3   OH237234   6.057   0.789  14.942  0.8760 -0.8352  0.1820
 5248TIP3    H137235   5.972   0.762  14.976  0.7686 -0.6634  0.0531
 5248TIP3    H237236   6.099   0.708  14.916 -0.0183 -0.7721 -1.5348
 5249TIP3   OH237237   3.914   5.125  14.691 -0.2447 -0.1958  0.0766
 5249TIP3    H137238   3.912   5.046  14.637  0.5444 -1.4747  1.8667
 5249TIP3    H237239   3.968   5.187  14.642  0.1213 -1.1904 -0.7872
 5250TIP3   OH237240   5.245   1.788   4.216  0.5151  0.0536 -0.6843
 5250TIP3    H137241   5.338   1.768   4.216  0.8857  1.6786  0.5346
 5250TIP3    H237242   5.239   1.875   4.177 -0.4174  0.2632 -0.0911
 5251TIP3   OH237243   5.500   1.226   5.542  0.5317  0.3363  0.0605
 5251TIP3    H137244   5.412   1.232   5.505  1.0331 -0.7024 -1.3321
 5251TIP3    H237245   5.505   1.300   5.603 -0.6471  1.5168 -1.2328
 5252TIP3   OH237246   0.128   3.150   3.195  0.1187  0.3678 -0.1206
 5252TIP3    H137247   0.179   3.230   3.204 -0.3359  0.5559  0.9108
 5252TIP3    H237248   0.048   3.167   3.245  0.1787 -0.8496  0.4080
 5253TIP3   OH237249   3.742   1.707   5.066 -0.8065 -0.0386  0.2462
 5253TIP3    H137250   3.709   1.632   5.017 -2.4919 -0.3006  1.7796
 5253TIP3    H237251   3.679   1.777   5.048 -0.1293  0.5554  0.1480
 5254TIP3   OH237252   4.458   3.477   2.567 -0.1547 -0.0155  0.9964
 5254TIP3    H137253   4.551   3.453   2.573 -0.3898 -0.9956  0.7933
 5254TIP3    H237254   4.441   3.485   2.473 -0.4728 -0.6784  0.9888
 5255TIP3   OH237255   6.778   6.762   4.357  0.3523 -0.3027 -0.3504
 5255TIP3    H137256   6.766   6.757   4.452  0.6109  0.6765 -0.2632
 5255TIP3    H237257   6.851   6.703   4.339 -0.0726 -0.9367 -0.0157
 5256TIP3   OH237258   0.637   4.071   2.756  0.2418  0.0116 -0.5258
 5256TIP3    H137259   0.621   4.047   2.847  0.3218  1.4945 -0.1084
 5256TIP3    H237260   0.550   4.079   2.717  0.1081  1.5542  0.0218
 5257TIP3   OH237261   5.692   1.606   1.841  0.2222  0.5172  0.2820
 5257TIP3    H137262   5.745   1.552   1.900  0.2503  0.6929  0.4183
 5257TIP3    H237263   5.682   1.689   1.888 -1.3183  0.0155  0.8642
 5258TIP3   OH237264   3.167   3.652  15.235 -0.6027  0.3503  0.0260
 5258TIP3    H137265   3.160   3.698  15.318  0.9846  0.1722  0.2902
 5258TIP3    H237266   3.157   3.719  15.168  0.2791  0.8508  0.3919
 5259TIP3   OH237267   3.953   2.154  14.189  0.0723  0.5992  0.0544
 5259TIP3    H137268   3.899   2.188  14.117 -0.4671  0.2577  0.2971
 5259TIP3    H237269   4.007   2.086  14.148 -0.6388  0.0118  0.0826
 5260TIP3   OH237270   1.508   0.509  15.104  0.5820  0.0511  0.4276
 5260TIP3    H137271   1.586   0.549  15.142  0.9658 -1.4388  1.2770
 5260TIP3    H237272   1.495   0.555  15.021  2.7267 -0.0841 -0.0162
 5261TIP3   OH237273   3.372   0.083  14.689  0.2489 -0.0165  0.2079
 5261TIP3    H137274   3.455   0.110  14.650 -0.6429 -0.1292 -1.8149
 5261TIP3    H237275   3.381  -0.012  14.701  0.2848 -0.0844 -0.3389
 5262TIP3   OH237276   6.444   3.923  13.613 -0.3245 -0.5560  0.3877
 5262TIP3    H137277   6.533   3.891  13.627 -0.4247 -1.2606 -0.5625
 5262TIP3    H237278   6.437   3.935  13.519 -1.2477 -0.5169  0.4560
 5263TIP3   OH237279   0.075   2.056   2.037  0.3954 -0.4720  0.1657
 5263TIP3    H137280   0.147   2.107   2.074 -0.3565  0.9251 -0.2523
 5263TIP3    H237281   0.113   2.012   1.960  0.7290  0.4644 -0.2061
 5264TIP3   OH237282   3.392   4.383   6.248  0.8208  0.4362  0.0022
 5264TIP3    H137283   3.330   4.452   6.224  0.3030  0.0853  0.3070
 5264TIP3    H237284   3.372   4.364   6.340  0.1089 -0.9773 -0.4170
 5265TIP3   OH237285   2.996   0.082  16.162 -0.4479  0.4889  0.0987
 5265TIP3    H137286   2.950   0.001  16.139 -0.8717  0.4440  1.1124
 5265TIP3    H237287   3.049   0.101  16.084 -1.2615 -0.0972 -0.6098
 5266TIP3   OH237288   3.945   3.332   3.126  0.6243 -0.5645 -0.0655
 5266TIP3    H137289   3.988   3.247   3.125  1.3844 -0.1808 -0.7074
 5266TIP3    H237290   4.014   3.394   3.148  1.2197  0.4520 -4.2713
 5267TIP3   OH237291   0.379   1.778  16.433 -0.5738  0.4283 -0.5593
 5267TIP3    H137292   0.416   1.865  16.417  0.7651 -0.8662 -5.1409
 5267TIP3    H237293   0.295   1.779  16.386 -1.0857 -0.4061  0.3239
 5268TIP3   OH237294   0.031   6.454  15.177  0.2759  0.1559 -0.0218
 5268TIP3    H137295   0.109   6.407  15.148  0.2903  0.5459 -0.6148
 5268TIP3    H237296  -0.007   6.489  15.097 -1.0060 -0.8036  0.1517
 5269TIP3   OH237297   0.830   2.698   3.996  0.6112  0.4026  0.2755
 5269TIP3    H137298   0.862   2.668   4.081  2.4552 -0.0109 -0.5622
 5269TIP3    H237299   0.908   2.726   3.948 -0.4597  1.1260 -1.1063
 5270TIP3   OH237300   2.047   4.455  12.690  0.6355  0.3025 -0.2718
 5270TIP3    H137301   2.031   4.362  12.706  0.2534  0.3866 -0.1679
 5270TIP3    H237302   2.126   4.457  12.635 -0.2980 -0.1527 -1.6371
 5271TIP3   OH237303   3.890   4.377  13.981 -0.1027 -0.0713  0.4671
 5271TIP3    H137304   3.923   4.432  13.909  1.2051 -0.5141  0.7226
 5271TIP3    H237305   3.801   4.408  13.995 -0.3706  0.0342 -1.3470
 5272TIP3   OH237306   0.384   1.923  12.534 -0.1453  0.2936 -1.0039
 5272TIP3    H137307   0.328   1.953  12.462 -0.9670  0.8753 -0.1269
 5272TIP3    H237308   0.421   2.003  12.571 -0.6838  0.0903 -0.0084
 5273TIP3   OH237309   3.731   0.448   4.142 -0.5322  0.5424 -0.1915
 5273TIP3    H137310   3.773   0.534   4.142 -0.5672  0.5616 -1.0258
 5273TIP3    H237311   3.637   0.467   4.135 -0.4478  0.4043 -1.9143
 5274TIP3   OH237312   5.391   4.606  10.804  0.0682 -0.2291 -0.2013
 5274TIP3    H137313   5.430   4.562  10.728 -0.6342 -0.4937 -0.4074
 5274TIP3    H237314   5.354   4.686  10.769  1.2874  0.5151  0.1657
 5275TIP3   OH237315   3.690   5.642   5.220 -0.2060  0.4223 -0.3292
 5275TIP3    H137316   3.657   5.730   5.239  3.0029  1.4016  1.0049
 5275TIP3    H237317   3.613   5.585   5.228 -1.9460  2.8518  0.7308
 5276TIP3   OH237318   1.730   2.454   0.065 -0.0489 -0.5399 -0.0605
 5276TIP3    H137319   1.770   2.373   0.033 -0.2560 -1.1433  1.2012
 5276TIP3    H237320   1.641   2.429   0.089 -0.4883  0.3202 -0.7465
 5277TIP3   OH237321   5.836   3.445   4.946 -0.4442 -0.2905  0.0665
 5277TIP3    H137322   5.803   3.526   4.908  2.9941  0.1497 -2.2627
 5277TIP3    H237323   5.804   3.377   4.887 -1.4358 -0.4139  0.7357
 5278TIP3   OH237324   0.116   1.552  11.147 -0.3468  0.2537 -0.0527
 5278TIP3    H137325   0.168   1.631  11.164 -2.1219  1.4760 -0.1451
 5278TIP3    H237326   0.077   1.530  11.232  1.1191 -1.2720  0.2501
 5279TIP3   OH237327   3.545   2.773   4.174 -0.3140 -0.1420  0.3398
 5279TIP3    H137328   3.588   2.764   4.259 -3.4763  0.4616  2.0808
 5279TIP3    H237329   3.471   2.713   4.177 -2.1980  2.0149 -0.8042
 5280TIP3   OH237330   4.815   2.376  15.973 -0.0028  0.0368 -0.6839
 5280TIP3    H137331   4.787   2.462  15.943 -0.5867  0.0016 -0.2487
 5280TIP3    H237332   4.735   2.323  15.969  0.4443 -0.5973 -1.3702
 5281TIP3   OH237333   2.463   1.397   0.066 -0.0716 -0.2751 -0.1095
 5281TIP3    H137334   2.432   1.429   0.151  0.7612 -1.5530  0.7036
 5281TIP3    H237335   2.451   1.302   0.071 -2.1085 -0.1644 -2.3130
 5282TIP3   OH237336   6.273   2.227   5.983 -0.2685  0.4823  0.3460
 5282TIP3    H137337   6.323   2.264   6.056 -0.6872  0.7300  0.5078
 5282TIP3    H237338   6.219   2.158   6.023  0.5427 -0.3399  0.0379
 5283TIP3   OH237339   6.566   0.205   1.439  0.1504 -0.3899 -0.2191
 5283TIP3    H137340   6.588   0.278   1.496  0.7783  0.7042 -1.8448
 5283TIP3    H237341   6.471   0.211   1.428  0.1499 -0.0509 -0.0295
 5284TIP3   OH237342   1.618   3.346   4.173 -0.3423 -0.0284  0.4722
 5284TIP3    H137343   1.539   3.399   4.180 -0.1256  0.0111  3.1090
 5284TIP3    H237344   1.689   3.407   4.191  0.1272 -0.5657  0.4365
 5285TIP3   OH237345   2.414   6.040   4.372  0.3435 -0.1648  0.0181
 5285TIP3    H137346   2.444   6.057   4.282  0.1611  3.4252  0.5645
 5285TIP3    H237347   2.341   6.101   4.384  0.2874 -0.7117  2.5685
 5286TIP3   OH237348   5.709   2.578   6.344 -0.6993  0.0694  0.4070
 5286TIP3    H137349   5.709   2.490   6.306  0.4765  0.0820  0.3558
 5286TIP3    H237350   5.791   2.583   6.394 -0.7178  1.1515  0.3477
 5287TIP3   OH237351   5.809   4.213   5.358 -0.3661  0.4150  0.1144
 5287TIP3    H137352   5.761   4.272   5.416  0.1678  0.8798  0.0797
 5287TIP3    H237353   5.866   4.163   5.417 -1.7779 -1.0275  0.3150
 5288TIP3   OH237354   0.995   2.816   4.466  0.6034 -0.0664  0.3622
 5288TIP3    H137355   1.034   2.903   4.463 -0.7284  0.5398  0.4344
 5288TIP3    H237356   0.913   2.828   4.513  0.5601 -1.4234  0.6600
 5289TIP3   OH237357   6.572   6.056   1.492  0.5287  0.0069 -0.1543
 5289TIP3    H137358   6.599   6.105   1.569 -0.8481 -0.0842  0.3978
 5289TIP3    H237359   6.542   6.123   1.430 -1.0655 -0.1045  0.4847
 5290TIP3   OH237360   4.882   5.673  16.485 -0.3059  0.3106 -0.6537
 5290TIP3    H137361   4.916   5.685  16.396  0.6773  2.3408 -0.0451
 5290TIP3    H237362   4.820   5.745  16.496 -0.7857 -0.2223  0.1487
 5291TIP3   OH237363   4.785   2.946  12.423  0.5896  0.1658  0.0360
 5291TIP3    H137364   4.704   2.986  12.393  0.2610 -1.3595 -1.1512
 5291TIP3    H237365   4.853   3.010  12.402 -0.2196  1.1444  0.3901
 5292TIP3   OH237366   6.452   3.051  14.242  0.4747 -0.2643  0.0920
 5292TIP3    H137367   6.383   2.990  14.217  0.2279  0.6573 -1.5317
 5292TIP3    H237368   6.533   3.005  14.220  0.2762  0.1940 -1.6434
 5293TIP3   OH237369   5.323   5.148  13.835 -0.0796  0.1354 -0.0026
 5293TIP3    H137370   5.286   5.060  13.825 -0.3087  0.0991  1.1216
 5293TIP3    H237371   5.418   5.135  13.836 -0.0715  0.0611 -1.2972
 5294TIP3   OH237372   3.226   6.061  16.108  0.0568  0.1198 -0.2727
 5294TIP3    H137373   3.240   5.987  16.168 -2.4044  0.0506  0.2554
 5294TIP3    H237374   3.197   6.133  16.164  1.0118  1.0686 -0.9758
 5295TIP3   OH237375   4.127   2.625  12.404  0.1258  0.3713  0.0037
 5295TIP3    H137376   4.082   2.541  12.414  0.9500  0.1569  2.0613
 5295TIP3    H237377   4.089   2.662  12.325 -0.7339 -1.6387 -0.5720
 5296TIP3   OH237378   6.083   3.792  13.552 -0.2188  0.2568  0.9608
 5296TIP3    H137379   6.128   3.847  13.488 -0.3155  1.8722  2.2379
 5296TIP3    H237380   6.141   3.718  13.566 -0.5125 -0.4870 -1.4908
 5297TIP3   OH237381   4.276   1.529   1.046  0.4083 -0.0099  0.7217
 5297TIP3    H137382   4.357   1.549   0.998  0.3307 -0.3312  0.4543
 5297TIP3    H237383   4.257   1.438   1.023 -0.4390  0.3018  0.1730
 5298TIP3   OH237384   4.689   3.368   3.786 -0.3944  0.2685  0.0176
 5298TIP3    H137385   4.781   3.384   3.764  0.3110 -1.6159  1.5154
 5298TIP3    H237386   4.663   3.447   3.833  0.5845  0.6360 -0.0296
 5299TIP3   OH237387   0.136   5.105   4.771  0.2316 -0.0250 -0.1765
 5299TIP3    H137388   0.054   5.141   4.737  0.0160 -0.2798  0.0738
 5299TIP3    H237389   0.112   5.018   4.805  0.6366 -0.1704 -0.2577
 5300TIP3   OH237390   6.112   5.505   1.119  0.6170  0.1294  0.1737
 5300TIP3    H137391   6.105   5.592   1.158  2.3278  0.5069 -0.3317
 5300TIP3    H237392   6.187   5.511   1.060  0.1349 -1.4063 -0.6142
 5301TIP3   OH237393   3.125   0.623  13.402  0.1591 -0.3677 -0.7365
 5301TIP3    H137394   3.088   0.697  13.449 -0.6534 -0.6788 -0.8782
 5301TIP3    H237395   3.073   0.616  13.322 -0.0354 -1.3336 -0.5336
 5302TIP3   OH237396   4.026   1.957  10.810  0.6123  0.3951  0.1047
 5302TIP3    H137397   3.986   1.955  10.897  0.5307 -1.2758  0.0425
 5302TIP3    H237398   3.955   1.979  10.751 -0.3275 -2.8557 -0.0411
 5303TIP3   OH237399   2.857   0.361   4.272  0.2145 -0.2683  0.3769
 5303TIP3    H137400   2.796   0.293   4.300  0.1148 -0.6605 -0.7762
 5303TIP3    H237401   2.939   0.341   4.319  0.2784 -1.3634 -0.1895
 5304TIP3   OH237402   2.743   4.634   0.010  0.1878  0.3288 -0.6184
 5304TIP3    H137403   2.767   4.616   0.101  2.0408  0.9687 -0.9729
 5304TIP3    H237404   2.799   4.577  -0.042 -1.1506 -0.3254 -1.3545
 5305TIP3   OH237405   6.530   5.910   0.122  0.0547  0.5711  0.3495
 5305TIP3    H137406   6.574   5.975   0.176 -1.1696  0.6896  1.2314
 5305TIP3    H237407   6.539   5.942   0.032 -0.7658  2.1031  0.7937
 5306TIP3   OH237408   1.389   5.857  11.825 -0.3020  0.5492 -0.5944
 5306TIP3    H137409   1.336   5.874  11.747  0.5921  0.3663 -1.2452
 5306TIP3    H237410   1.476   5.888  11.803  0.4765 -1.4085 -0.4446
 5307TIP3   OH237411   5.512   1.292   2.209  0.1526  0.1798  0.2519
 5307TIP3    H137412   5.453   1.227   2.171  0.7315 -0.6729  0.7709
 5307TIP3    H237413   5.499   1.283   2.303  1.1334 -0.0416  0.3682
 5308TIP3   OH237414   5.160   0.630  14.047 -0.0232 -0.3031  0.5852
 5308TIP3    H137415   5.104   0.706  14.031  0.7073 -0.0693 -1.0295
 5308TIP3    H237416   5.106   0.555  14.023 -0.2376 -0.1891  0.7121
 5309TIP3   OH237417   3.610   4.164  16.309  0.4316  0.0484  0.0010
 5309TIP3    H137418   3.677   4.222  16.344 -0.6407  0.6603  1.0751
 5309TIP3    H237419   3.563   4.131  16.386 -0.8239  0.0228 -0.7468
 5310TIP3   OH237420   0.859   6.675  15.666 -0.3376 -0.3278 -0.3589
 5310TIP3    H137421   0.863   6.745  15.601 -0.2468 -1.5714 -1.6904
 5310TIP3    H237422   0.922   6.702  15.733  0.1902  0.5374 -1.1952
 5311TIP3   OH237423   1.403   2.504  12.540 -0.1511 -0.0251  0.2132
 5311TIP3    H137424   1.376   2.527  12.451  0.8430 -2.4835 -0.7837
 5311TIP3    H237425   1.324   2.515  12.593 -0.9972  0.5454 -1.1309
 5312TIP3   OH237426   5.632   2.130  15.348  0.6948 -0.5014  0.1079
 5312TIP3    H137427   5.555   2.072  15.353  0.6794 -0.5611 -0.7263
 5312TIP3    H237428   5.603   2.202  15.292  1.3755 -0.7268 -0.5375
 5313TIP3   OH237429   4.392   5.330   2.472 -0.4459  0.4857 -0.1148
 5313TIP3    H137430   4.318   5.275   2.500  1.3250 -1.8807  0.1010
 5313TIP3    H237431   4.424   5.370   2.553  0.0736 -0.5109  0.1814
 5314TIP3   OH237432   1.255   3.823   0.542  0.1690  0.0096 -0.0417
 5314TIP3    H137433   1.339   3.868   0.535  0.7413 -0.6702  2.2957
 5314TIP3    H237434   1.193   3.883   0.499  1.8945  0.2476 -2.2861
 5315TIP3   OH237435   5.657   3.968   3.713  0.9267 -0.2775 -0.0007
 5315TIP3    H137436   5.741   3.932   3.741  0.6466 -0.6746  0.3287
 5315TIP3    H237437   5.667   3.984   3.620  2.6080  3.0384  0.6609
 5316TIP3   OH237438   1.563   3.564   6.233 -0.2680  0.2321 -0.0974
 5316TIP3    H137439   1.640   3.519   6.267 -1.4420 -1.8208 -0.0513
 5316TIP3    H237440   1.556   3.535   6.142 -0.8908  0.5349 -0.1520
 5317TIP3   OH237441   5.362   4.876  13.227  0.2555  0.3669 -0.2550
 5317TIP3    H137442   5.308   4.825  13.287  0.8498  0.4724  0.3748
 5317TIP3    H237443   5.299   4.917  13.167 -0.3534  0.4050  0.4085
 5318TIP3   OH237444   0.100   5.486   4.970 -0.3717 -0.6353  0.0758
 5318TIP3    H137445   0.096   5.541   5.048  2.1268 -0.2840 -0.0024
 5318TIP3    H237446   0.017   5.501   4.926 -1.4328 -0.1244  2.1810
 5319TIP3   OH237447   4.687   6.240   5.633 -0.7009 -0.5144  0.5662
 5319TIP3    H137448   4.717   6.153   5.661  2.1782  0.2654  0.0684
 5319TIP3    H237449   4.661   6.228   5.541 -1.8024 -1.1896  0.9681
 5320TIP3   OH237450   0.249   1.609  12.269 -0.5042  0.0072  0.7821
 5320TIP3    H137451   0.161   1.643  12.284 -0.7127 -0.5546  0.8706
 5320TIP3    H237452   0.291   1.609  12.355 -0.3413  0.4846  0.7034
 5321TIP3   OH237453   2.930   2.544  12.738  0.5982 -0.3293  0.0728
 5321TIP3    H137454   3.024   2.532  12.751  0.6551 -1.3532 -1.1839
 5321TIP3    H237455   2.911   2.629  12.778  2.1939  0.2407 -0.3219
 5322TIP3   OH237456   0.687   3.571   0.640  0.4803 -0.1081 -0.2941
 5322TIP3    H137457   0.669   3.525   0.559  1.5443 -1.4179  0.1956
 5322TIP3    H237458   0.622   3.539   0.702 -2.3710  3.2249 -1.4290
 5323TIP3   OH237459   4.411   2.478   6.216 -0.1047  0.3010 -0.7943
 5323TIP3    H137460   4.456   2.540   6.273 -1.1306 -0.8485  1.2952
 5323TIP3    H237461   4.324   2.515   6.204 -0.7439 -0.7511  0.5178
 5324TIP3   OH237462   0.987   2.570   4.797  0.5411  0.1110 -0.0675
 5324TIP3    H137463   1.014   2.614   4.877  0.9349 -1.2725  0.5718
 5324TIP3    H237464   0.896   2.545   4.812  1.5099 -2.8827  1.2073
 5325TIP3   OH237465   5.091   0.985  15.525 -0.0960  0.1742 -0.1917
 5325TIP3    H137466   5.109   1.078  15.511 -1.2880  0.6196  1.1571
 5325TIP3    H237467   5.006   0.970  15.484  0.1758 -0.3814 -0.5662
 5326TIP3   OH237468   1.664   4.353   0.580 -0.0237  0.0327  0.5095
 5326TIP3    H137469   1.751   4.315   0.590  0.4786  1.1570  0.5174
 5326TIP3    H237470   1.604   4.283   0.605  0.7582 -1.8067 -2.5332
 5327TIP3   OH237471   4.560   4.749   3.470 -0.1952  0.0128 -0.4830
 5327TIP3    H137472   4.506   4.809   3.419 -0.6376 -1.1614 -1.4080
 5327TIP3    H237473   4.504   4.721   3.542  0.1111  0.9246  0.1204
 5328TIP3   OH237474   1.220   1.032  15.689  0.2079  0.1403 -0.1300
 5328TIP3    H137475   1.293   0.984  15.651  0.2235  0.3351 -0.3499
 5328TIP3    H237476   1.156   0.965  15.714  0.2616  0.0034 -0.3672
 5329TIP3   OH237477   6.798   1.947  12.545 -0.3292  0.3586  0.0152
 5329TIP3    H137478   6.717   1.961  12.593 -1.8210 -0.2464 -2.2414
 5329TIP3    H237479   6.864   1.998  12.593 -1.6918 -0.4092  2.7539
 5330TIP3   OH237480   4.989   3.973  11.791 -0.3013 -0.1712 -0.3524
 5330TIP3    H137481   4.960   3.950  11.703 -2.3635 -0.9765  0.5127
 5330TIP3    H237482   4.958   3.901  11.846  1.3691  0.0944  0.9656
 5331TIP3   OH237483   0.766   6.328   0.731 -0.6774  0.5321 -0.4279
 5331TIP3    H137484   0.724   6.413   0.726 -1.1176  0.2220 -2.5278
 5331TIP3    H237485   0.753   6.289   0.644 -0.7988 -1.8110  0.5820
 5332TIP3   OH237486   2.156   0.140   1.699 -0.0434 -0.0526  0.4290
 5332TIP3    H137487   2.249   0.153   1.720 -0.1906  0.5351  0.7537
 5332TIP3    H237488   2.110   0.197   1.761 -0.5755  0.4616 -0.4252
 5333TIP3   OH237489   0.894   2.935  16.241  0.3958  0.7865 -0.7984
 5333TIP3    H137490   0.988   2.935  16.261  0.2225  1.7775  0.0833
 5333TIP3    H237491   0.889   2.930  16.146  1.3544  1.2391 -0.8784
 5334TIP3   OH237492   5.044   2.492   1.004 -0.4955 -0.3547  0.5611
 5334TIP3    H137493   5.096   2.478   0.925 -0.5090  0.9657  0.3058
 5334TIP3    H237494   5.071   2.422   1.063  0.8957 -0.2413  0.0801
 5335TIP3   OH237495   5.074   5.154   5.086 -0.0436  0.3482  0.2564
 5335TIP3    H137496   5.098   5.062   5.073 -1.2584  0.1632 -0.7986
 5335TIP3    H237497   4.987   5.150   5.127 -0.0345  1.0284  0.3495
 5336TIP3   OH237498   1.587   6.015   5.383  0.6566 -0.0919  0.1917
 5336TIP3    H137499   1.555   5.930   5.412 -0.0288 -0.1626 -0.7297
 5336TIP3    H237500   1.584   6.071   5.461  0.5201 -0.7407  0.6516
 5337TIP3   OH237501   3.237   0.335  15.446 -0.2737 -0.4155 -0.3308
 5337TIP3    H137502   3.243   0.329  15.541 -0.4456 -0.7993 -0.3414
 5337TIP3    H237503   3.285   0.259  15.414  1.6792  0.9106 -0.6147
 5338TIP3   OH237504   5.471   2.587   2.997 -0.6276  0.4455 -0.1183
 5338TIP3    H137505   5.416   2.578   3.074 -0.9787 -1.5975 -0.5838
 5338TIP3    H237506   5.534   2.516   3.003  0.3236  1.1944 -0.9271
 5339TIP3   OH237507   1.633   0.463   1.323  0.2193  0.4180 -0.0113
 5339TIP3    H137508   1.619   0.386   1.377 -0.9020 -0.5070 -1.5778
 5339TIP3    H237509   1.625   0.537   1.383  0.6645 -0.6482  1.3771
 5340TIP3   OH237510   4.215   2.392   4.872 -0.0653 -0.4394  0.2651
 5340TIP3    H137511   4.289   2.359   4.923 -0.7963 -0.6297  1.2094
 5340TIP3    H237512   4.255   2.445   4.803  0.8781  1.9862  2.5578
 5341TIP3   OH237513   1.249   0.554  15.108 -0.1357 -0.3732  0.4413
 5341TIP3    H137514   1.334   0.510  15.109 -0.4525 -0.9760  2.5847
 5341TIP3    H237515   1.270   0.647  15.119  0.2720 -0.4651  0.4549
 5342TIP3   OH237516   1.465   3.076  17.117 -0.4732  0.6577 -0.0959
 5342TIP3    H137517   1.518   3.022  17.059 -0.9227  0.7452 -0.5956
 5342TIP3    H237518   1.528   3.131  17.164 -0.1175  0.6734 -0.5892
 5343TIP3   OH237519   2.464   3.223  16.701 -0.6607  0.4844  0.1322
 5343TIP3    H137520   2.409   3.191  16.772  0.2090  2.5775  1.8184
 5343TIP3    H237521   2.546   3.246  16.743  0.3134  0.5692 -1.7822
 5344TIP3   OH237522   3.843   2.908   3.022  0.4141  0.3797 -0.0421
 5344TIP3    H137523   3.822   2.992   2.981 -1.0686  0.7002  1.3199
 5344TIP3    H237524   3.768   2.852   3.003 -0.2217  0.4803  2.0076
 5345TIP3   OH237525   0.386   4.708   5.908  0.4501  0.4737  0.3162
 5345TIP3    H137526   0.389   4.802   5.892  1.4067  0.5192  0.6794
 5345TIP3    H237527   0.366   4.700   6.002  1.1361  0.3448  0.4611
 5346TIP3   OH237528   6.769   0.327  11.896  0.3713 -0.0016  0.2978
 5346TIP3    H137529   6.798   0.235  11.897 -0.7286 -0.3552  0.8471
 5346TIP3    H237530   6.776   0.354  11.988 -1.2133 -0.1658  0.4850
 5347TIP3   OH237531   1.703   1.710  14.655  0.2130  0.7079 -0.0365
 5347TIP3    H137532   1.777   1.754  14.614  1.2907  0.4652  1.5805
 5347TIP3    H237533   1.730   1.618  14.662  0.1163  0.7658  1.2813
 5348TIP3   OH237534   4.282   4.482  11.424  0.1351 -0.3291 -0.1948
 5348TIP3    H137535   4.320   4.433  11.351  0.8175 -2.3580  1.4847
 5348TIP3    H237536   4.234   4.416  11.474  0.0929  0.9525  1.4638
 5349TIP3   OH237537   1.706   5.082  11.130  0.5181 -0.0488  0.3476
 5349TIP3    H137538   1.749   5.102  11.046 -3.7545  3.1643 -1.2771
 5349TIP3    H237539   1.642   5.014  11.108  0.3131 -0.1748  1.3359
 5350TIP3   OH237540   4.243   2.222  11.488 -0.5052 -0.0051 -0.3522
 5350TIP3    H137541   4.267   2.133  11.512  0.2173  0.1187 -0.5923
 5350TIP3    H237542   4.319   2.275  11.513  0.3585  0.0980 -3.0119
 5351TIP3   OH237543   6.340   1.588  15.185 -0.3328  0.1836 -0.6692
 5351TIP3    H137544   6.406   1.525  15.212  0.8020  0.9212 -1.6782
 5351TIP3    H237545   6.380   1.674  15.202 -1.6853  0.6378  0.2998
 5352TIP3   OH237546   3.155   5.335   3.951  0.6280 -0.0535  0.2659
 5352TIP3    H137547   3.225   5.305   3.893  0.4801 -0.0074  0.0607
 5352TIP3    H237548   3.163   5.280   4.028  1.1582  0.2431  0.4232
 5353TIP3   OH237549   0.599   4.579   0.645  0.0612  0.5300 -0.8562
 5353TIP3    H137550   0.566   4.630   0.572  1.2506  1.9784 -0.3941
 5353TIP3    H237551   0.539   4.598   0.717 -0.4803 -0.0512 -1.1536
 5354TIP3   OH237552   2.296   4.368  15.882  0.0853 -0.4177  0.0131
 5354TIP3    H137553   2.326   4.298  15.940  0.6096  0.6019  0.9937
 5354TIP3    H237554   2.226   4.411  15.931  0.6027  0.5207 -0.0603
 5355TIP3   OH237555   1.487   3.661  12.978 -0.4101 -0.2949  0.5837
 5355TIP3    H137556   1.413   3.605  13.003 -1.5871  1.7021  1.7078
 5355TIP3    H237557   1.457   3.708  12.901 -0.6182  1.0413  1.4511
 5356TIP3   OH237558   2.001   6.328  11.827  0.1164  0.2645  0.1787
 5356TIP3    H137559   2.015   6.357  11.917 -0.2822  1.1351 -0.0432
 5356TIP3    H237560   1.908   6.305  11.823  0.7557 -2.7546  0.8420
 5357TIP3   OH237561   6.276   5.468   5.909 -0.0349 -0.3408 -0.2482
 5357TIP3    H137562   6.189   5.501   5.933 -0.8059 -2.0237 -0.6444
 5357TIP3    H237563   6.267   5.445   5.817  1.3154  0.9631 -0.7250
 5358TIP3   OH237564   1.812   0.526   5.270  0.2031  0.2373 -0.7330
 5358TIP3    H137565   1.723   0.559   5.268  0.6095  1.5625  0.9854
 5358TIP3    H237566   1.836   0.514   5.179 -1.0288  1.8429 -1.2895
 5359TIP3   OH237567   3.704   0.030   2.042  0.4085 -0.7049  0.0074
 5359TIP3    H137568   3.677   0.119   2.019 -0.7247 -0.3779  2.4140
 5359TIP3    H237569   3.630  -0.005   2.093  1.4902 -2.4693  0.4227
 5360TIP3   OH237570   1.101   0.377   2.466  0.4062 -0.0795 -0.6989
 5360TIP3    H137571   1.006   0.388   2.465  0.3467 -0.1972  1.0584
 5360TIP3    H237572   1.115   0.287   2.494  1.0255 -0.0245 -0.8126
 5361TIP3   OH237573   3.922   1.770   1.493 -0.0330  0.1257  0.3064
 5361TIP3    H137574   3.864   1.843   1.472 -1.2061 -1.1423 -0.9472
 5361TIP3    H237575   4.003   1.788   1.444  0.1291  1.1703  0.9406
 5362TIP3   OH237576   2.936   4.394   4.742 -0.1539  0.1537 -0.2887
 5362TIP3    H137577   2.999   4.438   4.686 -1.0058 -0.9453 -2.1861
 5362TIP3    H237578   2.856   4.446   4.734  0.0270  0.6074  0.7856
 5363TIP3   OH237579   0.664   4.064   3.026  0.0068  0.7692  0.1699
 5363TIP3    H137580   0.753   4.092   3.004  0.2250 -0.6834 -0.7860
 5363TIP3    H237581   0.668   4.046   3.120  0.6856  0.8482  0.1620
 5364TIP3   OH237582   2.166   1.994  15.388  0.3064 -0.0469 -0.2773
 5364TIP3    H137583   2.193   2.022  15.301  2.1918  0.8080  0.5561
 5364TIP3    H237584   2.076   2.024  15.397  0.7584  1.6306 -1.1863
 5365TIP3   OH237585   1.463   4.423  12.208 -0.1225 -0.0586  0.5690
 5365TIP3    H137586   1.504   4.467  12.133 -0.9850 -0.7312 -0.3009
 5365TIP3    H237587   1.441   4.494  12.267  2.7690  0.2979  1.3137
 5366TIP3   OH237588   1.585   1.823   5.205  0.0798  0.0130  0.0487
 5366TIP3    H137589   1.512   1.847   5.261  0.8171  0.6366  0.7566
 5366TIP3    H237590   1.659   1.812   5.265  0.5041 -0.8934 -0.6239
 5367TIP3   OH237591   0.431   3.314  14.449  0.0750  0.2291  0.5505
 5367TIP3    H137592   0.341   3.338  14.425  0.4468  0.7713 -0.3043
 5367TIP3    H237593   0.420   3.248  14.518 -0.9742  1.4875  1.6153
 5368TIP3   OH237594   1.735   3.403   1.847 -0.1407  0.0699  0.3706
 5368TIP3    H137595   1.710   3.397   1.755  0.1277  0.2672  0.2827
 5368TIP3    H237596   1.830   3.416   1.845 -0.2899  1.3161  0.6270
 5369TIP3   OH237597   4.248   6.023  11.524 -0.4228  0.6848 -0.3197
 5369TIP3    H137598   4.273   6.061  11.440  1.3875  0.2077 -0.0221
 5369TIP3    H237599   4.252   5.928  11.510 -0.7537  0.6053  0.1100
 5370TIP3   OH237600   4.242   0.918  17.224  0.0029 -0.0795  0.1401
 5370TIP3    H137601   4.254   0.912  17.130 -1.1897 -1.9742  0.1073
 5370TIP3    H237602   4.313   0.977  17.253  1.8123 -1.3410 -1.6164
 5371TIP3   OH237603   3.802   1.612  12.164 -0.4871 -0.0785 -0.6268
 5371TIP3    H137604   3.877   1.671  12.159  0.5357 -1.1177  1.4923
 5371TIP3    H237605   3.756   1.639  12.243 -1.0643 -0.8921 -0.6883
 5372TIP3   OH237606   1.737   0.620   1.141  0.1559  0.0607 -0.7940
 5372TIP3    H137607   1.706   0.566   1.213  1.2426 -1.3656 -1.3684
 5372TIP3    H237608   1.805   0.676   1.180 -1.1811  1.2520 -0.1363
 5373TIP3   OH237609   5.427   0.448   2.192  0.0188  0.0563 -0.0859
 5373TIP3    H137610   5.375   0.504   2.250  0.4870  0.1389  0.2634
 5373TIP3    H237611   5.478   0.509   2.140 -0.5809 -0.0129 -0.7609
 5374TIP3   OH237612   6.475   0.627   4.105  0.0318  0.6914  0.1485
 5374TIP3    H137613   6.560   0.592   4.131  0.4436  1.9255  0.5054
 5374TIP3    H237614   6.443   0.673   4.182 -2.0268 -1.6686  0.7694
 5375TIP3   OH237615   5.057   6.606  16.280 -0.4842 -0.2076 -0.5833
 5375TIP3    H137616   4.977   6.622  16.331  0.1284 -1.6761  0.8735
 5375TIP3    H237617   5.116   6.676  16.306  0.1431 -1.4328  1.4703
 5376TIP3   OH237618   3.275   0.024  15.177  0.5479 -0.0510  0.3361
 5376TIP3    H137619   3.238  -0.002  15.262 -0.8221  0.0921 -0.2001
 5376TIP3    H237620   3.215  -0.013  15.112  0.6088  1.3143 -0.5222
 5377TIP3   OH237621   0.592   4.014  11.369  1.1168  0.0455  0.3029
 5377TIP3    H137622   0.687   4.016  11.359  1.1487 -0.6484  0.4176
 5377TIP3    H237623   0.560   4.088  11.318  1.6039 -0.6609 -1.0398
 5378TIP3   OH237624   4.903   2.462  14.823  0.1419 -0.4325  0.3631
 5378TIP3    H137625   4.963   2.536  14.827  1.3501 -1.4506  1.0277
 5378TIP3    H237626   4.842   2.486  14.752  0.6390  1.0874  0.4204
 5379TIP3   OH237627   5.037   3.758   2.167 -0.0119  0.2621 -0.0480
 5379TIP3    H137628   5.035   3.725   2.077  1.2873  0.2223 -0.0694
 5379TIP3    H237629   5.055   3.681   2.221 -2.2986  0.0078  0.4147
 5380TIP3   OH237630   4.415   5.823  15.232  0.1150 -0.2496 -0.1892
 5380TIP3    H137631   4.491   5.844  15.287 -0.5345 -1.9397  1.3857
 5380TIP3    H237632   4.453   5.782  15.154  1.0172  1.8125 -0.8686
 5381TIP3   OH237633   0.285   6.711   0.007  0.2903  0.2000 -0.8198
 5381TIP3    H137634   0.325   6.630   0.039 -0.8386  0.7335  2.0930
 5381TIP3    H237635   0.286   6.770   0.083  0.4190  2.6855 -2.6659
 5382TIP3   OH237636   0.623   3.142  15.649 -0.1712  0.3195  0.4483
 5382TIP3    H137637   0.672   3.064  15.674 -0.6638  0.4921  2.0203
 5382TIP3    H237638   0.607   3.131  15.555  0.7074 -0.9337  0.4298
 5383TIP3   OH237639   1.223   3.510   2.408 -0.0687  0.5720  0.6633
 5383TIP3    H137640   1.238   3.477   2.320  0.8752  0.0190  1.0291
 5383TIP3    H237641   1.141   3.468   2.436 -0.3541  0.7298  0.0676
 5384TIP3   OH237642   6.320   0.555  13.876 -0.3620  0.5015  0.4403
 5384TIP3    H137643   6.300   0.630  13.820 -2.3855 -0.3187  0.0141
 5384TIP3    H237644   6.291   0.479  13.826  0.5941 -0.4865  1.3534
 5385TIP3   OH237645   1.762   6.711  16.426 -0.0739  0.3566 -0.7799
 5385TIP3    H137646   1.694   6.672  16.481  0.6091 -0.9941 -0.8892
 5385TIP3    H237647   1.839   6.656  16.439  0.0379 -0.1651 -3.2743
 5386TIP3   OH237648   6.242   2.428   3.045  0.2940  0.3026 -0.0876
 5386TIP3    H137649   6.275   2.418   3.134 -1.0556  0.5972  0.4626
 5386TIP3    H237650   6.147   2.420   3.054  0.0012  2.2739 -1.2279
 5387TIP3   OH237651   6.212   2.996   3.525 -0.2149  0.2134 -0.8854
 5387TIP3    H137652   6.196   2.919   3.580 -0.1219  0.8359  0.0314
 5387TIP3    H237653   6.306   3.013   3.535 -0.6598  1.8597  0.8339
 5388TIP3   OH237654   3.463   5.229  12.162 -0.4960  0.2492  0.3500
 5388TIP3    H137655   3.386   5.173  12.171 -1.1105  0.7897 -1.4229
 5388TIP3    H237656   3.427   5.316  12.143  0.5572  0.5125 -0.4552
 5389TIP3   OH237657   4.696   3.148   4.106  0.2899  0.1428  0.0423
 5389TIP3    H137658   4.724   3.240   4.111 -0.5485  0.3934  0.2506
 5389TIP3    H237659   4.772   3.098   4.134  1.1465  0.7138 -1.2526
 5390TIP3   OH237660   5.618   2.820  16.403 -0.1938  0.2379  0.6973
 5390TIP3    H137661   5.575   2.902  16.380 -1.0331 -0.3043  0.3143
 5390TIP3    H237662   5.549   2.754  16.396  1.1458 -0.9537 -1.8077
 5391TIP3   OH237663   1.947   4.556   3.799  0.2118  0.9696  0.3173
 5391TIP3    H137664   1.900   4.580   3.878  0.7334  2.4126  0.2059
 5391TIP3    H237665   2.038   4.547   3.826  0.1802  0.1330  0.1484
 5392TIP3   OH237666   1.610   3.573  16.732 -0.6741 -0.1260 -0.0311
 5392TIP3    H137667   1.665   3.516  16.786  0.2779 -0.5830 -1.4621
 5392TIP3    H237668   1.522   3.561  16.768 -0.3582 -1.8317  0.2493
 5393TIP3   OH237669   4.091   2.343   4.311 -0.5073  0.0390 -0.0853
 5393TIP3    H137670   4.059   2.281   4.376  2.0528 -1.1522  0.0821
 5393TIP3    H237671   4.103   2.290   4.231 -0.4161  0.7901 -0.5745
 5394TIP3   OH237672   4.218   4.182   1.799 -0.4736  0.0749  0.6064
 5394TIP3    H137673   4.248   4.271   1.817 -3.0666  0.8781  1.1594
 5394TIP3    H237674   4.283   4.126   1.842  1.7537  1.6489 -0.6353
 5395TIP3   OH237675   6.786   5.964   6.052 -0.2133 -0.4766 -0.5128
 5395TIP3    H137676   6.711   5.942   6.108 -0.8868 -3.0882 -2.3234
 5395TIP3    H237677   6.757   5.939   5.964  2.0947  0.2770 -1.5035
 5396TIP3   OH237678   5.902   6.155   4.894  0.2763  0.0586  0.5929
 5396TIP3    H137679   5.888   6.148   4.800 -0.6965 -0.5708  0.7760
 5396TIP3    H237680   5.997   6.161   4.904  0.3730  0.3422 -0.4325
 5397TIP3   OH237681   6.341   2.633  10.795 -0.1577  0.8653  0.0246
 5397TIP3    H137682   6.314   2.550  10.757 -1.1942  1.6424 -0.9779
 5397TIP3    H237683   6.426   2.652  10.756  0.0860  0.2830  0.2671
 5398TIP3   OH237684   3.751   5.824  13.091 -0.0378  0.3794  0.6055
 5398TIP3    H137685   3.669   5.854  13.131  0.5542  1.7595  0.7962
 5398TIP3    H237686   3.751   5.863  13.004 -1.4099 -2.7638 -0.9003
 5399TIP3   OH237687   4.992   3.724  11.938  0.0518 -0.2598 -0.4308
 5399TIP3    H137688   5.002   3.650  11.997 -1.1365  1.1000  1.5454
 5399TIP3    H237689   4.897   3.729  11.922  0.2223  0.2526 -1.2881
 5400TIP3   OH237690   3.305   5.798   4.801 -0.5378  0.1828  0.2313
 5400TIP3    H137691   3.231   5.858   4.809 -0.6364  0.0244  0.4999
 5400TIP3    H237692   3.269   5.721   4.756 -0.7447 -0.2481  1.1119
 5401TIP3   OH237693   5.464   5.498   3.795 -0.4795  0.5061 -0.7313
 5401TIP3    H137694   5.438   5.411   3.827  0.1172 -0.2018 -2.0920
 5401TIP3    H237695   5.532   5.479   3.730 -1.4464  1.9038 -2.1630
 5402TIP3   OH237696   3.223   6.583   5.452 -0.1553 -0.0719 -0.4896
 5402TIP3    H137697   3.258   6.494   5.458 -1.6594 -0.6098  0.4661
 5402TIP3    H237698   3.280   6.627   5.388 -0.3422 -2.1429 -2.0996
 5403TIP3   OH237699   4.913   4.468  15.843 -0.4945 -0.2905  0.4428
 5403TIP3    H137700   4.911   4.558  15.875 -0.3859 -0.2047  0.2092
 5403TIP3    H237701   5.005   4.445  15.840 -0.3577  0.4057 -1.7435
 5404TIP3   OH237702   4.538   2.591   1.690 -0.1610  0.4110 -0.0747
 5404TIP3    H137703   4.573   2.593   1.779  2.0793  0.5800 -0.9249
 5404TIP3    H237704   4.603   2.639   1.638 -2.1996  1.6479 -1.5386
 5405TIP3   OH237705   6.421   5.620  11.029 -0.1372  0.1115  0.3436
 5405TIP3    H137706   6.437   5.713  11.017  2.5438 -0.5667 -1.9163
 5405TIP3    H237707   6.393   5.589  10.943  2.1343 -1.6954  0.1808
 5406TIP3   OH237708   4.666   0.188  12.401  0.2827 -1.1903  0.0542
 5406TIP3    H137709   4.739   0.133  12.374  1.4554  0.4453 -0.1326
 5406TIP3    H237710   4.662   0.177  12.496  2.4561  0.7292  0.4037
 5407TIP3   OH237711   2.533   0.543   5.020  0.4213  0.1257  0.0022
 5407TIP3    H137712   2.475   0.567   4.947  1.2129 -1.8637 -1.3039
 5407TIP3    H237713   2.522   0.614   5.083 -2.0007  0.7421 -1.0580
 5408TIP3   OH237714   0.174   6.238  10.567 -0.1199 -0.4608  0.1471
 5408TIP3    H137715   0.206   6.325  10.591  0.7331 -1.3640  2.4939
 5408TIP3    H237716   0.253   6.183  10.566 -0.3746 -0.8583 -3.2002
 5409TIP3   OH237717   3.607   5.073  11.943  0.0242  0.5153  0.0427
 5409TIP3    H137718   3.568   5.026  11.870  1.3077 -1.8575  0.8387
 5409TIP3    H237719   3.533   5.115  11.987 -0.9120  0.7997 -1.7666
 5410TIP3   OH237720   0.089   6.041   3.804 -0.5766  0.0272 -0.5308
 5410TIP3    H137721   0.044   6.113   3.760 -0.5484  1.1698  1.2589
 5410TIP3    H237722   0.172   6.078   3.834  0.0570 -1.1335 -0.7939
 5411TIP3   OH237723   5.064   0.920   2.348 -0.3493 -0.2593 -0.2019
 5411TIP3    H137724   5.078   0.900   2.256 -0.5230  1.1421 -0.5430
 5411TIP3    H237725   5.120   0.995   2.366 -1.5342  0.5081  0.4090
 5412TIP3   OH237726   4.800   5.387  12.576 -0.0335  0.6710  0.2820
 5412TIP3    H137727   4.856   5.313  12.599  0.1489  0.9036  0.6005
 5412TIP3    H237728   4.782   5.375  12.483 -1.3831 -0.6729  0.7037
 5413TIP3   OH237729   3.664   6.223   0.662  0.0441  0.5924 -0.3855
 5413TIP3    H137730   3.583   6.177   0.638  0.2229  0.3886 -0.6088
 5413TIP3    H237731   3.661   6.304   0.612 -0.8907  1.4276  0.9910
 5414TIP3   OH237732   0.380   2.646  11.297 -0.2755  0.0489 -0.3014
 5414TIP3    H137733   0.293   2.684  11.312 -0.9286 -1.5974  0.1982
 5414TIP3    H237734   0.408   2.682  11.213 -0.6127  2.0827  0.4218
 5415TIP3   OH237735   0.817   2.060  13.499  0.4784  0.3289 -0.0823
 5415TIP3    H137736   0.760   2.123  13.544  0.0281 -0.3490  0.3100
 5415TIP3    H237737   0.844   1.999  13.568 -0.9941 -1.2790 -0.8842
 5416TIP3   OH237738   1.236   1.100   0.056 -0.6696 -0.3948 -0.3112
 5416TIP3    H137739   1.143   1.114   0.071 -0.4357  0.1249  0.7025
 5416TIP3    H237740   1.280   1.156   0.120  0.3394 -0.5472 -0.8551
 5417TIP3   OH237741   2.995   2.362   0.658  0.1236 -0.0738  0.6788
 5417TIP3    H137742   2.985   2.399   0.570 -0.1391  0.0867  0.7732
 5417TIP3    H237743   2.954   2.275   0.652 -0.8168  0.3484  0.9078
 5418TIP3   OH237744   0.604   0.717   2.094  0.1323 -0.0114 -0.2253
 5418TIP3    H137745   0.678   0.746   2.042 -0.1252 -1.4377 -1.4370
 5418TIP3    H237746   0.630   0.733   2.185  2.1902 -1.0934 -0.6034
 5419TIP3   OH237747   1.505   6.221   3.101  0.0667 -0.5208 -0.1521
 5419TIP3    H137748   1.552   6.253   3.178 -1.1379  0.4954  0.1769
 5419TIP3    H237749   1.527   6.284   3.032 -1.1367  0.2150  0.1171
 5420TIP3   OH237750   0.269   6.470  11.884  0.1082 -0.4626  0.0735
 5420TIP3    H137751   0.338   6.521  11.927  1.9549 -1.9944 -1.0161
 5420TIP3    H237752   0.309   6.386  11.865 -1.9893 -1.2924 -0.8660
 5421TIP3   OH237753   0.187   6.476  12.502 -0.6674  0.4173 -0.1945
 5421TIP3    H137754   0.116   6.467  12.439  0.3593 -1.6304 -1.0882
 5421TIP3    H237755   0.158   6.546  12.561 -2.6826  0.7190 -1.5085
 5422TIP3   OH237756   5.026   4.121   2.717  0.1463 -0.2652  0.2551
 5422TIP3    H137757   5.005   4.190   2.655 -1.7397  0.4201  1.5992
 5422TIP3    H237758   4.951   4.061   2.711  0.5523 -0.8464  0.9307
 5423TIP3   OH237759   6.457   0.796  12.191  0.3792 -0.0323  0.1265
 5423TIP3    H137760   6.507   0.838  12.122  1.4139 -0.2104  0.7581
 5423TIP3    H237761   6.430   0.868  12.248 -1.9149  0.3242 -1.3383
 5424TIP3   OH237762   4.556   6.767  15.202  0.0093  0.0871  0.1975
 5424TIP3    H137763   4.641   6.747  15.241 -0.8227  0.8128  2.4413
 5424TIP3    H237764   4.499   6.696  15.232 -0.3960  0.0785 -0.5772
 5425TIP3   OH237765   5.945   0.263  14.524  0.0996 -0.3424  0.1393
 5425TIP3    H137766   5.923   0.354  14.501  1.2122 -0.5968 -2.0017
 5425TIP3    H237767   5.876   0.211  14.482 -1.3820 -0.4471  2.5747
 5426TIP3   OH237768   1.721   3.342   3.892 -0.4185 -0.0594  0.5172
 5426TIP3    H137769   1.802   3.343   3.943 -0.6876  1.8762  0.9472
 5426TIP3    H237770   1.668   3.273   3.933  0.8219 -1.0451  0.5045
 5427TIP3   OH237771   1.234   5.542   0.452  0.0229 -0.0870 -0.1233
 5427TIP3    H137772   1.139   5.534   0.458  0.0610 -0.6566 -0.1984
 5427TIP3    H237773   1.265   5.451   0.451  0.4186  0.0491 -2.1927
 5428TIP3   OH237774   3.252   4.164   2.909  0.3344 -0.0527  0.7947
 5428TIP3    H137775   3.244   4.234   2.844 -4.5455 -0.4791  0.7423
 5428TIP3    H237776   3.256   4.209   2.993 -2.9158  0.3424  0.7708
 5429TIP3   OH237777   4.274   6.563  13.595 -0.1114 -0.3466  0.0964
 5429TIP3    H137778   4.342   6.516  13.644 -0.6722 -1.4226 -0.1388
 5429TIP3    H237779   4.301   6.655  13.599 -1.0054 -0.1379  3.9369
 5430TIP3   OH237780   3.921   2.039   2.924 -0.2786  0.1071 -0.0308
 5430TIP3    H137781   3.926   2.134   2.919 -0.2479  0.2102  1.5655
 5430TIP3    H237782   3.937   2.019   3.017  1.0767 -1.5460 -0.5920
 5431TIP3   OH237783   5.447   0.229   0.015 -0.0980  0.2023  0.1767
 5431TIP3    H137784   5.427   0.257   0.104  0.5022 -0.0897  0.4087
 5431TIP3    H237785   5.362   0.222  -0.028 -0.3906  0.3496  0.7263
 5432TIP3   OH237786   6.388   6.066   0.438  0.2063  0.6035 -0.0131
 5432TIP3    H137787   6.400   5.972   0.423  1.1652  0.8645 -0.9734
 5432TIP3    H237788   6.301   6.073   0.479 -0.7341 -0.5425 -1.7140
 5433TIP3   OH237789   1.573   1.182   5.252  0.1118  0.1868 -0.4610
 5433TIP3    H137790   1.519   1.189   5.172 -0.2020  0.1844 -0.2504
 5433TIP3    H237791   1.527   1.235   5.317 -1.3510 -2.3534  0.6390
 5434TIP3   OH237792   0.240   0.586  12.213  0.5750  0.0580 -0.5161
 5434TIP3    H137793   0.212   0.664  12.261 -0.8291 -1.1010  0.6040
 5434TIP3    H237794   0.314   0.615  12.161  0.4576  1.9917  0.3574
 5435TIP3   OH237795   4.948   6.469  13.067 -0.1240  0.0023 -0.9951
 5435TIP3    H137796   4.859   6.451  13.036 -0.4927  0.4023 -0.1941
 5435TIP3    H237797   4.950   6.564  13.078 -0.3152 -0.2063  1.0830
 5436TIP3   OH237798   1.425   0.923   6.466 -0.3325 -0.2963  0.2124
 5436TIP3    H137799   1.486   0.950   6.534 -0.6850 -0.4482  0.5871
 5436TIP3    H237800   1.394   0.837   6.493  0.7525 -1.0778 -0.9532
 5437TIP3   OH237801   4.331   6.400  16.623 -0.0948  0.3255 -0.8656
 5437TIP3    H137802   4.244   6.427  16.650 -0.5236 -2.0464  0.1955
 5437TIP3    H237803   4.317   6.348  16.544  0.4169  0.2358 -0.9014
 5438TIP3   OH237804   5.427   6.106  14.299  0.0899 -0.1865 -0.0355
 5438TIP3    H137805   5.458   6.192  14.326  1.2646 -0.4810 -0.3906
 5438TIP3    H237806   5.496   6.073  14.242 -1.3472 -0.4869 -1.6232
 5439TIP3   OH237807   6.158   4.375  14.726 -0.1601 -0.1295  0.3458
 5439TIP3    H137808   6.135   4.334  14.809 -1.1120  0.0162  0.1597
 5439TIP3    H237809   6.112   4.324  14.660 -0.7681  0.7789  0.0561
 5440TIP3   OH237810   6.293   3.930  13.362 -0.1025 -0.3903 -0.7603
 5440TIP3    H137811   6.252   4.015  13.347 -1.4429 -1.3048 -2.5244
 5440TIP3    H237812   6.273   3.880  13.282 -0.2218 -2.6855  0.6786
 5441TIP3   OH237813   3.900   2.304  14.762  0.0978 -0.2620 -0.2977
 5441TIP3    H137814   3.830   2.364  14.738  0.6374 -0.0249 -1.3414
 5441TIP3    H237815   3.903   2.306  14.857 -1.0318  0.0455 -0.2686
 5442TIP3   OH237816   2.777   5.667   2.919  0.2517 -0.7901 -0.3430
 5442TIP3    H137817   2.767   5.572   2.930 -0.7972 -0.4572  1.8275
 5442TIP3    H237818   2.854   5.689   2.971 -1.0875 -0.0859  1.3923
 5443TIP3   OH237819   6.368   3.304  12.705  0.6194  0.6031  0.2881
 5443TIP3    H137820   6.416   3.280  12.784  0.8807  0.5004  0.0982
 5443TIP3    H237821   6.407   3.251  12.636  0.0844  0.3635  0.1735
 5444TIP3   OH237822   4.012   4.255   4.503 -0.5607 -0.2015  0.1539
 5444TIP3    H137823   4.043   4.287   4.587  1.8877 -1.0538 -0.3762
 5444TIP3    H237824   3.974   4.169   4.522 -1.6577  0.3787  0.6399
 5445TIP3   OH237825   6.119   0.974  12.267  0.1964 -0.1881  0.0987
 5445TIP3    H137826   6.137   0.880  12.262  1.2393  0.0487 -0.6833
 5445TIP3    H237827   6.055   0.990  12.197  1.6447  0.0536 -1.1908
 5446TIP3   OH237828   2.145   4.812   2.186  0.1381  0.0883 -0.1456
 5446TIP3    H137829   2.145   4.841   2.277 -0.6963  0.4200 -0.2461
 5446TIP3    H237830   2.054   4.790   2.167  0.8169 -3.0838  0.0667
 5447TIP3   OH237831   1.819   2.834  15.052 -0.3879  0.3605 -0.2829
 5447TIP3    H137832   1.792   2.925  15.061  2.7193  1.1527  2.0539
 5447TIP3    H237833   1.877   2.819  15.127  0.1951 -3.1562 -1.3528
 5448TIP3   OH237834   0.018   5.178  17.189  0.1312  0.0426  0.3086
 5448TIP3    H137835  -0.043   5.240  17.150 -0.0075 -0.1100  0.2782
 5448TIP3    H237836   0.104   5.209  17.163  0.0273 -0.2075 -0.3407
 5449TIP3   OH237837   3.948   3.544  15.390  0.1654  0.0816 -0.0785
 5449TIP3    H137838   4.005   3.470  15.413 -1.1094 -0.9016 -0.0271
 5449TIP3    H237839   3.963   3.608  15.460  0.1508 -0.7543  0.6979
 5450TIP3   OH237840   6.522   5.743   6.183  0.5666  0.5914  0.1871
 5450TIP3    H137841   6.584   5.685   6.138  0.3839  1.1365 -0.7814
 5450TIP3    H237842   6.570   5.824   6.196 -0.0541  1.1520 -0.9172
 5451TIP3   OH237843   0.113   5.687   4.381  0.1037  0.4260  0.3852
 5451TIP3    H137844   0.095   5.672   4.288  1.4399  1.1040 -0.0059
 5451TIP3    H237845   0.174   5.761   4.381 -0.4502  0.8846  1.8462
 5452TIP3   OH237846   6.631   3.889  15.886 -0.7148  0.3003  0.2633
 5452TIP3    H137847   6.719   3.862  15.860 -0.4097  1.3021  0.2574
 5452TIP3    H237848   6.611   3.835  15.962  0.2292  0.6520  0.7690
 5453TIP3   OH237849   4.843   3.914   0.138 -0.2612 -0.0614  0.0140
 5453TIP3    H137850   4.826   3.824   0.164 -1.2322  0.0993 -0.0237
 5453TIP3    H237851   4.932   3.914   0.104  1.0043 -0.3245  3.1251
 5454TIP3   OH237852   2.533   2.697  12.385  0.4253  0.2191 -0.9417
 5454TIP3    H137853   2.613   2.648  12.400  0.5569  0.7248  0.0647
 5454TIP3    H237854   2.536   2.768  12.450 -1.1385 -0.1328 -0.4741
 5455TIP3   OH237855   0.775   2.276   1.824 -0.1798 -0.2610 -0.2586
 5455TIP3    H137856   0.831   2.353   1.832 -1.3897  0.8415 -1.9112
 5455TIP3    H237857   0.826   2.204   1.861  1.2004  1.2191  0.7756
 5456TIP3   OH237858   4.480   6.228   0.814  0.3119  0.0818  0.2219
 5456TIP3    H137859   4.464   6.296   0.749  1.4273 -0.2757 -0.4392
 5456TIP3    H237860   4.575   6.228   0.827  0.0766  0.4260  2.1680
 5457TIP3   OH237861   2.069   2.407   2.181  0.1327  0.0576  0.6943
 5457TIP3    H137862   1.987   2.363   2.205 -0.0817 -0.4303 -0.8782
 5457TIP3    H237863   2.051   2.500   2.197 -0.4478 -0.1316  1.1616
 5458TIP3   OH237864   2.063   0.488  17.259  0.1183  0.0175  0.8031
 5458TIP3    H137865   2.061   0.403  17.216 -0.7656  1.4863 -2.2296
 5458TIP3    H237866   2.147   0.491  17.304 -0.7430 -3.2592  2.7638
 5459TIP3   OH237867   3.593   1.716  16.882 -0.2520  0.0134 -0.5523
 5459TIP3    H137868   3.569   1.801  16.845 -1.0208 -1.2759 -3.0608
 5459TIP3    H237869   3.520   1.694  16.940 -1.4599 -0.2840 -2.1650
 5460TIP3   OH237870   5.383   2.057  12.267 -0.2934 -0.3885  0.7018
 5460TIP3    H137871   5.366   2.032  12.176 -0.4982 -1.4627  1.0281
 5460TIP3    H237872   5.385   2.153  12.266  1.6488 -0.4109 -0.7954
 5461TIP3   OH237873   6.201   5.751   3.626 -0.1110 -0.0468 -0.4091
 5461TIP3    H137874   6.152   5.780   3.549 -1.6585  0.1579  0.6342
 5461TIP3    H237875   6.134   5.726   3.689  1.1561 -1.1473  0.5272
 5462TIP3   OH237876   0.337   5.779  15.473 -0.4689 -0.1888  0.2813
 5462TIP3    H137877   0.264   5.819  15.426 -1.4202  1.7427  3.1950
 5462TIP3    H237878   0.306   5.772  15.564  2.3754 -0.8325  1.2617
 5463TIP3   OH237879   2.201   4.007  12.721 -0.1928 -0.2188 -0.4776
 5463TIP3    H137880   2.283   3.993  12.674 -0.0155 -1.1747  0.1000
 5463TIP3    H237881   2.210   3.955  12.801 -0.6185  1.1630  0.4726
 5464TIP3   OH237882   6.050   0.189   0.294  0.7383  0.3626  0.3808
 5464TIP3    H137883   6.076   0.218   0.382  0.5790  0.7891  0.2925
 5464TIP3    H237884   6.127   0.204   0.240  0.0616  2.4536 -0.0632
 5465TIP3   OH237885   4.196   5.066   4.128 -0.3780 -0.7201 -0.3535
 5465TIP3    H137886   4.203   5.030   4.040  0.7206 -0.8220 -0.2360
 5465TIP3    H237887   4.127   5.016   4.170  0.7851 -2.3580 -0.3563
 5466TIP3   OH237888   4.970   4.647   5.590 -0.1141 -0.0942 -0.8074
 5466TIP3    H137889   4.890   4.605   5.624 -0.0644  0.8048  0.4540
 5466TIP3    H237890   5.040   4.585   5.611 -0.3694 -0.5312 -1.2254
 5467TIP3   OH237891   3.736   5.256   1.540  0.6022  0.1514 -0.3249
 5467TIP3    H137892   3.730   5.168   1.578  3.2463  0.1819  0.2969
 5467TIP3    H237893   3.706   5.315   1.609  0.1561 -0.1596 -0.2499
 5468TIP3   OH237894   0.612   3.004  15.150 -0.7504  0.6584 -0.4750
 5468TIP3    H137895   0.531   2.955  15.142  0.4794 -1.3395 -0.9932
 5468TIP3    H237896   0.641   3.017  15.059  1.2287 -1.6299 -0.2143
 5469TIP3   OH237897   5.348   3.053   4.501  0.7850  0.5968  0.2073
 5469TIP3    H137898   5.400   3.063   4.422 -0.4117  0.8786 -0.5644
 5469TIP3    H237899   5.409   3.068   4.573  1.9183  0.1546 -0.6618
 5470TIP3   OH237900   5.125   6.294  14.249 -0.4836  0.0070  0.0945
 5470TIP3    H137901   5.209   6.328  14.219 -0.7255  0.3750 -0.1628
 5470TIP3    H237902   5.072   6.286  14.169 -0.7096 -0.1782  0.2608
 5471TIP3   OH237903   5.403   2.699  15.201 -0.1814  1.1581  0.1849
 5471TIP3    H137904   5.394   2.630  15.266 -1.4144  0.3884 -0.7755
 5471TIP3    H237905   5.349   2.771  15.235  0.4131  1.3434  0.7579
 5472TIP3   OH237906   4.283   5.378  11.625  0.6613  0.2469 -0.2399
 5472TIP3    H137907   4.193   5.406  11.607  0.5067  0.4402  0.7996
 5472TIP3    H237908   4.278   5.283  11.626  0.9639  0.1538 -2.6195
 5473TIP3   OH237909   1.776   3.765  17.265  0.2698 -0.3016 -0.3471
 5473TIP3    H137910   1.697   3.724  17.229  0.2893  1.2041 -2.2157
 5473TIP3    H237911   1.837   3.692  17.277 -0.7537 -1.2328 -0.6534
 5474TIP3   OH237912   0.381   1.861  14.021 -0.3358  0.9695 -0.1936
 5474TIP3    H137913   0.379   1.955  14.033 -0.1879  1.1054 -1.1915
 5474TIP3    H237914   0.463   1.833  14.061  0.0292  1.3810 -0.6415
 5475TIP3   OH237915   6.047   2.300   0.006 -0.5186 -0.1445 -0.3565
 5475TIP3    H137916   6.044   2.220  -0.048  0.6082 -0.7689  0.4823
 5475TIP3    H237917   6.012   2.368  -0.051  1.9939 -0.4839 -2.4284
 5476TIP3   OH237918   0.940   4.444  11.942 -0.1747  0.6143  0.3654
 5476TIP3    H137919   0.932   4.405  11.855 -0.4932  1.5473 -0.0330
 5476TIP3    H237920   0.955   4.537  11.926  0.2855  0.7152  1.3030
 5477TIP3   OH237921   4.302   5.029   2.944  0.2980 -0.3393  0.0198
 5477TIP3    H137922   4.393   5.038   2.916 -0.2291 -1.1962 -2.0673
 5477TIP3    H237923   4.286   4.934   2.944 -0.7913 -0.1577 -0.2674
 5478TIP3   OH237924   5.384   6.780  11.838 -0.0737  0.1266  0.4870
 5478TIP3    H137925   5.399   6.870  11.864 -0.3112 -0.2455  1.9440
 5478TIP3    H237926   5.470   6.738  11.845 -0.3408 -0.2273  1.7079
 5479TIP3   OH237927   5.829   0.591   2.779 -0.6562 -0.0432  0.4869
 5479TIP3    H137928   5.799   0.682   2.768 -0.6963 -0.1882 -0.6479
 5479TIP3    H237929   5.893   0.579   2.710 -0.8243 -0.9631  0.4950
 5480TIP3   OH237930   2.996   3.877   4.460 -0.2553 -0.1820  0.0147
 5480TIP3    H137931   2.947   3.795   4.469 -0.9979  0.2728  0.1522
 5480TIP3    H237932   3.032   3.894   4.547  0.0545 -0.4527 -0.0577
 5481TIP3   OH237933   4.869   5.807   3.548 -0.0761  0.2035  0.0040
 5481TIP3    H137934   4.847   5.726   3.503  2.4384 -1.0947  1.0212
 5481TIP3    H237935   4.925   5.855   3.487 -0.0215  0.3153  0.1404
 5482TIP3   OH237936   2.297   1.116  11.579  0.8008 -0.0663  0.5947
 5482TIP3    H137937   2.244   1.168  11.518  0.2846 -0.0146  1.0861
 5482TIP3    H237938   2.346   1.182  11.628  1.6329 -0.1282 -0.1323
 5483TIP3   OH237939   1.716   5.452  16.456  0.4004  0.1446 -0.1570
 5483TIP3    H137940   1.803   5.487  16.437  0.9574 -0.9791  0.2622
 5483TIP3    H237941   1.688   5.499  16.535  0.1741  1.2659 -0.9060
 5484TIP3   OH237942   0.775   1.548   4.480 -0.3840 -0.0975  0.2132
 5484TIP3    H137943   0.840   1.589   4.538 -0.8796 -0.4173  1.0124
 5484TIP3    H237944   0.778   1.455   4.504 -2.1868  0.1093  1.2989
 5485TIP3   OH237945   1.475   4.948  13.478  0.4410 -0.3681 -0.2229
 5485TIP3    H137946   1.500   4.955  13.386  1.2995 -1.7799 -0.1107
 5485TIP3    H237947   1.528   5.015  13.522  1.5251 -1.0542 -0.4720
 5486TIP3   OH237948   3.690   6.471   6.160  0.6106 -0.2651  0.2789
 5486TIP3    H137949   3.639   6.405   6.113  3.0551 -1.3334 -0.9608
 5486TIP3    H237950   3.690   6.440   6.251 -0.7295 -0.3635  0.2564
 5487TIP3   OH237951   0.313   3.128  16.477  0.4633 -0.7719  0.2481
 5487TIP3    H137952   0.397   3.145  16.521  0.3133  1.1431 -0.1521
 5487TIP3    H237953   0.333   3.136  16.384 -0.3286  0.5716  0.1809
 5488TIP3   OH237954   4.571   1.561   0.301  0.4975  0.0698 -0.2183
 5488TIP3    H137955   4.542   1.499   0.368 -0.4577  0.6600 -0.0723
 5488TIP3    H237956   4.637   1.513   0.250 -1.4195 -1.6708 -1.1656
 5489TIP3   OH237957   6.798   2.004  16.391  0.0694  0.0415 -0.1540
 5489TIP3    H137958   6.778   1.974  16.480  0.8701  1.7709  0.6420
 5489TIP3    H237959   6.713   2.011  16.348 -0.3803 -0.2706  0.6635
 5490TIP3   OH237960   0.191   4.701   0.498  0.8295 -0.4693 -0.0818
 5490TIP3    H137961   0.189   4.772   0.562  1.1421  0.9401 -1.6031
 5490TIP3    H237962   0.153   4.739   0.419  0.7493 -2.0835 -0.8352
 5491TIP3   OH237963   4.626   6.713  12.815  0.5680 -0.6143  0.2400
 5491TIP3    H137964   4.544   6.680  12.852 -0.0969 -0.8818 -1.4245
 5491TIP3    H237965   4.649   6.649  12.748  1.8623 -0.2492  0.3254
 5492TIP3   OH237966   2.397   4.739  13.475  0.6479 -0.2655  0.3990
 5492TIP3    H137967   2.368   4.819  13.432 -0.5937 -1.6344 -1.4230
 5492TIP3    H237968   2.469   4.707  13.419 -0.6667 -1.8178 -0.4560
 5493TIP3   OH237969   2.012   6.137  11.426  0.5978  0.4656 -0.4180
 5493TIP3    H137970   2.057   6.068  11.376 -0.0365  0.8639 -1.5530
 5493TIP3    H237971   2.078   6.169  11.487  0.8377 -1.3108  0.2884
 5494TIP3   OH237972   4.536   5.897   6.332  0.2274  0.3410  0.1164
 5494TIP3    H137973   4.614   5.917   6.280 -0.2244  1.7775 -0.0092
 5494TIP3    H237974   4.551   5.943   6.415 -0.7909  1.1671 -0.1559
 5495TIP3   OH237975   5.974   2.708   2.887  0.1523 -0.4972 -0.3288
 5495TIP3    H137976   5.931   2.704   2.802  1.4847  0.6015 -1.0644
 5495TIP3    H237977   6.044   2.771   2.876  0.6021 -0.6496  1.4777
 5496TIP3   OH237978   6.730   2.403  12.431 -0.0105  0.4949 -0.3115
 5496TIP3    H137979   6.721   2.311  12.405  3.1676 -0.1431  0.6088
 5496TIP3    H237980   6.774   2.445  12.357  0.4025  0.8080  0.1115
 5497TIP3   OH237981   4.730   6.198  16.719 -0.1098  0.1722 -0.2357
 5497TIP3    H137982   4.773   6.270  16.764  3.1574  0.3014 -3.3976
 5497TIP3    H237983   4.786   6.122  16.736 -0.9578 -0.5995 -0.8383
 5498TIP3   OH237984   4.327   5.825  12.665  0.2989  0.1669  0.4266
 5498TIP3    H137985   4.346   5.746  12.716  2.5437  0.3305 -0.1290
 5498TIP3    H237986   4.333   5.796  12.574 -0.7540  0.5578  0.2296
 5499TIP3   OH237987   0.981   5.374  12.637 -0.2712  0.4404  0.1880
 5499TIP3    H137988   1.059   5.397  12.688 -0.2416  0.2172  0.2468
 5499TIP3    H237989   1.015   5.331  12.559 -0.3412  0.2163  0.2813
 5500TIP3   OH237990   1.814   1.032   5.694  0.2214  0.2867  0.0537
 5500TIP3    H137991   1.890   0.974   5.705  0.4855  0.9224  1.7007
 5500TIP3    H237992   1.739   0.977   5.717  0.4243  0.4083  1.0480
 5501TIP3   OH237993   6.581   5.480  15.573  0.1546 -0.4188  0.2284
 5501TIP3    H137994   6.599   5.561  15.525  0.2013 -1.5057 -1.6484
 5501TIP3    H237995   6.656   5.425  15.555  1.1761 -0.1169  3.3042
 5502TIP3   OH237996   4.932   4.620  16.459  0.0581  0.1498  0.1732
 5502TIP3    H137997   4.945   4.621  16.554  1.1414 -1.5995  0.0678
 5502TIP3    H237998   4.841   4.646  16.447 -0.3599 -0.5405  1.7460
 5503TIP3   OH237999   6.312   1.646  11.633  0.1571 -0.0796 -0.1037
 5503TIP3    H138000   6.290   1.721  11.578  0.0726  0.7302  1.0219
 5503TIP3    H238001   6.404   1.628  11.613  1.7315  3.5930  3.3816
 5504TIP3   OH238002   1.811   0.743  11.775  0.4703  0.3203  0.2323
 5504TIP3    H138003   1.746   0.813  11.768  1.3252  1.2467  1.2312
 5504TIP3    H238004   1.761   0.662  11.772 -0.3178  0.8559 -3.7891
 5505TIP3   OH238005   3.569   0.093  15.149  0.7959 -0.7450 -0.8285
 5505TIP3    H138006   3.474   0.096  15.144  0.7835 -1.1162 -0.8155
 5505TIP3    H238007   3.598   0.174  15.107  0.4746 -0.6254 -0.8188
 5506TIP3   OH238008   2.519   4.420   3.847 -0.4399  0.7150  0.5859
 5506TIP3    H138009   2.467   4.438   3.768 -0.8499  1.0678  0.9332
 5506TIP3    H238010   2.605   4.396   3.814 -0.5734  0.9972  0.0316
 5507TIP3   OH238011   6.105   4.899  13.890 -0.0244 -0.2869 -0.2673
 5507TIP3    H138012   6.115   4.994  13.904  0.8221 -0.7195  2.3018
 5507TIP3    H238013   6.016   4.889  13.858 -0.4384  1.3124  0.2992
 5508TIP3   OH238014   5.689   3.043   2.512  0.0961  0.2772  0.3168
 5508TIP3    H138015   5.650   3.130   2.509  0.0503  0.2003 -1.3906
 5508TIP3    H238016   5.783   3.058   2.509  0.0517  0.1751 -3.1074
 5509TIP3   OH238017   2.904   4.207  10.559  0.1797  0.2499 -0.1198
 5509TIP3    H138018   2.974   4.260  10.519  0.6663 -0.5598 -0.3377
 5509TIP3    H238019   2.842   4.272  10.593  0.7851  0.9672 -0.3697
 5510TIP3   OH238020   0.438   3.682  11.878 -0.3273 -0.0565  0.0765
 5510TIP3    H138021   0.481   3.729  11.950  2.0803 -0.8248 -0.7977
 5510TIP3    H238022   0.509   3.660  11.819 -1.8324 -2.2748 -0.9672
 5511TIP3   OH238023   4.970   2.530   3.251  0.4388 -0.5652 -0.3698
 5511TIP3    H138024   4.985   2.493   3.338 -0.2598 -0.3104 -0.1351
 5511TIP3    H238025   4.874   2.537   3.244  0.4828 -0.7895 -1.2443
 5512TIP3   OH238026   5.380   2.582   1.570 -0.5510  0.4923  0.3617
 5512TIP3    H138027   5.382   2.652   1.635 -1.3572  0.2483  0.6641
 5512TIP3    H238028   5.360   2.625   1.488  1.3442  0.9204  0.0959
 5513TIP3   OH238029   1.948   6.709  17.148  0.1476  0.2022 -0.2174
 5513TIP3    H138030   2.011   6.637  17.137  0.3971  0.0095  2.1057
 5513TIP3    H238031   1.999   6.779  17.188 -0.7632  0.5868  0.2822
 5514TIP3   OH238032   4.353   4.101   3.581  0.2313  0.3937  0.3727
 5514TIP3    H138033   4.382   4.067   3.496  0.7568  0.8690  0.3559
 5514TIP3    H238034   4.373   4.031   3.643 -1.1764 -0.4048 -0.0504
 5515TIP3   OH238035   3.073   2.310  15.307 -0.1810  0.7154  0.0253
 5515TIP3    H138036   3.083   2.228  15.355 -0.3137  2.1787  2.6047
 5515TIP3    H238037   3.010   2.361  15.358 -0.2808  2.3515 -1.6602
 5516TIP3   OH238038   4.438   1.898   3.692  0.0145  0.2528 -0.1287
 5516TIP3    H138039   4.351   1.864   3.672 -0.0142  0.4278 -0.3107
 5516TIP3    H238040   4.494   1.820   3.697 -0.1520  0.1405 -0.0109
 5517TIP3   OH238041   1.929   3.208  13.902  0.2224 -0.1965 -0.3392
 5517TIP3    H138042   2.024   3.200  13.894  0.1920  0.1006 -1.0224
 5517TIP3    H238043   1.903   3.262  13.827 -0.3784  0.4653  0.3336
 5518TIP3   OH238044   4.965   4.394   3.828 -0.8629 -0.0715  0.0500
 5518TIP3    H138045   4.942   4.352   3.911  0.2037  0.1955  0.4953
 5518TIP3    H238046   4.977   4.486   3.850  2.2907 -0.4484  0.2347
 5519TIP3   OH238047   5.381   2.354  13.144  0.2972  0.2799 -0.0485
 5519TIP3    H138048   5.373   2.263  13.115 -2.1757  0.7903 -1.1071
 5519TIP3    H238049   5.301   2.396  13.113  1.2487  2.7545  0.7180
 5520TIP3   OH238050   5.639   3.152   5.011 -0.2308  0.2981 -0.3997
 5520TIP3    H138051   5.705   3.179   4.946 -0.8895  1.2282 -0.7021
 5520TIP3    H238052   5.608   3.234   5.048  0.0724 -0.2291  1.0469
 5521TIP3   OH238053   3.297   2.724   2.127  0.7156  0.1830  0.0504
 5521TIP3    H138054   3.331   2.690   2.210  1.8290 -1.7452 -1.1405
 5521TIP3    H238055   3.260   2.809   2.148 -0.2019 -0.8528  2.7665
 5522TIP3   OH238056   6.153   3.800  16.163 -0.1804  0.1681 -0.3940
 5522TIP3    H138057   6.079   3.743  16.143  1.2762 -1.3726 -1.5389
 5522TIP3    H238058   6.212   3.746  16.215 -0.0738  1.5492  0.9772
 5523TIP3   OH238059   3.632   2.847  12.994 -0.3797  0.7272  0.3043
 5523TIP3    H138060   3.674   2.931  12.975 -1.7784  1.0750 -1.3807
 5523TIP3    H238061   3.691   2.782  12.959 -0.4930  1.1319 -0.6420
 5524TIP3   OH238062   4.636   0.107   2.556  0.7855  0.0098  0.7858
 5524TIP3    H138063   4.727   0.078   2.564  0.5800 -0.6381  0.8180
 5524TIP3    H238064   4.585   0.030   2.580  0.2412  0.8924  2.5169
 5525TIP3   OH238065   4.747   1.929   4.661  0.4258 -0.5969 -0.6984
 5525TIP3    H138066   4.776   2.012   4.700  1.1577 -1.6066  0.9643
 5525TIP3    H238067   4.656   1.945   4.636  0.9871  1.1427 -1.6810
 5526TIP3   OH238068   1.831   2.072  14.969  0.0656 -0.3831  0.1486
 5526TIP3    H138069   1.740   2.087  14.944 -0.4422  0.7925  2.5182
 5526TIP3    H238070   1.879   2.070  14.887 -1.9093  0.4316 -1.0453
 5527TIP3   OH238071   1.423   5.695  16.535  0.4271  0.2044  0.2443
 5527TIP3    H138072   1.489   5.665  16.598  0.4329  0.7949  0.5301
 5527TIP3    H238073   1.350   5.634  16.546  0.4263  0.3058  0.8376
 5528TIP3   OH238074   2.170   3.747  10.922  0.1226 -0.1055 -0.8672
 5528TIP3    H138075   2.254   3.745  10.967 -1.6787  0.1938  2.6546
 5528TIP3    H238076   2.162   3.837  10.890  1.3090 -0.2553 -1.5874
 5529TIP3   OH238077   2.592   5.939   2.502 -0.2632  0.3821 -0.3578
 5529TIP3    H138078   2.617   5.918   2.592  1.3657 -0.2505 -0.9563
 5529TIP3    H238079   2.578   5.854   2.460 -0.2231  0.6608 -0.9411
 5530TIP3   OH238080   6.249   2.710   3.040  0.0653 -0.4958 -0.0459
 5530TIP3    H138081   6.263   2.715   3.135  1.9602 -1.5189 -0.2526
 5530TIP3    H238082   6.192   2.633   3.028 -2.1992  1.0661  0.4368
 5531TIP3   OH238083   0.266   3.630   6.387  0.1426 -0.0485 -0.3661
 5531TIP3    H138084   0.340   3.569   6.381  1.0663  0.9637  0.5512
 5531TIP3    H238085   0.191   3.575   6.407  0.6814 -1.0671 -1.0950
 5532TIP3   OH238086   1.421   3.471  12.570 -0.3609 -0.7070  0.2550
 5532TIP3    H138087   1.449   3.415  12.642  1.7593 -1.6787 -1.2773
 5532TIP3    H238088   1.492   3.534  12.559 -2.1872  1.5749  1.1691
 5533TIP3   OH238089   0.436   1.565  14.330  0.2355 -0.1304 -0.6524
 5533TIP3    H138090   0.378   1.590  14.258 -0.0511  1.0868 -0.0043
 5533TIP3    H238091   0.508   1.518  14.287  1.4839  2.9231 -2.0736
 5534TIP3   OH238092   5.342   1.834   3.271 -0.5107  0.2584 -0.5761
 5534TIP3    H138093   5.399   1.821   3.347 -1.9081  0.4210  0.5135
 5534TIP3    H238094   5.395   1.805   3.196 -0.0157 -2.3430  0.7153
 5535TIP3   OH238095   2.278   5.706   3.607  0.8043 -0.5232 -0.0089
 5535TIP3    H138096   2.243   5.621   3.632  0.9308 -0.6280 -0.1852
 5535TIP3    H238097   2.277   5.706   3.511 -1.5278  0.6475 -0.0110
 5536TIP3   OH238098   4.224   4.693  11.175 -0.4538 -0.4278  1.0865
 5536TIP3    H138099   4.303   4.687  11.228 -0.1717  0.8208  0.8124
 5536TIP3    H238100   4.218   4.608  11.132 -0.1693 -1.1180  2.3803
 5537TIP3   OH238101   0.946   1.978   3.428 -0.3382  0.0219 -0.0158
 5537TIP3    H138102   0.971   1.913   3.493  3.0963 -1.3120 -2.5114
 5537TIP3    H238103   1.029   2.005   3.388 -2.0067  3.4541 -1.3743
 5538TIP3   OH238104   4.627   2.197  11.518 -0.0643  0.0517  0.1884
 5538TIP3    H138105   4.632   2.273  11.576 -0.4044  0.3838 -0.2133
 5538TIP3    H238106   4.537   2.167  11.524  0.1619 -0.5622  0.6406
 5539TIP3   OH238107   1.887   5.628   2.520 -0.2688  0.5991 -0.0589
 5539TIP3    H138108   1.842   5.712   2.516  0.7050  1.1458  0.0522
 5539TIP3    H238109   1.871   5.596   2.609 -0.8170  0.5653 -0.1705
 5540TIP3   OH238110   5.012   4.657   1.445  0.1401  0.3206  0.4736
 5540TIP3    H138111   5.083   4.599   1.470 -0.4631 -0.3070  0.7313
 5540TIP3    H238112   5.001   4.716   1.520  0.2761  0.3125  0.4992
 5541TIP3   OH238113   2.378   2.098   0.160  0.2302 -0.3472  0.4052
 5541TIP3    H138114   2.291   2.072   0.127 -0.2257  1.8482 -0.2053
 5541TIP3    H238115   2.371   2.089   0.255 -0.3905 -1.0005  0.3065
 5542TIP3   OH238116   2.166   4.023  14.614 -0.1177 -0.0031 -0.1088
 5542TIP3    H138117   2.095   4.078  14.581 -1.3226 -0.4995  1.5630
 5542TIP3    H238118   2.126   3.974  14.686  1.9546 -0.2104  0.9351
 5543TIP3   OH238119   0.730   5.324  12.534  0.1321 -0.0880  0.0803
 5543TIP3    H138120   0.664   5.309  12.602 -1.1749  0.7043 -0.9823
 5543TIP3    H238121   0.808   5.349  12.582 -1.2231  2.0451  1.2643
 5544TIP3   OH238122   5.961   0.576  13.502 -0.1069 -0.4810 -0.2724
 5544TIP3    H138123   5.966   0.532  13.417  0.0803 -0.1452 -0.4357
 5544TIP3    H238124   5.978   0.668  13.483 -1.0736 -0.2468 -0.0067
 5545TIP3   OH238125   4.461   4.839   4.891 -0.0230  0.1685  0.0802
 5545TIP3    H138126   4.372   4.860   4.866  0.8744  1.2665 -2.2943
 5545TIP3    H238127   4.478   4.895   4.967 -1.2488  0.1550  0.3730
 5546TIP3   OH238128   0.666   3.566   2.142 -0.0375  0.3261  0.8019
 5546TIP3    H138129   0.608   3.633   2.107  0.2769  0.8962  1.3606
 5546TIP3    H238130   0.607   3.501   2.180 -0.3511  0.1271 -0.0280
 5547TIP3   OH238131   4.077   2.169   4.088 -0.0173  0.0690  0.4702
 5547TIP3    H138132   4.153   2.113   4.073 -0.7075 -0.2439 -2.0402
 5547TIP3    H238133   4.043   2.189   4.001 -2.8276  0.1869  1.5136
 5548TIP3   OH238134   2.906   3.044  12.766  0.3095  0.6445  0.0889
 5548TIP3    H138135   2.912   3.126  12.815 -1.8356  0.2660  1.0433
 5548TIP3    H238136   2.837   3.060  12.702  0.2149 -0.2650 -0.0338
 5549TIP3   OH238137   3.037   6.780  13.132 -0.8844  1.1240 -0.4039
 5549TIP3    H138138   3.129   6.764  13.112 -0.0159  2.2357  2.4662
 5549TIP3    H238139   3.015   6.860  13.085 -0.1157  1.3789 -0.3315
 5550TIP3   OH238140   6.120   1.389   2.982  0.4434  0.4208  0.4517
 5550TIP3    H138141   6.084   1.331   2.915 -2.5361  0.9013  1.5770
 5550TIP3    H238142   6.060   1.463   2.986  2.2215  1.8671  1.5877
 5551TIP3   OH238143   1.431   1.164   5.024 -0.0813  0.1200 -0.2527
 5551TIP3    H138144   1.376   1.241   5.038 -1.0620 -0.6820  0.2888
 5551TIP3    H238145   1.446   1.163   4.929 -1.3142  0.1104 -0.4516
 5552TIP3   OH238146   1.168   0.507  13.963  0.4189  0.6182 -0.1120
 5552TIP3    H138147   1.193   0.415  13.974 -0.9616 -0.0179 -2.0450
 5552TIP3    H238148   1.085   0.515  14.009 -0.2861  0.4725 -1.3423
 5553TIP3   OH238149   2.270   6.655  12.756  0.6266  0.4558  0.0369
 5553TIP3    H138150   2.188   6.665  12.804  0.0274 -1.9667 -0.4134
 5553TIP3    H238151   2.243   6.629  12.668  1.8588  0.5252 -0.3748
 5554TIP3   OH238152   1.190   4.349   0.975 -0.6595  0.7773 -0.5384
 5554TIP3    H138153   1.178   4.403   1.053  0.7150  0.2075  0.0950
 5554TIP3    H238154   1.139   4.270   0.994  2.0355 -0.6595  1.1480
 5555TIP3   OH238155   3.945   6.721   3.883 -0.2642  0.0947 -0.2500
 5555TIP3    H138156   3.976   6.633   3.859 -0.0580  0.7337 -2.3952
 5555TIP3    H238157   3.853   6.722   3.857 -0.5308  0.1991  0.6817
 5556TIP3   OH238158   6.653   5.629  13.348  0.0934 -0.1027 -0.2246
 5556TIP3    H138159   6.696   5.579  13.417 -0.4346 -0.1866  0.0491
 5556TIP3    H238160   6.566   5.648  13.383  0.6850  2.0248  0.1561
 5557TIP3   OH238161   1.875   5.984   3.103 -0.1214 -0.9641 -0.7921
 5557TIP3    H138162   1.862   6.013   3.193 -0.3612 -1.2126 -0.7444
 5557TIP3    H238163   1.946   6.039   3.069  0.7005 -1.5968 -0.1124
 5558TIP3   OH238164   0.092   1.926  17.094 -0.0995 -0.1975  0.2490
 5558TIP3    H138165   0.085   1.870  17.170 -0.4885 -0.8110 -0.2334
 5558TIP3    H238166   0.132   2.007  17.127 -1.2534 -0.0575  1.2986
 5559TIP3   OH238167   6.539   4.511  15.873 -0.2905  0.1854  0.3279
 5559TIP3    H138168   6.614   4.457  15.845 -0.8338 -0.5710  0.3009
 5559TIP3    H238169   6.463   4.468  15.833 -0.7525  0.8550  0.4884
 5560TIP3   OH238170   5.243   2.954  15.200 -0.4644 -0.4198  0.3462
 5560TIP3    H138171   5.159   2.959  15.245 -1.2459 -2.7823 -0.7920
 5560TIP3    H238172   5.220   2.935  15.109  1.3178 -1.7766  0.1654
 5561TIP3   OH238173   0.381   2.458  17.180 -0.5833 -0.7544  0.0093
 5561TIP3    H138174   0.394   2.531  17.241  0.3132  0.6201 -1.7750
 5561TIP3    H238175   0.372   2.381  17.236  1.3520  0.2989  1.8397
 5562TIP3   OH238176   0.288   0.899  12.005 -0.3447 -0.4568  0.2534
 5562TIP3    H138177   0.201   0.925  11.976 -0.0486 -0.4598 -0.6558
 5562TIP3    H238178   0.276   0.813  12.045 -0.8179 -0.2899  0.4649
 5563TIP3   OH238179   4.085   4.222   3.960 -0.0077  0.1483  0.1177
 5563TIP3    H138180   4.051   4.273   4.034 -0.2272 -0.2488  0.2995
 5563TIP3    H238181   4.169   4.263   3.938 -0.4218  0.8988 -0.0777
 5564TIP3   OH238182   2.793   2.146  12.014 -0.2480  0.5166 -0.2689
 5564TIP3    H138183   2.714   2.198  12.030 -0.3528  0.4604 -0.5991
 5564TIP3    H238184   2.835   2.188  11.939 -0.1392  0.3488 -0.3018
 5565TIP3   OH238185   1.290   0.448   1.422  0.4533  0.2631 -0.3562
 5565TIP3    H138186   1.307   0.535   1.460 -5.1040  0.9332  1.0497
 5565TIP3    H238187   1.264   0.466   1.332 -1.3518  0.1494  0.1348
 5566TIP3   OH238188   6.073   0.661   5.860 -0.3901  0.1758 -0.0314
 5566TIP3    H138189   6.069   0.747   5.902 -1.2155  0.6948 -1.1365
 5566TIP3    H238190   5.981   0.639   5.842 -0.3414 -1.7595  1.8591
 5567TIP3   OH238191   0.610   0.190   4.325  0.6792 -0.1891  0.0902
 5567TIP3    H138192   0.658   0.240   4.260 -0.7425 -0.1490 -0.9494
 5567TIP3    H238193   0.662   0.110   4.338  1.8539  0.5914  0.2047
 5568TIP3   OH238194   0.502   6.635   6.157  0.9847  0.1526  0.0487
 5568TIP3    H138195   0.537   6.579   6.226 -0.9356  0.6102  1.4346
 5568TIP3    H238196   0.423   6.589   6.126 -1.7412  2.8887  2.5466
 5569TIP3   OH238197   0.775   1.727  10.421  0.1619 -0.4656 -0.0185
 5569TIP3    H138198   0.841   1.785  10.383  1.0357  0.3781  2.6758
 5569TIP3    H238199   0.789   1.643  10.378  1.2305  0.3937 -1.3882
 5570TIP3   OH238200   1.503   5.061  16.980  0.3466 -0.5480  0.3282
 5570TIP3    H138201   1.441   5.043  16.910  1.3677 -1.7383 -0.2852
 5570TIP3    H238202   1.522   5.155  16.971 -2.4210  0.1784  1.4298
 5571TIP3   OH238203   3.777   3.231   2.005  0.1149 -0.0360  0.0929
 5571TIP3    H138204   3.711   3.285   2.048 -2.4777 -2.4261 -0.7101
 5571TIP3    H238205   3.735   3.201   1.924  2.6162 -0.6912 -1.0255
 5572TIP3   OH238206   0.644   0.407   1.759 -0.1768 -0.0849  0.3642
 5572TIP3    H138207   0.614   0.400   1.850 -3.0521  0.9886 -0.4693
 5572TIP3    H238208   0.636   0.500   1.738  0.5781 -0.3055 -0.9632
 5573TIP3   OH238209   3.838   0.258  11.488  0.1590  0.4905 -0.1470
 5573TIP3    H138210   3.825   0.298  11.403 -1.0365 -0.3524 -0.3682
 5573TIP3    H238211   3.849   0.332  11.548  0.4929  1.0872 -0.9370
 5574TIP3   OH238212   0.075   4.444   2.609  0.5940  0.6694  0.2154
 5574TIP3    H138213   0.075   4.352   2.582  0.0908  0.5756  0.5339
 5574TIP3    H238214   0.102   4.492   2.531 -0.6197  0.3801 -0.4014
 5575TIP3   OH238215   4.296   1.075   5.225  0.0335  0.5260 -0.4511
 5575TIP3    H138216   4.231   1.140   5.250  2.3205  2.0223  1.9545
 5575TIP3    H238217   4.330   1.106   5.141 -2.7488 -0.6202 -2.0354
 5576TIP3   OH238218   1.725   0.234   5.582 -0.6985  0.0905  0.2945
 5576TIP3    H138219   1.717   0.234   5.486 -2.4273  0.2376  0.4239
 5576TIP3    H238220   1.802   0.180   5.599 -0.2714  0.1921 -1.1823
 5577TIP3   OH238221   6.162   4.545   1.685  0.1422 -0.1142 -0.1003
 5577TIP3    H138222   6.165   4.528   1.591 -0.8882  2.3833 -0.6245
 5577TIP3    H238223   6.082   4.502   1.715 -0.1062  0.0239 -0.5658
 5578TIP3   OH238224   1.243   1.147   2.294 -0.2635  0.4151  0.8806
 5578TIP3    H138225   1.149   1.166   2.286 -0.3795 -0.8001 -0.8086
 5578TIP3    H238226   1.282   1.184   2.215  0.8129  1.5397  1.9069
 5579TIP3   OH238227   4.605   4.872  10.572  0.0804 -0.1983 -0.5732
 5579TIP3    H138228   4.682   4.848  10.520 -0.6372 -1.0614 -1.2398
 5579TIP3    H238229   4.573   4.952  10.531  0.7207  0.2630 -0.1859
 5580TIP3   OH238230   3.433   4.591  12.550  0.2217  0.2342 -0.3547
 5580TIP3    H138231   3.492   4.635  12.489  2.1495 -1.5903  0.1297
 5580TIP3    H238232   3.380   4.534  12.494  1.6609 -1.0792 -0.4300
 5581TIP3   OH238233   1.668   0.581  14.734  0.1447 -0.3670 -0.1108
 5581TIP3    H138234   1.749   0.582  14.785  0.9462  2.5543 -1.3670
 5581TIP3    H238235   1.696   0.566  14.644 -0.9557 -1.8682 -0.2268
 5582TIP3   OH238236   2.608   4.393  15.867  0.1400  0.1569 -0.4558
 5582TIP3    H138237   2.558   4.383  15.948 -0.3050 -1.0615 -0.8657
 5582TIP3    H238238   2.543   4.418  15.801  0.1124 -1.1450 -0.9276
 5583TIP3   OH238239   4.541   3.134   5.547 -0.4951  0.1342 -0.2656
 5583TIP3    H138240   4.584   3.216   5.571 -1.5788  0.7059 -0.2450
 5583TIP3    H238241   4.603   3.090   5.489  0.2744  0.7639  0.0705
 5584TIP3   OH238242   1.261   1.483   6.157  0.1163  0.6262  0.3474
 5584TIP3    H138243   1.233   1.520   6.240 -1.0648 -0.8887  0.6649
 5584TIP3    H238244   1.342   1.528   6.136 -0.7739  2.6814  1.1639
 5585TIP3   OH238245   3.239   6.383  14.356 -0.1730 -0.4499 -0.2930
 5585TIP3    H138246   3.325   6.416  14.332 -0.6201  0.5068 -0.6377
 5585TIP3    H238247   3.211   6.331  14.280  0.3980 -1.3534  0.1164
 5586TIP3   OH238248   4.191   4.952   1.274 -0.3531 -0.1111 -0.0816
 5586TIP3    H138249   4.240   5.034   1.269 -1.1351  0.4235  0.9016
 5586TIP3    H238250   4.178   4.937   1.368 -2.3487 -0.0775 -0.3297
 5587TIP3   OH238251   5.081   1.625  11.502 -0.5125 -0.1699  0.4101
 5587TIP3    H138252   5.129   1.704  11.478 -0.4350 -0.9923 -2.2315
 5587TIP3    H238253   4.990   1.654  11.514 -0.6594  0.1956 -1.4503
 5588TIP3   OH238254   1.790   2.574   4.218  0.1341  0.3036  0.1872
 5588TIP3    H138255   1.832   2.511   4.277  1.1270  1.7650  1.0829
 5588TIP3    H238256   1.734   2.627   4.275 -2.6673 -1.3326 -0.9285
 5589TIP3   OH238257   0.996   0.521  14.643  0.4771 -0.5849  0.4972
 5589TIP3    H138258   1.083   0.550  14.616 -0.4589  2.5390  0.7281
 5589TIP3    H238259   0.939   0.548  14.571 -0.2883 -3.0924  0.0923
 5590TIP3   OH238260   0.495   3.954   6.297 -0.2223 -0.1806 -0.0019
 5590TIP3    H138261   0.536   4.016   6.356  1.2775 -0.2795 -0.9138
 5590TIP3    H238262   0.481   4.003   6.216  0.4130 -0.8444 -0.5239
 5591TIP3   OH238263   5.383   2.481  10.974 -0.3390  0.2981  0.7758
 5591TIP3    H138264   5.338   2.548  11.025 -0.1959 -0.0861  1.4170
 5591TIP3    H238265   5.315   2.417  10.951 -0.3549  0.3442  0.6931
 5592TIP3   OH238266   5.419   0.131  12.652 -0.0210  0.2924 -0.1045
 5592TIP3    H138267   5.493   0.074  12.632  0.4133  0.7937  0.0293
 5592TIP3    H238268   5.357   0.075  12.699  0.4341 -0.0454  0.1013
 5593TIP3   OH238269   3.600   0.870  16.363  0.2822 -0.1165 -0.6078
 5593TIP3    H138270   3.678   0.818  16.380  1.4443  1.3699 -1.2252
 5593TIP3    H238271   3.550   0.819  16.299  1.1276 -0.7464 -0.7685
 5594TIP3   OH238272   0.071   4.106  15.754  1.2759 -0.3563 -0.0140
 5594TIP3    H138273  -0.009   4.053  15.753  0.9117  0.2101 -1.7820
 5594TIP3    H238274   0.142   4.043  15.742  0.8080 -0.4099 -2.7275
 5595TIP3   OH238275   3.010   4.667  13.233 -0.3540 -0.0882 -0.2815
 5595TIP3    H138276   2.934   4.634  13.185  0.4599 -3.9933  0.9523
 5595TIP3    H238277   2.975   4.693  13.318 -0.5381 -0.4081 -0.2595
 5596TIP3   OH238278   5.409   4.819  11.610 -0.2848 -0.1962  0.5063
 5596TIP3    H138279   5.414   4.885  11.541  2.0583 -0.1030  0.7144
 5596TIP3    H238280   5.362   4.746  11.570  0.5296  0.0894 -1.0142
 5597TIP3   OH238281   1.114   3.408  14.302 -0.3374  0.5135 -0.0635
 5597TIP3    H138282   1.083   3.428  14.390 -1.1931  1.0456 -0.4799
 5597TIP3    H238283   1.209   3.412  14.308 -0.4305  2.8972  0.2907
 5598TIP3   OH238284   0.612   2.862   5.153  0.4759  0.5007  0.0038
 5598TIP3    H138285   0.575   2.885   5.238  1.8657  1.2409  0.4188
 5598TIP3    H238286   0.625   2.946   5.109  3.7010  0.4684  0.7431
 5599TIP3   OH238287   2.670   6.135  11.986  0.8044 -0.2076  0.2916
 5599TIP3    H138288   2.583   6.102  12.009  0.7130 -0.0258  0.2072
 5599TIP3    H238289   2.696   6.189  12.060  1.4129 -1.3394  0.9168
 5600TIP3   OH238290   6.461   1.910  11.239 -0.8652  0.4257  0.0441
 5600TIP3    H138291   6.429   1.979  11.181  2.2664  0.9407 -1.1310
 5600TIP3    H238292   6.440   1.828  11.194  1.2652  0.8143 -1.6822
 5601TIP3   OH238293   6.531   6.056  12.912  0.0678 -0.3476 -0.1448
 5601TIP3    H138294   6.596   6.070  12.981 -0.0192  2.4733 -0.5968
 5601TIP3    H238295   6.450   6.038  12.959  0.2968  0.2080  0.4724
 5602TIP3   OH238296   2.766   5.604   3.447 -0.3670  0.3474  0.2955
 5602TIP3    H138297   2.837   5.660   3.416 -0.0247 -0.3607 -0.2094
 5602TIP3    H238298   2.796   5.571   3.531 -0.2982  0.4119  0.2960
 5603TIP3   OH238299   2.946   1.618   5.388  0.0984 -0.6315 -0.0328
 5603TIP3    H138300   2.896   1.538   5.374  0.5892 -0.5328 -2.5704
 5603TIP3    H238301   3.035   1.588   5.406  0.0267 -0.6844  0.2363
 5604TIP3   OH238302   0.773   6.799  16.331 -0.4336  0.3185 -0.2261
 5604TIP3    H138303   0.683   6.802  16.364 -0.2419  1.2907  0.2313
 5604TIP3    H238304   0.812   6.724  16.376 -1.4537 -1.0635 -1.6087
 5605TIP3   OH238305   2.536   2.904   2.997  0.1143  0.3007 -0.6176
 5605TIP3    H138306   2.563   2.994   2.981  1.8635 -0.1281 -0.1620
 5605TIP3    H238307   2.614   2.852   2.977 -0.4121 -0.9810  0.6155
 5606TIP3   OH238308   3.478   4.720   3.524  0.3902 -0.6598  0.2026
 5606TIP3    H138309   3.547   4.654   3.532 -0.1265 -0.9362  2.5944
 5606TIP3    H238310   3.397   4.673   3.538 -0.0305  0.3527  1.2240
 5607TIP3   OH238311   5.424   5.396  14.481 -0.5377 -0.0776  0.1578
 5607TIP3    H138312   5.443   5.437  14.565 -1.9933 -0.9374  0.9286
 5607TIP3    H238313   5.341   5.436  14.454  0.0454  0.3755 -0.9942
 5608TIP3   OH238314   0.498   5.407   3.350  0.5575  0.5759 -0.6128
 5608TIP3    H138315   0.552   5.486   3.354  0.5944  0.4972  0.7968
 5608TIP3    H238316   0.418   5.435   3.306 -0.1891  1.8860  1.4704
 5609TIP3   OH238317   0.883   4.697  15.357  0.1170  0.0438  0.0213
 5609TIP3    H138318   0.840   4.783  15.360  0.0409  0.1057 -2.1479
 5609TIP3    H238319   0.962   4.712  15.306  0.2426 -1.1188 -0.1262
 5610TIP3   OH238320   3.665   5.992   5.142  0.2334  0.1846  0.1094
 5610TIP3    H138321   3.600   5.969   5.076  0.0478  1.1378 -0.0540
 5610TIP3    H238322   3.642   5.940   5.218  0.2617 -0.6926 -0.4797
 5611TIP3   OH238323   2.675   5.882   2.761 -0.4935  0.1197 -0.0281
 5611TIP3    H138324   2.679   5.810   2.824 -1.8137 -0.5816 -0.7273
 5611TIP3    H238325   2.756   5.931   2.775  0.0506 -1.0547  0.9814
 5612TIP3   OH238326   6.020   5.080   1.382 -0.4997 -0.3527  0.4176
 5612TIP3    H138327   6.097   5.137   1.383 -2.0122  1.7561 -0.0392
 5612TIP3    H238328   6.032   5.027   1.303  1.5634 -1.6470  1.5414
 5613TIP3   OH238329   3.134   3.909  17.068  0.0807  0.2375  0.6664
 5613TIP3    H138330   3.199   3.873  17.008 -0.1460  1.0097 -0.0461
 5613TIP3    H238331   3.063   3.939  17.012 -1.2193 -1.2252  1.4809
 5614TIP3   OH238332   5.338   3.870  15.655  0.1789 -0.2412 -0.0561
 5614TIP3    H138333   5.250   3.900  15.677  1.0204  0.2847  2.8124
 5614TIP3    H238334   5.387   3.950  15.637  0.9878 -0.2381  2.0399
 5615TIP3   OH238335   3.241   1.525  16.061  0.0640 -0.1334  0.1881
 5615TIP3    H138336   3.177   1.470  16.106  0.3579  0.2005  1.0266
 5615TIP3    H238337   3.189   1.599  16.028  0.1520  0.6356  1.7079
 5616TIP3   OH238338   6.817   4.683  13.227 -0.1842 -0.7083 -0.2872
 5616TIP3    H138339   6.806   4.660  13.135 -1.4305  0.4318 -0.4427
 5616TIP3    H238340   6.728   4.690  13.261  0.2622 -1.3389  1.0802
 5617TIP3   OH238341   1.770   3.436  16.158 -0.6484  0.3225  0.4723
 5617TIP3    H138342   1.859   3.407  16.142 -0.4452  1.1358  0.0851
 5617TIP3    H238343   1.779   3.505  16.224 -1.2396 -1.3427  2.3525
 5618TIP3   OH238344   2.778   1.153  16.074  0.9491  0.6323  0.2892
 5618TIP3    H138345   2.772   1.249  16.072  0.4105  0.6437  1.6792
 5618TIP3    H238346   2.859   1.135  16.123  1.2978  0.3686 -0.3745
 5619TIP3   OH238347   6.021   5.943  12.471 -0.9390  0.0873 -0.2338
 5619TIP3    H138348   6.055   5.892  12.546 -0.7146  0.3503 -0.1576
 5619TIP3    H238349   6.000   6.028  12.508  0.1119  0.5512 -0.6711
 5620TIP3   OH238350   0.517   1.464   1.194 -0.7044  0.1817 -0.4800
 5620TIP3    H138351   0.481   1.405   1.260 -0.6144  1.7032  0.9454
 5620TIP3    H238352   0.458   1.539   1.192 -0.7640  0.1282 -2.2152
 5621TIP3   OH238353   2.491   3.783   3.301  0.0907 -0.0695  0.2428
 5621TIP3    H138354   2.504   3.870   3.262  1.6491 -0.1393  0.5487
 5621TIP3    H238355   2.507   3.722   3.229 -0.8134 -0.1090  0.0746
 5622TIP3   OH238356   5.725   1.336   5.393 -0.5520 -0.2780  0.2405
 5622TIP3    H138357   5.708   1.428   5.372 -0.0769 -0.2604 -0.1013
 5622TIP3    H238358   5.641   1.301   5.422 -0.7860  0.2087  0.1511
 5623TIP3   OH238359   6.222   1.134   5.499 -0.0864 -0.0680 -0.4725
 5623TIP3    H138360   6.243   1.186   5.421  0.3538 -0.6284 -0.7327
 5623TIP3    H238361   6.217   1.044   5.467 -2.2695 -0.0344 -0.2874
 5624TIP3   OH238362   2.896   2.694  14.448 -0.2232  0.2831  0.1429
 5624TIP3    H138363   2.883   2.601  14.470 -0.3029  0.3354  0.3195
 5624TIP3    H238364   2.872   2.741  14.528  0.9320  0.3893  0.4340
 5625TIP3   OH238365   2.536   4.441  14.551  0.4305  0.0066  0.0168
 5625TIP3    H138366   2.455   4.423  14.503 -0.5873  0.7229  1.4414
 5625TIP3    H238367   2.539   4.375  14.620  0.4006  0.7719  0.7588
 5626TIP3   OH238368   6.456   3.485  16.695  0.5290 -0.6896  0.0123
 5626TIP3    H138369   6.426   3.396  16.679  0.1068 -0.6297  0.4623
 5626TIP3    H238370   6.464   3.491  16.791  1.2912 -0.4845 -0.0640
 5627TIP3   OH238371   4.643   0.911   1.724  0.7038  0.2820  0.0107
 5627TIP3    H138372   4.663   0.873   1.638 -2.1448 -1.2510 -0.0336
 5627TIP3    H238373   4.667   1.003   1.716 -0.4910  0.3926 -2.7912
 5628TIP3   OH238374   1.845   6.726   3.655 -0.1991  0.1998  0.3004
 5628TIP3    H138375   1.941   6.721   3.648 -0.3350 -2.9561  0.0404
 5628TIP3    H238376   1.815   6.733   3.565 -0.1718  3.1524  0.4830
 5629TIP3   OH238377   6.778   3.567  10.825  0.0700  0.3801  0.1883
 5629TIP3    H138378   6.758   3.651  10.782 -0.4117 -0.6354 -1.6348
 5629TIP3    H238379   6.873   3.562  10.822 -0.0206 -0.8164 -3.1392
 5630TIP3   OH238380   2.004   0.317   5.271  0.0339  0.2656 -0.0847
 5630TIP3    H138381   1.951   0.239   5.288 -1.7616  1.2691 -1.0660
 5630TIP3    H238382   1.957   0.388   5.314  0.9229  1.0712 -0.4301
 5631TIP3   OH238383   1.902   2.356   3.773 -0.4442  1.0814 -0.0855
 5631TIP3    H138384   1.992   2.387   3.758 -0.5033  1.9187  1.2190
 5631TIP3    H238385   1.904   2.320   3.862 -1.5421  1.6710  0.1842
 5632TIP3   OH238386   2.836   6.335  11.209  0.7504  0.2154  0.2799
 5632TIP3    H138387   2.778   6.264  11.179  0.4678 -0.7131  2.8388
 5632TIP3    H238388   2.875   6.370  11.129 -1.8031 -0.4882 -1.3463
 5633TIP3   OH238389   0.204   0.847  17.224 -0.4458  0.3775 -0.6174
 5633TIP3    H138390   0.200   0.940  17.202  0.3297  0.4735 -0.3619
 5633TIP3    H238391   0.155   0.804  17.154 -0.5755  0.9563 -0.8824
 5634TIP3   OH238392   6.720   3.390   1.799 -0.4285 -0.1169  0.0740
 5634TIP3    H138393   6.674   3.415   1.879 -0.3370  0.0613  0.0715
 5634TIP3    H238394   6.774   3.466   1.778  1.2532 -0.9974  1.0838
 5635TIP3   OH238395   2.419   0.607  12.569 -0.5232 -0.3465  0.3836
 5635TIP3    H138396   2.348   0.638  12.625  1.0886  2.3270  1.0501
 5635TIP3    H238397   2.431   0.678  12.505 -0.5368 -2.1677 -1.7086
 5636TIP3   OH238398   0.298   5.516   6.080 -0.5800  0.3284 -0.5362
 5636TIP3    H138399   0.242   5.438   6.078  1.9389 -1.5525 -0.1937
 5636TIP3    H238400   0.333   5.518   6.169 -0.2032  1.5692 -0.7030
 5637TIP3   OH238401   4.636   6.408   6.526 -0.3757 -0.2132 -0.5753
 5637TIP3    H138402   4.686   6.453   6.458  0.1138  0.2279  0.0696
 5637TIP3    H238403   4.697   6.346   6.565 -0.3434  0.2889  0.1799
 5638TIP3   OH238404   0.219   5.190   1.485 -0.5484 -0.0198  0.5214
 5638TIP3    H138405   0.211   5.252   1.557  0.7594 -0.2895  0.8952
 5638TIP3    H238406   0.135   5.198   1.438  0.2132  3.2686 -0.4312
 5639TIP3   OH238407   6.403   2.774  12.335  0.2449  0.4535  0.1234
 5639TIP3    H138408   6.468   2.761  12.266 -0.8084 -1.1851 -0.5734
 5639TIP3    H238409   6.425   2.709  12.402  0.8928  1.6367  1.0884
 5640TIP3   OH238410   6.217   0.508  13.624 -0.3389  0.4459  0.6948
 5640TIP3    H138411   6.128   0.493  13.590 -0.3861 -1.0510  1.4468
 5640TIP3    H238412   6.274   0.463  13.561 -0.1621  0.8623  0.5610
 5641TIP3   OH238413   4.491   3.609   5.300  0.8587  0.9128  0.5787
 5641TIP3    H138414   4.570   3.649   5.336  2.9190 -2.5869  0.1563
 5641TIP3    H238415   4.507   3.602   5.206 -0.2546  0.7609  0.3853
 5642TIP3   OH238416   2.743   1.780   0.749  0.0166 -0.2597 -0.0868
 5642TIP3    H138417   2.723   1.840   0.678  0.1295 -1.0287 -0.7720
 5642TIP3    H238418   2.657   1.753   0.782 -0.0687 -1.7423 -1.4917
 5643TIP3   OH238419   4.754   6.809   3.353  0.2372  0.2237  0.5170
 5643TIP3    H138420   4.746   6.725   3.308  1.5465 -0.1735  1.0017
 5643TIP3    H238421   4.774   6.872   3.283 -2.2487  0.4346 -0.0640
 5644TIP3   OH238422   5.898   4.874   4.117 -0.3109  0.0765 -0.0327
 5644TIP3    H138423   5.906   4.912   4.204 -1.0489 -0.1077  0.1128
 5644TIP3    H238424   5.950   4.793   4.122 -0.1367  0.1983  0.1537
 5645TIP3   OH238425   0.976   5.710   1.074  0.2891 -0.4583  0.2734
 5645TIP3    H138426   0.997   5.724   0.981 -0.9656 -1.0308 -0.1122
 5645TIP3    H238427   1.013   5.786   1.119  0.1741  0.2585 -0.8120
 5646TIP3   OH238428   2.984   1.700  11.091 -0.4769 -0.8380  0.1585
 5646TIP3    H138429   3.025   1.636  11.149  0.0812 -0.9320 -0.3338
 5646TIP3    H238430   3.057   1.750  11.054 -0.7709 -1.1904 -0.9296
 5647TIP3   OH238431   5.707   6.277  13.557 -0.0680  0.0584  0.1185
 5647TIP3    H138432   5.800   6.272  13.578 -0.0609 -0.3708 -0.0063
 5647TIP3    H238433   5.664   6.293  13.641  0.1759  0.9853  0.0724
 5648TIP3   OH238434   0.441   4.606  16.586 -0.0246  0.1766 -0.1935
 5648TIP3    H138435   0.476   4.522  16.615 -1.9858 -0.8345 -0.6687
 5648TIP3    H238436   0.419   4.652  16.668  0.1888 -0.1603  0.0552
 5649TIP3   OH238437   6.455   3.651   5.617 -0.4588  0.4967 -0.6558
 5649TIP3    H138438   6.376   3.644   5.672 -0.5786 -1.1676 -0.9898
 5649TIP3    H238439   6.449   3.576   5.558  0.7420  1.0807 -1.5452
 5650TIP3   OH238440   1.885   0.155  15.016 -0.2490 -0.3658 -0.0215
 5650TIP3    H138441   1.880   0.241  14.974  0.4013  0.0763  0.8010
 5650TIP3    H238442   1.795   0.137  15.043 -0.5069 -0.2409 -0.7799
 5651TIP3   OH238443   1.630   5.937   4.447  0.2943  0.0134 -0.2456
 5651TIP3    H138444   1.674   6.017   4.476 -0.5705  0.2011  0.5816
 5651TIP3    H238445   1.686   5.903   4.378  1.7302  0.2463  0.7774
 5652TIP3   OH238446   4.806   0.614   4.222 -0.4033  0.0998 -0.6225
 5652TIP3    H138447   4.817   0.598   4.128 -0.9330 -1.5878 -0.4147
 5652TIP3    H238448   4.801   0.527   4.261  2.9676  0.7336  1.3794
 5653TIP3   OH238449   2.307   2.450  11.839 -0.2227 -0.3466 -0.2642
 5653TIP3    H138450   2.225   2.410  11.809  0.6330  0.2243 -3.6344
 5653TIP3    H238451   2.376   2.398  11.797  1.0507  0.9130  0.2217
 5654TIP3   OH238452   2.255   2.060  11.540 -0.5454 -0.3817  0.3266
 5654TIP3    H138453   2.315   2.123  11.501  0.0457 -0.2884  1.3763
 5654TIP3    H238454   2.269   1.979  11.491  2.3929 -1.1231  2.2791
 5655TIP3   OH238455   0.557   6.080   0.350 -0.6507 -0.6039  0.1151
 5655TIP3    H138456   0.501   6.108   0.277 -0.3970  2.6415  1.1301
 5655TIP3    H238457   0.540   5.986   0.357 -3.4261 -0.3196 -1.7808
 5656TIP3   OH238458   6.412   2.879   3.886 -0.8658  0.1811  0.1070
 5656TIP3    H138459   6.454   2.812   3.832 -2.0143  0.8556 -1.6486
 5656TIP3    H238460   6.327   2.841   3.907 -0.9150  0.4598  0.4072
 5657TIP3   OH238461   1.321   3.236   2.994  0.2211  0.4048 -0.1258
 5657TIP3    H138462   1.293   3.144   2.987  1.7163 -0.1174  0.5476
 5657TIP3    H238463   1.260   3.275   3.057 -1.0147  0.1240 -1.1285
 5658TIP3   OH238464   4.169   4.135  11.784 -0.1907  0.0079 -0.7086
 5658TIP3    H138465   4.100   4.073  11.759  0.1593 -0.9869  0.7388
 5658TIP3    H238466   4.225   4.086  11.844  1.7495  0.8282 -1.7996
 5659TIP3   OH238467   2.044   3.709   1.677 -0.0163 -0.3870  0.2724
 5659TIP3    H138468   1.962   3.689   1.721 -0.1318  1.0412  0.7172
 5659TIP3    H238469   2.112   3.688   1.741 -0.0756 -0.4626  0.3110
 5660TIP3   OH238470   5.748   0.719   0.436 -0.7796  0.1247 -0.0206
 5660TIP3    H138471   5.656   0.694   0.426 -0.8949 -1.5548  4.1492
 5660TIP3    H238472   5.794   0.672   0.366 -2.6579 -1.8524  0.0256
 5661TIP3   OH238473   6.484   1.091   2.984 -0.4574 -0.0711  0.0046
 5661TIP3    H138474   6.463   1.145   2.908  0.2881 -1.2417 -1.0576
 5661TIP3    H238475   6.431   1.127   3.055 -0.1176  1.9159 -0.7227
 5662TIP3   OH238476   3.358   3.641   0.045 -0.2510  0.6860 -0.4955
 5662TIP3    H138477   3.279   3.682   0.010 -0.1521  1.2596 -0.0498
 5662TIP3    H238478   3.392   3.588  -0.027  0.4441  2.5512 -1.5767
 5663TIP3   OH238479   0.650   6.527   1.918 -0.4029  0.9074  0.0289
 5663TIP3    H138480   0.659   6.622   1.930  0.4848  1.0374 -1.5220
 5663TIP3    H238481   0.645   6.516   1.823  0.7801 -0.7186  0.1545
 5664TIP3   OH238482   5.937   1.021   3.085 -0.2831  0.1772 -0.1886
 5664TIP3    H138483   5.954   1.056   2.998 -0.0229  0.8711  0.1386
 5664TIP3    H238484   5.996   0.946   3.093 -0.1473  0.2481 -0.5203
 5665TIP3   OH238485   2.387   6.764  12.366 -0.3840  0.2277 -0.5896
 5665TIP3    H138486   2.440   6.802  12.436  0.7294 -3.2741  0.5501
 5665TIP3    H238487   2.305   6.739  12.408 -1.5095  2.1128 -1.5495
 5666TIP3   OH238488   1.415   4.004   6.636 -0.2304  0.3823 -0.4388
 5666TIP3    H138489   1.344   3.943   6.614 -1.9597  1.9601  0.6838
 5666TIP3    H238490   1.374   4.090   6.636  1.6980  1.3268  0.2502
 5667TIP3   OH238491   4.067   5.312  13.601 -0.5747  0.4160  0.4422
 5667TIP3    H138492   4.038   5.316  13.510 -1.2148 -0.9122  0.5780
 5667TIP3    H238493   4.139   5.375  13.606  2.1248 -2.3004 -1.9581
 5668TIP3   OH238494   5.349   2.806  16.009  0.3451 -0.2717  0.0321
 5668TIP3    H138495   5.347   2.787  15.915  1.7012  0.5435 -0.1713
 5668TIP3    H238496   5.345   2.720  16.051 -3.3563 -0.5357 -0.6782
 5669TIP3   OH238497   4.070   5.968  14.160  0.3305 -0.0860 -0.2360
 5669TIP3    H138498   3.991   5.991  14.210  1.1330  1.0755  0.5058
 5669TIP3    H238499   4.084   6.043  14.103  0.2860 -0.7651 -1.1446
 5670TIP3   OH238500   1.937   1.037  16.274  0.0760 -0.6045  0.1006
 5670TIP3    H138501   1.914   1.053  16.183  0.0067  0.2137  0.2552
 5670TIP3    H238502   2.006   1.101  16.292  0.1493 -0.8212  0.5968
 5671TIP3   OH238503   1.522   0.014  15.921  0.6321 -0.0354 -0.4285
 5671TIP3    H138504   1.610  -0.005  15.952  0.2513 -2.2838 -0.6401
 5671TIP3    H238505   1.480  -0.072  15.913 -1.4540  0.9698 -0.6890
 5672TIP3   OH238506   5.491   2.228   4.945  0.2292  0.3793  0.3977
 5672TIP3    H138507   5.539   2.311   4.936  1.3815 -0.2991  0.2120
 5672TIP3    H238508   5.449   2.216   4.860  1.0109  0.1949  0.0341
 5673TIP3   OH238509   1.159   0.308  13.524 -0.1207  0.2426 -0.3764
 5673TIP3    H138510   1.222   0.291  13.454 -1.6108  0.4781 -1.8010
 5673TIP3    H238511   1.121   0.393  13.502 -1.8071 -0.4404 -0.1964
 5674TIP3   OH238512   3.706   3.521  11.212 -0.1415 -0.4292 -0.2711
 5674TIP3    H138513   3.765   3.579  11.165  0.9953 -1.1179  0.2832
 5674TIP3    H238514   3.661   3.472  11.143 -0.3178  0.3363 -0.7041
 5675TIP3   OH238515   0.016   5.827   3.532 -0.5887 -0.0070 -0.3491
 5675TIP3    H138516  -0.015   5.843   3.621 -0.7289  0.1490 -0.4259
 5675TIP3    H238517   0.023   5.732   3.525  1.2328  0.0384  0.4575
 5676TIP3   OH238518   1.077   0.697  11.767  0.1198 -0.4153 -0.7225
 5676TIP3    H138519   1.069   0.690  11.863  0.0020 -2.3945 -0.8531
 5676TIP3    H238520   0.993   0.733  11.739  0.2930  0.5383 -0.0566
 5677TIP3   OH238521   6.015   2.979  15.243 -0.0085 -0.2681  0.5213
 5677TIP3    H138522   5.998   2.886  15.257  0.6494 -0.5792 -0.7239
 5677TIP3    H238523   5.934   3.022  15.273 -0.3820 -1.2387  0.9497
 5678TIP3   OH238524   1.714   5.527   1.931 -0.5391  0.3909  0.0059
 5678TIP3    H138525   1.758   5.610   1.912  2.7910 -1.2867 -0.1632
 5678TIP3    H238526   1.675   5.500   1.848 -0.4393  1.1163 -0.2760
 5679TIP3   OH238527   2.998   2.607   5.565  0.1434  0.3932  0.0732
 5679TIP3    H138528   3.061   2.656   5.512  0.1252  0.9428  0.5485
 5679TIP3    H238529   2.931   2.579   5.503  0.5043  0.3950 -0.3198
 5680TIP3   OH238530   4.313   6.175  17.261 -0.1613 -0.2344  0.3842
 5680TIP3    H138531   4.355   6.231  17.196 -1.3398  0.0619 -0.1383
 5680TIP3    H238532   4.362   6.093  17.257  0.6922  0.2828  0.1541
 5681TIP3   OH238533   6.456   6.800   0.479 -0.0397  0.0073 -0.1918
 5681TIP3    H138534   6.532   6.850   0.507  0.1328 -0.3037 -0.1059
 5681TIP3    H238535   6.456   6.722   0.534 -0.8716  0.3822  0.3493
 5682TIP3   OH238536   5.291   0.619  16.808 -0.2065  0.2142  0.7606
 5682TIP3    H138537   5.273   0.561  16.734 -1.8609 -0.2563  1.5191
 5682TIP3    H238538   5.255   0.704  16.781 -0.5324  0.1211  0.9053
 5683TIP3   OH238539   4.032   2.737   6.031 -0.2768  0.1388 -0.5891
 5683TIP3    H138540   4.049   2.790   5.953  1.2325 -1.0483 -1.0799
 5683TIP3    H238541   3.970   2.670   6.003 -1.7171  1.2408 -0.1165
 5684TIP3   OH238542   0.880   2.609   0.084  0.1168 -0.2767  0.4884
 5684TIP3    H138543   0.956   2.631   0.137  0.6582  1.3472 -0.8861
 5684TIP3    H238544   0.899   2.523   0.048  0.4837 -0.6570  1.5931
 5685TIP3   OH238545   1.998   0.957  15.728 -0.0308 -0.1607  0.3820
 5685TIP3    H138546   2.091   0.955  15.748 -0.0016 -0.5223  0.2143
 5685TIP3    H238547   1.983   1.044  15.690  0.1354  0.0942  0.9028
 5686TIP3   OH238548   5.830   1.184  14.660 -0.0152  0.1546  0.2108
 5686TIP3    H138549   5.781   1.108  14.689 -0.5632  0.5787  0.4024
 5686TIP3    H238550   5.831   1.177  14.564  0.1324 -0.2105  0.2374
 5687TIP3   OH238551   0.360   0.571   2.692 -0.2330  0.3401  0.0171
 5687TIP3    H138552   0.353   0.660   2.727  0.9568  0.9037 -1.1561
 5687TIP3    H238553   0.436   0.534   2.737 -0.2964  0.1539 -0.0289
 5688TIP3   OH238554   5.816   4.906  16.210  0.6680  0.0418 -0.0036
 5688TIP3    H138555   5.736   4.958  16.216  0.1085 -0.8923  1.0348
 5688TIP3    H238556   5.803   4.852  16.132  0.0412 -0.4861  0.4588
 5689TIP3   OH238557   2.847   5.143  16.085 -0.5280  0.6119 -0.1956
 5689TIP3    H138558   2.804   5.118  16.003 -0.2366  0.4742 -0.3063
 5689TIP3    H238559   2.917   5.080  16.095 -1.0379  0.1568  0.5594
 5690TIP3   OH238560   6.451   1.031  11.488  0.5047  0.1046 -0.6048
 5690TIP3    H138561   6.370   1.050  11.441 -1.2201 -0.3480  2.0329
 5690TIP3    H238562   6.475   1.115  11.528 -0.4386 -0.4244  1.1545
 5691TIP3   OH238563   2.949   4.989  16.712 -0.1346  0.1706 -0.2688
 5691TIP3    H138564   2.906   4.968  16.795  0.0805 -1.9555 -0.6648
 5691TIP3    H238565   3.041   4.972  16.727 -0.1500 -0.7185 -1.0617
 5692TIP3   OH238566   3.969   3.085   4.282  0.1091 -0.6313  0.1076
 5692TIP3    H138567   4.018   3.158   4.245  1.1392 -0.3967  1.8825
 5692TIP3    H238568   3.890   3.079   4.228  0.5576  1.0455 -0.7625
 5693TIP3   OH238569   4.869   5.021  14.855 -0.1968  0.0832  0.2144
 5693TIP3    H138570   4.900   5.109  14.877  1.8998 -0.3313 -0.8864
 5693TIP3    H238571   4.872   4.973  14.938 -1.2617  1.0054  0.8005
 5694TIP3   OH238572   6.459   6.592   5.663 -0.1412 -0.6564  0.2104
 5694TIP3    H138573   6.414   6.590   5.748 -2.2118  0.3729 -0.8129
 5694TIP3    H238574   6.507   6.675   5.664 -0.4974 -0.4466  0.2273
 5695TIP3   OH238575   3.274   4.726   4.792  0.2806  0.0858  0.0079
 5695TIP3    H138576   3.216   4.803   4.787  1.9995  1.4170  0.1018
 5695TIP3    H238577   3.248   4.672   4.717 -3.0132 -0.7578  1.6682
 5696TIP3   OH238578   2.376   3.648   4.228 -0.3392 -0.4812  0.6941
 5696TIP3    H138579   2.317   3.708   4.274  1.2353  0.0719  2.0304
 5696TIP3    H238580   2.449   3.702   4.199 -0.7759 -1.0457 -1.5534
 5697TIP3   OH238581   5.863   1.727  11.554 -0.5354 -0.4121 -0.0799
 5697TIP3    H138582   5.922   1.798  11.581 -1.0226  0.5288 -1.4276
 5697TIP3    H238583   5.809   1.710  11.632 -0.2665  0.5475  0.3292
 5698TIP3   OH238584   5.456   5.730  15.073 -0.0312 -0.6881 -0.1500
 5698TIP3    H138585   5.460   5.809  15.020 -0.3480 -0.7183 -0.2169
 5698TIP3    H238586   5.369   5.731  15.113 -0.1977 -1.2280 -0.4969
 5699TIP3   OH238587   0.912   1.932  14.556 -0.3009 -0.3669  0.2129
 5699TIP3    H138588   0.902   1.874  14.480 -1.7576 -0.1616  0.2263
 5699TIP3    H238589   0.993   1.904  14.597 -0.2980 -1.5193 -0.5485
 5700TIP3   OH238590   3.922   4.277   2.908 -1.2323 -0.4805  0.6147
 5700TIP3    H138591   3.958   4.267   2.820 -0.1707  0.4620  0.9142
 5700TIP3    H238592   3.854   4.343   2.899 -0.3344  0.4767  0.6861
 5701TIP3   OH238593   3.803   5.617  11.072  0.0005  0.3948 -0.3200
 5701TIP3    H138594   3.838   5.598  10.984  1.0622  0.5280  0.0659
 5701TIP3    H238595   3.827   5.708  11.088 -1.9098  0.9810 -0.6774
 5702TIP3   OH238596   1.515   0.954   1.669 -0.3273 -0.0435 -0.0286
 5702TIP3    H138597   1.545   1.006   1.743 -0.7337  0.6259 -0.3281
 5702TIP3    H238598   1.467   0.881   1.708 -1.1321  0.6820  0.3537
 5703TIP3   OH238599   6.748   0.962  14.435  0.6077  0.4754 -0.0394
 5703TIP3    H138600   6.788   1.025  14.495  2.8970 -1.5553  0.6772
 5703TIP3    H238601   6.698   0.904  14.492  1.0158 -0.1647 -0.3281
 5704TIP3   OH238602   4.795   0.076  12.056  0.2057  0.0854  0.2719
 5704TIP3    H138603   4.866   0.071  11.992  0.5470 -1.0835  0.7335
 5704TIP3    H238604   4.839   0.093  12.140 -0.2565  1.8607  0.1833
 5705TIP3   OH238605   2.717   5.624  12.298  0.3270 -0.2128  0.0845
 5705TIP3    H138606   2.765   5.542  12.308 -1.9764 -1.5426  0.5906
 5705TIP3    H238607   2.758   5.684  12.361  2.8376 -0.5648 -1.1737
 5706TIP3   OH238608   0.946   4.511   3.253 -0.2012  0.0743  0.5432
 5706TIP3    H138609   0.938   4.516   3.158 -1.6350 -0.4018  0.6232
 5706TIP3    H238610   1.035   4.540   3.271  0.4887 -0.9805 -1.0383
 5707TIP3   OH238611   6.816   1.025  16.338 -0.6997  0.0598 -0.1453
 5707TIP3    H138612   6.825   0.947  16.392  1.2238  0.3698  0.0298
 5707TIP3    H238613   6.816   0.992  16.248 -0.1970 -0.1764 -0.0610
 5708TIP3   OH238614   3.318   0.844   1.944 -0.5982 -0.0397 -0.0649
 5708TIP3    H138615   3.223   0.855   1.943 -0.5335  0.9444  1.8561
 5708TIP3    H238616   3.353   0.933   1.948  0.3224 -0.4517  1.6434
 5709TIP3   OH238617   3.514   4.387  11.142  0.5355  0.7475  0.9951
 5709TIP3    H138618   3.605   4.395  11.115  0.1904 -1.2766 -0.9874
 5709TIP3    H238619   3.513   4.315  11.206  0.3515  0.8036  1.0581
 5710TIP3   OH238620   3.665   2.589  12.222  0.0405 -0.3467 -0.2796
 5710TIP3    H138621   3.645   2.677  12.254 -0.7413  0.2451 -2.3161
 5710TIP3    H238622   3.663   2.597  12.127 -0.5954 -2.6864 -0.4979
 5711TIP3   OH238623   2.438   6.342   0.905  0.5380 -0.2684 -0.2864
 5711TIP3    H138624   2.439   6.312   0.996  1.2169 -0.8267 -0.4745
 5711TIP3    H238625   2.505   6.410   0.901 -1.1370  1.4647  0.1862
 5712TIP3   OH238626   0.309   1.801   0.337 -0.1198  0.2022  0.8498
 5712TIP3    H138627   0.278   1.852   0.412  0.8113  1.7102  0.2255
 5712TIP3    H238628   0.402   1.788   0.353 -0.2020 -0.6788  0.6397
 5713TIP3   OH238629   2.091   5.650   5.504  0.3162  0.9973 -0.2513
 5713TIP3    H138630   2.008   5.697   5.518  0.1752  0.4478  0.7757
 5713TIP3    H238631   2.092   5.631   5.410 -0.8304  0.8269 -0.2364
 5714TIP3   OH238632   2.401   4.877   6.021 -0.7015  0.2217  0.2608
 5714TIP3    H138633   2.365   4.790   6.001 -0.2681 -0.0409  0.6109
 5714TIP3    H238634   2.435   4.869   6.110 -0.2847  0.6309  0.1410
 5715TIP3   OH238635   0.850   5.631   2.125  0.4815 -0.7373 -0.0667
 5715TIP3    H138636   0.848   5.597   2.036 -0.4654 -0.4955 -0.1407
 5715TIP3    H238637   0.905   5.709   2.119 -1.3278  0.5164 -0.8914
 5716TIP3   OH238638   1.425   3.151  16.646 -0.8514  0.0613  0.1070
 5716TIP3    H138639   1.410   3.058  16.666 -2.5191  0.2578 -0.1117
 5716TIP3    H238640   1.436   3.192  16.732  3.5057 -0.8529  0.0968
 5717TIP3   OH238641   4.989   2.102  15.171  0.5113 -0.1981 -0.5620
 5717TIP3    H138642   4.954   2.172  15.227  1.9597 -0.9271  1.3006
 5717TIP3    H238643   4.914   2.047  15.152 -0.0612  0.2040  0.4748
 5718TIP3   OH238644   2.254   5.086  15.028  0.2586  0.4809 -0.3191
 5718TIP3    H138645   2.294   5.148  15.089 -0.9691  0.3958  0.5861
 5718TIP3    H238646   2.203   5.027  15.083  1.1133 -1.1236 -1.2048
 5719TIP3   OH238647   2.672   2.907   0.542 -0.1308 -0.3068 -0.1612
 5719TIP3    H138648   2.716   2.850   0.605 -0.6011 -1.4129 -0.8325
 5719TIP3    H238649   2.742   2.965   0.510  0.2098 -0.0614  1.0008
 5720TIP3   OH238650   2.174   4.161   2.744 -0.2215 -0.4870  0.0476
 5720TIP3    H138651   2.179   4.241   2.796  0.9448  0.2449 -1.1703
 5720TIP3    H238652   2.084   4.130   2.756 -0.4684  0.5918  1.1046
 5721TIP3   OH238653   3.255   3.789  16.274 -0.0140 -0.3390 -0.5932
 5721TIP3    H138654   3.337   3.778  16.226  0.4344 -1.7269  0.4503
 5721TIP3    H238655   3.198   3.836  16.214  2.9162  4.4536  0.1718
 5722TIP3   OH238656   2.884   0.839  14.055  0.1886 -0.2947  0.1534
 5722TIP3    H138657   2.811   0.824  14.115  1.2538 -0.8729  1.3470
 5722TIP3    H238658   2.857   0.799  13.973 -1.7048  1.3534 -0.0717
 5723TIP3   OH238659   5.223   4.771  15.603 -0.2740 -0.3473  0.6772
 5723TIP3    H138660   5.191   4.704  15.542 -1.0181 -1.3728  2.1507
 5723TIP3    H238661   5.277   4.723  15.665  0.9903  0.7890  0.4795
 5724TIP3   OH238662   4.036   1.314  14.271  0.5182 -0.2940 -0.7295
 5724TIP3    H138663   4.101   1.381  14.249  0.1212  0.8545  1.4686
 5724TIP3    H238664   4.013   1.332  14.361 -2.2380 -1.2310 -1.2115
 5725TIP3   OH238665   2.850   6.399   4.794 -0.0368 -0.1875 -0.3706
 5725TIP3    H138666   2.930   6.388   4.846  0.2934  2.2251 -0.3006
 5725TIP3    H238667   2.875   6.371   4.705 -0.1959 -2.9251  0.4001
 5726TIP3   OH238668   5.391   6.691   0.133  0.5821 -0.1489 -0.0633
 5726TIP3    H138669   5.380   6.597   0.118 -0.0703  0.0452 -0.8000
 5726TIP3    H238670   5.442   6.722   0.058 -1.2578  0.5188 -1.0647
 5727TIP3   OH238671   4.987   2.094   0.238  0.0194 -0.3714 -0.3594
 5727TIP3    H138672   4.921   2.065   0.175  0.1216 -0.1602 -0.5653
 5727TIP3    H238673   5.016   2.179   0.204 -0.3175 -0.0015  0.2673
 5728TIP3   OH238674   5.849   0.743  10.995 -1.1517 -0.3079  0.3020
 5728TIP3    H138675   5.818   0.653  10.986 -0.5802 -0.5427  0.6274
 5728TIP3    H238676   5.945   0.735  10.995 -1.0384  0.5021 -1.9045
 5729TIP3   OH238677   2.234   5.666  16.974 -0.1082 -0.4438  0.4459
 5729TIP3    H138678   2.179   5.589  16.962  0.1476 -0.6442  0.5661
 5729TIP3    H238679   2.317   5.632  17.007 -0.4286 -0.0097  1.7425
 5730TIP3   OH238680   0.428   4.243   5.044  0.2553 -0.0787 -0.5990
 5730TIP3    H138681   0.471   4.158   5.034  1.3781  0.1846  1.6602
 5730TIP3    H238682   0.490   4.295   5.096 -2.7189  0.3780  2.6264
 5731TIP3   OH238683   2.137   2.026  12.822  0.0644 -0.1593  0.0566
 5731TIP3    H138684   2.096   2.072  12.895 -0.9247 -1.1407  0.1260
 5731TIP3    H238685   2.190   2.093  12.778 -1.3581  1.0463  0.1635
 5732TIP3   OH238686   2.678   6.300   5.561 -0.0164  0.0629 -0.0127
 5732TIP3    H138687   2.679   6.301   5.656  1.8520  0.5715 -0.0183
 5732TIP3    H238688   2.675   6.392   5.536  1.2169  0.0027 -0.4301
 5733TIP3   OH238689   3.251   2.062   4.060 -0.0662  0.2513 -0.5631
 5733TIP3    H138690   3.188   1.994   4.083 -0.3660  0.6061 -0.3247
 5733TIP3    H238691   3.204   2.144   4.076 -0.0498  0.5112 -1.7686
 5734TIP3   OH238692   1.686   3.730  16.509  0.9694 -0.0951  0.0951
 5734TIP3    H138693   1.651   3.672  16.576 -0.8088 -0.9831 -1.5655
 5734TIP3    H238694   1.704   3.812  16.556 -1.3840 -0.2883  1.4281
 5735TIP3   OH238695   3.718   0.859  12.335 -0.2010 -0.3395  0.1325
 5735TIP3    H138696   3.667   0.896  12.263  1.3642 -0.4988 -1.0667
 5735TIP3    H238697   3.717   0.926  12.403  1.2998  1.2667 -1.4134
 5736TIP3   OH238698   1.090   6.207   0.412  0.2271 -0.3933  0.3217
 5736TIP3    H138699   1.059   6.287   0.454 -0.3944 -0.8668  0.7904
 5736TIP3    H238700   1.014   6.174   0.364  0.5429 -0.5779 -0.0492
 5737TIP3   OH238701   4.377   0.028   1.095 -0.2155  0.2609 -0.8251
 5737TIP3    H138702   4.386  -0.026   1.016  0.9858  1.7467 -1.7254
 5737TIP3    H238703   4.356   0.115   1.062 -0.5868  0.6930  0.5444
 5738TIP3   OH238704   5.647   4.668   1.891 -0.2758 -0.7296 -0.0293
 5738TIP3    H138705   5.647   4.760   1.863 -2.3013 -1.1050 -1.3701
 5738TIP3    H238706   5.731   4.657   1.935 -0.3941  2.0111  0.9961
 5739TIP3   OH238707   1.481   2.272   2.018  0.0683 -0.8184 -0.6900
 5739TIP3    H138708   1.517   2.294   1.932  0.3072  3.4682  0.3661
 5739TIP3    H238709   1.399   2.321   2.023  1.7246  1.8349  2.7515
 5740TIP3   OH238710   2.956   1.250   5.990  0.2578 -0.5946  0.5678
 5740TIP3    H138711   2.917   1.337   6.005  1.6358  0.4742 -1.7584
 5740TIP3    H238712   2.906   1.214   5.917 -0.4460 -1.8685  1.6702
 5741TIP3   OH238713   3.033   5.644  13.822 -0.1505 -0.6871 -0.2809
 5741TIP3    H138714   3.084   5.563  13.827  1.9842  0.5263 -1.7033
 5741TIP3    H238715   2.955   5.620  13.771  0.0302 -2.0510  0.0722
 5742TIP3   OH238716   2.733   5.334   6.152 -0.0130  0.0238 -0.3462
 5742TIP3    H138717   2.715   5.359   6.062  0.4602  0.8415 -0.2222
 5742TIP3    H238718   2.827   5.349   6.162  0.1602 -1.2382 -0.0836
 5743TIP3   OH238719   2.257   4.319  11.742 -0.6338 -0.2596  0.1490
 5743TIP3    H138720   2.330   4.257  11.744 -0.8558 -0.4926  1.5685
 5743TIP3    H238721   2.293   4.398  11.702 -0.5152 -1.5133 -2.2684
 5744TIP3   OH238722   0.371   3.124   1.813 -0.0808  0.2416 -0.6965
 5744TIP3    H138723   0.355   3.107   1.906 -0.4404 -0.5455 -0.8988
 5744TIP3    H238724   0.313   3.197   1.792  0.6122  0.9676 -0.1023
 5745TIP3   OH238725   0.614   0.770  10.388  0.3431 -0.9653  0.3793
 5745TIP3    H138726   0.677   0.824  10.435  0.2671 -0.8451  0.3420
 5745TIP3    H238727   0.641   0.680  10.408 -0.2725 -0.9256  1.4454
 5746TIP3   OH238728   6.497   1.937   4.096 -0.2547 -0.0228 -0.0368
 5746TIP3    H138729   6.551   1.892   4.160  1.5830  1.4625 -0.5122
 5746TIP3    H238730   6.511   2.030   4.113 -0.9223  0.3842 -1.6091
 5747TIP3   OH238731   0.820   1.353  12.958 -0.2157 -0.2384 -0.2243
 5747TIP3    H138732   0.843   1.398  13.040  1.3101 -1.3535 -0.0285
 5747TIP3    H238733   0.740   1.305  12.980 -0.4755  0.3994  0.2696
 5748TIP3   OH238734   3.578   5.690  11.836 -0.1246 -0.3533  0.0010
 5748TIP3    H138735   3.622   5.675  11.752  2.1281  2.0758  0.6616
 5748TIP3    H238736   3.650   5.701  11.898 -1.7702 -2.1750  2.2717
 5749TIP3   OH238737   0.387   1.833  13.660  0.4113  0.1362  0.3152
 5749TIP3    H138738   0.460   1.815  13.720  1.0012  2.4886  0.3648
 5749TIP3    H238739   0.428   1.868  13.581 -0.5453 -0.4827 -0.4789
 5750TIP3   OH238740   3.614   3.154  14.158  0.5497 -0.1786  0.4738
 5750TIP3    H138741   3.695   3.112  14.130  0.9267  0.1136  1.1016
 5750TIP3    H238742   3.569   3.087  14.209 -1.1643 -1.4442 -2.5834
 5751TIP3   OH238743   3.122   2.991  15.851  0.3373  0.1506 -0.6840
 5751TIP3    H138744   3.110   2.896  15.841  0.3821  0.3271 -2.4961
 5751TIP3    H238745   3.142   3.022  15.763  0.5662  1.8234 -0.0546
 5752TIP3   OH238746   3.315   1.133   6.308  0.4814 -0.1087  0.6092
 5752TIP3    H138747   3.371   1.183   6.368 -0.4767 -0.5452  1.8716
 5752TIP3    H238748   3.249   1.093   6.364 -1.4274  0.8235 -0.9267
 5753TIP3   OH238749   6.268   4.849  12.615 -0.2142 -0.0822 -0.4968
 5753TIP3    H138750   6.341   4.905  12.642  0.6840 -2.0464  1.2246
 5753TIP3    H238751   6.277   4.845  12.519  0.9240  1.0695 -0.4617
 5754TIP3   OH238752   2.418   1.824  12.243 -0.0644 -0.5081  0.4809
 5754TIP3    H138753   2.421   1.759  12.314  1.1654 -1.1913 -0.1913
 5754TIP3    H238754   2.399   1.773  12.165  1.0726 -0.0802 -0.0791
 5755TIP3   OH238755   0.630   0.138  16.951 -0.3578 -0.0366  0.0177
 5755TIP3    H138756   0.542   0.101  16.957  0.1493 -1.2746 -0.0165
 5755TIP3    H238757   0.676   0.102  17.027  0.5798 -0.7003 -0.8497
 5756TIP3   OH238758   4.864   1.603  15.661  0.1331  0.0761 -0.1978
 5756TIP3    H138759   4.904   1.690  15.651 -0.0381  0.3007  1.0478
 5756TIP3    H238760   4.771   1.618  15.647 -0.2674  0.6076  2.8384
 5757TIP3   OH238761   1.713   5.382   2.389 -0.3308  0.6825 -0.4477
 5757TIP3    H138762   1.697   5.327   2.312  2.5819 -0.7414 -0.0788
 5757TIP3    H238763   1.739   5.467   2.353  1.5903 -0.1513 -1.0677
 5758TIP3   OH238764   2.197   5.869  11.728 -0.3321 -0.0972  0.3065
 5758TIP3    H138765   2.173   5.896  11.640 -0.5321  0.8992  0.6634
 5758TIP3    H238766   2.235   5.782  11.717 -2.4404 -0.9604 -0.4957
 5759TIP3   OH238767   0.122   3.166   0.758 -0.1612  0.6842 -0.2349
 5759TIP3    H138768   0.198   3.150   0.814  0.5435 -1.2470 -1.6607
 5759TIP3    H238769   0.049   3.126   0.804  0.8088 -2.8873 -1.6664
 5760TIP3   OH238770   3.654   2.234  13.480  0.2459 -0.0204  0.0749
 5760TIP3    H138771   3.705   2.278  13.548 -0.1896 -2.6565  2.2151
 5760TIP3    H238772   3.572   2.212  13.523 -0.3679 -1.0083 -1.5803
 5761TIP3   OH238773   5.742   2.485   5.218 -0.2109  0.0388 -0.5934
 5761TIP3    H138774   5.737   2.395   5.250 -1.2013  0.3730  0.1957
 5761TIP3    H238775   5.812   2.525   5.270  0.6948 -0.4594 -1.4163
 5762TIP3   OH238776   2.987   2.046  11.079 -0.6929 -0.1947  0.0478
 5762TIP3    H138777   2.981   2.025  10.986  1.3140  1.5491 -0.5147
 5762TIP3    H238778   2.913   2.105  11.096 -1.3916 -0.9654 -0.2881
 5763TIP3   OH238779   1.265   0.917   4.911 -0.0933 -0.6237  0.1153
 5763TIP3    H138780   1.324   0.856   4.955  1.0024  0.0718 -0.3627
 5763TIP3    H238781   1.309   1.002   4.918 -2.0057  0.2955  1.5668
 5764TIP3   OH238782   2.041   2.398  14.849  0.4452  0.8129 -0.1750
 5764TIP3    H138783   2.104   2.334  14.816 -0.7573  0.2406 -1.4051
 5764TIP3    H238784   1.961   2.381  14.799 -1.0714  0.6915  2.2338
 5765TIP3   OH238785   0.694   0.315   4.105 -0.3764  0.2464  0.7310
 5765TIP3    H138786   0.750   0.385   4.072 -0.5865  0.2314  0.3408
 5765TIP3    H238787   0.606   0.341   4.079 -0.3108 -0.8090 -0.5476
 5766TIP3   OH238788   4.378   5.929   2.694 -0.3282  0.1538  0.1933
 5766TIP3    H138789   4.304   5.932   2.633  0.1179 -0.4005 -0.3872
 5766TIP3    H238790   4.369   5.844   2.738  1.1424 -0.9048 -1.4226
 5767TIP3   OH238791   0.446   3.376   5.427  0.7181 -0.0006 -0.1911
 5767TIP3    H138792   0.362   3.372   5.473  0.4424  2.0517 -0.4631
 5767TIP3    H238793   0.508   3.405   5.493  0.9313 -0.0424 -0.3733
 5768TIP3   OH238794   2.872   3.478   0.846  0.4008  0.0544 -0.1777
 5768TIP3    H138795   2.783   3.491   0.879 -0.4686 -4.1070 -0.6410
 5768TIP3    H238796   2.878   3.535   0.769 -1.4179  1.2980  0.5645
 5769TIP3   OH238797   6.739   2.092  11.375  0.1952  0.3590 -0.4877
 5769TIP3    H138798   6.786   2.171  11.400 -1.4989  1.0956  0.4793
 5769TIP3    H238799   6.721   2.104  11.282 -0.9404  1.6212 -0.1323
 5770TIP3   OH238800   1.445   0.099   4.547 -0.1015  0.5583 -0.2127
 5770TIP3    H138801   1.391   0.021   4.561 -2.6728  2.4472  0.7577
 5770TIP3    H238802   1.461   0.100   4.453  0.4238 -1.4234 -0.1646
 5771TIP3   OH238803   2.524   6.650  11.724  0.1360 -0.0214 -0.8216
 5771TIP3    H138804   2.532   6.705  11.802  0.9367 -1.3731  0.0702
 5771TIP3    H238805   2.465   6.699  11.667 -1.0271  0.6834  0.9073
 5772TIP3   OH238806   1.962   0.813   1.013  0.7761  0.3388  0.3166
 5772TIP3    H138807   2.030   0.759   0.972  0.2514  0.2303 -0.4215
 5772TIP3    H238808   1.982   0.811   1.106  1.1644 -0.5617  0.2123
 5773TIP3   OH238809   2.341   6.083   0.054  0.8049  0.3735 -0.3936
 5773TIP3    H138810   2.432   6.057   0.065  0.6910  0.4090  0.6631
 5773TIP3    H238811   2.299   6.006   0.015  0.5198 -1.0319  2.4939
 5774TIP3   OH238812   3.081   3.697   4.102 -0.1554 -0.2771 -0.2730
 5774TIP3    H138813   3.019   3.645   4.051 -0.1024  0.1305 -0.7561
 5774TIP3    H238814   3.108   3.639   4.173 -3.5616  0.6646  1.8710
 5775TIP3   OH238815   5.817   5.353  12.406 -0.1320 -0.1068 -0.0909
 5775TIP3    H138816   5.851   5.322  12.322  1.0651 -0.6974  0.6022
 5775TIP3    H238817   5.856   5.294  12.471  0.0671  1.2266  1.0115
 5776TIP3   OH238818   0.331   3.038  13.107 -0.2805  0.0980 -0.9097
 5776TIP3    H138819   0.348   2.943  13.100  1.4757  0.3392 -0.2784
 5776TIP3    H238820   0.354   3.072  13.021  0.5532  0.1472 -0.6721
 5777TIP3   OH238821   5.514   3.242   1.708  0.0618  0.5146 -0.2453
 5777TIP3    H138822   5.443   3.303   1.687  1.1136  2.2292  1.0047
 5777TIP3    H238823   5.584   3.265   1.646  0.8804  1.4003  0.9690
 5778TIP3   OH238824   4.784   1.015  16.341 -0.4516 -0.4081  1.1415
 5778TIP3    H138825   4.751   0.953  16.405 -2.2178 -0.8729 -0.1960
 5778TIP3    H238826   4.785   0.967  16.258 -0.8350  1.0102  0.2940
 5779TIP3   OH238827   4.673   0.532  17.014 -0.0820  0.0566  0.4687
 5779TIP3    H138828   4.650   0.468  16.946  1.0436 -1.8523  1.8322
 5779TIP3    H238829   4.606   0.600  17.007 -0.6147 -0.6562 -1.8077
 5780TIP3   OH238830   5.150   1.176  10.681  0.3000  0.0308 -0.2954
 5780TIP3    H138831   5.155   1.129  10.764 -0.3694 -0.2768 -0.4336
 5780TIP3    H238832   5.123   1.110  10.617  1.5732  0.0805 -0.9105
 5781TIP3   OH238833   2.558   5.347  16.182  0.1132 -0.2080  0.2178
 5781TIP3    H138834   2.600   5.422  16.142 -1.0197 -0.8141 -2.1867
 5781TIP3    H238835   2.536   5.376  16.271 -2.2466  3.0687 -1.3221
 5782TIP3   OH238836   6.340   0.524   6.103 -0.1166 -0.3753 -0.0208
 5782TIP3    H138837   6.410   0.521   6.168 -0.8908 -1.8607  0.7663
 5782TIP3    H238838   6.278   0.587   6.137  0.4623  0.3743 -0.3415
 5783TIP3   OH238839   3.232   1.235   0.567  0.2881 -0.7149 -0.0442
 5783TIP3    H138840   3.154   1.243   0.621  0.4541 -1.1783  0.2622
 5783TIP3    H238841   3.199   1.234   0.477  0.1702  2.3872 -0.0779
 5784TIP3   OH238842   4.062   4.535  14.234  0.4921 -0.4978  0.3990
 5784TIP3    H138843   4.001   4.578  14.173 -1.0111 -2.8181  0.2175
 5784TIP3    H238844   4.071   4.598  14.306  0.7284  1.4148 -1.2511
 5785TIP3   OH238845   0.521   1.787   3.079 -0.0475  0.9521  0.2089
 5785TIP3    H138846   0.523   1.735   2.999  0.5956  1.0151  0.1773
 5785TIP3    H238847   0.473   1.867   3.054 -1.3201  0.2473  0.3476
 5786TIP3   OH238848   5.905   0.871  16.077 -0.2866  0.1924  0.6764
 5786TIP3    H138849   5.813   0.853  16.096 -0.1794 -0.5006  0.5554
 5786TIP3    H238850   5.907   0.884  15.982 -0.3756  0.9364  0.7705
 5787TIP3   OH238851   4.726   0.896   4.824  0.2182  0.1378 -0.2569
 5787TIP3    H138852   4.711   0.807   4.790 -0.7231 -0.7402  2.3170
 5787TIP3    H238853   4.638   0.931   4.835  0.5407  0.6589  0.6124
 5788TIP3   OH238854   6.520   3.093  10.718 -0.0709 -0.0453  0.2303
 5788TIP3    H138855   6.531   3.183  10.690 -0.6813 -0.2470 -0.6952
 5788TIP3    H238856   6.606   3.053  10.707  0.0189  0.2309 -0.0632
 5789TIP3   OH238857   5.280   1.354  14.035 -0.0180  0.3178  0.0019
 5789TIP3    H138858   5.250   1.398  13.956 -2.4212 -1.0185  0.1037
 5789TIP3    H238859   5.334   1.282  14.004 -2.4143 -1.2980 -0.5729
 5790TIP3   OH238860   4.128   0.692  14.404 -0.2741 -0.1297 -0.1507
 5790TIP3    H138861   4.196   0.753  14.376 -0.5767 -0.1328 -0.9040
 5790TIP3    H238862   4.046   0.740  14.394 -0.5349 -0.7330 -0.9754
 5791TIP3   OH238863   4.198   3.718   5.213 -0.3737 -0.3627 -0.2721
 5791TIP3    H138864   4.166   3.793   5.263 -1.6163  0.0265 -1.6354
 5791TIP3    H238865   4.276   3.750   5.168 -0.4405 -0.1211 -0.2150
 5792TIP3   OH238866   0.550   6.189   3.599  0.4301  0.0860  0.0001
 5792TIP3    H138867   0.520   6.127   3.665  1.1081  0.5493  0.7421
 5792TIP3    H238868   0.566   6.135   3.522 -0.8753 -0.3794  0.0371
 5793TIP3   OH238869   4.348   2.713   1.120  0.7624  0.2608  0.5579
 5793TIP3    H138870   4.417   2.729   1.055 -0.5588 -3.0281 -1.7709
 5793TIP3    H238871   4.266   2.731   1.073 -0.1868 -1.5102  1.4951
 5794TIP3   OH238872   6.416   3.753  11.537 -0.1642 -0.0450  0.2693
 5794TIP3    H138873   6.400   3.772  11.445  1.6027 -1.1789 -0.3105
 5794TIP3    H238874   6.415   3.838  11.580  0.3277  0.6334 -1.0243
 5795TIP3   OH238875   1.933   2.965  11.373 -0.4052  0.2544 -0.1018
 5795TIP3    H138876   1.902   2.894  11.318 -2.6889  0.3037  1.0469
 5795TIP3    H238877   1.859   3.026  11.377  1.2246  2.2992 -0.4182
 5796TIP3   OH238878   6.548   6.495  16.296  0.5747 -0.3979  0.5794
 5796TIP3    H138879   6.493   6.513  16.219 -0.0712  0.1724  1.1632
 5796TIP3    H238880   6.537   6.401  16.311 -1.7376  0.0312  1.8011
 5797TIP3   OH238881   1.909   5.796   6.668 -0.0358 -0.6816 -0.7734
 5797TIP3    H138882   1.921   5.719   6.724  0.9386  0.5418  0.7157
 5797TIP3    H238883   1.822   5.829   6.691  0.7091  0.3168  0.6550
 5798TIP3   OH238884   2.259   1.659  15.346  0.0073  0.3821 -0.2210
 5798TIP3    H138885   2.296   1.637  15.431  1.1625 -1.9236 -1.2625
 5798TIP3    H238886   2.316   1.727  15.311  0.5108  0.1683  0.1765
 5799TIP3   OH238887   4.660   3.248  12.119 -0.1956  0.2383  0.3400
 5799TIP3    H138888   4.573   3.287  12.111 -0.5587 -0.8865 -1.4292
 5799TIP3    H238889   4.653   3.163  12.076  2.6340  1.5340 -2.9062
 5800TIP3   OH238890   3.116   3.952   4.215  0.0906  0.3674  0.0016
 5800TIP3    H138891   3.105   3.868   4.171  2.2058 -0.0305  0.1491
 5800TIP3    H238892   3.063   3.945   4.294  1.8994 -1.6972  1.1002
 5801TIP3   OH238893   3.013   0.678  13.783  0.2774  0.4418 -0.1062
 5801TIP3    H138894   3.068   0.678  13.862  0.2848  1.9104 -0.0980
 5801TIP3    H238895   3.065   0.723  13.717 -0.5813  1.1191 -0.3371
 5802TIP3   OH238896   0.957   2.528   2.893 -0.9543  0.0222  0.5119
 5802TIP3    H138897   0.916   2.522   2.979 -0.1593 -1.6784  0.8000
 5802TIP3    H238898   1.038   2.477   2.902 -0.7511  0.0264 -1.1686
 5803TIP3   OH238899   4.942   0.730   1.463 -0.3011  0.5748  0.1563
 5803TIP3    H138900   4.978   0.730   1.374  1.1971 -2.6262  0.6678
 5803TIP3    H238901   4.969   0.813   1.501 -0.5200  1.7531 -2.2019
 5804TIP3   OH238902   3.350   1.121   1.912  0.4148  0.3425  0.1101
 5804TIP3    H138903   3.387   1.159   1.992 -0.2613  1.6343 -0.1898
 5804TIP3    H238904   3.343   1.194   1.851 -1.4303 -0.1346 -0.2817
 5805TIP3   OH238905   1.415   3.549  16.475 -0.3359  0.3234 -0.2905
 5805TIP3    H138906   1.449   3.496  16.547 -0.6558  1.1215  0.4601
 5805TIP3    H238907   1.481   3.542  16.407 -1.3451 -2.8012 -1.0541
 5806TIP3   OH238908   2.610   5.044   6.051 -0.1636 -0.0277  0.1620
 5806TIP3    H138909   2.608   5.014   6.141 -0.1620  0.6565  0.3936
 5806TIP3    H238910   2.536   4.999   6.009  2.1295 -3.4057 -0.5098
 5807TIP3   OH238911   4.692   6.227   5.058  0.5621  0.1838  0.7480
 5807TIP3    H138912   4.749   6.275   4.998 -0.1697 -1.9408 -1.7099
 5807TIP3    H238913   4.708   6.135   5.038 -2.3522 -0.4799  1.3185
 5808TIP3   OH238914   1.359   1.149   1.198 -0.3863 -0.7575  0.3305
 5808TIP3    H138915   1.426   1.086   1.170 -0.4556 -0.1730 -1.1561
 5808TIP3    H238916   1.324   1.111   1.279  2.4485 -0.5641  1.7205
 5809TIP3   OH238917   4.710   5.150  16.879  0.0798  0.1581 -0.1935
 5809TIP3    H138918   4.658   5.228  16.864 -1.2436 -0.8201 -0.8320
 5809TIP3    H238919   4.745   5.161  16.967 -1.1970  0.8546  0.2480
 5810TIP3   OH238920   4.674   3.334   0.702  0.6987  0.1437  0.2821
 5810TIP3    H138921   4.728   3.305   0.776  2.2702 -0.1410 -0.9522
 5810TIP3    H238922   4.640   3.254   0.663  0.6148  0.2461  0.1401
 5811TIP3   OH238923   2.196   4.368   1.478  0.0747 -0.2887 -0.8968
 5811TIP3    H138924   2.195   4.373   1.574 -1.3401  1.3912 -0.9788
 5811TIP3    H238925   2.278   4.410   1.452  0.6682 -1.1297 -0.4230
 5812TIP3   OH238926   1.580   0.151   2.809 -0.3494  0.2798 -0.1080
 5812TIP3    H138927   1.666   0.113   2.824 -0.2087  0.7058  0.1674
 5812TIP3    H238928   1.548   0.108   2.729 -0.0186 -0.1098 -0.0308
 5813TIP3   OH238929   5.364   1.791  10.564 -0.6703  0.3907 -0.2473
 5813TIP3    H138930   5.331   1.862  10.511  0.2365 -1.8149 -3.9564
 5813TIP3    H238931   5.456   1.813  10.579 -0.1905 -0.3252 -2.0425
 5814TIP3   OH238932   5.462   4.157  13.284 -0.0348 -0.0007  0.2325
 5814TIP3    H138933   5.529   4.097  13.318 -0.2984  0.5179  1.6980
 5814TIP3    H238934   5.504   4.243  13.285 -0.6840  0.3111  1.0684
 5815TIP3   OH238935   2.573   0.110  15.470 -0.5878 -0.0047  0.1214
 5815TIP3    H138936   2.580   0.027  15.424  2.2955 -0.8634  2.0110
 5815TIP3    H238937   2.663   0.136  15.488 -1.5270  1.5158  3.0653
 5816TIP3   OH238938   3.332   2.719  11.249 -0.4470  0.3036  0.4982
 5816TIP3    H138939   3.257   2.759  11.292  0.3691  1.7464  0.5973
 5816TIP3    H238940   3.340   2.765  11.165  0.9172  0.8593  0.9083
 5817TIP3   OH238941   4.080   4.846   0.178  0.0477  0.1987 -0.0738
 5817TIP3    H138942   3.985   4.856   0.167  0.2696  2.7583  0.0921
 5817TIP3    H238943   4.107   4.792   0.104 -1.5915 -1.0124  0.1638
 5818TIP3   OH238944   0.422   2.808   0.192 -0.6673 -0.1185  0.3410
 5818TIP3    H138945   0.490   2.748   0.223 -2.4674 -1.0931  2.5849
 5818TIP3    H238946   0.394   2.773   0.108 -0.7605 -1.6633  1.0108
 5819TIP3   OH238947   0.990   0.648   1.040 -0.1052 -0.1461  0.6361
 5819TIP3    H138948   1.011   0.580   1.104  2.1826 -0.3936 -0.3042
 5819TIP3    H238949   0.983   0.600   0.957  0.7564  0.6521  0.0950
 5820TIP3   OH238950   5.658   3.730  12.832 -0.3450 -0.4180  0.3062
 5820TIP3    H138951   5.584   3.790  12.843 -0.8247 -0.8413 -0.5676
 5820TIP3    H238952   5.694   3.751  12.746  0.2893 -0.5141  0.5413
 5821TIP3   OH238953   2.666   5.753  13.399 -0.5890 -0.1617  0.1892
 5821TIP3    H138954   2.645   5.721  13.487 -1.0606 -1.1541 -0.2763
 5821TIP3    H238955   2.584   5.793  13.369 -0.6536 -0.5130 -0.0974
 5822TIP3   OH238956   2.417   1.260   6.381 -0.1236  0.0474 -0.0190
 5822TIP3    H138957   2.478   1.200   6.424 -2.2950 -1.3965  1.1543
 5822TIP3    H238958   2.418   1.338   6.436  0.4307 -0.0820  0.1641
 5823TIP3   OH238959   6.334   1.419   5.869  0.2909 -0.1623  0.1436
 5823TIP3    H138960   6.408   1.380   5.822  0.0496 -0.7217  0.2247
 5823TIP3    H238961   6.334   1.374   5.954  0.0642  0.0802  0.2712
 5824TIP3   OH238962   2.400   3.398   2.639 -0.1245  0.0478 -0.2133
 5824TIP3    H138963   2.378   3.465   2.703 -0.1048 -0.1644  0.0166
 5824TIP3    H238964   2.342   3.415   2.565  1.4055  1.6983 -1.0716
 5825TIP3   OH238965   5.875   1.455  10.586  0.5642  0.3411  0.6096
 5825TIP3    H138966   5.793   1.412  10.612 -0.5065  1.7339 -0.4097
 5825TIP3    H238967   5.848   1.525  10.528  2.6201 -0.1085 -0.9307
 5826TIP3   OH238968   5.886   4.355  13.854 -0.3761  0.3770 -0.5092
 5826TIP3    H138969   5.876   4.448  13.830 -3.4693  0.5599  1.2161
 5826TIP3    H238970   5.813   4.311  13.811  0.2913 -1.0444 -0.2121
 5827TIP3   OH238971   2.978   2.442  15.840 -0.1079  0.0544  0.1862
 5827TIP3    H138972   2.957   2.533  15.816  0.2689  0.2464  0.5777
 5827TIP3    H238973   2.978   2.395  15.757  1.6834  0.8087 -0.2583
 5828TIP3   OH238974   6.415   2.659  13.933 -0.1559 -0.1551  0.0606
 5828TIP3    H138975   6.466   2.695  14.006 -0.3128 -0.9538  0.5727
 5828TIP3    H238976   6.325   2.658  13.965 -0.1381 -1.0996  0.0952
 5829TIP3   OH238977   5.582   2.785   5.077  0.1027 -0.3893 -0.0998
 5829TIP3    H138978   5.538   2.851   5.023 -1.8500  0.2990  2.2688
 5829TIP3    H238979   5.657   2.831   5.114  1.0259 -0.6574 -1.5715
 5830TIP3   OH238980   2.903   4.702  12.795 -0.0860 -0.5115 -0.2592
 5830TIP3    H138981   2.937   4.752  12.869  1.9992 -0.6100 -1.1270
 5830TIP3    H238982   2.965   4.629  12.784 -0.3713 -0.5157 -2.0718
 5831TIP3   OH238983   5.710   5.697  12.810 -0.3700  0.3138  0.6548
 5831TIP3    H138984   5.679   5.788  12.815 -1.5702  0.0983 -2.3157
 5831TIP3    H238985   5.758   5.693  12.728 -1.4840 -2.0905  0.0959
 5832TIP3   OH238986   1.329   2.001   0.437 -0.6151  0.5200  0.0032
 5832TIP3    H138987   1.272   2.074   0.460 -0.3904  1.0169 -1.0220
 5832TIP3    H238988   1.360   2.020   0.349  0.4224 -0.1954  0.1979
 5833TIP3   OH238989   5.585   1.690   0.716 -0.8029  0.3147 -0.0016
 5833TIP3    H138990   5.526   1.616   0.728 -0.5537  0.2414  0.7785
 5833TIP3    H238991   5.585   1.735   0.800  0.0529  0.4597 -0.0742
 5834TIP3   OH238992   4.892   3.069  16.026 -0.3995  0.2390 -1.0482
 5834TIP3    H138993   4.987   3.056  16.032 -0.3380  0.9849 -0.3348
 5834TIP3    H238994   4.880   3.164  16.027 -1.3355  0.1334  2.0940
 5835TIP3   OH238995   2.190   1.005  12.130  0.1337  0.2886 -0.0810
 5835TIP3    H138996   2.131   1.074  12.162  0.0472 -0.2319  0.8929
 5835TIP3    H238997   2.259   1.052  12.083 -0.3867  0.9856 -0.1468
 5836TIP3   OH238998   5.876   4.901   3.210  0.3278  0.2559 -0.3936
 5836TIP3    H138999   5.944   4.880   3.274 -1.5689 -2.2079  0.9156
 5836TIP3    H239000   5.805   4.940   3.263 -0.7438 -0.6157 -1.1609
 5837TIP3   OH239001   2.814   6.052  13.346  0.0652  0.5108  0.2497
 5837TIP3    H139002   2.755   5.988  13.306 -0.3227  2.3261 -2.2008
 5837TIP3    H239003   2.849   6.007  13.423 -1.2416 -2.1454 -0.6310
 5838TIP3   OH239004   1.502   5.511  15.536  0.7135 -0.4270 -0.5347
 5838TIP3    H139005   1.456   5.427  15.538  0.0769 -0.0852 -0.7062
 5838TIP3    H239006   1.486   5.545  15.448 -1.9647  1.4800  0.6141
 5839TIP3   OH239007   1.807   3.839   0.984 -0.5457 -1.0600 -0.2758
 5839TIP3    H139008   1.749   3.836   1.061  0.6101 -0.4925  0.6286
 5839TIP3    H239009   1.789   3.924   0.945 -1.2801 -1.4303 -0.7564
 5840TIP3   OH239010   5.984   2.834   5.662 -0.7378  0.1856 -0.1567
 5840TIP3    H139011   5.895   2.861   5.688 -0.3509  1.6319 -0.2886
 5840TIP3    H239012   5.987   2.740   5.682 -1.7722  0.4486  1.3298
 5841TIP3   OH239013   3.206   0.747  14.417  0.5310 -0.6414  0.2869
 5841TIP3    H139014   3.301   0.746  14.405  0.5586 -0.9193  0.5188
 5841TIP3    H239015   3.177   0.826  14.371  0.8441 -0.6983 -0.0108
 5842TIP3   OH239016   5.465   4.127  12.307 -0.2859  0.1548  0.4737
 5842TIP3    H139017   5.446   4.187  12.235 -2.4392  2.1096  2.5640
 5842TIP3    H239018   5.553   4.151  12.335 -0.6635  1.5858  0.5180
 5843TIP3   OH239019   6.226   3.622  12.153 -0.0768 -0.1610 -0.3944
 5843TIP3    H139020   6.297   3.681  12.179 -0.2218  0.0325 -0.4437
 5843TIP3    H239021   6.270   3.551  12.106  0.2984 -1.0038  1.2120
 5844TIP3   OH239022   2.767   5.828  15.423 -1.0792  0.0879 -0.1342
 5844TIP3    H139023   2.747   5.744  15.465  0.0189  0.8297  1.9425
 5844TIP3    H239024   2.726   5.822  15.337 -1.5324 -2.3426  0.2095
 5845TIP3   OH239025   6.549   0.640   5.609 -0.1813  0.8868  0.2105
 5845TIP3    H139026   6.605   0.715   5.588 -1.1040  1.3106 -0.7976
 5845TIP3    H239027   6.469   0.680   5.643 -0.1278  0.3049  1.0290
 5846TIP3   OH239028   0.170   1.048   4.962 -0.2531  0.3483 -0.1089
 5846TIP3    H139029   0.255   1.046   5.007 -0.2378 -1.9195 -0.1990
 5846TIP3    H239030   0.108   1.077   5.030  0.7074  3.1279 -0.3300
 5847TIP3   OH239031   5.808   0.622  14.839  0.1302 -0.0980 -0.0070
 5847TIP3    H139032   5.740   0.573  14.794  1.5907 -0.5283 -1.8202
 5847TIP3    H239033   5.803   0.710  14.802  0.2996 -0.0258  0.1415
 5848TIP3   OH239034   2.155   0.497  11.863  0.4388 -0.2331  0.0802
 5848TIP3    H139035   2.135   0.512  11.955 -1.2975  1.9966 -0.6081
 5848TIP3    H239036   2.247   0.468  11.862  1.4215  2.5832  2.2905
 5849TIP3   OH239037   4.797   2.698   3.759  0.0605 -0.8915 -0.2233
 5849TIP3    H139038   4.888   2.694   3.731 -0.0852 -2.2085 -0.5270
 5849TIP3    H239039   4.789   2.627   3.823  0.2755  1.7430  2.8369
 5850TIP3   OH239040   5.978   4.542   3.743  0.3590 -0.2304 -0.1471
 5850TIP3    H139041   6.041   4.566   3.812  0.1261 -0.3110  0.0966
 5850TIP3    H239042   6.026   4.555   3.661  1.0211 -1.2270  0.0640
 5851TIP3   OH239043   5.266   0.857  14.411 -0.0479  0.2775 -0.0870
 5851TIP3    H139044   5.225   0.864  14.325  3.6729 -0.4785 -2.0390
 5851TIP3    H239045   5.275   0.948  14.440 -0.1470  0.6370 -1.1377
 5852TIP3   OH239046   2.672   2.162   2.061 -0.3898 -0.3772  0.6531
 5852TIP3    H139047   2.759   2.142   2.026 -0.7351  1.2001 -1.2452
 5852TIP3    H239048   2.688   2.230   2.127 -0.2718  0.9787 -0.7224
 5853TIP3   OH239049   3.504   4.091  15.677 -0.4152 -0.2345 -0.3407
 5853TIP3    H139050   3.590   4.051  15.692  0.0339  0.4631 -1.0406
 5853TIP3    H239051   3.443   4.036  15.726  0.3532 -1.0841 -0.3330
 5854TIP3   OH239052   4.501   0.132   3.760 -0.2700 -0.2547  0.0343
 5854TIP3    H139053   4.563   0.062   3.742  0.0908 -0.0975  0.6504
 5854TIP3    H239054   4.495   0.181   3.678 -1.4984 -1.7585 -0.7971
 5855TIP3   OH239055   3.264   2.497  15.212 -0.4181 -0.2481 -0.4456
 5855TIP3    H139056   3.222   2.411  15.222  1.9446 -1.5876 -1.5880
 5855TIP3    H239057   3.223   2.534  15.134 -0.6512 -0.8465 -0.6153
 5856TIP3   OH239058   2.282   1.313  14.062 -0.9932  0.1807 -0.4766
 5856TIP3    H139059   2.294   1.387  14.121  0.4092 -1.0743  0.8632
 5856TIP3    H239060   2.264   1.353  13.977 -0.9468  2.0456  0.3583
 5857TIP3   OH239061   1.375   6.155  11.628 -0.4761 -0.4477 -0.3691
 5857TIP3    H139062   1.433   6.128  11.699 -0.6199 -1.4606 -0.6262
 5857TIP3    H239063   1.431   6.158  11.550 -0.5141 -0.2443 -0.3901
 5858TIP3   OH239064   4.287   4.736  14.915 -0.9319 -0.2591 -0.0252
 5858TIP3    H139065   4.319   4.712  15.002 -1.1242  0.3079  0.2112
 5858TIP3    H239066   4.195   4.758  14.929 -0.9755 -0.2154 -0.3821
 5859TIP3   OH239067   4.397   1.191   5.007 -0.7359  0.2634  0.0882
 5859TIP3    H139068   4.481   1.221   4.971  0.4378 -0.0656  2.4618
 5859TIP3    H239069   4.351   1.272   5.030 -1.6188  0.4873 -2.3457
 5860TIP3   OH239070   3.001   2.378   2.605 -0.3884  0.6669  0.2501
 5860TIP3    H139071   3.081   2.368   2.553 -0.3980  1.8129 -0.0016
 5860TIP3    H239072   2.964   2.461   2.575 -2.1932 -0.3297 -0.3231
 5861TIP3   OH239073   5.036   4.574   4.938 -0.3480 -0.0073  0.9173
 5861TIP3    H139074   5.110   4.541   4.887  0.0936  0.9841  0.8890
 5861TIP3    H239075   4.986   4.627   4.876 -0.0650  0.8215  1.3739
 5862TIP3   OH239076   1.323   6.188   1.064  0.2748 -0.3826  0.0591
 5862TIP3    H139077   1.325   6.123   0.994 -0.2315 -0.4284  0.0912
 5862TIP3    H239078   1.340   6.271   1.020  2.0124 -0.6563  0.1621
 5863TIP3   OH239079   3.104   5.257  10.974  0.7367  0.0572  0.7385
 5863TIP3    H139080   3.022   5.243  11.021  2.3918  0.8723  3.9804
 5863TIP3    H239081   3.131   5.170  10.947 -0.8069 -0.3020  0.3033
 5864TIP3   OH239082   5.175   2.139  13.487 -0.3049 -0.3909  0.0663
 5864TIP3    H139083   5.106   2.144  13.422 -0.9464 -0.3652  0.7426
 5864TIP3    H239084   5.250   2.103  13.440 -0.4926  0.4786 -0.8911
 5865TIP3   OH239085   0.963   6.602   3.933  0.4418  0.0568  0.6551
 5865TIP3    H139086   0.969   6.512   3.900  0.9375  0.3853 -0.1753
 5865TIP3    H239087   0.942   6.654   3.855 -2.5455  0.3279  1.5916
 5866TIP3   OH239088   2.819   5.572   2.253  0.4145  0.0529 -0.3920
 5866TIP3    H139089   2.787   5.631   2.184 -0.3827  0.0882  0.0051
 5866TIP3    H239090   2.750   5.572   2.319  0.0781 -1.8530 -0.6947
 5867TIP3   OH239091   0.428   5.813   0.437  0.2656  0.0826 -0.1317
 5867TIP3    H139092   0.336   5.833   0.422  0.1728  0.0105  0.3053
 5867TIP3    H239093   0.426   5.746   0.506  0.6468  0.1382 -0.0655
 5868TIP3   OH239094   4.698   5.509   5.614  0.1708  0.4838  0.4532
 5868TIP3    H139095   4.693   5.441   5.681  4.2805  1.4534  1.8616
 5868TIP3    H239096   4.703   5.461   5.532 -2.8936 -0.7531  0.9250
 5869TIP3   OH239097   6.023   5.127   4.873 -0.0367 -0.5557  0.2532
 5869TIP3    H139098   5.986   5.087   4.952  0.1839 -1.9993 -0.3647
 5869TIP3    H239099   5.954   5.185   4.841  0.4001  1.1882  2.2990
 5870TIP3   OH239100   4.836   0.278  13.031  0.2317 -0.0643  0.1656
 5870TIP3    H139101   4.890   0.279  13.109  3.7101 -3.2563 -1.9945
 5870TIP3    H239102   4.889   0.322  12.964 -0.6542 -1.4781 -1.5178
 5871TIP3   OH239103   2.901   6.131   4.270  0.2368 -0.4968 -0.1295
 5871TIP3    H139104   2.842   6.056   4.282  1.0645 -1.1551 -0.0908
 5871TIP3    H239105   2.985   6.091   4.247  0.5799  0.4434 -0.5254
 5872TIP3   OH239106   4.764   4.946   3.129  0.3372  0.0870  0.1956
 5872TIP3    H139107   4.821   5.023   3.124  0.2785  0.1037 -0.2875
 5872TIP3    H239108   4.699   4.960   3.060 -0.3544  0.1520  0.8568
 5873TIP3   OH239109   2.317   0.666  14.319  0.2972 -0.3134  0.0270
 5873TIP3    H139110   2.403   0.649  14.358  0.2728  0.5502  0.4703
 5873TIP3    H239111   2.262   0.690  14.393  0.2714  1.4375 -0.5353
 5874TIP3   OH239112   0.548   4.324  16.669  0.8196 -0.2629  0.0349
 5874TIP3    H139113   0.545   4.233  16.698  1.7283 -0.7223 -1.2489
 5874TIP3    H239114   0.587   4.372  16.743  2.0133 -1.2143  0.0395
 5875TIP3   OH239115   4.725   2.850  14.476  0.6519  0.4653 -0.5226
 5875TIP3    H139116   4.732   2.942  14.502  1.8168  0.7224 -1.6651
 5875TIP3    H239117   4.752   2.850  14.384 -0.3136 -0.8707 -0.8125
 5876TIP3   OH239118   1.965   1.187  17.066  0.4108 -0.8229  0.0654
 5876TIP3    H139119   2.056   1.210  17.084  0.2831 -0.2078 -0.0593
 5876TIP3    H239120   1.968   1.095  17.040  0.9156 -0.9829  0.6907
 5877TIP3   OH239121   5.077   5.522   5.516  0.6511 -0.0238  0.7595
 5877TIP3    H139122   5.156   5.519   5.462  0.5964 -0.2425  0.6932
 5877TIP3    H239123   5.094   5.593   5.579 -0.2025  1.7473 -0.9754
 5878TIP3   OH239124   6.752   6.557   1.596 -0.0475 -0.2556 -0.6311
 5878TIP3    H139125   6.778   6.484   1.540 -1.7474 -1.3317 -0.0829
 5878TIP3    H239126   6.656   6.552   1.599 -0.2189  2.0979 -0.6958
 5879TIP3   OH239127   2.663   0.073  15.976 -0.3008  0.3397  0.4142
 5879TIP3    H139128   2.612   0.137  16.026 -1.0242  1.5032 -1.7512
 5879TIP3    H239129   2.728   0.125  15.929  1.2193 -0.8779  1.1373
 5880TIP3   OH239130   0.977   2.530  13.279  0.1052 -0.3852  0.1045
 5880TIP3    H139131   0.950   2.440  13.263  1.0568 -0.8212  0.8711
 5880TIP3    H239132   0.924   2.559  13.352  0.3740 -0.6069  0.3900
 5881TIP3   OH239133   3.895   4.938   2.448 -0.5280 -0.1424 -0.2359
 5881TIP3    H139134   3.805   4.955   2.477 -0.8121  1.8397 -2.1564
 5881TIP3    H239135   3.949   4.960   2.524 -1.5779 -0.4780  0.6354
 5882TIP3   OH239136   5.162   4.589   2.650  0.6006  0.1933 -0.1211
 5882TIP3    H139137   5.178   4.590   2.745  2.4931 -0.0836 -0.4136
 5882TIP3    H239138   5.104   4.663   2.635 -1.1960 -0.8363  1.4916
 5883TIP3   OH239139   1.084   5.588  16.393 -0.0931  0.1352 -0.0418
 5883TIP3    H139140   1.059   5.662  16.338 -0.4383 -0.8426 -1.2355
 5883TIP3    H239141   1.166   5.556  16.355 -0.8178 -1.1303 -0.5890
 5884TIP3   OH239142   3.621   4.063   2.586 -0.2325 -0.1281  0.4087
 5884TIP3    H139143   3.579   4.076   2.671 -1.9866 -1.2083 -0.2720
 5884TIP3    H239144   3.607   4.146   2.539 -2.1220 -0.6587 -0.0103
 5885TIP3   OH239145   0.010   4.210   6.559  0.0973 -0.2505 -0.0464
 5885TIP3    H139146   0.090   4.254   6.587  0.1154  1.0570 -1.9966
 5885TIP3    H239147  -0.058   4.277   6.565  0.0675  0.0263 -2.7665
 5886TIP3   OH239148   4.022   4.618  14.552 -0.0464  0.0487  0.1681
 5886TIP3    H139149   4.004   4.602  14.645  1.2067  1.2621  0.6174
 5886TIP3    H239150   3.955   4.566  14.506 -0.7216 -0.4944  1.7349
 5887TIP3   OH239151   0.719   5.225  13.433 -0.0413 -0.5176 -0.6435
 5887TIP3    H139152   0.801   5.224  13.482  0.5645 -0.2243 -1.6464
 5887TIP3    H239153   0.652   5.209  13.499  0.3991  3.7574  1.0085
 5888TIP3   OH239154   2.873   5.014   1.410 -0.6509  0.1421  0.5780
 5888TIP3    H139155   2.868   5.074   1.336  1.9272 -1.5675 -1.0710
 5888TIP3    H239156   2.829   4.935   1.380  1.6810 -1.0907  0.2516
 5889TIP3   OH239157   0.736   5.652  12.706 -0.1179  0.3750  0.2974
 5889TIP3    H139158   0.791   5.650  12.784  1.6437 -1.6918 -0.9505
 5889TIP3    H239159   0.652   5.616  12.735 -0.1923  1.6634  1.7348
 5890TIP3   OH239160   6.465   3.156   5.405 -0.4001  0.0872  0.2778
 5890TIP3    H139161   6.461   3.121   5.316  2.0205 -0.0378  0.1798
 5890TIP3    H239162   6.499   3.245   5.395  1.9859 -0.6618  1.1928
 5891TIP3   OH239163   1.534   1.703  11.719  0.2794  0.1233 -0.2199
 5891TIP3    H139164   1.574   1.788  11.703  0.1055 -0.0315 -1.5698
 5891TIP3    H239165   1.443   1.723  11.741  0.5357  0.3523  0.6235
 5892TIP3   OH239166   1.781   6.480   5.444  0.1231  0.2250 -0.2061
 5892TIP3    H139167   1.703   6.505   5.495  0.2244 -1.3832  0.7737
 5892TIP3    H239168   1.758   6.395   5.406  0.5609  0.7981 -1.7811
 5893TIP3   OH239169   6.048   2.376  14.151 -0.1274 -0.6378  0.3230
 5893TIP3    H139170   5.957   2.374  14.122 -0.0187  2.2815 -0.3854
 5893TIP3    H239171   6.094   2.319  14.088 -1.2624 -1.2078 -0.0031
 5894TIP3   OH239172   4.310   5.214  15.525  0.3012  0.0283  0.5208
 5894TIP3    H139173   4.366   5.186  15.597 -0.0967  0.8558  1.1685
 5894TIP3    H239174   4.297   5.308  15.541  1.5932  0.6020 -1.5594
 5895TIP3   OH239175   6.296   2.323   4.560  0.2563  0.0843  0.3806
 5895TIP3    H139176   6.246   2.279   4.629 -1.3830  1.6159  0.1951
 5895TIP3    H239177   6.278   2.271   4.481 -0.8886  0.4964  0.3586
 5896TIP3   OH239178   0.871   1.621   2.724  0.4826  0.3178  0.6564
 5896TIP3    H139179   0.777   1.618   2.739  0.8126 -0.0141  2.7058
 5896TIP3    H239180   0.884   1.701   2.672 -0.9536  0.2026  0.1022
 5897TIP3   OH239181   4.647   0.108   6.537 -0.5117 -0.0649 -0.3796
 5897TIP3    H139182   4.588   0.035   6.518  0.2682 -0.3807 -1.5959
 5897TIP3    H239183   4.729   0.067   6.563 -0.0769  0.3880 -1.0440
 5898TIP3   OH239184   1.466   0.874  11.130 -0.3640 -0.3784 -0.5278
 5898TIP3    H139185   1.512   0.951  11.097 -0.3650 -0.7132 -1.3328
 5898TIP3    H239186   1.376   0.884  11.099 -0.4306 -0.5658 -0.3965
 5899TIP3   OH239187   4.712   6.574  13.510 -0.6536 -0.2753  0.3211
 5899TIP3    H139188   4.648   6.536  13.451  0.4935  0.0998 -1.2178
 5899TIP3    H239189   4.796   6.560  13.466  0.1527  0.6418  1.5353
 5900TIP3   OH239190   0.042   4.251  10.802  0.2841  0.1598 -0.0462
 5900TIP3    H139191   0.103   4.231  10.732 -0.4204  0.5318 -0.7747
 5900TIP3    H239192   0.080   4.210  10.880  1.3997  0.3086 -0.5057
 5901TIP3   OH239193   2.802   0.515  14.525 -0.4041  0.4523 -0.2527
 5901TIP3    H139194   2.841   0.586  14.474  1.2866  0.9644  1.7097
 5901TIP3    H239195   2.862   0.441  14.513  0.5107  0.8565  1.7297
 5902TIP3   OH239196   1.581   1.933  12.451 -0.2512  0.3924  0.0883
 5902TIP3    H139197   1.496   1.969  12.426 -0.7331  0.2745  1.5037
 5902TIP3    H239198   1.565   1.839  12.462  0.4916  0.0694 -1.4151
 5903TIP3   OH239199   2.099   2.834  13.811  0.2322 -0.4126  0.4524
 5903TIP3    H139200   2.157   2.876  13.874 -1.6254  0.6972  1.4417
 5903TIP3    H239201   2.159   2.788  13.751  2.3425  3.4111 -0.5492
 5904TIP3   OH239202   2.177   3.112  17.042  0.0140  0.2712  0.2612
 5904TIP3    H139203   2.257   3.152  17.008  1.4888 -1.3972  1.6813
 5904TIP3    H239204   2.133   3.078  16.965  1.2067  0.2789 -0.4406
 5905TIP3   OH239205   5.565   0.398   5.724 -0.1204  0.1439  0.1672
 5905TIP3    H139206   5.514   0.384   5.804  0.3407  0.3651  0.5067
 5905TIP3    H239207   5.546   0.322   5.669  0.0013 -0.2954  0.7286
 5906TIP3   OH239208   2.846   0.596  16.424 -0.1415  0.0165 -0.6222
 5906TIP3    H139209   2.850   0.596  16.519  1.6835 -0.4192 -0.6673
 5906TIP3    H239210   2.837   0.504  16.400 -0.1592  0.0865 -0.8810
 5907TIP3   OH239211   0.433   4.687   1.315  0.5448 -0.4422 -0.0555
 5907TIP3    H139212   0.525   4.662   1.331  0.8445 -0.0092 -1.0863
 5907TIP3    H239213   0.437   4.749   1.242 -0.5096  0.1338  0.3644
 5908TIP3   OH239214   1.701   6.688   3.890 -0.3471  0.0210  0.5622
 5908TIP3    H139215   1.765   6.707   3.821  2.0203 -0.6243  2.5208
 5908TIP3    H239216   1.665   6.603   3.866  1.1326 -0.6210  0.5773
 5909TIP3   OH239217   6.529   0.874   1.053 -0.1547 -0.0188  0.0651
 5909TIP3    H139218   6.591   0.947   1.047  0.5208 -0.5692  0.3338
 5909TIP3    H239219   6.576   0.799   1.016  0.1088 -0.9258  2.1981
 5910TIP3   OH239220   0.902   1.838   4.817 -0.0708 -0.4351  0.0986
 5910TIP3    H139221   0.900   1.932   4.796  1.4124 -0.5420 -0.6083
 5910TIP3    H239222   0.892   1.835   4.912 -1.7186  0.3388 -0.0270
 5911TIP3   OH239223   4.680   4.817   2.405 -0.0925  0.0433  0.6014
 5911TIP3    H139224   4.603   4.802   2.350  0.0370 -0.1334  0.4677
 5911TIP3    H239225   4.649   4.804   2.495 -0.1081 -0.5030  0.5195
 5912TIP3   OH239226   3.945   3.390   1.836 -0.2834 -0.3616  0.0709
 5912TIP3    H139227   3.877   3.338   1.879 -0.9254 -0.8896 -1.5420
 5912TIP3    H239228   4.025   3.339   1.845 -0.0280  0.3544  2.1567
 5913TIP3   OH239229   1.919   0.842  16.478 -0.2257 -0.3443  0.1271
 5913TIP3    H139230   2.003   0.797  16.482  1.6518  3.1769  2.9257
 5913TIP3    H239231   1.928   0.905  16.406 -0.4390  0.0947  0.4809
 5914TIP3   OH239232   6.316   2.755   0.122  0.7590  0.0214  0.1340
 5914TIP3    H139233   6.261   2.681   0.095  0.3598  0.7149 -1.0164
 5914TIP3    H239234   6.402   2.716   0.138  0.7260 -0.6006 -1.1243
 5915TIP3   OH239235   0.208   0.490   3.403 -0.0005  0.8625 -0.1857
 5915TIP3    H139236   0.191   0.454   3.490 -0.3434 -0.2262 -0.6957
 5915TIP3    H239237   0.258   0.421   3.358  0.9653  1.7798 -0.5522
 5916TIP3   OH239238   6.393   2.510  13.687 -1.1244  0.3151  0.3304
 5916TIP3    H139239   6.388   2.547  13.775  1.8330  1.7802 -0.0256
 5916TIP3    H239240   6.436   2.425  13.699 -2.0127 -0.1129  0.4602
 5917TIP3   OH239241   1.118   2.672   5.632  0.3185 -0.1663 -0.5011
 5917TIP3    H139242   1.177   2.606   5.668 -0.8543 -1.3416 -0.6671
 5917TIP3    H239243   1.070   2.626   5.563 -0.5305  0.8641 -0.6086
 5918TIP3   OH239244   3.094   6.485   3.398 -0.0496 -0.3079  0.0259
 5918TIP3    H139245   3.174   6.509   3.446 -0.9750  0.7198  1.0887
 5918TIP3    H239246   3.073   6.563   3.347  0.0843 -0.8774 -0.9075
 5919TIP3   OH239247   4.553   2.290   5.223  0.2006 -0.4053 -0.4062
 5919TIP3    H139248   4.513   2.281   5.136  0.1518 -0.9413 -0.3270
 5919TIP3    H239249   4.612   2.215   5.231 -0.2257 -0.6732  0.2539
 5920TIP3   OH239250   3.386   5.438  10.799  0.5436  0.2418 -0.8927
 5920TIP3    H139251   3.466   5.479  10.764  0.7368  0.6677  0.0078
 5920TIP3    H239252   3.366   5.368  10.738  1.1439  0.6622 -1.5843
 5921TIP3   OH239253   1.721   0.068  11.350  0.5523  1.0789 -0.0873
 5921TIP3    H139254   1.731   0.033  11.262  1.0694 -2.1980  1.2026
 5921TIP3    H239255   1.808   0.061  11.389  0.1459  1.7068  0.9613
 5922TIP3   OH239256   0.931   1.466  11.976 -0.0990  0.0151 -0.3057
 5922TIP3    H139257   1.027   1.471  11.974  0.0212 -1.6945 -0.1785
 5922TIP3    H239258   0.901   1.547  11.936  1.4039  0.8269  0.1885
 5923TIP3   OH239259   1.420   5.093   3.724 -0.0116  0.0001  0.0398
 5923TIP3    H139260   1.464   5.075   3.642  0.5340 -0.9061  0.5277
 5923TIP3    H239261   1.419   5.189   3.730  0.9703  0.0470 -0.4676
 5924TIP3   OH239262   6.070   2.225  15.578  0.0847 -0.5068  0.0231
 5924TIP3    H139263   5.999   2.168  15.608  0.5994 -0.2122  1.8776
 5924TIP3    H239264   6.026   2.300  15.539 -0.6139 -0.7314  0.3731
 5925TIP3   OH239265   0.169   4.323   3.634  0.0844 -0.1938  0.1091
 5925TIP3    H139266   0.134   4.342   3.546  0.4647  1.4836  0.3022
 5925TIP3    H239267   0.197   4.232   3.629  0.9566  0.1517 -1.8110
 5926TIP3   OH239268   5.612   4.340  14.521  0.1567  0.1197  0.4612
 5926TIP3    H139269   5.611   4.431  14.492  0.2862 -0.2638 -0.7721
 5926TIP3    H239270   5.679   4.299  14.467  0.4393 -0.6088  1.3461
 5927TIP3   OH239271   5.376   5.782  12.109 -0.0321  0.7087 -0.0853
 5927TIP3    H139272   5.332   5.728  12.174 -0.2586  0.9697 -0.0232
 5927TIP3    H239273   5.318   5.778  12.032 -0.0838  0.9260 -0.0565
 5928TIP3   OH239274   1.033   0.894   3.166 -0.8409 -0.5248  0.1172
 5928TIP3    H139275   1.017   0.979   3.125 -0.8385 -0.4557  0.2582
 5928TIP3    H239276   0.957   0.841   3.143 -1.3682 -0.1321  0.9606
 5929TIP3   OH239277   1.200   2.214   6.131  0.1617  0.2523 -0.3076
 5929TIP3    H139278   1.126   2.183   6.183  0.0571  0.9584 -0.0282
 5929TIP3    H239279   1.159   2.248   6.051  0.2309  0.1679 -0.3793
 5930TIP3   OH239280   3.127   0.554  17.149  0.0678  0.5103  0.3116
 5930TIP3    H139281   3.219   0.530  17.135 -0.3252 -0.5665 -0.5279
 5930TIP3    H239282   3.122   0.577  17.242  0.8643 -0.9358  0.7367
 5931TIP3   OH239283   0.929   3.084   2.006 -0.1542  0.3069 -0.6134
 5931TIP3    H139284   0.991   3.059   2.075 -0.2023  1.8029 -0.0267
 5931TIP3    H239285   0.982   3.084   1.926  1.2241  3.9765  0.2314
 5932TIP3   OH239286   0.042   0.065   3.377 -0.7010 -0.3329 -0.2891
 5932TIP3    H139287   0.045   0.097   3.286 -1.8385 -0.6370 -0.4346
 5932TIP3    H239288   0.051  -0.030   3.369 -3.0977 -0.5834 -0.2504
 5933TIP3   OH239289   1.937   4.416  16.452  0.2070 -0.1897 -0.1560
 5933TIP3    H139290   1.940   4.457  16.539 -0.1915 -0.5922  0.0530
 5933TIP3    H239291   1.914   4.488  16.393 -0.1367 -0.0376  0.1573
 5934TIP3   OH239292   2.919   5.452   5.311 -0.7157  0.3726 -0.7776
 5934TIP3    H139293   2.948   5.458   5.402 -0.4100  0.8978 -0.9056
 5934TIP3    H239294   2.838   5.402   5.314  0.3174 -1.3177 -0.4342
 5935TIP3   OH239295   2.185   3.406  12.429 -0.6002 -0.3282  0.1847
 5935TIP3    H139296   2.237   3.383  12.506 -1.1786 -3.3359 -0.2645
 5935TIP3    H239297   2.121   3.469  12.461  1.8987  1.7712  1.2092
 5936TIP3   OH239298   2.854   2.783   2.426  0.1336 -0.0620  0.1201
 5936TIP3    H139299   2.834   2.877   2.420  2.8347  0.4768 -1.2513
 5936TIP3    H239300   2.885   2.760   2.339  0.3601 -2.0405  0.7064
 5937TIP3   OH239301   3.797   1.539  12.608 -0.0795  0.5790  0.3937
 5937TIP3    H139302   3.740   1.609  12.638 -0.6422  0.2704  0.0663
 5937TIP3    H239303   3.869   1.583  12.563 -1.0715  0.9053 -0.9020
 5938TIP3   OH239304   1.334   3.711   4.183 -0.2158 -0.3773  0.6863
 5938TIP3    H139305   1.343   3.695   4.089  2.0826  1.1549  0.6166
 5938TIP3    H239306   1.287   3.794   4.189  1.7505  0.7664  0.8136
 5939TIP3   OH239307   6.533   1.399  15.312  0.2367 -0.1811 -0.0437
 5939TIP3    H139308   6.465   1.333  15.302  0.4359 -0.4554  0.3780
 5939TIP3    H239309   6.600   1.374  15.249  0.8188 -1.0414  0.8934
 5940TIP3   OH239310   2.896   1.464   5.069  0.1232 -0.0906 -0.0871
 5940TIP3    H139311   2.886   1.518   4.991  0.2360 -0.3848 -0.3053
 5940TIP3    H239312   2.991   1.462   5.085  0.1327 -0.3466 -0.1669
 5941TIP3   OH239313   2.874   3.457   4.601  0.5127 -0.1458  0.1416
 5941TIP3    H139314   2.852   3.515   4.527  0.3518  1.0595  1.1168
 5941TIP3    H239315   2.931   3.511   4.656  1.0432 -1.2187  0.6434
 5942TIP3   OH239316   3.834   6.180  15.392  0.3354 -0.0727 -0.1781
 5942TIP3    H139317   3.809   6.088  15.402  0.0749  0.1513  1.4617
 5942TIP3    H239318   3.915   6.188  15.443 -0.6580  1.0038  1.2866
 5943TIP3   OH239319   0.425   2.027  15.352 -0.2409 -0.1272 -0.6238
 5943TIP3    H139320   0.349   2.009  15.297 -0.8349  1.5252 -0.3701
 5943TIP3    H239321   0.388   2.043  15.439  0.4309  0.3511 -0.4200
 5944TIP3   OH239322   5.252   5.577   1.316  0.0235  0.2186  0.0856
 5944TIP3    H139323   5.299   5.591   1.399 -1.1968 -0.7919  0.9710
 5944TIP3    H239324   5.184   5.513   1.338 -0.5944  0.2813 -1.6061
 5945TIP3   OH239325   3.867   6.441   2.489 -0.2145  0.2796  0.0387
 5945TIP3    H139326   3.832   6.354   2.469  0.1821  0.8541 -3.3661
 5945TIP3    H239327   3.929   6.425   2.561 -1.9362 -1.8464  1.1114
 5946TIP3   OH239328   4.358   3.771  15.236 -0.2620  0.1177 -0.1553
 5946TIP3    H139329   4.327   3.744  15.322 -1.6567  0.6762 -0.4642
 5946TIP3    H239330   4.326   3.703  15.177 -0.8998  0.6925 -0.4780
 5947TIP3   OH239331   0.051   4.487   0.098 -0.0692  0.1021  0.0039
 5947TIP3    H139332   0.120   4.490   0.163 -0.9366  0.4013  0.9252
 5947TIP3    H239333  -0.023   4.534   0.138 -0.1494  1.5615 -1.7489
 5948TIP3   OH239334   1.817   1.689  16.414  0.1572  0.1600 -0.4595
 5948TIP3    H139335   1.889   1.667  16.356 -0.9285  2.2377 -2.7053
 5948TIP3    H239336   1.739   1.652  16.371 -0.7693  2.4536 -0.8556
 5949TIP3   OH239337   4.379   1.133   1.263  0.6321  0.0340  0.1972
 5949TIP3    H139338   4.458   1.174   1.297  1.9815  0.2823 -3.1181
 5949TIP3    H239339   4.359   1.064   1.327  0.3317  3.4434  3.9609
 5950TIP3   OH239340   2.511   4.953   3.954 -0.0781 -0.5272  0.2864
 5950TIP3    H139341   2.585   5.013   3.943  0.5255 -1.2299  0.4947
 5950TIP3    H239342   2.456   4.969   3.878  0.1446  0.1980  0.2722
 5951TIP3   OH239343   3.575   5.939  16.583  0.6342 -0.2436 -0.5440
 5951TIP3    H139344   3.562   6.032  16.602 -0.5631 -0.3009 -1.0195
 5951TIP3    H239345   3.565   5.896  16.668 -0.8762 -0.1201 -0.6336
 5952TIP3   OH239346   6.754   1.172   1.297 -0.0791  0.2899  0.4840
 5952TIP3    H139347   6.756   1.096   1.356  0.6664 -0.6848 -0.7837
 5952TIP3    H239348   6.802   1.240   1.344  2.3470 -1.1298  0.1366
 5953TIP3   OH239349   1.286   5.597   4.762  0.0535 -0.3279 -0.0747
 5953TIP3    H139350   1.204   5.570   4.804 -0.0426 -0.8601 -0.6013
 5953TIP3    H239351   1.315   5.671   4.814 -1.6311  0.9378 -0.8900
 5954TIP3   OH239352   6.499   6.203   0.229 -0.3038 -0.3492 -0.4613
 5954TIP3    H139353   6.456   6.287   0.214  0.0297 -0.2951 -1.0911
 5954TIP3    H239354   6.442   6.159   0.293  0.1071  0.7943  0.7105
 5955TIP3   OH239355   5.175   2.226  14.999 -0.1869 -0.5801 -0.7429
 5955TIP3    H139356   5.114   2.194  15.065  0.3233  1.0232  0.5507
 5955TIP3    H239357   5.122   2.234  14.919 -0.6320 -3.2049 -0.7265
 5956TIP3   OH239358   2.306   1.720   0.164 -0.1590 -0.1648  0.6790
 5956TIP3    H139359   2.224   1.757   0.194 -1.2652 -1.3248 -0.8402
 5956TIP3    H239360   2.306   1.733   0.070  1.3903 -0.1909  0.6608
 5957TIP3   OH239361   1.324   4.863   3.357 -0.3508 -0.0405  0.1025
 5957TIP3    H139362   1.258   4.836   3.293 -0.1974 -1.9851  0.7423
 5957TIP3    H239363   1.307   4.808   3.434  1.9254 -0.4911  0.3147
 5958TIP3   OH239364   2.565   1.680  15.984 -0.6605 -0.4186 -0.2831
 5958TIP3    H139365   2.503   1.731  15.932 -0.7876 -2.0909 -1.8268
 5958TIP3    H239366   2.516   1.601  16.009  0.6304 -1.4844 -1.0115
 5959TIP3   OH239367   4.370   1.254   1.903  0.3249 -0.2251 -0.2736
 5959TIP3    H139368   4.461   1.248   1.932  0.0900  0.5745  0.6437
 5959TIP3    H239369   4.318   1.233   1.981 -0.3254  2.3814  0.0304
 5960TIP3   OH239370   0.794   3.512  13.518  0.2573 -0.5605  0.6437
 5960TIP3    H139371   0.844   3.567  13.458 -1.6239  0.1654 -0.2888
 5960TIP3    H239372   0.786   3.428  13.473 -0.6975 -0.1854  0.1221
 5961TIP3   OH239373   2.684   5.320   5.421 -0.0268  0.4996  0.1611
 5961TIP3    H139374   2.591   5.326   5.401 -0.2963 -0.6019  1.0175
 5961TIP3    H239375   2.707   5.229   5.401  1.0354  0.9622 -0.7422
 5962TIP3   OH239376   3.984   4.250   1.215 -1.0363 -0.2285  0.1911
 5962TIP3    H139377   4.022   4.305   1.284 -1.4049 -0.3763  0.5192
 5962TIP3    H239378   4.009   4.161   1.239 -0.7022 -0.2299 -0.1680
 5963TIP3   OH239379   6.483   5.006  12.308 -0.7071 -0.1536 -0.0048
 5963TIP3    H139380   6.490   5.097  12.279 -0.5632 -0.2711 -0.3375
 5963TIP3    H239381   6.399   4.976  12.273 -0.9662 -0.0144  0.4847
 5964TIP3   OH239382   3.929   4.420  15.947  0.1978 -0.2480 -0.1878
 5964TIP3    H139383   4.019   4.389  15.939  0.7280  1.0713  0.4325
 5964TIP3    H239384   3.908   4.409  16.040  0.4939  1.4571  0.0997
 5965TIP3   OH239385   4.082   2.332  15.062 -0.4381  0.2131  0.3056
 5965TIP3    H139386   3.997   2.289  15.055 -2.0508  3.4859 -1.2833
 5965TIP3    H239387   4.061   2.422  15.086  2.6015  1.0732 -0.0809
 5966TIP3   OH239388   3.651   2.546  10.486 -0.0118 -0.1365 -0.0310
 5966TIP3    H139389   3.743   2.549  10.514 -0.2624 -2.1422  1.0348
 5966TIP3    H239390   3.612   2.477  10.538 -1.7010 -0.5809 -1.8402
 5967TIP3   OH239391   1.283   1.932   1.283 -0.7298  0.1541  0.7326
 5967TIP3    H139392   1.318   1.933   1.372 -1.8251  0.4100  1.1701
 5967TIP3    H239393   1.195   1.896   1.292 -0.4685 -0.7995 -0.4014
 5968TIP3   OH239394   1.057   5.653   5.056  0.0847 -0.1708 -0.2280
 5968TIP3    H139395   1.080   5.563   5.031  0.7774  0.0074 -0.2464
 5968TIP3    H239396   0.965   5.648   5.082  0.7803 -1.3770  2.1465
 5969TIP3   OH239397   2.026   5.553  15.720 -0.0235 -0.0012  0.1237
 5969TIP3    H139398   2.098   5.615  15.734  0.6594 -0.7500 -0.0269
 5969TIP3    H239399   2.069   5.469  15.707 -0.9613 -0.6168  0.8837
 5970TIP3   OH239400   6.165   2.964   1.222  0.3591  0.3490  0.5725
 5970TIP3    H139401   6.207   2.964   1.136 -1.4734 -2.1615 -0.4004
 5970TIP3    H239402   6.207   2.892   1.269 -2.0507 -1.5481 -0.0610
 5971TIP3   OH239403   0.259   1.921   4.546 -0.0126 -0.1426 -0.7564
 5971TIP3    H139404   0.216   1.965   4.620 -0.4356 -0.9464 -0.5112
 5971TIP3    H239405   0.282   1.992   4.486 -0.1055  0.4730 -0.0768
 5972TIP3   OH239406   2.258   0.822   0.342 -0.2877 -0.1085 -0.1568
 5972TIP3    H139407   2.173   0.826   0.385 -0.3907  1.0085 -0.4525
 5972TIP3    H239408   2.238   0.825   0.249  0.0809  0.4170 -0.2220
 5973TIP3   OH239409   3.868   1.561  13.380  0.2628  0.2937 -0.3550
 5973TIP3    H139410   3.886   1.506  13.303  0.2637  1.4331 -1.1748
 5973TIP3    H239411   3.915   1.642  13.363 -0.3359  0.8249  0.5167
 5974TIP3   OH239412   1.337   4.073   4.324 -0.0834  0.0039  0.1660
 5974TIP3    H139413   1.272   4.009   4.294  0.7447 -1.0738  0.6417
 5974TIP3    H239414   1.285   4.148   4.353 -1.0284 -0.0890 -1.2243
 5975TIP3   OH239415   5.645   2.002   5.587  0.3797  0.5581  0.0536
 5975TIP3    H139416   5.592   1.974   5.513  0.2021  1.1817 -0.0633
 5975TIP3    H239417   5.625   2.096   5.596  1.0987  0.6894  0.3069
 5976TIP3   OH239418   1.590   3.442  13.625  0.4874  0.3310 -0.1867
 5976TIP3    H139419   1.570   3.485  13.542  1.7750 -0.9984 -1.1962
 5976TIP3    H239420   1.544   3.358  13.621  1.8258 -0.4021 -0.2113
 5977TIP3   OH239421   5.408   0.662  14.505 -0.3217  0.3429  0.8167
 5977TIP3    H139422   5.381   0.751  14.486 -0.0196  0.1560 -0.5930
 5977TIP3    H239423   5.380   0.611  14.429  0.0845 -0.6401  1.3042
 5978TIP3   OH239424   1.173   3.720   5.255 -0.0257 -0.1661 -0.4383
 5978TIP3    H139425   1.161   3.635   5.297  1.3727  0.4918  1.4035
 5978TIP3    H239426   1.088   3.763   5.264  0.1110 -0.2203  1.3915
 5979TIP3   OH239427   5.803   3.949   5.951 -0.2198 -0.2713  0.6889
 5979TIP3    H139428   5.828   3.926   6.041  1.7919  0.0375  0.2311
 5979TIP3    H239429   5.815   4.044   5.946  1.8351 -0.5688 -0.5311
 5980TIP3   OH239430   6.152   3.245  15.066  0.3437 -0.1403 -0.0772
 5980TIP3    H139431   6.227   3.193  15.038  1.5899  1.2181  0.6812
 5980TIP3    H239432   6.168   3.262  15.159 -1.8188 -1.3700  0.5594
 5981TIP3   OH239433   5.517   5.400   5.383  0.0469 -0.1338 -0.2152
 5981TIP3    H139434   5.486   5.434   5.467  1.1487  1.9205 -0.6009
 5981TIP3    H239435   5.437   5.376   5.335 -0.5848 -1.2181  1.3666
 5982TIP3   OH239436   0.768   1.493  14.439 -0.4181  0.3382  0.6606
 5982TIP3    H139437   0.799   1.452  14.520 -2.4439  0.3173  1.4488
 5982TIP3    H239438   0.792   1.431  14.370 -1.7116 -1.2853  1.6270
 5983TIP3   OH239439   0.466   0.294  12.471  0.0575 -0.2801 -0.9112
 5983TIP3    H139440   0.440   0.210  12.510  1.3722  0.5399  1.8163
 5983TIP3    H239441   0.383   0.339  12.453 -0.5890 -1.2249 -0.2994
 5984TIP3   OH239442   1.628   1.648   4.825  0.0183  0.0860  0.3156
 5984TIP3    H139443   1.580   1.725   4.855 -1.2039 -0.0520 -1.2801
 5984TIP3    H239444   1.641   1.596   4.905 -1.8789  0.4441  0.8780
 5985TIP3   OH239445   6.413   5.338   4.361 -0.2114 -0.0197  0.9189
 5985TIP3    H139446   6.503   5.306   4.366  0.0618  0.6626  0.5588
 5985TIP3    H239447   6.366   5.271   4.312  0.4179  0.2704 -0.0969
 5986TIP3   OH239448   4.039   6.765  16.058 -0.6053  0.0441 -1.2758
 5986TIP3    H139449   3.977   6.693  16.043 -0.0251 -0.9044  0.7408
 5986TIP3    H239450   4.114   6.744  16.002 -0.2772 -1.1384 -0.4138
 5987TIP3   OH239451   3.389   0.190  14.078 -0.0436  0.1928  0.9960
 5987TIP3    H139452   3.396   0.150  13.991  0.8980 -0.5678  1.4093
 5987TIP3    H239453   3.463   0.154  14.127  0.6035  2.1230  1.5106
 5988TIP3   OH239454   0.107   0.535   0.003 -0.5411 -0.0240  0.2119
 5988TIP3    H139455   0.023   0.580   0.002 -0.5709 -0.0850 -0.6195
 5988TIP3    H239456   0.125   0.520   0.096 -1.6829 -0.4598  0.3758
 5989TIP3   OH239457   4.448   4.208  12.247  0.0486  0.0369  0.1799
 5989TIP3    H139458   4.378   4.259  12.205  1.2194  2.5812  1.1701
 5989TIP3    H239459   4.401   4.144  12.301 -1.4894 -0.0977 -1.2764
 5990TIP3   OH239460   1.750   5.617   5.813  0.6713  0.0497 -0.6982
 5990TIP3    H139461   1.799   5.674   5.873 -1.4994  1.0036  0.2072
 5990TIP3    H239462   1.815   5.554   5.782  2.0235 -0.0421  2.1343
 5991TIP3   OH239463   1.501   1.794   5.586  0.9317  0.0736 -0.5507
 5991TIP3    H139464   1.437   1.836   5.643 -0.2909 -1.2008 -0.9428
 5991TIP3    H239465   1.526   1.862   5.524 -1.0917  0.2209 -1.2436
 5992TIP3   OH239466   6.566   1.641   5.672  0.2641 -0.1380 -0.8088
 5992TIP3    H139467   6.505   1.709   5.701  0.7795 -0.1366  0.3307
 5992TIP3    H239468   6.510   1.568   5.645 -0.3143  0.9436 -2.6263
 5993TIP3   OH239469   3.374   2.902   3.003  0.5198  0.3325  0.1002
 5993TIP3    H139470   3.353   2.994   2.989 -0.2313  0.0069 -0.9770
 5993TIP3    H239471   3.295   2.855   2.977  0.8659 -0.6162  0.7245
 5994TIP3   OH239472   4.335   6.341  12.490 -0.0163 -0.3958  0.0903
 5994TIP3    H139473   4.289   6.258  12.497 -0.0380 -0.5021 -1.3199
 5994TIP3    H239474   4.273   6.400  12.448  1.1064 -0.5454 -1.8314
 5995TIP3   OH239475   4.844   4.654  12.860  0.5767  0.1063 -0.2167
 5995TIP3    H139476   4.873   4.734  12.817  1.3778 -1.1745 -2.0954
 5995TIP3    H239477   4.752   4.669  12.879  0.9039  1.7653  0.1537
 5996TIP3   OH239478   4.582   6.674   0.058  0.3879 -0.8728  0.1996
 5996TIP3    H139479   4.625   6.694  -0.026  0.1302 -2.1248 -0.2471
 5996TIP3    H239480   4.501   6.725   0.056  0.7780 -0.2509  0.0565
 5997TIP3   OH239481   5.611   0.541   5.408 -0.3426  0.2079  0.0595
 5997TIP3    H139482   5.582   0.582   5.326  4.2573 -1.4755 -2.5551
 5997TIP3    H239483   5.602   0.447   5.393  2.6315 -0.2082  0.5714
 5998TIP3   OH239484   4.752   1.982   5.852  0.3485 -0.3680 -0.3062
 5998TIP3    H139485   4.756   1.938   5.936 -3.2105  2.0593  1.2790
 5998TIP3    H239486   4.687   1.933   5.802  0.8305 -0.5077 -0.7941
 5999TIP3   OH239487   2.390   0.387  11.901 -0.0716 -0.0830  0.4283
 5999TIP3    H139488   2.467   0.438  11.880  0.4651  0.4753  3.5211
 5999TIP3    H239489   2.416   0.333  11.976 -2.3733 -0.5358  0.9590
 6000TIP3   OH239490   0.955   5.701  13.679 -0.2008  0.3480  0.1017
 6000TIP3    H139491   0.951   5.678  13.586  0.7692  0.6591 -0.0209
 6000TIP3    H239492   0.907   5.630  13.723 -1.1928  0.5171 -0.6786
 6001TIP3   OH239493   6.089   1.281   4.261 -0.1701 -0.4299 -0.6279
 6001TIP3    H139494   6.084   1.249   4.351  4.3797  5.1981  1.9690
 6001TIP3    H239495   6.175   1.253   4.230  0.3169  1.7883 -1.3754
 6002TIP3   OH239496   0.143   6.482   5.050  0.7364  0.4050 -0.5345
 6002TIP3    H139497   0.125   6.481   5.144  0.3192  0.4833 -0.6132
 6002TIP3    H239498   0.174   6.394   5.031 -0.1865  0.0681 -0.5152
 6003TIP3   OH239499   0.275   5.101  14.936  0.7682 -0.2137 -0.0158
 6003TIP3    H139500   0.319   5.016  14.932  1.8755  0.3490  0.2161
 6003TIP3    H239501   0.182   5.079  14.936  1.0187 -1.6272  3.6576
 6004TIP3   OH239502   4.453   2.984   0.342 -0.1645 -0.1764  0.0140
 6004TIP3    H139503   4.501   2.939   0.273  0.0709  0.7726 -0.4591
 6004TIP3    H239504   4.405   3.053   0.296  2.2258  2.3010  1.1044
 6005TIP3   OH239505   5.264   1.125  14.463  0.1505 -0.0185 -0.0750
 6005TIP3    H139506   5.260   1.121  14.559 -1.4475 -1.8922 -0.1739
 6005TIP3    H239507   5.344   1.173  14.444  0.8901 -0.2786  2.2101
 6006TIP3   OH239508   3.567   3.924  12.139 -0.1978  0.4020  0.3302
 6006TIP3    H139509   3.564   4.019  12.144  2.5671  0.4946  1.8727
 6006TIP3    H239510   3.641   3.905  12.082 -1.3295 -0.8344 -0.7572
 6007TIP3   OH239511   3.241   2.354   0.162  0.0747  0.2377  0.1079
 6007TIP3    H139512   3.209   2.400   0.240  2.0538 -0.6990  1.4901
 6007TIP3    H239513   3.299   2.418   0.119 -3.0738  1.7467 -2.1223
 6008TIP3   OH239514   4.319   5.796   4.275  0.4773  0.1413  0.2374
 6008TIP3    H139515   4.342   5.708   4.246 -2.1596 -0.5750  0.1928
 6008TIP3    H239516   4.284   5.839   4.197 -1.0059  0.2234  0.9299
 6009TIP3   OH239517   0.381   0.205  13.871  0.3017  0.3155  0.1948
 6009TIP3    H139518   0.401   0.113  13.852  1.7695  0.4818  0.8362
 6009TIP3    H239519   0.346   0.239  13.789 -0.2027 -0.7996 -0.0676
 6010TIP3   OH239520   4.511   6.576   1.739 -0.2239 -0.3464 -0.0928
 6010TIP3    H139521   4.420   6.596   1.720  0.4933  0.8766 -2.4257
 6010TIP3    H239522   4.558   6.657   1.719  1.3446 -0.8768  1.3368
 6011TIP3   OH239523   1.862   3.954   2.451 -0.4127  0.4792 -0.8252
 6011TIP3    H139524   1.858   3.999   2.367  0.7131  0.8047 -0.7145
 6011TIP3    H239525   1.815   3.872   2.437 -1.5846  1.2168 -1.3212
 6012TIP3   OH239526   2.790   1.438  16.090  0.4780  0.4362 -0.0225
 6012TIP3    H139527   2.769   1.530  16.080  0.7962  0.3387 -1.6757
 6012TIP3    H239528   2.719   1.402  16.143 -0.5962  1.2458 -0.9200
 6013TIP3   OH239529   3.293   2.091   6.014  0.4099  0.0879 -0.0228
 6013TIP3    H139530   3.201   2.064   6.018  0.6879 -1.0517 -0.8679
 6013TIP3    H239531   3.296   2.173   6.062 -0.8125 -0.4989  1.0947
 6014TIP3   OH239532   0.434   3.225  13.308  0.2720  0.0088 -0.4884
 6014TIP3    H139533   0.408   3.163  13.240  0.6791 -0.5740 -0.1077
 6014TIP3    H239534   0.393   3.308  13.281  0.1458 -0.2997 -1.2590
 6015TIP3   OH239535   6.165   4.456   2.841 -0.1579  0.3316 -0.0176
 6015TIP3    H139536   6.249   4.410   2.846 -0.6643 -0.5111  0.7548
 6015TIP3    H239537   6.171   4.525   2.907  0.2589  0.8319 -0.5686
 6016TIP3   OH239538   6.514   4.543   3.184  0.3396  0.8292 -0.2484
 6016TIP3    H139539   6.581   4.606   3.158  2.0484 -0.9423 -0.1734
 6016TIP3    H239540   6.543   4.512   3.270 -0.4151 -0.1818 -0.3542
 6017TIP3   OH239541   3.348   3.085  17.121 -0.2321  0.8839 -0.0780
 6017TIP3    H139542   3.275   3.139  17.091 -0.2981  1.5178  1.1583
 6017TIP3    H239543   3.347   3.095  17.217  0.8971  0.1606  0.0218
 6018TIP3   OH239544   2.415   1.027   4.051  0.1887 -0.0649 -0.1393
 6018TIP3    H139545   2.387   1.077   3.975 -1.0882  0.3737  0.6150
 6018TIP3    H239546   2.390   1.080   4.126 -1.4078 -1.9390  0.6887
 6019TIP3   OH239547   4.152   5.980  16.933 -0.2005  0.0811  0.1477
 6019TIP3    H139548   4.192   6.055  16.890 -0.2687 -1.0971 -2.0156
 6019TIP3    H239549   4.206   5.905  16.907 -1.3517 -0.9188  0.5822
 6020TIP3   OH239550   4.155   0.144   1.649  0.1818 -0.4118 -0.1964
 6020TIP3    H139551   4.201   0.160   1.567  0.2546 -0.2619 -0.1257
 6020TIP3    H239552   4.207   0.188   1.716  0.6388 -1.3420  0.0654
 6021TIP3   OH239553   0.111   5.675  12.085  0.4645 -0.0188  0.0471
 6021TIP3    H139554   0.129   5.769  12.097 -0.1955  0.2408 -0.9590
 6021TIP3    H239555   0.017   5.671  12.067  0.3291 -0.9609  0.8902
 6022TIP3   OH239556   5.084   5.385  12.657 -0.3712  0.0997  0.1610
 6022TIP3    H139557   5.036   5.459  12.693 -0.8082  0.1953 -0.6012
 6022TIP3    H239558   5.150   5.424  12.599 -1.7832 -0.1549 -1.6515
 6023TIP3   OH239559   4.548   0.949  11.031 -0.3976 -0.1344  0.1495
 6023TIP3    H139560   4.501   0.953  11.114 -0.7685 -1.0953 -0.0051
 6023TIP3    H239561   4.505   0.879  10.982 -1.3469  1.6088 -1.5750
 6024TIP3   OH239562   0.185   5.469   0.150 -0.1416  0.1611  0.1672
 6024TIP3    H139563   0.237   5.407   0.100  1.2766  0.2068  1.5310
 6024TIP3    H239564   0.163   5.422   0.231  0.8159  1.3493  1.1404
 6025TIP3   OH239565   2.856   6.597  13.214 -0.5775  0.6710 -0.0863
 6025TIP3    H139566   2.929   6.656  13.197 -0.5424  0.7644  0.3917
 6025TIP3    H239567   2.896   6.517  13.247 -0.6446  0.4783 -0.4669
 6026TIP3   OH239568   0.676   5.875  11.227 -0.2000 -0.4684 -0.0462
 6026TIP3    H139569   0.627   5.798  11.254 -1.1861  0.2470  0.2094
 6026TIP3    H239570   0.731   5.843  11.155 -3.0991 -0.6601 -2.2556
 6027TIP3   OH239571   0.471   6.345  14.882 -0.1196 -0.2514  0.0731
 6027TIP3    H139572   0.544   6.375  14.829 -1.0275  0.9207 -0.5515
 6027TIP3    H239573   0.490   6.253  14.900 -0.4167 -1.0872 -3.4284
 6028TIP3   OH239574   4.017   5.524  15.065  0.0017  0.1901  0.1332
 6028TIP3    H139575   4.101   5.488  15.095  0.4356  1.0883  0.0203
 6028TIP3    H239576   4.041   5.604  15.018 -0.7122 -0.7803 -1.9643
 6029TIP3   OH239577   2.849   6.623  10.429 -0.2092 -0.3017  0.6894
 6029TIP3    H139578   2.871   6.657  10.515  0.1612 -1.5303  1.1027
 6029TIP3    H239579   2.922   6.563  10.408  0.6818  1.4065 -1.3019
 6030TIP3   OH239580   2.883   3.378   3.056 -0.2423  0.1660 -0.8654
 6030TIP3    H139581   2.943   3.332   2.997  0.3358 -1.2420  0.7719
 6030TIP3    H239582   2.929   3.458   3.081  2.5350 -2.4304  2.9937
 6031TIP3   OH239583   1.349   5.639   3.864 -0.4452  0.3452 -0.0199
 6031TIP3    H139584   1.403   5.707   3.823  2.4340 -1.1321  1.2017
 6031TIP3    H239585   1.344   5.664   3.956 -2.2044  0.6382 -0.1619
 6032TIP3   OH239586   3.149   5.751  13.142 -0.3044 -0.1895 -0.3076
 6032TIP3    H139587   3.095   5.830  13.142 -1.2075 -0.7738 -2.1564
 6032TIP3    H239588   3.239   5.784  13.136 -0.6985  0.6990 -1.7066
 6033TIP3   OH239589   0.321   2.534  12.068 -0.0618 -0.1940  0.1604
 6033TIP3    H139590   0.408   2.535  12.108 -0.4214 -1.1690  0.9984
 6033TIP3    H239591   0.324   2.463  12.005 -0.1164  0.0446 -0.1099
 6034TIP3   OH239592   2.831   2.355   4.315 -0.0400 -0.1738  0.5563
 6034TIP3    H139593   2.908   2.335   4.368  1.4117  0.4804 -1.2672
 6034TIP3    H239594   2.787   2.270   4.303  0.0920 -0.4619  2.0330
 6035TIP3   OH239595   5.096   2.334   0.414  0.1552 -0.3203 -0.3190
 6035TIP3    H139596   5.005   2.327   0.443  0.7515 -1.3209  1.4051
 6035TIP3    H239597   5.090   2.371   0.326 -1.8585  0.7288  0.2030
 6036TIP3   OH239598   5.813   1.509  11.967  0.7141  0.2555 -0.5092
 6036TIP3    H139599   5.740   1.562  11.935  1.8194  2.7896  1.0429
 6036TIP3    H239600   5.785   1.419  11.954 -0.5689  1.1430 -4.7600
 6037TIP3   OH239601   6.507   1.874   3.457  0.3806  0.0262 -0.2389
 6037TIP3    H139602   6.577   1.819   3.492  0.1607 -0.3573 -0.3957
 6037TIP3    H239603   6.437   1.867   3.522  0.0392 -0.5426 -0.6613
 6038TIP3   OH239604   6.066   2.508  11.704  0.2275 -0.1117  0.3265
 6038TIP3    H139605   6.160   2.493  11.712  0.2100 -0.6460 -0.4011
 6038TIP3    H239606   6.026   2.458  11.775  0.5827  1.1737  1.4425
 6039TIP3   OH239607   6.807   0.544   1.059 -0.9224  0.4501 -0.2904
 6039TIP3    H139608   6.794   0.606   0.987  1.7678 -2.3055 -3.3084
 6039TIP3    H239609   6.883   0.578   1.106 -0.1587  0.0830 -1.2475
 6040TIP3   OH239610   4.559   4.854   0.017 -0.0881  0.5454 -0.0009
 6040TIP3    H139611   4.520   4.852  -0.071 -0.4647  1.1348  0.1449
 6040TIP3    H239612   4.653   4.849   0.001 -0.2344 -1.6047 -0.3159
 6041TIP3   OH239613   0.566   1.854  12.943 -0.0283 -0.6203 -0.0274
 6041TIP3    H139614   0.490   1.832  12.889 -0.4525 -1.9088  1.0798
 6041TIP3    H239615   0.607   1.928  12.897 -1.1744 -0.7841 -1.3511
 6042TIP3   OH239616   2.211   3.763   2.104 -0.7133 -0.7810  0.3121
 6042TIP3    H139617   2.306   3.769   2.113 -0.6532 -0.6035 -0.4690
 6042TIP3    H239618   2.176   3.798   2.186 -0.2077  2.5566 -0.8375
 6043TIP3   OH239619   2.404   3.788  14.563 -0.5213  0.5566  0.1243
 6043TIP3    H139620   2.327   3.829  14.602  0.0888  2.5592 -0.7249
 6043TIP3    H239621   2.395   3.803  14.469 -0.4014 -1.5148 -0.2567
 6044TIP3   OH239622   2.415   2.205  14.875 -0.0663 -0.1302  0.2570
 6044TIP3    H139623   2.402   2.110  14.872  1.9057 -0.3867 -0.8043
 6044TIP3    H239624   2.454   2.220  14.961  0.7522 -0.4349 -0.0589
 6045TIP3   OH239625   1.622   2.834  10.639  0.3835  0.2837  0.1931
 6045TIP3    H139626   1.633   2.884  10.719 -0.2293  0.5469  0.1178
 6045TIP3    H239627   1.551   2.879  10.592  0.1250 -0.3888 -0.0735
 6046TIP3   OH239628   4.554   4.637  11.005  0.4011  0.0461 -0.0791
 6046TIP3    H139629   4.576   4.559  10.953  3.5867  1.0784 -0.3698
 6046TIP3    H239630   4.510   4.695  10.943  2.5416  0.5088 -1.2204
 6047TIP3   OH239631   5.115   2.258  14.736  0.3456 -0.1306  0.4783
 6047TIP3    H139632   5.192   2.297  14.694 -0.6081  0.5415 -0.6472
 6047TIP3    H239633   5.057   2.331  14.753 -0.4562 -0.7619  0.4715
 6048TIP3   OH239634   1.049   6.430  13.612  0.0543  0.1316  0.0507
 6048TIP3    H139635   1.068   6.518  13.580 -0.1032 -0.3654 -1.4611
 6048TIP3    H239636   0.963   6.410  13.576  1.1193 -1.5659 -1.6884
 6049TIP3   OH239637   0.624   1.376   4.938 -0.4460 -0.8177 -0.0293
 6049TIP3    H139638   0.693   1.357   5.001 -0.2312 -0.8119 -0.2629
 6049TIP3    H239639   0.634   1.469   4.919 -1.0933 -0.6062  0.6291
 6050TIP3   OH239640   4.193   0.436  11.492 -0.4172  0.5448 -0.2039
 6050TIP3    H139641   4.232   0.499  11.553 -0.4717  0.5418 -0.1671
 6050TIP3    H239642   4.124   0.393  11.542  1.6804 -1.7964  0.7581
 6051TIP3   OH239643   3.086   3.483   6.341 -0.0826  0.0675 -0.2078
 6051TIP3    H139644   3.156   3.513   6.400 -0.1211  0.8842 -0.5674
 6051TIP3    H239645   3.091   3.388   6.345 -0.2972  0.0949  1.3784
 6052TIP3   OH239646   0.776   3.067   6.394 -0.0642  1.0880  0.4222
 6052TIP3    H139647   0.681   3.068   6.402  0.0011  0.3106  1.4342
 6052TIP3    H239648   0.804   2.988   6.440  0.8897 -0.2636 -2.3723
 6053TIP3   OH239649   1.797   2.933  14.610  0.1064  0.3393 -0.3638
 6053TIP3    H139650   1.839   2.857  14.570  0.8648 -0.3683  1.7615
 6053TIP3    H239651   1.857   3.006  14.593  1.1624 -0.2542  0.7804
 6054TIP3   OH239652   6.151   5.504  12.693 -0.6661  0.1500 -0.4813
 6054TIP3    H139653   6.185   5.439  12.754  0.4162 -0.8129 -2.0880
 6054TIP3    H239654   6.056   5.491  12.695 -0.4781 -1.3984 -0.6708
 6055TIP3   OH239655   5.535   1.972  12.655  0.2980 -0.4160  0.0201
 6055TIP3    H139656   5.556   1.910  12.725  1.9334  1.6253  1.3923
 6055TIP3    H239657   5.613   1.973  12.599 -0.4754 -1.0269 -1.0833
 6056TIP3   OH239658   1.391   0.215  12.109  0.3726 -0.4253 -0.3044
 6056TIP3    H139659   1.411   0.141  12.052 -1.9254 -0.2924 -1.3201
 6056TIP3    H239660   1.346   0.278  12.053  0.5426  0.9114  1.0061
 6057TIP3   OH239661   4.636   4.829  13.106  0.1221 -0.0165 -0.4296
 6057TIP3    H139662   4.611   4.897  13.169 -0.3515 -0.1362 -0.4911
 6057TIP3    H239663   4.553   4.797  13.071  0.3583 -0.4717 -0.5687
 6058TIP3   OH239664   3.931   2.699  17.267 -0.2645 -0.1035  0.0004
 6058TIP3    H139665   3.989   2.775  17.258  2.1893 -1.9243 -0.0351
 6058TIP3    H239666   3.923   2.686  17.361 -0.0561 -0.2838 -0.0093
 6059TIP3   OH239667   2.290   6.683  16.932 -0.1265  0.1154 -0.9421
 6059TIP3    H139668   2.222   6.620  16.912 -0.3005  0.6397 -2.0648
 6059TIP3    H239669   2.256   6.733  17.006 -0.2592 -0.6782 -0.4606
 6060TIP3   OH239670   1.330   2.361  11.182 -0.0598  0.0526 -1.0276
 6060TIP3    H139671   1.252   2.352  11.236 -0.1291 -1.1072 -1.2985
 6060TIP3    H239672   1.310   2.432  11.122 -1.7198 -1.5714 -2.4491
 6061TIP3   OH239673   4.322   6.576   0.388  0.3678 -0.5384 -0.0024
 6061TIP3    H139674   4.358   6.508   0.332 -0.5476  0.4159 -1.7899
 6061TIP3    H239675   4.236   6.544   0.414  0.0523 -0.2089 -0.6180
 6062TIP3   OH239676   4.930   0.877   0.192  0.5444  0.1304  0.3451
 6062TIP3    H139677   4.960   0.866   0.101  0.6394 -0.3799  0.4364
 6062TIP3    H239678   4.978   0.954   0.224  0.8630  0.0307  0.1131
 6063TIP3   OH239679   1.681   4.231  16.999 -0.3228 -0.5802  0.1847
 6063TIP3    H139680   1.704   4.277  16.918 -2.2769 -0.0116 -0.0753
 6063TIP3    H239681   1.680   4.138  16.975  0.7965 -0.5500 -0.0002
 6064TIP3   OH239682   5.972   6.127   5.552 -0.2684 -0.1752 -0.4738
 6064TIP3    H139683   5.990   6.049   5.500  1.1748 -0.0936 -0.1206
 6064TIP3    H239684   5.891   6.107   5.598 -0.4005 -1.0992 -1.0947
 6065TIP3   OH239685   4.493   0.790  15.787  0.2872  0.0062  0.2980
 6065TIP3    H139686   4.521   0.816  15.874 -0.6535 -0.2644  0.6819
 6065TIP3    H239687   4.520   0.698  15.780 -2.3381 -0.9087  1.4703
 6066TIP3   OH239688   6.320   3.677   4.413  0.0546  0.5981 -0.2782
 6066TIP3    H139689   6.225   3.669   4.422 -0.0993  1.2594 -1.2256
 6066TIP3    H239690   6.333   3.713   4.325  1.3248 -2.5093 -1.4358
 6067TIP3   OH239691   5.030   5.399  16.642 -0.2700  0.2204  0.3742
 6067TIP3    H139692   5.121   5.430  16.647  0.0677 -0.6614 -0.1624
 6067TIP3    H239693   4.991   5.451  16.572 -0.5102  1.4018  1.3702
 6068TIP3   OH239694   4.002   6.622   2.356 -0.0858 -0.0630 -0.0284
 6068TIP3    H139695   3.960   6.552   2.406  0.2696  0.1030  0.5028
 6068TIP3    H239696   3.930   6.668   2.314 -0.4236  0.1453  0.7791
 6069TIP3   OH239697   6.491   3.041  16.407 -0.1333  0.1096  0.3573
 6069TIP3    H139698   6.576   3.077  16.432  0.3201 -0.2864 -0.5383
 6069TIP3    H239699   6.467   2.983  16.479  0.5024  0.0015  0.4868
 6070TIP3   OH239700   0.131   5.515  14.956 -0.1733 -0.1541  0.0265
 6070TIP3    H139701   0.037   5.525  14.944 -0.8694 -2.5303  2.9864
 6070TIP3    H239702   0.155   5.439  14.903 -0.0300  0.0307 -0.1770
 6071TIP3   OH239703   3.196   1.259   1.697 -0.1051  0.3309 -0.1459
 6071TIP3    H139704   3.202   1.298   1.611 -0.4777 -1.9612 -1.2615
 6071TIP3    H239705   3.206   1.165   1.681 -0.8649 -0.1814  2.2254
 6072TIP3   OH239706   1.511   0.322  15.549  0.1364 -0.1774 -0.2678
 6072TIP3    H139707   1.531   0.356  15.636  1.4785  0.3069 -0.7608
 6072TIP3    H239708   1.508   0.227  15.560 -0.5907 -0.0735  0.4840
 6073TIP3   OH239709   2.109   4.731  13.438 -0.2216  0.0045  0.0495
 6073TIP3    H139710   2.137   4.818  13.409 -0.6373  0.1709  0.1509
 6073TIP3    H239711   2.184   4.675  13.420 -0.3024  0.1990 -0.8958
 6074TIP3   OH239712   4.021   6.047  15.813 -0.0203 -0.5432  0.3207
 6074TIP3    H139713   4.099   6.098  15.791 -0.0817  0.3587  2.0864
 6074TIP3    H239714   4.040   5.959  15.780  0.7627  0.2197 -1.3248
 6075TIP3   OH239715   3.527   1.264  13.004  0.2275 -0.1865 -0.2153
 6075TIP3    H139716   3.608   1.271  12.955 -0.3014  1.8985 -0.8134
 6075TIP3    H239717   3.546   1.306  13.088  0.0595 -0.5820  0.0237
 6076TIP3   OH239718   0.037   4.924  14.953 -0.7121 -0.0387  0.6472
 6076TIP3    H139719  -0.001   4.841  14.925 -2.3462  0.7900  0.3660
 6076TIP3    H239720  -0.027   4.990  14.927  0.7997  1.3716  0.3909
 6077TIP3   OH239721   3.669   5.425   5.472 -0.3560 -0.1004 -0.0500
 6077TIP3    H139722   3.603   5.415   5.403 -0.8736 -2.1969  0.7134
 6077TIP3    H239723   3.688   5.336   5.501  1.0977  0.6334  1.3662
 6078TIP3   OH239724   6.575   2.075   2.759 -0.0764  0.0002 -0.6595
 6078TIP3    H139725   6.618   1.998   2.796 -0.1958 -0.2082 -0.9450
 6078TIP3    H239726   6.503   2.094   2.819 -1.4307 -1.4780 -1.7447
 6079TIP3   OH239727   3.290   6.740  11.906  0.5687  0.7285 -0.2370
 6079TIP3    H139728   3.266   6.648  11.896  2.0054  0.3646 -0.4626
 6079TIP3    H239729   3.213   6.781  11.944 -0.4831 -0.3576 -1.1618
 6080TIP3   OH239730   3.705   0.798   5.332  0.0817  0.1676 -0.5239
 6080TIP3    H139731   3.752   0.715   5.328 -0.5802 -0.1624 -1.6558
 6080TIP3    H239732   3.707   0.831   5.242 -2.0544  0.0024 -0.6607
 6081TIP3   OH239733   4.370   3.431  17.064 -0.7562  0.7163  0.3287
 6081TIP3    H139734   4.432   3.367  17.099 -2.2282 -1.1404 -0.3763
 6081TIP3    H239735   4.355   3.402  16.973 -0.6639  2.6562 -0.3320
 6082TIP3   OH239736   3.183   6.358  17.068  0.0406  0.2787  0.5851
 6082TIP3    H139737   3.171   6.264  17.083  1.0143 -0.0746 -0.8348
 6082TIP3    H239738   3.126   6.399  17.133 -0.4440 -1.2894  1.1812
 6083TIP3   OH239739   1.041   1.716  11.094 -0.4208 -0.3098 -0.8641
 6083TIP3    H139740   1.130   1.748  11.087 -0.0145 -1.3950 -0.8597
 6083TIP3    H239741   0.994   1.756  11.021 -0.0040  0.4803 -0.6977
 6084TIP3   OH239742   4.296   3.469   4.443 -0.3294 -0.1443  0.2932
 6084TIP3    H139743   4.390   3.453   4.456 -0.3935  0.9561  2.2344
 6084TIP3    H239744   4.253   3.424   4.515 -1.5479 -2.8346 -2.0056
 6085TIP3   OH239745   4.859   1.346  13.975  0.2031 -0.0676 -0.6755
 6085TIP3    H139746   4.851   1.441  13.963 -0.9670 -0.0908 -0.1875
 6085TIP3    H239747   4.776   1.311  13.943 -0.0869 -0.7611  0.7845
 6086TIP3   OH239748   0.748   4.005   6.058 -0.3275 -0.3259  0.1512
 6086TIP3    H139749   0.810   4.074   6.082  0.9244 -1.6564  0.8341
 6086TIP3    H239750   0.662   4.040   6.085  0.1688  1.3035 -0.3045
 6087TIP3   OH239751   0.264   4.570   3.822  0.2016 -0.2717  0.1785
 6087TIP3    H139752   0.275   4.665   3.812 -0.1841  0.0462  2.4299
 6087TIP3    H239753   0.338   4.532   3.774  0.7199  1.1780 -0.2031
 6088TIP3   OH239754   5.751   1.896  15.171 -0.2090 -0.5854  0.7878
 6088TIP3    H139755   5.807   1.825  15.203  1.1251  0.2332  0.3071
 6088TIP3    H239756   5.729   1.947  15.250 -1.5530 -1.7857  1.2013
 6089TIP3   OH239757   1.971   6.406   4.676 -0.6837  0.2905  0.0094
 6089TIP3    H139758   1.947   6.447   4.758 -0.0723 -0.5537  0.6251
 6089TIP3    H239759   2.044   6.459   4.643 -1.5640  1.2056 -0.4803
 6090TIP3   OH239760   4.253   0.380  12.680 -0.1047  0.0128 -0.4766
 6090TIP3    H139761   4.185   0.360  12.744 -0.0433  0.8124 -0.1599
 6090TIP3    H239762   4.246   0.310  12.615 -1.9941  0.7312 -1.0684
 6091TIP3   OH239763   0.854   0.458  15.765  0.1340  0.1678 -0.7670
 6091TIP3    H139764   0.897   0.389  15.817 -2.9918 -2.4401 -1.4749
 6091TIP3    H239765   0.872   0.434  15.674 -2.0256 -0.5055 -1.0509
 6092TIP3   OH239766   4.333   3.823  11.034 -0.2226 -0.3655  0.1092
 6092TIP3    H139767   4.316   3.754  11.098 -0.8635  0.7114  1.1242
 6092TIP3    H239768   4.420   3.804  11.001  0.7888 -0.0603  2.4775
 6093TIP3   OH239769   1.668   0.659  12.081 -0.2763  0.0030 -0.1216
 6093TIP3    H139770   1.638   0.624  11.997  3.9177 -1.5515 -1.0987
 6093TIP3    H239771   1.694   0.582  12.131  0.7445  1.1778  1.1944
 6094TIP3   OH239772   0.536   3.545  13.853  0.0312 -0.0805 -0.3761
 6094TIP3    H139773   0.621   3.565  13.812 -0.2464  0.8185 -0.5212
 6094TIP3    H239774   0.498   3.478  13.797  0.8350 -0.8099 -0.0706
 6095TIP3   OH239775   5.458   0.731   4.696 -0.1535 -0.1521 -0.4201
 6095TIP3    H139776   5.552   0.733   4.682 -0.2188  0.5435 -0.7856
 6095TIP3    H239777   5.424   0.675   4.626 -0.1691  0.9086 -1.2884
 6096TIP3   OH239778   5.427   4.960   2.442 -0.1629 -0.1362  0.6620
 6096TIP3    H139779   5.497   5.024   2.425  0.4710 -1.0918 -0.3552
 6096TIP3    H239780   5.351   4.995   2.396  1.0117 -1.6883 -2.6144
 6097TIP3   OH239781   4.570   5.980   5.447  0.4099  0.1916  0.3757
 6097TIP3    H139782   4.503   6.000   5.383  1.4008 -0.4993 -0.9088
 6097TIP3    H239783   4.641   6.042   5.428 -0.0684  1.2964  2.0827
 6098TIP3   OH239784   2.872   1.118   0.128  0.1922 -0.4240 -0.0731
 6098TIP3    H139785   2.834   1.030   0.128  0.0634 -0.3725  0.5828
 6098TIP3    H239786   2.834   1.161   0.204  0.7637 -0.0169 -0.0085
 6099TIP3   OH239787   3.141   3.276  13.594  0.1376 -0.2042  0.6531
 6099TIP3    H139788   3.124   3.277  13.500  0.8107  1.3321  0.5432
 6099TIP3    H239789   3.107   3.360  13.626  0.7029 -0.3437  1.6438
 6100TIP3   OH239790   5.051   2.782  16.086  0.2108 -0.2519 -0.1312
 6100TIP3    H139791   5.027   2.781  15.994  0.5239  2.5766 -0.2890
 6100TIP3    H239792   5.146   2.777  16.087  0.2442  0.3464 -0.0030
 6101TIP3   OH239793   5.509   0.576   1.238  0.1257  0.8233 -0.0806
 6101TIP3    H139794   5.568   0.588   1.163  1.3266  1.1831  0.8915
 6101TIP3    H239795   5.565   0.538   1.306 -1.5229 -1.8385 -0.1579
 6102TIP3   OH239796   0.690   5.636   3.344  0.5163 -0.5765 -0.1180
 6102TIP3    H139797   0.774   5.591   3.355  0.8065 -0.4335 -1.7067
 6102TIP3    H239798   0.714   5.728   3.329  0.0750 -0.5607 -0.7285
 6103TIP3   OH239799   0.442   4.911  14.407 -0.0435  0.2340 -0.4942
 6103TIP3    H139800   0.506   4.860  14.457 -0.7443  0.5475  0.7500
 6103TIP3    H239801   0.378   4.846  14.378 -0.4043  0.2492  0.2495
 6104TIP3   OH239802   3.827   1.519  15.070 -0.4255  1.0786  0.0809
 6104TIP3    H139803   3.812   1.522  15.164  0.0090  2.7527  0.1049
 6104TIP3    H239804   3.750   1.560  15.032 -0.5854  0.4368 -0.2964
 6105TIP3   OH239805   6.556   2.789  10.687 -0.1259  0.6222 -0.6359
 6105TIP3    H139806   6.520   2.877  10.677 -0.8055  0.3671 -0.4520
 6105TIP3    H239807   6.635   2.790  10.634  0.8220  1.8799  0.7783
 6106TIP3   OH239808   3.921   0.931   5.506 -0.2603  0.8816 -0.3946
 6106TIP3    H139809   3.867   0.880   5.446 -0.6410  1.1522 -0.2864
 6106TIP3    H239810   3.862   0.952   5.578  0.3673  0.0227  0.3801
 6107TIP3   OH239811   1.024   6.748  15.225 -0.2187  0.3194  0.3229
 6107TIP3    H139812   1.092   6.722  15.287  2.1355  1.2087 -1.7986
 6107TIP3    H239813   1.029   6.843  15.223 -1.2585  0.3668 -0.1605
 6108TIP3   OH239814   2.363   2.462  16.833  0.0505  0.6586 -0.2717
 6108TIP3    H139815   2.287   2.502  16.876 -0.2719  1.0048 -1.1512
 6108TIP3    H239816   2.394   2.529  16.772 -0.0257 -0.1355 -1.2003
 6109TIP3   OH239817   4.688   2.277  15.150 -0.0972 -0.1547 -0.3613
 6109TIP3    H139818   4.667   2.265  15.057  1.6114  2.4837 -1.1275
 6109TIP3    H239819   4.755   2.344  15.151 -0.0150 -0.2153  2.8186
 6110TIP3   OH239820   6.548   6.392   5.941 -0.1729 -0.1165 -0.0670
 6110TIP3    H139821   6.630   6.410   5.895  0.1203  0.4876  0.7021
 6110TIP3    H239822   6.574   6.354   6.024 -0.7138 -1.2050 -0.3833
 6111TIP3   OH239823   3.733   4.091   0.418  0.2824  0.3415  0.2503
 6111TIP3    H139824   3.656   4.134   0.380  0.5591 -0.3236 -1.0960
 6111TIP3    H239825   3.782   4.161   0.460  0.0192  1.1260 -0.7348
 6112TIP3   OH239826   1.107   6.335  15.139 -0.1321 -0.2312  0.1391
 6112TIP3    H139827   1.133   6.264  15.080  1.6042  0.2786  0.2456
 6112TIP3    H239828   1.085   6.291  15.221  1.2210 -0.6282  0.2981
 6113TIP3   OH239829   6.421   5.091  15.645  0.1216  0.5017 -0.3283
 6113TIP3    H139830   6.371   5.143  15.707 -0.1736  0.7326 -0.7619
 6113TIP3    H239831   6.403   5.130  15.559 -4.2587 -3.4216 -1.4109
 6114TIP3   OH239832   6.229   2.997   4.555 -0.2487 -1.5226  0.0460
 6114TIP3    H139833   6.305   3.053   4.540 -0.8615 -0.5266  0.5663
 6114TIP3    H239834   6.264   2.909   4.562  1.0582 -0.8732  2.0022
 6115TIP3   OH239835   6.505   3.453   0.453 -0.4053  1.1626 -0.0289
 6115TIP3    H139836   6.425   3.431   0.405  1.4147  0.8944 -3.0444
 6115TIP3    H239837   6.534   3.371   0.491 -1.0716  1.1117  0.3994
 6116TIP3   OH239838   5.536   4.974  15.239 -0.5158 -0.3140  0.4537
 6116TIP3    H139839   5.546   5.020  15.322  0.3500 -0.9260  0.6980
 6116TIP3    H239840   5.442   4.967  15.226 -0.6526  0.0701  1.2318
 6117TIP3   OH239841   2.735   2.695   3.909 -0.3075  0.0436 -0.7040
 6117TIP3    H139842   2.819   2.687   3.954 -1.0263 -0.1778  0.6329
 6117TIP3    H239843   2.698   2.777   3.943 -0.2823  0.5472 -1.8827
 6118TIP3   OH239844   4.360   0.742   1.258  0.5003  0.2854  0.2459
 6118TIP3    H139845   4.370   0.774   1.168 -0.9261 -0.3210 -0.1484
 6118TIP3    H239846   4.270   0.709   1.261  0.8364 -0.5227  1.6411
 6119TIP3   OH239847   2.381   0.550   2.525  0.1517  0.1164 -0.3132
 6119TIP3    H139848   2.335   0.608   2.465 -0.0449  0.5004  0.2029
 6119TIP3    H239849   2.328   0.471   2.528  0.0107  0.2062 -0.4322
 6120TIP3   OH239850   1.594   2.209  15.954  0.1175 -0.0853  0.8079
 6120TIP3    H139851   1.557   2.289  15.917  0.3304 -0.3312  0.0734
 6120TIP3    H239852   1.688   2.223  15.953  0.3521 -1.5729 -2.1516
 6121TIP3   OH239853   5.752   2.254   1.298 -0.9280  0.6514 -0.0397
 6121TIP3    H139854   5.682   2.193   1.321 -0.5513  0.6728  1.2229
 6121TIP3    H239855   5.742   2.326   1.361  0.3324  0.5761  0.2503
 6122TIP3   OH239856   3.802   3.488  16.381 -0.1619  0.2916  0.2667
 6122TIP3    H139857   3.753   3.497  16.463  0.1675 -0.3211  0.5377
 6122TIP3    H239858   3.791   3.395  16.357 -0.9517  0.6538 -0.8242
 6123TIP3   OH239859   1.142   2.861   1.736  0.0245 -0.2047  0.6577
 6123TIP3    H139860   1.095   2.943   1.747 -0.1650 -0.1964 -0.1385
 6123TIP3    H239861   1.231   2.887   1.715 -0.0491 -0.1983  0.3480
 6124TIP3   OH239862   3.624   5.604  12.523 -0.4602 -0.2974  0.3149
 6124TIP3    H139863   3.657   5.620  12.612 -3.8370  0.3804  1.5090
 6124TIP3    H239864   3.629   5.509  12.512 -0.6368 -0.4465  1.4897
 6125TIP3   OH239865   3.357   1.116  11.361  0.6779  0.7609  0.5580
 6125TIP3    H139866   3.430   1.063  11.328 -0.7233  0.0813 -1.5839
 6125TIP3    H239867   3.326   1.163  11.284 -0.2311  2.1535  1.7563
 6126TIP3   OH239868   5.812   3.086   0.573 -0.5995  0.7494 -0.1779
 6126TIP3    H139869   5.774   3.032   0.642  0.0001  0.9166  0.2840
 6126TIP3    H239870   5.865   3.025   0.521  1.4819  1.1732  1.3564
 6127TIP3   OH239871   0.284   3.354   3.241  0.0329 -0.0549 -0.5272
 6127TIP3    H139872   0.335   3.286   3.286  0.6162  1.3391  0.9464
 6127TIP3    H239873   0.340   3.431   3.243 -0.6344  0.4897 -2.1937
 6128TIP3   OH239874   3.863   4.619  14.803  0.4767 -0.2717 -0.3060
 6128TIP3    H139875   3.822   4.558  14.864  1.1590 -0.2632  0.1627
 6128TIP3    H239876   3.790   4.671  14.768 -0.1143 -1.3905 -0.7571
 6129TIP3   OH239877   5.294   4.494  14.331  0.2278  0.1189  0.3095
 6129TIP3    H139878   5.347   4.573  14.326 -1.2036  1.1446  0.7402
 6129TIP3    H239879   5.236   4.499  14.255 -1.2213  0.5293  1.4044
 6130TIP3   OH239880   0.285   3.206  14.711 -0.2212  0.0799  0.3806
 6130TIP3    H139881   0.245   3.290  14.733  0.6801  0.3126  1.1649
 6130TIP3    H239882   0.226   3.141  14.748 -0.3739  0.3994  0.7000
 6131TIP3   OH239883   2.330   0.416   4.770 -0.0247 -0.8312 -0.3826
 6131TIP3    H139884   2.246   0.430   4.812 -0.7568  1.3719 -2.4361
 6131TIP3    H239885   2.311   0.359   4.696  0.1519  0.1687 -1.2119
 6132TIP3   OH239886   6.596   4.878  13.680 -0.0318  0.1900 -0.2722
 6132TIP3    H139887   6.515   4.834  13.703  0.9699 -1.5822 -0.0689
 6132TIP3    H239888   6.584   4.903  13.588 -1.2948  1.0813  0.1205
 6133TIP3   OH239889   6.695   5.426  15.208  0.4334 -0.4605 -0.3894
 6133TIP3    H139890   6.726   5.429  15.299  1.8672  0.0170 -0.8785
 6133TIP3    H239891   6.760   5.374  15.162 -0.1327 -0.4460 -1.2177
 6134TIP3   OH239892   4.042   2.919  16.376  0.5275 -0.0033  0.5000
 6134TIP3    H139893   4.020   2.886  16.463 -0.2243  2.4032  1.2667
 6134TIP3    H239894   3.960   2.915  16.327  0.4939  0.4937  0.5180
 6135TIP3   OH239895   4.306   3.153   0.543  0.7081  0.1035  0.0182
 6135TIP3    H139896   4.249   3.205   0.485  0.7576  0.1239 -0.0118
 6135TIP3    H239897   4.330   3.077   0.491  1.4698  0.5558 -0.3057
 6136TIP3   OH239898   4.746   5.052  15.976 -0.1381  0.1047 -0.1216
 6136TIP3    H139899   4.749   5.060  15.881 -0.9668 -0.3071 -0.1769
 6136TIP3    H239900   4.733   5.142  16.007 -2.1100 -0.0403 -0.4877
 6137TIP3   OH239901   0.015   5.244  12.269 -0.5066 -0.5538 -0.5192
 6137TIP3    H139902   0.065   5.172  12.307  1.3118  1.2600  0.6033
 6137TIP3    H239903   0.074   5.284  12.205 -0.6056  1.3998  0.5736
 6138TIP3   OH239904   6.074   3.109   4.744 -0.0202  0.2498  0.1962
 6138TIP3    H139905   6.124   3.064   4.676 -0.6680 -0.4354  0.1781
 6138TIP3    H239906   6.110   3.077   4.826  0.6321  0.9345  0.1843
 6139TIP3   OH239907   2.731   4.261  11.860 -0.4520  0.0269 -0.0547
 6139TIP3    H139908   2.681   4.183  11.880  0.0370 -0.3571 -0.3173
 6139TIP3    H239909   2.714   4.277  11.767 -0.0904 -0.0998 -0.1412
 6140TIP3   OH239910   2.350   0.121  15.610  0.3993 -0.0552 -0.9787
 6140TIP3    H139911   2.437   0.114  15.571  0.1288 -0.7117 -1.4919
 6140TIP3    H239912   2.361   0.091  15.700  1.1112  1.8670 -0.4092
 6141TIP3   OH239913   6.328   2.391  11.806  0.1183 -0.7398  0.2636
 6141TIP3    H139914   6.356   2.470  11.852 -1.2335 -1.3422  2.1863
 6141TIP3    H239915   6.407   2.337  11.801  0.9258  0.4848 -0.5980
 6142TIP3   OH239916   0.446   4.326   0.419  0.2095  0.8243  0.5037
 6142TIP3    H139917   0.465   4.262   0.350  0.3932  0.5514  0.8058
 6142TIP3    H239918   0.531   4.352   0.453  0.0927  0.2891  1.2308
 6143TIP3   OH239919   2.479   3.412   1.044 -0.0056 -0.2367 -1.0961
 6143TIP3    H139920   2.565   3.453   1.057 -0.1429 -0.6313  1.3883
 6143TIP3    H239921   2.445   3.451   0.964  0.9896  2.5672 -0.2171
 6144TIP3   OH239922   1.905   0.229   4.056  0.1693 -0.3604  0.3742
 6144TIP3    H139923   1.890   0.218   3.962  0.1835  1.0776  0.1991
 6144TIP3    H239924   1.996   0.256   4.063 -0.9900  3.8554  0.4359
 6145TIP3   OH239925   1.009   4.886   3.441 -0.5161  0.1638 -0.1862
 6145TIP3    H139926   1.039   4.829   3.512 -0.3669 -0.1576 -0.5036
 6145TIP3    H239927   0.935   4.934   3.478 -0.0063  0.5029  0.4083
 6146TIP3   OH239928   0.094   0.457   1.801 -0.3597  0.1183  0.0131
 6146TIP3    H139929   0.099   0.495   1.889 -0.0019 -1.9269  0.9112
 6146TIP3    H239930   0.154   0.510   1.749 -0.0810  0.9473  1.1457
 6147TIP3   OH239931   6.280   3.986   2.334  0.0238 -0.3164  0.4242
 6147TIP3    H139932   6.358   4.016   2.381 -0.9628 -1.1487  2.7129
 6147TIP3    H239933   6.310   3.913   2.281  0.8567 -0.5001  1.1410
 6148TIP3   OH239934   0.823   5.769   6.428  0.5147 -0.3251  0.1991
 6148TIP3    H139935   0.848   5.842   6.370 -0.1967 -0.0908  0.1844
 6148TIP3    H239936   0.788   5.811   6.506 -0.2414 -0.6599  0.0379
 6149TIP3   OH239937   0.305   4.958  16.950  0.2668 -0.1139  0.0559
 6149TIP3    H139938   0.214   4.986  16.951 -0.3790 -2.2031  0.5111
 6149TIP3    H239939   0.353   5.036  16.920 -1.7664  0.6346 -1.3867
 6150TIP3   OH239940   0.190   3.692   4.708 -0.6362 -0.2033 -0.2173
 6150TIP3    H139941   0.241   3.716   4.630 -2.1673  0.4539 -1.0251
 6150TIP3    H239942   0.137   3.617   4.680 -1.5228  0.3174  0.0555
 6151TIP3   OH239943   2.265   1.931   3.433 -0.1485 -0.0700  0.4966
 6151TIP3    H139944   2.220   1.980   3.501  3.4364 -0.4176  3.2636
 6151TIP3    H239945   2.325   1.873   3.481  1.3873 -1.4315 -2.9054
 6152TIP3   OH239946   0.788   5.314  14.294 -0.1164 -0.5445  0.7788
 6152TIP3    H139947   0.732   5.390  14.279  1.2123  0.0969 -1.0314
 6152TIP3    H239948   0.735   5.239  14.266 -0.7242 -0.1111  0.7575
 6153TIP3   OH239949   5.749   4.881   5.345  0.3255  0.3651 -0.0006
 6153TIP3    H139950   5.783   4.880   5.434 -1.8969 -0.1944  0.8760
 6153TIP3    H239951   5.776   4.798   5.307 -0.3218 -0.2154  0.8008
 6154TIP3   OH239952   6.007   0.456  16.897 -0.5386  0.2065 -0.0027
 6154TIP3    H139953   6.035   0.547  16.886  0.8255 -0.1423  0.5094
 6154TIP3    H239954   5.913   0.462  16.915 -0.7952  1.4023 -1.6251
 6155TIP3   OH239955   2.456   5.340   5.132  0.2115  0.0234  0.1109
 6155TIP3    H139956   2.428   5.328   5.223  1.2326  1.5146  0.6483
 6155TIP3    H239957   2.478   5.433   5.126  0.7958 -0.2010 -1.4845
 6156TIP3   OH239958   5.503   1.041   1.791 -0.0392  0.3923  0.3940
 6156TIP3    H139959   5.578   1.046   1.851 -1.1475  0.3007  1.8338
 6156TIP3    H239960   5.427   1.052   1.848 -1.1355  0.1440 -0.9986
 6157TIP3   OH239961   6.544   4.870   4.422  0.4368  0.4061  0.6612
 6157TIP3    H139962   6.552   4.877   4.517  0.6471  0.2197  0.6594
 6157TIP3    H239963   6.455   4.898   4.403 -0.6999 -2.6327  1.2519
 6158TIP3   OH239964   6.693   2.503  16.164  0.5382 -0.6721 -0.6088
 6158TIP3    H139965   6.700   2.519  16.258  0.6177  1.1532 -0.9065
 6158TIP3    H239966   6.627   2.434  16.156 -1.8208  1.3986  0.6081
 6159TIP3   OH239967   4.714   2.264   3.614 -0.2664  0.6448 -0.8185
 6159TIP3    H139968   4.767   2.202   3.665 -0.2410 -0.2115 -1.8640
 6159TIP3    H239969   4.626   2.228   3.617 -0.2466  0.5385 -1.4467
 6160TIP3   OH239970   6.177   4.036   0.635  0.1062 -0.3813 -0.4200
 6160TIP3    H139971   6.135   4.054   0.718  0.9037  1.5458 -0.4191
 6160TIP3    H239972   6.168   3.941   0.624 -1.5322 -0.4137  1.0046
 6161TIP3   OH239973   1.841   1.106   2.717  0.1150  0.0173 -0.2081
 6161TIP3    H139974   1.756   1.073   2.687  0.7474 -2.2100  0.3608
 6161TIP3    H239975   1.905   1.060   2.663  1.0646 -0.4396  1.2865
 6162TIP3   OH239976   5.129   0.281   2.843 -0.6003  0.0469 -0.2191
 6162TIP3    H139977   5.190   0.351   2.869 -0.9224  0.1783  0.1774
 6162TIP3    H239978   5.186   0.212   2.809 -0.3528  0.9787 -1.7472
 6163TIP3   OH239979   2.607   3.224   3.578 -0.4432  0.4006 -0.6279
 6163TIP3    H139980   2.603   3.243   3.484 -1.4972  1.1719 -0.4367
 6163TIP3    H239981   2.693   3.257   3.605 -1.4397  3.2200 -0.7002
 6164TIP3   OH239982   5.209   1.576   4.542  0.1251 -0.0536 -0.2831
 6164TIP3    H139983   5.187   1.494   4.585  0.1770  0.2502  0.3205
 6164TIP3    H239984   5.198   1.643   4.609 -0.9954  0.5681 -1.0636
 6165TIP3   OH239985   0.054   2.820   0.643 -0.0554 -0.0262  0.0999
 6165TIP3    H139986   0.049   2.907   0.604  0.2224  1.2014  2.7177
 6165TIP3    H239987  -0.031   2.808   0.686  0.3036 -0.6071  0.6585
 6166TIP3   OH239988   1.713   5.347  12.731 -0.0011  0.2661  0.0475
 6166TIP3    H139989   1.625   5.368  12.698 -0.9762  0.0721  2.4290
 6166TIP3    H239990   1.698   5.281  12.798  1.9976  0.1233  0.3716
 6167TIP3   OH239991   2.584   2.634   5.777  0.1648  0.0768  0.2775
 6167TIP3    H139992   2.657   2.610   5.834 -0.2239 -0.5148  0.5216
 6167TIP3    H239993   2.589   2.573   5.704 -0.0909  0.0395  0.2931
 6168TIP3   OH239994   3.165   3.007  13.045  0.1957 -0.0514 -0.0085
 6168TIP3    H139995   3.232   2.999  13.113  0.6242 -0.1907 -0.4418
 6168TIP3    H239996   3.082   2.992  13.090  0.2591  2.2828  0.9608
 6169TIP3   OH239997   2.961   6.783   0.021 -0.1743  0.2286 -0.1317
 6169TIP3    H139998   2.871   6.758   0.043 -0.4012 -0.4283 -1.7282
 6169TIP3    H239999   2.952   6.861  -0.035  0.2070 -0.2696 -0.8968
 6170TIP3   OH240000   5.007   0.385  12.396 -0.2917  0.5985  0.0895
 6170TIP3    H140001   5.088   0.365  12.443 -0.5855 -1.4140 -0.2174
 6170TIP3    H240002   4.943   0.403  12.466  0.9053  4.4103  0.3032
 6171TIP3   OH240003   1.487   0.096   4.283 -0.8402  0.4508  0.6245
 6171TIP3    H140004   1.576   0.120   4.256 -0.3733 -0.1317  1.6047
 6171TIP3    H240005   1.444   0.068   4.203 -0.2668  1.1467  0.0739
 6172TIP3   OH240006   2.256   3.120   0.261 -0.1945  0.1227  0.0584
 6172TIP3    H140007   2.289   3.154   0.179  0.6465 -2.2504 -0.6192
 6172TIP3    H240008   2.187   3.057   0.236 -1.0766  0.5964  1.2223
 6173TIP3   OH240009   0.231   0.136  14.513 -0.0319  0.2225  0.1995
 6173TIP3    H140010   0.199   0.084  14.586 -0.0204  1.4989  1.1153
 6173TIP3    H240011   0.159   0.195  14.491 -0.6658 -1.2542 -1.9054
 6174TIP3   OH240012   6.036   0.139   2.551  0.2175  0.2710 -0.5182
 6174TIP3    H140013   6.019   0.067   2.490 -1.3142  0.3054 -0.1610
 6174TIP3    H240014   6.113   0.111   2.601  0.6293 -0.3743 -1.5175
 6175TIP3   OH240015   4.047   5.047   5.961  0.0944  0.1449 -0.3210
 6175TIP3    H140016   4.058   5.025   6.053  0.8705 -0.8496 -0.6393
 6175TIP3    H240017   4.028   5.141   5.960  0.4950  0.2385  0.8209
 6176TIP3   OH240018   0.271   1.944   0.566 -0.1817  0.5803 -0.1152
 6176TIP3    H140019   0.198   2.005   0.568  0.0636  0.9137 -0.9448
 6176TIP3    H240020   0.261   1.891   0.645 -1.0130  0.9748  0.0458
 6177TIP3   OH240021   5.055   4.244  12.487 -0.4078  0.3892 -0.0108
 6177TIP3    H140022   5.118   4.315  12.495  0.6962 -0.1828 -2.8503
 6177TIP3    H240023   5.096   4.182  12.427 -2.4209 -1.4522  0.4287
 6178TIP3   OH240024   0.483   5.209   0.494 -0.3973 -0.2239  0.2730
 6178TIP3    H140025   0.577   5.197   0.507 -0.3899  0.6893  1.1026
 6178TIP3    H240026   0.454   5.128   0.451  0.6364 -0.7915  0.6323
 6179TIP3   OH240027   2.583   0.141   6.395  0.5161 -0.2317  0.0896
 6179TIP3    H140028   2.643   0.075   6.360  0.3075 -1.1538  1.4259
 6179TIP3    H240029   2.639   0.207   6.433  0.7236  0.2766 -1.0691
 6180TIP3   OH240030   0.100   3.650   4.367  0.0808  0.1414  0.0391
 6180TIP3    H140031   0.044   3.696   4.430 -0.4091 -0.8716  0.3520
 6180TIP3    H240032   0.055   3.567   4.351 -0.1868  0.6814 -2.2141
 6181TIP3   OH240033   3.532   0.666  15.163  0.2074 -0.3412  0.6389
 6181TIP3    H140034   3.626   0.681  15.148  0.6923 -1.3838  2.4471
 6181TIP3    H240035   3.529   0.584  15.214 -1.5638  0.7004  2.2668
 6182TIP3   OH240036   1.317   2.572   5.995  0.0904 -0.5204 -0.5116
 6182TIP3    H140037   1.283   2.523   5.920  2.2128 -2.2316 -0.3786
 6182TIP3    H240038   1.251   2.558   6.063 -1.7838  0.9254 -1.9449
 6183TIP3   OH240039   1.375   5.007   1.470 -0.2031 -0.5000  0.2723
 6183TIP3    H140040   1.297   5.056   1.444 -1.7088 -0.4332  4.4440
 6183TIP3    H240041   1.448   5.067   1.451 -1.4538  0.7744 -0.6263
 6184TIP3   OH240042   5.143   4.812  12.510  0.6261 -0.5977 -0.1721
 6184TIP3    H140043   5.182   4.886  12.464  0.4463  0.0547  0.6995
 6184TIP3    H240044   5.078   4.777  12.450 -1.3190  1.7491  0.5047
 6185TIP3   OH240045   2.617   4.465  14.820  0.1323 -0.3389 -0.3933
 6185TIP3    H140046   2.618   4.390  14.880 -1.1300 -0.2379 -0.2125
 6185TIP3    H240047   2.527   4.467  14.786  0.3184  0.7212 -0.8596
 6186TIP3   OH240048   1.191   4.245  13.980  0.1102 -0.3717  0.0334
 6186TIP3    H140049   1.215   4.196  14.059  0.7573 -0.7218 -0.3675
 6186TIP3    H240050   1.114   4.295  14.005  0.9249  0.3204  1.1883
 6187TIP3   OH240051   2.676   3.570   1.063 -0.4443  0.0450 -0.3009
 6187TIP3    H140052   2.640   3.637   1.005 -0.3010  0.6673  0.3186
 6187TIP3    H240053   2.711   3.619   1.137  0.1945 -0.6754 -0.1167
 6188TIP3   OH240054   2.647   1.785   5.870 -0.0581 -0.5548 -0.0860
 6188TIP3    H140055   2.609   1.730   5.939 -0.8418 -1.7398 -1.4248
 6188TIP3    H240056   2.662   1.725   5.797  2.3563  0.3541 -0.3603
 6189TIP3   OH240057   0.460   2.292   4.624 -0.0126  0.2948  0.4227
 6189TIP3    H140058   0.391   2.243   4.579  0.0576  1.3990 -0.9290
 6189TIP3    H240059   0.510   2.333   4.553  0.9869  0.9047  1.4610
 6190TIP3   OH240060   1.579   0.960   4.619 -0.1014 -0.4274 -0.2821
 6190TIP3    H140061   1.650   0.897   4.614 -1.3986 -2.1760  2.4306
 6190TIP3    H240062   1.507   0.919   4.570  0.9824  1.8263 -4.0068
 6191TIP3   OH240063   0.447   5.736   5.099  0.3817  0.1451  0.3447
 6191TIP3    H140064   0.462   5.647   5.130 -2.7911 -0.7775 -0.5709
 6191TIP3    H240065   0.486   5.738   5.012 -0.4192 -0.6836 -0.0426
 6192TIP3   OH240066   3.189   2.041  14.958  0.4003  0.1547  0.1954
 6192TIP3    H140067   3.229   2.113  15.006 -0.7764  0.3164  0.9623
 6192TIP3    H240068   3.127   2.082  14.898 -0.6254 -0.2121  0.9724
 6193TIP3   OH240069   3.491   0.378  10.607  0.2237 -0.1806 -0.1125
 6193TIP3    H140070   3.556   0.445  10.628  0.0072  0.2778 -0.8795
 6193TIP3    H240071   3.534   0.323  10.541  0.2941 -0.6224  0.3022
 6194TIP3   OH240072   5.526   5.642  12.332 -0.3545  0.0499  0.0036
 6194TIP3    H140073   5.531   5.547  12.317  1.1144  0.2402 -0.8111
 6194TIP3    H240074   5.514   5.650  12.427  2.4937 -0.9019  0.4976
 6195TIP3   OH240075   6.450   4.742  12.375 -0.3703  0.1399 -0.4250
 6195TIP3    H140076   6.488   4.810  12.430  0.6712 -0.7444 -0.0369
 6195TIP3    H240077   6.426   4.787  12.294 -0.9154  1.2304  0.3305
 6196TIP3   OH240078   5.200   5.393   6.091  0.1238 -0.1753  0.4146
 6196TIP3    H140079   5.115   5.367   6.126  0.0525  0.0712  0.4233
 6196TIP3    H240080   5.260   5.324   6.120  0.4319  0.9972  2.6788
 6197TIP3   OH240081   2.462   4.474   3.014 -0.1649 -0.1544 -0.2437
 6197TIP3    H140082   2.464   4.554   2.960 -2.0900  0.6716  0.8397
 6197TIP3    H240083   2.400   4.417   2.968 -1.1052  0.1903  0.5739
 6198TIP3   OH240084   4.502   2.074   2.174  0.4246 -0.2569  0.2153
 6198TIP3    H140085   4.504   2.077   2.078  1.2345 -1.5552  0.1758
 6198TIP3    H240086   4.445   1.999   2.194  0.5173 -0.1839  0.7515
 6199TIP3   OH240087   3.319   0.592  11.989  0.0550  0.9934  0.2710
 6199TIP3    H140088   3.291   0.682  11.973 -0.7039  0.5873 -0.7842
 6199TIP3    H240089   3.248   0.538  11.955  0.2269 -0.0042  1.4394
 6200TIP3   OH240090   3.266   5.118  17.100  0.3710  0.0808  0.7201
 6200TIP3    H140091   3.352   5.138  17.062  0.7074  0.1508  1.5193
 6200TIP3    H240092   3.245   5.195  17.152 -0.0666 -0.0428  0.7222
 6201TIP3   OH240093   0.855   0.031  14.566 -0.3431  0.5048  0.0839
 6201TIP3    H140094   0.835   0.095  14.634  2.0679  0.1063  1.2178
 6201TIP3    H240095   0.817  -0.051  14.598  1.1584  0.2223  1.1799
 6202TIP3   OH240096   6.006   0.508   4.387  0.9232 -0.3190  0.2847
 6202TIP3    H140097   6.071   0.444   4.413 -2.2041 -3.8735 -0.2391
 6202TIP3    H240098   6.030   0.533   4.298  2.1120 -0.8295  0.4572
 6203TIP3   OH240099   5.946   0.011  12.042  0.6851 -0.7591  0.3065
 6203TIP3    H140100   5.911  -0.051  11.979  3.8445  0.6931 -3.0507
 6203TIP3    H240101   5.909   0.095  12.016 -0.7126 -0.6320  2.5816
 6204TIP3   OH240102   3.449   2.549   0.083  0.3506 -0.2918  0.2764
 6204TIP3    H140103   3.387   2.622   0.089  2.1561  1.2373  0.5524
 6204TIP3    H240104   3.468   2.541  -0.010 -0.9094 -1.3667  0.0800
 6205TIP3   OH240105   3.233   2.539   1.939  0.3480  0.1814 -0.1423
 6205TIP3    H140106   3.184   2.498   2.011 -2.0838 -1.0460 -2.4244
 6205TIP3    H240107   3.265   2.621   1.977 -1.1642 -0.2846  2.2690
 6206TIP3   OH240108   2.530   0.116   0.539  0.4812  0.1018  0.0764
 6206TIP3    H140109   2.450   0.097   0.588  0.0063  1.6502 -0.0763
 6206TIP3    H240110   2.594   0.140   0.606  1.0149 -1.6788  0.2493
 6207TIP3   OH240111   5.253   0.900   0.193  0.2868 -0.1203 -0.6156
 6207TIP3    H140112   5.313   0.967   0.160  1.7023 -0.7823  0.5418
 6207TIP3    H240113   5.245   0.919   0.286 -0.3040 -0.7997 -0.5281
 6208TIP3   OH240114   0.608   2.325  15.303  0.1493 -0.5874  0.1298
 6208TIP3    H140115   0.611   2.416  15.332 -0.9525 -0.7042  0.6264
 6208TIP3    H240116   0.693   2.289  15.328  0.4577  0.2073  0.2392
 6209TIP3   OH240117   5.948   4.716  16.355  0.2114  0.6307  0.0198
 6209TIP3    H140118   5.907   4.778  16.295 -1.0671 -1.1047 -0.9580
 6209TIP3    H240119   5.974   4.643  16.299  0.3557 -0.3653  1.3689
 6210TIP3   OH240120   3.515   4.822   5.487 -0.4978  0.5429  0.3674
 6210TIP3    H140121   3.515   4.811   5.582 -0.1610 -1.3923  0.1720
 6210TIP3    H240122   3.597   4.782   5.459 -0.6376  1.0280 -0.7607
 6211TIP3   OH240123   2.519   5.169  12.450 -0.2377 -0.0017  0.0795
 6211TIP3    H140124   2.431   5.131  12.456  0.6298 -2.1195  0.0216
 6211TIP3    H240125   2.504   5.261  12.431 -2.4178 -0.7053 -1.9099
 6212TIP3   OH240126   4.686   0.689  14.301  0.0638  0.3214  0.3789
 6212TIP3    H140127   4.712   0.763  14.245  0.5910 -0.7892 -0.8722
 6212TIP3    H240128   4.666   0.729  14.386  1.3380  1.7799  0.0156
 6213TIP3   OH240129   3.653   0.082  12.794  0.1481 -0.5217 -0.3114
 6213TIP3    H140130   3.596   0.011  12.763 -1.3445  0.9142 -0.9272
 6213TIP3    H240131   3.598   0.132  12.854  0.2786  1.7298 -2.0179
 6214TIP3   OH240132   1.908   1.473   5.279  0.1518 -0.0776  0.5770
 6214TIP3    H140133   1.954   1.537   5.225 -0.6835  0.7053  0.7819
 6214TIP3    H240134   1.967   1.398   5.283 -0.0149 -0.3888 -1.9198
 6215TIP3   OH240135   4.373   5.961  15.859  0.2842 -0.1904  0.5616
 6215TIP3    H140136   4.319   5.897  15.906  1.8016 -1.1838  1.0003
 6215TIP3    H240137   4.436   5.907  15.810  1.3527  0.9588  0.6539
 6216TIP3   OH240138   0.771   0.777  11.296  0.2715 -0.2788  0.0932
 6216TIP3    H140139   0.695   0.724  11.273 -1.2973  1.9147  0.1300
 6216TIP3    H240140   0.817   0.791  11.213  0.0455 -0.7144 -0.1024
 6217TIP3   OH240141   0.676   3.931  15.035  0.1726  0.5775  0.2027
 6217TIP3    H140142   0.730   4.010  15.030 -0.4465  0.9409 -0.7715
 6217TIP3    H240143   0.625   3.931  14.954 -0.4255 -0.3941  0.5692
 6218TIP3   OH240144   4.538   4.194  11.043 -0.8610  0.1290  0.3922
 6218TIP3    H140145   4.479   4.201  10.968 -2.6353  0.6615  1.8117
 6218TIP3    H240146   4.537   4.101  11.066  2.4133 -0.6725 -2.3545
 6219TIP3   OH240147   2.800   2.761   0.767 -0.0086 -0.5502 -0.3229
 6219TIP3    H140148   2.874   2.786   0.822  0.3206 -0.5250 -0.7715
 6219TIP3    H240149   2.722   2.785   0.818  0.2956  0.1689 -0.1886
 6220TIP3   OH240150   4.367   3.486  14.032 -0.2776  0.2840 -0.2334
 6220TIP3    H140151   4.429   3.428  13.989 -0.8470 -0.6324  0.1640
 6220TIP3    H240152   4.337   3.437  14.109  0.8930  1.9777  1.3600
 6221TIP3   OH240153   4.460   0.735  16.593 -0.3270  0.2960 -0.3577
 6221TIP3    H140154   4.420   0.653  16.563 -0.1234  0.3664 -0.8258
 6221TIP3    H240155   4.388   0.783  16.634 -0.6431  0.2528 -0.8569
 6222TIP3   OH240156   5.613   6.261  16.031  0.1151  0.0035 -0.6860
 6222TIP3    H140157   5.642   6.185  16.081  0.6542 -0.3828 -1.5600
 6222TIP3    H240158   5.673   6.331  16.056  0.2756 -0.1447 -0.6501
 6223TIP3   OH240159   0.060   4.853   0.297  0.8014  0.2688 -0.3759
 6223TIP3    H140160  -0.008   4.791   0.322  0.7536  0.4580 -0.0442
 6223TIP3    H240161   0.025   4.896   0.220  0.6263  0.2329 -0.3172
 6224TIP3   OH240162   4.170   4.501  12.375  0.5401 -0.6581 -0.8333
 6224TIP3    H140163   4.216   4.466  12.299  1.6303 -0.5509 -0.2225
 6224TIP3    H240164   4.087   4.454  12.377  0.4943 -0.6456 -2.1066
 6225TIP3   OH240165   0.098   1.512  15.015  0.6867  0.9272  0.1212
 6225TIP3    H140166   0.050   1.524  14.933 -1.0980  0.2081  1.0313
 6225TIP3    H240167   0.188   1.538  14.994  0.2601  0.7634 -2.0507
 6226TIP3   OH240168   3.541   0.676   5.813  0.1575 -0.3165  0.0442
 6226TIP3    H140169   3.572   0.616   5.746 -0.8331  1.6583 -2.2601
 6226TIP3    H240170   3.579   0.643   5.895  2.0301 -2.3008 -1.5757
 6227TIP3   OH240171   4.838   4.886   5.682  0.0593  0.0090  0.1677
 6227TIP3    H140172   4.803   4.855   5.766  0.9542  0.0746  0.5677
 6227TIP3    H240173   4.859   4.806   5.633 -1.6339 -0.0515 -0.5083
 6228TIP3   OH240174   3.933   4.166   1.882  0.0680 -0.2888 -0.4520
 6228TIP3    H140175   4.002   4.107   1.851  1.1920 -0.5277  2.4015
 6228TIP3    H240176   3.862   4.107   1.909  0.3586 -0.2518  0.4103
 6229TIP3   OH240177   6.518   6.074   5.693  0.0923  0.1754 -0.2819
 6229TIP3    H140178   6.458   6.002   5.678  1.6618 -1.5844  1.5754
 6229TIP3    H240179   6.462   6.147   5.721 -1.6972  0.3286 -3.9621
 6230TIP3   OH240180   4.809   5.362   3.559  0.2962 -0.2088 -0.0124
 6230TIP3    H140181   4.803   5.358   3.654  0.2874  0.5217  0.0150
 6230TIP3    H240182   4.740   5.303   3.528 -1.3106  1.4083  0.3992
 6231TIP3   OH240183   0.284   0.651  11.656  0.7829  0.1658 -0.0865
 6231TIP3    H140184   0.245   0.735  11.683 -1.2353 -0.9948  0.7367
 6231TIP3    H240185   0.305   0.663  11.564 -2.9791  0.4116 -1.0234
 6232TIP3   OH240186   3.937   3.648   1.740  0.8930  0.0982  0.4766
 6232TIP3    H140187   3.901   3.653   1.652  0.0680  1.2531  0.8592
 6232TIP3    H240188   3.926   3.557   1.766  1.2732 -0.2707 -0.6683
 6233TIP3   OH240189   4.799   2.756   2.157  0.5902  0.1482 -0.2440
 6233TIP3    H140190   4.781   2.776   2.249  0.8872  0.0035 -0.1549
 6233TIP3    H240191   4.879   2.705   2.158  0.9458  0.6830 -0.6284
 6234TIP3   OH240192   1.726   4.396  11.407 -0.1040  0.2802  0.0987
 6234TIP3    H140193   1.664   4.440  11.349  1.8830  0.3913 -2.0007
 6234TIP3    H240194   1.786   4.465  11.435  0.0067 -0.1226  0.8756
 6235TIP3   OH240195   0.841   1.752  12.209 -0.0367  0.3776  0.8307
 6235TIP3    H140196   0.820   1.775  12.299 -0.2879  0.6503  0.7038
 6235TIP3    H240197   0.788   1.674  12.191 -0.9486  1.0645  0.5099
 6236TIP3   OH240198   5.898   4.983   4.357 -0.1236  0.5345 -0.4765
 6236TIP3    H140199   5.838   4.929   4.408  1.0932  0.8136  1.2774
 6236TIP3    H240200   5.915   5.060   4.412  1.5766  0.6088 -1.0767
 6237TIP3   OH240201   0.855   4.131  15.070 -0.1501  0.2652 -0.4367
 6237TIP3    H140202   0.941   4.091  15.084 -0.2428 -0.1192 -0.9658
 6237TIP3    H240203   0.847   4.194  15.142  0.6583  0.4460 -0.4914
 6238TIP3   OH240204   5.925   4.022   3.916  0.0821  0.4198  0.1162
 6238TIP3    H140205   5.856   3.988   3.973  0.6668  1.9978  1.8330
 6238TIP3    H240206   5.913   4.117   3.918  0.5626  0.5455 -1.8385
 6239TIP3   OH240207   2.980   6.052   2.081 -0.4599 -0.2598  0.6551
 6239TIP3    H140208   3.040   6.089   2.016 -2.7461 -1.3160 -2.1659
 6239TIP3    H240209   3.037   6.027   2.154  2.4760 -0.6574 -1.6389
 6240TIP3   OH240210   3.056   1.424  16.235 -0.1955 -0.4284 -0.3112
 6240TIP3    H140211   2.963   1.438  16.217  0.1519  2.2202 -0.3808
 6240TIP3    H240212   3.062   1.428  16.331 -0.1876 -0.7759 -0.2992
 6241TIP3   OH240213   1.233   1.755  16.858 -0.1431  0.0454  0.0807
 6241TIP3    H140214   1.186   1.838  16.860 -1.2509 -0.5694  0.0809
 6241TIP3    H240215   1.297   1.762  16.929 -0.8351  0.5474  0.6654
 6242TIP3   OH240216   5.620   2.103  13.860 -0.2429 -0.4472  0.3804
 6242TIP3    H140217   5.549   2.157  13.826 -0.2757 -0.0723  1.0391
 6242TIP3    H240218   5.618   2.118  13.954  0.6110 -0.5580  0.4156
 6243TIP3   OH240219   0.295   4.076   2.296 -0.0815 -0.4261  0.2073
 6243TIP3    H140220   0.350   4.149   2.267  0.8147 -0.3361  2.1054
 6243TIP3    H240221   0.206   4.111   2.292  0.1511  0.0494 -1.0214
 6244TIP3   OH240222   6.205   4.435   1.215 -0.1931  0.1983 -0.1821
 6244TIP3    H140223   6.263   4.508   1.237 -0.0186  0.4242 -1.3297
 6244TIP3    H240224   6.188   4.446   1.121  0.8692 -1.9504 -0.6504
 6245TIP3   OH240225   3.043   3.368   1.105  0.3720 -0.8047  0.4547
 6245TIP3    H140226   3.116   3.388   1.047  0.8978 -2.7715  0.4228
 6245TIP3    H240227   2.968   3.355   1.046  0.4965 -0.9972  0.3398
 6246TIP3   OH240228   6.713   1.795   1.871 -0.4750 -0.0531 -0.0432
 6246TIP3    H140229   6.639   1.849   1.843  0.1789  0.0354 -1.6431
 6246TIP3    H240230   6.789   1.834   1.828  0.1375 -1.6621 -0.4534
 6247TIP3   OH240231   3.136   0.611   4.479 -0.0019 -0.0347  0.4415
 6247TIP3    H140232   3.189   0.553   4.426  0.1756  1.7347 -1.3900
 6247TIP3    H240233   3.054   0.564   4.492  0.8236 -1.4459  0.5683
 6248TIP3   OH240234   5.452   1.705  11.308 -0.4284 -0.1320  0.1508
 6248TIP3    H140235   5.453   1.792  11.349 -0.1287  0.3845 -0.9359
 6248TIP3    H240236   5.486   1.720  11.220 -0.4427 -1.3479 -0.0652
 6249TIP3   OH240237   0.720   5.598   6.862 -0.4115  0.8654  0.3813
 6249TIP3    H140238   0.740   5.577   6.771 -1.7151 -1.0236  0.4748
 6249TIP3    H240239   0.642   5.653   6.857 -1.5170 -0.6624  0.3870
 6250TIP3   OH240240   1.025   0.460  15.000  0.1000 -0.3882  0.4320
 6250TIP3    H140241   1.110   0.477  15.041 -0.7482 -0.5512  2.3480
 6250TIP3    H240242   1.039   0.474  14.907  1.3794  2.9964  1.0871
 6251TIP3   OH240243   6.752   2.871  13.804 -0.0699 -0.2166 -0.0399
 6251TIP3    H140244   6.669   2.851  13.759  0.9469  0.4175 -2.2311
 6251TIP3    H240245   6.782   2.953  13.765  1.5522 -0.3832  0.8157
 6252TIP3   OH240246   6.491   2.962   3.536 -0.2481 -0.2481  0.2740
 6252TIP3    H140247   6.562   2.918   3.584  1.2700 -2.1264 -3.4777
 6252TIP3    H240248   6.504   3.055   3.553  2.3992 -0.6554  0.6877
 6253TIP3   OH240249   2.045   6.683  15.813 -0.1152 -0.8883 -0.2258
 6253TIP3    H140250   2.021   6.702  15.723 -0.2607 -0.5117 -0.1094
 6253TIP3    H240251   1.962   6.674  15.859 -0.0459 -1.3830 -0.1885
 6254TIP3   OH240252   1.726   5.794  13.818 -0.0893 -0.6677 -0.1540
 6254TIP3    H140253   1.700   5.789  13.910  1.0066 -0.3766  0.1866
 6254TIP3    H240254   1.663   5.854  13.778 -0.9107 -1.2356  0.2776
 6255TIP3   OH240255   1.945   1.934  13.374 -0.1722 -0.7017  0.8794
 6255TIP3    H140256   1.981   1.847  13.390 -0.8094 -0.9057  1.2401
 6255TIP3    H240257   1.903   1.958  13.457 -0.4830 -0.2912  0.6072
 6256TIP3   OH240258   4.950   0.225   2.057 -0.4444  0.3027 -0.3334
 6256TIP3    H140259   4.990   0.310   2.077 -1.5717  0.9760 -0.9123
 6256TIP3    H240260   4.862   0.246   2.027 -0.8641 -1.1063 -0.1231
 6257TIP3   OH240261   5.665   6.537  11.562  0.1898 -0.4434  0.6860
 6257TIP3    H140262   5.672   6.584  11.480  0.3378 -0.2502  0.8085
 6257TIP3    H240263   5.585   6.571  11.603  0.3606 -0.2087  0.8293
 6258TIP3   OH240264   2.304   4.587   0.801 -0.2148 -0.0449  0.3626
 6258TIP3    H140265   2.374   4.560   0.861 -1.0487 -0.1538  1.3019
 6258TIP3    H240266   2.223   4.556   0.843 -0.9576  1.4352  0.0775
 6259TIP3   OH240267   3.442   6.808   2.151 -0.1495  0.2988  0.3450
 6259TIP3    H140268   3.410   6.796   2.062  0.3183 -2.0219  0.4614
 6259TIP3    H240269   3.379   6.868   2.191 -1.8070 -0.6512 -0.7857
 6260TIP3   OH240270   0.092   1.588   6.538  0.3705 -0.0552  0.7890
 6260TIP3    H140271   0.172   1.625   6.576  1.0930 -0.2804 -0.4581
 6260TIP3    H240272   0.087   1.628   6.451 -1.1088  0.2752  1.0213
 6261TIP3   OH240273   3.781   6.086  15.067  0.2676 -0.1917 -0.1830
 6261TIP3    H140274   3.853   6.022  15.063 -0.5812 -1.1674 -0.1387
 6261TIP3    H240275   3.716   6.045  15.124 -0.2035  0.8163  0.0137
 6262TIP3   OH240276   2.071   4.445  11.374 -0.4747 -0.6218 -0.0836
 6262TIP3    H140277   2.130   4.371  11.384 -0.1763 -0.5092 -0.9498
 6262TIP3    H240278   2.052   4.448  11.280 -0.1560  0.6377 -0.1249
 6263TIP3   OH240279   6.074   3.170  14.136  0.4145 -0.2220  0.5921
 6263TIP3    H140280   5.983   3.140  14.142  0.8976 -1.7030  0.7060
 6263TIP3    H240281   6.078   3.217  14.053 -0.7774  1.0201  1.2098
 6264TIP3   OH240282   6.208   5.932  12.954 -0.3422  0.7065  0.6052
 6264TIP3    H140283   6.193   6.009  12.898  1.4440  1.0369  0.5539
 6264TIP3    H240284   6.126   5.883  12.949 -1.2384  2.2158  0.0207
 6265TIP3   OH240285   3.117   4.715  14.569 -0.2034  0.2597  0.1297
 6265TIP3    H140286   3.054   4.778  14.605 -0.4324  1.1091 -1.7266
 6265TIP3    H240287   3.071   4.631  14.574 -1.6948  0.9371 -1.6388
 6266TIP3   OH240288   4.405   1.621   5.591 -0.4812 -0.3354  0.0125
 6266TIP3    H140289   4.421   1.527   5.587  2.1583  0.1553 -2.3893
 6266TIP3    H240290   4.346   1.632   5.666  0.9951 -3.6441  1.7485
 6267TIP3   OH240291   3.090   6.075  15.503 -0.1500 -0.4956 -0.3124
 6267TIP3    H140292   3.178   6.037  15.505  0.3042  0.5721  0.0699
 6267TIP3    H240293   3.076   6.100  15.412 -0.9337 -2.6722 -0.8258
 6268TIP3   OH240294   2.624   5.542   1.708  0.1311  0.2677  0.3061
 6268TIP3    H140295   2.657   5.623   1.669  0.0505  0.3508  0.4133
 6268TIP3    H240296   2.546   5.568   1.756 -0.9105 -0.1498 -1.1128
 6269TIP3   OH240297   2.093   1.304   3.782  0.4911 -0.0122  0.4127
 6269TIP3    H140298   2.006   1.292   3.822  1.3569 -0.2802  2.2665
 6269TIP3    H240299   2.097   1.398   3.764  0.4470  0.2850  1.8700
 6270TIP3   OH240300   4.257   2.464   0.186 -0.2419 -0.1234 -0.1349
 6270TIP3    H140301   4.271   2.553   0.220 -4.3891  0.4435  0.4044
 6270TIP3    H240302   4.262   2.408   0.264  0.9035 -0.2029 -0.2558
 6271TIP3   OH240303   6.222   5.062  15.372 -0.0086  0.5554 -0.2582
 6271TIP3    H140304   6.256   5.123  15.307 -1.3667  1.6996  0.0754
 6271TIP3    H240305   6.189   5.118  15.442  0.5119 -0.6306  0.9637
 6272TIP3   OH240306   4.438   1.990  14.757  0.0502  0.1837  0.2826
 6272TIP3    H140307   4.407   2.067  14.709  1.4484  0.2406 -0.5745
 6272TIP3    H240308   4.361   1.959  14.805 -0.7871  1.5077 -0.1677
 6273TIP3   OH240309   6.812   0.345  16.627  0.1978 -0.0149  0.1964
 6273TIP3    H140310   6.875   0.274  16.617  0.0972 -0.3490  1.8437
 6273TIP3    H240311   6.865   0.424  16.637  0.3285 -0.0478 -0.2513
 6274TIP3   OH240312   5.940   2.354   5.946  0.3117 -0.2524  0.4279
 6274TIP3    H140313   5.887   2.344   6.025 -0.1465 -0.6970  0.0635
 6274TIP3    H240314   5.917   2.280   5.891  2.0266 -0.9977  0.6645
 6275TIP3   OH240315   3.115   5.705   0.679 -0.1504  0.2122 -0.0201
 6275TIP3    H140316   3.057   5.629   0.678 -0.0397  0.0878  1.9686
 6275TIP3    H240317   3.200   5.671   0.650 -1.0364  0.3943 -2.9340
 6276TIP3   OH240318   2.016   3.194  16.167 -0.5201 -0.0682 -0.1236
 6276TIP3    H140319   2.023   3.102  16.193  2.0764  0.1147 -0.1301
 6276TIP3    H240320   2.071   3.241  16.229  1.6912  0.9704 -2.8089
 6277TIP3   OH240321   0.932   3.836   5.292 -0.3846 -0.0907  0.3786
 6277TIP3    H140322   0.898   3.901   5.230  0.7937  0.3844  0.2027
 6277TIP3    H240323   0.855   3.792   5.326 -1.1451  0.7529 -0.2308
 6278TIP3   OH240324   4.533   0.748  11.879  0.0678  0.7226 -0.3250
 6278TIP3    H140325   4.494   0.683  11.937 -0.2436  1.5250  0.3710
 6278TIP3    H240326   4.627   0.740  11.893 -0.0561  1.7422  1.2040
 6279TIP3   OH240327   5.494   5.447  13.238 -0.2522 -0.1882 -0.1491
 6279TIP3    H140328   5.557   5.417  13.172 -1.1310  0.6429 -1.3957
 6279TIP3    H240329   5.542   5.510  13.291  0.1262 -0.0070 -0.7098
 6280TIP3   OH240330   2.275   4.651  11.303  0.4132 -0.6207  0.5330
 6280TIP3    H140331   2.366   4.622  11.306 -0.0170 -2.1316 -0.3933
 6280TIP3    H240332   2.225   4.576  11.333 -0.6901 -0.6323 -1.2479
 6281TIP3   OH240333   3.458   3.142   5.284 -0.2286 -0.2752 -0.3810
 6281TIP3    H140334   3.463   3.237   5.300  0.4262 -0.4140  0.2674
 6281TIP3    H240335   3.370   3.118   5.312 -0.8399  0.3532 -1.7254
 6282TIP3   OH240336   6.204   5.606  15.317 -0.5489 -0.2255  0.4574
 6282TIP3    H140337   6.221   5.555  15.396  0.8902  0.5911  0.6970
 6282TIP3    H240338   6.233   5.695  15.339 -3.7976  0.9417  0.3598
 6283TIP3   OH240339   5.783   4.044  12.282 -0.1303 -0.0508 -0.4948
 6283TIP3    H140340   5.836   4.124  12.276  0.5281 -0.4200  0.3678
 6283TIP3    H240341   5.844   3.977  12.310 -1.2791 -0.2499  1.6376
 6284TIP3   OH240342   3.079   0.808   3.903 -0.0535 -0.1490  0.3194
 6284TIP3    H140343   3.159   0.831   3.951  1.4248  0.0685 -2.1664
 6284TIP3    H240344   3.093   0.718   3.874 -0.5054  0.0499 -0.5195
 6285TIP3   OH240345   2.282   6.478   5.544  0.1813 -0.4794  0.3120
 6285TIP3    H140346   2.292   6.406   5.481 -1.3598  0.0575 -0.5899
 6285TIP3    H240347   2.315   6.555   5.498  0.9594 -0.4393  0.9312
 6286TIP3   OH240348   4.210   4.465   4.451  0.1030  0.1364  0.0648
 6286TIP3    H140349   4.255   4.458   4.367 -1.3123 -0.2160 -0.6915
 6286TIP3    H240350   4.137   4.404   4.444  0.7997 -0.9630  2.1154
 6287TIP3   OH240351   6.155   2.156  11.163  0.0383 -0.3070 -0.5848
 6287TIP3    H140352   6.064   2.167  11.189  0.6773  1.1959  1.2128
 6287TIP3    H240353   6.205   2.181  11.241  1.9791 -1.1082 -1.5349
 6288TIP3   OH240354   4.118   3.671  11.867 -0.4661 -0.2817 -0.1034
 6288TIP3    H140355   4.196   3.642  11.819 -0.2539  0.5442 -0.2620
 6288TIP3    H240356   4.112   3.611  11.941  1.0213  0.4105  0.5829
 6289TIP3   OH240357   4.696   1.609   0.860  0.2309  0.5050 -0.1077
 6289TIP3    H140358   4.667   1.670   0.928  0.9103 -0.2466  0.8832
 6289TIP3    H240359   4.693   1.660   0.779  0.0495  1.6191  0.5858
 6290TIP3   OH240360   2.682   5.826  16.658 -0.5248  0.0600 -0.4884
 6290TIP3    H140361   2.690   5.918  16.682 -0.3867  0.2985 -1.4118
 6290TIP3    H240362   2.607   5.823  16.598  0.9166 -0.0375 -2.3240
 6291TIP3   OH240363   1.090   0.659  16.665 -0.1289  0.0010 -0.1000
 6291TIP3    H140364   1.069   0.608  16.744 -0.4379  2.3108  1.3362
 6291TIP3    H240365   1.011   0.711  16.648 -0.1088 -0.5595 -2.0294
 6292TIP3   OH240366   5.101   6.745   0.161 -0.4153 -0.0060 -0.2007
 6292TIP3    H140367   5.107   6.763   0.254  0.3121  1.3498 -0.4931
 6292TIP3    H240368   5.191   6.726   0.134 -0.8611 -2.1185 -0.3108
 6293TIP3   OH240369   0.366   6.603  14.190  0.3855  0.3744  0.3870
 6293TIP3    H140370   0.331   6.567  14.108  0.0224  0.3968  0.5356
 6293TIP3    H240371   0.378   6.527  14.247  1.3631  0.2596  0.0486
 6294TIP3   OH240372   6.666   1.656   5.939  0.5707 -0.3538  0.1647
 6294TIP3    H140373   6.627   1.583   5.988 -0.1794  0.2985  0.5494
 6294TIP3    H240374   6.657   1.630   5.847  0.8849 -1.0372  0.3275
 6295TIP3   OH240375   5.672   3.484  12.942  0.4609  0.1900  0.6023
 6295TIP3    H140376   5.740   3.530  12.893  1.6098 -1.8822  0.2030
 6295TIP3    H240377   5.623   3.554  12.986  1.9500  1.8018 -0.2304
 6296TIP3   OH240378   0.722   0.019  12.107  0.0981  0.2481  0.5895
 6296TIP3    H140379   0.723  -0.011  12.016 -1.0500  2.2799 -0.1065
 6296TIP3    H240380   0.768   0.102  12.106 -2.6441  1.8541  1.2661
 6297TIP3   OH240381   1.203   5.287   1.350 -0.1434  0.1152  0.7261
 6297TIP3    H140382   1.132   5.346   1.327 -0.2944  0.8594  3.0059
 6297TIP3    H240383   1.232   5.251   1.266 -0.8091  2.5427 -0.6149
 6298TIP3   OH240384   4.456   4.172   4.112 -0.3422 -0.2317  0.0948
 6298TIP3    H140385   4.546   4.193   4.135  0.3768 -1.3738 -1.5758
 6298TIP3    H240386   4.409   4.173   4.195  1.1498  0.6328  0.9447
 6299TIP3   OH240387   4.946   4.145   1.998  0.2735 -0.0333  0.1238
 6299TIP3    H140388   4.871   4.196   1.965 -0.2601  0.3176  1.8178
 6299TIP3    H240389   4.983   4.201   2.067  0.9382 -1.0447  0.5861
 6300TIP3   OH240390   6.754   4.246   3.764 -0.5816 -0.3994 -0.0906
 6300TIP3    H140391   6.731   4.302   3.838 -2.0021 -0.5874 -0.3683
 6300TIP3    H240392   6.839   4.279   3.734  0.8954 -1.5079  2.7386
 6301TIP3   OH240393   1.721   0.067  11.849  0.3522 -0.5580  0.2387
 6301TIP3    H140394   1.670   0.055  11.769 -0.1913  1.1820  0.3059
 6301TIP3    H240395   1.811   0.047  11.822  0.1403 -0.2410 -0.7351
 6302TIP3   OH240396   3.565   1.704   4.838 -0.0486 -0.2629  0.0650
 6302TIP3    H140397   3.534   1.794   4.830  0.8582 -0.0555 -1.2621
 6302TIP3    H240398   3.534   1.661   4.759  1.8059 -0.4166 -0.5955
 6303TIP3   OH240399   1.932   2.918   3.489 -0.0254 -0.2374 -0.2828
 6303TIP3    H140400   1.991   2.860   3.441 -1.4296 -1.7599 -0.2208
 6303TIP3    H240401   1.855   2.865   3.507 -1.4182  1.6932 -0.3205
 6304TIP3   OH240402   0.923   4.714   5.970  0.3333  0.1518 -0.0362
 6304TIP3    H140403   0.848   4.774   5.967 -0.2916 -0.3907  2.6950
 6304TIP3    H240404   0.986   4.750   5.908 -1.0521  2.2092 -0.2996
 6305TIP3   OH240405   6.549   6.352  13.281  0.7725  0.5488  0.1234
 6305TIP3    H140406   6.601   6.414  13.231  1.7768  0.8195  1.4769
 6305TIP3    H240407   6.467   6.398  13.299  0.6376  0.6614 -0.7334
 6306TIP3   OH240408   2.631   5.914   1.468  0.0428  0.2539  0.1402
 6306TIP3    H140409   2.582   5.992   1.494 -1.1345 -0.4157 -0.0469
 6306TIP3    H240410   2.565   5.845   1.459  1.1354 -0.9327  0.9103
 6307TIP3   OH240411   0.634   4.897  12.968  0.1606 -0.1466  0.7263
 6307TIP3    H140412   0.654   4.990  12.959  4.7475 -0.9724  1.0814
 6307TIP3    H240413   0.621   4.884  13.061  2.1195 -0.2507  1.0123
 6308TIP3   OH240414   2.127   4.364   3.664 -0.5865  0.2017  0.3990
 6308TIP3    H140415   2.176   4.433   3.707  0.4650  0.4758 -1.1665
 6308TIP3    H240416   2.043   4.361   3.709  0.7656 -0.0870  2.9466
 6309TIP3   OH240417   5.179   1.858  13.291  0.3175 -0.0155 -0.2334
 6309TIP3    H140418   5.138   1.812  13.364  1.5286 -0.2453  0.3100
 6309TIP3    H240419   5.257   1.898  13.328  0.9515 -0.1386 -1.3940
 6310TIP3   OH240420   1.639   5.222   1.774  0.8308 -0.0241 -0.5351
 6310TIP3    H140421   1.619   5.297   1.719  0.7604  0.9510  0.7785
 6310TIP3    H240422   1.721   5.246   1.818 -0.1670  0.1458  1.3223
 6311TIP3   OH240423   3.377   5.095  13.703  0.1464 -0.0843  0.0758
 6311TIP3    H140424   3.301   5.131  13.657 -1.2238 -0.5386  1.9266
 6311TIP3    H240425   3.412   5.170  13.753 -0.3240 -0.3471  0.8124
 6312TIP3   OH240426   2.604   0.836   0.120  0.3963 -0.0778  0.1755
 6312TIP3    H140427   2.693   0.809   0.143  0.1785  0.6243  1.9193
 6312TIP3    H240428   2.562   0.755   0.088  1.4072 -0.5949  0.1525
 6313TIP3   OH240429   6.405   4.380   2.684 -0.4187 -0.4569 -0.2141
 6313TIP3    H140430   6.394   4.410   2.594  0.1540  0.1992 -0.0682
 6313TIP3    H240431   6.491   4.412   2.710 -0.4382 -0.9400  0.4519
 6314TIP3   OH240432   2.038   4.106   4.052 -0.3501  0.1301  0.5276
 6314TIP3    H140433   2.060   4.017   4.081 -2.1826 -0.7631 -0.7315
 6314TIP3    H240434   2.097   4.163   4.101  0.0973 -1.7035  2.1527
 6315TIP3   OH240435   5.774   1.609   5.691 -0.0357  0.4043 -0.6953
 6315TIP3    H140436   5.815   1.696   5.696  1.4360 -0.2397 -1.5000
 6315TIP3    H240437   5.747   1.601   5.600 -0.6827  0.2372 -0.4910
 6316TIP3   OH240438   2.060   5.692   4.375  0.2486  0.5468  0.3513
 6316TIP3    H140439   2.065   5.760   4.443  0.7983 -0.3742  1.2366
 6316TIP3    H240440   2.103   5.731   4.299 -2.1183  2.3636 -0.1491
 6317TIP3   OH240441   5.012   2.895  10.984 -0.6037 -0.2652  0.2850
 6317TIP3    H140442   4.951   2.933  11.047 -0.8388  0.9747 -0.6701
 6317TIP3    H240443   5.098   2.926  11.012 -0.5828 -0.6307  0.6359
 6318TIP3   OH240444   4.037   0.343  15.418 -0.8072 -0.6219 -0.2139
 6318TIP3    H140445   3.977   0.277  15.383 -0.7155 -0.5649 -0.4822
 6318TIP3    H240446   4.095   0.294  15.476 -1.0553 -0.6920 -0.0206
 6319TIP3   OH240447   5.912   1.762   0.539 -0.2787 -0.2232 -0.4097
 6319TIP3    H140448   6.000   1.776   0.573  0.2977 -0.7115 -1.6470
 6319TIP3    H240449   5.888   1.847   0.500 -0.8492  0.2675  1.0004
 6320TIP3   OH240450   6.375   4.267   4.695  0.2291  0.3147  0.2402
 6320TIP3    H140451   6.457   4.264   4.744 -0.6289 -2.9403  1.6347
 6320TIP3    H240452   6.347   4.176   4.688 -0.7381  0.8352 -4.6952
 6321TIP3   OH240453   4.454   0.966  14.002  0.4123 -0.7923 -0.5015
 6321TIP3    H140454   4.388   0.949  13.934 -0.4527  0.9217 -0.1078
 6321TIP3    H240455   4.404   0.998  14.077  1.6549  0.1309 -0.0513
 6322TIP3   OH240456   5.729   2.903   5.536 -0.6060  0.3891 -0.0506
 6322TIP3    H140457   5.648   2.902   5.484 -0.2132 -0.3313 -0.6520
 6322TIP3    H240458   5.787   2.962   5.489 -0.8478  1.0791  0.5005
 6323TIP3   OH240459   2.385   4.791  14.454 -0.1769 -0.4128  0.2915
 6323TIP3    H140460   2.316   4.727  14.471 -1.9309  1.3221 -0.1804
 6323TIP3    H240461   2.369   4.819  14.364  1.0392  0.1473  0.2436
 6324TIP3   OH240462   0.081   2.559   5.146 -0.2557  0.1383  0.1846
 6324TIP3    H140463   0.140   2.634   5.156 -0.4858  0.4727 -0.9646
 6324TIP3    H240464   0.100   2.504   5.223  1.5466  0.2495 -0.1558
 6325TIP3   OH240465   5.003   1.804   1.775  0.7131  0.0079  0.4069
 6325TIP3    H140466   5.084   1.827   1.820  1.6146 -1.6910 -0.2776
 6325TIP3    H240467   4.984   1.714   1.803 -0.4260  0.0535 -0.1523
 6326TIP3   OH240468   5.033   5.198  17.206  0.0809  0.4681 -0.0357
 6326TIP3    H140469   5.062   5.240  17.287 -0.8829  0.7776  0.1565
 6326TIP3    H240470   4.944   5.168  17.225 -0.0944  0.4109 -0.9229
 6327TIP3   OH240471   3.833   0.125  11.768 -0.5503  0.1663  0.7617
 6327TIP3    H140472   3.821   0.050  11.709 -1.7101  0.9293  0.0130
 6327TIP3    H240473   3.876   0.191  11.714 -1.2567  0.7235  0.8661
 6328TIP3   OH240474   3.582   0.456  13.077 -0.3240  0.2311 -0.0314
 6328TIP3    H140475   3.551   0.504  13.000  0.6901  0.2311 -0.4447
 6328TIP3    H240476   3.526   0.378  13.079  0.5134 -0.4430 -1.5693
 6329TIP3   OH240477   2.817   6.546  12.933  0.1977 -0.6323 -0.5135
 6329TIP3    H140478   2.869   6.567  13.010 -0.8614  0.2790 -0.0355
 6329TIP3    H240479   2.737   6.597  12.943 -0.3905 -1.2931 -1.7066
 6330TIP3   OH240480   5.841   0.966   0.407  0.0212  0.2748  0.5378
 6330TIP3    H140481   5.911   0.954   0.343  1.1748  0.2507  1.7727
 6330TIP3    H240482   5.808   0.878   0.423  0.8200  0.0873  1.1703
 6331TIP3   OH240483   4.973   5.701  14.277  0.4477  0.0723 -0.0712
 6331TIP3    H140484   4.927   5.622  14.248  0.8724 -0.2331  0.0745
 6331TIP3    H240485   4.969   5.760  14.202 -0.7111  0.2878  0.1525
 6332TIP3   OH240486   1.443   2.775  15.992 -0.4484 -0.0322 -0.3470
 6332TIP3    H140487   1.420   2.773  15.899 -2.7055  1.0035  0.1610
 6332TIP3    H240488   1.469   2.865  16.009 -0.0776 -0.2082  0.0500
 6333TIP3   OH240489   6.249   1.582   2.462 -0.0176  0.1931 -0.7192
 6333TIP3    H140490   6.246   1.675   2.439 -1.1110  0.1602 -0.7370
 6333TIP3    H240491   6.319   1.547   2.408 -0.8054  0.6513 -2.0646
 6334TIP3   OH240492   1.788   6.450  13.502  0.4744 -0.0748 -0.0719
 6334TIP3    H140493   1.730   6.395  13.555  0.0924  0.8886  0.5250
 6334TIP3    H240494   1.868   6.458  13.555 -0.0361  1.1700  0.5299
 6335TIP3   OH240495   2.032   4.490  15.982 -0.2851  0.4945 -0.2643
 6335TIP3    H140496   2.040   4.446  16.066  0.8692 -0.1494 -0.7100
 6335TIP3    H240497   1.998   4.423  15.923  0.5768  0.4609 -0.7254
 6336TIP3   OH240498   4.175   3.496   5.790 -0.7299  0.5249 -0.2986
 6336TIP3    H140499   4.241   3.427   5.779 -1.2991  0.1473 -1.3979
 6336TIP3    H240500   4.091   3.449   5.784 -1.1032  1.1314  0.1917
 6337TIP3   OH240501   3.529   3.084   0.148  0.0487  0.0014  0.2586
 6337TIP3    H140502   3.456   3.090   0.210  0.7032  0.4015  1.0015
 6337TIP3    H240503   3.607   3.080   0.203  0.6876  1.0300 -0.5388
 6338TIP3   OH240504   0.464   4.881  17.180  0.0937 -0.5201 -0.0342
 6338TIP3    H140505   0.424   4.896  17.094  0.9226 -1.1221 -0.5261
 6338TIP3    H240506   0.411   4.934  17.240 -0.0141  0.5037 -1.0230
 6339TIP3   OH240507   3.673   6.763   6.337  0.1131 -0.2202 -0.1409
 6339TIP3    H140508   3.651   6.682   6.291 -0.6418  0.4791 -1.0451
 6339TIP3    H240509   3.612   6.828   6.301 -0.9220  0.2250  2.2965
 6340TIP3   OH240510   1.760   1.944  16.518 -0.0630 -0.0669  0.2442
 6340TIP3    H140511   1.666   1.927  16.526 -0.1822  0.2611 -0.4657
 6340TIP3    H240512   1.796   1.862  16.483  0.2883 -1.0833  2.8513
 6341TIP3   OH240513   2.677   6.665   2.290  0.7367  0.3385 -0.2753
 6341TIP3    H140514   2.762   6.624   2.305  1.4970  1.3470 -1.6844
 6341TIP3    H240515   2.633   6.663   2.375  2.4330  0.3919  0.6191
 6342TIP3   OH240516   3.210   6.156   5.582  0.2089  0.5100  0.3186
 6342TIP3    H140517   3.144   6.217   5.614 -1.7278 -1.7106  0.7072
 6342TIP3    H240518   3.258   6.130   5.660 -0.7260 -0.4911  0.5698
 6343TIP3   OH240519   4.098   6.783   4.846 -0.3383  1.0052 -0.4044
 6343TIP3    H140520   4.031   6.724   4.810  0.0740  0.3434 -0.0945
 6343TIP3    H240521   4.181   6.740   4.827 -0.1001  0.7206  1.1726
 6344TIP3   OH240522   6.160   2.331   6.394 -0.4953 -0.0281 -0.4079
 6344TIP3    H140523   6.221   2.266   6.359  0.2101  1.1034 -1.3005
 6344TIP3    H240524   6.191   2.348   6.483  0.3081  0.3043 -0.7458
 6345TIP3   OH240525   3.647   0.969   1.471  0.4292 -0.0204  0.3850
 6345TIP3    H140526   3.559   0.935   1.491  1.1578 -1.6900  0.8799
 6345TIP3    H240527   3.682   0.997   1.556  0.0779  1.4102  0.0696
 6346TIP3   OH240528   1.783   2.776  11.195 -0.3894 -0.0137 -0.0664
 6346TIP3    H140529   1.869   2.762  11.155 -1.3355 -3.2360 -1.1202
 6346TIP3    H240530   1.723   2.784  11.121 -1.1712  1.0954  0.6781
 6347TIP3   OH240531   4.364   0.178  12.027 -0.6836 -0.3593 -0.0767
 6347TIP3    H140532   4.448   0.213  11.997 -0.3489 -0.4112  0.7660
 6347TIP3    H240533   4.382   0.145  12.115 -1.8848  0.8169  0.6294
 6348TIP3   OH240534   0.541   2.159   1.377 -0.6624  0.0750 -0.6381
 6348TIP3    H140535   0.514   2.227   1.316  1.5504  1.1932 -0.4359
 6348TIP3    H240536   0.580   2.207   1.450  2.1580 -1.4015 -1.0915
 6349TIP3   OH240537   5.847   3.444  13.392 -0.3694  0.0841  0.1179
 6349TIP3    H140538   5.846   3.539  13.394  2.3456  0.1931 -1.1355
 6349TIP3    H240539   5.811   3.421  13.307  1.4289  0.1353 -0.6918
 6350TIP3   OH240540   0.967   5.229  15.769  0.4837  0.2772 -0.0051
 6350TIP3    H140541   0.988   5.233  15.862  2.2585  1.7958 -0.4528
 6350TIP3    H240542   0.900   5.296  15.756  0.1112 -0.0532  0.1960
 6351TIP3   OH240543   2.273   2.997  14.023 -0.1728 -0.4677  0.4082
 6351TIP3    H140544   2.221   2.968  14.098 -0.3199 -0.4196  0.3275
 6351TIP3    H240545   2.264   3.093  14.024  0.0746 -0.4455  0.5094
 6352TIP3   OH240546   3.276   2.131   2.822 -0.5278  0.0113 -0.0984
 6352TIP3    H140547   3.228   2.201   2.867  0.3942 -0.9835  2.5515
 6352TIP3    H240548   3.209   2.070   2.794 -1.2608  1.4451 -1.5900
 6353TIP3   OH240549   0.990   3.377   3.418 -0.3318  0.0614  0.0493
 6353TIP3    H140550   1.023   3.324   3.490 -1.9997 -0.7554  0.2300
 6353TIP3    H240551   0.913   3.421   3.454 -0.0248  1.1928 -0.6471
 6354TIP3   OH240552   2.610   0.077  12.536 -0.5524 -0.4769  0.1622
 6354TIP3    H140553   2.612   0.171  12.553  0.3942 -0.1841 -1.4332
 6354TIP3    H240554   2.605   0.037  12.623 -0.6616  1.0345  0.8703
 6355TIP3   OH240555   6.804   1.091   2.812 -0.2788  0.6996  0.4641
 6355TIP3    H140556   6.733   1.155   2.825 -1.9329 -0.7758 -1.0547
 6355TIP3    H240557   6.807   1.077   2.718  2.1659  0.8300  0.4815
 6356TIP3   OH240558   0.049   3.445  16.031  0.2365 -0.5650  0.2054
 6356TIP3    H140559   0.129   3.439  15.979 -0.5240  1.3870 -1.2591
 6356TIP3    H240560   0.079   3.478  16.116  0.8012  2.2396 -1.0123
 6357TIP3   OH240561   1.970   4.818  14.109  0.0363  0.1232 -0.1716
 6357TIP3    H140562   2.004   4.772  14.032  0.0614  0.8402 -0.5965
 6357TIP3    H240563   1.966   4.751  14.178  0.1123 -0.4952 -0.7668
 6358TIP3   OH240564   0.183   0.880   6.174 -0.3984 -0.5536  0.0751
 6358TIP3    H140565   0.262   0.923   6.142 -0.5103 -0.0483  0.4731
 6358TIP3    H240566   0.169   0.916   6.261 -1.6522  0.1619 -0.4037
 6359TIP3   OH240567   4.343   3.154  15.456  0.1129 -0.9479 -0.2050
 6359TIP3    H140568   4.294   3.210  15.517  3.0507 -0.6066  1.9469
 6359TIP3    H240569   4.405   3.213  15.414  0.2465 -1.7968 -1.2118
 6360TIP3   OH240570   6.231   2.688   2.274 -0.1985 -0.8257  0.0547
 6360TIP3    H140571   6.312   2.687   2.221 -1.7832 -0.9539 -2.4439
 6360TIP3    H240572   6.259   2.658   2.361  2.4359 -0.9224 -0.7752
 6361TIP3   OH240573   5.704   6.490  12.471  0.2442 -0.5824 -0.3000
 6361TIP3    H140574   5.658   6.443  12.402 -1.8045  2.7826 -1.2913
 6361TIP3    H240575   5.663   6.460  12.552 -1.1156 -0.4100 -0.9232
 6362TIP3   OH240576   6.472   4.440  14.937  0.5306  0.5624 -0.2425
 6362TIP3    H140577   6.512   4.374  14.993  0.3800  0.4170 -0.3044
 6362TIP3    H240578   6.484   4.407  14.848  1.0092  0.9262 -0.3141
 6363TIP3   OH240579   3.131   6.552  14.564 -0.5242 -0.3776  0.7048
 6363TIP3    H140580   3.224   6.546  14.541 -0.5325  1.7255 -0.0154
 6363TIP3    H240581   3.124   6.633  14.615 -2.1850  0.2772 -0.4972
 6364TIP3   OH240582   0.255   4.118  16.054 -0.3682  0.2101 -0.0453
 6364TIP3    H140583   0.257   4.140  16.147 -0.1718 -1.6718  0.4203
 6364TIP3    H240584   0.163   4.121  16.031 -0.8000 -2.6878  1.0879
 6365TIP3   OH240585   1.277   6.441  12.643  0.4785  0.2472  0.2844
 6365TIP3    H140586   1.298   6.349  12.658 -0.7092 -0.3801 -1.6783
 6365TIP3    H240587   1.283   6.452  12.548 -0.4029  1.9519  0.3974
 6366TIP3   OH240588   6.760   2.278   0.412  0.6555 -0.1246  0.0115
 6366TIP3    H140589   6.794   2.350   0.465 -0.0204  0.5876 -0.5066
 6366TIP3    H240590   6.764   2.202   0.470  0.0820  0.6083  1.0465
 6367TIP3   OH240591   1.322   1.354  11.566 -0.4170  0.0102 -0.3038
 6367TIP3    H140592   1.240   1.323  11.529 -0.0458 -0.4889 -0.7099
 6367TIP3    H240593   1.337   1.438  11.525 -0.0976 -0.4596 -1.1594
 6368TIP3   OH240594   2.190   1.028   1.472  0.5595  0.1361 -0.0409
 6368TIP3    H140595   2.276   0.986   1.476  0.1588 -0.6138  0.9258
 6368TIP3    H240596   2.146   1.000   1.552 -0.6910  0.2897 -0.6643
 6369TIP3   OH240597   0.714   5.956   1.219 -0.1854  0.2780 -0.1017
 6369TIP3    H140598   0.723   6.027   1.155  0.7613 -0.1833 -0.5049
 6369TIP3    H240599   0.663   5.993   1.290 -0.7324  0.9925 -0.8534
 6370TIP3   OH240600   2.631   3.143   5.697 -0.1670 -0.2727 -0.5326
 6370TIP3    H140601   2.560   3.129   5.635 -1.0071  1.6028 -0.0366
 6370TIP3    H240602   2.587   3.165   5.779  0.9567 -1.2848  0.3594
 6371TIP3   OH240603   6.692   0.602   4.573  0.3544 -0.0683 -0.4422
 6371TIP3    H140604   6.648   0.556   4.645  1.1276  2.0247  1.4059
 6371TIP3    H240605   6.778   0.561   4.568  0.1705 -0.4623 -0.4025
 6372TIP3   OH240606   4.102   1.078  13.148  0.2399  0.2321 -0.0548
 6372TIP3    H140607   4.077   1.010  13.211 -1.0019  0.3353 -0.4079
 6372TIP3    H240608   4.137   1.149  13.202  1.2468 -0.5588  0.3416
 6373TIP3   OH240609   1.519   4.912  11.046 -0.6847 -0.0018  0.4684
 6373TIP3    H140610   1.457   4.840  11.054 -1.4745  0.7874  1.4506
 6373TIP3    H240611   1.465   4.990  11.035  0.1687  0.4654 -0.4786
 6374TIP3   OH240612   0.437   6.670  12.058  0.2200  0.1965  0.1470
 6374TIP3    H140613   0.434   6.741  12.122  0.7769  0.6352 -0.3065
 6374TIP3    H240614   0.442   6.590  12.111  0.5373  0.5498  0.6489
 6375TIP3   OH240615   5.700   4.746  16.492 -0.3877 -0.2390 -0.3325
 6375TIP3    H140616   5.681   4.806  16.420 -0.0167  0.8347  0.4384
 6375TIP3    H240617   5.770   4.690  16.459  0.8050  1.1996 -0.3273
 6376TIP3   OH240618   4.161   3.291   2.883 -0.0636 -0.6979  0.2009
 6376TIP3    H140619   4.135   3.199   2.889  0.6109 -0.8472  0.9513
 6376TIP3    H240620   4.129   3.319   2.798  1.6425 -2.2505 -0.9843
 6377TIP3   OH240621   3.376   1.592   5.039 -0.3389  0.2212 -0.0757
 6377TIP3    H140622   3.407   1.680   5.063  1.0078  0.0256 -1.0091
 6377TIP3    H240623   3.453   1.551   4.998 -0.8805 -1.4904  0.6142
 6378TIP3   OH240624   0.324   2.170   3.325 -0.1131 -0.3160 -1.0027
 6378TIP3    H140625   0.377   2.091   3.333 -0.1554 -0.2563 -0.0915
 6378TIP3    H240626   0.388   2.240   3.309 -0.0744 -0.5218 -1.7880
 6379TIP3   OH240627   6.103   5.634   1.769 -0.0682  0.8658  0.5217
 6379TIP3    H140628   6.177   5.592   1.812 -1.7490 -1.8836  0.8686
 6379TIP3    H240629   6.122   5.627   1.676  1.1976  2.2959  0.6561
 6380TIP3   OH240630   6.484   3.079   1.560 -0.3740  0.3014  0.6076
 6380TIP3    H140631   6.550   3.086   1.491 -0.2719 -0.2855  0.6442
 6380TIP3    H240632   6.470   3.169   1.590  0.0303  0.4828  0.2453
 6381TIP3   OH240633   2.440   6.798   4.831  0.3006  0.3174 -0.7974
 6381TIP3    H140634   2.486   6.880   4.814  0.5230  0.2699 -0.4425
 6381TIP3    H240635   2.375   6.819   4.898  1.5836 -0.1764  0.6467
 6382TIP3   OH240636   0.064   2.547   1.346  0.5345 -0.2836 -0.3196
 6382TIP3    H140637   0.048   2.496   1.426  1.2461 -0.0723 -0.0389
 6382TIP3    H240638   0.116   2.621   1.375  0.4370  0.0185 -0.9146
 6383TIP3   OH240639   2.510   2.083   1.846 -0.8956 -0.1072  0.0740
 6383TIP3    H140640   2.521   2.152   1.781 -0.6761 -0.3136 -0.1086
 6383TIP3    H240641   2.556   2.117   1.924  0.1893 -0.5330 -0.3725
 6384TIP3   OH240642   0.060   0.949   2.152  0.5724  0.6110 -0.1743
 6384TIP3    H140643   0.015   1.004   2.216  1.2875  2.8139 -1.5084
 6384TIP3    H240644   0.126   1.006   2.113  1.8455 -1.4289 -1.0816
 6385TIP3   OH240645   6.490   3.079   4.225  0.2870 -0.1657 -0.0179
 6385TIP3    H140646   6.501   3.011   4.291 -0.6593  0.7438  1.0828
 6385TIP3    H240647   6.431   3.040   4.160  2.2779 -1.5493 -1.0602
 6386TIP3   OH240648   3.634   6.122  16.927 -0.1175 -0.2133 -0.0357
 6386TIP3    H140649   3.569   6.163  16.983 -2.2193 -3.6814  0.2029
 6386TIP3    H240650   3.713   6.117  16.981 -0.3238  1.7893  0.5134
 6387TIP3   OH240651   0.862   5.797   1.429 -0.0894 -0.2988  0.1507
 6387TIP3    H140652   0.827   5.720   1.384 -0.7334 -0.5253  1.0179
 6387TIP3    H240653   0.820   5.871   1.385  0.9246 -0.4159 -1.0205
 6388TIP3   OH240654   4.924   4.903   1.093 -0.3855  0.3647  0.2383
 6388TIP3    H140655   4.976   4.833   1.131  0.2783  1.4718  1.4305
 6388TIP3    H240656   4.983   4.978   1.091 -0.9080  0.7355 -1.5629
 6389TIP3   OH240657   1.462   3.700  14.412 -0.1983 -0.4116  0.0575
 6389TIP3    H140658   1.510   3.729  14.334  0.5093 -1.0833  0.2454
 6389TIP3    H240659   1.485   3.764  14.479 -1.3400  0.5663 -0.4490
 6390TIP3   OH240660   3.479   1.799   3.674 -0.2154  0.1467  0.1487
 6390TIP3    H140661   3.487   1.735   3.603 -2.0415 -2.0761  1.8894
 6390TIP3    H240662   3.564   1.797   3.718 -1.1011 -3.1965  1.8730
 6391TIP3   OH240663   4.136   4.309  11.581 -0.5474 -0.9734 -0.2179
 6391TIP3    H140664   4.077   4.373  11.621 -0.1547 -0.2165 -0.8221
 6391TIP3    H240665   4.165   4.254  11.654  1.2171  1.2141  0.8064
 6392TIP3   OH240666   2.093   2.533   0.597  0.0975  0.0318 -0.1106
 6392TIP3    H140667   2.036   2.505   0.669  0.2678  2.4021  0.9908
 6392TIP3    H240668   2.052   2.614   0.564  0.2427 -0.7990 -2.4320
 6393TIP3   OH240669   2.554   1.589   2.207  0.6164 -0.7580 -0.1719
 6393TIP3    H140670   2.546   1.672   2.254 -1.2843 -0.6793 -0.6103
 6393TIP3    H240671   2.532   1.523   2.273  0.1005 -0.7834 -0.3689
 6394TIP3   OH240672   3.954   4.072  14.729 -0.4114  0.5202  0.0319
 6394TIP3    H140673   3.946   4.167  14.722 -1.6291  0.4739  0.7001
 6394TIP3    H240674   4.047   4.054  14.712 -0.4541  1.6882 -1.5354
 6395TIP3   OH240675   5.570   5.015   3.083 -0.4273 -0.3541 -0.0646
 6395TIP3    H140676   5.530   4.944   3.133  1.6445  0.2902  2.6033
 6395TIP3    H240677   5.653   4.980   3.052  0.4071  0.6951  0.9002
 6396TIP3   OH240678   1.245   1.002   2.844  0.0685  0.1730  0.0606
 6396TIP3    H140679   1.159   1.040   2.825  0.2715  0.4239 -0.3466
 6396TIP3    H240680   1.307   1.072   2.828  0.1680  0.7472  2.7447
 6397TIP3   OH240681   1.379   1.086   5.497 -0.4347 -0.0768  0.1579
 6397TIP3    H140682   1.365   1.028   5.573  1.6129 -0.3174  0.3941
 6397TIP3    H240683   1.435   1.156   5.531 -0.5904  0.5232 -0.8252
 6398TIP3   OH240684   4.775   0.509   3.949 -0.4536 -0.6256  0.2416
 6398TIP3    H140685   4.740   0.453   4.018 -1.8055 -0.1384 -0.0246
 6398TIP3    H240686   4.698   0.555   3.914  0.0697 -1.4596 -2.1132
 6399TIP3   OH240687   5.141   5.686  15.254  0.0639 -0.6795 -1.0247
 6399TIP3    H140688   5.164   5.725  15.338  2.1326 -0.2888 -1.7429
 6399TIP3    H240689   5.162   5.754  15.189 -4.2161  0.1209 -1.6797
 6400TIP3   OH240690   5.879   6.131   6.174 -0.1529 -0.5293 -0.2773
 6400TIP3    H140691   5.861   6.181   6.254  0.1427 -0.4126 -0.2830
 6400TIP3    H240692   5.930   6.056   6.204  0.1592 -0.3615 -0.3882
 6401TIP3   OH240693   2.109   5.128   3.560  0.3835  0.1781  0.8052
 6401TIP3    H140694   2.057   5.051   3.586  0.6771 -0.1378  0.4673
 6401TIP3    H240695   2.199   5.096   3.560  0.3458 -0.0173 -1.2318
 6402TIP3   OH240696   0.980   2.743  16.990  0.2487  0.5103  0.0445
 6402TIP3    H140697   0.988   2.773  16.899 -2.1188  2.1329  0.3091
 6402TIP3    H240698   0.894   2.776  17.018 -0.0901 -1.9871  2.1234
 6403TIP3   OH240699   6.737   5.354  13.941 -0.0390 -0.1624 -0.0460
 6403TIP3    H140700   6.764   5.434  13.987 -1.2823  0.1380  0.1886
 6403TIP3    H240701   6.687   5.386  13.866 -1.1449 -0.7249  0.4362
 6404TIP3   OH240702   4.997   3.010   1.273 -0.0739  0.0614 -0.0411
 6404TIP3    H140703   4.922   2.986   1.328 -0.4902  0.5611 -0.3893
 6404TIP3    H240704   5.027   3.093   1.309  0.6459 -0.3975  0.4316
 6405TIP3   OH240705   5.404   1.569  15.084  0.0135  0.0521 -0.6041
 6405TIP3    H140706   5.379   1.661  15.077  1.3169  0.5741  1.2756
 6405TIP3    H240707   5.453   1.563  15.166  0.8996 -2.0990 -1.2411
 6406TIP3   OH240708   0.988   0.028   0.307  0.0302  0.0434 -0.3670
 6406TIP3    H140709   1.008  -0.065   0.294 -1.6638 -0.1858 -1.4154
 6406TIP3    H240710   0.921   0.028   0.375  0.3795  0.5455 -0.0214
 6407TIP3   OH240711   4.686   1.233  16.034  0.1421  0.1330  0.2584
 6407TIP3    H140712   4.631   1.159  16.059  0.7504 -0.3872  0.0636
 6407TIP3    H240713   4.705   1.278  16.117 -0.3577  0.1729  0.3574
 6408TIP3   OH240714   5.091   5.353  11.772 -0.1250  0.1413  0.1915
 6408TIP3    H140715   5.108   5.260  11.790  0.3572  0.0764 -0.5642
 6408TIP3    H240716   5.177   5.390  11.757 -0.2577  0.8881  1.2881
 6409TIP3   OH240717   1.164   0.382   4.113  0.1906 -0.3947 -0.1587
 6409TIP3    H140718   1.236   0.431   4.072  0.0268  1.5031  1.7466
 6409TIP3    H240719   1.085   0.420   4.076  0.0910  0.0004  0.4510
 6410TIP3   OH240720   5.198   1.185  15.838  0.1583  0.3066  0.6673
 6410TIP3    H140721   5.275   1.236  15.862 -1.6561  3.3117  0.3613
 6410TIP3    H240722   5.126   1.225  15.888 -1.4578 -1.5037 -0.1270
 6411TIP3   OH240723   0.959   0.108  15.523  0.1863 -0.0467 -0.3975
 6411TIP3    H140724   0.888   0.150  15.475 -0.1464  0.9881  0.9735
 6411TIP3    H240725   1.012   0.181  15.556  0.8229 -0.7629  0.1850
 6412TIP3   OH240726   5.032   5.116  16.301 -0.0206  0.0596 -0.2662
 6412TIP3    H140727   5.055   5.074  16.218  2.2862 -0.3237  0.5266
 6412TIP3    H240728   5.096   5.186  16.311  0.7434 -0.9108  1.9384
 6413TIP3   OH240729   5.513   1.147  16.367  0.5899  0.0237  0.2905
 6413TIP3    H140730   5.542   1.065  16.408  0.9302 -0.4669 -0.9070
 6413TIP3    H240731   5.588   1.175  16.315 -0.1800  0.1219 -0.7795
 6414TIP3   OH240732   5.328   6.683   5.293 -0.5270  0.1242  0.5395
 6414TIP3    H140733   5.234   6.668   5.291 -0.2068 -1.8289 -0.4893
 6414TIP3    H240734   5.348   6.724   5.208 -0.5628  1.3372  1.1031
 6415TIP3   OH240735   1.189   5.723  14.639 -0.2101 -0.7887  0.2091
 6415TIP3    H140736   1.274   5.759  14.613 -0.6707  0.3905  0.2670
 6415TIP3    H240737   1.145   5.704  14.557 -0.1878 -0.6457  0.1620
 6416TIP3   OH240738   0.393   2.532  10.908  0.1166 -0.4009  0.0695
 6416TIP3    H140739   0.451   2.525  10.832 -0.1026 -0.0627 -0.1310
 6416TIP3    H240740   0.436   2.597  10.964 -0.7707  0.8990 -0.7251
 6417TIP3   OH240741   2.651   2.167  13.401  0.5345  0.6033  0.3820
 6417TIP3    H140742   2.678   2.077  13.379 -0.4177  0.5690 -0.7013
 6417TIP3    H240743   2.592   2.157  13.475  1.7424  0.4812  1.3305
 6418TIP3   OH240744   2.932   2.544   2.015  0.7484 -0.4366  0.0412
 6418TIP3    H140745   2.917   2.491   2.094 -0.3556 -1.1207 -0.6074
 6418TIP3    H240746   2.862   2.517   1.955 -0.4439  2.4842  0.0485
 6419TIP3   OH240747   1.560   2.597   6.540  0.1681 -0.3086  0.6195
 6419TIP3    H140748   1.602   2.535   6.600  1.2670  0.3779  0.5635
 6419TIP3    H240749   1.593   2.573   6.454  2.2369  1.6528  0.8186
 6420TIP3   OH240750   1.759   0.949   0.904 -0.0009  0.1430 -0.2009
 6420TIP3    H140751   1.825   0.892   0.944 -1.5241  0.4024  2.8722
 6420TIP3    H240752   1.720   0.897   0.835  2.2736 -0.5973 -0.9648
 6421TIP3   OH240753   5.536   0.823   2.956  0.5450  0.7509 -0.0600
 6421TIP3    H140754   5.490   0.849   3.035  2.5720  1.6376  0.8672
 6421TIP3    H240755   5.620   0.789   2.987  0.9189  0.0500 -1.7612
 6422TIP3   OH240756   1.107   1.890  12.149 -0.5864 -0.3656 -0.0480
 6422TIP3    H140757   1.030   1.843  12.181 -0.4826 -0.0045  0.7378
 6422TIP3    H240758   1.080   1.981  12.143 -0.9918 -0.6126 -2.2301
 6423TIP3   OH240759   3.744   4.813   4.800 -0.1115  0.1098  0.2064
 6423TIP3    H140760   3.705   4.899   4.816 -0.5905  0.0745 -0.7485
 6423TIP3    H240761   3.813   4.829   4.736  1.0717  0.0714  1.4325
 6424TIP3   OH240762   4.909   3.731   1.569  0.0664  0.2248  0.0408
 6424TIP3    H140763   4.981   3.717   1.630  2.1019  1.1285 -2.0772
 6424TIP3    H240764   4.951   3.768   1.491 -2.3983 -1.3251 -2.0706
 6425TIP3   OH240765   6.512   2.096   5.128 -0.0632 -0.3931 -0.5382
 6425TIP3    H140766   6.502   2.016   5.077  0.4692  0.2938 -1.7339
 6425TIP3    H240767   6.432   2.145   5.112  1.0234  0.7800 -2.4247
 6426TIP3   OH240768   5.229   3.375   1.651  0.3682  0.6498 -0.3204
 6426TIP3    H140769   5.248   3.468   1.639 -0.8538  0.6487 -2.4119
 6426TIP3    H240770   5.146   3.361   1.606 -0.6320 -1.0003  1.9240
 6427TIP3   OH240771   6.051   2.813   5.370  0.3981  0.0824  0.5292
 6427TIP3    H140772   6.041   2.882   5.306 -0.9210 -0.9160 -0.3770
 6427TIP3    H240773   6.031   2.854   5.454 -1.5146  0.5257 -0.1343
 6428TIP3   OH240774   6.439   5.095   2.127  0.4923 -0.0842  0.0333
 6428TIP3    H140775   6.506   5.027   2.118 -0.2907 -0.8749  0.0944
 6428TIP3    H240776   6.387   5.068   2.202  0.7379  1.0785  0.6343
 6429TIP3   OH240777   2.314   3.767  14.286  1.3206  0.0393 -0.1301
 6429TIP3    H140778   2.246   3.780  14.220  2.0997  0.4336 -0.8633
 6429TIP3    H240779   2.392   3.744  14.236  2.2114  1.4431  0.5705
 6430TIP3   OH240780   2.811   5.526  11.308  0.3115 -0.8407 -0.2255
 6430TIP3    H140781   2.861   5.608  11.316  2.7843 -2.2101 -1.0480
 6430TIP3    H240782   2.720   5.554  11.306  1.1115  1.9202 -0.6231
 6431TIP3   OH240783   6.048   3.393   3.767  0.1221  0.1024  0.2279
 6431TIP3    H140784   6.017   3.435   3.847 -0.6071  0.2635 -0.1267
 6431TIP3    H240785   6.139   3.371   3.785  0.0884  0.5161  0.9473
 6432TIP3   OH240786   2.004   4.611   3.524 -0.0029  0.4251  0.1918
 6432TIP3    H140787   1.929   4.659   3.489 -0.8685 -0.5293  0.7131
 6432TIP3    H240788   1.979   4.588   3.613  0.9032  0.0768  0.3648
 6433TIP3   OH240789   5.605   3.364  12.274  0.4452 -0.2410 -0.1368
 6433TIP3    H140790   5.678   3.338  12.218  1.1755 -0.7680  1.0579
 6433TIP3    H240791   5.587   3.287  12.328  0.8390  0.8000  1.5111
 6434TIP3   OH240792   5.558   1.749   3.438  0.2227  0.0731  0.0477
 6434TIP3    H140793   5.630   1.775   3.495  0.0083  0.2553  0.2378
 6434TIP3    H240794   5.566   1.654   3.431  0.6012  0.1131 -0.0965
 6435TIP3   OH240795   2.671   6.081  16.730 -0.6149  0.2073  0.2456
 6435TIP3    H140796   2.578   6.061  16.741 -0.3494 -1.3317 -0.0843
 6435TIP3    H240797   2.675   6.176  16.724 -2.1519  0.2961  0.3911
 6436TIP3   OH240798   3.632   4.342   2.983 -0.0201 -0.0624 -0.1059
 6436TIP3    H140799   3.638   4.358   3.077 -0.1703  0.6924 -0.2257
 6436TIP3    H240800   3.604   4.250   2.976  0.9163 -0.3961  0.5694
 6437TIP3   OH240801   1.241   4.520  13.505  0.2061 -0.0735  0.1291
 6437TIP3    H140802   1.322   4.488  13.546  0.8878  2.1223  0.5401
 6437TIP3    H240803   1.174   4.508  13.572  0.7037  0.5152  0.7386
 6438TIP3   OH240804   2.941   2.431   2.270  0.3226 -0.1019 -0.1527
 6438TIP3    H140805   2.975   2.345   2.292  1.5317 -0.0430 -1.6583
 6438TIP3    H240806   2.997   2.492   2.319  0.9755 -0.0974 -0.8856
 6439TIP3   OH240807   0.360   4.999   5.897  1.2195  0.4239 -0.0658
 6439TIP3    H140808   0.334   5.070   5.955  0.1804 -0.0686  0.0843
 6439TIP3    H240809   0.416   5.041   5.831 -0.4032  1.6153 -0.7104
 6440TIP3   OH240810   4.820   3.433  13.511 -0.0846  0.6291 -0.5074
 6440TIP3    H140811   4.885   3.363  13.516 -2.7270 -1.7902  2.1708
 6440TIP3    H240812   4.791   3.432  13.420  1.4333 -0.2718 -1.0072
 6441TIP3   OH240813   0.078   4.698  11.933 -0.0569  0.0166 -0.0004
 6441TIP3    H140814   0.023   4.625  11.906 -0.8321  0.1746  1.0985
 6441TIP3    H240815   0.038   4.730  12.014 -0.3389  2.2807 -0.9720
 6442TIP3   OH240816   6.326   4.869   0.798 -0.6752  0.1983  0.2783
 6442TIP3    H140817   6.403   4.846   0.747 -1.3761  0.5162 -0.9589
 6442TIP3    H240818   6.255   4.871   0.733 -1.3114  2.0350  1.0082
 6443TIP3   OH240819   0.562   6.204   6.688  0.1595  0.0022  0.3031
 6443TIP3    H140820   0.537   6.150   6.762 -0.7020  0.0104  0.0202
 6443TIP3    H240821   0.572   6.292   6.724  2.2982 -0.4495  0.9129
 6444TIP3   OH240822   1.705   2.790   3.560  0.7095 -0.0238  0.4564
 6444TIP3    H140823   1.702   2.713   3.618 -2.1743 -0.2761  0.0619
 6444TIP3    H240824   1.664   2.860   3.611 -1.3409 -0.1024 -0.9859
 6445TIP3   OH240825   5.636   2.356   0.808  0.5969 -0.1494 -0.0809
 6445TIP3    H140826   5.615   2.428   0.868 -0.4679 -0.7998  0.3407
 6445TIP3    H240827   5.552   2.312   0.794  1.1725 -1.0702 -0.6537
 6446TIP3   OH240828   3.260   1.201   4.536  0.3179 -0.0664  0.2275
 6446TIP3    H140829   3.191   1.177   4.597 -0.0316  0.7401  0.1495
 6446TIP3    H240830   3.215   1.215   4.453  0.6455 -0.0424  0.0540
 6447TIP3   OH240831   1.788   1.312   1.157 -0.0972  0.5357 -0.7518
 6447TIP3    H140832   1.883   1.297   1.155  0.0081  0.9481  0.9778
 6447TIP3    H240833   1.762   1.294   1.247 -1.2442  2.9266 -0.5690
 6448TIP3   OH240834   6.758   5.875   2.037 -0.3525  0.0300 -0.2674
 6448TIP3    H140835   6.720   5.792   2.063 -1.0423  0.9074  1.6023
 6448TIP3    H240836   6.690   5.940   2.056  0.4426  1.1136 -1.0264
 6449TIP3   OH240837   3.201   1.634  16.421 -0.9565 -0.8072  0.0118
 6449TIP3    H140838   3.281   1.662  16.466  0.5497 -1.3197 -2.2320
 6449TIP3    H240839   3.186   1.545  16.451 -2.1796  0.1332  2.3660
 6450TIP3   OH240840   3.163   0.469  14.886 -0.4747 -0.4794 -0.7336
 6450TIP3    H140841   3.145   0.381  14.853  0.9919 -0.5574 -1.3261
 6450TIP3    H240842   3.169   0.523  14.808 -2.3305  0.3488 -0.3346
 6451TIP3   OH240843   5.775   6.816   0.105 -0.1548 -0.2502  0.1354
 6451TIP3    H140844   5.784   6.888   0.167 -1.1288 -1.8966  2.2450
 6451TIP3    H240845   5.748   6.741   0.158  2.8098 -2.7431 -1.7026
 6452TIP3   OH240846   0.313   6.634  16.936 -0.2853  0.1399 -0.2711
 6452TIP3    H140847   0.386   6.664  16.883 -1.9026  1.7110 -1.6915
 6452TIP3    H240848   0.348   6.561  16.987  2.8785  2.2948  0.8071
 6453TIP3   OH240849   1.034   3.789   3.014  0.7156 -0.3207 -0.1676
 6453TIP3    H140850   1.057   3.827   2.930  0.4638 -0.8731 -0.4859
 6453TIP3    H240851   1.118   3.771   3.056  0.8576  1.7012  0.5040
 6454TIP3   OH240852   6.234   0.285  13.075 -0.0916  0.5543 -0.0481
 6454TIP3    H140853   6.148   0.253  13.102  0.9427 -0.7433  1.8888
 6454TIP3    H240854   6.296   0.233  13.127  1.9212  0.4589 -2.4019
 6455TIP3   OH240855   4.832   6.620   2.780 -0.0129 -0.5360  0.6575
 6455TIP3    H140856   4.745   6.582   2.796  0.1904 -1.6756 -0.8673
 6455TIP3    H240857   4.815   6.713   2.761 -0.9617 -0.8818 -0.2123
 6456TIP3   OH240858   2.072   0.875  15.246  0.3322  0.7818  0.3897
 6456TIP3    H140859   2.067   0.886  15.151  1.9149  0.5314  0.2555
 6456TIP3    H240860   2.145   0.930  15.272  0.7250 -0.1579  1.2907
 6457TIP3   OH240861   3.020   0.895   3.389 -0.5582  0.4093  0.0238
 6457TIP3    H140862   2.990   0.819   3.340  0.3971 -0.3061  0.5441
 6457TIP3    H240863   2.988   0.881   3.478  0.7044 -0.0091  0.4157
 6458TIP3   OH240864   0.595   5.070   3.717 -0.2963 -0.6246 -0.2451
 6458TIP3    H140865   0.554   5.149   3.681 -0.0879 -0.1933  0.4595
 6458TIP3    H240866   0.653   5.039   3.647  0.7158  0.6620 -0.0109
 6459TIP3   OH240867   4.762   1.449   4.387  0.0095 -0.1394  0.0665
 6459TIP3    H140868   4.845   1.492   4.407  0.3991 -0.7908 -0.1408
 6459TIP3    H240869   4.773   1.359   4.416 -1.4455  0.3276  2.1340
 6460TIP3   OH240870   5.980   6.602  11.394 -0.3728  0.2098 -0.0593
 6460TIP3    H140871   6.042   6.558  11.451  0.6555  1.1109 -0.4707
 6460TIP3    H240872   5.993   6.563  11.308 -1.6394 -0.8608  0.2141
 6461TIP3   OH240873   3.592   1.051  14.354 -0.1247 -0.1750  0.2119
 6461TIP3    H140874   3.607   1.131  14.304 -1.7292  0.6759  1.0369
 6461TIP3    H240875   3.599   1.078  14.446  1.0139 -1.3440  0.4914
 6462TIP3   OH240876   5.994   5.061  12.291  0.4503  0.8144 -0.2756
 6462TIP3    H140877   5.997   5.132  12.355 -1.3031  0.1619  0.5693
 6462TIP3    H240878   5.900   5.046  12.277  0.8059 -0.9394 -0.8867
 6463TIP3   OH240879   5.037   5.760  13.446  0.2583 -0.1574  0.4588
 6463TIP3    H140880   5.014   5.673  13.477 -1.6082 -1.1844 -3.4698
 6463TIP3    H240881   5.130   5.755  13.424 -0.4737 -2.1453 -2.5104
 6464TIP3   OH240882   6.194   2.058   5.475  0.5667  0.1226 -0.7623
 6464TIP3    H140883   6.223   1.976   5.515  0.3056  0.1251 -0.5638
 6464TIP3    H240884   6.274   2.111   5.469  0.3794  0.6619  1.0593
 6465TIP3   OH240885   5.277   2.471  14.952  0.0725 -0.1453 -0.0181
 6465TIP3    H140886   5.372   2.472  14.943  0.3907 -0.7642  2.7634
 6465TIP3    H240887   5.258   2.386  14.993 -1.7012 -0.0991 -0.6821
 6466TIP3   OH240888   4.861   2.003   1.957  0.1846 -0.2667  0.0324
 6466TIP3    H140889   4.880   1.934   1.894  0.6012 -0.1630  0.0446
 6466TIP3    H240890   4.780   2.043   1.925 -1.3583 -2.2649  1.2978
 6467TIP3   OH240891   3.038   1.135  11.463  0.2500  0.5043  0.0668
 6467TIP3    H140892   2.999   1.213  11.503  0.7632  0.3217  0.9227
 6467TIP3    H240893   3.131   1.141  11.485  0.0061 -1.2569  1.6032
 6468TIP3   OH240894   0.770   1.191  10.750  0.1891 -0.0111 -0.0939
 6468TIP3    H140895   0.844   1.252  10.761  0.1284  0.1088 -0.3436
 6468TIP3    H240896   0.731   1.185  10.837 -1.4419  2.3973 -0.6182
 6469TIP3   OH240897   5.455   4.106   0.937 -0.1977 -1.1485 -0.3963
 6469TIP3    H140898   5.510   4.065   0.870 -0.4049 -2.3833  0.1744
 6469TIP3    H240899   5.453   4.042   1.008  0.5230  0.3974  1.0549
 6470TIP3   OH240900   3.036   3.430  15.534 -0.5220 -0.2304  0.0875
 6470TIP3    H140901   3.085   3.491  15.589 -1.2336  1.3688 -1.0353
 6470TIP3    H240902   3.099   3.404  15.466 -1.4456  2.4976 -1.8633
 6471TIP3   OH240903   4.904   5.989  13.785  0.1760  0.0585  0.2567
 6471TIP3    H140904   4.826   6.042  13.795 -0.3256 -0.4263 -0.9668
 6471TIP3    H240905   4.977   6.052  13.789 -0.3484  0.6893 -0.0710
 6472TIP3   OH240906   5.008   4.382  10.548 -0.0433  0.1298 -0.0642
 6472TIP3    H140907   5.009   4.387  10.644 -0.7448 -0.5759 -0.0130
 6472TIP3    H240908   5.006   4.288  10.529  1.9408  0.2140 -0.7997
 6473TIP3   OH240909   5.303   1.299   2.871  0.4603  0.2565  0.3144
 6473TIP3    H140910   5.394   1.327   2.873  1.1654 -1.6143 -2.6804
 6473TIP3    H240911   5.304   1.214   2.916  0.4929 -0.4529 -1.0010
 6474TIP3   OH240912   1.569   6.022  13.721 -0.2533  0.1483  0.2635
 6474TIP3    H140913   1.576   6.104  13.770 -0.2024 -0.3599  1.1422
 6474TIP3    H240914   1.476   6.002  13.719 -0.2041 -0.1535  0.7254
 6475TIP3   OH240915   3.776   5.924  12.795 -0.2989  0.4027 -0.4529
 6475TIP3    H140916   3.860   5.937  12.752  1.6311  1.3508  3.3813
 6475TIP3    H240917   3.752   6.011  12.827 -1.9382 -0.1498 -0.1340
 6476TIP3   OH240918   6.598   2.208   0.731 -0.5726  0.1067  0.1839
 6476TIP3    H140919   6.504   2.195   0.718 -0.8260  0.4354  1.6594
 6476TIP3    H240920   6.638   2.160   0.658 -1.8091 -1.6038  0.5931
 6477TIP3   OH240921   4.584   0.039   6.222  0.4454 -0.2288  0.3379
 6477TIP3    H140922   4.577   0.134   6.217 -1.9269 -0.4065 -0.4148
 6477TIP3    H240923   4.667   0.023   6.268  0.4393  2.1942  1.2522
 6478TIP3   OH240924   4.421   0.140  12.296  0.2305 -0.4603 -0.5528
 6478TIP3    H140925   4.511   0.157  12.321  0.0547  1.8588 -1.3748
 6478TIP3    H240926   4.387   0.082  12.364  1.3846  1.2338  1.4928
 6479TIP3   OH240927   1.287   0.650   0.284 -0.1154  0.1025 -0.3579
 6479TIP3    H140928   1.335   0.596   0.347 -0.3420  1.0717  0.6714
 6479TIP3    H240929   1.206   0.603   0.267 -0.5529  0.3815  0.9452
 6480TIP3   OH240930   0.248   0.243  16.039 -0.1341  0.2379 -0.1087
 6480TIP3    H140931   0.293   0.327  16.024  0.7954 -0.4136 -1.0604
 6480TIP3    H240932   0.315   0.188  16.080 -0.0563 -0.7628 -1.5786
 6481TIP3   OH240933   1.598   1.269  15.354 -0.2059  0.2189 -0.1454
 6481TIP3    H140934   1.630   1.348  15.399 -0.4370  0.5793 -0.6146
 6481TIP3    H240935   1.616   1.284  15.262 -3.0065  1.0481 -0.5959
 6482TIP3   OH240936   0.627   2.722   2.499  0.0667  0.1937 -0.3656
 6482TIP3    H140937   0.700   2.672   2.534 -0.0103 -0.0636 -0.5679
 6482TIP3    H240938   0.581   2.660   2.441 -0.2995  0.3556 -0.2509
 6483TIP3   OH240939   3.012   2.265  16.539 -0.1922  0.2360 -0.3965
 6483TIP3    H140940   3.023   2.202  16.611  0.0552  0.8040  0.0623
 6483TIP3    H240941   2.958   2.218  16.475  0.6769 -0.7441 -0.4332
 6484TIP3   OH240942   4.276   6.078   4.601  0.0579  0.1608  0.0930
 6484TIP3    H140943   4.349   6.028   4.563 -0.0847 -1.0874  1.4255
 6484TIP3    H240944   4.198   6.030   4.575 -0.1137 -0.0490  0.9800
 6485TIP3   OH240945   5.849   1.012  11.645  0.2726  0.1081 -0.0146
 6485TIP3    H140946   5.843   1.108  11.647  0.2126  0.1486 -1.5605
 6485TIP3    H240947   5.796   0.986  11.569  1.5369 -1.0321 -0.5349
 6486TIP3   OH240948   0.777   3.332  16.988 -0.5948  0.0777 -0.2605
 6486TIP3    H140949   0.767   3.306  17.079  1.0914  0.4363  0.0438
 6486TIP3    H240950   0.699   3.385  16.969 -1.6457 -1.1581  0.5340
 6487TIP3   OH240951   2.035   2.995   5.636  0.3507  0.1613 -0.0029
 6487TIP3    H140952   2.096   2.935   5.679  2.1163  0.5855 -1.8745
 6487TIP3    H240953   1.948   2.957   5.655  1.1006 -0.1874  3.0755
 6488TIP3   OH240954   5.549   4.180   1.431  0.0956  0.8276 -0.6164
 6488TIP3    H140955   5.573   4.090   1.411  1.1495  0.8606  0.4479
 6488TIP3    H240956   5.455   4.177   1.451  0.1216 -0.0111 -0.6296
 6489TIP3   OH240957   6.660   5.854   5.822  0.5680 -0.1501  0.1385
 6489TIP3    H140958   6.589   5.790   5.827  0.5780 -0.3539 -1.8539
 6489TIP3    H240959   6.619   5.933   5.787  0.8862  0.4317  1.0588
 6490TIP3   OH240960   1.962   5.729   6.020  0.1541 -0.3109 -0.2230
 6490TIP3    H140961   2.051   5.731   6.054 -0.1575  0.6162  0.5830
 6490TIP3    H240962   1.912   5.782   6.082 -0.4692  1.3037 -2.0741
 6491TIP3   OH240963   1.472   2.039   3.176 -0.1879 -0.2683 -0.1882
 6491TIP3    H140964   1.496   2.054   3.267 -1.2544 -0.6751  0.1614
 6491TIP3    H240965   1.489   2.122   3.132 -3.2685  1.1241  1.1338
 6492TIP3   OH240966   1.871   5.632   6.457  0.0810 -0.0705  0.5633
 6492TIP3    H140967   1.886   5.693   6.530  1.5427  1.0738 -0.6581
 6492TIP3    H240968   1.778   5.642   6.436  0.0378  0.8487  1.1794
 6493TIP3   OH240969   2.511   0.491  13.969  0.5295  0.4512  0.4801
 6493TIP3    H140970   2.426   0.471  14.008  0.8096  0.0157  0.8725
 6493TIP3    H240971   2.492   0.552  13.898  0.0890  1.7113  1.6767
 6494TIP3   OH240972   0.207   1.297   3.794 -0.3710  0.6467  0.0906
 6494TIP3    H140973   0.250   1.247   3.725 -0.7924  0.1110  0.2141
 6494TIP3    H240974   0.125   1.327   3.754 -0.5474  0.4563  0.3057
 6495TIP3   OH240975   5.621   4.877   1.716 -0.5593 -0.8446  0.1944
 6495TIP3    H140976   5.692   4.919   1.765 -0.4383 -0.3521 -0.4018
 6495TIP3    H240977   5.662   4.843   1.637 -1.2451  0.6679 -0.8260
 6496TIP3   OH240978   3.183   5.905  12.602  0.6400 -0.1848 -0.3798
 6496TIP3    H140979   3.141   5.962  12.667 -0.5873 -1.1848 -0.2747
 6496TIP3    H240980   3.170   5.951  12.519 -0.9974 -0.6547 -0.3964
 6497TIP3   OH240981   5.836   6.358   5.604 -0.5507  0.3056  0.3472
 6497TIP3    H140982   5.796   6.371   5.518  0.1566  0.1891 -0.0042
 6497TIP3    H240983   5.908   6.297   5.588  0.1058  0.9299  0.8642
 6498TIP3   OH240984   1.822   2.689  11.688  0.7200 -0.2198  0.8828
 6498TIP3    H140985   1.742   2.712  11.736  0.7310  0.9631  0.3517
 6498TIP3    H240986   1.793   2.680  11.597  1.3722  1.2358  0.5232
 6499TIP3   OH240987   1.259   3.011  13.061 -0.1188  0.0135 -0.3607
 6499TIP3    H140988   1.273   3.034  12.969 -1.2360  1.9826 -0.0642
 6499TIP3    H240989   1.165   3.020  13.074  0.1306  0.5184  1.1742
 6500TIP3   OH240990   0.555   4.467  12.570  0.2148  0.0262  0.5854
 6500TIP3    H140991   0.516   4.445  12.654  0.0217  0.8163  0.7022
 6500TIP3    H240992   0.567   4.382  12.526 -2.0630 -0.1834  0.3383
 6501TIP3   OH240993   5.130   3.689   2.521  0.0886  0.7814  0.3929
 6501TIP3    H140994   5.184   3.674   2.443  1.5232 -0.8076  1.6517
 6501TIP3    H240995   5.160   3.773   2.556 -0.1619  1.2195 -0.4332
 6502TIP3   OH240996   5.587   0.564  10.751 -0.8167 -0.1396  0.4639
 6502TIP3    H140997   5.546   0.479  10.736  1.8658 -1.0844 -2.0883
 6502TIP3    H240998   5.652   0.548  10.818 -0.1933 -0.1506 -0.1401
 6503TIP3   OH240999   3.211   4.147  14.976  0.3519 -0.3758  0.3115
 6503TIP3    H141000   3.233   4.212  15.043  3.3807  0.5956 -1.5496
 6503TIP3    H241001   3.246   4.064  15.011 -0.0518 -0.2945  0.9196
 6504TIP3   OH241002   6.442   1.181   0.487 -0.2133  0.5917  0.3690
 6504TIP3    H141003   6.503   1.219   0.550  1.9955 -0.0613 -1.2951
 6504TIP3    H241004   6.438   1.088   0.511  0.2600  0.4364 -0.1326
 6505TIP3   OH241005   1.137   1.399   3.723 -0.6764 -0.0921 -0.1191
 6505TIP3    H141006   1.216   1.422   3.673 -0.6272  1.1329  0.4852
 6505TIP3    H241007   1.132   1.304   3.718 -0.3600 -0.0334 -1.9774
 6506TIP3   OH241008   3.927   2.738   1.070 -0.2020  0.0036  0.5951
 6506TIP3    H141009   3.989   2.725   0.997 -0.2551 -1.5899  0.8305
 6506TIP3    H241010   3.848   2.693   1.043 -0.4635  0.0094  1.3412
 6507TIP3   OH241011   3.502   3.145  15.076  0.1712  0.4396  0.2687
 6507TIP3    H141012   3.433   3.199  15.115  0.7214  0.3935  1.3132
 6507TIP3    H241013   3.467   3.056  15.078  0.0931  0.4737  0.4083
 6508TIP3   OH241014   5.833   5.431  16.032  0.2546  0.1398 -0.0842
 6508TIP3    H141015   5.893   5.377  16.083  0.9598  0.6799 -0.3368
 6508TIP3    H241016   5.888   5.498  15.993 -0.5677  0.8676 -0.0187
 6509TIP3   OH241017   1.834   0.045  15.952  0.6271  0.3992 -0.0237
 6509TIP3    H141018   1.870   0.094  15.879  1.0209 -0.2905 -0.2991
 6509TIP3    H241019   1.904   0.044  16.018  1.6682 -2.1043 -1.0915
 6510TIP3   OH241020   6.094   4.103   3.691  0.4819 -0.4167 -0.7727
 6510TIP3    H141021   6.029   4.119   3.759  1.0928  1.4802 -0.6052
 6510TIP3    H241022   6.177   4.095   3.738  0.4241 -2.6120 -1.0039
 6511TIP3   OH241023   4.329   3.063  14.035 -0.2035 -0.0001  0.0605
 6511TIP3    H141024   4.391   3.056  14.108  0.2449 -1.1931 -0.4095
 6511TIP3    H241025   4.272   2.986  14.046 -2.1766  1.5447  0.9936
 6512TIP3   OH241026   2.799   4.401  16.780  0.0878 -0.1001 -0.1482
 6512TIP3    H141027   2.809   4.322  16.727  0.7343 -1.3546  1.7945
 6512TIP3    H241028   2.886   4.418  16.816  0.1134  1.9288 -1.1133
 6513TIP3   OH241029   5.968   1.005   2.450  0.3187  0.1128 -0.5718
 6513TIP3    H141030   6.059   1.009   2.480  1.0058  0.3822 -2.6589
 6513TIP3    H241031   5.960   0.918   2.410 -0.2313  0.2399 -0.7335
 6514TIP3   OH241032   4.137   3.920   0.224 -0.1188 -0.1033 -0.5021
 6514TIP3    H141033   4.172   3.842   0.266  0.8763  0.4711 -0.2388
 6514TIP3    H241034   4.078   3.887   0.156 -2.3157 -1.0697  1.7617
 6515TIP3   OH241035   3.962   6.063  12.367  0.2565  0.0033 -0.0127
 6515TIP3    H141036   3.928   6.153  12.370  0.1950  0.0310 -1.2505
 6515TIP3    H241037   3.885   6.009  12.351  0.4126 -0.1999 -0.0804
 6516TIP3   OH241038   2.740   4.346  15.109  0.5331  0.1736 -0.2888
 6516TIP3    H141039   2.652   4.311  15.102  1.1714 -1.0886 -2.4153
 6516TIP3    H241040   2.792   4.273  15.142  1.3246 -0.0225 -1.9190
 6517TIP3   OH241041   5.319   5.862  13.861  0.1531 -0.0398  0.0107
 6517TIP3    H141042   5.413   5.866  13.877 -0.0632  0.5675  1.2140
 6517TIP3    H241043   5.299   5.945  13.816 -0.0509  0.5582  1.1809
 6518TIP3   OH241044   4.241   2.991  11.919 -0.4815 -0.3477 -0.3101
 6518TIP3    H141045   4.193   2.927  11.973 -0.1273  0.4167  0.9457
 6518TIP3    H241046   4.276   2.940  11.847  3.9607 -2.6308  3.2280
 6519TIP3   OH241047   0.052   3.548   2.437 -0.3227 -0.1016  0.1548
 6519TIP3    H141048   0.041   3.455   2.418  1.2893  0.1390 -2.1842
 6519TIP3    H241049   0.144   3.556   2.463 -0.5569  0.7885  0.7129
 6520TIP3   OH241050   5.375   5.258  15.320 -0.2237 -0.0706  0.3610
 6520TIP3    H141051   5.284   5.260  15.291 -0.4114 -1.7713  0.8254
 6520TIP3    H241052   5.378   5.192  15.389  1.5695 -0.8017 -0.3764
 6521TIP3   OH241053   0.701   5.523   4.419  0.1092  0.2985 -0.2423
 6521TIP3    H141054   0.724   5.571   4.498 -0.1897 -0.8748  0.5725
 6521TIP3    H241055   0.606   5.535   4.410  0.1525  0.4793 -0.4546
 6522TIP3   OH241056   1.426   0.281  15.278  0.3766  0.3149 -0.3180
 6522TIP3    H141057   1.481   0.261  15.353  1.3443 -0.2390 -1.1643
 6522TIP3    H241058   1.473   0.350  15.231  0.6619 -0.5664 -1.3598
 6523TIP3   OH241059   5.622   6.019   1.206 -0.0492 -0.4058  0.1873
 6523TIP3    H141060   5.643   5.985   1.119 -1.0034  0.0922 -0.2438
 6523TIP3    H241061   5.681   6.093   1.218 -0.3584 -0.0680 -0.3166
 6524TIP3   OH241062   3.114   0.146   1.210 -0.7311  0.2156  0.2847
 6524TIP3    H141063   3.033   0.105   1.181 -0.3830 -1.0953  1.0950
 6524TIP3    H241064   3.180   0.114   1.148 -1.0461  2.4443 -1.2768
 6525TIP3   OH241065   4.387   4.749   0.766 -0.0488  0.0861 -0.1998
 6525TIP3    H141066   4.451   4.701   0.818 -0.5651 -0.3668  0.0197
 6525TIP3    H241067   4.354   4.817   0.826 -1.5663 -1.2199  0.5028
 6526TIP3   OH241068   4.977   0.717   5.243 -0.9438 -0.1589 -0.3903
 6526TIP3    H141069   5.062   0.732   5.284 -0.0300  0.7069 -2.5262
 6526TIP3    H241070   4.934   0.654   5.300  2.5560 -3.3842 -1.0809
 6527TIP3   OH241071   1.884   0.693  16.826 -0.3210 -0.2969  0.1048
 6527TIP3    H141072   1.829   0.667  16.900 -1.5255 -0.2254 -0.7696
 6527TIP3    H241073   1.913   0.782  16.848 -2.2027  0.4440 -0.3927
 6528TIP3   OH241074   6.151   0.957   2.765 -0.4607 -0.3416 -0.6891
 6528TIP3    H141075   6.175   0.891   2.701 -0.1645 -0.6718 -0.2440
 6528TIP3    H241076   6.129   0.907   2.844 -4.8225 -0.2262 -1.6990
 6529TIP3   OH241077   3.747   0.744  15.384 -0.0167  0.0082 -0.0937
 6529TIP3    H141078   3.736   0.840  15.386 -0.0725  0.0316 -1.2244
 6529TIP3    H241079   3.831   0.729  15.426  0.3419  0.6184 -0.5796
 6530TIP3   OH241080   3.857   4.669  10.698  0.1938 -0.3306 -0.1680
 6530TIP3    H141081   3.872   4.721  10.620 -0.2417  0.2357  0.1220
 6530TIP3    H241082   3.944   4.643  10.728  0.5148  1.5248  0.5607
 6531TIP3   OH241083   5.342   2.968  10.930  0.5665 -0.0582  0.2474
 6531TIP3    H141084   5.309   3.021  10.857 -0.1892  0.2164  0.7837
 6531TIP3    H241085   5.425   3.009  10.954  0.7219 -0.0285 -0.3243
 6532TIP3   OH241086   2.202   0.320   3.962  0.1763  0.2998  0.0847
 6532TIP3    H141087   2.140   0.279   3.901  0.8723 -0.4876 -0.1026
 6532TIP3    H241088   2.264   0.250   3.983  1.4855  1.3158 -0.3622
 6533TIP3   OH241089   1.394   1.488  17.180  0.3753 -0.1201  0.0353
 6533TIP3    H141090   1.488   1.476  17.169  0.2619  0.1408 -1.3652
 6533TIP3    H241091   1.359   1.482  17.091 -0.6076  2.4798  0.1988
 6534TIP3   OH241092   6.379   1.571  17.094 -0.3168 -0.3078  0.1678
 6534TIP3    H141093   6.357   1.530  17.178  1.0085 -1.8484 -0.2058
 6534TIP3    H241094   6.325   1.525  17.030 -0.8280  0.3998  0.0896
 6535TIP3   OH241095   1.148   2.737   2.901  0.2779 -0.1898  0.6372
 6535TIP3    H141096   1.091   2.687   2.843 -0.4664  0.3841  0.8600
 6535TIP3    H241097   1.105   2.734   2.987  1.2917 -0.9069  1.1331
 6536TIP3   OH241098   2.916   1.748   1.971  0.0122 -0.2173  0.5960
 6536TIP3    H141099   2.822   1.727   1.968  0.0771 -0.8444  2.4370
 6536TIP3    H241100   2.951   1.709   1.891 -1.2153 -0.3542  0.1047
 6537TIP3   OH241101   6.052   0.079   4.218  0.6477  0.6188  0.1030
 6537TIP3    H141102   6.086   0.168   4.214 -0.2424  1.0699  1.8798
 6537TIP3    H241103   5.967   0.083   4.173  0.2397  0.8749  0.8767
 6538TIP3   OH241104   4.031   6.665   0.844 -0.1543 -0.5271  0.8059
 6538TIP3    H141105   3.938   6.640   0.841 -0.7457  1.6297  0.7418
 6538TIP3    H241106   4.075   6.599   0.789 -2.0820  0.2490 -1.7602
 6539TIP3   OH241107   4.718   2.829  11.276  0.6182  0.0625  0.2393
 6539TIP3    H141108   4.672   2.812  11.358  0.1050  0.8110  0.1079
 6539TIP3    H241109   4.664   2.786  11.209  0.5750  0.1876  0.1928
 6540TIP3   OH241110   6.079   0.714   1.228  0.1887  0.3177  0.4237
 6540TIP3    H141111   6.069   0.732   1.135  0.0206  0.2364  0.4273
 6540TIP3    H241112   6.171   0.736   1.247  0.2159  0.3549  0.2453
 6541TIP3   OH241113   3.107   3.577  13.683  0.3122  0.4251 -0.1832
 6541TIP3    H141114   3.137   3.622  13.604  1.2121  0.2801  0.0714
 6541TIP3    H241115   3.183   3.576  13.741  0.3607 -1.5115 -0.2280
 6542TIP3   OH241116   2.304   4.402  14.405 -0.0038 -0.1707 -0.4378
 6542TIP3    H141117   2.282   4.309  14.415  1.1192 -0.3933  0.0318
 6542TIP3    H241118   2.326   4.411  14.312 -0.2565 -0.3371 -0.5165
 6543TIP3   OH241119   0.578   3.782  15.492  0.4743 -0.1242 -0.1623
 6543TIP3    H141120   0.497   3.830  15.474  1.1692  1.1880  0.1755
 6543TIP3    H241121   0.645   3.825  15.439  1.4058  0.2499  1.2881
 6544TIP3   OH241122   4.740   0.222   1.100  0.2865  0.6629  0.3753
 6544TIP3    H141123   4.693   0.164   1.161 -0.5815  0.5971 -0.3469
 6544TIP3    H241124   4.821   0.175   1.080 -0.3156 -0.2007 -0.0436
 6545TIP3   OH241125   2.852   3.841   2.081  0.0153 -0.2827 -0.1088
 6545TIP3    H141126   2.757   3.839   2.092  0.0304  0.7413  0.2848
 6545TIP3    H241127   2.868   3.914   2.021  0.6721  0.7637  1.3063
 6546TIP3   OH241128   0.666   6.368  14.168 -0.6208 -0.8562  0.4883
 6546TIP3    H141129   0.693   6.460  14.177  0.5626 -1.1000 -0.4658
 6546TIP3    H241130   0.722   6.321  14.230  1.8922 -1.4814 -2.1317
 6547TIP3   OH241131   3.978   2.450   4.591  0.1294 -0.3676  0.1044
 6547TIP3    H141132   3.959   2.483   4.679  2.0108  1.2086 -0.0506
 6547TIP3    H241133   3.983   2.355   4.602 -2.0130 -0.3904  1.2150
 6548TIP3   OH241134   3.206   5.188  15.477 -0.3942 -0.0549  0.6275
 6548TIP3    H141135   3.194   5.104  15.521 -1.0505 -0.2686  0.0341
 6548TIP3    H241136   3.127   5.200  15.426 -0.3626  0.9932  0.8168
 6549TIP3   OH241137   5.118   0.234  13.138 -0.3293 -0.0168  0.0008
 6549TIP3    H141138   5.038   0.226  13.190 -0.4977  1.9139  0.0695
 6549TIP3    H241139   5.133   0.328  13.131  0.6734 -0.3002 -1.9635
 6550TIP3   OH241140   3.107   3.769  15.778 -0.8169 -0.4613 -0.0210
 6550TIP3    H141141   3.028   3.789  15.728 -0.1933  0.0052 -0.8382
 6550TIP3    H241142   3.076   3.759  15.868 -1.9238 -1.1028 -0.4577
 6551TIP3   OH241143   1.518   1.601  12.125 -0.6394 -0.6998 -0.2221
 6551TIP3    H141144   1.447   1.656  12.157  0.5589  0.8118 -0.0997
 6551TIP3    H241145   1.558   1.652  12.054  0.9135 -1.1138  0.3374
 6552TIP3   OH241146   6.402   0.091   5.635  0.3754  0.0744 -0.1415
 6552TIP3    H141147   6.385   0.081   5.729 -2.1941  2.7650 -0.2437
 6552TIP3    H241148   6.430   0.183   5.626  0.1729 -0.0418 -2.0648
 6553TIP3   OH241149   6.212   3.062   4.985 -0.2054  0.1965  0.3114
 6553TIP3    H141150   6.217   2.967   4.984  0.5971  0.2108  1.7811
 6553TIP3    H241151   6.220   3.086   5.077 -0.3797  1.6856 -0.0430
 6554TIP3   OH241152   5.738   1.144  13.042 -0.0198  0.9455  0.2085
 6554TIP3    H141153   5.761   1.130  12.950 -0.1563 -3.2163  0.7262
 6554TIP3    H241154   5.642   1.155  13.041 -0.0196  0.9338 -0.1571
 6555TIP3   OH241155   4.873   3.741  13.561  0.4680  0.1337 -0.2564
 6555TIP3    H141156   4.828   3.757  13.644  0.1579  1.7919 -0.7363
 6555TIP3    H241157   4.848   3.651  13.538 -1.8819  0.6872 -0.0488
 6556TIP3   OH241158   2.067   1.423   0.005  0.2062 -0.3374 -0.7144
 6556TIP3    H141159   2.035   1.497   0.055  1.2663 -0.6370  0.4449
 6556TIP3    H241160   2.075   1.352   0.069  1.2679 -0.8189 -1.3622
 6557TIP3   OH241161   5.018   6.061   2.019 -0.2165 -0.1666  0.2123
 6557TIP3    H141162   5.019   6.005   2.097  0.4652 -0.2321  0.1582
 6557TIP3    H241163   5.073   6.136   2.043 -1.0561  0.4440  0.2570
 6558TIP3   OH241164   2.510   1.568   3.319 -0.0923 -0.1277 -0.2596
 6558TIP3    H141165   2.529   1.481   3.354  2.3678  1.0232  1.3203
 6558TIP3    H241166   2.580   1.584   3.256 -0.5454  0.7133 -0.5511
 6559TIP3   OH241167   4.430   0.774  11.612  0.0036  0.1582  0.4142
 6559TIP3    H141168   4.464   0.748  11.526  1.0051  0.1393  0.8037
 6559TIP3    H241169   4.497   0.744  11.673 -0.3364  0.8718  1.1302
 6560TIP3   OH241170   1.188   0.896  11.069 -0.2341  0.6771 -0.4449
 6560TIP3    H141171   1.134   0.933  11.000 -1.0437  1.2591  0.4923
 6560TIP3    H241172   1.157   0.806  11.079 -0.4253  0.7360 -0.5138
 6561TIP3   OH241173   3.964   0.696  15.561 -0.5305 -0.3575  0.1242
 6561TIP3    H141174   4.033   0.642  15.521 -0.2906 -0.2814  0.4269
 6561TIP3    H241175   3.938   0.647  15.640 -1.8207 -1.0782 -0.7393
 6562TIP3   OH241176   4.971   5.749  13.177 -0.4847 -0.2531 -0.4994
 6562TIP3    H141177   5.042   5.690  13.154  1.0538  1.0482  0.7311
 6562TIP3    H241178   4.968   5.747  13.273 -1.0465  0.8769 -0.4807
 6563TIP3   OH241179   4.190   3.031   1.404  0.1329 -0.0119  0.5022
 6563TIP3    H141180   4.264   2.970   1.408  1.2942  1.1497 -1.8604
 6563TIP3    H241181   4.183   3.053   1.311 -2.6128  0.6276  0.8161
 6564TIP3   OH241182   6.683   1.503   1.960 -0.5027  0.0073  0.3321
 6564TIP3    H141183   6.664   1.550   1.879 -0.2633 -0.6595 -0.1050
 6564TIP3    H241184   6.690   1.572   2.026  0.3632  0.6234 -0.4092
 6565TIP3   OH241185   2.769   4.668  16.026 -0.0626 -0.1656 -0.2679
 6565TIP3    H141186   2.753   4.675  16.120 -0.7070 -0.6753 -0.3387
 6565TIP3    H241187   2.832   4.596  16.017 -0.3470 -0.4182 -0.2570
 6566TIP3   OH241188   4.355   0.373  15.182  0.2023  0.2216  0.7186
 6566TIP3    H141189   4.289   0.442  15.188 -1.0237 -0.7369 -1.2409
 6566TIP3    H241190   4.434   0.418  15.150 -0.6948  0.6704 -0.9226
 6567TIP3   OH241191   0.784   6.430  15.834  0.1795 -0.2669  0.1965
 6567TIP3    H141192   0.828   6.510  15.805  0.2008 -0.6483 -0.8546
 6567TIP3    H241193   0.701   6.430  15.787 -0.5195 -0.0414  1.4348
 6568TIP3   OH241194   2.561   5.351   3.091  0.6277  0.4525  0.0680
 6568TIP3    H141195   2.579   5.276   3.148 -1.4812  0.6645  1.0636
 6568TIP3    H241196   2.554   5.425   3.151 -1.0452  0.7831 -0.5213
 6569TIP3   OH241197   1.215   1.537   1.433 -0.1797 -0.5240 -0.5270
 6569TIP3    H141198   1.173   1.457   1.464  0.6322 -1.1673 -1.0554
 6569TIP3    H241199   1.305   1.530   1.465 -0.2423  0.4490 -0.0996
 6570TIP3   OH241200   4.989   3.493  13.158 -0.1291 -0.3338 -0.1646
 6570TIP3    H141201   5.031   3.516  13.075 -1.3430 -1.0702 -0.9917
 6570TIP3    H241202   4.978   3.577  13.204  1.1835 -0.0024 -0.4172
 6571TIP3   OH241203   1.160   3.215  15.284 -0.6015  0.5560 -0.2268
 6571TIP3    H141204   1.169   3.125  15.255 -1.4913  0.7430 -1.1297
 6571TIP3    H241205   1.140   3.209  15.377  0.0286 -0.1502 -0.1396
 6572TIP3   OH241206   2.724   5.249   4.291 -0.0874  0.3248 -0.0861
 6572TIP3    H141207   2.719   5.209   4.204  0.8240  0.3493 -0.1481
 6572TIP3    H241208   2.634   5.243   4.325 -0.2985 -0.3168 -0.7439
 6573TIP3   OH241209   0.387   6.265  14.156  0.0931  0.3041 -0.0115
 6573TIP3    H141210   0.334   6.206  14.210  1.3876 -2.2910 -1.4763
 6573TIP3    H241211   0.453   6.299  14.216  0.7346 -1.5341  0.3301
 6574TIP3   OH241212   2.392   2.913  16.187  0.6339 -0.6317  0.2586
 6574TIP3    H141213   2.487   2.916  16.183  0.6797 -2.3454 -0.3866
 6574TIP3    H241214   2.364   2.913  16.095  0.1046 -2.2501  0.4030
 6575TIP3   OH241215   4.153   0.586  15.415  0.1555  0.0534  0.5295
 6575TIP3    H141216   4.106   0.503  15.400  0.7457  0.0410 -1.3633
 6575TIP3    H241217   4.206   0.569  15.493 -3.3508  0.2600  3.1075
 6576TIP3   OH241218   4.417   4.586  12.473  0.0725  0.7685 -0.3490
 6576TIP3    H141219   4.437   4.560  12.383  0.4191 -0.2653  0.0190
 6576TIP3    H241220   4.322   4.585  12.478 -0.0252  2.5972 -1.2063
 6577TIP3   OH241221   3.756   1.848   5.324  0.1960  0.3660 -0.3740
 6577TIP3    H141222   3.728   1.797   5.400 -1.0467  0.5250 -0.7248
 6577TIP3    H241223   3.757   1.785   5.252 -0.3707  0.6145 -0.6000
 6578TIP3   OH241224   2.722   6.140  13.936 -0.1747  0.9362  0.1360
 6578TIP3    H141225   2.809   6.106  13.917 -0.7234 -0.1681 -0.4625
 6578TIP3    H241226   2.712   6.215  13.877 -0.3676 -0.1125 -1.1854
 6579TIP3   OH241227   5.215   2.755  14.551 -0.6738 -0.6177 -0.5221
 6579TIP3    H141228   5.304   2.766  14.582  0.6585  0.4949 -4.3823
 6579TIP3    H241229   5.167   2.829  14.588  0.3938 -0.3187  0.2849
 6580TIP3   OH241230   4.690   2.324  16.818 -0.1096  0.0471  0.2261
 6580TIP3    H141231   4.738   2.262  16.762 -1.8261 -3.0617  2.0399
 6580TIP3    H241232   4.616   2.352  16.764  0.4376  0.2205 -0.4500
 6581TIP3   OH241233   6.776   2.572   2.117  0.3239 -0.7031 -0.2867
 6581TIP3    H141234   6.846   2.509   2.137 -1.0384 -2.0089  0.4642
 6581TIP3    H241235   6.780   2.636   2.188  0.3664 -1.1130  0.0829
 6582TIP3   OH241236   1.066   1.170   3.157 -0.1230 -0.3178  0.0941
 6582TIP3    H141237   1.041   1.254   3.195 -0.2690  0.0799 -0.8601
 6582TIP3    H241238   1.143   1.189   3.104 -0.7873 -0.5632 -0.9940
 6583TIP3   OH241239   4.806   4.026  10.920  0.0585  0.2895 -0.0336
 6583TIP3    H141240   4.899   4.014  10.900  0.1744 -0.0149  0.6895
 6583TIP3    H241241   4.774   4.085  10.851  0.4271 -0.8603 -1.2074
 6584TIP3   OH241242   0.296   2.799  14.457  0.0693  0.0389  0.1005
 6584TIP3    H141243   0.361   2.866  14.477 -1.6334  1.2253  1.9069
 6584TIP3    H241244   0.326   2.760  14.375  2.9275  0.6751  0.7825
 6585TIP3   OH241245   1.492   5.701   2.593 -0.0954 -0.7195  0.1367
 6585TIP3    H141246   1.490   5.688   2.498  0.1393  0.2015  0.0034
 6585TIP3    H241247   1.529   5.619   2.627  1.3373 -0.4394 -0.6904
 6586TIP3   OH241248   3.773   6.228  13.153 -0.1418  0.3917  0.4544
 6586TIP3    H141249   3.799   6.163  13.219 -0.7165 -1.1353 -0.7876
 6586TIP3    H241250   3.692   6.265  13.186  0.4458  0.8303  1.4165
 6587TIP3   OH241251   0.453   5.732   1.013  0.1330  0.2270 -0.3468
 6587TIP3    H141252   0.393   5.658   1.020  0.2243 -0.0716 -2.4319
 6587TIP3    H241253   0.414   5.788   0.945  0.4386  1.7479  0.7012
 6588TIP3   OH241254   3.301   1.450   0.873 -0.1371  0.2766  0.0969
 6588TIP3    H141255   3.336   1.386   0.811  0.2249  2.8723 -2.4948
 6588TIP3    H241256   3.235   1.402   0.922  1.4900 -2.5889 -0.4063
 6589TIP3   OH241257   2.724   2.165  13.873 -0.1237 -0.0165  0.1573
 6589TIP3    H141258   2.635   2.165  13.906 -0.6427 -0.9931 -1.1719
 6589TIP3    H241259   2.721   2.223  13.797  0.6041  0.7146  0.6791
 6590TIP3   OH241260   4.492   4.386   4.347  0.2301  0.3931  0.1402
 6590TIP3    H141261   4.476   4.479   4.359  2.4763  0.8150  0.0896
 6590TIP3    H241262   4.583   4.373   4.374  0.8262 -1.2717 -2.4208
 6591TIP3   OH241263   0.950   6.808  12.931  0.0035  0.1511  0.1324
 6591TIP3    H141264   0.997   6.731  12.902 -0.2672  0.6132 -1.5894
 6591TIP3    H241265   0.954   6.869  12.857 -2.2346  0.6676  0.3944
 6592TIP3   OH241266   0.569   1.110  16.915 -0.2430  0.3186  0.0685
 6592TIP3    H141267   0.478   1.091  16.938 -0.2471  0.3198  0.0538
 6592TIP3    H241268   0.581   1.201  16.940  0.0187  0.0549  0.9089
 6593TIP3   OH241269   2.170   3.820  12.471 -0.1532  0.0460  0.1969
 6593TIP3    H141270   2.102   3.882  12.446  0.6299  0.3568 -1.2361
 6593TIP3    H241271   2.250   3.872  12.476  0.1438 -0.4760  1.0193
 6594TIP3   OH241272   4.122   2.637   2.933 -0.4789  0.4221 -0.4964
 6594TIP3    H141273   4.099   2.651   3.025  0.1072 -0.6481 -0.1776
 6594TIP3    H241274   4.104   2.721   2.891 -0.1511  1.1202  0.7257
 6595TIP3   OH241275   4.415   3.885   3.737  0.1862  0.2345 -0.8821
 6595TIP3    H141276   4.357   3.888   3.813  1.1181  1.4378 -0.2027
 6595TIP3    H241277   4.500   3.915   3.770  0.9403 -0.4986 -2.1017
 6596TIP3   OH241278   5.787   4.306   1.464 -0.0717  0.5676 -0.7532
 6596TIP3    H141279   5.778   4.389   1.512  0.6622  0.6932 -0.8294
 6596TIP3    H241280   5.700   4.291   1.427 -0.6165  0.5118  0.5437
 6597TIP3   OH241281   5.484   1.857   1.598  0.1434  0.0921  0.2947
 6597TIP3    H141282   5.404   1.809   1.621 -0.4142  0.6574 -0.4238
 6597TIP3    H241283   5.535   1.796   1.546 -0.9383  0.5189 -1.3225
 6598TIP3   OH241284   4.247   5.766   5.330 -0.3762  0.4780  0.4078
 6598TIP3    H141285   4.278   5.738   5.416 -0.6120  0.1924  0.4013
 6598TIP3    H241286   4.153   5.779   5.342 -0.4219  0.3630  0.1711
 6599TIP3   OH241287   2.958   1.433  15.798 -0.0742 -0.3379 -0.2219
 6599TIP3    H141288   2.995   1.348  15.773  1.5424  0.3454 -0.2443
 6599TIP3    H241289   2.972   1.437  15.893  1.1605  0.4924 -0.4272
 6600TIP3   OH241290   6.295   2.514  15.444  0.3689  0.1186  0.3689
 6600TIP3    H141291   6.370   2.523  15.503  0.4040  1.3020  0.1606
 6600TIP3    H241292   6.241   2.590  15.464  0.3902  0.5320 -1.1367
 6601TIP3   OH241293   6.689   0.691   0.001 -0.2273 -0.4177  0.5307
 6601TIP3    H141294   6.605   0.696  -0.045 -0.3661  1.2614  0.9331
 6601TIP3    H241295   6.668   0.711   0.093  0.2235 -2.5757  1.1188
 6602TIP3   OH241296   2.604   1.710  11.605  0.3624 -0.3834 -0.7800
 6602TIP3    H141297   2.567   1.621  11.611 -0.1008 -0.2796 -1.9837
 6602TIP3    H241298   2.544   1.757  11.547  0.2389  0.9159  0.3852
 6603TIP3   OH241299   0.939   6.758   2.199 -0.6162  0.2295 -0.4435
 6603TIP3    H141300   0.906   6.676   2.162 -2.8190  2.6324 -4.1463
 6603TIP3    H241301   1.033   6.756   2.182 -1.0682 -0.3567 -3.0919
 6604TIP3   OH241302   2.328   0.438  14.667 -0.1348  0.2171  0.6133
 6604TIP3    H141303   2.419   0.409  14.656 -0.2360 -0.2464  0.9894
 6604TIP3    H241304   2.326   0.525  14.628  0.9719  1.0639  2.3479
 6605TIP3   OH241305   1.937   5.828  16.091 -0.1033  0.1529 -0.0167
 6605TIP3    H141306   1.958   5.920  16.075 -0.4459  0.2709  0.2213
 6605TIP3    H241307   1.911   5.824  16.183  2.1794 -0.5939  0.6355
 6606TIP3   OH241308   1.024   0.186   1.925  0.1004  0.1249 -0.6640
 6606TIP3    H141309   1.098   0.132   1.952  1.4377  2.5259  0.6975
 6606TIP3    H241310   0.974   0.201   2.006 -0.0069  1.2743 -0.9346
 6607TIP3   OH241311   0.126   2.197  12.892 -0.0246  0.1237  0.5638
 6607TIP3    H141312   0.198   2.256  12.867 -1.0617  1.0037 -0.4724
 6607TIP3    H241313   0.052   2.228  12.839 -0.4150 -2.5688 -0.5165
 6608TIP3   OH241314   6.296   1.322  13.054 -1.1464 -0.1674  0.5024
 6608TIP3    H141315   6.325   1.356  13.139  0.4019 -0.2304  0.0143
 6608TIP3    H241316   6.377   1.306  13.006 -1.8943 -2.8358  0.0448
 6609TIP3   OH241317   0.488   3.776  12.851  0.2822  0.4439 -0.1188
 6609TIP3    H141318   0.448   3.692  12.830  1.8449 -0.0631 -1.2461
 6609TIP3    H241319   0.426   3.820  12.908 -3.4349  1.0554 -4.3218
 6610TIP3   OH241320   2.503   5.291  16.896 -0.5236 -0.0829 -0.0168
 6610TIP3    H141321   2.462   5.334  16.822 -1.4399 -0.7370  0.0991
 6610TIP3    H241322   2.507   5.199  16.871 -0.8500 -0.3066  0.7496
 6611TIP3   OH241323   6.176   2.775   3.972 -0.2650  0.1190  0.1047
 6611TIP3    H141324   6.146   2.808   3.887  0.1097  0.4715  0.1046
 6611TIP3    H241325   6.099   2.733   4.011 -0.5243  0.2510 -0.2655
 6612TIP3   OH241326   2.597   2.936   2.374  0.1304 -0.4471 -0.7202
 6612TIP3    H141327   2.610   3.029   2.351  1.2480 -0.4848 -0.2908
 6612TIP3    H241328   2.608   2.933   2.469 -0.0231 -1.0048 -0.7207
 6613TIP3   OH241329   6.485   3.488   6.720 -0.4153 -0.0402 -0.0302
 6613TIP3    H141330   6.432   3.567   6.710 -1.0687 -0.5279 -0.4371
 6613TIP3    H241331   6.554   3.496   6.654  0.0738  0.6370  0.5580
 6614TIP3   OH241332   3.287   5.449   2.140 -0.1266 -0.2786  0.0873
 6614TIP3    H141333   3.198   5.447   2.175  0.5007  0.0731  1.8105
 6614TIP3    H241334   3.279   5.491   2.055 -1.4044  1.2644  0.9302
 6615TIP3   OH241335   1.773   3.335   1.073 -0.1315 -0.5035  0.1806
 6615TIP3    H141336   1.739   3.414   1.032 -0.7994 -1.0530 -0.3480
 6615TIP3    H241337   1.771   3.353   1.167 -0.1868  0.1428  0.0530
 6616TIP3   OH241338   5.947   6.034   3.371 -0.3786  0.1071  0.1772
 6616TIP3    H141339   5.960   5.981   3.293  0.1401  1.7045 -0.8254
 6616TIP3    H241340   6.027   6.023   3.422 -1.0528 -1.6083  0.9302
 6617TIP3   OH241341   2.101   3.662   3.576  0.0285  0.4282  0.4381
 6617TIP3    H141342   2.166   3.726   3.546 -0.1372  0.5766  0.3991
 6617TIP3    H241343   2.039   3.655   3.504  0.1253  0.1153  0.3822
 6618TIP3   OH241344   0.284   1.821   5.507 -0.2074 -0.0727  0.3402
 6618TIP3    H141345   0.220   1.891   5.496 -1.6463 -1.6369 -1.5695
 6618TIP3    H241346   0.368   1.862   5.485 -1.1782  0.7687 -1.9620
 6619TIP3   OH241347   5.449   2.134  16.374  0.3489  0.2162 -0.7173
 6619TIP3    H141348   5.446   2.190  16.451 -1.2020  1.0676 -1.3681
 6619TIP3    H241349   5.533   2.155  16.332  0.7701  0.4287  0.2292
 6620TIP3   OH241350   5.991   2.452   4.286 -0.5622  0.0025  0.0557
 6620TIP3    H141351   6.072   2.442   4.237 -1.8646 -1.3162 -1.9117
 6620TIP3    H241352   6.007   2.526   4.345  2.1281 -0.4136 -0.1041
 6621TIP3   OH241353   4.121   1.611  14.484  0.1542  0.5146 -0.4030
 6621TIP3    H141354   4.068   1.690  14.483 -3.3019 -1.6788 -0.7680
 6621TIP3    H241355   4.168   1.614  14.567 -0.7714  2.3908  0.0779
 6622TIP3   OH241356   4.826   4.344  14.110  0.0646  0.2381  0.5682
 6622TIP3    H141357   4.868   4.269  14.152 -0.3502 -1.1268 -1.4094
 6622TIP3    H241358   4.847   4.418  14.167  1.9997 -1.0661  1.5926
 6623TIP3   OH241359   4.570   6.092  11.241  0.1489  0.3940  0.1594
 6623TIP3    H141360   4.661   6.071  11.221 -0.4771 -0.9263 -1.4694
 6623TIP3    H241361   4.539   6.017  11.292 -0.3212  0.3113 -0.2422
 6624TIP3   OH241362   6.540   3.377   3.059 -1.0222 -0.6681 -0.2121
 6624TIP3    H141363   6.522   3.363   3.153 -3.0662  1.3706 -0.2278
 6624TIP3    H241364   6.457   3.413   3.025 -0.0594 -0.6955 -2.6450
 6625TIP3   OH241365   6.139   2.623  13.953 -0.3410  0.4707  0.5557
 6625TIP3    H141366   6.059   2.667  13.922 -0.1662  0.2474 -0.2293
 6625TIP3    H241367   6.116   2.530  13.953  0.2704  0.3145 -0.7355
 6626TIP3   OH241368   4.118   1.181   0.388 -0.0772  0.6482  0.3064
 6626TIP3    H141369   4.135   1.125   0.313  1.0929  1.3771  0.0175
 6626TIP3    H241370   4.195   1.173   0.443 -0.2254  1.3672  0.6341
 6627TIP3   OH241371   3.610   5.521  10.672 -0.2156  0.0621 -0.2772
 6627TIP3    H141372   3.599   5.521  10.577  1.5125 -1.2193 -0.5049
 6627TIP3    H241373   3.690   5.570  10.687  0.5050 -1.2657  0.3595
 6628TIP3   OH241374   0.536   6.401  17.167  0.0936 -0.1172 -0.4640
 6628TIP3    H141375   0.596   6.469  17.135 -0.3502  0.6045  0.2398
 6628TIP3    H241376   0.544   6.331  17.102  0.3289  0.7254 -1.3677
 6629TIP3   OH241377   5.756   0.648   4.423  0.1280 -0.2983  0.3025
 6629TIP3    H141378   5.780   0.702   4.348 -0.7394  0.8594  0.8466
 6629TIP3    H241379   5.824   0.581   4.427 -0.8878 -1.5587 -2.7005
 6630TIP3   OH241380   2.887   2.996  13.123  0.3364  0.6348  0.4554
 6630TIP3    H141381   2.812   2.969  13.070  1.0471 -1.1604  0.3214
 6630TIP3    H241382   2.852   3.059  13.186 -1.2630 -0.0944  0.2994
 6631TIP3   OH241383   3.495   1.280   6.505  0.2428 -0.2343 -0.3226
 6631TIP3    H141384   3.570   1.286   6.564  0.2707 -0.4199 -0.3391
 6631TIP3    H241385   3.419   1.290   6.561  0.2225 -1.9123 -0.0428
 6632TIP3   OH241386   6.036   1.756   4.519  0.1485 -0.4710 -0.1569
 6632TIP3    H141387   6.059   1.698   4.447 -1.1941 -1.0229 -0.1568
 6632TIP3    H241388   6.116   1.763   4.571  1.9616  2.1189 -3.1481
 6633TIP3   OH241389   1.712   0.269  15.758  0.0044 -0.6032 -0.3293
 6633TIP3    H141390   1.682   0.312  15.838  1.1366  0.4283 -0.4323
 6633TIP3    H241391   1.804   0.294  15.751 -0.4169  0.4574 -2.6703
 6634TIP3   OH241392   5.479   5.185  14.796  0.1517  0.1390 -0.5710
 6634TIP3    H141393   5.498   5.116  14.860  0.7936  0.0133 -0.8866
 6634TIP3    H241394   5.385   5.200  14.803  0.0036 -0.7789 -0.5038
 6635TIP3   OH241395   3.282   0.279  15.698  0.0294  0.2275 -0.2590
 6635TIP3    H141396   3.255   0.193  15.730 -2.2847  2.2232  3.5480
 6635TIP3    H241397   3.377   0.279  15.704 -0.0640 -1.3774  1.6343
 6636TIP3   OH241398   6.180   4.825   1.820  0.0322 -0.3780 -0.2117
 6636TIP3    H141399   6.274   4.838   1.833 -0.0633  1.8964 -1.4036
 6636TIP3    H241400   6.170   4.731   1.805  2.0926 -0.6724  0.1648
 6637TIP3   OH241401   3.362   4.494  15.767 -0.1836  0.4400  0.4437
 6637TIP3    H141402   3.418   4.566  15.796 -1.8013  1.9426 -0.0851
 6637TIP3    H241403   3.304   4.477  15.841 -0.3475  0.2306  0.2711
 6638TIP3   OH241404   3.824   2.738   2.721 -0.5178  0.3189 -0.0407
 6638TIP3    H141405   3.841   2.649   2.754 -0.2474  0.7129  0.9000
 6638TIP3    H241406   3.741   2.763   2.760 -0.0952  0.8673  0.5307
 6639TIP3   OH241407   1.870   6.231  12.557 -0.4110 -0.0509  0.3613
 6639TIP3    H141408   1.803   6.166  12.537 -0.6961  0.2767  0.2545
 6639TIP3    H241409   1.931   6.185  12.616 -1.2485 -0.0466  1.2386
 6640TIP3   OH241410   4.149   1.050  14.052  0.6081 -0.4231 -0.2733
 6640TIP3    H141411   4.183   1.096  14.129  0.9675 -1.8232  0.4180
 6640TIP3    H241412   4.159   0.957  14.073 -1.2704 -0.8488 -1.1175
 6641TIP3   OH241413   0.305   0.840  14.596  0.4204  0.6948  0.4241
 6641TIP3    H141414   0.274   0.842  14.686  0.8533  2.5659  0.5490
 6641TIP3    H241415   0.393   0.802  14.601 -0.0276 -0.3426  0.6192
 6642TIP3   OH241416   5.300   0.499  11.977 -0.3160  0.3537  0.1635
 6642TIP3    H141417   5.249   0.498  12.058  2.0634 -1.3830  1.6754
 6642TIP3    H241418   5.341   0.585  11.975  1.4832 -0.4267  2.0246
 6643TIP3   OH241419   0.555   1.082   1.301 -0.4355  0.4759 -0.2070
 6643TIP3    H141420   0.486   1.144   1.274 -0.2211  0.5341 -0.6277
 6643TIP3    H241421   0.577   1.035   1.221 -1.1348 -0.6801  0.2753
 6644TIP3   OH241422   0.404   4.535   2.250  0.5588 -0.2485 -0.0444
 6644TIP3    H141423   0.478   4.582   2.211  0.7343  0.7019  1.3824
 6644TIP3    H241424   0.327   4.576   2.211  0.6555  2.5590  2.5647
 6645TIP3   OH241425   4.513   4.668   2.721  0.4772  0.0106 -0.0945
 6645TIP3    H141426   4.423   4.644   2.700 -0.4558  2.1928  1.2491
 6645TIP3    H241427   4.565   4.590   2.700 -1.9467 -1.8912  0.8271
 6646TIP3   OH241428   0.094   4.774  11.399 -0.1361 -0.1667 -0.7083
 6646TIP3    H141429   0.033   4.847  11.401 -0.7048 -0.5892 -1.8179
 6646TIP3    H241430   0.128   4.768  11.488 -1.5748  0.1916 -0.1146
 6647TIP3   OH241431   6.529   2.063   1.980  0.2834  0.3517  0.2290
 6647TIP3    H141432   6.525   2.159   1.974  2.6597  0.5958  1.8883
 6647TIP3    H241433   6.594   2.038   1.914 -0.2461 -0.0967 -0.1187
 6648TIP3   OH241434   4.019   2.080  13.681  0.1057  0.0214 -0.9979
 6648TIP3    H141435   4.109   2.111  13.679 -0.2053  0.8482 -2.6997
 6648TIP3    H241436   3.975   2.139  13.741  0.5698 -0.0481 -0.5868
 6649TIP3   OH241437   2.671   2.880  12.994  0.2829 -0.2387  0.3781
 6649TIP3    H141438   2.590   2.925  13.019 -0.7552 -0.2232 -2.7407
 6649TIP3    H241439   2.646   2.789  12.983  0.9205 -0.4162  0.3595
 6650TIP3   OH241440   1.485   2.438  14.005  0.0616  0.0064 -0.2385
 6650TIP3    H141441   1.558   2.376  14.013 -1.3154 -1.2374  3.3556
 6650TIP3    H241442   1.528   2.524  13.999  1.8780 -0.8474 -0.0083
 6651TIP3   OH241443   5.258   0.381  14.520  0.1874  0.0749 -0.1013
 6651TIP3    H141444   5.311   0.327  14.461  1.0977 -1.4377  2.0709
 6651TIP3    H241445   5.317   0.405  14.591 -1.5286 -0.0675  1.3965
 6652TIP3   OH241446   3.748   4.218   5.977  0.9470 -0.2077  0.2002
 6652TIP3    H141447   3.719   4.233   6.066  0.1315  1.6536 -0.3621
 6652TIP3    H241448   3.781   4.128   5.977 -1.3461 -1.0836  1.7689
 6653TIP3   OH241449   3.621   6.639   0.036 -1.0890  0.5805  0.0433
 6653TIP3    H141450   3.609   6.623  -0.057  2.5683 -1.8760 -0.1107
 6653TIP3    H241451   3.697   6.697   0.041  0.6200 -1.6956  1.5202
 6654TIP3   OH241452   3.051   4.554  16.768  0.2083  0.1630  0.0077
 6654TIP3    H141453   3.139   4.551  16.806 -0.0865  1.1349  0.7706
 6654TIP3    H241454   3.064   4.589  16.680  0.4898  1.0724  0.4090
 6655TIP3   OH241455   5.238   2.170  11.645  0.0956  0.3418 -0.4287
 6655TIP3    H141456   5.276   2.172  11.733  1.3543 -1.8340 -0.8643
 6655TIP3    H241457   5.238   2.261  11.616  2.1961  0.7728  0.8042
 6656TIP3   OH241458   0.224   2.826   0.412  0.3256  0.2968 -0.4065
 6656TIP3    H141459   0.285   2.813   0.485 -1.0470 -1.7349  0.4322
 6656TIP3    H241460   0.274   2.799   0.335 -0.0024 -3.1502  0.4741
 6657TIP3   OH241461   5.785   5.173   0.990 -0.0290  0.0774 -0.3792
 6657TIP3    H141462   5.829   5.225   0.923 -0.1868  1.8027  0.8287
 6657TIP3    H241463   5.694   5.201   0.987 -0.3338 -0.9012 -0.4410
 6658TIP3   OH241464   3.429   0.949   1.160 -0.3410 -0.2154  0.1191
 6658TIP3    H141465   3.391   0.934   1.246  0.8040 -0.7158  0.5492
 6658TIP3    H241466   3.475   1.033   1.168 -0.0505 -0.3677  0.0656
 6659TIP3   OH241467   5.168   6.595  16.040  0.2317 -0.0170 -0.2053
 6659TIP3    H141468   5.116   6.674  16.029  2.0619  1.0438 -1.6558
 6659TIP3    H241469   5.151   6.567  16.129 -1.7367  1.0586 -0.2120
 6660TIP3   OH241470   1.365   1.151  15.421  0.1683 -0.3560  0.6346
 6660TIP3    H141471   1.452   1.179  15.393 -0.2982 -0.9538 -1.4825
 6660TIP3    H241472   1.381   1.099  15.500  1.6886 -0.0753  0.5206
 6661TIP3   OH241473   3.980   4.359  14.777  0.5166 -0.6892 -0.2206
 6661TIP3    H141474   3.917   4.429  14.797  2.0393  0.7256 -0.2750
 6661TIP3    H241475   4.022   4.341  14.861  1.6456 -0.0061 -0.6261
 6662TIP3   OH241476   4.507   3.954   3.407 -0.5588 -0.0127 -0.2440
 6662TIP3    H141477   4.569   3.884   3.427 -0.1493  0.0460 -1.2699
 6662TIP3    H241478   4.563   4.029   3.384 -0.9844  0.7353  1.1387
 6663TIP3   OH241479   1.510   6.594   5.900 -0.6255  0.0519 -0.1835
 6663TIP3    H141480   1.577   6.576   5.966 -0.8905 -0.1915  0.0209
 6663TIP3    H241481   1.477   6.681   5.923 -1.3238 -0.3937  0.5316
 6664TIP3   OH241482   3.710   2.621  15.746 -0.2280  0.1489 -0.4341
 6664TIP3    H141483   3.749   2.611  15.833 -1.1430  1.3209  0.1158
 6664TIP3    H241484   3.672   2.535  15.727  0.1191 -0.1574  0.2378
 6665TIP3   OH241485   0.251   0.856  12.324 -0.4446 -0.2771 -0.5230
 6665TIP3    H141486   0.338   0.891  12.302 -0.7997  0.2008 -1.1839
 6665TIP3    H241487   0.256   0.836  12.418 -0.4169  2.1188  0.0166
 6666TIP3   OH241488   2.242   0.708   2.319  0.0809  0.2436 -0.7523
 6666TIP3    H141489   2.208   0.785   2.274  2.3046  0.8161 -1.5310
 6666TIP3    H241490   2.236   0.638   2.254 -1.0838 -0.0320 -0.3529
 6667TIP3   OH241491   6.196   2.557   1.267 -0.0253 -0.4408 -0.1975
 6667TIP3    H141492   6.213   2.586   1.357 -1.8968  0.4730 -0.1316
 6667TIP3    H241493   6.106   2.526   1.268 -0.3071  0.2558 -1.9277
 6668TIP3   OH241494   1.586   4.337   2.565 -0.4895  0.1526  0.2606
 6668TIP3    H141495   1.535   4.386   2.500  0.5325  1.0034  0.0957
 6668TIP3    H241496   1.549   4.362   2.649 -1.7786 -0.9036  0.0209
 6669TIP3   OH241497   4.403   4.391   1.886 -0.6298  0.6257  0.2526
 6669TIP3    H141498   4.471   4.402   1.819 -0.6748  2.4168  0.4819
 6669TIP3    H241499   4.444   4.421   1.967 -1.5596  1.3400  0.4624
 6670TIP3   OH241500   6.357   6.352   3.518 -0.0120  0.2131 -0.3664
 6670TIP3    H141501   6.426   6.286   3.524  0.1090  0.4010  0.3413
 6670TIP3    H241502   6.404   6.434   3.498 -0.3474 -0.2878 -3.5459
 6671TIP3   OH241503   1.160   5.133  13.840  0.3195  0.1482  0.3080
 6671TIP3    H141504   1.255   5.140  13.846  0.2099 -0.2527  2.8443
 6671TIP3    H241505   1.145   5.057  13.783  1.4948 -0.2408  0.5085
 6672TIP3   OH241506   0.990   3.045  12.196 -0.0644 -0.2897 -0.2170
 6672TIP3    H141507   0.951   3.132  12.195 -1.3995 -0.8915 -1.2229
 6672TIP3    H241508   1.082   3.060  12.175 -0.3992  0.8320 -0.9192
 6673TIP3   OH241509   2.831   1.821   4.480  0.2541 -0.1596  0.0717
 6673TIP3    H141510   2.843   1.809   4.386  1.2927 -0.2820  0.2097
 6673TIP3    H241511   2.902   1.879   4.506 -1.2593  1.5523  0.4392
 6674TIP3   OH241512   4.584   6.580   4.123 -0.0590  0.6843 -0.4288
 6674TIP3    H141513   4.671   6.620   4.136  0.1095  0.1934 -0.0155
 6674TIP3    H241514   4.527   6.654   4.101  0.5246  0.9714 -1.0146
 6675TIP3   OH241515   2.264   0.535  12.931 -0.1355  0.0267  0.5508
 6675TIP3    H141516   2.218   0.473  12.874  1.5499 -0.7834  0.0239
 6675TIP3    H241517   2.295   0.604  12.872 -0.1437  0.2453  0.7996
 6676TIP3   OH241518   1.854   5.397   5.399 -0.4370  0.0828  0.0947
 6676TIP3    H141519   1.857   5.368   5.308  0.3779 -0.3749  0.2603
 6676TIP3    H241520   1.766   5.375   5.428 -0.5530 -0.1911 -0.4512
 6677TIP3   OH241521   5.809   3.025  14.891  0.4050 -0.0219  0.1912
 6677TIP3    H141522   5.899   3.012  14.918  0.3239 -1.3523 -0.1636
 6677TIP3    H241523   5.763   2.945  14.917 -0.7223  0.7289  0.5801
 6678TIP3   OH241524   2.026   6.285   3.291 -0.0748  0.3337 -0.1571
 6678TIP3    H141525   2.068   6.250   3.212  1.3422 -0.5152  0.9456
 6678TIP3    H241526   2.003   6.208   3.342 -0.4774  0.8974  0.5185
 6679TIP3   OH241527   1.651   1.103  16.618 -0.3503  0.7503  0.0431
 6679TIP3    H141528   1.626   1.081  16.529  0.4068  2.4414 -0.6040
 6679TIP3    H241529   1.724   1.044  16.638  0.3183  1.2264 -0.9296
 6680TIP3   OH241530   6.774   5.610   2.399  0.2112  0.1669  0.0292
 6680TIP3    H141531   6.691   5.650   2.373  0.1103  1.0528  1.6096
 6680TIP3    H241532   6.822   5.598   2.318 -0.1863  2.6117 -0.6077
 6681TIP3   OH241533   6.684   2.239   5.312  0.6830 -0.4793  0.2680
 6681TIP3    H141534   6.636   2.321   5.308  1.5273 -0.0674 -2.5068
 6681TIP3    H241535   6.642   2.183   5.247  1.0454 -1.7243  1.0857
 6682TIP3   OH241536   4.051   4.869  14.248 -0.0446  0.2206 -0.2486
 6682TIP3    H141537   3.959   4.886  14.267 -0.6042 -2.2949 -0.5498
 6682TIP3    H241538   4.051   4.834  14.159  1.0511 -0.8652  0.1665
 6683TIP3   OH241539   5.899   6.444   0.079 -0.7059  0.1737  0.1098
 6683TIP3    H141540   5.884   6.506   0.007 -1.7928  1.3740  1.3225
 6683TIP3    H241541   5.828   6.381   0.071 -0.6735  0.1570 -0.0431
 6684TIP3   OH241542   0.910   1.525   3.649  0.2418 -0.4659  0.2359
 6684TIP3    H141543   0.997   1.503   3.681  0.7510 -0.2166 -0.9721
 6684TIP3    H241544   0.852   1.460   3.690  0.8389 -0.0151  1.8385
 6685TIP3   OH241545   0.566   4.328   1.033  0.3019  0.4693 -0.2019
 6685TIP3    H141546   0.493   4.280   0.994 -0.6486  1.7904 -0.0995
 6685TIP3    H241547   0.538   4.420   1.031  1.7559  0.9373  0.2938
 6686TIP3   OH241548   4.991   6.511   2.574  0.8750  0.0051 -0.3038
 6686TIP3    H141549   4.939   6.500   2.653  2.0637 -1.6222  0.2736
 6686TIP3    H241550   4.952   6.587   2.530 -0.6821  0.0541  1.1171
 6687TIP3   OH241551   1.196   4.448   0.129 -0.1985 -0.9343 -0.0575
 6687TIP3    H141552   1.279   4.495   0.134 -0.6619 -0.0785 -0.2408
 6687TIP3    H241553   1.215   4.370   0.077  0.2538 -0.2313 -0.9584
 6688TIP3   OH241554   4.998   2.710  11.281 -0.2112 -0.1053 -0.3532
 6688TIP3    H141555   4.911   2.734  11.315 -0.7118 -2.0029 -0.2554
 6688TIP3    H241556   5.040   2.794  11.263 -1.3623  0.8849  1.3658
 6689TIP3   OH241557   3.889   6.359  14.793  0.1618 -0.5044  0.5350
 6689TIP3    H141558   3.851   6.370  14.880  1.7454  0.3630  1.1183
 6689TIP3    H241559   3.907   6.265  14.786  1.0366 -0.4147  1.5543
 6690TIP3   OH241560   3.906   0.899  11.757 -0.0521 -0.1110  0.4550
 6690TIP3    H141561   3.815   0.912  11.786  0.2556  0.4973  1.1411
 6690TIP3    H241562   3.928   0.811  11.788  0.0676  0.2924  1.5454
 6691TIP3   OH241563   3.662   2.062  13.033 -0.3180 -0.4285  0.4061
 6691TIP3    H141564   3.661   2.129  13.101 -1.6999 -1.1118  1.0591
 6691TIP3    H241565   3.686   1.981  13.079 -1.2464 -0.8882  0.0881
 6692TIP3   OH241566   4.294   2.854   4.758  0.4708 -0.5202  0.1502
 6692TIP3    H141567   4.281   2.760   4.769 -0.2402 -0.6327 -1.4365
 6692TIP3    H241568   4.389   2.864   4.749  0.4417 -1.3061 -1.3163
 6693TIP3   OH241569   2.011   4.068   0.163 -0.1523  0.2637 -0.7244
 6693TIP3    H141570   1.972   4.048   0.249 -0.3594 -2.3393 -1.3813
 6693TIP3    H241571   2.105   4.060   0.177 -0.1295  0.9737 -0.4689
 6694TIP3   OH241572   3.514   4.092  16.574  0.0955  0.1477 -0.0152
 6694TIP3    H141573   3.464   4.152  16.630 -0.5506 -0.1766 -0.2392
 6694TIP3    H241574   3.532   4.017  16.630  0.6248  0.4124  0.1672
 6695TIP3   OH241575   2.686   1.239  10.831  0.6337 -0.8304 -0.3841
 6695TIP3    H141576   2.709   1.179  10.760  0.5034 -1.6856  0.2846
 6695TIP3    H241577   2.770   1.270  10.864  0.6548  1.6822 -2.6627
 6696TIP3   OH241578   6.673   5.012  11.614  0.2668  0.2172  0.3455
 6696TIP3    H141579   6.665   5.004  11.519  0.4935 -0.2609  0.3656
 6696TIP3    H241580   6.661   5.105  11.632  0.3746  0.3276 -0.1673
 6697TIP3   OH241581   6.318   1.122   0.169 -0.0709 -0.2096 -0.3155
 6697TIP3    H141582   6.370   1.057   0.121 -0.1365 -0.5332  0.0517
 6697TIP3    H241583   6.275   1.072   0.238 -0.5200  0.1383 -0.3418
 6698TIP3   OH241584   0.129   5.632  12.386 -0.5903  0.2559 -0.0154
 6698TIP3    H141585   0.098   5.602  12.301 -0.2191 -1.6550  0.4828
 6698TIP3    H241586   0.220   5.658  12.371 -0.3897 -0.4906 -0.1386
 6699TIP3   OH241587   2.970   6.595  13.575 -0.3922  0.1096 -0.5520
 6699TIP3    H141588   2.879   6.566  13.579 -0.5124  0.6922  1.0751
 6699TIP3    H241589   2.968   6.670  13.515 -1.2594  1.0760  0.6501
 6700TIP3   OH241590   1.331   0.578   2.264  0.0073 -0.1730 -0.0557
 6700TIP3    H141591   1.289   0.506   2.312 -0.1271  0.4182  0.7388
 6700TIP3    H241592   1.420   0.581   2.299 -0.4849  1.1346  1.1889
 6701TIP3   OH241593   4.932   2.037   5.114 -0.8187 -0.5135 -0.7487
 6701TIP3    H141594   5.012   2.045   5.062  0.4414  0.9882  1.3383
 6701TIP3    H241595   4.920   1.943   5.126  1.3663 -0.7348 -0.0364
 6702TIP3   OH241596   4.400   5.394  16.127  0.3113 -0.2467 -0.0066
 6702TIP3    H141597   4.335   5.453  16.163 -1.4699 -1.4123 -1.2414
 6702TIP3    H241598   4.450   5.363  16.202 -0.7367  0.4528  0.9818
 6703TIP3   OH241599   2.911   0.284   5.093 -0.4337 -0.0133 -0.1642
 6703TIP3    H141600   2.983   0.339   5.124  0.3954 -0.2493 -1.6208
 6703TIP3    H241601   2.921   0.201   5.140  1.0764 -0.5274 -1.3704
 6704TIP3   OH241602   4.565   0.269  12.988  0.1101  0.3567  0.5130
 6704TIP3    H141603   4.509   0.312  13.053 -1.2701  2.2202 -1.8277
 6704TIP3    H241604   4.643   0.243  13.037 -1.5836  0.2235  3.2550
 6705TIP3   OH241605   3.105   1.377   5.672 -0.5452 -0.2791  0.4402
 6705TIP3    H141606   3.031   1.406   5.725 -0.3966 -2.0802  1.6617
 6705TIP3    H241607   3.069   1.311   5.613 -0.0035 -0.8488  0.7437
 6706TIP3   OH241608   6.097   5.665   4.350  0.3152 -0.3956 -0.1345
 6706TIP3    H141609   6.081   5.746   4.399  0.3887 -0.7376  0.4520
 6706TIP3    H241610   6.073   5.687   4.260  0.6751  0.3948 -0.0453
 6707TIP3   OH241611   6.149   2.814   1.733 -0.4979  0.0165 -0.8150
 6707TIP3    H141612   6.174   2.783   1.820 -0.3606  1.8844 -0.1815
 6707TIP3    H241613   6.053   2.817   1.735 -0.5037 -0.1283 -0.8110
 6708TIP3   OH241614   2.460   3.037  17.219 -0.5940  0.0398 -0.1622
 6708TIP3    H141615   2.445   2.976  17.291  1.7504  1.4540  1.5843
 6708TIP3    H241616   2.412   3.116  17.243 -0.4899  0.2255 -0.5523
 6709TIP3   OH241617   0.094   3.749   4.933  0.5646  0.1704  0.2411
 6709TIP3    H141618   0.171   3.785   4.977  1.1644 -0.4152 -0.3241
 6709TIP3    H241619   0.124   3.728   4.845 -0.2637  0.0066 -0.0103
 6710TIP3   OH241620   3.617   3.695   3.675  0.1897 -0.4331 -0.2067
 6710TIP3    H141621   3.643   3.700   3.766  0.4638 -1.3849 -0.2372
 6710TIP3    H241622   3.601   3.787   3.650 -2.1848 -0.3498  1.4454
 6711TIP3   OH241623   1.910   5.686   1.533  0.0549 -0.2026 -0.4406
 6711TIP3    H141624   1.830   5.668   1.484 -0.6743  1.0391  0.2706
 6711TIP3    H241625   1.922   5.609   1.588  0.9826 -1.6943 -2.6727
 6712TIP3   OH241626   5.686   0.951  13.320 -0.1851  0.3820 -0.3794
 6712TIP3    H141627   5.770   0.936  13.276  0.2314  2.0433 -0.1786
 6712TIP3    H241628   5.641   1.014  13.264 -1.7894 -1.3488 -1.0853
 6713TIP3   OH241629   4.390   4.694  15.169  0.2711  0.2800  0.6590
 6713TIP3    H141630   4.468   4.707  15.223  1.0414  0.8141 -0.5649
 6713TIP3    H241631   4.341   4.775  15.178  0.9324  0.8046 -0.2648
 6714TIP3   OH241632   2.538   5.518   2.386 -0.1824  0.1171 -0.1089
 6714TIP3    H141633   2.483   5.453   2.428 -0.7593  1.3978  1.1402
 6714TIP3    H241634   2.609   5.533   2.449  1.3030 -1.0772 -1.4403
 6715TIP3   OH241635   4.144   5.086  11.560 -0.1311  0.1209  0.2021
 6715TIP3    H141636   4.082   5.149  11.524 -0.7693 -1.4059 -1.4484
 6715TIP3    H241637   4.118   5.002  11.522  1.4413 -0.9469  1.4090
 6716TIP3   OH241638   3.489   0.116  11.902 -0.5495  0.0852 -0.0850
 6716TIP3    H141639   3.565   0.099  11.958 -0.4760  0.6492 -0.0097
 6716TIP3    H241640   3.442   0.033  11.899 -0.0203 -0.2215  0.0062
 6717TIP3   OH241641   3.972   3.683  14.743 -0.5005  0.5091 -0.3773
 6717TIP3    H141642   4.027   3.732  14.805 -0.2709 -0.8843  0.5508
 6717TIP3    H241643   3.971   3.736  14.664  0.7751  1.3910  0.1903
 6718TIP3   OH241644   6.329   4.066  12.181  0.2357 -0.3462 -0.2703
 6718TIP3    H141645   6.308   4.046  12.090  0.7162 -1.8590 -0.0616
 6718TIP3    H241646   6.408   4.015  12.199 -0.1549 -0.4809  1.1435
 6719TIP3   OH241647   5.194   0.014   2.160 -0.0140  0.0959  0.5294
 6719TIP3    H141648   5.191   0.100   2.117 -0.9716 -0.0657  0.2689
 6719TIP3    H241649   5.190  -0.049   2.089  1.9907 -0.1854  0.6301
 6720TIP3   OH241650   1.844   4.871  13.293 -0.0193  0.2534 -0.9125
 6720TIP3    H141651   1.866   4.782  13.321  2.6690  1.4693  1.1710
 6720TIP3    H241652   1.928   4.908  13.264 -1.1246  2.0503 -1.9241
 6721TIP3   OH241653   6.447   5.395   3.408  0.1183  0.3205  0.0624
 6721TIP3    H141654   6.471   5.487   3.423  0.3049  0.5048 -1.2666
 6721TIP3    H241655   6.353   5.392   3.421  0.3211  0.3683  1.6526
 6722TIP3   OH241656   4.048   2.115  14.895  0.0000  0.0281  0.1202
 6722TIP3    H141657   4.072   2.197  14.938 -0.1062 -0.5384  1.2612
 6722TIP3    H241658   3.975   2.139  14.838  0.5127  0.8919 -0.1850
 6723TIP3   OH241659   6.109   1.990   1.449 -0.2761  0.3638 -0.5507
 6723TIP3    H141660   6.113   1.900   1.415  1.6564  0.2648 -0.1320
 6723TIP3    H241661   6.179   1.993   1.515 -0.7431  2.0011 -0.1180
 6724TIP3   OH241662   2.193   3.976  13.480  0.0010 -0.2974  0.1239
 6724TIP3    H141663   2.245   3.942  13.407  0.1568 -1.1214  0.6175
 6724TIP3    H241664   2.255   4.026  13.533 -0.3513  1.3137 -0.9275
 6725TIP3   OH241665   3.608   3.000  17.041  0.0652 -0.3079  0.1247
 6725TIP3    H141666   3.533   3.035  17.088 -0.4609  1.4540 -1.9554
 6725TIP3    H241667   3.675   3.069  17.047  0.4049 -0.5551 -0.6814
 6726TIP3   OH241668   2.782   1.088   1.047  0.2526 -0.3805 -0.4778
 6726TIP3    H141669   2.838   1.131   0.983 -1.1455  1.4122 -0.5591
 6726TIP3    H241670   2.730   1.026   0.995  0.3466 -0.1833 -0.8100
 6727TIP3   OH241671   4.827   1.499   4.796  0.2071  0.3120  0.0869
 6727TIP3    H141672   4.784   1.529   4.717 -1.8089 -1.2660  0.5518
 6727TIP3    H241673   4.913   1.468   4.766  0.1284  1.2886 -1.1975
 6728TIP3   OH241674   4.378   6.133  10.314 -0.5261 -0.2272 -0.1799
 6728TIP3    H141675   4.295   6.085  10.312  0.7044 -2.6181  2.7514
 6728TIP3    H241676   4.420   6.105  10.395  1.5690  3.7036  0.2061
 6729TIP3   OH241677   3.059   2.986   1.618 -0.5487  0.3233  0.8766
 6729TIP3    H141678   3.125   2.979   1.687  0.8686 -2.3450 -0.6404
 6729TIP3    H241679   2.976   2.979   1.663  0.2728  1.5281  2.6085
 6730TIP3   OH241680   2.984   5.444   2.532  0.0696  0.0970 -0.2146
 6730TIP3    H141681   2.919   5.374   2.532 -0.1119  0.2620  0.7589
 6730TIP3    H241682   3.024   5.440   2.619  0.3912  0.8943 -0.3208
 6731TIP3   OH241683   0.341   0.505  16.818 -0.1119 -0.2841 -0.1554
 6731TIP3    H141684   0.374   0.470  16.901 -0.3276  1.6635  0.8059
 6731TIP3    H241685   0.385   0.589  16.809 -1.2614  0.2182 -1.2270
 6732TIP3   OH241686   5.493   2.397   1.181  0.3809 -0.0147  0.5007
 6732TIP3    H141687   5.543   2.370   1.258  1.0277  0.0804  0.1201
 6732TIP3    H241688   5.511   2.330   1.115  0.9842  0.6689 -0.0350
 6733TIP3   OH241689   0.322   6.686   5.785 -0.8940  0.5549 -0.1436
 6733TIP3    H141690   0.350   6.757   5.843 -0.0298  0.5273 -0.5181
 6733TIP3    H241691   0.302   6.729   5.702 -0.3030  0.3573 -0.3914
 6734TIP3   OH241692   6.531   1.214  10.984 -0.1809 -0.1428 -0.1510
 6734TIP3    H141693   6.609   1.202  11.039 -0.6126  0.1598  0.5400
 6734TIP3    H241694   6.531   1.139  10.925 -0.1336 -0.9025  0.7894
 6735TIP3   OH241695   2.311   2.740  15.502 -0.0054  0.3901  0.1148
 6735TIP3    H141696   2.365   2.672  15.542 -0.4622  0.5484  1.0028
 6735TIP3    H241697   2.276   2.698  15.423  2.9950  0.9286 -1.5896
 6736TIP3   OH241698   4.115   4.106   0.575 -0.2437  0.0977 -0.4378
 6736TIP3    H141699   4.162   4.130   0.495 -1.3493  0.0567 -1.1018
 6736TIP3    H241700   4.160   4.028   0.606  0.4678  0.3637 -0.7776
 6737TIP3   OH241701   2.909   5.720   5.476 -0.0902  0.4197 -0.1970
 6737TIP3    H141702   2.905   5.791   5.540 -1.2041  0.4415 -0.2704
 6737TIP3    H241703   2.817   5.703   5.454  0.1339 -1.2104  0.0041
 6738TIP3   OH241704   4.835   1.818  14.526  0.1881 -0.6326 -0.0916
 6738TIP3    H141705   4.830   1.722  14.532 -0.6499 -0.7346 -2.1409
 6738TIP3    H241706   4.744   1.846  14.517  0.2121  0.5664  2.9269
 6739TIP3   OH241707   6.627   3.125  12.070 -0.0472 -0.1641 -0.4671
 6739TIP3    H141708   6.606   3.211  12.105 -1.2024 -1.1107  1.2188
 6739TIP3    H241709   6.543   3.079  12.068  0.6561 -1.4532 -0.8296
 6740TIP3   OH241710   6.248   1.766  14.363  0.2827 -0.0545  0.6782
 6740TIP3    H141711   6.178   1.764  14.297 -0.5942 -2.1170  1.6109
 6740TIP3    H241712   6.292   1.681  14.354  2.2750  0.9644  0.5467
 6741TIP3   OH241713   4.961   5.201  11.555  0.6823  0.1214  0.1358
 6741TIP3    H141714   5.045   5.159  11.537  1.5060  0.2633  3.3076
 6741TIP3    H241715   4.984   5.281  11.602 -1.2489 -0.2728  1.8015
 6742TIP3   OH241716   0.959   6.574   4.952 -0.0948  0.0909 -0.2372
 6742TIP3    H141717   0.871   6.538   4.948  0.8197 -2.3788  1.1746
 6742TIP3    H241718   0.985   6.565   5.043  1.2275  1.8265 -0.4036
 6743TIP3   OH241719   3.689   5.429   2.782 -0.2281  0.0719  0.4491
 6743TIP3    H141720   3.638   5.433   2.863  0.6522 -0.0380  1.0149
 6743TIP3    H241721   3.635   5.377   2.722 -0.0603 -1.4588  1.5894
 6744TIP3   OH241722   3.684   3.944  11.375 -0.2480  0.1725  0.2304
 6744TIP3    H141723   3.650   4.020  11.424 -1.3156  0.2873 -0.6614
 6744TIP3    H241724   3.765   3.976  11.336 -0.6878  0.8613 -0.1376
 6745TIP3   OH241725   3.630   4.894  15.613 -0.1465  0.2400 -0.1135
 6745TIP3    H141726   3.720   4.862  15.609  0.1453  0.5436  2.8493
 6745TIP3    H241727   3.587   4.855  15.537  2.1265 -0.9858 -0.8175
 6746TIP3   OH241728   3.389   4.258   6.534 -0.2305 -0.1607 -0.0388
 6746TIP3    H141729   3.325   4.201   6.492 -0.1096  1.5335 -2.6548
 6746TIP3    H241730   3.336   4.329   6.571 -0.3618 -1.7574  3.0104
 6747TIP3   OH241731   1.199   1.406  11.815 -0.6172  0.0533 -0.5023
 6747TIP3    H141732   1.254   1.394  11.737 -1.1747  0.8629 -1.0211
 6747TIP3    H241733   1.222   1.493  11.847  1.5224 -1.2636  1.7604
 6748TIP3   OH241734   5.854   4.640  12.752  0.5912  0.1921 -0.3134
 6748TIP3    H141735   5.847   4.565  12.811  0.5234  1.4683  1.3269
 6748TIP3    H241736   5.941   4.675  12.767  0.7193  0.3122 -1.2635
 6749TIP3   OH241737   1.411   6.311   3.660  0.1376  0.4185  0.5383
 6749TIP3    H141738   1.502   6.289   3.676  0.4424 -0.6179 -2.3853
 6749TIP3    H241739   1.413   6.391   3.608 -0.5496 -0.2983 -0.6242
 6750TIP3   OH241740   0.514   1.837  16.758  0.1750  0.3613  0.1472
 6750TIP3    H141741   0.437   1.780  16.761  0.8243 -0.5314  0.1570
 6750TIP3    H241742   0.479   1.924  16.737 -1.0787  0.4553  2.5243
 6751TIP3   OH241743   6.542   5.594  14.171 -0.1982  0.3727  0.1672
 6751TIP3    H141744   6.507   5.671  14.216 -4.0750  1.3880 -4.2008
 6751TIP3    H241745   6.597   5.630  14.101  0.7148 -0.9397  0.1924
 6752TIP3   OH241746   5.300   3.301   3.322  0.0719  0.4291 -0.1581
 6752TIP3    H141747   5.331   3.240   3.256  1.1369  0.9176 -0.1216
 6752TIP3    H241748   5.285   3.382   3.274 -2.3535 -0.1434 -0.4000
 6753TIP3   OH241749   6.243   0.142   2.713 -0.6881  0.3219 -0.9148
 6753TIP3    H141750   6.287   0.224   2.691 -0.5354  0.3795 -0.4172
 6753TIP3    H241751   6.315   0.084   2.741 -0.8171  0.0827 -1.0776
 6754TIP3   OH241752   1.476   2.320   3.206  0.4154 -0.0740 -0.2681
 6754TIP3    H141753   1.512   2.312   3.294 -1.2014  0.4713  0.4633
 6754TIP3    H241754   1.387   2.354   3.219 -0.9416 -2.7792 -1.9114
 6755TIP3   OH241755   6.025   5.605  15.925 -0.2425 -0.2446 -0.0949
 6755TIP3    H141756   6.109   5.644  15.950  0.4100 -1.5695 -0.1706
 6755TIP3    H241757   6.049   5.529  15.873 -1.5305  0.2860 -1.5033
 6756TIP3   OH241758   3.714   6.619   1.688 -0.0844  0.7111  0.8431
 6756TIP3    H141759   3.770   6.641   1.762  2.2307  0.2561 -0.7253
 6756TIP3    H241760   3.724   6.691   1.627  1.8644 -1.1553 -1.1312
 6757TIP3   OH241761   6.712   2.082  13.330 -0.0373 -0.1392  0.8455
 6757TIP3    H141762   6.697   2.107  13.239 -0.8420 -1.2785  0.6495
 6757TIP3    H241763   6.625   2.083  13.369  0.0156 -1.7099  1.0503
 6758TIP3   OH241764   0.590   5.075  14.786  0.6540 -0.2451 -0.3717
 6758TIP3    H141765   0.634   5.159  14.798  0.4041  0.0016 -1.1534
 6758TIP3    H241766   0.625   5.041  14.703 -0.0900 -0.3807 -0.6323
 6759TIP3   OH241767   2.792   0.969   2.017  0.7014 -0.4320  0.0884
 6759TIP3    H141768   2.698   0.988   2.017  0.3494 -2.0958  0.1282
 6759TIP3    H241769   2.810   0.941   1.927  1.0970 -0.3997  0.1593
 6760TIP3   OH241770   2.554   3.376  15.029  0.7344  0.3812  0.3327
 6760TIP3    H141771   2.650   3.372  15.032  0.7307 -0.1823 -0.2238
 6760TIP3    H241772   2.531   3.436  15.100  1.4352 -0.5917  1.4039
 6761TIP3   OH241773   2.003   3.779  17.082 -0.0130 -0.3159  0.4026
 6761TIP3    H141774   1.977   3.840  17.151  2.7095  1.1654  0.1720
 6761TIP3    H241775   2.069   3.722  17.124 -0.2938 -1.1371 -0.2551
 6762TIP3   OH241776   1.236   3.490  17.154 -1.1991 -0.1206  0.0786
 6762TIP3    H141777   1.179   3.418  17.129 -0.6316 -1.1051  1.5327
 6762TIP3    H241778   1.249   3.478  17.248  1.5549 -0.0635 -0.2547
 6763TIP3   OH241779   0.058   6.355   1.088  0.1894 -1.1247 -0.0123
 6763TIP3    H141780   0.152   6.369   1.076  0.3934 -0.1495  2.3140
 6763TIP3    H241781   0.016   6.409   1.021  1.2692 -0.7244 -0.3650
 6764TIP3   OH241782   4.231   2.225  10.798 -0.0591  0.0557  0.3418
 6764TIP3    H141783   4.187   2.305  10.769 -0.5432  0.4004  1.9749
 6764TIP3    H241784   4.199   2.157  10.739 -0.2051  0.9262 -0.5958
 6765TIP3   OH241785   1.220   1.541  14.677 -0.1695  0.0536 -0.4203
 6765TIP3    H141786   1.278   1.576  14.609  0.2293  0.8861  0.3408
 6765TIP3    H241787   1.267   1.556  14.759 -1.2686  0.3468  0.1632
 6766TIP3   OH241788   0.721   4.223   5.618  0.2706 -0.1390 -0.0464
 6766TIP3    H141789   0.699   4.193   5.530  0.9833  0.5857 -0.4838
 6766TIP3    H241790   0.654   4.184   5.675  1.8293 -3.4621 -0.4004
 6767TIP3   OH241791   1.504   2.427  15.832  0.1236  0.2152 -0.6742
 6767TIP3    H141792   1.429   2.477  15.797  1.1853  1.9904 -0.4739
 6767TIP3    H241793   1.564   2.421  15.758  0.7649  0.7699 -0.2014
 6768TIP3   OH241794   5.719   1.584  15.030  0.3967  0.0831  0.2927
 6768TIP3    H141795   5.711   1.495  14.996  1.0041  0.5000 -0.9550
 6768TIP3    H241796   5.675   1.581  15.115 -1.4550 -0.8652 -0.6749
 6769TIP3   OH241797   3.197   2.850  11.877 -0.3229  0.3460  0.1957
 6769TIP3    H141798   3.285   2.889  11.879  0.4519 -1.3035 -0.6629
 6769TIP3    H241799   3.193   2.805  11.793 -1.3254 -1.1191  1.0143
 6770TIP3   OH241800   3.861   6.089  17.082 -0.2070  0.1809 -0.1601
 6770TIP3    H141801   3.941   6.123  17.042 -1.7188  3.3278 -0.6143
 6770TIP3    H241802   3.877   6.094  17.176 -0.1387  1.5833 -0.2341
 6771TIP3   OH241803   6.131   4.230  14.990  0.4611  0.2534  0.1217
 6771TIP3    H141804   6.209   4.182  14.963  0.3706  0.1161  0.1055
 6771TIP3    H241805   6.089   4.175  15.056  1.0005  0.8675  0.9829
 6772TIP3   OH241806   0.997   6.006   2.586 -0.1066  0.4734 -0.1505
 6772TIP3    H141807   1.084   6.045   2.579  0.4729 -0.8488 -0.6269
 6772TIP3    H241808   0.989   5.952   2.507 -1.4181  0.6981 -0.1855
 6773TIP3   OH241809   0.558   3.452   0.431  0.1400 -0.1991 -0.5551
 6773TIP3    H141810   0.590   3.444   0.341 -0.4074 -1.1901 -0.6596
 6773TIP3    H241811   0.465   3.471   0.422  0.4229  1.4647 -0.2217
 6774TIP3   OH241812   1.334   3.071  14.867 -0.3356  0.5383  0.7664
 6774TIP3    H141813   1.311   3.012  14.795  1.6685  0.9654 -0.2631
 6774TIP3    H241814   1.252   3.115  14.889 -0.7020  1.5542 -2.3258
 6775TIP3   OH241815   3.612   2.310  15.260  0.3515  0.7450  0.2306
 6775TIP3    H141816   3.696   2.328  15.302  0.7667 -0.6817  0.0531
 6775TIP3    H241817   3.565   2.254  15.322  0.4223 -0.2534 -0.5927
 6776TIP3   OH241818   0.799   6.718   1.664 -0.3023  0.2735  0.1380
 6776TIP3    H141819   0.853   6.642   1.686 -0.6348  0.1838  0.6615
 6776TIP3    H241820   0.766   6.749   1.748 -1.1520  0.2589 -0.1851
 6777TIP3   OH241821   4.878   5.350  15.842  0.4664 -0.0195 -0.1619
 6777TIP3    H141822   4.893   5.444  15.832  1.9744  0.0066  1.9699
 6777TIP3    H241823   4.807   5.344  15.906  1.8690 -0.3239  1.4059
 6778TIP3   OH241824   6.271   4.599  10.986  0.5310 -0.0102  0.0218
 6778TIP3    H141825   6.218   4.622  10.909  1.6348 -1.0346 -1.0552
 6778TIP3    H241826   6.223   4.526  11.026  1.1736 -1.0118 -1.0152
 6779TIP3   OH241827   4.711   3.772   2.525  0.6643  0.1897  0.1779
 6779TIP3    H141828   4.789   3.722   2.548  0.7685  0.0359 -0.4897
 6779TIP3    H241829   4.690   3.744   2.435 -1.9626 -2.0716  1.4161
 6780TIP3   OH241830   0.313   5.227  16.894  0.6286 -0.4345 -0.3188
 6780TIP3    H141831   0.234   5.264  16.853  0.1659 -1.8796 -0.7435
 6780TIP3    H241832   0.383   5.286  16.867 -0.1872  0.4488 -0.5533
 6781TIP3   OH241833   6.575   1.001   4.251 -0.0646 -0.0108 -0.4849
 6781TIP3    H141834   6.562   0.915   4.291 -1.3694 -0.4481 -1.7804
 6781TIP3    H241835   6.645   1.041   4.301  1.0255 -2.1116 -0.2769
 6782TIP3   OH241836   2.877   4.278   0.764 -0.5109  0.3545 -0.1936
 6782TIP3    H141837   2.826   4.337   0.709  0.3776  1.8579  0.5557
 6782TIP3    H241838   2.936   4.335   0.812 -0.7694 -0.9926  1.7980
 6783TIP3   OH241839   2.354   6.371  12.762 -0.3291  0.3382 -0.7260
 6783TIP3    H141840   2.426   6.398  12.705  0.2126  0.4686  0.0116
 6783TIP3    H241841   2.275   6.389  12.711  0.1143  1.2262 -1.1152
 6784TIP3   OH241842   5.906   4.737   0.435 -0.0756  0.1007 -0.1180
 6784TIP3    H141843   5.816   4.725   0.467 -0.5215 -0.2364 -1.4524
 6784TIP3    H241844   5.961   4.709   0.508 -1.0186  2.3908  1.5158
 6785TIP3   OH241845   0.267   1.879  14.915  0.0728 -0.2517 -0.6851
 6785TIP3    H141846   0.329   1.953  14.913 -0.9128  0.7105  1.8535
 6785TIP3    H241847   0.220   1.885  14.832  0.9034  1.2122 -1.0759
 6786TIP3   OH241848   3.855   4.321   6.447 -0.8152  0.1308  0.1471
 6786TIP3    H141849   3.876   4.408   6.480 -1.6797  1.0341 -1.5878
 6786TIP3    H241850   3.931   4.297   6.394 -0.8334  0.1029  0.1337
 6787TIP3   OH241851   2.579   6.667  10.385 -0.0796 -0.0614 -0.1799
 6787TIP3    H141852   2.542   6.591  10.340  0.2684  0.0348 -0.6263
 6787TIP3    H241853   2.671   6.645  10.399  0.0006  0.2361 -0.2219
 6788TIP3   OH241854   2.289   6.212  13.857  0.2799  0.0797  0.4466
 6788TIP3    H141855   2.372   6.227  13.811  0.0849  0.2808  0.1584
 6788TIP3    H241856   2.229   6.181  13.789 -0.4427  1.8286  0.2454
 6789TIP3   OH241857   0.004   6.297  14.103  0.5276 -0.1112  0.5147
 6789TIP3    H141858   0.063   6.251  14.162 -0.8521 -0.8972  1.3237
 6789TIP3    H241859  -0.047   6.355  14.159 -0.1082 -0.1216 -0.0363
 6790TIP3   OH241860   5.379   4.548   4.014  0.0282  0.3182  0.3649
 6790TIP3    H141861   5.286   4.534   4.031 -0.1107 -0.2675 -0.8232
 6790TIP3    H241862   5.416   4.460   4.014  0.1470  0.3457 -1.5426
 6791TIP3   OH241863   6.543   1.015  15.429  0.6589  0.2476  0.2432
 6791TIP3    H141864   6.620   0.962  15.408  1.1594  1.2265 -0.4581
 6791TIP3    H241865   6.578   1.093  15.473 -0.0548  0.0484  1.1810
 6792TIP3   OH241866   4.486   0.571  13.087 -1.1794 -0.3585  0.0638
 6792TIP3    H141867   4.467   0.655  13.128  0.3584 -0.3806  0.8245
 6792TIP3    H241868   4.431   0.508  13.135 -0.2882 -0.2028  1.3048
 6793TIP3   OH241869   0.074   3.665  15.568 -0.4020 -0.2906  0.0535
 6793TIP3    H141870  -0.002   3.607  15.573 -0.5533 -0.1775 -0.8029
 6793TIP3    H241871   0.056   3.722  15.493  1.1243 -1.1262 -0.9815
 6794TIP3   OH241872   6.134   6.458   3.832  0.0393  0.1181  0.2669
 6794TIP3    H141873   6.132   6.536   3.887  1.2869 -0.9863  1.9087
 6794TIP3    H241874   6.220   6.460   3.790 -0.2049 -0.0071 -0.2504
 6795TIP3   OH241875   1.912   0.817   4.813 -0.4168 -0.3354  0.0912
 6795TIP3    H141876   2.006   0.835   4.814 -0.6966  1.1794  0.9901
 6795TIP3    H241877   1.896   0.778   4.727  0.9151  0.0207 -0.3308
 6796TIP3   OH241878   0.750   6.444   2.176 -0.0002  0.6643 -0.3625
 6796TIP3    H141879   0.740   6.370   2.235 -0.6257  1.7483  0.9380
 6796TIP3    H241880   0.661   6.468   2.152  0.1573  1.4519 -0.1811
 6797TIP3   OH241881   3.110   1.468  13.801  0.6772  0.3080  0.5922
 6797TIP3    H141882   3.044   1.444  13.866  0.5363 -0.2093  0.2530
 6797TIP3    H241883   3.068   1.538  13.750  0.3364 -0.1342  0.2695
 6798TIP3   OH241884   3.521   0.620  12.188  0.1454  0.0036  0.7778
 6798TIP3    H141885   3.440   0.616  12.137  0.4614  0.0393  0.2612
 6798TIP3    H241886   3.582   0.668  12.132  0.3900  0.3662  1.3493
 6799TIP3   OH241887   1.159   1.143   6.262  0.1023 -0.0481  0.0945
 6799TIP3    H141888   1.194   1.222   6.303  1.5815 -1.6691  2.0817
 6799TIP3    H241889   1.075   1.128   6.306 -1.0268  1.3792 -1.5399
 6800TIP3   OH241890   4.876   4.047  14.072 -0.2617 -0.1513  0.2225
 6800TIP3    H141891   4.876   3.952  14.075 -0.6005 -0.1527  0.2047
 6800TIP3    H241892   4.953   4.070  14.020  0.0966 -0.3999  0.6340
 6801TIP3   OH241893   5.973   4.409  14.128  0.3663  0.3867 -0.3796
 6801TIP3    H141894   5.970   4.354  14.050  1.0215 -1.3801  0.7974
 6801TIP3    H241895   5.890   4.456  14.128 -1.6736 -3.0096  0.2188
 6802TIP3   OH241896   2.756   5.122   5.720  0.2147 -0.3137  0.5862
 6802TIP3    H141897   2.787   5.118   5.630  1.4307 -1.1484  1.0418
 6802TIP3    H241898   2.770   5.213   5.746 -0.7285  0.0905 -0.2569
 6803TIP3   OH241899   3.466   1.840   5.134 -0.4448  0.3945 -0.0420
 6803TIP3    H141900   3.510   1.803   5.210 -1.9425 -0.1723  0.5675
 6803TIP3    H241901   3.430   1.923   5.165 -1.3807 -0.0164 -0.0275
 6804TIP3   OH241902   3.140   2.256   1.445 -0.1974  0.0993 -0.1646
 6804TIP3    H141903   3.111   2.215   1.527  1.2298 -1.0068 -0.1870
 6804TIP3    H241904   3.078   2.226   1.379  0.1068 -1.0207  0.0535
 6805TIP3   OH241905   1.212   3.612   0.818  0.3728 -0.6561  0.0527
 6805TIP3    H141906   1.126   3.610   0.777  0.9402 -2.3709 -1.0970
 6805TIP3    H241907   1.231   3.705   0.830 -0.9784 -0.2295 -1.0756
 6806TIP3   OH241908   1.593   2.972  12.024  0.1508 -0.7706 -0.0555
 6806TIP3    H141909   1.630   2.965  12.112 -1.0762  0.6420  0.5969
 6806TIP3    H241910   1.590   3.066  12.006 -0.1694 -1.0161 -1.3610
 6807TIP3   OH241911   2.707   3.239   6.294  0.3228 -0.1077  0.7570
 6807TIP3    H141912   2.700   3.335   6.293 -1.4938 -0.2306 -1.7513
 6807TIP3    H241913   2.800   3.222   6.284  0.3605  1.4150 -1.9502
 6808TIP3   OH241914   4.489   3.489  11.846  0.3986  0.3431 -0.3040
 6808TIP3    H141915   4.453   3.401  11.858  1.9408 -0.2516  0.0994
 6808TIP3    H241916   4.582   3.475  11.831  0.3380  1.8008 -2.2333
 6809TIP3   OH241917   3.592   3.649  11.660  0.2140  0.6530 -0.7281
 6809TIP3    H141918   3.576   3.743  11.670 -1.6072  0.3080 -0.2329
 6809TIP3    H241919   3.615   3.639  11.568  0.5246  1.5957 -0.7617
 6810TIP3   OH241920   5.228   4.359  12.818 -0.0937  0.0960 -0.1967
 6810TIP3    H141921   5.176   4.282  12.792  1.0803 -1.0993  0.9334
 6810TIP3    H241922   5.312   4.346  12.775 -0.3278  1.4780 -1.1195
 6811TIP3   OH241923   2.392   5.592   4.040 -0.1713 -0.5274 -0.1737
 6811TIP3    H141924   2.302   5.578   4.069  0.3317 -3.9970 -0.0044
 6811TIP3    H241925   2.411   5.515   3.986  2.4571  0.5023 -0.7694
 6812TIP3   OH241926   5.112   3.865   4.372 -0.7482  0.3272 -0.6441
 6812TIP3    H141927   5.056   3.918   4.429 -1.9227 -1.8279  0.2598
 6812TIP3    H241928   5.052   3.831   4.306 -0.2095 -0.7796 -0.5613
 6813TIP3   OH241929   0.958   4.211   6.074  0.4507  0.3059 -0.2589
 6813TIP3    H141930   0.940   4.277   6.007  1.6037  3.1168  2.1090
 6813TIP3    H241931   1.040   4.170   6.046 -0.1186  0.0444 -1.5895
 6814TIP3   OH241932   3.391   4.148   6.019 -0.0322 -0.8314  0.3240
 6814TIP3    H141933   3.419   4.150   6.111  2.2212 -0.2375 -0.3216
 6814TIP3    H241934   3.443   4.078   5.979  0.0711 -0.1430 -0.7911
 6815TIP3   OH241935   3.983   3.034  16.697 -0.0650 -0.2974  0.0357
 6815TIP3    H141936   4.002   2.940  16.691 -0.4012 -0.4107  0.7302
 6815TIP3    H241937   4.065   3.076  16.671  0.3930 -0.7847  0.6613
 6816TIP3   OH241938   0.544   2.394  14.403 -0.2083 -0.1119  0.5945
 6816TIP3    H141939   0.555   2.451  14.479  0.9619 -2.5562  2.3414
 6816TIP3    H241940   0.471   2.336  14.427  0.6447 -1.3808  0.2113
 6817TIP3   OH241941   3.028   2.822   4.975 -0.2824 -0.1856 -0.4345
 6817TIP3    H141942   3.003   2.823   4.883  0.5743  0.9154 -0.6641
 6817TIP3    H241943   2.984   2.899   5.013  0.2549 -0.0025 -0.1747
 6818TIP3   OH241944   3.992   1.778  14.704 -0.1371  0.3961  0.2983
 6818TIP3    H141945   4.038   1.694  14.713  0.2644  0.7698  2.0400
 6818TIP3    H241946   3.906   1.754  14.670  0.6698 -0.5141 -1.1371
 6819TIP3   OH241947   4.313   1.491   3.185  0.7113 -0.2784  0.9409
 6819TIP3    H141948   4.346   1.449   3.105  1.1958 -0.3957  1.2069
 6819TIP3    H241949   4.320   1.423   3.252 -0.4633 -0.4469  0.9052
 6820TIP3   OH241950   3.697   1.274   1.957  0.0013  0.3883 -0.3486
 6820TIP3    H141951   3.676   1.343   2.020  1.9086 -0.5486  1.3513
 6820TIP3    H241952   3.665   1.193   1.997 -0.4594  0.0211 -1.4370
 6821TIP3   OH241953   2.428   2.061   5.768 -0.7436  0.3470 -0.5566
 6821TIP3    H141954   2.409   2.155   5.762 -0.2587  0.5197  0.5681
 6821TIP3    H241955   2.373   2.022   5.700  0.1831  1.5935 -2.0554
 6822TIP3   OH241956   0.584   3.433   2.728 -0.0779  0.0861  0.2584
 6822TIP3    H141957   0.598   3.506   2.668  1.5170 -0.3927  0.0306
 6822TIP3    H241958   0.568   3.358   2.670  1.5502 -0.3953  0.4161
 6823TIP3   OH241959   3.801   1.969  16.125  0.4021 -0.3724 -0.1623
 6823TIP3    H141960   3.825   1.899  16.064  1.5566 -0.3335  0.2242
 6823TIP3    H241961   3.852   1.950  16.204  2.4523  2.1430 -0.8109
 6824TIP3   OH241962   1.450   6.243  16.920 -0.2973 -0.7601 -0.9664
 6824TIP3    H141963   1.374   6.285  16.881  1.1156  1.7775 -1.0694
 6824TIP3    H241964   1.524   6.299  16.896  1.4892 -2.6909 -0.1233
 6825TIP3   OH241965   1.194   6.645   1.904 -0.0960  0.4700 -0.3076
 6825TIP3    H141966   1.265   6.667   1.843  1.0851 -2.0090  0.1234
 6825TIP3    H241967   1.194   6.718   1.966  1.7715  0.7643 -0.6025
 6826TIP3   OH241968   5.409   2.343   1.683  0.2926 -0.4611 -0.0867
 6826TIP3    H141969   5.406   2.429   1.640 -2.0611 -0.3996  0.1333
 6826TIP3    H241970   5.495   2.307   1.659  0.7254  1.3462 -1.3615
 6827TIP3   OH241971   0.661   1.085   1.050  1.1703 -0.1166  0.8532
 6827TIP3    H141972   0.658   1.155   0.985 -4.0906 -1.2195 -0.3414
 6827TIP3    H241973   0.723   1.022   1.014 -0.0999  0.2439 -2.1847
 6828TIP3   OH241974   0.873   0.882  11.771  0.0935  0.4682  0.9704
 6828TIP3    H141975   0.792   0.842  11.740  0.9664 -0.0518 -0.6986
 6828TIP3    H241976   0.844   0.954  11.827 -1.5628  1.1901 -0.7420
 6829TIP3   OH241977   1.313   5.044   4.602 -0.1893  0.4956 -0.4341
 6829TIP3    H141978   1.398   5.000   4.601 -0.5866 -0.3012  0.3113
 6829TIP3    H241979   1.324   5.115   4.665  0.3038  1.1550 -1.2671
 6830TIP3   OH241980   3.374   6.487  12.804 -0.4348  0.1090  0.2683
 6830TIP3    H141981   3.448   6.499  12.744  1.6300 -0.3303  2.6789
 6830TIP3    H241982   3.327   6.571  12.800  1.0235  0.9285 -0.1623
 6831TIP3   OH241983   1.118   4.508  11.651 -0.2085  0.2125 -0.5987
 6831TIP3    H141984   1.176   4.496  11.576 -0.9088 -0.6219 -1.0129
 6831TIP3    H241985   1.085   4.420  11.670  0.7610  0.2246  1.3455
 6832TIP3   OH241986   6.382   5.130  13.839  0.2641  1.0297 -0.2454
 6832TIP3    H141987   6.387   5.039  13.807  0.1273  0.5996  0.9323
 6832TIP3    H241988   6.292   5.156  13.822  0.6713  1.4529 -1.8989
 6833TIP3   OH241989   5.766   4.381   5.571 -0.2423  1.1109  0.1884
 6833TIP3    H141990   5.851   4.366   5.612 -0.4051 -0.8531 -0.1674
 6833TIP3    H241991   5.718   4.434   5.634  0.1975 -0.2424  1.6868
 6834TIP3   OH241992   4.263   5.998  12.297  0.2037 -0.3702  0.4464
 6834TIP3    H141993   4.207   6.023  12.224  1.8569  2.9280  0.1822
 6834TIP3    H241994   4.223   6.039  12.374  1.8561  1.5323  0.3419
 6835TIP3   OH241995   0.571   0.948   2.749  0.4367  0.1783  0.0889
 6835TIP3    H141996   0.485   0.910   2.763 -0.6697  2.9037  0.8313
 6835TIP3    H241997   0.613   0.947   2.835  0.2596  0.9908  0.1852
 6836TIP3   OH241998   0.071   1.191  16.584 -0.1501 -0.1454  0.3932
 6836TIP3    H141999   0.025   1.202  16.667 -1.4901  0.7019 -0.4409
 6836TIP3    H242000   0.162   1.210  16.605 -0.2144 -1.4739  1.9890
 6837TIP3   OH242001   4.067   5.366   0.885 -1.1076  0.1532 -0.2702
 6837TIP3    H142002   4.127   5.405   0.822  0.3792  0.8955  1.5584
 6837TIP3    H242003   4.022   5.441   0.925 -1.7998 -0.2881 -0.1960
 6838TIP3   OH242004   4.138   4.950   4.750  0.3834  0.1288  0.2335
 6838TIP3    H142005   4.127   4.867   4.797  0.6994 -0.4389 -0.6690
 6838TIP3    H242006   4.190   5.004   4.810 -0.3029 -0.1162  1.0641
 6839TIP3   OH242007   0.354   6.084  13.804  0.2386 -0.0515 -0.0552
 6839TIP3    H142008   0.354   6.037  13.888 -0.1367  0.8274  0.4482
 6839TIP3    H242009   0.402   6.165  13.822 -2.2314  1.4412  0.0791
 6840TIP3   OH242010   3.803   5.317   3.465 -0.1000 -0.4981  0.3459
 6840TIP3    H142011   3.777   5.404   3.493  3.1222  0.3555  0.8877
 6840TIP3    H242012   3.845   5.278   3.542 -0.6302 -2.1552 -0.1826
 6841TIP3   OH242013   3.984   6.711  14.877 -0.2339  0.1519  0.0282
 6841TIP3    H142014   3.923   6.694  14.949 -0.6856 -0.5143 -0.5059
 6841TIP3    H242015   4.038   6.633  14.872  0.7200  0.7786  0.5518
 6842TIP3   OH242016   0.367   3.832   5.498 -0.0971 -0.0478  0.3112
 6842TIP3    H142017   0.423   3.808   5.572  0.4090  2.7360  0.8949
 6842TIP3    H242018   0.376   3.760   5.436  0.8369 -1.6069  2.2129
 6843TIP3   OH242019   0.734   1.265  11.890 -0.9360 -0.1207 -0.1817
 6843TIP3    H142020   0.776   1.343  11.924  1.8849 -1.9118  0.6264
 6843TIP3    H242021   0.729   1.279  11.795 -3.6017  2.4337  0.2717
 6844TIP3   OH242022   3.909   3.409   1.519 -0.1434  0.0312 -0.2533
 6844TIP3    H142023   3.929   3.347   1.590 -0.1148  1.4757  1.0104
 6844TIP3    H242024   3.820   3.385   1.491 -1.1151  0.9958  1.9225
 6845TIP3   OH242025   4.381   1.775  15.443 -0.6473 -0.9444  0.3664
 6845TIP3    H142026   4.412   1.775  15.352 -2.0025 -0.8527 -0.1110
 6845TIP3    H242027   4.387   1.684  15.471  1.7190 -0.6654  0.8888
 6846TIP3   OH242028   4.061   5.040  17.163 -0.5991 -0.4892  0.2194
 6846TIP3    H142029   4.000   4.971  17.187 -1.4952 -0.0525 -0.7386
 6846TIP3    H242030   4.017   5.087  17.091  1.4100 -0.9758 -1.3892
 6847TIP3   OH242031   3.551   1.611  15.578 -0.1451  0.3485  0.1055
 6847TIP3    H142032   3.476   1.622  15.637 -0.6132 -0.9143 -0.2480
 6847TIP3    H242033   3.517   1.633  15.491 -0.2037 -0.6189 -0.1139
 6848TIP3   OH242034   0.873   2.597  16.152  0.6226  0.0247 -0.1265
 6848TIP3    H142035   0.828   2.517  16.176  0.7489 -0.2045 -0.6394
 6848TIP3    H242036   0.806   2.665  16.154  0.4689 -0.1357  0.0876
 6849TIP3   OH242037   4.435   4.006   1.923  0.0066  0.0762 -0.0515
 6849TIP3    H142038   4.413   3.913   1.932 -2.2043  0.4675 -1.0589
 6849TIP3    H242039   4.503   4.021   1.989 -0.7884 -1.8671  1.2719
 6850TIP3   OH242040   2.278   0.145  13.843 -0.2895  0.5056 -0.2113
 6850TIP3    H142041   2.315   0.232  13.833  2.6802 -0.2103  3.3232
 6850TIP3    H242042   2.323   0.091  13.778 -0.9433  1.2431 -1.2873
 6851TIP3   OH242043   0.539   4.811  12.043  0.0181 -0.5135 -0.2929
 6851TIP3    H142044   0.567   4.898  12.072  1.6752 -0.8499 -0.8542
 6851TIP3    H242045   0.525   4.820  11.949  1.1216 -1.0905 -0.5157
 6852TIP3   OH242046   2.489   4.553   0.104 -0.2304  0.0659  0.3696
 6852TIP3    H142047   2.511   4.477   0.158 -2.0575 -0.3853  0.5336
 6852TIP3    H242048   2.570   4.576   0.059  0.6840 -1.1190  1.3895
 6853TIP3   OH242049   1.853   1.709  12.568  0.2510  0.7120  0.2206
 6853TIP3    H142050   1.782   1.686  12.508 -0.7814 -1.2825  2.1328
 6853TIP3    H242051   1.904   1.775  12.521 -1.3579  0.2620 -2.2361
 6854TIP3   OH242052   0.139   3.837  14.593 -0.2544  0.2211 -0.1984
 6854TIP3    H142053   0.117   3.930  14.585 -0.3622  0.4593  2.4130
 6854TIP3    H242054   0.057   3.791  14.577 -0.8286  0.7257  1.1814
 6855TIP3   OH242055   3.240   1.879  13.605  0.2449  0.2153  0.2559
 6855TIP3    H142056   3.236   1.947  13.538  1.5858 -2.1713 -2.3439
 6855TIP3    H242057   3.334   1.868  13.621 -0.0594  0.5904  2.3803
 6856TIP3   OH242058   5.821   3.822   2.937 -0.4139  0.0138 -0.4559
 6856TIP3    H142059   5.888   3.798   2.872 -0.5580  0.5912 -0.8191
 6856TIP3    H242060   5.806   3.915   2.923  1.6278  0.8287  2.3153
 6857TIP3   OH242061   5.705   3.038  13.012 -0.2998  0.2019 -0.1574
 6857TIP3    H142062   5.739   2.954  12.981  0.2705 -0.4887  2.2917
 6857TIP3    H242063   5.707   3.032  13.107 -0.4003  2.9311  0.0693
 6858TIP3   OH242064   6.407   6.151  13.144  0.2472  0.0931 -0.0262
 6858TIP3    H142065   6.433   6.239  13.169  0.0560  0.4507 -1.0826
 6858TIP3    H242066   6.312   6.150  13.152  0.4647 -0.9640  3.0173
 6859TIP3   OH242067   5.915   5.516  11.823  0.1272  0.2490 -0.0648
 6859TIP3    H142068   5.977   5.531  11.752  2.2335 -1.0524  1.4573
 6859TIP3    H242069   5.953   5.560  11.898 -1.1789  0.0644  0.7263
 6860TIP3   OH242070   2.528   1.479  13.430  0.3372  0.5427 -0.4412
 6860TIP3    H142071   2.434   1.465  13.443  0.7497 -2.1630  0.0548
 6860TIP3    H242072   2.538   1.487  13.336 -0.2746 -0.4378 -0.6058
 6861TIP3   OH242073   3.025   4.456  14.827 -0.2419 -0.2000  0.0460
 6861TIP3    H142074   3.005   4.365  14.852 -1.5754 -0.7584 -2.8617
 6861TIP3    H242075   3.114   4.471  14.860  0.0523 -2.5977  0.4194
 6862TIP3   OH242076   6.645   4.486  14.616 -0.4808 -0.2032 -0.3135
 6862TIP3    H142077   6.634   4.437  14.697  1.6780 -0.3234 -0.0523
 6862TIP3    H242078   6.556   4.509  14.589 -1.2562 -0.7180  1.7295
 6863TIP3   OH242079   1.114   4.840  14.237  0.3994  0.1802  0.0010
 6863TIP3    H142080   1.021   4.852  14.254  0.4050 -0.5820  0.5748
 6863TIP3    H242081   1.155   4.842  14.323  0.8616  0.0335 -0.2137
 6864TIP3   OH242082   2.642   6.747   2.777 -0.3758 -0.6806 -0.4760
 6864TIP3    H142083   2.652   6.821   2.836  0.4287 -0.5361 -0.7854
 6864TIP3    H242084   2.563   6.767   2.726 -0.4181 -0.2597 -0.2430
 6865TIP3   OH242085   4.943   6.778  16.061  0.1192 -0.0829  0.0999
 6865TIP3    H142086   4.907   6.695  16.091  0.6780 -0.9221 -1.4760
 6865TIP3    H242087   4.990   6.813  16.137  0.5688 -1.6083  0.5299
 6866TIP3   OH242088   4.912   5.732   0.970  0.3391  0.0603  0.4666
 6866TIP3    H142089   4.848   5.662   0.982 -1.2624  1.7367  2.0831
 6866TIP3    H242090   4.865   5.800   0.922  1.6305  0.3711 -0.3811
 6867TIP3   OH242091   2.064   0.884   5.867  0.0655 -0.4948 -0.6016
 6867TIP3    H142092   2.011   0.823   5.919  0.4654  0.8916  1.4885
 6867TIP3    H242093   2.101   0.830   5.797 -3.6122 -1.6176 -1.8024
 6868TIP3   OH242094   5.594   4.836  12.127 -0.2451  0.3670 -0.3057
 6868TIP3    H142095   5.619   4.832  12.035  1.9050 -2.2734  0.3122
 6868TIP3    H242096   5.502   4.863  12.126 -0.3160  0.2052 -3.2179
 6869TIP3   OH242097   1.426   3.269  16.100 -0.0885 -0.1514 -0.2636
 6869TIP3    H142098   1.418   3.317  16.018  0.7428  1.3780  0.5187
 6869TIP3    H242099   1.350   3.296  16.151  1.7833  2.5638  1.2477
 6870TIP3   OH242100   2.882   1.649  11.746 -0.0928  0.2244  0.0819
 6870TIP3    H142101   2.802   1.661  11.695 -0.9123 -0.3182  1.1983
 6870TIP3    H242102   2.853   1.653  11.837  1.0396 -0.7016  0.5016
 6871TIP3   OH242103   2.253   5.581  11.668  0.2422 -0.0444 -0.0243
 6871TIP3    H142104   2.170   5.564  11.713  0.9467 -0.7386  1.0392
 6871TIP3    H242105   2.320   5.569  11.735  1.2466 -0.0042 -0.9971
 6872TIP3   OH242106   0.741   5.337   6.385  0.2393  0.1701  0.0521
 6872TIP3    H142107   0.729   5.354   6.292 -0.2278  1.1727  0.2889
 6872TIP3    H242108   0.751   5.242   6.391  1.4169  0.2024 -1.1429
 6873TIP3   OH242109   2.840   0.164   3.669  0.4347  0.0876  0.5917
 6873TIP3    H142110   2.922   0.182   3.715  0.7536 -1.5642  0.6879
 6873TIP3    H242111   2.776   0.152   3.739  0.0060  1.7833  0.5107
 6874TIP3   OH242112   5.388   3.845   1.048  0.3705 -0.5630 -0.0857
 6874TIP3    H142113   5.478   3.861   1.075  0.5124  1.2072 -1.5293
 6874TIP3    H242114   5.396   3.798   0.964 -0.0541 -0.9691  0.0979
 6875TIP3   OH242115   5.299   2.144   0.008 -0.0698  0.2426  0.5091
 6875TIP3    H142116   5.334   2.055   0.010 -0.4530  0.0363 -1.1353
 6875TIP3    H242117   5.368   2.196  -0.033  0.3452  0.8041  1.9001
 6876TIP3   OH242118   6.002   6.271   1.079 -0.1241 -0.0277  0.1077
 6876TIP3    H142119   5.949   6.338   1.035 -3.5845 -1.0812  2.5100
 6876TIP3    H242120   6.005   6.299   1.170  0.9480 -1.5647  0.5518
 6877TIP3   OH242121   2.846   4.585  15.264 -0.2743 -0.0355 -0.0364
 6877TIP3    H142122   2.828   4.549  15.176 -0.3875 -1.2221  0.4588
 6877TIP3    H242123   2.761   4.618  15.293 -0.7428 -1.7033  0.5364
 6878TIP3   OH242124   2.239   6.100  16.412  0.2767 -0.2401 -0.1182
 6878TIP3    H142125   2.325   6.135  16.435  0.5846 -2.9162  3.1000
 6878TIP3    H242126   2.188   6.105  16.493 -1.7181 -1.2235 -1.2702
 6879TIP3   OH242127   0.279   5.564  11.905 -0.3433  0.6096 -0.4823
 6879TIP3    H142128   0.245   5.598  11.987  0.6848  0.1258  0.1718
 6879TIP3    H242129   0.245   5.622  11.837 -0.8281  1.2823  0.3364
 6880TIP3   OH242130   4.424   1.356  14.221 -0.6554  0.1146  0.2511
 6880TIP3    H142131   4.349   1.415  14.213 -0.4348  0.4223  0.4629
 6880TIP3    H242132   4.465   1.380  14.304 -0.5275 -0.2937  0.3058
 6881TIP3   OH242133   4.734   1.201   3.237  0.9031  0.7246  0.6721
 6881TIP3    H142134   4.686   1.240   3.310  0.2872  0.5845  0.3402
 6881TIP3    H242135   4.716   1.258   3.162 -0.6066 -0.6048  0.0129
 6882TIP3   OH242136   2.531   3.516   3.414  0.3256  0.7876 -0.3926
 6882TIP3    H142137   2.451   3.464   3.404 -0.2377  1.6197 -0.2992
 6882TIP3    H242138   2.506   3.604   3.387  1.1100  1.1456  0.0195
 6883TIP3   OH242139   2.516   2.003   3.872  0.8893 -0.0762 -0.4148
 6883TIP3    H142140   2.571   2.065   3.920  1.1216  0.4504 -1.3384
 6883TIP3    H242141   2.531   2.024   3.779 -1.4971  0.6589 -0.6787
 6884TIP3   OH242142   4.520   4.611   1.001  0.2078 -0.0863 -0.2427
 6884TIP3    H142143   4.543   4.702   1.016 -1.3813  0.1205  1.1731
 6884TIP3    H242144   4.548   4.565   1.080 -2.3262 -0.1543  0.6628
 6885TIP3   OH242145   1.036   4.124  12.084  0.3255 -0.1828 -0.0467
 6885TIP3    H142146   1.115   4.176  12.068  0.0138  1.0480  2.1847
 6885TIP3    H242147   0.975   4.150  12.016  1.2258  0.1330 -0.7437
 6886TIP3   OH242148   3.103   6.504  10.391  0.3338  0.6940 -0.5111
 6886TIP3    H142149   3.130   6.579  10.338  2.9389  0.4129  0.3490
 6886TIP3    H242150   3.155   6.511  10.471 -0.8887 -0.9057  0.4642
 6887TIP3   OH242151   3.812   4.016  16.707  0.2676  0.2481 -0.4853
 6887TIP3    H142152   3.723   3.980  16.710 -0.5278  2.0737 -2.0126
 6887TIP3    H242153   3.869   3.938  16.702 -1.4123 -0.8397 -3.3538
 6888TIP3   OH242154   5.939   3.843  14.591 -0.3931 -0.3986  0.2527
 6888TIP3    H142155   5.995   3.921  14.598 -0.4659 -0.3322  0.1041
 6888TIP3    H242156   5.921   3.818  14.681 -0.8076  0.0749  0.3022
 6889TIP3   OH242157   6.557   5.058  11.980  0.4809 -0.4262 -0.0429
 6889TIP3    H142158   6.526   4.968  11.975 -0.7472  0.0749 -1.7361
 6889TIP3    H242159   6.478   5.112  11.976  1.4154  0.8400 -3.1080
 6890TIP3   OH242160   6.175   5.760  13.208  0.1774  0.2070 -0.2259
 6890TIP3    H142161   6.207   5.750  13.119  0.2803  2.3593 -0.4511
 6890TIP3    H242162   6.241   5.814  13.252 -1.3566  1.6736  0.3050
 6891TIP3   OH242163   4.808   6.768  11.650 -0.1186  0.1888  0.0455
 6891TIP3    H142164   4.864   6.734  11.720  0.7405  2.2289  0.3980
 6891TIP3    H242165   4.868   6.820  11.596 -1.4683  1.5402 -0.1726
 6892TIP3   OH242166   5.664   3.941  12.047 -0.3867 -0.1915 -1.1162
 6892TIP3    H142167   5.712   3.996  12.109 -2.4264  0.1205  0.2340
 6892TIP3    H242168   5.715   3.946  11.966  0.8862  1.5318 -0.2405
 6893TIP3   OH242169   1.396   6.775   3.742  0.6249  0.2961 -0.3883
 6893TIP3    H142170   1.451   6.793   3.666  1.0571 -0.2502 -0.2083
 6893TIP3    H242171   1.306   6.780   3.710  0.8296 -1.5577 -1.2967
 6894TIP3   OH242172   4.500   3.748  16.041  0.5475  0.1073 -0.3254
 6894TIP3    H142173   4.500   3.773  16.133  0.4756  1.0454 -0.5667
 6894TIP3    H242174   4.458   3.662  16.039 -0.7712  0.7191  0.3506
 6895TIP3   OH242175   6.338   1.849   4.444 -0.2799 -0.7165 -0.4049
 6895TIP3    H142176   6.422   1.807   4.422 -0.6755 -0.3912 -2.6214
 6895TIP3    H242177   6.350   1.879   4.534  2.1545 -0.2712 -0.8378
 6896TIP3   OH242178   6.526   3.359  17.279 -0.0136  0.0757 -0.4484
 6896TIP3    H142179   6.529   3.451  17.303  0.8445 -0.1588  0.3368
 6896TIP3    H242180   6.433   3.341  17.264 -0.4179  0.5206  1.4890
 6897TIP3   OH242181   2.535   4.168   5.969 -0.3351 -0.4906  0.0778
 6897TIP3    H142182   2.548   4.181   6.063  0.6328  2.1860 -0.4005
 6897TIP3    H242183   2.610   4.114   5.942  0.6813  0.6976  0.4463
 6898TIP3   OH242184   6.213   4.031  15.507 -0.0464  0.4216  0.6149
 6898TIP3    H142185   6.123   4.000  15.496 -0.0109  0.3612  0.4933
 6898TIP3    H242186   6.213   4.077  15.591  0.2266 -1.0531  1.4320
 6899TIP3   OH242187   1.844   5.115   4.146 -0.6071  0.2489 -0.0025
 6899TIP3    H142188   1.773   5.053   4.129 -0.4238 -0.6090  2.2346
 6899TIP3    H242189   1.819   5.193   4.097 -1.6684 -1.0013 -1.5330
 6900TIP3   OH242190   3.874   3.688   5.293  0.2196 -0.0810  0.5336
 6900TIP3    H142191   3.861   3.772   5.250  1.4485 -0.0153  0.2576
 6900TIP3    H242192   3.892   3.710   5.384 -1.6697 -0.1803  0.9499
 6901TIP3   OH242193   1.340   4.082  12.213 -0.0146  0.4727  0.0720
 6901TIP3    H142194   1.392   4.040  12.145 -0.7421 -0.0915 -0.1398
 6901TIP3    H242195   1.262   4.114  12.168 -1.7665 -2.2312  1.0622
 6902TIP3   OH242196   2.713   4.938   2.666  0.4967 -0.5566  1.0292
 6902TIP3    H142197   2.713   4.858   2.719 -0.0279  0.5257  2.6869
 6902TIP3    H242198   2.649   4.920   2.597  1.1108 -1.9375  0.7954
 6903TIP3   OH242199   2.096   1.164  13.641  0.3139 -0.6882  0.2767
 6903TIP3    H142200   2.020   1.113  13.613  0.2219 -0.3917 -0.0224
 6903TIP3    H242201   2.101   1.150  13.736 -0.7965  0.1781  0.4768
 6904TIP3   OH242202   2.420   2.661  16.659  0.1775  0.0202 -0.3763
 6904TIP3    H142203   2.335   2.670  16.615  0.4434  1.2853 -0.6387
 6904TIP3    H242204   2.467   2.741  16.637 -0.1726  1.3413  3.3728
 6905TIP3   OH242205   2.983   6.046  11.385 -0.4630 -0.5167 -0.0244
 6905TIP3    H142206   3.036   6.059  11.306 -0.3130  1.0703  0.3204
 6905TIP3    H242207   2.906   5.999  11.354  0.0237 -0.7130 -0.9653
 6906TIP3   OH242208   4.735   1.786  14.175 -0.0147  0.2261  0.5515
 6906TIP3    H142209   4.703   1.696  14.171  1.7538 -0.4416  1.0830
 6906TIP3    H242210   4.776   1.802  14.090  0.5899  0.1743  0.8302
 6907TIP3   OH242211   5.185   1.846  11.321  0.2218  0.3740  0.8011
 6907TIP3    H142212   5.257   1.902  11.352  0.9522  0.4274 -0.9501
 6907TIP3    H242213   5.198   1.841  11.227 -1.4825 -0.4831  0.6066
 6908TIP3   OH242214   1.446   3.092   0.321  0.0086  0.1886 -0.2394
 6908TIP3    H142215   1.512   3.146   0.364  0.7736  0.4217 -1.6660
 6908TIP3    H242216   1.381   3.155   0.289 -0.5462  0.0191  0.5535
 6909TIP3   OH242217   0.097   5.556  17.076  0.2548 -0.3688  0.0022
 6909TIP3    H142218   0.165   5.560  17.143 -0.0424 -0.7895  0.3327
 6909TIP3    H242219   0.047   5.637  17.087 -0.1950 -0.7373  0.7214
 6910TIP3   OH242220   5.133   2.813   1.150  0.5060 -0.2905 -0.2792
 6910TIP3    H142221   5.097   2.887   1.199  0.9230  1.8000 -3.0213
 6910TIP3    H242222   5.058   2.758   1.130  0.0147  0.0070  0.7258
 6911TIP3   OH242223   1.117   0.795  13.828  0.1155  0.0129  0.1329
 6911TIP3    H142224   1.131   0.866  13.890  2.9466 -2.1825  2.1281
 6911TIP3    H242225   1.093   0.720  13.883 -1.3550 -0.9650 -1.7929
 6912TIP3   OH242226   1.344   2.106   3.630  0.3531  0.2669 -0.1987
 6912TIP3    H142227   1.256   2.070   3.622  0.1200  0.7789  0.0453
 6912TIP3    H242228   1.366   2.095   3.723  0.3578  0.5729 -0.1635
 6913TIP3   OH242229   1.297   5.723   4.132 -0.3621  0.0533 -0.0898
 6913TIP3    H142230   1.357   5.782   4.178 -1.4660 -0.2298  1.7599
 6913TIP3    H242231   1.251   5.677   4.201 -0.7004 -1.8060 -1.5158
 6914TIP3   OH242232   5.482   1.860  15.072  0.4334  0.5644  0.3905
 6914TIP3    H142233   5.490   1.956  15.076  1.1714  0.5382 -0.4242
 6914TIP3    H242234   5.563   1.831  15.030 -0.4852 -0.3081 -0.7753
 6915TIP3   OH242235   1.802   1.976   2.444 -0.8227  0.1813  0.0157
 6915TIP3    H142236   1.787   1.903   2.383 -0.0721  0.8947 -1.0385
 6915TIP3    H242237   1.777   2.054   2.395  0.0030  0.7898  0.5401
 6916TIP3   OH242238   4.903   0.454  14.256 -0.4569  0.2376 -0.2278
 6916TIP3    H142239   4.984   0.500  14.273  0.0005 -0.5588 -0.1987
 6916TIP3    H242240   4.834   0.516  14.277  0.1473  0.9474 -0.3412
 6917TIP3   OH242241   4.792   1.879  16.515  0.4910  0.1910  0.4755
 6917TIP3    H142242   4.738   1.810  16.553  2.2097 -1.6341 -0.2861
 6917TIP3    H242243   4.871   1.833  16.485  1.2486  2.3381 -0.9155
 6918TIP3   OH242244   6.319   4.767  12.972  0.0568  0.5223 -0.1348
 6918TIP3    H142245   6.304   4.673  12.962  0.3555  0.1574  2.5165
 6918TIP3    H242246   6.243   4.808  12.932 -0.3412 -0.8777 -0.8274
 6919TIP3   OH242247   5.332   2.607  14.069  0.0162 -0.2733  0.0088
 6919TIP3    H142248   5.342   2.512  14.071 -0.1168 -0.2933 -0.2132
 6919TIP3    H242249   5.414   2.641  14.105 -0.1115 -0.4819  0.4976
 6920TIP3   OH242250   6.000   3.692  12.602  0.5893 -0.2075 -0.2922
 6920TIP3    H142251   6.084   3.657  12.574  1.7296  0.3512  2.3291
 6920TIP3    H242252   5.936   3.632  12.563  2.2991 -2.2767 -0.0477
 6921TIP3   OH242253   4.602   3.192   5.922  0.7618  0.1926 -0.2774
 6921TIP3    H142254   4.644   3.167   6.004  0.0869  1.5481  0.5063
 6921TIP3    H242255   4.674   3.220   5.865  1.2782 -1.1825 -0.3229
 6922TIP3   OH242256   6.189   6.634  17.165  0.6569  0.0511 -0.0814
 6922TIP3    H142257   6.211   6.571  17.096  0.7137  0.6319 -0.5982
 6922TIP3    H242258   6.093   6.638  17.164  0.5900 -1.1197  0.9390
 6923TIP3   OH242259   4.470   6.496   5.921 -0.1722  0.6075 -0.0420
 6923TIP3    H142260   4.484   6.505   5.827 -0.9173  3.0057  0.0469
 6923TIP3    H242261   4.404   6.562   5.942 -0.3742 -0.2315  2.0837
 6924TIP3   OH242262   5.652   0.964   3.411  0.0834 -0.0118  0.1664
 6924TIP3    H142263   5.738   0.921   3.406  0.0402 -0.1780  0.7343
 6924TIP3    H242264   5.608   0.920   3.484 -0.0143  0.9086  0.6659
 6925TIP3   OH242265   1.010   3.722  14.901  0.0186 -0.3732 -0.2684
 6925TIP3    H142266   0.981   3.704  14.811 -1.2824 -2.0665  0.4446
 6925TIP3    H242267   1.043   3.637  14.932  1.1511  0.3823  0.6000
 6926TIP3   OH242268   4.100   1.795  15.843  0.0201 -1.1085 -0.1168
 6926TIP3    H142269   4.133   1.706  15.857 -0.2812 -0.9140  1.9380
 6926TIP3    H242270   4.118   1.841  15.925  0.7456  0.9203 -1.3818
 6927TIP3   OH242271   5.166   4.514   2.241 -0.4225 -0.1364 -0.2644
 6927TIP3    H142272   5.257   4.487   2.247 -0.7379 -1.1576  0.1599
 6927TIP3    H242273   5.156   4.583   2.306  0.3504  0.8880 -1.2150
 6928TIP3   OH242274   4.193   1.558  15.259 -0.0892  0.3435  0.5400
 6928TIP3    H142275   4.168   1.499  15.330  0.5713  0.0051  0.4954
 6928TIP3    H242276   4.287   1.543  15.247 -0.0038  1.0823  0.2288
 6929TIP3   OH242277   1.211   4.763   1.871  0.2242  0.2379 -0.1565
 6929TIP3    H142278   1.236   4.843   1.824  1.1309 -1.0401 -1.9275
 6929TIP3    H242279   1.159   4.714   1.807 -0.8029 -0.3309  1.1091
 6930TIP3   OH242280   6.270   5.315   3.184  0.4436  0.3936 -0.1319
 6930TIP3    H142281   6.363   5.289   3.187  0.0877 -0.8620  0.9671
 6930TIP3    H242282   6.223   5.232   3.194 -0.7652  1.4790  4.0235
 6931TIP3   OH242283   3.526   5.453   0.054  0.2098 -0.0220 -0.1986
 6931TIP3    H142284   3.573   5.519   0.004  1.0361 -0.1064  0.4552
 6931TIP3    H242285   3.500   5.498   0.134 -0.1616 -0.1911 -0.2236
 6932TIP3   OH242286   4.558   2.234   2.981 -0.8222 -0.4256  0.1224
 6932TIP3    H142287   4.520   2.253   3.066 -0.3857  1.1186 -0.0195
 6932TIP3    H242288   4.515   2.295   2.921  1.1854  0.7304 -0.1974
 6933TIP3   OH242289   1.507   2.105  16.722  0.2177 -0.0134 -0.0511
 6933TIP3    H142290   1.521   2.153  16.641 -2.3695  0.1821 -0.4302
 6933TIP3    H242291   1.494   2.174  16.788 -0.2225 -0.1852  0.0392
 6934TIP3   OH242292   1.818   6.189   0.223 -0.4337 -0.4237  0.6979
 6934TIP3    H142293   1.789   6.233   0.303 -1.2058 -1.3212  0.9264
 6934TIP3    H242294   1.914   6.191   0.227 -0.4676 -0.9295  1.9179
 6935TIP3   OH242295   0.353   3.042   5.462 -0.0471 -0.3345  0.0052
 6935TIP3    H142296   0.294   3.096   5.409  0.1083 -0.6443 -0.4877
 6935TIP3    H242297   0.311   3.037   5.548 -0.1273  0.4670  0.0211
 6936TIP3   OH242298   5.839   3.655  13.620  0.3447  0.1171  0.5634
 6936TIP3    H142299   5.890   3.726  13.580 -2.1170  1.1458 -0.8405
 6936TIP3    H242300   5.872   3.576  13.579  0.5830  0.8021 -0.5961
 6937TIP3   OH242301   0.757   2.118   2.492 -0.2181  0.8737  0.0716
 6937TIP3    H142302   0.776   2.058   2.420 -0.5794  0.5462  0.2488
 6937TIP3    H242303   0.663   2.107   2.509 -0.3724  1.7941 -0.1739
 6938TIP3   OH242304   1.467   2.278   6.214 -0.2990  0.0017 -0.0267
 6938TIP3    H142305   1.492   2.201   6.265  0.1648  0.6455  0.7261
 6938TIP3    H242306   1.372   2.270   6.203 -0.3953 -0.1598  0.9030
 6939TIP3   OH242307   0.807   2.306   1.390  0.0710 -0.3862 -0.0798
 6939TIP3    H142308   0.734   2.292   1.450  0.3015  0.6380  0.4597
 6939TIP3    H242309   0.800   2.398   1.366  3.1189  0.6412  2.6036
 6940TIP3   OH242310   2.056   6.274   5.595  0.2417  0.0411  0.1912
 6940TIP3    H142311   2.093   6.362   5.585  1.0779 -0.0593  2.2282
 6940TIP3    H242312   2.100   6.238   5.672 -0.3234 -2.0554 -0.4416
 6941TIP3   OH242313   3.841   3.981   2.952  0.1612 -0.2458  0.3364
 6941TIP3    H142314   3.853   3.942   2.865  0.0999 -0.2676  0.3377
 6941TIP3    H242315   3.886   4.066   2.946  1.3572 -0.8462  0.7281
 6942TIP3   OH242316   1.082   1.732   1.577  0.9887  0.7141 -0.3093
 6942TIP3    H142317   1.120   1.669   1.515  3.3241  1.6544  0.0998
 6942TIP3    H242318   1.070   1.812   1.526  0.8437  0.8282 -0.0969
 6943TIP3   OH242319   5.110   5.081   5.832  0.7088  0.1640  0.5662
 6943TIP3    H142320   5.032   5.097   5.886 -0.5145 -4.6303  0.4936
 6943TIP3    H242321   5.173   5.042   5.893  0.9261 -1.2373 -0.5346
 6944TIP3   OH242322   4.543   4.984   2.073  0.5348 -0.1792  0.0728
 6944TIP3    H142323   4.604   5.018   2.139 -0.1899 -1.3903  1.4156
 6944TIP3    H242324   4.457   5.016   2.102  0.2475 -0.5055 -0.4230
 6945TIP3   OH242325   3.989   5.441   1.675 -0.1810  0.2365 -0.3424
 6945TIP3    H142326   3.945   5.382   1.614  0.3060  0.1311 -0.5979
 6945TIP3    H242327   3.961   5.411   1.761 -1.9089  1.2035 -0.5371
 6946TIP3   OH242328   5.654   4.319   0.960  0.2146  0.3173  0.0959
 6946TIP3    H142329   5.649   4.359   0.874 -0.9574 -1.8625 -0.8779
 6946TIP3    H242330   5.588   4.365   1.012 -2.3173 -1.4015 -1.4873
 6947TIP3   OH242331   0.433   0.826  15.048 -0.0042  0.2942 -0.5864
 6947TIP3    H142332   0.443   0.765  15.121  0.6024  0.5878 -0.4197
 6947TIP3    H242333   0.454   0.911  15.086 -1.4534  0.6888 -0.6654
 6948TIP3   OH242334   1.076   2.468  14.711  0.0446  0.1319  0.0268
 6948TIP3    H142335   1.137   2.504  14.646 -0.3394  0.3130 -0.2318
 6948TIP3    H242336   1.087   2.373  14.705  0.2614  0.1624 -0.0602
 6949TIP3   OH242337   2.576   5.863  12.565 -0.8494 -0.2277 -0.0684
 6949TIP3    H142338   2.546   5.797  12.628  0.1951 -0.3870  0.2669
 6949TIP3    H242339   2.596   5.812  12.486 -0.8533 -0.2007 -0.0866
 6950TIP3   OH242340   3.502   0.329   0.523 -0.4826  0.2572  0.3342
 6950TIP3    H142341   3.544   0.412   0.504 -3.3419  2.0733  1.5097
 6950TIP3    H242342   3.516   0.315   0.617 -0.8881 -0.0678  0.3505
 6951TIP3   OH242343   5.832   2.097   3.442  0.1776 -0.4773 -0.4142
 6951TIP3    H142344   5.820   2.095   3.537  0.2334  1.7662 -0.3331
 6951TIP3    H242345   5.757   2.048   3.407 -1.1307  0.7075  0.7000
 6952TIP3   OH242346   6.209   3.557  14.594  0.0384  0.1000 -0.1753
 6952TIP3    H142347   6.225   3.490  14.660  1.2577  0.2246 -0.3257
 6952TIP3    H242348   6.178   3.509  14.518  1.5020 -0.3802 -0.4872
 6953TIP3   OH242349   2.883   5.469   4.241  0.3262 -0.2030 -0.4139
 6953TIP3    H142350   2.858   5.389   4.286  0.0666  0.5887  0.8846
 6953TIP3    H242351   2.850   5.459   4.152  0.0873 -1.4238 -0.1917
 6954TIP3   OH242352   6.803   2.526   2.589 -0.3661  0.3987  0.3295
 6954TIP3    H142353   6.815   2.577   2.669 -1.9614  1.0897  0.1502
 6954TIP3    H242354   6.722   2.477   2.603 -0.3287  0.0434 -0.6096
 6955TIP3   OH242355   2.813   4.348   3.416  0.2005  0.0559  0.3624
 6955TIP3    H142356   2.798   4.335   3.322  0.0471  2.2624  0.0551
 6955TIP3    H242357   2.802   4.261   3.454  1.4900 -1.1298 -1.8169
 6956TIP3   OH242358   3.909   4.942  12.954 -0.2814  0.3135 -0.2764
 6956TIP3    H142359   3.819   4.958  12.983 -0.0700  0.5739  0.2470
 6956TIP3    H242360   3.945   4.884  13.022 -0.1894 -0.1491 -0.7168
 6957TIP3   OH242361   4.201   1.569   1.907 -0.3006 -0.3225 -0.5077
 6957TIP3    H142362   4.207   1.580   2.002  1.3971  0.4703 -0.6966
 6957TIP3    H242363   4.183   1.475   1.895 -0.7434 -0.3835  0.6016
 6958TIP3   OH242364   1.347   6.397  14.846  0.0035 -0.0146  0.1307
 6958TIP3    H142365   1.269   6.350  14.877 -0.7406 -0.5368 -2.4417
 6958TIP3    H242366   1.420   6.350  14.886 -0.9734  1.1196  3.4458
 6959TIP3   OH242367   5.289   3.438   1.932 -0.0590 -0.0730 -0.0373
 6959TIP3    H142368   5.353   3.510   1.931 -0.0106 -0.1117  0.3512
 6959TIP3    H242369   5.308   3.390   1.851  0.7169 -0.3534  0.3030
 6960TIP3   OH242370   2.210   2.008  10.978 -0.0417 -0.0901 -0.1871
 6960TIP3    H142371   2.201   2.087  10.925  3.1364  0.5858  0.1975
 6960TIP3    H242372   2.208   2.040  11.068 -0.9937 -0.7158  0.0145
 6961TIP3   OH242373   3.641   6.309  11.859  0.4667 -0.5731 -0.2479
 6961TIP3    H142374   3.584   6.272  11.792  0.2009  0.9385 -0.8737
 6961TIP3    H242375   3.650   6.401  11.835  3.2182 -0.7850 -0.2081
 6962TIP3   OH242376   6.737   4.498  14.351  0.4282  0.0106 -0.3756
 6962TIP3    H142377   6.702   4.540  14.429  2.4225 -0.4257  0.8040
 6962TIP3    H242378   6.674   4.429  14.330  0.3315 -0.4593  1.4127
 6963TIP3   OH242379   6.302   2.029  12.578  1.1248  0.0072 -0.1879
 6963TIP3    H142380   6.247   2.013  12.655  1.9179  0.2753  0.4492
 6963TIP3    H242381   6.259   2.100  12.531  1.7725  1.3315  1.1648
 6964TIP3   OH242382   2.607   2.728  16.024  0.6344 -0.0204 -0.1006
 6964TIP3    H142383   2.699   2.725  15.999  0.6176  2.6220 -0.6870
 6964TIP3    H242384   2.560   2.743  15.942 -0.0402  1.4395  0.5291
 6965TIP3   OH242385   2.699   1.776  17.179  0.1020 -0.4323  0.1301
 6965TIP3    H142386   2.675   1.708  17.242 -0.2849 -0.8937 -0.5225
 6965TIP3    H242387   2.654   1.752  17.099  2.4105 -1.0938 -1.0118
 6966TIP3   OH242388   1.065   3.001   0.665 -0.4860 -0.9360  0.1629
 6966TIP3    H142389   0.987   3.042   0.627 -0.0273  0.2461  0.4907
 6966TIP3    H242390   1.101   3.067   0.724  0.9520 -1.3596 -0.2174
 6967TIP3   OH242391   3.208   0.476   3.589 -0.1870  0.2078 -0.6089
 6967TIP3    H142392   3.120   0.506   3.608 -0.0304  0.6393 -0.5491
 6967TIP3    H242393   3.239   0.534   3.519 -0.0631 -0.1369 -0.8444
 6968TIP3   OH242394   1.932   5.736   4.997  0.1555  0.7096 -0.0029
 6968TIP3    H142395   1.969   5.802   4.938 -0.6396  0.8134 -0.3851
 6968TIP3    H242396   1.915   5.661   4.941 -1.3712  1.0980 -0.0766
 6969TIP3   OH242397   4.719   2.460   0.059 -0.2216 -0.0102 -0.8067
 6969TIP3    H142398   4.742   2.393  -0.006  0.5796 -0.9353  0.4194
 6969TIP3    H242399   4.635   2.493   0.029 -0.5947 -1.5092 -1.4855
 6970TIP3   OH242400   1.877   3.847  15.765  0.4091  0.0790 -0.0384
 6970TIP3    H142401   1.890   3.803  15.849  0.3190 -0.2334 -0.1855
 6970TIP3    H242402   1.904   3.937  15.780  1.7153 -0.3008 -0.0490
 6971TIP3   OH242403   5.819   3.629  16.907  0.2143  0.2686 -0.0790
 6971TIP3    H142404   5.785   3.681  16.979  1.6217 -1.2473  1.7225
 6971TIP3    H242405   5.889   3.683  16.869 -0.0806  0.7805  0.1096
 6972TIP3   OH242406   6.484   0.272   4.095 -0.4440  0.2381  0.0133
 6972TIP3    H142407   6.547   0.309   4.156 -0.6508  0.7606 -0.0870
 6972TIP3    H242408   6.505   0.312   4.011 -0.7434  0.2194 -0.0721
 6973TIP3   OH242409   6.009   6.352  14.908 -0.7791 -0.1005 -0.3242
 6973TIP3    H142410   5.958   6.304  14.843  0.3697  0.6452 -1.7916
 6973TIP3    H242411   5.954   6.428  14.930 -1.9147 -1.2293  0.8698
 6974TIP3   OH242412   5.372   6.785  15.910  0.3096 -0.7531 -0.1597
 6974TIP3    H142413   5.279   6.763  15.912 -0.5788  2.4290 -2.2005
 6974TIP3    H242414   5.389   6.818  15.998 -0.9138  0.0645 -0.2044
 6975TIP3   OH242415   0.696   0.756   4.553 -0.6724 -0.2161  0.4056
 6975TIP3    H142416   0.678   0.687   4.489  0.8025  2.1355 -2.6392
 6975TIP3    H242417   0.779   0.731   4.593  0.3093  0.2118 -1.3275
 6976TIP3   OH242418   0.701   0.217   2.799 -0.6455 -0.1722  0.6614
 6976TIP3    H142419   0.650   0.146   2.759  1.2196 -1.5064  0.5623
 6976TIP3    H242420   0.772   0.172   2.844  0.1439  1.6160  1.2265
 6977TIP3   OH242421   4.707   4.854   6.179  0.0449  0.5687 -0.4365
 6977TIP3    H142422   4.614   4.873   6.191  0.0810  0.1314  0.6261
 6977TIP3    H242423   4.709   4.761   6.156  0.3319  0.1284  1.3141
 6978TIP3   OH242424   4.241   1.748   3.582  0.5597 -0.4132  0.0320
 6978TIP3    H142425   4.310   1.682   3.582 -0.6994 -1.7642  0.7602
 6978TIP3    H242426   4.188   1.728   3.504 -0.4745 -0.9738  0.8704
 6979TIP3   OH242427   4.344   2.858   3.516 -0.0614  0.2384 -0.5390
 6979TIP3    H142428   4.416   2.878   3.576 -0.0888  0.2933 -0.5233
 6979TIP3    H242429   4.287   2.800   3.565  0.0089  0.1367 -0.5765
 6980TIP3   OH242430   1.306   3.130   4.261 -0.3777  0.3574  0.3801
 6980TIP3    H142431   1.324   3.221   4.283 -1.9913  0.3328  1.8756
 6980TIP3    H242432   1.371   3.080   4.310  0.5180  0.6793 -0.4539
 6981TIP3   OH242433   4.650   3.992  14.824  0.0985  0.5565 -0.3773
 6981TIP3    H142434   4.697   3.954  14.898 -0.1211 -1.0056 -1.0133
 6981TIP3    H242435   4.692   3.954  14.746  0.8951  2.8365 -1.1139
 6982TIP3   OH242436   1.695   0.100  14.067  0.9335 -0.4293  0.2859
 6982TIP3    H142437   1.724   0.107  14.158 -0.7965 -1.6696  0.9403
 6982TIP3    H242438   1.694   0.190  14.036  2.0300 -0.0374  1.3371
 6983TIP3   OH242439   5.095   0.018  13.751  0.3671 -0.5090  0.0532
 6983TIP3    H142440   5.062  -0.065  13.787  0.9325 -0.7819 -0.0508
 6983TIP3    H242441   5.133   0.063  13.826  0.0179 -0.3235  0.1184
 6984TIP3   OH242442   0.748   4.242  13.936  0.7259  0.2325 -0.1870
 6984TIP3    H142443   0.720   4.287  13.857 -3.0963 -0.7935  0.4962
 6984TIP3    H242444   0.699   4.284  14.007  1.7710 -0.9065  1.2533
 6985TIP3   OH242445   5.766   5.713   2.943  0.3747 -0.6676 -0.0720
 6985TIP3    H142446   5.749   5.800   2.907  0.4983  0.5261  2.6977
 6985TIP3    H242447   5.748   5.654   2.869 -1.3934  1.5431 -1.5108
 6986TIP3   OH242448   6.477   6.242   3.133 -0.3199  0.6723 -0.0236
 6986TIP3    H142449   6.455   6.183   3.206  0.6866  1.5595  1.0247
 6986TIP3    H242450   6.559   6.207   3.099  0.2265  1.4036  0.5365
 6987TIP3   OH242451   2.967   5.153   3.097 -0.3043  0.3170  0.1861
 6987TIP3    H142452   2.976   5.180   3.188  0.5992  1.1552 -0.1390
 6987TIP3    H242453   3.012   5.069   3.092  0.6621  0.8206  0.2733
 6988TIP3   OH242454   2.238   4.820  14.225  0.2248 -0.2449  0.8450
 6988TIP3    H142455   2.297   4.840  14.153  0.3552 -1.4524  0.5989
 6988TIP3    H242456   2.166   4.883  14.217 -0.2422 -0.9913 -0.8977
 6989TIP3   OH242457   4.705   5.109  11.587  0.1224 -0.0892 -0.6366
 6989TIP3    H142458   4.660   5.080  11.507  1.4238 -0.4613 -1.2543
 6989TIP3    H242459   4.794   5.129  11.558  0.7416 -0.6545  0.8049
 6990TIP3   OH242460   6.002   0.882   0.169  0.4786  0.2417  0.1091
 6990TIP3    H142461   6.044   0.800   0.146 -1.8518 -1.1728  0.7299
 6990TIP3    H242462   5.966   0.915   0.087  1.2713  0.5847 -0.1085
 6991TIP3   OH242463   3.099   2.427   5.262 -0.1154 -0.1918 -0.5638
 6991TIP3    H142464   3.195   2.426   5.259 -0.1323 -2.2436 -1.6704
 6991TIP3    H242465   3.073   2.482   5.188  0.2072  0.1144 -0.4501
 6992TIP3   OH242466   4.820   3.737  13.905  0.4966 -0.2510  0.4492
 6992TIP3    H142467   4.843   3.644  13.900  2.8027  0.1582  2.4143
 6992TIP3    H242468   4.845   3.763  13.993 -0.1921  2.2382 -0.0600
 6993TIP3   OH242469   1.031   6.549   5.588 -0.0575 -0.2208  0.0844
 6993TIP3    H142470   1.048   6.632   5.633 -0.9427  0.3557 -0.6333
 6993TIP3    H242471   0.981   6.497   5.652  0.3254 -0.1260  0.4617
 6994TIP3   OH242472   1.533   3.715   1.606 -0.6109 -0.4990 -0.3026
 6994TIP3    H142473   1.476   3.787   1.637 -1.3890 -0.7269 -1.1863
 6994TIP3    H242474   1.622   3.746   1.623 -1.0011 -0.5312  2.0025
 6995TIP3   OH242475   5.648   3.305   0.844  0.0246 -0.0795  0.0477
 6995TIP3    H142476   5.554   3.311   0.823 -0.0449  0.2681  0.4513
 6995TIP3    H242477   5.650   3.286   0.938  0.3806  1.0108  0.2607
 6996TIP3   OH242478   0.513   4.378   3.326 -0.5098  0.2489 -0.5448
 6996TIP3    H142479   0.468   4.294   3.336 -0.0834  0.1423  0.5713
 6996TIP3    H242480   0.480   4.414   3.244  0.1182 -1.5230 -1.6034
 6997TIP3   OH242481   1.401   3.261   2.625  0.4946  0.2097 -0.1343
 6997TIP3    H142482   1.307   3.270   2.641  0.7032  0.2741  1.0510
 6997TIP3    H242483   1.432   3.205   2.696  0.6757 -3.1169 -2.7068
 6998TIP3   OH242484   1.432   1.782   3.440 -0.3515  0.1460 -0.6870
 6998TIP3    H142485   1.463   1.789   3.530  0.5644 -0.1901 -0.9735
 6998TIP3    H242486   1.470   1.857   3.395 -0.9352  0.3998 -0.7591
 6999TIP3   OH242487   0.505   5.425  15.597 -0.5208  0.0315  0.0620
 6999TIP3    H142488   0.432   5.435  15.536 -0.2114  1.9393 -0.0311
 6999TIP3    H242489   0.465   5.432  15.684 -0.6090 -0.0530  0.0279
 7000TIP3   OH242490   0.710   1.664  13.085 -0.4126 -0.1568  0.6838
 7000TIP3    H142491   0.668   1.749  13.069  0.1684  0.2577  1.2979
 7000TIP3    H242492   0.758   1.677  13.167  1.7428 -0.3038 -0.5295
 7001TIP3   OH242493   3.510   2.929   5.074  0.4977 -0.5054  0.6685
 7001TIP3    H142494   3.592   2.952   5.118  0.3881 -1.3415  1.3378
 7001TIP3    H242495   3.489   3.005   5.021  0.5822  0.5823  2.1658
 7002TIP3   OH242496   3.840   3.623   0.548  0.0831  0.4622 -0.2003
 7002TIP3    H142497   3.747   3.610   0.532 -0.0428  1.8017 -0.6464
 7002TIP3    H242498   3.864   3.697   0.492  1.8823 -1.1448 -1.6699
 7003TIP3   OH242499   1.113   5.020   1.316 -0.4993  0.4866 -0.2953
 7003TIP3    H142500   1.174   4.964   1.267  1.2050  0.9957  1.1997
 7003TIP3    H242501   1.114   5.103   1.268 -2.4469 -0.4431 -2.0689
 7004TIP3   OH242502   1.248   1.217   5.884 -0.3376  0.2742 -0.5584
 7004TIP3    H142503   1.288   1.270   5.953  0.4547  0.3571 -1.0775
 7004TIP3    H242504   1.238   1.130   5.922 -0.7666  0.5551 -0.0241
 7005TIP3   OH242505   0.384   0.376  10.953 -0.1014  0.7058  0.3370
 7005TIP3    H142506   0.428   0.449  10.911  0.4093  1.0074  1.3800
 7005TIP3    H242507   0.398   0.390  11.047  2.8639 -2.4706  0.4742
 7006TIP3   OH242508   5.045   4.934  15.260 -0.0327  0.2767 -0.0276
 7006TIP3    H142509   5.015   4.974  15.342 -1.0711 -1.3591  0.4211
 7006TIP3    H242510   4.967   4.934  15.204  0.2148 -0.1978 -0.3787
 7007TIP3   OH242511   5.598   5.484   4.994 -0.0594 -0.5875 -0.3755
 7007TIP3    H142512   5.589   5.523   4.907 -2.7735  1.5817  0.7869
 7007TIP3    H242513   5.508   5.465   5.021  0.7858 -1.8033  1.7045
 7008TIP3   OH242514   1.777   0.346  11.925 -0.0618 -0.8441  0.7436
 7008TIP3    H142515   1.773   0.357  12.020 -2.2236 -0.2625  0.6239
 7008TIP3    H242516   1.741   0.258  11.909 -0.9307 -0.4304  0.3852
 7009TIP3   OH242517   1.413   1.116   0.796  0.3160 -0.1778 -0.3704
 7009TIP3    H142518   1.470   1.154   0.863  0.2067 -0.1651 -0.2842
 7009TIP3    H242519   1.324   1.129   0.829  0.2340  0.3201 -0.7764
 7010TIP3   OH242520   3.495   0.869   3.607  0.3871  0.2851  0.6325
 7010TIP3    H142521   3.564   0.928   3.576  0.0608  1.4572  2.0544
 7010TIP3    H242522   3.539   0.813   3.671  0.5803 -0.6698 -0.3344
 7011TIP3   OH242523   6.807   0.320   6.207  0.1748 -0.2560 -0.2447
 7011TIP3    H142524   6.795   0.411   6.232  0.6782 -0.5894  1.2945
 7011TIP3    H242525   6.818   0.322   6.112  1.6114  1.4403 -0.0658
 7012TIP3   OH242526   6.537   0.505   4.766 -0.0092  0.1909  0.0602
 7012TIP3    H142527   6.543   0.548   4.851  0.2187 -0.3419  0.3185
 7012TIP3    H242528   6.514   0.415   4.787 -1.6443  0.4659 -0.5444
 7013TIP3   OH242529   3.076   1.981   4.488  0.3296  0.3185 -0.1289
 7013TIP3    H142530   3.000   2.016   4.441  0.0896  1.1460  0.8569
 7013TIP3    H242531   3.128   1.937   4.421 -0.5787  0.5126 -0.9655
 7014TIP3   OH242532   2.882   6.107  14.180  0.7074  0.0708 -0.2593
 7014TIP3    H142533   2.848   6.017  14.180  1.2261 -0.1233 -0.6745
 7014TIP3    H242534   2.878   6.133  14.273 -0.9747  0.2110 -0.3497
 7015TIP3   OH242535   4.178   0.918   2.369  0.2491 -0.1216 -0.0485
 7015TIP3    H142536   4.088   0.900   2.397  0.0962 -0.9044 -1.0008
 7015TIP3    H242537   4.193   0.855   2.298  0.8813  1.3087 -1.1931
 7016TIP3   OH242538   6.799   4.141   5.727  0.4811 -0.0558 -0.2518
 7016TIP3    H142539   6.739   4.191   5.672  1.6246 -0.7823 -2.2084
 7016TIP3    H242540   6.878   4.195   5.732  0.1857  0.2573  1.1406
 7017TIP3   OH242541   5.805   5.046  14.882 -0.7076 -0.2096  0.2530
 7017TIP3    H142542   5.749   4.969  14.885 -1.7505  0.6054  1.9428
 7017TIP3    H242543   5.746   5.120  14.890  0.5171  0.6913  1.2049
 7018TIP3   OH242544   2.978   2.962   3.598  0.0946 -0.9590  0.3430
 7018TIP3    H142545   2.940   3.025   3.537 -0.0617 -0.3765  1.0367
 7018TIP3    H242546   3.018   2.896   3.541  0.8275  0.0981 -0.4050
 7019TIP3   OH242547   4.179   2.612   0.651 -0.2161  0.3817  0.9896
 7019TIP3    H142548   4.155   2.685   0.595 -0.1478 -1.4207 -1.4848
 7019TIP3    H242549   4.272   2.624   0.668  0.0781  0.2266 -0.4490
 7020TIP3   OH242550   1.890   4.681  17.276 -0.1220 -0.2640  0.1843
 7020TIP3    H142551   1.931   4.723  17.201  0.7683 -1.9843 -0.3079
 7020TIP3    H242552   1.842   4.752  17.320 -0.8485  0.7063 -2.1132
 7021TIP3   OH242553   2.688   6.745   0.445  0.2131  0.4583 -0.0224
 7021TIP3    H142554   2.768   6.782   0.481  0.7832  2.9293 -3.5115
 7021TIP3    H242555   2.619   6.807   0.471 -0.2504 -0.5440  1.1888
 7022TIP3   OH242556   5.179   0.155   3.544 -0.0421  0.0586  0.0727
 7022TIP3    H142557   5.143   0.083   3.492  0.8686 -0.1124 -0.3376
 7022TIP3    H242558   5.214   0.113   3.623 -0.1880  0.1439  0.1821
 7023TIP3   OH242559   5.455   5.258  14.059  0.9026 -0.0221 -0.6695
 7023TIP3    H142560   5.372   5.211  14.046  1.3392 -1.0325  0.0936
 7023TIP3    H242561   5.481   5.234  14.148  0.4510  2.7875  0.2486
 7024TIP3   OH242562   1.926   6.798   0.229  1.0005  0.1963  0.0516
 7024TIP3    H142563   1.862   6.828   0.293 -0.3677  0.5016 -1.4367
 7024TIP3    H242564   1.933   6.704   0.243  0.7862  0.2823  0.7175
 7025TIP3   OH242565   2.359   5.277   6.339  0.1768  0.4018 -0.3231
 7025TIP3    H142566   2.454   5.282   6.342  0.1563  1.1252 -0.6472
 7025TIP3    H242567   2.333   5.357   6.293 -0.6533  0.8050  0.8368
 7026TIP3   OH242568   6.798   0.429   1.483  0.4118  0.0178  0.0880
 7026TIP3    H142569   6.743   0.458   1.556  0.1376 -0.3100  0.0150
 7026TIP3    H242570   6.868   0.378   1.525  0.1327 -0.3538  0.1103
 7027TIP3   OH242571   0.516   3.022   6.446 -0.2715  0.1407  0.5774
 7027TIP3    H142572   0.451   2.959   6.415 -0.9990  0.2994  1.7190
 7027TIP3    H242573   0.550   2.983   6.527  1.5274 -0.2422 -0.3554
 7028TIP3   OH242574   6.494   1.300  11.576  0.0877  0.3020  0.5933
 7028TIP3    H142575   6.405   1.321  11.604  0.4745  1.0601  1.2678
 7028TIP3    H242576   6.525   1.379  11.531  0.7128  0.3348  1.0742
 7029TIP3   OH242577   4.106   3.386   2.633 -0.0037  0.2878 -0.3219
 7029TIP3    H142578   4.045   3.362   2.563 -1.5594  0.0188  1.0904
 7029TIP3    H242579   4.108   3.482   2.632 -1.6422  0.3512  0.5890
 7030TIP3   OH242580   2.715   0.374  11.630  0.6501 -0.9136  0.3253
 7030TIP3    H142581   2.697   0.431  11.705  0.2744 -1.7280  0.8570
 7030TIP3    H242582   2.640   0.386  11.572  1.1567  0.0632 -0.1410
 7031TIP3   OH242583   0.202   5.976   2.368  0.2096 -0.5628 -0.1515
 7031TIP3    H142584   0.246   6.060   2.379 -0.2748 -0.2627 -0.5035
 7031TIP3    H242585   0.216   5.953   2.276 -1.6352  0.2572 -0.6620
 7032TIP3   OH242586   3.832   2.849  12.022 -0.2178 -0.1019  0.5675
 7032TIP3    H142587   3.892   2.866  11.949 -0.0915 -1.3668  0.3619
 7032TIP3    H242588   3.786   2.932  12.035 -0.5725  0.0137 -1.2575
 7033TIP3   OH242589   1.065   6.039   4.522  0.1281  0.3553  0.6736
 7033TIP3    H142590   1.074   5.958   4.572 -0.2358 -0.8325 -1.1346
 7033TIP3    H242591   1.107   6.020   4.437  1.8926  2.7325  0.9374
 7034TIP3   OH242592   6.807   1.639  10.245  0.0719  0.2270  0.2754
 7034TIP3    H142593   6.872   1.701  10.213  1.1369 -0.7195  0.5778
 7034TIP3    H242594   6.852   1.554  10.245 -0.8780 -0.2961  1.3405
 7035TIP3   OH242595   3.215   2.001   4.897  0.1884 -0.2877  0.2274
 7035TIP3    H142596   3.222   1.913   4.862  0.6214 -0.6457  1.1967
 7035TIP3    H242597   3.137   2.000   4.952 -0.2995  0.1776 -0.4477
 7036TIP3   OH242598   1.960   1.726  12.167 -0.2851  0.5749  0.6034
 7036TIP3    H142599   2.009   1.683  12.236  3.8576  0.1420 -2.4149
 7036TIP3    H242600   1.966   1.819  12.187  0.8481  0.4502  0.8583
 7037TIP3   OH242601   0.508   0.834  15.581  0.6417  0.1100  0.6119
 7037TIP3    H142602   0.449   0.838  15.657 -2.0652  1.2887 -1.4816
 7037TIP3    H242603   0.584   0.786  15.613 -1.4942 -1.5856  3.3861
 7038TIP3   OH242604   0.244   2.210   0.370  0.0008  0.5247 -0.5722
 7038TIP3    H142605   0.149   2.219   0.372 -0.0195  0.2502  0.6826
 7038TIP3    H242606   0.275   2.265   0.442  0.5335 -1.8912  1.1172
 7039TIP3   OH242607   4.646   3.827  15.233  0.3762 -0.2764 -0.1251
 7039TIP3    H142608   4.630   3.752  15.175  0.5732  0.2601 -0.8837
 7039TIP3    H242609   4.560   3.847  15.270  0.3175 -0.8573  0.0636
 7040TIP3   OH242610   0.057   0.053   4.970 -0.2876  0.3132  0.0976
 7040TIP3    H142611   0.029   0.016   5.054 -1.2020  0.7871  0.0073
 7040TIP3    H242612  -0.024   0.063   4.920  0.2799 -0.2262 -0.9572
 7041TIP3   OH242613   0.448   2.702  13.067 -0.4349 -0.2075 -0.3011
 7041TIP3    H142614   0.523   2.643  13.068 -1.0819 -1.0466 -1.1051
 7041TIP3    H242615   0.394   2.674  13.142 -0.7262 -0.6186 -0.6629
 7042TIP3   OH242616   2.314   0.672   1.669  0.4788  0.3403 -0.0232
 7042TIP3    H142617   2.341   0.720   1.591  2.1658  0.9938  0.9426
 7042TIP3    H242618   2.308   0.739   1.737  0.5659 -0.4748  0.7921
 7043TIP3   OH242619   3.179   0.583   2.117 -0.2635  0.1591  0.2103
 7043TIP3    H142620   3.208   0.533   2.040 -0.6186 -0.9435  0.7703
 7043TIP3    H242621   3.163   0.671   2.084 -1.8177 -0.6569 -1.3062
 7044TIP3   OH242622   2.829   6.435   3.778 -0.0424 -0.9702 -0.2044
 7044TIP3    H142623   2.770   6.511   3.781 -0.1189 -1.0772  1.2141
 7044TIP3    H242624   2.826   6.406   3.687 -1.1980 -0.1978 -0.4217
 7045TIP3   OH242625   4.817   4.386   4.967  0.1671  0.5169 -0.6256
 7045TIP3    H142626   4.849   4.448   4.902  0.0761  1.5470  0.2978
 7045TIP3    H242627   4.725   4.374   4.947  0.5513 -0.6021 -1.8113
 7046TIP3   OH242628   5.070   6.174  13.975  0.4104  0.3489 -0.3473
 7046TIP3    H142629   4.978   6.201  13.972 -0.0651 -1.2875 -0.8738
 7046TIP3    H242630   5.115   6.237  13.918 -0.5142  0.6837 -0.7165
 7047TIP3   OH242631   0.224   4.166  16.383  0.1258  0.1483 -0.6431
 7047TIP3    H142632   0.301   4.213  16.350  0.3806  0.6813  0.6767
 7047TIP3    H242633   0.260   4.103  16.446 -0.7087  2.2673  2.0748
 7048TIP3   OH242634   3.849   3.533  11.757 -0.2157 -0.2003 -0.4952
 7048TIP3    H142635   3.905   3.572  11.825  0.7148  0.7807 -1.8029
 7048TIP3    H242636   3.767   3.583  11.762 -0.3695 -0.5207  0.2895
 7049TIP3   OH242637   3.119   5.022  16.184  0.9396 -0.0835  0.0271
 7049TIP3    H142638   3.061   4.949  16.206  0.2804  0.5612  0.4512
 7049TIP3    H242639   3.137   5.065  16.268  1.5143  0.1073 -0.1886
 7050TIP3   OH242640   5.269   3.606   0.639 -0.5072 -0.0397 -0.6106
 7050TIP3    H142641   5.183   3.577   0.666  0.4437 -1.7800  0.6444
 7050TIP3    H242642   5.270   3.595   0.544 -1.7468  0.2794 -0.6669
 7051TIP3   OH242643   4.283   2.976   5.075  0.8603 -1.0187  0.2318
 7051TIP3    H142644   4.243   3.042   5.131  0.4546 -1.3039  0.2821
 7051TIP3    H242645   4.351   3.023   5.027  2.0930 -1.0383  1.8952
 7052TIP3   OH242646   2.646   4.684  15.535 -0.1311 -0.5777  0.0750
 7052TIP3    H142647   2.724   4.703  15.586 -1.3160  1.6470  1.1284
 7052TIP3    H242648   2.632   4.762  15.482 -2.4792 -0.2725  1.0494
 7053TIP3   OH242649   4.955   6.118   4.546  0.0815  0.1775 -0.4246
 7053TIP3    H142650   4.880   6.064   4.520  0.0777 -0.2101  0.3760
 7053TIP3    H242651   5.013   6.117   4.470 -0.5303  0.1335 -0.8980
 7054TIP3   OH242652   3.654   2.381  16.154  0.0444  0.2009  0.5484
 7054TIP3    H142653   3.680   2.341  16.071 -0.1585  2.3824 -0.6070
 7054TIP3    H242654   3.654   2.309  16.217  0.4773 -1.4317 -1.2842
 7055TIP3   OH242655   2.544   5.973  13.643 -0.4947 -0.0828  0.2408
 7055TIP3    H142656   2.547   6.065  13.614 -1.4814 -0.0015  0.3789
 7055TIP3    H242657   2.633   5.941  13.629 -0.5815  0.3865 -1.4897
 7056TIP3   OH242658   2.930   0.335  16.237 -0.3005 -0.4402 -0.4843
 7056TIP3    H142659   2.936   0.243  16.211  0.0847 -0.5121 -0.1571
 7056TIP3    H242660   2.924   0.383  16.155  2.0002 -0.5812 -0.7641
 7057TIP3   OH242661   4.708   6.425  12.977  0.5353  0.1647  0.0718
 7057TIP3    H142662   4.688   6.355  13.040 -0.2500 -0.2710 -0.6555
 7057TIP3    H242663   4.623   6.466  12.959  0.6837 -0.0243 -1.0755
 7058TIP3   OH242664   5.687   4.225  12.823 -0.2313 -0.3049  0.5802
 7058TIP3    H142665   5.761   4.168  12.804 -0.7608 -1.2454  1.2544
 7058TIP3    H242666   5.726   4.308  12.850  0.5552 -0.4728 -0.0317
 7059TIP3   OH242667   5.779   4.346  17.114  0.1588  0.0786 -0.1281
 7059TIP3    H142668   5.850   4.310  17.168  0.4477 -0.2943 -0.7504
 7059TIP3    H242669   5.812   4.429  17.082 -0.1028  0.4104  0.4572
 7060TIP3   OH242670   0.806   6.076  16.356  0.8329  0.6740  0.5131
 7060TIP3    H142671   0.790   6.005  16.419  0.5555  1.5704  1.4761
 7060TIP3    H242672   0.744   6.060  16.285  1.2240 -0.4125  0.4091
 7061TIP3   OH242673   2.106   3.847   2.354  0.7368  0.1414  0.0024
 7061TIP3    H142674   2.145   3.931   2.377 -1.7307  1.4848 -0.5456
 7061TIP3    H242675   2.025   3.843   2.404 -0.1229 -1.0429 -1.4244
 7062TIP3   OH242676   0.438   0.159   0.067  0.1191  0.4217  0.4933
 7062TIP3    H142677   0.500   0.231   0.075 -0.4434  0.6305  3.3332
 7062TIP3    H242678   0.373   0.175   0.135 -0.2816 -2.5216  0.8732
 7063TIP3   OH242679   5.391   3.891   3.760 -0.1561  0.1014  0.1452
 7063TIP3    H142680   5.380   3.796   3.767 -0.1179  0.2288  2.1143
 7063TIP3    H242681   5.481   3.903   3.729 -0.7869 -0.5337 -2.0478
 7064TIP3   OH242682   5.750   5.300   0.195  0.3924  0.1606 -0.0013
 7064TIP3    H142683   5.795   5.256   0.124 -0.0623 -0.7041  0.2327
 7064TIP3    H242684   5.686   5.236   0.227  0.1881  0.7399  0.7962
 7065TIP3   OH242685   5.568   5.738  14.241  0.7694  0.3479 -0.7194
 7065TIP3    H142686   5.584   5.817  14.190 -0.4363  1.6745  0.8902
 7065TIP3    H242687   5.477   5.746  14.270  0.5987 -1.6889 -0.6182
 7066TIP3   OH242688   5.219   0.086   2.598 -0.7473  0.4974  0.3220
 7066TIP3    H142689   5.239   0.022   2.530 -0.5589  0.4914  0.3829
 7066TIP3    H242690   5.292   0.148   2.596 -1.0484  0.8519  0.0974
 7067TIP3   OH242691   4.957   3.414   4.502  0.1475  0.3851 -0.0460
 7067TIP3    H142692   4.957   3.407   4.598 -0.5685 -2.2758 -0.1919
 7067TIP3    H242693   5.044   3.384   4.476 -0.2209 -0.5054 -0.2872
 7068TIP3   OH242694   0.883   1.522   3.994 -0.1239 -0.0308 -0.3990
 7068TIP3    H142695   0.814   1.514   4.060 -0.7654  1.1500 -0.9137
 7068TIP3    H242696   0.957   1.474   4.031 -0.6487  0.1639  0.9464
 7069TIP3   OH242697   3.945   1.307  11.019 -0.1915 -0.6091  0.4070
 7069TIP3    H142698   4.001   1.333  10.947  0.5615 -0.4291  1.0558
 7069TIP3    H242699   3.932   1.213  11.008 -1.8570 -0.2192 -1.1938
 7070TIP3   OH242700   3.548   2.109  14.713 -0.0396 -0.1527 -0.0316
 7070TIP3    H142701   3.509   2.184  14.758  0.7437 -0.3216  0.9281
 7070TIP3    H242702   3.523   2.034  14.766  1.6465 -0.2583  0.6371
 7071TIP3   OH242703   3.481   1.837  13.764 -0.8435  0.3493 -0.3960
 7071TIP3    H142704   3.470   1.875  13.850 -1.1000  0.1717 -0.3505
 7071TIP3    H242705   3.434   1.754  13.767 -1.2039  0.5313 -0.8343
 7072TIP3   OH242706   0.664   3.450  13.115 -0.1425  0.2119  0.1320
 7072TIP3    H142707   0.712   3.397  13.178  0.2015 -0.0105 -0.3156
 7072TIP3    H242708   0.614   3.512  13.168 -1.3836 -1.2480  0.7075
 7073TIP3   OH242709   1.006   1.044  10.585  0.3743 -0.7991  0.1186
 7073TIP3    H142710   0.913   1.041  10.604  0.4310  0.1700  0.5659
 7073TIP3    H242711   1.018   1.123  10.533  1.6622  1.9872  4.3385
 7074TIP3   OH242712   4.036   6.062   2.846  0.1681  0.0754 -0.6741
 7074TIP3    H142713   4.109   6.122   2.832 -0.5443  0.9347 -0.7510
 7074TIP3    H242714   4.054   5.987   2.789 -0.5727  1.6494 -3.0321
 7075TIP3   OH242715   3.762   4.071   5.412  0.3589  0.3104 -0.0141
 7075TIP3    H142716   3.796   4.005   5.351  0.7642  1.1416 -0.6939
 7075TIP3    H242717   3.674   4.040   5.433  1.3269 -1.5783  1.3452
 7076TIP3   OH242718   1.500   4.804   2.709  0.0227  0.0130  0.1714
 7076TIP3    H142719   1.567   4.868   2.683 -0.6615  0.8062  0.3436
 7076TIP3    H242720   1.429   4.817   2.646  0.0533 -0.8621 -0.0421
 7077TIP3   OH242721   6.658   2.021   1.736 -0.3088 -0.4250  0.4164
 7077TIP3    H142722   6.617   1.972   1.665 -2.9431  1.6377  0.4052
 7077TIP3    H242723   6.698   2.097   1.693  0.6856 -0.7086  0.8237
 7078TIP3   OH242724   1.012   5.229   0.528  0.2955  0.2541  0.2359
 7078TIP3    H142725   1.108   5.229   0.526  0.2928 -0.8614 -0.6760
 7078TIP3    H242726   0.988   5.137   0.527 -0.7883  0.5168  1.4676
 7079TIP3   OH242727   6.428   4.337   0.454 -0.0071  0.1597  0.1446
 7079TIP3    H142728   6.389   4.424   0.467  0.7208  0.6174 -0.6524
 7079TIP3    H242729   6.505   4.337   0.512 -1.0974 -0.6955  1.6232
 7080TIP3   OH242730   1.593   0.434  17.156 -0.7313 -0.3408 -0.1167
 7080TIP3    H142731   1.542   0.482  17.221 -1.1501 -0.7057 -0.1749
 7080TIP3    H242732   1.528   0.384  17.107 -0.4711  0.3118 -1.1467
 7081TIP3   OH242733   5.108   3.396   1.133 -0.3582  0.7002  0.0645
 7081TIP3    H142734   5.049   3.375   1.205 -0.3602  2.5991  0.6486
 7081TIP3    H242735   5.152   3.476   1.161 -0.5630  1.6309 -2.1404
 7082TIP3   OH242736   2.747   4.599   0.286  0.5639  0.1782 -0.3127
 7082TIP3    H142737   2.762   4.514   0.327 -0.2987 -0.8919 -2.1777
 7082TIP3    H242738   2.673   4.636   0.334 -0.1494 -0.8697 -0.5945
 7083TIP3   OH242739   1.778   1.699  16.042  0.1471  0.2824  0.3305
 7083TIP3    H142740   1.728   1.737  15.970  0.2793 -0.8789 -0.3919
 7083TIP3    H242741   1.770   1.762  16.113 -3.2919 -0.3815  0.6087
 7084TIP3   OH242742   3.721   3.047  16.512 -0.5248 -0.4235  1.1531
 7084TIP3    H142743   3.672   3.074  16.590 -0.4903 -0.0905  1.0579
 7084TIP3    H242744   3.693   2.956  16.496 -2.9434  0.5318 -0.3071
 7085TIP3   OH242745   6.647   6.321   1.973 -0.2583  0.0460  0.2048
 7085TIP3    H142746   6.652   6.392   1.909  0.8384 -1.5600 -1.5311
 7085TIP3    H242747   6.735   6.284   1.976 -1.1347 -2.1509  0.0034
 7086TIP3   OH242748   5.553   0.861   3.655 -0.5896 -0.0782  0.4307
 7086TIP3    H142749   5.468   0.902   3.667  0.0260  1.5305 -0.5499
 7086TIP3    H242750   5.612   0.913   3.710  0.0191 -0.2524 -0.0515
 7087TIP3   OH242751   2.295   3.372  12.697 -0.0081 -0.4348  0.8404
 7087TIP3    H142752   2.306   3.467  12.700  0.3341 -0.4664  0.6432
 7087TIP3    H242753   2.296   3.345  12.789 -2.1073 -0.0315  0.9901
 7088TIP3   OH242754   2.908   0.269  13.321 -0.6999 -0.5092  0.2623
 7088TIP3    H142755   2.824   0.305  13.348  0.4938  2.9501 -0.3207
 7088TIP3    H242756   2.914   0.289  13.228  0.9740 -0.2030  0.4188
 7089TIP3   OH242757   0.833   3.315   5.937 -0.6138 -0.4870  0.1141
 7089TIP3    H142758   0.884   3.380   5.984 -0.6130  0.2856 -0.9577
 7089TIP3    H242759   0.897   3.264   5.888 -0.8074 -0.0138 -0.6244
 7090TIP3   OH242760   5.417   6.050  12.216  0.4573  0.1272 -0.4072
 7090TIP3    H142761   5.425   5.963  12.178 -0.2341  0.5571 -1.5627
 7090TIP3    H242762   5.500   6.065  12.261  0.6185 -1.0788 -0.2981
 7091TIP3   OH242763   4.226   5.930   6.007 -0.1824 -0.2671  0.6772
 7091TIP3    H142764   4.208   5.933   6.101 -0.3689 -2.2974  0.7232
 7091TIP3    H242765   4.154   5.879   5.970  0.8723 -1.0885 -0.2983
 7092TIP3   OH242766   2.866   5.320  17.055 -0.3487 -1.0029 -0.6320
 7092TIP3    H142767   2.814   5.400  17.063 -0.7503 -1.3043 -0.1708
 7092TIP3    H242768   2.936   5.343  16.994  0.4030  0.1582  0.6271
 7093TIP3   OH242769   0.732   0.657   1.308  0.5264 -0.1340 -0.5203
 7093TIP3    H142770   0.746   0.567   1.278 -0.8916 -0.3669 -0.5175
 7093TIP3    H242771   0.646   0.681   1.273 -0.3407  0.2475  1.7817
 7094TIP3   OH242772   3.910   5.078  15.777  0.2419  0.2358  0.3858
 7094TIP3    H142773   3.872   5.011  15.833 -1.2460  0.0310 -0.8354
 7094TIP3    H242774   3.857   5.156  15.795  0.1303  0.3171 -0.3025
 7095TIP3   OH242775   0.140   4.757   4.060 -0.2346 -0.2710 -0.0952
 7095TIP3    H142776   0.133   4.697   4.135  0.2707  1.1342  1.0941
 7095TIP3    H242777   0.234   4.771   4.049 -0.3556  0.4338 -0.2556
 7096TIP3   OH242778   3.746   4.253  15.442  0.6077  0.7540  0.4046
 7096TIP3    H142779   3.766   4.184  15.505  0.4865 -0.3242 -0.7234
 7096TIP3    H242780   3.663   4.289  15.472  0.8332  0.6402  1.1828
 7097TIP3   OH242781   2.814   0.104   3.168  0.1776 -0.7067  0.1512
 7097TIP3    H142782   2.859   0.159   3.232  0.1668  0.3383 -0.7197
 7097TIP3    H242783   2.864   0.022   3.168  0.1021 -0.7683  1.5718
 7098TIP3   OH242784   0.597   3.254   5.237  0.3671 -0.0864 -0.3642
 7098TIP3    H142785   0.534   3.203   5.187 -0.9640  0.1864  1.0090
 7098TIP3    H242786   0.544   3.300   5.303  1.7154  1.8071 -0.5453
 7099TIP3   OH242787   1.664   6.175  15.740  0.2315 -0.5704  0.7903
 7099TIP3    H142788   1.608   6.097  15.742 -1.1044  0.2398 -2.0919
 7099TIP3    H242789   1.724   6.159  15.667  0.2321  0.9088  0.4595
 7100TIP3   OH242790   4.263   3.084  11.020 -0.0604  0.2669 -1.1241
 7100TIP3    H142791   4.174   3.115  11.001 -0.0762 -0.8120 -2.9930
 7100TIP3    H242792   4.290   3.039  10.939  2.6852  1.6837 -1.0282
 7101TIP3   OH242793   1.332   4.790  16.116 -0.0782 -0.0670 -0.1266
 7101TIP3    H142794   1.408   4.767  16.062 -1.0931 -1.2310 -1.0898
 7101TIP3    H242795   1.270   4.829  16.054 -0.2776  0.8866  0.6532
 7102TIP3   OH242796   5.115   0.253  11.860  0.5817  0.1552 -0.1850
 7102TIP3    H142797   5.069   0.246  11.943 -1.0475 -0.3736 -1.1253
 7102TIP3    H242798   5.117   0.347  11.841 -0.1938  0.1770 -0.1770
 7103TIP3   OH242799   1.358   3.396   0.818  0.2104  0.8881  0.5009
 7103TIP3    H142800   1.286   3.456   0.798 -0.5931  0.0285  0.7724
 7103TIP3    H242801   1.390   3.424   0.904 -0.6903  0.4191  0.9873
 7104TIP3   OH242802   3.578   3.749   3.127  0.1674  0.4212 -0.2242
 7104TIP3    H142803   3.497   3.702   3.148  0.0117  0.3834 -0.9036
 7104TIP3    H242804   3.568   3.774   3.035 -0.0387  2.3993  0.3207
 7105TIP3   OH242805   4.466   3.323  16.484 -0.5410 -0.4558 -0.1274
 7105TIP3    H142806   4.493   3.241  16.443 -0.6091 -0.1679 -0.7463
 7105TIP3    H242807   4.533   3.387  16.457 -0.1879 -0.4290  0.7953
 7106TIP3   OH242808   6.092   2.176   3.759 -0.3988  0.1597 -0.0348
 7106TIP3    H142809   6.092   2.263   3.801  0.0603 -0.5903  1.5474
 7106TIP3    H242810   6.151   2.186   3.685  1.5481  0.5857  1.5103
 7107TIP3   OH242811   3.266   2.217   0.490  0.4533  0.1234 -0.0119
 7107TIP3    H142812   3.275   2.169   0.573 -2.0802  1.9475  1.3985
 7107TIP3    H242813   3.287   2.307   0.513  1.2478  0.3795 -1.7231
 7108TIP3   OH242814   1.543   0.644  13.692 -0.1281 -0.5622  0.3005
 7108TIP3    H142815   1.476   0.639  13.624  1.7772  1.5160 -1.8438
 7108TIP3    H242816   1.586   0.559  13.690 -0.4649 -0.7133 -0.6847
 7109TIP3   OH242817   1.585   3.770  16.116 -0.2307 -0.0830  0.1829
 7109TIP3    H142818   1.525   3.843  16.136 -1.3364 -0.9384  0.0078
 7109TIP3    H242819   1.529   3.693  16.115  0.4874 -0.5995 -2.2707
 7110TIP3   OH242820   6.292   2.654   1.017 -0.4578  0.0809 -0.2709
 7110TIP3    H142821   6.271   2.625   1.105 -1.6541  0.1312 -0.5304
 7110TIP3    H242822   6.261   2.745   1.013 -0.2662  0.1318 -0.7013
 7111TIP3   OH242823   0.623   4.149   6.453 -0.5983  0.6765  0.4882
 7111TIP3    H142824   0.623   4.212   6.525 -0.9325  2.5907 -1.1316
 7111TIP3    H242825   0.678   4.189   6.387 -1.5633 -0.3061 -0.9342
 7112TIP3   OH242826   2.371   5.400  17.139  0.6362 -0.4316 -0.8282
 7112TIP3    H142827   2.282   5.399  17.105  1.3362  0.3373 -2.7857
 7112TIP3    H242828   2.426   5.385  17.062  2.2462  0.4957  0.1036
 7113TIP3   OH242829   5.491   2.350  13.800 -0.6362 -0.4138 -0.2064
 7113TIP3    H142830   5.453   2.400  13.728 -2.6974 -0.9933  0.4670
 7113TIP3    H242831   5.567   2.402  13.827 -0.1012  0.0570 -2.4551
 7114TIP3   OH242832   5.717   5.632  16.765 -0.1238  0.0228  0.0548
 7114TIP3    H142833   5.681   5.710  16.809 -0.9410 -0.4169  0.1713
 7114TIP3    H242834   5.651   5.608  16.701 -0.7725 -1.7189  1.3381
 7115TIP3   OH242835   3.135   1.616   0.088 -0.4056 -0.5873  0.3205
 7115TIP3    H142836   3.096   1.632   0.002 -0.9304  0.5210  0.7582
 7115TIP3    H242837   3.166   1.702   0.117 -1.7761 -0.6283  1.9886
 7116TIP3   OH242838   1.364   5.064  16.493  0.3878  0.0081  0.2437
 7116TIP3    H142839   1.407   5.023  16.418  1.6674  0.6526  0.6265
 7116TIP3    H242840   1.425   5.053  16.566 -1.5493 -2.1447  1.6534
 7117TIP3   OH242841   5.607   6.148  15.271  0.0233  0.1310 -0.7149
 7117TIP3    H142842   5.634   6.236  15.246  1.0495  0.2745  0.7777
 7117TIP3    H242843   5.523   6.160  15.315 -0.5072  0.1914 -1.7376
 7118TIP3   OH242844   1.373   3.752  13.258  0.0672  0.2712  0.2396
 7118TIP3    H142845   1.305   3.687  13.275  0.4509 -0.1027  0.3704
 7118TIP3    H242846   1.395   3.739  13.166  0.7403 -0.3665  0.4834
 7119TIP3   OH242847   6.143   1.283   5.043  0.1504  0.6566 -0.0635
 7119TIP3    H142848   6.085   1.335   4.987  1.2210  1.8784 -0.0828
 7119TIP3    H242849   6.178   1.215   4.985  0.8420  1.5909 -0.7574
 7120TIP3   OH242850   1.094   4.369  11.244 -0.3239 -0.1988  0.3113
 7120TIP3    H142851   1.126   4.438  11.185  0.6618 -0.7370  0.1983
 7120TIP3    H242852   1.071   4.297  11.187  0.9765 -0.8568  0.5814
 7121TIP3   OH242853   6.411   0.683  14.607  0.1328 -0.0002 -0.1047
 7121TIP3    H142854   6.390   0.727  14.689  0.7354 -0.4457  0.2971
 7121TIP3    H242855   6.506   0.667  14.612  0.0270 -0.7653 -0.5166
 7122TIP3   OH242856   5.034   4.773   5.355  0.0705  0.7280  0.0297
 7122TIP3    H142857   5.007   4.862   5.377 -1.9261  0.0549  0.3858
 7122TIP3    H242858   5.022   4.724   5.436  0.2944 -0.0761 -0.4195
 7123TIP3   OH242859   0.180   4.810  13.082 -0.3839  0.5332  0.1081
 7123TIP3    H142860   0.181   4.773  13.170 -2.1974 -0.0267 -0.0791
 7123TIP3    H242861   0.191   4.904  13.096 -0.1058  0.3888  0.8973
 7124TIP3   OH242862   2.667   0.399  13.477 -0.4768 -0.3462 -0.3296
 7124TIP3    H142863   2.679   0.326  13.538 -1.5624 -0.0892  0.2008
 7124TIP3    H242864   2.617   0.464  13.526 -0.5312  0.2700 -1.1788
 7125TIP3   OH242865   3.713   1.077   3.011 -0.3478  0.3764  0.6027
 7125TIP3    H142866   3.709   1.121   2.927  0.2217  0.9978  0.8967
 7125TIP3    H242867   3.803   1.046   3.018 -0.6941 -0.6589  0.4848
 7126TIP3   OH242868   5.905   6.196  12.576  0.1088 -0.0692 -0.7900
 7126TIP3    H142869   5.814   6.220  12.597  0.1845 -1.8446  1.7781
 7126TIP3    H242870   5.947   6.278  12.554 -1.1433  1.3381  1.8547
 7127TIP3   OH242871   0.360   0.559  14.240  0.3545  0.0162  0.2791
 7127TIP3    H142872   0.326   0.646  14.220 -0.8884 -0.7344 -0.9663
 7127TIP3    H242873   0.302   0.499  14.194  1.2847 -1.4789  0.9977
 7128TIP3   OH242874   5.644   5.918   5.059 -0.1169  0.1844  0.2146
 7128TIP3    H142875   5.659   5.927   4.965 -4.1612  0.1105 -0.5546
 7128TIP3    H242876   5.652   6.006   5.093 -0.2959  0.4872 -0.5113
 7129TIP3   OH242877   5.354   0.533  14.730 -0.1849  0.0017  0.4810
 7129TIP3    H142878   5.319   0.593  14.796  1.0945 -0.8168  1.9343
 7129TIP3    H242879   5.412   0.588  14.677 -0.4986  0.4652  0.6112
 7130TIP3   OH242880   6.281   4.524  13.108  0.9816 -0.0752  0.0928
 7130TIP3    H142881   6.289   4.535  13.203  1.9464 -0.0621  0.0079
 7130TIP3    H242882   6.350   4.462  13.085  1.1808  0.4311 -0.6935
 7131TIP3   OH242883   4.503   5.989   2.151 -0.0247  0.2078 -0.2848
 7131TIP3    H142884   4.495   5.994   2.055  1.3673  2.4385 -0.3040
 7131TIP3    H242885   4.546   5.904   2.166  1.0457  0.4716 -1.7271
 7132TIP3   OH242886   6.594   4.400   3.545  0.1745  0.3293 -0.0305
 7132TIP3    H142887   6.524   4.343   3.513  0.4009 -0.1973  0.3996
 7132TIP3    H242888   6.568   4.422   3.635  0.8839 -0.3977  0.3526
 7133TIP3   OH242889   0.200   1.373  13.341 -0.7162 -0.1682  0.0211
 7133TIP3    H142890   0.200   1.423  13.423 -0.6628  0.0898 -0.1374
 7133TIP3    H242891   0.107   1.369  13.316 -0.9298 -1.7344  1.0014
 7134TIP3   OH242892   3.698   6.143   3.375 -0.0305 -0.1834  0.7127
 7134TIP3    H142893   3.791   6.144   3.356 -0.6993  0.1264 -2.9272
 7134TIP3    H242894   3.676   6.051   3.386  0.6186 -0.2803  1.2255
 7135TIP3   OH242895   1.872   3.795   3.729  0.2164 -0.3671  0.2866
 7135TIP3    H142896   1.813   3.723   3.751  1.5391 -1.2641  1.0286
 7135TIP3    H242897   1.942   3.754   3.678 -0.6029  0.9638 -1.9738
 7136TIP3   OH242898   1.041   1.959   1.756  1.0210 -0.1367 -0.5701
 7136TIP3    H142899   1.109   2.023   1.776  2.5621 -1.3991 -1.6951
 7136TIP3    H242900   1.087   1.886   1.714 -0.8370 -1.5720 -0.1943
 7137TIP3   OH242901   1.929   3.325  17.081 -0.4844 -0.6585 -0.1795
 7137TIP3    H142902   2.008   3.280  17.052 -0.5212 -0.3094 -0.8448
 7137TIP3    H242903   1.874   3.256  17.118  0.3567 -0.8190  0.8088
 7138TIP3   OH242904   1.208   1.942   2.444  0.3938 -0.5515 -0.3196
 7138TIP3    H142905   1.272   1.969   2.378  0.0460 -0.1154 -0.4809
 7138TIP3    H242906   1.174   2.025   2.479  0.4366 -0.7783  0.2698
 7139TIP3   OH242907   6.149   0.921   5.947 -0.4794  0.4406 -0.8004
 7139TIP3    H142908   6.135   0.991   6.010  2.6391  1.2123 -0.8753
 7139TIP3    H242909   6.145   0.965   5.862  1.3507  0.5818 -0.8504
 7140TIP3   OH242910   2.898   3.332   5.292 -0.6806  0.1355  0.4475
 7140TIP3    H142911   2.857   3.262   5.343 -0.4238 -0.9918 -0.8617
 7140TIP3    H242912   2.855   3.412   5.323 -1.0150 -0.5968  1.9261
 7141TIP3   OH242913   0.339   0.649   4.294 -0.2494  0.3348 -0.3994
 7141TIP3    H142914   0.341   0.591   4.370  0.2274 -0.1223 -0.7558
 7141TIP3    H242915   0.322   0.736   4.331  0.3973  0.1876  0.2760
 7142TIP3   OH242916   3.282   5.705  11.852  0.9167 -0.4005 -0.9352
 7142TIP3    H142917   3.256   5.613  11.858 -0.5004 -0.0370 -1.1737
 7142TIP3    H242918   3.375   5.704  11.832  0.5384 -1.7937 -2.6856
 7143TIP3   OH242919   0.442   4.888  15.235 -0.4301 -0.2666 -0.3306
 7143TIP3    H142920   0.513   4.837  15.273 -2.8832 -1.8846  2.2612
 7143TIP3    H242921   0.468   4.979  15.248  0.6884 -0.8305  1.5109
 7144TIP3   OH242922   1.230   1.840  15.195  0.4507 -0.1115  0.2555
 7144TIP3    H142923   1.171   1.779  15.240 -2.0834  1.9060 -0.2462
 7144TIP3    H242924   1.237   1.915  15.255  2.0081 -0.0340  0.0034
 7145TIP3   OH242925   1.149   4.723   4.818  0.8101 -0.3743 -0.0842
 7145TIP3    H142926   1.068   4.717   4.767  1.1054 -1.9086 -0.3836
 7145TIP3    H242927   1.125   4.698   4.907  0.1909  2.7718  0.7119
 7146TIP3   OH242928   0.064   4.843  16.652 -0.3327 -0.4745 -0.6814
 7146TIP3    H142929   0.018   4.896  16.587 -2.4595 -0.2184  0.9509
 7146TIP3    H242930   0.043   4.885  16.736  2.0606 -0.9843  0.2366
 7147TIP3   OH242931   1.391   3.809   4.601 -0.1485  0.0958 -0.2339
 7147TIP3    H142932   1.349   3.828   4.685  1.3566  1.3026  0.2584
 7147TIP3    H242933   1.320   3.815   4.537 -1.3621 -1.1138  0.9770
 7148TIP3   OH242934   1.803   6.274  11.547 -0.4975  0.1075  0.3367
 7148TIP3    H142935   1.886   6.235  11.520 -1.1707 -1.9864  1.1994
 7148TIP3    H242936   1.739   6.241  11.483 -0.5923  2.2999 -0.7808
 7149TIP3   OH242937   1.183   1.847  16.002  0.5336 -0.3921 -0.3024
 7149TIP3    H142938   1.236   1.923  16.025  0.1595 -0.7614  1.8575
 7149TIP3    H242939   1.243   1.773  16.008 -0.4083 -0.9607  3.2852
 7150TIP3   OH242940   5.094   5.113   1.132  0.1561 -0.0056  0.5351
 7150TIP3    H142941   5.170   5.061   1.104  0.1821  1.0991 -1.4998
 7150TIP3    H242942   5.132   5.188   1.177  0.2054 -0.3008  0.9929
 7151TIP3   OH242943   1.697   5.158  12.416 -0.2815  0.4380 -0.1268
 7151TIP3    H142944   1.790   5.157  12.392 -0.1483  0.0254  0.4227
 7151TIP3    H242945   1.696   5.151  12.511 -0.9349 -1.4570 -0.2524
 7152TIP3   OH242946   0.797   3.538   5.064  0.4709 -0.1412  0.6251
 7152TIP3    H142947   0.774   3.446   5.050  0.4562 -0.3013  1.6257
 7152TIP3    H242948   0.877   3.552   5.013  0.4349 -0.6935  0.4216
 7153TIP3   OH242949   4.421   5.900   3.619 -0.0584  0.0502 -0.3471
 7153TIP3    H142950   4.355   5.963   3.648  0.2519  0.7809 -1.1859
 7153TIP3    H242951   4.490   5.906   3.685 -0.2032  0.3075 -0.2174
 7154TIP3   OH242952   6.223   5.083  13.112 -0.9915 -0.2360 -0.0696
 7154TIP3    H142953   6.214   5.034  13.031  0.8060 -0.0745 -0.3824
 7154TIP3    H242954   6.268   5.164  13.087 -3.7708  1.5493  0.4662
 7155TIP3   OH242955   1.793   1.187   0.744 -0.4926 -0.8155  0.3248
 7155TIP3    H142956   1.792   1.112   0.804  0.0292 -0.7963  0.3602
 7155TIP3    H242957   1.743   1.255   0.789 -0.3274 -0.8912  0.6233
 7156TIP3   OH242958   5.929   5.236   4.485 -0.5149 -0.3094 -0.9774
 7156TIP3    H142959   6.010   5.288   4.482 -1.5060  1.5044  2.0271
 7156TIP3    H242960   5.864   5.297   4.519 -2.1712 -2.9957  0.7409
 7157TIP3   OH242961   2.392   3.956  12.265 -0.5271 -0.0909 -0.4082
 7157TIP3    H142962   2.408   3.998  12.181  0.7438  0.8490  0.2756
 7157TIP3    H242963   2.478   3.957  12.309 -1.4209  0.6437  1.4114
 7158TIP3   OH242964   4.090   3.481  12.087  0.2509  0.4938 -0.2577
 7158TIP3    H142965   4.071   3.389  12.071  0.5432  0.4623 -0.4128
 7158TIP3    H242966   4.019   3.510  12.145 -0.4273  0.4478 -1.0669
 7159TIP3   OH242967   2.222   1.523   1.161  0.2063 -0.3350 -0.5446
 7159TIP3    H142968   2.305   1.531   1.115  1.1753 -1.3332  1.0101
 7159TIP3    H242969   2.222   1.434   1.197 -1.6234 -0.4262 -0.7228
 7160TIP3   OH242970   4.408   1.288   0.214  0.1758  0.0089  0.1134
 7160TIP3    H142971   4.406   1.326   0.302  1.1621  1.0750 -0.3103
 7160TIP3    H242972   4.360   1.350   0.160 -0.4624 -0.6654 -0.0911
 7161TIP3   OH242973   0.134   2.971  12.717 -0.2094  0.2143 -0.5218
 7161TIP3    H142974   0.045   2.948  12.745 -0.0272 -1.5239 -1.2684
 7161TIP3    H242975   0.191   2.914  12.770  0.3338 -0.2683 -1.6009
 7162TIP3   OH242976   1.540   5.533   0.900  0.1886 -0.3403 -0.4750
 7162TIP3    H142977   1.556   5.627   0.907 -1.0808 -0.1040 -0.6279
 7162TIP3    H242978   1.464   5.518   0.956  1.0670 -1.4652  0.4444
 7163TIP3   OH242979   4.441   5.657  16.275  0.5440 -0.3840 -0.1440
 7163TIP3    H142980   4.532   5.640  16.248  0.9710 -0.2537  1.1676
 7163TIP3    H242981   4.448   5.726  16.341 -0.9306  3.1428 -3.4389
 7164TIP3   OH242982   0.492   1.731   0.974 -0.3864 -0.2689  0.5151
 7164TIP3    H142983   0.525   1.816   1.003  0.3827 -1.3270  2.8457
 7164TIP3    H242984   0.556   1.701   0.909  0.1621  0.2283  0.8259
 7165TIP3   OH242985   3.075   1.408  14.376 -0.2930 -0.5164 -0.2812
 7165TIP3    H142986   3.074   1.368  14.463 -3.4898 -2.3492 -1.0787
 7165TIP3    H242987   2.989   1.450  14.368  0.1557  0.0603 -2.3546
 7166TIP3   OH242988   0.818   0.721   3.100 -0.3067 -0.6017 -0.3516
 7166TIP3    H142989   0.880   0.694   3.032  0.9788  0.3992  0.4158
 7166TIP3    H242990   0.750   0.769   3.052  0.0698 -0.7487 -1.0520
 7167TIP3   OH242991   5.599   0.249  14.493  0.2762  0.0942 -0.3651
 7167TIP3    H142992   5.651   0.287  14.422  1.4979  0.1643  0.5449
 7167TIP3    H242993   5.608   0.312  14.565  1.5172 -1.4172  0.8342
 7168TIP3   OH242994   1.793   2.727   4.573 -0.6408 -0.4482  0.1184
 7168TIP3    H142995   1.867   2.675   4.543 -0.4015  0.4728 -0.9286
 7168TIP3    H242996   1.832   2.804   4.615 -0.9942 -0.5719  0.6789
 7169TIP3   OH242997   1.265   6.151   4.861  0.5075 -0.1321  0.0469
 7169TIP3    H142998   1.281   6.083   4.796 -1.9429 -1.6312  0.9586
 7169TIP3    H242999   1.352   6.185   4.882  1.8621 -3.4060  0.0427
 7170TIP3   OH243000   2.199   6.517  17.166 -0.2839  0.0807 -0.6293
 7170TIP3    H143001   2.293   6.501  17.159 -0.3982 -1.5362  1.1183
 7170TIP3    H243002   2.159   6.434  17.140 -1.2079  0.4788 -0.4916
 7171TIP3   OH243003   1.654   1.629  11.484  0.1121  0.9226  0.2000
 7171TIP3    H143004   1.585   1.640  11.550  0.5849 -0.5905  0.9622
 7171TIP3    H243005   1.724   1.688  11.512 -0.1485  1.1323  0.4096
 7172TIP3   OH243006   4.912   6.666   3.175  0.2883 -0.3263  0.6599
 7172TIP3    H143007   4.882   6.577   3.156  0.7147 -0.0534 -1.4263
 7172TIP3    H243008   4.970   6.687   3.102 -0.5817  2.0359  0.6109
 7173TIP3   OH243009   1.794   5.270  11.415  0.2320  0.0334  0.2064
 7173TIP3    H143010   1.706   5.307  11.421  1.1354  2.3172 -0.1352
 7173TIP3    H243011   1.834   5.288  11.500  1.1917  1.2111 -0.4820
 7174TIP3   OH243012   6.047   4.098  11.589  0.3561 -0.1328 -0.3665
 7174TIP3    H143013   6.028   4.004  11.597 -0.9428  0.0608 -1.0503
 7174TIP3    H243014   6.125   4.111  11.642  0.2368 -1.5083  0.1660
 7175TIP3   OH243015   0.604   1.962  16.384 -1.0013 -0.0863  0.4189
 7175TIP3    H143016   0.571   1.988  16.298 -0.5412  0.6149  0.4501
 7175TIP3    H243017   0.699   1.970  16.376 -0.8852 -1.1765  0.6232
 7176TIP3   OH243018   0.016   4.268  16.666  0.7209 -0.0316  0.3093
 7176TIP3    H143019   0.075   4.271  16.741  0.4376 -0.0001  0.5302
 7176TIP3    H243020  -0.067   4.236  16.702  0.5058  0.2442  0.0599
 7177TIP3   OH243021   5.581   3.172  12.485  0.6814 -0.8376  0.1730
 7177TIP3    H143022   5.502   3.125  12.512  0.3024 -0.2600  0.0715
 7177TIP3    H243023   5.595   3.236  12.555 -0.2438  0.5919 -0.9180
 7178TIP3   OH243024   2.788   4.324   2.484  0.1473  0.3258 -0.3789
 7178TIP3    H143025   2.861   4.263   2.475 -1.0317 -1.2809  0.6461
 7178TIP3    H243026   2.749   4.326   2.397 -0.8426 -1.7687 -0.0288
 7179TIP3   OH243027   6.209   2.020   0.221  0.5146  0.0884 -0.6327
 7179TIP3    H143028   6.244   1.982   0.302  0.2649 -0.7789 -0.9315
 7179TIP3    H243029   6.284   2.063   0.180  1.2788 -1.8805 -1.3459
 7180TIP3   OH243030   4.963   4.827  15.608 -0.3129  0.7596 -0.5953
 7180TIP3    H143031   4.936   4.906  15.561  0.8476 -0.2666 -3.1143
 7180TIP3    H243032   5.059   4.833  15.610 -0.1877 -0.8399 -1.3081
 7181TIP3   OH243033   4.091   5.438   1.403  0.6295  0.3258 -0.1890
 7181TIP3    H143034   4.117   5.523   1.367 -0.4896  0.3363 -0.9670
 7181TIP3    H243035   4.003   5.452   1.437  0.5515 -0.4511 -0.0654
 7182TIP3   OH243036   2.240   4.065   2.491 -0.4528  0.2281 -0.3437
 7182TIP3    H143037   2.320   4.027   2.525 -0.6435 -0.3736 -0.5634
 7182TIP3    H243038   2.188   4.087   2.569 -0.1434  0.4833 -0.2078
 7183TIP3   OH243039   3.418   3.218  12.420 -0.0921  0.0033  0.0509
 7183TIP3    H143040   3.397   3.226  12.513 -0.3403  3.3337 -0.2647
 7183TIP3    H243041   3.347   3.165  12.384 -0.6202 -0.3231  1.5341
 7184TIP3   OH243042   2.072   3.100  10.872  0.3633 -0.4048  0.4067
 7184TIP3    H143043   1.993   3.154  10.876  0.8228  0.1769  1.7644
 7184TIP3    H243044   2.119   3.131  10.794  0.1217  0.4551  0.6049
 7185TIP3   OH243045   6.753   0.696   0.815  0.1981 -0.3002  0.7092
 7185TIP3    H143046   6.758   0.723   0.723  0.4032  0.3527  0.9104
 7185TIP3    H243047   6.696   0.619   0.814 -0.1169 -0.0649  0.0884
 7186TIP3   OH243048   6.129   5.937   2.945  0.3403  0.6661  0.0556
 7186TIP3    H143049   6.158   5.903   3.029  2.3890 -0.9414 -1.2441
 7186TIP3    H243050   6.168   6.024   2.938  0.8984  0.4403  0.3874
 7187TIP3   OH243051   6.288   0.781  12.601  0.5405 -0.2918  0.7234
 7187TIP3    H143052   6.365   0.755  12.551 -1.6864 -0.2034 -2.9383
 7187TIP3    H243053   6.227   0.707  12.591 -1.4739  1.4291 -0.1393
 7188TIP3   OH243054   2.286   0.835  11.897  0.3437 -0.2791  0.2035
 7188TIP3    H143055   2.336   0.897  11.950  0.7438 -0.7152  0.3363
 7188TIP3    H243056   2.208   0.817  11.949 -0.6195  1.4353 -0.5960
 7189TIP3   OH243057   5.003   3.094  12.362  0.2781  0.7343 -0.0449
 7189TIP3    H143058   5.097   3.112  12.366 -0.1211  2.9391  0.0766
 7189TIP3    H243059   4.972   3.147  12.289 -1.0679  0.8544  0.6134
 7190TIP3   OH243060   4.340   0.915   2.922 -0.6599  0.0969  0.9158
 7190TIP3    H143061   4.300   0.879   2.843  1.1420 -1.0610  0.4924
 7190TIP3    H243062   4.282   0.987   2.948 -1.4815  0.2503 -1.2353
 7191TIP3   OH243063   1.217   4.381  16.008 -0.2595 -0.4031 -0.5128
 7191TIP3    H143064   1.210   4.446  15.939 -0.5717  0.4447  0.3134
 7191TIP3    H243065   1.285   4.414  16.067  1.2328 -1.9728 -1.3165
 7192TIP3   OH243066   0.898   1.726  14.357 -0.3387  0.6351  0.7007
 7192TIP3    H143067   0.910   1.734  14.262  0.7804 -2.0279  0.5771
 7192TIP3    H243068   0.847   1.646  14.368  0.7570  0.1523  2.4117
 7193TIP3   OH243069   0.665   1.625   3.508 -0.0022 -0.1018  0.1449
 7193TIP3    H143070   0.618   1.673   3.576 -1.3655  1.1165 -1.6127
 7193TIP3    H243071   0.737   1.582   3.555 -0.2931  1.5224  2.1838
 7194TIP3   OH243072   1.194   1.793  14.469 -0.0269  0.2196 -0.8403
 7194TIP3    H143073   1.271   1.765  14.419 -1.0390  2.3369 -3.7789
 7194TIP3    H243074   1.123   1.794  14.404 -1.3954  3.1703  0.6016
 7195TIP3   OH243075   0.015   3.692  13.498  0.4198  0.4032  0.7094
 7195TIP3    H143076  -0.000   3.623  13.563 -0.8162 -1.3502 -1.3756
 7195TIP3    H243077  -0.072   3.710  13.461  0.7823  2.8766  0.9964
 7196TIP3   OH243078   1.358   6.157   3.360 -0.1074  0.1954  0.2391
 7196TIP3    H143079   1.419   6.168   3.433  1.7186 -0.0526 -1.1956
 7196TIP3    H243080   1.274   6.189   3.393  0.5806 -0.3113  2.5676
 7197TIP3   OH243081   6.600   3.246  11.686  0.0127  0.3151 -0.1463
 7197TIP3    H143082   6.591   3.236  11.591 -0.5384  1.4753 -0.2358
 7197TIP3    H243083   6.542   3.320  11.707 -1.7700 -1.4871  1.4448
 7198TIP3   OH243084   3.320   1.416   5.508  0.3556  0.4251  0.1637
 7198TIP3    H143085   3.339   1.509   5.496 -2.3631  0.7842 -1.8682
 7198TIP3    H243086   3.250   1.415   5.573 -0.4862 -0.0888 -0.7393
 7199TIP3   OH243087   5.135   5.499   3.698  0.0310  0.8911  0.4677
 7199TIP3    H143088   5.120   5.407   3.678 -0.8206  0.8373  1.3193
 7199TIP3    H243089   5.217   5.500   3.746  1.8526  0.9662 -2.5333
 7200TIP3   OH243090   4.791   1.825   2.196 -0.6820 -0.4901  0.3612
 7200TIP3    H143091   4.846   1.797   2.270 -0.7924 -2.1429 -0.1555
 7200TIP3    H243092   4.785   1.920   2.205  2.2019 -0.2688  0.4853
 7201TIP3   OH243093   2.661   6.297  12.219  0.6524 -0.6413 -0.3662
 7201TIP3    H143094   2.688   6.378  12.175  0.3417 -0.9095 -1.0518
 7201TIP3    H243095   2.608   6.328  12.293  1.0613 -0.1973 -0.2526
 7202TIP3   OH243096   4.722   5.468  12.310 -0.3239  0.1499 -0.2839
 7202TIP3    H143097   4.681   5.389  12.274  0.3675 -0.2391 -0.2230
 7202TIP3    H243098   4.739   5.524  12.234 -0.2725 -0.0147 -0.3923
 7203TIP3   OH243099   2.434   4.829   0.142  0.1164  0.0699  0.2879
 7203TIP3    H143100   2.339   4.831   0.157  0.3832 -0.7036  2.1319
 7203TIP3    H243101   2.453   4.737   0.122  0.1873  0.5834 -2.2188
 7204TIP3   OH243102   6.762   2.538  12.870 -0.5356  0.0301  0.2383
 7204TIP3    H143103   6.839   2.586  12.841 -0.5380 -0.2051 -0.1626
 7204TIP3    H243104   6.688   2.596  12.850 -0.4601  0.3040  0.7285
 7205TIP3   OH243105   3.002   4.682   5.195  0.3732  0.3284 -0.4319
 7205TIP3    H143106   3.036   4.607   5.244  1.4518  2.3338  2.0069
 7205TIP3    H243107   3.074   4.710   5.139  0.3210  0.1902 -0.5687
 7206TIP3   OH243108   2.492   4.649  14.055  0.1993 -0.2481 -0.2124
 7206TIP3    H143109   2.412   4.697  14.078  0.5488  0.1645  0.1650
 7206TIP3    H243110   2.530   4.699  13.982  0.3155 -0.2231 -0.1350
 7207TIP3   OH243111   2.667   4.870   3.550  0.0434 -0.3052 -0.6691
 7207TIP3    H143112   2.709   4.902   3.470 -0.0383  0.6506 -0.3396
 7207TIP3    H243113   2.641   4.780   3.529  0.7151 -0.3238 -1.4521
 7208TIP3   OH243114   5.579   5.212  15.916 -0.6524 -0.1355  0.9874
 7208TIP3    H143115   5.673   5.210  15.896 -0.9573  0.7601 -0.5989
 7208TIP3    H243116   5.536   5.203  15.831 -2.0367 -2.5108  1.8963
 7209TIP3   OH243117   4.667   2.624   4.462  0.0059  0.2252  0.2652
 7209TIP3    H143118   4.743   2.649   4.514  0.0274  2.0769 -0.6421
 7209TIP3    H243119   4.635   2.544   4.505  1.5446  0.2710  1.5578
 7210TIP3   OH243120   0.200   5.796  11.781  0.5511 -0.3067  0.0913
 7210TIP3    H143121   0.105   5.802  11.788  0.4466 -0.6011 -0.9734
 7210TIP3    H243122   0.223   5.860  11.714  1.1317 -0.0491  0.5339
 7211TIP3   OH243123   5.710   4.087   0.497 -0.2223 -0.1188  0.4854
 7211TIP3    H143124   5.764   4.079   0.419 -0.0287 -1.1880  0.7206
 7211TIP3    H243125   5.772   4.104   0.568 -0.2979 -0.1775  0.5660
 7212TIP3   OH243126   4.559   2.968   3.349 -0.4295  0.2244  0.5283
 7212TIP3    H143127   4.644   2.924   3.351 -0.3881  0.3525  1.4424
 7212TIP3    H243128   4.496   2.897   3.339 -0.0927  0.2764 -2.4092
 7213TIP3   OH243129   0.186   4.412  14.318 -0.3919 -0.0298 -0.5355
 7213TIP3    H143130   0.096   4.444  14.322 -0.6116 -0.3771 -2.4633
 7213TIP3    H243131   0.181   4.324  14.356 -1.0935 -0.5006 -1.6976
 7214TIP3   OH243132   2.708   1.247  12.122  0.2096  0.6235 -0.5805
 7214TIP3    H143133   2.679   1.181  12.059 -0.9101 -0.0101  0.5796
 7214TIP3    H243134   2.659   1.227  12.202  3.1074  0.1314  1.1350
 7215TIP3   OH243135   2.380   6.035   1.375 -0.1808 -0.2107  0.2612
 7215TIP3    H143136   2.332   6.038   1.458 -1.4314 -4.1284 -0.2301
 7215TIP3    H243137   2.417   5.947   1.372  1.6061  0.5785 -2.4168
 7216TIP3   OH243138   2.615   3.489   0.482  0.4613 -0.0070  0.3637
 7216TIP3    H143139   2.526   3.517   0.500  0.6829  0.5199  0.6498
 7216TIP3    H243140   2.610   3.393   0.479  0.1417 -0.0524  1.7943
 7217TIP3   OH243141   0.116   1.241  12.259  0.3164 -0.2981  0.0289
 7217TIP3    H143142   0.025   1.257  12.233  0.3465  0.1522  0.1990
 7217TIP3    H243143   0.116   1.253  12.354  0.8146  0.9444 -0.1224
 7218TIP3   OH243144   4.390   1.909  12.424 -0.2015  0.0960  0.0248
 7218TIP3    H143145   4.302   1.947  12.423 -0.3042 -0.1376 -0.0136
 7218TIP3    H243146   4.412   1.896  12.331 -0.5157 -0.7205  0.0571
 7219TIP3   OH243147   0.127   6.012   0.643 -0.9258  0.3094 -0.0734
 7219TIP3    H143148   0.072   6.024   0.565 -1.2334  1.5923  0.3364
 7219TIP3    H243149   0.175   6.095   0.651 -0.8401  0.1465  1.0708
 7220TIP3   OH243150   2.524   0.040   5.895 -0.6547 -0.0542  0.4740
 7220TIP3    H143151   2.488   0.122   5.928  0.4512  0.5067  0.3025
 7220TIP3    H243152   2.581   0.066   5.823  1.5561 -0.7672  1.9319
 7221TIP3   OH243153   2.439   5.234   4.385 -0.7581 -0.0231 -0.0815
 7221TIP3    H143154   2.370   5.297   4.368  0.6583  1.8128  0.8312
 7221TIP3    H243155   2.467   5.252   4.475  0.4681 -1.1812 -0.2101
 7222TIP3   OH243156   2.506   6.585   5.872 -0.1640 -0.4237  0.2742
 7222TIP3    H143157   2.561   6.568   5.795  1.0326 -1.6191  1.3799
 7222TIP3    H243158   2.501   6.680   5.877  0.8955 -0.3238 -0.4852
 7223TIP3   OH243159   1.269   1.278   3.023 -0.1242  0.1571  0.1086
 7223TIP3    H143160   1.303   1.274   2.933  0.7499  0.5478  0.4226
 7223TIP3    H243161   1.235   1.367   3.032 -0.3033  0.0865  0.1371
 7224TIP3   OH243162   3.370   5.947   4.157  0.0589  0.3676  0.4615
 7224TIP3    H143163   3.356   5.856   4.182  0.1143 -0.1150 -1.1537
 7224TIP3    H243164   3.465   5.960   4.168 -0.3212  1.0692  3.2622
 7225TIP3   OH243165   4.390   4.406   3.329 -0.4225  0.0489 -0.8422
 7225TIP3    H143166   4.453   4.346   3.368  1.1217  1.1218 -1.6260
 7225TIP3    H243167   4.305   4.379   3.365  0.7159 -0.1682  1.7653
 7226TIP3   OH243168   1.117   5.456   3.047  0.6806  0.0066 -0.0801
 7226TIP3    H143169   1.198   5.504   3.029  0.1994  0.3149 -1.5133
 7226TIP3    H243170   1.145   5.368   3.071  1.4819  0.3838  0.3519
 7227TIP3   OH243171   4.703   1.056  10.696  0.1422 -0.1428  0.0427
 7227TIP3    H143172   4.760   1.095  10.761  1.0884  0.5120 -1.1637
 7227TIP3    H243173   4.744   1.075  10.612 -1.7050  0.1144 -0.8468
 7228TIP3   OH243174   3.824   1.096   5.278 -0.3276  0.2090  0.6697
 7228TIP3    H143175   3.861   1.145   5.352  0.0801  1.6581 -0.4618
 7228TIP3    H243176   3.734   1.077   5.304 -1.3048  3.8055  0.1117
 7229TIP3   OH243177   4.949   3.711  17.112  0.2735 -0.4440 -0.1138
 7229TIP3    H143178   4.954   3.616  17.118  2.7134 -0.2988  0.7708
 7229TIP3    H243179   5.005   3.734  17.038 -0.6604  0.2906 -0.6123
 7230TIP3   OH243180   2.841   1.245  14.928  0.1140 -0.1440  0.4776
 7230TIP3    H143181   2.771   1.257  14.993 -0.1006  0.8563  0.0714
 7230TIP3    H243182   2.882   1.331  14.921  0.8443 -0.5176  0.0863
 7231TIP3   OH243183   3.525   5.681   4.449 -0.5552 -0.3234 -0.1829
 7231TIP3    H143184   3.480   5.765   4.446  0.5000  0.3103  0.9538
 7231TIP3    H243185   3.456   5.617   4.467 -1.0164  0.6356  1.6051
 7232TIP3   OH243186   1.965   1.292  14.467  0.2894  0.0965 -0.4580
 7232TIP3    H143187   2.043   1.303  14.520  0.8876  0.2129 -1.3564
 7232TIP3    H243188   1.998   1.267  14.381 -0.7245 -1.9185 -0.3093
 7233TIP3   OH243189   5.324   2.444  11.560 -0.3302  0.0159  0.4882
 7233TIP3    H143190   5.356   2.505  11.626  0.1613 -3.0559  3.1924
 7233TIP3    H243191   5.404   2.413  11.517 -0.1205 -2.5301  2.6211
 7234TIP3   OH243192   5.345   4.797   1.682  0.2089 -0.1732  0.5979
 7234TIP3    H143193   5.417   4.855   1.708  0.0468  0.8162 -1.0577
 7234TIP3    H243194   5.387   4.728   1.631 -0.0054  0.4700 -0.4709
 7235TIP3   OH243195   3.081   2.389  14.353  1.0668 -0.0553  0.7372
 7235TIP3    H143196   3.089   2.310  14.300 -0.2470  1.4047 -1.7115
 7235TIP3    H243197   3.163   2.393  14.402  2.9225 -0.7694 -2.1582
 7236TIP3   OH243198   5.838   3.432  11.408 -0.2050 -0.2896  0.0201
 7236TIP3    H143199   5.842   3.492  11.483  0.6953 -1.0032  0.5453
 7236TIP3    H243200   5.786   3.358  11.439 -0.1910 -0.3863 -0.1873
 7237TIP3   OH243201   3.516   5.028  16.424 -0.0399  0.5379  0.3782
 7237TIP3    H143202   3.601   5.055  16.461 -0.4264 -0.8428  2.3506
 7237TIP3    H243203   3.525   5.043  16.330  2.1241  1.1412  0.6540
 7238TIP3   OH243204   3.026   5.102  14.003  0.3724 -0.5702  0.5932
 7238TIP3    H143205   3.029   5.013  14.039 -0.0946 -0.8987 -0.1700
 7238TIP3    H243206   3.073   5.156  14.068  0.6565 -1.3677  1.0577
 7239TIP3   OH243207   6.662   4.146   0.595 -0.1017 -0.5699  0.3922
 7239TIP3    H143208   6.677   4.055   0.568  0.3170 -0.2861 -0.3338
 7239TIP3    H243209   6.743   4.191   0.574 -1.2268  0.5342 -1.6778
 7240TIP3   OH243210   1.169   5.533   2.438 -0.9158 -0.2226  0.1971
 7240TIP3    H143211   1.156   5.537   2.532  0.4694 -2.1168  0.5005
 7240TIP3    H243212   1.263   5.545   2.426 -0.8762 -1.4361 -0.8201
 7241TIP3   OH243213   5.668   1.749  11.079  0.1395  0.5509 -0.0918
 7241TIP3    H143214   5.759   1.750  11.108  0.0924 -0.8619  0.1337
 7241TIP3    H243215   5.667   1.800  10.998  1.3235 -0.3068 -0.6490
 7242TIP3   OH243216   4.261   2.429   2.686 -0.0261 -0.3884  0.1149
 7242TIP3    H143217   4.308   2.415   2.604  1.1044 -0.6621  0.7863
 7242TIP3    H243218   4.286   2.518   2.712 -0.6283 -0.1879 -0.0007
 7243TIP3   OH243219   5.156   3.205  11.910 -0.2274  0.4159 -0.4062
 7243TIP3    H143220   5.139   3.241  11.823 -0.6536  0.9814 -0.0826
 7243TIP3    H243221   5.247   3.229  11.928 -0.6671  1.7845  0.0316
 7244TIP3   OH243222   3.401   3.887  14.473 -0.7551  0.4339  0.7528
 7244TIP3    H143223   3.345   3.809  14.476  1.2330 -1.0640  0.2449
 7244TIP3    H243224   3.395   3.923  14.562 -0.6947 -1.0523  1.3832
 7245TIP3   OH243225   5.821   5.985  17.083 -0.3864 -0.0065 -0.0033
 7245TIP3    H143226   5.740   5.934  17.077 -0.3466  0.0460 -1.1513
 7245TIP3    H243227   5.797   6.072  17.053 -0.2381  0.4112  1.0783
 7246TIP3   OH243228   3.712   1.668  15.305 -0.0798  0.2853 -0.2939
 7246TIP3    H143229   3.733   1.675  15.398  0.2076 -2.1755 -0.1388
 7246TIP3    H243230   3.749   1.747  15.266  2.0002  0.1635  1.3263
 7247TIP3   OH243231   1.171   6.567   5.206 -0.8924  0.3522 -0.2979
 7247TIP3    H143232   1.204   6.541   5.292  2.5109  1.4726 -1.1963
 7247TIP3    H243233   1.208   6.502   5.146 -1.3845  0.8973 -1.1986
 7248TIP3   OH243234   4.086   1.605   1.258  0.1243 -0.0969  0.4961
 7248TIP3    H143235   4.116   1.537   1.317  0.7025  0.0745  0.3991
 7248TIP3    H243236   4.130   1.587   1.175  0.5451  0.5931  0.5664
 7249TIP3   OH243237   0.230   1.728   5.220 -1.1049  0.4656 -0.5008
 7249TIP3    H143238   0.303   1.682   5.177 -1.6504 -0.6884 -0.1910
 7249TIP3    H243239   0.239   1.706   5.312 -1.9116  0.2223 -0.4759
 7250TIP3   OH243240   1.811   0.566   0.572 -0.2427 -0.3805  0.1690
 7250TIP3    H143241   1.886   0.515   0.543 -0.2810 -0.0890 -0.4553
 7250TIP3    H243242   1.749   0.561   0.499 -0.3646  0.3049  0.2230
 7251TIP3   OH243243   3.276   5.339   0.758  0.0413  0.2778 -0.3328
 7251TIP3    H143244   3.288   5.311   0.849  0.8964  1.4445 -0.0718
 7251TIP3    H243245   3.347   5.401   0.742 -0.0181 -0.0106 -1.8451
 7252TIP3   OH243246   0.351   4.594  15.779 -0.1859  0.0804  0.2318
 7252TIP3    H143247   0.351   4.556  15.867 -2.9365 -0.4901  0.0178
 7252TIP3    H243248   0.364   4.688  15.793  0.2927 -0.1211  1.1763
 7253TIP3   OH243249   3.985   2.600   5.491 -0.2559 -0.5601 -0.1860
 7253TIP3    H143250   3.918   2.638   5.548  2.0600  1.1913  1.4519
 7253TIP3    H243251   4.018   2.524   5.540  2.2775  1.4016  1.2168
 7254TIP3   OH243252   4.177   4.913   1.563 -0.2044  0.1575 -0.1221
 7254TIP3    H143253   4.167   4.823   1.592  1.9151  0.2925  1.1510
 7254TIP3    H243254   4.142   4.966   1.634  1.4566  0.3937  0.5432
 7255TIP3   OH243255   0.295   2.661   6.737 -0.2755  0.0243  0.0146
 7255TIP3    H143256   0.200   2.670   6.742 -0.2694 -1.3698  3.6923
 7255TIP3    H243257   0.310   2.566   6.739  1.2199  0.2173 -0.9937
 7256TIP3   OH243258   2.311   5.958   3.958  0.3529  0.2269 -0.1232
 7256TIP3    H143259   2.366   5.933   3.884 -0.2808 -1.4552 -0.0303
 7256TIP3    H243260   2.362   6.025   4.003  1.1202  0.6620 -1.5863
 7257TIP3   OH243261   4.710   0.658   5.424  0.1873 -0.3703 -0.1059
 7257TIP3    H143262   4.670   0.625   5.505  1.2929 -1.1923  0.1167
 7257TIP3    H243263   4.762   0.733   5.452 -0.8710  0.4572 -0.3360
 7258TIP3   OH243264   4.790   3.353   2.951 -0.3244 -0.0766  0.0474
 7258TIP3    H143265   4.707   3.399   2.936 -0.0636 -0.0335 -1.2500
 7258TIP3    H243266   4.779   3.314   3.038 -1.5226  0.3292  0.0929
 7259TIP3   OH243267   1.094   4.898  14.916 -0.1960 -0.6249 -0.5405
 7259TIP3    H143268   1.142   4.828  14.871 -2.6263 -0.6970 -3.2031
 7259TIP3    H243269   1.104   4.974  14.859  1.4649  0.9470  1.7627
 7260TIP3   OH243270   5.356   4.197  11.418 -0.4443  0.2288 -0.5135
 7260TIP3    H143271   5.354   4.267  11.483  0.4756 -1.3813  1.2888
 7260TIP3    H243272   5.403   4.235  11.343  0.2481  1.4606  0.5235
 7261TIP3   OH243273   3.700   3.115  11.686  0.0022  0.2830 -0.0819
 7261TIP3    H143274   3.754   3.089  11.611  0.3675  0.9544 -0.0579
 7261TIP3    H243275   3.612   3.085  11.664  0.4738 -1.2490  0.0935
 7262TIP3   OH243276   4.573   4.952  12.516 -0.1821 -0.1256 -0.1290
 7262TIP3    H143277   4.488   4.930  12.478  1.3594 -3.7293 -1.6734
 7262TIP3    H243278   4.635   4.945  12.444  1.8710 -0.6103  1.6258
 7263TIP3   OH243279   5.853   6.441   0.674  0.5010  0.1877  0.1881
 7263TIP3    H143280   5.867   6.431   0.768  0.3362  1.0890  0.3135
 7263TIP3    H243281   5.903   6.519   0.651  0.3129  0.1283 -0.4243
 7264TIP3   OH243282   6.179   6.287   1.532  0.4807  0.5092  0.4547
 7264TIP3    H143283   6.176   6.356   1.465  1.2353  0.7692  0.6753
 7264TIP3    H243284   6.092   6.287   1.572  0.1028  0.5133 -0.3686
 7265TIP3   OH243285   1.617   1.065   1.899 -0.0956  0.0873 -0.2671
 7265TIP3    H143286   1.691   1.120   1.872 -0.1332  0.3904  0.2445
 7265TIP3    H243287   1.554   1.126   1.937 -0.4144 -0.2285 -0.2885
 7266TIP3   OH243288   2.338   6.586   1.224 -0.1831 -0.1209  0.2855
 7266TIP3    H143289   2.372   6.628   1.303 -0.3486  1.3562 -0.4056
 7266TIP3    H243290   2.326   6.495   1.249  0.6517  0.1309  1.6869
 7267TIP3   OH243291   1.680   5.033   2.694  0.0035  0.1921 -0.2057
 7267TIP3    H143292   1.740   4.983   2.639 -1.1302 -1.4187 -0.0233
 7267TIP3    H243293   1.734   5.101   2.733  0.9115  1.2180 -3.0834
 7268TIP3   OH243294   0.404   0.611  12.730 -0.0416  0.3926  0.3327
 7268TIP3    H143295   0.445   0.674  12.671 -0.0357  0.1672  0.0937
 7268TIP3    H243296   0.314   0.642  12.740 -1.4813 -2.0615 -3.5132
 7269TIP3   OH243297   2.290   3.853  13.246  0.2209  0.0144 -0.0152
 7269TIP3    H143298   2.371   3.812  13.217  0.6480  1.3492 -0.7549
 7269TIP3    H243299   2.249   3.884  13.165  0.1835  1.5215  0.5572
 7270TIP3   OH243300   4.716   3.294  13.939  0.0573  0.5787  0.1220
 7270TIP3    H143301   4.675   3.329  14.018  0.7640 -0.3190  0.8950
 7270TIP3    H243302   4.743   3.205  13.963 -1.5373 -0.4533 -1.7424
 7271TIP3   OH243303   5.275   6.745  16.377  0.3790 -0.6010  0.3504
 7271TIP3    H143304   5.307   6.722  16.464  0.2791  0.1002  0.5785
 7271TIP3    H243305   5.346   6.723  16.317  0.7898 -0.2456  0.7122
 7272TIP3   OH243306   4.347   3.481  10.955  0.1566 -0.0629 -0.3286
 7272TIP3    H143307   4.313   3.520  11.036 -0.6481 -0.5863 -0.4151
 7272TIP3    H243308   4.436   3.455  10.978 -0.6959 -1.9400  0.9805
 7273TIP3   OH243309   4.726   0.311   2.394 -0.1856 -0.1056  0.1183
 7273TIP3    H143310   4.691   0.229   2.429  0.0723  0.5640  2.0150
 7273TIP3    H243311   4.650   0.370   2.391  0.0082  0.1662  0.5585
 7274TIP3   OH243312   5.470   4.548  15.562  0.0481  0.1958  0.0206
 7274TIP3    H143313   5.455   4.624  15.506  0.2812  0.1503 -0.0993
 7274TIP3    H243314   5.565   4.537  15.564  0.0869  0.6006  0.9554
 7275TIP3   OH243315   5.014   1.233   1.918 -0.4225 -0.4970 -0.2061
 7275TIP3    H143316   4.940   1.246   1.859 -0.6231 -3.0651 -0.5708
 7275TIP3    H243317   4.982   1.170   1.983  0.9556 -0.4761  0.5095
 7276TIP3   OH243318   5.105   6.732  15.561 -0.4423  0.4543 -0.1987
 7276TIP3    H143319   5.102   6.776  15.646  0.0558  0.4571 -0.1795
 7276TIP3    H243320   5.151   6.650  15.578 -0.5822  0.3339 -0.4097
 7277TIP3   OH243321   1.334   3.490  14.901  0.1287 -0.1664  0.1331
 7277TIP3    H143322   1.381   3.502  14.984  1.3440  0.2737 -0.6057
 7277TIP3    H243323   1.253   3.446  14.926  0.4848 -0.0482  1.5587
 7278TIP3   OH243324   0.005   4.813   4.384 -0.5208  0.7423 -0.0356
 7278TIP3    H143325  -0.077   4.859   4.403  0.5781  3.1952 -1.0165
 7278TIP3    H243326   0.066   4.882   4.360  1.6996 -1.1096  0.1313
 7279TIP3   OH243327   1.144   2.042  16.880  0.2514  0.0736  0.7624
 7279TIP3    H143328   1.184   2.111  16.827  1.4923 -0.1654  1.3551
 7279TIP3    H243329   1.098   2.089  16.949 -1.8977  0.4041 -0.8650
 7280TIP3   OH243330   1.892   2.816   1.143 -0.4262  0.4294 -0.7183
 7280TIP3    H143331   1.851   2.853   1.064  0.2749  1.5642 -0.5502
 7280TIP3    H243332   1.880   2.882   1.210 -0.7062 -0.3908  0.0531
 7281TIP3   OH243333   5.046   1.629   0.468 -0.2012  0.4217  0.5024
 7281TIP3    H143334   5.100   1.682   0.410 -2.0626  1.2311 -0.5090
 7281TIP3    H243335   4.967   1.680   0.483 -1.2245 -1.2421  1.0295
 7282TIP3   OH243336   2.781   3.531   3.539 -0.1560  0.0370 -0.4459
 7282TIP3    H143337   2.709   3.513   3.479 -1.2227  1.7077  0.2881
 7282TIP3    H243338   2.859   3.502   3.492 -1.0901  0.1335 -2.1116
 7283TIP3   OH243339   1.323   2.945  13.840 -0.3848  0.4091  0.5644
 7283TIP3    H143340   1.296   2.923  13.751 -2.4496 -0.2741  1.3231
 7283TIP3    H243341   1.350   2.862  13.879 -0.9129  0.4495  1.0318
 7284TIP3   OH243342   0.677   6.777  14.965  0.3492 -0.2865 -0.7680
 7284TIP3    H143343   0.643   6.749  14.880 -1.3136  1.7260 -0.8095
 7284TIP3    H243344   0.762   6.733  14.973 -0.2395 -1.8481 -2.6914
 7285TIP3   OH243345   4.752   2.448  12.542 -0.2302  0.1716  0.6107
 7285TIP3    H143346   4.806   2.480  12.614  1.8313 -0.1277 -0.7618
 7285TIP3    H243347   4.808   2.386  12.496 -1.2513  0.9007 -1.6965
 7286TIP3   OH243348   6.509   3.229   3.627 -0.8405 -0.5708  0.6059
 7286TIP3    H143349   6.472   3.232   3.715  1.1142 -0.2438  1.4478
 7286TIP3    H243350   6.604   3.227   3.641 -0.4101  2.1726 -1.5155
 7287TIP3   OH243351   2.114   2.619  14.243  0.5968 -0.0122  0.1899
 7287TIP3    H143352   2.191   2.647  14.193  1.3172 -1.3617  0.5408
 7287TIP3    H243353   2.040   2.642  14.186  1.2552  1.0415 -0.2684
 7288TIP3   OH243354   1.554   1.324  12.189 -0.0180 -0.2481  0.3417
 7288TIP3    H143355   1.527   1.414  12.174  1.9173  0.1150 -1.0719
 7288TIP3    H243356   1.644   1.330  12.220 -0.2155 -1.6493  1.2674
 7289TIP3   OH243357   1.127   5.323   5.599 -0.2183 -0.4691 -0.3837
 7289TIP3    H143358   1.099   5.360   5.515 -0.1261 -1.5114 -0.8877
 7289TIP3    H243359   1.222   5.335   5.600 -0.4043  1.0191  0.3103
 7290TIP3   OH243360   1.007   4.983  10.955 -0.1690  0.6500 -0.1598
 7290TIP3    H143361   1.074   4.914  10.947 -0.3996  0.3942  0.1237
 7290TIP3    H243362   1.050   5.061  10.920  0.3099  0.5032  0.0880
 7291TIP3   OH243363   3.791   3.268  11.339  0.3016 -0.4229  0.2320
 7291TIP3    H143364   3.833   3.341  11.293  1.6334 -1.8873 -0.9044
 7291TIP3    H243365   3.708   3.305  11.370  0.6669  1.4065 -0.8748
 7292TIP3   OH243366   2.952   3.369  16.889  0.3116  0.5866  0.3845
 7292TIP3    H143367   2.935   3.355  16.796  1.1148  0.1054  0.3058
 7292TIP3    H243368   2.865   3.386  16.927 -0.0811  0.2871 -0.3651
 7293TIP3   OH243369   3.229   5.758  15.482  0.1788  0.6611  0.6444
 7293TIP3    H143370   3.201   5.705  15.556 -0.0411 -0.3734 -0.1700
 7293TIP3    H243371   3.315   5.792  15.508 -0.0064  0.5200  1.4690
 7294TIP3   OH243372   2.168   6.026   3.314 -0.0691  0.0064  0.0972
 7294TIP3    H143373   2.210   5.996   3.394  0.2220 -1.7127 -0.6803
 7294TIP3    H243374   2.105   5.957   3.293  1.5347 -0.7651 -2.4378
 7295TIP3   OH243375   1.609   2.900   6.177  0.5032  0.3747  0.7924
 7295TIP3    H143376   1.563   2.964   6.232 -0.7770 -0.0407  0.2219
 7295TIP3    H243377   1.700   2.930   6.177 -0.1533  2.4741  0.1657
 7296TIP3   OH243378   1.226   6.134  13.058 -0.1228 -0.5134 -0.1479
 7296TIP3    H143379   1.175   6.057  13.084  1.0332 -1.0938  0.4096
 7296TIP3    H243380   1.316   6.113  13.083  0.0438  1.4740  1.0473
 7297TIP3   OH243381   3.560   0.139   6.166  0.1851  0.9963  0.2356
 7297TIP3    H143382   3.553   0.193   6.087 -0.7770  2.6282  1.4104
 7297TIP3    H243383   3.519   0.192   6.235 -0.6798 -1.1985  1.4377
 7298TIP3   OH243384   3.730   5.596  14.155 -0.1628  0.1656 -0.4022
 7298TIP3    H143385   3.718   5.511  14.197 -1.6684  0.0986 -0.9177
 7298TIP3    H243386   3.749   5.656  14.227 -1.0348 -0.2589  0.1893
 7299TIP3   OH243387   1.580   0.111  17.125 -0.3769 -0.4401  0.1431
 7299TIP3    H143388   1.551   0.106  17.217 -2.0890 -0.3263 -0.3801
 7299TIP3    H243389   1.513   0.163  17.082 -0.0738 -1.3083 -1.3873
 7300TIP3   OH243390   1.200   1.490  12.193 -0.4208  0.4763 -0.0957
 7300TIP3    H143391   1.139   1.514  12.262 -1.4115  0.2227 -0.8769
 7300TIP3    H243392   1.248   1.571  12.174 -1.3659  0.9850 -0.3262
 7301TIP3   OH243393   4.162   6.796  15.116 -0.6297  0.4750 -0.4884
 7301TIP3    H143394   4.206   6.715  15.142  0.4724  0.2293 -2.9423
 7301TIP3    H243395   4.069   6.774  15.114 -0.4061 -0.4792 -0.2991
 7302TIP3   OH243396   2.051   4.740   6.048  0.2987 -0.6388 -0.1315
 7302TIP3    H143397   1.961   4.711   6.065  0.1054 -0.0126 -0.1031
 7302TIP3    H243398   2.104   4.662   6.067 -0.1925 -0.8771  0.2991
 7303TIP3   OH243399   4.903   3.437   3.624  0.1249  0.1909 -0.2785
 7303TIP3    H143400   4.865   3.356   3.590  0.1796  0.3336 -0.6740
 7303TIP3    H243401   4.911   3.495   3.548  2.7273 -0.4436 -0.5391
 7304TIP3   OH243402   5.711   6.454   3.664 -0.1426  0.3356 -0.1200
 7304TIP3    H143403   5.757   6.395   3.723  1.4851  0.6098 -1.0817
 7304TIP3    H243404   5.624   6.415   3.653  0.7985 -1.7122 -0.4884
 7305TIP3   OH243405   1.304   0.168   5.467  0.4116  0.3959  0.4763
 7305TIP3    H143406   1.348   0.094   5.510  0.9977  0.1245 -0.5775
 7305TIP3    H243407   1.282   0.228   5.539  0.2942 -0.6140  1.2863
 7306TIP3   OH243408   4.149   3.230   3.314 -0.2389 -0.2553 -0.5279
 7306TIP3    H143409   4.188   3.296   3.370 -2.2983  1.1964 -0.7329
 7306TIP3    H243410   4.185   3.247   3.227 -0.8764  0.7188 -0.6090
 7307TIP3   OH243411   1.891   3.842  11.232  0.5687  0.8962 -0.2542
 7307TIP3    H143412   1.965   3.797  11.274 -0.6110 -0.0068  0.9103
 7307TIP3    H243413   1.883   3.800  11.146  1.3358  0.9118 -0.3331
 7308TIP3   OH243414   4.284   3.778  12.250 -0.3233  0.9354 -0.1005
 7308TIP3    H143415   4.250   3.735  12.329  2.1265  1.7939  1.4557
 7308TIP3    H243416   4.325   3.707  12.201 -1.2707  0.5173 -0.3076
 7309TIP3   OH243417   6.270   6.450   5.212  0.8135  0.3359 -0.1200
 7309TIP3    H143418   6.298   6.539   5.193  1.1880  0.2388 -0.0251
 7309TIP3    H243419   6.307   6.431   5.298  0.4563  0.2083  0.0087
 7310TIP3   OH243420   0.732   3.273  16.681  0.0431  0.1802 -0.4800
 7310TIP3    H143421   0.739   3.284  16.775  0.4894  2.5959 -0.7786
 7310TIP3    H243422   0.659   3.212  16.670  0.3733 -0.5928  1.4272
 7311TIP3   OH243423   5.883   5.026  13.538  0.4002  0.5557  0.1000
 7311TIP3    H143424   5.840   5.111  13.542  0.0447  0.3549  0.5371
 7311TIP3    H243425   5.951   5.037  13.471 -1.7517  0.2164 -2.1816
 7312TIP3   OH243426   0.941   5.336   4.408 -0.2602 -0.2219 -0.3512
 7312TIP3    H143427   0.901   5.395   4.472  0.6006 -0.6779  0.6310
 7312TIP3    H243428   1.016   5.299   4.454 -1.3174 -2.8084 -0.6016
 7313TIP3   OH243429   0.451   1.452  14.582  0.4857 -0.5519 -0.5678
 7313TIP3    H143430   0.439   1.503  14.502  0.3915  0.5050  0.1162
 7313TIP3    H243431   0.545   1.453  14.597  0.4954 -0.6809 -0.6207
 7314TIP3   OH243432   3.541   5.183  13.094 -0.0305  0.6334  0.1144
 7314TIP3    H143433   3.634   5.207  13.086  0.1630  0.0261  0.4703
 7314TIP3    H243434   3.513   5.167  13.005  0.5760 -0.5184  0.1277
 7315TIP3   OH243435   4.199   0.777  16.702  0.3722 -0.0768 -0.7991
 7315TIP3    H143436   4.164   0.866  16.705 -0.2459 -0.3247 -0.6234
 7315TIP3    H243437   4.130   0.723  16.740  0.8503 -0.5998 -0.6725
 7316TIP3   OH243438   3.508   0.473   2.955 -0.4918 -0.6547  0.0494
 7316TIP3    H143439   3.441   0.429   3.007 -0.5202 -1.2140 -0.4662
 7316TIP3    H243440   3.492   0.445   2.865  1.1634 -1.7433  0.0603
 7317TIP3   OH243441   6.348   3.416  11.520 -0.1461  0.4830  0.0495
 7317TIP3    H143442   6.405   3.492  11.534  0.5393  0.0778 -0.5315
 7317TIP3    H243443   6.355   3.398  11.426 -2.0895  1.1003 -0.2544
 7318TIP3   OH243444   0.260   6.759   4.103  0.0040  0.2489 -0.1726
 7318TIP3    H143445   0.339   6.757   4.157 -0.1247  2.2268  0.1473
 7318TIP3    H243446   0.200   6.698   4.146  0.0432  1.5202  1.7772
 7319TIP3   OH243447   4.259   2.740  12.790  0.8960 -0.3367 -0.0837
 7319TIP3    H143448   4.347   2.736  12.752  0.6265  1.0655 -0.8980
 7319TIP3    H243449   4.203   2.693  12.728  1.3055 -2.5979  1.2101
 7320TIP3   OH243450   2.156   6.306  15.096  0.2253 -0.5262 -0.2292
 7320TIP3    H143451   2.161   6.365  15.020 -1.8351 -1.4408 -1.1373
 7320TIP3    H243452   2.239   6.258  15.094  1.1701  1.0678 -0.5378
 7321TIP3   OH243453   4.389   6.241  16.405  0.0058 -0.9994 -0.1923
 7321TIP3    H143454   4.378   6.306  16.335  1.4968 -0.8803 -0.3385
 7321TIP3    H243455   4.471   6.196  16.383  0.6084 -0.8120  1.6058
 7322TIP3   OH243456   0.343   6.315   2.922  0.1680 -0.2311  0.4375
 7322TIP3    H143457   0.289   6.253   2.972 -0.7476  1.3507  1.4583
 7322TIP3    H243458   0.426   6.317   2.969 -0.3480  0.4879  1.3587
 7323TIP3   OH243459   5.879   0.676   0.660 -0.3929 -0.2476  0.2485
 7323TIP3    H143460   5.832   0.668   0.577 -2.0992 -1.1638  1.2635
 7323TIP3    H243461   5.819   0.640   0.725  0.6216  1.0793  1.9881
 7324TIP3   OH243462   4.740   4.100  16.833  0.2095  0.8074  0.1484
 7324TIP3    H143463   4.654   4.141  16.847 -0.4126 -0.1966 -0.6616
 7324TIP3    H243464   4.737   4.019  16.884  0.0438 -0.0438 -1.1660
 7325TIP3   OH243465   2.191   1.663  11.774  0.4329 -0.1661 -0.6672
 7325TIP3    H143466   2.122   1.599  11.789  0.5271 -0.3802 -1.1364
 7325TIP3    H243467   2.157   1.719  11.704  0.8947 -0.5084 -1.1661
 7326TIP3   OH243468   1.510   2.331  14.343  0.1407  0.3923 -0.7361
 7326TIP3    H143469   1.493   2.328  14.437  2.1754 -1.8756 -0.3949
 7326TIP3    H243470   1.493   2.423  14.319  1.8820  1.5917  2.3157
 7327TIP3   OH243471   0.407   1.624   1.629 -0.2755  0.2838 -0.2746
 7327TIP3    H143472   0.473   1.683   1.593  0.5735 -0.4682  0.0301
 7327TIP3    H243473   0.382   1.664   1.713 -0.2080  0.5554 -0.3822
 7328TIP3   OH243474   1.000   3.621   2.689  0.1176 -0.1965  0.2059
 7328TIP3    H143475   0.992   3.711   2.655 -0.6862 -0.1741  0.4414
 7328TIP3    H243476   0.952   3.568   2.625 -0.1236 -0.3489  0.5156
 7329TIP3   OH243477   1.330   6.684  12.100 -0.2872 -0.2909 -0.1332
 7329TIP3    H143478   1.316   6.674  12.006 -1.2188  0.3195 -0.0681
 7329TIP3    H243479   1.425   6.683  12.110 -0.1955 -1.0542 -1.0003
 7330TIP3   OH243480   6.171   2.923  14.124  0.4834 -0.1363  0.1793
 7330TIP3    H143481   6.099   2.901  14.065  0.8792 -2.3660  0.4625
 7330TIP3    H243482   6.148   3.008  14.160  0.0545  1.0983 -2.8993
 7331TIP3   OH243483   1.267   1.000   6.064 -0.1080 -0.2676 -0.2642
 7331TIP3    H143484   1.229   1.046   6.138  0.4576  1.1312 -0.8187
 7331TIP3    H243485   1.356   0.979   6.091  0.3757  0.9774 -0.8208
 7332TIP3   OH243486   1.706   4.864  17.046  0.5366 -0.1425  0.7915
 7332TIP3    H143487   1.642   4.933  17.063  1.2418  0.6211  0.3615
 7332TIP3    H243488   1.790   4.903  17.070  0.8343 -1.1943  1.5065
 7333TIP3   OH243489   5.728   2.935   3.121  0.1871 -0.1825 -0.3450
 7333TIP3    H143490   5.787   3.002   3.156 -1.1941  1.2154 -0.6815
 7333TIP3    H243491   5.735   2.945   3.026  0.3620 -0.8545 -0.4026
 7334TIP3   OH243492   0.872   4.993  14.611 -0.1958  0.4099 -0.0367
 7334TIP3    H143493   0.895   4.917  14.663 -1.5938 -1.1525 -1.6462
 7334TIP3    H243494   0.853   4.959  14.524  0.5579  2.7700 -1.1775
 7335TIP3   OH243495   5.951   1.173   2.852 -0.3649  0.2297  0.2324
 7335TIP3    H143496   5.872   1.196   2.802 -0.2897  0.7331  0.3451
 7335TIP3    H243497   6.014   1.147   2.785 -1.3710 -2.4829  0.2783
 7336TIP3   OH243498   3.998   3.032  17.026  0.1551 -0.3514 -0.6370
 7336TIP3    H143499   3.913   3.065  17.055  0.9562  0.8158  0.4601
 7336TIP3    H243500   4.036   3.104  16.975  1.5908  0.1910  1.1289
 7337TIP3   OH243501   2.660   1.630   1.964 -0.0567 -0.8671  0.3606
 7337TIP3    H143502   2.626   1.633   2.054 -1.1195  2.3151 -0.0886
 7337TIP3    H243503   2.585   1.606   1.911  0.4642 -2.2848  0.2421
 7338TIP3   OH243504   6.686   6.818  12.931 -0.2851  0.4918  0.4089
 7338TIP3    H143505   6.596   6.850  12.939  0.0123  1.2389  0.8632
 7338TIP3    H243506   6.708   6.832  12.839 -0.4260  0.8887  0.4319
 7339TIP3   OH243507   0.832   0.215   5.893 -0.1056 -0.0569 -0.1984
 7339TIP3    H143508   0.800   0.173   5.974 -1.5458 -0.9043 -1.1891
 7339TIP3    H243509   0.855   0.304   5.920  0.5549 -0.6815  1.3996
 7340TIP3   OH243510   1.860   6.450   3.155  0.0202 -0.3397  0.1513
 7340TIP3    H143511   1.913   6.390   3.208  0.9624 -2.6331 -3.1974
 7340TIP3    H243512   1.781   6.399   3.134 -0.8532  0.9543  0.2663
 7341TIP3   OH243513   1.681   1.062   6.830  0.0440 -0.6622 -0.2687
 7341TIP3    H143514   1.758   1.056   6.887  0.1154 -0.6582 -0.3631
 7341TIP3    H243515   1.703   1.132   6.768  0.8939 -2.1324 -1.6836
 7342TIP3   OH243516   2.044   6.086   2.030 -0.0608  0.3588 -0.1506
 7342TIP3    H143517   2.133   6.052   2.019  0.1882  0.9326  0.0810
 7342TIP3    H243518   1.999   6.017   2.078 -0.1044 -0.5009 -1.3919
 7343TIP3   OH243519   0.728   0.257  14.265  0.3130  0.0833 -0.3708
 7343TIP3    H143520   0.822   0.245  14.273  0.1478 -1.8868 -0.9963
 7343TIP3    H243521   0.704   0.206  14.187 -1.2726  0.4970 -0.1765
 7344TIP3   OH243522   4.326   0.131  15.279  0.1927 -0.9933  0.0206
 7344TIP3    H143523   4.322   0.218  15.240 -0.3926 -1.1261 -0.2210
 7344TIP3    H243524   4.251   0.084  15.242  0.2403 -1.4542  0.4974
 7345TIP3   OH243525   2.453   1.230   2.766  0.3934  0.1052 -0.0329
 7345TIP3    H143526   2.412   1.291   2.827  0.3442  0.6126 -0.5638
 7345TIP3    H243527   2.513   1.285   2.714 -1.2818  0.1264 -2.0150
 7346TIP3   OH243528   2.821   1.952  14.633 -0.9206 -0.3387  0.2258
 7346TIP3    H143529   2.759   1.890  14.672 -0.3040 -1.9972 -1.3078
 7346TIP3    H243530   2.903   1.902  14.627 -0.2834  0.7853 -0.6128
 7347TIP3   OH243531   5.117   5.800  15.516  0.1005 -0.4516 -0.0374
 7347TIP3    H143532   5.176   5.860  15.562  1.4308  0.1259 -2.4296
 7347TIP3    H243533   5.152   5.713  15.533  2.2148 -0.0525 -2.1785
 7348TIP3   OH243534   4.271   4.598   5.111 -0.5697 -0.4203 -0.6161
 7348TIP3    H143535   4.249   4.618   5.202 -1.4835 -0.3904 -0.8359
 7348TIP3    H243536   4.360   4.629   5.101 -0.1020 -1.3359  0.5554
 7349TIP3   OH243537   0.259   0.197  15.669 -0.4668  0.0596 -0.5176
 7349TIP3    H143538   0.255   0.291  15.689  1.6113 -0.2479  1.5639
 7349TIP3    H243539   0.320   0.191  15.595  0.9637  0.2073  0.6223
 7350TIP3   OH243540   6.135   5.837   0.874 -0.9806  0.1592 -0.0429
 7350TIP3    H143541   6.090   5.906   0.922 -1.4247  0.0995 -0.3776
 7350TIP3    H243542   6.066   5.779   0.843 -0.6824  0.1065 -0.6166
 7351TIP3   OH243543   0.233   4.531  13.611 -0.5008 -0.1613  0.1907
 7351TIP3    H143544   0.165   4.581  13.656 -3.0550 -1.2835 -2.3495
 7351TIP3    H243545   0.286   4.597  13.566 -0.6835  0.6073  1.0920
 7352TIP3   OH243546   4.543   6.461  12.365 -0.0710  0.0247 -0.2564
 7352TIP3    H143547   4.460   6.435  12.404 -0.9669  3.1152  0.0163
 7352TIP3    H243548   4.520   6.495  12.279  0.7849  1.5990  0.1093
 7353TIP3   OH243549   3.628   6.117   2.950 -0.1615  0.1905 -0.1984
 7353TIP3    H143550   3.688   6.042   2.945 -1.9315 -1.2212 -1.0448
 7353TIP3    H243551   3.635   6.147   3.040  1.6380 -0.1080 -0.2333
 7354TIP3   OH243552   3.189   3.698   2.378 -0.8593 -0.1597  0.2069
 7354TIP3    H143553   3.189   3.757   2.453  2.1037 -0.7635  0.7421
 7354TIP3    H243554   3.193   3.755   2.301 -2.9625  0.4269  0.4848
 7355TIP3   OH243555   5.034   3.913   3.469 -0.2767  0.4915 -0.7966
 7355TIP3    H143556   5.052   3.833   3.517  1.2568 -0.0229 -2.2151
 7355TIP3    H243557   4.940   3.927   3.480 -0.0205  0.2609  2.1285
 7356TIP3   OH243558   1.266   0.023  16.124 -0.1263  0.2277  0.3189
 7356TIP3    H143559   1.259  -0.044  16.056 -0.5856 -0.1963  0.7856
 7356TIP3    H243560   1.227  -0.017  16.201  2.0230  0.0257  1.3280
 7357TIP3   OH243561   1.607   6.649  16.169 -0.2976  0.5389  0.0329
 7357TIP3    H143562   1.526   6.598  16.178 -0.9495  1.4915 -0.3648
 7357TIP3    H243563   1.629   6.676  16.258  1.2924 -2.2926  0.5727
 7358TIP3   OH243564   5.321   4.161  11.070 -0.1359 -0.6122  0.0630
 7358TIP3    H143565   5.397   4.104  11.076  0.1705 -0.2546 -0.3722
 7358TIP3    H243566   5.353   4.241  11.027 -0.2891  0.3500  1.6916
 7359TIP3   OH243567   4.855   2.350   2.168  0.0372 -0.1508 -0.4683
 7359TIP3    H143568   4.936   2.316   2.131  0.0243 -0.5266 -0.1595
 7359TIP3    H243569   4.800   2.369   2.092 -0.4003 -1.9251 -0.6314
 7360TIP3   OH243570   1.745   2.701   2.787 -0.1167 -0.6328 -0.2352
 7360TIP3    H143571   1.821   2.759   2.793 -0.3239 -0.3544 -0.2708
 7360TIP3    H243572   1.689   2.727   2.861 -0.0477 -1.0254 -0.0422
 7361TIP3   OH243573   5.382   2.456   4.034  0.0201 -0.5783 -0.0124
 7361TIP3    H143574   5.315   2.431   3.970 -1.3134  0.6190  0.8916
 7361TIP3    H243575   5.447   2.386   4.029 -0.7792 -1.2343 -1.6455
 7362TIP3   OH243576   5.243   2.107  15.997  0.2838  0.1236  0.1391
 7362TIP3    H143577   5.334   2.107  15.966  0.1985  1.2836 -0.1495
 7362TIP3    H243578   5.195   2.059  15.930  0.6460 -0.2606  0.1533
 7363TIP3   OH243579   2.042   1.664  16.236 -0.1608  1.1389 -0.3055
 7363TIP3    H143580   2.026   1.724  16.163 -4.1604  1.1916  0.5141
 7363TIP3    H243581   2.028   1.577  16.198  2.1789  0.8695 -0.6305
 7364TIP3   OH243582   0.040   1.059  13.862  0.0715 -0.1873  0.3802
 7364TIP3    H143583   0.117   1.113  13.884 -0.7042  2.0670 -2.0950
 7364TIP3    H243584   0.059   0.974  13.900  1.9353  1.4584  3.3876
 7365TIP3   OH243585   4.508   3.016  16.592 -0.2072  0.3729  0.0791
 7365TIP3    H143586   4.516   2.934  16.543  0.4778  0.1414  0.5636
 7365TIP3    H243587   4.597   3.034  16.622 -0.5586  0.6916  0.9467
 7366TIP3   OH243588   4.795   6.491  16.748 -0.5371  0.2325  0.3672
 7366TIP3    H143589   4.851   6.538  16.810  0.3500  0.8155 -0.8497
 7366TIP3    H243590   4.706   6.506  16.780 -0.1850  1.7846  0.6539
 7367TIP3   OH243591   4.716   1.503  10.988 -0.0119  0.2876 -0.0555
 7367TIP3    H143592   4.678   1.416  11.000 -2.1024  1.1735  0.0429
 7367TIP3    H243593   4.715   1.516  10.893  1.7504 -0.3953 -0.1845
 7368TIP3   OH243594   6.652   4.144   6.317  0.1683 -0.2822 -0.1492
 7368TIP3    H143595   6.737   4.143   6.274  0.1083 -0.5289 -0.2621
 7368TIP3    H243596   6.659   4.081   6.388 -0.2008 -0.9617 -0.7081
 7369TIP3   OH243597   0.356   1.417   2.670  0.3507  0.1033  0.0826
 7369TIP3    H143598   0.375   1.467   2.591  2.1045 -2.4382 -1.1621
 7369TIP3    H243599   0.392   1.330   2.653 -2.9491 -1.7630  2.0018
 7370TIP3   OH243600   5.123   4.145   3.261  0.3481 -0.3072  0.1544
 7370TIP3    H143601   5.135   4.095   3.342  1.2348  0.9352  0.8213
 7370TIP3    H243602   5.207   4.138   3.216  1.2799  2.3663  1.3197
 7371TIP3   OH243603   5.680   3.953   6.759  0.3420  0.3941  0.3924
 7371TIP3    H143604   5.637   3.922   6.679  2.1034  1.1241 -0.8714
 7371TIP3    H243605   5.611   3.952   6.825 -1.4124  0.7615 -1.3896
 7372TIP3   OH243606   1.721   5.844  16.960 -0.3379 -0.0479 -0.3000
 7372TIP3    H143607   1.752   5.908  17.023 -0.0795 -0.5725  0.1036
 7372TIP3    H243608   1.626   5.860  16.953 -0.2275  0.5524 -0.4058
 7373TIP3   OH243609   0.684   2.410  16.207  0.4044  0.5918  0.1851
 7373TIP3    H143610   0.702   2.317  16.195  1.2738  0.6486  0.9031
 7373TIP3    H243611   0.590   2.419  16.193  0.5997 -0.0799 -1.7222
 7374TIP3   OH243612   3.216   2.618   0.673  0.6418  0.1676  0.5985
 7374TIP3    H143613   3.169   2.635   0.591  2.2529  0.5925 -0.2622
 7374TIP3    H243614   3.267   2.539   0.655  2.0113  1.0058  0.7469
 7375TIP3   OH243615   2.157   2.323  15.246 -0.2460  0.3873  0.1596
 7375TIP3    H143616   2.068   2.335  15.213  0.4492 -0.3955 -2.1002
 7375TIP3    H243617   2.145   2.286  15.333 -2.1405 -1.7196 -0.9272
 7376TIP3   OH243618   3.054   5.138  15.819  0.1357  0.9037 -0.5943
 7376TIP3    H143619   3.016   5.157  15.733 -1.0958 -1.8467 -0.7293
 7376TIP3    H243620   3.114   5.065  15.802 -0.7466 -0.2085  0.9853
 7377TIP3   OH243621   5.105   5.193  12.052  1.3095 -0.6616  0.2901
 7377TIP3    H143622   5.091   5.120  11.991  0.4570  0.8903 -1.4458
 7377TIP3    H243623   5.019   5.206  12.093  1.3604 -0.4274  0.3251
 7378TIP3   OH243624   2.747   3.359  14.233 -0.4173 -0.1968  0.0976
 7378TIP3    H143625   2.672   3.304  14.255 -0.2412 -0.1855  0.7423
 7378TIP3    H243626   2.735   3.438  14.285 -1.1681  0.7930 -1.5347
 7379TIP3   OH243627   3.500   3.933   1.386  0.3647 -0.2898  0.4644
 7379TIP3    H143628   3.526   3.975   1.304 -0.5472 -0.6148 -0.0004
 7379TIP3    H243629   3.411   3.965   1.402 -0.1022 -1.5535  0.4280
 7380TIP3   OH243630   4.236   6.198  15.724  0.1487  0.2756 -0.9270
 7380TIP3    H143631   4.279   6.280  15.750 -1.9023  0.4214  2.1736
 7380TIP3    H243632   4.306   6.133  15.728  1.1193  1.3275 -0.3826
 7381TIP3   OH243633   2.834   3.970   1.824 -0.4075  0.0479 -0.1376
 7381TIP3    H143634   2.805   4.061   1.815  0.8862  0.4090 -0.8742
 7381TIP3    H243635   2.905   3.962   1.761 -2.0335 -2.1529 -1.7779
 7382TIP3   OH243636   4.518   3.915  10.672 -0.2661  0.8393  0.3189
 7382TIP3    H143637   4.434   3.961  10.670 -1.6508 -1.4356  2.9663
 7382TIP3    H243638   4.550   3.928  10.761  1.3955  0.2708 -0.1783
 7383TIP3   OH243639   6.003   0.924  12.911 -0.6979 -0.0375 -0.4149
 7383TIP3    H143640   6.037   0.946  12.997 -0.2691  0.9787 -0.8335
 7383TIP3    H243641   6.061   0.970  12.850 -0.6183 -1.2429 -1.2694
 7384TIP3   OH243642   6.568   1.292  16.686 -0.5517  0.6438  0.0243
 7384TIP3    H143643   6.553   1.311  16.779  1.7872 -1.8039  0.9596
 7384TIP3    H243644   6.615   1.370  16.654  0.0082  0.8539  1.2945
 7385TIP3   OH243645   2.849   5.764   1.195  0.2042  0.6707 -0.0406
 7385TIP3    H143646   2.902   5.699   1.149 -2.1346 -0.3963 -1.3240
 7385TIP3    H243647   2.873   5.753   1.287  1.6341 -0.3097 -0.5070
 7386TIP3   OH243648   2.789   5.155   1.827 -0.2657 -0.4049 -0.1384
 7386TIP3    H143649   2.698   5.182   1.838 -0.2450 -0.9406  1.4415
 7386TIP3    H243650   2.826   5.157   1.915  1.2942 -0.0727 -0.7711
 7387TIP3   OH243651   4.146   6.205   6.360 -0.2497 -0.1962  0.4920
 7387TIP3    H143652   4.161   6.116   6.329 -0.8755  0.2732 -1.2213
 7387TIP3    H243653   4.057   6.227   6.330 -0.3395  0.7731  1.4337
 7388TIP3   OH243654   3.000   5.305  15.304 -0.0696 -0.6623 -0.1816
 7388TIP3    H143655   2.945   5.280  15.230  0.1004  1.2745 -0.9925
 7388TIP3    H243656   2.941   5.353  15.363  0.5224  0.6267 -0.6233
 7389TIP3   OH243657   6.470   5.144   3.653  0.9208 -0.3206  0.7872
 7389TIP3    H143658   6.417   5.142   3.573 -0.9461 -2.6673  2.0108
 7389TIP3    H243659   6.473   5.236   3.677  0.2325  0.2484 -1.1577
 7390TIP3   OH243660   2.652   5.254   3.485 -0.1304  0.2360  0.4581
 7390TIP3    H143661   2.641   5.338   3.440  0.6084 -0.2697 -0.6718
 7390TIP3    H243662   2.744   5.233   3.474 -0.4950 -1.1382  0.0298
 7391TIP3   OH243663   2.368   5.784  13.445 -0.0631 -1.4503  0.2865
 7391TIP3    H143664   2.280   5.746  13.440 -0.4025 -0.9458  2.0542
 7391TIP3    H243665   2.353   5.878  13.441  0.3742 -1.3595  0.7221
 7392TIP3   OH243666   3.782   2.567  16.655  0.3334  0.1452 -0.1483
 7392TIP3    H143667   3.772   2.483  16.699  1.8149  0.1355  0.1868
 7392TIP3    H243668   3.783   2.632  16.725  1.8544  0.2052 -0.2256
 7393TIP3   OH243669   5.562   6.812  17.208  0.4185 -0.7136 -0.4091
 7393TIP3    H143670   5.643   6.800  17.258 -0.7896 -0.2461  1.7263
 7393TIP3    H243671   5.545   6.906  17.211 -0.8357 -0.9463  0.2050
 7394TIP3   OH243672   0.967   6.657  15.936 -0.1191  0.2519 -0.3715
 7394TIP3    H143673   1.010   6.634  16.019  1.8076  2.9979 -0.5265
 7394TIP3    H243674   0.887   6.703  15.963 -0.2438 -0.1555 -0.0434
 7395TIP3   OH243675   1.078   3.401  12.099  0.3730 -0.5623 -0.1589
 7395TIP3    H143676   1.031   3.351  12.032 -1.7455  0.5967  0.4022
 7395TIP3    H243677   1.024   3.480  12.112  1.4877 -0.0931  1.8760
 7396TIP3   OH243678   3.957   4.329   2.274  0.4571  0.0468  0.2356
 7396TIP3    H143679   4.022   4.314   2.205 -1.2716  2.1363 -1.9349
 7396TIP3    H243680   3.936   4.422   2.268 -0.7267 -0.0192  2.7130
 7397TIP3   OH243681   1.906   2.780  13.126  0.0939 -0.5379 -0.2864
 7397TIP3    H143682   1.844   2.708  13.122  0.3115 -0.7586  0.3021
 7397TIP3    H243683   1.943   2.785  13.038  1.5844 -2.4572  0.1979
 7398TIP3   OH243684   5.968   5.618  16.243  0.5889 -0.3727  0.2741
 7398TIP3    H143685   5.914   5.571  16.180 -1.3282  0.2998  1.3671
 7398TIP3    H243686   6.008   5.688  16.192 -0.1941 -0.4115 -0.4076
 7399TIP3   OH243687   0.134   0.263  15.084 -0.3472  0.0179  0.4182
 7399TIP3    H143688   0.040   0.254  15.067 -0.3586  0.1787  0.3953
 7399TIP3    H243689   0.154   0.191  15.143 -0.7307  0.6767  1.3732
 7400TIP3   OH243690   1.270   3.264   1.156  0.4621  0.3285  0.6417
 7400TIP3    H143691   1.275   3.327   1.085  0.1356  0.7771  1.0156
 7400TIP3    H243692   1.180   3.230   1.153  0.9194 -0.8470 -0.1764
 7401TIP3   OH243693   5.891   2.943   1.236  0.2770  0.3275  0.3952
 7401TIP3    H143694   5.984   2.941   1.214  0.0278  0.2769 -0.6699
 7401TIP3    H243695   5.879   3.028   1.280  0.8274  0.3169  0.5682
 7402TIP3   OH243696   1.147   3.651   3.758 -0.7015 -0.2369 -0.3015
 7402TIP3    H143697   1.089   3.720   3.726 -0.2104  0.5193  0.4085
 7402TIP3    H243698   1.093   3.600   3.818 -2.4037 -3.2536 -4.2021
 7403TIP3   OH243699   2.136   4.614   0.316 -0.4087  0.6025 -0.1727
 7403TIP3    H143700   2.190   4.545   0.279  2.0335  1.3528  1.8766
 7403TIP3    H243701   2.047   4.579   0.312  0.7012 -2.4488  0.3176
 7404TIP3   OH243702   1.500   6.143   2.661 -0.1279  0.3327 -0.1293
 7404TIP3    H143703   1.487   6.235   2.639 -2.5717 -0.2100 -1.1049
 7404TIP3    H243704   1.593   6.127   2.643 -0.1989  2.0369 -2.1564
 7405TIP3   OH243705   2.512   3.916  15.909  0.1120 -0.1854  0.4202
 7405TIP3    H143706   2.468   3.896  15.992  0.1947  0.4682  0.6285
 7405TIP3    H243707   2.553   3.833  15.882 -0.4895 -0.5689  0.6824
 7406TIP3   OH243708   4.511   0.599   5.135 -0.2078 -0.2691 -0.1303
 7406TIP3    H143709   4.604   0.595   5.153 -0.3613 -0.4272  0.6318
 7406TIP3    H243710   4.482   0.683   5.170 -0.4730 -0.5036  0.2223
 7407TIP3   OH243711   2.209   2.852   5.357 -0.2177 -0.4090 -0.3649
 7407TIP3    H143712   2.267   2.797   5.305  3.0448  2.5561 -0.0629
 7407TIP3    H243713   2.173   2.794   5.424  2.5495 -2.3276 -0.4768
 7408TIP3   OH243714   0.335   0.321   6.465  0.4051 -0.0024 -0.2105
 7408TIP3    H143715   0.337   0.417   6.460 -1.4377  0.1424  1.1749
 7408TIP3    H243716   0.378   0.300   6.547 -0.3822 -0.2733  0.1362
 7409TIP3   OH243717   5.829   2.743   1.444  0.0596 -0.4068 -0.5099
 7409TIP3    H143718   5.835   2.818   1.385 -0.3829 -1.7290 -2.2623
 7409TIP3    H243719   5.881   2.768   1.520  0.4204  1.4283 -1.3440
 7410TIP3   OH243720   6.213   1.689  15.973 -0.3467 -0.2301 -0.8454
 7410TIP3    H143721   6.204   1.595  15.958  1.0389 -0.4959 -0.0911
 7410TIP3    H243722   6.267   1.720  15.900 -0.3573 -0.1134 -0.8044
 7411TIP3   OH243723   6.721   5.514  11.171  0.1434 -0.3421 -0.6618
 7411TIP3    H143724   6.763   5.600  11.161 -0.0025 -0.3313 -1.1632
 7411TIP3    H243725   6.727   5.474  11.085  0.9292 -1.1679 -0.2374
 7412TIP3   OH243726   6.800   5.545  11.871 -0.0621 -0.2445 -0.5815
 7412TIP3    H143727   6.881   5.548  11.922  0.0481 -0.7673 -0.7207
 7412TIP3    H243728   6.809   5.466  11.817 -0.4793 -0.0731 -0.9045
 7413TIP3   OH243729   0.124   1.580  12.620 -0.6758 -0.0534  0.8266
 7413TIP3    H143730   0.106   1.487  12.632  1.9430 -0.4089  2.2090
 7413TIP3    H243731   0.048   1.613  12.572 -0.9171 -3.2030 -1.0755
 7414TIP3   OH243732   5.562   0.672   5.739 -0.0809  0.2831 -0.1450
 7414TIP3    H143733   5.656   0.693   5.744 -0.1295  0.6139 -0.5894
 7414TIP3    H243734   5.561   0.577   5.728  0.1487  0.0914  1.3893
 7415TIP3   OH243735   6.728   0.769  12.927  0.1342  0.3584 -0.1811
 7415TIP3    H143736   6.726   0.756  13.022 -0.1352 -0.7372 -0.3379
 7415TIP3    H243737   6.638   0.795  12.906  0.0334 -0.0312 -0.2293
 7416TIP3   OH243738   1.868   4.843   2.059 -0.7432 -0.1861 -0.3033
 7416TIP3    H143739   1.801   4.902   2.024 -0.7337 -0.6679 -1.1551
 7416TIP3    H243740   1.900   4.795   1.982  0.0070 -0.5342  0.2199
 7417TIP3   OH243741   5.024   5.806   0.600  0.2874  0.2670 -0.5577
 7417TIP3    H143742   5.023   5.889   0.646  0.1639 -0.1035  0.1106
 7417TIP3    H243743   4.947   5.809   0.543  0.5770  0.8240 -0.9268
 7418TIP3   OH243744   0.641   0.959  15.928  0.1224 -0.1451  0.0079
 7418TIP3    H143745   0.698   1.013  15.873  0.5392 -1.9761 -1.4069
 7418TIP3    H243746   0.701   0.897  15.971 -0.6123 -0.9956 -0.1910
 7419TIP3   OH243747   3.313   5.691   4.205 -0.3799  0.0749  0.1220
 7419TIP3    H143748   3.276   5.630   4.140  0.3759 -0.7617  0.4639
 7419TIP3    H243749   3.272   5.664   4.288 -0.3201  0.2666  0.2121
 7420TIP3   OH243750   1.939   3.625   3.350  0.0771  0.9603 -0.0288
 7420TIP3    H143751   1.895   3.562   3.292  0.3692 -0.8596  1.6792
 7420TIP3    H243752   2.010   3.661   3.297 -0.4187  0.2308 -1.2083
 7421TIP3   OH243753   4.430   2.435   1.155  0.6536  0.0532  0.2066
 7421TIP3    H143754   4.423   2.531   1.152 -0.6423 -0.0545 -0.4484
 7421TIP3    H243755   4.360   2.404   1.097  2.9126 -1.2169 -1.9549
 7422TIP3   OH243756   3.397   3.653  12.540 -0.1994 -0.0880 -0.2191
 7422TIP3    H143757   3.374   3.684  12.452  0.9305 -0.4072 -0.6332
 7422TIP3    H243758   3.322   3.678  12.594 -0.5844  0.7670 -1.1268
 7423TIP3   OH243759   5.207   0.970  13.874  0.2654 -0.1128 -0.2442
 7423TIP3    H143760   5.267   1.044  13.879  0.4240 -0.2245 -0.4490
 7423TIP3    H243761   5.120   1.009  13.878  0.3506  0.0339  0.2826
 7424TIP3   OH243762   3.221   5.078   2.779 -0.2071 -0.2042  0.0587
 7424TIP3    H143763   3.131   5.108   2.791  0.1228  1.2135 -0.9344
 7424TIP3    H243764   3.218   4.985   2.802 -2.2465 -0.5368 -1.4033
 7425TIP3   OH243765   0.766   3.122   1.657 -0.1552 -0.4558 -0.3401
 7425TIP3    H143766   0.728   3.088   1.575  0.8375  0.4666 -1.1977
 7425TIP3    H243767   0.697   3.177   1.694 -0.3063 -0.1970 -0.9899
 7426TIP3   OH243768   5.484   0.956  14.612  0.1200 -0.3022 -0.1185
 7426TIP3    H143769   5.517   0.943  14.701 -0.9400  0.3946  0.3775
 7426TIP3    H243770   5.389   0.952  14.621 -0.0277  1.1451 -1.0168
 7427TIP3   OH243771   5.866   1.119   6.134 -0.5297  0.2909  0.6861
 7427TIP3    H143772   5.933   1.071   6.184  0.3439  1.6683  0.8515
 7427TIP3    H243773   5.808   1.050   6.101  2.0936 -1.1294 -1.1522
 7428TIP3   OH243774   2.964   2.192  17.231 -0.3059  0.3914 -0.5558
 7428TIP3    H143775   2.978   2.099  17.246  2.4449  0.9860  0.7048
 7428TIP3    H243776   2.940   2.227  17.317  0.1770  1.1091 -0.7106
 7429TIP3   OH243777   5.931   5.734  17.199  0.3639  0.2623 -0.3347
 7429TIP3    H143778   5.909   5.813  17.149  0.4285  0.0562 -0.6907
 7429TIP3    H243779   5.847   5.697  17.223  0.3320  0.8805  0.5385
 7430TIP3   OH243780   4.756   4.361  13.163 -0.3567 -0.4004 -0.2574
 7430TIP3    H143781   4.764   4.402  13.249  0.3183 -0.3539 -0.3381
 7430TIP3    H243782   4.669   4.322  13.163 -0.9125  0.8100 -0.0818
 7431TIP3   OH243783   1.801   1.731   2.299  0.2033  0.1032 -0.7523
 7431TIP3    H143784   1.729   1.681   2.339  0.9509 -0.4480 -0.0725
 7431TIP3    H243785   1.865   1.664   2.274  1.0564  0.6982 -0.1568
 7432TIP3   OH243786   5.892   6.268  11.212  0.1352  0.3301 -0.1831
 7432TIP3    H143787   5.896   6.234  11.122  1.2077 -0.4237  0.1453
 7432TIP3    H243788   5.921   6.359  11.204 -0.1983  0.3979 -0.6619
 7433TIP3   OH243789   0.252   2.569   2.512  0.3174  0.2961 -0.1036
 7433TIP3    H143790   0.301   2.490   2.536  2.9181  1.9306  0.2002
 7433TIP3    H243791   0.165   2.555   2.550  1.1962 -1.7382  1.3038
 7434TIP3   OH243792   2.517   2.739  13.576 -0.2872  0.1037  0.1975
 7434TIP3    H143793   2.523   2.830  13.604 -0.0625  0.0470  0.3307
 7434TIP3    H243794   2.570   2.691  13.639 -1.0974 -0.2302  0.6442
 7435TIP3   OH243795   3.006   0.688  12.650  0.2104 -0.1362 -0.0421
 7435TIP3    H143796   3.011   0.637  12.569  2.3927 -0.2029  0.1155
 7435TIP3    H243797   2.915   0.720  12.652 -0.9868 -3.3052 -0.5340
 7436TIP3   OH243798   6.120   3.859  16.791 -0.3073 -0.1612 -0.2937
 7436TIP3    H143799   6.171   3.934  16.820 -1.9653  0.7255  0.3942
 7436TIP3    H243800   6.062   3.895  16.723 -1.8120 -0.5857  0.7509
 7437TIP3   OH243801   3.654   2.393   3.492 -0.2106  0.1897  0.3111
 7437TIP3    H143802   3.574   2.340   3.497 -0.3949  0.4226 -0.1331
 7437TIP3    H243803   3.670   2.421   3.582 -0.1644 -0.5462  0.5293
 7438TIP3   OH243804   4.174   6.340  11.169 -0.3584  0.3668  0.2020
 7438TIP3    H143805   4.105   6.273  11.172  0.8108 -0.8582  0.5248
 7438TIP3    H243806   4.207   6.344  11.259 -0.5100  1.4807  0.2095
 7439TIP3   OH243807   0.724   5.045  10.697 -0.1148  0.3323  0.2387
 7439TIP3    H143808   0.797   5.101  10.722 -0.4943  0.6936  0.5296
 7439TIP3    H243809   0.762   4.982  10.636 -0.1471  2.2477 -1.7884
 7440TIP3   OH243810   5.329   2.295  14.009  0.1041 -0.2658  0.2325
 7440TIP3    H143811   5.360   2.309  13.919  1.8661 -1.0189  0.7259
 7440TIP3    H243812   5.407   2.270  14.058 -0.6863  0.9889  2.1760
 7441TIP3   OH243813   1.740   2.880   5.272 -0.6762  0.0566  0.0015
 7441TIP3    H143814   1.739   2.880   5.368  0.8923 -0.4136  0.0240
 7441TIP3    H243815   1.652   2.850   5.248 -0.4485 -1.7819  1.3291
 7442TIP3   OH243816   2.437   3.330  14.594  0.1936 -0.5678 -0.8137
 7442TIP3    H143817   2.368   3.391  14.621  1.4123  0.9084 -0.9829
 7442TIP3    H243818   2.501   3.332  14.665 -0.0689 -2.1565 -0.5231
 7443TIP3   OH243819   0.288   4.936   6.494 -0.4184 -0.5176 -0.4711
 7443TIP3    H143820   0.336   4.858   6.522  0.5411 -0.6455 -2.3791
 7443TIP3    H243821   0.337   5.009   6.532  0.2896 -0.7209 -0.9930
 7444TIP3   OH243822   2.582   6.473  11.049  0.0896  0.5894 -0.4405
 7444TIP3    H143823   2.557   6.565  11.054  1.6585  0.9503  1.0466
 7444TIP3    H243824   2.648   6.469  10.980 -0.0008  0.5718 -0.5266
 7445TIP3   OH243825   5.526   4.815  16.980 -0.6179  0.1253 -0.2202
 7445TIP3    H143826   5.526   4.911  16.975 -1.4111  0.1953  1.0510
 7445TIP3    H243827   5.603   4.789  16.929  0.3759  1.4928  0.5559
 7446TIP3   OH243828   3.365   5.830   3.780 -0.3363  0.3391 -1.7800
 7446TIP3    H143829   3.300   5.769   3.814  0.7783 -0.0137 -0.2433
 7446TIP3    H243830   3.314   5.897   3.735 -1.8002  0.4297 -0.0325
 7447TIP3   OH243831   2.150   4.003   1.938  0.7899  0.3823  0.0288
 7447TIP3    H143832   2.134   3.922   1.987  0.4839  1.2091  1.3085
 7447TIP3    H243833   2.067   4.050   1.940  0.8538  0.5696 -1.0516
 7448TIP3   OH243834   5.467   1.089  15.638  0.2416  0.2097  0.2765
 7448TIP3    H143835   5.504   1.042  15.563  1.9767  0.8866  0.6962
 7448TIP3    H243836   5.374   1.095  15.618  0.6400  0.1505 -1.7043
 7449TIP3   OH243837   5.850   1.606  17.130  0.7361 -0.4745 -0.8114
 7449TIP3    H143838   5.856   1.545  17.204 -1.7966  0.3034  0.0766
 7449TIP3    H243839   5.832   1.550  17.054 -1.5172 -0.8839 -0.0148
 7450TIP3   OH243840   4.206   1.259  11.220 -0.2071 -0.2152 -0.2464
 7450TIP3    H143841   4.220   1.323  11.151  0.1407 -0.5030 -0.4415
 7450TIP3    H243842   4.293   1.226  11.241 -0.4077 -0.8012 -0.3172
 7451TIP3   OH243843   4.311   6.418   6.304  0.1566 -0.1298 -0.5320
 7451TIP3    H143844   4.295   6.487   6.368 -0.1371  0.0305 -0.7785
 7451TIP3    H243845   4.252   6.347   6.330  0.3084 -0.2074 -0.4017
 7452TIP3   OH243846   4.634   6.254  13.178  0.2477  0.4569 -0.1695
 7452TIP3    H143847   4.539   6.253  13.176  0.2482 -0.4030 -0.1512
 7452TIP3    H243848   4.656   6.270  13.269  0.1203  1.3844 -0.3025
 7453TIP3   OH243849   2.559   6.034  13.147 -0.2399 -0.3202 -0.2326
 7453TIP3    H143850   2.490   5.993  13.094 -0.4018  1.5536 -1.5255
 7453TIP3    H243851   2.522   6.038  13.235 -1.2867 -0.4483 -0.6529
 7454TIP3   OH243852   5.768   0.214   0.287 -0.3047  0.0243 -0.0511
 7454TIP3    H143853   5.700   0.169   0.337  1.0003 -0.2781  1.4629
 7454TIP3    H243854   5.850   0.189   0.328  0.7127  0.7619 -1.5754
 7455TIP3   OH243855   6.297   3.375   3.846 -0.4096 -0.0860  0.4337
 7455TIP3    H143856   6.339   3.454   3.810 -2.9717  1.4837  0.8100
 7455TIP3    H243857   6.346   3.358   3.927 -1.7320  2.9421  1.9452
 7456TIP3   OH243858   1.187   2.297  14.320 -0.5769  0.3169 -0.4013
 7456TIP3    H143859   1.233   2.298  14.236 -0.0511 -1.3382 -0.1681
 7456TIP3    H243860   1.156   2.386  14.332 -0.2500  0.6807 -2.1322
 7457TIP3   OH243861   4.385   4.387   0.957  0.2327  0.0767 -0.4196
 7457TIP3    H143862   4.301   4.431   0.954  0.1459  0.0419  1.2221
 7457TIP3    H243863   4.449   4.457   0.968  0.1771 -0.1027  1.1638
 7458TIP3   OH243864   4.055   3.453   5.349  0.2840 -0.1533 -0.1671
 7458TIP3    H143865   4.064   3.365   5.386 -0.2356  0.0370  0.4263
 7458TIP3    H243866   3.964   3.477   5.365  1.1058  1.6099  2.2457
 7459TIP3   OH243867   3.115   3.439   5.801 -0.3155 -0.0081  0.4343
 7459TIP3    H143868   3.091   3.386   5.877  0.7898 -0.1895  0.6652
 7459TIP3    H243869   3.039   3.494   5.785 -1.2503 -1.2610  0.5489
 7460TIP3   OH243870   4.024   5.951  15.148 -0.4117 -0.1228  0.1267
 7460TIP3    H143871   4.086   6.019  15.122 -1.7311  0.4410 -1.5987
 7460TIP3    H243872   4.073   5.896  15.210  1.7749  0.3552 -1.1471
 7461TIP3   OH243873   0.224   1.234  15.533 -0.0065  0.3973  0.0191
 7461TIP3    H143874   0.270   1.199  15.456 -0.1162  1.3520 -0.4888
 7461TIP3    H243875   0.172   1.160  15.565 -0.4663  0.1609 -1.2214
 7462TIP3   OH243876   1.058   4.082  10.548 -0.0068 -0.5617 -0.7071
 7462TIP3    H143877   1.003   4.156  10.524  0.3275 -0.6596 -1.8346
 7462TIP3    H243878   1.133   4.120  10.593 -0.2022 -0.2762 -0.6275
 7463TIP3   OH243879   0.504   4.963   2.270  1.4239  0.2354 -0.2067
 7463TIP3    H143880   0.466   4.892   2.217  1.4709 -1.0834  1.5083
 7463TIP3    H243881   0.428   5.010   2.303  1.3952  2.2130 -2.9016
 7464TIP3   OH243882   4.666   5.315   5.428 -0.4744  0.4287  0.3083
 7464TIP3    H143883   4.604   5.317   5.355 -1.8409 -1.3512  1.3730
 7464TIP3    H243884   4.644   5.235   5.476  0.7065  1.3150  2.3952
 7465TIP3   OH243885   2.234   0.779  13.606  0.0624 -0.4087  0.6644
 7465TIP3    H143886   2.284   0.820  13.677  0.6566 -0.6144  0.3778
 7465TIP3    H243887   2.231   0.687  13.630 -0.3307 -0.3693  0.7652
 7466TIP3   OH243888   6.063   6.633  13.312  0.5905  0.2683  0.2059
 7466TIP3    H143889   6.080   6.697  13.380 -0.4834  1.7211 -0.8493
 7466TIP3    H243890   6.025   6.684  13.240  1.1173 -1.3141 -1.2371
 7467TIP3   OH243891   3.418   3.472   1.486  0.0214 -0.3842  0.4266
 7467TIP3    H143892   3.424   3.441   1.396  0.3097 -0.4889  0.4811
 7467TIP3    H243893   3.327   3.458   1.511 -0.5636  1.5598 -0.5374
 7468TIP3   OH243894   1.452   4.342  11.814  0.4314 -0.5891  0.3188
 7468TIP3    H143895   1.537   4.368  11.848 -0.1823 -1.1554  2.3635
 7468TIP3    H243896   1.389   4.383  11.873 -0.7756  0.8613 -1.9045
 7469TIP3   OH243897   0.236   1.386   6.287  0.1982  0.4767  0.0993
 7469TIP3    H143898   0.316   1.362   6.333  0.9464  1.8158 -0.4772
 7469TIP3    H243899   0.168   1.384   6.355  0.6428 -1.0279  0.5029
 7470TIP3   OH243900   3.948   5.480  11.692  0.6064 -0.2437 -0.4938
 7470TIP3    H143901   3.962   5.409  11.630 -1.1985 -0.8375 -0.2763
 7470TIP3    H243902   3.858   5.508  11.676  1.2677  1.9627 -0.5303
 7471TIP3   OH243903   4.263   1.429   5.010  1.0248 -0.7631  0.1188
 7471TIP3    H143904   4.201   1.500   5.021  1.2207  0.0056 -3.0321
 7471TIP3    H243905   4.336   1.451   5.068 -0.2057  0.0307  1.3800
 7472TIP3   OH243906   3.057   4.014  13.312  0.1109  0.5097  0.0168
 7472TIP3    H143907   3.041   3.991  13.220  0.8438 -0.7401  0.2031
 7472TIP3    H243908   3.145   3.982  13.330  0.6086  2.2205  0.6938
 7473TIP3   OH243909   2.339   0.917  15.244  0.3526 -0.4705 -0.1094
 7473TIP3    H143910   2.389   0.883  15.318  2.0728  1.7716 -0.1901
 7473TIP3    H243911   2.347   1.012  15.251 -3.0070 -0.0562 -0.7652
 7474TIP3   OH243912   2.736   5.973  12.933 -0.0632 -0.2083  0.4156
 7474TIP3    H143913   2.733   5.882  12.901  1.5633  0.0684 -0.6181
 7474TIP3    H243914   2.671   5.976  13.003 -3.1230 -1.1032 -2.2589
 7475TIP3   OH243915   6.712   3.215   1.147 -0.3701 -0.0730 -0.3114
 7475TIP3    H143916   6.742   3.182   1.063  1.6604  1.3005 -0.1528
 7475TIP3    H243917   6.686   3.306   1.130 -3.1376 -0.7801 -0.1368
 7476TIP3   OH243918   4.243   2.454  12.694  0.5614  0.0581 -0.1800
 7476TIP3    H143919   4.185   2.495  12.758  1.5955  1.5032 -0.1565
 7476TIP3    H243920   4.185   2.426  12.624 -0.2666  0.7875  0.1988
 7477TIP3   OH243921   6.762   2.120  14.157 -0.4045  0.0227 -0.0528
 7477TIP3    H143922   6.711   2.043  14.134 -0.3738  0.2115 -0.7526
 7477TIP3    H243923   6.813   2.093  14.234  1.7263 -1.5788 -1.9615
 7478TIP3   OH243924   5.379   1.559  12.793  0.7245 -0.3335  0.0889
 7478TIP3    H143925   5.336   1.478  12.763  2.2563 -1.7787  1.6612
 7478TIP3    H243926   5.333   1.581  12.874  0.6378  0.0871 -0.0764
 7479TIP3   OH243927   4.928   1.061  13.526 -0.0430  0.3005  0.0002
 7479TIP3    H143928   4.924   0.972  13.561 -0.6496 -0.6113 -2.2957
 7479TIP3    H243929   4.867   1.110  13.580 -0.8896 -1.0391  0.2917
 7480TIP3   OH243930   1.744   6.605   1.219  0.3674  0.0075 -0.3713
 7480TIP3    H143931   1.831   6.586   1.184 -0.0117  1.0313 -1.9206
 7480TIP3    H243932   1.735   6.699   1.209 -1.1880 -0.1824 -0.8827
 7481TIP3   OH243933   2.263   2.676   3.802  0.1764  0.3257 -1.0887
 7481TIP3    H143934   2.271   2.612   3.872  0.2839  1.1854 -0.3134
 7481TIP3    H243935   2.241   2.624   3.724 -1.0855 -0.5077 -0.1851
 7482TIP3   OH243936   2.456   0.172   1.786 -0.1870  0.6168 -0.6086
 7482TIP3    H143937   2.433   0.139   1.873  2.3224  0.1969 -0.0611
 7482TIP3    H243938   2.479   0.264   1.801 -0.2101  0.6700 -0.9019
 7483TIP3   OH243939   6.586   5.910  14.103  0.3179  0.1540 -0.7979
 7483TIP3    H143940   6.576   6.003  14.081  0.0501  0.0650 -1.0535
 7483TIP3    H243941   6.595   5.866  14.019 -1.9793 -0.3409 -0.8310
 7484TIP3   OH243942   1.083   2.104  13.232  0.3039  0.2017 -0.4120
 7484TIP3    H143943   1.150   2.151  13.181  1.3000 -0.8523 -0.1185
 7484TIP3    H243944   1.000   2.140  13.202  0.8754 -0.3065 -2.7223
 7485TIP3   OH243945   0.269   1.220   2.382 -0.2734  0.4057  0.2563
 7485TIP3    H143946   0.329   1.167   2.435 -1.0608 -0.4041  0.3536
 7485TIP3    H243947   0.197   1.242   2.441 -0.1634  1.2239  0.0889
 7486TIP3   OH243948   5.755   4.634  14.462 -0.1367  0.4379 -0.2806
 7486TIP3    H143949   5.790   4.565  14.406 -3.9031 -0.3340 -1.8582
 7486TIP3    H243950   5.732   4.705  14.401 -0.3780  1.3055  0.8001
 7487TIP3   OH243951   4.674   3.536   1.660  0.5260 -0.3813 -0.1039
 7487TIP3    H143952   4.704   3.606   1.602 -0.8846  0.8454  0.6316
 7487TIP3    H243953   4.603   3.493   1.612 -0.3241  0.3318  0.5063
 7488TIP3   OH243954   6.300   4.116  12.647  0.1574  0.0377 -0.0460
 7488TIP3    H143955   6.352   4.161  12.580  2.0830 -0.8649  0.8149
 7488TIP3    H243956   6.330   4.026  12.644 -1.0251 -0.3999  0.8148
 7489TIP3   OH243957   6.423   1.142  15.201 -0.1524 -0.1951  0.0490
 7489TIP3    H143958   6.447   1.099  15.283 -3.3920 -1.4531  0.3970
 7489TIP3    H243959   6.380   1.074  15.150  1.1660  0.7667 -2.4423
 7490TIP3   OH243960   2.397   4.751  15.635  0.0811 -0.0766  0.0933
 7490TIP3    H143961   2.471   4.711  15.590  0.1857 -1.7027  1.6551
 7490TIP3    H243962   2.431   4.771  15.723 -1.4841 -1.4057  1.0195
 7491TIP3   OH243963   5.543   1.226   2.494  0.3007 -0.7262  0.1011
 7491TIP3    H143964   5.605   1.258   2.560  0.8686  1.4387 -1.4053
 7491TIP3    H243965   5.464   1.204   2.543  0.8497  0.4817  1.5535
 7492TIP3   OH243966   5.844   0.554   1.687  0.2433  0.0955  0.3498
 7492TIP3    H143967   5.844   0.507   1.770  2.4848 -0.7626 -0.1112
 7492TIP3    H243968   5.934   0.546   1.655  0.1072  2.7470 -0.8433
 7493TIP3   OH243969   2.195   3.161   5.465 -0.1825  0.1746  0.2524
 7493TIP3    H143970   2.140   3.156   5.387 -1.2422 -0.0064  0.9992
 7493TIP3    H243971   2.161   3.093   5.522  1.0101 -0.1215  0.6044
 7494TIP3   OH243972   6.656   3.100   2.458  0.5239  0.0981  0.0185
 7494TIP3    H143973   6.564   3.079   2.475  0.3405  0.0597 -0.9565
 7494TIP3    H243974   6.696   3.105   2.544 -0.7287  1.6500  0.5363
 7495TIP3   OH243975   4.067   5.416  13.114  0.3003 -0.0930 -0.0003
 7495TIP3    H143976   3.992   5.467  13.086 -1.7340 -2.0138  1.7437
 7495TIP3    H243977   4.142   5.474  13.102 -1.1686  1.1542 -3.7031
 7496TIP3   OH243978   4.485   3.366   1.499  0.4686  0.0990  0.1631
 7496TIP3    H143979   4.398   3.331   1.516  1.7842 -3.2017  0.4240
 7496TIP3    H243980   4.480   3.405   1.412 -1.3143  0.1587  0.2863
 7497TIP3   OH243981   0.256   3.430  12.598 -0.1038  0.6859  0.3065
 7497TIP3    H143982   0.207   3.372  12.657  0.7625 -0.7009 -0.3159
 7497TIP3    H243983   0.277   3.375  12.522 -0.0842  2.0863 -0.7224
 7498TIP3   OH243984   3.885   2.201  16.582  0.1693 -0.2289 -0.1814
 7498TIP3    H143985   3.891   2.140  16.508  0.9844 -1.2639  0.7196
 7498TIP3    H243986   3.850   2.147  16.653 -1.2612  0.9291  0.0092
 7499TIP3   OH243987   3.183   2.304  11.712  0.4329  0.2932 -0.0163
 7499TIP3    H143988   3.248   2.373  11.725  2.5306 -1.8485  1.0702
 7499TIP3    H243989   3.213   2.257  11.634  0.7814 -1.3301  1.0803
 7500TIP3   OH243990   3.285   6.688   1.376 -0.2861 -0.4994 -0.3074
 7500TIP3    H143991   3.369   6.711   1.416 -0.4958 -2.5307  1.4184
 7500TIP3    H243992   3.309   6.642   1.295  0.2719 -0.6120 -0.0820
 7501TIP3   OH243993   4.017   1.611   5.052  0.2291 -0.3688  0.1326
 7501TIP3    H143994   4.022   1.581   5.143 -1.0189 -0.4661  0.1817
 7501TIP3    H243995   3.932   1.654   5.045  0.5360  0.1088 -0.8591
 7502TIP3   OH243996   5.867   1.170   4.719  0.1917  0.3409  0.1239
 7502TIP3    H143997   5.800   1.128   4.665  0.7355 -1.7741  1.0421
 7502TIP3    H243998   5.946   1.119   4.704  1.2599  1.9748  0.1171
 7503TIP3   OH243999   5.555   5.654   4.284 -0.6950  0.2374 -0.0123
 7503TIP3    H144000   5.590   5.565   4.280  1.5065  0.8560  3.2482
 7503TIP3    H244001   5.615   5.706   4.229 -0.4046  0.1393  0.2091
 7504TIP3   OH244002   2.243   6.786  16.692 -0.5818 -0.3077  0.4018
 7504TIP3    H144003   2.283   6.820  16.772  0.9105 -0.9764 -0.0347
 7504TIP3    H244004   2.150   6.781  16.712 -0.2135 -0.5610  2.1407
 7505TIP3   OH244005   5.539   4.100   5.908 -0.2952 -0.0743  0.3981
 7505TIP3    H144006   5.466   4.136   5.857  0.0244  0.8668  0.6018
 7505TIP3    H244007   5.515   4.008   5.922 -0.4792 -0.2954 -1.2651
 7506TIP3   OH244008   3.546   6.488   2.544 -0.3911  0.3160 -0.1387
 7506TIP3    H144009   3.641   6.491   2.554 -0.4240 -0.2557  0.3994
 7506TIP3    H244010   3.527   6.553   2.477  0.3812  0.4344 -0.2514
 7507TIP3   OH244011   1.622   2.201   4.945  0.1035  0.1121 -0.6407
 7507TIP3    H144012   1.600   2.279   4.996 -0.4908  0.2922 -1.1686
 7507TIP3    H244013   1.699   2.165   4.989  0.1664  0.7960 -0.1790
 7508TIP3   OH244014   6.542   3.454  16.993 -0.1295  0.5340  0.3073
 7508TIP3    H144015   6.564   3.443  17.085  0.7165 -0.6303 -0.0223
 7508TIP3    H244016   6.508   3.369  16.965  0.5896  0.5684 -0.7088
 7509TIP3   OH244017   4.806   4.957  13.440 -0.2942  0.5123 -0.2450
 7509TIP3    H144018   4.806   4.864  13.418  0.5932  0.8564 -1.8210
 7509TIP3    H244019   4.887   4.970  13.490  0.9468  0.8946 -2.2733
 7510TIP3   OH244020   2.158   5.961   1.154 -0.1666  0.2724 -0.7040
 7510TIP3    H144021   2.237   5.997   1.114  0.0149 -0.1480 -0.7254
 7510TIP3    H244022   2.125   6.032   1.210  0.4973  0.2710 -0.3088
 7511TIP3   OH244023   6.149   0.526  12.558  0.4070  0.0638  0.0929
 7511TIP3    H144024   6.112   0.481  12.633  0.0633  1.7579  0.9579
 7511TIP3    H244025   6.233   0.482  12.543  0.6619 -0.0271  1.7170
 7512TIP3   OH244026   2.965   6.642  15.390  0.7745 -0.1185 -0.9693
 7512TIP3    H144027   2.961   6.598  15.475  0.6283  1.1056 -0.3248
 7512TIP3    H244028   3.057   6.669  15.382  0.3536  1.6798 -0.1755
 7513TIP3   OH244029   2.712   3.738   2.849 -0.1220  0.1702  0.5305
 7513TIP3    H144030   2.659   3.663   2.877  0.2044  0.6765  2.5379
 7513TIP3    H244031   2.789   3.736   2.906  2.4630 -0.9685 -2.7583
 7514TIP3   OH244032   2.552   0.602  14.489 -0.5747  0.2326  0.8693
 7514TIP3    H144033   2.641   0.596  14.522 -0.2038  0.2277 -0.1283
 7514TIP3    H244034   2.546   0.536  14.421 -0.2947  2.4934 -1.4354
 7515TIP3   OH244035   4.099   0.722   6.347  0.0065  0.3130  0.3236
 7515TIP3    H144036   4.153   0.645   6.363 -0.0299  0.3749  0.7499
 7515TIP3    H244037   4.022   0.709   6.402  0.3699  1.0437  1.0215
 7516TIP3   OH244038   3.318   4.333   5.811 -0.0128 -0.4720  0.6553
 7516TIP3    H144039   3.240   4.381   5.838  1.1676  0.2746  2.8256
 7516TIP3    H244040   3.336   4.272   5.882  0.1807 -2.1499 -0.7801
 7517TIP3   OH244041   0.702   5.628   0.969 -0.4523  0.0527 -0.3391
 7517TIP3    H144042   0.625   5.685   0.978 -0.7651 -0.3770 -0.2686
 7517TIP3    H244043   0.776   5.686   0.987 -0.8038  0.2824  0.4107
 7518TIP3   OH244044   3.671   6.481   5.695 -0.3890  0.6951  0.0258
 7518TIP3    H144045   3.610   6.546   5.659  1.7699  2.3663 -0.7264
 7518TIP3    H244046   3.755   6.527   5.699  1.0527 -1.8673  0.0604
 7519TIP3   OH244047   5.176   6.653   5.734  0.3796 -0.3250 -0.0305
 7519TIP3    H144048   5.107   6.631   5.672  0.7139 -1.3311 -0.0575
 7519TIP3    H244049   5.195   6.745   5.717  0.6521 -0.6598 -1.5996
 7520TIP3   OH244050   3.007   4.410  16.500  0.1497  0.2490  0.2528
 7520TIP3    H144051   3.014   4.316  16.516 -0.9026 -0.0047 -0.7397
 7520TIP3    H244052   3.051   4.423  16.416 -0.6111  0.4849 -0.1093
 7521TIP3   OH244053   4.089   6.158  13.104 -0.3103  0.1326 -0.3527
 7521TIP3    H144054   4.053   6.093  13.164 -1.5784  1.0009 -0.1479
 7521TIP3    H244055   4.078   6.241  13.150  0.7807  0.5559 -0.8464
 7522TIP3   OH244056   5.824   0.482  11.564 -0.3205  0.0461  0.5154
 7522TIP3    H144057   5.733   0.502  11.542 -0.0284  2.7816  1.5956
 7522TIP3    H244058   5.872   0.498  11.484 -0.7829 -1.4429 -0.0714
 7523TIP3   OH244059   0.090   6.517   2.110 -0.3533  0.0439 -0.0780
 7523TIP3    H144060   0.134   6.574   2.173 -2.5349  2.0955 -0.3165
 7523TIP3    H244061   0.067   6.575   2.038 -2.8579 -1.0686 -0.2209
 7524TIP3   OH244062   5.389   3.297  13.113  0.3154 -0.1676  0.0115
 7524TIP3    H144063   5.348   3.221  13.155 -3.6329  1.2681 -1.0476
 7524TIP3    H244064   5.473   3.308  13.159 -1.1759 -2.2695  3.3803
 7525TIP3   OH244065   0.762   5.175  12.296  0.4523 -0.0921  0.7642
 7525TIP3    H144066   0.769   5.230  12.374 -0.0258  0.3735  0.4828
 7525TIP3    H244067   0.760   5.237  12.223  2.3926 -0.5857  0.2707
 7526TIP3   OH244068   5.301   3.564   4.661  0.2130  0.1037 -0.1882
 7526TIP3    H144069   5.369   3.525   4.606  0.6322  1.1538 -0.4386
 7526TIP3    H244070   5.340   3.646   4.693 -0.4152  0.0250  0.8223
 7527TIP3   OH244071   2.058   1.462  12.068 -0.3479 -0.5195  0.8355
 7527TIP3    H144072   1.998   1.535  12.085 -1.3544 -1.1794  0.1843
 7527TIP3    H244073   2.069   1.462  11.973 -1.2769 -1.9215  0.7091
 7528TIP3   OH244074   3.836   1.378   3.519 -0.1515  0.1969  0.0490
 7528TIP3    H144075   3.830   1.334   3.435  0.4552  1.4365 -0.6547
 7528TIP3    H244076   3.764   1.341   3.570 -1.4927  0.5482 -1.5374
 7529TIP3   OH244077   2.937   0.748   5.184 -0.4948 -0.3237  0.0005
 7529TIP3    H144078   2.904   0.812   5.248 -0.4361  0.2159 -0.5093
 7529TIP3    H244079   2.989   0.687   5.236  0.0326  0.4477  0.3822
 7530TIP3   OH244080   6.816   4.836  12.145  0.2962 -0.4351  0.5437
 7530TIP3    H144081   6.799   4.859  12.237  0.8168  0.3678  0.4522
 7530TIP3    H244082   6.844   4.919  12.105  0.6759 -0.9129 -0.1904
 7531TIP3   OH244083   5.942   1.439  13.719 -0.5231 -0.5102  0.0784
 7531TIP3    H144084   5.933   1.518  13.773  2.0383  1.1097 -1.7381
 7531TIP3    H244085   6.020   1.396  13.753 -0.3209 -0.7860 -0.7260
 7532TIP3   OH244086   5.522   4.806  13.599  0.1039 -0.4369 -0.0204
 7532TIP3    H144087   5.495   4.714  13.608  2.5527 -1.2746 -0.7816
 7532TIP3    H244088   5.599   4.803  13.542 -0.6186  2.2576 -1.1978
 7533TIP3   OH244089   2.990   3.089   4.068 -0.0536  0.1249  0.4723
 7533TIP3    H144090   3.081   3.061   4.063  0.6907  2.5535 -0.0760
 7533TIP3    H244091   2.950   3.053   3.988  0.5786 -0.3757  0.3770
 7534TIP3   OH244092   2.934   0.906   2.504  0.0674 -0.0922  0.5022
 7534TIP3    H144093   3.020   0.945   2.522 -0.0656  0.4820 -0.0933
 7534TIP3    H244094   2.939   0.819   2.543  0.1347  0.7377  2.4032
 7535TIP3   OH244095   1.004   5.924  16.077  0.4766 -0.5652  0.4416
 7535TIP3    H144096   1.036   5.983  16.146 -2.0782  0.5693  0.7122
 7535TIP3    H244097   0.974   5.846  16.124 -0.1353 -0.2877  0.5251
 7536TIP3   OH244098   2.095   3.800   2.696  0.7507  0.4164 -0.2493
 7536TIP3    H144099   2.154   3.874   2.710 -0.1244  0.8321  1.3592
 7536TIP3    H244100   2.020   3.837   2.649  0.2350  0.5865  0.7072
 7537TIP3   OH244101   5.370   4.761   2.146 -0.2042 -0.7493 -0.0691
 7537TIP3    H144102   5.305   4.769   2.215 -0.0208  0.6393 -0.0341
 7537TIP3    H244103   5.324   4.719   2.074 -0.4937 -1.8919  0.7736
 7538TIP3   OH244104   6.046   4.690   5.140 -0.3852 -0.0474  0.1961
 7538TIP3    H144105   6.081   4.617   5.190 -3.4968  0.2325  2.9603
 7538TIP3    H244106   6.120   4.750   5.131  1.3712 -2.0689  0.6901
 7539TIP3   OH244107   2.417   3.560  15.419  0.1205  1.0095 -0.1815
 7539TIP3    H144108   2.464   3.481  15.391 -1.2509  0.1533 -0.0839
 7539TIP3    H244109   2.362   3.531  15.491 -0.5782  2.0097 -0.3049
 7540TIP3   OH244110   2.647   0.279   5.012 -0.0775 -0.1511 -0.7738
 7540TIP3    H144111   2.615   0.369   5.013  1.6651  0.4932 -1.3799
 7540TIP3    H244112   2.737   0.285   5.044  0.6779 -1.4117 -2.5547
 7541TIP3   OH244113   1.608   5.171  15.221  0.4350  0.0008  0.6676
 7541TIP3    H144114   1.648   5.241  15.272  0.0563  0.6333  0.0948
 7541TIP3    H244115   1.545   5.215  15.164  0.3838 -0.7749  0.1141
 7542TIP3   OH244116   4.043   2.871  10.837 -0.5399  0.4243 -0.0036
 7542TIP3    H144117   3.972   2.810  10.818 -0.3904  0.2644 -0.0565
 7542TIP3    H244118   4.067   2.907  10.751 -0.4181  0.3219 -0.0129
 7543TIP3   OH244119   5.636   5.698  15.290  0.3686  0.1531  0.2788
 7543TIP3    H144120   5.572   5.633  15.319  2.9868 -2.3561  0.7053
 7543TIP3    H244121   5.629   5.698  15.195 -0.4602  0.1485  0.3322
 7544TIP3   OH244122   2.252   3.309  13.306  0.1435  0.1350  0.2242
 7544TIP3    H144123   2.314   3.308  13.379 -0.6345  2.0023  0.9380
 7544TIP3    H244124   2.197   3.386  13.322 -1.8083 -1.0044 -0.8628
 7545TIP3   OH244125   4.783   3.465   5.268  0.2076 -0.3402 -0.2594
 7545TIP3    H144126   4.772   3.549   5.223 -4.2188 -1.0328 -0.6926
 7545TIP3    H244127   4.751   3.481   5.357 -0.9714 -1.6201 -0.4339
 7546TIP3   OH244128   5.607   3.905   4.621 -0.1188  0.4488 -0.3877
 7546TIP3    H144129   5.650   3.967   4.562 -1.8146  0.9180 -1.1576
 7546TIP3    H244130   5.514   3.913   4.601 -0.3326 -2.8171 -0.9664
 7547TIP3   OH244131   4.589   5.660  13.163  0.4685  0.6182 -0.2564
 7547TIP3    H144132   4.600   5.749  13.196  0.4452  0.6674 -0.3809
 7547TIP3    H244133   4.649   5.654  13.089  0.4740  0.5289 -0.2444
 7548TIP3   OH244134   4.532   1.946  15.940 -0.7419 -0.4509 -0.1922
 7548TIP3    H144135   4.490   1.925  16.024  3.0233 -2.4196  1.3022
 7548TIP3    H244136   4.489   1.888  15.877 -2.0836 -0.5290  0.7587
 7549TIP3   OH244137   6.698   3.856  13.712 -0.2861 -0.1104  0.1722
 7549TIP3    H144138   6.767   3.895  13.766  0.2752 -1.6653  0.5985
 7549TIP3    H244139   6.744   3.819  13.637 -0.9244  0.8912 -0.7182
 7550TIP3   OH244140   3.158   0.511   0.141 -0.1050  0.1431 -0.3339
 7550TIP3    H144141   3.110   0.510   0.224 -1.2009  0.8249 -0.9409
 7550TIP3    H244142   3.183   0.420   0.126 -0.4817 -0.0873  0.4108
 7551TIP3   OH244143   0.284   4.087   0.449 -0.1323  0.0498  0.3411
 7551TIP3    H144144   0.301   4.119   0.361  1.0213 -1.5130 -0.0155
 7551TIP3    H244145   0.350   4.129   0.504 -0.2084  0.2316  0.2927
 7552TIP3   OH244146   4.564   4.589  14.123  0.6661  0.6558 -0.4588
 7552TIP3    H144147   4.507   4.666  14.118  0.1585  0.1821 -2.3196
 7552TIP3    H244148   4.636   4.608  14.063  1.0733  0.1248 -0.1376
 7553TIP3   OH244149   6.066   2.485  14.611 -0.0569 -0.4221 -0.4048
 7553TIP3    H144150   6.001   2.550  14.638  0.8453 -0.0302  0.8307
 7553TIP3    H244151   6.143   2.536  14.588  0.2726 -0.9835 -0.5640
 7554TIP3   OH244152   5.688   0.820  14.107  0.1624  0.1468  0.1822
 7554TIP3    H144153   5.740   0.864  14.041  0.0608 -0.2618 -0.1716
 7554TIP3    H244154   5.620   0.773  14.057 -0.0360  0.0018  0.5833
 7555TIP3   OH244155   5.522   0.014   4.885 -0.2536  0.3264  0.4121
 7555TIP3    H144156   5.487   0.041   4.800  2.6213 -0.1781 -0.9850
 7555TIP3    H244157   5.485  -0.074   4.899 -0.7622  0.4232 -0.3014
 7556TIP3   OH244158   2.041   3.206   0.033  0.6475 -0.8933  0.3501
 7556TIP3    H144159   2.005   3.130  -0.014 -1.4198  1.0976 -1.4026
 7556TIP3    H244160   1.973   3.229   0.096  0.0261  1.1987 -1.0603
 7557TIP3   OH244161   1.304   2.015   5.197 -0.4849  0.1223 -0.0694
 7557TIP3    H144162   1.247   2.075   5.150  0.0027  0.8489  0.2635
 7557TIP3    H244163   1.262   1.929   5.187 -0.1965  0.2064 -2.1382
 7558TIP3   OH244164   4.094   0.361   5.904  0.1067  0.1355  0.0118
 7558TIP3    H144165   4.161   0.427   5.885 -0.0666  0.4298  0.4312
 7558TIP3    H244166   4.143   0.286   5.938  0.2452  0.2798  0.1307
 7559TIP3   OH244167   2.345   4.226  15.398  0.3997  0.3613 -0.0006
 7559TIP3    H144168   2.396   4.283  15.456 -1.6399  0.7582  1.4714
 7559TIP3    H244169   2.287   4.178  15.457  0.5414 -1.6538 -1.4412
 7560TIP3   OH244170   4.017   0.842   4.260 -0.3390 -0.1639 -0.1375
 7560TIP3    H144171   4.070   0.786   4.316 -0.8749  0.4168  0.9686
 7560TIP3    H244172   4.073   0.861   4.184  1.1779  0.7486  1.1844
 7561TIP3   OH244173   1.120   5.280  16.713  0.1561  0.0423 -0.2202
 7561TIP3    H144174   1.112   5.243  16.800  0.7703  1.7347  0.5726
 7561TIP3    H244175   1.036   5.322  16.696  0.3589  0.5325 -0.0379
 7562TIP3   OH244176   2.657   6.151  11.088  0.0166  0.7144  0.7926
 7562TIP3    H144177   2.721   6.134  11.019  0.4071  2.6083  0.6521
 7562TIP3    H244178   2.588   6.202  11.045 -0.5646  0.4745  1.4269
 7563TIP3   OH244179   4.311   2.074  17.262  0.4771 -0.6545  0.1374
 7563TIP3    H144180   4.347   2.156  17.295 -0.4003 -0.7883  1.4402
 7563TIP3    H244181   4.314   2.014  17.337  1.7018 -2.0153 -0.9627
 7564TIP3   OH244182   0.061   3.912   3.005 -0.5914  0.1120  0.0539
 7564TIP3    H144183   0.086   3.850   2.936 -1.0339  0.2305 -0.2062
 7564TIP3    H244184   0.145   3.941   3.041 -0.3689 -0.3285 -0.0939
 7565TIP3   OH244185   5.220   6.175   1.515 -0.5438  0.3005 -0.1478
 7565TIP3    H144186   5.236   6.144   1.426  1.0962 -0.5510  0.4130
 7565TIP3    H244187   5.302   6.216   1.540 -0.5313 -0.6438  1.4339
 7566TIP3   OH244188   2.738   3.659  14.854 -0.2373 -0.0827 -0.1501
 7566TIP3    H144189   2.825   3.695  14.837 -0.2813 -0.0260 -0.2562
 7566TIP3    H244190   2.728   3.664  14.949  0.1777 -0.7920 -0.0739
 7567TIP3   OH244191   5.840   6.560  16.465 -0.7463  0.0779  0.5705
 7567TIP3    H144192   5.892   6.606  16.400  0.1813 -0.9473  0.5709
 7567TIP3    H244193   5.897   6.554  16.542 -1.1347 -0.4045  0.8264
 7568TIP3   OH244194   3.793   5.281  13.014 -0.7216  0.3699 -0.0693
 7568TIP3    H144195   3.862   5.256  12.954  0.3940 -0.3861  1.5050
 7568TIP3    H244196   3.811   5.373  13.034 -0.9885  0.5699 -0.7268
 7569TIP3   OH244197   1.929   4.184  11.504 -0.0401 -0.4223 -0.0634
 7569TIP3    H144198   1.860   4.244  11.531 -0.6378 -1.7187  1.3347
 7569TIP3    H244199   1.936   4.196  11.409 -1.2814  0.6567 -0.0264
 7570TIP3   OH244200   5.602   5.672  15.791 -0.6361 -0.3734 -0.1160
 7570TIP3    H144201   5.564   5.621  15.719 -0.4831  0.0193 -0.4779
 7570TIP3    H244202   5.697   5.665  15.777 -0.5660 -1.3868  0.8093
 7571TIP3   OH244203   4.481   4.194  13.778 -0.4875  0.5496  0.1086
 7571TIP3    H144204   4.399   4.208  13.826  0.4001 -0.3199  1.9443
 7571TIP3    H244205   4.476   4.254  13.704 -2.1695  1.5176  0.9641
 7572TIP3   OH244206   5.898   6.316   3.853 -0.1671  0.3753  0.0851
 7572TIP3    H144207   5.982   6.353   3.828 -0.4506  0.0393 -1.4555
 7572TIP3    H244208   5.919   6.251   3.920  0.7139  0.8566  0.2794
 7573TIP3   OH244209   5.407   6.077   0.953 -0.4452  0.0506 -0.3094
 7573TIP3    H144210   5.330   6.118   0.991  0.0110 -0.5663  1.3496
 7573TIP3    H244211   5.380   5.987   0.935 -0.0722 -0.2292  0.4794
 7574TIP3   OH244212   1.873   0.926  13.125 -0.1227  0.5320 -1.0364
 7574TIP3    H144213   1.822   0.978  13.187 -0.1581  0.1835 -0.7726
 7574TIP3    H244214   1.900   0.989  13.059  0.5863  1.0705 -0.2505
 7575TIP3   OH244215   3.321   3.195   1.537 -0.1030 -0.4899 -0.3630
 7575TIP3    H144216   3.323   3.112   1.584 -0.9489 -1.1675 -1.4942
 7575TIP3    H244217   3.256   3.248   1.585  2.2475  0.4735  1.8615
 7576TIP3   OH244218   2.729   0.323   6.544 -0.3563  0.4648 -0.1439
 7576TIP3    H144219   2.821   0.341   6.524 -0.8738  0.6489 -2.5722
 7576TIP3    H244220   2.696   0.406   6.579  0.0224  0.8875 -0.7629
 7577TIP3   OH244221   3.816   1.740   1.801  0.2576  0.3590  0.0722
 7577TIP3    H144222   3.869   1.806   1.755 -0.9608 -0.3247 -2.4172
 7577TIP3    H244223   3.848   1.656   1.768 -0.1968 -0.1796  0.9873
 7578TIP3   OH244224   6.716   0.447  15.418 -0.3209 -0.4560  0.2304
 7578TIP3    H144225   6.731   0.479  15.507 -1.2557 -2.4573  1.1631
 7578TIP3    H244226   6.666   0.366  15.431 -2.6701  0.5566 -2.2532
 7579TIP3   OH244227   1.364   5.348   0.134 -0.0384  0.1309  0.1908
 7579TIP3    H144228   1.418   5.282   0.178  1.2398  0.4016 -0.9457
 7579TIP3    H244229   1.410   5.366   0.052 -1.2618  1.2138 -0.2750
 7580TIP3   OH244230   1.367   4.980  17.208 -0.7136 -0.3145 -0.1008
 7580TIP3    H144231   1.276   5.010  17.207 -0.4204  0.6025 -2.1557
 7580TIP3    H244232   1.397   4.993  17.118  0.7829 -2.6909  0.0186
 7581TIP3   OH244233   3.555   1.885  10.593 -0.4693  0.4981  0.1675
 7581TIP3    H144234   3.543   1.976  10.621 -0.1778  0.0016  1.9796
 7581TIP3    H244235   3.510   1.834  10.660 -0.2949 -0.7134 -0.6328
 7582TIP3   OH244236   0.436   3.560   3.445  0.5408 -0.3051 -0.0688
 7582TIP3    H144237   0.432   3.613   3.525 -1.3095 -0.4986 -0.0045
 7582TIP3    H244238   0.420   3.470   3.475 -0.7087 -0.3067 -0.6965
 7583TIP3   OH244239   3.543   2.171   2.850  0.7387 -0.3260  0.2578
 7583TIP3    H144240   3.450   2.151   2.860  0.8881 -0.2188  2.0345
 7583TIP3    H244241   3.553   2.193   2.758 -1.5699  2.4371  0.5841
 7584TIP3   OH244242   5.988   5.073   0.188  0.1377 -0.1689  0.1132
 7584TIP3    H144243   6.002   5.146   0.248 -1.6177  0.7883 -0.6017
 7584TIP3    H244244   5.966   5.115   0.104  1.8524 -1.4912 -1.0232
 7585TIP3   OH244245   4.231   6.217   1.406  0.3062 -0.2703  0.6404
 7585TIP3    H144246   4.197   6.251   1.323  0.3060 -0.9356  0.3584
 7585TIP3    H244247   4.246   6.294   1.460 -2.7156 -0.0043  1.1867
 7586TIP3   OH244248   5.716   0.411  12.470  0.2750 -0.0623 -0.1047
 7586TIP3    H144249   5.768   0.331  12.480  0.9365  0.3219 -0.4182
 7586TIP3    H244250   5.770   0.468  12.415 -0.2296  0.5653  0.0415
 7587TIP3   OH244251   6.059   4.337   3.176 -0.1671 -0.6135 -0.0109
 7587TIP3    H144252   6.095   4.312   3.261  0.0689  0.1242  0.1101
 7587TIP3    H244253   6.123   4.398   3.140  0.0218 -1.3716 -0.9754
 7588TIP3   OH244254   1.623   4.274  10.449  0.2471 -0.0606 -0.5602
 7588TIP3    H144255   1.658   4.335  10.514 -1.9797  0.7562 -0.0660
 7588TIP3    H244256   1.663   4.190  10.470 -0.6867  0.1207  2.0976
 7589TIP3   OH244257   0.494   2.085   0.349 -0.3946 -0.3753  0.1961
 7589TIP3    H144258   0.508   2.031   0.271 -0.8713 -0.3265  0.0759
 7589TIP3    H244259   0.399   2.092   0.356 -0.3359  0.6420  0.0739
 7590TIP3   OH244260   1.992   5.472  14.472 -0.0098 -0.1727 -0.0808
 7590TIP3    H144261   1.954   5.427  14.397  2.7800 -0.5119 -1.3519
 7590TIP3    H244262   1.972   5.565  14.457 -0.2689 -0.3370 -0.7384
 7591TIP3   OH244263   2.359   6.555   4.345 -0.5062  0.1712  0.0625
 7591TIP3    H144264   2.441   6.591   4.310  0.0145 -1.5828 -0.5612
 7591TIP3    H244265   2.290   6.596   4.294  0.1508 -0.7911 -1.6150
 7592TIP3   OH244266   0.957   4.384  16.423  0.7176  0.8331 -0.8626
 7592TIP3    H144267   1.044   4.395  16.460  0.8876  0.3649 -1.1250
 7592TIP3    H244268   0.908   4.460  16.455  0.6444  0.0562  0.9525
 7593TIP3   OH244269   2.646   4.449   2.659 -0.0141  0.0052  0.1660
 7593TIP3    H144270   2.600   4.372   2.695 -0.2817  0.2200  0.2844
 7593TIP3    H244271   2.698   4.414   2.587 -1.1069 -0.0762 -0.5842
 7594TIP3   OH244272   4.007   1.551  12.982 -0.1386  0.1935  0.0609
 7594TIP3    H144273   4.078   1.523  12.924 -0.9358 -0.4733 -0.6195
 7594TIP3    H244274   4.039   1.630  13.025  0.2603  1.0169 -1.7110
 7595TIP3   OH244275   2.445   5.759   2.322 -0.1822  0.2110 -0.0134
 7595TIP3    H144276   2.471   5.667   2.328  0.3687  0.1227 -2.8499
 7595TIP3    H244277   2.360   5.763   2.365  0.1585 -1.4587  0.8456
 7596TIP3   OH244278   5.810   3.587   5.418  0.3116 -0.4701 -0.4072
 7596TIP3    H144279   5.825   3.521   5.350 -0.6310 -0.1538 -0.9415
 7596TIP3    H244280   5.786   3.666   5.369  0.6570  0.0475  0.2584
 7597TIP3   OH244281   4.978   0.093   1.049  0.1081 -0.0565  0.5641
 7597TIP3    H144282   4.954   0.003   1.026 -0.8921  0.2442  0.3938
 7597TIP3    H244283   5.046   0.084   1.115 -0.4940 -0.9416  1.0758
 7598TIP3   OH244284   6.263   6.359  15.278  0.2554 -0.0734  0.2333
 7598TIP3    H144285   6.313   6.385  15.201  1.2640 -0.6466  0.6913
 7598TIP3    H244286   6.187   6.313  15.243  0.4566  0.1020 -0.4303
 7599TIP3   OH244287   2.155   6.775  13.124  0.0852  0.4805  0.0476
 7599TIP3    H144288   2.207   6.695  13.118  0.6330  0.8864 -0.6420
 7599TIP3    H244289   2.068   6.745  13.151  0.4480 -0.2822  0.4036
 7600TIP3   OH244290   5.189   0.101   5.623  0.5572 -0.0269 -0.4539
 7600TIP3    H144291   5.259   0.116   5.686 -0.5680  1.2147  0.5272
 7600TIP3    H244292   5.113   0.146   5.660 -1.0932 -2.3231 -0.9203
 7601TIP3   OH244293   3.653   1.812   2.332  0.5116 -0.1013  0.2503
 7601TIP3    H144294   3.673   1.866   2.256 -1.4387 -0.9092 -0.8663
 7601TIP3    H244295   3.732   1.759   2.345  1.1347  0.5609 -0.7600
 7602TIP3   OH244296   4.289   0.830  16.968  0.6713 -0.0498 -0.0356
 7602TIP3    H144297   4.276   0.763  17.035  0.0543  0.7299  0.6318
 7602TIP3    H244298   4.211   0.824  16.913  1.9495 -1.8492 -1.7420
 7603TIP3   OH244299   6.295   0.031   4.378 -0.4213  0.1325  0.5721
 7603TIP3    H144300   6.224   0.062   4.435  0.2721  0.9255  1.0263
 7603TIP3    H244301   6.260   0.038   4.290 -1.1707 -0.1819  0.8427
 7604TIP3   OH244302   1.169   4.168   0.624  0.1633  0.2993  0.1947
 7604TIP3    H144303   1.096   4.147   0.683  1.4030 -0.0302  1.6410
 7604TIP3    H244304   1.140   4.136   0.539 -1.3619  0.1086  0.7573
 7605TIP3   OH244305   0.878   5.772  13.075 -0.2521 -0.5433  0.0900
 7605TIP3    H144306   0.796   5.815  13.049  1.1355  2.3267  0.2606
 7605TIP3    H244307   0.854   5.680  13.089 -3.5613  0.3681  0.7586
 7606TIP3   OH244308   2.041   3.576  16.720  0.2288  0.4000 -0.2231
 7606TIP3    H144309   2.095   3.647  16.754  2.7245 -1.4978 -0.0640
 7606TIP3    H244310   2.053   3.581  16.625 -1.4490  1.5752 -0.4008
 7607TIP3   OH244311   4.076   2.202  14.424 -0.6682 -0.2240 -0.1814
 7607TIP3    H144312   4.077   2.136  14.494 -0.3262 -0.4197 -0.3680
 7607TIP3    H244313   4.032   2.158  14.351 -3.0091  0.7207  0.6243
 7608TIP3   OH244314   2.409   3.007  13.080  0.0576 -0.1340 -0.2284
 7608TIP3    H144315   2.453   2.963  13.152 -1.4099 -3.2702 -1.1263
 7608TIP3    H244316   2.316   2.993  13.097 -0.3405  0.2662 -1.9748
 7609TIP3   OH244317   4.279   2.901  12.387  0.4530  0.5881 -0.0179
 7609TIP3    H144318   4.311   2.834  12.325 -0.4413 -0.3405  0.5110
 7609TIP3    H244319   4.187   2.912  12.365 -0.0703 -0.3198  1.6417
 7610TIP3   OH244320   2.079   3.402  14.273  0.0639 -0.1389  0.2885
 7610TIP3    H144321   1.999   3.448  14.249  0.5265  0.4039 -0.2472
 7610TIP3    H244322   2.049   3.321  14.313 -0.7707 -1.5200 -2.9779
 7611TIP3   OH244323   3.408   0.689  13.798 -0.2814  0.1308  0.0148
 7611TIP3    H144324   3.390   0.631  13.873 -1.6184  0.2750 -0.1933
 7611TIP3    H244325   3.372   0.774  13.824 -1.5112 -0.0223 -1.1170
 7612TIP3   OH244326   3.378   1.288   3.228 -0.2626 -0.2693 -0.4863
 7612TIP3    H144327   3.310   1.278   3.161  0.2654  1.1195 -1.2693
 7612TIP3    H244328   3.427   1.366   3.200  1.1202 -0.7538  0.5169
 7613TIP3   OH244329   6.455   5.641   3.641  0.2918  0.4353  0.1725
 7613TIP3    H144330   6.440   5.552   3.672 -0.2930  0.9660  1.4136
 7613TIP3    H244331   6.368   5.676   3.626  0.5028  1.0553  0.3968
 7614TIP3   OH244332   2.678   2.357   2.281  0.4077 -0.5779  0.2640
 7614TIP3    H144333   2.652   2.408   2.358 -0.0947 -0.0069 -0.2751
 7614TIP3    H244334   2.744   2.411   2.238  0.5949 -0.8391  0.2242
 7615TIP3   OH244335   3.086   0.382   0.408 -0.2878  0.3904  0.5481
 7615TIP3    H144336   3.085   0.464   0.458  1.1162 -0.6476  2.3162
 7615TIP3    H244337   3.049   0.317   0.468 -0.7981 -0.4070 -0.6213
 7616TIP3   OH244338   2.308   4.294   1.840 -0.0198  0.2367 -0.3091
 7616TIP3    H144339   2.228   4.347   1.838 -1.7453 -2.2290 -0.2439
 7616TIP3    H244340   2.296   4.237   1.916  1.3455 -0.8629 -0.8969
 7617TIP3   OH244341   0.283   3.762   0.874  0.1592 -0.4591 -0.2021
 7617TIP3    H144342   0.369   3.790   0.906 -0.1727 -0.6509  0.8751
 7617TIP3    H244343   0.221   3.800   0.936 -0.4418 -1.5276 -0.1322
 7618TIP3   OH244344   1.810   3.720   6.106 -0.1444  0.2720  0.0928
 7618TIP3    H144345   1.742   3.741   6.170 -0.3546 -0.1050 -0.0026
 7618TIP3    H244346   1.872   3.666   6.154  0.3055  0.9643  0.2914
 7619TIP3   OH244347   1.707   3.385   2.938 -0.2781  0.7797 -0.2424
 7619TIP3    H144348   1.617   3.411   2.960 -0.4424 -0.5274  0.6987
 7619TIP3    H244349   1.751   3.376   3.022 -0.0358 -1.2329 -0.5565
 7620TIP3   OH244350   2.584   2.466   3.963  0.0579  0.2171 -0.4709
 7620TIP3    H144351   2.531   2.503   4.034 -0.9409 -0.2237 -0.9791
 7620TIP3    H244352   2.646   2.535   3.941  1.4761 -0.2256  1.9536
 7621TIP3   OH244353   1.232   3.398   4.087 -0.0913  0.6575 -0.6058
 7621TIP3    H144354   1.148   3.427   4.051  0.2496  2.1002 -0.2698
 7621TIP3    H244355   1.283   3.479   4.097  1.3578 -0.1997 -0.8583
 7622TIP3   OH244356   1.252   1.315   2.514 -0.2868 -0.0004 -0.0851
 7622TIP3    H144357   1.221   1.263   2.440 -0.4585 -0.9384  0.6357
 7622TIP3    H244358   1.187   1.384   2.524 -0.0356  0.3788 -1.0750
 7623TIP3   OH244359   3.913   6.731  12.857  0.2273 -0.2268  0.3067
 7623TIP3    H144360   3.914   6.651  12.909 -0.6153  0.4453  1.3747
 7623TIP3    H244361   3.983   6.785  12.895 -0.6024  0.3946  0.9667
 7624TIP3   OH244362   1.797   3.223  16.506  0.2159  0.6012 -0.3097
 7624TIP3    H144363   1.838   3.304  16.476 -0.7058  1.0062 -0.4701
 7624TIP3    H244364   1.718   3.214  16.453 -0.0060 -0.0886  0.1242
 7625TIP3   OH244365   2.529   6.134   2.808  0.1466  0.0785 -0.0362
 7625TIP3    H144366   2.612   6.167   2.843  0.2585  0.0314 -0.2550
 7625TIP3    H244367   2.522   6.045   2.842  0.2007  0.0732 -0.0396
 7626TIP3   OH244368   2.453   6.499  14.953 -0.1269 -0.0055 -0.6179
 7626TIP3    H144369   2.375   6.551  14.971  0.0638  0.5432 -1.3305
 7626TIP3    H244370   2.501   6.499  15.036 -1.3777 -1.2393  0.1284
 7627TIP3   OH244371   4.920   0.991   5.226 -0.1529 -0.4466 -0.0933
 7627TIP3    H144372   4.965   0.907   5.229 -1.4930 -1.2536 -1.8090
 7627TIP3    H244373   4.976   1.046   5.171 -1.2974 -1.5204 -2.4209
 7628TIP3   OH244374   6.482   2.638   2.138 -0.6655  0.3032  0.5521
 7628TIP3    H144375   6.522   2.684   2.064  0.8701 -0.2081  1.0409
 7628TIP3    H244376   6.553   2.584   2.173 -1.8847 -0.8732  1.2501
 7629TIP3   OH244377   2.442   2.811  15.755 -0.0057 -0.0289  0.1307
 7629TIP3    H144378   2.395   2.785  15.676  0.7843  0.0677 -0.3729
 7629TIP3    H244379   2.394   2.887  15.788 -1.1366 -0.8889  0.4988
 7630TIP3   OH244380   4.915   1.096   3.787  0.3320  0.1080  0.0008
 7630TIP3    H144381   4.970   1.088   3.865 -0.3773  1.4205  0.6610
 7630TIP3    H244382   4.948   1.174   3.743 -0.5500  0.5170  0.0499
 7631TIP3   OH244383   1.534   3.915   5.493  0.1105 -0.3184  0.0054
 7631TIP3    H144384   1.520   3.998   5.538  2.8299  0.6495 -0.8410
 7631TIP3    H244385   1.463   3.910   5.429  0.0596  1.4772 -0.1054
 7632TIP3   OH244386   1.723   0.721  14.977 -0.6625 -0.7588 -0.5853
 7632TIP3    H144387   1.809   0.689  14.951  0.8858  2.1747  0.6473
 7632TIP3    H244388   1.719   0.705  15.072 -2.2598 -2.5524 -0.9253
 7633TIP3   OH244389   2.502   1.427  11.465  0.5013  0.3936 -0.1317
 7633TIP3    H144390   2.458   1.493  11.412  0.4122 -0.7357 -1.5112
 7633TIP3    H244391   2.587   1.415  11.422  1.1204  0.6826  0.9912
 7634TIP3   OH244392   5.798   0.022  16.991  0.2415  0.4501  0.0411
 7634TIP3    H144393   5.806  -0.021  16.906 -1.7623  0.5588 -0.2216
 7634TIP3    H244394   5.721   0.078  16.982 -0.2529  0.1312  2.0607
 7635TIP3   OH244395   4.351   3.534  13.435 -0.0280  0.0907 -0.5225
 7635TIP3    H144396   4.352   3.476  13.359 -2.4838  1.7017 -1.8512
 7635TIP3    H244397   4.386   3.617  13.402  2.1192 -0.1426  1.0102
 7636TIP3   OH244398   1.831   0.074  16.989 -0.1558 -0.0833 -0.2052
 7636TIP3    H144399   1.761   0.081  17.054  0.4706  0.6658  0.3983
 7636TIP3    H244400   1.873  -0.010  17.009 -2.2219 -1.5780 -1.9411
 7637TIP3   OH244401   4.444   3.860   1.655 -0.6081  0.0004  0.3798
 7637TIP3    H144402   4.351   3.846   1.642 -0.3932 -1.5716  0.4677
 7637TIP3    H244403   4.452   3.885   1.747 -0.8061 -1.2097  0.7341
 7638TIP3   OH244404   6.713   5.540   5.733  0.1364  0.0936  0.9710
 7638TIP3    H144405   6.802   5.534   5.700 -0.0031 -3.1315  1.0490
 7638TIP3    H244406   6.663   5.577   5.660  1.0699 -0.5297  0.0059
 7639TIP3   OH244407   1.148   1.655  15.572 -0.6207 -0.2008  0.2963
 7639TIP3    H144408   1.215   1.645  15.639  1.5403 -0.5503 -1.8627
 7639TIP3    H244409   1.174   1.593  15.503 -1.6452  1.6201 -1.7718
 7640TIP3   OH244410   4.891   4.116  12.264 -0.2466 -0.3021 -0.4079
 7640TIP3    H144411   4.947   4.107  12.187  0.6462  0.9308  0.0693
 7640TIP3    H244412   4.915   4.043  12.320  0.0246 -0.4656 -0.7367
 7641TIP3   OH244413   0.631   1.603   0.690 -0.2647  0.1064 -0.4964
 7641TIP3    H144414   0.716   1.646   0.676  0.8662 -1.5585  1.0967
 7641TIP3    H244415   0.615   1.555   0.609  0.6058 -0.0561 -0.5797
 7642TIP3   OH244416   2.192   6.207  11.634 -0.4582 -0.0922  0.3696
 7642TIP3    H144417   2.262   6.201  11.699 -0.6240  0.3349  0.5884
 7642TIP3    H244418   2.112   6.193  11.683 -0.5299 -0.6375  0.1103
 7643TIP3   OH244419   0.912   5.989   5.342 -0.6559  0.1887  0.0753
 7643TIP3    H144420   0.870   5.906   5.318  1.0778 -0.6242 -0.2707
 7643TIP3    H244421   0.840   6.048   5.361 -2.0076 -0.6228 -2.2805
 7644TIP3   OH244422   5.854   4.749  13.501 -0.2105  0.3445 -0.2059
 7644TIP3    H144423   5.875   4.834  13.538  0.3982  0.3443 -0.5397
 7644TIP3    H244424   5.788   4.767  13.434 -0.1442  0.5424 -0.2172
 7645TIP3   OH244425   2.062   6.765   5.284 -0.3736 -0.4803  0.0991
 7645TIP3    H144426   2.011   6.757   5.204  1.5731  0.2273 -1.2312
 7645TIP3    H244427   2.132   6.700   5.275  1.4643  1.4843 -0.0187
 7646TIP3   OH244428   2.156   0.069   2.972 -0.6341  0.7422  0.0704
 7646TIP3    H144429   2.230   0.041   2.917 -0.1862 -1.8224  1.8881
 7646TIP3    H244430   2.092  -0.002   2.964 -1.9847  1.9239  0.2441
 7647TIP3   OH244431   5.298   5.745  17.167  0.5868  0.6347 -0.6767
 7647TIP3    H144432   5.245   5.684  17.218  0.6649  1.0454 -0.1055
 7647TIP3    H244433   5.335   5.805  17.231  0.4947  1.3002 -1.2346
 7648TIP3   OH244434   1.945   0.426  15.423  0.1153  0.6118  0.2401
 7648TIP3    H144435   1.981   0.349  15.380  0.4193  1.5426 -1.1740
 7648TIP3    H244436   2.021   0.473  15.457 -0.0610  0.3768  0.9849
 7649TIP3   OH244437   5.746   2.926  15.497 -0.3696 -0.5137  0.5207
 7649TIP3    H144438   5.672   2.891  15.447 -1.6126  0.2039  1.8169
 7649TIP3    H244439   5.807   2.853  15.504 -0.0535 -0.5713 -2.2074
 7650TIP3   OH244440   4.453   1.108  11.276  0.4583  0.0915  0.6138
 7650TIP3    H144441   4.391   1.066  11.336  0.6052  0.8155  1.2799
 7650TIP3    H244442   4.531   1.052  11.279  0.1936 -0.2780  0.5394
 7651TIP3   OH244443   2.421   0.575  13.357  0.2424 -0.9769  0.1747
 7651TIP3    H144444   2.390   0.573  13.447 -1.6068  2.1975 -0.3193
 7651TIP3    H244445   2.468   0.659  13.350  2.3594 -2.2228 -1.2155
 7652TIP3   OH244446   4.719   1.430   2.479 -0.3318  0.1164 -0.0289
 7652TIP3    H144447   4.699   1.503   2.537 -2.5143 -1.0191  0.6975
 7652TIP3    H244448   4.723   1.470   2.392 -3.1579  0.8763  0.1487
 7653TIP3   OH244449   4.272   6.650  15.534  0.3968 -0.0447  0.6339
 7653TIP3    H144450   4.259   6.626  15.443 -1.5000  2.8432  0.0883
 7653TIP3    H244451   4.332   6.724  15.531  0.7308 -0.2624  1.7649
 7654TIP3   OH244452   2.320   5.129  14.766  0.1642  0.2765 -0.9065
 7654TIP3    H144453   2.282   5.141  14.853  0.7140  0.4476 -0.6900
 7654TIP3    H244454   2.275   5.052  14.730 -0.2813  0.3929 -0.5956
 7655TIP3   OH244455   1.161   4.908   5.475  0.5850 -0.9270 -0.2395
 7655TIP3    H144456   1.076   4.868   5.489  0.0101 -0.2700 -1.7801
 7655TIP3    H244457   1.224   4.838   5.492 -0.2189 -1.2065  1.6709
 7656TIP3   OH244458   0.857   6.394  13.069 -0.0235 -0.6904  0.0820
 7656TIP3    H144459   0.791   6.463  13.067  1.0938  0.3782 -1.9094
 7656TIP3    H244460   0.818   6.321  13.019  0.1418 -0.1862 -0.7972
 7657TIP3   OH244461   5.207   2.923  11.230 -0.0574  0.3514  0.7279
 7657TIP3    H144462   5.290   2.966  11.213  0.3085 -0.3419  0.7209
 7657TIP3    H244463   5.217   2.884  11.317  0.1111 -0.8398  0.1905
 7658TIP3   OH244464   3.481   2.442  13.148 -0.4652 -0.1195  0.5509
 7658TIP3    H144465   3.570   2.414  13.166 -0.1574  0.9966  0.7903
 7658TIP3    H244466   3.485   2.537  13.147 -1.5512 -0.0668  0.0397
 7659TIP3   OH244467   0.343   2.251  13.067  0.0660 -0.1143 -0.2232
 7659TIP3    H144468   0.284   2.199  13.122  1.0051  1.8731  2.7913
 7659TIP3    H244469   0.369   2.191  12.996 -2.0997 -2.3922  0.8272
 7660TIP3   OH244470   5.716   2.488   1.454  0.2306 -0.3266 -0.1135
 7660TIP3    H144471   5.794   2.544   1.451 -0.9995  1.3209 -1.8272
 7660TIP3    H244472   5.660   2.528   1.521 -0.8594  0.8042 -1.6771
 7661TIP3   OH244473   2.009   3.525  15.467  0.8420 -0.4607  0.1772
 7661TIP3    H144474   2.056   3.583  15.408  2.4077 -0.5532  1.2943
 7661TIP3    H244475   2.047   3.438  15.451  0.8132 -0.6006  0.8290
 7662TIP3   OH244476   2.925   6.771   0.801  0.3800  0.0338  0.1391
 7662TIP3    H144477   2.932   6.676   0.812 -1.4300  0.0850  2.0789
 7662TIP3    H244478   3.013   6.804   0.821  0.6114 -1.1049  1.0303
 7663TIP3   OH244479   0.110   3.289   4.127  0.6257 -0.0576  0.3850
 7663TIP3    H144480   0.168   3.213   4.122  1.4962  0.7079 -1.4860
 7663TIP3    H244481   0.125   3.325   4.214  1.9183 -0.6925  0.4420
 7664TIP3   OH244482   6.383   3.172   2.872  0.0087  0.1349  0.3045
 7664TIP3    H144483   6.410   3.186   2.781  1.7097 -0.0090  0.7636
 7664TIP3    H244484   6.292   3.201   2.875 -0.0442  0.2024 -1.4271
 7665TIP3   OH244485   3.758   0.812   1.076  0.0354 -0.4362  0.0088
 7665TIP3    H144486   3.662   0.813   1.075  0.0226  1.1970  0.6057
 7665TIP3    H244487   3.783   0.888   1.024  1.0162 -1.1140 -0.5117
 7666TIP3   OH244488   6.163   0.158  15.034  0.3742 -0.3439  0.3850
 7666TIP3    H144489   6.106   0.234  15.022 -1.9258 -1.8233  1.4653
 7666TIP3    H244490   6.178   0.154  15.129  1.8975 -0.2351  0.1519
 7667TIP3   OH244491   3.692   0.567  17.072  0.0332 -0.9910  0.1896
 7667TIP3    H144492   3.713   0.506  17.143  3.4560  0.9361  0.9544
 7667TIP3    H244493   3.754   0.545  17.002 -0.5216 -0.1313 -0.5819
 7668TIP3   OH244494   1.287   0.564  14.514 -0.1332 -0.5509  0.2496
 7668TIP3    H144495   1.338   0.633  14.556  0.7344 -0.1350 -1.4196
 7668TIP3    H244496   1.258   0.602  14.431 -1.3977 -1.5033  0.2354
 7669TIP3   OH244497   2.553   4.548  11.883  0.6527 -0.0576 -0.2187
 7669TIP3    H144498   2.518   4.500  11.959  1.9176 -1.2480 -0.3658
 7669TIP3    H244499   2.501   4.627  11.879  0.2669 -0.1891  1.6523
 7670TIP3   OH244500   2.807   3.588  15.389  0.2077  0.1926 -0.6953
 7670TIP3    H144501   2.754   3.542  15.453 -1.0192  0.2321 -1.6548
 7670TIP3    H244502   2.887   3.611  15.436  0.2127 -1.5988  0.2127
 7671TIP3   OH244503   2.869   6.309  14.661  0.5797  0.4086 -0.1698
 7671TIP3    H144504   2.807   6.357  14.716 -0.2723 -1.3754  0.4723
 7671TIP3    H244505   2.859   6.218  14.688  0.8748 -0.3727 -2.5958
 7672TIP3   OH244506   4.211   0.909  16.118  0.3627  0.3539 -0.0397
 7672TIP3    H144507   4.296   0.867  16.126  1.3999  2.1287 -1.2629
 7672TIP3    H244508   4.213   0.951  16.032 -0.7487  2.5651  0.9774
 7673TIP3   OH244509   3.108   2.444  10.713 -0.0911 -0.3148  0.1169
 7673TIP3    H144510   3.167   2.374  10.685  0.6169 -0.0867  1.0183
 7673TIP3    H244511   3.021   2.407  10.703  0.2096 -0.7634 -0.9477
 7674TIP3   OH244512   4.494   2.476  15.484 -0.1025 -0.1709  0.4538
 7674TIP3    H144513   4.477   2.428  15.402  1.3459 -0.2412  0.1724
 7674TIP3    H244514   4.426   2.446  15.544  0.1352 -1.7937 -0.0576
 7675TIP3   OH244515   1.662   0.511   5.720 -0.0838 -0.5138 -0.3767
 7675TIP3    H144516   1.591   0.556   5.675 -1.0803 -0.9485  0.7606
 7675TIP3    H244517   1.661   0.422   5.684  1.7534  0.2630 -2.4718
 7676TIP3   OH244518   5.171   4.162  13.260  0.0692  0.0223 -0.4255
 7676TIP3    H144519   5.177   4.256  13.242  1.0681 -0.1484 -1.0240
 7676TIP3    H244520   5.261   4.136  13.279 -0.4495 -0.4965  1.3969
 7677TIP3   OH244521   4.948   2.194   4.096 -0.8269 -0.0914 -0.0571
 7677TIP3    H144522   5.020   2.255   4.106 -0.8255 -0.0897 -0.0771
 7677TIP3    H244523   4.981   2.126   4.038 -0.7271 -0.2683  0.2083
 7678TIP3   OH244524   2.475   5.452  12.451  0.5384 -0.3774 -0.1060
 7678TIP3    H144525   2.527   5.476  12.528  0.2693  2.0829 -0.6478
 7678TIP3    H244526   2.532   5.469  12.377  0.4273 -1.7471 -0.5189
 7679TIP3   OH244527   5.310   5.533   5.111 -0.6741  0.4202  0.7903
 7679TIP3    H144528   5.236   5.564   5.163 -0.7560  0.3392  0.7233
 7679TIP3    H244529   5.374   5.604   5.116 -0.8990  0.6413  0.5569
 7680TIP3   OH244530   1.885   5.744  14.366  0.2321 -0.2771  0.3783
 7680TIP3    H144531   1.952   5.779  14.307  0.1681  0.0414  0.4957
 7680TIP3    H244532   1.852   5.820  14.413 -1.4029 -0.1674 -0.8845
 7681TIP3   OH244533   6.281   0.989  13.324  0.6846  0.5474 -0.0349
 7681TIP3    H144534   6.343   1.029  13.384  2.0096 -0.3858 -0.7577
 7681TIP3    H244535   6.212   0.954  13.381 -0.3421  3.5091  0.6147
 7682TIP3   OH244536   5.780   3.316  16.585 -0.2469 -0.1814  0.0177
 7682TIP3    H144537   5.704   3.332  16.530  1.8963  2.7356 -2.2607
 7682TIP3    H244538   5.747   3.322  16.674 -3.0286 -0.9768 -0.9153
 7683TIP3   OH244539   1.599   4.600   0.699 -0.5428  0.1709  0.3070
 7683TIP3    H144540   1.519   4.575   0.746 -0.5127 -0.3121  0.1022
 7683TIP3    H244541   1.646   4.518   0.686  0.2895  0.5298  0.9713
 7684TIP3   OH244542   1.523   2.087   1.285 -0.2987  0.1040  0.1716
 7684TIP3    H144543   1.549   2.143   1.212 -3.1269  2.5177  0.9243
 7684TIP3    H244544   1.450   2.035   1.251 -0.3026 -0.2239  0.6752
 7685TIP3   OH244545   2.117   0.870  12.604 -0.4926  0.3335 -0.4731
 7685TIP3    H144546   2.157   0.783  12.603  0.8732  0.9578 -1.3112
 7685TIP3    H244547   2.171   0.922  12.545 -0.4886  2.1124  1.0410
 7686TIP3   OH244548   2.829   1.001   3.094 -0.5311  0.0513 -0.5475
 7686TIP3    H144549   2.797   1.074   3.042 -3.1872 -1.5105 -1.2020
 7686TIP3    H244550   2.819   0.924   3.037 -0.0242 -1.1754  0.9649
 7687TIP3   OH244551   4.441   0.687   3.106 -0.0327  0.1308  0.3314
 7687TIP3    H144552   4.420   0.779   3.091 -1.5147 -0.1157  0.8806
 7687TIP3    H244553   4.509   0.689   3.173 -0.5371  0.7984  0.8267
 7688TIP3   OH244554   5.401   3.906   6.227 -0.0371  0.4859 -0.9860
 7688TIP3    H144555   5.479   3.914   6.281 -1.2451 -1.2004  1.0514
 7688TIP3    H244556   5.355   3.989   6.239 -0.1636  0.2253  0.3833
 7689TIP3   OH244557   3.436   6.391   5.500  0.4692 -0.3644  0.2059
 7689TIP3    H144558   3.502   6.388   5.431  0.1679  0.2268 -0.1119
 7689TIP3    H244559   3.443   6.306   5.544 -0.9220 -1.6515 -2.0001
 7690TIP3   OH244560   1.819   4.273   3.535 -0.1644  0.0701 -0.1472
 7690TIP3    H144561   1.778   4.354   3.565 -1.3466  0.2225 -2.0955
 7690TIP3    H244562   1.794   4.207   3.600 -1.1181  0.7805  0.2176
 7691TIP3   OH244563   4.846   2.277  15.699  0.5296  0.0455  0.4345
 7691TIP3    H144564   4.832   2.309  15.788  1.7295 -0.0278  0.6562
 7691TIP3    H244565   4.796   2.195  15.694 -2.4007  1.7932 -0.0777
 7692TIP3   OH244566   1.983   2.868   2.823 -0.5508  0.3509 -0.2738
 7692TIP3    H144567   2.076   2.868   2.849 -0.6918  1.1173  0.2785
 7692TIP3    H244568   1.961   2.961   2.818 -1.8608  0.1912  1.7441
 7693TIP3   OH244569   3.187   2.909   0.128  0.0870  0.1480 -0.4421
 7693TIP3    H144570   3.264   2.871   0.170 -0.1249 -0.5209 -0.6448
 7693TIP3    H244571   3.211   3.000   0.110  1.1289 -0.2825 -1.2485
 7694TIP3   OH244572   0.398   3.348  15.376  0.2926  0.4386 -0.3326
 7694TIP3    H144573   0.468   3.390  15.426 -0.1181 -0.4448  1.0378
 7694TIP3    H244574   0.337   3.317  15.443 -0.1106 -1.0827 -1.3781
 7695TIP3   OH244575   3.131   6.758   2.194  0.1962 -0.0255  0.3249
 7695TIP3    H144576   3.172   6.677   2.223 -2.1181 -1.4563 -0.2400
 7695TIP3    H244577   3.140   6.818   2.268  0.9092 -1.1786  1.1808
 7696TIP3   OH244578   4.453   2.565   3.801 -0.1140  0.5946 -0.2840
 7696TIP3    H144579   4.510   2.641   3.816  0.5529  0.0182  0.1508
 7696TIP3    H244580   4.495   2.494   3.849  0.6902 -0.6804 -2.7503
 7697TIP3   OH244581   4.845   6.561   0.140  0.2144 -0.0769  0.2984
 7697TIP3    H144582   4.772   6.624   0.146  0.6835  0.4324  0.6671
 7697TIP3    H244583   4.918   6.605   0.183  0.1968 -1.4177  1.7372
 7698TIP3   OH244584   6.035   4.149   6.017 -0.0684 -0.5231 -0.2387
 7698TIP3    H144585   6.049   4.193   6.101  1.5731  2.2250 -1.8751
 7698TIP3    H244586   6.064   4.060   6.032  1.0904  0.1706  1.8722
 7699TIP3   OH244587   2.481   5.502   5.618 -0.1423 -0.5920  0.0807
 7699TIP3    H144588   2.391   5.524   5.642 -0.2003 -0.0379 -0.6306
 7699TIP3    H244589   2.473   5.428   5.558 -0.0011 -1.9306  1.6800
 7700TIP3   OH244590   0.328   0.504  13.296  0.0913  0.8057  0.2860
 7700TIP3    H144591   0.301   0.492  13.205 -0.9237  3.6162  0.1863
 7700TIP3    H244592   0.422   0.491  13.296 -0.1652 -1.1916 -0.7955
 7701TIP3   OH244593   5.538   3.872  15.354 -0.0252 -0.8892 -0.1994
 7701TIP3    H144594   5.572   3.958  15.331 -2.0140  0.6943  2.4568
 7701TIP3    H244595   5.607   3.832  15.406 -0.0184  0.0510  0.5228
 7702TIP3   OH244596   4.182   4.787   6.114 -0.5236  0.2867 -0.3314
 7702TIP3    H144597   4.151   4.828   6.033  1.4087  2.4394 -0.0304
 7702TIP3    H244598   4.217   4.703   6.086 -1.2505  0.3508 -1.4990
 7703TIP3   OH244599   1.960   0.415  14.347 -0.1354 -0.5132 -0.5587
 7703TIP3    H144600   1.982   0.484  14.285 -1.1737  0.4239  0.0870
 7703TIP3    H244601   2.044   0.377  14.372  0.7108  2.2909  1.0984
 7704TIP3   OH244602   2.975   1.627  11.374 -0.0031 -0.4788 -0.0397
 7704TIP3    H144603   2.944   1.716  11.358 -0.0780 -0.7888 -1.7410
 7704TIP3    H244604   2.903   1.571  11.345  0.9159 -1.1352 -1.0840
 7705TIP3   OH244605   5.296   4.711  11.147  0.0219 -0.5495 -0.7485
 7705TIP3    H144606   5.263   4.779  11.089 -1.8035 -2.0502 -1.5361
 7705TIP3    H244607   5.259   4.630  11.113  1.4569 -1.8537  0.6661
 7706TIP3   OH244608   3.632   0.214  11.171 -0.3667 -0.4426  0.2460
 7706TIP3    H144609   3.680   0.294  11.190 -2.4921  1.4166 -1.8381
 7706TIP3    H244610   3.673   0.179  11.092 -0.5312 -0.4660  0.1709
 7707TIP3   OH244611   4.766   2.995  10.392 -0.4127 -0.3057  0.0639
 7707TIP3    H144612   4.729   2.922  10.342  0.0860 -0.3739 -0.2103
 7707TIP3    H244613   4.694   3.024  10.448 -0.8520 -0.4965 -0.3963
 7708TIP3   OH244614   0.181   4.288  15.493 -0.0342 -0.1172 -0.5720
 7708TIP3    H144615   0.194   4.242  15.576  0.9841  0.5935 -0.3357
 7708TIP3    H244616   0.259   4.342  15.483 -0.1096 -0.2675 -2.0427
 7709TIP3   OH244617   5.648   1.322  10.655 -0.2901 -0.2399 -0.4736
 7709TIP3    H144618   5.686   1.285  10.734  1.1235  0.6530 -0.7297
 7709TIP3    H244619   5.556   1.338  10.678  0.1360  0.1343  1.0264
 7710TIP3   OH244620   6.090   0.629   4.146  0.5312  0.0928  0.3316
 7710TIP3    H144621   6.107   0.629   4.052  1.1545  2.0587  0.4069
 7710TIP3    H244622   6.168   0.670   4.185  0.9574 -2.0666  1.8615
 7711TIP3   OH244623   3.872   0.273   4.723  0.1860 -0.1650 -0.4563
 7711TIP3    H144624   3.847   0.204   4.784 -0.8150  1.3155  0.8544
 7711TIP3    H244625   3.871   0.353   4.776  1.1112  0.8917 -1.9915
 7712TIP3   OH244626   4.341   5.235  14.938 -0.1084  0.7292 -0.1302
 7712TIP3    H144627   4.376   5.266  14.854 -0.9308 -0.6118 -0.9980
 7712TIP3    H244628   4.276   5.169  14.913  2.0624 -2.1819  1.6461
 7713TIP3   OH244629   4.447   0.242  15.691 -0.3690 -0.6051 -0.6362
 7713TIP3    H144630   4.533   0.244  15.731  0.0211  0.7821 -1.5132
 7713TIP3    H244631   4.387   0.224  15.763  0.4445  0.5830  0.3522
 7714TIP3   OH244632   5.169   1.419  14.643  0.3207 -0.3443  0.1471
 7714TIP3    H144633   5.220   1.401  14.722  0.0963  0.0797  0.3889
 7714TIP3    H244634   5.218   1.487  14.597  0.1616 -0.1912  0.2026
 7715TIP3   OH244635   5.327   3.898   0.395 -0.3300 -0.3401  0.2530
 7715TIP3    H144636   5.420   3.901   0.373  0.0803  0.5830  2.0546
 7715TIP3    H244637   5.300   3.809   0.374  1.1489 -0.8533  0.4900
 7716TIP3   OH244638   5.486   1.844  16.442 -0.4639 -0.0603 -0.1439
 7716TIP3    H144639   5.444   1.779  16.386 -1.2228  0.9118 -0.7306
 7716TIP3    H244640   5.470   1.928  16.398  1.7752  0.3791 -0.2010
 7717TIP3   OH244641   0.246   0.022  16.352 -0.6465 -0.5731 -0.2277
 7717TIP3    H144642   0.178   0.080  16.318  0.7944  1.1179 -0.2764
 7717TIP3    H244643   0.210  -0.012  16.434 -1.8906 -0.3729 -0.6840
 7718TIP3   OH244644   3.796   4.888  17.099  0.3585 -0.1117 -0.4828
 7718TIP3    H144645   3.726   4.825  17.081 -0.5301  0.3893  1.0484
 7718TIP3    H244646   3.755   4.951  17.159  2.0890  0.2575  0.3288
 7719TIP3   OH244647   6.814   3.986   4.077 -0.2174 -0.1323  0.3158
 7719TIP3    H144648   6.871   3.951   4.145 -0.2495 -1.0724 -0.1249
 7719TIP3    H244649   6.873   4.015   4.008 -0.1882  0.7504  0.7045
 7720TIP3   OH244650   1.734   3.034  13.769 -0.4647 -0.3299 -0.0925
 7720TIP3    H144651   1.817   3.025  13.723 -0.5046 -0.9982 -0.0425
 7720TIP3    H244652   1.733   3.125  13.799  0.9515 -0.7071  1.2123
 7721TIP3   OH244653   0.008   0.126   3.652 -0.1823  0.2644  0.6004
 7721TIP3    H144654   0.040   0.211   3.681 -2.8639  2.2144 -1.8229
 7721TIP3    H244655   0.037   0.119   3.561 -0.2966 -1.2456  0.6671
 7722TIP3   OH244656   6.422   5.831  12.036  0.3231  0.3570  0.3968
 7722TIP3    H144657   6.481   5.887  11.986 -1.1840  0.9909 -0.7141
 7722TIP3    H244658   6.367   5.788  11.970 -0.5699 -0.0752  1.3970
 7723TIP3   OH244659   0.687   0.405  12.985  0.2938 -0.1115  0.5575
 7723TIP3    H144660   0.635   0.372  12.912 -1.2712  2.5996  0.3629
 7723TIP3    H244661   0.762   0.448  12.945  0.6778 -0.6722  0.6674
 7724TIP3   OH244662   3.849   1.663  13.862 -0.2776  0.2603 -0.2451
 7724TIP3    H144663   3.925   1.658  13.920  0.6169  0.5096 -1.3627
 7724TIP3    H244664   3.802   1.581  13.876 -0.3400  0.5224  1.1756
 7725TIP3   OH244665   5.997   4.314  11.436 -0.0868  0.3327 -0.2759
 7725TIP3    H144666   6.031   4.242  11.490  0.4333  0.5692 -0.2917
 7725TIP3    H244667   5.914   4.338  11.478 -0.6137 -0.7469 -0.6712
 7726TIP3   OH244668   3.421   1.056  14.651  0.1611 -0.4004 -0.2260
 7726TIP3    H144669   3.393   0.984  14.708 -1.4856  0.3193 -0.0910
 7726TIP3    H244670   3.462   1.119  14.710 -1.4283  0.2867  0.1565
 7727TIP3   OH244671   2.949   0.976   0.831  0.2311  0.1615  0.4843
 7727TIP3    H144672   2.862   0.939   0.813  1.2228 -1.6204 -0.7737
 7727TIP3    H244673   2.982   1.002   0.745  0.7136  1.4130  1.0354
 7728TIP3   OH244674   1.272   1.415   6.956 -0.4901  0.1554  0.2285
 7728TIP3    H144675   1.223   1.493   6.980  1.5089  1.3951  0.4011
 7728TIP3    H244676   1.294   1.428   6.864 -2.0967 -1.2870 -0.3745
 7729TIP3   OH244677   1.413   4.488  14.067  0.0806  0.1880  0.1683
 7729TIP3    H144678   1.398   4.543  13.991 -0.9034  0.9948  0.9289
 7729TIP3    H244679   1.365   4.407  14.048  0.8930 -0.1212 -0.6119
 7730TIP3   OH244680   4.742   4.387  16.949 -0.0372 -0.0780 -0.2153
 7730TIP3    H144681   4.773   4.470  16.986 -0.0702 -0.4577  0.6897
 7730TIP3    H244682   4.778   4.321  17.008 -2.8502 -0.5363  1.0722
 7731TIP3   OH244683   4.657   0.003   0.666  0.1628  0.2567 -0.1805
 7731TIP3    H144684   4.567  -0.006   0.698  0.4823  0.4079  0.7802
 7731TIP3    H244685   4.667   0.097   0.649  0.0882  0.2185 -0.4330
 7732TIP3   OH244686   6.528   2.683  13.382 -0.0332 -0.1933 -0.0240
 7732TIP3    H144687   6.469   2.709  13.453 -0.6735 -1.5569 -0.0443
 7732TIP3    H244688   6.615   2.686  13.422 -0.6373 -3.9725  1.7943
 7733TIP3   OH244689   0.750   5.520   6.589 -0.3763 -0.0886  0.4586
 7733TIP3    H144690   0.843   5.522   6.609  0.0636 -0.7306 -1.4171
 7733TIP3    H244691   0.740   5.445   6.531 -2.3813 -1.1630  2.1182
 7734TIP3   OH244692   1.865   0.741   5.437  0.0038  0.1238  0.2634
 7734TIP3    H144693   1.781   0.782   5.458 -0.0516 -0.2935  0.8537
 7734TIP3    H244694   1.841   0.662   5.388  0.0141 -0.4156  1.1162
 7735TIP3   OH244695   2.234   0.467   2.115 -0.1792 -0.2096 -0.1288
 7735TIP3    H144696   2.191   0.418   2.045 -0.4168  0.7989 -0.6989
 7735TIP3    H244697   2.208   0.421   2.195 -0.0614 -1.2562 -0.6719
 7736TIP3   OH244698   2.320   6.448   2.649  0.0747  0.0378 -0.2388
 7736TIP3    H144699   2.336   6.526   2.597  3.3467  0.7412  1.6186
 7736TIP3    H244700   2.348   6.375   2.593  1.0582  0.5787 -0.4737
 7737TIP3   OH244701   3.339   5.062   5.290  0.4585 -0.0271  0.4645
 7737TIP3    H144702   3.259   5.067   5.341 -0.7385 -0.3859 -1.3363
 7737TIP3    H244703   3.409   5.050   5.355 -0.9755 -0.0707  2.0115
 7738TIP3   OH244704   2.543   2.916   4.298  0.1872  0.2614 -0.0262
 7738TIP3    H144705   2.605   2.919   4.225 -0.4863 -0.3568 -0.6370
 7738TIP3    H244706   2.592   2.874   4.369  0.2701 -0.8351 -0.7141
 7739TIP3   OH244707   1.807   0.103   2.334 -0.2674  0.3529 -0.1928
 7739TIP3    H144708   1.817   0.065   2.247  0.1861 -1.4771  0.6348
 7739TIP3    H244709   1.890   0.083   2.378 -1.1236 -0.2054  1.1987
 7740TIP3   OH244710   3.463   4.479  11.684  0.4309 -0.6859 -0.3958
 7740TIP3    H144711   3.385   4.533  11.692  0.6822 -0.3905  0.1553
 7740TIP3    H244712   3.464   4.426  11.763  0.4138 -1.1897 -0.7326
 7741TIP3   OH244713   0.056   1.108   3.895  0.3509 -0.1563  0.5422
 7741TIP3    H144714  -0.029   1.149   3.881 -0.2676 -1.8495 -0.8094
 7741TIP3    H244715   0.118   1.181   3.897 -1.0315  1.0250  0.7644
 7742TIP3   OH244716   3.869   0.536  14.030 -0.3303  0.3011 -0.6434
 7742TIP3    H144717   3.787   0.515  13.987  0.2345  0.0916 -1.6208
 7742TIP3    H244718   3.919   0.586  13.966  1.1650 -1.3782 -0.8364
 7743TIP3   OH244719   4.564   0.428   2.029 -0.0336 -0.3005 -0.4753
 7743TIP3    H144720   4.568   0.521   2.011  1.5518 -0.5709 -1.6122
 7743TIP3    H244721   4.548   0.422   2.124 -1.2573  1.1103 -0.5918
 7744TIP3   OH244722   1.742   5.163  12.955  0.3327 -0.7714  0.4359
 7744TIP3    H144723   1.833   5.141  12.977  0.1490 -0.0582  1.9342
 7744TIP3    H244724   1.720   5.236  13.013  0.1132  1.7868 -2.7262
 7745TIP3   OH244725   2.269   6.190   4.609 -0.1339  0.0776  0.1259
 7745TIP3    H144726   2.322   6.117   4.643 -2.0173 -1.1982  0.4029
 7745TIP3    H244727   2.216   6.218   4.684 -0.7624  0.5025 -0.4742
 7746TIP3   OH244728   6.471   1.010  16.233 -0.2310 -0.1528  0.4060
 7746TIP3    H144729   6.530   1.067  16.282 -0.0436  1.0882 -1.1990
 7746TIP3    H244730   6.393   1.003  16.288 -1.1488  3.4490 -0.2498
 7747TIP3   OH244731   2.316   5.910  16.865  0.7270 -0.1857 -0.2330
 7747TIP3    H144732   2.276   5.830  16.897 -1.4946  0.5022 -1.2190
 7747TIP3    H244733   2.339   5.959  16.944  0.6412 -1.0696  0.3439
 7748TIP3   OH244734   1.359   5.060  13.136 -0.4127  0.1480 -0.1516
 7748TIP3    H144735   1.285   5.048  13.195 -1.4619  1.6462 -1.1365
 7748TIP3    H244736   1.430   5.009  13.176 -0.7985  1.8925  2.9286
 7749TIP3   OH244737   6.127   4.654  12.740 -0.0891  0.1172  0.2701
 7749TIP3    H144738   6.160   4.568  12.714  0.5455  0.8783 -1.5388
 7749TIP3    H244739   6.191   4.716  12.705 -0.4708  1.3206  1.6815
 7750TIP3   OH244740   4.580   5.128  15.367 -0.5396  0.5029  0.1118
 7750TIP3    H144741   4.644   5.200  15.359  0.8445 -0.5533  1.3888
 7750TIP3    H244742   4.502   5.169  15.404 -0.0814  1.5302 -0.0413
 7751TIP3   OH244743   4.287   4.681  14.470 -0.4191 -0.0701 -0.3954
 7751TIP3    H144744   4.322   4.603  14.427 -0.2742  0.4298 -1.1800
 7751TIP3    H244745   4.193   4.664  14.477 -0.3759 -0.3530 -0.4818
 7752TIP3   OH244746   0.370   4.483  15.511  0.1351 -0.2140  0.1569
 7752TIP3    H144747   0.363   4.516  15.601  1.5861 -0.6099  0.4295
 7752TIP3    H244748   0.446   4.529  15.474  0.8835 -1.6518 -0.1511
 7753TIP3   OH244749   6.344   5.059   3.885  0.1424 -0.4324  0.1530
 7753TIP3    H144750   6.390   5.079   3.804  0.8151 -0.8330  0.4373
 7753TIP3    H244751   6.268   5.118   3.884  0.5752  0.1241 -0.3834
 7754TIP3   OH244752   6.494   5.589   2.435  0.0679  0.2009  0.0125
 7754TIP3    H144753   6.431   5.637   2.488  0.8571  0.2520  0.9237
 7754TIP3    H244754   6.465   5.602   2.345 -0.9349  0.6262  0.3914
 7755TIP3   OH244755   4.362   0.232   0.449  0.0179  0.1399 -0.1636
 7755TIP3    H144756   4.274   0.196   0.443  0.3490 -0.9265  1.2124
 7755TIP3    H244757   4.420   0.158   0.429  0.6098  0.8573 -1.1622
 7756TIP3   OH244758   6.330   3.910   3.204  0.5422 -0.8076  0.2461
 7756TIP3    H144759   6.354   3.895   3.113 -0.5951 -1.7885  0.0940
 7756TIP3    H244760   6.243   3.949   3.200 -0.0429 -2.0132  0.9433
 7757TIP3   OH244761   4.221   4.963   5.758  0.0984  0.6420 -0.6299
 7757TIP3    H144762   4.172   4.983   5.838  0.5014  1.0759 -0.4839
 7757TIP3    H244763   4.238   5.049   5.719  0.2983  0.4612 -0.9419
 7758TIP3   OH244764   3.222   4.636   3.937 -0.3129  0.3155 -0.4294
 7758TIP3    H144765   3.229   4.607   4.028  0.9216 -1.7076 -1.1283
 7758TIP3    H244766   3.134   4.608   3.911 -1.8740  3.6114  0.9903
 7759TIP3   OH244767   4.680   2.477  13.544  0.0049 -0.7770  0.2466
 7759TIP3    H144768   4.658   2.565  13.514  0.5242 -0.2393  1.4113
 7759TIP3    H244769   4.611   2.421  13.509 -0.6952  0.1981  0.0565
 7760TIP3   OH244770   3.595   4.294   5.322  0.0800  0.4798  0.3482
 7760TIP3    H144771   3.635   4.217   5.363  1.9678  0.6519 -1.0996
 7760TIP3    H244772   3.668   4.351   5.300 -1.1410  1.7911 -0.4392
 7761TIP3   OH244773   5.458   4.292  12.687  0.5929 -0.4792 -0.0810
 7761TIP3    H144774   5.541   4.271  12.730  0.7269 -0.8614 -0.5208
 7761TIP3    H244775   5.432   4.210  12.644 -1.1236 -1.0206  1.9030
 7762TIP3   OH244776   1.870   6.559  16.064  0.1126 -0.5375  0.3695
 7762TIP3    H144777   1.840   6.547  15.973  1.5225  0.3272 -0.2210
 7762TIP3    H244778   1.801   6.612  16.104 -0.3884 -0.6812 -0.2792
 7763TIP3   OH244779   3.487   6.564  13.713 -0.0911  0.0830  0.2052
 7763TIP3    H144780   3.406   6.613  13.727  1.1626  1.8258  1.5692
 7763TIP3    H244781   3.488   6.499  13.783 -1.0464 -0.9557 -0.7328
 7764TIP3   OH244782   0.015   2.653  16.496  0.1527  0.2859 -0.2159
 7764TIP3    H144783   0.029   2.572  16.546 -0.0073 -0.1215 -0.8344
 7764TIP3    H244784   0.102   2.674  16.461  0.2689  0.5829  0.2364
 7765TIP3   OH244785   3.668   0.037   3.294 -0.2159 -0.4099  0.6938
 7765TIP3    H144786   3.605   0.018   3.364 -0.6520  1.0314  0.7113
 7765TIP3    H244787   3.624   0.102   3.239  1.2208  0.5212  0.6255
 7766TIP3   OH244788   3.229   2.552   2.786 -0.3617 -0.2824  0.0388
 7766TIP3    H144789   3.178   2.608   2.728  1.0726 -1.9570 -2.9587
 7766TIP3    H244790   3.176   2.472   2.795  0.5216 -1.0037 -1.0146
 7767TIP3   OH244791   5.173   4.757  13.382 -0.2223 -0.0077  0.3843
 7767TIP3    H144792   5.214   4.808  13.452  0.4793  0.3709 -0.2935
 7767TIP3    H244793   5.161   4.670  13.419  2.3144 -0.4700  0.2237
 7768TIP3   OH244794   2.718   0.044  13.899 -0.2386  0.7046 -0.1684
 7768TIP3    H144795   2.690   0.110  13.835  1.0967  1.6645  0.2093
 7768TIP3    H244796   2.673  -0.036  13.872  1.6722  0.6368 -3.4099
 7769TIP3   OH244797   2.308   0.919   4.360  0.6726  0.0039 -0.2565
 7769TIP3    H144798   2.287   0.942   4.451 -0.7170  1.0607 -0.8231
 7769TIP3    H244799   2.243   0.853   4.337  0.2932  0.5734 -0.8364
 7770TIP3   OH244800   2.413   6.070  12.640  0.5090  0.4323  0.0940
 7770TIP3    H144801   2.486   6.121  12.674  1.1632  0.1602 -0.8674
 7770TIP3    H244802   2.452   5.986  12.615  0.2190  0.9218 -2.0711
 7771TIP3   OH244803   3.562   3.883  16.724 -0.3732  0.2581 -0.4240
 7771TIP3    H144804   3.503   3.841  16.662 -0.4945 -1.1586  0.6273
 7771TIP3    H244805   3.505   3.914  16.795 -0.0813  0.6062 -0.3405
 7772TIP3   OH244806   5.848   4.718  15.208 -0.3046 -0.2231 -0.1141
 7772TIP3    H144807   5.831   4.744  15.117  1.1095 -1.2353 -0.6801
 7772TIP3    H244808   5.940   4.738  15.221 -1.2486  3.1104  2.2121
 7773TIP3   OH244809   0.684   2.242   5.090  0.3770 -0.2837  0.0295
 7773TIP3    H144810   0.769   2.287   5.088  1.5609 -2.4615  0.4030
 7773TIP3    H244811   0.682   2.192   5.009 -0.6452 -0.1205 -0.0547
 7774TIP3   OH244812   6.050   3.614   1.002  0.0157  0.4742 -0.1546
 7774TIP3    H144813   5.955   3.610   0.986  0.0695  0.3691 -0.4608
 7774TIP3    H244814   6.072   3.706   0.991 -0.2366  0.6710  1.0191
 7775TIP3   OH244815   6.022   6.818  16.774 -0.3948 -0.1311 -0.3440
 7775TIP3    H144816   6.029   6.888  16.839  0.3401 -1.1560  0.6929
 7775TIP3    H244817   5.984   6.861  16.697 -0.4606  1.2845  0.4599
 7776TIP3   OH244818   5.772   5.683   5.457  0.8251  0.0271  0.3172
 7776TIP3    H144819   5.860   5.662   5.489  0.4763 -1.9719  0.0616
 7776TIP3    H244820   5.768   5.643   5.370 -1.1690 -2.0829  1.3219
 7777TIP3   OH244821   2.982   2.694  11.093  0.4030  0.1400 -0.5984
 7777TIP3    H144822   2.933   2.618  11.062  1.8868 -0.4109 -1.6294
 7777TIP3    H244823   3.063   2.693  11.042  0.4348  2.4155 -0.6528
 7778TIP3   OH244824   5.494   2.927   3.344  1.0095 -0.0123  0.1623
 7778TIP3    H144825   5.547   2.967   3.275 -0.2637  0.5756 -0.4821
 7778TIP3    H244826   5.495   2.991   3.416  2.3408 -0.6279  0.7041
 7779TIP3   OH244827   4.437   2.170  12.121  0.5553 -0.6114  0.2054
 7779TIP3    H144828   4.447   2.170  12.026  0.7270 -0.2018  0.2235
 7779TIP3    H244829   4.471   2.255  12.150  0.6518 -0.7940  0.6454
 7780TIP3   OH244830   2.955   2.850  14.716  0.1118 -0.3715 -0.0356
 7780TIP3    H144831   2.993   2.935  14.739 -0.8602 -0.0656  0.4339
 7780TIP3    H244832   2.869   2.870  14.680  0.2846 -1.0931 -0.8914
 7781TIP3   OH244833   3.163   6.185  14.136 -0.0693 -0.5899  0.5627
 7781TIP3    H144834   3.085   6.146  14.097  0.3692 -0.0966 -0.8403
 7781TIP3    H244835   3.224   6.112  14.144 -0.2123 -0.7235  0.4536
 7782TIP3   OH244836   3.893   5.259   2.553  0.2938  0.1165 -0.1086
 7782TIP3    H144837   3.823   5.201   2.523  1.7138 -2.0749  0.7098
 7782TIP3    H244838   3.895   5.330   2.488 -2.5111  0.1047 -0.2501
 7783TIP3   OH244839   1.227   0.060   2.060 -0.4549 -0.9510  0.0853
 7783TIP3    H144840   1.230   0.091   2.151  0.5165 -0.0327 -0.2477
 7783TIP3    H244841   1.317   0.070   2.028 -1.3631  1.3648 -1.8439
 7784TIP3   OH244842   1.652   0.658   2.294  0.5076 -0.1899  0.2303
 7784TIP3    H144843   1.614   0.651   2.382  1.5074  2.2887  0.9048
 7784TIP3    H244844   1.733   0.707   2.307  0.2860  0.8539 -2.1892
 7785TIP3   OH244845   5.681   1.501  13.891 -0.2909  0.2547 -0.1834
 7785TIP3    H144846   5.739   1.574  13.912  0.7206 -0.6780  0.2968
 7785TIP3    H244847   5.593   1.534  13.913  0.2087  1.1262  0.5634
 7786TIP3   OH244848   5.611   1.876  13.554  0.2293  1.3237 -0.4393
 7786TIP3    H144849   5.549   1.900  13.623 -1.1972  0.3775 -1.3742
 7786TIP3    H244850   5.671   1.950  13.549 -0.0195  1.6641  1.4010
 7787TIP3   OH244851   1.439   0.864  15.623  0.1057  0.1053  0.0421
 7787TIP3    H144852   1.530   0.866  15.651  0.0618  1.0361  0.1300
 7787TIP3    H244853   1.412   0.773  15.636  1.9005 -0.8971 -2.7991
 7788TIP3   OH244854   2.197   5.111   0.446  0.2708 -0.4549 -0.0058
 7788TIP3    H144855   2.224   5.022   0.423 -0.8650 -0.6749 -0.5407
 7788TIP3    H244856   2.168   5.105   0.536  0.1715 -0.6289 -0.0493
 7789TIP3   OH244857   1.123   5.412   0.013 -0.2046  0.2840  0.4700
 7789TIP3    H144858   1.049   5.352   0.021 -0.0883  0.3638  2.3035
 7789TIP3    H244859   1.200   5.360   0.034 -0.0417  0.9024  1.4570
 7790TIP3   OH244860   0.367   5.875   1.776  0.3986 -0.0285 -0.0756
 7790TIP3    H144861   0.282   5.832   1.784 -0.3252  1.5371  0.9234
 7790TIP3    H244862   0.399   5.849   1.690 -1.4126 -0.0486 -0.7568
 7791TIP3   OH244863   5.356   2.482  15.772 -0.0299 -0.0013  0.3617
 7791TIP3    H144864   5.291   2.417  15.746 -1.2627  1.6797 -0.8504
 7791TIP3    H244865   5.338   2.498  15.865  0.9699 -2.1199  0.9629
 7792TIP3   OH244866   2.629   0.528   0.720  0.7284  0.8666  0.1880
 7792TIP3    H144867   2.719   0.543   0.748  0.8622  1.6664 -0.6654
 7792TIP3    H244868   2.626   0.561   0.630 -0.3656  0.6639  0.1469
 7793TIP3   OH244869   4.688   0.793  10.748 -0.0669  0.0424  0.0218
 7793TIP3    H144870   4.611   0.780  10.803 -0.4334 -1.3739 -0.7999
 7793TIP3    H244871   4.692   0.887  10.734 -1.8452  0.1077 -0.1843
 7794TIP3   OH244872   6.265   0.841  11.694 -0.7629  0.0485  0.2333
 7794TIP3    H144873   6.227   0.854  11.781  0.5562  2.2065  0.5214
 7794TIP3    H244874   6.254   0.926  11.650 -0.3776 -0.6717 -1.2905
 7795TIP3   OH244875   3.393   5.764   3.472 -0.3052  0.2269  0.6145
 7795TIP3    H144876   3.305   5.770   3.509 -0.8382  1.0495 -0.7717
 7795TIP3    H244877   3.417   5.672   3.481 -2.3677 -0.5414 -1.4349
 7796TIP3   OH244878   3.653   4.773   3.041 -0.0040 -0.0116 -0.7605
 7796TIP3    H144879   3.736   4.780   3.089 -0.9894 -1.6113  1.2745
 7796TIP3    H244880   3.587   4.758   3.109 -1.7003 -0.6675 -2.4984
 7797TIP3   OH244881   2.564   5.984  14.070 -0.0056  0.5809 -0.3828
 7797TIP3    H144882   2.584   5.901  14.027 -0.4082  0.1137  0.3172
 7797TIP3    H244883   2.594   6.051  14.009 -0.4955 -0.0782 -1.3539
 7798TIP3   OH244884   5.711   0.274  16.724  0.2552  0.9304  0.3443
 7798TIP3    H144885   5.731   0.361  16.758 -1.0605  1.2955  0.2054
 7798TIP3    H244886   5.624   0.254  16.757  0.7482 -0.5642  0.7930
 7799TIP3   OH244887   1.665   5.266  13.591  0.2619 -0.1933  0.3441
 7799TIP3    H144888   1.692   5.193  13.536  1.2327 -1.1194  1.9927
 7799TIP3    H244889   1.741   5.283  13.647  0.0944  2.1821 -0.1057
 7800TIP3   OH244890   3.441   0.815  13.294 -0.7141  0.4113  0.0406
 7800TIP3    H144891   3.428   0.825  13.388 -0.4505 -0.4637  0.1825
 7800TIP3    H244892   3.442   0.720  13.281  1.8789  0.4744 -0.4629
 7801TIP3   OH244893   5.962   2.200   2.673  0.2854 -0.1016 -0.3371
 7801TIP3    H144894   6.045   2.244   2.657  0.2325  0.9629  2.1471
 7801TIP3    H244895   5.979   2.108   2.652  1.4768  0.4656 -1.8817
 7802TIP3   OH244896   0.733   0.991  10.589 -0.1516 -0.0704  0.1773
 7802TIP3    H144897   0.678   0.935  10.645 -0.3415  0.0703  0.1309
 7802TIP3    H244898   0.737   1.075  10.636  3.1407 -1.2000  2.1124
 7803TIP3   OH244899   0.231   4.688   3.163  0.4390 -0.1487 -0.1002
 7803TIP3    H144900   0.211   4.779   3.143  2.6726  0.6739  1.2394
 7803TIP3    H244901   0.291   4.661   3.094 -0.4878 -0.7295 -0.6894
 7804TIP3   OH244902   4.747   4.377   5.375  0.6714  0.7246  0.1633
 7804TIP3    H144903   4.797   4.352   5.453  2.1332 -0.4216 -1.1168
 7804TIP3    H244904   4.813   4.406   5.312 -0.3248 -0.1759 -1.3243
 7805TIP3   OH244905   5.375   0.288  14.889 -0.0319 -0.2532  0.2377
 7805TIP3    H144906   5.421   0.228  14.830 -0.2795  0.5829 -0.8178
 7805TIP3    H244907   5.328   0.348  14.831  0.1751  0.9415  1.2751
 7806TIP3   OH244908   6.705   4.867   1.610 -0.1669  0.0771  0.0299
 7806TIP3    H144909   6.732   4.959   1.599  1.1043 -0.1981  0.6841
 7806TIP3    H244910   6.727   4.847   1.701 -0.3662 -0.8991 -0.1401
 7807TIP3   OH244911   6.036   1.987  13.406  0.0239  0.2811 -0.0267
 7807TIP3    H144912   5.989   2.038  13.471  1.5569  1.5853  0.0786
 7807TIP3    H244913   5.992   2.007  13.323  0.9622  2.2484 -0.0782
 7808TIP3   OH244914   1.873   1.721   1.586  0.0427 -0.4376  0.6710
 7808TIP3    H144915   1.843   1.643   1.538  0.4435  0.4543 -1.0489
 7808TIP3    H244916   1.839   1.708   1.674  0.4034 -2.7464  0.5098
 7809TIP3   OH244917   4.426   6.671  13.904  0.1620  0.0371  0.2443
 7809TIP3    H144918   4.521   6.678  13.909  0.2689 -0.3363 -0.9777
 7809TIP3    H244919   4.397   6.757  13.873  0.0220  0.4284  1.4463
 7810TIP3   OH244920   4.165   2.507  16.588 -0.0054 -0.3018  0.1809
 7810TIP3    H144921   4.179   2.423  16.632 -0.9790 -0.4827  0.1439
 7810TIP3    H244922   4.215   2.499  16.506 -0.7353 -1.1527 -0.1899
 7811TIP3   OH244923   6.540   2.623   0.465  0.0375  0.4573  0.3987
 7811TIP3    H144924   6.552   2.564   0.540 -0.7717 -0.7653 -0.4205
 7811TIP3    H244925   6.622   2.672   0.460  0.0372  0.6653  2.1862
 7812TIP3   OH244926   5.409   2.754  14.937  0.5603 -0.7628 -0.0073
 7812TIP3    H144927   5.366   2.676  14.901 -0.2673 -0.0969 -0.4835
 7812TIP3    H244928   5.383   2.756  15.028 -1.6812  0.4749 -0.6554
 7813TIP3   OH244929   1.831   5.107   2.270 -0.2889 -0.3328 -0.2479
 7813TIP3    H144930   1.919   5.114   2.232 -0.2171 -0.2648 -0.0667
 7813TIP3    H244931   1.779   5.172   2.223 -0.1280 -0.0405 -0.0236
 7814TIP3   OH244932   6.662   4.635  15.438 -0.0337 -0.1803  0.3056
 7814TIP3    H144933   6.584   4.656  15.386  0.0230 -0.5691  0.0601
 7814TIP3    H244934   6.662   4.540  15.443  1.3247 -0.2837 -1.0855
 7815TIP3   OH244935   3.751   5.608   4.928 -0.3428  0.3500 -0.8134
 7815TIP3    H144936   3.760   5.674   4.997 -1.0628 -1.7155  1.3677
 7815TIP3    H244937   3.750   5.657   4.846  2.4060  2.7613  0.5161
 7816TIP3   OH244938   3.235   4.070  15.528  0.1044 -0.7550 -0.2589
 7816TIP3    H144939   3.328   4.078  15.551 -0.0769 -0.5955  0.4433
 7816TIP3    H244940   3.191   4.136  15.582 -0.6501 -2.1789  0.9247
 7817TIP3   OH244941   5.803   4.493  13.204 -0.4202 -0.6657  0.1792
 7817TIP3    H144942   5.854   4.557  13.253 -1.5931 -0.4711  1.1641
 7817TIP3    H244943   5.850   4.410  13.216 -0.2079 -0.4418  0.8854
 7818TIP3   OH244944   5.686   6.028   0.940 -0.1733 -0.0706  0.3142
 7818TIP3    H144945   5.681   5.985   0.854  0.2631  2.4335 -1.0276
 7818TIP3    H244946   5.607   6.082   0.944  0.0792  0.2295  1.2426
 7819TIP3   OH244947   6.352   3.344  11.958  0.1787  0.3851  0.2256
 7819TIP3    H144948   6.435   3.379  11.928  0.4405 -0.4509 -0.0440
 7819TIP3    H244949   6.369   3.313  12.047 -0.0006  0.7630  0.3933
 7820TIP3   OH244950   1.228   2.079  15.342  0.0609 -0.2025 -0.6842
 7820TIP3    H144951   1.217   2.169  15.372  0.5409  0.7126 -3.1036
 7820TIP3    H244952   1.161   2.030  15.390  0.2305  1.3067  1.1678
 7821TIP3   OH244953   3.381   4.147  12.799 -0.4972 -0.3886  0.5990
 7821TIP3    H144954   3.301   4.099  12.777 -1.0493  0.3570  0.9827
 7821TIP3    H244955   3.400   4.200  12.722 -0.4829 -0.4083  0.5882
 7822TIP3   OH244956   3.492   5.669   2.636 -0.6230 -0.0617 -0.1898
 7822TIP3    H144957   3.536   5.748   2.669  0.4640 -1.1738  1.0615
 7822TIP3    H244958   3.558   5.625   2.583 -1.0969 -0.3383 -0.5520
 7823TIP3   OH244959   0.258   2.702   1.426 -0.2089  0.2397 -0.1909
 7823TIP3    H144960   0.337   2.655   1.399 -0.2420  0.3621 -0.5064
 7823TIP3    H244961   0.286   2.757   1.499 -0.2958 -0.6923  0.5663
 7824TIP3   OH244962   3.561   5.451   3.030  0.0223  0.3227 -0.0458
 7824TIP3    H144963   3.639   5.453   3.086  0.8835 -0.3060 -1.2004
 7824TIP3    H244964   3.498   5.399   3.079  1.1405 -1.1267 -0.1121
 7825TIP3   OH244965   5.757   3.000   6.644 -0.2494  0.4986  0.1941
 7825TIP3    H144966   5.758   2.919   6.695  1.3240 -0.2685 -0.9842
 7825TIP3    H244967   5.716   3.064   6.701 -1.0313 -1.0000  1.3610
 7826TIP3   OH244968   0.155   6.423  12.195 -0.9464 -0.3799  0.5361
 7826TIP3    H144969   0.249   6.424  12.211 -0.7732  0.8127 -0.4872
 7826TIP3    H244970   0.141   6.347  12.139 -0.5731 -0.4556  0.5430
 7827TIP3   OH244971   5.283   4.813  10.639  0.8519  0.6248 -0.0686
 7827TIP3    H144972   5.275   4.883  10.575 -1.8318 -0.4787 -1.0078
 7827TIP3    H244973   5.210   4.754  10.619  1.9568 -1.4615  1.8786
 7828TIP3   OH244974   5.834   6.094  15.628  0.7961  0.3030  0.3931
 7828TIP3    H144975   5.856   6.003  15.610 -1.6363  0.2923 -2.8999
 7828TIP3    H244976   5.893   6.144  15.571  0.0951  0.6681 -0.0162
 7829TIP3   OH244977   2.545   0.577   4.699 -0.2083  0.5041 -0.0687
 7829TIP3    H144978   2.585   0.532   4.625 -0.1850 -0.2290  0.3810
 7829TIP3    H244979   2.481   0.514   4.733 -0.2789  0.8700  0.4790
 7830TIP3   OH244980   1.134   4.237   6.328  0.0481 -0.1278  1.0164
 7830TIP3    H144981   1.099   4.248   6.240  4.0208  2.3391 -0.3679
 7830TIP3    H244982   1.065   4.271   6.386 -1.3432  1.1378 -1.3117
 7831TIP3   OH244983   4.891   5.984   2.297  0.5154 -0.5139  0.5743
 7831TIP3    H144984   4.804   6.024   2.304  1.2083  1.0630  0.5235
 7831TIP3    H244985   4.892   5.916   2.364 -1.4655 -1.9327 -0.8034
 7832TIP3   OH244986   2.233   2.573  15.007 -0.4603  0.1809 -0.0377
 7832TIP3    H144987   2.172   2.509  14.971 -0.6309  0.4914 -0.3114
 7832TIP3    H244988   2.189   2.657  14.996 -0.4884  0.2900  0.8493
 7833TIP3   OH244989   5.735   6.167  14.997 -0.3275 -0.1922  0.0563
 7833TIP3    H144990   5.785   6.233  15.046  0.7771  0.1017 -1.4316
 7833TIP3    H244991   5.717   6.099  15.062 -1.2165  1.4056  1.5364
 7834TIP3   OH244992   5.592   5.966  12.447 -0.9632 -0.1127  0.2721
 7834TIP3    H144993   5.673   5.958  12.397 -1.2446 -0.5742 -0.1111
 7834TIP3    H244994   5.543   5.886  12.428 -1.1727 -0.1940  1.1092
 7835TIP3   OH244995   1.130   5.067  13.287 -0.1527 -0.4948  0.4810
 7835TIP3    H144996   1.123   4.973  13.304 -2.0484 -0.3206  0.7656
 7835TIP3    H244997   1.053   5.088  13.235 -1.2248  1.4104  2.7415
 7836TIP3   OH244998   6.070   6.314  17.128  0.2697 -0.3046  0.0343
 7836TIP3    H144999   6.102   6.224  17.118  1.1837  0.0067  0.1609
 7836TIP3    H245000   6.139   6.360  17.175 -0.8135  0.1144  1.2574
 7837TIP3   OH245001   4.968   3.819  10.818 -0.7827 -0.5695  0.0624
 7837TIP3    H145002   5.046   3.784  10.861 -0.2105  0.7941  0.1519
 7837TIP3    H245003   4.895   3.779  10.865 -0.1496 -0.5463  1.0922
 7838TIP3   OH245004   1.729   3.693   5.841  0.6016  0.0328  0.2298
 7838TIP3    H145005   1.752   3.727   5.927  1.7141  0.2348 -0.1365
 7838TIP3    H245006   1.642   3.727   5.824  0.1516 -0.4612  1.5080
 7839TIP3   OH245007   2.581   5.725   1.155  0.6971  0.5417 -0.1408
 7839TIP3    H145008   2.676   5.735   1.165  0.5746  1.3928  0.1431
 7839TIP3    H245009   2.550   5.811   1.126 -0.2630  0.8492  1.7785
 7840TIP3   OH245010   1.977   0.801   1.284  0.3477 -0.2526  0.2573
 7840TIP3    H145011   2.072   0.808   1.294  0.3370 -0.5575  0.5455
 7840TIP3    H245012   1.943   0.806   1.373 -0.1210  3.1811 -0.0333
 7841TIP3   OH245013   0.838   0.810   5.894  0.1134 -0.1318  0.6731
 7841TIP3    H145014   0.813   0.746   5.828  0.0609  1.5706 -1.0061
 7841TIP3    H245015   0.931   0.793   5.910  0.3814  0.1075 -0.6137
 7842TIP3   OH245016   5.867   6.709  15.285 -0.8528 -0.6108 -0.1250
 7842TIP3    H145017   5.961   6.693  15.295 -0.6745 -0.1086 -0.9464
 7842TIP3    H245018   5.836   6.721  15.375 -0.0545 -0.3985  0.1314
 7843TIP3   OH245019   6.597   3.576   2.492 -0.1888  0.1040  0.0061
 7843TIP3    H145020   6.600   3.499   2.548 -0.8676  1.0177  1.3302
 7843TIP3    H245021   6.687   3.609   2.491  0.1427 -0.8261 -0.7398
 7844TIP3   OH245022   5.940   3.608  12.884 -0.1901  0.5953  0.5372
 7844TIP3    H145023   6.020   3.561  12.905 -0.6381 -0.4832 -0.0773
 7844TIP3    H245024   5.940   3.615  12.788 -1.1874 -0.1025  0.4721
 7845TIP3   OH245025   6.035   1.136  12.463  0.1485  0.7564 -0.0078
 7845TIP3    H145026   6.074   1.084  12.393  1.0423 -1.0315  1.7910
 7845TIP3    H245027   6.081   1.220  12.458  1.5681 -0.0250 -0.3541
 7846TIP3   OH245028   1.657   3.826   1.232 -0.4661  0.5200  0.7305
 7846TIP3    H145029   1.650   3.789   1.320 -3.2498 -0.5301  0.1070
 7846TIP3    H245030   1.567   3.838   1.203  0.4039  0.7928 -2.0281
 7847TIP3   OH245031   2.893   2.558  11.805 -0.1382 -0.2438  0.2962
 7847TIP3    H145032   2.872   2.575  11.713 -1.1246 -0.2762  0.5106
 7847TIP3    H245033   2.989   2.557  11.808 -0.0762  1.6861 -0.3749
 7848TIP3   OH245034   4.828   3.213   0.134 -0.1211 -0.3141 -0.1852
 7848TIP3    H145035   4.764   3.269   0.179 -1.4563 -1.8588 -0.1283
 7848TIP3    H245036   4.777   3.170   0.065  1.5749  0.8817 -2.2448
 7849TIP3   OH245037   0.654   4.594   2.148  0.4014 -0.1496  0.1808
 7849TIP3    H145038   0.715   4.665   2.127 -1.2843  1.3824  0.2674
 7849TIP3    H245039   0.700   4.514   2.124  1.5799  1.0939 -1.8468
 7850TIP3   OH245040   2.946   6.536   0.608 -1.0509  0.0274  0.3054
 7850TIP3    H145041   2.912   6.608   0.555  0.0982 -0.0673 -0.5911
 7850TIP3    H245042   2.995   6.482   0.546  0.2161 -0.1560  1.4505
 7851TIP3   OH245043   5.768   2.038   4.578 -0.3145  0.5635 -0.3522
 7851TIP3    H145044   5.781   2.046   4.483  2.0998 -0.3406 -0.1213
 7851TIP3    H245045   5.685   1.990   4.586 -0.8418  1.1439 -1.9816
 7852TIP3   OH245046   2.693   5.077   4.742 -0.1312 -0.4973  0.4255
 7852TIP3    H145047   2.680   5.166   4.707 -1.0954 -0.4502  0.8933
 7852TIP3    H245048   2.769   5.086   4.800 -0.3207  0.0736  0.6003
 7853TIP3   OH245049   5.316   0.958   3.701 -0.0230 -0.0415  0.3437
 7853TIP3    H145050   5.300   0.903   3.778  0.4359 -1.2314 -0.4168
 7853TIP3    H245051   5.249   0.932   3.638  0.5606 -0.1445 -0.2373
 7854TIP3   OH245052   1.144   2.418   0.336  0.7226 -0.3424  0.6747
 7854TIP3    H145053   1.198   2.432   0.414  0.4879  0.2637  0.7347
 7854TIP3    H245054   1.195   2.359   0.281  1.7468  0.7480  0.4305
 7855TIP3   OH245055   0.602   5.745  15.488 -0.3798 -0.6132 -0.3797
 7855TIP3    H145056   0.516   5.758  15.449  0.5557 -1.2226 -2.7118
 7855TIP3    H245057   0.635   5.665  15.448  1.9926  0.5724 -0.8807
 7856TIP3   OH245058   6.034   4.333   5.630 -0.3256 -0.1616 -0.3882
 7856TIP3    H145059   6.059   4.247   5.665  0.6263  0.6536  0.9553
 7856TIP3    H245060   6.117   4.374   5.605 -0.6826  0.8164  0.0154
 7857TIP3   OH245061   4.538   0.959  16.946  0.1747  0.0633  1.0340
 7857TIP3    H145062   4.450   0.933  16.973 -0.3473 -0.1074 -0.7462
 7857TIP3    H245063   4.546   1.051  16.973 -0.7322  0.2187  0.7842
 7858TIP3   OH245064   1.420   5.440  16.017  0.0471  0.1019 -0.1994
 7858TIP3    H145065   1.465   5.372  16.069  0.4442 -1.1300 -2.0899
 7858TIP3    H245066   1.477   5.452  15.941 -2.7278 -1.3871 -2.5850
 7859TIP3   OH245067   5.395   4.392  16.984 -0.0035 -0.5878 -0.5714
 7859TIP3    H145068   5.390   4.462  17.050 -0.5634 -0.7694 -0.4160
 7859TIP3    H245069   5.378   4.312  17.033  1.3880 -0.9142 -0.6146
 7860TIP3   OH245070   4.881   5.082  14.604  0.1039  0.0982 -0.1412
 7860TIP3    H145071   4.934   5.161  14.615  1.3416 -0.7635  0.1921
 7860TIP3    H245072   4.882   5.040  14.690 -0.5823 -0.2691 -0.3058
 7861TIP3   OH245073   5.170   4.695  15.034 -0.3198 -0.1565  0.3526
 7861TIP3    H145074   5.097   4.664  15.087 -2.8063  1.2594 -2.1638
 7861TIP3    H245075   5.203   4.616  14.991 -3.2623 -0.2214 -1.9300
 7862TIP3   OH245076   0.514   6.818   3.857 -0.1117  0.3637 -0.3422
 7862TIP3    H145077   0.455   6.882   3.896  2.6173  3.2224 -0.7206
 7862TIP3    H245078   0.558   6.776   3.932 -0.1143  0.7079 -0.1488
 7863TIP3   OH245079   2.130   0.589   1.017  0.0223  0.0794  0.2765
 7863TIP3    H145080   2.160   0.550   1.098  1.4082 -0.5821 -0.5465
 7863TIP3    H245081   2.207   0.631   0.979 -0.3675 -0.4708 -1.1837
 7864TIP3   OH245082   0.744   3.470   6.238 -0.3146 -0.0589  0.4989
 7864TIP3    H145083   0.821   3.460   6.182  0.1662  2.1714  0.7030
 7864TIP3    H245084   0.708   3.555   6.214 -2.7799 -1.1025  0.3609
 7865TIP3   OH245085   6.376   5.792  12.302  0.1045 -0.8495  0.0293
 7865TIP3    H145086   6.302   5.732  12.306 -0.2547 -0.4396 -0.3288
 7865TIP3    H245087   6.372   5.830  12.214 -0.9981  1.3430  0.9688
 7866TIP3   OH245088   5.716   6.371  11.807  0.3584 -0.0188 -0.3462
 7866TIP3    H145089   5.809   6.356  11.790  0.4348 -1.9913  1.6186
 7866TIP3    H245090   5.687   6.428  11.735  3.1254  0.8507 -0.8244
 7867TIP3   OH245091   1.036   5.205   1.598  0.2833  0.0306  0.0357
 7867TIP3    H145092   0.949   5.167   1.606 -0.4720  1.8021  0.4195
 7867TIP3    H245093   1.055   5.202   1.504 -0.3339 -0.0469 -0.0867
 7868TIP3   OH245094   3.613   6.767   4.416  0.5074 -0.1037  0.4979
 7868TIP3    H145095   3.662   6.841   4.452  1.5428  0.3145 -1.7148
 7868TIP3    H245096   3.674   6.694   4.417  0.2096 -0.3546  0.5504
 7869TIP3   OH245097   4.645   4.184   1.787  0.4459  0.3310  1.0682
 7869TIP3    H145098   4.563   4.139   1.806 -0.9034  1.7850 -1.1228
 7869TIP3    H245099   4.639   4.266   1.836  0.0603  0.9513 -0.0011
 7870TIP3   OH245100   2.536   2.516   2.496  0.1644  0.1440 -0.6401
 7870TIP3    H145101   2.443   2.496   2.486  0.2531  0.0396 -1.2974
 7870TIP3    H245102   2.554   2.580   2.427  0.8592 -0.7904 -1.3349
 7871TIP3   OH245103   4.847   3.070  14.318 -0.2311 -0.1670  0.2134
 7871TIP3    H145104   4.928   3.055  14.367  0.3566 -1.4576 -1.0761
 7871TIP3    H245105   4.877   3.097  14.231 -1.1704 -0.7255 -0.2934
 7872TIP3   OH245106   3.236   2.096  13.783 -0.6379  0.1304  0.3015
 7872TIP3    H145107   3.222   2.012  13.738 -4.6996 -0.1794  1.9390
 7872TIP3    H245108   3.211   2.162  13.719 -0.4316 -0.0345  0.0499
 7873TIP3   OH245109   5.133   1.006  12.558  0.3937  0.2854 -0.5147
 7873TIP3    H145110   5.162   1.057  12.633 -1.7167  0.9664 -0.1434
 7873TIP3    H245111   5.106   0.922  12.595  2.2653 -0.5278 -0.9217
 7874TIP3   OH245112   1.457   2.663  13.075 -0.1180  0.6598  0.0411
 7874TIP3    H145113   1.364   2.667  13.096 -0.3024 -0.1361 -0.5870
 7874TIP3    H245114   1.461   2.609  12.995  0.9230  0.1883  0.4061
 7875TIP3   OH245115   1.044   2.032   3.767  0.4828  0.3429 -0.4272
 7875TIP3    H145116   0.963   2.014   3.814 -0.4279  0.0926 -2.0500
 7875TIP3    H245117   1.064   1.950   3.721  2.4398 -0.0611  1.0975
 7876TIP3   OH245118   1.195   0.716   4.330 -0.2645 -0.2930  0.2753
 7876TIP3    H145119   1.135   0.776   4.375  0.1525 -0.0639  0.5306
 7876TIP3    H245120   1.180   0.632   4.372  1.8434  0.3969  2.5513
 7877TIP3   OH245121   3.361   2.179   0.807  0.2160  0.1467 -0.7495
 7877TIP3    H145122   3.346   2.084   0.806  0.0465  0.1714 -0.3777
 7877TIP3    H245123   3.457   2.187   0.810  0.2017 -0.0238  0.6383
 7878TIP3   OH245124   1.291   3.477  15.217  0.1700  0.7903 -0.1438
 7878TIP3    H145125   1.369   3.489  15.272 -1.1012  1.6428  1.5210
 7878TIP3    H245126   1.262   3.388  15.237  1.6785 -0.1627 -2.0684
 7879TIP3   OH245127   5.347   2.970  14.781 -0.3303 -0.5202 -1.0002
 7879TIP3    H145128   5.343   2.935  14.870 -0.9054 -0.9729 -1.2016
 7879TIP3    H245129   5.421   2.924  14.741  1.9863  2.0044  0.2270
 7880TIP3   OH245130   4.447   6.365  15.300 -0.7399 -0.5366  0.2352
 7880TIP3    H145131   4.383   6.428  15.268  0.7996  0.8670 -0.1572
 7880TIP3    H245132   4.520   6.371  15.238 -0.9586 -3.4414 -0.3974
 7881TIP3   OH245133   2.127   0.084   4.326 -0.7112 -0.4800  0.8335
 7881TIP3    H145134   2.097   0.004   4.282 -0.2245  0.3440 -1.0316
 7881TIP3    H245135   2.060   0.102   4.391 -3.1060  0.0489 -1.6916
 7882TIP3   OH245136   1.826   3.130   2.092  0.3129  0.3436 -0.4345
 7882TIP3    H145137   1.869   3.196   2.038  0.9230  1.2933  1.1567
 7882TIP3    H245138   1.899   3.078   2.128 -0.0513 -0.0201 -0.2146
 7883TIP3   OH245139   0.792   1.268  14.708  0.1016  0.1489  0.6042
 7883TIP3    H145140   0.766   1.229  14.625  0.6417  2.8154 -0.8518
 7883TIP3    H245141   0.885   1.288  14.698  0.2742  0.1352  1.9994
 7884TIP3   OH245142   6.135   5.380   4.313 -0.5298 -0.8415  0.0299
 7884TIP3    H145143   6.228   5.360   4.321 -0.7938 -2.4539 -0.8106
 7884TIP3    H245144   6.127   5.470   4.345  1.2466 -0.8318  0.4830
 7885TIP3   OH245145   3.758   0.366   3.662 -0.9028 -0.1165 -0.3612
 7885TIP3    H145146   3.730   0.324   3.744 -2.0077  0.3492 -0.4863
 7885TIP3    H245147   3.687   0.347   3.600  1.0851 -2.5839 -1.9492
 7886TIP3   OH245148   0.360   0.614   3.188  0.4259  0.4095  0.3760
 7886TIP3    H145149   0.311   0.595   3.267 -0.9217  0.9140 -0.3276
 7886TIP3    H245150   0.328   0.699   3.159  2.0756  0.9981  0.1766
 7887TIP3   OH245151   0.482   0.177   2.465  0.0422 -0.6031 -0.2100
 7887TIP3    H145152   0.475   0.268   2.433  0.4819 -1.3322 -2.4718
 7887TIP3    H245153   0.424   0.128   2.407  0.5966 -1.9469  0.3749
 7888TIP3   OH245154   4.009   4.258  11.995 -0.1870 -0.0934  0.1167
 7888TIP3    H145155   4.058   4.209  11.930  0.1096  0.5693 -0.1606
 7888TIP3    H245156   3.966   4.191  12.048 -1.4100 -0.6153 -1.5027
 7889TIP3   OH245157   4.148   5.591  16.938  0.1493 -0.0359  0.0311
 7889TIP3    H145158   4.132   5.558  17.027  0.4651 -0.4141 -0.0477
 7889TIP3    H245159   4.062   5.589  16.896 -0.1106  0.7390  0.5205
 7890TIP3   OH245160   5.481   2.792  14.631  0.3887  0.4845 -0.7740
 7890TIP3    H145161   5.465   2.700  14.649 -1.3594  1.1403  1.2065
 7890TIP3    H245162   5.575   2.796  14.610  0.9729 -1.4299  1.2569
 7891TIP3   OH245163   5.953   3.519   3.986  0.7219 -0.1268 -0.6032
 7891TIP3    H145164   5.952   3.559   4.073 -1.5613 -0.4116 -0.4565
 7891TIP3    H245165   5.878   3.559   3.941  1.8126 -0.0639 -2.4210
 7892TIP3   OH245166   3.271   5.426  11.162  0.1747  0.0969  0.6095
 7892TIP3    H145167   3.234   5.369  11.095 -0.6463  1.4959 -0.1471
 7892TIP3    H245168   3.328   5.487  11.115 -0.4562  1.1317  1.1524
 7893TIP3   OH245169   5.711   4.844   4.534  0.2898 -0.1419 -0.3397
 7893TIP3    H145170   5.712   4.899   4.612  1.4865 -2.3149  1.2321
 7893TIP3    H245171   5.649   4.775   4.555  1.3948 -1.3112 -0.8837
 7894TIP3   OH245172   0.348   3.189   5.997  0.0372 -0.5765  0.5564
 7894TIP3    H145173   0.327   3.100   6.026  1.2334 -0.9345  0.3691
 7894TIP3    H245174   0.312   3.245   6.065  0.8879 -1.3070  1.6314
 7895TIP3   OH245175   2.599   4.682  12.710  0.2442 -0.0728 -0.1496
 7895TIP3    H145176   2.693   4.681  12.727  0.3956  0.9842 -0.9265
 7895TIP3    H245177   2.582   4.768  12.671 -0.6192 -1.2656 -2.4572
 7896TIP3   OH245178   1.985   0.343  11.713  0.1982  0.4549  0.0223
 7896TIP3    H145179   2.011   0.413  11.772 -1.7482  1.2616 -0.0196
 7896TIP3    H245180   1.931   0.285  11.766  2.2634 -1.3299  0.1914
 7897TIP3   OH245181   3.557   4.866   0.146  0.2331  0.8769  0.0599
 7897TIP3    H145182   3.492   4.824   0.202  0.5237  1.1487  0.5980
 7897TIP3    H245183   3.512   4.879   0.063 -0.7334  2.0156  0.7575
 7898TIP3   OH245184   0.207   5.748  11.224  0.3037 -0.1249 -0.2806
 7898TIP3    H145185   0.201   5.670  11.169 -1.9656 -0.0506 -0.2034
 7898TIP3    H245186   0.297   5.778  11.214  0.1271 -0.4628 -3.4710
 7899TIP3   OH245187   6.356   4.334  11.852  0.1480 -0.4727  0.0071
 7899TIP3    H145188   6.397   4.282  11.922  0.1597 -0.3639  0.0810
 7899TIP3    H245189   6.425   4.393  11.822  0.0967 -0.4081  0.0148
 7900TIP3   OH245190   1.371   5.904  16.734 -0.0419 -0.1520  0.7087
 7900TIP3    H145191   1.389   5.972  16.669  2.2977 -0.2694  1.2032
 7900TIP3    H245192   1.385   5.822  16.687  0.2611 -0.2503  0.9696
 7901TIP3   OH245193   3.961   2.234  11.567 -0.6766 -0.6797  0.3782
 7901TIP3    H145194   4.052   2.222  11.541 -1.1169 -1.8209 -0.6877
 7901TIP3    H245195   3.915   2.159  11.529 -2.2569  0.4819 -0.0623
 7902TIP3   OH245196   4.627   3.819   4.667 -0.8004  0.5137 -0.1941
 7902TIP3    H145197   4.649   3.912   4.668  0.1957  0.3058 -1.4982
 7902TIP3    H245198   4.710   3.774   4.657 -1.3414 -0.4871 -0.2712
 7903TIP3   OH245199   1.140   4.197   3.660 -0.8085  0.5008 -0.0330
 7903TIP3    H145200   1.059   4.246   3.644  0.0433  1.3100 -2.0207
 7903TIP3    H245201   1.174   4.233   3.742 -2.3150  0.3310  0.6886
 7904TIP3   OH245202   1.094   3.388   3.118 -0.7923  0.6614  0.2280
 7904TIP3    H145203   1.020   3.398   3.058 -0.2710  2.7062 -0.1259
 7904TIP3    H245204   1.054   3.385   3.205 -1.2741  2.2438  0.0732
 7905TIP3   OH245205   0.967   4.277   5.768  0.2862 -0.4640  0.1874
 7905TIP3    H145206   0.900   4.315   5.712  1.0682 -0.9442 -1.1057
 7905TIP3    H245207   0.939   4.186   5.782  0.1978 -0.4044  0.3918
 7906TIP3   OH245208   5.514   2.328  15.193  0.6689  0.1668 -0.5846
 7906TIP3    H145209   5.584   2.387  15.164  0.0748  0.6751 -1.0091
 7906TIP3    H245210   5.515   2.256  15.129  0.6865  0.2650 -0.6953
 7907TIP3   OH245211   2.358   5.781  10.682  0.4778 -0.1923 -0.2318
 7907TIP3    H145212   2.299   5.840  10.636 -0.7780 -1.0168  0.2879
 7907TIP3    H245213   2.416   5.838  10.732 -1.1754  0.6121  0.8238
 7908TIP3   OH245214   5.223   4.212  11.886 -0.1123  0.2704  0.0273
 7908TIP3    H145215   5.271   4.257  11.816  1.8666  0.9981  1.8180
 7908TIP3    H245216   5.259   4.123  11.886 -0.2980  0.1931 -0.0210
 7909TIP3   OH245217   4.683   3.732   2.245 -0.4511 -0.2447  0.1241
 7909TIP3    H145218   4.737   3.678   2.188 -0.0442  0.1737  0.1093
 7909TIP3    H245219   4.685   3.819   2.205  0.0242  0.1068  0.8988
 7910TIP3   OH245220   2.854   2.774  16.253 -0.4697  0.5529  1.0424
 7910TIP3    H145221   2.893   2.693  16.220 -2.1971  0.2905 -0.4442
 7910TIP3    H245222   2.911   2.843  16.219  0.8302  0.0062  2.0459
 7911TIP3   OH245223   3.941   0.615   1.004  0.1896  0.0643 -0.0246
 7911TIP3    H145224   3.963   0.589   0.914 -1.2654 -0.9099 -0.1273
 7911TIP3    H245225   3.863   0.670   0.994  0.8975  1.1840  0.5386
 7912TIP3   OH245226   6.351   1.638   6.588 -0.6018  0.3697  0.3097
 7912TIP3    H145227   6.356   1.633   6.492 -0.8130  0.3199  0.3019
 7912TIP3    H245228   6.442   1.643   6.616 -0.5200 -0.1620  0.1371
 7913TIP3   OH245229   0.640   5.839   1.645 -0.2210 -0.2033  0.1425
 7913TIP3    H145230   0.714   5.807   1.593  0.7574  2.4280 -0.1275
 7913TIP3    H245231   0.578   5.766   1.644  0.2834 -0.7184 -3.6628
 7914TIP3   OH245232   6.691   3.604   0.317  0.7303 -0.8148 -0.3820
 7914TIP3    H145233   6.623   3.574   0.376 -0.9508 -1.0926 -2.4049
 7914TIP3    H245234   6.735   3.523   0.288 -0.2490 -0.9191 -1.6181
 7915TIP3   OH245235   1.571   6.378   2.027 -0.6091  0.0711 -0.3293
 7915TIP3    H145236   1.627   6.431   1.971 -0.3446  1.1563  0.9369
 7915TIP3    H245237   1.482   6.394   1.994 -0.5936  1.7979  0.4262
 7916TIP3   OH245238   6.350   3.701  16.337  0.0327  0.2672  0.1735
 7916TIP3    H145239   6.441   3.670  16.332 -0.1003 -0.0786 -0.0701
 7916TIP3    H245240   6.324   3.687  16.428  0.2417  0.4205  0.2599
 7917TIP3   OH245241   6.342   4.101   0.104  0.4912 -0.1859 -0.1334
 7917TIP3    H145242   6.286   4.063   0.172  1.1292  0.4675  0.7800
 7917TIP3    H245243   6.390   4.170   0.150  0.1959  0.9335 -1.4860
 7918TIP3   OH245244   1.202   2.583  13.444  0.8518  1.0053 -0.2278
 7918TIP3    H145245   1.266   2.529  13.398  1.2465  1.3870 -0.1290
 7918TIP3    H245246   1.124   2.581  13.389  0.5198 -0.5128  0.2812
 7919TIP3   OH245247   2.296   5.016   4.549  0.6851 -0.0748 -0.4043
 7919TIP3    H145248   2.273   4.982   4.462  1.8363  0.2617 -0.8582
 7919TIP3    H245249   2.350   4.948   4.589 -2.1263 -1.4168  1.1728
 7920TIP3   OH245250   1.964   6.027   6.540 -0.3214  0.5781 -0.2012
 7920TIP3    H145251   2.029   6.053   6.474 -0.1812 -0.0152 -0.3027
 7920TIP3    H245252   1.992   5.940   6.567  0.0576  1.1299  1.2105
 7921TIP3   OH245253   3.952   0.848   2.499  0.4324 -0.3287 -0.3618
 7921TIP3    H145254   3.881   0.912   2.508  0.3542 -0.1999 -1.7504
 7921TIP3    H245255   3.917   0.768   2.537  0.4132  0.3458  1.1074
 7922TIP3   OH245256   0.383   6.116   0.111 -0.4320  0.3335  0.0766
 7922TIP3    H145257   0.355   6.151   0.026 -0.9214 -0.4044 -0.0764
 7922TIP3    H245258   0.395   6.022   0.095  2.2681  0.6462  0.1250
 7923TIP3   OH245259   3.376   5.670  15.751 -0.5354 -0.1078 -0.3600
 7923TIP3    H145260   3.350   5.579  15.767  0.0712 -0.2780 -0.3339
 7923TIP3    H245261   3.377   5.709  15.838 -0.2144 -0.2330 -0.3057
 7924TIP3   OH245262   3.547   3.809   2.539 -0.6123 -0.4655  0.1276
 7924TIP3    H145263   3.512   3.817   2.628 -3.5974  0.7390 -1.0753
 7924TIP3    H245264   3.606   3.883   2.529 -1.2812  0.1539  0.6945
 7925TIP3   OH245265   2.854   3.954  14.163 -0.0829  0.0193  0.1541
 7925TIP3    H145266   2.845   3.991  14.251  1.5704 -0.2905  0.4715
 7925TIP3    H245267   2.838   4.029  14.104  0.0461  0.5061  0.7326
 7926TIP3   OH245268   5.006   5.817  12.379  0.0079  0.2251 -0.2887
 7926TIP3    H145269   4.915   5.832  12.353 -0.8552 -2.8727  0.7679
 7926TIP3    H245270   5.054   5.889  12.339 -2.4205  0.0901 -3.6527
 7927TIP3   OH245271   3.538   6.313  13.272 -0.6545 -0.2544 -0.3432
 7927TIP3    H145272   3.502   6.397  13.300  0.5082  0.2740 -0.4346
 7927TIP3    H245273   3.490   6.248  13.323 -2.6524  0.3589 -1.3710
 7928TIP3   OH245274   1.986   0.196  15.279  0.2718  0.7101 -0.3095
 7928TIP3    H145275   1.976   0.181  15.185 -1.8895  0.3591 -0.0518
 7928TIP3    H245276   1.932   0.128  15.320 -0.1500  1.8935  1.1383
 7929TIP3   OH245277   5.797   1.824   3.578  0.2610 -0.3307 -0.1511
 7929TIP3    H145278   5.868   1.881   3.548  1.0488 -1.2186 -0.0015
 7929TIP3    H245279   5.821   1.737   3.546 -0.5521 -0.7122  0.2582
 7930TIP3   OH245280   5.976   4.001  14.823 -0.1147  0.2216 -0.4580
 7930TIP3    H145281   5.936   4.085  14.844 -0.3342  0.0970 -0.3799
 7930TIP3    H245282   5.995   3.962  14.909  1.9365  1.1140 -0.4651
 7931TIP3   OH245283   0.166   3.400   2.894 -0.2352  0.1196 -0.3023
 7931TIP3    H145284   0.174   3.393   2.989  0.3032 -1.0724 -0.4226
 7931TIP3    H245285   0.080   3.364   2.874 -1.9485  3.7913  0.0558
 7932TIP3   OH245286   1.932   2.480  17.044 -0.0406  0.1417 -0.4086
 7932TIP3    H145287   1.882   2.558  17.064 -0.4845  0.5804 -3.0101
 7932TIP3    H245288   2.013   2.488  17.095  0.1706  2.5768 -1.1074
 7933TIP3   OH245289   6.362   6.309   0.601 -0.1297 -0.2510  0.1872
 7933TIP3    H145290   6.315   6.268   0.674  1.0027 -0.7969  0.6235
 7933TIP3    H245291   6.444   6.261   0.596  0.3886  0.7023 -0.5541
 7934TIP3   OH245292   2.326   2.682   6.127 -0.1596  1.0552 -0.2680
 7934TIP3    H145293   2.376   2.761   6.107 -1.1347  1.3459 -1.6339
 7934TIP3    H245294   2.240   2.715   6.155 -0.2401  0.5103  0.1277
 7935TIP3   OH245295   2.954   6.724   2.850 -0.1021 -0.4306  0.3005
 7935TIP3    H145296   3.011   6.764   2.916  0.9327 -2.2321  0.5392
 7935TIP3    H245297   2.938   6.794   2.786  0.8503  0.6337  1.2133
 7936TIP3   OH245298   5.179   5.439  14.723 -0.4355 -0.5099  0.0260
 7936TIP3    H145299   5.266   5.426  14.761 -0.1987 -0.9262 -0.6467
 7936TIP3    H245300   5.194   5.440  14.628 -1.1037 -0.1412 -0.0828
 7937TIP3   OH245301   5.798   0.197   2.302 -0.0373 -0.1631 -0.4068
 7937TIP3    H145302   5.745   0.135   2.352  1.0284 -0.5546  0.2457
 7937TIP3    H245303   5.765   0.283   2.329 -1.2651 -0.4340 -1.0406
 7938TIP3   OH245304   2.758   0.944  15.883 -0.4086  0.4558 -0.1663
 7938TIP3    H145305   2.728   0.985  15.802 -0.8232  1.8054  0.6505
 7938TIP3    H245306   2.768   1.017  15.944 -0.2466 -0.5626  1.0419
 7939TIP3   OH245307   6.770   0.189   0.385  0.2320 -0.6110  0.3019
 7939TIP3    H145308   6.772   0.179   0.290  0.2845 -0.7182  0.3139
 7939TIP3    H245309   6.809   0.108   0.419  1.5353  0.0511  0.3869
 7940TIP3   OH245310   4.149   6.758   2.095 -0.2216  0.2853 -0.5531
 7940TIP3    H145311   4.202   6.808   2.157 -0.5893  0.0207 -0.0137
 7940TIP3    H245312   4.209   6.734   2.024  0.8100 -1.4299  0.8430
 7941TIP3   OH245313   1.182   2.210   2.783  0.0984 -0.0788  0.3357
 7941TIP3    H145314   1.093   2.214   2.750 -0.1244  1.4655  1.1133
 7941TIP3    H245315   1.236   2.243   2.711  0.0494 -0.8583 -0.0723
 7942TIP3   OH245316   6.330   1.470   4.798 -0.1121  0.2538  0.4759
 7942TIP3    H145317   6.400   1.536   4.807 -0.8886  1.2205 -0.4104
 7942TIP3    H245318   6.250   1.522   4.792 -0.7276 -0.7711 -0.2818
 7943TIP3   OH245319   6.087   2.907   0.793  0.3221 -0.0501  0.4693
 7943TIP3    H145320   6.100   2.977   0.729  0.3833  1.0098  1.6191
 7943TIP3    H245321   6.008   2.933   0.841  0.4813 -0.6380  1.0574
 7944TIP3   OH245322   3.785   5.845   0.698 -0.3970  0.0863 -0.5116
 7944TIP3    H145323   3.856   5.821   0.757 -0.8707  2.0153  0.9051
 7944TIP3    H245324   3.706   5.837   0.752 -0.8940  1.4078 -1.0373
 7945TIP3   OH245325   6.709   5.940  16.322  0.3300  0.5223 -0.2957
 7945TIP3    H145326   6.708   6.032  16.347  1.1159  0.6603 -0.7640
 7945TIP3    H245327   6.622   5.908  16.346  0.0115  1.4113 -0.2421
 7946TIP3   OH245328   5.577   1.532  15.311 -0.3804  0.1710  0.0590
 7946TIP3    H145329   5.514   1.555  15.379  0.3291 -1.3514  1.2727
 7946TIP3    H245330   5.639   1.474  15.355  1.3550  0.9067 -1.3345
 7947TIP3   OH245331   4.711   2.764  13.406 -0.4590  0.1296 -0.4694
 7947TIP3    H145332   4.793   2.797  13.445 -0.4743 -1.3022  0.8262
 7947TIP3    H245333   4.654   2.747  13.481 -2.1640  1.6013 -1.3918
 7948TIP3   OH245334   3.721   4.921  15.182 -0.4325 -0.3748  0.9653
 7948TIP3    H145335   3.751   4.836  15.149 -1.1225  0.4055 -1.7770
 7948TIP3    H245336   3.784   4.984  15.148 -1.5327  0.5373  0.6101
 7949TIP3   OH245337   5.594   6.661   3.474  0.0475  0.0625 -0.4637
 7949TIP3    H145338   5.500   6.658   3.486  0.0229 -1.4029 -0.9203
 7949TIP3    H245339   5.630   6.614   3.549  0.5357  2.5434  0.8868
 7950TIP3   OH245340   2.709   1.482   2.919 -0.4490 -0.6710 -0.2929
 7950TIP3    H145341   2.637   1.544   2.907 -0.9195 -1.0483  0.4863
 7950TIP3    H245342   2.785   1.524   2.879 -0.6540  0.5962  0.6237
 7951TIP3   OH245343   3.272   4.029  15.845 -0.1260  0.1478 -0.4136
 7951TIP3    H145344   3.224   3.964  15.896  1.6730 -1.6416 -0.9528
 7951TIP3    H245345   3.221   4.110  15.855 -1.9657 -1.1436  0.8955
 7952TIP3   OH245346   4.428   3.219   6.431 -0.4247 -0.3023  0.3343
 7952TIP3    H145347   4.523   3.214   6.443 -0.2877  0.2401 -0.5006
 7952TIP3    H245348   4.409   3.313   6.429 -0.6374 -0.3752 -2.1339
 7953TIP3   OH245349   6.458   0.311  15.702 -0.3991  0.2018 -0.1026
 7953TIP3    H145350   6.515   0.252  15.653 -0.5177  1.6293 -2.0298
 7953TIP3    H245351   6.372   0.299  15.662 -0.1563  2.6370 -1.4904
 7954TIP3   OH245352   2.955   5.741   4.285  0.4533 -0.3034 -0.8282
 7954TIP3    H145353   2.932   5.648   4.284 -1.2960  0.1186 -0.6084
 7954TIP3    H245354   2.872   5.786   4.295  1.4330  1.2409  0.5603
 7955TIP3   OH245355   1.106   6.500   2.158  0.4066  0.3886 -0.2826
 7955TIP3    H145356   1.046   6.463   2.094 -0.6719  0.4886  0.6414
 7955TIP3    H245357   1.055   6.505   2.239  1.2575  1.6938  0.2015
 7956TIP3   OH245358   0.785   3.889  15.384 -0.4196 -0.3097  0.4135
 7956TIP3    H145359   0.775   3.905  15.290 -0.3650  0.2351  0.4998
 7956TIP3    H245360   0.875   3.913  15.403 -0.2621 -0.9742  0.4939
 7957TIP3   OH245361   6.667   6.023   3.160  0.3498  0.6468  0.3005
 7957TIP3    H145362   6.609   5.947   3.160 -0.9141  1.5543 -2.0257
 7957TIP3    H245363   6.670   6.051   3.252  1.4761 -2.6306  1.3192
 7958TIP3   OH245364   6.271   5.503  10.815 -0.0547  0.0678 -0.0232
 7958TIP3    H145365   6.197   5.548  10.854  0.8824  1.4313  0.2035
 7958TIP3    H245366   6.232   5.441  10.754 -1.3638  1.3699 -0.5240
 7959TIP3   OH245367   0.843   1.970  14.162 -0.4830  0.3683  0.0582
 7959TIP3    H145368   0.832   2.050  14.214 -0.4840  0.6169 -0.3168
 7959TIP3    H245369   0.937   1.955  14.160 -0.4640  0.5034 -0.0818
 7960TIP3   OH245370   1.526   6.819  14.771 -0.1486  0.5299 -0.4833
 7960TIP3    H145371   1.448   6.865  14.740 -1.7806 -0.6712  1.7091
 7960TIP3    H245372   1.547   6.860  14.855 -0.5954 -1.5277  0.6623
 7961TIP3   OH245373   3.175   4.482   0.545 -0.4077 -0.0264 -0.3749
 7961TIP3    H145374   3.250   4.435   0.510 -0.3664  0.4960 -0.9918
 7961TIP3    H245375   3.189   4.481   0.640 -1.0454 -2.3152 -0.2828
 7962TIP3   OH245376   6.731   2.504  11.981 -0.6350  0.1742 -0.5244
 7962TIP3    H145377   6.804   2.450  12.013 -0.5304  0.0008 -1.0557
 7962TIP3    H245378   6.714   2.566  12.052 -0.8139 -0.6156  0.1336
 7963TIP3   OH245379   4.721   0.930   3.637  0.8803 -0.0179 -0.5415
 7963TIP3    H145380   4.789   0.992   3.664  0.9194 -0.4637  0.4161
 7963TIP3    H245381   4.744   0.907   3.547  3.1914 -1.7180  0.4391
 7964TIP3   OH245382   6.581   4.355   1.519 -0.7993 -0.0066  0.1137
 7964TIP3    H145383   6.518   4.424   1.539  0.4692  0.2827  3.3533
 7964TIP3    H245384   6.665   4.401   1.510 -0.7268 -0.5666 -2.7942
 7965TIP3   OH245385   4.843   6.081  14.811 -0.0713 -0.0921 -0.0371
 7965TIP3    H145386   4.927   6.061  14.769  0.6444  0.7358  0.9695
 7965TIP3    H245387   4.783   6.014  14.778  1.2173 -1.2592 -0.0665
 7966TIP3   OH245388   5.547   0.191  16.424  0.6726 -0.8350 -0.8658
 7966TIP3    H145389   5.614   0.123  16.430 -0.6795 -2.0896  0.7278
 7966TIP3    H245390   5.509   0.195  16.512  1.6106  2.9584 -0.5266
 7967TIP3   OH245391   5.084   3.139   2.406  0.1160 -0.8228 -0.5076
 7967TIP3    H145392   5.019   3.100   2.464 -2.0529  2.0201 -0.9151
 7967TIP3    H245393   5.038   3.151   2.323  1.6261 -0.1736 -1.2743
 7968TIP3   OH245394   3.168   4.463   6.441 -0.3384  0.6091  0.2624
 7968TIP3    H145395   3.122   4.440   6.521 -1.4617 -0.2428 -0.6277
 7968TIP3    H245396   3.106   4.518   6.393 -0.2054 -0.0585 -0.6714
 7969TIP3   OH245397   3.698   5.171  11.077 -0.3369 -0.5395  0.3389
 7969TIP3    H145398   3.622   5.154  11.020  0.0684  0.2215 -0.4421
 7969TIP3    H245399   3.765   5.205  11.017  0.8969 -1.9365  0.8749
 7970TIP3   OH245400   1.607   0.875   5.808  0.3670 -0.4913  1.0006
 7970TIP3    H145401   1.577   0.785   5.796 -0.9095 -0.0949  1.1182
 7970TIP3    H245402   1.553   0.909   5.880 -0.1127  0.7764  0.0774
 7971TIP3   OH245403   3.810   3.232  17.067  0.5006 -0.8845  0.0698
 7971TIP3    H145404   3.883   3.290  17.091 -0.6834 -0.1162  1.8967
 7971TIP3    H245405   3.735   3.267  17.115 -0.9266 -2.0950 -1.2368
 7972TIP3   OH245406   5.485   4.719  15.359  0.3279  0.1923  0.1179
 7972TIP3    H145407   5.411   4.696  15.303  0.5818 -1.4580  0.4540
 7972TIP3    H245408   5.530   4.789  15.311  0.3011 -0.9169 -1.5608
 7973TIP3   OH245409   4.742   2.678   5.935  0.8266 -0.6837 -0.0973
 7973TIP3    H145410   4.736   2.582   5.933  0.7042 -0.6863  0.3259
 7973TIP3    H245411   4.716   2.701   6.024 -0.1667 -0.1863 -0.5114
 7974TIP3   OH245412   5.626   5.398   4.328  0.2079  0.3972  0.1037
 7974TIP3    H145413   5.657   5.316   4.290 -0.4334 -0.1045  0.6655
 7974TIP3    H245414   5.537   5.379   4.358  0.5090  0.9527  1.3452
 7975TIP3   OH245415   6.008   2.024  14.327  0.3735  0.0499 -0.1755
 7975TIP3    H145416   6.009   2.100  14.385  0.0605  1.1985 -1.6548
 7975TIP3    H245417   5.976   2.058  14.244 -0.4339 -1.8520 -0.6612
 7976TIP3   OH245418   3.184   0.734   0.294  0.6998 -0.2232  0.0114
 7976TIP3    H145419   3.158   0.824   0.272  2.3122  0.3362  0.3007
 7976TIP3    H245420   3.218   0.698   0.212  2.1135  0.1979  0.3913
 7977TIP3   OH245421   0.381   2.979  14.903  0.5328  0.3152  0.3900
 7977TIP3    H145422   0.383   3.069  14.935  0.4493  0.6918 -0.6385
 7977TIP3    H245423   0.424   2.928  14.972 -0.3567  0.9833  1.4509
 7978TIP3   OH245424   1.709   2.322  12.874 -0.0553  0.2140 -0.2170
 7978TIP3    H145425   1.769   2.360  12.809  1.5509 -0.4486  0.8290
 7978TIP3    H245426   1.687   2.236  12.840  0.5480 -0.0139 -0.0379
 7979TIP3   OH245427   4.048   3.002   2.389 -0.0303  0.9744  0.3163
 7979TIP3    H145428   4.095   3.046   2.318  3.0559 -2.1697  0.2699
 7979TIP3    H245429   4.078   3.046   2.468  0.1607  1.3969  0.0128
 7980TIP3   OH245430   5.122   4.283   2.921  0.0806  0.3605 -0.0487
 7980TIP3    H145431   5.059   4.275   2.993  0.8874  0.2024  0.6398
 7980TIP3    H245432   5.087   4.225   2.853 -0.4919  0.2248  0.3535
 7981TIP3   OH245433   1.908   1.448  15.451  0.8178  0.3952  0.0542
 7981TIP3    H145434   1.992   1.492  15.466  1.3053 -0.5857  0.3286
 7981TIP3    H245435   1.905   1.433  15.356  0.2439  1.7834 -0.1541
 7982TIP3   OH245436   1.153   2.794  12.877 -0.0058  0.4685  0.0184
 7982TIP3    H145437   1.073   2.845  12.890 -1.1691 -1.8200  2.3257
 7982TIP3    H245438   1.172   2.757  12.963  1.1278 -2.5077 -1.4501
 7983TIP3   OH245439   6.678   5.789  15.063 -0.0076 -0.4447  0.1057
 7983TIP3    H145440   6.692   5.729  14.989 -0.0640  1.2018 -1.2610
 7983TIP3    H245441   6.767   5.810  15.093  0.0959  0.7417 -1.0141
 7984TIP3   OH245442   5.811   0.036   1.141 -0.9594 -0.4576  0.0277
 7984TIP3    H145443   5.824  -0.005   1.055 -0.5925  0.0487 -0.1600
 7984TIP3    H245444   5.743   0.102   1.125  0.4709  0.9787 -0.3208
 7985TIP3   OH245445   6.797   5.995   4.139 -0.0495  0.1642 -0.5704
 7985TIP3    H145446   6.859   5.954   4.079  1.5935 -0.8014  1.6899
 7985TIP3    H245447   6.805   6.089   4.121  1.0315 -0.0560 -1.2940
 7986TIP3   OH245448   4.346   2.641  11.316  0.1848 -0.7909  0.0242
 7986TIP3    H145449   4.415   2.603  11.371  0.2591 -2.7465 -1.3807
 7986TIP3    H245450   4.322   2.571  11.256 -0.8521  0.8845 -1.5528
 7987TIP3   OH245451   4.085   0.244   4.951  0.7647 -0.1097 -0.1861
 7987TIP3    H145452   4.178   0.246   4.975  1.0297 -0.4229 -1.1540
 7987TIP3    H245453   4.070   0.154   4.920  1.0487  0.8932 -3.4818
 7988TIP3   OH245454   1.181   2.177  12.711 -1.0272 -0.3841 -0.0581
 7988TIP3    H145455   1.155   2.265  12.685 -0.2476 -0.6861 -1.8999
 7988TIP3    H245456   1.099   2.133  12.732 -1.7867 -0.4480 -3.0210
 7989TIP3   OH245457   0.623   5.000  15.898 -0.0421 -0.5693 -0.0234
 7989TIP3    H145458   0.662   5.045  15.822 -1.3119  0.0777 -0.3124
 7989TIP3    H245459   0.568   4.932  15.859  2.6954 -3.1578  0.4299
 7990TIP3   OH245460   4.496   0.470   2.331  0.1938 -0.0501 -0.1624
 7990TIP3    H145461   4.408   0.461   2.295 -0.2297 -0.4827  0.9862
 7990TIP3    H245462   4.503   0.562   2.355 -0.5113 -0.3401  1.1932
 7991TIP3   OH245463   3.195   6.780  16.325  0.3909  0.7810 -0.3438
 7991TIP3    H145464   3.187   6.797  16.418 -1.3936 -1.9182  0.0431
 7991TIP3    H245465   3.143   6.848  16.283 -0.2904  0.9109  0.7124
 7992TIP3   OH245466   6.350   2.769  13.588  0.3630  0.5291 -0.3234
 7992TIP3    H145467   6.328   2.824  13.663  2.3663  1.3919 -0.3425
 7992TIP3    H245468   6.364   2.682  13.625 -0.4227  0.5436  0.0302
 7993TIP3   OH245469   0.985   6.435   1.251 -0.3033  0.0370 -1.1343
 7993TIP3    H145470   0.893   6.463   1.255 -0.2230  0.1922 -0.2856
 7993TIP3    H245471   1.019   6.455   1.338  0.3599 -0.6254 -1.2462
 7994TIP3   OH245472   0.971   1.041   0.099 -0.0274 -0.3239  0.2124
 7994TIP3    H145473   0.928   0.960   0.124  1.6130 -1.4290 -0.4867
 7994TIP3    H245474   0.915   1.077   0.029 -0.8096 -0.7911  0.5948
 7995TIP3   OH245475   3.711   1.597  11.682  0.4920  0.5467 -0.2410
 7995TIP3    H145476   3.778   1.551  11.734  0.5640 -0.7572 -1.4626
 7995TIP3    H245477   3.667   1.654  11.745 -0.6063 -2.2930  1.6462
 7996TIP3   OH245478   0.774   6.091   4.640  0.1581  0.1722 -0.3509
 7996TIP3    H145479   0.780   6.034   4.717  0.3403  1.6717  0.7673
 7996TIP3    H245480   0.854   6.074   4.591  0.0823 -0.7277 -0.1721
 7997TIP3   OH245481   1.726   1.209  17.219  0.1814  0.0418 -0.2278
 7997TIP3    H145482   1.664   1.214  17.147  0.8849 -1.9715 -0.9745
 7997TIP3    H245483   1.812   1.207  17.178  0.7433  1.9264  0.7765
 7998TIP3   OH245484   3.879   1.652  16.995 -0.3748  0.0787 -0.0985
 7998TIP3    H145485   3.791   1.671  16.963 -0.6151 -0.4357  0.2520
 7998TIP3    H245486   3.916   1.737  17.016 -0.9021  0.2734  0.0400
 7999TIP3   OH245487   0.571   1.017   1.993 -0.5321  0.7228  0.7701
 7999TIP3    H145488   0.541   0.975   2.074 -0.5060 -1.4778 -0.3170
 7999TIP3    H245489   0.650   0.969   1.969 -1.0769  0.6990 -1.0816
 8000TIP3   OH245490   0.726   5.503  15.942  0.8657 -0.4148 -0.0336
 8000TIP3    H145491   0.739   5.469  15.853 -1.0202 -0.8748 -0.1487
 8000TIP3    H245492   0.742   5.428  15.999  1.0313 -0.3845 -0.0391
 8001TIP3   OH245493   3.685   5.198  11.392  0.3217  0.1685 -0.0876
 8001TIP3    H145494   3.673   5.136  11.320  0.2529 -0.3649  0.3790
 8001TIP3    H245495   3.603   5.247  11.394  0.8317  1.0898 -1.2208
 8002TIP3   OH245496   3.468   5.072   0.433 -0.1542  0.3384 -0.1759
 8002TIP3    H145497   3.419   5.000   0.393  0.1338 -0.5823  1.0895
 8002TIP3    H245498   3.415   5.096   0.509  0.5838  0.3425  0.3426
 8003TIP3   OH245499   0.721   4.966  17.268 -0.2432  0.3155 -0.5782
 8003TIP3    H145500   0.701   4.968  17.362 -0.0082 -0.6691 -0.4961
 8003TIP3    H245501   0.639   4.938  17.227 -0.3158  0.6432 -0.6540
 8004TIP3   OH245502   0.521   4.783  11.268  0.0574 -0.0165 -0.4742
 8004TIP3    H145503   0.484   4.720  11.329  0.0718 -0.3562 -0.8159
 8004TIP3    H245504   0.462   4.781  11.192 -0.6519  1.2756  0.0126
 8005TIP3   OH245505   5.196   2.027   5.035  0.1885  0.3936 -0.3095
 8005TIP3    H145506   5.257   2.101   5.036  0.3899  0.2315 -0.6369
 8005TIP3    H245507   5.191   2.001   4.943  1.4748 -1.1221  0.0189
 8006TIP3   OH245508   6.805   5.410  15.463 -0.6858  0.0704 -0.2413
 8006TIP3    H145509   6.886   5.432  15.510 -0.1508 -1.3930 -0.4749
 8006TIP3    H245510   6.805   5.315  15.456 -1.9367  0.1128 -1.1437
 8007TIP3   OH245511   4.238   6.044  11.221 -0.2914 -0.0437  0.1491
 8007TIP3    H145512   4.234   5.970  11.161  0.5960  0.2693 -0.3115
 8007TIP3    H245513   4.279   6.114  11.169 -2.1238  1.1172  0.2090
 8008TIP3   OH245514   2.851   1.841   6.348  0.1474 -0.2403  0.1592
 8008TIP3    H145515   2.793   1.767   6.332  0.2183 -0.8387  2.4847
 8008TIP3    H245516   2.918   1.807   6.408  1.3122  1.1836 -0.2843
 8009TIP3   OH245517   1.436   4.517   2.401 -0.9125  0.2119  0.2513
 8009TIP3    H145518   1.433   4.594   2.343  0.3425  0.0614 -0.0481
 8009TIP3    H245519   1.366   4.532   2.464 -2.3565  0.3487 -1.3392
 8010TIP3   OH245520   4.239   1.888   0.173 -0.0985  0.0039  0.0821
 8010TIP3    H145521   4.196   1.813   0.133  0.2493 -1.5915  2.6210
 8010TIP3    H245522   4.168   1.943   0.205 -0.3145 -0.7184  0.8485
 8011TIP3   OH245523   5.631   0.649   1.011 -0.0542 -0.3795 -0.4206
 8011TIP3    H145524   5.566   0.719   1.006 -1.4921 -1.6825 -0.7973
 8011TIP3    H245525   5.625   0.605   0.926  0.7751 -0.9831 -0.1736
 8012TIP3   OH245526   2.954   2.815   0.233  0.3173  0.2382  0.1036
 8012TIP3    H145527   2.894   2.756   0.186  0.2598 -0.5429  1.1370
 8012TIP3    H245528   3.025   2.830   0.170  0.2483 -0.8037 -0.2485
 8013TIP3   OH245529   5.023   3.315   1.919 -0.3632  0.0176 -0.1617
 8013TIP3    H145530   5.116   3.337   1.928 -0.5495  0.9336 -0.4403
 8013TIP3    H245531   5.014   3.288   1.828 -0.6702  1.3981 -0.5451
 8014TIP3   OH245532   2.308   3.785  11.872  0.8103  0.9801  0.3279
 8014TIP3    H145533   2.297   3.791  11.777 -0.3734 -1.2315  0.2777
 8014TIP3    H245534   2.261   3.860  11.907 -0.7139  0.5335 -0.7327
 8015TIP3   OH245535   2.394   4.277   5.786  0.0904  0.4491 -0.1171
 8015TIP3    H145536   2.337   4.342   5.827 -1.2282  0.6813 -2.2733
 8015TIP3    H245537   2.454   4.251   5.856 -1.8553  1.0994  1.8590
 8016TIP3   OH245538   0.446   2.061   3.070 -0.3795 -0.4461 -0.6083
 8016TIP3    H145539   0.490   2.144   3.085  0.2902 -0.5650 -1.8058
 8016TIP3    H245540   0.371   2.062   3.128 -2.1405  2.3413 -2.8201
 8017TIP3   OH245541   5.025   2.154   6.262  0.1653 -0.6138 -0.0830
 8017TIP3    H145542   5.093   2.164   6.195  0.2983 -1.2055 -0.0391
 8017TIP3    H245543   5.011   2.060   6.268  1.4696 -0.7109  2.0052
 8018TIP3   OH245544   5.787   1.228  12.717 -0.2034 -0.6267  0.1131
 8018TIP3    H145545   5.854   1.285  12.679  0.1561  0.2447  2.0291
 8018TIP3    H245546   5.709   1.283  12.725 -0.5988 -1.1097 -0.3402
 8019TIP3   OH245547   4.505   1.468  15.134  0.4486  0.4694  0.5061
 8019TIP3    H145548   4.446   1.396  15.112  0.1599  0.8171  0.1482
 8019TIP3    H245549   4.586   1.425  15.162  0.0100 -0.0055  1.0428
 8020TIP3   OH245550   3.448   1.930  14.876  0.1859 -0.3573  0.2827
 8020TIP3    H145551   3.363   1.943  14.918 -0.6431  1.2753 -1.8078
 8020TIP3    H245552   3.460   1.835  14.877 -1.3122 -0.5716  1.2297
 8021TIP3   OH245553   3.455   3.002   4.044 -0.2684 -0.6525 -0.5374
 8021TIP3    H145554   3.529   3.059   4.023 -0.9292  0.9308  1.3048
 8021TIP3    H245555   3.494   2.930   4.094 -0.0032  0.4786  0.9351
 8022TIP3   OH245556   4.427   4.675   3.927  0.3948  0.1974 -0.1320
 8022TIP3    H145557   4.508   4.658   3.974 -0.4426  1.9266  2.0392
 8022TIP3    H245558   4.437   4.763   3.891 -0.3501  0.2582 -0.2119
 8023TIP3   OH245559   0.785   2.969  12.636  0.8549 -0.1368 -0.7971
 8023TIP3    H145560   0.698   3.007  12.647  1.6246  1.5127 -0.3026
 8023TIP3    H245561   0.780   2.885  12.682  0.1183  0.8759  1.0169
 8024TIP3   OH245562   0.197   0.325   2.832 -0.1145 -0.0901  0.0394
 8024TIP3    H145563   0.269   0.388   2.839  0.2813 -0.4908 -0.4518
 8024TIP3    H245564   0.121   0.372   2.868  0.9262 -0.5915  3.0082
 8025TIP3   OH245565   5.487   2.878   1.019  0.1272 -0.1299  0.0490
 8025TIP3    H145566   5.454   2.831   0.941 -1.1885 -0.2482  0.6623
 8025TIP3    H245567   5.554   2.820   1.055 -1.9058 -1.8923  1.1493
 8026TIP3   OH245568   5.103   2.696   0.676 -0.0906  0.1401  0.6395
 8026TIP3    H145569   5.018   2.653   0.667 -0.7389  1.2718  1.2009
 8026TIP3    H245570   5.096   2.746   0.757  1.5947 -0.8076  1.3970
 8027TIP3   OH245571   5.255   1.254  11.465  0.1768 -0.1888  0.4274
 8027TIP3    H145572   5.310   1.332  11.473  1.5163 -1.1304  0.5912
 8027TIP3    H245573   5.172   1.279  11.505 -0.4288  2.1108 -2.0956
 8028TIP3   OH245574   6.139   5.594  14.912  0.1210  0.1015  0.0053
 8028TIP3    H145575   6.194   5.662  14.950 -0.6658  0.8196 -0.1311
 8028TIP3    H245576   6.061   5.592  14.967 -0.2890 -0.0096 -0.5676
 8029TIP3   OH245577   6.167   4.832   4.821 -0.0525 -0.0111 -0.1951
 8029TIP3    H145578   6.169   4.885   4.900  1.0397 -2.1219  1.2339
 8029TIP3    H245579   6.078   4.796   4.819  0.8408 -2.4579  1.8259
 8030TIP3   OH245580   1.879   5.685  15.487  0.3673 -0.1334  0.3332
 8030TIP3    H145581   1.894   5.698  15.581 -1.8902  1.7274  0.4628
 8030TIP3    H245582   1.796   5.729  15.469  0.6839 -0.6089 -2.5199
 8031TIP3   OH245583   1.122   3.922   3.507  0.2508  0.2765 -0.0590
 8031TIP3    H145584   1.062   3.947   3.577 -1.1834  1.4467 -1.6597
 8031TIP3    H245585   1.068   3.922   3.428  1.8017 -1.1633 -1.1591
 8032TIP3   OH245586   3.228   3.848   0.700  0.3282  0.2765 -0.2340
 8032TIP3    H145587   3.284   3.868   0.775  0.4306 -1.8722  0.2896
 8032TIP3    H245588   3.150   3.901   0.712  0.5305  0.2579  1.1616
 8033TIP3   OH245589   5.927   6.245   1.584 -0.6003 -0.0273  0.2430
 8033TIP3    H145590   5.895   6.189   1.513 -2.9565 -0.3984  1.5564
 8033TIP3    H245591   5.945   6.184   1.656  0.7493  0.4688  0.3370
 8034TIP3   OH245592   4.302   2.345  15.685  0.0971  0.0215  0.1171
 8034TIP3    H145593   4.214   2.313  15.664  0.7821 -0.4599 -2.0978
 8034TIP3    H245594   4.354   2.265  15.696  0.3512  0.3112  1.1102
 8035TIP3   OH245595   2.835   2.483  13.121  0.1175 -0.2985 -0.7309
 8035TIP3    H145596   2.913   2.538  13.110 -0.0046  0.1196  0.3751
 8035TIP3    H245597   2.869   2.400  13.154  0.0829 -0.0044  0.0731
 8036TIP3   OH245598   2.423   2.935   4.543  0.2602  0.0899 -0.1480
 8036TIP3    H145599   2.422   2.923   4.448 -2.5223  1.6234 -0.3501
 8036TIP3    H245600   2.368   2.865   4.577 -0.8111  1.0589  0.1252
 8037TIP3   OH245601   6.501   0.973   3.401 -0.2839 -0.5343  0.1149
 8037TIP3    H145602   6.476   1.048   3.346 -0.7884  0.7558  2.0589
 8037TIP3    H245603   6.428   0.912   3.393 -0.3417 -0.3701 -0.6649
 8038TIP3   OH245604   0.023   4.813   2.433  0.7440  0.4077 -0.1281
 8038TIP3    H145605  -0.062   4.773   2.451  1.4764 -0.9973  0.2497
 8038TIP3    H245606   0.076   4.793   2.510  1.3575  1.4567 -0.2690
 8039TIP3   OH245607   4.963   2.218   0.779  0.8502  0.2326  0.3660
 8039TIP3    H145608   4.981   2.126   0.763  1.9395  0.3653  0.8087
 8039TIP3    H245609   5.036   2.265   0.737  1.0591  0.8171  1.3561
 8040TIP3   OH245610   3.007   0.150  15.342  0.1111 -0.2800  0.8443
 8040TIP3    H145611   3.010   0.141  15.437  0.7994  1.1942  0.9780
 8040TIP3    H245612   3.074   0.215  15.322 -1.5252  1.0895 -0.4173
 8041TIP3   OH245613   6.696   3.727   1.310  0.3912 -0.5414 -0.2571
 8041TIP3    H145614   6.789   3.718   1.332  0.3956 -1.4412 -0.6202
 8041TIP3    H245615   6.671   3.813   1.345  0.7761 -1.2689  1.8785
 8042TIP3   OH245616   1.419   4.899   0.172  0.1127  0.0344  0.3600
 8042TIP3    H145617   1.410   4.938   0.085  0.8009  0.9778  0.7055
 8042TIP3    H245618   1.414   4.805   0.156 -1.6314  0.2351 -0.4752
 8043TIP3   OH245619   2.153   2.118   3.647 -0.1092  0.3665  0.0787
 8043TIP3    H145620   2.153   2.158   3.734  1.5114  2.6400 -0.8923
 8043TIP3    H245621   2.070   2.071   3.642 -0.4310  0.5692  2.6717
 8044TIP3   OH245622   6.638   3.097  14.976 -0.5547 -0.4678  0.7434
 8044TIP3    H145623   6.669   3.177  14.934 -0.7889 -0.9269 -0.3432
 8044TIP3    H245624   6.707   3.073  15.037 -0.1574  0.1708  0.5469
 8045TIP3   OH245625   3.270   3.408   0.436  0.7146  0.0939 -0.1735
 8045TIP3    H145626   3.302   3.388   0.348  0.2791  0.9461 -0.5204
 8045TIP3    H245627   3.312   3.342   0.492  3.1994  1.2797 -0.6043
 8046TIP3   OH245628   1.416   6.461  13.313  0.9410 -0.5576  0.1256
 8046TIP3    H145629   1.350   6.495  13.373  0.5243 -1.4602  0.1928
 8046TIP3    H245630   1.372   6.459  13.228  1.2344 -0.1383 -0.0368
 8047TIP3   OH245631   4.559   1.879  14.406  0.3829 -0.1145  0.0723
 8047TIP3    H145632   4.615   1.878  14.328 -0.3644  0.2277 -0.4711
 8047TIP3    H245633   4.593   1.951  14.459  0.8470 -0.3009  0.0337
 8048TIP3   OH245634   2.889   5.109   4.507 -0.4874 -0.1425  0.2209
 8048TIP3    H145635   2.841   5.187   4.478  0.5330  0.7767  0.9585
 8048TIP3    H245636   2.842   5.036   4.467 -0.9033  0.9100 -1.2826
 8049TIP3   OH245637   5.587   0.993  15.121 -0.9436  0.3607  0.7644
 8049TIP3    H145638   5.557   1.045  15.196 -1.2054 -0.7416  1.4333
 8049TIP3    H245639   5.676   1.024  15.105 -0.8822  0.6156  1.5339
 8050TIP3   OH245640   5.624   1.304  12.195  0.4087 -0.0497  0.3817
 8050TIP3    H145641   5.638   1.219  12.237 -1.9438 -0.0881  1.1639
 8050TIP3    H245642   5.662   1.367  12.256  0.0793 -0.3827  0.9432
 8051TIP3   OH245643   3.256   5.837   0.875  0.0880  0.0707 -1.3551
 8051TIP3    H145644   3.215   5.888   0.945  1.7920 -0.6856  0.2101
 8051TIP3    H245645   3.188   5.775   0.848 -0.9385  1.0763 -1.1296
 8052TIP3   OH245646   6.220   1.664   3.348  0.2534 -0.1600  0.4680
 8052TIP3    H145647   6.297   1.626   3.390 -0.2492 -0.9938  0.6518
 8052TIP3    H245648   6.255   1.712   3.273  1.0602  0.4960  1.2553
 8053TIP3   OH245649   2.385   3.696  16.967 -0.2314 -0.7189 -0.3622
 8053TIP3    H145650   2.345   3.773  16.927 -1.1852 -1.2352 -0.4358
 8053TIP3    H245651   2.356   3.698  17.058  1.8891  0.4232  0.3187
 8054TIP3   OH245652   5.735   0.111   1.529  0.4144  0.1849 -0.1851
 8054TIP3    H145653   5.767   0.097   1.618  0.0950 -1.5955 -0.3506
 8054TIP3    H245654   5.660   0.170   1.539  0.2112 -0.2366  0.7456
 8055TIP3   OH245655   1.304   6.385   1.308  0.3067 -0.2632  0.4247
 8055TIP3    H145656   1.328   6.329   1.234 -0.8874  0.8216 -0.7947
 8055TIP3    H245657   1.288   6.471   1.269  1.8844  0.8967  2.2423
 8056TIP3   OH245658   0.634   1.802  14.111 -0.3241  0.0377 -0.0556
 8056TIP3    H145659   0.712   1.858  14.109 -1.3072  1.4368  0.3309
 8056TIP3    H245660   0.668   1.716  14.136  1.4512 -0.0062 -2.4088
 8057TIP3   OH245661   5.348   4.268  10.728  0.0242  0.2697  0.6141
 8057TIP3    H145662   5.394   4.306  10.803  0.3124 -1.4867  1.3348
 8057TIP3    H245663   5.405   4.287  10.653 -0.5657  2.5856  0.6962
 8058TIP3   OH245664   5.415   2.405   2.319 -0.1838  0.5018 -0.4296
 8058TIP3    H145665   5.324   2.406   2.288 -0.1786  0.3086 -0.4545
 8058TIP3    H245666   5.466   2.434   2.243 -0.0407 -1.3421 -1.0682
 8059TIP3   OH245667   1.767   4.590   3.352 -0.4911 -0.8684 -0.0694
 8059TIP3    H145668   1.718   4.572   3.432  0.3190  1.0754  0.8841
 8059TIP3    H245669   1.711   4.557   3.282 -0.9314 -3.1565  1.3092
 8060TIP3   OH245670   5.638   4.652   3.003  0.0812  0.7047  0.4097
 8060TIP3    H145671   5.553   4.663   3.045  1.3653  1.3388  2.9167
 8060TIP3    H245672   5.672   4.570   3.039 -0.2581 -0.5381 -2.0174
 8061TIP3   OH245673   2.229   5.517  16.101  0.6711 -0.2262 -0.7997
 8061TIP3    H145674   2.224   5.498  16.194 -0.1324  1.9560 -0.3678
 8061TIP3    H245675   2.155   5.470  16.062 -0.8226  1.3196  0.1256
 8062TIP3   OH245676   5.005   0.350  14.688  0.0008 -0.3110  0.0778
 8062TIP3    H145677   5.018   0.382  14.777 -0.6823  0.0946  0.0330
 8062TIP3    H245678   5.084   0.377  14.641 -0.0063  0.1994  0.3564
 8063TIP3   OH245679   4.487   2.740   3.144  0.4485 -0.3413  0.9714
 8063TIP3    H145680   4.427   2.794   3.196  1.1085  1.6910 -0.3130
 8063TIP3    H245681   4.431   2.672   3.105 -0.7803  0.6857  0.9170
 8064TIP3   OH245682   0.838   2.454   0.529  0.1377 -0.0635  0.2991
 8064TIP3    H145683   0.905   2.401   0.572  2.3843  0.2963 -2.6414
 8064TIP3    H245684   0.852   2.543   0.563  0.7479 -0.1036  0.1558
 8065TIP3   OH245685   5.935   6.153  16.686  0.0213  0.4146  0.2787
 8065TIP3    H145686   5.991   6.197  16.622  0.7730 -0.4331  0.3403
 8065TIP3    H245687   5.897   6.080  16.638 -0.8621  0.8544  0.3027
 8066TIP3   OH245688   2.378   5.509  14.915  0.2392  0.0778  0.2221
 8066TIP3    H145689   2.367   5.471  14.828  0.6113  0.2121  0.1170
 8066TIP3    H245690   2.293   5.495  14.958  0.2515 -0.5387  0.0577
 8067TIP3   OH245691   5.146   5.557   4.364 -0.6289 -0.4002  0.5013
 8067TIP3    H145692   5.105   5.567   4.279 -1.8565  0.3927  1.1826
 8067TIP3    H245693   5.146   5.645   4.402  2.7182 -0.1364  0.0748
 8068TIP3   OH245694   4.749   0.309   5.845 -0.5133 -0.7976 -0.3061
 8068TIP3    H145695   4.745   0.382   5.907 -1.6469 -1.5781  0.5450
 8068TIP3    H245696   4.659   0.279   5.837 -0.1133 -1.8448 -0.9774
 8069TIP3   OH245697   6.363   5.824   4.650  0.3876 -0.8840 -0.2043
 8069TIP3    H145698   6.320   5.759   4.706 -0.8863  0.6607  0.6318
 8069TIP3    H245699   6.292   5.860   4.597  1.1489 -0.3899 -0.8857
 8070TIP3   OH245700   2.468   3.500  13.047  0.2091 -0.2352 -0.4998
 8070TIP3    H145701   2.497   3.576  12.998 -0.5322  0.8750  0.7452
 8070TIP3    H245702   2.372   3.507  13.049  0.0589 -1.7983 -1.3274
 8071TIP3   OH245703   6.544   5.051   4.891  0.0881 -0.0369 -0.1906
 8071TIP3    H145704   6.508   5.064   4.803  0.0250 -2.1385 -0.4995
 8071TIP3    H245705   6.467   5.055   4.949 -0.0906 -0.3149 -0.4059
 8072TIP3   OH245706   4.963   0.766  15.282 -0.4276 -0.2604  0.7599
 8072TIP3    H145707   4.943   0.674  15.293 -0.0782 -0.4685 -0.2534
 8072TIP3    H245708   5.058   0.770  15.284 -0.4792  0.3892  3.0699
 8073TIP3   OH245709   0.017   1.749  12.332 -0.0378 -0.4916 -0.2665
 8073TIP3    H145710   0.007   1.794  12.416  0.3845 -2.7990  1.0705
 8073TIP3    H245711  -0.044   1.793  12.273 -1.0732  0.5070  1.5251
 8074TIP3   OH245712   5.416   0.356   5.953  0.0757  0.4009 -0.2983
 8074TIP3    H145713   5.401   0.424   6.018  0.1525  1.5115 -1.4252
 8074TIP3    H245714   5.438   0.278   6.005 -4.1178  0.0722  1.2018
 8075TIP3   OH245715   4.016   2.933  13.590 -0.1525  0.2279  0.5624
 8075TIP3    H145716   4.083   2.917  13.524  0.3496 -0.0018  1.1272
 8075TIP3    H245717   4.060   2.920  13.673 -0.7499  0.6601  0.9513
 8076TIP3   OH245718   1.115   0.147   6.044 -0.3328 -0.7570 -0.5141
 8076TIP3    H145719   1.138   0.211   5.977 -0.1772  1.2128  1.3874
 8076TIP3    H245720   1.064   0.196   6.108 -0.3899 -2.5839  0.8885
 8077TIP3   OH245721   4.014   1.752  14.181  0.0608 -0.0911  0.9754
 8077TIP3    H145722   4.027   1.831  14.127  0.4858 -0.1576  0.9772
 8077TIP3    H245723   4.009   1.785  14.271  0.2980 -0.0709  0.9809
 8078TIP3   OH245724   1.765   2.035   3.823  0.0538 -0.0135  0.5568
 8078TIP3    H145725   1.827   1.966   3.843  1.5215  0.9911 -0.4208
 8078TIP3    H245726   1.781   2.056   3.731 -0.7672  1.2261  0.6825
 8079TIP3   OH245727   0.694   0.038  10.756 -0.3380 -0.1961  0.4862
 8079TIP3    H145728   0.771   0.046  10.812 -0.2430  1.3156  0.1858
 8079TIP3    H245729   0.729   0.043  10.667 -0.8132  1.1812  0.3500
 8080TIP3   OH245730   0.928   0.473  12.472  0.1280  0.1901 -0.0615
 8080TIP3    H145731   0.928   0.409  12.400 -1.2979 -0.8547  0.8410
 8080TIP3    H245732   0.839   0.470  12.506  0.5774  1.2800  1.2274
 8081TIP3   OH245733   3.568   1.624  13.382  0.2446 -0.0699  0.5092
 8081TIP3    H145734   3.624   1.549  13.361  0.2888 -0.0759  0.6441
 8081TIP3    H245735   3.612   1.666  13.456 -0.2499 -0.4291  1.0124
 8082TIP3   OH245736   4.251   1.312  16.210  0.0081 -0.1018  0.5631
 8082TIP3    H145737   4.163   1.318  16.249 -0.4607  0.6364 -0.5858
 8082TIP3    H245738   4.235   1.312  16.116  1.1201 -2.2284  0.3573
 8083TIP3   OH245739   1.144   6.334  17.099  0.4135  0.1940 -0.2125
 8083TIP3    H145740   1.149   6.304  17.008  0.7860  1.0067 -0.4608
 8083TIP3    H245741   1.164   6.256  17.151 -1.2137 -0.6237 -0.7810
 8084TIP3   OH245742   0.996   0.460   1.229 -0.1353  0.0408 -0.7425
 8084TIP3    H145743   0.909   0.421   1.236 -1.2010  2.3459 -0.6145
 8084TIP3    H245744   1.055   0.395   1.267 -2.0590 -0.6645  1.1420
 8085TIP3   OH245745   2.120   4.947   4.847  0.8400 -0.4206  0.1525
 8085TIP3    H145746   2.056   4.923   4.780  1.1796 -2.2973  0.4865
 8085TIP3    H245747   2.182   5.004   4.801  0.7563 -1.2406 -1.0048
 8086TIP3   OH245748   4.132   2.897  12.991 -0.2116  0.3714 -0.2395
 8086TIP3    H145749   4.208   2.954  12.997 -0.5910  1.0034 -1.4016
 8086TIP3    H245750   4.153   2.837  12.920 -0.0855 -0.5421  0.5558
 8087TIP3   OH245751   3.667   2.988   3.230  0.1418 -0.1859 -0.1526
 8087TIP3    H145752   3.750   2.973   3.184  1.7936  0.2515  2.5236
 8087TIP3    H245753   3.646   3.080   3.211  0.7369 -0.0437 -0.1378
 8088TIP3   OH245754   1.227   5.031   4.251 -0.3453  0.1528 -0.2304
 8088TIP3    H145755   1.271   4.952   4.218 -3.0289 -1.1440 -0.8058
 8088TIP3    H245756   1.186   5.002   4.333 -0.6014  1.1868  0.0038
 8089TIP3   OH245757   4.665   5.263   2.433  0.2791  0.0657  0.1994
 8089TIP3    H145758   4.576   5.297   2.418  0.5251  0.6652  0.0579
 8089TIP3    H245759   4.700   5.319   2.502  0.3131 -0.5972  0.7214
 8090TIP3   OH245760   2.248   5.491  14.346  0.0395  0.5580  0.5531
 8090TIP3    H145761   2.165   5.457  14.380 -0.8184  1.2704 -0.7559
 8090TIP3    H245762   2.224   5.573  14.302  1.0258 -0.4282 -1.9467
 8091TIP3   OH245763   2.830   0.209  11.786  0.4342 -0.3226  0.1338
 8091TIP3    H145764   2.787   0.277  11.735 -1.0493 -1.0104  0.4572
 8091TIP3    H245765   2.766   0.138  11.792  1.8708 -1.6595  0.0008
 8092TIP3   OH245766   2.723   4.213  13.184 -0.1362 -0.1237  0.3988
 8092TIP3    H145767   2.633   4.205  13.215 -0.0978  3.7481  1.7375
 8092TIP3    H245768   2.776   4.206  13.264  0.6017  0.0094 -0.0769
 8093TIP3   OH245769   4.749   1.566   5.879  0.2380 -0.1244  0.0543
 8093TIP3    H145770   4.803   1.550   5.802 -0.5930 -1.4570 -0.2529
 8093TIP3    H245771   4.802   1.624   5.934  0.9692  0.5571 -1.3561
 8094TIP3   OH245772   2.351   5.582  13.739  0.9014 -0.2033 -0.6356
 8094TIP3    H145773   2.339   5.507  13.797  2.9349 -0.0159  0.0637
 8094TIP3    H245774   2.351   5.545  13.651 -1.3989 -0.5850 -0.5084
 8095TIP3   OH245775   2.665   1.756  12.377  0.6670 -0.3763  0.1324
 8095TIP3    H145776   2.573   1.730  12.385  0.3840  0.3426 -0.6040
 8095TIP3    H245777   2.686   1.796  12.461 -0.4038  1.5602 -0.4781
 8096TIP3   OH245778   5.013   4.777  10.526  0.5992  0.2111  0.7562
 8096TIP3    H145779   4.957   4.834  10.474  2.5867 -0.6774 -2.4780
 8096TIP3    H245780   4.952   4.718  10.572 -1.1797  0.5479 -1.1250
 8097TIP3   OH245781   2.989   4.071   3.204 -0.1316 -0.0908  0.1709
 8097TIP3    H145782   2.918   4.135   3.204 -0.2236 -0.1942  0.3061
 8097TIP3    H245783   3.048   4.100   3.274  0.8476  0.9910 -1.0472
 8098TIP3   OH245784   2.646   1.678  16.591 -0.1367  0.0459 -0.3558
 8098TIP3    H145785   2.731   1.633  16.593 -0.7566 -1.0848  1.3971
 8098TIP3    H245786   2.668   1.771  16.582  1.2821 -0.2591 -0.1307
 8099TIP3   OH245787   5.971   1.260   5.577 -0.5526  0.0506 -0.8614
 8099TIP3    H145788   6.046   1.267   5.518  0.2546 -0.5527  0.0758
 8099TIP3    H245789   5.897   1.290   5.525  0.0289 -1.1304 -2.4062
 8100TIP3   OH245790   2.948   3.100   0.896  0.1167 -0.3324 -0.2114
 8100TIP3    H145791   2.896   3.168   0.853 -0.4534 -0.2690  0.5654
 8100TIP3    H245792   2.884   3.038   0.929  0.5194 -0.2009  0.8475
 8101TIP3   OH245793   6.029   0.800  11.451  0.4681 -0.1341 -0.6105
 8101TIP3    H145794   6.048   0.854  11.375 -0.4523  0.6060 -0.3232
 8101TIP3    H245795   6.010   0.862  11.521  0.7048 -0.8173  0.0674
 8102TIP3   OH245796   1.013   1.188  12.801 -0.2435  0.3954 -1.0457
 8102TIP3    H145797   0.934   1.238  12.822  1.0629  1.7492  0.7549
 8102TIP3    H245798   1.077   1.254  12.775  1.1662 -0.4188  0.2931
 8103TIP3   OH245799   5.945   1.618  15.844  0.3795  0.3248 -0.1753
 8103TIP3    H145800   6.021   1.625  15.901  0.3773 -0.4882 -0.0682
 8103TIP3    H245801   5.970   1.666  15.765  0.3094  1.6202  0.5764
 8104TIP3   OH245802   3.078   3.266  11.629  0.6854 -0.3106 -0.0981
 8104TIP3    H145803   2.990   3.281  11.596 -0.0800 -1.6292  1.2404
 8104TIP3    H245804   3.118   3.206  11.566 -0.0864 -1.2917  0.3411
 8105TIP3   OH245805   0.643   4.114  13.414 -0.6158 -0.0644  0.1863
 8105TIP3    H145806   0.596   4.086  13.493 -1.4309  0.4452 -0.1081
 8105TIP3    H245807   0.576   4.117  13.346  0.4088 -2.0402 -0.9140
 8106TIP3   OH245808   4.142   2.731  16.176  0.7325  1.0432  0.0655
 8106TIP3    H145809   4.230   2.700  16.198  0.8284  1.4952  0.3249
 8106TIP3    H245810   4.113   2.777  16.255 -0.4908 -0.7404  0.6841
 8107TIP3   OH245811   3.097   2.936  10.683  0.7232  0.1051  0.4387
 8107TIP3    H145812   3.162   2.979  10.629 -0.1136  0.8020 -0.0285
 8107TIP3    H245813   3.082   2.852  10.641 -0.4373  0.9277 -0.8318
 8108TIP3   OH245814   5.868   4.631  15.472 -0.0786  0.7497 -0.2590
 8108TIP3    H145815   5.847   4.654  15.382  1.2097 -1.6409 -1.2075
 8108TIP3    H245816   5.877   4.535  15.471 -0.5406  0.6261  2.5079
 8109TIP3   OH245817   4.663   4.185   2.309 -0.0270 -0.0035 -0.6262
 8109TIP3    H145818   4.644   4.257   2.370  1.6748  0.7612 -0.9709
 8109TIP3    H245819   4.749   4.153   2.336 -0.7273 -1.8571 -0.5428
 8110TIP3   OH245820   1.462   0.976   3.924 -0.0727 -0.1987 -0.2285
 8110TIP3    H145821   1.467   0.914   3.996 -2.8520 -0.2948 -0.0847
 8110TIP3    H245822   1.411   0.932   3.857  0.2828  0.8807 -1.2370
 8111TIP3   OH245823   0.856   5.407  16.374 -0.1022  0.0983 -0.2021
 8111TIP3    H145824   0.789   5.475  16.383 -0.9993 -0.7761 -0.1672
 8111TIP3    H245825   0.939   5.455  16.375 -0.7070  1.1592  0.1414
 8112TIP3   OH245826   3.704   0.489  12.653 -0.0828  0.3176 -0.0067
 8112TIP3    H145827   3.630   0.429  12.662 -1.3847  1.7172 -1.0986
 8112TIP3    H245828   3.712   0.530  12.738 -1.1744  0.8440 -0.1511
 8113TIP3   OH245829   0.662   6.109  13.210  0.2044 -0.2832 -0.6500
 8113TIP3    H145830   0.750   6.124  13.245 -0.8470 -0.0806  2.0090
 8113TIP3    H245831   0.673   6.114  13.115  2.7213  1.6552 -0.3161
 8114TIP3   OH245832   1.757   1.697   4.569  0.1245  0.6280 -0.1448
 8114TIP3    H145833   1.849   1.669   4.561  0.3127  0.8723  1.0425
 8114TIP3    H245834   1.734   1.676   4.660 -0.7153  1.3980 -0.1806
 8115TIP3   OH245835   4.365   1.879   0.803  0.5344 -0.3587 -0.7165
 8115TIP3    H145836   4.416   1.891   0.884 -0.4401  0.2103 -0.1774
 8115TIP3    H245837   4.371   1.963   0.758 -2.2723  0.6741  0.7270
 8116TIP3   OH245838   4.159   4.495  16.740  0.2765  0.0729 -0.2699
 8116TIP3    H145839   4.149   4.400  16.733  2.2165 -0.2575  1.0508
 8116TIP3    H245840   4.218   4.519  16.668 -0.2175  0.2893 -0.6084
 8117TIP3   OH245841   3.365   1.179   3.983  0.0901  0.9207 -0.4522
 8117TIP3    H145842   3.316   1.242   3.930  0.7882  0.5908 -1.5192
 8117TIP3    H245843   3.412   1.126   3.918  0.9614  0.5103  0.5153
 8118TIP3   OH245844   5.948   4.256  12.236  0.2139  0.6345 -0.3435
 8118TIP3    H145845   6.023   4.261  12.296 -0.3329  1.2968  0.2951
 8118TIP3    H245846   5.948   4.341  12.192  0.8418  0.0031 -1.5543
 8119TIP3   OH245847   6.422   5.235   5.719  0.0408 -0.0005 -0.2227
 8119TIP3    H145848   6.388   5.314   5.677 -0.4408 -1.1388 -2.0285
 8119TIP3    H245849   6.344   5.180   5.732  0.7175 -1.2017 -1.2394
 8120TIP3   OH245850   0.204   0.479  15.690 -0.2453 -0.2499 -0.1141
 8120TIP3    H145851   0.120   0.518  15.668 -1.5036 -2.4338  0.6506
 8120TIP3    H245852   0.242   0.456  15.605  0.7884  3.0481 -0.6184
 8121TIP3   OH245853   1.274   3.747  15.191  0.5463 -0.3117  0.0799
 8121TIP3    H145854   1.282   3.655  15.166  1.1858 -0.2818  0.1602
 8121TIP3    H245855   1.363   3.772  15.216  0.5206  0.5350 -0.6561
 8122TIP3   OH245856   1.360   6.350  15.697 -0.0727  0.1745  0.5483
 8122TIP3    H145857   1.292   6.317  15.637 -0.6537  0.5444  0.9994
 8122TIP3    H245858   1.422   6.277  15.705 -0.5868 -0.2833  0.3942
 8123TIP3   OH245859   3.408   4.962  12.463 -0.5066 -0.1288 -0.1085
 8123TIP3    H145860   3.472   5.021  12.503 -0.7766 -0.7918  1.3194
 8123TIP3    H245861   3.461   4.893  12.423 -0.3538 -2.2212  3.5057
 8124TIP3   OH245862   1.431   0.406  14.286 -0.5248 -0.0586  0.0467
 8124TIP3    H145863   1.463   0.413  14.196  1.4878 -2.2275  0.5412
 8124TIP3    H245864   1.440   0.495  14.322 -0.0269  0.5059 -1.4422
 8125TIP3   OH245865   4.675   4.722   5.402 -0.4908 -0.2643  0.6679
 8125TIP3    H145866   4.667   4.746   5.494  1.2271 -1.6030  1.2006
 8125TIP3    H245867   4.592   4.748   5.362 -1.3111  0.1640  2.6348
 8126TIP3   OH245868   1.055   5.273   2.484 -0.2313  0.6155  0.1134
 8126TIP3    H145869   1.050   5.369   2.480 -1.1792  0.5199 -1.1774
 8126TIP3    H245870   1.102   5.255   2.566 -1.0904  2.1540  0.9634
 8127TIP3   OH245871   4.722   0.272   1.894  0.4611 -0.1752 -0.4527
 8127TIP3    H145872   4.686   0.215   1.827 -0.1519 -0.1983 -0.1026
 8127TIP3    H245873   4.647   0.322   1.927  0.6782 -0.4956  0.5395
 8128TIP3   OH245874   3.152   3.546  16.984  0.2724  0.2202 -0.2626
 8128TIP3    H145875   3.089   3.493  16.936  0.4383  0.9785 -1.3532
 8128TIP3    H245876   3.181   3.612  16.920  0.3614  1.3658  0.9330
 8129TIP3   OH245877   2.164   5.696  14.176  0.1017  0.1328 -0.1061
 8129TIP3    H145878   2.226   5.764  14.148 -0.4289  1.0720  0.9608
 8129TIP3    H245879   2.140   5.651  14.095  1.1691  0.6060 -0.7072
 8130TIP3   OH245880   1.556   2.748  17.189  0.6033  0.2698  0.3420
 8130TIP3    H145881   1.548   2.746  17.093  1.5966  1.4602  0.2193
 8130TIP3    H245882   1.485   2.693  17.220  0.3417 -0.2288 -1.0934
 8131TIP3   OH245883   5.309   2.684   3.885  0.3750  0.0657 -0.6726
 8131TIP3    H145884   5.340   2.624   3.953 -0.5397  2.7587  2.2504
 8131TIP3    H245885   5.374   2.754   3.883  0.8288 -0.3731 -3.2288
 8132TIP3   OH245886   3.516   1.647  12.333 -0.6366 -0.0015  0.5166
 8132TIP3    H145887   3.477   1.670  12.417 -0.7665  0.7497  0.2588
 8132TIP3    H245888   3.512   1.728  12.282 -0.5239 -0.4402 -0.1972
 8133TIP3   OH245889   4.039   2.747  16.652  0.1307 -0.1879 -0.2035
 8133TIP3    H145890   4.044   2.659  16.615  3.3027 -0.1393 -0.0271
 8133TIP3    H245891   4.039   2.733  16.746  0.7809 -0.0058 -0.1738
 8134TIP3   OH245892   0.287   2.441  15.895 -0.4192  0.4579 -0.1555
 8134TIP3    H145893   0.313   2.350  15.904 -0.4228  0.6288  1.8945
 8134TIP3    H245894   0.192   2.438  15.885 -0.1890  0.1254 -2.5213
 8135TIP3   OH245895   5.115   5.961  15.309 -0.4152 -0.6617 -0.1190
 8135TIP3    H145896   5.130   5.906  15.385  0.8113  0.2146  0.2810
 8135TIP3    H245897   5.195   5.955  15.257 -0.5743  0.1220 -0.4708
 8136TIP3   OH245898   4.743   4.278  16.239  0.5009  0.0774  0.4073
 8136TIP3    H145899   4.709   4.200  16.195 -2.3610  2.4172 -1.7903
 8136TIP3    H245900   4.718   4.267  16.330 -2.8697 -0.1354 -0.4634
 8137TIP3   OH245901   5.420   5.508   5.630  0.0463  0.0598 -0.2470
 8137TIP3    H145902   5.481   5.533   5.700  1.1527  0.4255 -1.3288
 8137TIP3    H245903   5.363   5.442   5.670  1.3299 -0.4919  0.6884
 8138TIP3   OH245904   5.973   2.576  13.468 -0.1681  0.2834 -0.2766
 8138TIP3    H145905   6.027   2.635  13.414  1.7015 -1.2164 -0.1079
 8138TIP3    H245906   6.001   2.594  13.558 -0.3510 -0.0968 -0.1446
 8139TIP3   OH245907   5.264   0.957   1.517  0.0500  0.3427 -0.1107
 8139TIP3    H145908   5.279   0.907   1.437  1.7681  0.4569  0.1035
 8139TIP3    H245909   5.315   1.037   1.505 -1.7019  1.5102  0.0534
 8140TIP3   OH245910   2.114   5.842  11.485 -0.5183 -0.4339  0.5888
 8140TIP3    H145911   2.064   5.778  11.435 -0.0052  0.1408 -0.6811
 8140TIP3    H245912   2.165   5.889  11.419  2.6289 -1.8164  1.9405
 8141TIP3   OH245913   2.674   2.222  16.479  0.6643 -0.2031  0.3032
 8141TIP3    H145914   2.599   2.175  16.516  0.1752  2.3912  2.7806
 8141TIP3    H245915   2.656   2.314  16.497  2.7153  0.7918 -2.3523
 8142TIP3   OH245916   6.775   3.691  11.581  0.0598 -0.2392  0.2281
 8142TIP3    H145917   6.857   3.740  11.578 -0.3439  0.4176 -0.1339
 8142TIP3    H245918   6.708   3.753  11.552 -0.0677 -1.7945 -3.0950
 8143TIP3   OH245919   5.818   5.090   1.534  0.3444  0.1179  0.0215
 8143TIP3    H145920   5.881   5.098   1.462  1.1733  0.2391  0.7505
 8143TIP3    H245921   5.777   5.177   1.540 -1.3271 -0.5176 -1.7366
 8144TIP3   OH245922   6.247   3.622  10.985  0.7462  0.5309 -0.0138
 8144TIP3    H145923   6.232   3.603  10.892  0.5909 -0.3534  0.1968
 8144TIP3    H245924   6.298   3.704  10.984 -0.6794  1.4351 -0.8222
 8145TIP3   OH245925   1.254   4.109  15.936 -0.0545 -0.1412  0.4613
 8145TIP3    H145926   1.230   4.190  15.980 -0.5625  0.4001 -0.7870
 8145TIP3    H245927   1.255   4.131  15.843 -2.3426 -2.0638 -0.0893
 8146TIP3   OH245928   4.166   6.446  15.963  0.0287  0.0448 -0.0022
 8146TIP3    H145929   4.229   6.414  15.899 -0.1060 -0.0896 -0.0675
 8146TIP3    H245930   4.091   6.474  15.910 -0.3902 -0.7726  0.1504
 8147TIP3   OH245931   3.209   3.415  14.967  0.0198 -0.2987 -0.0859
 8147TIP3    H145932   3.120   3.403  15.002 -0.3036  1.9323 -0.0238
 8147TIP3    H245933   3.195   3.457  14.882  1.0491  2.1628  0.9004
 8148TIP3   OH245934   4.454   2.259   0.863  0.6247 -0.2472  0.4498
 8148TIP3    H145935   4.473   2.201   0.789 -0.7682 -1.2498  0.8622
 8148TIP3    H245936   4.540   2.278   0.900  1.2722 -0.3748 -0.9328
 8149TIP3   OH245937   6.133   4.458   5.253 -0.2154 -0.1791  0.0168
 8149TIP3    H145938   6.112   4.454   5.346  1.7295  0.0855  0.4902
 8149TIP3    H245939   6.099   4.376   5.217  0.2047 -0.8921  1.2162
 8150TIP3   OH245940   1.610   4.787   1.591 -0.6533 -0.3994  0.2957
 8150TIP3    H145941   1.546   4.751   1.652  0.4840 -1.6329  0.7976
 8150TIP3    H245942   1.638   4.712   1.539 -0.7552  0.4238 -0.9615
 8151TIP3   OH245943   5.702   6.471  15.851  0.0969  0.3969  0.2663
 8151TIP3    H145944   5.640   6.448  15.920 -0.8484  0.2556 -0.6130
 8151TIP3    H245945   5.756   6.393  15.840  0.1860  0.3832  0.7690
 8152TIP3   OH245946   0.170   6.107  15.580  0.8053  0.4436 -0.2703
 8152TIP3    H145947   0.187   6.046  15.652 -0.9451  0.6143  0.3196
 8152TIP3    H245948   0.161   6.192  15.623 -2.2458  0.2489 -0.4022
 8153TIP3   OH245949   2.553   1.174   1.434 -0.5763  0.1725  0.0595
 8153TIP3    H145950   2.643   1.195   1.407 -1.5861  2.1540 -1.8672
 8153TIP3    H245951   2.550   1.078   1.430  0.9297  0.1519 -1.7045
 8154TIP3   OH245952   3.301   0.311  16.944 -0.4662  0.5523 -0.5473
 8154TIP3    H145953   3.275   0.370  16.873  1.3554  1.5930 -0.3935
 8154TIP3    H245954   3.326   0.369  17.016 -0.8471 -0.4619  0.4154
 8155TIP3   OH245955   4.331   2.959   5.379  0.2483 -0.6175  0.1298
 8155TIP3    H145956   4.404   2.967   5.440 -1.0294  0.5207  1.5543
 8155TIP3    H245957   4.287   2.878   5.405 -0.2483 -0.1751  0.6681
 8156TIP3   OH245958   5.538   1.142  13.651  0.0980 -0.0951 -0.9185
 8156TIP3    H145959   5.592   1.219  13.634 -0.0462  0.1453 -0.2982
 8156TIP3    H245960   5.448   1.175  13.655  0.1943  0.0069  1.1256
 8157TIP3   OH245961   4.291   0.583  13.857 -0.4589  0.3988 -0.0712
 8157TIP3    H145962   4.269   0.550  13.944  2.9365 -0.2028  0.6171
 8157TIP3    H245963   4.307   0.677  13.870  0.6768  0.1873  0.0894
 8158TIP3   OH245964   5.380   4.018  16.670 -0.3692  0.0152  0.4058
 8158TIP3    H145965   5.401   4.005  16.762 -2.8020 -0.3302  0.9423
 8158TIP3    H245966   5.286   4.002  16.664  0.0325 -1.7371 -2.4470
 8159TIP3   OH245967   3.428   1.222  11.897 -0.1434 -0.3734  0.5455
 8159TIP3    H145968   3.520   1.229  11.873 -0.3835 -0.0581 -0.3110
 8159TIP3    H245969   3.412   1.297  11.954  0.1622 -0.4990  0.7975
 8160TIP3   OH245970   6.152   2.779  15.520 -0.2688  0.6977  0.3999
 8160TIP3    H145971   6.106   2.752  15.600 -1.0354  0.3284 -0.1595
 8160TIP3    H245972   6.083   2.783  15.453  0.4532  0.4710 -0.3638
 8161TIP3   OH245973   1.797   5.917   0.316 -0.1280 -0.1480  0.0173
 8161TIP3    H145974   1.811   6.004   0.278 -0.5698  0.1216  0.4690
 8161TIP3    H245975   1.736   5.932   0.388 -1.4046 -1.0521 -0.8513
 8162TIP3   OH245976   1.205   1.362   6.434  0.3705 -0.1853  0.4880
 8162TIP3    H145977   1.133   1.345   6.495  0.0336  0.9937  0.4250
 8162TIP3    H245978   1.228   1.454   6.449  1.3034 -0.3223 -0.0899
 8163TIP3   OH245979   5.213   4.518   5.659 -0.1451  0.3435  0.2643
 8163TIP3    H145980   5.198   4.517   5.754  0.1867  0.8895  0.3239
 8163TIP3    H245981   5.308   4.529   5.651 -0.1793  0.3242 -0.1333
 8164TIP3   OH245982   6.183   6.115   3.527 -0.1675  0.6435 -0.4002
 8164TIP3    H145983   6.131   6.107   3.607  0.7130  0.4005  0.1617
 8164TIP3    H245984   6.191   6.210   3.513  0.1452  0.6969  0.1225
 8165TIP3   OH245985   5.475   4.211   2.429 -0.2550  0.0407  0.4893
 8165TIP3    H145986   5.421   4.132   2.433 -1.1649  0.5492 -1.3895
 8165TIP3    H245987   5.418   4.281   2.462  0.2708  0.0723  1.3513
 8166TIP3   OH245988   5.520   2.871   3.885 -0.0596 -0.8188 -0.2424
 8166TIP3    H145989   5.561   2.908   3.807 -0.6632 -1.4949 -0.8782
 8166TIP3    H245990   5.477   2.946   3.927  3.2447  0.3011  1.3915
 8167TIP3   OH245991   6.783   3.275   2.295 -0.4918  0.3196  0.2178
 8167TIP3    H145992   6.759   3.217   2.367  0.4866  0.2746  0.5241
 8167TIP3    H245993   6.715   3.263   2.229  0.2016 -1.8891 -0.1293
 8168TIP3   OH245994   0.675   0.275  13.501  0.0859 -0.2741  0.0356
 8168TIP3    H145995   0.739   0.261  13.571 -0.4926 -1.7474  0.2971
 8168TIP3    H245996   0.603   0.323  13.543 -0.0029 -0.6498  0.3178
 8169TIP3   OH245997   4.197   2.868  13.798 -0.8533  0.0658  0.0342
 8169TIP3    H145998   4.117   2.852  13.849 -0.3778 -0.3675  0.6563
 8169TIP3    H245999   4.257   2.910  13.860 -0.8870  1.1523 -0.6567
 8170TIP3   OH246000   0.991   2.007   5.110  0.1311 -0.0129 -0.1632
 8170TIP3    H146001   1.048   2.008   5.032 -0.7145  0.9370 -0.7758
 8170TIP3    H246002   0.981   2.099   5.134 -2.0639 -0.0841 -0.7410
 8171TIP3   OH246003   0.871   2.965   0.952 -0.1527 -0.2517  0.4072
 8171TIP3    H146004   0.877   2.872   0.975  1.5864 -0.2573 -0.0253
 8171TIP3    H246005   0.795   2.970   0.894 -1.1217 -1.1622  1.5678
 8172TIP3   OH246006   1.183   6.620  13.446  0.8570 -0.9141  0.0382
 8172TIP3    H146007   1.215   6.703  13.479  0.5777 -1.7382  2.5179
 8172TIP3    H246008   1.089   6.633  13.433  1.3112  0.0444 -2.5553
 8173TIP3   OH246009   2.623   5.235  15.585 -0.2563  0.4713 -0.1975
 8173TIP3    H146010   2.580   5.304  15.636 -1.3981 -1.0796  1.0006
 8173TIP3    H246011   2.552   5.173  15.565  1.0071 -1.0486 -0.0494
 8174TIP3   OH246012   6.811   2.682   0.384 -0.4679  0.1648  0.6014
 8174TIP3    H146013   6.797   2.700   0.291 -0.7418 -1.7258  0.2628
 8174TIP3    H246014   6.885   2.736   0.408  0.4487 -0.3266 -1.0573
 8175TIP3   OH246015   3.677   1.740   2.027 -0.2506 -0.1607 -0.5320
 8175TIP3    H146016   3.621   1.817   2.016  0.0191 -0.2989 -3.2673
 8175TIP3    H246017   3.736   1.743   1.952 -0.1156 -2.9307 -0.5932
 8176TIP3   OH246018   4.153   2.577   6.208 -0.4128 -0.1500 -0.2944
 8176TIP3    H146019   4.089   2.632   6.162  0.7348 -0.5750 -2.5229
 8176TIP3    H246020   4.121   2.488   6.196 -0.2672 -0.2386 -0.0167
 8177TIP3   OH246021   1.830   5.922  11.511  0.5764 -0.1315  0.7176
 8177TIP3    H146022   1.898   5.984  11.483  1.2747 -1.1001  0.2564
 8177TIP3    H246023   1.861   5.890  11.596  0.8905 -0.8734  0.3204
 8178TIP3   OH246024   3.159   1.038  14.464 -0.6164  1.0020 -0.0142
 8178TIP3    H146025   3.135   1.130  14.475  0.9711  1.9516 -3.6861
 8178TIP3    H246026   3.242   1.028  14.509 -0.4595  1.5285 -0.1968
 8179TIP3   OH246027   6.042   6.300   2.522  0.1656 -0.1082  0.5155
 8179TIP3    H146028   6.091   6.307   2.604 -0.1916 -2.2765  0.9315
 8179TIP3    H246029   6.038   6.206   2.504 -1.3372  0.2321 -1.0495
 8180TIP3   OH246030   4.097   0.763  13.091 -0.5942  0.9005  0.8550
 8180TIP3    H146031   4.009   0.729  13.105  0.1454 -0.9348  1.1942
 8180TIP3    H246032   4.111   0.753  12.997 -0.7668  1.2143  0.7968
 8181TIP3   OH246033   4.036   4.667   1.309 -0.0490  0.7414  0.3584
 8181TIP3    H146034   4.094   4.734   1.275  0.4495  1.0092  1.7084
 8181TIP3    H246035   4.077   4.639   1.391 -0.9663 -0.2395  0.4975
 8182TIP3   OH246036   6.650   2.205  17.139 -0.2592  0.3534  0.1816
 8182TIP3    H146037   6.738   2.190  17.174 -0.2023 -0.4127 -0.3034
 8182TIP3    H246038   6.603   2.124  17.156 -0.8325  0.7121  0.3110
 8183TIP3   OH246039   6.076   2.975  11.735 -0.6516  0.1836 -0.2754
 8183TIP3    H146040   6.033   3.011  11.812 -1.6419 -1.0834 -0.2250
 8183TIP3    H246041   6.125   3.049  11.698 -0.0296  0.7662  1.6529
 8184TIP3   OH246042   1.620   3.237  17.259  0.5967  0.7127  0.0757
 8184TIP3    H146043   1.688   3.230  17.326 -1.6153  0.6934  2.3681
 8184TIP3    H246044   1.570   3.315  17.283  0.4782  1.4064 -2.2620
 8185TIP3   OH246045   4.521   6.180  15.485 -0.3990 -0.0717  0.0998
 8185TIP3    H146046   4.450   6.117  15.494 -0.1843 -0.3658 -0.2578
 8185TIP3    H246047   4.482   6.252  15.436 -0.1677 -0.6903 -1.0079
 8186TIP3   OH246048   0.884   3.800  11.374  0.5572 -0.4836 -0.1216
 8186TIP3    H146049   0.958   3.846  11.414  1.3929 -1.6258 -0.3134
 8186TIP3    H246050   0.858   3.855  11.301  0.6256  0.3862  0.5007
 8187TIP3   OH246051   5.086   2.731  10.767  0.1452 -0.5731  0.3407
 8187TIP3    H146052   5.150   2.797  10.742 -0.6549  0.1104  0.0975
 8187TIP3    H246053   5.043   2.767  10.844 -0.2511 -0.8407  0.2478
 8188TIP3   OH246054   6.007   0.975   2.119  0.3949  0.1466 -0.6160
 8188TIP3    H146055   5.943   1.038   2.085 -0.3508 -0.5195 -0.4804
 8188TIP3    H246056   6.076   1.029   2.157 -1.1733  0.9021  1.2384
 8189TIP3   OH246057   2.897   2.923  11.940 -0.5670  0.8933 -0.3636
 8189TIP3    H146058   2.980   2.880  11.960 -0.3575  0.6391 -1.7431
 8189TIP3    H246059   2.899   2.937  11.846 -2.1399  0.7963 -0.4246
 8190TIP3   OH246060   4.232   0.262   3.803  0.1269  0.6151  0.1876
 8190TIP3    H146061   4.232   0.281   3.897  1.2323 -1.3114  0.6110
 8190TIP3    H246062   4.322   0.235   3.784  0.0561  1.5569 -1.5575
 8191TIP3   OH246063   1.668   0.119   0.230  0.1809 -0.1961  0.3605
 8191TIP3    H146064   1.713   0.188   0.181  0.3317 -0.0759  0.6659
 8191TIP3    H246065   1.596   0.092   0.173 -0.1222  0.5004  0.4212
 8192TIP3   OH246066   1.560   4.458   0.314 -0.4826  0.1580 -0.1395
 8192TIP3    H146067   1.557   4.548   0.347 -0.4978  0.5593 -1.2096
 8192TIP3    H246068   1.620   4.413   0.373  0.8599  1.3046 -0.6132
 8193TIP3   OH246069   4.018   0.223   2.420 -0.4716 -0.6969 -0.7826
 8193TIP3    H146070   4.032   0.253   2.510  0.1935 -1.7785 -0.5222
 8193TIP3    H246071   4.064   0.140   2.415  0.2208 -0.2356 -2.3873
 8194TIP3   OH246072   3.461   0.736   2.443 -0.2271 -0.4504 -0.5943
 8194TIP3    H146073   3.550   0.748   2.409 -0.4451  3.0592 -0.1302
 8194TIP3    H246074   3.468   0.757   2.536 -1.5221 -0.0620 -0.5647
 8195TIP3   OH246075   5.829   1.737  12.891  0.0413  0.0443  0.7868
 8195TIP3    H146076   5.835   1.663  12.952  1.5633 -0.7744 -0.3337
 8195TIP3    H246077   5.911   1.735  12.842 -0.8617  1.1202 -0.8134
 8196TIP3   OH246078   3.387   4.322   4.737  0.4262 -0.1353 -0.4296
 8196TIP3    H146079   3.426   4.321   4.825  1.3808  2.6073 -0.7601
 8196TIP3    H246080   3.462   4.308   4.678  0.2888  1.1083 -0.9114
 8197TIP3   OH246081   2.829   1.093   5.714  0.2320 -0.1257 -0.0115
 8197TIP3    H146082   2.866   1.028   5.774 -2.0182 -0.9506  0.5345
 8197TIP3    H246083   2.737   1.069   5.706 -1.1134  3.9529  1.5396
 8198TIP3   OH246084   4.048   3.562  14.323  0.5638 -0.0435  0.1874
 8198TIP3    H146085   4.034   3.545  14.230 -1.8721  1.3482  0.2665
 8198TIP3    H246086   4.144   3.564  14.333  0.8466 -0.3294 -2.2468
 8199TIP3   OH246087   0.968   0.279  16.912 -0.2655  0.5626  0.0048
 8199TIP3    H146088   0.887   0.319  16.881 -1.6003  0.4436  3.1621
 8199TIP3    H246089   1.001   0.339  16.978  1.3610 -0.2235 -0.0578
 8200TIP3   OH246090   2.901   2.046   4.289  0.8110  0.7564 -0.5820
 8200TIP3    H146091   2.976   2.056   4.230  0.7598  1.0370 -0.5964
 8200TIP3    H246092   2.834   2.002   4.237  1.2650 -0.2795 -0.3270
 8201TIP3   OH246093   1.349   6.214  16.255  0.2611  0.0437 -0.2947
 8201TIP3    H146094   1.371   6.138  16.309 -0.3970  0.1836  0.1732
 8201TIP3    H246095   1.254   6.222  16.261  0.0378 -0.6944 -2.5069
 8202TIP3   OH246096   2.714   2.679  16.462  0.0651  0.2243  0.1832
 8202TIP3    H146097   2.648   2.640  16.405 -0.1745  0.4425  0.3049
 8202TIP3    H246098   2.775   2.723  16.403  0.8483 -1.1038 -0.0026
 8203TIP3   OH246099   1.303   6.644  13.910  0.0837 -0.5788 -0.3078
 8203TIP3    H146100   1.245   6.719  13.921 -0.7222 -1.5010  2.1255
 8203TIP3    H246101   1.382   6.668  13.958  0.4832 -0.6369 -0.9258
 8204TIP3   OH246102   1.988   3.430  14.893 -0.1134  0.2660  0.5141
 8204TIP3    H146103   1.989   3.336  14.879 -3.2757  0.2278  0.1427
 8204TIP3    H246104   1.971   3.467  14.806  2.2182  1.2519  0.4579
 8205TIP3   OH246105   6.071   6.217   2.775  0.5363  0.1089 -0.0914
 8205TIP3    H146106   6.118   6.221   2.858 -0.9477  1.1174  0.7155
 8205TIP3    H246107   5.983   6.250   2.795 -0.1987 -0.7632 -1.8017
 8206TIP3   OH246108   0.002   4.018  11.773 -0.1430 -0.3295  0.5208
 8206TIP3    H146109  -0.057   3.995  11.702  0.4708 -0.1986 -0.0319
 8206TIP3    H246110   0.070   3.951  11.773  1.0810  0.8702 -0.4402
 8207TIP3   OH246111   5.120   4.015  16.671  0.5093 -0.8726 -0.3968
 8207TIP3    H146112   5.065   3.940  16.647 -1.1829 -0.2708  1.4138
 8207TIP3    H246113   5.082   4.088  16.623  0.4013 -0.6584  0.0153
 8208TIP3   OH246114   5.060   1.307   5.685 -0.2389 -0.0959  0.1541
 8208TIP3    H146115   5.077   1.388   5.637  1.8735 -0.3066  0.4908
 8208TIP3    H246116   5.014   1.251   5.622  0.3413  0.5283 -0.8351
 8209TIP3   OH246117   0.255   5.330   0.732  0.0706 -0.4849 -0.4008
 8209TIP3    H146118   0.250   5.282   0.814 -0.6301 -0.4569 -0.4274
 8209TIP3    H246119   0.349   5.342   0.717  0.1808  0.0790  0.7271
 8210TIP3   OH246120   5.639   3.870  11.498  0.0709 -0.0896 -0.6958
 8210TIP3    H146121   5.671   3.797  11.444  0.3582 -0.5919  0.1545
 8210TIP3    H246122   5.569   3.909  11.445  0.9194 -0.0419 -1.8207
 8211TIP3   OH246123   4.317   1.780   4.326 -0.3920  0.1140  0.1038
 8211TIP3    H146124   4.379   1.758   4.395 -0.6700 -1.9400 -0.2756
 8211TIP3    H246125   4.365   1.765   4.244 -1.3553 -1.4334 -0.1910
 8212TIP3   OH246126   2.522   0.890   0.698 -0.1631  0.3750 -0.2898
 8212TIP3    H146127   2.514   0.851   0.611 -1.0043  0.7452 -0.3919
 8212TIP3    H246128   2.441   0.940   0.709  1.1589  2.6231 -0.4350
 8213TIP3   OH246129   0.551   3.856   0.868  0.2498  0.6944  0.3879
 8213TIP3    H146130   0.592   3.881   0.951  1.0211  1.0349 -0.0911
 8213TIP3    H246131   0.617   3.876   0.802  0.3974 -1.3865 -0.1375
 8214TIP3   OH246132   5.060   2.981   1.679 -0.0555 -0.0994 -0.0033
 8214TIP3    H146133   5.139   3.035   1.676 -0.9547  1.2443  0.6147
 8214TIP3    H246134   5.070   2.928   1.758 -1.9678  3.4580  2.7273
 8215TIP3   OH246135   2.211   6.529   2.184 -0.4194  0.5998 -0.3204
 8215TIP3    H146136   2.169   6.445   2.201  0.5302  0.5935  2.1308
 8215TIP3    H246137   2.274   6.511   2.114  1.8604 -1.4424  2.1485
 8216TIP3   OH246138   1.964   2.921   4.008 -0.1542 -0.0799  0.5420
 8216TIP3    H146139   1.871   2.919   4.031  0.0829 -0.4943  1.4966
 8216TIP3    H246140   1.982   2.834   3.973 -0.5120  0.5464 -1.2795
 8217TIP3   OH246141   0.533   4.902  16.348  0.5058 -0.3158 -0.4816
 8217TIP3    H146142   0.570   4.918  16.261  1.2449  0.0339 -0.1059
 8217TIP3    H246143   0.438   4.907  16.335  0.6498  2.8672 -0.6720
 8218TIP3   OH246144   0.334   2.046   5.915 -0.3446 -0.2345 -0.0874
 8218TIP3    H146145   0.408   2.095   5.951 -2.1215  2.5395 -0.0195
 8218TIP3    H246146   0.298   2.105   5.848 -3.1664 -1.0532  0.6768
 8219TIP3   OH246147   0.649   1.546   3.783  0.5596 -0.1585 -0.0145
 8219TIP3    H146148   0.577   1.587   3.832  0.1398  2.2830 -2.5434
 8219TIP3    H246149   0.726   1.560   3.838  0.0831  2.3867  0.0631
 8220TIP3   OH246150   3.963   1.685   3.640 -0.0011 -0.0562 -0.2370
 8220TIP3    H146151   4.000   1.596   3.642  2.1552  0.8135  0.2295
 8220TIP3    H246152   4.036   1.741   3.666 -1.3043  1.8772 -0.6981
 8221TIP3   OH246153   1.115   1.165   5.330 -0.0810  0.3767 -0.2546
 8221TIP3    H146154   1.197   1.174   5.379  0.2090 -1.6549 -0.2961
 8221TIP3    H246155   1.048   1.161   5.398  0.2526 -1.7117  0.0115
 8222TIP3   OH246156   4.425   1.715   1.242  0.0283 -0.1771  0.4305
 8222TIP3    H146157   4.356   1.667   1.195  0.7718  0.6007 -1.5032
 8222TIP3    H246158   4.399   1.710   1.334 -3.5688  1.5165 -0.3780
 8223TIP3   OH246159   2.710   2.194  11.610  0.1845 -0.2438 -0.2456
 8223TIP3    H146160   2.787   2.223  11.658  1.6468  0.1329 -2.7407
 8223TIP3    H246161   2.735   2.109  11.573 -1.1188 -0.7937  0.0783
 8224TIP3   OH246162   1.048   1.079  12.010  0.4637  0.7065 -0.2202
 8224TIP3    H146163   0.962   1.055  12.043  0.5860  0.1033 -0.3321
 8224TIP3    H246164   1.033   1.156  11.956  0.1185  1.1093  0.4469
 8225TIP3   OH246165   3.289   4.651   1.512 -0.3200  0.8261 -0.2917
 8225TIP3    H146166   3.370   4.614   1.477 -0.4953 -0.2826  0.4520
 8225TIP3    H246167   3.285   4.739   1.475  1.3496  0.9771 -0.1343
 8226TIP3   OH246168   5.600   1.917  10.677  0.3999 -0.1836 -0.0463
 8226TIP3    H146169   5.672   1.857  10.694  0.0356 -1.3374 -2.3906
 8226TIP3    H246170   5.641   2.003  10.669  0.9436 -0.0570  3.1468
 8227TIP3   OH246171   2.836   6.500  12.133  0.3257  0.0550 -0.4457
 8227TIP3    H146172   2.848   6.557  12.209  2.5475 -0.1069 -0.6396
 8227TIP3    H246173   2.924   6.469  12.113 -0.4142 -0.8558 -2.3542
 8228TIP3   OH246174   1.688   3.048  13.473 -0.5951  0.0035 -0.1031
 8228TIP3    H146175   1.717   3.053  13.564  0.6555 -0.5815 -0.4561
 8228TIP3    H246176   1.760   3.085  13.422 -0.6651 -1.0020 -0.9591
 8229TIP3   OH246177   4.645   4.195   3.340 -0.3633 -0.2248  0.3134
 8229TIP3    H146178   4.694   4.257   3.394 -2.6086  2.6991 -0.8832
 8229TIP3    H246179   4.704   4.173   3.269  0.4449  0.6008  0.7159
 8230TIP3   OH246180   5.363   1.663  16.261 -1.1980 -0.1225 -0.0286
 8230TIP3    H146181   5.333   1.572  16.254 -1.1422 -0.0026 -2.4273
 8230TIP3    H246182   5.288   1.715  16.231 -0.5513  0.4871 -0.6109
 8231TIP3   OH246183   2.992   6.079   6.070 -0.5836  0.3667 -0.4891
 8231TIP3    H146184   2.938   6.074   6.149  0.6542  0.8557  0.3995
 8231TIP3    H246185   2.933   6.115   6.003 -1.8447 -0.7477  0.0021
 8232TIP3   OH246186   0.235   4.673  15.288  0.3970 -0.5510 -0.0185
 8232TIP3    H146187   0.316   4.717  15.262 -0.3335  0.5035 -0.5447
 8232TIP3    H246188   0.264   4.603  15.347  1.7625 -0.6809 -0.8023
 8233TIP3   OH246189   1.437   6.494   1.536  0.2647 -0.5320 -0.4108
 8233TIP3    H146190   1.405   6.457   1.453 -0.9051 -1.0000  0.2276
 8233TIP3    H246191   1.531   6.478   1.535  0.0251 -2.0562 -0.9065
 8234TIP3   OH246192   0.428   1.652  15.879 -0.1614 -0.1909  0.2635
 8234TIP3    H146193   0.441   1.578  15.939 -0.1893  0.5791  1.2352
 8234TIP3    H246194   0.507   1.654  15.826 -0.4556 -1.3377 -0.2330
 8235TIP3   OH246195   3.755   5.288   5.984  0.1646  0.0521 -0.8683
 8235TIP3    H146196   3.706   5.207   5.971  1.0699 -0.3859 -1.6636
 8235TIP3    H246197   3.812   5.294   5.907  2.8649 -0.5448  1.0109
 8236TIP3   OH246198   0.624   0.058   6.210  0.5722 -0.5536  0.4744
 8236TIP3    H146199   0.704   0.017   6.180  0.3744 -1.7979  1.6039
 8236TIP3    H246200   0.556  -0.008   6.196 -0.2160  0.3951 -0.2439
 8237TIP3   OH246201   0.733   5.571   5.889  0.4563  0.3803 -0.3487
 8237TIP3    H146202   0.743   5.663   5.865 -1.5862  1.1393  1.5613
 8237TIP3    H246203   0.638   5.558   5.895  0.7724 -1.2195  1.6844
 8238TIP3   OH246204   4.399   1.005   3.378  0.1489  0.4764  0.4660
 8238TIP3    H146205   4.428   0.960   3.457 -0.7537  0.4641  0.8004
 8238TIP3    H246206   4.303   1.003   3.383 -0.0337 -2.2504 -2.1402
 8239TIP3   OH246207   4.805   6.165   1.269 -0.4067 -0.3716  0.6209
 8239TIP3    H146208   4.804   6.097   1.201  1.0169  1.3691 -1.2187
 8239TIP3    H246209   4.713   6.182   1.287 -0.7941 -2.8202  1.1823
 8240TIP3   OH246210   0.242   4.468   4.789 -0.5268  0.0224  0.1972
 8240TIP3    H146211   0.218   4.555   4.758  0.4258 -0.1174 -0.9722
 8240TIP3    H246212   0.167   4.439   4.841 -1.6902  0.7207 -1.0556
 8241TIP3   OH246213   2.209   5.832  12.778 -0.2023  0.4098 -0.4097
 8241TIP3    H146214   2.118   5.806  12.765 -0.3944 -0.3361  2.1944
 8241TIP3    H246215   2.219   5.913  12.728 -1.6906 -0.6208 -2.4498
 8242TIP3   OH246216   1.835   3.659  15.113  0.1846  0.0031 -0.1810
 8242TIP3    H146217   1.874   3.572  15.121 -0.3324 -0.3667 -1.4889
 8242TIP3    H246218   1.909   3.717  15.099  0.2928 -0.7882 -3.4069
 8243TIP3   OH246219   4.893   2.437   3.811  0.2829 -0.6987 -0.2070
 8243TIP3    H146220   4.978   2.407   3.843 -0.2927 -1.5795  0.5133
 8243TIP3    H246221   4.838   2.441   3.890 -1.0166 -2.4310 -1.0088
 8244TIP3   OH246222   6.761   3.136  13.707 -0.7584 -0.8549 -0.0039
 8244TIP3    H146223   6.675   3.171  13.683  0.0454  0.3525 -1.1895
 8244TIP3    H246224   6.768   3.150  13.801 -1.7372 -0.7101  0.0487
 8245TIP3   OH246225   2.344   3.289  15.963 -0.3126  0.0620  0.4984
 8245TIP3    H146226   2.392   3.302  16.044 -0.8346  0.9227  0.6840
 8245TIP3    H246227   2.411   3.270  15.897  0.1550 -0.0777  1.0126
 8246TIP3   OH246228   6.013   4.070  13.030  0.5438 -0.3800 -0.0158
 8246TIP3    H146229   6.034   4.160  13.005  0.0332 -0.3114 -0.1924
 8246TIP3    H246230   6.082   4.018  12.990  2.2262  0.1625  2.0860
 8247TIP3   OH246231   4.535   0.525  13.518 -0.0132 -0.4638 -0.4900
 8247TIP3    H146232   4.617   0.486  13.550  0.1434  0.6224  0.4565
 8247TIP3    H246233   4.500   0.460  13.457  2.6426 -0.0212 -2.6102
 8248TIP3   OH246234   2.733   2.499   1.815  0.0719  0.2788  0.5716
 8248TIP3    H146235   2.788   2.428   1.781  0.4892  0.3632  1.0507
 8248TIP3    H246236   2.722   2.559   1.741  1.8462  0.9963  0.8435
 8249TIP3   OH246237   2.446   4.357  16.367  0.3142  0.0631 -0.6784
 8249TIP3    H146238   2.408   4.372  16.453  0.2567 -0.8052 -0.5516
 8249TIP3    H246239   2.402   4.279  16.334 -0.2222  0.8318 -1.8138
 8250TIP3   OH246240   0.194   1.722   3.728  0.5596  0.4416  0.4434
 8250TIP3    H146241   0.278   1.734   3.772 -0.5867  0.8440  2.5893
 8250TIP3    H246242   0.138   1.680   3.794 -0.7106 -0.5449 -1.2012
 8251TIP3   OH246243   0.182   0.767  13.726  0.1264 -0.2943  0.0550
 8251TIP3    H146244   0.189   0.686  13.676  0.7705  0.0748 -0.4565
 8251TIP3    H246245   0.272   0.789  13.750 -0.1274 -0.2042  0.9620
 8252TIP3   OH246246   4.585   2.561  11.136 -0.0753 -0.0556 -0.1792
 8252TIP3    H146247   4.587   2.495  11.205 -1.0196 -0.1665 -0.2580
 8252TIP3    H246248   4.495   2.560  11.103  0.8870 -1.6101 -2.9637
 8253TIP3   OH246249   1.452   1.398  16.020 -0.1619  0.3562 -0.1129
 8253TIP3    H146250   1.451   1.491  15.996  0.3985  0.4139  0.0789
 8253TIP3    H246251   1.452   1.352  15.936  2.7415  0.5656 -0.2929
 8254TIP3   OH246252   2.127   5.158   4.079  0.0155  0.4945  0.4495
 8254TIP3    H146253   2.149   5.251   4.085 -1.7012  0.9928 -0.5652
 8254TIP3    H246254   2.034   5.155   4.102  0.3194 -1.1248  1.5373
 8255TIP3   OH246255   3.262   2.354   2.510 -0.4639 -0.8972 -0.1583
 8255TIP3    H146256   3.353   2.382   2.510 -0.2412 -1.5179  1.6152
 8255TIP3    H246257   3.220   2.410   2.576 -1.6842  0.3183 -1.9349
 8256TIP3   OH246258   1.592   5.804   0.890 -0.5893  0.6949  0.0291
 8256TIP3    H146259   1.589   5.871   0.958 -0.5145  1.5918 -0.8315
 8256TIP3    H246260   1.683   5.777   0.887 -0.5628  0.7683  0.1712
 8257TIP3   OH246261   2.044   5.119   4.526 -0.0793  0.7036  0.0891
 8257TIP3    H146262   2.113   5.160   4.578  0.2556 -2.0580  1.9786
 8257TIP3    H246263   2.091   5.068   4.460 -0.3661  0.5871 -0.0261
 8258TIP3   OH246264   2.908   2.544  16.943  0.0824 -0.5682 -0.2030
 8258TIP3    H146265   2.820   2.560  16.909 -0.5024 -1.1702  0.9977
 8258TIP3    H246266   2.966   2.581  16.877 -1.1319  5.2255  1.6935
 8259TIP3   OH246267   3.105   4.507  12.771  0.2538 -0.3942  0.0597
 8259TIP3    H146268   3.146   4.494  12.857  0.8938 -0.8208 -0.3069
 8259TIP3    H246269   3.127   4.428  12.722 -0.0023 -0.0950 -0.5443
 8260TIP3   OH246270   1.601   4.896   3.332 -0.0100 -0.0698 -0.6598
 8260TIP3    H146271   1.511   4.864   3.328  0.0694 -0.2154 -1.2690
 8260TIP3    H246272   1.593   4.991   3.326 -0.2140  0.0178  0.7003
 8261TIP3   OH246273   3.518   4.796  16.121  0.2705 -0.3860 -0.7750
 8261TIP3    H146274   3.431   4.775  16.088 -0.1646 -0.7961  0.5789
 8261TIP3    H246275   3.505   4.873  16.177  0.3494 -1.7602  1.2251
 8262TIP3   OH246276   0.594   0.596  11.460  0.2801 -0.2715 -0.0809
 8262TIP3    H146277   0.641   0.665  11.507  1.1269 -0.9399  0.0777
 8262TIP3    H246278   0.536   0.642  11.400  1.3277  0.5755 -0.4540
 8263TIP3   OH246279   4.876   5.592   2.304  0.1826  0.2216 -0.0998
 8263TIP3    H146280   4.843   5.642   2.379 -0.5574  0.9568 -0.9059
 8263TIP3    H246281   4.869   5.653   2.230 -0.1379 -0.8821 -0.9807
 8264TIP3   OH246282   6.019   6.252  15.176 -0.1669 -0.2133  0.3511
 8264TIP3    H146283   6.040   6.272  15.084  0.7898  0.8491  0.7938
 8264TIP3    H246284   6.037   6.158  15.184  1.2952  0.0030 -0.1557
 8265TIP3   OH246285   5.679   4.630   3.463  0.1975  0.5587  0.1009
 8265TIP3    H146286   5.593   4.590   3.467  0.0039  1.0311  0.6761
 8265TIP3    H246287   5.736   4.562   3.428  0.2716 -0.8833  2.9312
 8266TIP3   OH246288   6.266   6.759  14.149 -1.2631 -0.7483  0.0379
 8266TIP3    H146289   6.355   6.784  14.122 -1.5527  0.1596 -0.0738
 8266TIP3    H246290   6.229   6.717  14.072 -1.9520  1.4986 -0.8859
 8267TIP3   OH246291   0.935   6.173   3.671  0.4870  0.0481 -0.4598
 8267TIP3    H146292   0.872   6.144   3.606  1.2120  0.0131 -1.1587
 8267TIP3    H246293   0.974   6.091   3.704 -0.5895  0.0015  0.7632
 8268TIP3   OH246294   3.720   5.354  12.290  0.2529 -0.0770  0.1649
 8268TIP3    H146295   3.698   5.445  12.270  2.2119  0.3771 -0.0181
 8268TIP3    H246296   3.641   5.305  12.267 -0.9515  1.6051  0.5769
 8269TIP3   OH246297   1.224   4.779   6.525  0.4761  0.2417  0.0023
 8269TIP3    H146298   1.206   4.872   6.535  0.5074  0.4857 -2.0609
 8269TIP3    H246299   1.313   4.768   6.559  0.6347  1.0336 -0.1514
 8270TIP3   OH246300   0.120   0.822   1.723 -0.2166  0.3597 -0.1527
 8270TIP3    H146301   0.130   0.910   1.759 -2.5583  0.5664  0.1066
 8270TIP3    H246302   0.129   0.764   1.799  2.8027  0.2312 -0.5505
 8271TIP3   OH246303   2.469   2.802  14.746 -0.3336  0.4124  0.0038
 8271TIP3    H146304   2.551   2.811  14.698 -1.5794 -0.5731 -2.4245
 8271TIP3    H246305   2.442   2.892  14.763  1.2181  0.7430  0.8012
 8272TIP3   OH246306   3.629   2.815   1.938  0.0621 -0.4930 -0.3519
 8272TIP3    H146307   3.638   2.751   1.866 -0.3001 -0.3234 -0.5477
 8272TIP3    H246308   3.719   2.832   1.965  0.1094 -2.1100  0.6043
 8273TIP3   OH246309   6.306   2.114   4.360 -0.2108 -0.1042 -0.7948
 8273TIP3    H146310   6.391   2.120   4.316  0.4299  0.6173  0.5329
 8273TIP3    H246311   6.316   2.042   4.423 -0.2082  0.7425  0.1763
 8274TIP3   OH246312   4.517   4.032   2.864  0.0019  0.2614 -0.2775
 8274TIP3    H146313   4.472   4.036   2.949 -2.5310 -0.4993 -1.5433
 8274TIP3    H246314   4.504   4.119   2.826  2.2398  1.0199  0.6275
 8275TIP3   OH246315   6.134   1.099  15.970 -0.0304 -0.0631 -0.1252
 8275TIP3    H146316   6.195   1.130  16.037 -0.3228 -0.7752  0.4770
 8275TIP3    H246317   6.077   1.173  15.952  0.6978  0.4499 -0.3267
 8276TIP3   OH246318   1.685   4.500  13.373 -0.2998  0.5166 -0.4542
 8276TIP3    H146319   1.742   4.427  13.397 -1.9282 -0.3935  0.7799
 8276TIP3    H246320   1.715   4.526  13.286  0.2354 -1.7272 -0.9850
 8277TIP3   OH246321   4.147   2.908   5.859 -0.2894  0.3885  0.0229
 8277TIP3    H146322   4.144   2.879   5.768  0.3592 -0.2005  0.1833
 8277TIP3    H246323   4.213   2.978   5.860  0.4182 -0.2817  0.2254
 8278TIP3   OH246324   1.166   5.249  14.990 -0.0169 -0.1812 -0.2102
 8278TIP3    H146325   1.244   5.250  14.934  0.3088 -1.1474  0.2160
 8278TIP3    H246326   1.103   5.305  14.944  0.6345 -0.0736 -0.9882
 8279TIP3   OH246327   2.508   6.468   4.562 -0.5502 -0.3947  0.3090
 8279TIP3    H146328   2.440   6.487   4.496  1.9010  0.8317 -1.9794
 8279TIP3    H246329   2.561   6.400   4.522  1.3351  0.7959  0.7368
 8280TIP3   OH246330   2.145   2.943  13.185 -0.1451 -0.2388  0.0399
 8280TIP3    H146331   2.172   2.883  13.254 -0.2493  0.8525  1.0261
 8280TIP3    H246332   2.055   2.916  13.164 -0.7106  0.5096  1.4986
 8281TIP3   OH246333   2.972   6.445   4.330 -0.5719  0.0102 -0.6243
 8281TIP3    H146334   3.010   6.531   4.348  0.8621 -0.6992 -0.1235
 8281TIP3    H246335   2.990   6.430   4.237  2.7462 -1.3956  0.1545
 8282TIP3   OH246336   1.931   4.974  12.730 -0.1784 -0.0059  0.5259
 8282TIP3    H146337   1.964   4.890  12.760  0.6185  0.7736  1.8862
 8282TIP3    H246338   1.847   4.954  12.688  1.0289 -1.7205 -1.0651
 8283TIP3   OH246339   4.384   2.105   0.651 -0.1919  0.4458  0.3023
 8283TIP3    H146340   4.334   2.187   0.659  0.2494  1.0081 -2.3710
 8283TIP3    H246341   4.326   2.047   0.602 -0.1101 -0.5594  1.3709
 8284TIP3   OH246342   3.157   2.603  16.776  0.0422 -0.0882  0.0794
 8284TIP3    H146343   3.222   2.645  16.721 -0.7829  0.9588 -0.0975
 8284TIP3    H246344   3.075   2.612  16.728 -0.5499  0.1779  1.1265
 8285TIP3   OH246345   2.607   6.157   0.337 -0.0669  0.2694  0.7399
 8285TIP3    H146346   2.524   6.168   0.382 -0.7892  0.7181 -0.6629
 8285TIP3    H246347   2.635   6.068   0.358 -1.2509 -0.1300  0.6480
 8286TIP3   OH246348   1.063   2.324  11.884 -0.1823 -0.1235  0.1805
 8286TIP3    H146349   1.064   2.235  11.847  2.1854  0.9310 -2.5318
 8286TIP3    H246350   1.006   2.374  11.825  0.8613  0.7934 -0.0682
 8287TIP3   OH246351   0.655   5.708  14.829 -0.1619 -0.3329  0.4749
 8287TIP3    H146352   0.621   5.793  14.803 -0.5138 -0.6649 -0.1669
 8287TIP3    H246353   0.582   5.665  14.874  0.9570  0.8915  3.5365
 8288TIP3   OH246354   0.745   0.295  12.738 -0.1854 -0.4387 -0.2959
 8288TIP3    H146355   0.772   0.278  12.648  0.0309  2.5313 -0.8443
 8288TIP3    H246356   0.827   0.300  12.787 -0.1075  1.2676 -0.5802
 8289TIP3   OH246357   3.796   6.410  12.684 -0.1266  0.3284 -0.3364
 8289TIP3    H146358   3.841   6.417  12.768 -0.3563 -0.5126 -0.1342
 8289TIP3    H246359   3.743   6.330  12.692 -2.3795  1.7848 -0.2238
 8290TIP3   OH246360   2.216   5.352  16.497  0.3810 -0.0769  0.8516
 8290TIP3    H146361   2.212   5.257  16.486  1.2331 -0.3981  3.0501
 8290TIP3    H246362   2.132   5.384  16.464 -0.8289 -1.8374  2.1694
 8291TIP3   OH246363   0.178   3.787  16.849 -0.5233  0.2638 -0.0277
 8291TIP3    H146364   0.104   3.809  16.792 -2.0119 -0.0155  1.7437
 8291TIP3    H246365   0.173   3.852  16.920  0.4653 -0.2477  0.5188
 8292TIP3   OH246366   3.875   6.361  16.842  0.6397  0.4647  0.1401
 8292TIP3    H146367   3.841   6.403  16.921  0.2964 -2.1315  1.4041
 8292TIP3    H246368   3.963   6.331  16.866  1.3769  1.4894 -1.1553
 8293TIP3   OH246369   2.285   6.650  15.496  0.2298  0.1628 -0.6273
 8293TIP3    H146370   2.359   6.664  15.555  0.0361 -0.4616 -0.2305
 8293TIP3    H246371   2.272   6.555  15.495 -0.3602  0.2395 -0.9468
 8294TIP3   OH246372   3.233   3.106  15.200 -0.0203 -0.2249 -0.1088
 8294TIP3    H146373   3.287   3.034  15.167  2.7502  1.5708  0.3068
 8294TIP3    H246374   3.161   3.113  15.137  2.0567 -0.5338 -2.5755
 8295TIP3   OH246375   6.308   1.883   0.432  0.3804  0.3074  0.5948
 8295TIP3    H146376   6.402   1.879   0.454  0.7450 -1.7912 -1.1345
 8295TIP3    H246377   6.286   1.793   0.406 -2.1201  0.7833  0.9507
 8296TIP3   OH246378   1.193   2.945   5.678  0.4316 -0.5742 -0.1470
 8296TIP3    H146379   1.148   2.863   5.659 -1.6258  0.7420 -1.0872
 8296TIP3    H246380   1.153   2.975   5.760  0.7400 -0.2067 -0.1309
 8297TIP3   OH246381   2.982   0.498  12.847  0.4846 -0.1058  0.2525
 8297TIP3    H146382   3.024   0.570  12.800 -1.1916  1.2925  0.8325
 8297TIP3    H246383   2.919   0.462  12.785 -2.1036  2.0801  1.5205
 8298TIP3   OH246384   3.784   6.292   4.457 -0.3134 -0.9771 -0.0237
 8298TIP3    H146385   3.689   6.300   4.458 -0.1652  2.8453 -2.1342
 8298TIP3    H246386   3.815   6.371   4.501  1.8877 -1.7622 -0.0958
 8299TIP3   OH246387   2.066   5.626   5.216  0.2301 -0.3335 -0.0890
 8299TIP3    H146388   2.013   5.698   5.181  1.3882 -0.6813 -2.7363
 8299TIP3    H246389   2.014   5.548   5.201  0.0265 -0.3071  0.4888
 8300TIP3   OH246390   2.686   4.172   4.837 -0.1688  0.4098  0.5444
 8300TIP3    H146391   2.723   4.089   4.804  0.6469  1.2681 -0.7262
 8300TIP3    H246392   2.719   4.238   4.777 -2.0594  1.4841  0.6784
 8301TIP3   OH246393   6.148   3.114  12.264 -0.0385  0.0010  0.1252
 8301TIP3    H146394   6.110   3.147  12.345  1.3420  0.3629  0.6236
 8301TIP3    H246395   6.217   3.176  12.242 -0.5496  0.0433 -1.4628
 8302TIP3   OH246396   2.772   0.006  16.489 -0.0708 -0.4287  0.0849
 8302TIP3    H146397   2.762   0.032  16.581  0.7359  1.4922 -0.3460
 8302TIP3    H246398   2.867   0.010  16.473 -0.0958 -1.8915 -0.5298
 8303TIP3   OH246399   6.357   4.355  15.719 -0.4100  0.4272 -0.5676
 8303TIP3    H146400   6.305   4.286  15.759 -1.3286  2.1243  1.2751
 8303TIP3    H246401   6.300   4.394  15.652 -1.2620  1.7538  0.8934
 8304TIP3   OH246402   1.965   0.526   5.704 -0.2619 -0.1377 -0.1607
 8304TIP3    H146403   1.870   0.513   5.699 -0.3930  1.2137 -1.3248
 8304TIP3    H246404   1.988   0.572   5.624  0.9844  1.9929  1.3627
 8305TIP3   OH246405   2.791   0.817  13.244  0.0380 -0.1634  0.7205
 8305TIP3    H146406   2.788   0.723  13.261 -0.9051  0.0727  1.9259
 8305TIP3    H246407   2.707   0.837  13.203 -0.5740  0.4899  2.2850
 8306TIP3   OH246408   4.898   0.653  16.826  0.2601  0.3267 -0.8454
 8306TIP3    H146409   4.903   0.580  16.888 -1.0307  0.4465 -0.5922
 8306TIP3    H246410   4.818   0.699  16.849  0.3883  1.0722 -1.8483
 8307TIP3   OH246411   2.984   5.031  13.386  0.1278  0.1351  0.5798
 8307TIP3    H146412   2.905   5.000  13.342  0.0793  0.0914  0.6950
 8307TIP3    H246413   2.985   5.125  13.369  0.8266 -0.0797 -0.6340
 8308TIP3   OH246414   4.052   5.429  11.065  0.0944 -0.2965  0.2889
 8308TIP3    H146415   4.021   5.497  11.005  0.8205  0.1631  0.4227
 8308TIP3    H246416   4.085   5.359  11.008  1.3666  0.4087  0.1317
 8309TIP3   OH246417   2.103   3.259  11.584 -0.5379  0.2264 -0.2902
 8309TIP3    H146418   2.149   3.230  11.505  1.9977  0.4090  1.0760
 8309TIP3    H246419   2.149   3.338  11.610 -2.3409  1.0223  0.5385
 8310TIP3   OH246420   2.046   1.062  11.176 -0.3513  0.3535  0.2108
 8310TIP3    H146421   2.127   1.016  11.151  0.6310  2.2304 -0.1454
 8310TIP3    H246422   1.979   1.025  11.118  0.4687 -0.4647 -0.2333
 8311TIP3   OH246423   1.626   1.542   1.066  0.1483 -0.6713  0.4737
 8311TIP3    H146424   1.676   1.461   1.081 -0.7987 -1.7663 -2.0520
 8311TIP3    H246425   1.544   1.512   1.027 -1.1831  1.3589  1.6435
 8312TIP3   OH246426   3.503   3.202   2.765  0.8917  0.2679  0.3140
 8312TIP3    H146427   3.462   3.173   2.683  1.2837 -0.7933  0.4806
 8312TIP3    H246428   3.446   3.168   2.834 -0.0656  2.1446  0.4719
 8313TIP3   OH246429   1.511   3.115  11.117  0.0187 -0.4929 -0.9165
 8313TIP3    H146430   1.449   3.187  11.113 -1.7068 -1.8820 -0.0219
 8313TIP3    H246431   1.530   3.095  11.025  0.5641  1.1251 -1.1635
 8314TIP3   OH246432   5.513   0.273  12.871 -0.2747 -0.4391  0.0463
 8314TIP3    H146433   5.602   0.238  12.878 -0.5982 -1.0818  1.0576
 8314TIP3    H246434   5.467   0.212  12.812 -0.7817 -1.6249  1.6449
 8315TIP3   OH246435   0.599   4.523   2.716  0.2919 -0.3122  0.3038
 8315TIP3    H146436   0.609   4.612   2.683  1.0899 -0.0393  1.2705
 8315TIP3    H246437   0.663   4.472   2.666 -1.7293 -0.8031 -1.8798
 8316TIP3   OH246438   3.506   0.992   2.318 -0.2889  0.2200  0.0659
 8316TIP3    H146439   3.459   0.909   2.332  3.4805 -1.9427  0.4542
 8316TIP3    H246440   3.463   1.053   2.378 -2.4718 -1.6844  0.5467
 8317TIP3   OH246441   0.615   3.037   5.398  0.1129  0.9839  0.6097
 8317TIP3    H146442   0.612   3.110   5.336 -1.0132  2.0249  1.8620
 8317TIP3    H246443   0.524   3.024   5.425  0.5621  0.3779  1.8649
 8318TIP3   OH246444   0.860   2.486  12.907  0.7287 -0.1448  0.1253
 8318TIP3    H146445   0.837   2.412  12.851 -0.8948  0.1434  0.3828
 8318TIP3    H246446   0.947   2.465  12.940  1.7123 -0.3557 -2.4504
 8319TIP3   OH246447   2.510   3.252   4.987 -0.6104  0.0306 -0.0464
 8319TIP3    H146448   2.559   3.270   4.907 -0.9425 -2.1925 -0.7851
 8319TIP3    H246449   2.457   3.330   5.001 -0.3074  0.5700 -1.8130
 8320TIP3   OH246450   3.095   4.388   2.258 -0.3763  0.2858 -0.3761
 8320TIP3    H146451   3.094   4.420   2.348 -0.0651  2.2152 -1.0298
 8320TIP3    H246452   3.112   4.466   2.205 -0.2673 -0.8702 -2.0879
 8321TIP3   OH246453   6.700   0.689  16.312 -0.0628  0.3344 -0.4549
 8321TIP3    H146454   6.643   0.712  16.385  0.4449  0.1327  0.0007
 8321TIP3    H246455   6.729   0.600  16.331 -0.6159 -0.0464 -1.3360
 8322TIP3   OH246456   4.126   2.985   2.070  0.3919 -0.2957  0.4032
 8322TIP3    H146457   4.146   2.892   2.065  1.9112  0.0348  0.2494
 8322TIP3    H246458   4.069   3.002   1.995  0.2802 -1.0555  0.3169
 8323TIP3   OH246459   2.065   0.029  14.831  0.4797  0.1559 -0.3114
 8323TIP3    H146460   2.140   0.072  14.872  0.1622  2.5268 -2.1408
 8323TIP3    H246461   1.991   0.052  14.888  0.8268 -0.7061  0.5053
 8324TIP3   OH246462   0.836   1.447   5.962 -0.3127 -0.5897  0.2135
 8324TIP3    H146463   0.827   1.362   6.004 -0.3897 -1.5792 -1.7325
 8324TIP3    H246464   0.930   1.458   5.949 -0.2559 -0.0910  1.0022
 8325TIP3   OH246465   5.785   1.049  15.807  0.2871  0.2485  0.1951
 8325TIP3    H146466   5.721   1.115  15.833  0.2199  0.6808 -1.0532
 8325TIP3    H246467   5.740   0.994  15.743  0.5354 -0.6640  0.7816
 8326TIP3   OH246468   2.722   2.943  10.322 -0.2826  0.0953  0.2840
 8326TIP3    H146469   2.669   2.982  10.252  0.7179 -2.0523 -1.7429
 8326TIP3    H246470   2.784   2.886  10.276  0.8677 -0.8365  2.8977
 8327TIP3   OH246471   1.566   0.086   3.220 -0.0015  0.3228 -0.3276
 8327TIP3    H146472   1.473   0.105   3.206 -0.3473 -0.7618  0.3562
 8327TIP3    H246473   1.587   0.020   3.154  0.5483  1.3103 -1.1348
 8328TIP3   OH246474   3.890   4.121  12.489  0.2465 -0.3212  0.0522
 8328TIP3    H146475   3.888   4.209  12.452 -0.1577  0.5593  2.1033
 8328TIP3    H246476   3.959   4.076  12.440 -0.4999  0.6963 -1.9676
 8329TIP3   OH246477   0.999   2.038   0.977 -0.7419 -0.6525 -0.5889
 8329TIP3    H146478   0.931   2.087   1.024  0.4067 -0.9257  1.4052
 8329TIP3    H246479   0.978   1.946   0.994  1.0682 -0.7297  1.4975
 8330TIP3   OH246480   5.905   3.050   6.085 -0.8556  0.5673  0.3480
 8330TIP3    H146481   5.839   2.998   6.039 -0.7566  1.2851 -0.6194
 8330TIP3    H246482   5.877   3.141   6.073  0.5439  0.9149 -0.4847
 8331TIP3   OH246483   0.661   1.737   1.392 -0.6194  0.2744 -0.1657
 8331TIP3    H146484   0.634   1.792   1.465  0.7785  0.6032  0.1163
 8331TIP3    H246485   0.693   1.798   1.326 -0.4656 -0.1127 -0.4544
 8332TIP3   OH246486   1.441   2.597   2.689 -0.1357 -0.4117  0.0787
 8332TIP3    H146487   1.468   2.606   2.781  0.9433 -0.0812 -0.2714
 8332TIP3    H246488   1.365   2.655   2.681  1.4533  1.7184  0.0721
 8333TIP3   OH246489   5.553   0.293   5.325 -0.3587 -0.4004 -0.2267
 8333TIP3    H146490   5.561   0.236   5.401 -1.0832  1.5575  1.3740
 8333TIP3    H246491   5.516   0.237   5.256  1.4151 -2.4942  0.4802
 8334TIP3   OH246492   1.661   2.988  16.958 -0.0619  0.2128 -0.1246
 8334TIP3    H146493   1.694   3.011  16.871  0.5591 -0.6104 -0.1192
 8334TIP3    H246494   1.627   2.899  16.948 -1.6469  0.7685  0.0465
 8335TIP3   OH246495   5.251   0.937   0.481 -0.3626  0.4783 -0.3882
 8335TIP3    H146496   5.184   0.872   0.502 -0.9816  1.5723  1.0548
 8335TIP3    H246497   5.286   0.965   0.565  1.1700  0.7131 -1.0807
 8336TIP3   OH246498   0.175   3.903  17.109 -0.4844 -0.3005  0.2337
 8336TIP3    H146499   0.236   3.935  17.175 -0.2849  2.0903 -1.0280
 8336TIP3    H246500   0.114   3.848  17.157 -0.6711  1.8154  2.5131
 8337TIP3   OH246501   6.500   0.013   1.643 -0.7121 -0.3153  0.5944
 8337TIP3    H146502   6.477   0.085   1.702 -1.1538  0.1254 -0.1178
 8337TIP3    H246503   6.556   0.052   1.577  0.0214 -0.8754  0.8831
 8338TIP3   OH246504   6.727   4.940   2.147 -0.0934  0.6595 -0.4098
 8338TIP3    H146505   6.780   5.020   2.149 -1.3148  1.5338 -1.4589
 8338TIP3    H246506   6.738   4.901   2.233  0.3719  2.0805  0.1917
 8339TIP3   OH246507   6.758   2.068  12.278  0.0354 -0.3207 -0.6021
 8339TIP3    H146508   6.728   2.031  12.361 -2.4699  1.4512 -0.6411
 8339TIP3    H246509   6.736   2.001  12.213 -2.7487  0.3563 -0.4398
 8340TIP3   OH246510   6.328   5.432  14.108 -0.1863  0.8475  0.5566
 8340TIP3    H146511   6.373   5.347  14.113 -0.7900  0.6134  2.4128
 8340TIP3    H246512   6.395   5.496  14.134 -0.1075  0.7955  0.4832
 8341TIP3   OH246513   5.280   6.415   3.814 -0.4134 -0.2731 -0.2008
 8341TIP3    H146514   5.229   6.483   3.770  0.5044  0.6624  0.1817
 8341TIP3    H246515   5.222   6.383   3.884 -0.3807  0.9932  0.4219
 8342TIP3   OH246516   4.602   1.594   3.350  0.3917 -0.1375 -0.5061
 8342TIP3    H146517   4.574   1.507   3.375  0.4217 -0.0269 -0.0820
 8342TIP3    H246518   4.697   1.586   3.339  0.2753 -0.3914 -1.4500
 8343TIP3   OH246519   5.940   6.645  15.861 -0.0032  0.1793 -0.2005
 8343TIP3    H146520   5.925   6.729  15.817 -1.5031  0.4813  0.8340
 8343TIP3    H246521   5.861   6.594  15.842 -0.3074  0.0239  1.4703
 8344TIP3   OH246522   1.985   6.152  11.106  0.5623 -0.0938 -0.3506
 8344TIP3    H146523   1.897   6.191  11.105  1.1357  1.2085 -0.3194
 8344TIP3    H246524   2.020   6.172  11.019  0.3658 -1.7150 -0.8312
 8345TIP3   OH246525   5.811   5.908  15.295 -0.3769  0.1229 -0.0873
 8345TIP3    H146526   5.762   5.989  15.311 -0.5506 -0.0577  0.3069
 8345TIP3    H246527   5.745   5.839  15.299 -0.2961 -0.0035 -0.8127
 8346TIP3   OH246528   3.990   2.860  15.421 -0.0257 -0.0965  0.0116
 8346TIP3    H146529   3.921   2.794  15.412  1.6390 -1.7797 -0.8582
 8346TIP3    H246530   4.054   2.837  15.353  1.3982  1.4200  0.7940
 8347TIP3   OH246531   1.090   2.737   3.884 -0.1487  0.0636  0.0908
 8347TIP3    H146532   1.111   2.651   3.920 -2.0814 -0.1167  0.8502
 8347TIP3    H246533   1.175   2.774   3.860  0.7320 -1.9663 -0.0716
 8348TIP3   OH246534   4.983   2.489   4.983  0.2783 -0.1924  0.1398
 8348TIP3    H146535   4.898   2.450   4.964  1.4752 -2.5985 -0.6205
 8348TIP3    H246536   5.044   2.442   4.926  1.9749  2.2340 -0.1464
 8349TIP3   OH246537   0.226   0.321  16.445  0.1927 -0.0883  0.4410
 8349TIP3    H146538   0.320   0.305  16.447  0.4290  1.2609  0.4035
 8349TIP3    H246539   0.216   0.412  16.473 -1.1027 -0.2195  0.4511
 8350TIP3   OH246540   3.390   6.174   3.606  0.1986 -0.3652 -0.3417
 8350TIP3    H146541   3.324   6.107   3.621 -0.6397  0.2862 -1.0225
 8350TIP3    H246542   3.343   6.257   3.617  1.2954  0.1100  0.8066
 8351TIP3   OH246543   0.837   1.854  13.677 -0.6736 -0.0251 -0.2555
 8351TIP3    H146544   0.747   1.831  13.702  0.2430 -3.0022  0.6180
 8351TIP3    H246545   0.871   1.774  13.635  2.1707  0.3492  1.2040
 8352TIP3   OH246546   6.736   3.354   6.035  0.8295 -0.0783  0.4482
 8352TIP3    H146547   6.715   3.265   6.062 -1.5208  0.7678  1.5406
 8352TIP3    H246548   6.752   3.401   6.117 -1.1982  1.2598  0.1039
 8353TIP3   OH246549   4.969   6.627  13.922 -0.0142 -0.3579  0.9041
 8353TIP3    H146550   4.987   6.659  14.011 -1.0794  0.2993  0.9032
 8353TIP3    H246551   4.875   6.609  13.922 -0.6793  2.7120 -1.0031
 8354TIP3   OH246552   3.220   2.165  15.629  0.1091 -0.5947  0.1955
 8354TIP3    H146553   3.278   2.124  15.693 -0.8657 -1.2830  0.6429
 8354TIP3    H246554   3.149   2.103  15.617 -1.7225  1.2343  1.3557
 8355TIP3   OH246555   6.650   1.490  17.103 -0.0017  0.0083  0.0317
 8355TIP3    H146556   6.606   1.437  17.036  0.6568  0.9915 -1.2099
 8355TIP3    H246557   6.654   1.578  17.065  0.6106  0.5266  1.2664
 8356TIP3   OH246558   4.512   1.201  13.180 -0.1666 -0.1482 -0.1517
 8356TIP3    H146559   4.596   1.160  13.203  0.0965  0.8117  0.6423
 8356TIP3    H246560   4.532   1.294  13.174 -1.3068  0.1579  0.6448
 8357TIP3   OH246561   5.874   1.956  15.866  0.0258  0.9428 -0.0244
 8357TIP3    H146562   5.969   1.956  15.857 -0.0844 -0.1410 -1.4351
 8357TIP3    H246563   5.842   1.939  15.777 -1.4602  0.3391  0.6151
 8358TIP3   OH246564   4.358   0.165  11.551  0.0845 -0.3867 -0.1550
 8358TIP3    H146565   4.357   0.260  11.543 -2.2362 -0.2342  1.3636
 8358TIP3    H246566   4.406   0.149  11.633 -0.6774 -0.4367  0.2868
 8359TIP3   OH246567   2.706   1.752   2.633  0.4838 -0.2668 -0.0183
 8359TIP3    H146568   2.691   1.765   2.727 -1.9059  0.5258 -0.4632
 8359TIP3    H246569   2.732   1.838   2.601  0.7859 -0.4133 -0.1626
 8360TIP3   OH246570   5.546   2.109  16.012 -0.0774 -0.3664 -0.4628
 8360TIP3    H146571   5.619   2.072  16.061 -1.1308 -0.4526  1.0938
 8360TIP3    H246572   5.526   2.191  16.059 -2.0818 -1.2089  0.1830
 8361TIP3   OH246573   4.920   0.172  14.198 -0.3340 -0.3398 -0.4579
 8361TIP3    H146574   4.886   0.162  14.287 -1.6588 -0.0618 -0.9252
 8361TIP3    H246575   4.941   0.265  14.191 -0.5498 -0.2981 -0.5498
 8362TIP3   OH246576   6.557   3.610  11.739 -0.1746  0.0227 -0.4675
 8362TIP3    H146577   6.483   3.656  11.700  0.0209  0.0721 -0.7756
 8362TIP3    H246578   6.632   3.631  11.684  0.0583 -0.0860 -0.1984
 8363TIP3   OH246579   5.230   3.728   6.125  0.4447 -0.4559  0.4840
 8363TIP3    H146580   5.274   3.810   6.149  1.0642 -0.5776 -0.2019
 8363TIP3    H246581   5.143   3.755   6.096  1.3409  0.2068 -1.7485
 8364TIP3   OH246582   1.699   1.357  13.408 -0.2524 -0.2988  0.2226
 8364TIP3    H146583   1.689   1.398  13.322  1.4606 -2.0220 -0.8176
 8364TIP3    H246584   1.784   1.387  13.440  0.7277 -2.4481 -0.2623
 8365TIP3   OH246585   1.928   6.446  14.913  0.1948  0.1604 -0.8320
 8365TIP3    H146586   1.864   6.509  14.880  1.4763  1.6190 -0.6243
 8365TIP3    H246587   1.881   6.398  14.981 -1.7212 -1.2181 -3.0546
 8366TIP3   OH246588   2.190   2.184   2.484  0.3217 -0.1497  0.3200
 8366TIP3    H146589   2.218   2.170   2.574 -1.0327  0.6370  0.8839
 8366TIP3    H246590   2.205   2.278   2.468  2.5469 -0.7101 -0.9897
 8367TIP3   OH246591   1.251   4.187  16.754  0.1866 -0.6002 -0.5549
 8367TIP3    H146592   1.238   4.117  16.817  0.0791  0.6637  0.8630
 8367TIP3    H246593   1.222   4.150  16.671 -1.4013 -1.6944  0.4521
 8368TIP3   OH246594   4.481   2.572  13.288  0.4619  0.1801  0.4840
 8368TIP3    H146595   4.476   2.666  13.307 -0.8883 -0.2569  2.3970
 8368TIP3    H246596   4.470   2.566  13.193 -2.1839  1.7678  0.6485
 8369TIP3   OH246597   1.568   0.717   1.429 -0.1327 -0.0751 -0.0094
 8369TIP3    H146598   1.616   0.797   1.412  0.4601 -0.3629  0.2936
 8369TIP3    H246599   1.479   0.735   1.399 -0.0145  0.7122  0.1144
 8370TIP3   OH246600   3.765   1.913  13.426 -0.3953 -0.6303 -0.1152
 8370TIP3    H146601   3.685   1.951  13.389 -0.6056 -1.3176 -0.3747
 8370TIP3    H246602   3.733   1.853  13.494 -0.0257  0.4081  0.9885
 8371TIP3   OH246603   0.011   6.527  11.867 -0.7013  0.1750 -0.5702
 8371TIP3    H146604   0.102   6.498  11.866 -0.3830  1.0640  1.0591
 8371TIP3    H246605  -0.040   6.448  11.849  0.3235 -0.6145 -0.0090
 8372TIP3   OH246606   2.162   6.537  14.901  0.0891  0.3438 -0.3307
 8372TIP3    H146607   2.070   6.516  14.884  0.2796  0.0069 -0.9767
 8372TIP3    H246608   2.164   6.633  14.905 -0.3689  0.3351  0.1680
 8373TIP3   OH246609   0.910   4.244   4.325 -0.1583  0.4102 -0.6853
 8373TIP3    H146610   0.896   4.266   4.233 -0.9855  3.7248  0.1719
 8373TIP3    H246611   1.000   4.271   4.343  0.6611 -1.9690 -0.9291
 8374TIP3   OH246612   6.008   2.943  13.613 -0.2938 -0.1512  0.1996
 8374TIP3    H146613   6.046   2.929  13.526 -1.2902  2.7071 -0.7476
 8374TIP3    H246614   5.929   2.889  13.614 -1.4373  1.4230 -1.5245
 8375TIP3   OH246615   0.438   2.154  16.252  0.1184 -0.1859  0.2118
 8375TIP3    H146616   0.387   2.125  16.328  0.0225  2.2543  1.1322
 8375TIP3    H246617   0.472   2.240  16.277  2.7732 -0.7292 -1.2976
 8376TIP3   OH246618   4.611   4.071  16.105 -0.3336  0.1188  0.4168
 8376TIP3    H146619   4.650   3.997  16.149  3.5761  2.0892  0.4791
 8376TIP3    H246620   4.591   4.039  16.017 -1.0034 -1.6288  1.1752
 8377TIP3   OH246621   4.858   1.554   5.089 -0.5156  0.3075  0.1469
 8377TIP3    H146622   4.806   1.629   5.115 -1.3316  0.0814 -0.8195
 8377TIP3    H246623   4.866   1.562   4.994  1.1506  0.3041  0.2638
 8378TIP3   OH246624   6.819   0.750  14.264  0.2239 -0.4679  0.1984
 8378TIP3    H146625   6.780   0.663  14.276 -2.1875  0.2635 -1.9224
 8378TIP3    H246626   6.793   0.799  14.342  0.6262 -1.2814  0.8564
 8379TIP3   OH246627   5.163   2.783  14.236  0.2517 -0.2650 -0.2620
 8379TIP3    H146628   5.194   2.745  14.319 -0.6637 -2.0347 -0.7011
 8379TIP3    H246629   5.200   2.725  14.169 -3.2074 -1.9187 -0.8385
 8380TIP3   OH246630   2.249   4.979   1.158 -0.3630  0.4224  0.1361
 8380TIP3    H146631   2.220   4.901   1.206 -2.6759  0.9798 -0.3002
 8380TIP3    H246632   2.270   5.043   1.226  1.7007 -0.5999  0.5008
 8381TIP3   OH246633   0.483   6.740  16.467  0.4244  0.6388 -0.1274
 8381TIP3    H146634   0.411   6.774  16.414 -0.0738  0.2428  0.2776
 8381TIP3    H246635   0.479   6.645  16.454 -0.3453  0.4477  1.4069
 8382TIP3   OH246636   5.073   4.171   5.934  0.1736  0.7394  0.1241
 8382TIP3    H146637   5.007   4.109   5.905  0.2800  1.2132 -1.1543
 8382TIP3    H246638   5.023   4.241   5.977 -0.2117  1.3990 -1.3806
 8383TIP3   OH246639   0.823   0.791   0.183  0.0898 -0.0167 -0.7705
 8383TIP3    H146640   0.887   0.720   0.196  0.1454  0.3361  1.0704
 8383TIP3    H246641   0.831   0.844   0.262 -1.5551  0.7790 -1.1313
 8384TIP3   OH246642   2.914   3.065   5.059 -0.2262  0.7242 -0.6845
 8384TIP3    H146643   3.008   3.083   5.053 -0.3510  2.3836  1.7150
 8384TIP3    H246644   2.873   3.136   5.010 -0.2762  0.0370 -1.6728
 8385TIP3   OH246645   5.375   0.183  14.337 -0.2050 -0.1415  0.1657
 8385TIP3    H146646   5.380   0.091  14.313 -0.1634 -0.3501  0.9533
 8385TIP3    H246647   5.459   0.201  14.381  0.1845  0.5166 -0.8246
 8386TIP3   OH246648   2.689   2.627  14.994  0.1267 -0.3587 -0.0111
 8386TIP3    H146649   2.754   2.568  14.956 -0.8752 -1.4118 -0.1192
 8386TIP3    H246650   2.626   2.642  14.923  0.1008  0.4399  0.1755
 8387TIP3   OH246651   4.884   6.384  14.393 -0.3192  0.0545  0.4112
 8387TIP3    H146652   4.860   6.380  14.486 -0.8294  0.2968  0.2937
 8387TIP3    H246653   4.813   6.337  14.349 -0.6382  0.8812  0.0415
 8388TIP3   OH246654   1.374   1.327  14.367 -0.6705 -0.6602 -0.3752
 8388TIP3    H146655   1.403   1.368  14.449 -0.7028 -0.7667 -0.3103
 8388TIP3    H246656   1.437   1.256  14.353 -3.6661 -4.0612  2.3296
 8389TIP3   OH246657   4.166   6.795   0.257 -0.1895 -0.9448  0.5088
 8389TIP3    H146658   4.179   6.714   0.305 -0.8642 -0.6749  1.1638
 8389TIP3    H246659   4.114   6.850   0.316 -0.6932 -0.4596 -0.3681
 8390TIP3   OH246660   1.965   0.641   2.479 -0.3400  0.2390 -0.3634
 8390TIP3    H146661   1.928   0.690   2.405 -3.2717 -1.4947 -0.1315
 8390TIP3    H246662   1.993   0.709   2.540  0.3249  1.6704 -2.1951
 8391TIP3   OH246663   3.971   6.651  11.573 -0.3023  0.5465  0.3182
 8391TIP3    H146664   4.040   6.716  11.556  0.2374  0.1709  1.0717
 8391TIP3    H246665   3.891   6.704  11.583 -0.1548  0.9735 -0.6544
 8392TIP3   OH246666   5.504   1.796  13.142  0.0054  0.3032  0.1717
 8392TIP3    H146667   5.466   1.878  13.172  1.2011  0.9979 -0.1570
 8392TIP3    H246668   5.597   1.804  13.162  0.0572 -1.1737  0.5686
 8393TIP3   OH246669   5.469   0.703   0.407 -0.1338  0.1519 -0.3622
 8393TIP3    H146670   5.402   0.664   0.463  1.2694 -0.0199  1.2283
 8393TIP3    H246671   5.429   0.783   0.374 -0.5848  0.8636  1.8302
 8394TIP3   OH246672   0.414   2.444  16.156 -0.1526  0.7180  0.5351
 8394TIP3    H146673   0.348   2.442  16.226 -1.3159 -2.8231 -0.5697
 8394TIP3    H246674   0.364   2.461  16.076  0.0838 -2.5588 -0.3942
 8395TIP3   OH246675   2.454   5.585  11.867  0.2254 -0.3248  0.1127
 8395TIP3    H146676   2.516   5.655  11.889  0.0418 -0.6078  1.5787
 8395TIP3    H246677   2.389   5.588  11.937 -0.3505 -1.3029 -0.3704
 8396TIP3   OH246678   2.346   5.196   1.682  0.0073  0.2915 -0.6444
 8396TIP3    H146679   2.367   5.276   1.635 -0.1070  1.1049  0.6744
 8396TIP3    H246680   2.423   5.179   1.737 -0.0655 -0.3775 -0.7408
 8397TIP3   OH246681   5.128   1.000  11.706  0.4419  0.2627  0.0044
 8397TIP3    H146682   5.130   0.970  11.797 -2.0086  1.6568  0.5695
 8397TIP3    H246683   5.211   1.045  11.694  0.9199 -0.1874  1.4653
 8398TIP3   OH246684   4.837   3.454   2.205  0.0405 -0.2900  0.3565
 8398TIP3    H146685   4.787   3.475   2.126  0.8390 -0.5865 -0.2284
 8398TIP3    H246686   4.785   3.387   2.249 -1.6951  1.6665  1.3907
 8399TIP3   OH246687   1.463   4.385  16.119 -0.0117  0.0741  0.0999
 8399TIP3    H146688   1.435   4.407  16.208  1.2024  0.9999  0.2743
 8399TIP3    H246689   1.469   4.290  16.119 -0.7929  0.0104  0.7678
 8400TIP3   OH246690   2.948   1.762   5.714  0.2980  0.2487  0.7517
 8400TIP3    H146691   2.866   1.731   5.675  0.6502  1.7570 -1.3082
 8400TIP3    H246692   2.938   1.857   5.719  1.3660  0.3208  1.8084
 8401TIP3   OH246693   6.281   1.576   0.411 -0.1317  0.6612  0.1757
 8401TIP3    H146694   6.332   1.522   0.349 -0.4063  0.2430  0.3085
 8401TIP3    H246695   6.200   1.527   0.424 -0.1748  0.8643  0.6886
 8402TIP3   OH246696   1.538   0.934   1.160 -0.2100  0.1269  0.7120
 8402TIP3    H146697   1.620   0.913   1.116 -0.3782 -0.0896  0.4932
 8402TIP3    H246698   1.486   0.854   1.152  0.6912 -0.8160  3.4824
 8403TIP3   OH246699   4.240   5.059   0.202  0.2247 -0.1092 -0.7572
 8403TIP3    H146700   4.239   5.088   0.293  0.1265  0.9305 -1.0922
 8403TIP3    H246701   4.197   4.973   0.204  0.9106 -0.4348  0.2883
 8404TIP3   OH246702   0.417   5.908  15.944  0.1381  0.2074 -0.1208
 8404TIP3    H146703   0.356   5.904  16.018 -0.3009 -1.1110 -0.5306
 8404TIP3    H246704   0.398   5.829  15.893  0.6345  0.9383 -1.4861
 8405TIP3   OH246705   0.393   5.216   5.007 -0.3834 -0.5347 -0.2154
 8405TIP3    H146706   0.318   5.157   5.013 -0.6090 -0.5034 -2.1913
 8405TIP3    H246707   0.363   5.287   4.951  0.9951 -0.3373 -0.7255
 8406TIP3   OH246708   6.587   6.782  13.978 -0.5598  0.1711 -0.0518
 8406TIP3    H146709   6.621   6.807  13.892 -2.0840  0.2688 -0.6396
 8406TIP3    H246710   6.633   6.839  14.039 -0.6931  1.2726 -0.9561
 8407TIP3   OH246711   3.360   6.437   0.778  0.1901  0.5152  0.1397
 8407TIP3    H146712   3.313   6.386   0.711  0.6749 -1.0236  0.9400
 8407TIP3    H246713   3.342   6.391   0.860  1.0827  1.3368  0.8074
 8408TIP3   OH246714   2.175   5.128  11.450  0.1517  0.0644  0.1473
 8408TIP3    H146715   2.175   5.106  11.357 -1.1640 -3.2579  0.8472
 8408TIP3    H246716   2.259   5.172  11.465  0.8952 -0.4293 -2.3264
 8409TIP3   OH246717   6.757   0.562  15.659 -0.2737 -0.1130 -0.0870
 8409TIP3    H146718   6.676   0.526  15.695 -0.2517 -0.2344 -0.1576
 8409TIP3    H246719   6.744   0.657  15.661  0.3433 -0.0512  1.7069
 8410TIP3   OH246720   1.721   2.249  13.596 -0.3974  0.3056 -0.2450
 8410TIP3    H146721   1.681   2.162  13.597 -0.0002  0.1225 -0.5339
 8410TIP3    H246722   1.711   2.279  13.506  0.2839  0.1898 -0.3542
 8411TIP3   OH246723   4.781   2.484  15.495 -0.0902 -0.4118  0.0265
 8411TIP3    H146724   4.812   2.411  15.547 -0.8671 -0.1219  0.9226
 8411TIP3    H246725   4.686   2.472  15.491 -0.1677  0.2449 -0.2650
 8412TIP3   OH246726   0.246   1.394  14.755  0.8177 -0.2330  0.3319
 8412TIP3    H146727   0.302   1.397  14.677  1.7467 -1.3475  0.9308
 8412TIP3    H246728   0.277   1.466  14.810  0.3880  0.3404 -0.1700
 8413TIP3   OH246729   0.815   0.667   0.757 -0.0370 -0.3199 -0.3795
 8413TIP3    H146730   0.802   0.672   0.851  0.5671 -2.5913 -0.1645
 8413TIP3    H246731   0.729   0.646   0.721  0.3675 -2.6122 -0.0492
 8414TIP3   OH246732   4.953   3.754   5.068 -0.4338 -0.0591 -0.4483
 8414TIP3    H146733   4.934   3.810   5.143 -2.6676  1.6470 -2.2417
 8414TIP3    H246734   5.039   3.783   5.037  0.7643 -1.1606  1.7590
 8415TIP3   OH246735   6.679   3.804  15.181 -0.3640 -0.0407  0.3516
 8415TIP3    H146736   6.593   3.845  15.169 -0.1986  0.3417  0.4871
 8415TIP3    H246737   6.707   3.783  15.093 -0.0079  1.0337  0.2007
 8416TIP3   OH246738   4.510   4.991  14.297 -0.5105 -0.0263 -0.0580
 8416TIP3    H146739   4.431   4.999  14.350 -1.0587 -2.5639 -0.4043
 8416TIP3    H246740   4.565   4.931  14.347  1.8849  2.8630  0.9150
 8417TIP3   OH246741   5.437   6.806  14.178  0.1671  0.5474  0.6347
 8417TIP3    H146742   5.401   6.718  14.183 -0.6342  0.8825  0.7030
 8417TIP3    H246743   5.532   6.793  14.176  0.0819 -0.2702  1.7049
 8418TIP3   OH246744   5.234   5.298   2.375  0.0371  0.2696  0.0128
 8418TIP3    H146745   5.252   5.291   2.469  3.0778  0.8198 -0.4862
 8418TIP3    H246746   5.220   5.392   2.361 -1.6519  0.0417  0.1073
 8419TIP3   OH246747   1.459   3.654   0.223  0.0641 -0.4987 -0.6275
 8419TIP3    H146748   1.548   3.619   0.221 -0.1465 -1.0090 -0.9603
 8419TIP3    H246749   1.469   3.746   0.197  0.6005 -0.3287  0.1805
 8420TIP3   OH246750   1.129   4.998   2.710  0.6687  0.1054  0.1276
 8420TIP3    H146751   1.140   4.932   2.779 -1.2641 -0.0419  0.3058
 8420TIP3    H246752   1.172   4.959   2.634  0.6718 -0.8043  0.5861
 8421TIP3   OH246753   4.175   6.040  11.833 -0.0665 -0.8362 -0.4253
 8421TIP3    H146754   4.090   6.084  11.832  1.3101  1.9698 -1.9231
 8421TIP3    H246755   4.205   6.044  11.742  2.3097 -0.3965  0.3183
 8422TIP3   OH246756   4.948   3.143  11.502  0.3798 -0.4680 -0.5964
 8422TIP3    H146757   4.952   3.221  11.446  0.3862  1.0824  1.5133
 8422TIP3    H246758   5.022   3.154  11.562 -1.4003 -0.5650  1.6688
 8423TIP3   OH246759   4.759   6.474   3.356  0.3749 -0.4440  0.0351
 8423TIP3    H146760   4.671   6.504   3.331  0.6661  0.2440 -0.1822
 8423TIP3    H246761   4.799   6.446   3.274  0.0821 -1.5162  0.2457
 8424TIP3   OH246762   2.437   6.237   3.625 -0.2387 -0.0589  0.9561
 8424TIP3    H146763   2.456   6.193   3.541 -1.9333  1.0051 -0.0117
 8424TIP3    H246764   2.511   6.213   3.681 -1.1520 -4.3135  0.5413
 8425TIP3   OH246765   4.617   0.684  13.725 -0.6621 -0.6708  0.6384
 8425TIP3    H146766   4.556   0.666  13.653  0.2893  3.1965 -1.2282
 8425TIP3    H246767   4.561   0.708  13.799 -1.5108  1.3367 -0.6199
 8426TIP3   OH246768   0.618   5.081  14.256 -0.4892 -0.6155  0.0214
 8426TIP3    H146769   0.563   5.028  14.313 -0.4585 -0.0288  0.6006
 8426TIP3    H246770   0.574   5.079  14.171  0.0856 -2.4727 -0.2589
 8427TIP3   OH246771   1.021   2.473   1.847 -0.3948 -0.2632  0.3376
 8427TIP3    H146772   1.097   2.463   1.789  1.0410  0.2636  2.0835
 8427TIP3    H246773   1.012   2.567   1.859 -0.5991 -0.3750  1.0668
 8428TIP3   OH246774   0.908   5.658  10.769 -0.0309  0.3636 -0.2195
 8428TIP3    H146775   0.986   5.714  10.766 -0.1834  0.5962  0.1677
 8428TIP3    H246776   0.877   5.656  10.678  0.7157 -0.1409 -0.4741
 8429TIP3   OH246777   5.906   0.483   3.008 -0.1477  0.2590  0.1359
 8429TIP3    H146778   5.856   0.518   2.935 -1.7294 -1.2400  0.4688
 8429TIP3    H246779   5.965   0.418   2.969  0.6342  1.0859 -0.0823
 8430TIP3   OH246780   2.021   3.059   5.264  0.3351  0.2223 -0.2962
 8430TIP3    H146781   1.943   3.005   5.279 -0.0169  0.2815 -1.9044
 8430TIP3    H246782   2.093   2.996   5.258 -0.0592 -0.0620 -2.0634
 8431TIP3   OH246783   5.075   6.044   0.684 -0.2519  0.0350  0.1157
 8431TIP3    H146784   5.155   6.096   0.688  0.7984 -1.6290  0.8094
 8431TIP3    H246785   5.026   6.071   0.762  0.6701 -0.6108  0.9269
 8432TIP3   OH246786   5.909   4.633   1.155  0.3677  0.0585 -0.6884
 8432TIP3    H146787   5.920   4.637   1.250 -0.6577  1.5021 -0.6089
 8432TIP3    H246788   5.815   4.622   1.142  0.6318 -1.3405 -1.5261
 8433TIP3   OH246789   3.732   5.594  11.607  0.2343  0.2475  0.5574
 8433TIP3    H146790   3.645   5.595  11.566  0.1579  0.9896  0.7350
 8433TIP3    H246791   3.792   5.617  11.537  0.3529 -0.8997  0.2848
 8434TIP3   OH246792   6.656   0.986   1.468  0.3073  0.1469 -0.2297
 8434TIP3    H146793   6.643   0.983   1.563  1.0985 -0.8514 -0.1560
 8434TIP3    H246794   6.607   0.911   1.435  0.6295  0.0726 -0.5401
 8435TIP3   OH246795   1.250   2.314  14.043  0.1166 -0.0627  0.4126
 8435TIP3    H146796   1.269   2.225  14.014 -0.1148  0.8850 -2.7765
 8435TIP3    H246797   1.336   2.355  14.053  0.2257 -0.6406  1.9636
 8436TIP3   OH246798   3.763   3.811   3.324 -0.0799  0.0056  0.0884
 8436TIP3    H146799   3.784   3.728   3.367 -0.0902  0.1544  0.3798
 8436TIP3    H246800   3.721   3.785   3.242  1.3665 -0.2963 -0.5762
 8437TIP3   OH246801   4.350   1.028  13.017 -0.1739 -0.1278  0.4022
 8437TIP3    H146802   4.270   1.059  13.060 -0.4978 -0.7321  0.2408
 8437TIP3    H246803   4.419   1.086  13.049 -0.8217  0.9388 -0.1209
 8438TIP3   OH246804   4.150   4.184   0.312 -0.4351 -0.0507  0.5100
 8438TIP3    H146805   4.132   4.105   0.260 -1.5292 -0.0012  0.8054
 8438TIP3    H246806   4.139   4.256   0.251 -1.8229  0.0142  0.8117
 8439TIP3   OH246807   6.400   4.258   6.010  0.1251 -0.0231 -0.1464
 8439TIP3    H146808   6.397   4.274   5.916  1.4615 -0.9283 -0.3577
 8439TIP3    H246809   6.385   4.344   6.049  1.6767  0.7657 -1.2141
 8440TIP3   OH246810   6.761   4.475  11.872  0.2635  0.5626  0.1750
 8440TIP3    H146811   6.671   4.481  11.839  0.5116 -4.4605 -1.8860
 8440TIP3    H246812   6.751   4.452  11.964 -0.6810 -2.7175 -0.6866
 8441TIP3   OH246813   5.969   3.861  12.349  0.0843  0.5487  0.1739
 8441TIP3    H146814   5.982   3.916  12.426  1.2474  0.7753 -0.1613
 8441TIP3    H246815   5.925   3.782  12.382 -0.9677  1.3791  0.7646
 8442TIP3   OH246816   5.206   4.438  12.038 -0.2507 -0.4617  0.0769
 8442TIP3    H146817   5.139   4.424  12.105  0.7728 -1.4845  0.9268
 8442TIP3    H246818   5.201   4.359  11.983 -0.6823  0.1027 -0.7017
 8443TIP3   OH246819   1.058   1.854  13.899 -0.2652 -0.2338 -0.1051
 8443TIP3    H146820   1.033   1.877  13.809 -0.2732  0.8259  0.1564
 8443TIP3    H246821   1.107   1.931  13.930 -1.2307 -0.1303  1.1808
 8444TIP3   OH246822   4.241   1.019  16.433 -0.4466 -0.1651 -0.6262
 8444TIP3    H146823   4.300   1.057  16.367 -0.0250  1.2757  0.5545
 8444TIP3    H246824   4.197   0.948  16.387 -0.6115  1.1936 -2.6558
 8445TIP3   OH246825   3.530   1.759   1.533  0.5452  0.7911  0.2480
 8445TIP3    H146826   3.578   1.840   1.550  0.9331  0.3980  1.0834
 8445TIP3    H246827   3.581   1.714   1.466  1.7280  0.0720  1.5953
 8446TIP3   OH246828   3.516   0.848  16.661 -0.5483  0.1075 -0.1701
 8446TIP3    H146829   3.562   0.802  16.591 -2.3211 -0.9886 -0.6677
 8446TIP3    H246830   3.556   0.818  16.742  0.6946  0.4306 -0.6642
 8447TIP3   OH246831   3.051   5.868  14.426  0.0775 -0.2168  0.5518
 8447TIP3    H146832   2.967   5.908  14.404  0.6764  0.6805 -0.1978
 8447TIP3    H246833   3.064   5.888  14.519  1.0662  2.7322 -0.1628
 8448TIP3   OH246834   4.025   0.442   3.747  0.0059  0.4073 -0.1894
 8448TIP3    H146835   4.074   0.367   3.715  0.9345 -0.1047  2.3095
 8448TIP3    H246836   3.934   0.424   3.722  0.4647 -0.7576 -1.0373
 8449TIP3   OH246837   6.017   2.149   4.522 -0.2832 -0.7608 -0.1167
 8449TIP3    H146838   6.009   2.142   4.427 -2.4102  1.3474 -0.1148
 8449TIP3    H246839   5.933   2.119   4.556 -0.0644 -0.0878  1.0445
 8450TIP3   OH246840   4.498   5.823  14.352  0.0696 -0.0619  0.1930
 8450TIP3    H146841   4.537   5.834  14.265 -0.5404  1.0437  0.0447
 8450TIP3    H246842   4.560   5.767  14.399  1.5712  1.2084 -0.2229
 8451TIP3   OH246843   2.924   5.830  14.011  0.9873 -0.2337  0.9899
 8451TIP3    H146844   2.898   5.751  14.057  0.1623 -0.2336  0.5380
 8451TIP3    H246845   3.004   5.806  13.964  0.6336 -0.8457  0.7022
 8452TIP3   OH246846   1.483   3.817  15.363  0.4191 -0.3384  0.2162
 8452TIP3    H146847   1.547   3.745  15.364  2.2524  1.2558  1.6701
 8452TIP3    H246848   1.478   3.845  15.455 -2.5149 -0.5222  0.1594
 8453TIP3   OH246849   0.554   2.149   4.843  0.0045 -0.2153  0.0967
 8453TIP3    H146850   0.528   2.188   4.759 -1.2652 -1.6059 -0.1805
 8453TIP3    H246851   0.471   2.130   4.887  0.6294 -1.7514  0.6192
 8454TIP3   OH246852   5.412   0.373  15.651 -0.4035  0.0283  0.0701
 8454TIP3    H146853   5.370   0.329  15.576  0.9961  1.6884 -1.7528
 8454TIP3    H246854   5.410   0.466  15.627  1.0310  0.4700  1.6240
 8455TIP3   OH246855   2.473   5.375   3.801  0.4340  0.3137 -0.2231
 8455TIP3    H146856   2.512   5.401   3.717 -0.4748  2.4803 -0.0078
 8455TIP3    H246857   2.518   5.294   3.824  1.5605  0.3351 -2.2111
 8456TIP3   OH246858   1.184   1.395  12.746 -0.0068  0.0259 -0.0869
 8456TIP3    H146859   1.259   1.339  12.727 -0.0337  1.0334 -3.5819
 8456TIP3    H246860   1.221   1.484  12.747 -0.5657  0.2588  1.8266
 8457TIP3   OH246861   5.420   2.501   0.393  0.1742  0.1744 -0.4982
 8457TIP3    H146862   5.399   2.593   0.377  2.4791  1.1282  1.5410
 8457TIP3    H246863   5.479   2.477   0.321  1.4482  1.0143  0.2523
 8458TIP3   OH246864   6.477   4.071   2.522 -0.7028  0.5108  0.4772
 8458TIP3    H146865   6.558   4.100   2.563 -1.2387  1.4125  0.9177
 8458TIP3    H246866   6.453   3.991   2.569 -1.4662  1.6951  2.1249
 8459TIP3   OH246867   0.739   3.147   4.146 -0.0629  0.0613 -0.9062
 8459TIP3    H146868   0.830   3.176   4.156 -0.3046  0.5340 -0.0087
 8459TIP3    H246869   0.732   3.071   4.204 -0.4593  0.5229 -0.3435
 8460TIP3   OH246870   0.570   4.837  12.510 -0.2669  0.2740  0.1637
 8460TIP3    H146871   0.491   4.885  12.536 -0.5395  0.9451 -1.8050
 8460TIP3    H246872   0.553   4.746  12.536 -2.1309  0.2183 -1.1583
 8461TIP3   OH246873   6.546   5.196   3.180  0.2131  0.2878  0.5964
 8461TIP3    H146874   6.591   5.278   3.198  0.5058 -0.2369  2.3515
 8461TIP3    H246875   6.571   5.138   3.252  1.0404 -1.7723 -1.3003
 8462TIP3   OH246876   4.911   1.589  13.350 -0.2699  0.0060 -0.3483
 8462TIP3    H146877   4.977   1.651  13.379 -1.0877  0.2713  0.9895
 8462TIP3    H246878   4.839   1.643  13.317 -0.8010 -0.2169  0.4115
 8463TIP3   OH246879   0.248   0.092   4.456 -0.3594 -0.2611 -0.7807
 8463TIP3    H146880   0.305   0.025   4.492  2.3244  1.2467 -2.0136
 8463TIP3    H246881   0.210   0.052   4.378 -1.1551 -1.3502  0.1557
 8464TIP3   OH246882   1.377   4.773   6.157  0.4449  0.1739 -0.6172
 8464TIP3    H146883   1.377   4.721   6.077 -3.0593  2.7049 -2.3932
 8464TIP3    H246884   1.414   4.858   6.131  1.2555  0.3342  0.9667
 8465TIP3   OH246885   5.192   6.156   0.367 -0.2493 -0.0287 -0.1734
 8465TIP3    H146886   5.250   6.158   0.443  0.5243  2.2624 -0.7784
 8465TIP3    H246887   5.128   6.226   0.384 -1.3780 -0.9492 -0.6161
 8466TIP3   OH246888   3.556   0.338   3.496 -0.1667  0.6772  0.4277
 8466TIP3    H146889   3.553   0.405   3.428  1.1553 -0.0383 -0.3509
 8466TIP3    H246890   3.470   0.296   3.493 -1.0874  2.4774  1.0855
 8467TIP3   OH246891   4.963   3.367  16.650  0.5725 -0.0068 -0.6452
 8467TIP3    H146892   5.055   3.354  16.671  0.2742 -1.5585 -0.2114
 8467TIP3    H246893   4.960   3.377  16.555  1.0910 -0.8554 -0.7519
 8468TIP3   OH246894   3.158   3.910   4.708 -0.0859 -0.1126  0.3136
 8468TIP3    H146895   3.133   3.928   4.799 -0.5580  1.2149 -0.0667
 8468TIP3    H246896   3.238   3.961   4.695  0.3221 -0.7842  0.1620
 8469TIP3   OH246897   3.709   1.977   1.472 -0.5052 -0.6334  0.7784
 8469TIP3    H146898   3.635   1.995   1.414 -1.4232 -1.9795  1.5064
 8469TIP3    H246899   3.727   2.061   1.514 -0.3104  0.1769 -0.9068
 8470TIP3   OH246900   0.817   0.372   5.563  0.2731  0.1964 -0.3340
 8470TIP3    H146901   0.862   0.289   5.583  0.2736  0.5482  1.2318
 8470TIP3    H246902   0.824   0.381   5.468  1.1707 -1.0952 -0.4066
 8471TIP3   OH246903   3.485   1.197   1.328 -0.2511 -0.2483  0.0723
 8471TIP3    H146904   3.453   1.247   1.253  0.0006 -1.0415 -0.5803
 8471TIP3    H246905   3.519   1.262   1.389  1.0404  0.3060 -1.2170
 8472TIP3   OH246906   2.682   2.571   1.521 -0.6447 -0.1740 -0.2070
 8472TIP3    H146907   2.731   2.593   1.442 -1.6081 -0.3692 -0.8730
 8472TIP3    H246908   2.607   2.631   1.520 -0.3147  0.2626  0.9040
 8473TIP3   OH246909   0.455   3.984  14.864  0.6448 -0.3004  0.6973
 8473TIP3    H146910   0.420   4.073  14.870  1.9252  0.4198 -2.0900
 8473TIP3    H246911   0.397   3.932  14.920 -1.1007  1.9779  1.0741
 8474TIP3   OH246912   4.917   0.462  12.768 -0.0276  0.4724 -0.2746
 8474TIP3    H146913   4.950   0.511  12.844 -0.8111  1.1236 -0.3373
 8474TIP3    H246914   4.823   0.481  12.767 -0.1754 -0.2783 -0.8694
 8475TIP3   OH246915   2.775   3.786  17.222 -0.0846  0.5417 -0.0603
 8475TIP3    H146916   2.817   3.848  17.162 -1.2994  0.3920 -1.0779
 8475TIP3    H246917   2.713   3.738  17.167  0.0909 -0.8516  0.9442
 8476TIP3   OH246918   4.653   1.527  14.257 -0.2070  0.3864 -0.1667
 8476TIP3    H146919   4.621   1.506  14.345 -0.3656  3.7802  0.6613
 8476TIP3    H246920   4.736   1.479  14.250 -2.4007 -3.6816 -0.0529
 8477TIP3   OH246921   0.728   4.944   5.289 -0.6969  0.6951  0.1630
 8477TIP3    H146922   0.787   4.871   5.270 -1.6268 -0.3070  1.0221
 8477TIP3    H246923   0.647   4.921   5.244 -1.1202  0.9934  0.7681
 8478TIP3   OH246924   5.553   5.889   1.458 -0.3152 -0.2436  0.0373
 8478TIP3    H146925   5.558   5.913   1.366  0.1746 -1.0377 -0.1436
 8478TIP3    H246926   5.494   5.813   1.461  1.5206 -1.7065  0.0740
 8479TIP3   OH246927   4.105   0.865  12.653  0.0552  0.4769 -0.1016
 8479TIP3    H146928   4.114   0.818  12.570  0.1082  1.4396 -0.6446
 8479TIP3    H246929   4.185   0.917  12.659  0.8704 -0.9190  1.4065
 8480TIP3   OH246930   3.534   6.533   3.743  0.2588 -0.0052 -0.0194
 8480TIP3    H146931   3.538   6.493   3.656  1.4551  3.6583 -1.7778
 8480TIP3    H246932   3.454   6.585   3.741  0.8205  0.9020  0.6579
 8481TIP3   OH246933   5.948   3.218   2.340  0.2371  0.1537 -0.8902
 8481TIP3    H146934   5.918   3.281   2.405  0.1009  0.0357 -0.8397
 8481TIP3    H246935   5.965   3.138   2.390  2.0722  0.6560 -0.6668
 8482TIP3   OH246936   1.542   2.310   4.185 -0.0703 -0.4306 -0.1406
 8482TIP3    H146937   1.572   2.262   4.262 -0.5789 -2.1078 -0.9595
 8482TIP3    H246938   1.568   2.401   4.201  1.8412 -1.1476  0.9776
 8483TIP3   OH246939   6.060   6.684  13.940  0.0325 -0.2309 -1.3161
 8483TIP3    H146940   6.023   6.641  13.863  0.1700 -0.7309 -1.1023
 8483TIP3    H246941   6.013   6.768  13.946 -0.8001 -0.6987 -1.2684
 8484TIP3   OH246942   4.840   5.327   0.328  0.3405  0.2176  0.5012
 8484TIP3    H146943   4.822   5.247   0.279  0.5423  0.0231  0.7496
 8484TIP3    H246944   4.927   5.355   0.297  0.5099  0.0413  0.8274
 8485TIP3   OH246945   4.041   1.298   1.279 -0.1614 -0.4542  0.0934
 8485TIP3    H146946   4.124   1.300   1.326  0.8015  1.0368 -1.5804
 8485TIP3    H246947   4.029   1.206   1.255 -0.5434 -1.2007  2.9283
 8486TIP3   OH246948   0.207   4.530   3.416  0.2273  0.2023 -0.2893
 8486TIP3    H146949   0.179   4.576   3.337 -0.8918  0.8020  0.4418
 8486TIP3    H246950   0.251   4.598   3.468 -1.1216  0.3983  0.6386
 8487TIP3   OH246951   3.803   6.709  16.912  0.2039  0.0263  0.3891
 8487TIP3    H146952   3.872   6.718  16.846 -0.2106 -0.6217 -0.1502
 8487TIP3    H246953   3.814   6.784  16.969  1.5737 -0.2537  0.5123
 8488TIP3   OH246954   0.062   5.869   1.055 -0.0622 -0.0613  0.0212
 8488TIP3    H146955   0.124   5.940   1.069  0.2572 -0.4305  0.5453
 8488TIP3    H246956   0.025   5.853   1.142 -0.1683 -0.4957 -0.1036
 8489TIP3   OH246957   6.758   1.832   4.632  0.8652  0.1191  0.5751
 8489TIP3    H146958   6.796   1.880   4.705  1.0730  0.6702  0.1083
 8489TIP3    H246959   6.826   1.770   4.605  0.0812 -1.4602  2.0985
 8490TIP3   OH246960   0.407   4.087   3.530  0.6127 -0.3192 -0.0267
 8490TIP3    H146961   0.352   4.104   3.454  1.4537 -0.7843 -0.7545
 8490TIP3    H246962   0.452   4.005   3.509  0.2514 -0.8795  1.3160
 8491TIP3   OH246963   6.306   3.817   4.993 -0.1695 -0.2211 -0.5120
 8491TIP3    H146964   6.309   3.816   5.088  0.1848  0.2967 -0.5109
 8491TIP3    H246965   6.217   3.788   4.971 -0.3150 -0.1514 -0.0226
 8492TIP3   OH246966   6.245   3.780  12.752 -0.1733  0.1489 -0.0589
 8492TIP3    H146967   6.338   3.769  12.729 -0.3495 -0.3688 -0.5090
 8492TIP3    H246968   6.207   3.693  12.743 -0.1694 -0.1783  2.5681
 8493TIP3   OH246969   5.031   2.546  16.626 -0.1928 -0.1779 -0.8405
 8493TIP3    H146970   5.100   2.567  16.689  0.5973  2.3447 -2.4712
 8493TIP3    H246971   4.953   2.590  16.661  0.0146  0.3946 -1.0847
 8494TIP3   OH246972   4.537   5.604   3.174  0.2396  0.0022 -0.1102
 8494TIP3    H146973   4.445   5.629   3.165  0.4444  0.9325  0.3868
 8494TIP3    H246974   4.580   5.646   3.100  0.3734  0.1179  0.0330
 8495TIP3   OH246975   3.785   3.212  16.309  0.0232 -0.4739 -0.5939
 8495TIP3    H146976   3.762   3.143  16.371 -0.8219 -0.4632 -0.8771
 8495TIP3    H246977   3.736   3.190  16.230 -1.8707  1.5433 -0.0409
 8496TIP3   OH246978   5.509   6.321   1.736 -0.2098 -0.3846  0.3584
 8496TIP3    H146979   5.520   6.408   1.697  1.2332 -0.0564  1.4457
 8496TIP3    H246980   5.529   6.260   1.666  1.2250  0.1886  0.2604
 8497TIP3   OH246981   2.885   6.809   2.106  0.3075  0.3394 -0.8356
 8497TIP3    H146982   2.823   6.784   2.174 -0.5218 -0.8438 -1.9933
 8497TIP3    H246983   2.965   6.762   2.127  0.2439  0.4525 -0.3396
 8498TIP3   OH246984   4.954   3.751   4.182  0.0249  0.0315 -0.0955
 8498TIP3    H146985   4.995   3.690   4.120  1.0742  0.7861 -0.1552
 8498TIP3    H246986   4.860   3.737   4.170  0.2246 -3.4373  1.7564
 8499TIP3   OH246987   1.844   1.025  13.573  0.2514  0.1154  0.2400
 8499TIP3    H146988   1.771   1.081  13.600  0.5959  0.6510  0.0705
 8499TIP3    H246989   1.809   0.975  13.500 -0.1162 -0.0156  0.5041
 8500TIP3   OH246990   0.403   4.940   4.167 -0.5853  0.8387  0.7154
 8500TIP3    H146991   0.331   4.943   4.230 -2.0470 -1.0768 -0.7925
 8500TIP3    H246992   0.466   4.878   4.204 -0.6344  1.0146  1.0927
 8501TIP3   OH246993   4.604   1.624  11.372  0.0238  0.0670 -0.1350
 8501TIP3    H146994   4.636   1.674  11.296  1.3173 -1.0230 -0.3294
 8501TIP3    H246995   4.545   1.559  11.334 -0.4497  0.4506 -0.0527
 8502TIP3   OH246996   4.694   3.209  12.822 -0.4164  0.1366 -0.4731
 8502TIP3    H146997   4.696   3.114  12.834  1.1702  0.2530  0.2341
 8502TIP3    H246998   4.684   3.221  12.727  0.0075 -0.7307 -0.6243
 8503TIP3   OH246999   6.693   5.875  13.773  0.1180  0.4242 -0.2667
 8503TIP3    H147000   6.715   5.863  13.681  1.6143 -0.0260  0.1360
 8503TIP3    H247001   6.686   5.970  13.784 -0.3915  0.4680 -0.8990
 8504TIP3   OH247002   4.060   3.857   4.973  0.2803 -0.0167  0.2108
 8504TIP3    H147003   4.007   3.932   5.001  1.8284  0.9938  0.5407
 8504TIP3    H247004   4.029   3.784   5.027  0.2389  0.9122  1.4795
 8505TIP3   OH247005   4.964   2.826   6.091  0.0309 -0.0362  0.0597
 8505TIP3    H147006   4.892   2.782   6.137  0.0750  0.1097  0.2675
 8505TIP3    H247007   4.976   2.908   6.138  0.6447 -0.2645  0.3089
 8506TIP3   OH247008   2.972   5.769   3.340  0.0366 -0.1017 -0.2841
 8506TIP3    H147009   2.969   5.862   3.318  0.5094 -0.0026  0.0606
 8506TIP3    H247010   3.025   5.730   3.271  1.6077  0.2255  0.7141
 8507TIP3   OH247011   1.741   4.252  16.732  0.4229  0.6766 -0.2833
 8507TIP3    H147012   1.702   4.252  16.645  0.1503 -0.4674 -0.1626
 8507TIP3    H247013   1.819   4.197  16.724 -0.1834 -0.3093  0.4504
 8508TIP3   OH247014   3.780   1.571  14.289  0.1903 -0.2140 -0.0579
 8508TIP3    H147015   3.756   1.664  14.293 -0.1064 -0.2588 -0.7566
 8508TIP3    H247016   3.824   1.561  14.205 -0.3861 -0.8441 -0.2931
 8509TIP3   OH247017   2.514   5.614   5.179 -0.2565  0.2218  0.1033
 8509TIP3    H147018   2.523   5.640   5.087 -0.4048 -0.3710 -0.0843
 8509TIP3    H247019   2.448   5.674   5.214  0.3560  0.9473  0.0275
 8510TIP3   OH247020   3.053   3.649  12.316  0.3069  0.0930 -0.0776
 8510TIP3    H147021   3.102   3.726  12.288  1.7116 -0.0520  1.9147
 8510TIP3    H247022   3.117   3.578  12.318 -0.1809 -0.3231  1.5819
 8511TIP3   OH247023   2.265   4.239  11.434  0.2443 -0.1967 -0.0659
 8511TIP3    H147024   2.335   4.187  11.473  1.6729  0.8410 -1.1972
 8511TIP3    H247025   2.206   4.259  11.507  0.0305 -2.7733  0.5234
 8512TIP3   OH247026   3.933   3.344   5.949 -0.0628 -0.5984  0.3101
 8512TIP3    H147027   3.886   3.427   5.946 -0.3081 -0.7946 -2.9958
 8512TIP3    H247028   3.864   3.278   5.953  0.1287 -0.6901  2.8167
 8513TIP3   OH247029   5.001   3.276  14.983 -0.1286  0.0181 -0.0294
 8513TIP3    H147030   4.916   3.243  15.013 -0.0377  0.7868  1.0947
 8513TIP3    H247031   4.985   3.367  14.958  0.5885  0.5220  1.2736
 8514TIP3   OH247032   6.446   6.294   1.448 -0.4505 -0.1313 -0.0782
 8514TIP3    H147033   6.443   6.368   1.387 -2.0393  1.2070  1.5742
 8514TIP3    H247034   6.357   6.286   1.481  0.4591 -0.5563  2.3927
 8515TIP3   OH247035   4.727   1.118  12.710  0.2388 -1.0336 -0.2034
 8515TIP3    H147036   4.658   1.115  12.777  0.1651  0.6663 -0.1854
 8515TIP3    H247037   4.679   1.123  12.627  0.3319 -2.9480 -0.3877
 8516TIP3   OH247038   5.382   3.728  12.584  0.5549 -0.1388  0.7956
 8516TIP3    H147039   5.324   3.741  12.508  0.7335  1.3046  0.8892
 8516TIP3    H247040   5.383   3.634  12.598 -0.0537 -0.3560 -0.5648
 8517TIP3   OH247041   5.152   3.484   6.179  0.6198 -0.1826  0.2443
 8517TIP3    H147042   5.182   3.459   6.266  1.7587  1.5872  0.4033
 8517TIP3    H247043   5.190   3.571   6.165  0.2887 -0.3502 -1.9347
 8518TIP3   OH247044   6.589   4.650  15.061  0.1389 -0.4289  0.4450
 8518TIP3    H147045   6.555   4.576  15.011  1.5056 -1.1108  0.4923
 8518TIP3    H247046   6.681   4.657  15.035  0.3650  0.4348  1.4077
 8519TIP3   OH247047   0.155   4.685   2.227  0.8562  0.2778  0.5264
 8519TIP3    H147048   0.097   4.734   2.284  1.5642  1.3757  0.3127
 8519TIP3    H247049   0.097   4.644   2.162  0.3838  1.9837 -0.1475
 8520TIP3   OH247050   0.737   3.661   4.381  0.3453  0.1759  0.3529
 8520TIP3    H147051   0.784   3.610   4.315 -1.4334 -0.6330 -0.3347
 8520TIP3    H247052   0.654   3.614   4.392  0.3251  0.6999  2.6505
 8521TIP3   OH247053   4.911   4.899  12.121  0.5147  0.0321 -0.5349
 8521TIP3    H147054   4.996   4.856  12.128 -0.2455 -1.5833 -0.9632
 8521TIP3    H247055   4.882   4.909  12.212  0.4108 -0.9656 -0.4504
 8522TIP3   OH247056   4.343   3.299  14.268 -0.8191  0.2444 -0.0640
 8522TIP3    H147057   4.324   3.354  14.344 -2.1188  1.0763 -0.9681
 8522TIP3    H247058   4.287   3.222  14.281  0.2285 -0.4125  0.6695
 8523TIP3   OH247059   2.877   1.903  13.869 -0.4086  0.0699  0.1211
 8523TIP3    H147060   2.827   1.982  13.889  0.8343  0.8191  0.3453
 8523TIP3    H247061   2.932   1.929  13.795 -0.4629 -0.7874 -0.2205
 8524TIP3   OH247062   4.241   6.503   5.612  0.1620 -0.4890  0.1275
 8524TIP3    H147063   4.265   6.588   5.649 -1.0059  0.3089 -0.8899
 8524TIP3    H247064   4.324   6.458   5.599  0.7706  0.3726  0.9896
 8525TIP3   OH247065   1.267   2.090   4.649  0.2013 -0.4244 -0.0228
 8525TIP3    H147066   1.319   2.169   4.659  1.1265 -0.9024 -0.9247
 8525TIP3    H247067   1.326   2.028   4.604 -1.0349 -1.0723 -0.7801
 8526TIP3   OH247068   5.547   3.325   1.325  0.6571 -0.3328  0.0001
 8526TIP3    H147069   5.597   3.336   1.405  0.8520 -1.1283 -0.0116
 8526TIP3    H247070   5.544   3.231   1.311 -0.1737 -0.2499 -0.4230
 8527TIP3   OH247071   0.751   2.436  11.979 -1.0966  0.0073 -0.0569
 8527TIP3    H147072   0.789   2.422  11.893 -1.3377 -1.0022 -0.0060
 8527TIP3    H247073   0.826   2.441  12.038 -1.0130 -1.7411  0.0088
 8528TIP3   OH247074   0.474   0.513  16.391 -0.6920 -0.0017  0.0741
 8528TIP3    H147075   0.436   0.456  16.323  1.7638 -1.8093  0.1740
 8528TIP3    H247076   0.419   0.592  16.388 -4.8641 -2.6974  0.6142
 8529TIP3   OH247077   5.215   1.369  12.660  0.3102  0.0788  0.3873
 8529TIP3    H147078   5.232   1.279  12.686 -0.6129  0.2483  1.6492
 8529TIP3    H247079   5.121   1.371  12.641  0.1347  0.9679  1.2686
 8530TIP3   OH247080   5.122   1.784   0.031  0.4756  0.8021  0.2715
 8530TIP3    H147081   5.027   1.783   0.029  0.4425 -2.5532 -2.1339
 8530TIP3    H247082   5.148   1.830  -0.049  0.8509  0.3994  0.1538
 8531TIP3   OH247083   2.628   3.549   2.325 -0.7398  0.3626 -0.3741
 8531TIP3    H147084   2.658   3.484   2.261 -0.3111 -0.8257  0.9913
 8531TIP3    H247085   2.589   3.618   2.273 -0.1587 -0.4603 -1.9349
 8532TIP3   OH247086   3.400   5.840  13.048  0.3184 -0.3419 -0.3670
 8532TIP3    H147087   3.473   5.901  13.034  1.5295 -1.7404 -0.2816
 8532TIP3    H247088   3.345   5.851  12.971  1.4969 -0.4380 -1.2454
 8533TIP3   OH247089   5.054   5.986  16.225 -0.6202  0.1623  0.1287
 8533TIP3    H147090   4.972   6.025  16.196  0.8889  3.1964 -0.2783
 8533TIP3    H247091   5.122   6.040  16.185  1.5563 -0.6057  2.6329
 8534TIP3   OH247092   2.006   1.730   5.470  0.1047 -0.1382 -0.1267
 8534TIP3    H147093   2.019   1.739   5.375  0.5353  1.3356  0.0558
 8534TIP3    H247094   1.991   1.820   5.501 -1.0585 -0.7166  1.0631
 8535TIP3   OH247095   6.176   6.754   0.482  0.5642  0.0830  0.2862
 8535TIP3    H147096   6.265   6.788   0.465 -0.3357  2.4344  0.0651
 8535TIP3    H247097   6.146   6.723   0.397  1.3226 -1.1518  0.4498
 8536TIP3   OH247098   0.899   1.595   2.281  0.0920 -0.0570  0.2727
 8536TIP3    H147099   0.815   1.549   2.278 -0.4612  0.7377  2.3644
 8536TIP3    H247100   0.944   1.556   2.356  1.4258 -0.1904 -0.5961
 8537TIP3   OH247101   6.573   3.327  15.232  0.2008 -0.3905 -0.1639
 8537TIP3    H147102   6.645   3.367  15.281  0.0958 -0.0795 -0.2616
 8537TIP3    H247103   6.605   3.326  15.141  0.5002 -1.2034 -0.0478
 8538TIP3   OH247104   2.171   2.793   0.212  0.5110  0.0030  0.3725
 8538TIP3    H147105   2.141   2.852   0.143  0.9485  0.5729  0.6662
 8538TIP3    H247106   2.163   2.706   0.175 -2.1260  0.0896  0.6372
 8539TIP3   OH247107   6.108   1.562   1.578 -0.0997  0.0032 -0.0579
 8539TIP3    H147108   6.167   1.487   1.588 -1.6428 -1.1048  1.0282
 8539TIP3    H247109   6.021   1.523   1.565 -1.0338  1.5913  1.2365
 8540TIP3   OH247110   0.926   2.629   3.599  0.3957 -0.0809 -0.1182
 8540TIP3    H147111   0.854   2.587   3.551  0.3124  0.9438 -0.9228
 8540TIP3    H247112   0.886   2.707   3.638  0.4807 -0.8935  1.5994
 8541TIP3   OH247113   5.728   2.154  16.548 -0.3024 -0.4969 -0.0012
 8541TIP3    H147114   5.645   2.201  16.542 -0.1324 -0.0571  1.1417
 8541TIP3    H247115   5.754   2.161  16.639  0.7121 -1.1261 -0.2318
 8542TIP3   OH247116   6.621   4.889  13.980  0.2169 -0.3911 -0.2331
 8542TIP3    H147117   6.584   4.857  13.898 -1.0818 -0.6653  0.4396
 8542TIP3    H247118   6.681   4.958  13.954  0.2329 -0.8482 -1.4545
 8543TIP3   OH247119   1.253   6.573  12.372 -0.2537 -0.0658  0.3063
 8543TIP3    H147120   1.279   6.660  12.401 -0.2116 -0.3029  0.9949
 8543TIP3    H247121   1.234   6.583  12.279  0.3681  0.5382  0.2425
 8544TIP3   OH247122   2.030   3.127   1.247  0.4860 -0.0752  0.7199
 8544TIP3    H147123   1.952   3.105   1.298  0.2460  0.4154  0.5677
 8544TIP3    H247124   2.099   3.140   1.313 -0.0141  1.3390  0.9780
 8545TIP3   OH247125   2.636   6.654  12.344 -0.1590 -0.5701 -0.3049
 8545TIP3    H147126   2.659   6.706  12.268 -0.9028  0.8233  0.3921
 8545TIP3    H247127   2.540   6.652  12.344 -0.2238  0.7859  1.4373
 8546TIP3   OH247128   6.089   4.577  13.862  0.0408 -0.0040  0.0375
 8546TIP3    H147129   6.152   4.536  13.921 -0.5904 -1.3833 -0.2284
 8546TIP3    H247130   6.019   4.607  13.920 -0.0139 -0.2789  0.1135
 8547TIP3   OH247131   5.981   4.066   4.198 -0.2372 -0.1865 -0.0638
 8547TIP3    H147132   5.958   3.984   4.243 -0.4941 -0.0519  0.0482
 8547TIP3    H247133   5.972   4.045   4.105  0.2065 -0.4398 -0.0507
 8548TIP3   OH247134   0.256   1.353  14.369  0.5973 -0.3653 -0.0181
 8548TIP3    H147135   0.183   1.366  14.430  0.2392 -2.6634  0.0882
 8548TIP3    H247136   0.329   1.398  14.410 -0.6440  1.5811  0.0966
 8549TIP3   OH247137   6.489   2.927   5.580 -0.2408 -0.7516  0.5134
 8549TIP3    H147138   6.475   2.873   5.502  1.6033 -0.0852 -0.2929
 8549TIP3    H247139   6.486   3.017   5.547 -0.6167 -0.4311  1.4184
 8550TIP3   OH247140   5.777   1.374   4.394  0.5779  0.5341  0.3895
 8550TIP3    H147141   5.771   1.420   4.478  0.7969  2.3452 -0.5669
 8550TIP3    H247142   5.767   1.282   4.417 -0.7512  1.1136  2.2540
 8551TIP3   OH247143   2.512   3.077  14.520  0.2670  0.1280  0.1478
 8551TIP3    H147144   2.460   3.024  14.460  0.6417  1.1641 -1.1216
 8551TIP3    H247145   2.476   3.165  14.512 -0.7432 -0.0061  2.6940
 8552TIP3   OH247146   2.003   3.603   1.374 -0.8437  0.3602  0.1437
 8552TIP3    H147147   2.036   3.614   1.463  2.9364 -1.6382 -0.8716
 8552TIP3    H247148   2.018   3.688   1.332  1.9512 -0.0881  0.1191
 8553TIP3   OH247149   6.414   2.195  13.719 -0.4291 -0.0349  0.1563
 8553TIP3    H147150   6.409   2.176  13.625 -0.3047 -0.2081  0.1834
 8553TIP3    H247151   6.466   2.123  13.755 -1.9638 -0.9244  0.6435
 8554TIP3   OH247152   1.058   3.286  17.073  0.0223 -0.0041 -0.1070
 8554TIP3    H147153   0.969   3.310  17.048 -0.0113 -1.4999 -1.4346
 8554TIP3    H247154   1.048   3.208  17.129  0.3777  0.9258  1.2889
 8555TIP3   OH247155   1.463   1.142   3.204 -0.1270  0.6867 -0.0851
 8555TIP3    H147156   1.465   1.052   3.174  2.4728  0.6530  0.1397
 8555TIP3    H247157   1.400   1.185   3.146 -1.3802 -1.2309 -0.1986
 8556TIP3   OH247158   1.375   3.114   2.371 -0.4643  0.3086  0.2919
 8556TIP3    H147159   1.456   3.080   2.334 -1.2028  0.6755 -1.7849
 8556TIP3    H247160   1.397   3.137   2.461  1.9261  1.0837 -0.4432
 8557TIP3   OH247161   2.653   0.016  17.266  0.1217 -0.2717  0.1041
 8557TIP3    H147162   2.618   0.002  17.354  1.7256  0.9343  0.9726
 8557TIP3    H247163   2.584   0.063  17.220 -0.9526 -1.3994  0.5403
 8558TIP3   OH247164   6.384   4.404  16.690 -0.0763  0.2365  0.1273
 8558TIP3    H147165   6.309   4.347  16.676  0.1510  0.4797 -2.4086
 8558TIP3    H247166   6.349   4.480  16.736 -1.0499 -0.4156  0.4653
 8559TIP3   OH247167   5.091   3.416   2.287  0.1192 -0.2449 -0.5133
 8559TIP3    H147168   5.000   3.405   2.259 -1.1147  0.5816  2.9393
 8559TIP3    H247169   5.124   3.327   2.295 -0.5771 -0.5730 -1.1891
 8560TIP3   OH247170   5.270   0.657   2.272 -0.3830 -0.1893 -0.1082
 8560TIP3    H147171   5.220   0.596   2.327  2.3173 -2.6714 -0.2399
 8560TIP3    H247172   5.291   0.730   2.330 -3.1420  0.3675  0.2490
 8561TIP3   OH247173   1.288   2.325   5.067  0.6564  0.4757 -0.1966
 8561TIP3    H147174   1.374   2.314   5.108 -0.0724 -1.3154  0.9001
 8561TIP3    H247175   1.306   2.376   4.987  2.4879  1.5486  0.8608
 8562TIP3   OH247176   5.329   2.679   1.288  0.1200 -0.5479 -0.1623
 8562TIP3    H147177   5.295   2.731   1.215  0.6015 -1.5206 -1.1075
 8562TIP3    H247178   5.330   2.589   1.254 -1.0116 -1.2283  1.5373
 8563TIP3   OH247179   3.148   5.383   3.052  0.5923 -0.3136  0.4528
 8563TIP3    H147180   3.226   5.362   3.103  0.0792  0.7999  1.7201
 8563TIP3    H247181   3.093   5.306   3.059  2.1723 -1.7247 -1.6899
 8564TIP3   OH247182   6.461   2.321   1.295 -0.3023  0.4761 -0.3986
 8564TIP3    H147183   6.418   2.386   1.350  0.2260  1.1018 -0.7102
 8564TIP3    H247184   6.467   2.362   1.209  0.7917  0.3617 -0.3919
 8565TIP3   OH247185   5.490   5.933   0.025  0.6318 -0.3255  0.0820
 8565TIP3    H147186   5.411   5.948   0.077 -1.1935 -1.3743 -2.2968
 8565TIP3    H247187   5.562   5.956   0.083 -1.4424  1.0914  2.1531
 8566TIP3   OH247188   3.532   5.849   0.274  0.5830 -0.1514  0.3257
 8566TIP3    H147189   3.453   5.873   0.321  0.6067 -0.8335  0.7086
 8566TIP3    H247190   3.602   5.899   0.316  0.0297  2.2975 -1.5177
 8567TIP3   OH247191   4.669   2.094  14.524  0.0964 -0.2200  0.0939
 8567TIP3    H147192   4.729   2.136  14.586  0.8244  0.0896 -0.7941
 8567TIP3    H247193   4.686   2.140  14.441 -1.5655  0.0557 -0.1107
 8568TIP3   OH247194   4.839   2.947   1.498  0.2802  0.0002  0.0395
 8568TIP3    H147195   4.871   2.991   1.577  1.2500 -0.1923 -0.2422
 8568TIP3    H247196   4.789   2.872   1.531  1.7832 -0.8318  0.4555
 8569TIP3   OH247197   6.148   0.654   0.120  0.3906  0.3507  0.4630
 8569TIP3    H147198   6.187   0.569   0.101 -1.8623 -0.5575 -0.3204
 8569TIP3    H247199   6.145   0.658   0.216 -0.5525 -0.9800  0.5081
 8570TIP3   OH247200   0.292   6.338   3.588  0.2925 -0.1637  0.6108
 8570TIP3    H147201   0.379   6.299   3.592  0.8188  0.8147 -0.7916
 8570TIP3    H247202   0.238   6.273   3.543  1.0090  0.4034 -1.1217
 8571TIP3   OH247203   6.303   5.143   0.203  0.0642 -0.3287 -0.2225
 8571TIP3    H147204   6.284   5.194   0.125 -0.2122 -0.6466 -0.3672
 8571TIP3    H247205   6.239   5.174   0.268 -0.4095 -0.8095 -0.4522
 8572TIP3   OH247206   4.149   5.962  10.368 -0.5809 -0.0588  0.3071
 8572TIP3    H147207   4.174   5.924  10.452  0.5881 -0.6108 -0.2823
 8572TIP3    H247208   4.115   5.889  10.317  0.9655 -0.2181 -0.5537
 8573TIP3   OH247209   2.454   0.415  11.158 -0.6423  0.2852 -0.1382
 8573TIP3    H147210   2.430   0.332  11.116 -1.2615  0.8334 -0.8884
 8573TIP3    H247211   2.375   0.440  11.207 -0.9241  1.0899 -0.9891
 8574TIP3   OH247212   4.992   2.415   5.245 -1.0351  0.1057  0.0151
 8574TIP3    H147213   4.909   2.457   5.265  0.4477  2.1539  2.1390
 8574TIP3    H247214   5.022   2.457   5.164 -1.4954  0.2006 -0.1026
 8575TIP3   OH247215   0.076   5.254  16.737 -0.2204  0.4119 -0.6681
 8575TIP3    H147216  -0.018   5.273  16.741 -0.3145 -0.0161 -0.8674
 8575TIP3    H247217   0.112   5.326  16.685 -0.3035  1.0601  0.1609
 8576TIP3   OH247218   3.796   3.073   2.558  0.4240  0.0877  0.6135
 8576TIP3    H147219   3.867   3.124   2.520  1.1172 -1.3190 -0.0120
 8576TIP3    H247220   3.716   3.115   2.526  0.9220  2.3859  2.2459
 8577TIP3   OH247221   2.066   5.709  12.456 -0.1355 -0.5910 -0.0689
 8577TIP3    H147222   2.020   5.645  12.510 -1.6121 -0.7150 -1.4273
 8577TIP3    H247223   2.015   5.789  12.464 -0.4492 -0.6421 -1.3478
 8578TIP3   OH247224   6.751   0.942   3.063 -0.0310  0.2432  0.0297
 8578TIP3    H147225   6.819   0.993   3.019 -1.3731  1.4876 -0.6589
 8578TIP3    H247226   6.683   1.006   3.083 -0.2496 -0.6569  2.2874
 8579TIP3   OH247227   4.131   2.930   0.238 -0.1351  0.6504 -0.2144
 8579TIP3    H147228   4.153   3.021   0.260 -1.9725  0.9625  0.3716
 8579TIP3    H247229   4.094   2.935   0.149  1.9330  0.1418 -1.1414
 8580TIP3   OH247230   0.569   1.309   3.337  0.0256 -0.6035  0.0590
 8580TIP3    H147231   0.597   1.390   3.295  0.5386 -0.8343 -0.0467
 8580TIP3    H247232   0.543   1.336   3.425 -1.1784 -0.0962 -0.4309
 8581TIP3   OH247233   1.988   0.493   0.358 -0.5782 -0.8766 -0.3332
 8581TIP3    H147234   2.020   0.414   0.315 -0.5191 -0.8856 -0.2722
 8581TIP3    H247235   1.895   0.495   0.337 -0.8988 -1.7812  0.9255
 8582TIP3   OH247236   2.478   2.756  15.135  0.4193 -0.2556  0.2182
 8582TIP3    H147237   2.422   2.691  15.177  1.6209  0.1370  2.5041
 8582TIP3    H247238   2.562   2.712  15.125  0.5274  0.1146 -0.5865
 8583TIP3   OH247239   3.605   2.654  13.830 -0.4382 -0.3589  0.1234
 8583TIP3    H147240   3.548   2.699  13.768  1.7323  0.6610 -1.1716
 8583TIP3    H247241   3.636   2.723  13.889  0.3539 -0.7086  0.1215
 8584TIP3   OH247242   3.822   6.809  17.187 -0.0974 -0.5774  0.6852
 8584TIP3    H147243   3.843   6.832  17.278  2.8446 -0.7671  0.0909
 8584TIP3    H247244   3.876   6.868  17.134 -1.6103 -0.6334 -0.9780
 8585TIP3   OH247245   6.331   4.486   5.017 -0.3170  0.4360  0.4920
 8585TIP3    H147246   6.276   4.508   4.942  0.4520 -1.2069 -0.5648
 8585TIP3    H247247   6.272   4.490   5.092 -1.3223  1.0435 -0.3213
 8586TIP3   OH247248   4.466   1.611  13.789 -0.1508 -0.0487  0.4147
 8586TIP3    H147249   4.436   1.589  13.877 -0.2649 -1.5222  0.0256
 8586TIP3    H247250   4.409   1.683  13.761  2.4736  3.2495  3.0604
 8587TIP3   OH247251   1.799   2.463   4.877 -0.3029  0.2470 -0.4807
 8587TIP3    H147252   1.838   2.415   4.805  0.3729  3.4149 -2.3451
 8587TIP3    H247253   1.707   2.474   4.851 -1.1208 -2.2657  1.2002
 8588TIP3   OH247254   3.520   4.921  14.992 -0.3896 -0.3435  0.7317
 8588TIP3    H147255   3.585   4.986  14.966 -1.6037  1.1555  1.3212
 8588TIP3    H247256   3.545   4.897  15.082 -0.2343 -0.2932  0.7020
 8589TIP3   OH247257   2.400   2.470   0.339  0.0287  0.1873  0.3871
 8589TIP3    H147258   2.344   2.397   0.366  0.7595 -0.2810  0.6396
 8589TIP3    H247259   2.464   2.431   0.280  1.3454  0.3347  1.7042
 8590TIP3   OH247260   4.318   2.616   2.353 -0.3356 -0.0385  0.0982
 8590TIP3    H147261   4.374   2.548   2.391 -0.4351 -1.0779 -1.5403
 8590TIP3    H247262   4.378   2.685   2.325 -0.1274  0.0487  0.7694
 8591TIP3   OH247263   6.136   3.373   0.863 -0.3873 -0.5257  0.2843
 8591TIP3    H147264   6.107   3.442   0.923 -0.3897 -0.7160  0.5016
 8591TIP3    H247265   6.070   3.305   0.871 -0.3563 -0.5766  0.1080
 8592TIP3   OH247266   2.194   3.268  14.036  0.3149  0.5282 -0.7254
 8592TIP3    H147267   2.185   3.352  13.990  1.6468  1.9838  1.5734
 8592TIP3    H247268   2.156   3.283  14.122 -2.4496 -2.2680 -1.3638
 8593TIP3   OH247269   0.074   6.759  16.565  0.4555  0.1585  0.0850
 8593TIP3    H147270  -0.016   6.730  16.558  1.3409 -2.5015 -0.7353
 8593TIP3    H247271   0.093   6.755  16.659  0.7078 -2.4585 -0.0562
 8594TIP3   OH247272   2.950   6.135   3.961 -0.2246  0.0222  0.5560
 8594TIP3    H147273   2.985   6.078   4.030  4.5327  0.8229 -1.0036
 8594TIP3    H247274   2.946   6.221   4.002 -1.5091 -0.2936  1.0965
 8595TIP3   OH247275   6.477   4.658   2.799 -0.0395 -0.3172  0.4904
 8595TIP3    H147276   6.505   4.571   2.829  1.9553 -0.8071 -2.5847
 8595TIP3    H247277   6.538   4.719   2.840  1.4198 -0.7969 -0.9405
 8596TIP3   OH247278   3.036   5.932   5.620 -0.3778 -0.0190 -0.3550
 8596TIP3    H147279   3.075   5.901   5.702  0.7483  2.5414  0.1094
 8596TIP3    H247280   3.103   5.987   5.580 -1.6369  0.3084 -2.0833
 8597TIP3   OH247281   1.929   4.087  15.211 -0.0250 -0.4607  0.0724
 8597TIP3    H147282   1.963   4.168  15.248  0.7420 -0.7557  0.0456
 8597TIP3    H247283   1.861   4.114  15.150 -0.0918  0.1312  0.4058
 8598TIP3   OH247284   4.048   2.060   5.167 -0.1437  0.3943  0.3073
 8598TIP3    H147285   4.081   2.136   5.215 -0.7475 -1.0349  3.1206
 8598TIP3    H247286   4.127   2.014   5.139  0.2356  0.8806  0.5664
 8599TIP3   OH247287   4.819   1.794   1.267 -0.1150  0.5003 -0.2840
 8599TIP3    H147288   4.856   1.882   1.271 -1.0407  0.9123 -0.6594
 8599TIP3    H247289   4.777   1.782   1.352 -0.6351  0.7118 -0.5102
 8600TIP3   OH247290   4.084   0.513   5.453  0.3282 -0.4071 -0.3804
 8600TIP3    H147291   4.132   0.589   5.486 -1.1101 -0.0529  0.9805
 8600TIP3    H247292   4.051   0.470   5.532 -1.3548 -0.7746 -1.2643
 8601TIP3   OH247293   0.614   0.458  13.252  0.1323 -0.2845 -0.1419
 8601TIP3    H147294   0.624   0.373  13.295  0.1605  0.3537  1.1178
 8601TIP3    H247295   0.623   0.438  13.158  0.8325 -1.5590  0.1814
 8602TIP3   OH247296   1.310   3.656  11.156 -0.2746  0.0875 -0.3039
 8602TIP3    H147297   1.388   3.677  11.105  0.2216 -0.6350  0.1505
 8602TIP3    H247298   1.237   3.683  11.100  0.3050  2.5086  0.0399
 8603TIP3   OH247299   1.826   6.453   2.733 -0.1379  0.2391 -0.0198
 8603TIP3    H147300   1.919   6.474   2.729 -0.3774  1.5939  1.2560
 8603TIP3    H247301   1.805   6.422   2.645  1.8013 -1.3078  0.0137
 8604TIP3   OH247302   5.107   0.216   0.590  0.2800 -0.0081  0.0491
 8604TIP3    H147303   5.030   0.226   0.645 -0.0151  0.0118 -0.3624
 8604TIP3    H247304   5.174   0.179   0.647  0.3515  1.1543  0.7293
 8605TIP3   OH247305   5.698   3.593  14.882 -0.0401  1.0122 -0.1320
 8605TIP3    H147306   5.660   3.512  14.848  1.1672 -0.5846  2.1174
 8605TIP3    H247307   5.786   3.597  14.843  0.8162 -0.0903  1.5882
 8606TIP3   OH247308   0.664   3.061  13.063 -0.0787  0.5708 -0.0224
 8606TIP3    H147309   0.651   3.045  13.157  0.3211 -0.3648 -0.1162
 8606TIP3    H247310   0.577   3.051  13.025 -0.1761  0.5791  0.1958
 8607TIP3   OH247311   0.834   6.313   4.043  0.3913  0.1181  0.4745
 8607TIP3    H147312   0.781   6.259   4.102  0.4611 -1.3587 -0.7989
 8607TIP3    H247313   0.787   6.311   3.960  0.8277  1.3675  0.1777
 8608TIP3   OH247314   0.402   5.244   2.611  0.2149 -0.4028 -0.1242
 8608TIP3    H147315   0.396   5.298   2.533  0.9310 -0.4042 -0.1788
 8608TIP3    H247316   0.315   5.203   2.618 -1.2942  2.8749  1.4736
 8609TIP3   OH247317   2.987   6.755  13.941  0.1989  0.8090 -0.2644
 8609TIP3    H147318   3.014   6.799  13.860  0.8300  1.4475  0.2780
 8609TIP3    H247319   2.902   6.793  13.962  0.8214  1.9014  0.2936
 8610TIP3   OH247320   0.474   1.801  15.583 -0.1047 -0.2400 -0.2358
 8610TIP3    H147321   0.413   1.742  15.541 -0.8884  0.3061  0.1189
 8610TIP3    H247322   0.419   1.868  15.624  0.7795  1.0802 -1.1553
 8611TIP3   OH247323   1.929   2.031   5.534 -0.9163 -0.0461 -0.3040
 8611TIP3    H147324   1.994   2.076   5.588 -0.4526 -2.2883  1.0811
 8611TIP3    H247325   1.966   2.031   5.446  0.5126 -0.4019  0.2831
 8612TIP3   OH247326   5.947   5.850  15.531 -0.6167 -0.0921  0.5252
 8612TIP3    H147327   6.039   5.844  15.503 -0.3618  0.7776  1.1683
 8612TIP3    H247328   5.897   5.836  15.451  0.0795 -0.1974  0.1021
 8613TIP3   OH247329   4.971   1.767  14.825 -0.1957 -0.3124 -1.0379
 8613TIP3    H147330   4.971   1.671  14.829 -0.3772 -0.2771 -0.0528
 8613TIP3    H247331   4.887   1.789  14.785 -2.5689 -0.4298  3.5019
 8614TIP3   OH247332   0.008   3.341   5.320 -0.3882  0.7211 -0.7200
 8614TIP3    H147333   0.011   3.419   5.264  0.8571 -0.3269 -2.1572
 8614TIP3    H247334   0.050   3.368   5.402  1.3625  1.1718 -1.7368
 8615TIP3   OH247335   4.283   3.452  13.702  0.0377  0.0776  0.5796
 8615TIP3    H147336   4.209   3.488  13.654  0.8004 -0.4796 -1.0508
 8615TIP3    H247337   4.256   3.363  13.724  0.2863 -0.1866 -0.1719
 8616TIP3   OH247338   0.231   4.270  16.851  0.1297  0.0218 -0.5014
 8616TIP3    H147339   0.256   4.263  16.943  1.1047 -0.3760 -0.7947
 8616TIP3    H247340   0.276   4.348  16.820  1.2766 -0.8711 -1.1103
 8617TIP3   OH247341   2.469   5.530   0.727 -0.4097 -0.1962  0.7029
 8617TIP3    H147342   2.446   5.442   0.699  1.1273 -0.4531  0.2002
 8617TIP3    H247343   2.463   5.527   0.823  0.5754 -1.1312  0.7454
 8618TIP3   OH247344   4.808   0.570   5.962  0.8186  0.0438  0.5388
 8618TIP3    H147345   4.869   0.617   5.906  0.6095 -0.0847  0.2039
 8618TIP3    H247346   4.772   0.638   6.020  2.1127 -0.0748  1.4972
 8619TIP3   OH247347   5.218   4.256   0.905  0.0514 -0.0328 -0.6163
 8619TIP3    H147348   5.169   4.175   0.893  0.0473 -0.3838  1.6375
 8619TIP3    H247349   5.302   4.229   0.941 -0.1140  0.9907  0.5702
 8620TIP3   OH247350   1.351   2.830   3.247  0.1452 -0.6131  0.3999
 8620TIP3    H147351   1.388   2.909   3.286 -0.4192 -0.2665  0.2359
 8620TIP3    H247352   1.259   2.830   3.275 -0.3863 -0.1075 -1.3128
 8621TIP3   OH247353   1.619   3.548  11.159  0.0822  0.0500 -0.4150
 8621TIP3    H147354   1.661   3.491  11.095 -3.0200 -0.6303 -1.9045
 8621TIP3    H247355   1.589   3.624  11.108 -3.5761 -1.0950 -0.0841
 8622TIP3   OH247356   6.666   3.840   4.988 -0.2336  0.5080 -0.3435
 8622TIP3    H147357   6.607   3.812   4.918  0.4414  1.0874 -1.1429
 8622TIP3    H247358   6.751   3.802   4.966  0.4109  2.1558 -0.8044
 8623TIP3   OH247359   5.136   0.907  11.993 -0.0889  0.1165 -0.3354
 8623TIP3    H147360   5.210   0.885  12.049  0.8950 -0.6254 -1.8944
 8623TIP3    H247361   5.064   0.853  12.025  0.3913 -0.0972  0.3879
 8624TIP3   OH247362   2.419   6.657  16.054 -0.1160 -0.2397 -0.1693
 8624TIP3    H147363   2.422   6.723  16.122  2.2748 -1.6362  1.1427
 8624TIP3    H247364   2.382   6.580  16.096 -1.9856 -0.0794 -1.4310
 8625TIP3   OH247365   2.178   5.053  17.099 -0.4230  0.7474 -0.1186
 8625TIP3    H147366   2.157   5.142  17.071  1.6730  0.7801 -1.7047
 8625TIP3    H247367   2.266   5.060  17.136 -1.5911 -0.0535  2.9866
 8626TIP3   OH247368   2.659   1.861  15.054 -0.0062 -0.1116  0.2284
 8626TIP3    H147369   2.699   1.846  15.139  0.7731 -2.2810 -0.4628
 8626TIP3    H247370   2.702   1.939  15.019 -2.6387  2.7589  3.1347
 8627TIP3   OH247371   0.471   3.376  12.206 -0.1230  0.1591  0.0694
 8627TIP3    H147372   0.455   3.320  12.130  0.5469  0.8522 -0.6021
 8627TIP3    H247373   0.548   3.428  12.181  0.4281  0.0297  1.4287
 8628TIP3   OH247374   3.720   0.740   2.366  0.1773 -0.3290  0.6666
 8628TIP3    H147375   3.779   0.706   2.433  0.0628 -0.1682  0.8500
 8628TIP3    H247376   3.776   0.761   2.292  0.0527 -2.6387 -0.1323
 8629TIP3   OH247377   1.717   3.635   2.025  0.0155 -0.1391  0.4975
 8629TIP3    H147378   1.679   3.563   1.975  0.9350  0.5043 -1.1680
 8629TIP3    H247379   1.797   3.597   2.064 -0.6548 -0.6134  1.4374
 8630TIP3   OH247380   5.460   1.135  13.029 -0.3235 -0.1066 -0.4058
 8630TIP3    H147381   5.396   1.206  13.021 -1.6080 -1.2744 -0.5347
 8630TIP3    H247382   5.432   1.085  13.105  0.2858 -0.7634 -0.6094
 8631TIP3   OH247383   0.229   2.238   6.130  0.5382 -0.3050  0.0803
 8631TIP3    H147384   0.162   2.223   6.196 -0.6350  3.2533 -0.1834
 8631TIP3    H247385   0.305   2.269   6.180 -0.3007  2.2416 -0.1435
 8632TIP3   OH247386   1.357   2.620   3.782 -0.4673  0.3474  0.4489
 8632TIP3    H147387   1.362   2.710   3.812  1.5688  0.4746 -0.1720
 8632TIP3    H247388   1.431   2.577   3.825  0.4762 -0.2536 -1.7469
 8633TIP3   OH247389   0.216   2.334   2.962 -0.0997  0.2384  0.0028
 8633TIP3    H147390   0.155   2.262   2.945  0.0501 -0.0965  0.8624
 8633TIP3    H247391   0.165   2.396   3.015 -0.0806  0.5399 -0.3327
 8634TIP3   OH247392   0.760   5.604  11.872  0.1917  0.7306  0.2267
 8634TIP3    H147393   0.835   5.630  11.818  1.7026 -0.8862  1.4889
 8634TIP3    H247394   0.738   5.683  11.921  0.5195  1.4585 -0.7823
 8635TIP3   OH247395   5.948   2.948   2.484 -0.0485  0.3277  0.0045
 8635TIP3    H147396   5.958   2.906   2.569  0.7524  2.0929  0.7819
 8635TIP3    H247397   5.931   2.875   2.424 -1.1430 -0.8752  1.7395
 8636TIP3   OH247398   5.979   5.709   1.313  0.2936 -0.0154 -0.1077
 8636TIP3    H147399   5.934   5.774   1.366 -2.4018 -0.8403 -1.3276
 8636TIP3    H247400   5.990   5.633   1.371 -1.4683 -0.4343 -0.2886
 8637TIP3   OH247401   6.243   1.647   5.168  0.2396  0.3804 -0.1177
 8637TIP3    H147402   6.158   1.650   5.210  0.1568 -0.4256 -0.2190
 8637TIP3    H247403   6.234   1.705   5.092 -0.0230  0.7704  0.2052
 8638TIP3   OH247404   0.352   2.391   6.700  0.3733 -0.2815  0.0908
 8638TIP3    H147405   0.305   2.339   6.636  0.3743 -0.1274 -0.0370
 8638TIP3    H247406   0.444   2.384   6.673  0.2769  0.5207 -0.4603
 8639TIP3   OH247407   5.220   3.231   6.105  0.5502 -0.3006  0.5138
 8639TIP3    H147408   5.278   3.232   6.181  1.4674  1.2306 -0.1784
 8639TIP3    H247409   5.195   3.323   6.093 -2.5175 -0.9968  1.1675
 8640TIP3   OH247410   1.693   1.969  15.526 -0.4070 -0.4878 -0.1498
 8640TIP3    H147411   1.727   1.880  15.520  0.5093 -0.1379 -0.2442
 8640TIP3    H247412   1.758   2.023  15.480 -0.3932  0.3700  0.8389
 8641TIP3   OH247413   4.995   6.617   4.806 -0.1555 -0.5074 -0.2045
 8641TIP3    H147414   4.924   6.658   4.758 -0.4920  0.5021  1.1137
 8641TIP3    H247415   5.016   6.680   4.876 -1.5591 -3.0885  2.6663
 8642TIP3   OH247416   3.202   1.821   5.328  0.2915  0.1069  0.1896
 8642TIP3    H147417   3.290   1.785   5.336 -0.1412 -0.8100  0.9329
 8642TIP3    H247418   3.178   1.845   5.418  0.0377  0.9756 -0.1019
 8643TIP3   OH247419   0.752   0.953   1.658 -0.5714 -1.0268  0.1574
 8643TIP3    H147420   0.665   0.942   1.620  0.6360 -0.8121 -2.8662
 8643TIP3    H247421   0.760   1.048   1.671 -0.3129 -0.8857 -0.9080
 8644TIP3   OH247422   3.734   2.965   4.127 -0.0717  0.1614  0.2813
 8644TIP3    H147423   3.763   2.978   4.037 -0.6213  1.1340  0.2365
 8644TIP3    H247424   3.698   2.876   4.129  1.2924 -0.4111 -0.0916
 8645TIP3   OH247425   5.754   6.169  14.310 -0.4051  0.0781 -0.3239
 8645TIP3    H147426   5.815   6.229  14.352 -1.9683  0.8006  0.9957
 8645TIP3    H247427   5.700   6.224  14.254 -0.0512 -0.5162 -1.2675
 8646TIP3   OH247428   2.178   1.023   1.193  0.6627 -0.8386  0.7979
 8646TIP3    H147429   2.201   1.036   1.285  1.8247  1.2779  0.2509
 8646TIP3    H247430   2.190   0.930   1.177  0.9994 -1.1165  2.6390
 8647TIP3   OH247431   5.323   0.544   5.515  0.1603  0.8216  0.3478
 8647TIP3    H147432   5.415   0.520   5.502 -0.6635 -1.8432 -0.8514
 8647TIP3    H247433   5.297   0.497   5.594 -0.9021 -0.6437 -0.8575
 8648TIP3   OH247434   0.148   3.963  14.201 -0.0120  0.2583  0.2012
 8648TIP3    H147435   0.059   3.930  14.198  0.0319 -0.1585  2.4890
 8648TIP3    H247436   0.193   3.907  14.264  1.8708  0.4660 -0.9127
 8649TIP3   OH247437   5.444   4.972  16.769 -0.3863 -0.5339  0.0897
 8649TIP3    H147438   5.366   4.957  16.715 -0.1777 -0.1643 -0.3173
 8649TIP3    H247439   5.475   4.884  16.791 -1.0929 -0.6793  0.5111
 8650TIP3   OH247440   2.964   1.795   0.347  0.2324  0.1041 -0.3768
 8650TIP3    H147441   2.889   1.841   0.384  1.0036 -0.0492  1.4393
 8650TIP3    H247442   3.036   1.858   0.353  0.1532  0.4193 -2.5521
 8651TIP3   OH247443   5.185   1.186  12.021  0.0711  0.2931  0.0696
 8651TIP3    H147444   5.168   1.095  11.994  0.4864  0.6711 -1.5151
 8651TIP3    H247445   5.138   1.195  12.104  1.0353 -1.7439  0.8847
 8652TIP3   OH247446   1.395   2.140  13.703 -0.0628  0.0770 -0.2828
 8652TIP3    H147447   1.309   2.103  13.717  0.8117 -2.0555 -0.4221
 8652TIP3    H247448   1.425   2.166  13.790 -0.8018  0.7791 -0.2300
 8653TIP3   OH247449   4.644   1.306   4.048 -0.2505 -0.0138  0.3428
 8653TIP3    H147450   4.736   1.307   4.075 -0.5039  1.5228  1.2228
 8653TIP3    H247451   4.608   1.226   4.087  0.4472 -0.0456  0.9301
 8654TIP3   OH247452   5.969   0.675   2.522  0.2429  0.1481  0.7869
 8654TIP3    H147453   6.040   0.619   2.490 -0.1159  0.8002 -1.2148
 8654TIP3    H247454   5.905   0.676   2.450 -1.2597  0.4980  2.1034
 8655TIP3   OH247455   1.195   2.106   0.796 -0.5123 -0.2886  0.9793
 8655TIP3    H147456   1.269   2.129   0.853  1.4711 -2.7067 -0.4920
 8655TIP3    H247457   1.140   2.050   0.851  0.6739 -1.4821  0.9748
 8656TIP3   OH247458   2.857   5.259  11.107 -0.4016  0.6316 -0.3439
 8656TIP3    H147459   2.765   5.280  11.092 -0.1592  0.6032 -2.0896
 8656TIP3    H247460   2.867   5.259  11.202 -1.9773  1.5794 -0.1556
 8657TIP3   OH247461   2.938   5.694   4.563  0.1739  0.7272 -0.2164
 8657TIP3    H147462   3.009   5.688   4.627 -0.6388 -1.4989  0.4983
 8657TIP3    H247463   2.982   5.719   4.482  1.9050 -1.4279  0.0067
 8658TIP3   OH247464   4.881   4.319   1.454 -0.4942 -0.1195  0.3725
 8658TIP3    H147465   4.902   4.278   1.370 -1.3996 -0.2650  0.2109
 8658TIP3    H247466   4.789   4.296   1.470  0.0490 -1.2127  2.0552
 8659TIP3   OH247467   5.509   1.744   1.318  1.0609  0.0400  0.7258
 8659TIP3    H147468   5.530   1.660   1.278  2.2162 -0.3219  2.0396
 8659TIP3    H247469   5.512   1.806   1.246 -0.2620 -1.1009 -0.3471
 8660TIP3   OH247470   6.648   2.540  17.073 -0.1936  0.4314  0.1469
 8660TIP3    H147471   6.729   2.490  17.068 -0.4313  0.1560 -0.9696
 8660TIP3    H247472   6.616   2.525  17.162 -0.3839 -1.5714 -0.2542
 8661TIP3   OH247473   5.059   4.002  14.551  0.1451  0.3083  0.3459
 8661TIP3    H147474   5.040   3.973  14.640  2.3238 -3.0021 -0.1934
 8661TIP3    H247475   5.151   4.027  14.553  0.5495 -0.9579 -1.2371
 8662TIP3   OH247476   2.343   3.034   4.981  0.1361  0.1515  0.0459
 8662TIP3    H147477   2.380   3.122   4.979  0.8753 -0.1711 -0.3912
 8662TIP3    H247478   2.418   2.976   4.994 -0.3579 -0.4103  0.4308
 8663TIP3   OH247479   3.819   5.400   4.311  0.2112 -0.5261 -0.5915
 8663TIP3    H147480   3.807   5.350   4.231  0.0314 -0.1857 -0.7771
 8663TIP3    H247481   3.878   5.346   4.365  0.0044 -0.9404 -0.7835
 8664TIP3   OH247482   4.183   2.816  15.636 -0.5617  0.2577  0.5540
 8664TIP3    H147483   4.114   2.796  15.572 -0.3759  1.1937  0.0569
 8664TIP3    H247484   4.260   2.836  15.582 -0.4099  1.0846  1.0715
 8665TIP3   OH247485   6.611   4.593  12.649  0.2949  0.0414  0.0445
 8665TIP3    H147486   6.580   4.673  12.692 -0.2569 -1.0510  1.6832
 8665TIP3    H247487   6.690   4.568  12.697 -0.5130 -1.3741  0.6587
 8666TIP3   OH247488   3.385   4.211   5.523 -0.0522  0.0720  0.1854
 8666TIP3    H147489   3.415   4.237   5.436  1.5631  0.0804  0.7267
 8666TIP3    H247490   3.419   4.123   5.535 -2.0624 -0.7637 -0.0122
 8667TIP3   OH247491   1.082   5.673   6.085 -0.4980  1.0184  0.1689
 8667TIP3    H147492   1.065   5.716   6.001  0.6466  0.3373 -0.4237
 8667TIP3    H247493   1.150   5.608   6.066 -1.3942 -0.2888  1.2818
 8668TIP3   OH247494   5.927   5.739   5.902  0.0086 -0.5097  0.0281
 8668TIP3    H147495   5.978   5.737   5.983  2.0380 -3.0374 -1.2423
 8668TIP3    H247496   5.841   5.707   5.927  0.0414  0.5074  1.5283
 8669TIP3   OH247497   4.449   3.643  14.749  0.2114  0.4964  0.1619
 8669TIP3    H147498   4.355   3.640  14.769 -0.0324  0.3533 -0.9751
 8669TIP3    H247499   4.463   3.571  14.688  0.3762  2.6338 -2.4330
 8670TIP3   OH247500   5.943   4.303   3.896  0.3250  0.5730 -0.3995
 8670TIP3    H147501   6.000   4.321   3.971  0.6437 -1.9499 -0.0046
 8670TIP3    H247502   5.957   4.378   3.837 -0.8127  3.1923  2.5207
 8671TIP3   OH247503   4.439   6.811   4.125  0.1801  0.4432  0.3735
 8671TIP3    H147504   4.348   6.838   4.132 -0.4067 -1.1655 -0.5567
 8671TIP3    H247505   4.485   6.889   4.094 -0.8685  1.2700  0.8569
 8672TIP3   OH247506   1.844   5.200  15.816  0.2198 -0.2760 -0.6957
 8672TIP3    H147507   1.932   5.177  15.846  0.8431  3.0249  0.1524
 8672TIP3    H247508   1.800   5.235  15.893  0.2272  3.7602 -2.4010
 8673TIP3   OH247509   6.080   1.936   3.922 -0.2600 -0.4275  0.1277
 8673TIP3    H147510   6.021   2.002   3.886  0.4613  0.0613 -0.1871
 8673TIP3    H247511   6.023   1.875   3.968 -0.8715  0.8917  1.1776
 8674TIP3   OH247512   5.831   1.364  14.103 -0.1349  0.1098 -0.2910
 8674TIP3    H147513   5.803   1.377  14.013 -0.8060 -0.8713 -0.2411
 8674TIP3    H247514   5.816   1.448  14.146 -0.1172  0.4827 -1.0115
 8675TIP3   OH247515   5.429   5.074   4.588  0.2506 -0.7663  0.2185
 8675TIP3    H147516   5.492   5.004   4.574  0.4535 -0.6253  0.4253
 8675TIP3    H247517   5.375   5.074   4.509 -0.4120 -1.8428  0.6575
 8676TIP3   OH247518   2.891   4.461  11.304 -0.0492 -0.3196 -0.4215
 8676TIP3    H147519   2.956   4.400  11.270  0.2083 -0.6504  0.6452
 8676TIP3    H247520   2.834   4.407  11.359  0.4606  0.4795  0.9072
 8677TIP3   OH247521   2.286   2.284   5.799 -0.5772 -0.6157  0.6073
 8677TIP3    H147522   2.293   2.378   5.815  0.6181 -0.5478 -0.2663
 8677TIP3    H247523   2.237   2.278   5.716  0.4015 -0.7180  0.0279
 8678TIP3   OH247524   3.840   1.327   1.443  0.0229 -0.5063  0.3338
 8678TIP3    H147525   3.800   1.252   1.399 -1.3108  0.8378 -0.7860
 8678TIP3    H247526   3.918   1.347   1.392 -0.4586 -0.1719 -0.2718
 8679TIP3   OH247527   2.945   0.402  16.708 -0.8251 -0.2656  0.1306
 8679TIP3    H147528   2.986   0.405  16.622 -1.4271  0.6432 -0.1402
 8679TIP3    H247529   2.966   0.315  16.742  2.8326  0.7913  0.7643
 8680TIP3   OH247530   1.367   1.711  13.739 -0.6743 -0.0488  0.0043
 8680TIP3    H147531   1.312   1.703  13.662 -1.5688  0.0844  0.6212
 8680TIP3    H247532   1.316   1.670  13.809  0.8190 -1.6652  0.1985
 8681TIP3   OH247533   6.745   0.006   0.634  0.5885  0.2939  0.4068
 8681TIP3    H147534   6.776  -0.053   0.565  1.0151  1.6937 -0.6484
 8681TIP3    H247535   6.800  -0.014   0.710 -0.7879 -2.1951  0.7868
 8682TIP3   OH247536   5.967   5.932  16.869  0.2865 -0.5707 -0.6378
 8682TIP3    H147537   5.928   5.960  16.953  3.9318 -0.1476  1.0346
 8682TIP3    H247538   5.957   6.009  16.812 -0.9542 -0.3453 -0.1397
 8683TIP3   OH247539   2.808   5.691   5.173 -0.8736 -0.0807 -0.7710
 8683TIP3    H147540   2.862   5.619   5.203 -2.0538  0.3936  2.7107
 8683TIP3    H247541   2.719   5.654   5.168 -1.1369  0.5726 -0.9961
 8684TIP3   OH247542   1.366   5.291  11.289  0.0616  0.4452  0.4061
 8684TIP3    H147543   1.286   5.276  11.339 -0.0409 -2.4308 -0.4793
 8684TIP3    H247544   1.399   5.203  11.272  1.9604  1.4986 -1.5622
 8685TIP3   OH247545   4.570   3.683  12.141 -0.4887 -0.2555  0.2621
 8685TIP3    H147546   4.586   3.642  12.226 -0.3305  2.2111  1.4676
 8685TIP3    H247547   4.581   3.777  12.157 -2.5718  0.4329 -2.0043
 8686TIP3   OH247548   5.244   2.909   4.129  0.0296 -0.2069 -0.2112
 8686TIP3    H147549   5.177   2.841   4.139 -0.8275  0.7288  0.4464
 8686TIP3    H247550   5.243   2.929   4.035  0.5712 -1.3704 -0.4847
 8687TIP3   OH247551   6.331   5.687   5.441  0.3120  0.0372 -0.3359
 8687TIP3    H147552   6.336   5.777   5.475 -1.0456 -0.5492  1.5154
 8687TIP3    H247553   6.270   5.692   5.368  0.8030  0.7532 -0.7015
 8688TIP3   OH247554   6.563   4.826  17.235  0.5676 -0.7996  0.4250
 8688TIP3    H147555   6.521   4.798  17.154 -0.1827  0.4442  0.3773
 8688TIP3    H247556   6.492   4.835  17.298  0.5755  2.3329  0.0581
 8689TIP3   OH247557   5.547   5.064  13.663 -0.5044  0.0969  0.6904
 8689TIP3    H147558   5.547   4.972  13.636 -2.4652  0.1142  0.5618
 8689TIP3    H247559   5.493   5.108  13.598 -0.4498  1.1682  1.3665
 8690TIP3   OH247560   2.314   0.745   4.142 -0.1322 -0.1760  0.1907
 8690TIP3    H147561   2.377   0.816   4.138  1.4504 -1.5342  0.4547
 8690TIP3    H247562   2.319   0.703   4.056 -1.0341 -0.0140  0.0460
 8691TIP3   OH247563   1.187   2.907   4.923  0.4083  0.3529 -0.3885
 8691TIP3    H147564   1.225   2.859   4.850 -0.0867 -0.9704  0.2191
 8691TIP3    H247565   1.236   2.878   5.000 -0.4682  0.1579  0.1066
 8692TIP3   OH247566   3.336   0.318  12.067  0.0323  0.0430  0.2399
 8692TIP3    H147567   3.344   0.275  11.982 -1.8049  1.4617 -0.6788
 8692TIP3    H247568   3.365   0.408  12.052 -0.9909  0.5007  0.9340
 8693TIP3   OH247569   3.247   1.834   4.350  0.8889  0.7211 -0.2077
 8693TIP3    H147570   3.221   1.748   4.384  0.8040  0.9582  0.3238
 8693TIP3    H247571   3.335   1.848   4.384  0.1184  1.7531  1.4129
 8694TIP3   OH247572   4.288   4.291  14.737  0.2046  0.0914  0.4340
 8694TIP3    H147573   4.265   4.258  14.651 -2.0300 -0.6902  1.2907
 8694TIP3    H247574   4.213   4.344  14.763  1.7493  2.0268  1.0448
 8695TIP3   OH247575   6.788   3.821   0.982 -0.1533 -0.5699 -0.6920
 8695TIP3    H147576   6.692   3.827   0.982 -0.1198  0.7687  1.6414
 8695TIP3    H247577   6.817   3.912   0.994  1.4285 -0.9170 -1.7503
 8696TIP3   OH247578   4.136   4.050  13.656 -0.0127  0.1981  0.1501
 8696TIP3    H147579   4.128   4.093  13.571  2.9102  2.3023  0.8276
 8696TIP3    H247580   4.080   4.101  13.714 -0.0489  0.3311 -0.0005
 8697TIP3   OH247581   2.642   5.472  17.290 -0.6434  0.6409 -0.4107
 8697TIP3    H147582   2.662   5.474  17.197  0.9186  0.9529 -0.0825
 8697TIP3    H247583   2.664   5.383  17.318 -0.7645  0.6542 -0.2686
 8698TIP3   OH247584   5.584   2.997  13.653  0.0365 -0.7703  0.5886
 8698TIP3    H147585   5.494   3.027  13.639  0.2711 -1.0623 -1.7455
 8698TIP3    H247586   5.634   3.077  13.666 -0.4635 -0.5753  1.3507
 8699TIP3   OH247587   4.014   1.994   0.324 -0.1465 -0.2303  0.3172
 8699TIP3    H147588   3.953   1.946   0.379 -0.0018 -0.7884 -0.0045
 8699TIP3    H247589   3.975   1.992   0.237  0.8384 -1.4899 -0.1023
 8700TIP3   OH247590   2.496   0.810  12.379 -0.2134  0.2019  0.2518
 8700TIP3    H147591   2.551   0.786  12.305  1.2688  3.5163  0.1824
 8700TIP3    H247592   2.551   0.868  12.432 -2.6581  1.2721  1.6992
 8701TIP3   OH247593   1.472   3.505   5.976  0.0872 -0.1263  0.2210
 8701TIP3    H147594   1.378   3.499   5.957  0.2430  0.2789 -0.7151
 8701TIP3    H247595   1.508   3.554   5.902  0.6625  1.8380  1.7749
 8702TIP3   OH247596   5.832   2.097   5.060 -0.1848 -0.1745 -0.3768
 8702TIP3    H147597   5.857   2.174   5.010  0.8865  0.4204  1.0252
 8702TIP3    H247598   5.890   2.099   5.137 -0.3410 -2.2066 -0.1828
 8703TIP3   OH247599   4.436   2.714  12.253  0.1477  0.0806  0.0664
 8703TIP3    H147600   4.477   2.797  12.279  1.3453 -0.2097 -0.8188
 8703TIP3    H247601   4.507   2.651  12.254 -0.1264 -0.3101 -2.1067
 8704TIP3   OH247602   5.625   0.813  16.061 -0.3247 -0.4563 -0.6058
 8704TIP3    H147603   5.598   0.722  16.050 -1.2441 -0.1010 -1.3922
 8704TIP3    H247604   5.616   0.851  15.974  1.7221 -0.0373 -0.6605
 8705TIP3   OH247605   4.506   5.146  10.534 -0.2636 -0.6764  0.4711
 8705TIP3    H147606   4.498   5.224  10.589 -0.1456  1.1634 -2.0588
 8705TIP3    H247607   4.418   5.108  10.535 -0.8758  0.6956 -0.0164
 8706TIP3   OH247608   6.550   1.468  10.862  0.4544  0.3011  0.5930
 8706TIP3    H147609   6.479   1.522  10.898  0.6860  0.2625  1.1203
 8706TIP3    H247610   6.561   1.398  10.926 -1.4045 -1.7064 -1.2214
 8707TIP3   OH247611   6.482   6.499  14.014  0.0499  0.2771 -0.2142
 8707TIP3    H147612   6.431   6.481  13.935 -1.5796  0.1599  0.8380
 8707TIP3    H247613   6.512   6.589  14.003 -2.6198  1.2832  0.3151
 8708TIP3   OH247614   6.375   2.600   2.495  0.2520 -0.2646 -0.9383
 8708TIP3    H147615   6.308   2.617   2.561  1.1526  0.7066 -0.2506
 8708TIP3    H247616   6.447   2.659   2.518  1.7990 -2.0544 -1.0088
 8709TIP3   OH247617   3.266   4.395   2.736 -1.2268  0.1626  0.3568
 8709TIP3    H147618   3.287   4.477   2.779  3.6236 -1.1542  0.7705
 8709TIP3    H247619   3.216   4.420   2.658  0.5195  3.5128  0.2653
 8710TIP3   OH247620   2.614   1.044  12.483  0.2814  0.0003  0.1706
 8710TIP3    H147621   2.663   1.085  12.554 -0.7834  1.5757  0.0201
 8710TIP3    H247622   2.607   1.112  12.416 -1.3549 -0.4749 -0.1625
 8711TIP3   OH247623   6.705   1.237  12.038  0.0446 -0.1579  0.5850
 8711TIP3    H147624   6.686   1.266  11.948  1.2461  0.7311  0.6133
 8711TIP3    H247625   6.618   1.224  12.077 -0.4956 -0.9319 -0.8148
 8712TIP3   OH247626   1.218   0.771  16.902  0.1995  0.1277 -0.1937
 8712TIP3    H147627   1.228   0.738  16.813  0.8733  2.0407 -0.8363
 8712TIP3    H247628   1.256   0.858  16.900  0.4553  0.0952  2.0375
 8713TIP3   OH247629   2.415   3.119  15.301 -0.2017 -0.7644  0.2786
 8713TIP3    H147630   2.406   3.105  15.206 -0.4444 -1.1337  0.3538
 8713TIP3    H247631   2.474   3.193  15.309  1.4443 -2.0011 -0.1250
 8714TIP3   OH247632   5.696   6.638   2.829 -0.0917  0.1189 -0.0353
 8714TIP3    H147633   5.680   6.620   2.736  0.1690 -1.5278  0.2253
 8714TIP3    H247634   5.608   6.650   2.866 -0.2363  0.0540 -0.3557
 8715TIP3   OH247635   2.715   1.629  11.088  0.2910  0.2222  0.4217
 8715TIP3    H147636   2.710   1.602  10.996  1.1527 -1.6572  0.9039
 8715TIP3    H247637   2.805   1.661  11.099  0.4382 -0.3177  0.8096
 8716TIP3   OH247638   1.375   3.854   1.184  0.2042  0.1820 -0.6318
 8716TIP3    H147639   1.338   3.783   1.133  1.9170 -1.3551  0.2191
 8716TIP3    H247640   1.313   3.868   1.256 -0.3938 -0.0802 -1.0996
 8717TIP3   OH247641   5.560   4.528   5.090  0.0488  0.2391  0.6121
 8717TIP3    H147642   5.652   4.508   5.109  0.0614  1.1430  1.5261
 8717TIP3    H247643   5.515   4.444   5.099  0.6148 -0.0053  1.1946
 8718TIP3   OH247644   1.410   4.786   4.166  0.0295 -0.1438  0.2932
 8718TIP3    H147645   1.378   4.773   4.077 -1.1529 -2.0569  0.9545
 8718TIP3    H247646   1.425   4.697   4.199  2.1909  0.5879  1.3900
 8719TIP3   OH247647   4.298   1.335   3.816  0.2666 -0.0332  0.0485
 8719TIP3    H147648   4.376   1.386   3.834 -1.0197  1.1290  2.6921
 8719TIP3    H247649   4.293   1.272   3.888 -0.4217 -1.1006 -0.9121
 8720TIP3   OH247650   1.157   3.877  12.815  0.4111  0.3182 -0.1452
 8720TIP3    H147651   1.157   3.784  12.793 -3.5363  0.1052  0.3223
 8720TIP3    H247652   1.148   3.878  12.911  0.8043  1.1931 -0.1178
 8721TIP3   OH247653   5.020   1.363   1.085 -0.4335  0.0011 -0.1269
 8721TIP3    H147654   4.979   1.449   1.090 -0.8795 -0.2615  1.1730
 8721TIP3    H247655   5.112   1.379   1.104 -0.5362  0.1921  0.2270
 8722TIP3   OH247656   2.359   0.875   4.992 -0.0339 -0.0699  0.3883
 8722TIP3    H147657   2.352   0.960   5.037  1.2039 -0.0050  0.4532
 8722TIP3    H247658   2.410   0.820   5.052 -0.3614 -0.6954  0.0968
 8723TIP3   OH247659   4.459   0.372  16.559 -0.1227  0.5045  0.2975
 8723TIP3    H147660   4.555   0.374  16.554 -0.1051  1.0756  0.8041
 8723TIP3    H247661   4.430   0.391  16.470  0.2345  1.1765  0.3206
 8724TIP3   OH247662   3.338   2.711  16.583  0.1303  0.2152 -0.4494
 8724TIP3    H147663   3.314   2.708  16.491  0.5436  1.6410 -0.6074
 8724TIP3    H247664   3.433   2.727  16.583  0.2803 -0.6329  0.2170
 8725TIP3   OH247665   0.669   2.192  15.046  0.2731  0.3408  0.0177
 8725TIP3    H147666   0.660   2.274  14.996 -0.6416  0.2761  0.0630
 8725TIP3    H247667   0.655   2.218  15.137 -2.0815 -0.1955 -0.1764
 8726TIP3   OH247668   6.055   4.719  15.656  0.2602  0.8627 -0.4150
 8726TIP3    H147669   6.002   4.711  15.577  0.3256 -0.9391 -0.3021
 8726TIP3    H247670   6.027   4.646  15.711  0.2089  2.1141  1.2422
 8727TIP3   OH247671   5.257   1.877   1.929 -0.0472 -0.5997  0.2318
 8727TIP3    H147672   5.278   1.836   2.013  0.8666 -0.6065  0.0054
 8727TIP3    H247673   5.277   1.970   1.942 -0.9673 -0.4152  0.3665
 8728TIP3   OH247674   3.847   2.054   4.241 -0.0973 -0.3106  0.7079
 8728TIP3    H147675   3.943   2.053   4.238 -0.1144  0.9530 -1.2613
 8728TIP3    H247676   3.823   2.138   4.202 -1.9932 -0.1960  2.0751
 8729TIP3   OH247677   0.536   3.217   3.796 -0.2345 -0.0640  0.1065
 8729TIP3    H147678   0.505   3.236   3.885  0.7271 -1.1388  0.6958
 8729TIP3    H247679   0.593   3.141   3.807  1.3727  0.9102 -1.1580
 8730TIP3   OH247680   5.537   3.930   0.731 -0.0522 -0.0792  0.0459
 8730TIP3    H147681   5.630   3.924   0.713  0.3564  2.1649  1.2138
 8730TIP3    H247682   5.497   3.957   0.648  0.7891  2.2196  0.3458
 8731TIP3   OH247683   1.561   3.819   3.985  0.3597  0.5174  0.2308
 8731TIP3    H147684   1.634   3.772   3.945  0.6459  0.6214  0.6169
 8731TIP3    H247685   1.483   3.770   3.959  0.6733 -0.3161  0.8338
 8732TIP3   OH247686   0.039   3.469   3.339 -0.2368 -0.0977  0.1794
 8732TIP3    H147687  -0.011   3.508   3.268 -0.8893  0.9168  1.1789
 8732TIP3    H247688   0.109   3.420   3.295 -1.1215 -0.1763 -1.1735
 8733TIP3   OH247689   0.176   2.213   2.271 -0.4997 -0.0181  0.0661
 8733TIP3    H147690   0.189   2.183   2.361  1.4330 -0.5344 -0.3713
 8733TIP3    H247691   0.090   2.178   2.247 -0.0193 -1.8515  0.9347
 8734TIP3   OH247692   5.027   0.544  13.071 -0.1238  0.5978  0.1964
 8734TIP3    H147693   5.096   0.595  13.113  1.5632 -1.5773  0.1524
 8734TIP3    H247694   4.960   0.535  13.138  0.6724  0.7445  1.0326
 8735TIP3   OH247695   0.488   3.638   0.195 -0.5490  0.2651 -0.0311
 8735TIP3    H147696   0.447   3.560   0.157 -1.1949  0.6910 -0.2203
 8735TIP3    H247697   0.420   3.677   0.250 -0.7206  1.4643 -1.0364
 8736TIP3   OH247698   2.191   0.653  16.992 -0.4010 -0.1306  0.5408
 8736TIP3    H147699   2.162   0.575  16.944  0.7576 -0.6550  0.6695
 8736TIP3    H247700   2.219   0.619  17.077 -0.0033  0.4408  0.6443
 8737TIP3   OH247701   6.469   2.886   0.445  0.4453  0.0101 -0.4952
 8737TIP3    H147702   6.428   2.897   0.531 -0.8980  0.2308 -1.1482
 8737TIP3    H247703   6.463   2.793   0.427 -0.0705  0.0897 -0.7360
 8738TIP3   OH247704   0.967   2.083  11.779  0.5346 -0.1906  0.1452
 8738TIP3    H147705   0.961   2.026  11.856 -0.8718  0.6363  0.6716
 8738TIP3    H247706   0.875   2.099  11.755  0.9179  1.4934 -0.2586
 8739TIP3   OH247707   6.302   3.300   2.267  0.1769  0.4491  0.2021
 8739TIP3    H147708   6.272   3.319   2.356 -1.1335 -0.8583  0.0709
 8739TIP3    H247709   6.251   3.223   2.241  1.5383 -0.0206 -1.1717
 8740TIP3   OH247710   2.229   0.243  15.059 -0.1468  0.3982 -0.1563
 8740TIP3    H147711   2.180   0.243  15.141  1.0431  0.5258  0.5565
 8740TIP3    H247712   2.317   0.214  15.083  0.7150  2.1715 -1.0928
 8741TIP3   OH247713   1.258   5.056   6.580 -0.0076  0.1736  0.5055
 8741TIP3    H147714   1.219   5.051   6.667  0.3124 -0.2303  0.6293
 8741TIP3    H247715   1.308   5.137   6.582  0.0128  0.1577  0.7064
 8742TIP3   OH247716   1.000   1.821   2.585 -0.1123 -0.1396  0.1343
 8742TIP3    H147717   1.050   1.842   2.507  0.0779 -1.5424 -0.1280
 8742TIP3    H247718   1.045   1.867   2.656 -0.5475  1.5041 -0.6235
 8743TIP3   OH247719   3.382   1.303   0.115  0.8836  0.3787 -1.2150
 8743TIP3    H147720   3.358   1.344   0.198  0.4752 -0.6407 -0.8201
 8743TIP3    H247721   3.298   1.290   0.070  0.9542 -0.5331 -1.0912
 8744TIP3   OH247722   4.050   1.320   0.049  0.1961 -0.3677 -0.4208
 8744TIP3    H147723   4.136   1.361   0.058 -0.1788  0.2637  0.3708
 8744TIP3    H247724   4.015   1.356  -0.033  1.3724 -1.9224 -1.6190
 8745TIP3   OH247725   5.983   5.239   5.271  0.4253 -0.7787  0.3715
 8745TIP3    H147726   5.902   5.229   5.321  1.3698 -0.0316  2.1106
 8745TIP3    H247727   5.993   5.155   5.226 -1.1684 -0.9738  0.3535
 8746TIP3   OH247728   1.505   2.081  13.156  0.5535 -0.2927  0.6681
 8746TIP3    H147729   1.457   2.074  13.239 -0.0876 -0.6457  0.2736
 8746TIP3    H247730   1.586   2.033  13.171  1.1150  0.9123  1.5782
 8747TIP3   OH247731   1.852   0.396   2.618 -0.0803  0.2740  0.1678
 8747TIP3    H147732   1.882   0.487   2.619 -2.6278  1.1618  1.0772
 8747TIP3    H247733   1.844   0.374   2.525  0.8549  0.8719 -0.0565
 8748TIP3   OH247734   2.386   5.463   2.131 -0.4242 -0.1829 -0.2253
 8748TIP3    H147735   2.310   5.414   2.164 -0.1598 -0.1179  0.4819
 8748TIP3    H247736   2.450   5.460   2.203 -0.0469  0.4087 -0.5348
 8749TIP3   OH247737   2.140   2.231   5.165 -0.0354 -0.2715  0.6239
 8749TIP3    H147738   2.123   2.299   5.100  1.4555  0.4532  0.9603
 8749TIP3    H247739   2.230   2.247   5.193 -0.3253 -1.1856  2.1455
 8750TIP3   OH247740   2.382   2.514  15.224  0.2397 -0.1263 -0.2702
 8750TIP3    H147741   2.325   2.445  15.257 -1.2982  0.6086 -1.3401
 8750TIP3    H247742   2.339   2.545  15.144  1.3849  1.4331 -0.3087
 8751TIP3   OH247743   4.338   2.334   2.385 -0.1477  0.5392  0.1344
 8751TIP3    H147744   4.310   2.337   2.294 -0.8649  1.7774  0.3825
 8751TIP3    H247745   4.434   2.335   2.381 -0.1748  1.7337 -0.5846
 8752TIP3   OH247746   6.342   5.529   4.831 -0.1311  0.1245  0.0137
 8752TIP3    H147747   6.271   5.573   4.784 -0.3814 -0.7222 -0.4232
 8752TIP3    H247748   6.369   5.458   4.772  0.5116 -0.0779  0.5401
 8753TIP3   OH247749   1.812   0.170   0.963  0.2044  0.0637 -0.7356
 8753TIP3    H147750   1.809   0.226   0.886 -0.8747  0.4781 -0.3944
 8753TIP3    H247751   1.875   0.213   1.021  0.4703  0.1390 -1.0755
 8754TIP3   OH247752   1.441   6.056   4.034 -0.1548 -0.1323 -0.9488
 8754TIP3    H147753   1.424   5.998   4.109  0.1041  0.1180 -0.6931
 8754TIP3    H247754   1.457   6.142   4.074  1.1187 -0.2405 -1.2188
 8755TIP3   OH247755   1.782   4.323  13.028  0.1465 -0.5917  0.2651
 8755TIP3    H147756   1.772   4.241  13.077 -0.1680 -0.1317  0.9822
 8755TIP3    H247757   1.745   4.304  12.942  1.7616 -1.7609 -0.1842
 8756TIP3   OH247758   4.355   2.055   4.102  0.1197  0.1928 -0.2931
 8756TIP3    H147759   4.348   2.110   4.180 -0.0322 -0.5523  0.2328
 8756TIP3    H247760   4.418   2.099   4.047 -0.0231  0.9085  0.1074
 8757TIP3   OH247761   2.029   0.833   6.785 -0.2425 -0.8508  0.1796
 8757TIP3    H147762   2.122   0.817   6.801 -0.3544 -0.7096  0.9733
 8757TIP3    H247763   2.016   0.924   6.810 -0.1627 -0.2535 -1.8691
 8758TIP3   OH247764   0.918   0.547  12.949  0.5738  0.1686  0.4761
 8758TIP3    H147765   0.872   0.608  13.006  0.6270  0.7662 -0.1240
 8758TIP3    H247766   0.972   0.495  13.009  0.5757  0.7448  0.9789
 8759TIP3   OH247767   2.270   6.466   0.279 -0.1213  0.4830  0.0340
 8759TIP3    H147768   2.363   6.455   0.261  0.0645  0.4841  1.0123
 8759TIP3    H247769   2.228   6.396   0.228  0.8509 -3.0861  3.9101
 8760TIP3   OH247770   0.843   2.922  11.535 -0.3943 -0.3890 -0.0997
 8760TIP3    H147771   0.835   3.014  11.560  0.9587 -0.0993 -0.6797
 8760TIP3    H247772   0.814   2.873  11.612 -2.1119  0.5072 -0.1332
 8761TIP3   OH247773   0.410   6.352   2.657  0.1264 -0.0306 -0.2203
 8761TIP3    H147774   0.359   6.352   2.738  0.3401 -1.6287 -0.0561
 8761TIP3    H247775   0.480   6.289   2.673  1.5536  1.3678 -0.8182
 8762TIP3   OH247776   6.081   5.579  14.199 -0.0142  0.1262  0.1328
 8762TIP3    H147777   6.025   5.640  14.151  0.0435  0.3797  0.3859
 8762TIP3    H247778   6.167   5.587  14.158  0.4934  1.7063  1.4625
 8763TIP3   OH247779   2.772   2.875   5.297  0.3896 -0.0938  0.3143
 8763TIP3    H147780   2.801   2.926   5.373  0.7192  0.3298 -0.0914
 8763TIP3    H247781   2.783   2.934   5.223  0.3744 -0.6129 -0.1059
 8764TIP3   OH247782   2.753   6.629   4.648 -0.1746 -0.1308  0.0478
 8764TIP3    H147783   2.798   6.575   4.713  0.1908  0.9331  0.6941
 8764TIP3    H247784   2.699   6.568   4.599  0.3941 -1.1100  0.6379
 8765TIP3   OH247785   0.402   4.271  17.104 -0.1300 -0.0491 -0.1752
 8765TIP3    H147786   0.436   4.188  17.137 -1.3235 -0.1184  0.9382
 8765TIP3    H247787   0.337   4.299  17.170 -0.2820  1.3917 -0.9001
 8766TIP3   OH247788   0.747   3.994   3.979  0.3020 -0.3680  0.5464
 8766TIP3    H147789   0.672   3.976   3.922  1.5994  2.5155 -2.1856
 8766TIP3    H247790   0.708   4.030   4.059 -1.2538  2.0202 -1.2031
 8767TIP3   OH247791   5.409   4.571   3.164  0.5284  0.1508 -0.7294
 8767TIP3    H147792   5.447   4.484   3.154 -0.3772 -0.1546 -1.6993
 8767TIP3    H247793   5.314   4.556   3.166  0.3410  1.1483 -1.3848
 8768TIP3   OH247794   1.442   2.503  11.861  0.0952  0.5317 -0.0674
 8768TIP3    H147795   1.386   2.510  11.784  0.3589  3.3092 -0.0540
 8768TIP3    H247796   1.478   2.591  11.873  0.9364 -0.1126  2.5710
 8769TIP3   OH247797   2.648   2.393  13.741 -0.2757 -0.2974 -0.1535
 8769TIP3    H147798   2.599   2.457  13.792  2.6379  1.1462  0.9133
 8769TIP3    H247799   2.667   2.438  13.658 -2.0146 -1.4105 -1.1961
 8770TIP3   OH247800   2.679   4.606   1.751  0.7395  0.5366  0.5436
 8770TIP3    H147801   2.761   4.605   1.800 -0.1998  0.9513  2.1620
 8770TIP3    H247802   2.630   4.530   1.784  1.0791 -0.6138 -1.5054
 8771TIP3   OH247803   3.344   0.301   3.719  0.1328 -0.3645 -0.5863
 8771TIP3    H147804   3.341   0.340   3.806 -0.6919  0.9033 -1.1687
 8771TIP3    H247805   3.285   0.355   3.666  0.9624 -0.8490 -2.0380
 8772TIP3   OH247806   5.428   4.651  14.126 -0.0814  0.1414 -0.5952
 8772TIP3    H147807   5.443   4.685  14.038  2.2673  1.0876  0.1164
 8772TIP3    H247808   5.511   4.609  14.149 -1.1029 -1.2187  0.6829
 8773TIP3   OH247809   5.592   1.212  15.272 -0.5383 -0.0480  0.1022
 8773TIP3    H147810   5.496   1.210  15.278 -0.4267 -0.6108  2.2167
 8773TIP3    H247811   5.620   1.245  15.358  1.1550  0.5513 -0.6571
 8774TIP3   OH247812   2.795   5.283   2.147  0.0649  0.3263 -0.3219
 8774TIP3    H147813   2.815   5.335   2.070 -0.4147  2.0982  0.7143
 8774TIP3    H247814   2.806   5.344   2.221 -2.7153 -0.3815  0.7561
 8775TIP3   OH247815   3.103   5.625   0.321  0.1702 -0.4937  0.1413
 8775TIP3    H147816   3.151   5.708   0.321  0.7095 -0.7413 -2.7813
 8775TIP3    H247817   3.014   5.648   0.294  0.1128 -0.7677  0.0929
 8776TIP3   OH247818   3.428   4.144  17.100 -0.1978  0.0599  0.2184
 8776TIP3    H147819   3.450   4.095  17.179  0.7661 -0.0311 -0.0948
 8776TIP3    H247820   3.504   4.200  17.085  0.0035 -0.5779 -1.1580
 8777TIP3   OH247821   0.793   3.832   4.707  0.2867 -0.2976 -0.0090
 8777TIP3    H147822   0.708   3.788   4.695 -0.4268  1.0176  0.1538
 8777TIP3    H247823   0.776   3.900   4.771  1.3863  0.2430 -0.2763
 8778TIP3   OH247824   0.876   4.478   0.111 -0.2114 -0.5813 -0.3121
 8778TIP3    H147825   0.964   4.441   0.121 -1.0750 -2.4905  0.4841
 8778TIP3    H247826   0.841   4.434   0.033 -0.5929 -0.1126 -0.4023
 8779TIP3   OH247827   3.782   5.771  15.053 -0.5330 -0.1874  0.5849
 8779TIP3    H147828   3.860   5.757  15.000  1.1320 -0.5059  3.0513
 8779TIP3    H247829   3.710   5.775  14.989  1.5812  1.0887 -1.8120
 8780TIP3   OH247830   3.592   3.148  16.099 -0.1525  0.4625  0.2042
 8780TIP3    H147831   3.583   3.057  16.072  1.7098  0.7471 -1.5625
 8780TIP3    H247832   3.503   3.184  16.094 -0.8709 -1.2067  0.7974
 8781TIP3   OH247833   2.028   1.230   4.335 -0.4488  0.9972 -0.6022
 8781TIP3    H147834   1.963   1.195   4.396  1.0904 -1.1182 -0.0865
 8781TIP3    H247835   2.073   1.299   4.383  1.2340 -1.1305  1.0082
 8782TIP3   OH247836   4.401   4.191  14.193  0.1273  0.8955  0.0256
 8782TIP3    H147837   4.344   4.191  14.117 -0.3699 -1.2086  0.3845
 8782TIP3    H247838   4.490   4.184  14.157 -0.1285 -0.4904 -0.3583
 8783TIP3   OH247839   4.269   5.541   1.983  0.1936  0.0124 -0.2568
 8783TIP3    H147840   4.195   5.594   2.012  1.1237  0.7313  0.8838
 8783TIP3    H247841   4.346   5.597   1.999  1.0960 -1.2633 -0.0816
 8784TIP3   OH247842   6.014   6.558  16.682 -0.0474  0.3148  0.8655
 8784TIP3    H147843   6.020   6.643  16.727  1.2844  0.5911  0.1861
 8784TIP3    H247844   5.980   6.498  16.749 -0.2349  1.2045  1.5844
 8785TIP3   OH247845   6.053   4.536   2.580 -0.0915 -0.0737  0.0543
 8785TIP3    H147846   6.120   4.525   2.648  0.3684  0.6690 -0.2745
 8785TIP3    H247847   5.972   4.503   2.620  0.7913 -2.5972 -0.1290
 8786TIP3   OH247848   6.770   3.089  11.840 -0.1696  0.1571 -0.3269
 8786TIP3    H147849   6.710   3.136  11.783  0.7239 -0.2326 -1.6145
 8786TIP3    H247850   6.733   3.098  11.928 -1.2888  1.1882 -0.9026
 8787TIP3   OH247851   3.802   0.532   2.560  0.2954  0.2514  0.0036
 8787TIP3    H147852   3.838   0.504   2.476 -0.0851  0.0165 -0.0804
 8787TIP3    H247853   3.814   0.457   2.619 -0.4863  0.0014 -0.1526
 8788TIP3   OH247854   1.801   2.391   4.420  0.1221 -0.0750  0.3509
 8788TIP3    H147855   1.714   2.352   4.430  0.7545 -1.5569  0.2092
 8788TIP3    H247856   1.852   2.356   4.493  1.5098 -1.8080 -1.4018
 8789TIP3   OH247857   5.686   6.084  16.242  0.0300 -0.2124  0.3576
 8789TIP3    H147858   5.657   6.120  16.326 -0.0968 -0.4787  0.4292
 8789TIP3    H247859   5.616   6.023  16.217 -0.6873  1.0414 -0.7079
 8790TIP3   OH247860   1.037   6.783  13.664  0.0515  0.1115  0.2703
 8790TIP3    H147861   1.127   6.802  13.639 -0.8929  4.0813 -0.4177
 8790TIP3    H247862   0.993   6.761  13.582  0.0262 -0.2414  0.3776
 8791TIP3   OH247863   0.371   3.735   6.129 -0.7699 -0.5729  0.3853
 8791TIP3    H147864   0.294   3.745   6.186 -1.1137  0.0904 -0.1890
 8791TIP3    H247865   0.444   3.722   6.189 -1.3942 -1.6073  0.9278
 8792TIP3   OH247866   4.204   0.289   5.365 -0.2880 -0.4382 -0.5000
 8792TIP3    H147867   4.131   0.351   5.359 -0.8334 -1.1590 -1.2990
 8792TIP3    H247868   4.247   0.312   5.448  0.6303  2.2150 -1.6685
 8793TIP3   OH247869   3.275   1.370   1.174 -0.2226  0.7274 -0.2174
 8793TIP3    H147870   3.190   1.356   1.132  1.0365 -2.2380 -1.9836
 8793TIP3    H247871   3.261   1.343   1.265 -0.4566 -2.8997 -1.2353
 8794TIP3   OH247872   3.289   5.773   1.269  0.3129 -0.6480  0.3747
 8794TIP3    H147873   3.273   5.816   1.353  0.0283 -0.3205  0.1541
 8794TIP3    H247874   3.276   5.842   1.204 -1.4554 -1.3780 -0.0723
 8795TIP3   OH247875   6.611   2.060  12.700 -0.5555  0.1564  0.9064
 8795TIP3    H147876   6.541   2.082  12.638  0.0808 -1.3203 -0.3516
 8795TIP3    H247877   6.666   2.138  12.702 -0.2450 -0.0035 -0.8620
 8796TIP3   OH247878   5.469   4.835   3.273  0.8356 -0.2497 -0.0561
 8796TIP3    H147879   5.481   4.822   3.367 -0.9246 -1.4326  0.0168
 8796TIP3    H247880   5.432   4.753   3.242 -0.0028  0.6710 -1.5320
 8797TIP3   OH247881   6.485   5.215   1.803  0.1796  0.0220  0.3671
 8797TIP3    H147882   6.474   5.163   1.723  1.1181 -1.0326  0.9140
 8797TIP3    H247883   6.535   5.292   1.775  0.2394 -0.1923 -0.1188
 8798TIP3   OH247884   4.820   2.513   2.471  0.3214  0.2249 -0.1537
 8798TIP3    H147885   4.823   2.485   2.380  1.4636 -0.2341  0.0252
 8798TIP3    H247886   4.871   2.448   2.519  2.6945  2.3494  0.3211
 8799TIP3   OH247887   4.255   3.663   0.619 -0.2033  0.7100  0.3119
 8799TIP3    H147888   4.246   3.756   0.638 -0.0318  0.4703  1.5947
 8799TIP3    H247889   4.338   3.638   0.660 -0.4844 -0.1123  0.3821
 8800TIP3   OH247890   3.860   1.209  15.562 -0.5241 -0.0261  0.2973
 8800TIP3    H147891   3.850   1.128  15.613 -0.9501  1.1829  2.1988
 8800TIP3    H247892   3.954   1.214  15.545 -0.2177  0.0875  1.9137
 8801TIP3   OH247893   0.563   6.019  16.586  0.2022  0.0609 -0.3255
 8801TIP3    H147894   0.614   5.941  16.565  0.1670  0.1883 -0.9102
 8801TIP3    H247895   0.488   6.015  16.527 -0.6554 -0.3056  0.7713
 8802TIP3   OH247896   1.671   1.120   4.367  0.6571 -0.2453  0.4616
 8802TIP3    H147897   1.598   1.058   4.372 -1.2694  2.0081  1.5463
 8802TIP3    H247898   1.707   1.107   4.280 -0.0396 -2.5101  0.4798
 8803TIP3   OH247899   0.815   2.355  11.684 -0.4554 -0.4932 -0.5031
 8803TIP3    H147900   0.781   2.267  11.703 -0.1884 -0.3826  0.5083
 8803TIP3    H247901   0.737   2.407  11.665 -0.6198 -0.9292 -1.0723
 8804TIP3   OH247902   4.584   5.618  15.527  0.2233  0.1220 -1.0797
 8804TIP3    H147903   4.585   5.667  15.445  0.8913  0.5322 -0.8276
 8804TIP3    H247904   4.675   5.618  15.557 -0.0414  0.1349 -0.2462
 8805TIP3   OH247905   5.821   3.163  15.347  0.7687  0.0856  0.3608
 8805TIP3    H147906   5.770   3.085  15.368  1.7394 -0.2867  1.3661
 8805TIP3    H247907   5.756   3.233  15.339  0.1099 -0.3450  1.8021
 8806TIP3   OH247908   1.945   1.958  15.179 -0.3475  0.4969 -0.1873
 8806TIP3    H147909   1.873   1.958  15.117 -0.6034 -3.8945 -0.0340
 8806TIP3    H247910   2.022   1.981  15.127 -1.2103  1.0136 -1.2417
 8807TIP3   OH247911   1.198   2.398  15.152  0.2075  0.4031 -0.5799
 8807TIP3    H147912   1.127   2.341  15.120  0.4503  0.7821 -1.8335
 8807TIP3    H247913   1.179   2.411  15.245 -1.9554  1.3156 -1.1123
 8808TIP3   OH247914   3.866   0.965  15.656  0.1540 -0.1390 -0.0630
 8808TIP3    H147915   3.900   0.920  15.734 -0.3109 -0.7630 -0.2178
 8808TIP3    H247916   3.878   0.902  15.585 -1.8078 -0.5787 -0.0244
 8809TIP3   OH247917   4.388   6.138  15.023  0.4209 -0.5475 -0.5028
 8809TIP3    H147918   4.448   6.066  15.040  1.7358  0.2289 -1.6978
 8809TIP3    H247919   4.442   6.217  15.033 -0.6166  0.1961 -0.7274
 8810TIP3   OH247920   4.598   6.102  13.774  0.8611 -0.8296 -0.2848
 8810TIP3    H147921   4.583   6.040  13.703  2.4943  0.9343 -2.2421
 8810TIP3    H247922   4.535   6.172  13.759  0.9400 -0.6400  0.2515
 8811TIP3   OH247923   1.612   4.195  12.839 -0.1329 -0.1334 -0.0387
 8811TIP3    H147924   1.556   4.178  12.915  0.0210  0.9089  0.3186
 8811TIP3    H247925   1.552   4.203  12.765 -0.4550  0.9149  0.3326
 8812TIP3   OH247926   2.750   1.143   4.519  0.1460 -0.3645 -0.5048
 8812TIP3    H147927   2.672   1.183   4.480 -0.9558 -0.3370  1.6493
 8812TIP3    H247928   2.794   1.100   4.445 -1.5919  0.1123 -1.8581
 8813TIP3   OH247929   3.816   0.106   0.132 -0.4113  0.5061  0.3973
 8813TIP3    H147930   3.870   0.165   0.184  1.1541 -1.7856  1.4214
 8813TIP3    H247931   3.772   0.050   0.196 -0.7902 -0.3830 -0.6129
 8814TIP3   OH247932   2.643   5.915   3.222 -0.0979 -0.6939  0.7395
 8814TIP3    H147933   2.615   5.839   3.171  0.6454  0.3202 -1.2447
 8814TIP3    H247934   2.727   5.939   3.185 -0.0640  0.7707  1.7144
 8815TIP3   OH247935   5.179   6.150  12.587 -0.4507 -0.1140  0.7884
 8815TIP3    H147936   5.227   6.216  12.537  0.0042  0.2497  1.6944
 8815TIP3    H247937   5.210   6.161  12.677 -0.9087 -1.0817  1.0679
 8816TIP3   OH247938   0.327   0.859   2.839  0.1135  0.1144 -0.0044
 8816TIP3    H147939   0.307   0.921   2.909 -0.1008  0.4986 -0.4015
 8816TIP3    H247940   0.242   0.825   2.811  0.1408  0.5194 -0.5826
 8817TIP3   OH247941   0.682   4.303  16.121  0.0589 -0.3208  0.3379
 8817TIP3    H147942   0.660   4.324  16.212 -0.8642 -1.5624  0.3980
 8817TIP3    H247943   0.598   4.292  16.077  0.5164 -0.9637 -0.3838
 8818TIP3   OH247944   0.012   0.881   3.786  0.3695 -0.6919 -0.1217
 8818TIP3    H147945   0.020   0.942   3.859 -1.4630 -0.5990  0.0311
 8818TIP3    H247946  -0.059   0.918   3.732  0.8679 -1.4152 -1.2889
 8819TIP3   OH247947   2.576   1.578  13.188  0.1506 -0.0406 -0.1220
 8819TIP3    H147948   2.530   1.655  13.222 -0.0411 -0.6906  1.0855
 8819TIP3    H247949   2.663   1.611  13.164 -0.4565  0.8886 -1.1241
 8820TIP3   OH247950   5.500   0.601   3.152 -0.2305 -0.1066 -0.2103
 8820TIP3    H147951   5.594   0.599   3.131  0.0477  0.7958  0.8725
 8820TIP3    H247952   5.488   0.686   3.195 -1.6683  0.0456 -0.8993
 8821TIP3   OH247953   4.534   4.417  13.617  0.4917  0.1394 -0.2872
 8821TIP3    H147954   4.482   4.464  13.681  0.6099  2.2140 -1.6721
 8821TIP3    H247955   4.625   4.441  13.638  0.7468 -1.5801  0.6416
 8822TIP3   OH247956   6.074   1.727   5.378 -0.2664 -0.4785 -0.6461
 8822TIP3    H147957   6.097   1.753   5.467 -0.5103 -1.1292 -0.3849
 8822TIP3    H247958   5.991   1.770   5.361 -0.3265 -0.5252 -0.4762
 8823TIP3   OH247959   2.315   2.587  14.704 -0.0182  0.4042 -0.9324
 8823TIP3    H147960   2.342   2.567  14.794 -0.7407  0.9661 -0.5820
 8823TIP3    H247961   2.344   2.677  14.691 -1.2589  0.8341 -0.7317
 8824TIP3   OH247962   6.486   3.544  14.507 -0.1327  0.0142  0.0433
 8824TIP3    H147963   6.409   3.596  14.528 -0.4273 -1.0115  1.5740
 8824TIP3    H247964   6.479   3.527  14.413 -1.1059  0.9791 -0.0661
 8825TIP3   OH247965   5.388   0.383  11.345 -0.1746  0.3397  0.3856
 8825TIP3    H147966   5.462   0.442  11.358 -0.1769  0.5586 -0.5901
 8825TIP3    H247967   5.318   0.439  11.313  0.2694 -0.4116 -1.9841
 8826TIP3   OH247968   0.172   2.370  10.986  0.6029  0.0592  0.5829
 8826TIP3    H147969   0.113   2.426  11.035 -0.9997 -0.0494 -1.1575
 8826TIP3    H247970   0.253   2.420  10.979 -0.1886  1.3702  0.6496
 8827TIP3   OH247971   1.729   2.646   2.043 -0.0409 -0.2687  0.0055
 8827TIP3    H147972   1.786   2.655   1.967  0.3672  0.3197  0.3805
 8827TIP3    H247973   1.778   2.686   2.115 -0.7887 -0.0525  0.3993
 8828TIP3   OH247974   6.542   1.348   3.645 -0.4236 -0.5842 -0.4047
 8828TIP3    H147975   6.516   1.429   3.601  0.5964 -0.4159 -0.7213
 8828TIP3    H247976   6.462   1.295   3.647 -1.2338  0.6455  0.3095
 8829TIP3   OH247977   0.076   6.628  12.701 -0.2728 -0.0928 -0.3475
 8829TIP3    H147978   0.016   6.700  12.723 -0.1170 -0.2786  0.7375
 8829TIP3    H247979   0.140   6.628  12.772 -1.2645 -2.4011  0.6077
 8830TIP3   OH247980   1.156   6.319   4.240  0.1277  0.2705  0.0803
 8830TIP3    H147981   1.112   6.235   4.243 -0.3987  0.4994 -0.8459
 8830TIP3    H247982   1.131   6.363   4.321 -1.7473  0.5788 -0.6374
 8831TIP3   OH247983   3.767   3.856   2.215 -0.1671 -0.3257  0.2771
 8831TIP3    H147984   3.853   3.896   2.207 -0.6665  0.6282 -0.4226
 8831TIP3    H247985   3.778   3.787   2.281  1.2438 -0.5546 -0.1924
 8832TIP3   OH247986   1.696   0.799   0.677 -0.1984 -0.3294 -0.5486
 8832TIP3    H147987   1.603   0.782   0.662 -0.3324  0.4984 -0.7072
 8832TIP3    H247988   1.738   0.714   0.665 -1.0650 -0.9307  0.6245
 8833TIP3   OH247989   1.712   3.938  16.679 -0.3937 -0.2739  0.6072
 8833TIP3    H147990   1.620   3.912  16.682 -0.0431 -1.9035 -1.6408
 8833TIP3    H247991   1.751   3.897  16.756 -1.5753  0.6245  1.7005
 8834TIP3   OH247992   6.791   6.125   5.587 -0.3622 -0.2913  0.4046
 8834TIP3    H147993   6.707   6.089   5.618 -0.4526  1.3224  2.0944
 8834TIP3    H247994   6.852   6.052   5.595 -1.4163 -1.2691 -0.1392
 8835TIP3   OH247995   4.062   5.858  16.623 -0.4593 -0.4687  0.0618
 8835TIP3    H147996   4.112   5.928  16.582 -0.2433 -1.1978 -0.9531
 8835TIP3    H247997   3.996   5.903  16.675 -0.1968  0.4897 -0.4129
 8836TIP3   OH247998   5.614   1.525   0.208  0.1020  0.3539  0.2211
 8836TIP3    H147999   5.664   1.563   0.280  0.0879  0.7747  0.0145
 8836TIP3    H248000   5.592   1.600   0.152 -0.9016  0.1974  0.4004
 8837TIP3   OH248001   1.761   2.620   6.817 -0.1902  0.3919 -0.2737
 8837TIP3    H148002   1.739   2.541   6.767 -1.7032  0.9800 -0.5666
 8837TIP3    H248003   1.706   2.615   6.895 -1.0694  1.6625 -0.7922
 8838TIP3   OH248004   4.814   1.789  16.013  0.5248 -0.5338 -0.2601
 8838TIP3    H148005   4.772   1.723  16.068 -0.9218  0.8191  0.2841
 8838TIP3    H248006   4.742   1.836  15.972  1.4265  2.2284  1.1503
 8839TIP3   OH248007   0.888   1.337  17.211 -0.1946  0.1563  0.1806
 8839TIP3    H148008   0.966   1.293  17.179  0.8327  2.4457 -0.4863
 8839TIP3    H248009   0.917   1.386  17.288 -1.3557 -0.3390  0.9678
 8840TIP3   OH248010   2.407   5.756   1.448  0.3458  0.0002 -0.3097
 8840TIP3    H148011   2.436   5.670   1.477  0.4474  0.6767  1.6239
 8840TIP3    H248012   2.313   5.745   1.433  0.5978 -0.7847 -1.4039
 8841TIP3   OH248013   2.754   4.236   1.021 -0.0942  0.1234  0.5243
 8841TIP3    H148014   2.809   4.161   1.044  0.2370  0.5378  1.0834
 8841TIP3    H248015   2.791   4.267   0.938 -0.3273 -0.4202  0.2124
 8842TIP3   OH248016   5.401   3.075   5.207 -0.3678  0.4914  0.3072
 8842TIP3    H148017   5.382   3.141   5.140  1.6149  1.1176  0.3334
 8842TIP3    H248018   5.427   2.998   5.157 -0.8344  0.3202  0.3233
 8843TIP3   OH248019   4.665   6.170   3.468  0.1791  0.2769 -0.3751
 8843TIP3    H148020   4.612   6.247   3.445 -0.5868 -0.0868  0.1571
 8843TIP3    H248021   4.680   6.180   3.562  1.0739  0.3835 -0.5290
 8844TIP3   OH248022   1.999   3.123   2.365 -0.0280  0.1557 -0.6552
 8844TIP3    H148023   2.038   3.191   2.311 -1.7550  0.6026 -1.3649
 8844TIP3    H248024   2.000   3.045   2.309  1.0513 -0.1720 -0.1926
 8845TIP3   OH248025   2.657   4.982  13.623 -0.3807  0.3783 -0.4260
 8845TIP3    H148026   2.713   4.980  13.545 -1.5360  1.0175 -1.2875
 8845TIP3    H248027   2.718   4.997  13.696  0.8495 -1.2770 -1.0600
 8846TIP3   OH248028   2.735   0.475   0.095 -0.1645 -0.6178  0.4120
 8846TIP3    H148029   2.743   0.400   0.037 -0.0520 -0.7283  0.5731
 8846TIP3    H248030   2.643   0.503   0.085  0.0821 -0.0980 -0.4894
 8847TIP3   OH248031   6.318   5.137  16.166 -0.2666  0.3090  0.2644
 8847TIP3    H148032   6.408   5.148  16.196 -0.1749  2.6113 -0.8005
 8847TIP3    H248033   6.327   5.089  16.084  0.1068  1.7244 -0.5355
 8848TIP3   OH248034   5.003   5.421  15.583  0.0524  0.1323  0.2833
 8848TIP3    H148035   4.942   5.422  15.657  1.1479  0.4558  1.1885
 8848TIP3    H248036   4.981   5.340  15.536  0.0137 -0.6018  1.5347
 8849TIP3   OH248037   1.374   6.709   4.855 -0.1167 -0.1708  0.1901
 8849TIP3    H148038   1.317   6.634   4.842 -0.6437  0.0473  1.2216
 8849TIP3    H248039   1.323   6.784   4.827 -0.4390  0.0496  1.3245
 8850TIP3   OH248040   1.717   4.617  12.607  0.1694  0.5731 -0.6643
 8850TIP3    H148041   1.628   4.631  12.641  0.9990  1.2924  1.2687
 8850TIP3    H248042   1.710   4.538  12.554 -1.2644 -0.3881  0.9140
 8851TIP3   OH248043   3.834   3.969   6.092 -0.6377 -0.0475 -0.4243
 8851TIP3    H148044   3.890   4.027   6.145 -1.8742 -1.5787  2.6896
 8851TIP3    H248045   3.895   3.912   6.046  0.4703  1.2417 -0.5918
 8852TIP3   OH248046   5.682   0.107   5.941  0.1491 -0.3044 -0.4088
 8852TIP3    H148047   5.755   0.045   5.939 -0.4931 -1.0720 -0.4890
 8852TIP3    H248048   5.671   0.127   6.034  2.1455  1.8754 -0.5744
 8853TIP3   OH248049   1.928   4.368  15.026  0.2086  0.1005  0.1720
 8853TIP3    H148050   1.881   4.361  14.943  1.7375 -0.9262 -0.6417
 8853TIP3    H248051   1.964   4.457  15.025 -3.1819  1.5837  1.6646
 8854TIP3   OH248052   0.628   0.395  14.627 -0.3849 -0.1937  0.7474
 8854TIP3    H148053   0.694   0.348  14.678 -0.6940 -0.3733  0.9847
 8854TIP3    H248054   0.597   0.331  14.563 -0.1914 -0.0521  0.5142
 8855TIP3   OH248055   0.333   6.136  16.441  0.0845 -0.6505 -0.3658
 8855TIP3    H148056   0.263   6.110  16.500 -1.6361  1.1928 -1.5574
 8855TIP3    H248057   0.378   6.207  16.486  1.5649 -2.1589  0.6227
 8856TIP3   OH248058   3.202   2.392  17.004  0.8500  0.0332  0.0676
 8856TIP3    H148059   3.133   2.419  17.065 -0.4103 -0.4599 -1.1131
 8856TIP3    H248060   3.201   2.458  16.935  3.3755  1.4940  1.3433
 8857TIP3   OH248061   2.187   4.678   4.835 -0.4866  0.6424  0.0230
 8857TIP3    H148062   2.161   4.768   4.853 -0.4734  0.8254 -0.8155
 8857TIP3    H248063   2.212   4.679   4.742 -3.6605 -0.9089 -0.9487
 8858TIP3   OH248064   4.527   4.563  16.381  0.0421  0.2088 -0.2422
 8858TIP3    H148065   4.601   4.597  16.331 -0.2815  2.1078  0.5206
 8858TIP3    H248066   4.464   4.535  16.315 -0.0945  2.0363 -0.9156
 8859TIP3   OH248067   4.954   6.477   2.035 -0.7365 -0.7723 -0.3638
 8859TIP3    H148068   4.873   6.480   1.984 -1.5085 -0.2868  0.8732
 8859TIP3    H248069   4.960   6.563   2.077 -1.2438 -1.8747  2.0661
 8860TIP3   OH248070   6.676   4.319  13.657 -0.1111 -0.1630 -0.8191
 8860TIP3    H148071   6.593   4.366  13.642 -0.0287  0.1268 -0.3747
 8860TIP3    H248072   6.737   4.359  13.595 -0.1716 -0.0306 -0.7932
 8861TIP3   OH248073   0.123   2.029   4.786 -0.1304 -1.0338  0.3177
 8861TIP3    H148074   0.190   2.012   4.852  0.4326 -0.2266 -0.0360
 8861TIP3    H248075   0.045   2.051   4.836 -0.3922 -2.8514  0.7468
 8862TIP3   OH248076   4.771   2.656  10.931 -0.5205  0.6362 -0.1893
 8862TIP3    H148077   4.730   2.742  10.928  1.2493  1.6793  2.6476
 8862TIP3    H248078   4.710   2.602  10.980 -1.1481  0.5564 -1.0506
 8863TIP3   OH248079   2.310   1.962   6.327 -0.4396  0.1637  0.8437
 8863TIP3    H148080   2.332   2.041   6.376  0.7377  0.4463 -0.0983
 8863TIP3    H248081   2.375   1.897   6.356 -0.9961 -0.2589  1.1422
 8864TIP3   OH248082   5.277   1.716  14.857 -0.8179  0.1397 -0.1192
 8864TIP3    H148083   5.217   1.737  14.929 -0.1635 -0.1905  0.5264
 8864TIP3    H248084   5.360   1.758  14.881 -0.3551 -0.6791 -0.2703
 8865TIP3   OH248085   3.235   5.875  14.678 -0.6121  0.0184 -0.2189
 8865TIP3    H148086   3.302   5.912  14.736 -0.1402  0.1761 -0.8577
 8865TIP3    H248087   3.199   5.801  14.727  1.6164 -1.4939 -0.7858
 8866TIP3   OH248088   6.232   2.148  12.098  0.0094 -0.0724 -0.0528
 8866TIP3    H148089   6.197   2.169  12.184 -0.3618  0.9797 -0.4575
 8866TIP3    H248090   6.271   2.061  12.109 -0.6055 -0.2238  1.0059
 8867TIP3   OH248091   5.012   5.414   4.990  0.9839  0.5256 -0.5575
 8867TIP3    H148092   5.018   5.320   5.006 -0.2836  0.3624 -1.0170
 8867TIP3    H248093   4.935   5.442   5.038  0.8115  1.1623 -1.1902
 8868TIP3   OH248094   3.830   1.725  16.519  0.4572 -0.3836 -0.6474
 8868TIP3    H148095   3.883   1.796  16.482  1.1379  0.6870  2.2661
 8868TIP3    H248096   3.745   1.765  16.538  0.9972 -0.1821  1.4488
 8869TIP3   OH248097   0.106   6.604   3.294  0.2729 -0.3540  0.0072
 8869TIP3    H148098   0.178   6.577   3.351  0.7182 -0.9637 -0.8413
 8869TIP3    H248099   0.031   6.555   3.327 -0.0416  1.1400  1.6252
 8870TIP3   OH248100   3.874   0.331   1.080 -0.0188  0.1373  0.0266
 8870TIP3    H148101   3.876   0.387   1.158  0.2574  1.2701 -0.7817
 8870TIP3    H248102   3.895   0.390   1.007 -1.0751 -0.7387 -1.0089
 8871TIP3   OH248103   6.696   3.602  12.384 -0.4581 -0.0725  0.4544
 8871TIP3    H148104   6.731   3.647  12.461 -0.7947  1.1135 -0.0874
 8871TIP3    H248105   6.769   3.549  12.352  0.5196  1.5557 -0.0292
 8872TIP3   OH248106   0.713   6.052   2.514 -0.0499 -0.4916 -0.1119
 8872TIP3    H148107   0.800   6.014   2.530  0.6967  0.9367 -0.7116
 8872TIP3    H248108   0.657   6.012   2.581  1.4693 -0.0536  1.4776
 8873TIP3   OH248109   4.190   4.705   1.966 -0.3463 -0.1880  0.3240
 8873TIP3    H148110   4.259   4.771   1.957 -0.6144  0.0845  0.2414
 8873TIP3    H248111   4.204   4.645   1.892 -0.0252 -0.2932  0.4723
 8874TIP3   OH248112   1.322   1.832  16.379  0.0584  0.7112 -0.5512
 8874TIP3    H148113   1.250   1.896  16.386 -0.8933 -0.4500  0.5665
 8874TIP3    H248114   1.366   1.837  16.464 -1.0838 -1.3364  0.1822
 8875TIP3   OH248115   0.183   1.925  12.965 -0.2744 -0.3168 -0.1961
 8875TIP3    H148116   0.172   2.019  12.949  1.4454  0.2036  1.5640
 8875TIP3    H248117   0.100   1.887  12.935 -1.3961  1.8722 -0.0349
 8876TIP3   OH248118   3.247   4.006  13.600  0.0567 -0.3335 -0.7265
 8876TIP3    H148119   3.260   3.997  13.505  0.9673 -3.0136 -0.3985
 8876TIP3    H248120   3.152   4.006  13.611 -0.1002  1.7449 -1.7441
 8877TIP3   OH248121   1.528   2.844   4.600  0.2234  0.1131  0.0703
 8877TIP3    H148122   1.617   2.811   4.612  0.2577  1.1616  3.1802
 8877TIP3    H248123   1.538   2.938   4.586 -0.3370  0.0299 -0.9754
 8878TIP3   OH248124   3.052   5.974   0.651  0.7555  0.2950 -0.1782
 8878TIP3    H148125   3.067   5.880   0.649 -1.8018 -0.1265 -0.9803
 8878TIP3    H248126   2.976   5.986   0.708  2.2234  2.0824  1.5048
 8879TIP3   OH248127   2.944   6.675   3.247  0.0692 -0.2634  0.5004
 8879TIP3    H148128   2.924   6.692   3.340 -0.0395  0.2934  0.3772
 8879TIP3    H248129   2.885   6.603   3.223  1.3729 -1.6315  1.3478
 8880TIP3   OH248130   5.515   0.728  15.281 -0.3164  0.2158 -0.1562
 8880TIP3    H148131   5.439   0.690  15.239  1.2050 -2.1221 -0.9131
 8880TIP3    H248132   5.586   0.717  15.218  1.0960  0.4576  1.3394
 8881TIP3   OH248133   2.519   1.427   5.868 -0.2223  0.0672 -0.2235
 8881TIP3    H148134   2.491   1.490   5.934 -0.8498 -1.3897  0.9368
 8881TIP3    H248135   2.438   1.381   5.843  0.2639 -0.4698 -0.8317
 8882TIP3   OH248136   6.655   5.367   2.400  0.0758  0.2095 -0.2148
 8882TIP3    H148137   6.560   5.365   2.400  0.0880 -1.0247  1.8509
 8882TIP3    H248138   6.677   5.460   2.406 -1.0054  0.4054  0.8629
 8883TIP3   OH248139   5.123   0.031   1.274  0.1910 -0.5213 -0.4213
 8883TIP3    H148140   5.217   0.047   1.266 -0.1618  2.1684  0.3603
 8883TIP3    H248141   5.104   0.050   1.366 -1.3609  0.2982 -0.9028
 8884TIP3   OH248142   2.766   1.012   4.277  0.0156 -0.2155 -0.5783
 8884TIP3    H148143   2.838   0.961   4.240 -0.9609 -0.9057 -1.5703
 8884TIP3    H248144   2.710   0.946   4.320 -0.4255  0.2079 -0.4959
 8885TIP3   OH248145   2.801   1.689   2.402  0.4482  0.4969  0.0966
 8885TIP3    H148146   2.749   1.682   2.481 -0.2140  0.4125 -0.3473
 8885TIP3    H248147   2.738   1.686   2.331  0.8682  2.3807 -0.3892
 8886TIP3   OH248148   0.064   5.706   6.293 -0.0170  0.6366  0.1098
 8886TIP3    H148149   0.159   5.708   6.282  0.1057 -0.2669  0.9081
 8886TIP3    H248150   0.051   5.687   6.386 -0.9863  0.9753  0.0549
 8887TIP3   OH248151   5.520   3.674  11.757 -0.4969 -0.1245 -0.0229
 8887TIP3    H148152   5.462   3.610  11.716 -0.8372 -0.1903  0.5495
 8887TIP3    H248153   5.461   3.745  11.784 -0.4816 -0.6926  1.5704
 8888TIP3   OH248154   4.493   6.435  11.762 -0.7262  0.8445 -0.0057
 8888TIP3    H148155   4.547   6.376  11.708 -0.6611  2.0333 -1.2764
 8888TIP3    H248156   4.501   6.520  11.719 -1.0211  1.7294  1.6678
 8889TIP3   OH248157   3.720   3.022   0.340 -0.0158  0.1619 -0.0583
 8889TIP3    H148158   3.738   2.928   0.336 -1.1127 -0.0780  0.5554
 8889TIP3    H248159   3.740   3.046   0.430 -1.1096  0.2255  0.1739
 8890TIP3   OH248160   6.475   2.502  11.269  0.6653 -0.2993 -0.2436
 8890TIP3    H148161   6.415   2.524  11.197  1.1240 -0.8784 -0.8074
 8890TIP3    H248162   6.548   2.563  11.259  0.6213 -0.2254 -0.1229
 8891TIP3   OH248163   1.570   3.739   5.100 -0.6403 -0.0493 -0.0821
 8891TIP3    H148164   1.658   3.723   5.135  0.0874 -0.3630 -1.9816
 8891TIP3    H248165   1.584   3.800   5.028 -1.9151 -0.5428 -0.7657
 8892TIP3   OH248166   0.052   3.594   1.716  0.5340 -0.2308 -0.0720
 8892TIP3    H148167   0.129   3.609   1.662  0.0711  1.6939 -0.2305
 8892TIP3    H248168   0.047   3.671   1.772 -2.2027  0.5031 -1.2331
 8893TIP3   OH248169   5.251   1.056   3.002 -0.4114 -0.1422  0.9439
 8893TIP3    H148170   5.295   1.027   3.082  1.1496 -0.3849  0.0152
 8893TIP3    H248171   5.158   1.053   3.024 -0.1140 -2.1833  2.0912
 8894TIP3   OH248172   5.560   2.449  13.324  0.1426  0.4643 -0.3014
 8894TIP3    H148173   5.484   2.416  13.275  1.1679 -1.9076 -0.3469
 8894TIP3    H248174   5.527   2.461  13.413  0.3719 -3.2981  0.3676
 8895TIP3   OH248175   6.436   5.489  16.444 -0.1048  0.9864  0.0723
 8895TIP3    H148176   6.421   5.395  16.457 -0.5362  1.0232 -0.1462
 8895TIP3    H248177   6.348   5.526  16.434  0.1320  1.1443 -1.5845
 8896TIP3   OH248178   4.932   5.445  17.273  0.1257 -0.4917  0.0050
 8896TIP3    H148179   5.027   5.441  17.277  0.1968  2.0794  1.6250
 8896TIP3    H248180   4.912   5.447  17.179  1.7251  0.1939 -0.3365
 8897TIP3   OH248181   2.193   1.680  12.908 -0.1203 -0.1906  0.3473
 8897TIP3    H148182   2.121   1.736  12.878 -0.1458  1.3950  3.1334
 8897TIP3    H248183   2.158   1.636  12.986  1.6457 -0.0298  1.2559
 8898TIP3   OH248184   3.104   1.853  10.576  0.3104  0.3412 -0.1995
 8898TIP3    H148185   3.190   1.870  10.535  0.3913 -2.2138 -1.1802
 8898TIP3    H248186   3.110   1.763  10.607 -0.9036  1.2042  2.6977
 8899TIP3   OH248187   4.071   3.141   3.916  0.1551 -0.4647  0.5489
 8899TIP3    H148188   4.114   3.203   3.976 -0.5012  0.3468  0.1736
 8899TIP3    H248189   4.136   3.125   3.848  0.0678  0.3436  0.2753
 8900TIP3   OH248190   3.664   5.288  10.489  0.0206  0.3569 -0.2644
 8900TIP3    H148191   3.593   5.318  10.546  0.7063  2.7263 -0.6155
 8900TIP3    H248192   3.627   5.213  10.443 -2.6137  2.0607 -1.0762
 8901TIP3   OH248193   3.367   0.939   4.508  0.3209 -0.2859  0.1311
 8901TIP3    H148194   3.367   1.034   4.519 -0.5140 -0.4072  1.3299
 8901TIP3    H248195   3.450   0.911   4.546  0.0262 -0.1363  0.9072
 8902TIP3   OH248196   1.015   3.229   4.167  0.4054  0.1544 -0.2263
 8902TIP3    H148197   0.998   3.271   4.082  0.3613 -0.1447 -0.3666
 8902TIP3    H248198   1.091   3.276   4.202  1.3619 -0.7081 -1.1193
 8903TIP3   OH248199   2.257   4.970  13.400 -0.4074  0.3629  0.0888
 8903TIP3    H148200   2.331   5.023  13.429 -0.6187  0.6584  0.0901
 8903TIP3    H248201   2.193   5.034  13.369 -0.1966  0.0611 -0.9912
 8904TIP3   OH248202   2.269   3.039  15.507 -0.4970  0.2984  0.0923
 8904TIP3    H148203   2.266   2.946  15.486 -0.3137  0.4389 -0.5678
 8904TIP3    H248204   2.331   3.076  15.443  0.4540  0.6452  1.1991
 8905TIP3   OH248205   2.389   1.281  11.143  0.8212 -0.2684 -0.1599
 8905TIP3    H148206   2.345   1.352  11.191  1.5933 -0.0453  0.2284
 8905TIP3    H248207   2.368   1.202  11.193 -0.1095 -0.3309 -0.6386
 8906TIP3   OH248208   0.179   0.569  15.194 -0.5437 -0.5047  0.0940
 8906TIP3    H148209   0.243   0.518  15.145  0.5843  0.4521  0.5348
 8906TIP3    H248210   0.158   0.515  15.270  0.8205 -0.2159  0.6841
 8907TIP3   OH248211   4.615   5.399  16.792 -0.3587  0.1691 -0.1474
 8907TIP3    H148212   4.579   5.414  16.705  2.6409 -1.6334 -1.7636
 8907TIP3    H248213   4.678   5.470  16.804 -2.1805  1.5901  1.4565
 8908TIP3   OH248214   2.688   5.180  15.865  0.0889  0.2275 -0.3859
 8908TIP3    H148215   2.602   5.159  15.903  0.4187  2.0900  1.4843
 8908TIP3    H248216   2.720   5.096  15.831 -1.5788 -0.8996  0.7521
 8909TIP3   OH248217   4.637   3.403  14.189 -0.1773  0.3511 -0.4150
 8909TIP3    H148218   4.597   3.486  14.217 -1.2009 -0.2282 -0.1604
 8909TIP3    H248219   4.598   3.337  14.245  0.5232 -0.3393 -0.7308
 8910TIP3   OH248220   3.551   3.554   0.517 -0.3995  0.2063 -0.1389
 8910TIP3    H148221   3.468   3.556   0.469 -0.6309 -3.1186 -0.0022
 8910TIP3    H248222   3.526   3.536   0.607  0.3553  1.3239  0.3014
 8911TIP3   OH248223   4.279   5.474   1.602  0.6939  0.6632  0.0723
 8911TIP3    H148224   4.208   5.522   1.642 -0.1025  0.4629 -1.0712
 8911TIP3    H248225   4.240   5.434   1.524  1.4330 -1.4915  0.7684
 8912TIP3   OH248226   3.271   0.311   0.732 -0.0818  0.0327 -0.1995
 8912TIP3    H148227   3.354   0.306   0.780 -0.1245  0.4955 -0.0786
 8912TIP3    H248228   3.283   0.253   0.657  0.0921 -0.4731  0.2097
 8913TIP3   OH248229   2.710   0.850   0.912  0.0843 -0.2817  0.0168
 8913TIP3    H148230   2.624   0.843   0.871  0.5883 -1.5689 -0.8336
 8913TIP3    H248231   2.756   0.771   0.886  1.6810  0.5856  0.1352
 8914TIP3   OH248232   0.329   1.036   3.079 -0.3903  0.0453  0.0031
 8914TIP3    H148233   0.414   1.049   3.121  0.4399 -1.0075 -1.2900
 8914TIP3    H248234   0.331   1.095   3.004 -0.3164 -0.8389 -0.6946
 8915TIP3   OH248235   6.253   3.356   5.180 -0.0630  0.2259  0.3353
 8915TIP3    H148236   6.347   3.369   5.195  0.0760 -0.7199  0.2620
 8915TIP3    H248237   6.232   3.418   5.109  0.9385 -1.0377 -1.0912
 8916TIP3   OH248238   2.251   5.530  11.391  0.3959 -0.6910  0.2823
 8916TIP3    H148239   2.273   5.560  11.480  0.5491 -0.5017  0.1825
 8916TIP3    H248240   2.302   5.450  11.380  0.8657 -0.3745  0.1367
 8917TIP3   OH248241   5.824   0.583   0.173  1.5632 -0.3036 -0.4512
 8917TIP3    H148242   5.842   0.610   0.083  1.5620 -1.1488 -0.7155
 8917TIP3    H248243   5.732   0.559   0.173  0.8280  2.3948  0.4823
 8918TIP3   OH248244   0.095   5.970   5.024 -0.2615 -0.0747 -0.4341
 8918TIP3    H148245   0.152   5.947   5.097 -1.5948  3.6477  1.9220
 8918TIP3    H248246   0.061   5.886   4.993  1.3803 -1.8550  2.3606
 8919TIP3   OH248247   2.784   3.828  13.275 -0.3619 -0.0743  0.2114
 8919TIP3    H148248   2.826   3.791  13.352 -0.8717 -1.6338 -0.2515
 8919TIP3    H248249   2.834   3.908  13.257  1.9708 -1.4977  0.1099
 8920TIP3   OH248250   3.752   0.116   4.909 -0.1651  0.3013  0.5960
 8920TIP3    H148251   3.772   0.046   4.971 -1.1150  0.2506  0.8560
 8920TIP3    H248252   3.709   0.072   4.836  2.0197  0.1931 -0.6664
 8921TIP3   OH248253   1.902   0.275   4.445 -0.3347 -0.2006 -0.1814
 8921TIP3    H148254   1.897   0.354   4.391  0.4462 -0.7814 -1.1237
 8921TIP3    H248255   1.855   0.298   4.525 -3.5513 -0.1056 -2.0501
 8922TIP3   OH248256   6.425   0.916   1.848 -0.0908  0.2481 -0.3171
 8922TIP3    H148257   6.381   0.895   1.766 -0.1834 -1.1649  0.0817
 8922TIP3    H248258   6.513   0.942   1.822 -0.2938  0.3576 -0.9028
 8923TIP3   OH248259   0.850   3.289  11.930  0.7178 -0.1467 -0.1224
 8923TIP3    H148260   0.832   3.380  11.907 -2.0691 -0.7926 -0.6205
 8923TIP3    H248261   0.812   3.238  11.858 -0.8209 -1.8335  1.8252
 8924TIP3   OH248262   5.332   5.208   5.721  0.3107 -0.0421 -0.0763
 8924TIP3    H148263   5.380   5.204   5.804  0.3354 -0.7298 -0.1159
 8924TIP3    H248264   5.244   5.176   5.743  0.5709 -1.0530 -0.4907
 8925TIP3   OH248265   1.980   4.930   3.724 -0.3172 -1.0233  0.4404
 8925TIP3    H148266   1.917   4.991   3.763  1.7413  0.6012  1.2614
 8925TIP3    H248267   1.927   4.877   3.665 -2.7281 -0.6220  2.1481
 8926TIP3   OH248268   4.190   6.765  13.008  0.1816 -0.5588  0.0188
 8926TIP3    H148269   4.202   6.777  13.102  1.5507 -1.6847  0.0003
 8926TIP3    H248270   4.222   6.677  12.990 -1.4517 -0.9103 -1.2745
 8927TIP3   OH248271   0.578   5.094  11.091 -0.2027  0.1363 -0.0681
 8927TIP3    H148272   0.492   5.076  11.053 -0.1587 -0.9849  0.3285
 8927TIP3    H248273   0.634   5.024  11.058  0.2871  0.2223  0.5601
 8928TIP3   OH248274   3.312   1.679   1.655 -0.0924  0.0812  0.0831
 8928TIP3    H148275   3.309   1.610   1.588 -0.5615  0.6616 -0.5043
 8928TIP3    H248276   3.383   1.737   1.626 -1.0103  0.9229 -0.5062
 8929TIP3   OH248277   0.457   6.651  15.455 -0.2810  0.3331 -0.0762
 8929TIP3    H148278   0.524   6.632  15.390 -0.8294  1.7177 -1.0776
 8929TIP3    H248279   0.417   6.566  15.473  0.3268 -0.1787 -1.0608
 8930TIP3   OH248280   3.566   6.172  14.819 -0.3635 -0.4070 -0.2121
 8930TIP3    H148281   3.637   6.132  14.769 -2.1294 -2.4656 -1.1532
 8930TIP3    H248282   3.528   6.236  14.759 -0.7867 -0.9876 -0.5717
 8931TIP3   OH248283   2.423   3.273  13.503 -1.1090  0.2002  0.0246
 8931TIP3    H148284   2.382   3.228  13.577  0.9702 -1.3905  0.2518
 8931TIP3    H248285   2.489   3.329  13.543 -1.5312  1.0721 -0.4855
 8932TIP3   OH248286   3.778   1.755  10.423  0.1019 -0.1471  0.4906
 8932TIP3    H148287   3.701   1.792  10.467 -0.6246 -1.8467  0.6968
 8932TIP3    H248288   3.844   1.825  10.427 -1.1058  0.9828  1.1628
 8933TIP3   OH248289   2.487   2.418   6.602  1.2387 -0.0103  0.1636
 8933TIP3    H148290   2.581   2.430   6.613  1.4171 -0.3822 -0.8933
 8933TIP3    H248291   2.457   2.496   6.555  0.7172  0.9077  1.9485
 8934TIP3   OH248292   3.454   6.524   3.251 -0.4103 -0.1864 -0.3103
 8934TIP3    H148293   3.409   6.557   3.329 -2.0634  0.3512 -1.4492
 8934TIP3    H248294   3.480   6.603   3.204 -0.4394 -0.5105 -0.8699
 8935TIP3   OH248295   4.918   6.209  11.522 -0.7970 -0.0491 -0.0684
 8935TIP3    H148296   4.992   6.165  11.479  0.3189  1.3331  0.4182
 8935TIP3    H248297   4.908   6.162  11.605  0.0246  0.2573  0.2021
 8936TIP3   OH248298   5.031   4.223   5.116  0.4879 -0.1342 -0.5449
 8936TIP3    H148299   4.963   4.272   5.069  0.0602 -0.9093 -0.7417
 8936TIP3    H248300   5.058   4.281   5.187 -1.9544 -0.6774  0.8929
 8937TIP3   OH248301   3.160   2.628  12.352 -0.3814 -0.3758 -0.4550
 8937TIP3    H148302   3.097   2.690  12.389  0.0263 -0.1861 -0.0685
 8937TIP3    H248303   3.132   2.615  12.262  1.4684  2.9519 -1.5903
 8938TIP3   OH248304   4.422   5.612  12.839 -0.2035  0.4061  0.3085
 8938TIP3    H148305   4.511   5.643  12.858  0.1451  0.8467 -1.9006
 8938TIP3    H248306   4.388   5.584  12.924  2.0541  0.2003  1.1946
 8939TIP3   OH248307   4.362   3.461   0.251 -0.1464 -0.7109  0.1112
 8939TIP3    H148308   4.309   3.494   0.324 -0.3763 -0.6497 -0.0809
 8939TIP3    H248309   4.320   3.498   0.173  0.2735 -0.5378 -0.0340
 8940TIP3   OH248310   5.574   2.531  15.005 -0.0771 -0.3620  0.1416
 8940TIP3    H148311   5.655   2.498  15.044  1.4982  2.1811 -0.8731
 8940TIP3    H248312   5.550   2.607  15.057  0.1615  1.0215 -1.7174
 8941TIP3   OH248313   3.174   6.350  14.851  0.0144 -0.1579  0.2649
 8941TIP3    H148314   3.194   6.376  14.761 -2.0999 -2.1493 -0.8410
 8941TIP3    H248315   3.259   6.324  14.888  0.8272  0.1290 -1.3445
 8942TIP3   OH248316   6.812   0.313  14.417  0.1309  0.2739  0.0998
 8942TIP3    H148317   6.788   0.369  14.491  0.4628  0.4046  0.1129
 8942TIP3    H248318   6.734   0.261  14.400 -0.5569  1.4850 -0.5832
 8943TIP3   OH248319   3.739   3.063   2.825  0.6129 -0.2777 -0.0271
 8943TIP3    H148320   3.756   3.046   2.733  1.5011  1.1422 -0.1297
 8943TIP3    H248321   3.679   3.138   2.825  1.9769  0.8154  0.5913
 8944TIP3   OH248322   2.745   0.103  13.588 -0.2959 -0.3023  0.2657
 8944TIP3    H148323   2.748   0.028  13.529  0.6871 -1.1413  1.3520
 8944TIP3    H248324   2.787   0.072  13.668 -0.7615  1.1084  1.0763
 8945TIP3   OH248325   4.848   0.233   3.834 -0.0556 -0.6206 -0.0083
 8945TIP3    H148326   4.821   0.216   3.744  2.0199 -1.2317 -0.5159
 8945TIP3    H248327   4.844   0.329   3.842  2.6317 -0.3139 -1.6962
 8946TIP3   OH248328   0.549   2.872  11.967  0.0363 -0.1190  0.7552
 8946TIP3    H148329   0.467   2.853  12.012  0.3033 -2.2787  0.3793
 8946TIP3    H248330   0.617   2.844  12.027  0.5032  1.0653  0.7935
 8947TIP3   OH248331   4.264   5.230  14.459  0.0218  0.0628 -0.2639
 8947TIP3    H148332   4.307   5.247  14.375  0.1546 -0.2699 -0.2640
 8947TIP3    H248333   4.256   5.134  14.463  2.3780 -0.0988  1.2834
 8948TIP3   OH248334   6.016   5.343  15.809  0.5823  0.5127 -0.3102
 8948TIP3    H148335   5.967   5.266  15.836 -0.2182  1.5898  1.4522
 8948TIP3    H248336   5.996   5.353  15.716 -2.5759  0.8940  0.3388
 8949TIP3   OH248337   5.155   5.773   5.626 -0.1266 -0.3405 -0.1250
 8949TIP3    H148338   5.145   5.865   5.602 -1.0314 -0.3344  0.2713
 8949TIP3    H248339   5.175   5.775   5.720 -0.0958 -0.5495 -0.1263
 8950TIP3   OH248340   5.397   3.783   4.284  0.2565  0.1170  0.1963
 8950TIP3    H148341   5.442   3.826   4.211  2.1662 -0.5373  0.9672
 8950TIP3    H248342   5.321   3.839   4.301  1.7493  2.2532  0.0445
 8951TIP3   OH248343   3.163   6.018  11.093  0.4499  0.7704 -0.2444
 8951TIP3    H148344   3.172   5.929  11.126 -0.2013  0.5644 -0.6082
 8951TIP3    H248345   3.107   6.010  11.016  0.0417  1.5425 -0.0401
 8952TIP3   OH248346   2.566   0.403   2.011  0.1513 -0.7229 -0.5730
 8952TIP3    H148347   2.605   0.339   2.070  1.3816 -0.0567 -0.6302
 8952TIP3    H248348   2.623   0.480   2.018 -1.3936  0.4433 -0.3609
 8953TIP3   OH248349   0.812   0.076  12.413 -0.5172  0.1793 -0.1362
 8953TIP3    H148350   0.788  -0.013  12.386 -0.7763  0.4157 -0.6923
 8953TIP3    H248351   0.768   0.133  12.350 -2.3714  0.8118  1.6648
 8954TIP3   OH248352   0.876   5.557  13.292  0.5935 -0.1092 -0.0589
 8954TIP3    H148353   0.971   5.547  13.298  0.6138 -0.5611 -0.9988
 8954TIP3    H248354   0.842   5.467  13.297  0.1688  0.1038  0.9973
 8955TIP3   OH248355   2.752   4.557  11.700 -0.3049 -0.6312  0.0133
 8955TIP3    H148356   2.679   4.547  11.760  0.9886 -0.0982  1.6941
 8955TIP3    H248357   2.786   4.468  11.690 -1.0631 -0.8563 -0.6500
 8956TIP3   OH248358   5.904   4.983   5.148 -0.3229  0.2177 -0.0243
 8956TIP3    H148359   5.863   4.997   5.233 -0.7170 -1.8505  0.1538
 8956TIP3    H248360   5.846   4.920   5.104  1.6319 -1.2989 -0.4953
 8957TIP3   OH248361   3.248   4.599  14.977 -0.4773 -0.4839  0.4197
 8957TIP3    H148362   3.262   4.634  15.064  1.3108 -1.0601  0.3798
 8957TIP3    H248363   3.238   4.676  14.921 -0.4744 -0.1028  0.9437
 8958TIP3   OH248364   1.414   4.789   2.241  0.0007  0.2663 -0.1272
 8958TIP3    H148365   1.398   4.842   2.162 -0.2433  2.2115  1.1931
 8958TIP3    H248366   1.506   4.806   2.262 -0.3214  0.9180  0.8157
 8959TIP3   OH248367   4.212   0.568   2.768 -0.0210  0.3251  0.3771
 8959TIP3    H148368   4.207   0.541   2.859 -0.3052  0.0362  0.2747
 8959TIP3    H248369   4.306   0.565   2.747  0.0357  0.3202  0.6349
 8960TIP3   OH248370   0.780   5.274   2.375  0.0730 -0.5485 -0.5051
 8960TIP3    H148371   0.728   5.326   2.436 -0.8857  0.8924 -2.4812
 8960TIP3    H248372   0.870   5.291   2.400 -0.3364 -0.7198  1.1049
 8961TIP3   OH248373   1.250   0.820  12.057  0.0429  0.1640 -0.1679
 8961TIP3    H148374   1.316   0.855  12.117  0.3043  0.0276 -0.3747
 8961TIP3    H248375   1.253   0.878  11.981  0.0656  0.0364 -0.2646
 8962TIP3   OH248376   3.170   1.904  17.124  0.4239  0.4109  0.1512
 8962TIP3    H148377   3.076   1.915  17.137  0.2110  0.3510 -1.2873
 8962TIP3    H248378   3.202   1.867  17.206 -1.0029 -0.6903  0.2123
 8963TIP3   OH248379   5.451   0.571  17.047  0.3036  0.2355  0.3579
 8963TIP3    H148380   5.412   0.569  17.135 -1.2358  0.2143 -0.3168
 8963TIP3    H248381   5.377   0.587  16.988  1.1590 -0.8910 -1.0379
 8964TIP3   OH248382   3.315   2.267  12.988  0.1954 -0.5278  0.4068
 8964TIP3    H148383   3.391   2.317  13.018  0.2466 -0.9930  1.0577
 8964TIP3    H248384   3.259   2.333  12.946  0.6499 -0.0696  0.5084
 8965TIP3   OH248385   1.027   4.549   4.058  0.3417 -0.4924 -0.4881
 8965TIP3    H148386   1.023   4.603   3.979 -1.3074 -0.6063 -0.4963
 8965TIP3    H248387   1.036   4.611   4.129 -2.2728 -0.1148 -0.4343
 8966TIP3   OH248388   4.244   2.036  16.898 -0.0309 -0.6874 -0.5637
 8966TIP3    H148389   4.194   2.080  16.967  0.5389 -1.0802  0.1044
 8966TIP3    H248390   4.177   1.999  16.841 -0.5818  3.0007 -2.4759
 8967TIP3   OH248391   2.568   4.980  12.106  0.3939  0.0045 -0.1494
 8967TIP3    H148392   2.654   5.022  12.112  0.7508 -0.6527 -0.6217
 8967TIP3    H248393   2.554   4.943  12.194 -0.0459  1.3331  0.3476
 8968TIP3   OH248394   5.209   1.408   3.841  0.1669  0.4314 -0.0008
 8968TIP3    H148395   5.177   1.391   3.929  0.6794  0.2683  0.1594
 8968TIP3    H248396   5.282   1.346   3.830  1.0508  1.4451  0.0173
 8969TIP3   OH248397   2.400   5.794  14.351 -0.4635 -0.4646  0.0251
 8969TIP3    H148398   2.362   5.719  14.396  1.0042 -1.1962  0.0673
 8969TIP3    H248399   2.451   5.756  14.278  1.8003  0.3287  1.1336
 8970TIP3   OH248400   4.923   3.034   4.741 -0.9882 -0.0435  0.1926
 8970TIP3    H148401   4.994   3.006   4.683 -0.4774 -0.0164  0.8009
 8970TIP3    H248402   4.873   3.096   4.689 -0.5561 -0.0492 -0.2358
 8971TIP3   OH248403   2.502   4.268  15.037  0.1230 -0.0447  0.0441
 8971TIP3    H148404   2.429   4.325  15.014 -0.1273  0.2396  1.5332
 8971TIP3    H248405   2.463   4.181  15.042  0.5019 -0.3986 -2.2061
 8972TIP3   OH248406   1.512   1.996   0.161 -0.0500  0.0075  0.0057
 8972TIP3    H148407   1.600   1.970   0.185  0.6037  2.4426  0.4181
 8972TIP3    H248408   1.524   2.061   0.091 -1.5658 -0.5645 -0.8224
 8973TIP3   OH248409   6.040   5.066   1.904 -0.1568 -0.4963  0.4859
 8973TIP3    H148410   6.103   5.116   1.956  1.8569  0.2607 -2.5150
 8973TIP3    H248411   6.085   4.985   1.882 -1.4861 -1.3991  1.0723
 8974TIP3   OH248412   6.765   2.972   2.700 -0.7672 -0.3479  0.0747
 8974TIP3    H148413   6.771   2.944   2.792  0.6199 -1.7859 -0.4427
 8974TIP3    H248414   6.853   3.001   2.678 -0.7584 -1.3636 -1.2326
 8975TIP3   OH248415   6.033   0.871  13.470  0.3926  0.1182 -0.0697
 8975TIP3    H148416   6.033   0.962  13.499  0.7177  0.0730  0.0740
 8975TIP3    H248417   6.116   0.836  13.502  0.5543 -0.0546 -0.6685
 8976TIP3   OH248418   3.535   2.527   2.583 -0.3237 -0.3176  0.1731
 8976TIP3    H148419   3.532   2.549   2.676 -0.5226 -2.2869  0.6433
 8976TIP3    H248420   3.616   2.477   2.573 -0.5144 -0.4650 -0.6476
 8977TIP3   OH248421   1.524   0.277  14.894 -0.3563 -0.5375  0.3022
 8977TIP3    H148422   1.586   0.242  14.831  0.7474 -0.8099  1.5333
 8977TIP3    H248423   1.573   0.345  14.941 -1.0555 -0.5886  1.1173
 8978TIP3   OH248424   0.496   5.473   5.208 -0.2050  0.1861  0.0030
 8978TIP3    H148425   0.438   5.397   5.208  1.3602 -1.0495  0.4932
 8978TIP3    H248426   0.536   5.473   5.295  1.4529  0.2687 -0.7402
 8979TIP3   OH248427   3.271   2.469  14.599  0.0026 -0.0640  0.2541
 8979TIP3    H148428   3.250   2.555  14.636 -0.0517 -0.4715  1.1909
 8979TIP3    H248429   3.233   2.407  14.661 -2.0303 -0.7641 -1.6421
 8980TIP3   OH248430   5.134   4.495  14.079  0.0241 -0.1398  0.1317
 8980TIP3    H148431   5.080   4.477  14.003 -0.9291  0.0354  0.7566
 8980TIP3    H248432   5.080   4.552  14.134  1.1770  0.7709  0.3616
 8981TIP3   OH248433   0.593   2.510  11.656 -0.1473  0.3609  0.8073
 8981TIP3    H148434   0.529   2.482  11.591  0.1716 -0.0967  0.6815
 8981TIP3    H248435   0.551   2.580  11.704 -1.1180 -0.5980  1.3807
 8982TIP3   OH248436   0.231   5.446  13.524 -0.2979 -0.9261 -1.2058
 8982TIP3    H148437   0.196   5.530  13.555 -0.0491 -1.1075 -0.4339
 8982TIP3    H248438   0.300   5.471  13.462  0.9793 -0.5244  0.3246
 8983TIP3   OH248439   5.716   6.141  11.958 -0.1581 -0.7124 -0.0104
 8983TIP3    H148440   5.688   6.225  11.921 -0.9293 -0.4814  1.0437
 8983TIP3    H248441   5.708   6.079  11.886  0.4150  0.1192 -0.7977
 8984TIP3   OH248442   0.003   1.134   5.468  0.1936 -0.1392 -0.5286
 8984TIP3    H148443   0.092   1.169   5.471  0.2182 -0.2203 -0.2562
 8984TIP3    H248444   0.008   1.052   5.518  0.0221 -0.2692 -0.7223
 8985TIP3   OH248445   2.901   5.622  16.676  0.1142  0.2294  0.1082
 8985TIP3    H148446   2.817   5.632  16.631  0.4116 -0.7528 -0.6641
 8985TIP3    H248447   2.911   5.704  16.724 -2.0785 -0.3084  1.5591
 8986TIP3   OH248448   4.709   1.223   2.836  0.6569  0.0018  0.6545
 8986TIP3    H148449   4.779   1.158   2.844  0.9431  0.0692 -1.2019
 8986TIP3    H248450   4.720   1.279   2.913  2.0453 -0.5792  0.8972
 8987TIP3   OH248451   5.425   0.819  10.796  0.1635  0.1867  0.2344
 8987TIP3    H148452   5.447   0.729  10.771  0.2939 -0.1826  1.6586
 8987TIP3    H248453   5.393   0.859  10.715  0.4121 -1.0448 -0.4830
 8988TIP3   OH248454   2.125   5.753  16.660 -0.2014 -0.5547  0.3337
 8988TIP3    H148455   2.134   5.659  16.675 -0.3398 -0.7274 -0.6736
 8988TIP3    H248456   2.207   5.791  16.693 -0.3456 -0.9683  1.1810
 8989TIP3   OH248457   1.657   0.981   3.391  0.5476  0.1967  0.0924
 8989TIP3    H148458   1.661   1.073   3.363 -0.8267  0.6591  1.2889
 8989TIP3    H248459   1.691   0.983   3.481  1.9263 -0.7206 -0.4068
 8990TIP3   OH248460   0.958   4.501  16.045 -0.3169  0.7278 -0.0455
 8990TIP3    H148461   1.042   4.514  16.090 -0.6746  0.8267  0.5939
 8990TIP3    H248462   0.942   4.407  16.050  0.0410  0.6284 -0.6873
 8991TIP3   OH248463   5.359   5.367   2.134  0.0929  0.3454  0.9149
 8991TIP3    H148464   5.444   5.323   2.134 -0.7109 -1.2318  0.3957
 8991TIP3    H248465   5.315   5.335   2.213 -0.2174  0.7754  0.9186
 8992TIP3   OH248466   2.987   5.778   3.884  0.3792  0.1890  0.4788
 8992TIP3    H148467   3.007   5.845   3.819  0.8788  0.2297  0.6762
 8992TIP3    H248468   2.987   5.825   3.968  1.7048 -0.2505  0.7277
 8993TIP3   OH248469   1.760   1.011  12.257 -0.3122 -1.0959  0.5893
 8993TIP3    H148470   1.819   1.062  12.202  0.1213 -1.2990  0.8678
 8993TIP3    H248471   1.680   1.003  12.204 -0.1611 -0.6663  0.2911
 8994TIP3   OH248472   4.147   0.316  12.958  0.3160  0.2817 -0.1135
 8994TIP3    H148473   4.070   0.292  13.009  0.4059 -1.1584 -0.6329
 8994TIP3    H248474   4.213   0.338  13.023  1.0566 -3.4140  0.5157
 8995TIP3   OH248475   3.176   6.157   4.954 -0.0966  0.4344 -0.1229
 8995TIP3    H148476   3.210   6.102   5.025  0.3154  0.9646  0.0895
 8995TIP3    H248477   3.116   6.099   4.906  0.0984 -0.1097  0.2837
 8996TIP3   OH248478   6.539   6.586  15.698  0.1136 -0.3912  0.0689
 8996TIP3    H148479   6.520   6.516  15.637 -0.6795  0.1258 -0.2886
 8996TIP3    H248480   6.570   6.542  15.777 -0.0968 -1.1219 -0.2567
 8997TIP3   OH248481   3.204   0.131  12.199 -0.2957 -0.3478  0.0064
 8997TIP3    H148482   3.257   0.206  12.171 -1.5324  0.9224  0.9842
 8997TIP3    H248483   3.132   0.127  12.136 -1.5144  0.7570  1.2900
 8998TIP3   OH248484   5.664   2.743  12.386 -0.0746  0.1361 -0.1841
 8998TIP3    H148485   5.584   2.707  12.349 -0.5992  2.2824 -1.2241
 8998TIP3    H248486   5.734   2.688  12.351 -1.0290 -1.2667  0.1003
 8999TIP3   OH248487   1.055   2.216   4.523  0.8084 -0.1859  0.5226
 8999TIP3    H148488   1.129   2.168   4.561  0.6729  1.0534  2.3891
 8999TIP3    H248489   1.081   2.308   4.528 -0.4728  0.1969  0.3398
 9000TIP3   OH248490   6.550   4.688   0.243  0.3962 -0.1337 -0.3772
 9000TIP3    H148491   6.475   4.645   0.201  0.0388 -1.3938  1.5140
 9000TIP3    H248492   6.523   4.780   0.250  0.2418  0.0067 -2.3663
 9001TIP3   OH248493   0.504   1.073  13.619  0.2035  0.1499  0.2267
 9001TIP3    H148494   0.430   1.089  13.561  0.3764  0.1858  0.0151
 9001TIP3    H248495   0.578   1.058  13.560  0.1441 -0.9437  0.4129
 9002TIP3   OH248496   6.323   5.905   5.615 -0.1316 -0.3715 -0.1467
 9002TIP3    H148497   6.238   5.872   5.646  0.1318  0.9564  2.0747
 9002TIP3    H248498   6.300   5.965   5.544 -0.9879 -0.7876 -0.2347
 9003TIP3   OH248499   1.357   1.260   2.769 -0.7110  0.2517  0.2861
 9003TIP3    H148500   1.416   1.334   2.754 -0.8304  0.1562 -0.7067
 9003TIP3    H248501   1.300   1.259   2.692 -1.1726 -0.4408  0.6294
 9004TIP3   OH248502   6.780   0.419  16.356  1.1512 -0.5422  0.1421
 9004TIP3    H148503   6.799   0.419  16.450  0.2769 -0.6706  0.3257
 9004TIP3    H248504   6.843   0.357  16.319  2.7039  0.8530  0.3868
 9005TIP3   OH248505   4.953   4.042   0.730 -0.0185  0.7405  0.1101
 9005TIP3    H148506   4.979   4.061   0.639 -1.1332  1.0825 -0.1459
 9005TIP3    H248507   4.861   4.066   0.733  0.5114  2.6690  1.8932
 9006TIP3   OH248508   4.051   3.093  15.988 -0.0471  0.1982  0.0193
 9006TIP3    H148509   4.031   3.157  16.056 -1.0032 -0.8528  0.7503
 9006TIP3    H248510   3.969   3.079  15.942  0.7035  1.2261 -1.6501
 9007TIP3   OH248511   6.112   5.945  13.806 -0.3304  0.0407 -0.2352
 9007TIP3    H148512   6.149   5.856  13.804 -1.2393 -0.3251 -0.8758
 9007TIP3    H248513   6.030   5.936  13.853 -0.3564  0.5766 -0.1749
 9008TIP3   OH248514   2.629   6.218  15.981  0.0662  0.3705 -0.0774
 9008TIP3    H148515   2.600   6.129  15.999 -0.7049  0.9563  1.6784
 9008TIP3    H248516   2.548   6.269  15.975  0.5278  1.0645 -0.5169
 9009TIP3   OH248517   6.286   2.665  11.542 -0.0299  0.1972  0.4199
 9009TIP3    H148518   6.314   2.742  11.492  0.4806 -0.7942 -0.8379
 9009TIP3    H248519   6.209   2.633  11.496  0.5625 -0.8421  0.1270
 9010TIP3   OH248520   5.141   0.841  17.060  0.2982  0.1545 -0.1894
 9010TIP3    H148521   5.156   0.927  17.100 -0.5135 -0.1092  0.6967
 9010TIP3    H248522   5.136   0.859  16.966  2.2660  0.7705 -0.1955
 9011TIP3   OH248523   0.437   3.490   5.843 -0.0948  0.1993 -0.1514
 9011TIP3    H148524   0.343   3.473   5.848  0.1378 -0.8428  0.8149
 9011TIP3    H248525   0.477   3.417   5.890  1.1090  1.7419  1.2753
 9012TIP3   OH248526   2.870   6.244   2.272 -0.4408 -0.1850 -0.4526
 9012TIP3    H148527   2.806   6.268   2.205  0.7723  1.3801 -1.0837
 9012TIP3    H248528   2.933   6.189   2.225  1.0470  1.8579 -0.9282
 9013TIP3   OH248529   6.010   4.458  16.222 -0.3791  0.2993  0.2238
 9013TIP3    H148530   5.986   4.369  16.195  0.5943  0.0665  0.1095
 9013TIP3    H248531   6.090   4.446  16.274 -0.0431  1.1411 -0.1007
 9014TIP3   OH248532   6.453   6.140   2.456 -0.4965  0.1459  0.2099
 9014TIP3    H148533   6.421   6.205   2.518  1.3503  1.1912  0.1081
 9014TIP3    H248534   6.374   6.096   2.424 -1.5086 -0.1358  2.9651
 9015TIP3   OH248535   4.000   2.153   4.538 -0.2863  0.5845 -0.1226
 9015TIP3    H148536   4.004   2.079   4.477  1.0056 -0.0317  0.6805
 9015TIP3    H248537   3.931   2.129   4.599 -1.0530  0.8438 -0.8776
 9016TIP3   OH248538   2.030   5.139  10.505 -0.4786 -0.8059 -0.3234
 9016TIP3    H148539   1.952   5.084  10.500 -1.3524  0.3648  0.2975
 9016TIP3    H248540   2.085   5.108  10.434 -1.2704 -2.0103 -0.4303
 9017TIP3   OH248541   6.581   2.505   0.748 -0.0102 -0.1596 -0.0235
 9017TIP3    H148542   6.667   2.501   0.706  0.5015 -0.1072  1.0071
 9017TIP3    H248543   6.559   2.414   0.767 -0.1961 -0.1755 -0.3197
 9018TIP3   OH248544   1.065   1.325  14.632 -0.0713 -0.3460  0.4599
 9018TIP3    H148545   1.119   1.403  14.642 -0.5656 -0.0234  0.5932
 9018TIP3    H248546   1.107   1.276  14.561  1.9670 -1.3882  2.3209
 9019TIP3   OH248547   4.176   2.366   1.882 -0.7828 -0.0463 -0.2311
 9019TIP3    H148548   4.149   2.443   1.932 -1.6225 -0.3485 -0.2158
 9019TIP3    H248549   4.184   2.296   1.947 -0.8674 -0.1858 -0.3695
 9020TIP3   OH248550   1.452   4.297   1.705 -0.4686 -0.6171  0.2442
 9020TIP3    H148551   1.510   4.228   1.736 -0.6279 -1.1202 -0.5531
 9020TIP3    H248552   1.369   4.252   1.687 -1.0100  0.0324  1.0452
 9021TIP3   OH248553   4.682   0.038   1.740 -0.3614 -0.1880  0.4325
 9021TIP3    H148554   4.640   0.104   1.685  0.8529  0.5182  0.3285
 9021TIP3    H248555   4.727  -0.019   1.678 -0.0299 -0.1270  0.6165
 9022TIP3   OH248556   5.762   6.201   5.317  0.5356  0.5369  0.3243
 9022TIP3    H148557   5.776   6.296   5.320 -2.3129  0.9742  1.3974
 9022TIP3    H248558   5.723   6.186   5.231  0.5360  0.4098  0.3475
 9023TIP3   OH248559   6.363   6.143  13.510 -0.0727  0.4397 -0.4998
 9023TIP3    H148560   6.271   6.162  13.527 -0.2060  1.7351 -2.5479
 9023TIP3    H248561   6.363   6.080  13.438  0.6313  0.0748 -0.1935
 9024TIP3   OH248562   5.270   2.792  13.224 -0.1757  0.2513 -0.2773
 9024TIP3    H148563   5.305   2.806  13.136  0.5614  2.2109  0.2992
 9024TIP3    H248564   5.267   2.697  13.234 -0.8539 -0.0007 -2.6381
 9025TIP3   OH248565   5.785   2.834   2.668 -0.3756  0.1237  0.0586
 9025TIP3    H148566   5.768   2.884   2.588 -3.3657 -0.1446  0.4521
 9025TIP3    H248567   5.707   2.780   2.679  0.9889 -1.5229  1.9433
 9026TIP3   OH248568   5.397   3.238  13.999  0.0545 -0.2527 -0.3147
 9026TIP3    H148569   5.466   3.285  13.951 -0.6196 -0.2406 -1.3003
 9026TIP3    H248570   5.444   3.175  14.054  0.8911  0.4227 -0.2441
 9027TIP3   OH248571   5.481   2.580   0.026  0.3531 -0.1292 -0.2190
 9027TIP3    H148572   5.521   2.659   0.062  1.2684  0.3120 -2.1329
 9027TIP3    H248573   5.397   2.573   0.072  1.0526  0.9256  1.2754
 9028TIP3   OH248574   1.186   3.957  13.106  0.1121  0.5987 -0.8077
 9028TIP3    H148575   1.203   3.942  13.199 -1.5217 -0.1357 -0.6026
 9028TIP3    H248576   1.147   4.044  13.103 -0.7432  0.2279 -0.6750
 9029TIP3   OH248577   3.211   1.071  15.034  0.4765  0.0734  0.2483
 9029TIP3    H148578   3.136   1.015  15.052  0.8164 -0.2904  0.5260
 9029TIP3    H248579   3.273   1.014  14.987 -0.1778  0.8545 -1.5881
 9030TIP3   OH248580   2.287   1.876  13.482  0.3041 -0.4653  0.2050
 9030TIP3    H148581   2.223   1.902  13.549  1.0574  0.2691  0.6602
 9030TIP3    H248582   2.372   1.892  13.524  0.7795 -0.6955 -0.6706
 9031TIP3   OH248583   5.013   1.713  16.435 -0.0417  0.4741  0.0374
 9031TIP3    H148584   5.054   1.631  16.463 -0.2876  1.2371  2.8060
 9031TIP3    H248585   5.037   1.722  16.343 -2.3405 -4.1027 -1.1830
 9032TIP3   OH248586   2.403   4.439  16.892 -0.5927  0.1811 -0.6638
 9032TIP3    H148587   2.393   4.463  16.984  1.4381  0.3769 -0.4609
 9032TIP3    H248588   2.460   4.506  16.856 -1.1405 -0.0571 -2.0089
 9033TIP3   OH248589   2.077   3.831   3.131  0.1468 -0.5043  0.1571
 9033TIP3    H148590   2.103   3.894   3.198  0.4360 -1.6352  1.1241
 9033TIP3    H248591   1.983   3.819   3.143  0.4320 -1.7280  1.2586
 9034TIP3   OH248592   1.496   6.549   0.454 -0.3351  0.0308  0.1893
 9034TIP3    H148593   1.448   6.467   0.466 -0.9420  0.7504  2.8781
 9034TIP3    H248594   1.430   6.611   0.425 -0.1221 -0.0943 -0.5797
 9035TIP3   OH248595   6.295   5.496   5.625 -0.3887 -0.1809  0.3062
 9035TIP3    H148596   6.300   5.581   5.581 -1.6768  0.6477  1.6911
 9035TIP3    H248597   6.265   5.435   5.558  0.8886  0.3783 -0.7962
 9036TIP3   OH248598   3.378   0.666  15.689 -0.3640  0.0180 -0.6399
 9036TIP3    H148599   3.375   0.757  15.656  0.3281  0.1399 -0.3648
 9036TIP3    H248600   3.457   0.629  15.650 -0.6773 -0.4897 -0.7959
 9037TIP3   OH248601   6.191   4.995   2.760 -0.2952  0.3395  0.0603
 9037TIP3    H148602   6.131   5.003   2.686 -0.1491 -1.2925 -0.2436
 9037TIP3    H248603   6.191   5.082   2.800 -4.4259 -0.1271  1.2831
 9038TIP3   OH248604   5.457   0.922  12.206 -0.2070  0.4718 -0.5323
 9038TIP3    H148605   5.530   0.877  12.247  0.2558  0.7232 -1.0856
 9038TIP3    H248606   5.406   0.956  12.280 -0.7052 -1.1508 -0.0991
 9039TIP3   OH248607   0.277   0.004  11.238 -0.4071  0.1609 -0.6150
 9039TIP3    H148608   0.289   0.015  11.144  3.4330  0.5853 -0.1681
 9039TIP3    H248609   0.255   0.091  11.270 -0.4266  0.2848 -0.9589
 9040TIP3   OH248610   5.000   5.357   5.783 -0.3331 -0.7524  0.5194
 9040TIP3    H148611   5.054   5.286   5.816  0.6951 -0.2281  0.0010
 9040TIP3    H248612   5.008   5.352   5.688 -0.6757 -0.2680  0.4603
 9041TIP3   OH248613   1.374   2.015  12.884  0.1573  0.7031 -0.2800
 9041TIP3    H148614   1.467   2.037  12.879 -0.2118  2.7283  1.2365
 9041TIP3    H248615   1.332   2.069  12.817 -0.1814  1.4174  0.4907
 9042TIP3   OH248616   4.977   5.390   0.762 -0.0018  0.1699 -0.4384
 9042TIP3    H148617   4.995   5.353   0.675 -2.6581  1.1636 -1.4638
 9042TIP3    H248618   4.965   5.314   0.818 -0.1346 -0.4995 -1.3577
 9043TIP3   OH248619   5.475   3.115  16.992  0.2549  0.3646  0.5452
 9043TIP3    H148620   5.392   3.087  17.031 -1.7512  0.8560 -3.1505
 9043TIP3    H248621   5.479   3.209  17.010  0.4139  0.1908  1.4266
 9044TIP3   OH248622   6.817   1.376   3.648  0.4429 -0.7536 -0.4777
 9044TIP3    H148623   6.828   1.419   3.563  0.3325  0.3418  0.0642
 9044TIP3    H248624   6.722   1.359   3.654  0.6711 -2.4320 -1.3449
 9045TIP3   OH248625   4.280   5.865  11.017  0.5358  0.4186  0.5169
 9045TIP3    H148626   4.374   5.879  11.007  0.3755 -0.0354 -1.8320
 9045TIP3    H248627   4.267   5.771  11.005 -0.3259  0.6181 -0.1898
 9046TIP3   OH248628   0.486   6.650  12.710  0.0840  0.0545 -0.7056
 9046TIP3    H148629   0.556   6.648  12.775  0.6873 -0.1588 -1.3543
 9046TIP3    H248630   0.477   6.560  12.681  0.7766  0.3782 -1.9350
 9047TIP3   OH248631   4.544   4.163  13.203  0.1580  0.4771  0.4015
 9047TIP3    H148632   4.467   4.141  13.255 -0.2541 -2.4101 -1.2962
 9047TIP3    H248633   4.512   4.165  13.113  1.8004  0.4702 -0.1987
 9048TIP3   OH248634   4.810   3.090   2.851  0.0200  0.2787 -0.2455
 9048TIP3    H148635   4.825   3.174   2.895 -1.1902 -0.6169  1.9744
 9048TIP3    H248636   4.716   3.090   2.833  0.1668 -0.2501 -0.9883
 9049TIP3   OH248637   5.459   2.030   2.332 -0.0445  0.2590  0.5956
 9049TIP3    H148638   5.375   1.988   2.313  0.2111 -0.8288  1.8086
 9049TIP3    H248639   5.442   2.083   2.410  0.3272  0.2303  0.6964
 9050TIP3   OH248640   6.394   3.289  16.265 -0.1622 -0.6208 -0.3643
 9050TIP3    H148641   6.439   3.210  16.294  0.4024 -0.4417 -0.7511
 9050TIP3    H248642   6.303   3.277  16.293  0.0289 -1.1856  0.0124
 9051TIP3   OH248643   2.998   4.586   1.469  0.7672  0.3408 -0.5238
 9051TIP3    H148644   3.073   4.611   1.415 -0.3550  2.7321 -1.0244
 9051TIP3    H248645   3.023   4.609   1.558  1.3462 -0.6141 -0.4297
 9052TIP3   OH248646   0.971   2.230  16.504  0.8922 -0.6544 -0.3744
 9052TIP3    H148647   0.913   2.224  16.580  0.6391  0.6450 -0.4528
 9052TIP3    H248648   0.934   2.169  16.440  0.3028 -0.7112  0.0155
 9053TIP3   OH248649   0.413   6.104   5.658 -0.0271  0.6683  0.5415
 9053TIP3    H148650   0.364   6.026   5.685  1.2566 -0.8916 -1.5410
 9053TIP3    H248651   0.476   6.118   5.729 -0.5292  0.0536  1.1153
 9054TIP3   OH248652   2.600   1.936   3.311 -0.6101  0.4901 -0.5408
 9054TIP3    H148653   2.612   1.864   3.250 -0.9913  0.6489 -0.8016
 9054TIP3    H248654   2.645   1.908   3.391 -0.4235  0.1327 -0.7744
 9055TIP3   OH248655   1.608   0.032  12.888  0.4914 -0.2281 -0.4090
 9055TIP3    H148656   1.607   0.126  12.901  0.4129 -0.0256 -1.8166
 9055TIP3    H248657   1.665   0.018  12.813 -1.1763 -1.1141 -1.5400
 9056TIP3   OH248658   5.197   4.840  14.193 -0.6990 -0.1954 -0.2813
 9056TIP3    H148659   5.224   4.757  14.154 -0.4692  0.0101 -0.5623
 9056TIP3    H248660   5.250   4.848  14.272 -0.1976  0.0247 -0.6300
 9057TIP3   OH248661   4.326   4.031  14.817 -0.1238  0.0396  0.1174
 9057TIP3    H148662   4.416   3.998  14.809  0.2004  0.5497  1.5478
 9057TIP3    H248663   4.331   4.121  14.786 -0.1748  0.0140  0.0364
 9058TIP3   OH248664   0.404   0.133   1.286  0.1396 -0.3654  0.1713
 9058TIP3    H148665   0.479   0.093   1.330 -0.0861  1.0115  1.8960
 9058TIP3    H248666   0.363   0.186   1.355 -0.4399  1.5872 -1.6472
 9059TIP3   OH248667   6.512   5.934   4.894 -0.1193 -0.1910 -0.1739
 9059TIP3    H148668   6.543   5.844   4.894 -0.8940 -0.4666  0.0399
 9059TIP3    H248669   6.463   5.942   4.812 -0.2162 -0.0236 -0.0994
 9060TIP3   OH248670   5.377   4.440   2.554 -0.5344  0.3910 -0.1481
 9060TIP3    H148671   5.384   4.501   2.480  0.8920  2.5615  1.7527
 9060TIP3    H248672   5.317   4.483   2.615 -0.6968 -0.7966  0.5409
 9061TIP3   OH248673   4.319   0.235   2.288 -0.6014 -0.0627 -0.6973
 9061TIP3    H148674   4.282   0.154   2.323  0.6496 -0.0424  0.7427
 9061TIP3    H248675   4.402   0.209   2.248  0.4385  0.6586  0.9086
 9062TIP3   OH248676   2.715   2.880  14.556  0.4818 -0.0739 -0.1739
 9062TIP3    H148677   2.715   2.863  14.462  2.4255  1.9063 -0.5711
 9062TIP3    H248678   2.646   2.945  14.568 -0.9195 -1.5658  0.0515
 9063TIP3   OH248679   4.841   2.131  11.045  0.4122 -0.0478  0.2861
 9063TIP3    H148680   4.858   2.199  11.111  0.3521 -0.1847  0.4454
 9063TIP3    H248681   4.907   2.064  11.061 -1.4730 -1.5391  2.2293
 9064TIP3   OH248682   4.457   2.977   5.792 -0.1113  0.1060  0.0822
 9064TIP3    H148683   4.453   3.021   5.707  1.7245 -0.7816 -0.4894
 9064TIP3    H248684   4.524   3.025   5.841 -1.1340  0.5914  1.0238
 9065TIP3   OH248685   0.110   5.302   6.039 -0.1995  0.2958  0.0251
 9065TIP3    H148686   0.136   5.298   5.947 -2.2908  1.6627 -0.6636
 9065TIP3    H248687   0.044   5.234   6.049  0.1370  0.0432  0.5505
 9066TIP3   OH248688   4.292   0.603   4.654  0.2508 -0.1435 -0.2886
 9066TIP3    H148689   4.374   0.631   4.694  0.6563  1.7514 -2.2895
 9066TIP3    H248690   4.235   0.580   4.728  2.1071 -0.1475  1.1751
 9067TIP3   OH248691   5.382   2.524   4.885 -0.2338  0.4598  0.3955
 9067TIP3    H148692   5.324   2.585   4.930 -0.0306  1.1951 -0.3095
 9067TIP3    H248693   5.325   2.455   4.852 -0.2161 -0.7656  2.8649
 9068TIP3   OH248694   1.023   3.127  13.133  0.1483  0.0166 -0.3507
 9068TIP3    H148695   0.968   3.106  13.208 -0.4298  1.5839 -0.2990
 9068TIP3    H248696   1.000   3.218  13.112  0.4557 -0.3225 -2.2772
 9069TIP3   OH248697   3.388   2.334   3.610  0.1957  0.3174  0.3847
 9069TIP3    H148698   3.380   2.413   3.664 -0.3865  0.4881  0.0545
 9069TIP3    H248699   3.385   2.262   3.672 -1.4115  0.4735  0.5055
 9070TIP3   OH248700   6.063   6.388   4.765 -0.0898  0.1623  0.0952
 9070TIP3    H148701   6.003   6.462   4.778  0.1662  0.4020 -0.0623
 9070TIP3    H248702   6.144   6.415   4.809 -0.5972 -0.8226  1.6676
 9071TIP3   OH248703   1.517   1.385   0.609  0.3144  0.8186 -0.1261
 9071TIP3    H148704   1.585   1.348   0.553 -0.4141  0.8785 -1.0610
 9071TIP3    H248705   1.435   1.350   0.574 -0.1310  0.4789  1.1874
 9072TIP3   OH248706   3.587   6.047  13.036  0.3149 -0.2718  0.1137
 9072TIP3    H148707   3.535   6.110  12.986 -2.5607 -1.7106  1.1988
 9072TIP3    H248708   3.654   6.100  13.079 -1.5564  1.9693  0.3694
 9073TIP3   OH248709   4.341   5.145  13.686  0.2596  0.0404  0.3887
 9073TIP3    H148710   4.339   5.241  13.689 -0.5445  0.0294  0.2779
 9073TIP3    H248711   4.433   5.124  13.671  0.6171  0.7649  1.4527
 9074TIP3   OH248712   3.005   0.976   4.129 -0.4786  0.4323  0.2728
 9074TIP3    H148713   3.067   0.934   4.189 -0.6191 -0.3895 -0.1514
 9074TIP3    H248714   3.014   0.927   4.047 -2.5228 -0.4363  0.5498
 9075TIP3   OH248715   3.970   4.583  13.804  0.2941  0.0091  0.2422
 9075TIP3    H148716   4.008   4.568  13.717 -0.7948  1.7711 -0.5716
 9075TIP3    H248717   3.917   4.662  13.793  1.7459  1.4340  3.0327
 9076TIP3   OH248718   0.301   2.975  12.504 -0.5271 -0.0216  0.7349
 9076TIP3    H148719   0.237   2.967  12.434 -0.7667  0.9850  0.8283
 9076TIP3    H248720   0.255   2.945  12.583 -0.4694 -0.5170  0.5817
 9077TIP3   OH248721   3.453   5.420  13.237 -0.2634 -0.8725 -0.2444
 9077TIP3    H148722   3.493   5.340  13.202  0.3797 -0.8019  0.3234
 9077TIP3    H248723   3.464   5.413  13.332 -0.2992 -0.1639 -0.1846
 9078TIP3   OH248724   1.696   5.384   0.436  0.1899 -0.6386  0.2106
 9078TIP3    H148725   1.706   5.348   0.348  0.0474 -0.7295  0.2306
 9078TIP3    H248726   1.776   5.358   0.482  1.0103  0.8055 -0.3657
 9079TIP3   OH248727   1.839   5.356  14.689 -0.4122  0.5155 -0.8745
 9079TIP3    H148728   1.776   5.307  14.635  1.0847 -0.2875 -1.9348
 9079TIP3    H248729   1.889   5.408  14.626  1.8212 -0.9523 -0.3568
 9080TIP3   OH248730   0.161   1.932   1.810 -0.1207  0.4877  0.2197
 9080TIP3    H148731   0.161   1.934   1.714  1.7999 -0.3039  0.1801
 9080TIP3    H248732   0.203   1.848   1.833  1.9462  1.8579  1.7191
 9081TIP3   OH248733   0.612   4.004   2.287  0.7500 -0.1209  0.4436
 9081TIP3    H148734   0.588   4.090   2.322 -0.8404 -0.0887 -0.7011
 9081TIP3    H248735   0.578   3.942   2.351  0.4439  0.0510  0.4513
 9082TIP3   OH248736   2.736   0.544  15.330 -0.5779 -0.9895  0.3865
 9082TIP3    H148737   2.809   0.548  15.392 -0.0504  2.1068 -0.3586
 9082TIP3    H248738   2.777   0.522  15.247 -0.6461 -0.5641  0.2366
 9083TIP3   OH248739   5.399   1.712   2.821 -0.4294 -0.3783  0.6117
 9083TIP3    H148740   5.326   1.721   2.760  0.1182  1.4933  0.2079
 9083TIP3    H248741   5.475   1.745   2.773 -0.1681  2.1115  2.6459
 9084TIP3   OH248742   4.238   1.716  11.930  0.0120 -0.3717  0.1875
 9084TIP3    H148743   4.156   1.733  11.884 -0.3649 -0.3704  0.8709
 9084TIP3    H248744   4.282   1.651  11.875 -0.3321 -0.1980 -0.3059
 9085TIP3   OH248745   3.815   1.857   2.753 -0.5941  0.6967  0.4872
 9085TIP3    H148746   3.792   1.885   2.664 -1.9771 -0.0010  0.6128
 9085TIP3    H248747   3.871   1.927   2.787 -0.7042  1.3465 -0.6392
 9086TIP3   OH248748   2.476   0.343   6.252 -0.0451  0.1330  0.0838
 9086TIP3    H148749   2.497   0.259   6.295  0.6892  1.4025  2.2894
 9086TIP3    H248750   2.558   0.392   6.256 -0.3200  0.7400 -1.7259
 9087TIP3   OH248751   5.582   0.751  15.641 -0.3835 -0.0839  0.5196
 9087TIP3    H148752   5.497   0.710  15.624 -0.1703 -0.6491  0.8249
 9087TIP3    H248753   5.572   0.841  15.608 -1.3980  0.1235  1.3808
 9088TIP3   OH248754   1.505   5.098  14.328 -0.0768  0.4270  0.0164
 9088TIP3    H148755   1.509   5.016  14.278  0.7504  1.0058 -0.8847
 9088TIP3    H248756   1.418   5.133  14.308 -0.8766 -0.7759  1.3080
 9089TIP3   OH248757   3.238   0.826  16.719  0.3361 -0.1448 -0.1855
 9089TIP3    H148758   3.202   0.780  16.643 -0.7703 -0.1919  0.3484
 9089TIP3    H248759   3.332   0.827  16.705  0.1041  0.1990 -1.7606
 9090TIP3   OH248760   5.244   3.188   2.821 -0.3084 -0.3008 -0.4703
 9090TIP3    H148761   5.264   3.222   2.733  0.0398  1.1001  0.1276
 9090TIP3    H248762   5.161   3.230   2.844  0.6325  0.9823  0.6936
 9091TIP3   OH248763   4.927   0.216   0.797  0.4541  0.0602  0.2015
 9091TIP3    H148764   4.942   0.193   0.889  0.1871  0.3995  0.3327
 9091TIP3    H248765   4.834   0.240   0.794  0.0983 -1.3676 -0.4641
 9092TIP3   OH248766   1.672   5.283   2.108 -0.4583 -0.5041  0.3095
 9092TIP3    H148767   1.576   5.280   2.113 -0.4803 -0.1282  0.0950
 9092TIP3    H248768   1.691   5.360   2.055  0.0073  0.6257  2.0663
 9093TIP3   OH248769   1.003   3.851   0.697  0.0567  0.9707 -0.0591
 9093TIP3    H148770   0.940   3.870   0.628  0.2715 -2.0063 -1.1635
 9093TIP3    H248771   1.087   3.844   0.652 -0.0342 -2.5414  0.1674
 9094TIP3   OH248772   1.775   6.042   1.697 -0.2333 -1.0652 -0.3114
 9094TIP3    H148773   1.777   6.068   1.605 -2.3416 -1.0247 -0.3551
 9094TIP3    H248774   1.766   6.124   1.746  0.3238 -1.1344 -0.0862
 9095TIP3   OH248775   6.327   1.883  11.490 -0.1335  0.3233 -0.3329
 9095TIP3    H148776   6.356   1.863  11.401  0.3534  0.8385 -0.2988
 9095TIP3    H248777   6.365   1.969  11.508 -0.8573  0.5585  0.0948
 9096TIP3   OH248778   2.422   4.416  17.165  0.3933  0.2719 -0.1253
 9096TIP3    H148779   2.360   4.344  17.177  0.0830  1.0146  3.0903
 9096TIP3    H248780   2.503   4.386  17.207  0.8813  1.0099 -0.5287
 9097TIP3   OH248781   0.466   2.117  11.535  0.6758 -0.0306 -0.0512
 9097TIP3    H148782   0.458   2.212  11.530 -0.7162 -0.1333 -0.1328
 9097TIP3    H248783   0.406   2.091  11.604  1.1922 -0.8384  0.1031
 9098TIP3   OH248784   3.818   2.831  16.245  0.1670  0.2312 -0.3346
 9098TIP3    H148785   3.757   2.817  16.173 -0.4381  0.6355  0.0905
 9098TIP3    H248786   3.806   2.755  16.302  0.6311 -0.0784 -0.6474
 9099TIP3   OH248787   2.348   1.312  11.923 -0.1579  0.3786  0.1089
 9099TIP3    H148788   2.273   1.311  11.864 -0.7098  1.1546  0.7733
 9099TIP3    H248789   2.411   1.371  11.882  0.2094 -0.4993 -0.5926
 9100TIP3   OH248790   2.045   0.824   2.884  0.2398 -0.1034  0.2890
 9100TIP3    H148791   2.071   0.906   2.843 -0.6521 -0.0260 -0.1314
 9100TIP3    H248792   2.105   0.759   2.848  1.9225  0.6049  1.7533
 9101TIP3   OH248793   3.827   0.296   2.685 -0.4315  0.4408  0.0601
 9101TIP3    H148794   3.828   0.200   2.691 -0.2862  0.4571  0.3285
 9101TIP3    H248795   3.850   0.325   2.773 -1.5394  0.7410  0.2505
 9102TIP3   OH248796   5.776   6.341   1.951 -0.1736 -0.3656 -0.0541
 9102TIP3    H148797   5.847   6.338   1.887  0.1324 -0.9951  0.3126
 9102TIP3    H248798   5.750   6.250   1.962  1.0627 -0.4982  2.1373
 9103TIP3   OH248799   1.038   4.409  12.983 -0.3796 -0.0779  0.3699
 9103TIP3    H148800   1.006   4.494  13.012 -2.4863 -0.6959 -0.0562
 9103TIP3    H248801   1.099   4.429  12.912 -1.2718  1.0506 -0.0842
 9104TIP3   OH248802   1.860   0.679   6.423  0.3207 -0.3630 -0.4765
 9104TIP3    H148803   1.781   0.667   6.370  0.0587  3.4160 -1.0669
 9104TIP3    H248804   1.833   0.741   6.491  1.9386 -1.5613  1.2928
 9105TIP3   OH248805   1.581   4.972   4.611  0.2588  0.2231 -0.0560
 9105TIP3    H148806   1.605   4.962   4.518 -1.6063  2.1802 -0.8027
 9105TIP3    H248807   1.629   5.050   4.639  1.9187 -1.1637  1.0590
 9106TIP3   OH248808   0.746   2.731   0.642 -0.1473  0.2711 -0.6812
 9106TIP3    H148809   0.744   2.802   0.707 -0.1626 -1.6260  1.4760
 9106TIP3    H248810   0.660   2.736   0.599 -0.4394  1.0861 -0.0320
 9107TIP3   OH248811   6.425   4.559  17.007  0.3597  0.2867  0.1720
 9107TIP3    H148812   6.479   4.507  16.948 -1.4904 -1.8320  0.2758
 9107TIP3    H248813   6.482   4.578  17.082  1.1052 -1.5921  0.1173
 9108TIP3   OH248814   1.077   6.224  16.217 -0.1316  0.1696 -0.4711
 9108TIP3    H148815   0.992   6.221  16.175 -0.2815  0.8126 -0.2237
 9108TIP3    H248816   1.064   6.278  16.296 -0.1200 -1.9328  1.0118
 9109TIP3   OH248817   2.955   3.485   3.330 -0.4321  0.0062 -0.4307
 9109TIP3    H148818   3.030   3.536   3.298 -0.5985 -0.7202 -2.0581
 9109TIP3    H248819   2.914   3.451   3.250 -2.1641 -0.0775  0.4850
 9110TIP3   OH248820   0.964   1.763   1.038  0.1120 -0.4037  0.2250
 9110TIP3    H148821   0.882   1.723   1.009  0.5648 -2.5372  1.8264
 9110TIP3    H248822   1.030   1.725   0.981  0.4988 -1.7207  1.5303
 9111TIP3   OH248823   6.223   2.910  13.788  0.1140 -0.4331  0.5596
 9111TIP3    H148824   6.137   2.925  13.749 -0.1620  1.5503  1.8582
 9111TIP3    H248825   6.204   2.863  13.869  0.3577 -1.0074  0.2860
 9112TIP3   OH248826   0.414   4.881   3.799  0.4567 -0.1653 -0.2637
 9112TIP3    H148827   0.474   4.951   3.772 -0.2324 -0.3874 -2.5199
 9112TIP3    H248828   0.445   4.804   3.751 -1.1872 -0.4445 -0.9125
 9113TIP3   OH248829   2.347   3.154  11.385 -0.0533 -0.4273  0.2291
 9113TIP3    H148830   2.428   3.190  11.422  0.0247 -1.3776  0.9842
 9113TIP3    H248831   2.335   3.070  11.429 -1.9531  0.1226  0.8031
 9114TIP3   OH248832   4.286   6.439   3.284  0.2935  0.0321  0.1674
 9114TIP3    H148833   4.281   6.461   3.377  1.7014  2.1969 -0.2180
 9114TIP3    H248834   4.225   6.500   3.242  2.2223  1.4186 -0.6643
 9115TIP3   OH248835   4.493   2.605   5.462  0.7916 -0.1925 -0.5662
 9115TIP3    H148836   4.565   2.620   5.524 -0.1491  0.6004  0.3477
 9115TIP3    H248837   4.415   2.631   5.510 -0.2142 -1.9746 -1.2205
 9116TIP3   OH248838   4.754   4.372   4.439 -0.2930 -0.3950  0.7842
 9116TIP3    H148839   4.735   4.464   4.458  1.6295  0.1942 -0.0247
 9116TIP3    H248840   4.849   4.365   4.449 -0.2811 -2.0228 -0.3272
 9117TIP3   OH248841   2.596   2.074   3.024  0.1626  0.3300 -0.1638
 9117TIP3    H148842   2.675   2.077   3.078  0.4045  0.9714 -0.5493
 9117TIP3    H248843   2.524   2.074   3.086  0.4560  0.1132  0.1792
 9118TIP3   OH248844   0.699   3.349   1.472 -0.3311 -0.3199  0.1943
 9118TIP3    H148845   0.730   3.428   1.516  3.4686 -1.8960  0.5243
 9118TIP3    H248846   0.658   3.297   1.541 -0.0768 -0.0113  0.5766
 9119TIP3   OH248847   2.999   4.143  11.547  0.4459  0.7562 -0.4372
 9119TIP3    H148848   2.985   4.048  11.544  1.5500  0.5741 -0.1907
 9119TIP3    H248849   2.912   4.181  11.536  0.2967 -0.2558 -3.0594
 9120TIP3   OH248850   6.657   3.486   1.104 -0.3389  0.2290  0.1608
 9120TIP3    H148851   6.669   3.562   1.160  0.6068  0.4903 -0.3890
 9120TIP3    H248852   6.563   3.485   1.084 -0.2924  1.4641 -0.1322
 9121TIP3   OH248853   1.941   4.982   2.929 -0.5165 -0.4480  0.2858
 9121TIP3    H148854   1.886   4.915   2.888  0.2068 -0.6584 -0.3646
 9121TIP3    H248855   1.920   4.977   3.022 -0.6668 -1.4051  0.2105
 9122TIP3   OH248856   3.109   1.658   5.128  0.1058 -0.2324 -0.4743
 9122TIP3    H148857   3.198   1.635   5.103  0.3331  0.8011 -0.6238
 9122TIP3    H248858   3.119   1.720   5.201 -0.4827  0.1729 -0.7323
 9123TIP3   OH248859   4.423   6.796  12.519  0.6056  0.0353  0.6046
 9123TIP3    H148860   4.354   6.747  12.564  0.5782  0.2947  0.8426
 9123TIP3    H248861   4.504   6.751  12.544  0.4313 -0.9348 -0.5444
 9124TIP3   OH248862   2.112   4.342  14.765  0.0720 -0.0465  0.3240
 9124TIP3    H148863   2.020   4.328  14.786  0.1190 -0.6611  0.1336
 9124TIP3    H248864   2.159   4.283  14.824  0.4151  1.2089  1.3274
 9125TIP3   OH248865   0.902   1.767   5.087  0.0414 -0.0901 -0.0167
 9125TIP3    H148866   0.941   1.853   5.105 -0.5158  0.7088 -2.4950
 9125TIP3    H248867   0.973   1.705   5.103  1.0614  1.0078 -0.2169
 9126TIP3   OH248868   2.323   0.019   3.997  0.1229  0.1833  0.0975
 9126TIP3    H148869   2.407   0.061   4.013  1.4841 -1.9640 -1.1147
 9126TIP3    H248870   2.297   0.050   3.911  1.2749 -1.6265 -0.9288
 9127TIP3   OH248871   0.919   0.948  12.588  0.2504  0.4360 -0.0181
 9127TIP3    H148872   0.868   0.988  12.517 -0.7465 -0.5259  0.1530
 9127TIP3    H248873   0.863   0.955  12.665  0.1549 -1.0815  0.0602
 9128TIP3   OH248874   6.089   1.644   4.806 -0.6537  0.2711  0.3074
 9128TIP3    H148875   6.104   1.734   4.777 -0.7606  0.0838 -0.3496
 9128TIP3    H248876   6.060   1.652   4.897  0.1280  0.8399  0.5089
 9129TIP3   OH248877   3.476   2.521   2.867 -0.3522 -0.2522  0.4169
 9129TIP3    H148878   3.486   2.474   2.950 -0.8660  1.0864  1.2652
 9129TIP3    H248879   3.384   2.511   2.845 -0.1962 -0.6775 -0.0298
 9130TIP3   OH248880   5.306   6.521  15.576 -0.3426  0.5420 -0.2697
 9130TIP3    H148881   5.306   6.472  15.494  0.3312 -1.4515  0.8606
 9130TIP3    H248882   5.399   6.532  15.597 -0.5021  1.4072  0.0158
 9131TIP3   OH248883   6.648   6.519  14.703  0.2233  0.0422 -0.2762
 9131TIP3    H148884   6.669   6.566  14.784  1.1032 -0.0771 -0.4240
 9131TIP3    H248885   6.615   6.434  14.731 -1.5286  0.7956 -0.0018
 9132TIP3   OH248886   5.230   1.535  17.239 -0.3417 -0.0929  0.3955
 9132TIP3    H148887   5.238   1.508  17.330 -0.5344  0.6049  0.6224
 9132TIP3    H248888   5.174   1.613  17.242  1.3952  1.2027 -0.0847
 9133TIP3   OH248889   6.541   4.939  15.081  0.0260  0.4124 -0.2495
 9133TIP3    H148890   6.568   4.850  15.060 -0.7203 -0.0290  0.6251
 9133TIP3    H248891   6.534   4.983  14.996  0.3374 -0.3794 -0.6829
 9134TIP3   OH248892   2.328   1.401  15.562 -0.1843 -0.1449  0.6500
 9134TIP3    H148893   2.339   1.472  15.498  0.0229 -0.5671  0.2148
 9134TIP3    H248894   2.335   1.321  15.510  2.2693 -0.5505  1.5265
 9135TIP3   OH248895   6.071   2.688   6.672 -0.1451  0.0885 -0.1379
 9135TIP3    H148896   6.025   2.728   6.746  0.0241  1.2589 -0.6518
 9135TIP3    H248897   6.163   2.708   6.687 -0.1420  0.5892 -0.8225
 9136TIP3   OH248898   0.264   4.356  13.098  0.6674 -0.0551  0.0476
 9136TIP3    H148899   0.208   4.415  13.048 -1.7800 -1.3950  1.1186
 9136TIP3    H248900   0.284   4.285  13.037  0.9470  0.2794 -0.2509
 9137TIP3   OH248901   6.101   2.303  16.127  0.9981 -0.2666  0.4929
 9137TIP3    H148902   6.195   2.290  16.117  0.8631  0.0189 -1.5230
 9137TIP3    H248903   6.091   2.347  16.211  2.5371 -1.4818  1.3453
 9138TIP3   OH248904   1.621   5.456   2.639 -0.2454 -0.9200  0.2463
 9138TIP3    H148905   1.646   5.424   2.552 -0.0914  1.3613 -0.5743
 9138TIP3    H248906   1.703   5.480   2.681 -0.5957  1.6069 -0.4543
 9139TIP3   OH248907   4.460   5.292   0.374  0.3146  0.0246 -0.1732
 9139TIP3    H148908   4.472   5.205   0.336 -0.9178 -0.9837  1.6702
 9139TIP3    H248909   4.505   5.288   0.459 -1.0309  0.6795  0.5866
 9140TIP3   OH248910   5.798   0.873   2.663 -0.0161  0.0292 -0.3478
 9140TIP3    H148911   5.759   0.904   2.581 -0.0082  0.2805 -0.2585
 9140TIP3    H248912   5.883   0.918   2.667 -0.6978  1.2668  0.5837
 9141TIP3   OH248913   1.650   1.770   1.410 -0.5732  0.0674  0.3779
 9141TIP3    H148914   1.627   1.677   1.405 -0.7285  0.1114  0.2442
 9141TIP3    H248915   1.721   1.774   1.473 -0.0445 -0.2424 -0.1894
 9142TIP3   OH248916   5.261   5.614   2.032 -0.1404 -0.6568 -0.2350
 9142TIP3    H148917   5.280   5.523   2.056  1.8212 -0.7123 -1.8276
 9142TIP3    H248918   5.169   5.613   2.006 -0.0474 -2.2737 -0.5739
 9143TIP3   OH248919   0.408   5.994   3.741  0.6967 -0.1899 -0.5025
 9143TIP3    H148920   0.393   6.060   3.809  0.5855  0.0737 -0.7811
 9143TIP3    H248921   0.435   5.916   3.789  1.2411  0.1799 -0.1955
 9144TIP3   OH248922   6.369   4.855  17.031  0.3618  0.4171  0.1903
 9144TIP3    H148923   6.317   4.805  16.969  0.1944  0.7371  0.0716
 9144TIP3    H248924   6.305   4.889  17.094  0.1473  2.5692 -1.1459
 9145TIP3   OH248925   5.119   1.341   4.106  0.4960  0.0866  0.4072
 9145TIP3    H148926   5.030   1.308   4.119  0.2540  0.6091  0.0953
 9145TIP3    H248927   5.113   1.434   4.129  0.9294  0.1504  0.2520
 9146TIP3   OH248928   5.564   1.138  16.963  0.2413 -0.3420 -0.3117
 9146TIP3    H148929   5.605   1.196  17.027 -0.3282 -1.0975  0.7522
 9146TIP3    H248930   5.479   1.179  16.945  0.4377 -0.0828 -0.6626
 9147TIP3   OH248931   4.358   0.191   5.011  0.0670 -0.1040 -0.1823
 9147TIP3    H148932   4.352   0.134   5.088 -1.2173  0.3215  0.0366
 9147TIP3    H248933   4.326   0.276   5.042  0.5221  0.3412 -0.9192
 9148TIP3   OH248934   3.791   2.433   0.996 -0.2098  0.2357 -0.3033
 9148TIP3    H148935   3.800   2.389   1.080 -1.2656 -0.5671 -0.5958
 9148TIP3    H248936   3.866   2.403   0.944  0.1510  0.3204  0.1722
 9149TIP3   OH248937   2.786   4.792   5.681 -0.1322  0.6293  0.3910
 9149TIP3    H148938   2.728   4.725   5.718 -1.8972  2.4200  0.9251
 9149TIP3    H248939   2.731   4.870   5.675  1.3899  1.5608 -1.9118
 9150TIP3   OH248940   4.468   6.058  10.562 -0.2736 -0.3922 -0.2360
 9150TIP3    H148941   4.495   6.110  10.638  0.9052  0.9931 -1.5572
 9150TIP3    H248942   4.383   6.021  10.587  1.1027 -1.7657  2.5793
 9151TIP3   OH248943   0.059   3.953   5.902 -0.4008 -0.4097 -0.2689
 9151TIP3    H148944   0.148   3.920   5.903  0.0405  0.6829 -1.8571
 9151TIP3    H248945   0.056   4.012   5.827 -1.7631  1.5010  1.2324
 9152TIP3   OH248946   3.741   0.974   3.915 -1.1337 -0.4259 -0.0307
 9152TIP3    H148947   3.727   0.999   4.006  0.4072 -3.3663  1.0649
 9152TIP3    H248948   3.752   0.879   3.917 -0.5496 -0.4922 -3.2219
 9153TIP3   OH248949   4.642   6.367   4.448 -0.5149 -0.0534  0.1687
 9153TIP3    H148950   4.717   6.379   4.390 -0.5177 -0.5009  0.0670
 9153TIP3    H248951   4.676   6.315   4.521 -0.6116  0.1466  0.3581
 9154TIP3   OH248952   1.717   2.885  16.162  0.7960  0.8571  0.1728
 9154TIP3    H148953   1.672   2.882  16.078  0.8807  0.3314  0.1401
 9154TIP3    H248954   1.657   2.841  16.223  0.4301  1.8424  0.5420
 9155TIP3   OH248955   5.599   0.971  11.328 -0.3034 -1.0127  0.1968
 9155TIP3    H148956   5.660   1.040  11.300 -1.0933  0.5774  2.2951
 9155TIP3    H248957   5.641   0.890  11.300 -0.0421  0.3461 -3.6238
 9156TIP3   OH248958   6.309   3.875   2.729 -0.0463  0.4487 -0.1465
 9156TIP3    H148959   6.311   3.970   2.734 -0.9996  0.5266 -1.0948
 9156TIP3    H248960   6.216   3.853   2.729  0.1681 -0.4854  0.0695
 9157TIP3   OH248961   0.439   6.316  13.067 -0.1132 -0.0556 -0.1465
 9157TIP3    H148962   0.472   6.308  13.157  0.8999  0.6718 -0.4402
 9157TIP3    H248963   0.507   6.274  13.013 -1.1607 -1.3283 -0.5028
 9158TIP3   OH248964   4.593   5.254  11.815  0.6719  0.0653 -0.0140
 9158TIP3    H148965   4.616   5.226  11.727  1.9261 -0.2146  0.3920
 9158TIP3    H248966   4.654   5.207  11.872  1.3567  1.9273  0.8492
 9159TIP3   OH248967   3.310   6.371   1.978 -0.2410  0.3418  0.0098
 9159TIP3    H148968   3.361   6.445   1.945 -0.4234  0.0823 -0.8834
 9159TIP3    H248969   3.329   6.299   1.917  0.9373 -0.7231  1.5949
 9160TIP3   OH248970   3.229   1.648  14.099  0.5238  0.4955 -0.2049
 9160TIP3    H148971   3.226   1.555  14.122 -0.2403  0.9053  1.4222
 9160TIP3    H248972   3.322   1.671  14.103  0.4754  0.3844  1.8739
 9161TIP3   OH248973   5.132   2.510  15.400  0.3367  0.1619  0.7906
 9161TIP3    H148974   5.107   2.584  15.455  1.3314 -0.2061  1.7500
 9161TIP3    H248975   5.226   2.519  15.388  0.1977  0.0056 -0.5291
 9162TIP3   OH248976   2.150   5.768   1.363  0.1153  0.4564  0.4462
 9162TIP3    H148977   2.154   5.863   1.348 -1.4061  0.4425 -0.1387
 9162TIP3    H248978   2.070   5.756   1.414  0.6686 -0.4484  1.1093
 9163TIP3   OH248979   5.958   1.955   2.568  0.0229 -0.1412 -0.5037
 9163TIP3    H148980   5.972   1.866   2.599 -0.2705  0.5110  1.5739
 9163TIP3    H248981   5.870   1.955   2.532  0.0638 -0.7169 -0.6050
 9164TIP3   OH248982   1.894   0.645  13.503  0.0254  0.3823  0.2560
 9164TIP3    H148983   1.829   0.651  13.433 -0.0632  0.6213  0.3555
 9164TIP3    H248984   1.977   0.628  13.459  0.2163  1.9249 -0.0226
 9165TIP3   OH248985   4.250   0.104   1.385  0.1234 -0.2073 -0.3166
 9165TIP3    H148986   4.172   0.131   1.336 -0.3555  0.3050  0.7361
 9165TIP3    H248987   4.301   0.053   1.321 -1.1661 -0.7269 -0.9555
 9166TIP3   OH248988   5.949   1.389   6.032 -0.2470  0.0149 -0.6221
 9166TIP3    H148989   5.941   1.303   6.072  0.0304 -0.1205 -0.8567
 9166TIP3    H248990   5.914   1.378   5.944  4.0852 -1.0755 -2.3623
 9167TIP3   OH248991   0.796   6.242   5.108  0.4774 -0.1112 -0.4813
 9167TIP3    H148992   0.884   6.219   5.077  0.4344 -0.5196 -0.3070
 9167TIP3    H248993   0.741   6.168   5.082  0.7132 -1.1441  1.7882
 9168TIP3   OH248994   0.571   5.613   3.616  0.0531 -0.1838 -0.4700
 9168TIP3    H148995   0.601   5.696   3.652 -1.3297  0.0453  0.2050
 9168TIP3    H248996   0.638   5.588   3.553  2.1471 -0.1925  1.6901
 9169TIP3   OH248997   5.021   2.882  16.407  0.0151  0.2614 -0.0037
 9169TIP3    H148998   4.965   2.832  16.348  2.5848 -0.7540 -1.6773
 9169TIP3    H248999   5.001   2.973  16.389 -0.9203 -0.0871 -0.7615
 9170TIP3   OH249000   4.600   3.180  13.456 -0.1323 -0.3502 -0.9768
 9170TIP3    H149001   4.626   3.257  13.405 -1.2203 -0.3755 -1.5958
 9170TIP3    H249002   4.525   3.210  13.508  1.1990 -0.2277  0.8928
 9171TIP3   OH249003   1.550   3.516  14.747 -0.1042 -0.2632 -0.8685
 9171TIP3    H149004   1.587   3.602  14.765 -1.0810  0.2164 -1.0673
 9171TIP3    H249005   1.469   3.514  14.798 -0.5233 -0.7167 -1.5475
 9172TIP3   OH249006   6.629   0.996  14.014 -0.1040  0.3574  0.5001
 9172TIP3    H149007   6.584   0.919  13.980  1.3492 -1.1077  1.7944
 9172TIP3    H249008   6.673   1.034  13.937  1.4841 -1.7384  0.3251
 9173TIP3   OH249009   2.202   2.263  14.135 -0.2079 -0.6475 -0.1550
 9173TIP3    H149010   2.273   2.310  14.178 -0.4150 -1.4032  1.0446
 9173TIP3    H249011   2.122   2.299  14.173 -0.4377 -0.3958 -0.8742
 9174TIP3   OH249012   2.631   0.791  12.153 -0.6342 -0.2097  0.1187
 9174TIP3    H149013   2.572   0.859  12.121  0.0402  0.2898 -0.0554
 9174TIP3    H249014   2.669   0.753  12.074 -3.3234 -2.8936  0.0350
 9175TIP3   OH249015   5.952   5.480   0.069 -0.2764  0.0245  0.3004
 9175TIP3    H149016   5.957   5.503   0.162 -0.5333  1.8722 -0.1136
 9175TIP3    H249017   5.863   5.448   0.058 -1.1758  2.4390  0.1668
 9176TIP3   OH249018   5.348   0.579  14.244  0.2730 -0.0372  0.7830
 9176TIP3    H149019   5.339   0.499  14.191  1.5089  1.0592 -1.1640
 9176TIP3    H249020   5.289   0.642  14.202  0.8278  0.6805  1.0740
 9177TIP3   OH249021   3.181   1.380  11.057 -0.3259 -0.2795 -0.5531
 9177TIP3    H149022   3.249   1.446  11.046 -0.9311  0.5028  0.3077
 9177TIP3    H249023   3.181   1.332  10.975 -0.6921  1.5786 -1.6658
 9178TIP3   OH249024   3.704   3.432   2.423  0.0907  0.3335  0.3855
 9178TIP3    H149025   3.623   3.476   2.450 -0.9745 -1.8368  0.8424
 9178TIP3    H249026   3.692   3.414   2.330  0.2913  0.5041  0.3259
 9179TIP3   OH249027   1.431   6.631  17.245 -0.2291 -0.0047 -0.4677
 9179TIP3    H149028   1.389   6.548  17.266 -1.0406  0.7945  1.1792
 9179TIP3    H249029   1.517   6.606  17.212 -0.6173 -1.5148 -0.3878
 9180TIP3   OH249030   2.143   2.563  17.168  0.1026  0.1900 -0.5125
 9180TIP3    H149031   2.232   2.557  17.134  0.2180  3.4704 -0.9490
 9180TIP3    H249032   2.152   2.542  17.261  1.4515  1.1707 -0.4032
 9181TIP3   OH249033   1.238   4.103  14.224 -0.6274 -0.2814 -0.3253
 9181TIP3    H149034   1.329   4.110  14.251 -0.4806 -1.8298 -0.3565
 9181TIP3    H249035   1.190   4.085  14.305 -0.9448  0.7273 -0.2787
 9182TIP3   OH249036   6.061   3.624   4.494  0.4190 -0.3200  0.2388
 9182TIP3    H149037   6.048   3.546   4.549 -1.9947 -1.4657 -1.8580
 9182TIP3    H249038   5.980   3.674   4.505 -0.1744 -0.6713 -2.3627
 9183TIP3   OH249039   3.515   4.841  13.337 -0.6027 -0.0530 -0.4376
 9183TIP3    H149040   3.502   4.748  13.322 -1.1015  0.1023 -0.9933
 9183TIP3    H249041   3.427   4.878  13.341 -0.4665  0.1083  1.7114
 9184TIP3   OH249042   5.653   3.864   3.148  0.3149  0.2319  0.2946
 9184TIP3    H149043   5.719   3.825   3.091 -0.0752  0.6415 -0.4467
 9184TIP3    H249044   5.571   3.824   3.121  0.2613 -0.3219  1.2557
 9185TIP3   OH249045   5.527   0.239  12.344 -0.1765 -0.2255 -0.5732
 9185TIP3    H149046   5.591   0.175  12.374  0.5940  0.7020 -0.2102
 9185TIP3    H249047   5.570   0.324  12.358 -0.6281  0.3150 -2.3256
 9186TIP3   OH249048   3.946   2.734   2.483  0.3929  0.0564 -0.4458
 9186TIP3    H149049   3.887   2.756   2.555  0.6984 -2.5782  0.6507
 9186TIP3    H249050   3.961   2.817   2.438 -1.9742  1.2443  0.8889
 9187TIP3   OH249051   4.577   2.568   2.909 -0.1623 -0.1941  0.4983
 9187TIP3    H149052   4.544   2.639   2.854 -2.9216 -1.4253  0.5039
 9187TIP3    H249053   4.501   2.538   2.958  1.5445 -1.4083  2.4715
 9188TIP3   OH249054   0.611   3.099  11.361  0.5732 -0.3219  0.3433
 9188TIP3    H149055   0.666   3.023  11.379  0.5875 -0.2233  0.7213
 9188TIP3    H249056   0.534   3.062  11.317  0.0316 -0.7151  1.5786
 9189TIP3   OH249057   6.321   3.266  15.275 -0.2710  0.6139 -0.9533
 9189TIP3    H149058   6.284   3.240  15.360 -1.0563  1.3891 -1.0503
 9189TIP3    H249059   6.416   3.260  15.287 -0.3932  0.1570 -0.2002
 9190TIP3   OH249060   1.699   5.391  15.353 -0.3184 -0.1976 -0.1559
 9190TIP3    H149061   1.651   5.474  15.360  0.9878  0.5995 -0.3736
 9190TIP3    H249062   1.740   5.381  15.439  0.6385  0.1018 -0.5634
 9191TIP3   OH249063   0.890   6.019  13.837 -0.4394  0.3008 -0.7024
 9191TIP3    H149064   0.982   6.022  13.811 -0.5109  1.0715 -0.8724
 9191TIP3    H249065   0.876   6.099  13.888 -1.6514  1.4697 -2.8155
 9192TIP3   OH249066   2.172   3.791  13.718 -0.0295 -0.1450 -0.3214
 9192TIP3    H149067   2.159   3.857  13.650 -0.4538  0.5132  0.4076
 9192TIP3    H249068   2.088   3.746  13.724 -0.1325  0.1125  0.1145
 9193TIP3   OH249069   5.545   6.191  10.774  0.1517 -0.5842 -0.4875
 9193TIP3    H149070   5.555   6.223  10.864 -0.2119 -0.4012 -0.5125
 9193TIP3    H249071   5.456   6.215  10.750  0.4829 -0.0149 -1.1491
 9194TIP3   OH249072   2.232   3.445   4.084  0.6905 -0.3173 -0.2487
 9194TIP3    H149073   2.269   3.500   4.152 -2.4813 -0.4153  1.6558
 9194TIP3    H249074   2.227   3.358   4.123  0.9521 -0.8545 -1.3993
 9195TIP3   OH249075   1.031   5.792   2.018  0.0685 -0.3455 -0.5843
 9195TIP3    H149076   1.110   5.760   1.975 -0.2817 -1.6352 -0.2937
 9195TIP3    H249077   0.968   5.805   1.947 -0.6267 -2.8171 -0.4673
 9196TIP3   OH249078   1.730   6.228  11.815  0.3639  0.3058 -0.2220
 9196TIP3    H149079   1.666   6.288  11.853 -3.3498 -2.3584 -1.8611
 9196TIP3    H249080   1.733   6.251  11.722 -1.3576 -2.1200 -0.9344
 9197TIP3   OH249081   3.522   3.519  12.759 -0.0694 -0.6899 -0.5852
 9197TIP3    H149082   3.594   3.571  12.794 -0.7556  0.1214 -0.3662
 9197TIP3    H249083   3.505   3.558  12.673  0.0332 -1.1563 -0.8177
 9198TIP3   OH249084   6.086   5.754   2.282  0.2724  0.1592 -0.1300
 9198TIP3    H149085   6.075   5.826   2.344 -0.8601 -0.1278  0.0147
 9198TIP3    H249086   6.093   5.796   2.196  2.3834  0.5879  0.2333
 9199TIP3   OH249087   5.156   5.082  12.385 -0.9351  0.4284 -0.0619
 9199TIP3    H149088   5.093   5.119  12.447 -0.6132  1.8380 -0.5503
 9199TIP3    H249089   5.188   5.158  12.336  1.5413 -0.2152  0.5265
 9200TIP3   OH249090   6.108   0.394   5.508 -0.4310 -0.0050 -0.0697
 9200TIP3    H149091   6.119   0.487   5.528 -0.3775  0.2550 -1.2679
 9200TIP3    H249092   6.155   0.382   5.426 -0.5105 -1.0786  0.0391
 9201TIP3   OH249093   3.327   3.633   1.188  0.1313  0.3165 -0.5816
 9201TIP3    H149094   3.364   3.649   1.275 -1.4921  0.4322  0.1218
 9201TIP3    H249095   3.328   3.537   1.180  1.8100  0.3784 -1.1337
 9202TIP3   OH249096   2.936   0.591  11.591 -0.2385  0.3379  0.0646
 9202TIP3    H149097   2.937   0.499  11.617 -1.6845  0.3502  0.1648
 9202TIP3    H249098   3.013   0.600  11.535  1.7749 -0.1649  2.6146
 9203TIP3   OH249099   5.938   3.383   4.323  0.2612 -0.3968  0.7320
 9203TIP3    H149100   5.992   3.419   4.393 -1.2096  0.8457  1.2711
 9203TIP3    H249101   5.911   3.297   4.356 -0.1396  0.0392  1.5486
 9204TIP3   OH249102   0.403   2.774  13.447  0.3563 -0.4277 -0.0364
 9204TIP3    H149103   0.468   2.734  13.389 -0.7695 -0.3949 -1.3547
 9204TIP3    H249104   0.321   2.768  13.398 -0.2020  1.6739  0.5815
 9205TIP3   OH249105   5.499   1.451   5.695 -0.6162 -0.0794  0.5047
 9205TIP3    H149106   5.593   1.434   5.707  0.2109  2.4922 -1.8920
 9205TIP3    H249107   5.467   1.467   5.784  0.8336 -2.6611  1.5600
 9206TIP3   OH249108   0.836   1.616  11.590  0.4258  0.1703  0.6869
 9206TIP3    H149109   0.857   1.613  11.497  2.0226 -0.0263  1.0337
 9206TIP3    H249110   0.834   1.524  11.617  2.3441  0.2987  1.3354
 9207TIP3   OH249111   1.944   4.708  12.733 -0.4646  0.2338  0.6300
 9207TIP3    H149112   1.995   4.627  12.724 -0.6847 -0.1719  2.6531
 9207TIP3    H249113   1.855   4.683  12.711 -0.0065  0.7102 -1.9305
 9208TIP3   OH249114   0.731   0.595  17.090 -0.5562  0.3753 -0.0074
 9208TIP3    H149115   0.796   0.525  17.106 -0.9372 -0.1999 -0.9243
 9208TIP3    H249116   0.774   0.674  17.121  0.4386 -0.0606 -0.2223
 9209TIP3   OH249117   4.721   4.714  12.045  0.0922 -0.0818 -0.1932
 9209TIP3    H149118   4.656   4.765  11.996  0.5460  0.7104  0.0140
 9209TIP3    H249119   4.793   4.776  12.061 -0.7896  0.1994  3.0063
 9210TIP3   OH249120   0.809   2.975  14.427  0.0818  0.4048  0.6747
 9210TIP3    H149121   0.890   2.926  14.411 -0.0497  0.0974  0.9732
 9210TIP3    H249122   0.839   3.066  14.440  0.4110  0.2290  1.1473
 9211TIP3   OH249123   5.108   2.024  15.478  0.0969 -0.4462  0.0967
 9211TIP3    H149124   5.154   2.105  15.503  2.5541 -1.5670 -0.5981
 9211TIP3    H249125   5.099   2.030  15.383 -0.3678 -0.6716  0.1239
 9212TIP3   OH249126   4.937   6.402  13.362  0.6340 -0.0437 -0.1511
 9212TIP3    H149127   4.937   6.401  13.267 -3.0279  3.5248 -0.3472
 9212TIP3    H249128   4.975   6.487  13.385 -1.5089  0.5560  1.3940
 9213TIP3   OH249129   0.429   0.034  12.512 -0.2867 -0.8287  0.2984
 9213TIP3    H149130   0.341   0.058  12.540  0.3885  0.7904  1.1155
 9213TIP3    H249131   0.457  -0.031  12.576 -0.0050  0.4147  1.4676
 9214TIP3   OH249132   2.694   1.937  16.706  0.1770  0.4402  0.3658
 9214TIP3    H149133   2.604   1.952  16.733 -0.7958 -1.6201 -1.5735
 9214TIP3    H249134   2.734   1.890  16.779 -0.6598  0.3249  0.7468
 9215TIP3   OH249135   4.589   0.226   4.014 -0.1137  0.1851  0.4452
 9215TIP3    H149136   4.569   0.202   3.924 -0.8986  3.9182 -0.4505
 9215TIP3    H249137   4.510   0.272   4.044  1.0597  1.0557  2.2426
 9216TIP3   OH249138   1.355   4.648  17.092 -0.2370 -0.3271  0.0797
 9216TIP3    H149139   1.391   4.670  17.178 -1.3183  2.6091 -0.1804
 9216TIP3    H249140   1.427   4.661  17.032 -0.3472  0.7122  0.1663
 9217TIP3   OH249141   1.067   4.672   3.824 -0.2247  0.6220 -0.5660
 9217TIP3    H149142   1.139   4.617   3.796 -0.4133 -0.4010  0.8790
 9217TIP3    H249143   0.999   4.659   3.758 -0.1720 -0.6836 -0.3670
 9218TIP3   OH249144   0.971   2.446   4.306 -0.0927  0.2178  0.4832
 9218TIP3    H149145   0.958   2.430   4.399  2.4156  1.9289  1.1695
 9218TIP3    H249146   1.066   2.446   4.294 -0.3492  0.6729 -1.9645
 9219TIP3   OH249147   3.077   1.835  15.093  0.2458  0.3230  0.1887
 9219TIP3    H149148   3.161   1.797  15.064  0.3264  0.4197  0.2973
 9219TIP3    H249149   3.077   1.923  15.055 -0.3273 -0.0887 -0.7893
 9220TIP3   OH249150   4.424   3.988   5.237 -0.1004 -0.0110  0.2144
 9220TIP3    H149151   4.385   3.950   5.316 -2.1755  2.1844  0.2975
 9220TIP3    H249152   4.498   4.039   5.269 -0.7445  0.6181  0.7116
 9221TIP3   OH249153   1.314   1.911   1.569 -0.7371  0.5047  0.2087
 9221TIP3    H149154   1.333   1.817   1.562 -1.7509  0.3036  0.0325
 9221TIP3    H249155   1.392   1.949   1.610 -0.2518 -0.3866  0.1191
 9222TIP3   OH249156   3.704   0.378  12.203  0.6345 -0.2597  0.2012
 9222TIP3    H149157   3.759   0.377  12.281  0.1926  0.7093  0.5349
 9222TIP3    H249158   3.660   0.463  12.206 -1.4004 -1.2782  0.3145
 9223TIP3   OH249159   1.927   6.594   5.618 -0.4660 -0.2797  0.4981
 9223TIP3    H149160   1.998   6.658   5.615 -2.0039  1.5277  1.4498
 9223TIP3    H249161   1.883   6.604   5.533 -0.9842  0.2678  0.8276
 9224TIP3   OH249162   6.176   4.611   3.944 -0.4522 -0.3970  0.0812
 9224TIP3    H149163   6.242   4.542   3.955  0.6598  0.8284  1.1942
 9224TIP3    H249164   6.123   4.606   4.024  1.2206  1.6959  1.3670
 9225TIP3   OH249165   5.415   5.736   4.897 -0.7806 -0.3738  0.1589
 9225TIP3    H149166   5.468   5.772   4.968 -1.3369  2.6350 -0.9006
 9225TIP3    H249167   5.478   5.711   4.830 -0.3674 -1.7113  1.0264
 9226TIP3   OH249168   0.730   3.980   0.480 -0.0069 -0.0935 -0.1122
 9226TIP3    H149169   0.726   3.905   0.420  1.7179 -1.0322  0.9140
 9226TIP3    H249170   0.648   3.975   0.529  0.1597 -1.3925  0.0424
 9227TIP3   OH249171   3.812   1.265  12.772 -0.0109  0.0312 -0.6941
 9227TIP3    H149172   3.831   1.310  12.690  0.5242  1.7348  0.3445
 9227TIP3    H249173   3.891   1.213  12.789  0.0442 -0.0008 -1.0414
 9228TIP3   OH249174   6.403   4.978  11.108  0.1259 -0.7151  0.0167
 9228TIP3    H149175   6.327   5.023  11.144  1.8374  1.5271  0.9498
 9228TIP3    H249176   6.402   5.000  11.015 -0.6511 -1.1548 -0.0852
 9229TIP3   OH249177   6.333   0.338  16.697 -0.4038  0.7135 -0.2361
 9229TIP3    H149178   6.397   0.268  16.686  0.3356  1.3407  0.0037
 9229TIP3    H249179   6.376   0.416  16.662 -1.2345  1.0469 -0.5376
 9230TIP3   OH249180   5.281   4.375  12.442 -0.3008  0.1703  0.0099
 9230TIP3    H149181   5.349   4.348  12.503  0.1189  0.6705 -0.2302
 9230TIP3    H249182   5.315   4.353  12.355 -1.7798 -2.4591  0.0531
 9231TIP3   OH249183   3.096   6.326  11.367 -0.1610  0.3080  0.1411
 9231TIP3    H149184   3.081   6.293  11.455  0.1297  1.2328  0.5494
 9231TIP3    H249185   3.010   6.326  11.326 -0.0413 -1.7063 -0.1507
 9232TIP3   OH249186   6.734   4.567   2.052 -0.0867 -0.0589  0.2829
 9232TIP3    H149187   6.668   4.518   2.004  1.6640 -2.6006  0.3815
 9232TIP3    H249188   6.818   4.536   2.016  1.0923  2.6645  0.5440
 9233TIP3   OH249189   0.644   2.755  13.746 -0.5323  0.0334  0.3467
 9233TIP3    H149190   0.655   2.682  13.807  0.2416 -0.1151  0.0312
 9233TIP3    H249191   0.550   2.776  13.752 -0.1707  1.1670  2.8853
 9234TIP3   OH249192   0.981   3.100  13.915 -0.0535 -0.3048 -0.3937
 9234TIP3    H149193   0.951   3.106  13.824 -0.9698 -0.1966 -0.0810
 9234TIP3    H249194   0.902   3.106  13.968  0.4919 -0.1931  0.4274
 9235TIP3   OH249195   3.241   3.456  12.334 -0.2522  0.1902 -0.3519
 9235TIP3    H149196   3.214   3.450  12.426  2.5364 -0.2953  0.4746
 9235TIP3    H249197   3.336   3.460  12.337  0.0201 -2.0307 -3.3125
 9236TIP3   OH249198   3.718   0.074   0.919 -0.0566 -0.6356 -0.0710
 9236TIP3    H149199   3.672   0.080   1.003  0.0474 -1.0921  0.0157
 9236TIP3    H249200   3.723  -0.019   0.900 -0.0371 -0.5377 -0.5646
 9237TIP3   OH249201   1.374   6.187   5.981 -0.0965 -0.1073 -0.0712
 9237TIP3    H149202   1.381   6.092   5.994 -0.7569 -0.0869  0.4476
 9237TIP3    H249203   1.401   6.224   6.065  0.0805  0.1681 -0.2484
 9238TIP3   OH249204   4.753   4.948  17.044 -0.0714 -0.0806 -0.3700
 9238TIP3    H149205   4.715   4.987  16.965  1.5891 -1.6170 -1.9707
 9238TIP3    H249206   4.781   4.860  17.017  1.4875 -0.2436  1.6308
 9239TIP3   OH249207   0.656   6.774  13.419 -0.6191  0.2039  0.2015
 9239TIP3    H149208   0.648   6.746  13.510  1.2672 -1.0032  0.0331
 9239TIP3    H249209   0.690   6.863  13.424 -1.6103  0.5522  0.6946
 9240TIP3   OH249210   1.872   1.982   4.621  0.3217 -0.4070  0.4390
 9240TIP3    H149211   1.944   1.999   4.561  0.1015 -0.4365  0.1640
 9240TIP3    H249212   1.844   1.893   4.602  1.8229 -1.3017  2.2557
 9241TIP3   OH249213   5.357   5.354  11.683 -0.1548  0.6582  0.4993
 9241TIP3    H149214   5.428   5.413  11.708 -0.5085  0.8800  0.9798
 9241TIP3    H249215   5.358   5.355  11.587 -0.7821  2.2064  0.4990
 9242TIP3   OH249216   1.038   4.051  16.977  0.7786  0.3308 -0.3212
 9242TIP3    H149217   1.068   4.046  17.067  1.0005  1.2296 -0.3324
 9242TIP3    H249218   1.082   3.979  16.932 -0.7454 -1.2366  0.6742
 9243TIP3   OH249219   2.194   2.398  16.317 -0.0159 -0.1783 -0.0135
 9243TIP3    H149220   2.220   2.308  16.298  1.1220  0.0930  0.2070
 9243TIP3    H249221   2.151   2.393  16.402  0.5405 -0.4255  0.2531
 9244TIP3   OH249222   4.912   3.310   5.481  0.0008 -0.6883  0.6005
 9244TIP3    H149223   4.845   3.306   5.550  0.5978 -0.8944  1.1711
 9244TIP3    H249224   4.993   3.286   5.525  0.4131 -0.6724 -0.1471
 9245TIP3   OH249225   6.081   2.944  12.598 -0.2465  0.1357  0.0881
 9245TIP3    H149226   5.998   2.897  12.603 -0.2499  0.3050  2.7921
 9245TIP3    H249227   6.120   2.917  12.515 -3.1765  0.3829 -1.4272
 9246TIP3   OH249228   3.039   5.980  11.958  0.0933  0.3134 -0.0767
 9246TIP3    H149229   3.005   6.057  12.003 -0.3777  0.6645 -1.0226
 9246TIP3    H249230   3.080   5.928  12.027 -1.9394  0.1177  1.0277
 9247TIP3   OH249231   1.085   6.554  13.029  0.3353 -0.5022  0.1364
 9247TIP3    H149232   1.013   6.514  13.077  0.1979 -0.7274 -0.2474
 9247TIP3    H249233   1.162   6.505  13.056  0.0107 -1.7953 -1.1640
 9248TIP3   OH249234   5.110   4.432  10.838 -0.0534 -0.0765 -0.3000
 9248TIP3    H149235   5.118   4.402  10.928 -1.1382  0.2906 -0.0779
 9248TIP3    H249236   5.196   4.416  10.799  0.2759 -0.6479  0.6719
 9249TIP3   OH249237   5.580   4.101  16.459  0.0304 -0.0962  0.3338
 9249TIP3    H149238   5.642   4.031  16.439  1.0984  0.6177  1.1491
 9249TIP3    H249239   5.529   4.067  16.533 -0.3967 -0.5746 -0.1701
 9250TIP3   OH249240   3.598   4.783  12.370  0.1274  0.0837 -0.1461
 9250TIP3    H149241   3.580   4.764  12.278  0.4279 -0.2936 -0.1280
 9250TIP3    H249242   3.692   4.769  12.380  0.2766  1.1307 -0.0155
 9251TIP3   OH249243   1.608   0.050  11.580  0.6351 -0.5332 -0.1700
 9251TIP3    H149244   1.654   0.049  11.496  0.7471 -0.7761 -0.1051
 9251TIP3    H249245   1.561  -0.034  11.583  0.3687 -0.3849 -0.1370
 9252TIP3   OH249246   4.808   6.129  13.395 -0.0164  0.2354 -0.3463
 9252TIP3    H149247   4.750   6.197  13.429  0.3153  0.5530 -0.4074
 9252TIP3    H249248   4.876   6.178  13.347  0.1961 -0.1397 -0.4270
 9253TIP3   OH249249   1.301   4.137   2.343 -0.5565 -0.3212  0.5091
 9253TIP3    H149250   1.355   4.189   2.283 -1.6257 -1.2567 -1.3203
 9253TIP3    H249251   1.364   4.087   2.394  0.3870  0.6196  0.2965
 9254TIP3   OH249252   6.199   5.205   5.990  0.5356 -0.2928 -0.6486
 9254TIP3    H149253   6.263   5.145   6.029 -1.1959  0.3495  3.4296
 9254TIP3    H249254   6.243   5.290   5.989  0.6056 -0.3214 -0.1100
 9255TIP3   OH249255   1.202   3.098  16.510 -0.0403 -0.1258  0.2544
 9255TIP3    H149256   1.135   3.147  16.559  0.4530  1.3962 -0.5849
 9255TIP3    H249257   1.283   3.116  16.557  0.3522  0.9288 -0.8135
 9256TIP3   OH249258   3.797   4.069  15.627  0.4743 -0.9663 -0.1259
 9256TIP3    H149259   3.805   4.057  15.722 -0.1073 -1.5538 -0.1433
 9256TIP3    H249260   3.799   3.980  15.592 -0.7473 -0.8430 -0.5422
 9257TIP3   OH249261   1.979   3.492   0.809  0.1981 -0.6484 -0.7923
 9257TIP3    H149262   1.955   3.574   0.766  0.1949 -0.4021 -0.3218
 9257TIP3    H249263   1.957   3.424   0.745 -1.7474 -0.4239 -0.3769
 9258TIP3   OH249264   0.343   5.828   4.407  0.1357  0.4970 -0.2308
 9258TIP3    H149265   0.372   5.907   4.452 -3.3372  0.7233  1.8440
 9258TIP3    H249266   0.356   5.758   4.470 -2.1548  0.3690  0.1566
 9259TIP3   OH249267   4.013   0.702  16.173 -0.2935 -0.2672  0.0309
 9259TIP3    H149268   4.056   0.758  16.109 -0.9772 -1.3198 -1.3722
 9259TIP3    H249269   4.042   0.736  16.258  0.2480  1.4387 -0.8146
 9260TIP3   OH249270   0.116   5.108   1.774  0.4135  0.1573 -0.2077
 9260TIP3    H149271   0.179   5.041   1.749  1.0864  0.2235  1.2548
 9260TIP3    H249272   0.131   5.179   1.711  2.2052  0.3982  0.4530
 9261TIP3   OH249273   5.398   5.224  15.708  0.2857 -0.3516 -0.3746
 9261TIP3    H149274   5.318   5.212  15.759 -2.0309  1.5859 -3.3495
 9261TIP3    H249275   5.391   5.160  15.637  0.4152  1.0687 -1.7057
 9262TIP3   OH249276   3.023   4.841   2.785 -1.1260 -0.4970 -0.3864
 9262TIP3    H149277   2.983   4.927   2.793  0.0655  0.2616 -2.3352
 9262TIP3    H249278   3.040   4.814   2.875  0.2159  2.1238  0.1909
 9263TIP3   OH249279   4.475   0.535   6.057 -0.7590 -0.1425 -0.4573
 9263TIP3    H149280   4.543   0.602   6.047 -0.9303  0.1322  0.1851
 9263TIP3    H249281   4.453   0.538   6.150 -1.7401 -0.1446 -0.6914
 9264TIP3   OH249282   5.600   5.885  13.835 -0.3501  0.2845  1.0015
 9264TIP3    H149283   5.635   5.914  13.751 -0.0153 -1.3281  0.5755
 9264TIP3    H249284   5.676   5.849  13.881 -1.2597 -2.5887  0.3482
 9265TIP3   OH249285   0.576   4.612  15.357 -0.0554 -0.7025 -0.1736
 9265TIP3    H149286   0.586   4.533  15.306  0.3948 -0.1481 -0.9525
 9265TIP3    H249287   0.665   4.637  15.382  0.0475  0.9180 -2.0300
 9266TIP3   OH249288   4.837   1.553   3.651 -0.3063  0.2803  0.4138
 9266TIP3    H149289   4.833   1.640   3.692  3.4231 -0.0886  1.8091
 9266TIP3    H249290   4.835   1.570   3.557  0.9118  1.9560  0.6682
 9267TIP3   OH249291   6.068   3.856  12.090  0.2046  0.2461 -0.1187
 9267TIP3    H149292   6.041   3.857  12.182 -0.6326  1.1861 -0.3712
 9267TIP3    H249293   6.112   3.771  12.079  0.1502  0.0541  1.0990
 9268TIP3   OH249294   3.812   0.234  13.658 -0.3156 -0.0353 -0.0868
 9268TIP3    H149295   3.894   0.270  13.693  0.8655 -1.5272 -1.2582
 9268TIP3    H249296   3.824   0.139  13.661 -2.8043 -0.3417  1.5727
 9269TIP3   OH249297   0.277   1.920  15.876  0.0608  0.0824 -0.1929
 9269TIP3    H149298   0.319   1.837  15.851  1.5202  0.9117 -0.5561
 9269TIP3    H249299   0.198   1.893  15.923  0.4435 -1.5212 -0.4161
 9270TIP3   OH249300   4.341   1.326  17.084 -0.2951 -0.0421 -0.2577
 9270TIP3    H149301   4.313   1.236  17.100  0.8348 -0.6172 -1.3952
 9270TIP3    H249302   4.301   1.348  16.999  1.4769 -0.3775 -1.2061
 9271TIP3   OH249303   4.975   4.430  13.867  0.2401  0.0146  0.4308
 9271TIP3    H149304   4.902   4.391  13.915  1.0672 -0.1857  1.5332
 9271TIP3    H249305   4.935   4.463  13.786 -0.6678 -2.2241 -0.0863
 9272TIP3   OH249306   0.997   6.690  17.195 -0.1286  0.3962 -0.2117
 9272TIP3    H149307   0.992   6.644  17.278  0.3871  0.4604 -0.1382
 9272TIP3    H249308   0.924   6.656  17.143  0.1485 -0.3852 -0.0995
 9273TIP3   OH249309   0.603   3.047   2.026  0.3327 -0.5115  0.3803
 9273TIP3    H149310   0.656   2.993   1.968  0.1071  0.9237 -1.2306
 9273TIP3    H249311   0.641   3.135   2.017  0.0756 -0.2142  2.1543
 9274TIP3   OH249312   5.932   5.509   4.061  0.7877  0.0046 -1.1068
 9274TIP3    H149313   5.903   5.418   4.065  0.2315  0.1142 -2.3635
 9274TIP3    H249314   5.866   5.558   4.110  0.5311 -0.1443 -1.3031
 9275TIP3   OH249315   2.752   1.231  14.583 -0.3319  0.3204  0.5516
 9275TIP3    H149316   2.739   1.242  14.489 -0.5972 -1.6138  0.3473
 9275TIP3    H249317   2.817   1.297  14.606 -1.0010  1.4811 -0.7977
 9276TIP3   OH249318   0.548   3.191   2.606  0.0582  0.0144  0.1575
 9276TIP3    H149319   0.614   3.145   2.555  1.1526 -0.9550  2.3534
 9276TIP3    H249320   0.468   3.140   2.593  0.1154  0.2761 -1.2478
 9277TIP3   OH249321   4.364   4.872   1.876 -0.0133  0.3271 -0.5818
 9277TIP3    H149322   4.445   4.882   1.925  0.1478  1.5244 -1.0956
 9277TIP3    H249323   4.313   4.951   1.896 -1.2141 -0.5693  0.0290
 9278TIP3   OH249324   6.141   3.599  16.869 -0.2070  0.3004  0.0636
 9278TIP3    H149325   6.097   3.591  16.954  1.0348  3.5069  1.0881
 9278TIP3    H249326   6.146   3.694  16.854  3.3836 -0.0656 -1.5605
 9279TIP3   OH249327   3.881   6.697   5.753 -0.2418  0.2865 -0.4826
 9279TIP3    H149328   3.798   6.743   5.765 -0.7712 -0.7650 -0.0470
 9279TIP3    H249329   3.939   6.733   5.820 -0.8685 -0.1845  0.3166
 9280TIP3   OH249330   2.568   3.203   5.248 -0.0185 -0.1320 -0.1514
 9280TIP3    H149331   2.508   3.276   5.266  0.6990  0.3072  0.4535
 9280TIP3    H249332   2.565   3.193   5.153 -1.4591 -0.4566 -0.0926
 9281TIP3   OH249333   1.880   4.736   4.955  0.2682 -0.0860 -0.2034
 9281TIP3    H149334   1.891   4.648   4.920 -1.6479  0.1270 -1.4468
 9281TIP3    H249335   1.870   4.791   4.877  0.8461  1.1389  0.5854
 9282TIP3   OH249336   0.910   2.399  15.950  0.0058 -0.4943 -0.3959
 9282TIP3    H149337   0.871   2.399  15.863 -1.0735  0.8018  0.0825
 9282TIP3    H249338   0.916   2.491  15.974  2.2057 -0.7402  0.0645
 9283TIP3   OH249339   0.923   5.169   5.671 -0.0344  0.1044  0.2533
 9283TIP3    H149340   0.855   5.236   5.679 -1.5076 -1.1307 -1.4397
 9283TIP3    H249341   1.002   5.217   5.648 -1.1372  1.2587 -1.2026
 9284TIP3   OH249342   2.889   2.461   1.190  0.2105 -0.1980  0.0170
 9284TIP3    H149343   2.936   2.433   1.111 -0.6196  0.2312 -0.6401
 9284TIP3    H249344   2.958   2.491   1.249  0.7416  0.7444 -1.0599
 9285TIP3   OH249345   3.045   1.510   4.302  0.1176  0.5069 -0.2967
 9285TIP3    H149346   2.958   1.481   4.332 -0.0980  0.3945 -1.0225
 9285TIP3    H249347   3.064   1.454   4.227  0.5127  1.0122 -0.5723
 9286TIP3   OH249348   1.060   6.591   0.292 -0.1115  0.0243 -0.4855
 9286TIP3    H149349   1.020   6.546   0.367 -0.8861 -0.9572 -1.4611
 9286TIP3    H249350   0.994   6.584   0.223  0.5434  1.0347 -1.2178
 9287TIP3   OH249351   4.716   1.098  15.025 -0.7386  0.4919  0.0987
 9287TIP3    H149352   4.763   1.057  15.097  0.6092 -0.6990 -1.4045
 9287TIP3    H249353   4.785   1.135  14.969 -1.9089  5.0450  1.4571
 9288TIP3   OH249354   5.079   3.225  13.148  0.2288  0.7744  0.1030
 9288TIP3    H149355   5.140   3.199  13.217 -0.2033  1.5621  0.7947
 9288TIP3    H249356   5.044   3.309  13.178  0.0658  1.1471 -1.0972
 9289TIP3   OH249357   3.573   3.270  17.224 -0.1025 -0.5964 -0.1590
 9289TIP3    H149358   3.546   3.192  17.273  2.6898 -1.7799 -0.3733
 9289TIP3    H249359   3.613   3.327  17.290 -1.1800  0.2041 -0.1846
 9290TIP3   OH249360   3.950   6.310   4.950 -0.4543 -0.3516 -0.0204
 9290TIP3    H149361   4.029   6.301   4.897  0.5027 -0.1149  1.3293
 9290TIP3    H249362   3.930   6.221   4.979 -0.7107 -0.4179 -0.4010
 9291TIP3   OH249363   2.108   3.527   2.591 -0.3496 -0.1127  0.2616
 9291TIP3    H149364   2.037   3.503   2.651 -0.6604  2.0715  0.8257
 9291TIP3    H249365   2.143   3.609   2.627  3.3750 -1.8300  0.7695
 9292TIP3   OH249366   0.713   3.649   5.308 -0.2782  0.1387  0.2871
 9292TIP3    H149367   0.736   3.617   5.221  0.7414 -3.2240  1.6709
 9292TIP3    H249368   0.670   3.574   5.350 -1.0323  1.7815  2.5466
 9293TIP3   OH249369   5.574   0.683   5.178  0.5154 -0.1076  0.4184
 9293TIP3    H149370   5.560   0.653   5.088 -0.1967  0.3071  0.3902
 9293TIP3    H249371   5.669   0.690   5.187  0.5330  1.3044 -0.7685
 9294TIP3   OH249372   4.861   3.435  11.051  0.2601  0.0407  0.1983
 9294TIP3    H149373   4.931   3.399  11.104  2.7133  2.7454 -1.0230
 9294TIP3    H249374   4.861   3.383  10.970  1.7132  0.8099 -0.3036
 9295TIP3   OH249375   6.259   2.240   5.128 -0.1771 -0.1579 -0.3469
 9295TIP3    H149376   6.284   2.277   5.043  0.5207  2.9039  1.1053
 9295TIP3    H249377   6.174   2.279   5.147 -0.1608 -0.5297  0.5013
 9296TIP3   OH249378   0.259   6.650  12.915 -0.9377 -0.2489  0.1466
 9296TIP3    H149379   0.315   6.721  12.883  0.5492  0.1304  3.3830
 9296TIP3    H249380   0.304   6.570  12.887  1.1207  0.0570  2.3968
 9297TIP3   OH249381   6.546   6.199  16.592  0.7025 -0.0752 -0.2896
 9297TIP3    H149382   6.632   6.212  16.552  0.9916 -1.8514 -0.2662
 9297TIP3    H249383   6.562   6.139  16.665 -0.6804 -1.0280 -0.7625
 9298TIP3   OH249384   4.138   5.231  15.731  0.1272 -0.3975 -0.4072
 9298TIP3    H149385   4.180   5.193  15.654 -2.3058 -1.2942 -1.3297
 9298TIP3    H249386   4.075   5.165  15.760 -0.1582  0.6105  1.3644
 9299TIP3   OH249387   1.330   5.502  16.739  0.2320  0.3358  0.1729
 9299TIP3    H149388   1.258   5.440  16.751  0.4395  0.0338 -0.1653
 9299TIP3    H249389   1.395   5.455  16.688  0.3239  0.8830 -0.2234
 9300TIP3   OH249390   0.877   5.389   2.943  0.0762 -0.5169 -0.5046
 9300TIP3    H149391   0.929   5.393   2.862  0.4348 -0.8708 -0.2900
 9300TIP3    H249392   0.933   5.431   3.009  0.1198 -0.9635 -0.2569
 9301TIP3   OH249393   6.300   2.617   0.748 -1.2151 -0.0072  0.6323
 9301TIP3    H149394   6.376   2.565   0.722 -1.0136  0.5674  0.0479
 9301TIP3    H249395   6.312   2.632   0.842 -0.1583  0.7909  0.3861
 9302TIP3   OH249396   0.947   0.845  12.960 -0.0564  0.4914  0.3595
 9302TIP3    H149397   0.877   0.793  13.000  0.7726 -0.5093  0.5465
 9302TIP3    H249398   0.954   0.811  12.871  0.0554  0.7330  0.2749
 9303TIP3   OH249399   2.435   5.068  16.068  0.4689 -0.2118 -0.6390
 9303TIP3    H149400   2.451   5.063  15.973 -0.4742 -0.0486 -0.8084
 9303TIP3    H249401   2.436   5.162  16.087  0.0428 -0.2166 -0.5932
 9304TIP3   OH249402   6.741   3.535  16.711  0.0268  0.5578  0.6818
 9304TIP3    H149403   6.655   3.497  16.692  0.6281 -0.6406  0.2881
 9304TIP3    H249404   6.721   3.615  16.759 -1.3369  0.7549 -0.1754
 9305TIP3   OH249405   5.776   3.760  15.422 -0.8410 -0.1998 -0.1455
 9305TIP3    H149406   5.819   3.748  15.507  0.8086  1.0857 -0.7787
 9305TIP3    H249407   5.811   3.689  15.368  0.5740  0.8928 -0.6834
 9306TIP3   OH249408   2.977   5.554  13.101  1.2986 -0.3608 -0.3950
 9306TIP3    H149409   3.024   5.635  13.122 -0.5012  0.5378  0.2738
 9306TIP3    H249410   3.022   5.487  13.152  0.8496  0.7736  1.5744
 9307TIP3   OH249411   3.675   4.556   0.361 -0.5869 -0.7943  0.4678
 9307TIP3    H149412   3.696   4.600   0.443 -1.2792 -1.4579  1.0121
 9307TIP3    H249413   3.739   4.590   0.298  1.3500 -1.8847  1.7824
 9308TIP3   OH249414   5.902   1.191   1.833  0.3665 -0.1820 -0.2583
 9308TIP3    H149415   5.995   1.204   1.851  0.4586  1.1681 -1.5932
 9308TIP3    H249416   5.897   1.185   1.738 -0.6750 -2.3920 -0.1092
 9309TIP3   OH249417   4.135   2.698   0.915  0.1698  0.2518  0.8248
 9309TIP3    H149418   4.122   2.691   0.821 -1.0012 -0.1009  1.0022
 9309TIP3    H249419   4.155   2.608   0.943  2.3056  0.6510  0.6730
 9310TIP3   OH249420   6.320   0.456   2.654  0.3697  0.0834  0.5296
 9310TIP3    H149421   6.337   0.519   2.583  1.7466  0.3161  1.0454
 9310TIP3    H249422   6.227   0.436   2.646  0.5718 -0.1668 -1.5752
 9311TIP3   OH249423   3.608   3.703   2.054 -0.0961 -0.2558  0.1734
 9311TIP3    H149424   3.663   3.744   2.121 -1.2858 -0.3585  1.2397
 9311TIP3    H249425   3.537   3.661   2.103 -1.5022  0.4444 -1.2075
 9312TIP3   OH249426   6.359   4.488  14.564  0.0083 -0.9112  0.2763
 9312TIP3    H149427   6.299   4.524  14.498  1.5269 -0.9118 -1.1476
 9312TIP3    H249428   6.302   4.442  14.625 -2.2641  5.3210  3.2575
 9313TIP3   OH249429   6.119   1.587   5.813 -0.3743 -0.3506  0.2671
 9313TIP3    H149430   6.187   1.521   5.828 -0.9365 -1.2637 -1.1150
 9313TIP3    H249431   6.059   1.577   5.887  0.3862 -0.2930  0.9031
 9314TIP3   OH249432   4.812   4.573  11.448 -0.8026 -0.1501 -0.1638
 9314TIP3    H149433   4.730   4.621  11.461 -1.2011 -0.1554 -2.5625
 9314TIP3    H249434   4.881   4.636  11.469 -1.3891 -0.4547  2.9003
 9315TIP3   OH249435   0.466   3.614   2.393  0.0601 -0.3739 -0.1374
 9315TIP3    H149436   0.562   3.613   2.390  0.1391 -1.8843  1.5935
 9315TIP3    H249437   0.444   3.702   2.426  0.8962 -0.3522  0.3747
 9316TIP3   OH249438   2.903   2.821   4.729 -0.1197 -0.4334 -0.0213
 9316TIP3    H149439   2.967   2.790   4.665  0.5428 -0.2325  0.5362
 9316TIP3    H249440   2.835   2.863   4.677  1.1552  1.0736 -0.5301
 9317TIP3   OH249441   0.203   2.163  17.175  0.4613  0.2396 -0.2232
 9317TIP3    H149442   0.236   2.172  17.264  1.6397 -0.9592 -0.5336
 9317TIP3    H249443   0.281   2.148  17.122 -0.3872 -0.5823 -1.2513
 9318TIP3   OH249444   6.624   3.292  15.990 -0.2296 -0.8373 -0.4276
 9318TIP3    H149445   6.561   3.350  15.946  0.9038  0.4050 -0.4346
 9318TIP3    H249446   6.699   3.348  16.009  0.2006 -1.8930  1.1066
 9319TIP3   OH249447   6.785   4.349  15.811 -0.1281 -0.2175 -0.3643
 9319TIP3    H149448   6.816   4.270  15.766 -1.4296 -0.2341 -1.2449
 9319TIP3    H249449   6.766   4.319  15.900  0.7737 -0.5724 -0.2849
 9320TIP3   OH249450   3.716   0.541  14.299  0.1483  0.3823 -0.2195
 9320TIP3    H149451   3.697   0.584  14.216  0.7969 -1.0693 -1.1497
 9320TIP3    H249452   3.648   0.474  14.308 -0.3688  1.0332  0.8013
 9321TIP3   OH249453   2.899   4.857   4.711 -0.6852 -0.4258 -0.0448
 9321TIP3    H149454   2.826   4.915   4.688 -0.9517 -0.7535 -0.0177
 9321TIP3    H249455   2.880   4.829   4.801  0.4465  1.0096  0.6753
 9322TIP3   OH249456   6.478   0.075   3.724 -0.3492 -0.0432 -0.4428
 9322TIP3    H149457   6.393   0.030   3.728 -0.7314  0.7025 -0.0588
 9322TIP3    H249458   6.504   0.067   3.632  0.2898 -2.2998 -0.1095
 9323TIP3   OH249459   3.940   0.829  17.253  0.2870 -0.7674  0.3305
 9323TIP3    H149460   4.033   0.849  17.245  0.1661  0.7549  2.3097
 9323TIP3    H249461   3.936   0.734  17.255  1.7589 -0.8565 -0.1324
 9324TIP3   OH249462   5.696   1.036   5.636 -0.1190 -0.2764  0.0917
 9324TIP3    H149463   5.648   0.995   5.564 -1.7508  2.0822 -0.2085
 9324TIP3    H249464   5.638   1.106   5.667  2.1772  1.1820  1.2017
 9325TIP3   OH249465   5.845   0.627  14.286 -0.4934  0.0290 -0.1818
 9325TIP3    H149466   5.904   0.614  14.212 -0.4384 -0.4691 -0.0497
 9325TIP3    H249467   5.778   0.685  14.253 -0.1746  0.2371 -0.4670
 9326TIP3   OH249468   4.990   2.592  12.098 -0.3146  0.0296  0.1331
 9326TIP3    H149469   4.979   2.660  12.165  0.7562  0.7129 -0.3754
 9326TIP3    H249470   4.954   2.631  12.018 -1.5622 -0.7726  0.2847
 9327TIP3   OH249471   1.951   1.137  13.899  0.2558  0.1661  0.2435
 9327TIP3    H149472   1.855   1.132  13.907 -0.0648  0.6785 -2.7009
 9327TIP3    H249473   1.970   1.231  13.899  0.6170  0.0952 -0.4932
 9328TIP3   OH249474   0.040   4.721  16.234 -0.0869 -0.0430 -0.2461
 9328TIP3    H149475   0.057   4.632  16.202  0.0503 -0.6855  1.5595
 9328TIP3    H249476   0.090   4.727  16.316 -0.0082  1.7357 -0.4062
 9329TIP3   OH249477   2.990   4.448  14.549 -0.1527  0.4408  0.2164
 9329TIP3    H149478   3.018   4.437  14.640  0.3719 -1.3927 -0.1443
 9329TIP3    H249479   2.906   4.492  14.555  0.9199  2.3568  1.4934
 9330TIP3   OH249480   1.528   0.767  11.624  0.3510 -0.1033  0.4505
 9330TIP3    H149481   1.572   0.687  11.650 -0.3993 -0.8279 -0.4668
 9330TIP3    H249482   1.435   0.744  11.623  0.1952  0.5351 -0.6647
 9331TIP3   OH249483   3.965   6.078   4.191 -0.6216  0.1868 -0.0721
 9331TIP3    H149484   3.952   6.072   4.285  1.6983  0.4838  0.2785
 9331TIP3    H249485   3.924   6.161   4.166  1.8960  1.8916  1.2713
 9332TIP3   OH249486   5.438   3.054  11.520 -0.5056 -0.3013 -0.2073
 9332TIP3    H149487   5.437   3.032  11.613 -1.3158  0.7140  0.0267
 9332TIP3    H249488   5.367   3.001  11.482  0.6133 -1.6432 -0.4771
 9333TIP3   OH249489   4.564   0.812   2.798  0.0053  0.7710 -0.0142
 9333TIP3    H149490   4.515   0.862   2.864 -0.2965  0.5762 -0.0891
 9333TIP3    H249491   4.612   0.879   2.749 -0.3841  0.9904 -0.1025
 9334TIP3   OH249492   2.478   2.362  14.643 -0.5375 -0.1960  0.5831
 9334TIP3    H149493   2.451   2.305  14.715  0.2331  2.7184  3.2897
 9334TIP3    H249494   2.423   2.440  14.653  0.6456  0.8763 -1.0811
 9335TIP3   OH249495   0.735   1.991  12.620 -0.0653  0.0322 -0.2087
 9335TIP3    H149496   0.720   2.048  12.544 -1.8243 -0.4391 -0.2415
 9335TIP3    H249497   0.761   1.907  12.581 -1.0317 -0.2291 -0.3182
 9336TIP3   OH249498   3.786   6.040   4.801  0.4270  0.4015 -0.5862
 9336TIP3    H149499   3.783   5.948   4.773  1.4592  0.6305 -1.4823
 9336TIP3    H249500   3.695   6.067   4.803  0.2190 -0.0890 -2.2453
 9337TIP3   OH249501   1.224   3.914  14.848 -0.1023  0.6271 -0.1365
 9337TIP3    H149502   1.153   3.967  14.884 -2.1061 -1.2470 -1.2138
 9337TIP3    H249503   1.197   3.824  14.865  1.6747 -0.1239 -1.2123
 9338TIP3   OH249504   1.513   5.450  11.782  0.1903  0.0211 -0.4846
 9338TIP3    H149505   1.441   5.453  11.719 -0.6204 -1.0717  0.3736
 9338TIP3    H249506   1.509   5.362  11.819  1.5033  0.2027  0.1233
 9339TIP3   OH249507   3.277   6.716  16.711 -0.5382 -0.5939 -0.0224
 9339TIP3    H149508   3.359   6.670  16.691 -0.2136  0.6003 -1.5807
 9339TIP3    H249509   3.302   6.781  16.777 -0.3096 -0.5201 -0.1773
 9340TIP3   OH249510   5.652   3.753   5.003  0.3661  0.1428  0.0192
 9340TIP3    H149511   5.658   3.740   5.098 -0.2839  0.6638  0.1325
 9340TIP3    H249512   5.602   3.678   4.972  2.5423 -1.2687 -0.2234
 9341TIP3   OH249513   1.061   5.796  12.860  0.4752 -0.2328 -0.0466
 9341TIP3    H149514   1.025   5.858  12.796  0.3909 -1.2668 -1.0190
 9341TIP3    H249515   0.997   5.796  12.931  0.1998  0.4009 -0.2929
 9342TIP3   OH249516   5.935   2.814  16.415 -0.3811 -0.7247  0.5392
 9342TIP3    H149517   5.954   2.787  16.505  0.0317  3.3181  1.7324
 9342TIP3    H249518   5.846   2.782  16.399 -0.9029 -0.4906  2.7887
 9343TIP3   OH249519   5.117   0.740  15.947 -0.2771  0.0131  0.1412
 9343TIP3    H149520   5.027   0.771  15.960 -0.6042 -0.7570 -0.2809
 9343TIP3    H249521   5.138   0.764  15.857 -0.9253 -1.9544 -0.5547
 9344TIP3   OH249522   6.197   1.458   1.285 -0.0338 -0.3958  0.3192
 9344TIP3    H149523   6.236   1.538   1.249  1.0600 -0.9832  0.1813
 9344TIP3    H249524   6.239   1.448   1.371 -0.3830 -0.6675  0.4585
 9345TIP3   OH249525   2.310   4.313   1.204  0.3358 -0.0197  0.1794
 9345TIP3    H149526   2.332   4.256   1.130 -2.0123 -0.2797 -0.3526
 9345TIP3    H249527   2.326   4.258   1.281  2.0810  0.0028 -0.1456
 9346TIP3   OH249528   1.584   0.885  14.816 -0.3515  0.0699 -0.5823
 9346TIP3    H149529   1.599   0.971  14.856 -0.3451 -0.1165 -0.1789
 9346TIP3    H249530   1.629   0.824  14.875 -0.9513 -0.2784 -0.4895
 9347TIP3   OH249531   0.239   1.586  17.157  0.1177  0.2568 -0.2395
 9347TIP3    H149532   0.327   1.614  17.132 -0.3284  2.9159  1.0001
 9347TIP3    H249533   0.189   1.592  17.076  0.4690  1.3830 -0.3927
 9348TIP3   OH249534   3.758   4.023  13.194  0.2076 -0.1127 -0.5609
 9348TIP3    H149535   3.692   3.979  13.140  0.8134 -0.5259 -0.9775
 9348TIP3    H249536   3.786   3.955  13.256  0.6808 -0.1195 -0.7847
 9349TIP3   OH249537   0.570   3.432  14.828 -0.1028  0.0914  1.0814
 9349TIP3    H149538   0.480   3.429  14.862 -0.5636 -0.2532 -0.1495
 9349TIP3    H249539   0.592   3.525  14.828 -0.2102  0.1204  2.0295
 9350TIP3   OH249540   3.703   6.015   0.411  0.3045 -0.4341  0.3577
 9350TIP3    H149541   3.665   6.103   0.410 -0.4806 -0.7473  1.7855
 9350TIP3    H249542   3.736   6.004   0.500 -1.5061 -2.3708  0.8255
 9351TIP3   OH249543   2.036   3.086  14.609 -0.0381 -0.1687 -0.5448
 9351TIP3    H149544   2.103   3.018  14.609 -0.3476 -0.4904  0.6147
 9351TIP3    H249545   2.030   3.114  14.700 -0.2365  1.1023 -0.9311
 9352TIP3   OH249546   1.693   1.631  12.359  0.3024 -0.5455 -0.0107
 9352TIP3    H149547   1.671   1.655  12.269 -1.6670 -1.6771  0.1274
 9352TIP3    H249548   1.725   1.541  12.353  1.5822 -0.1112  0.2426
 9353TIP3   OH249549   3.255   5.464   1.429 -0.1002 -0.2105 -0.4022
 9353TIP3    H149550   3.159   5.470   1.428 -0.0742  1.2527  1.9017
 9353TIP3    H249551   3.273   5.371   1.441 -1.2318 -0.4744 -0.6610
 9354TIP3   OH249552   4.528   4.945   2.765  0.5314  0.4412 -0.7384
 9354TIP3    H149553   4.475   4.980   2.693 -1.2283 -1.3853 -0.3749
 9354TIP3    H249554   4.534   4.851   2.747  2.5311  0.4068 -0.0359
 9355TIP3   OH249555   1.290   1.701   2.558  0.7860  0.1696 -0.0637
 9355TIP3    H149556   1.318   1.681   2.469  0.0153 -0.4008 -0.1807
 9355TIP3    H249557   1.269   1.795   2.556  1.4677  0.3167 -0.2934
 9356TIP3   OH249558   0.836   2.879   2.759  0.0254 -0.6861 -0.1999
 9356TIP3    H149559   0.807   2.789   2.747  3.1897 -1.7535 -0.2865
 9356TIP3    H249560   0.917   2.885   2.708 -0.4337  2.3814 -0.6495
 9357TIP3   OH249561   5.557   4.219  14.231  0.5997 -0.4311  0.3629
 9357TIP3    H149562   5.527   4.237  14.142  1.7333 -2.3658 -0.4468
 9357TIP3    H249563   5.476   4.213  14.282 -0.0520  0.9945 -0.4606
 9358TIP3   OH249564   2.149   2.824   5.840  0.1806  0.3590  0.2376
 9358TIP3    H149565   2.134   2.737   5.802  0.4771  0.3877  0.0500
 9358TIP3    H249566   2.229   2.854   5.798 -0.2067  0.9438 -0.0889
 9359TIP3   OH249567   6.366   3.520  14.936  0.1831 -0.2824 -0.2581
 9359TIP3    H149568   6.306   3.466  14.883  0.4973 -1.5139  0.6384
 9359TIP3    H249569   6.435   3.545  14.875  1.1730 -2.6811 -0.1901
 9360TIP3   OH249570   4.347   3.731  15.788  0.4126  0.6767  0.3039
 9360TIP3    H149571   4.265   3.773  15.815  0.4324  0.3533  0.8818
 9360TIP3    H249572   4.416   3.786  15.826  0.4749  1.2507 -0.6370
 9361TIP3   OH249573   5.570   3.798   0.318 -0.2659 -0.1580  0.2340
 9361TIP3    H149574   5.605   3.709   0.314 -0.3365 -0.2364  1.2160
 9361TIP3    H249575   5.618   3.846   0.251 -1.0213 -1.2100 -1.0573
 9362TIP3   OH249576   4.432   3.512   1.831  0.0696 -0.2130  0.0812
 9362TIP3    H149577   4.362   3.541   1.773 -0.2099  1.3834  1.1818
 9362TIP3    H249578   4.512   3.538   1.786 -0.1622  1.7257  0.7435
 9363TIP3   OH249579   4.335   3.332   2.192 -0.0381  0.3114  0.1328
 9363TIP3    H149580   4.375   3.405   2.239  0.3633 -0.1548  0.5230
 9363TIP3    H249581   4.397   3.310   2.123  0.2732 -0.2594  0.5907
 9364TIP3   OH249582   4.071   3.486  11.298 -0.0622 -0.5764  0.4248
 9364TIP3    H149583   4.021   3.485  11.216 -0.6092 -3.3688  0.7451
 9364TIP3    H249584   4.162   3.473  11.271  0.1295  1.3113  0.0835
 9365TIP3   OH249585   3.495   5.658   6.041 -0.5089 -0.5162  0.1632
 9365TIP3    H149586   3.591   5.655   6.037 -0.5170 -0.8531  0.2239
 9365TIP3    H249587   3.467   5.601   5.970 -0.6593 -2.6124  1.8806
 9366TIP3   OH249588   6.283   2.040  14.316  0.5669  0.1166  0.4198
 9366TIP3    H149589   6.289   1.956  14.362  0.8950 -0.4731 -0.7006
 9366TIP3    H249590   6.189   2.051  14.301  0.6928 -1.0972 -1.3521
 9367TIP3   OH249591   3.945   5.523   0.120  0.5309  0.9591 -0.0276
 9367TIP3    H149592   3.957   5.444   0.174 -5.0588 -0.2922 -0.2847
 9367TIP3    H249593   3.871   5.568   0.160  1.2408  4.1651 -2.1381
 9368TIP3   OH249594   0.821   2.253  16.773 -0.0857 -0.3987 -0.0711
 9368TIP3    H149595   0.749   2.313  16.752  0.4212  0.0886 -0.4302
 9368TIP3    H249596   0.779   2.168  16.785 -0.7070 -0.1409 -0.4014
 9369TIP3   OH249597   6.252   3.811  14.750  0.3177 -0.3582  0.5027
 9369TIP3    H149598   6.163   3.848  14.747  0.5175  0.2464  1.6280
 9369TIP3    H249599   6.240   3.718  14.729 -0.4805 -0.1130 -0.1538
 9370TIP3   OH249600   0.560   0.901   5.375  0.3164  0.1778  0.0744
 9370TIP3    H149601   0.578   0.969   5.310 -2.0525  1.0248  0.2388
 9370TIP3    H249602   0.617   0.922   5.449 -0.7448  2.3175  0.3295
 9371TIP3   OH249603   0.177   3.130  15.218 -0.7536 -0.5459  0.1073
 9371TIP3    H149604   0.245   3.169  15.163  0.3820 -3.3818 -0.6137
 9371TIP3    H249605   0.162   3.194  15.287  0.7576  1.2891 -1.1954
 9372TIP3   OH249606   1.823   3.003   4.748 -0.0324  0.4420 -0.2711
 9372TIP3    H149607   1.780   2.974   4.829  0.8596 -1.2597 -0.3844
 9372TIP3    H249608   1.908   2.959   4.749  0.3198  1.0696 -1.7330
 9373TIP3   OH249609   3.999   1.485  15.666 -0.3312  0.2395  0.0494
 9373TIP3    H149610   3.914   1.439  15.671  0.3871 -1.1376 -0.0774
 9373TIP3    H249611   4.000   1.541  15.743  0.4428 -2.9819  2.5283
 9374TIP3   OH249612   5.091   3.186   3.461 -0.0139 -0.5622  0.0046
 9374TIP3    H149613   5.148   3.239   3.405 -0.2269 -1.6679 -1.2781
 9374TIP3    H249614   5.004   3.224   3.450 -0.5847 -2.4899 -2.6553
 9375TIP3   OH249615   4.111   3.991  10.943 -0.5437  0.1478  0.5138
 9375TIP3    H149616   4.041   3.930  10.920 -0.0082  0.3288 -1.7764
 9375TIP3    H249617   4.185   3.934  10.965 -0.7054 -0.0344  0.5886
 9376TIP3   OH249618   0.421   1.997   2.283 -0.1129 -0.1248  0.1809
 9376TIP3    H149619   0.375   2.080   2.296 -1.3137 -0.8007  0.2914
 9376TIP3    H249620   0.480   1.991   2.358 -0.3674  0.4081  0.4294
 9377TIP3   OH249621   4.212   6.814   3.967  0.0682 -0.7354  0.1802
 9377TIP3    H149622   4.127   6.771   3.971  1.1477 -3.1666 -1.7633
 9377TIP3    H249623   4.226   6.832   3.874  2.5174 -2.2011  0.2040
 9378TIP3   OH249624   4.173   0.175  12.495 -0.1311  0.6957  0.8442
 9378TIP3    H149625   4.096   0.154  12.547 -1.0104 -1.0567 -1.0830
 9378TIP3    H249626   4.242   0.120  12.530 -0.2081  0.9477  1.3999
 9379TIP3   OH249627   5.642   3.758   6.560 -0.3091 -0.3306 -0.1521
 9379TIP3    H149628   5.716   3.701   6.578 -0.8962 -0.8040  0.8217
 9379TIP3    H249629   5.572   3.699   6.534 -0.7025 -0.0024  0.1379
 9380TIP3   OH249630   0.828   1.967   2.936 -0.0579  0.2371  0.2352
 9380TIP3    H149631   0.823   1.947   3.029 -2.0237  1.1069  0.3480
 9380TIP3    H249632   0.843   2.061   2.932  2.4005 -0.1526 -0.3341
 9381TIP3   OH249633   4.598   3.757   1.464 -0.3368  0.1194 -0.0179
 9381TIP3    H149634   4.647   3.825   1.417 -2.2246 -0.2686 -2.6810
 9381TIP3    H249635   4.547   3.805   1.528  1.3727  0.7978  0.8606
 9382TIP3   OH249636   5.120   4.700  13.662 -0.4669  0.3078  0.1434
 9382TIP3    H149637   5.035   4.684  13.622 -0.2897 -0.5701  0.0908
 9382TIP3    H249638   5.172   4.623  13.637  0.3253  0.8212  0.2004
 9383TIP3   OH249639   2.163   1.075   3.261  0.2248  0.4902  0.0295
 9383TIP3    H149640   2.208   1.065   3.177 -0.3087 -0.5863 -0.1406
 9383TIP3    H249641   2.082   1.121   3.239  1.0681  2.1061  0.2815
 9384TIP3   OH249642   2.752   1.919   0.474 -0.4985 -0.1909 -0.0721
 9384TIP3    H149643   2.672   1.895   0.427 -1.3960 -0.2401  1.4420
 9384TIP3    H249644   2.739   2.010   0.500  0.6366  0.3144 -1.2063
 9385TIP3   OH249645   6.705   2.413  13.099  0.1244 -0.0712 -0.2091
 9385TIP3    H149646   6.680   2.322  13.081  0.1651 -0.0967 -0.1346
 9385TIP3    H249647   6.712   2.453  13.012  2.8067 -0.8284 -0.3696
 9386TIP3   OH249648   5.103   2.294   5.604  0.3063  0.1858 -0.2592
 9386TIP3    H149649   5.131   2.324   5.691  0.1726 -3.0946  0.9992
 9386TIP3    H249650   5.011   2.317   5.599  0.5808  1.3796  0.0087
 9387TIP3   OH249651   5.904   1.442   1.950 -0.6983 -0.0675  0.0687
 9387TIP3    H149652   5.864   1.379   2.010  0.0321 -0.5717  0.0269
 9387TIP3    H249653   5.906   1.396   1.866 -0.0823 -0.0194  0.0578
 9388TIP3   OH249654   4.320   5.751  11.552  0.2726 -0.5676  0.1711
 9388TIP3    H149655   4.375   5.682  11.515 -0.4139 -2.3869  2.3797
 9388TIP3    H249656   4.322   5.734  11.647  0.2529  2.5878  0.8053
 9389TIP3   OH249657   6.224   2.405   4.923 -0.3586  0.7356  0.0262
 9389TIP3    H149658   6.210   2.494   4.956 -1.7484  0.8072 -0.6931
 9389TIP3    H249659   6.313   2.406   4.889 -0.6989  2.1452 -0.8704
 9390TIP3   OH249660   2.639   5.130   2.305 -0.7292  0.5833  0.8005
 9390TIP3    H149661   2.718   5.162   2.262  0.6474 -1.9201  1.3487
 9390TIP3    H249662   2.575   5.122   2.233  0.3235  0.2200 -0.1201
 9391TIP3   OH249663   4.310   5.052   2.188 -0.4627  0.7597  0.4099
 9391TIP3    H149664   4.287   5.077   2.099 -0.5459  0.7620  0.4320
 9391TIP3    H249665   4.232   5.007   2.222  0.6411 -2.0853 -0.6185
 9392TIP3   OH249666   4.444   1.388   6.554 -0.2596 -0.3692 -0.7114
 9392TIP3    H149667   4.495   1.466   6.532 -0.5687  0.5624  1.7226
 9392TIP3    H249668   4.353   1.417   6.552 -0.7461 -1.9244 -4.6266
 9393TIP3   OH249669   3.405   2.349   1.420  0.0708 -0.2648  0.8074
 9393TIP3    H149670   3.312   2.329   1.408 -0.1402  1.8066 -1.4526
 9393TIP3    H249671   3.406   2.413   1.492 -0.1244 -1.1721  1.6266
 9394TIP3   OH249672   1.524   3.905   0.498  0.8522 -0.2898 -0.6284
 9394TIP3    H149673   1.598   3.847   0.516 -0.5357 -2.3025 -1.2811
 9394TIP3    H249674   1.517   3.906   0.402  2.1095  2.6249 -0.7679
 9395TIP3   OH249675   0.074   2.986   1.972 -0.1497  0.0708  0.2260
 9395TIP3    H149676   0.129   3.063   1.983 -0.6538  0.4294  0.2893
 9395TIP3    H249677  -0.007   3.020   1.933 -0.4547 -0.3937  0.4489
 9396TIP3   OH249678   2.405   5.281   5.408  0.3504 -0.2284 -0.5332
 9396TIP3    H149679   2.403   5.186   5.417 -0.7605  0.0382  3.2334
 9396TIP3    H249680   2.314   5.308   5.426  0.9168  1.6099 -0.3324
 9397TIP3   OH249681   2.108   5.411   2.834  0.2084  0.6000  0.0684
 9397TIP3    H149682   2.173   5.346   2.860  0.0583  0.6204  0.4889
 9397TIP3    H249683   2.126   5.426   2.741 -0.0649 -0.3919 -0.1477
 9398TIP3   OH249684   4.433   3.120   3.124  0.0602 -0.1515 -0.2652
 9398TIP3    H149685   4.376   3.052   3.159  0.6046  0.3224  1.5966
 9398TIP3    H249686   4.379   3.199   3.123  0.2214 -0.0323  0.1067
 9399TIP3   OH249687   3.365   3.589   0.730 -0.0122  0.1988  0.0290
 9399TIP3    H149688   3.312   3.669   0.727 -1.4526 -0.7396 -0.2914
 9399TIP3    H249689   3.315   3.530   0.787  0.4698 -0.8593 -0.6337
 9400TIP3   OH249690   4.917   6.104  11.779  0.2962 -0.2128 -0.2283
 9400TIP3    H149691   4.838   6.097  11.832 -1.3355  0.0682 -2.5126
 9400TIP3    H249692   4.949   6.014  11.771  0.3063 -0.3039  0.8528
 9401TIP3   OH249693   4.423   4.943   3.869 -0.3207  0.2619  0.2761
 9401TIP3    H149694   4.445   4.956   3.961  1.3103 -0.5973  0.0300
 9401TIP3    H249695   4.470   5.012   3.822 -0.8688  0.4863  0.0445
 9402TIP3   OH249696   1.884   4.491   0.435 -0.0627 -0.4116  0.1475
 9402TIP3    H149697   1.879   4.404   0.396  0.0928  0.0351 -0.8947
 9402TIP3    H249698   1.884   4.475   0.530 -0.5502 -1.5083 -0.0238
 9403TIP3   OH249699   4.203   6.253   4.398  0.2330 -0.2845 -0.2853
 9403TIP3    H149700   4.264   6.321   4.426 -0.4071  0.4822 -0.7371
 9403TIP3    H249701   4.240   6.172   4.432 -0.1413  0.5347  2.1660
 9404TIP3   OH249702   5.266   5.283  12.260 -0.1410 -0.4109  0.0017
 9404TIP3    H149703   5.232   5.247  12.178 -0.2168  0.0365 -0.1672
 9404TIP3    H249704   5.358   5.301  12.242 -0.7417  2.0600 -0.8138
 9405TIP3   OH249705   2.165   1.070   4.613 -0.2928  0.1881  0.1867
 9405TIP3    H149706   2.070   1.072   4.604 -0.2530 -0.6950 -0.4564
 9405TIP3    H249707   2.182   0.998   4.674 -0.1421  1.5971  1.8491
 9406TIP3   OH249708   6.160   5.802   4.914  0.8442 -0.8145  0.3834
 9406TIP3    H149709   6.242   5.781   4.958  1.5986  0.9593 -0.1243
 9406TIP3    H249710   6.144   5.894   4.935 -0.7535 -0.9988  0.0667
 9407TIP3   OH249711   1.499   0.476  12.710  0.2603 -0.2651 -0.1199
 9407TIP3    H149712   1.511   0.569  12.728  2.6355 -0.2210 -1.8245
 9407TIP3    H249713   1.426   0.472  12.648 -0.5467  0.3529  0.7743
 9408TIP3   OH249714   1.116   2.281  16.167 -0.1583 -0.6037  0.6053
 9408TIP3    H149715   1.032   2.281  16.122 -0.6058 -2.3793  1.4073
 9408TIP3    H249716   1.099   2.325  16.250 -0.2137 -0.5839  0.5848
 9409TIP3   OH249717   2.025   6.599   4.375  0.1984 -0.1808  0.2999
 9409TIP3    H149718   2.083   6.614   4.300  0.6061  0.3848  0.7273
 9409TIP3    H249719   1.943   6.569   4.336  0.2790  0.4945 -0.4062
 9410TIP3   OH249720   1.390   1.981   5.759  0.2869 -0.2283  0.2664
 9410TIP3    H149721   1.421   2.058   5.711  0.8332  0.2962  1.4373
 9410TIP3    H249722   1.294   1.986   5.752  0.3380  0.1931 -0.2056
 9411TIP3   OH249723   5.977   2.575  11.279 -0.1885  0.0014 -0.0841
 9411TIP3    H149724   5.996   2.527  11.199 -1.0592  1.6973 -1.3515
 9411TIP3    H249725   6.053   2.634  11.289 -0.7573  0.8181 -0.4897
 9412TIP3   OH249726   6.175   4.101  14.042  0.3802 -0.1701  0.0648
 9412TIP3    H149727   6.212   4.019  14.075  0.0289 -0.3385  0.0465
 9412TIP3    H249728   6.236   4.129  13.975  0.7692 -0.1544  0.4220
 9413TIP3   OH249729   5.447   3.610   4.899 -0.1553 -0.2295 -0.6021
 9413TIP3    H149730   5.384   3.575   4.962 -0.4161 -0.7523 -1.1491
 9413TIP3    H249731   5.429   3.704   4.896  1.1100  0.0948  1.5040
 9414TIP3   OH249732   4.029   0.928   2.909 -0.2877  0.0069 -0.1840
 9414TIP3    H149733   4.077   0.902   2.830 -0.8894 -0.6346 -0.3439
 9414TIP3    H249734   4.080   1.001   2.945  0.0965  0.1783 -1.0562
 9415TIP3   OH249735   0.963   3.604  15.550 -0.0679 -0.1456 -0.2629
 9415TIP3    H149736   0.903   3.678  15.536 -0.3293 -0.5133 -1.0937
 9415TIP3    H249737   1.046   3.633  15.514 -0.3708 -0.5401 -1.3177
 9416TIP3   OH249738   1.974   5.446  16.086 -0.1771  0.4277  0.4487
 9416TIP3    H149739   1.931   5.361  16.087 -0.8220  0.7525  2.1848
 9416TIP3    H249740   1.926   5.497  16.021  1.1001 -0.9676 -1.6270
 9417TIP3   OH249741   2.463   3.804  15.187  0.2381  0.2790 -0.5912
 9417TIP3    H149742   2.539   3.753  15.158 -0.4343 -0.5103 -0.9667
 9417TIP3    H249743   2.475   3.811  15.282  1.4954  1.3333 -0.8205
 9418TIP3   OH249744   5.356   1.081   5.955  0.2086  0.2558  0.5404
 9418TIP3    H149745   5.447   1.077   5.985  0.7611 -0.0128 -1.1295
 9418TIP3    H249746   5.348   1.166   5.912 -0.5578  0.6161  1.3868
 9419TIP3   OH249747   4.602   0.015  13.259 -0.3646 -0.4101  0.3449
 9419TIP3    H149748   4.672  -0.010  13.198  0.2124  0.8181  0.4876
 9419TIP3    H249749   4.547  -0.064  13.266  1.2300 -1.5341  0.5512
 9420TIP3   OH249750   6.452   4.226   5.727  0.0884  0.4577 -0.1824
 9420TIP3    H149751   6.532   4.240   5.676 -0.1932  0.8276 -0.5205
 9420TIP3    H249752   6.449   4.132   5.741 -0.8375  0.1116 -2.4951
 9421TIP3   OH249753   3.312   5.078   0.658 -0.2639 -0.2037 -0.0098
 9421TIP3    H149754   3.372   5.038   0.721 -0.2137  2.4285  1.7094
 9421TIP3    H249755   3.308   5.170   0.684 -0.4468  0.9236 -3.7292
 9422TIP3   OH249756   2.579   3.207   2.253 -0.4144 -0.5136 -0.4042
 9422TIP3    H149757   2.551   3.176   2.167 -1.3760 -0.2498 -0.1856
 9422TIP3    H249758   2.637   3.281   2.234  0.5674 -1.4032 -0.8703
 9423TIP3   OH249759   2.773   2.638   2.919 -0.7386  0.1124  0.5802
 9423TIP3    H149760   2.761   2.607   2.829 -0.1660 -0.2715  0.6289
 9423TIP3    H249761   2.729   2.573   2.973 -3.2957  1.6727  0.4529
 9424TIP3   OH249762   5.094   0.447   0.805 -0.3466 -0.0303  0.1010
 9424TIP3    H149763   5.018   0.389   0.795 -0.7503  0.4777  0.2246
 9424TIP3    H249764   5.057   0.530   0.835  0.1358  0.5683 -0.9630
 9425TIP3   OH249765   0.332   5.998  17.125  0.5648  0.4480 -0.2046
 9425TIP3    H149766   0.352   5.998  17.032  1.3133  0.7286 -0.0513
 9425TIP3    H249767   0.392   5.933  17.163 -2.2801 -2.3890 -0.4160
 9426TIP3   OH249768   2.289   2.337  12.920  0.4327 -0.1847  0.4801
 9426TIP3    H149769   2.203   2.376  12.938  0.7351  0.2300  1.0478
 9426TIP3    H249770   2.299   2.269  12.987  1.1414  0.7120  1.3156
 9427TIP3   OH249771   5.553   2.716  14.184 -0.2568  0.6351  0.2042
 9427TIP3    H149772   5.610   2.789  14.208  2.6734 -1.2893 -0.6563
 9427TIP3    H249773   5.590   2.641  14.229 -2.1585 -0.6938 -0.3751
 9428TIP3   OH249774   1.318   4.839  15.315  0.3746 -0.3654 -0.5742
 9428TIP3    H149775   1.304   4.883  15.231  1.2467  0.9323 -0.0548
 9428TIP3    H249776   1.236   4.852  15.363 -1.0361 -3.1263 -2.0606
 9429TIP3   OH249777   4.942   1.823   5.338  0.6301  0.7428 -0.1680
 9429TIP3    H149778   5.024   1.804   5.292  0.8775  1.4832 -0.0410
 9429TIP3    H249779   4.950   1.914   5.364 -0.3237  0.8759 -0.3279
 9430TIP3   OH249780   5.200   2.563  17.281 -0.2958 -0.2308 -0.3706
 9430TIP3    H149781   5.183   2.537  17.190 -0.2090  1.0751 -0.7594
 9430TIP3    H249782   5.173   2.654  17.286  0.5681 -0.0211  0.6871
 9431TIP3   OH249783   4.841   0.656  12.433  0.4746  0.3222 -0.0195
 9431TIP3    H149784   4.903   0.694  12.495  1.6625  0.2290 -1.1334
 9431TIP3    H249785   4.780   0.607  12.488  1.3095  0.5044  1.1029
 9432TIP3   OH249786   0.180   5.171  16.104  0.0091 -0.0446 -0.1524
 9432TIP3    H149787   0.198   5.082  16.135 -0.5919  0.0467  0.4515
 9432TIP3    H249788   0.266   5.207  16.085  0.4009 -0.0542  1.5324
 9433TIP3   OH249789   2.221   6.756  13.461 -0.0901  0.1893 -0.1041
 9433TIP3    H149790   2.204   6.846  13.433 -0.9466  0.4636  1.2116
 9433TIP3    H249791   2.237   6.764  13.556  2.5027 -0.7085 -0.4090
 9434TIP3   OH249792   5.005   5.367   3.952  0.3406  0.0324 -0.2581
 9434TIP3    H149793   5.050   5.432   3.896 -0.2644  0.2265 -0.5276
 9434TIP3    H249794   5.012   5.403   4.040  0.5643  0.1472 -0.3205
 9435TIP3   OH249795   4.817   1.643  13.009  0.0847 -0.4140  0.3140
 9435TIP3    H149796   4.853   1.664  12.923 -0.0950 -1.2688  0.0214
 9435TIP3    H249797   4.837   1.719  13.063  0.3427  0.0596 -0.4421
 9436TIP3   OH249798   1.535   1.803   1.152  0.3050 -0.0124 -0.1500
 9436TIP3    H149799   1.557   1.800   1.245  2.7415 -1.4027 -0.7280
 9436TIP3    H249800   1.559   1.717   1.119 -0.4917  0.4838 -2.0955
 9437TIP3   OH249801   0.890   5.091   5.127 -0.5017 -0.0894 -0.3429
 9437TIP3    H149802   0.975   5.054   5.149  0.1502  1.9286  0.7224
 9437TIP3    H249803   0.832   5.062   5.197 -0.1000  0.4935  0.2424
 9438TIP3   OH249804   0.710   5.417   4.163  0.0869 -0.5891  0.0061
 9438TIP3    H149805   0.727   5.446   4.253 -3.0010 -1.5845  0.9542
 9438TIP3    H249806   0.697   5.323   4.169  4.3441 -1.4597 -2.2370
 9439TIP3   OH249807   3.902   2.858   4.432  0.4625 -0.4173  0.7073
 9439TIP3    H149808   3.926   2.933   4.378 -1.6144 -1.5859 -1.9306
 9439TIP3    H249809   3.969   2.792   4.414  0.6075 -0.2694  0.7072
 9440TIP3   OH249810   0.484   5.344   3.656 -0.5110  0.0839 -0.1236
 9440TIP3    H149811   0.514   5.433   3.676  0.1372 -0.1195 -0.1535
 9440TIP3    H249812   0.462   5.347   3.563 -0.7357  0.2766 -0.0669
 9441TIP3   OH249813   0.473   0.656  16.091  0.4171 -0.7078  0.2651
 9441TIP3    H149814   0.511   0.641  16.005 -0.9021 -1.6488 -0.1791
 9441TIP3    H249815   0.546   0.645  16.152  1.9878  2.7254 -0.8730
 9442TIP3   OH249816   1.534   3.204  12.343  0.2306 -0.3113  0.4765
 9442TIP3    H149817   1.615   3.221  12.391 -0.4141  0.4240  1.3115
 9442TIP3    H249818   1.558   3.217  12.251  1.0978 -0.2504  0.7065
 9443TIP3   OH249819   2.113   2.499  15.951 -0.3661 -1.1450 -0.1484
 9443TIP3    H149820   2.127   2.592  15.931 -0.0507 -0.7769  1.6766
 9443TIP3    H249821   2.024   2.482  15.922 -0.7040 -0.0595  0.2178
 9444TIP3   OH249822   1.411   2.068  14.308  0.6394  0.7813  0.0221
 9444TIP3    H149823   1.478   2.030  14.365 -0.2725  0.3679  0.8283
 9444TIP3    H249824   1.411   2.161  14.330 -0.5551  0.4292  1.5929
 9445TIP3   OH249825   2.287   6.312  14.718  0.0432  0.4372  0.2427
 9445TIP3    H149826   2.294   6.379  14.786  0.9290 -0.5476  1.1299
 9445TIP3    H249827   2.229   6.351  14.653  0.1164  1.8568  1.0015
 9446TIP3   OH249828   6.078   1.302  13.924  0.5359  0.8312 -0.2572
 9446TIP3    H149829   5.998   1.297  13.975  0.5952 -0.0799 -0.2467
 9446TIP3    H249830   6.106   1.393  13.932  0.7226  0.6248  1.6094
 9447TIP3   OH249831   6.267   3.373   0.312  0.1229 -0.5069 -0.3114
 9447TIP3    H149832   6.210   3.297   0.301  0.9304 -1.2444  0.4595
 9447TIP3    H249833   6.303   3.390   0.225 -0.1680 -0.9281 -0.5119
 9448TIP3   OH249834   0.931   0.003   3.758  0.0951  0.0183 -0.7771
 9448TIP3    H149835   1.014   0.043   3.731 -0.1205  1.2592  0.3322
 9448TIP3    H249836   0.890   0.070   3.812 -0.1024 -1.8793  1.4612
 9449TIP3   OH249837   0.372   0.889  16.214 -0.1648 -0.1758 -0.1880
 9449TIP3    H149838   0.450   0.944  16.207  0.3932 -1.1979 -2.0564
 9449TIP3    H249839   0.405   0.800  16.223 -1.1097 -0.5657 -0.4655
 9450TIP3   OH249840   1.034   2.918   4.196 -0.1457  0.0973  0.1974
 9450TIP3    H149841   1.003   2.998   4.154 -0.3476 -0.1203 -0.0691
 9450TIP3    H249842   0.982   2.910   4.276 -1.5866 -0.8807 -0.8241
 9451TIP3   OH249843   4.980   0.880   4.229 -0.0616  0.1768  0.0146
 9451TIP3    H149844   4.947   0.883   4.140 -0.1218 -0.6857  0.0052
 9451TIP3    H249845   4.924   0.817   4.274  0.4788 -0.0041  0.4470
 9452TIP3   OH249846   1.802   5.377  15.613 -0.2946 -0.1296  0.1203
 9452TIP3    H149847   1.812   5.312  15.683 -1.9716 -2.1692 -1.4645
 9452TIP3    H249848   1.879   5.433  15.621  1.1475 -2.2545  1.5987
 9453TIP3   OH249849   4.028   3.251  13.487 -0.2872  0.4006 -0.2130
 9453TIP3    H149850   4.057   3.168  13.451 -0.5515  0.7228 -1.1642
 9453TIP3    H249851   4.034   3.239  13.582 -0.4058 -0.7305 -0.3400
 9454TIP3   OH249852   3.679   3.264   3.107 -0.7698 -0.0475  0.1810
 9454TIP3    H149853   3.657   3.333   3.045  0.8693  0.5252  0.2022
 9454TIP3    H249854   3.770   3.283   3.133 -0.7877 -1.3701  1.2905
 9455TIP3   OH249855   1.642   0.996   0.261 -0.0694 -0.1760  0.0186
 9455TIP3    H149856   1.691   0.914   0.268  0.6068  0.2332  0.1381
 9455TIP3    H249857   1.668   1.032   0.176  0.1133  0.2192  0.2432
 9456TIP3   OH249858   6.243   1.058   2.345 -0.4057  0.2192  0.9624
 9456TIP3    H149859   6.326   1.104   2.344 -0.0122 -0.4582  1.8818
 9456TIP3    H249860   6.179   1.123   2.314  0.6444  0.3393 -0.9968
 9457TIP3   OH249861   1.250   3.753  11.419  0.0783 -1.0885 -0.6823
 9457TIP3    H149862   1.278   3.726  11.331 -0.4969 -1.3091 -0.7951
 9457TIP3    H249863   1.311   3.824  11.442  0.1452 -0.9337 -1.3152
 9458TIP3   OH249864   2.138   0.876  13.369  0.3836 -0.1290 -0.3226
 9458TIP3    H149865   2.132   0.785  13.340 -2.2675  0.0980 -0.5770
 9458TIP3    H249866   2.152   0.869  13.464 -1.9220 -0.8272 -0.0018
 9459TIP3   OH249867   3.335   5.620   0.554  0.1563  0.5098  0.6339
 9459TIP3    H149868   3.365   5.553   0.493 -0.9365 -1.1381  1.8768
 9459TIP3    H249869   3.413   5.644   0.603  0.3682 -0.5461  0.8234
 9460TIP3   OH249870   4.538   1.924  11.742 -0.1950 -0.8716  0.4946
 9460TIP3    H149871   4.624   1.930  11.700 -0.7855 -1.9013 -0.8942
 9460TIP3    H249872   4.552   1.865  11.816  0.4221 -0.5911  0.6061
 9461TIP3   OH249873   1.664   5.344  12.105 -0.1884  0.2438  0.1192
 9461TIP3    H149874   1.629   5.283  12.170 -2.6214  2.3105  0.8332
 9461TIP3    H249875   1.647   5.301  12.020 -1.4586 -0.3037  0.6299
 9462TIP3   OH249876   4.588   4.508  11.804  0.2303 -0.0421 -0.0571
 9462TIP3    H149877   4.637   4.571  11.750  0.6880 -1.7716 -1.7353
 9462TIP3    H249878   4.653   4.474  11.865  0.0635  0.8393  0.6222
 9463TIP3   OH249879   3.151   2.724  15.813 -0.3394 -0.0981  1.2076
 9463TIP3    H149880   3.196   2.644  15.841  0.4921  0.1300  0.5386
 9463TIP3    H249881   3.099   2.697  15.737 -1.9899 -0.5440  2.4755
 9464TIP3   OH249882   4.509   0.597   0.452 -0.4180 -0.6495  0.0114
 9464TIP3    H149883   4.534   0.673   0.400 -0.7499  0.9919  2.1511
 9464TIP3    H249884   4.574   0.530   0.431  1.6094  1.2144  0.2632
 9465TIP3   OH249885   1.027   2.751   3.167  0.7772 -0.3129  0.0506
 9465TIP3    H149886   1.043   2.719   3.255 -0.7290 -1.7433 -0.1637
 9465TIP3    H249887   0.959   2.817   3.177  2.0454  0.9784  0.1911
 9466TIP3   OH249888   4.686   5.114   3.450  0.1567 -0.0318  0.2656
 9466TIP3    H149889   4.750   5.050   3.420  2.4330  2.7364 -1.0325
 9466TIP3    H249890   4.621   5.118   3.380 -0.4112 -1.4125  0.6931
 9467TIP3   OH249891   2.816   2.615   0.532 -0.2807  0.3665 -0.4696
 9467TIP3    H149892   2.743   2.560   0.505  0.0507  0.4741 -1.6277
 9467TIP3    H249893   2.789   2.652   0.616 -0.7239 -1.1448  0.0753
 9468TIP3   OH249894   4.599   1.756   4.338 -0.3471 -0.2790  0.4662
 9468TIP3    H149895   4.679   1.765   4.286 -1.1165  1.2056 -0.4955
 9468TIP3    H249896   4.557   1.677   4.305 -0.2850  0.0495 -0.4102
 9469TIP3   OH249897   1.599   3.699   2.970 -0.3388  0.4403  0.4529
 9469TIP3    H149898   1.571   3.746   2.891  0.8139  0.8883  0.3014
 9469TIP3    H249899   1.573   3.609   2.955 -1.4983  0.8004  0.2181
 9470TIP3   OH249900   2.753   1.886   2.892 -0.0276 -0.6314 -0.0332
 9470TIP3    H149901   2.670   1.931   2.906  0.9649  0.5047  2.5605
 9470TIP3    H249902   2.820   1.948   2.923  1.6289 -2.2844 -0.2105
 9471TIP3   OH249903   2.468   1.633   6.074 -0.1265 -0.2289  0.1424
 9471TIP3    H149904   2.391   1.581   6.098 -1.3770  1.1332 -0.7974
 9471TIP3    H249905   2.499   1.669   6.156 -0.8384 -0.3388  0.4665
 9472TIP3   OH249906   6.215   6.608   1.880  0.4160 -0.1536 -0.3986
 9472TIP3    H149907   6.203   6.611   1.785 -0.9470  0.1603 -0.2291
 9472TIP3    H249908   6.310   6.603   1.892  0.7655  2.2269 -1.7368
 9473TIP3   OH249909   6.209   0.736  15.351  0.5286 -0.4668 -0.1604
 9473TIP3    H149910   6.133   0.695  15.391  2.1868 -2.0872  1.4359
 9473TIP3    H249911   6.244   0.793  15.419  1.9414 -1.3350 -0.1473
 9474TIP3   OH249912   5.279   5.277  16.314  0.0192 -0.4200  0.0733
 9474TIP3    H149913   5.357   5.289  16.367 -0.8788 -0.2127  1.3659
 9474TIP3    H249914   5.312   5.247  16.229  1.3953 -2.1706  1.1798
 9475TIP3   OH249915   4.645   6.050  16.052 -0.4372 -0.1220 -0.3823
 9475TIP3    H149916   4.574   6.112  16.062 -0.2791  0.3436 -1.9633
 9475TIP3    H249917   4.614   5.988  15.986 -1.0908 -2.4785  2.0611
 9476TIP3   OH249918   3.183   1.871  12.193  0.4590  0.0592  0.4179
 9476TIP3    H149919   3.140   1.860  12.108  0.1018  0.2715  0.5748
 9476TIP3    H249920   3.217   1.784  12.214  0.9939  0.1156 -0.1821
 9477TIP3   OH249921   6.230   4.120  16.314  0.0126  0.1099 -0.2852
 9477TIP3    H149922   6.180   4.062  16.371 -1.4073  2.6470  1.1251
 9477TIP3    H249923   6.311   4.073  16.298 -1.3291 -2.5008  0.3661
 9478TIP3   OH249924   0.598   6.067   0.792 -0.0877  0.3397 -1.0042
 9478TIP3    H149925   0.587   6.113   0.710 -0.1812 -2.4353 -2.6112
 9478TIP3    H249926   0.678   6.015   0.781  0.1477  0.2475  0.8244
 9479TIP3   OH249927   6.456   2.780  14.564  0.5065  0.7990 -0.1414
 9479TIP3    H149928   6.525   2.735  14.613 -1.8195 -0.9253  1.6158
 9479TIP3    H249929   6.443   2.862  14.611  1.0710  0.9592 -0.2596
 9480TIP3   OH249930   6.085   0.649  12.886 -0.6777  0.0395  0.0418
 9480TIP3    H149931   6.149   0.666  12.955 -1.8303  0.5758  1.0061
 9480TIP3    H249932   6.052   0.735  12.862 -2.3042 -0.3378  0.8153
 9481TIP3   OH249933   5.978   2.200   2.141  0.1074  0.3828  0.2133
 9481TIP3    H149934   6.070   2.199   2.168  0.0368  1.1209  0.5058
 9481TIP3    H249935   5.954   2.293   2.145 -0.4937  0.2551 -0.3847
 9482TIP3   OH249936   3.916   4.449   3.819  0.1985 -0.2255 -0.5695
 9482TIP3    H149937   3.965   4.513   3.767  0.8800 -0.0891  0.2392
 9482TIP3    H249938   3.978   4.377   3.833  0.7123  0.6390  1.8056
 9483TIP3   OH249939   1.518   5.804  12.440 -0.0142 -0.2005  0.1652
 9483TIP3    H149940   1.574   5.736  12.402  0.7491  0.4185  0.1480
 9483TIP3    H249941   1.452   5.822  12.374  1.0446  0.5623 -0.7051
 9484TIP3   OH249942   5.263   2.048   6.465  0.2053 -0.4694 -0.9701
 9484TIP3    H149943   5.208   2.070   6.540  1.3332  0.4298 -0.4065
 9484TIP3    H249944   5.244   1.955   6.449 -0.5607 -0.4913 -0.0161
 9485TIP3   OH249945   1.613   5.848   6.714 -0.2459 -0.3377 -0.4847
 9485TIP3    H149946   1.636   5.913   6.647 -2.2838 -0.4745 -1.3598
 9485TIP3    H249947   1.529   5.879   6.749 -0.4106 -1.6044  0.2610
 9486TIP3   OH249948   4.617   3.699   0.549  0.0903  0.0295 -0.8876
 9486TIP3    H149949   4.633   3.637   0.478  2.1142 -2.0389  1.3141
 9486TIP3    H249950   4.558   3.653   0.608 -0.0619  1.0318 -0.2397
 9487TIP3   OH249951   6.801   4.290   3.384 -0.5449  0.8288 -0.0045
 9487TIP3    H149952   6.777   4.208   3.427 -0.0495  1.1606  0.9123
 9487TIP3    H249953   6.757   4.358   3.435 -1.0917  1.1264 -0.8632
 9488TIP3   OH249954   1.507   3.552   1.371 -0.0695  0.3488 -0.4357
 9488TIP3    H149955   1.493   3.614   1.443 -0.1736  0.6183 -0.6854
 9488TIP3    H249956   1.419   3.526   1.344  0.0000 -0.9574  0.5593
 9489TIP3   OH249957   0.902   3.254  14.493  0.0471 -0.1999 -0.1413
 9489TIP3    H149958   0.825   3.293  14.452 -1.0397 -0.8329  1.2630
 9489TIP3    H249959   0.948   3.328  14.533  0.0007  0.1347 -0.6983
 9490TIP3   OH249960   3.509   5.977  11.320 -0.0538  0.2281 -0.3515
 9490TIP3    H149961   3.580   5.915  11.305  0.9812  1.8443 -2.3502
 9490TIP3    H249962   3.438   5.924  11.357  1.6229 -1.6880  0.1823
 9491TIP3   OH249963   2.973   5.369  16.755 -0.1006 -0.1333 -0.8810
 9491TIP3    H149964   2.964   5.458  16.720 -0.8092  0.9227  1.8765
 9491TIP3    H249965   2.883   5.336  16.757  0.0197 -0.4493 -0.7203
 9492TIP3   OH249966   6.746   1.296  15.141  0.0762  0.0243  0.1957
 9492TIP3    H149967   6.725   1.239  15.067  0.4289  0.7759 -0.4893
 9492TIP3    H249968   6.828   1.338  15.117 -0.1770  0.8237  0.6936
 9493TIP3   OH249969   3.154   0.015  12.461  0.5124 -0.2568 -0.2104
 9493TIP3    H149970   3.059   0.009  12.468  0.5214 -2.0480 -1.3054
 9493TIP3    H249971   3.170   0.055  12.376  0.7493  1.1032  0.4452
 9494TIP3   OH249972   3.327   2.308  14.141  0.1233 -0.5206  0.1840
 9494TIP3    H149973   3.362   2.265  14.219  0.3955 -1.3729 -0.3964
 9494TIP3    H249974   3.399   2.362  14.108  0.4163 -1.1194 -0.1700
 9495TIP3   OH249975   5.600   6.377  14.214 -0.8277 -0.1763  0.2717
 9495TIP3    H149976   5.511   6.412  14.211 -0.5639  0.4624 -3.9064
 9495TIP3    H249977   5.653   6.443  14.170  1.2184 -1.8317  0.1596
 9496TIP3   OH249978   2.961   6.723  12.722 -0.4233  0.0683 -0.3679
 9496TIP3    H149979   2.946   6.674  12.642  0.0107 -0.6169 -0.0358
 9496TIP3    H249980   2.932   6.664  12.792  1.7243 -0.4297  0.1470
 9497TIP3   OH249981   6.806   4.201  12.025  0.5423  0.1679 -1.1190
 9497TIP3    H149982   6.809   4.128  11.964 -0.8295 -1.1415  0.3292
 9497TIP3    H249983   6.862   4.174  12.098 -1.3896 -0.2492  0.2418
 9498TIP3   OH249984   3.152   1.129  11.910  0.0341  0.2982  0.8105
 9498TIP3    H149985   3.161   1.199  11.975  2.7954 -0.9904  1.8877
 9498TIP3    H249986   3.220   1.148  11.845 -1.5343  0.5687 -0.8100
 9499TIP3   OH249987   6.563   1.860   1.536  0.3740  0.2785  0.3438
 9499TIP3    H149988   6.524   1.908   1.464  2.2811  0.5562 -0.5315
 9499TIP3    H249989   6.489   1.822   1.583 -0.9883  1.7147 -0.6099
 9500TIP3   OH249990   6.387   0.531   1.124  0.3152  0.2771  0.3323
 9500TIP3    H149991   6.435   0.544   1.205  0.8646  0.4997 -0.0272
 9500TIP3    H249992   6.375   0.436   1.119 -0.0657  0.2928  0.8661
 9501TIP3   OH249993   4.844   2.872   0.545 -0.2600  0.1459  0.3874
 9501TIP3    H149994   4.927   2.842   0.581 -0.5151 -1.8416 -0.5683
 9501TIP3    H249995   4.865   2.899   0.456  0.0185  3.2003  1.3410
 9502TIP3   OH249996   0.539   1.379   3.604 -0.0628 -0.4609 -0.0174
 9502TIP3    H149997   0.607   1.316   3.626 -0.0518 -0.9405 -1.4154
 9502TIP3    H249998   0.550   1.450   3.668  1.0687 -1.0251  0.4138
 9503TIP3   OH249999   5.112   5.797  16.560  0.3113 -0.1106 -0.2549
 9503TIP3    H150000   5.023   5.762  16.556  0.4957 -0.4341 -1.9285
 9503TIP3    H250001   5.104   5.886  16.526  0.7703 -0.4653 -1.3250
 9504TIP3   OH250002   6.549   0.545   6.287  0.3814 -0.4786  0.0150
 9504TIP3    H150003   6.524   0.616   6.347 -1.4018  0.2417 -1.5325
 9504TIP3    H250004   6.644   0.554   6.277  0.1056  2.0374 -0.5789
 9505TIP3   OH250005   6.442   0.335   2.925 -0.7144  0.0707  0.0337
 9505TIP3    H150006   6.354   0.364   2.902 -0.6406 -0.2604 -0.6618
 9505TIP3    H250007   6.486   0.414   2.957 -1.1866  0.2829  0.1532
 9506TIP3   OH250008   2.619   3.341   5.980 -0.6444 -0.0503 -0.1015
 9506TIP3    H150009   2.582   3.380   6.059 -0.7272 -3.2390  1.4718
 9506TIP3    H250010   2.545   3.335   5.920 -0.8038  1.3976 -0.0867
 9507TIP3   OH250011   1.043   1.203   0.730 -0.1734 -0.1742  0.0107
 9507TIP3    H150012   1.091   1.175   0.808  0.1562 -1.2629 -0.5684
 9507TIP3    H250013   1.030   1.122   0.680 -2.4844  0.1007  0.0961
 9508TIP3   OH250014   0.266   1.997   3.871 -0.0843 -0.3423 -0.3231
 9508TIP3    H150015   0.249   1.916   3.919 -1.1593  0.5511  0.8423
 9508TIP3    H250016   0.213   2.063   3.916 -1.4832  0.4406 -3.0162
 9509TIP3   OH250017   5.665   1.955   1.175  0.5640  0.6296 -0.4705
 9509TIP3    H150018   5.682   2.034   1.124 -0.5451  0.7864 -0.6115
 9509TIP3    H250019   5.690   1.978   1.265 -0.7349  1.5013 -0.3129
 9510TIP3   OH250020   4.286   0.455   5.101 -0.1982  0.2828  0.1471
 9510TIP3    H150021   4.371   0.498   5.112 -0.4637  0.9248 -0.2587
 9510TIP3    H250022   4.243   0.464   5.186 -0.0646  0.4114  0.2024
 9511TIP3   OH250023   6.694   4.109  16.913  0.1883  0.0828  0.6121
 9511TIP3    H150024   6.619   4.086  16.968  0.0133  2.3762  1.4368
 9511TIP3    H250025   6.655   4.139  16.831  0.0569  2.6383  1.5500
 9512TIP3   OH250026   6.556   5.660  11.553 -0.8079  0.3473  0.1680
 9512TIP3    H150027   6.599   5.739  11.585 -1.6433  1.2555 -0.9169
 9512TIP3    H250028   6.549   5.603  11.630  1.5732  0.5011  0.5440
 9513TIP3   OH250029   5.824   1.044  14.971  0.2804 -0.0491 -0.0843
 9513TIP3    H150030   5.896   1.044  15.035  1.3606 -0.8569 -1.2680
 9513TIP3    H250031   5.865   1.018  14.889 -1.4910 -1.0623 -0.6677
 9514TIP3   OH250032   5.872   4.447  14.998 -0.9830  0.4486 -0.8231
 9514TIP3    H150033   5.836   4.460  15.086 -1.6667  0.3359 -1.0762
 9514TIP3    H250034   5.966   4.442  15.010 -1.1130 -0.1515 -0.0155
 9515TIP3   OH250035   2.216   2.018   2.760 -0.1138 -0.2304 -0.8037
 9515TIP3    H150036   2.164   1.938   2.752 -0.6800  0.2774 -2.4632
 9515TIP3    H250037   2.304   1.992   2.729 -0.6367  0.0949 -2.6334
 9516TIP3   OH250038   4.041   2.971   3.372  0.8687 -0.2475 -0.0831
 9516TIP3    H150039   4.049   2.926   3.456  2.5170 -1.3144 -0.7871
 9516TIP3    H250040   4.071   3.061   3.389  1.2513 -0.4785  0.4524
 9517TIP3   OH250041   3.120   3.815  15.487  0.6756  0.2191  0.6508
 9517TIP3    H150042   3.175   3.892  15.504  0.9573 -0.0283  0.8525
 9517TIP3    H250043   3.140   3.755  15.558 -0.6601  0.5687  1.3380
 9518TIP3   OH250044   6.319   2.301   1.788 -0.1672 -0.2159  0.4404
 9518TIP3    H150045   6.237   2.329   1.747  0.0965  1.0266  0.7570
 9518TIP3    H250046   6.374   2.379   1.787 -0.6095  0.2156  4.3649
 9519TIP3   OH250047   0.550   4.720  13.876  0.2010 -0.1037  0.2015
 9519TIP3    H150048   0.490   4.666  13.927 -0.8584 -0.9209 -1.8768
 9519TIP3    H250049   0.609   4.658  13.834 -0.1245  0.4358 -1.0628
 9520TIP3   OH250050   5.793   0.995   3.799  0.0383 -0.2168 -0.3639
 9520TIP3    H150051   5.804   0.954   3.885  2.8557  1.5011  0.1332
 9520TIP3    H250052   5.779   1.088   3.818 -0.5998 -0.0270 -1.7109
 9521TIP3   OH250053   5.254   4.244  14.146  0.3040 -0.3700  0.4780
 9521TIP3    H150054   5.235   4.222  14.237 -1.6303 -1.5420 -0.1729
 9521TIP3    H250055   5.203   4.324  14.130 -0.2422 -0.7820  0.1260
 9522TIP3   OH250056   1.739   2.767  15.774 -1.0110  0.3853  0.0289
 9522TIP3    H150057   1.792   2.732  15.846 -2.6948 -0.2063  1.0073
 9522TIP3    H250058   1.755   2.861  15.776  0.2856  0.1732  0.0690
 9523TIP3   OH250059   3.689   6.425   2.024  0.1546  0.6201 -0.3453
 9523TIP3    H150060   3.722   6.404   1.937 -0.1316 -0.4195 -0.2072
 9523TIP3    H250061   3.607   6.473   2.008 -0.7088 -0.9168 -0.6463
 9524TIP3   OH250062   1.248   4.240  15.036  0.8167 -0.0482 -0.4613
 9524TIP3    H150063   1.302   4.166  15.065  1.1369 -0.6462 -2.4981
 9524TIP3    H250064   1.166   4.231  15.085  2.0886  0.1801  1.7712
 9525TIP3   OH250065   1.833   2.671   1.375 -0.0877 -0.3917 -0.3067
 9525TIP3    H150066   1.819   2.589   1.328  0.5848 -0.3517 -0.5861
 9525TIP3    H250067   1.826   2.738   1.307  0.0820 -0.2756 -0.2113
 9526TIP3   OH250068   0.892   0.863  13.670  0.1224 -0.1045 -0.7378
 9526TIP3    H150069   0.981   0.829  13.677  0.6977  0.9366 -2.5527
 9526TIP3    H250070   0.839   0.803  13.722  1.5278 -2.1510 -1.5812
 9527TIP3   OH250071   0.547   3.172  14.755 -0.4282  0.1675  0.0342
 9527TIP3    H150072   0.577   3.261  14.775 -0.9280  0.3374  0.0149
 9527TIP3    H250073   0.454   3.181  14.735 -0.2192 -0.1759 -1.1656
 9528TIP3   OH250074   3.607   1.691  11.941  0.0782 -0.0370  0.1433
 9528TIP3    H150075   3.552   1.749  11.995  0.1064  0.3193 -0.2091
 9528TIP3    H250076   3.668   1.651  12.003 -0.5546 -0.4084  0.5336
 9529TIP3   OH250077   2.755   5.188  16.705 -0.2094 -0.4108 -0.1225
 9529TIP3    H150078   2.805   5.108  16.721 -0.6633 -1.3065 -2.9997
 9529TIP3    H250079   2.664   5.161  16.711 -0.3788  0.3231  0.7901
 9530TIP3   OH250080   2.621   0.699  16.119 -0.1854  0.4411 -0.3233
 9530TIP3    H150081   2.589   0.788  16.133 -2.9523 -0.5429 -0.1361
 9530TIP3    H250082   2.715   0.705  16.133 -0.3670  3.2715 -0.0144
 9531TIP3   OH250083   4.429   4.815  14.693 -0.5915  0.2281 -0.2343
 9531TIP3    H150084   4.357   4.780  14.640  0.7815 -2.6436 -0.2465
 9531TIP3    H250085   4.401   4.802  14.783 -0.7914  0.5884 -0.2452
 9532TIP3   OH250086   1.587   2.530  11.116  0.5397  0.0435 -0.0585
 9532TIP3    H150087   1.546   2.567  11.038  0.6575  0.7823  0.2325
 9532TIP3    H250088   1.669   2.578  11.126 -0.3551  1.2908  1.6137
 9533TIP3   OH250089   3.617   0.685   3.771  0.1286 -0.6004  0.4067
 9533TIP3    H150090   3.680   0.692   3.842 -0.3074 -0.1729  0.7589
 9533TIP3    H250091   3.638   0.602   3.728  1.5496  0.0050 -0.0858
 9534TIP3   OH250092   0.168   4.878   5.680 -0.2326 -0.2810  0.2621
 9534TIP3    H150093   0.238   4.931   5.717 -0.8642  0.5856  0.2472
 9534TIP3    H250094   0.211   4.820   5.618  0.4979  0.0803  0.4293
 9535TIP3   OH250095   4.823   3.210   1.760  0.0364 -0.3657 -0.4355
 9535TIP3    H150096   4.856   3.122   1.781  0.3349 -0.0380  0.5263
 9535TIP3    H250097   4.732   3.196   1.734  0.0822 -0.9613 -0.2857
 9536TIP3   OH250098   6.264   1.968   1.964  0.1792  0.0570 -0.2250
 9536TIP3    H150099   6.291   1.881   1.993  1.7090  0.4979 -0.2752
 9536TIP3    H250100   6.346   2.019   1.960 -0.6376  1.3791 -0.5785
 9537TIP3   OH250101   0.960   6.003  11.250 -0.2405 -0.1242 -0.1231
 9537TIP3    H150102   1.002   6.006  11.336 -1.0410 -1.4083  0.3297
 9537TIP3    H250103   0.874   6.043  11.264 -0.8817 -1.4892  0.0049
 9538TIP3   OH250104   6.319   3.465   2.918  0.5678 -0.0373  0.5518
 9538TIP3    H150105   6.270   3.535   2.873  2.2920  1.7632  1.4043
 9538TIP3    H250106   6.293   3.385   2.872 -2.3893  0.9837  0.3341
 9539TIP3   OH250107   2.294   5.286  12.174  0.0114  0.3581 -0.5560
 9539TIP3    H150108   2.255   5.199  12.166  0.9359  0.0188 -1.5764
 9539TIP3    H250109   2.255   5.322  12.253  0.4853 -1.4306  0.5262
 9540TIP3   OH250110   0.520   5.435   0.724  0.1313  0.0392  0.6895
 9540TIP3    H150111   0.493   5.514   0.678  0.7933 -0.4627 -0.5822
 9540TIP3    H250112   0.603   5.410   0.682  0.8564 -0.3069  2.2866
 9541TIP3   OH250113   1.950   1.418  15.191  0.3067 -0.0130 -0.3727
 9541TIP3    H150114   1.858   1.405  15.168 -0.0774 -0.4389  1.3355
 9541TIP3    H250115   1.961   1.513  15.193 -0.5677  0.0696  1.1429
 9542TIP3   OH250116   6.282   4.162  15.286  1.1675  0.2230  0.9837
 9542TIP3    H150117   6.218   4.121  15.228 -1.8465  2.7326  2.3824
 9542TIP3    H250118   6.265   4.122  15.372  2.6466 -0.3229  1.0331
 9543TIP3   OH250119   3.760   5.552   4.538  0.0865 -0.3388 -0.0332
 9543TIP3    H150120   3.687   5.607   4.513  0.2634  0.4354  1.1101
 9543TIP3    H250121   3.784   5.505   4.458  0.2023  1.5504 -1.1427
 9544TIP3   OH250122   3.576   3.973   0.600  0.5712  0.4055  0.3171
 9544TIP3    H150123   3.625   4.005   0.524  0.7454  0.5195  0.4791
 9544TIP3    H250124   3.486   3.965   0.568  0.8024 -0.3917 -0.1614
 9545TIP3   OH250125   6.129   5.899   5.796  0.4844  0.1226  0.2328
 9545TIP3    H150126   6.086   5.817   5.823 -0.1945  0.1203 -0.7866
 9545TIP3    H250127   6.068   5.968   5.822 -0.3688  0.0946 -1.5923
 9546TIP3   OH250128   5.000   2.426   2.676 -0.4045 -0.3323  0.1219
 9546TIP3    H150129   5.067   2.493   2.692 -0.0076 -0.5419 -0.6175
 9546TIP3    H250130   4.929   2.447   2.737 -0.1853  0.6353  0.0526
 9547TIP3   OH250131   2.164   0.610   5.137 -0.1193  0.1149  0.4109
 9547TIP3    H150132   2.163   0.576   5.047 -4.4220  0.9313  0.0284
 9547TIP3    H250133   2.147   0.533   5.192 -0.1184  0.0588  0.3325
 9548TIP3   OH250134   3.958   3.033   1.861  0.2278 -0.8144 -0.2454
 9548TIP3    H150135   3.954   2.942   1.834 -0.2150 -1.4747  1.9413
 9548TIP3    H250136   3.881   3.074   1.821  0.9580 -1.1441 -2.0277
 9549TIP3   OH250137   3.063   5.571  16.442 -0.0098 -0.2345  0.1833
 9549TIP3    H150138   3.026   5.496  16.395  0.8152  0.1561 -1.1304
 9549TIP3    H250139   2.996   5.597  16.504 -1.5284 -0.1416 -1.4789
 9550TIP3   OH250140   0.954   6.187  16.575  0.2466  0.1995 -0.5705
 9550TIP3    H150141   0.879   6.194  16.633  1.5163  0.9961  1.0067
 9550TIP3    H250142   0.917   6.156  16.492 -1.6470 -0.5699  0.5233
 9551TIP3   OH250143   4.997   3.581   1.962 -0.5236  0.5153  0.0107
 9551TIP3    H150144   5.035   3.498   1.932 -0.5867  0.2986  0.5222
 9551TIP3    H250145   4.905   3.559   1.980 -0.4565  0.6090  0.4795
 9552TIP3   OH250146   2.043   1.664   3.163  0.2258 -0.1344  0.4979
 9552TIP3    H150147   1.994   1.738   3.197  1.5394  1.5650 -1.1769
 9552TIP3    H250148   2.107   1.643   3.231  0.0896  0.5104  0.8185
 9553TIP3   OH250149   5.147   0.938   4.963 -0.7313 -0.1366  0.1344
 9553TIP3    H150150   5.105   0.852   4.957  0.7881 -0.8455 -0.5900
 9553TIP3    H250151   5.235   0.924   4.929 -0.3149  1.6140  0.4515
 9554TIP3   OH250152   4.224   2.777   2.573  0.2489  0.2123  0.2244
 9554TIP3    H150153   4.144   2.822   2.548 -0.2808 -0.1688  1.1928
 9554TIP3    H250154   4.244   2.720   2.498 -1.1691 -0.7292  0.5287
 9555TIP3   OH250155   1.028   1.144   4.426 -0.0081 -0.2237  0.0027
 9555TIP3    H150156   1.119   1.164   4.446  0.2090 -0.8977 -0.3178
 9555TIP3    H250157   0.978   1.197   4.488  0.6324 -1.0443  1.2512
 9556TIP3   OH250158   1.062   1.868  17.253 -0.7525  0.6999 -0.2695
 9556TIP3    H150159   0.995   1.844  17.317  0.2074 -1.1557  0.0883
 9556TIP3    H250160   1.141   1.881  17.305 -0.3970  1.0237 -0.8855
 9557TIP3   OH250161   4.713   5.530   6.653  0.1042  0.2995  0.2290
 9557TIP3    H150162   4.706   5.527   6.748  0.5038 -0.6065  0.2467
 9557TIP3    H250163   4.623   5.528   6.622 -0.0093 -0.3662  0.5800
 9558TIP3   OH250164   4.543   5.646  15.043  0.6378  0.0042  0.2251
 9558TIP3    H150165   4.472   5.606  14.994 -0.1684  0.8081  0.7208
 9558TIP3    H250166   4.621   5.597  15.017 -0.5212 -2.8456  1.9639
 9559TIP3   OH250167   1.439   5.576  12.224 -0.3381 -0.0764  0.6483
 9559TIP3    H150168   1.515   5.601  12.171 -1.6389  2.7371 -0.0320
 9559TIP3    H250169   1.475   5.556  12.310  1.4439 -1.3329 -0.3736
 9560TIP3   OH250170   5.988   1.465   3.299  0.6603  0.6824  0.5644
 9560TIP3    H150171   6.023   1.514   3.374  2.5756  0.2709 -0.0338
 9560TIP3    H250172   5.981   1.530   3.229  1.2104  0.5466  0.3826
 9561TIP3   OH250173   4.208   3.205  16.977 -0.2293 -0.8487 -0.1755
 9561TIP3    H150174   4.243   3.126  17.018  0.8796 -0.5168 -0.4732
 9561TIP3    H250175   4.266   3.221  16.902  0.2636  0.9265  0.5679
 9562TIP3   OH250176   3.385   0.142   3.151  0.4296 -1.0313 -0.0078
 9562TIP3    H150177   3.326   0.217   3.143 -1.5019 -2.3491  1.1912
 9562TIP3    H250178   3.427   0.135   3.066 -1.0363  0.0721 -0.8566
 9563TIP3   OH250179   6.693   3.095   6.145 -0.0292 -0.6472 -0.1761
 9563TIP3    H150180   6.712   3.122   6.235  0.3045  1.0046 -0.7228
 9563TIP3    H250181   6.621   3.032   6.153 -0.9142  0.5054  1.1506
 9564TIP3   OH250182   4.642   3.813   3.128 -0.4190 -0.3796 -0.5093
 9564TIP3    H150183   4.689   3.733   3.105  1.0130  0.9902 -2.4856
 9564TIP3    H250184   4.708   3.882   3.122 -1.6027  0.9557  1.2970
 9565TIP3   OH250185   5.583   5.906  16.502 -0.3217  0.4637 -0.0713
 9565TIP3    H150186   5.651   5.844  16.476  0.2917  1.2053 -0.2450
 9565TIP3    H250187   5.506   5.880  16.451  0.3101  0.6681 -1.1397
 9566TIP3   OH250188   4.915   4.237   3.132  0.0238 -0.2033  0.0845
 9566TIP3    H150189   4.883   4.168   3.074  1.4002  0.2460 -1.2361
 9566TIP3    H250190   4.995   4.201   3.170 -0.3561 -0.1224  0.9777
 9567TIP3   OH250191   6.035   1.046  15.682 -0.8349 -0.1750  0.3273
 9567TIP3    H150192   6.067   0.964  15.718 -0.7421 -0.9366 -1.4377
 9567TIP3    H250193   5.947   1.055  15.719 -1.3792 -1.7719 -0.5380
 9568TIP3   OH250194   1.356   1.584  15.745 -0.3575  0.1453 -0.4999
 9568TIP3    H150195   1.442   1.613  15.713  0.5053 -0.7538  0.9072
 9568TIP3    H250196   1.359   1.488  15.739 -1.5645  0.1471 -1.1761
 9569TIP3   OH250197   1.244   5.029  11.217 -0.0092 -0.0733 -0.7549
 9569TIP3    H150198   1.233   4.936  11.237 -0.9086  0.0744 -0.5191
 9569TIP3    H250199   1.159   5.068  11.239 -1.0900  0.1284 -4.9026
 9570TIP3   OH250200   3.364   4.396  12.921  0.3256 -0.2816 -0.1110
 9570TIP3    H150201   3.391   4.315  12.878 -0.0402 -1.0992  1.1658
 9570TIP3    H250202   3.306   4.368  12.991  0.6330  1.0476  0.7076
 9571TIP3   OH250203   6.271   2.055  14.855  0.3744  0.2164 -0.2199
 9571TIP3    H150204   6.226   2.136  14.833 -0.8599 -0.3087  0.3087
 9571TIP3    H250205   6.313   2.072  14.939  3.1673  1.4738 -1.8072
 9572TIP3   OH250206   3.377   2.446  13.519  0.0955 -0.1557 -0.6317
 9572TIP3    H150207   3.373   2.539  13.542 -0.4280 -0.0477 -1.1438
 9572TIP3    H250208   3.443   2.410  13.578 -0.8095  0.2288  0.6579
 9573TIP3   OH250209   0.500   3.015   0.488  0.0762 -0.0304  1.3890
 9573TIP3    H150210   0.449   3.095   0.501  1.1793  0.4620  2.8253
 9573TIP3    H250211   0.462   2.951   0.548 -1.4364 -0.9124 -0.4603
 9574TIP3   OH250212   0.035   2.090  14.497  0.5597 -0.6204 -0.2964
 9574TIP3    H150213   0.064   2.151  14.564  1.4592  1.3170 -2.4034
 9574TIP3    H250214  -0.059   2.080  14.512 -0.0094  2.8848 -1.1422
 9575TIP3   OH250215   4.677   0.762   3.838  0.4955  0.4101  0.1993
 9575TIP3    H150216   4.583   0.773   3.852  0.3814  0.6031 -0.6856
 9575TIP3    H250217   4.692   0.793   3.749  1.3490  0.0900  0.2244
 9576TIP3   OH250218   1.849   5.691   0.873 -0.2733 -0.1762  0.3969
 9576TIP3    H150219   1.840   5.670   0.779 -2.7647 -0.4671  0.6491
 9576TIP3    H250220   1.865   5.607   0.914 -2.1235 -0.5037  0.5149
 9577TIP3   OH250221   6.008   6.044   2.428  0.5002  0.3043  0.4250
 9577TIP3    H150222   5.914   6.051   2.412  0.7788 -0.7759 -1.9502
 9577TIP3    H250223   6.015   5.978   2.498 -0.4605 -0.6106 -0.3199
 9578TIP3   OH250224   0.457   2.429   4.964 -0.0852 -0.2024  0.0282
 9578TIP3    H150225   0.549   2.423   4.990  0.0458 -1.1768 -0.6044
 9578TIP3    H250226   0.452   2.505   4.907  0.0104  0.7888  1.3298
 9579TIP3   OH250227   0.129   6.378  13.630  0.1733  0.1169 -0.3308
 9579TIP3    H150228   0.094   6.297  13.667  0.2446  0.6989  1.0297
 9579TIP3    H250229   0.054   6.436  13.624  0.0865 -0.1076 -1.4850
 9580TIP3   OH250230   5.932   1.754  15.565 -0.3541 -0.2223  0.5533
 9580TIP3    H150231   5.970   1.703  15.493  1.6993  2.1832 -0.1598
 9580TIP3    H250232   5.849   1.786  15.531  0.1987  0.1660 -0.4535
 9581TIP3   OH250233   4.640   3.659  14.922 -0.3292 -0.4290 -0.0848
 9581TIP3    H150234   4.569   3.688  14.865 -0.8376  0.1242  0.7997
 9581TIP3    H250235   4.720   3.687  14.877 -0.6256 -1.7828 -1.4818
 9582TIP3   OH250236   0.277   2.280   5.197 -0.2027  0.0927 -0.2066
 9582TIP3    H150237   0.247   2.201   5.153 -0.6433  0.3605 -0.3947
 9582TIP3    H250238   0.303   2.339   5.127  0.1724  0.0984 -0.0655
 9583TIP3   OH250239   3.626   2.324   0.787  0.0727  0.4830  0.3387
 9583TIP3    H150240   3.677   2.382   0.843 -0.8022  0.1052  1.5612
 9583TIP3    H250241   3.652   2.236   0.813 -0.1191  0.3038 -0.0614
 9584TIP3   OH250242   1.973   1.682   6.489  0.7064  0.1358 -0.2550
 9584TIP3    H150243   1.930   1.736   6.422  1.6591  0.7054 -0.4096
 9584TIP3    H250244   1.957   1.729   6.571 -2.6203 -1.8371  0.3087
 9585TIP3   OH250245   4.940   5.803  17.016 -0.0446  0.7361  0.9030
 9585TIP3    H150246   5.014   5.767  17.066 -0.1621 -0.1374  0.4547
 9585TIP3    H250247   4.969   5.890  16.989  1.1062  0.1204  0.1155
 9586TIP3   OH250248   6.543   3.709   4.789 -0.1649 -0.2809  0.0075
 9586TIP3    H150249   6.449   3.697   4.778 -0.2227 -0.4958  0.6902
 9586TIP3    H250250   6.577   3.723   4.700 -0.8351 -0.2206 -0.2376
 9587TIP3   OH250251   0.113   2.216  15.297  0.1640  0.2482  0.1702
 9587TIP3    H150252   0.077   2.185  15.380  1.0786 -1.4278 -0.0355
 9587TIP3    H250253   0.188   2.270  15.321 -0.4544  0.9640  0.4826
 9588TIP3   OH250254   4.648   2.007  13.110 -0.4344  0.4202  0.0155
 9588TIP3    H150255   4.559   1.979  13.090 -0.7587  0.4868  1.3200
 9588TIP3    H250256   4.689   1.930  13.150 -0.4252  0.8897  0.9269
 9589TIP3   OH250257   1.498   5.297   4.088 -0.0803 -0.2996 -0.1195
 9589TIP3    H150258   1.586   5.324   4.063 -0.1374  1.8382  1.8796
 9589TIP3    H250259   1.441   5.345   4.028  0.0252 -0.0996 -0.0588
 9590TIP3   OH250260   5.424   2.156   0.710 -0.2077 -0.4013 -0.1921
 9590TIP3    H150261   5.436   2.065   0.682  0.9101  0.0325 -1.1335
 9590TIP3    H250262   5.398   2.203   0.631 -2.0670 -0.1114  0.5441
 9591TIP3   OH250263   2.039   2.917   1.578 -0.5729  0.5451 -0.3037
 9591TIP3    H150264   2.010   2.827   1.567  2.0763 -0.2273 -1.3574
 9591TIP3    H250265   2.119   2.910   1.632 -0.3617  2.2526 -0.3592
 9592TIP3   OH250266   4.684   2.778  17.238 -0.6062 -0.2801  0.0749
 9592TIP3    H150267   4.601   2.798  17.195  0.0623  3.2262  0.2012
 9592TIP3    H250268   4.750   2.790  17.170 -0.1541 -2.5559  0.0976
 9593TIP3   OH250269   5.906   5.299   3.331  0.4202 -0.2937  0.1949
 9593TIP3    H150270   5.928   5.325   3.241 -1.9806  0.2540 -0.2718
 9593TIP3    H250271   5.837   5.234   3.321  1.7885 -2.0301  1.6121
 9594TIP3   OH250272   0.225   1.262  15.103 -0.0315  0.1499  0.6549
 9594TIP3    H150273   0.310   1.259  15.058  1.0392 -1.0090  2.6869
 9594TIP3    H250274   0.201   1.354  15.102  0.7808  0.3687 -0.7818
 9595TIP3   OH250275   0.504   1.945   5.389  0.1522  0.5032  0.0205
 9595TIP3    H150276   0.484   2.030   5.350  0.1374  0.6867  0.4268
 9595TIP3    H250277   0.569   1.907   5.330 -2.2112 -0.6066 -1.9627
 9596TIP3   OH250278   5.252   1.128   2.374  0.2615  0.0361  0.0915
 9596TIP3    H150279   5.270   1.180   2.452 -0.9619 -0.8220  0.9499
 9596TIP3    H250280   5.222   1.192   2.309  1.8807  0.8373  0.0917
 9597TIP3   OH250281   0.702   1.290   2.743  0.1256  0.2226 -0.2666
 9597TIP3    H150282   0.674   1.285   2.835  1.6682  1.6721  0.3135
 9597TIP3    H250283   0.797   1.285   2.747  0.2039  0.3213 -1.7934
 9598TIP3   OH250284   1.711   1.971   2.120 -0.0824  0.3194  0.4019
 9598TIP3    H150285   1.771   1.901   2.144  0.6492  0.1308 -1.7874
 9598TIP3    H250286   1.761   2.024   2.057 -2.6413 -0.6594 -2.5837
 9599TIP3   OH250287   2.244   4.124   5.579 -0.2476  0.3150 -0.3104
 9599TIP3    H150288   2.158   4.167   5.583  0.0229  0.8279 -0.0005
 9599TIP3    H250289   2.300   4.176   5.637  0.3260  0.0963 -0.6667
 9600TIP3   OH250290   5.746   0.998   1.947 -0.3474  0.5044 -0.2250
 9600TIP3    H150291   5.784   1.077   1.910  0.7823 -0.0323 -0.2160
 9600TIP3    H250292   5.805   0.927   1.921 -2.0223 -0.5418 -1.3145
 9601TIP3   OH250293   1.772   3.640   5.227  0.3467 -0.1437 -0.2975
 9601TIP3    H150294   1.731   3.633   5.313  0.1551 -0.6675 -0.4271
 9601TIP3    H250295   1.858   3.599   5.238  0.8417  0.9670 -0.0223
 9602TIP3   OH250296   1.154   5.964  15.837 -0.4852 -0.0952 -0.0993
 9602TIP3    H150297   1.117   5.954  15.924  0.1051 -0.0231  0.1627
 9602TIP3    H250298   1.171   6.058  15.829  0.4256 -0.2363  0.1122
 9603TIP3   OH250299   0.592   4.640  17.105 -0.8092  0.3900 -0.6872
 9603TIP3    H150300   0.581   4.735  17.102  0.2272  0.4989 -1.0634
 9603TIP3    H250301   0.660   4.626  17.171 -0.2172 -0.0307 -1.3946
 9604TIP3   OH250302   2.726   1.410   3.179  0.2812 -0.0112  0.2616
 9604TIP3    H150303   2.811   1.367   3.191  1.2930  1.8169 -0.0836
 9604TIP3    H250304   2.730   1.447   3.091 -1.7295 -1.6973 -0.5776
 9605TIP3   OH250305   2.831   1.245   3.951 -0.3667  0.5946  0.2033
 9605TIP3    H150306   2.847   1.183   3.880 -3.5547  0.9668 -0.9268
 9605TIP3    H250307   2.785   1.194   4.018  0.7795  0.7363  1.1006
 9606TIP3   OH250308   3.972   5.372   5.772  0.7207 -0.0630  0.1158
 9606TIP3    H150309   3.959   5.287   5.731  0.2557 -0.0046  0.1434
 9606TIP3    H250310   4.051   5.361   5.826  1.6963  0.0366 -1.2760
 9607TIP3   OH250311   0.072   4.399  13.283 -0.0812  0.0558  0.5569
 9607TIP3    H150312   0.137   4.382  13.214 -1.8200 -0.5363 -0.9699
 9607TIP3    H250313   0.070   4.495  13.289  0.4632  0.1009  0.1646
 9608TIP3   OH250314   0.850   3.123   1.319 -0.0967  0.4440  0.6664
 9608TIP3    H150315   0.917   3.180   1.282 -0.4684 -0.0252 -0.7883
 9608TIP3    H250316   0.811   3.174   1.390  0.5516  1.4240  0.3254
 9609TIP3   OH250317   2.305   1.019  12.417  0.0575  0.7798 -0.2828
 9609TIP3    H150318   2.385   0.968  12.413 -1.0110 -1.0879  1.1498
 9609TIP3    H250319   2.326   1.101  12.373  2.4409 -0.0659 -0.7810
 9610TIP3   OH250320   0.958   4.758  13.181 -0.0747 -0.3915  0.0407
 9610TIP3    H150321   0.900   4.684  13.161  0.1774 -0.4989 -0.3174
 9610TIP3    H250322   1.029   4.719  13.233  0.4070 -0.5394 -0.7088
 9611TIP3   OH250323   0.387   0.016  12.246  0.1750  0.2107 -0.4510
 9611TIP3    H150324   0.366   0.099  12.205 -0.5876  0.6421  0.8000
 9611TIP3    H250325   0.428   0.039  12.329  0.4328 -0.6589 -0.3265
 9612TIP3   OH250326   4.772   1.995   0.974 -0.8940 -0.3584  0.0273
 9612TIP3    H150327   4.866   2.014   0.977 -0.5882 -1.7409 -0.2861
 9612TIP3    H250328   4.740   2.046   0.899 -0.6048  0.9288  0.7624
 9613TIP3   OH250329   3.659   0.700   4.546  0.7212  0.1961  0.2787
 9613TIP3    H150330   3.712   0.638   4.496 -0.2797 -1.4978  1.2899
 9613TIP3    H250331   3.640   0.655   4.628 -1.3460  1.2034  0.3765
 9614TIP3   OH250332   1.904   3.174  13.347  0.3987 -0.0592 -0.0219
 9614TIP3    H150333   1.925   3.168  13.254  2.1860 -1.7987  0.4680
 9614TIP3    H250334   1.989   3.186  13.390 -0.5053  1.8583  1.3210
 9615TIP3   OH250335   4.297   5.554  14.865  0.2431 -0.3518  0.1451
 9615TIP3    H150336   4.335   5.478  14.821  0.4913  0.0116 -0.2809
 9615TIP3    H250337   4.288   5.619  14.795  2.6388  1.0026  1.0440
 9616TIP3   OH250338   4.876   6.812   0.512 -0.0957  0.2746 -0.5493
 9616TIP3    H150339   4.937   6.764   0.569  1.4208  2.0725 -0.6139
 9616TIP3    H250340   4.801   6.832   0.568  0.0970 -0.5134  0.0031
 9617TIP3   OH250341   3.961   2.691  12.207 -0.3825 -0.6240  0.7318
 9617TIP3    H150342   3.891   2.626  12.203 -0.1003 -0.9271  0.7139
 9617TIP3    H250343   3.933   2.760  12.148  0.3248 -1.7188 -0.9286
 9618TIP3   OH250344   1.101   2.715   1.493 -0.3021  0.0424 -0.5727
 9618TIP3    H150345   1.057   2.630   1.487 -0.8350  0.1604  1.2556
 9618TIP3    H250346   1.096   2.738   1.586  2.4652  0.6699 -0.5320
 9619TIP3   OH250347   6.713   2.739  14.840  0.3183  0.8278 -0.3951
 9619TIP3    H150348   6.666   2.819  14.817 -0.5395  0.1516 -1.0362
 9619TIP3    H250349   6.682   2.675  14.776  1.2062  0.0541 -0.0553
 9620TIP3   OH250350   1.661   1.097   1.347  0.5028  0.0987 -0.0012
 9620TIP3    H150351   1.751   1.091   1.315  0.9150 -1.5335  1.4372
 9620TIP3    H250352   1.608   1.059   1.277  1.2520 -2.0140  0.5572
 9621TIP3   OH250353   1.323   2.321   0.088 -0.0614  0.5667  0.0429
 9621TIP3    H150354   1.274   2.338   0.007  0.8660  0.2591 -0.5893
 9621TIP3    H250355   1.365   2.237   0.073 -2.5602 -1.1197  2.1733
 9622TIP3   OH250356   1.208   0.309  14.413  0.0637  0.5887  0.4411
 9622TIP3    H150357   1.192   0.384  14.470 -2.0848  0.8646 -0.4434
 9622TIP3    H250358   1.272   0.340  14.349 -0.0629  1.3465  0.6814
 9623TIP3   OH250359   5.821   4.388  15.891 -0.3310  0.3165 -0.2461
 9623TIP3    H150360   5.799   4.304  15.931 -1.0050 -0.0642 -1.3913
 9623TIP3    H250361   5.800   4.453  15.958 -0.9464 -0.3382  0.2012
 9624TIP3   OH250362   4.838   3.321   3.340 -0.0946 -0.4290  0.3900
 9624TIP3    H150363   4.824   3.267   3.262  0.1380  0.8815 -0.5636
 9624TIP3    H250364   4.805   3.267   3.412 -1.9307 -0.9594 -0.8126
 9625TIP3   OH250365   1.459   4.621   0.113 -0.3067 -0.2533  0.0339
 9625TIP3    H150366   1.545   4.638   0.075 -0.6841 -1.6290 -1.5045
 9625TIP3    H250367   1.471   4.541   0.165 -0.3970  0.2121  0.7889
 9626TIP3   OH250368   2.848   3.982   0.358 -0.0567  0.1970  0.8586
 9626TIP3    H150369   2.796   3.912   0.397 -1.8148  1.5472  1.0149
 9626TIP3    H250370   2.899   3.939   0.290 -2.1803 -1.0376 -0.0155
 9627TIP3   OH250371   1.130   5.781  13.871 -0.0260  0.6305  0.3515
 9627TIP3    H150372   1.129   5.687  13.887  1.5549  0.2594 -1.5151
 9627TIP3    H250373   1.065   5.794  13.801  1.8649  0.4738 -1.4761
 9628TIP3   OH250374   0.233   2.227  14.667 -0.1806  0.6194 -0.0728
 9628TIP3    H150375   0.225   2.322  14.663  1.9621  1.0047  2.9473
 9628TIP3    H250376   0.172   2.201  14.736 -0.0151 -0.0756 -0.1907
 9629TIP3   OH250377   1.354   4.987   2.951  1.1676  0.3804 -0.0400
 9629TIP3    H150378   1.377   5.021   2.864  1.6637  1.2208  0.4202
 9629TIP3    H250379   1.347   4.892   2.937  2.0279  0.4151 -0.8330
 9630TIP3   OH250380   4.611   0.937   5.970  0.4858 -0.6825  0.6832
 9630TIP3    H150381   4.534   0.936   6.027  0.1816 -2.3231  0.2678
 9630TIP3    H250382   4.672   0.875   6.010  0.7322 -0.9970 -0.1627
 9631TIP3   OH250383   3.937   3.356   3.723 -0.2877 -0.5661  0.0246
 9631TIP3    H150384   3.952   3.266   3.751  0.7811 -1.2868 -2.7364
 9631TIP3    H250385   3.842   3.362   3.711 -0.3684 -1.2967  0.2600
 9632TIP3   OH250386   0.296   0.541   5.751  0.0516  0.3941  0.5049
 9632TIP3    H150387   0.303   0.447   5.736  0.0088  0.6732 -1.3410
 9632TIP3    H250388   0.212   0.565   5.712  0.3432  1.3149  0.4372
 9633TIP3   OH250389   5.135   3.208   6.572  0.3077 -0.6207 -0.2478
 9633TIP3    H150390   5.166   3.281   6.517 -1.0992 -0.5918 -1.0213
 9633TIP3    H250391   5.155   3.130   6.522 -0.5767 -0.6176 -0.6166
 9634TIP3   OH250392   3.277   5.574  14.172  0.0111 -0.5231  0.1105
 9634TIP3    H150393   3.302   5.562  14.264  2.7035 -0.5574 -0.5742
 9634TIP3    H250394   3.211   5.643  14.174  1.5145  0.9353  1.9143
 9635TIP3   OH250395   6.661   6.783  16.994  0.0975 -0.1057  0.1807
 9635TIP3    H150396   6.734   6.799  17.053  0.5966 -0.0458 -0.4533
 9635TIP3    H250397   6.590   6.837  17.028  0.9935  1.4950 -0.4512
 9636TIP3   OH250398   0.570   2.406   0.427  0.1672  0.3001 -0.0418
 9636TIP3    H150399   0.653   2.394   0.473  1.0658 -0.3106 -1.7712
 9636TIP3    H250400   0.504   2.378   0.489  1.2222  1.2191  1.5294
 9637TIP3   OH250401   2.197   0.317   5.619 -0.0278  0.1150  0.3646
 9637TIP3    H150402   2.171   0.237   5.665 -0.4218  0.3191  0.4953
 9637TIP3    H250403   2.132   0.382   5.645 -0.2833  0.2159 -0.5312
 9638TIP3   OH250404   0.836   1.487   5.693 -0.1802 -0.1662  0.0370
 9638TIP3    H150405   0.775   1.550   5.655  0.0949 -0.4983 -0.9864
 9638TIP3    H250406   0.817   1.488   5.786 -0.4115  1.1827 -0.0137
 9639TIP3   OH250407   6.315   3.927   5.743 -0.0389 -0.0011 -0.1097
 9639TIP3    H150408   6.366   3.949   5.665  0.9303  0.1246  0.5662
 9639TIP3    H250409   6.311   3.831   5.743 -0.6145  0.0110 -0.6699
 9640TIP3   OH250410   0.862   6.165  14.345  0.5411 -0.2880  0.8406
 9640TIP3    H150411   0.911   6.244  14.324  0.4313  0.1112  2.0562
 9640TIP3    H250412   0.928   6.105  14.381  0.2723  0.0084  1.8518
 9641TIP3   OH250413   4.614   0.119   4.867  0.6742  0.3669 -0.5924
 9641TIP3    H150414   4.536   0.079   4.906 -1.0046  3.7195 -0.3861
 9641TIP3    H250415   4.609   0.095   4.774 -0.0992 -0.1825 -0.4183
 9642TIP3   OH250416   1.021   3.118   1.748 -0.2745  0.0214  0.1845
 9642TIP3    H150417   1.048   3.210   1.744 -0.1188 -0.0711 -1.2681
 9642TIP3    H250418   0.932   3.118   1.712 -0.6409 -0.2656  1.0837
 9643TIP3   OH250419   2.925   0.560   5.802 -0.0374  0.0579 -0.5198
 9643TIP3    H150420   2.975   0.540   5.881  0.3807  1.7821 -0.3299
 9643TIP3    H250421   2.955   0.495   5.738 -0.7087 -1.6381  0.8373
 9644TIP3   OH250422   4.493   2.811  17.056  0.0192 -0.3956 -0.7390
 9644TIP3    H150423   4.514   2.727  17.015  2.4461 -0.4540  0.5398
 9644TIP3    H250424   4.504   2.876  16.986  1.7056 -0.7697 -0.8435
 9645TIP3   OH250425   0.355   0.854   0.633 -0.3178  0.2213  0.2246
 9645TIP3    H150426   0.430   0.830   0.687 -0.0096  0.5640 -0.0414
 9645TIP3    H250427   0.364   0.949   0.621 -0.2644  0.1200 -0.5883
 9646TIP3   OH250428   0.269   4.419   5.650  0.0342 -0.8357  0.5059
 9646TIP3    H150429   0.308   4.377   5.573 -1.9048 -1.2910 -0.2564
 9646TIP3    H250430   0.344   4.445   5.703  1.3555 -3.1805 -0.1100
 9647TIP3   OH250431   2.229   5.087   0.921  0.3146  0.7885 -0.3890
 9647TIP3    H150432   2.213   5.181   0.933  3.5289  1.1224  1.7583
 9647TIP3    H250433   2.233   5.052   1.010  0.1530 -1.2210 -1.1493
 9648TIP3   OH250434   0.282   3.795   0.327 -0.1448 -0.0297  0.6097
 9648TIP3    H150435   0.316   3.875   0.367  0.5630 -0.7343  1.4428
 9648TIP3    H250436   0.224   3.758   0.394 -2.6548  1.1835 -0.8108
 9649TIP3   OH250437   6.151   6.571  11.798  0.0726  0.0973  0.2745
 9649TIP3    H150438   6.232   6.551  11.750 -0.4030  0.1988 -0.5852
 9649TIP3    H250439   6.174   6.561  11.890  0.8603 -0.6269  0.0027
 9650TIP3   OH250440   3.814   1.420   3.831  0.1086 -0.2477 -0.4578
 9650TIP3    H150441   3.869   1.490   3.866 -0.2306  0.0225 -0.4571
 9650TIP3    H250442   3.851   1.340   3.866  1.5146 -0.2037 -1.8003
 9651TIP3   OH250443   3.985   2.496   3.611  0.4400  0.2512  0.4722
 9651TIP3    H150444   4.048   2.501   3.682  0.6379 -1.6382  0.4458
 9651TIP3    H250445   4.018   2.427   3.554 -0.3570  0.9221 -0.8242
 9652TIP3   OH250446   4.562   5.444   0.136 -0.2432  0.3631 -0.2583
 9652TIP3    H150447   4.636   5.498   0.164  1.3432 -1.5906 -0.5803
 9652TIP3    H250448   4.512   5.428   0.216 -0.2888  1.6031 -0.0249
 9653TIP3   OH250449   1.392   4.806   5.228 -0.4129 -0.5702  0.0343
 9653TIP3    H150450   1.448   4.811   5.150  1.7453 -1.0557  1.5017
 9653TIP3    H250451   1.325   4.742   5.206 -0.2552 -0.1553 -1.6905
 9654TIP3   OH250452   1.746   2.381  15.678  0.4568 -0.3734 -0.2756
 9654TIP3    H150453   1.781   2.295  15.700  1.0714  0.1852  0.9688
 9654TIP3    H250454   1.762   2.390  15.584 -0.0641 -1.8135 -0.5069
 9655TIP3   OH250455   3.662   0.698  14.829 -0.0243 -0.1350 -0.2251
 9655TIP3    H150456   3.743   0.746  14.811 -0.6103  1.0011  0.0717
 9655TIP3    H250457   3.636   0.728  14.917 -0.2813 -1.1810  0.0627
 9656TIP3   OH250458   4.760   6.677   5.849  0.0045  0.1079 -0.0466
 9656TIP3    H150459   4.779   6.586   5.869  2.5739  0.5653 -0.2095
 9656TIP3    H250460   4.672   6.692   5.885 -0.8053 -2.6280 -0.7785
 9657TIP3   OH250461   3.753   0.001  11.537 -0.1136 -0.4569  0.9997
 9657TIP3    H150462   3.673   0.016  11.488  0.3107  2.0618  1.0092
 9657TIP3    H250463   3.804   0.081  11.525  1.6852 -1.3616  2.3381
 9658TIP3   OH250464   2.003   4.324   3.035  0.0599 -0.2157  0.0099
 9658TIP3    H150465   2.091   4.292   3.057  0.2507  0.4006  0.1534
 9658TIP3    H250466   1.949   4.300   3.110  0.7873  2.2177  1.3436
 9659TIP3   OH250467   2.046   6.630   1.442 -0.0127  0.5373  0.0715
 9659TIP3    H150468   2.049   6.604   1.349  0.5415 -0.5032  0.3656
 9659TIP3    H250469   2.138   6.637   1.467 -0.1137 -2.2981  1.3708
 9660TIP3   OH250470   0.740   6.558   5.923  0.3409 -0.5901  0.0348
 9660TIP3    H150471   0.647   6.536   5.912  0.2229 -0.1076  0.0773
 9660TIP3    H250472   0.785   6.502   5.860 -0.1682  0.7674 -1.5723
 9661TIP3   OH250473   6.516   3.692   1.688 -0.4845  1.1066 -0.1430
 9661TIP3    H150474   6.494   3.781   1.662 -1.5016  0.3218 -2.0343
 9661TIP3    H250475   6.582   3.664   1.625  0.6858  0.8975  1.1396
 9662TIP3   OH250476   0.015   1.654  16.384  0.0235 -0.4980  0.0493
 9662TIP3    H150477   0.044   1.567  16.358  1.1105 -0.0117 -0.3941
 9662TIP3    H250478   0.055   1.713  16.321  0.6189  0.4632  1.2851
 9663TIP3   OH250479   3.148   5.176   1.824  0.2048 -0.0643  0.0704
 9663TIP3    H150480   3.102   5.150   1.744 -0.0216 -2.5945  0.9793
 9663TIP3    H250481   3.240   5.178   1.800  0.0848 -0.2310 -0.3967
 9664TIP3   OH250482   4.251   2.163  15.251 -0.0665 -0.7994 -0.0103
 9664TIP3    H150483   4.196   2.088  15.229  0.3910 -0.5706 -2.1114
 9664TIP3    H250484   4.205   2.238  15.212  1.6056 -0.5797 -1.6104
 9665TIP3   OH250485   6.385   2.941   5.224 -0.4628  0.5431 -0.7642
 9665TIP3    H150486   6.437   2.879   5.275 -1.2255 -0.1595 -0.8330
 9665TIP3    H250487   6.358   2.891   5.146 -4.1676 -0.2245  0.9305
 9666TIP3   OH250488   0.786   1.173  15.834  0.0000 -0.0573  0.3251
 9666TIP3    H150489   0.840   1.191  15.757 -1.3709  2.2281 -0.1729
 9666TIP3    H250490   0.815   1.238  15.899 -0.9146  0.0284  0.6612
 9667TIP3   OH250491   1.903   2.228  16.933  0.5128  0.2221  0.1055
 9667TIP3    H150492   1.923   2.314  16.970  1.2163 -0.3557  1.0777
 9667TIP3    H250493   1.988   2.194  16.905  0.4338 -0.7562  1.0218
 9668TIP3   OH250494   1.932   2.225  16.346 -0.1236 -0.0406  0.0021
 9668TIP3    H150495   2.003   2.181  16.298 -0.1010  0.2195 -0.2005
 9668TIP3    H250496   1.918   2.306  16.299  1.2914  1.1873  1.6146
 9669TIP3   OH250497   3.488   1.244   0.808  0.0846 -0.0040  0.1205
 9669TIP3    H150498   3.479   1.183   0.735 -1.5123 -1.1096  1.1881
 9669TIP3    H250499   3.540   1.316   0.774 -0.1707 -0.7690 -1.9327
 9670TIP3   OH250500   3.507   0.797  14.302  0.4534 -0.7370  0.2588
 9670TIP3    H150501   3.523   0.887  14.332 -0.0707 -0.3176 -0.6948
 9670TIP3    H250502   3.573   0.782  14.234  0.5797 -1.0982  0.4606
 9671TIP3   OH250503   3.753   1.497   2.153 -0.2162  0.2466  0.2694
 9671TIP3    H150504   3.741   1.587   2.124  1.3949  0.3406 -0.1884
 9671TIP3    H250505   3.844   1.477   2.130 -0.4698 -1.3924  0.6396
 9672TIP3   OH250506   2.678   0.786   3.006 -0.2152  0.4790 -0.0781
 9672TIP3    H150507   2.712   0.740   2.929 -2.8430  0.1510 -1.0891
 9672TIP3    H250508   2.587   0.758   3.013 -0.8529  2.7504  1.4210
 9673TIP3   OH250509   4.406   2.201   5.012  0.0909 -0.1660  0.1807
 9673TIP3    H150510   4.478   2.177   4.955  1.1867  0.9921  1.0445
 9673TIP3    H250511   4.333   2.145   4.984  1.0957 -0.8118 -1.1920
 9674TIP3   OH250512   2.834   3.528   5.911 -0.4251 -0.3121 -0.3127
 9674TIP3    H150513   2.887   3.464   5.960  0.3733  0.8513  0.3672
 9674TIP3    H250514   2.753   3.482   5.892  0.7512 -2.0667 -1.1929
 9675TIP3   OH250515   0.185   2.445   2.136  0.2521 -0.8727  0.3312
 9675TIP3    H150516   0.227   2.385   2.197  1.0969  0.6874  1.3128
 9675TIP3    H250517   0.164   2.391   2.060  2.7923 -1.9959  0.3648
 9676TIP3   OH250518   5.267   6.078  13.680  1.1868  0.0112 -0.3706
 9676TIP3    H150519   5.247   6.171  13.665  0.9419 -0.3354 -2.2079
 9676TIP3    H250520   5.210   6.031  13.620 -0.7213 -1.5023  2.4761
 9677TIP3   OH250521   6.328   5.473  13.315  0.0311  0.6201 -0.1671
 9677TIP3    H150522   6.338   5.387  13.356  0.3952  0.5716 -0.3523
 9677TIP3    H250523   6.237   5.476  13.287 -0.2458  0.6935  0.7365
 9678TIP3   OH250524   5.156   3.530   4.077 -0.3830  0.7096  0.1480
 9678TIP3    H150525   5.216   3.495   4.143 -1.0646  0.6294  0.7339
 9678TIP3    H250526   5.192   3.500   3.993  1.2197  1.9071  0.3766
 9679TIP3   OH250527   5.538   5.222  16.710  0.3732 -0.7703 -0.0462
 9679TIP3    H150528   5.536   5.127  16.713  2.4265 -0.8142  0.2609
 9679TIP3    H250529   5.583   5.248  16.790  0.4203  0.4444 -0.4515
 9680TIP3   OH250530   1.359   1.031  14.609  0.0579  0.0620 -0.8144
 9680TIP3    H150531   1.423   1.100  14.627  0.9100 -1.1854  1.1700
 9680TIP3    H250532   1.302   1.031  14.687 -0.9995 -0.3035 -1.5790
 9681TIP3   OH250533   5.687   6.735  14.383 -0.3856  0.0422 -0.4126
 9681TIP3    H150534   5.683   6.658  14.326  0.5263 -0.8668  0.7544
 9681TIP3    H250535   5.641   6.709  14.462  2.8172 -0.4639  1.3427
 9682TIP3   OH250536   0.669   6.544  13.859  0.0334 -0.6495 -0.3746
 9682TIP3    H150537   0.750   6.498  13.878 -0.4192 -1.8513 -1.3063
 9682TIP3    H250538   0.685   6.587  13.775  0.1777  0.2430  0.1055
 9683TIP3   OH250539   4.650   4.267  14.876 -0.3197 -0.0976  0.1495
 9683TIP3    H150540   4.695   4.273  14.960 -1.0783 -0.9996  0.6323
 9683TIP3    H250541   4.632   4.174  14.865 -1.0979  0.1306 -0.5499
 9684TIP3   OH250542   5.184   1.793   5.199  0.3134  0.9625  0.3394
 9684TIP3    H150543   5.244   1.737   5.151  0.0762  0.7978  0.2360
 9684TIP3    H250544   5.175   1.871   5.145 -1.2131  0.1115 -0.6795
 9685TIP3   OH250545   2.070   5.867  14.998 -0.0627  0.4122 -0.0420
 9685TIP3    H150546   2.120   5.877  14.917 -0.1120 -0.0223 -0.1290
 9685TIP3    H250547   2.024   5.951  15.009  1.2763  1.0918  0.4454
 9686TIP3   OH250548   1.833   4.137  16.165 -0.1663  0.0148 -0.3985
 9686TIP3    H150549   1.748   4.151  16.123 -0.0746 -2.0608 -1.3462
 9686TIP3    H250550   1.819   4.062  16.222  1.6486 -1.9499 -2.4550
 9687TIP3   OH250551   0.334   3.021   5.765  0.1751 -0.2533  0.7697
 9687TIP3    H150552   0.303   2.963   5.835  1.6519  0.1473  1.7639
 9687TIP3    H250553   0.352   3.104   5.809  0.5937  0.1660 -0.1899
 9688TIP3   OH250554   2.030   1.830   2.697 -0.3128  0.3317  0.5488
 9688TIP3    H150555   1.997   1.742   2.677 -1.2005  0.1409  2.7375
 9688TIP3    H250556   1.953   1.887   2.688 -0.4789  0.3980  2.2228
 9689TIP3   OH250557   1.531   4.111  16.092  0.2579 -0.3422 -0.1679
 9689TIP3    H150558   1.492   4.099  16.005  0.1647 -1.9296  0.0819
 9689TIP3    H250559   1.459   4.093  16.152  0.5723 -0.1659  0.2614
 9690TIP3   OH250560   2.760   4.322   3.139  0.1136  0.1235 -0.4224
 9690TIP3    H150561   2.677   4.289   3.104 -0.4506 -0.7427  1.6706
 9690TIP3    H250562   2.809   4.348   3.061 -2.1861  0.8473 -1.6911
 9691TIP3   OH250563   4.785   5.510   0.627  0.4809 -0.1462  0.0861
 9691TIP3    H150564   4.835   5.578   0.582 -0.2663 -0.8948 -1.9655
 9691TIP3    H250565   4.847   5.471   0.689  1.0756  1.9739  0.8411
 9692TIP3   OH250566   0.771   5.585  16.746 -0.1015 -0.4333  0.2100
 9692TIP3    H150567   0.678   5.601  16.727 -0.1334 -1.9589 -0.9960
 9692TIP3    H250568   0.774   5.573  16.841 -0.5928  3.0013  0.7226
 9693TIP3   OH250569   5.227   1.885  11.053  0.4590  0.0440 -0.1957
 9693TIP3    H150570   5.189   1.971  11.073 -3.0283 -1.0088 -1.8261
 9693TIP3    H250571   5.306   1.905  11.003  0.1122  2.3189  0.0653
 9694TIP3   OH250572   4.789   5.907   6.181  0.1191 -0.2083 -0.2526
 9694TIP3    H150573   4.851   5.947   6.120 -0.3236 -0.9928 -1.2385
 9694TIP3    H250574   4.788   5.966   6.257  1.1618  0.4380 -0.7293
 9695TIP3   OH250575   1.178   2.958  15.143 -0.3469  0.3315 -0.4063
 9695TIP3    H150576   1.102   2.902  15.160  0.1498 -0.5710 -1.1244
 9695TIP3    H250577   1.252   2.898  15.140  0.0037  0.8037 -2.6400
 9696TIP3   OH250578   0.275   1.143  16.961  0.5516  0.1794  0.3144
 9696TIP3    H150579   0.196   1.142  17.014  1.5097 -0.2541  1.7552
 9696TIP3    H250580   0.243   1.152  16.871 -1.0464  1.6446  1.0026
 9697TIP3   OH250581   4.318   3.803  16.251  0.3088 -0.4692  0.3590
 9697TIP3    H150582   4.295   3.729  16.195 -1.1770 -0.2071  0.6113
 9697TIP3    H250583   4.255   3.871  16.229  1.0421  0.3869  0.8443
 9698TIP3   OH250584   2.866   4.136  15.236  0.2627 -0.2865  0.1179
 9698TIP3    H150585   2.835   4.074  15.302  1.8642 -1.1191  0.1063
 9698TIP3    H250586   2.960   4.121  15.231  0.2244  0.0366 -2.0841
 9699TIP3   OH250587   2.098   4.902   5.598 -0.8128  0.4307  0.5183
 9699TIP3    H150588   2.098   4.918   5.693 -0.8258 -1.3642  0.8419
 9699TIP3    H250589   2.006   4.905   5.573 -0.8453  0.4239  0.6362
 9700TIP3   OH250590   1.349   5.947   5.636 -0.6879 -0.3395  0.1533
 9700TIP3    H150591   1.364   5.897   5.556 -2.5947 -0.2306 -0.2745
 9700TIP3    H250592   1.384   5.891   5.705 -0.6573 -1.2223 -0.5623
 9701TIP3   OH250593   6.769   6.168   6.913 -0.4879  0.1438 -0.2983
 9701TIP3    H150594   6.848   6.218   6.931  0.0059 -0.7594  0.0931
 9701TIP3    H250595   6.706   6.196   6.980  1.4388 -3.4417  3.2193
 9702TIP3   OH250596   6.515   1.001  14.292 -0.0530 -0.1610  0.0852
 9702TIP3    H150597   6.603   0.996  14.331 -0.4960 -2.1917  0.8484
 9702TIP3    H250598   6.531   1.002  14.198  0.8479  0.8328  0.2354
 9703TIP3   OH250599   3.731   2.189   6.321 -0.0524 -0.1665  0.1171
 9703TIP3    H150600   3.818   2.172   6.359  0.7124 -0.3669 -1.6748
 9703TIP3    H250601   3.727   2.284   6.312  0.8444 -0.2891 -1.7441
 9704TIP3   OH250602   5.995   0.270   1.058 -0.3383 -0.3835  0.1776
 9704TIP3    H150603   5.937   0.196   1.075 -0.6435  0.2166  1.8198
 9704TIP3    H250604   5.973   0.334   1.125 -0.3716  1.3853 -1.4806
 9705TIP3   OH250605   4.428   6.212   3.648  0.5903  0.1950  0.4980
 9705TIP3    H150606   4.491   6.163   3.701  0.8514 -1.2136 -1.1083
 9705TIP3    H250607   4.342   6.179   3.676  0.7822 -1.6248 -0.9754
 9706TIP3   OH250608   6.207   5.644  16.398  0.4761  0.0935  0.2251
 9706TIP3    H150609   6.119   5.615  16.372 -0.2007  1.7304  0.6174
 9706TIP3    H250610   6.194   5.684  16.484  1.6135  0.3999  0.2594
 9707TIP3   OH250611   5.441   6.202   3.975  0.3928  0.1125  0.2125
 9707TIP3    H150612   5.371   6.162   3.923  0.3397 -1.5407  1.5119
 9707TIP3    H250613   5.522   6.180   3.929  0.3472 -1.3505  0.8227
 9708TIP3   OH250614   4.692   5.358  11.093  0.0084 -0.5198  0.2438
 9708TIP3    H150615   4.710   5.362  10.999 -1.2248 -0.7426 -0.0142
 9708TIP3    H250616   4.739   5.433  11.130  0.1196 -0.1614 -0.6141
 9709TIP3   OH250617   1.487   0.355   5.040  0.0227  0.7321 -0.7158
 9709TIP3    H150618   1.504   0.267   5.074  0.6322  1.6477  1.4266
 9709TIP3    H250619   1.392   0.359   5.029  0.0194 -0.2651 -1.0463
 9710TIP3   OH250620   5.529   5.875  16.775  0.8094  0.9508  1.1011
 9710TIP3    H150621   5.518   5.968  16.796 -0.2100  0.9140  0.7700
 9710TIP3    H250622   5.531   5.872  16.680 -0.8790  0.4770  1.0508
 9711TIP3   OH250623   6.434   3.097   2.609 -1.0229 -0.0269  0.2306
 9711TIP3    H150624   6.365   3.098   2.543  1.8783 -0.0045 -2.9940
 9711TIP3    H250625   6.407   3.032   2.673 -2.5899 -2.2120 -2.5796
 9712TIP3   OH250626   6.259   5.752   2.542 -0.1598 -0.5592 -0.2747
 9712TIP3    H150627   6.189   5.790   2.595  1.2112  0.0419  1.1423
 9712TIP3    H250628   6.248   5.791   2.456 -1.3386 -0.1833  0.0396
 9713TIP3   OH250629   0.132   3.709  11.276 -0.2324 -0.5306 -0.1828
 9713TIP3    H150630   0.104   3.765  11.203  0.0229  0.3647  0.3952
 9713TIP3    H250631   0.217   3.745  11.302  0.1166 -1.4379 -0.0537
 9714TIP3   OH250632   1.586   4.563  11.992  0.0400  0.2533  0.5255
 9714TIP3    H150633   1.501   4.586  11.954 -0.2141 -0.3344  0.7326
 9714TIP3    H250634   1.649   4.580  11.922 -0.1596  1.4036  0.6173
 9715TIP3   OH250635   0.289   0.421  14.906 -0.2889 -0.0573 -0.5119
 9715TIP3    H150636   0.350   0.349  14.923 -1.2473 -0.3939  1.5412
 9715TIP3    H250637   0.202   0.381  14.910 -0.7389  0.7963 -1.5200
 9716TIP3   OH250638   0.356   1.644  12.508 -0.2954 -1.2176  0.0613
 9716TIP3    H150639   0.271   1.635  12.550 -0.5519 -0.0401 -0.1793
 9716TIP3    H250640   0.389   1.729  12.539  0.3210 -1.1842 -0.6694
 9717TIP3   OH250641   5.951   6.132   0.321 -0.1948  0.1121  0.2199
 9717TIP3    H150642   5.989   6.077   0.390 -0.9799  0.0505  0.6177
 9717TIP3    H250643   5.896   6.072   0.271 -3.2850  1.0243  2.3451
 9718TIP3   OH250644   2.446   3.879  12.615  0.1126  0.2012  0.0384
 9718TIP3    H150645   2.495   3.913  12.689  0.8591  0.2486 -0.4777
 9718TIP3    H250646   2.504   3.815  12.574  0.0631  0.8203 -1.0310
 9719TIP3   OH250647   4.948   3.995  13.191  0.2845 -0.1189  0.0006
 9719TIP3    H150648   4.963   4.056  13.118 -0.3406 -1.5715 -1.3738
 9719TIP3    H250649   5.018   4.015  13.253  1.1441  0.7984 -1.2305
 9720TIP3   OH250650   3.183   0.237   1.662 -0.3839  0.4028  0.4247
 9720TIP3    H150651   3.122   0.230   1.735 -0.7463 -0.8070  0.0157
 9720TIP3    H250652   3.268   0.213   1.699 -0.5080  0.1289  0.5302
 9721TIP3   OH250653   3.546   5.852   1.135 -0.4249  0.1788  0.2803
 9721TIP3    H150654   3.553   5.946   1.152 -0.8522  0.2497  0.0824
 9721TIP3    H250655   3.570   5.842   1.043  0.0502  0.0360  0.4175
 9722TIP3   OH250656   4.302   4.959  15.213 -0.1633  0.1842 -0.0477
 9722TIP3    H150657   4.391   4.990  15.226 -0.2190  0.6392 -0.6981
 9722TIP3    H250658   4.252   5.039  15.193 -0.8622  0.0374  1.0557
 9723TIP3   OH250659   5.118   4.144   4.233  0.0701  0.1471 -0.4029
 9723TIP3    H150660   5.131   4.174   4.323  0.1834  1.3987 -0.8348
 9723TIP3    H250661   5.109   4.049   4.241  2.8417 -0.0678  0.6354
 9724TIP3   OH250662   6.531   5.240  12.525  0.1907 -0.0149 -0.3892
 9724TIP3    H150663   6.466   5.248  12.455 -1.7558 -2.9782  0.9711
 9724TIP3    H250664   6.590   5.314  12.512 -0.7137  0.0730 -4.5279
 9725TIP3   OH250665   2.660   2.903   2.676 -0.1017  0.1769 -0.7704
 9725TIP3    H150666   2.738   2.848   2.678 -0.4712 -0.3301  0.7692
 9725TIP3    H250667   2.680   2.976   2.734 -0.8357 -0.0478 -0.2298
 9726TIP3   OH250668   1.240   2.268   5.395 -0.6789 -0.1543  0.0288
 9726TIP3    H150669   1.287   2.323   5.332 -0.1618  1.1888  1.5603
 9726TIP3    H250670   1.305   2.247   5.462 -2.0188  1.0346  1.7386
 9727TIP3   OH250671   2.495   3.705   5.649 -0.0614  0.2680 -0.0936
 9727TIP3    H150672   2.416   3.685   5.598  0.1225  0.2875 -0.3841
 9727TIP3    H250673   2.471   3.681   5.739  0.2939 -1.6771 -0.4841
 9728TIP3   OH250674   5.938   4.080  12.015  0.5522 -0.1153  0.2612
 9728TIP3    H150675   5.917   4.139  12.088 -1.7018 -0.5262 -0.0137
 9728TIP3    H250676   5.976   4.003  12.057 -0.6841 -0.3260  1.0419
 9729TIP3   OH250677   1.604   1.164   3.796  0.0148  0.0013  0.2232
 9729TIP3    H150678   1.547   1.103   3.843 -0.8768  0.4839 -0.2196
 9729TIP3    H250679   1.645   1.110   3.728 -0.6205 -0.1509 -0.0430
 9730TIP3   OH250680   2.579   2.496   5.515  0.0819  0.2410 -0.0792
 9730TIP3    H150681   2.585   2.411   5.559  0.5765  0.8699  1.0841
 9730TIP3    H250682   2.658   2.500   5.461 -0.0160 -0.0991 -0.2508
 9731TIP3   OH250683   6.587   5.442  13.697  0.3081 -0.4292 -0.3484
 9731TIP3    H150684   6.498   5.459  13.667 -0.9608 -1.7412  2.4645
 9731TIP3    H250685   6.608   5.355  13.664 -0.3757 -1.0904  0.9130
 9732TIP3   OH250686   5.499   0.013   4.436  0.5585 -0.0133  0.2500
 9732TIP3    H150687   5.527   0.069   4.509  2.6420  0.1616 -0.6427
 9732TIP3    H250688   5.422  -0.033   4.469  0.4838  1.3078  1.9757
 9733TIP3   OH250689   3.305   3.150   2.962 -0.5044  0.1400 -0.1722
 9733TIP3    H150690   3.282   3.192   3.044 -2.0487 -0.4913 -0.2680
 9733TIP3    H250691   3.239   3.182   2.900  0.4436  0.3476 -1.0896
 9734TIP3   OH250692   4.258   0.379   1.494 -0.0257  0.1058 -0.0865
 9734TIP3    H150693   4.298   0.463   1.517  1.1352 -0.6952  0.8734
 9734TIP3    H250694   4.296   0.357   1.409  2.1893 -1.0099  1.1602
 9735TIP3   OH250695   3.569   3.697  11.380  0.7477  0.5485  0.2904
 9735TIP3    H150696   3.609   3.781  11.360 -0.3705  0.6724 -1.5988
 9735TIP3    H250697   3.623   3.633  11.333  0.0218  0.5046 -0.5012
 9736TIP3   OH250698   3.531   6.458   6.595 -0.3697 -0.5460 -0.3907
 9736TIP3    H150699   3.464   6.525   6.582 -0.7387 -1.0459 -1.0978
 9736TIP3    H250700   3.584   6.491   6.668 -2.1727 -0.7613  1.0657
 9737TIP3   OH250701   2.415   6.482  12.074 -0.4448 -0.4205  0.6227
 9737TIP3    H150702   2.458   6.566  12.088 -1.6665 -0.0464  2.2658
 9737TIP3    H250703   2.470   6.438  12.009  0.9652  1.0858  0.7534
 9738TIP3   OH250704   3.529   5.415   6.437 -0.5692  0.4085 -0.1928
 9738TIP3    H150705   3.524   5.351   6.508 -1.9610 -0.4862 -1.0733
 9738TIP3    H250706   3.570   5.367   6.365 -0.8666  0.7505 -0.5885
 9739TIP3   OH250707   3.948   6.568   4.767  0.1654 -0.3339 -0.6397
 9739TIP3    H150708   4.005   6.495   4.742 -1.1189 -1.1169 -1.3322
 9739TIP3    H250709   3.907   6.539   4.848  0.9726  0.3579  0.0249
 9740TIP3   OH250710   1.899   4.951   4.671 -0.3455 -0.3111  0.3711
 9740TIP3    H150711   1.937   5.017   4.613 -2.2299  0.6313  0.1768
 9740TIP3    H250712   1.878   4.877   4.614  0.7174 -0.6394  0.3979
 9741TIP3   OH250713   3.487   2.454  12.653 -0.1192  0.0592 -0.2936
 9741TIP3    H150714   3.488   2.467  12.747 -0.4879 -0.5615 -0.2035
 9741TIP3    H250715   3.425   2.520  12.620  0.8493  1.0269 -0.2237
 9742TIP3   OH250716   5.445   2.163  11.322 -0.0032 -0.5774  0.0990
 9742TIP3    H150717   5.524   2.195  11.364  0.0808 -0.5692 -0.0633
 9742TIP3    H250718   5.461   2.174  11.228 -0.1940 -0.5790  0.0642
 9743TIP3   OH250719   6.505   2.267  16.097  0.5567 -0.0570 -0.1862
 9743TIP3    H150720   6.486   2.210  16.172  0.4520 -0.9700 -0.9020
 9743TIP3    H250721   6.460   2.226  16.023  2.2257 -0.2127 -1.1435
 9744TIP3   OH250722   2.039   1.234  16.586 -0.0576  0.0480  0.1762
 9744TIP3    H150723   2.002   1.307  16.635 -0.5422  1.4436 -2.2111
 9744TIP3    H250724   2.001   1.156  16.627 -2.0668  1.2669  0.6893
 9745TIP3   OH250725   4.138   3.624   4.644 -0.6710  0.1869  0.4993
 9745TIP3    H150726   4.219   3.666   4.674 -1.3506 -0.2234  3.0277
 9745TIP3    H250727   4.154   3.530   4.656 -0.5235 -0.0738 -1.6186
 9746TIP3   OH250728   5.566   1.766  12.825 -0.6554  0.2231  0.6118
 9746TIP3    H150729   5.484   1.720  12.811 -0.3721  0.1275 -0.8216
 9746TIP3    H250730   5.608   1.719  12.897 -0.8544 -1.1036 -0.1272
 9747TIP3   OH250731   5.226   3.767  12.362 -0.1765 -0.4630  0.0820
 9747TIP3    H150732   5.275   3.725  12.291 -2.3076 -2.7897 -0.0501
 9747TIP3    H250733   5.175   3.835  12.318  0.9614  0.2658 -0.1347
 9748TIP3   OH250734   5.945   6.816  16.340 -0.0132  0.5865  0.5450
 9748TIP3    H150735   5.961   6.860  16.423  1.6334  0.3288  0.3765
 9748TIP3    H250736   6.026   6.827  16.291 -1.3629  1.7436 -1.5036
 9749TIP3   OH250737   1.248   3.403   1.914 -0.0613  0.0090 -0.0923
 9749TIP3    H150738   1.320   3.436   1.860  0.6964 -0.1738  0.7950
 9749TIP3    H250739   1.185   3.367   1.851  0.2394  0.9224 -0.9194
 9750TIP3   OH250740   6.026   4.489  12.099  0.4291 -0.0476 -0.3091
 9750TIP3    H150741   6.000   4.581  12.098 -0.6419 -0.3471 -0.0453
 9750TIP3    H250742   6.121   4.491  12.084  0.5982  1.1658  0.8427
 9751TIP3   OH250743   0.211   4.247   0.036  0.1571 -0.0167  0.0866
 9751TIP3    H150744   0.178   4.332   0.065  0.7798  0.0814  0.5088
 9751TIP3    H250745   0.137   4.208  -0.010 -0.3865  0.4217  0.5741
 9752TIP3   OH250746   0.044   1.354   4.185 -0.2128 -0.4395 -0.1171
 9752TIP3    H150747  -0.028   1.415   4.168 -0.9077 -0.9814  0.8425
 9752TIP3    H250748   0.002   1.269   4.191  0.3087 -0.5861  1.8322
 9753TIP3   OH250749   2.463   2.210   2.805 -0.6825  0.0915 -0.2437
 9753TIP3    H150750   2.509   2.143   2.856 -0.8972 -0.9580 -1.4143
 9753TIP3    H250751   2.374   2.211   2.841 -0.6122 -0.0835 -0.0659
 9754TIP3   OH250752   4.206   0.626  17.149 -0.2803 -0.2910 -0.1622
 9754TIP3    H150753   4.261   0.569  17.203 -1.0322 -1.4681 -0.6166
 9754TIP3    H250754   4.122   0.629  17.195 -0.3241  0.2387 -0.2774
 9755TIP3   OH250755   5.109   0.756   1.165 -0.5110 -0.3004 -0.3136
 9755TIP3    H150756   5.082   0.846   1.145 -1.4045 -0.6793 -0.8757
 9755TIP3    H250757   5.068   0.703   1.097  0.2368 -1.1063 -0.1461
 9756TIP3   OH250758   4.325   0.839  11.210  0.2549 -0.0087  0.1748
 9756TIP3    H150759   4.247   0.894  11.201  2.1303  2.5029 -1.2245
 9756TIP3    H250760   4.301   0.757  11.167 -1.8933  0.4284  0.4849
 9757TIP3   OH250761   5.973   0.351   0.079 -0.0780  0.0616  0.0382
 9757TIP3    H150762   5.958   0.284   0.146 -1.7598  0.6878  0.3154
 9757TIP3    H250763   5.927   0.428   0.111 -1.3941  0.2093 -2.0756
 9758TIP3   OH250764   6.766   3.136  16.201  0.5021  0.1045 -0.4711
 9758TIP3    H150765   6.752   3.143  16.295 -1.5538 -0.0289 -0.7477
 9758TIP3    H250766   6.732   3.218  16.165 -1.4138 -1.0566 -1.3661
 9759TIP3   OH250767   2.353   1.161   1.903 -0.1134  0.0118  1.0265
 9759TIP3    H150768   2.377   1.228   1.838 -1.4544 -0.0964  0.4104
 9759TIP3    H250769   2.425   1.162   1.966 -0.8046  3.0615  1.8356
 9760TIP3   OH250770   2.930   0.259  14.496  0.4289 -0.1339  0.0924
 9760TIP3    H150771   2.878   0.195  14.448  1.3228  0.1405 -1.2634
 9760TIP3    H250772   2.918   0.235  14.588 -2.8631  0.5102 -0.0948
 9761TIP3   OH250773   0.219   3.127   2.356  0.0709 -0.6409 -0.0788
 9761TIP3    H150774   0.274   3.088   2.288 -0.4246 -0.4151 -0.6113
 9761TIP3    H250775   0.164   3.190   2.310  0.7502  0.5757  0.7488
 9762TIP3   OH250776   1.414   4.157   6.170 -0.4254  0.1686  0.3160
 9762TIP3    H150777   1.374   4.242   6.191 -0.2341  0.3296  0.0192
 9762TIP3    H250778   1.399   4.104   6.249  0.2217  0.7523  0.8298
 9763TIP3   OH250779   5.106   4.779  17.264 -0.1551  0.3206  0.0516
 9763TIP3    H150780   5.178   4.825  17.222  1.4878 -0.7288  1.6116
 9763TIP3    H250781   5.104   4.693  17.222 -0.7181  0.4655 -0.2192
 9764TIP3   OH250782   2.111   0.908  14.962  0.7305 -0.0583  0.0924
 9764TIP3    H150783   2.079   0.906  14.871  0.5137  0.6213  0.1570
 9764TIP3    H250784   2.201   0.875  14.956  0.3195 -1.1759 -0.2042
 9765TIP3   OH250785   0.443   1.655  12.087  0.0503 -0.4358 -0.1939
 9765TIP3    H150786   0.480   1.711  12.156 -0.4780  1.0794 -1.1117
 9765TIP3    H250787   0.368   1.612  12.128  0.7008 -0.7929  0.6397
 9766TIP3   OH250788   5.926   2.567   5.403 -0.9578 -0.0622  0.0796
 9766TIP3    H150789   5.972   2.652   5.402 -0.0610 -0.5417 -0.1440
 9766TIP3    H250790   5.979   2.512   5.460 -0.6398 -0.9576 -1.0561
 9767TIP3   OH250791   0.767   1.596  15.175  0.2084 -0.5720 -0.5591
 9767TIP3    H150792   0.712   1.669  15.148 -0.3594  0.2201  2.5116
 9767TIP3    H250793   0.708   1.520  15.171 -0.5509 -0.0710  0.6717
 9768TIP3   OH250794   3.128   2.967   2.134 -0.1755  0.0725 -0.1025
 9768TIP3    H150795   3.114   3.061   2.144  1.2631  0.0660  2.4094
 9768TIP3    H250796   3.042   2.932   2.109 -0.5472  2.1108 -1.8174
 9769TIP3   OH250797   0.488   1.044   4.728  0.2051 -0.2116  0.3278
 9769TIP3    H150798   0.504   1.132   4.694  0.9054 -0.5565 -0.2446
 9769TIP3    H250799   0.571   0.998   4.716  0.0026 -0.7947  1.1142
 9770TIP3   OH250800   2.288   3.102   3.500  0.1908 -0.0720  0.0914
 9770TIP3    H150801   2.300   3.190   3.537 -0.4257 -0.5939  1.5676
 9770TIP3    H250802   2.346   3.100   3.424  1.4314  1.0539  0.9861
 9771TIP3   OH250803   2.677   2.659  13.768  0.0294  0.6435  0.0312
 9771TIP3    H150804   2.767   2.644  13.796 -0.9534 -3.3620  1.2619
 9771TIP3    H250805   2.641   2.719  13.834  1.5133  1.6235 -0.0265
 9772TIP3   OH250806   1.837   4.429   4.555 -0.5464  0.0959 -0.6315
 9772TIP3    H150807   1.844   4.347   4.604  1.5512  1.7998  2.0944
 9772TIP3    H250808   1.850   4.497   4.621 -0.5929  2.5815 -3.1063
 9773TIP3   OH250809   1.273   2.529  12.302 -0.2000 -0.6776 -0.2193
 9773TIP3    H150810   1.234   2.615  12.288  0.5492 -0.1997  0.5655
 9773TIP3    H250811   1.255   2.481  12.221 -1.7069 -0.2148 -0.1831
 9774TIP3   OH250812   6.158   4.729   2.112 -0.6373 -0.9111 -0.3406
 9774TIP3    H150813   6.205   4.683   2.181 -0.4367  1.1515  0.9133
 9774TIP3    H250814   6.148   4.818   2.144 -2.9053 -0.5850 -1.8172
 9775TIP3   OH250815   3.146   1.956   2.107 -0.0096  0.6289 -0.1362
 9775TIP3    H150816   3.099   1.894   2.052 -0.9759  0.8812  0.3935
 9775TIP3    H250817   3.085   1.975   2.179  1.7776 -0.8533  1.8568
 9776TIP3   OH250818   0.353   5.912   5.853  0.2178  0.4234 -0.1666
 9776TIP3    H150819   0.295   5.838   5.835  1.5607 -0.4543 -0.8674
 9776TIP3    H250820   0.315   5.952   5.932  0.5904 -2.1739  1.4095
 9777TIP3   OH250821   2.168   4.901  14.663 -0.3523  0.2575 -0.1070
 9777TIP3    H150822   2.131   4.924  14.578 -2.1769  0.6178  0.7551
 9777TIP3    H250823   2.188   4.808  14.656 -0.2381  0.3427 -1.0162
 9778TIP3   OH250824   6.661   0.087   3.914  0.5874 -0.0504 -0.0373
 9778TIP3    H150825   6.731   0.125   3.861 -0.7094  1.3020 -0.7986
 9778TIP3    H250826   6.586   0.081   3.854  0.0958 -1.6542  0.7189
 9779TIP3   OH250827   0.910   4.970  16.753  0.1447 -0.2252 -0.3101
 9779TIP3    H150828   0.898   4.894  16.696  1.2647 -0.4837 -0.2024
 9779TIP3    H250829   0.956   5.034  16.698  0.0523  0.0196 -0.1031
 9780TIP3   OH250830   1.674   2.478   0.566 -0.0242 -0.0122  0.0318
 9780TIP3    H150831   1.747   2.421   0.591  1.0352  1.4730  0.4790
 9780TIP3    H250832   1.619   2.481   0.644 -0.6194 -1.2068 -0.3344
 9781TIP3   OH250833   4.877   2.707  14.660 -0.0033  0.1800  0.1782
 9781TIP3    H150834   4.804   2.734  14.605 -1.3314 -1.7745  0.9213
 9781TIP3    H250835   4.909   2.788  14.701 -2.2007  0.9660  0.3820
 9782TIP3   OH250836   1.225   0.616   5.281  0.1907  0.4565  0.0863
 9782TIP3    H150837   1.275   0.696   5.294 -0.6585  1.1211 -0.6439
 9782TIP3    H250838   1.141   0.633   5.324 -0.2398  0.2215 -0.6482
 9783TIP3   OH250839   3.045   0.344   5.656 -0.0993 -0.3292 -0.1608
 9783TIP3    H150840   3.135   0.342   5.689  0.4925  1.3271 -1.5998
 9783TIP3    H250841   3.048   0.290   5.577 -0.5947 -1.0157  0.2821
 9784TIP3   OH250842   0.845   5.936   1.868 -0.0402  0.5797 -0.6235
 9784TIP3    H150843   0.787   5.907   1.798  0.6881 -2.3802 -0.0482
 9784TIP3    H250844   0.921   5.974   1.823  0.4817 -1.4105 -1.4678
 9785TIP3   OH250845   2.151   1.848   0.380  0.0685  0.8082  0.2454
 9785TIP3    H150846   2.122   1.796   0.454  0.3324 -0.7523 -0.7202
 9785TIP3    H250847   2.082   1.839   0.315  0.2755  1.3858 -0.0602
 9786TIP3   OH250848   4.008   2.154  11.175  0.1871 -0.0814 -0.2502
 9786TIP3    H150849   3.977   2.240  11.203  1.4250  0.4008 -0.3414
 9786TIP3    H250850   3.992   2.153  11.080 -1.5256 -0.6778  0.0253
 9787TIP3   OH250851   0.674   6.428  16.796 -0.2467 -0.1447 -0.2922
 9787TIP3    H150852   0.744   6.407  16.858  0.0144  0.9866 -0.1919
 9787TIP3    H250853   0.686   6.365  16.724 -0.1740 -1.0556  0.5045
 9788TIP3   OH250854   4.158   6.577  17.012 -0.2683 -0.1051  0.8187
 9788TIP3    H150855   4.103   6.595  17.087 -0.3092  0.0038  0.7618
 9788TIP3    H250856   4.224   6.646  17.013 -1.1043  0.7226 -0.0565
 9789TIP3   OH250857   3.009   3.994   2.926 -0.0765  0.5692 -0.3362
 9789TIP3    H150858   3.000   4.011   3.020 -1.0407  2.3329 -0.7276
 9789TIP3    H250859   3.057   4.070   2.893  2.2989 -1.1387 -0.9135
 9790TIP3   OH250860   4.608   3.452  13.682  0.0182 -0.1357  0.0372
 9790TIP3    H150861   4.671   3.435  13.612  0.7511  2.3474  0.0413
 9790TIP3    H250862   4.657   3.436  13.762  0.2158  0.3506  0.0182
 9791TIP3   OH250863   6.714   0.189  14.077  0.4054 -0.3178 -0.8970
 9791TIP3    H150864   6.691   0.267  14.126 -4.3735 -1.5152 -1.0225
 9791TIP3    H250865   6.737   0.221  13.990 -0.8722  0.9924 -0.7601
 9792TIP3   OH250866   3.719   3.927  16.142  0.2167 -1.1024  0.3184
 9792TIP3    H150867   3.682   3.853  16.190 -2.7720 -1.1474 -1.8817
 9792TIP3    H250868   3.701   4.003  16.197 -0.2615 -1.5381  0.7747
 9793TIP3   OH250869   4.078   2.634  16.954 -0.0899 -0.0660 -0.1988
 9793TIP3    H150870   4.051   2.542  16.953 -0.1310 -0.0678  0.7988
 9793TIP3    H250871   4.137   2.641  17.028 -1.5572  1.1096  0.8940
 9794TIP3   OH250872   2.050   5.206  13.350  0.1743  0.3750 -0.1943
 9794TIP3    H150873   2.067   5.154  13.271  1.0321 -0.1771  0.3410
 9794TIP3    H250874   2.032   5.294  13.317  1.8973  0.4728 -0.9519
 9795TIP3   OH250875   6.438   1.471  16.074  0.5826  0.6422  0.0424
 9795TIP3    H150876   6.407   1.466  15.983 -0.3620  1.4277  0.3105
 9795TIP3    H250877   6.499   1.544  16.074  0.6461  0.5896  0.0254
 9796TIP3   OH250878   3.597   5.859  11.015 -0.2083 -0.3750 -0.4305
 9796TIP3    H150879   3.589   5.941  10.965  0.0702 -0.0631  0.0275
 9796TIP3    H250880   3.688   5.833  11.002  0.7098  1.2788  2.3000
 9797TIP3   OH250881   3.470   5.912  16.050  0.1633 -0.2717  0.1898
 9797TIP3    H150882   3.402   5.852  16.018 -0.3273  0.0578  0.6000
 9797TIP3    H250883   3.551   5.860  16.047 -0.2264 -0.9044  0.3769
 9798TIP3   OH250884   6.410   1.788  15.793  0.5694  0.0371  0.0338
 9798TIP3    H150885   6.326   1.786  15.748  0.6227  0.7922 -0.1110
 9798TIP3    H250886   6.470   1.831  15.732  0.7280  0.7337  0.6682
 9799TIP3   OH250887   2.223   3.519  14.456 -0.0345 -0.0473 -0.1676
 9799TIP3    H150888   2.183   3.475  14.381  0.9856 -0.4293 -0.4931
 9799TIP3    H250889   2.274   3.590  14.417  0.5026 -0.2508  0.1631
 9800TIP3   OH250890   3.815   6.807   3.566  0.4605 -0.1173  0.0328
 9800TIP3    H150891   3.747   6.779   3.505 -0.0359 -1.4983  1.1944
 9800TIP3    H250892   3.772   6.810   3.651  2.0053 -1.7683  0.9217
 9801TIP3   OH250893   4.681   6.247   5.371 -0.4153 -0.6105  0.2126
 9801TIP3    H150894   4.627   6.326   5.366 -3.5632 -2.7258 -0.9433
 9801TIP3    H250895   4.728   6.245   5.287 -1.0125 -0.4260 -0.1276
 9802TIP3   OH250896   0.988   0.275  12.850  0.2871 -0.3338  0.1945
 9802TIP3    H150897   1.047   0.276  12.774  0.9908  0.9237  0.7396
 9802TIP3    H250898   1.039   0.316  12.920 -1.1869  0.6522  0.7108
 9803TIP3   OH250899   5.921   5.547   2.194 -0.6140  0.1399 -0.7295
 9803TIP3    H150900   5.973   5.609   2.245 -1.6412 -0.7768  1.4805
 9803TIP3    H250901   5.843   5.596   2.168  0.1611  0.7700 -1.9382
 9804TIP3   OH250902   1.632   1.404   4.239 -0.0507  0.2991 -0.1820
 9804TIP3    H150903   1.650   1.340   4.308 -1.7944 -0.9128 -0.8308
 9804TIP3    H250904   1.638   1.489   4.283 -0.4791 -0.4283  1.3112
 9805TIP3   OH250905   1.084   1.019  16.992 -0.1418  0.4573 -0.0835
 9805TIP3    H150906   1.093   0.924  17.001  1.7722  0.7170  1.1237
 9805TIP3    H250907   1.021   1.030  16.920 -0.2760 -1.7092 -0.3564
 9806TIP3   OH250908   0.375   1.049  14.397 -0.0261 -0.5859  0.1221
 9806TIP3    H150909   0.335   1.134  14.411  0.2743 -0.2499 -1.0461
 9806TIP3    H250910   0.353   0.999  14.476  0.0945  0.6771  0.9748
 9807TIP3   OH250911   3.158   2.798  11.627  0.3007 -0.5209  0.0668
 9807TIP3    H150912   3.076   2.757  11.598  0.1614  0.5053 -1.0335
 9807TIP3    H250913   3.226   2.733  11.607  0.1076 -0.1813 -1.8080
 9808TIP3   OH250914   0.359   5.412  14.065  0.0217 -0.1481  0.5946
 9808TIP3    H150915   0.336   5.389  13.975 -0.9212  0.0368  0.7929
 9808TIP3    H250916   0.295   5.478  14.090 -1.7623 -2.5174  2.5106
 9809TIP3   OH250917   4.998   3.135  16.325  0.3392 -0.0059  0.4336
 9809TIP3    H150918   5.037   3.126  16.238 -1.8413 -0.9527 -0.4648
 9809TIP3    H250919   5.036   3.216  16.359  1.9788 -0.1364 -0.9841
 9810TIP3   OH250920   1.899   0.605   3.535  0.2184 -0.8788  0.5827
 9810TIP3    H150921   1.815   0.652   3.542  1.0106  0.5837  0.5170
 9810TIP3    H250922   1.950   0.637   3.609  0.5817 -2.0619  0.8469
 9811TIP3   OH250923   2.142   0.601  12.660  0.3567 -0.4274  0.2427
 9811TIP3    H150924   2.141   0.507  12.677  0.2071 -0.2454  1.2454
 9811TIP3    H250925   2.053   0.621  12.629  0.5537 -0.7118 -0.5143
 9812TIP3   OH250926   2.822   6.146   5.849  0.4386 -0.1010 -0.0747
 9812TIP3    H150927   2.818   6.076   5.784  2.1058 -2.0939  1.8577
 9812TIP3    H250928   2.736   6.188   5.845 -0.3171 -1.7358 -1.8496
 9813TIP3   OH250929   4.679   0.508  12.574 -0.0770 -0.1092  0.3532
 9813TIP3    H150930   4.610   0.518  12.509  2.1018 -0.2637 -2.0466
 9813TIP3    H250931   4.640   0.451  12.641 -2.2701 -0.1623 -0.9150
 9814TIP3   OH250932   0.179   3.286  11.939 -0.4528  0.1514  0.6391
 9814TIP3    H150933   0.084   3.274  11.933 -0.4914  1.2995 -1.7853
 9814TIP3    H250934   0.216   3.211  11.893 -0.2323  0.4373  0.3458
 9815TIP3   OH250935   5.721   1.297  11.387 -0.0559 -0.2781  0.1364
 9815TIP3    H150936   5.711   1.391  11.375 -1.5769 -0.2788  1.2277
 9815TIP3    H250937   5.815   1.284  11.400  0.1223  1.1188  0.3166
 9816TIP3   OH250938   0.248   5.553   5.725  0.3225 -0.2555 -0.2507
 9816TIP3    H150939   0.221   5.596   5.644 -1.1571 -0.0546  0.3407
 9816TIP3    H250940   0.218   5.611   5.795  1.5310 -0.4551  0.4547
 9817TIP3   OH250941   2.475   5.210  13.957  0.3693  0.0016 -0.0870
 9817TIP3    H150942   2.396   5.252  13.992 -0.1793 -1.4452  0.4495
 9817TIP3    H250943   2.502   5.148  14.025  0.5610 -1.2804 -1.2998
 9818TIP3   OH250944   6.327   6.169  12.685 -0.1282 -0.0759 -0.3130
 9818TIP3    H150945   6.245   6.177  12.733 -0.4950  0.3722 -0.9940
 9818TIP3    H250946   6.313   6.096  12.624 -0.3865  0.6349 -1.1208
 9819TIP3   OH250947   6.089   2.282  10.778  0.1515  0.3656  0.3736
 9819TIP3    H150948   6.097   2.337  10.856 -1.1176 -1.9103  2.1573
 9819TIP3    H250949   6.153   2.212  10.790 -1.2895 -1.0038  0.2656
 9820TIP3   OH250950   1.808   4.038   5.510  0.3480  1.2114  0.4457
 9820TIP3    H150951   1.844   3.959   5.551  0.5570  2.1118  2.0009
 9820TIP3    H250952   1.714   4.020   5.502  0.2063  1.2957  1.9029
 9821TIP3   OH250953   2.909   4.543  12.545  0.2997  0.2085 -0.4527
 9821TIP3    H150954   2.905   4.593  12.463 -0.1539 -1.2923 -1.3772
 9821TIP3    H250955   2.999   4.556  12.576  0.0896  1.8630 -0.4906
 9822TIP3   OH250956   4.976   1.882   3.683 -0.4725  0.0761  0.1537
 9822TIP3    H150957   5.017   1.806   3.725 -1.8862 -0.1054  1.2271
 9822TIP3    H250958   5.037   1.905   3.612  0.5624 -1.3155  0.5542
 9823TIP3   OH250959   2.296   6.440   1.830 -0.0565 -0.2873  0.0501
 9823TIP3    H150960   2.334   6.396   1.906 -3.0263 -0.0641  1.7505
 9823TIP3    H250961   2.220   6.386   1.807 -0.7918  1.1879 -1.0242
 9824TIP3   OH250962   0.007   1.417   0.003  0.3339 -0.0773  0.3112
 9824TIP3    H150963  -0.058   1.443  -0.062  0.7594 -0.0453 -0.1112
 9824TIP3    H250964   0.081   1.476  -0.013  0.8474 -0.7686  0.1275
 9825TIP3   OH250965   3.443   2.094  14.271 -0.4612  0.0379  0.0170
 9825TIP3    H150966   3.489   2.142  14.339  1.4283 -0.5039 -0.8462
 9825TIP3    H250967   3.419   2.011  14.312 -1.3875  0.6442  0.7108
 9826TIP3   OH250968   5.785   3.121   2.146  0.2597  0.4534 -0.2650
 9826TIP3    H150969   5.807   3.172   2.224 -2.8691  0.9762  0.3450
 9826TIP3    H250970   5.736   3.183   2.090 -0.6245 -0.9058 -1.0277
 9827TIP3   OH250971   0.814   3.642  14.201 -0.3515 -0.1292 -0.2843
 9827TIP3    H150972   0.738   3.678  14.155 -0.9382 -0.0143  0.7746
 9827TIP3    H250973   0.860   3.719  14.235 -0.1455 -0.2414 -0.3074
 9828TIP3   OH250974   1.026   4.405   2.944  0.0929  0.2051  0.2427
 9828TIP3    H150975   1.067   4.319   2.958 -0.4944  0.1663  1.8816
 9828TIP3    H250976   0.932   4.388   2.950 -0.0851  0.7289 -0.9269
 9829TIP3   OH250977   3.894   6.612   5.495  0.1330  0.9486 -0.7487
 9829TIP3    H150978   3.931   6.627   5.582 -1.7512 -2.0963  0.6801
 9829TIP3    H250979   3.939   6.534   5.463 -0.0985  1.2958 -1.9351
 9830TIP3   OH250980   1.195   0.989  13.585 -0.5597  0.4603 -0.1979
 9830TIP3    H150981   1.133   0.972  13.515 -0.3649 -2.2985  0.2460
 9830TIP3    H250982   1.150   0.962  13.665  0.8480 -0.7933  0.2147
 9831TIP3   OH250983   2.981   4.575   2.442 -0.2743  0.2506 -0.2620
 9831TIP3    H150984   2.899   4.611   2.407 -0.2768 -0.1471 -0.6606
 9831TIP3    H250985   2.962   4.559   2.535 -0.3883  0.9387 -0.1622
 9832TIP3   OH250986   0.149   2.708  15.426  0.4417  0.7234  0.5389
 9832TIP3    H150987   0.117   2.705  15.516  1.5055  1.4311  0.9515
 9832TIP3    H250988   0.096   2.775  15.384  0.2733  0.7354  0.7693
 9833TIP3   OH250989   6.469   5.587  17.123  0.2169  0.4584  0.6514
 9833TIP3    H150990   6.501   5.669  17.084 -0.4867  0.8814  0.9493
 9833TIP3    H250991   6.376   5.602  17.136  0.2846 -0.0204  1.6627
 9834TIP3   OH250992   6.264   0.194  13.968  0.1878 -0.4472 -0.2273
 9834TIP3    H150993   6.179   0.170  14.006  0.4812 -1.2248 -0.0513
 9834TIP3    H250994   6.324   0.195  14.042  0.6071 -1.2202 -0.5520
 9835TIP3   OH250995   2.884   4.146  16.699  0.4195 -0.3515  0.3961
 9835TIP3    H150996   2.911   4.131  16.608  0.5706 -0.7033  0.4981
 9835TIP3    H250997   2.807   4.091  16.711 -0.7138  1.0983 -0.0770
 9836TIP3   OH250998   0.200   4.245   1.834  0.4359  0.1215 -0.4477
 9836TIP3    H150999   0.275   4.188   1.851 -0.4437 -0.9104  0.0492
 9836TIP3    H251000   0.214   4.278   1.745  1.5518  0.0616 -0.3021
 9837TIP3   OH251001   2.250   3.352  15.214 -0.3874 -0.5584  0.3724
 9837TIP3    H151002   2.266   3.277  15.156 -0.1149 -0.0676 -0.1848
 9837TIP3    H251003   2.205   3.314  15.290  1.9420 -1.6685  1.2214
 9838TIP3   OH251004   6.373   1.858  12.099 -0.3191  1.1326  0.3583
 9838TIP3    H151005   6.326   1.821  12.173 -1.3753  0.7634 -0.4751
 9838TIP3    H251006   6.311   1.852  12.026  1.4088 -0.3557 -1.0313
 9839TIP3   OH251007   3.942   2.234   4.874  0.8864 -0.1139 -0.2440
 9839TIP3    H151008   4.031   2.266   4.861  0.6397  1.1428  0.9705
 9839TIP3    H251009   3.923   2.253   4.966 -1.0001  0.6172 -0.7652
 9840TIP3   OH251010   4.591   3.363  10.892 -0.1967  0.8051  0.0918
 9840TIP3    H151011   4.594   3.337  10.800  0.9499  1.2946 -0.0236
 9840TIP3    H251012   4.608   3.282  10.940 -0.8619  0.5366 -0.1154
 9841TIP3   OH251013   5.622   3.266  13.246 -0.7143  0.0669 -0.4811
 9841TIP3    H151014   5.604   3.300  13.334 -0.5357  0.3657 -0.5604
 9841TIP3    H251015   5.633   3.172  13.259 -0.7568  0.1005 -0.1920
 9842TIP3   OH251016   5.542   2.705   2.693  0.7819  0.0569  0.8566
 9842TIP3    H151017   5.578   2.616   2.696  2.3102  0.6105 -0.3385
 9842TIP3    H251018   5.452   2.695   2.724  1.4214 -1.6387  2.3214
 9843TIP3   OH251019   0.189   3.774  12.242  0.4586  0.2688  0.1418
 9843TIP3    H151020   0.270   3.724  12.238 -0.3732 -0.9778 -1.7124
 9843TIP3    H251021   0.120   3.708  12.241 -0.6002  1.3307  1.4192
 9844TIP3   OH251022   3.330   6.036  13.338  0.2029  0.2532 -0.4398
 9844TIP3    H151023   3.412   5.987  13.334  0.3585  0.3935  1.0187
 9844TIP3    H251024   3.280   6.004  13.263  1.3558 -0.2401 -1.0184
 9845TIP3   OH251025   6.207   4.863   4.147  0.0872  0.5356  0.5393
 9845TIP3    H151026   6.195   4.814   4.228  2.3882  0.0393  0.6405
 9845TIP3    H251027   6.223   4.953   4.175 -2.2638  1.0089  0.4472
 9846TIP3   OH251028   0.358   4.640   0.767  0.3202  0.2142 -0.2923
 9846TIP3    H151029   0.344   4.734   0.752 -0.3862  0.3959  1.3114
 9846TIP3    H251030   0.279   4.612   0.813  1.4529 -0.6845  1.1610
 9847TIP3   OH251031   0.731   4.537   4.239  0.6032  0.2673 -0.0650
 9847TIP3    H151032   0.677   4.498   4.170 -0.5943  0.4703  0.7456
 9847TIP3    H251033   0.735   4.630   4.217 -1.8141  0.7675  1.4384
 9848TIP3   OH251034   5.756   2.768  14.625  0.1319 -0.9293 -0.0748
 9848TIP3    H151035   5.807   2.730  14.554  0.2480 -0.0101 -0.4868
 9848TIP3    H251036   5.817   2.773  14.699 -0.0202 -1.9853  0.1384
 9849TIP3   OH251037   0.640   4.574   4.772 -0.8184 -0.5924 -0.5735
 9849TIP3    H151038   0.609   4.484   4.779  1.5656 -1.4900 -1.2023
 9849TIP3    H251039   0.579   4.616   4.711 -2.9383 -1.2905  1.0071
 9850TIP3   OH251040   4.433   5.138  12.952 -0.0437  0.4941  0.1869
 9850TIP3    H151041   4.370   5.140  13.024 -0.3075  0.1142 -0.0234
 9850TIP3    H251042   4.389   5.185  12.881 -0.0196  0.3792  0.0952
 9851TIP3   OH251043   3.864   2.722   3.624  0.8824 -0.5323  0.3421
 9851TIP3    H151044   3.919   2.645   3.609  1.7636  0.0377  0.5997
 9851TIP3    H251045   3.813   2.731   3.543  3.1583  0.5329 -1.0469
 9852TIP3   OH251046   1.090   0.751  11.405 -0.2230  0.0450  0.0158
 9852TIP3    H151047   1.103   0.841  11.435  0.8844 -0.2484  0.4255
 9852TIP3    H251048   1.015   0.757  11.346 -1.0777  0.9928  1.1612
 9853TIP3   OH251049   0.647   1.476  14.153 -0.2666  0.2441 -0.2829
 9853TIP3    H151050   0.673   1.470  14.061  0.2993  1.8051 -0.2520
 9853TIP3    H251051   0.714   1.427  14.200  0.3871  0.8431 -0.5735
 9854TIP3   OH251052   1.095   6.055  14.449 -0.2738  0.2719  0.5051
 9854TIP3    H151053   1.125   5.968  14.422 -0.0276  0.3006  0.6921
 9854TIP3    H251054   1.162   6.115  14.415 -1.0491  0.4973 -0.6664
 9855TIP3   OH251055   0.792   5.383   6.111 -0.3200  0.1111 -0.1908
 9855TIP3    H151056   0.801   5.465   6.062  1.8928 -0.1867 -0.3331
 9855TIP3    H251057   0.765   5.319   6.045  0.1319  0.2607 -0.5221
 9856TIP3   OH251058   2.998   4.494   0.905  0.0012  0.4880  0.1079
 9856TIP3    H151059   3.065   4.546   0.860  0.6873 -0.3784  0.1064
 9856TIP3    H251060   2.983   4.540   0.987 -0.3653  1.4069 -0.4678
 9857TIP3   OH251061   2.467   6.650   5.384  0.3169 -0.0517 -0.0615
 9857TIP3    H151062   2.487   6.675   5.294  0.8433  1.9636  0.6084
 9857TIP3    H251063   2.550   6.621   5.421  0.8932  2.6517  0.8829
 9858TIP3   OH251064   3.819   1.777   5.857 -0.0920  0.2234 -0.4350
 9858TIP3    H151065   3.825   1.748   5.949  1.7736  0.2753 -0.5117
 9858TIP3    H251066   3.741   1.734   5.823 -0.1799 -0.6844  0.8837
 9859TIP3   OH251067   0.378   3.084   3.388 -0.3625 -0.4974  0.1246
 9859TIP3    H151068   0.420   2.998   3.381  1.0711  0.0973  1.1469
 9859TIP3    H251069   0.289   3.070   3.357  0.6755 -1.7336 -2.4622
 9860TIP3   OH251070   3.418   2.260  14.514  0.6325  0.4257  0.3829
 9860TIP3    H151071   3.419   2.193  14.582  0.2888  1.1141  1.0802
 9860TIP3    H251072   3.357   2.326  14.546  0.9377  1.0533 -0.3069
 9861TIP3   OH251073   1.739   5.970   3.701  0.1141  0.2524  0.5652
 9861TIP3    H151074   1.772   5.939   3.785  1.6311 -0.6372 -0.3454
 9861TIP3    H251075   1.748   5.895   3.642 -0.3116  1.0662 -0.5579
 9862TIP3   OH251076   3.287   6.795  11.349 -0.1564  0.0105  0.1301
 9862TIP3    H151077   3.247   6.749  11.422  0.4208 -0.6760  0.0202
 9862TIP3    H251078   3.248   6.756  11.271  0.8819 -0.8319  0.0152
 9863TIP3   OH251079   6.103   4.327  12.980  0.8296 -0.2763  0.3727
 9863TIP3    H151080   6.137   4.365  12.899 -0.9349  0.9651  0.1977
 9863TIP3    H251081   6.142   4.380  13.050  0.4977  0.1332  0.2447
 9864TIP3   OH251082   5.724   5.347   1.523  0.2399 -0.4904 -0.3224
 9864TIP3    H151083   5.710   5.410   1.594 -0.3495  0.2260 -1.0631
 9864TIP3    H251084   5.645   5.354   1.470  0.5656 -1.2157 -0.9067
 9865TIP3   OH251085   4.938   1.143   1.232  0.5303 -0.0485  0.0579
 9865TIP3    H151086   4.949   1.220   1.175  3.4893 -1.9752 -2.1466
 9865TIP3    H251087   4.960   1.175   1.319  3.6215  1.2415 -1.1063
 9866TIP3   OH251088   0.299   3.239   0.184  0.6551  0.0813  0.6054
 9866TIP3    H151089   0.382   3.202   0.156  1.5552  1.9943  0.6528
 9866TIP3    H251090   0.247   3.164   0.212  2.5142 -1.0938  0.9735
 9867TIP3   OH251091   0.621   1.954  12.003  0.3623 -0.4773 -0.3397
 9867TIP3    H151092   0.569   1.921  12.077 -0.1480 -0.5035 -0.7050
 9867TIP3    H251093   0.598   2.047  11.998  1.7091 -0.0762  0.6153
 9868TIP3   OH251094   5.645   0.559  15.440 -0.5604 -0.0198  0.0518
 9868TIP3    H151095   5.596   0.611  15.376 -0.7245 -1.2018 -0.7985
 9868TIP3    H251096   5.642   0.611  15.520 -0.9586  1.1526 -0.7102
 9869TIP3   OH251097   3.387   1.238  15.273  0.1729  0.4189  0.7374
 9869TIP3    H151098   3.333   1.176  15.225  0.1181  0.4952  0.7005
 9869TIP3    H251099   3.333   1.317  15.280  0.4336  0.6313  0.3437
 9870TIP3   OH251100   1.154   0.182  15.242 -0.1997  0.3472  0.4717
 9870TIP3    H151101   1.153   0.173  15.337 -0.6343 -0.5126  0.3857
 9870TIP3    H251102   1.231   0.236  15.224 -0.7235  1.4126  1.3899
 9871TIP3   OH251103   4.161   0.299   3.395 -0.2412 -0.1726  0.4049
 9871TIP3    H151104   4.141   0.225   3.452 -0.5971 -1.1931 -1.0327
 9871TIP3    H251105   4.088   0.359   3.407  0.2928  0.1925  1.9489
 9872TIP3   OH251106   1.499   2.649   4.184 -0.1300 -0.3209  0.2511
 9872TIP3    H151107   1.435   2.714   4.155 -0.4982  0.0260  1.8064
 9872TIP3    H251108   1.558   2.696   4.243  1.1581 -0.7992 -0.6321
 9873TIP3   OH251109   3.889   5.082   5.746  0.8054  0.3062  0.3838
 9873TIP3    H151110   3.949   5.049   5.812  0.9586 -0.9869 -0.4035
 9873TIP3    H251111   3.906   5.029   5.668 -0.5603  0.6784 -0.1848
 9874TIP3   OH251112   0.284   6.611   3.509  0.0069  0.1060 -0.1206
 9874TIP3    H151113   0.286   6.517   3.527 -0.9516  0.2500  0.7921
 9874TIP3    H251114   0.297   6.652   3.595  0.6044  0.8043 -0.5432
 9875TIP3   OH251115   4.677   0.504  12.875  0.1803  0.0623  0.1694
 9875TIP3    H151116   4.647   0.428  12.925  0.9235 -0.4847 -0.2137
 9875TIP3    H251117   4.640   0.579  12.922  0.5073 -0.4668  1.2930
 9876TIP3   OH251118   0.624   4.778   2.611  0.3854 -0.1223  0.2633
 9876TIP3    H151119   0.649   4.869   2.629 -0.0839  0.1820 -0.6039
 9876TIP3    H251120   0.554   4.785   2.547 -0.8760 -1.0431  1.5252
 9877TIP3   OH251121   4.594   3.644  12.434 -0.0572  0.4786 -0.1318
 9877TIP3    H151122   4.596   3.645  12.529 -1.4821 -0.4523 -0.0697
 9877TIP3    H251123   4.503   3.620  12.412  0.8355 -1.5923 -1.6989
 9878TIP3   OH251124   1.416   0.320   2.957 -0.2853 -0.7524 -0.6352
 9878TIP3    H151125   1.499   0.292   2.919 -0.9353 -1.5106 -1.5093
 9878TIP3    H251126   1.428   0.311   3.051  0.3542 -1.5923 -0.7976
 9879TIP3   OH251127   2.454   5.692  17.120 -0.6351  0.3664 -0.1424
 9879TIP3    H151128   2.507   5.734  17.052  2.0702  1.9242  2.7719
 9879TIP3    H251129   2.512   5.625  17.158 -2.4266 -1.1208  0.0029
 9880TIP3   OH251130   2.009   3.162  14.912  0.2640 -1.0963 -0.2123
 9880TIP3    H151131   2.058   3.138  14.990  0.5505  2.6064  0.8269
 9880TIP3    H251132   1.919   3.176  14.943  0.2520 -0.1649 -0.6559
 9881TIP3   OH251133   1.723   3.663  15.394 -0.1695  0.5100 -0.3125
 9881TIP3    H151134   1.762   3.616  15.321  0.1751  0.2971  0.0053
 9881TIP3    H251135   1.784   3.735  15.412 -1.6329  2.2515 -2.0381
 9882TIP3   OH251136   3.683   1.260  11.831  0.2928  0.5686  0.0921
 9882TIP3    H151137   3.724   1.340  11.862 -1.6448  1.8471 -0.5729
 9882TIP3    H251138   3.747   1.221  11.772  0.0548  3.2222 -2.0030
 9883TIP3   OH251139   1.766   4.998  16.443 -0.0136 -0.9426  0.1532
 9883TIP3    H151140   1.758   5.012  16.349 -1.1381 -1.0187  0.2303
 9883TIP3    H251141   1.782   4.904  16.452  1.7192 -0.6762 -0.0434
 9884TIP3   OH251142   3.997   5.795  16.297 -0.1199  0.2214  0.9010
 9884TIP3    H151143   3.911   5.800  16.339 -0.5623 -0.3768  0.0696
 9884TIP3    H251144   3.979   5.811  16.205  0.4312 -1.6519  0.4508
 9885TIP3   OH251145   3.193   1.004   0.224  0.3381 -0.0361 -0.0231
 9885TIP3    H151146   3.178   1.095   0.251 -0.2407 -0.2368  0.3490
 9885TIP3    H251147   3.127   0.988   0.157  0.4361 -0.1796 -0.0852
 9886TIP3   OH251148   6.185   5.520   2.701 -0.8330 -0.4012 -0.0565
 9886TIP3    H151149   6.222   5.604   2.673 -0.0173 -0.7248  0.0198
 9886TIP3    H251150   6.114   5.503   2.639 -1.1208  0.4318  0.0392
 9887TIP3   OH251151   4.586   3.859  10.932 -0.5622 -0.4722 -0.2124
 9887TIP3    H151152   4.639   3.779  10.923  0.7198  0.2123  1.0815
 9887TIP3    H251153   4.650   3.929  10.946 -1.6743  0.8137 -1.4993
 9888TIP3   OH251154   3.004   5.207   0.728 -0.3120 -0.1973 -0.3557
 9888TIP3    H151155   3.069   5.175   0.665 -0.3807 -0.3659 -0.3417
 9888TIP3    H251156   3.006   5.302   0.717 -1.2742 -0.3012 -1.5703
 9889TIP3   OH251157   1.628   5.310  14.445 -0.3715 -0.4508 -0.0819
 9889TIP3    H151158   1.542   5.269  14.436 -1.0301  0.5394  1.4040
 9889TIP3    H251159   1.627   5.381  14.380 -0.7593 -0.3153  0.0700
 9890TIP3   OH251160   6.259   2.316  13.950  0.6086  0.1925  0.7261
 9890TIP3    H151161   6.230   2.319  13.859  1.7117  0.7743  0.3917
 9890TIP3    H251162   6.324   2.245  13.952  0.3292 -0.0529  1.1348
 9891TIP3   OH251163   2.423   3.965   1.101  0.1004 -0.8005  0.1777
 9891TIP3    H151164   2.420   3.971   1.197 -1.5754  0.9575  0.0628
 9891TIP3    H251165   2.359   3.897   1.080 -1.4924  0.6647  0.2025
 9892TIP3   OH251166   6.525   2.145  15.507 -0.3870  0.1160 -0.5013
 9892TIP3    H151167   6.503   2.145  15.600 -0.3849  0.9932 -0.4932
 9892TIP3    H251168   6.443   2.167  15.462 -0.4183 -0.4239 -0.7193
 9893TIP3   OH251169   0.544   2.470  12.658  0.6312  0.2401 -0.5801
 9893TIP3    H151170   0.584   2.515  12.584 -0.2941 -1.6656 -2.3015
 9893TIP3    H251171   0.613   2.466  12.724  1.2888  2.4527 -1.1142
 9894TIP3   OH251172   6.502   5.551  11.812  0.6976  0.4630  0.2663
 9894TIP3    H151173   6.582   5.568  11.862  0.4012  0.0726  0.8797
 9894TIP3    H251174   6.435   5.537  11.879  0.3128 -0.1380 -0.2435
 9895TIP3   OH251175   5.905   4.264   1.086  0.1472 -0.1140  0.1907
 9895TIP3    H151176   5.814   4.290   1.099  0.7322  1.7186  0.7085
 9895TIP3    H251177   5.948   4.341   1.050  1.6778 -0.6847  0.7223
 9896TIP3   OH251178   4.343   0.689   4.401 -0.3782 -0.5923 -0.7213
 9896TIP3    H151179   4.314   0.647   4.482  0.0225  0.5102 -0.0016
 9896TIP3    H251180   4.431   0.722   4.420 -1.4363  2.3300 -0.5977
 9897TIP3   OH251181   2.691   5.437  13.914  0.3394  0.1207 -0.4774
 9897TIP3    H151182   2.660   5.515  13.960 -1.5441  0.9944 -3.1499
 9897TIP3    H251183   2.612   5.389  13.891  1.3116 -0.9877 -1.5872
 9898TIP3   OH251184   3.885   6.286  15.969  0.0547 -0.0270 -0.0535
 9898TIP3    H151185   3.951   6.259  16.033 -1.8894 -0.4583  1.8134
 9898TIP3    H251186   3.871   6.207  15.916 -0.0134 -0.3832  0.4847
 9899TIP3   OH251187   2.425   0.308   3.381  0.7618  0.2297 -0.0449
 9899TIP3    H151188   2.489   0.239   3.397  1.4448  1.3022  2.1187
 9899TIP3    H251189   2.468   0.366   3.318  1.9287  0.8548  1.2656
 9900TIP3   OH251190   3.024   2.703  12.123  0.1152 -0.2071  0.0065
 9900TIP3    H151191   3.007   2.629  12.064 -0.8753  0.8289 -1.0369
 9900TIP3    H251192   2.945   2.709  12.176  0.0959  0.2655 -0.0802
 9901TIP3   OH251193   5.197   3.932  15.424 -0.2137 -0.6579  0.2427
 9901TIP3    H151194   5.172   3.891  15.341 -0.8120  0.7683 -0.3164
 9901TIP3    H251195   5.255   3.869  15.466 -1.4875 -2.2703 -0.3526
 9902TIP3   OH251196   6.245   5.443  12.456  0.0248  0.2963 -0.0223
 9902TIP3    H151197   6.194   5.362  12.454  2.3526 -1.2013 -2.6811
 9902TIP3    H251198   6.253   5.464  12.549 -1.8256 -1.7208  0.6457
 9903TIP3   OH251199   4.519   3.334   5.176  0.0524  0.4341  0.1711
 9903TIP3    H151200   4.610   3.347   5.200  1.0906 -3.6465 -1.2476
 9903TIP3    H251201   4.500   3.406   5.115  2.7355  0.5460 -0.5911
 9904TIP3   OH251202   0.275   1.731   2.800  0.1508  0.4982 -0.1539
 9904TIP3    H151203   0.360   1.699   2.830  0.1880  0.8734  0.1424
 9904TIP3    H251204   0.232   1.765   2.879  0.5369  2.1405 -0.6278
 9905TIP3   OH251205   5.550   3.580   2.059 -0.3124 -0.6651  0.0866
 9905TIP3    H151206   5.637   3.598   2.092 -0.4007 -2.4835  1.4366
 9905TIP3    H251207   5.533   3.648   1.994  0.7820  1.6884  2.1781
 9906TIP3   OH251208   1.043   1.308   5.672  0.1308 -0.0736  0.0892
 9906TIP3    H151209   0.973   1.373   5.672  0.1200 -0.0724  1.6032
 9906TIP3    H251210   1.057   1.288   5.764  0.6844 -1.6289 -0.3168
 9907TIP3   OH251211   0.694   3.205  13.822  0.4584 -0.0226 -0.1938
 9907TIP3    H151212   0.599   3.198  13.823  0.4190  0.3631 -0.8413
 9907TIP3    H251213   0.712   3.298  13.833  0.7074  0.1370 -1.8028
 9908TIP3   OH251214   2.173   1.629  14.052 -0.1200 -0.4918 -0.1471
 9908TIP3    H151215   2.211   1.714  14.030  1.1818 -0.9663  0.2077
 9908TIP3    H251216   2.232   1.593  14.118  0.2751 -2.3816 -1.4837
 9909TIP3   OH251217   1.300   3.895   0.847  0.2901  0.0634 -0.7605
 9909TIP3    H151218   1.301   3.969   0.907 -0.5211  0.6055 -1.4049
 9909TIP3    H251219   1.221   3.907   0.795  1.1242 -0.2473 -2.1307
 9910TIP3   OH251220   2.243   3.677   3.851 -0.4181  0.0966  0.0365
 9910TIP3    H151221   2.193   3.621   3.791 -0.6748  0.2780  0.0783
 9910TIP3    H251222   2.209   3.656   3.938 -2.7588  2.5596 -0.2166
 9911TIP3   OH251223   1.378   5.412   5.503 -0.2216  0.0339  0.1996
 9911TIP3    H151224   1.359   5.433   5.412 -3.2185 -1.6403  0.3576
 9911TIP3    H251225   1.434   5.483   5.534  0.0062  1.1289 -2.6564
 9912TIP3   OH251226   0.040   5.647  14.595 -0.0145 -0.1186 -0.0034
 9912TIP3    H151227  -0.039   5.654  14.542  1.0608  0.6781 -1.5396
 9912TIP3    H251228   0.073   5.559  14.577  0.0878 -0.0220 -0.2960
 9913TIP3   OH251229   5.828   0.512   5.802 -0.1094 -0.7336  0.3495
 9913TIP3    H151230   5.773   0.520   5.879 -0.2818  0.4656  0.1189
 9913TIP3    H251231   5.840   0.418   5.790 -0.8809 -0.9539  1.2626
 9914TIP3   OH251232   2.131   1.322   0.589 -0.1771  0.0388  0.6406
 9914TIP3    H151233   2.132   1.265   0.512 -3.9458 -3.7210  3.1122
 9914TIP3    H251234   2.049   1.371   0.581 -0.0077  0.4942  1.6146
 9915TIP3   OH251235   0.220   6.044   6.085 -0.1217 -0.0028  0.3826
 9915TIP3    H151236   0.241   6.128   6.043  0.9009 -0.0550  0.7805
 9915TIP3    H251237   0.124   6.040   6.084 -0.1554  0.8390 -0.2902
 9916TIP3   OH251238   6.490   3.241  12.971  0.3803 -0.1461 -0.2079
 9916TIP3    H151239   6.434   3.275  13.041  0.9430  1.5292 -0.5303
 9916TIP3    H251240   6.570   3.294  12.977  0.8904 -0.7539 -1.3962
 9917TIP3   OH251241   5.738   6.644   1.847 -0.0269 -0.0279 -0.6576
 9917TIP3    H151242   5.653   6.621   1.809 -0.9996  2.2193  0.0793
 9917TIP3    H251243   5.742   6.595   1.929 -0.8971  0.3199 -0.3989
 9918TIP3   OH251244   5.909   0.081  14.002  0.6283 -0.0226 -0.1044
 9918TIP3    H151245   5.933   0.172  14.020 -0.9540  0.7163 -1.5969
 9918TIP3    H251246   5.814   0.078  14.014  0.5069 -1.1864 -1.2372
 9919TIP3   OH251247   6.621   1.899  14.099  0.6997 -0.1284 -0.1485
 9919TIP3    H151248   6.607   1.841  14.174  0.3699  0.7891  0.5066
 9919TIP3    H251249   6.636   1.839  14.026 -2.0451 -1.1389  0.0240
 9920TIP3   OH251250   1.425   3.009   5.321 -0.0958 -0.1219  0.3521
 9920TIP3    H151251   1.463   3.084   5.275 -1.4382  0.5994  0.3881
 9920TIP3    H251252   1.436   3.029   5.414  0.2193 -0.3224  0.3581
 9921TIP3   OH251253   1.506   0.275  11.696 -0.0506  0.7431 -0.0262
 9921TIP3    H151254   1.546   0.200  11.651 -0.2761  0.2710  0.5552
 9921TIP3    H251255   1.413   0.268  11.675  0.0447  1.3588 -0.6804
 9922TIP3   OH251256   2.427   6.078   5.066 -0.3058 -0.3454  0.3639
 9922TIP3    H151257   2.464   6.048   5.149 -0.9169 -1.4716  0.2300
 9922TIP3    H251258   2.368   6.008   5.039 -0.4601  0.2231 -0.7955
 9923TIP3   OH251259   1.270   1.988  14.635  0.1232  0.2328 -0.5716
 9923TIP3    H151260   1.337   1.932  14.675 -0.2441 -0.1757 -0.5204
 9923TIP3    H251261   1.242   1.940  14.556 -0.0683  0.4248 -0.6234
 9924TIP3   OH251262   1.422   0.491   4.004  0.3339 -0.4186 -0.1346
 9924TIP3    H151263   1.397   0.449   3.922  1.6101  0.6059 -1.0630
 9924TIP3    H251264   1.501   0.446   4.032 -0.9151 -1.7513  1.3220
 9925TIP3   OH251265   5.680   5.960   4.798  0.2770 -0.0902  0.7700
 9925TIP3    H151266   5.654   6.051   4.811  0.3529 -0.0650  0.7467
 9925TIP3    H251267   5.703   5.955   4.705  1.3648  0.1440  1.0222
 9926TIP3   OH251268   1.711   3.823  14.535  0.6031 -0.0293  0.4635
 9926TIP3    H151269   1.752   3.739  14.558 -0.7889 -0.4926  1.2897
 9926TIP3    H251270   1.739   3.839  14.445  2.9572 -0.1125  1.1532
 9927TIP3   OH251271   0.708   3.800   1.810 -0.2546  0.0540 -0.2556
 9927TIP3    H151272   0.634   3.854   1.838 -0.9778  0.2532 -2.4485
 9927TIP3    H251273   0.690   3.714   1.847 -2.8346 -0.5144 -2.6375
 9928TIP3   OH251274   6.572   3.527   4.006 -0.5011  0.2711 -0.2286
 9928TIP3    H151275   6.552   3.553   3.916 -0.1340  1.3973  0.0017
 9928TIP3    H251276   6.496   3.474   4.033 -1.3025  1.1576 -0.7072
 9929TIP3   OH251277   6.276   6.702   1.374  0.1739  0.1955  0.0204
 9929TIP3    H151278   6.193   6.749   1.387 -0.9110 -1.6752  0.0853
 9929TIP3    H251279   6.335   6.767   1.336 -1.8712  1.1187 -1.7132
 9930TIP3   OH251280   2.645   3.779   4.217  0.2603 -0.5773  0.3285
 9930TIP3    H151281   2.636   3.873   4.229  1.3312 -0.1759 -1.7724
 9930TIP3    H251282   2.704   3.751   4.287 -0.2628  0.2547  1.1169
 9931TIP3   OH251283   5.008   3.335  15.690  0.2212 -0.2566 -0.6051
 9931TIP3    H151284   4.980   3.296  15.607  0.2411  0.2057 -0.8300
 9931TIP3    H251285   4.942   3.402  15.709 -0.4390 -1.1769  0.3593
 9932TIP3   OH251286   3.722   4.843   0.658  0.4348  0.5870  0.2380
 9932TIP3    H151287   3.779   4.789   0.712  0.7463  2.1359  1.4960
 9932TIP3    H251288   3.747   4.823   0.568  2.4728  0.7174  0.7610
 9933TIP3   OH251289   5.591   1.385   4.187  0.4173 -0.5581  0.7131
 9933TIP3    H151290   5.665   1.420   4.137 -0.7501  1.1948  0.1555
 9933TIP3    H251291   5.615   1.401   4.278  0.4829  0.5615  0.5107
 9934TIP3   OH251292   6.397   0.008  13.052 -0.8453  0.2947  0.4070
 9934TIP3    H151293   6.403  -0.016  12.959 -0.5341 -0.1643  0.5454
 9934TIP3    H251294   6.375  -0.074  13.097  0.7433  0.1366  0.9426
 9935TIP3   OH251295   2.141   2.054   0.008  0.3131  0.3668 -0.4821
 9935TIP3    H151296   2.075   2.048  -0.061 -0.1312  2.3237 -0.2523
 9935TIP3    H251297   2.104   2.116   0.071  2.0810  0.9495 -0.0115
 9936TIP3   OH251298   0.646   1.352   3.019  0.3005 -0.6424  0.1475
 9936TIP3    H151299   0.598   1.297   3.081 -1.1507  0.4200  0.0043
 9936TIP3    H251300   0.679   1.424   3.072 -2.1540  1.0364 -0.4742
 9937TIP3   OH251301   1.130   6.007  16.464 -0.8189 -0.1181 -0.1956
 9937TIP3    H151302   1.085   5.936  16.510  1.2583 -1.2543  0.1491
 9937TIP3    H251303   1.088   6.087  16.496 -1.2132 -1.0470  1.6729
 9938TIP3   OH251304   3.104   2.810   3.829 -0.0294 -0.0779 -0.4548
 9938TIP3    H151305   3.087   2.851   3.744  0.5129 -0.2811 -0.6651
 9938TIP3    H251306   3.132   2.883   3.885  0.1365 -0.0270 -0.6023
 9939TIP3   OH251307   4.851   0.509  15.307  0.4036  0.4077 -0.2336
 9939TIP3    H151308   4.788   0.451  15.351  0.9606  0.2877  0.4187
 9939TIP3    H251309   4.893   0.453  15.242 -1.1505  0.8473 -1.6553
 9940TIP3   OH251310   5.110   0.129   5.378  0.1523  0.2399  0.2991
 9940TIP3    H151311   5.192   0.155   5.336 -0.3559 -0.1497 -0.9820
 9940TIP3    H251312   5.134   0.107   5.468  1.0671  2.2738  0.5623
 9941TIP3   OH251313   6.754   3.263  14.576 -0.8766 -0.2627  0.2378
 9941TIP3    H151314   6.699   3.244  14.500  2.0850  0.0297 -2.1011
 9941TIP3    H251315   6.787   3.178  14.604 -1.0135 -0.2488  0.4435
 9942TIP3   OH251316   3.823   0.258  15.153  0.0029  0.2155  0.3737
 9942TIP3    H151317   3.793   0.259  15.062  1.2807  0.9390 -0.0553
 9942TIP3    H251318   3.793   0.341  15.190  1.0257  0.7253  0.0823
 9943TIP3   OH251319   0.171   6.780   0.851 -0.0923 -0.0812 -0.1869
 9943TIP3    H151320   0.218   6.851   0.808  1.7446 -0.8282  0.5338
 9943TIP3    H251321   0.171   6.803   0.944  0.8883 -1.1896  0.1086
 9944TIP3   OH251322   5.057   2.614  11.529 -0.6760 -0.3686 -0.2163
 9944TIP3    H151323   5.052   2.654  11.443  3.3905 -0.1942 -0.4780
 9944TIP3    H251324   5.136   2.560  11.526 -0.0762  0.1481  3.5683
 9945TIP3   OH251325   5.748   4.827   4.985 -0.5519  0.7668 -0.2024
 9945TIP3    H151326   5.723   4.742   5.023  0.0589  0.4267 -0.5546
 9945TIP3    H251327   5.667   4.860   4.946 -0.7267  0.1886 -0.3444
 9946TIP3   OH251328   4.675   4.422  16.001  0.2721  0.5423  0.0788
 9946TIP3    H151329   4.695   4.382  16.086 -1.1003  1.8797  1.0522
 9946TIP3    H251330   4.759   4.424  15.956  0.8301 -1.1579  0.9661
 9947TIP3   OH251331   3.291   2.408  12.051  0.0188  0.2811  0.4436
 9947TIP3    H151332   3.230   2.363  12.110  1.1187 -0.3900  1.0749
 9947TIP3    H251333   3.349   2.339  12.020 -0.0108  0.7875 -0.7636
 9948TIP3   OH251334   6.360   0.174  11.337 -0.1808  0.3161 -0.0299
 9948TIP3    H151335   6.381   0.127  11.256 -0.1611  1.1351 -0.4969
 9948TIP3    H251336   6.445   0.202  11.371 -0.2345  0.4601 -0.0160
 9949TIP3   OH251337   5.350   0.638  15.582  0.2739  0.3440 -0.2270
 9949TIP3    H151338   5.337   0.592  15.499 -0.4827  1.9915 -1.0435
 9949TIP3    H251339   5.267   0.682  15.599  1.5257  2.9318 -0.4496
 9950TIP3   OH251340   4.087   3.042  11.554 -0.0320 -0.5153 -0.0911
 9950TIP3    H151341   4.161   3.006  11.602  0.1190 -1.2208 -0.8321
 9950TIP3    H251342   4.076   3.131  11.588 -0.4063 -1.2528  1.7759
 9951TIP3   OH251343   3.771   2.272   2.045  0.0895 -0.2887 -0.1675
 9951TIP3    H151344   3.701   2.291   2.107  0.1157 -0.4210 -0.0956
 9951TIP3    H251345   3.847   2.253   2.101 -0.2274 -1.7364 -0.2140
 9952TIP3   OH251346   5.605   4.657  12.346 -0.1541  0.3044  0.1790
 9952TIP3    H151347   5.571   4.575  12.310  2.6430 -0.3264 -1.1497
 9952TIP3    H251348   5.614   4.714  12.270 -0.6651  1.3607  0.8950
 9953TIP3   OH251349   4.030   0.424  16.241 -0.1206 -0.6891 -0.6231
 9953TIP3    H151350   3.974   0.347  16.228  0.7288 -1.4847  0.3193
 9953TIP3    H251351   3.988   0.493  16.191 -1.9426 -1.2816  0.0441
 9954TIP3   OH251352   4.653   6.718   4.399  0.1704 -0.3622 -0.4238
 9954TIP3    H151353   4.579   6.662   4.419 -0.0283  0.4657  1.2569
 9954TIP3    H251354   4.674   6.699   4.308 -1.1087 -1.7385 -0.4453
 9955TIP3   OH251355   6.130   3.809  14.367  0.0470 -0.3455 -0.1735
 9955TIP3    H151356   6.089   3.790  14.451  2.4982 -1.4836  0.8342
 9955TIP3    H251357   6.134   3.905  14.363  0.5823 -0.2880  1.3712
 9956TIP3   OH251358   4.866   6.514  12.762 -0.1764  0.0525 -0.0535
 9956TIP3    H151359   4.797   6.537  12.700 -0.6683  0.8307  0.7943
 9956TIP3    H251360   4.822   6.463  12.830  0.0876  0.5523  0.4893
 9957TIP3   OH251361   6.131   3.330   4.108 -0.2745 -0.5218 -0.2654
 9957TIP3    H151362   6.058   3.350   4.166 -2.3044 -0.8724 -2.6367
 9957TIP3    H251363   6.105   3.366   4.023  2.6652  0.0654 -0.9989
 9958TIP3   OH251364   3.816   5.696   2.591 -0.3312  0.3663 -0.1980
 9958TIP3    H151365   3.820   5.791   2.586  0.4594  0.3755  0.4543
 9958TIP3    H251366   3.794   5.668   2.502  0.0336  1.1282 -0.5309
 9959TIP3   OH251367   6.541   0.452   2.018  0.8800 -0.0649  0.0869
 9959TIP3    H151368   6.491   0.420   2.093  0.6341  0.9576  0.3588
 9959TIP3    H251369   6.621   0.489   2.056 -0.1027  2.1825  0.0192
 9960TIP3   OH251370   5.904   5.479   1.872  0.1242  0.0748  0.3070
 9960TIP3    H151371   5.931   5.479   1.963 -0.6486  0.7967  0.5468
 9960TIP3    H251372   5.980   5.512   1.824  0.9917 -1.5570  0.5310
 9961TIP3   OH251373   6.053   3.386   5.540 -0.0708  0.1946  0.0320
 9961TIP3    H151374   6.146   3.384   5.563  0.2081 -1.8506 -1.1066
 9961TIP3    H251375   6.047   3.451   5.470  0.2970  1.1995  0.9327
 9962TIP3   OH251376   3.931   2.653   0.234 -0.2302  0.4059  0.5255
 9962TIP3    H151377   3.976   2.577   0.269  0.2526  0.7886  0.7471
 9962TIP3    H251378   3.991   2.726   0.250  0.4282  0.4383 -2.0204
 9963TIP3   OH251379   0.398   0.189   6.690  0.5968  0.1294 -0.3686
 9963TIP3    H151380   0.435   0.182   6.778 -1.4214  0.8195  0.5599
 9963TIP3    H251381   0.462   0.144   6.634  2.8058  1.2515  1.1641
 9964TIP3   OH251382   3.768   5.578  14.457  0.2245 -0.2238  0.5144
 9964TIP3    H151383   3.713   5.510  14.498 -0.4629 -0.0987 -0.1979
 9964TIP3    H251384   3.848   5.578  14.510  0.8617 -2.6460 -0.3624
 9965TIP3   OH251385   3.940   3.009   1.135  0.0223  0.2824  0.1494
 9965TIP3    H151386   3.854   3.019   1.095  0.0844  0.7556  0.1315
 9965TIP3    H251387   3.951   2.915   1.145 -0.1990  0.1798 -0.5154
 9966TIP3   OH251388   3.757   1.378   5.993 -0.2398 -0.3042 -0.0376
 9966TIP3    H151389   3.773   1.467   6.024 -0.3131 -0.3878  0.2377
 9966TIP3    H251390   3.662   1.373   5.982 -0.4724 -1.0430  2.0514
 9967TIP3   OH251391   6.659   1.487   3.269  0.0631  0.8925 -0.2521
 9967TIP3    H151392   6.696   1.401   3.285  1.1575  1.3925 -0.0350
 9967TIP3    H251393   6.732   1.548   3.283 -0.6398  1.8352 -0.5937
 9968TIP3   OH251394   5.262   3.064  14.235  0.4236 -0.3942  0.5819
 9968TIP3    H151395   5.208   2.985  14.238  1.5859 -1.1998  0.4998
 9968TIP3    H251396   5.303   3.068  14.322 -2.1090  1.9108  1.7735
 9969TIP3   OH251397   1.227   5.444  12.088 -0.6245 -0.1100  0.2007
 9969TIP3    H151398   1.305   5.492  12.113 -0.4557  0.7195 -1.8362
 9969TIP3    H251399   1.154   5.497  12.120 -0.3716 -0.9816  2.2685
 9970TIP3   OH251400   3.880   4.193  16.924  0.3602  0.7762  0.6208
 9970TIP3    H151401   3.974   4.208  16.940  0.0064  3.2696  0.5447
 9970TIP3    H251402   3.876   4.159  16.835  1.2106  0.4152  0.7107
 9971TIP3   OH251403   5.418   3.360  15.037 -0.1823 -0.1564  0.0641
 9971TIP3    H151404   5.335   3.355  15.086 -0.1651 -0.4735  0.0607
 9971TIP3    H251405   5.476   3.410  15.094 -0.9171  1.6250 -0.6861
 9972TIP3   OH251406   5.935   0.466   1.233  0.4220 -0.3457 -0.3711
 9972TIP3    H151407   5.959   0.411   1.307  0.2471  0.2385  0.1217
 9972TIP3    H251408   5.967   0.554   1.256  0.9864 -0.3042 -1.2928
 9973TIP3   OH251409   4.542   3.085   2.869 -0.1467 -0.4340  0.0989
 9973TIP3    H151410   4.453   3.053   2.853 -0.8651  0.7633  1.5162
 9973TIP3    H251411   4.547   3.093   2.965  1.2633  0.1123 -0.0103
 9974TIP3   OH251412   0.767   1.598   0.944 -0.3407  0.4551 -0.5684
 9974TIP3    H151413   0.720   1.560   0.870  0.2896 -0.9385 -0.2660
 9974TIP3    H251414   0.795   1.523   0.996  0.6189  1.3489  0.2334
 9975TIP3   OH251415   1.601   5.546  14.608 -0.7725 -0.9933 -0.5387
 9975TIP3    H151416   1.530   5.482  14.616 -0.0778 -1.6094  0.8789
 9975TIP3    H251417   1.680   5.493  14.596 -0.4314 -0.3391 -1.2513
 9976TIP3   OH251418   3.109   6.690   5.878 -0.1404 -0.5187  0.0232
 9976TIP3    H151419   3.047   6.618   5.888  1.1104 -1.6204 -0.1099
 9976TIP3    H251420   3.072   6.743   5.807 -2.1004  0.0866  1.4471
 9977TIP3   OH251421   5.145   0.179   0.005 -0.5652 -0.4459  0.1916
 9977TIP3    H151422   5.067   0.230   0.028  0.8558  1.2340  1.4164
 9977TIP3    H251423   5.134   0.096   0.052 -0.6085  0.6070  2.0741
 9978TIP3   OH251424   5.646   6.752  12.286  0.4276  0.3027 -0.7215
 9978TIP3    H151425   5.722   6.721  12.237 -0.5994  1.3754 -3.0846
 9978TIP3    H251426   5.584   6.779  12.218 -1.9670 -0.3532  1.1824
 9979TIP3   OH251427   1.637   4.728  15.045 -0.1353  0.1548  0.4957
 9979TIP3    H151428   1.652   4.766  15.131  0.0948  0.0438  0.5040
 9979TIP3    H251429   1.542   4.737  15.031 -0.2232 -0.1543  0.9074
 9980TIP3   OH251430   4.001   6.518  10.904 -0.1228 -0.2344 -0.2356
 9980TIP3    H151431   3.997   6.561  10.990 -1.1586  0.8593 -0.8152
 9980TIP3    H251432   4.091   6.485  10.898  0.4024  1.0041  0.6260
 9981TIP3   OH251433   6.732   0.419   3.960 -0.0546  0.3820  0.0784
 9981TIP3    H151434   6.740   0.444   4.052  0.8080  0.3380  0.0143
 9981TIP3    H251435   6.812   0.371   3.941 -0.3630  0.1410 -0.6233
 9982TIP3   OH251436   4.789   0.549  13.239 -0.1388 -1.2641  0.1939
 9982TIP3    H151437   4.699   0.573  13.216  0.0086 -0.8528  0.0415
 9982TIP3    H251438   4.819   0.621  13.295  0.6708 -0.5420 -1.1383
 9983TIP3   OH251439   6.107   1.726  17.094 -0.5054 -0.7823 -0.4473
 9983TIP3    H151440   6.051   1.649  17.088  0.5960 -1.5974 -0.4974
 9983TIP3    H251441   6.135   1.743  17.005 -1.8925  0.5667 -0.6478
 9984TIP3   OH251442   3.287   3.514  13.032  0.1935 -0.6639 -0.1930
 9984TIP3    H151443   3.359   3.506  12.968  1.2634 -2.4847  1.1889
 9984TIP3    H251444   3.243   3.430  13.029  0.4976 -0.9006  1.7661
 9985TIP3   OH251445   5.620   6.136  16.647  0.3533 -0.2271  0.5116
 9985TIP3    H151446   5.637   6.209  16.588 -0.5762 -0.1379  0.3589
 9985TIP3    H251447   5.622   6.059  16.590  2.2409 -0.4356  0.8099
 9986TIP3   OH251448   4.830   4.916  12.393 -0.1491 -0.1207  0.4120
 9986TIP3    H151449   4.862   4.826  12.395 -0.3145 -0.1682  1.6661
 9986TIP3    H251450   4.901   4.967  12.433 -0.4191  0.1811  0.5062
 9987TIP3   OH251451   5.251   3.315   4.779  0.0187  0.3465  0.1572
 9987TIP3    H151452   5.266   3.397   4.732  1.6264 -0.1232 -0.1639
 9987TIP3    H251453   5.337   3.274   4.784 -0.7359 -1.2107  0.5372
 9988TIP3   OH251454   0.478   1.564  13.592  0.1921  0.1757 -0.2700
 9988TIP3    H151455   0.419   1.495  13.624  0.2851  0.7002  1.0572
 9988TIP3    H251456   0.420   1.632  13.560  0.0698  0.5324  0.6943
 9989TIP3   OH251457   1.564   5.603   4.708  0.0239  0.2144  0.1281
 9989TIP3    H151458   1.470   5.601   4.722 -0.2924  1.0130 -1.6985
 9989TIP3    H251459   1.579   5.534   4.643  0.8243 -0.4725  1.0206
 9990TIP3   OH251460   3.023   3.541   1.358 -0.0716 -0.0666 -0.5263
 9990TIP3    H151461   3.031   3.494   1.275  1.6840  0.0110 -0.4118
 9990TIP3    H251462   3.000   3.474   1.422  1.5274 -0.6377 -0.5347
 9991TIP3   OH251463   3.671   5.606  12.210  0.2871 -0.5144 -0.2842
 9991TIP3    H151464   3.703   5.689  12.246  1.0031 -1.0306  0.2680
 9991TIP3    H251465   3.708   5.602  12.121  0.0674 -0.1399 -0.3937
 9992TIP3   OH251466   2.837   4.398  16.041  0.3942 -0.0868  0.0039
 9992TIP3    H151467   2.789   4.375  15.962  0.2440  1.7862 -0.4494
 9992TIP3    H251468   2.776   4.379  16.112  0.6883 -2.1949 -0.2694
 9993TIP3   OH251469   0.912   6.207   2.715 -0.1254  0.4904 -0.7829
 9993TIP3    H151470   0.863   6.180   2.792 -0.7103  2.8278 -0.3008
 9993TIP3    H251471   0.921   6.127   2.663 -2.3370 -0.4854  0.2760
 9994TIP3   OH251472   6.564   2.839  11.883  0.8115 -0.2071 -0.2340
 9994TIP3    H151473   6.477   2.820  11.849  1.0606  0.2751 -1.1499
 9994TIP3    H251474   6.612   2.876  11.809  1.7225 -0.2384  0.3265
 9995TIP3   OH251475   3.837   1.451  11.918 -0.4539 -0.3434  0.1407
 9995TIP3    H151476   3.836   1.497  12.003 -0.9244  1.4542 -0.8146
 9995TIP3    H251477   3.929   1.446  11.895 -0.5230  2.2623 -0.8509
 9996TIP3   OH251478   5.335   5.635   0.169 -0.1698  0.7635 -0.0728
 9996TIP3    H151479   5.338   5.675   0.256  1.1538  0.1272  0.1756
 9996TIP3    H251480   5.404   5.569   0.170 -0.8374  0.0339 -1.2561
 9997TIP3   OH251481   6.263   6.003   5.340  0.7744 -0.0950  0.7848
 9997TIP3    H151482   6.325   6.048   5.283  0.9084 -1.3120 -0.0300
 9997TIP3    H251483   6.183   5.997   5.289  0.0246  1.2890  1.7592
 9998TIP3   OH251484   0.027   2.744  17.040 -0.2606  0.0933  0.5571
 9998TIP3    H151485   0.056   2.732  16.950  0.9239 -1.6065  1.1375
 9998TIP3    H251486  -0.047   2.684  17.049 -0.5550  0.4691  0.6253
 9999TIP3   OH251487   3.102   2.029   0.390  0.1410  0.8532  1.1723
 9999TIP3    H151488   3.170   2.091   0.419  0.7029  1.3455 -1.0817
 9999TIP3    H251489   3.023   2.083   0.382  0.1017  0.8134  1.2836
10000TIP3   OH251490   0.393   1.458   3.924 -0.7546  0.0797 -0.3256
10000TIP3    H151491   0.347   1.436   3.843 -0.0098  0.5645 -0.8888
10000TIP3    H251492   0.379   1.382   3.981 -2.0716  0.1419 -0.5601
10001TIP3   OH251493   0.661   1.883  17.218 -0.6300 -0.3549 -0.4102
10001TIP3    H151494   0.732   1.881  17.154  0.4945 -2.5480  0.8341
10001TIP3    H251495   0.696   1.836  17.294 -2.5334  0.6976  1.1903
10002TIP3   OH251496   0.795   6.768  11.805 -0.4157  0.4046 -0.0884
10002TIP3    H151497   0.742   6.827  11.752 -0.3071  1.0241  0.4884
10002TIP3    H251498   0.852   6.826  11.856  1.0009 -0.2574 -0.8852
10003TIP3   OH251499   0.824   2.369  15.448  0.5909  0.1801  1.4047
10003TIP3    H151500   0.882   2.297  15.424  0.3371  0.0207  1.2769
10003TIP3    H251501   0.859   2.445  15.400 -0.5586 -0.3598 -0.3283
10004TIP3   OH251502   2.353   4.759   4.330 -0.2397 -0.0680 -0.0187
10004TIP3    H151503   2.350   4.716   4.245  0.4392  2.5045 -1.3865
10004TIP3    H251504   2.414   4.832   4.318 -0.3686  0.5193  2.5924
10005TIP3   OH251505   5.762   6.658   2.139  0.0561 -0.1619  0.2299
10005TIP3    H151506   5.858   6.660   2.132 -0.0092  1.9512 -0.6356
10005TIP3    H251507   5.744   6.595   2.208  2.1233  0.1859  1.1298
10006TIP3   OH251508   5.689   4.553  14.811  0.1474 -0.0711 -0.1985
10006TIP3    H151509   5.623   4.493  14.776 -0.1468  1.5166 -2.5502
10006TIP3    H251510   5.762   4.497  14.836 -0.5623 -1.5110 -1.2524
10007TIP3   OH251511   2.921   1.143   2.274  0.5736  0.4459  0.0254
10007TIP3    H151512   2.883   1.220   2.232  1.1890 -0.1568 -1.6628
10007TIP3    H251513   3.014   1.148   2.253  0.6490 -0.6539  0.0675
10008TIP3   OH251514   0.669   4.896   4.688 -0.0557 -0.4751 -0.0551
10008TIP3    H151515   0.660   4.987   4.660 -0.6472 -1.1139 -2.0329
10008TIP3    H251516   0.591   4.853   4.655  0.9713 -2.0193 -0.5259
10009TIP3   OH251517   3.298   5.831   1.787  0.5572  0.2162 -0.0210
10009TIP3    H151518   3.321   5.883   1.863  0.8375  0.0288  0.0243
10009TIP3    H251519   3.213   5.864   1.759  1.2749  1.5039 -0.7196
10010TIP3   OH251520   6.273   6.088   4.494 -0.4308 -0.6874  0.4138
10010TIP3    H151521   6.361   6.102   4.458 -0.7284 -1.8301 -0.8305
10010TIP3    H251522   6.228   6.171   4.479 -0.3073 -0.8852 -1.2018
10011TIP3   OH251523   2.069   4.258  13.611 -0.2797 -0.3586  0.2170
10011TIP3    H151524   2.076   4.333  13.670 -0.0882 -0.4649  0.3292
10011TIP3    H251525   2.127   4.193  13.649 -2.6757 -1.6661  1.7906
10012TIP3   OH251526   0.002   0.179  13.314  0.7760  1.0515 -0.3788
10012TIP3    H151527  -0.028   0.245  13.251  0.4422  0.3651 -0.9319
10012TIP3    H251528   0.034   0.107  13.261 -2.6913 -1.0091  0.1740
10013TIP3   OH251529   0.294   6.001  11.560  0.5093 -0.1817  0.0197
10013TIP3    H151530   0.311   5.958  11.476 -0.4692  0.1280 -0.3418
10013TIP3    H251531   0.283   6.093  11.538 -0.5441 -0.2162  0.3741
10014TIP3   OH251532   0.132   2.469   3.391 -0.4294  0.1067  0.2123
10014TIP3    H151533   0.102   2.384   3.422 -0.2433  0.2559  0.8139
10014TIP3    H251534   0.227   2.465   3.399 -0.3835  0.1555 -0.3200
10015TIP3   OH251535   3.089   1.096  13.344 -0.5598 -0.1979 -0.2954
10015TIP3    H151536   3.115   1.183  13.372 -1.6147  0.5608 -1.6333
10015TIP3    H251537   3.170   1.057  13.310 -0.0725  0.2149  0.3713
10016TIP3   OH251538   4.567   6.070   4.111 -0.0320  0.1599  0.1478
10016TIP3    H151539   4.481   6.112   4.102 -0.2337 -0.2927 -0.0322
10016TIP3    H251540   4.630   6.141   4.094 -0.3724 -0.1357 -2.5522
10017TIP3   OH251541   4.430   1.863  16.595 -0.2432  0.2541  0.7166
10017TIP3    H151542   4.492   1.790  16.600  0.9308  0.9678 -2.1325
10017TIP3    H251543   4.356   1.829  16.545  0.6890  1.1703 -1.3905
10018TIP3   OH251544   3.143   6.086  17.117 -0.3493 -0.0771  0.0255
10018TIP3    H151545   3.067   6.055  17.167  0.7602  0.1602  1.9192
10018TIP3    H251546   3.112   6.090  17.027 -2.3927 -0.6306  0.6618
10019TIP3   OH251547   2.085   1.988   5.291 -0.0149  0.8681 -0.1731
10019TIP3    H151548   2.102   2.075   5.257 -2.7180  1.3987 -0.2384
10019TIP3    H251549   2.108   1.929   5.219  0.0290  1.6163 -0.7673
10020TIP3   OH251550   1.211   2.542  11.664  0.2058  1.0711  0.5581
10020TIP3    H151551   1.205   2.449  11.644  2.1870  0.6386  1.7986
10020TIP3    H251552   1.194   2.586  11.581  1.4137 -0.4701 -0.5272
10021TIP3   OH251553   5.137   6.107   4.349  0.3191 -0.1129  0.1491
10021TIP3    H151554   5.157   6.121   4.256 -1.2770 -0.1769 -0.2090
10021TIP3    H251555   5.197   6.166   4.395  1.3140 -0.2774 -0.9015
10022TIP3   OH251556   1.141   1.406  14.277  0.3557  0.1921  0.2302
10022TIP3    H151557   1.161   1.497  14.252  1.9086  0.3703  1.9979
10022TIP3    H251558   1.219   1.377  14.325 -0.3333 -1.9281  0.1010
10023TIP3   OH251559   3.892   1.408  16.811  0.2111  0.3083 -0.2418
10023TIP3    H151560   3.900   1.488  16.863 -3.8137  1.0160 -0.5431
10023TIP3    H251561   3.909   1.437  16.721  0.2394  0.5312 -0.1660
10024TIP3   OH251562   0.218   5.770   4.741 -0.2973  0.4503  0.0370
10024TIP3    H151563   0.262   5.684   4.741 -1.5332 -0.1966  1.0602
10024TIP3    H251564   0.141   5.757   4.687 -2.0431  0.0626  2.5100
10025TIP3   OH251565   3.009   2.483  17.201  0.5058  0.0650  0.0612
10025TIP3    H151566   2.981   2.392  17.207  0.6107  0.0984  1.2061
10025TIP3    H251567   2.954   2.521  17.133  0.6045 -0.8966 -0.5685
10026TIP3   OH251568   5.292   4.882  15.205  0.4307 -0.0880  0.1762
10026TIP3    H151569   5.288   4.829  15.126  1.1830 -0.5278  0.4298
10026TIP3    H251570   5.204   4.919  15.214 -0.0060 -1.0288 -0.1767
10027TIP3   OH251571   3.220   4.587   6.154  0.6479 -0.0265  0.4955
10027TIP3    H151572   3.189   4.550   6.072  1.6811  3.6135 -1.6831
10027TIP3    H251573   3.141   4.613   6.201  0.0894  1.7566 -1.3405
10028TIP3   OH251574   0.654   4.280  13.684 -0.2332 -0.2167 -0.3289
10028TIP3    H151575   0.698   4.195  13.680  1.3867  0.6060 -0.4653
10028TIP3    H251576   0.636   4.302  13.593 -0.3298 -0.2555 -0.3191
10029TIP3   OH251577   6.407   2.365   5.341 -0.6625 -0.2752 -0.5460
10029TIP3    H151578   6.357   2.446   5.355  0.0062  0.1528 -0.6486
10029TIP3    H251579   6.355   2.316   5.277 -0.9327  0.1936 -0.6890
10030TIP3   OH251580   0.298   5.371   3.885 -0.4341  0.1211 -0.1532
10030TIP3    H151581   0.295   5.283   3.921 -1.1881  0.4792  0.6895
10030TIP3    H251582   0.354   5.364   3.807  0.9753 -0.7248  0.9177
10031TIP3   OH251583   2.487   0.720   5.206  0.3134  0.1697  0.2685
10031TIP3    H151584   2.439   0.642   5.233  1.5071 -0.9411 -0.7217
10031TIP3    H251585   2.462   0.787   5.270  1.1488 -1.6862  2.6531
10032TIP3   OH251586   5.922   0.921   5.465 -0.0866  0.1792  0.0926
10032TIP3    H151587   5.836   0.957   5.488  0.7775  0.8773  2.3944
10032TIP3    H251588   5.911   0.826   5.471 -1.6447  0.0668 -3.2863
10033TIP3   OH251589   5.436   1.408  12.403  0.5194 -0.1985  0.3006
10033TIP3    H151590   5.398   1.490  12.372 -0.8436 -1.8110 -2.5321
10033TIP3    H251591   5.507   1.390  12.341  1.8619 -0.3892  1.8450
10034TIP3   OH251592   1.877   1.859   4.945 -0.2759  0.2811  0.6949
10034TIP3    H151593   1.916   1.850   4.858  0.6736 -0.1558  1.1608
10034TIP3    H251594   1.803   1.799   4.944 -1.5918  1.8390 -0.5348
10035TIP3   OH251595   2.730   5.190  13.285 -0.3432 -0.8409 -0.7242
10035TIP3    H151596   2.757   5.102  13.314 -0.4450 -1.6009 -2.8051
10035TIP3    H251597   2.775   5.249  13.344  0.0351 -2.3022  0.4875
10036TIP3   OH251598   3.439   2.916   0.598 -0.0958 -0.2013  0.6375
10036TIP3    H151599   3.388   2.895   0.677  0.5360  1.8161  1.6299
10036TIP3    H251600   3.528   2.890   0.619  0.0159  0.0513  0.4784
10037TIP3   OH251601   4.452   0.038  14.965  0.5526  0.3435  0.2243
10037TIP3    H151602   4.478   0.130  14.969  1.0949  0.2432 -0.8424
10037TIP3    H251603   4.470   0.005  15.053 -2.2621  1.9266  1.4715
10038TIP3   OH251604   5.382   2.743  15.700  0.4841 -0.2669  0.4510
10038TIP3    H151605   5.330   2.762  15.622  0.5527 -0.0648  0.4543
10038TIP3    H251606   5.362   2.651  15.720  0.1268 -0.1887  0.4554
10039TIP3   OH251607   5.082   6.540  15.342 -0.1628  0.5591 -0.1809
10039TIP3    H151608   5.061   6.610  15.405  1.2405 -0.7523  1.8244
10039TIP3    H251609   5.130   6.585  15.272 -2.1586  2.1307 -0.6007
10040TIP3   OH251610   4.168   5.174  13.050  0.4348 -0.0322 -0.1169
10040TIP3    H151611   4.108   5.153  12.978  0.4702 -0.3120 -0.0654
10040TIP3    H251612   4.154   5.267  13.067 -0.4153 -0.2357  0.2938
10041TIP3   OH251613   5.965   2.419  16.391 -0.5345 -0.0114 -0.1242
10041TIP3    H151614   5.896   2.354  16.379  0.5153 -0.8699 -1.7598
10041TIP3    H251615   5.934   2.476  16.461 -2.6416 -0.7181 -0.4744
10042TIP3   OH251616   6.419   5.385  15.296  0.2526  0.3929  0.2883
10042TIP3    H151617   6.469   5.467  15.294 -0.6789  0.9709  0.6706
10042TIP3    H251618   6.343   5.402  15.241  0.9750 -0.8312 -1.1398
10043TIP3   OH251619   3.657   1.192   5.688  0.0369 -0.2386 -0.6259
10043TIP3    H151620   3.632   1.099   5.683 -1.1625  0.0643 -0.3908
10043TIP3    H251621   3.640   1.225   5.600 -2.7289  0.5397  0.1694
10044TIP3   OH251622   5.064   2.933   3.473  0.6683  0.1315 -0.3094
10044TIP3    H151623   5.106   3.019   3.464 -1.3273  1.2563  0.7937
10044TIP3    H251624   5.027   2.916   3.386 -0.7552  1.3991  0.0153
10045TIP3   OH251625   2.972   4.283   4.140 -0.0796 -0.2309  0.7882
10045TIP3    H151626   2.901   4.239   4.093 -0.2606  1.8285 -0.9293
10045TIP3    H251627   2.928   4.347   4.195  0.3989  0.4451  0.3835
10046TIP3   OH251628   0.114   0.779   3.429  0.9239 -0.0410  0.1247
10046TIP3    H151629   0.120   0.684   3.440  0.2629  0.1086  2.1088
10046TIP3    H251630   0.109   0.792   3.335 -0.2610 -2.0667 -0.1316
10047TIP3   OH251631   2.784   0.707   4.785  0.1180  0.4881 -0.3376
10047TIP3    H151632   2.759   0.763   4.711  0.4974  0.8309 -0.2092
10047TIP3    H251633   2.704   0.659   4.807 -0.4365  1.5808  0.0819
10048TIP3   OH251634   0.070   6.076  12.673  1.1088  0.4295 -0.2497
10048TIP3    H151635   0.046   6.166  12.694  1.8193  0.6096 -0.1886
10048TIP3    H251636   0.166   6.077  12.669  1.0499  0.1480 -2.3076
10049TIP3   OH251637   4.319   1.189  11.929  0.4499  0.0683 -0.4032
10049TIP3    H151638   4.302   1.096  11.916 -0.0031  0.1736 -0.5553
10049TIP3    H251639   4.405   1.191  11.972  0.8863 -0.3753 -1.2530
10050TIP3   OH251640   3.767   3.549   4.011  0.1799 -0.7295  0.5328
10050TIP3    H151641   3.804   3.502   3.936  0.1036  0.6172 -0.3588
10050TIP3    H251642   3.784   3.641   3.992 -1.6015 -0.2523  1.2086
10051TIP3   OH251643   5.983   1.487  12.715 -1.0121 -0.6807 -0.7869
10051TIP3    H151644   5.909   1.495  12.775  0.7960 -0.8152  1.5479
10051TIP3    H251645   6.032   1.412  12.748  2.9056  2.4440  0.8861
10052TIP3   OH251646   6.689   4.881   3.941 -0.4570  0.0290  0.2818
10052TIP3    H151647   6.696   4.897   3.846 -1.8651  0.4361  0.2310
10052TIP3    H251648   6.772   4.840   3.964 -0.3419 -0.6521 -1.2477
10053TIP3   OH251649   5.810   3.879   4.351 -0.2024  0.8050  0.3315
10053TIP3    H151650   5.757   3.958   4.363 -1.2250 -0.0253  1.3273
10053TIP3    H251651   5.811   3.837   4.437 -0.2621 -0.6338 -0.3563
10054TIP3   OH251652   3.566   5.454   2.136  0.3683  0.5354 -0.1912
10054TIP3    H151653   3.591   5.535   2.179  1.1655 -0.7683  1.8903
10054TIP3    H251654   3.471   5.450   2.143  0.3615  1.1242  0.0048
10055TIP3   OH251655   1.662   4.841   4.392 -0.0354 -0.3682 -0.0192
10055TIP3    H151656   1.607   4.866   4.318  0.4743  0.9248  0.0231
10055TIP3    H251657   1.611   4.775   4.439 -1.0266 -0.0638 -0.6533
10056TIP3   OH251658   4.266   4.218   2.362 -0.1834  0.5243  0.3196
10056TIP3    H151659   4.192   4.277   2.374  0.5768  1.4902  0.2626
10056TIP3    H251660   4.278   4.177   2.447 -0.6223  0.5454  0.3946
10057TIP3   OH251661   6.647   3.831   2.654  0.2858 -0.3687  0.1730
10057TIP3    H151662   6.726   3.781   2.675  1.6344  2.1308  1.3225
10057TIP3    H251663   6.658   3.855   2.562  0.8345 -0.0921  0.3092
10058TIP3   OH251664   1.040   2.286   5.917 -0.1113  0.0425  0.5166
10058TIP3    H151665   0.991   2.237   5.851 -1.5182  2.2227 -0.1207
10058TIP3    H251666   0.975   2.304   5.985  0.2128  1.5771  0.4207
10059TIP3   OH251667   1.874   0.540  16.372 -0.4404 -0.3376 -0.0745
10059TIP3    H151668   1.893   0.592  16.293  0.1216 -0.3626  0.0351
10059TIP3    H251669   1.779   0.540  16.379 -0.5017 -0.4186 -0.8179
10060TIP3   OH251670   3.959   2.556  11.516 -0.3000 -0.6194 -0.0989
10060TIP3    H151671   3.928   2.465  11.524 -0.1243 -0.5552  1.2635
10060TIP3    H251672   4.045   2.556  11.557  1.8102 -0.8983 -4.2764
10061TIP3   OH251673   3.887   3.693  16.974  0.0040  0.4376 -0.0740
10061TIP3    H151674   3.792   3.697  16.967 -0.1111 -2.7155 -1.1916
10061TIP3    H251675   3.904   3.609  17.017  2.3261  0.1673 -1.4555
10062TIP3   OH251676   5.134   3.935   3.020  0.3364  0.5270 -0.3096
10062TIP3    H151677   5.208   3.979   2.980  0.6577 -0.2742 -0.6162
10062TIP3    H251678   5.169   3.899   3.102 -0.2910  2.0875  0.6714
10063TIP3   OH251679   1.444   6.175  13.970  0.2991 -0.5610 -0.8472
10063TIP3    H151680   1.467   6.173  14.063 -1.4543 -0.9758 -0.3869
10063TIP3    H251681   1.524   6.202  13.926  0.6701  1.5270  0.9676
10064TIP3   OH251682   1.490   2.872  14.415 -0.6345  0.3621 -0.2178
10064TIP3    H151683   1.476   2.965  14.399  0.1962  0.6676  0.8093
10064TIP3    H251684   1.452   2.856  14.501 -1.6299 -0.4630 -0.7987
10065TIP3   OH251685   5.115   6.476   2.305  0.3945 -0.0339  0.3209
10065TIP3    H151686   5.044   6.537   2.283  2.0398  1.1903 -1.8065
10065TIP3    H251687   5.147   6.505   2.390 -0.4818  0.5060  0.4697
10066TIP3   OH251688   3.698   6.691  11.065 -0.1095 -0.0131 -0.3948
10066TIP3    H151689   3.792   6.677  11.057 -0.3805 -2.3370  0.0267
10066TIP3    H251690   3.673   6.643  11.144 -2.0459 -1.8192 -2.0080
10067TIP3   OH251691   5.554   2.453   2.084 -0.1147  0.2740  0.1389
10067TIP3    H151692   5.530   2.498   2.003  0.3701 -1.2115 -0.8401
10067TIP3    H251693   5.579   2.365   2.057  2.1654  0.4026  1.6516
10068TIP3   OH251694   0.336   5.111   6.168  0.0360  0.0331  0.1421
10068TIP3    H151695   0.321   5.202   6.195 -0.0329  0.0908 -0.0865
10068TIP3    H251696   0.260   5.063   6.204  0.7454 -0.1703  1.3997
10069TIP3   OH251697   4.423   5.673  12.069  0.5578 -0.1813 -0.4769
10069TIP3    H151698   4.450   5.764  12.082  1.0832 -0.5531  1.2054
10069TIP3    H251699   4.503   5.622  12.085 -0.0157 -1.0061 -0.2015
10070TIP3   OH251700   6.244   4.719  11.263  0.3551  0.5254  0.0076
10070TIP3    H151701   6.149   4.715  11.271  0.3576 -1.2326 -0.5907
10070TIP3    H251702   6.261   4.709  11.170  1.1532  0.1387  0.1863
10071TIP3   OH251703   2.444   1.086  12.012  0.0058  0.1144  0.4694
10071TIP3    H151704   2.527   1.080  11.966  0.3497  1.4294  0.8965
10071TIP3    H251705   2.409   1.172  11.989 -1.5655 -0.6805 -0.2334
10072TIP3   OH251706   6.566   5.000   2.983 -0.2526 -0.3795 -0.5017
10072TIP3    H151707   6.658   4.980   2.964  0.0614  1.5759 -1.1586
10072TIP3    H251708   6.570   5.074   3.043 -1.4106 -0.0706 -0.8044
10073TIP3   OH251709   6.702   6.216   2.370  0.1241 -0.0804 -0.2533
10073TIP3    H151710   6.732   6.218   2.461  2.0790 -0.5623 -0.8478
10073TIP3    H251711   6.615   6.177   2.374  0.6589 -1.1805  1.3036
10074TIP3   OH251712   6.550   4.800   6.020  0.1769 -0.2458 -0.3142
10074TIP3    H151713   6.545   4.879   5.966  2.6178 -0.4105 -0.8124
10074TIP3    H251714   6.458   4.775   6.033 -0.6186  2.3497 -0.5866
10075TIP3   OH251715   5.944   2.345  12.479  0.2894  0.0029 -0.4352
10075TIP3    H151716   5.861   2.312  12.444  0.6776 -0.2009 -1.1648
10075TIP3    H251717   5.921   2.431  12.516 -0.1811  0.0855 -0.9096
10076TIP3   OH251718   2.963   0.809  16.267 -0.1244 -0.0546 -0.1451
10076TIP3    H151719   2.935   0.720  16.289  0.2823 -0.4314 -1.1186
10076TIP3    H251720   2.983   0.805  16.174  0.8595  0.8080  0.0203
10077TIP3   OH251721   6.651   1.784   5.340  0.5131 -0.0104  0.2767
10077TIP3    H151722   6.567   1.742   5.359  0.3263 -0.6237 -1.7448
10077TIP3    H251723   6.717   1.726   5.380  0.0510 -0.3127  0.6024
10078TIP3   OH251724   4.466   5.974  17.143 -0.2562 -0.1001  0.2719
10078TIP3    H151725   4.518   5.901  17.110  1.0031  0.4116  1.1042
10078TIP3    H251726   4.503   6.051  17.101 -0.7132  0.2161  0.4403
10079TIP3   OH251727   3.578   4.337   1.884  0.3204  0.1851  0.2702
10079TIP3    H151728   3.576   4.432   1.899 -4.1676  0.2310 -0.0035
10079TIP3    H251729   3.606   4.300   1.968  0.9941  1.6959  0.7206
10080TIP3   OH251730   4.087   6.777  16.345 -0.1981  0.6739 -0.2672
10080TIP3    H151731   4.178   6.794  16.324  0.1112 -3.2220 -2.5977
10080TIP3    H251732   4.039   6.798  16.265 -0.7752 -1.1197 -0.4362
10081TIP3   OH251733   1.532   5.927   3.247 -0.2968 -0.4151  0.2324
10081TIP3    H151734   1.595   5.857   3.232  0.0579 -0.2418  0.8766
10081TIP3    H251735   1.498   5.909   3.335 -1.8525 -1.0591 -0.4676
10082TIP3   OH251736   1.923   6.008   5.332  0.0377 -0.3523 -0.3040
10082TIP3    H151737   1.917   6.008   5.236  0.3893 -0.4668 -0.3272
10082TIP3    H251738   2.010   6.045   5.350 -0.8648  1.6937  0.0270
10083TIP3   OH251739   2.200   1.422  15.092  0.0443  0.7780 -0.6004
10083TIP3    H151740   2.124   1.402  15.146 -0.4606  0.3858 -1.4388
10083TIP3    H251741   2.275   1.386  15.139 -0.3504  0.7274 -0.0183
10084TIP3   OH251742   2.824   0.236  15.842 -0.6936  0.0614 -0.1205
10084TIP3    H151743   2.863   0.304  15.897  0.1506  0.0220 -0.6773
10084TIP3    H251744   2.732   0.262  15.834  0.0292  2.1963 -1.9371
10085TIP3   OH251745   4.456   5.538   5.070 -0.2536 -0.1809  0.4656
10085TIP3    H151746   4.392   5.528   5.140  0.5191 -0.4547  1.1419
10085TIP3    H251747   4.531   5.486   5.099 -0.1284 -0.7356 -0.8154
10086TIP3   OH251748   1.746   4.881  10.846 -0.1443  0.0255 -0.4288
10086TIP3    H151749   1.799   4.801  10.845 -0.3166 -0.1020  0.1129
10086TIP3    H251750   1.675   4.862  10.908 -0.1161  0.6367 -0.1978
10087TIP3   OH251751   0.899   3.433   2.509 -0.4902  0.0834  0.9538
10087TIP3    H151752   0.926   3.341   2.504  0.7857  0.5171 -0.1675
10087TIP3    H251753   0.875   3.456   2.419 -0.9861  0.8122  1.2636
10088TIP3   OH251754   0.063   6.717   3.791  0.0068  0.2274 -0.2531
10088TIP3    H151755   0.016   6.778   3.734 -0.2564  1.7409  1.5406
10088TIP3    H251756   0.134   6.768   3.829  1.4168 -1.3098 -0.7833
10089TIP3   OH251757   2.804   2.353   4.823 -0.1323  0.3230  0.1588
10089TIP3    H151758   2.735   2.323   4.764 -0.2077  0.2670  0.2761
10089TIP3    H251759   2.819   2.279   4.882  0.8000 -0.0828 -0.5593
10090TIP3   OH251760   6.051   6.387  12.958  0.5347 -0.4557  0.1217
10090TIP3    H151761   6.078   6.437  12.881  0.2492  0.1482  0.4109
10090TIP3    H251762   6.120   6.404  13.022  1.1605 -1.5600 -0.2507
10091TIP3   OH251763   3.195   0.097   5.235  0.2174 -0.5855 -0.3827
10091TIP3    H151764   3.135   0.081   5.163  1.4562 -0.0504 -1.5697
10091TIP3    H251765   3.232   0.011   5.255 -1.1932 -0.9777  0.6002
10092TIP3   OH251766   0.649   2.536   6.164 -0.0166 -0.3446 -0.0645
10092TIP3    H151767   0.664   2.600   6.234  4.1150  1.0712 -2.0944
10092TIP3    H251768   0.635   2.453   6.209  2.8265  0.4940  2.4863
10093TIP3   OH251769   1.517   4.370   2.180 -0.3700  0.2220  0.5610
10093TIP3    H151770   1.494   4.416   2.261  0.7779  2.7775 -0.5009
10093TIP3    H251771   1.465   4.414   2.113 -0.2234 -0.9146 -0.2974
10094TIP3   OH251772   1.935   0.555  14.846  0.4076  0.1393 -0.0705
10094TIP3    H151773   1.985   0.503  14.783 -0.0206 -0.7544  0.3256
10094TIP3    H251774   1.985   0.548  14.927  0.3235  0.3098 -0.0031
10095TIP3   OH251775   2.316   4.596  12.640  0.0734 -0.0740  0.4678
10095TIP3    H151776   2.360   4.512  12.628 -0.1640  0.0008 -1.0060
10095TIP3    H251777   2.306   4.604  12.735  2.0921 -0.6613  0.7439
10096TIP3   OH251778   3.641   0.860  11.842 -0.0909 -0.1774 -0.3792
10096TIP3    H151779   3.592   0.862  11.924 -0.4537 -1.3943 -0.5650
10096TIP3    H251780   3.665   0.768  11.830  0.4953  0.0893 -1.3223
10097TIP3   OH251781   3.571   0.717   0.177  0.0444 -0.8068  0.0964
10097TIP3    H151782   3.559   0.781   0.247  1.0448 -0.6660  0.1521
10097TIP3    H251783   3.665   0.699   0.177  0.4229  0.9251 -2.7263
10098TIP3   OH251784   2.112   1.304  11.791  0.0772  0.4190  0.5710
10098TIP3    H151785   2.039   1.350  11.749 -1.0053 -1.2770  0.5456
10098TIP3    H251786   2.085   1.212  11.792  0.9785  0.1461  3.1693
10099TIP3   OH251787   1.903   4.147   2.675 -0.7326  0.2873 -0.4064
10099TIP3    H151788   1.860   4.085   2.615 -1.3735 -0.0233  0.3659
10099TIP3    H251789   1.935   4.217   2.618 -0.4203 -0.5197 -1.2338
10100TIP3   OH251790   5.283   2.550   3.644 -0.1984 -0.7201 -0.0395
10100TIP3    H151791   5.340   2.586   3.577 -0.2496  0.1551  0.3861
10100TIP3    H251792   5.296   2.607   3.720 -0.6384 -1.3080  0.4798
10101TIP3   OH251793   4.668   2.392   1.975 -0.0632 -0.1288  0.2145
10101TIP3    H151794   4.680   2.480   1.940 -0.8840  0.2480  0.8581
10101TIP3    H251795   4.643   2.339   1.900 -1.8369  0.6770  0.2151
10102TIP3   OH251796   5.917   6.296  13.727 -0.5729  0.0258  0.8508
10102TIP3    H151797   5.871   6.270  13.807 -1.1633 -0.2802  0.4184
10102TIP3    H251798   5.941   6.387  13.742  0.6797 -0.4840  2.0080
10103TIP3   OH251799   5.371   5.451   4.435 -0.4512  0.3295 -0.5761
10103TIP3    H151800   5.324   5.432   4.517  1.0142  0.1541  0.2378
10103TIP3    H251801   5.314   5.511   4.388 -1.5931 -0.0480  0.3025
10104TIP3   OH251802   5.931   4.735   4.818 -0.2481 -0.2590  0.0313
10104TIP3    H151803   5.865   4.679   4.776 -0.4782 -0.1010  0.1836
10104TIP3    H251804   5.890   4.762   4.900  0.0503 -0.2512  0.1746
10105TIP3   OH251805   5.071   0.676   5.636  0.2354  0.1566 -0.1635
10105TIP3    H151806   5.083   0.768   5.612 -3.5718  0.1233 -2.5175
10105TIP3    H251807   5.133   0.628   5.581  1.7371  1.2125  0.5670
10106TIP3   OH251808   3.781   1.718  11.408  0.2626 -0.4614 -0.2003
10106TIP3    H151809   3.761   1.674  11.491  1.5260 -0.4822  0.1073
10106TIP3    H251810   3.697   1.754  11.379 -0.2469 -0.7077  0.9403
10107TIP3   OH251811   5.512   3.387   3.902  0.3468  0.2649  0.4416
10107TIP3    H151812   5.598   3.360   3.870 -1.1104 -1.8549 -1.8343
10107TIP3    H251813   5.474   3.307   3.939 -1.5982  0.6163 -0.7607
10108TIP3   OH251814   2.877   6.720   1.844 -0.4745 -0.2894  0.0267
10108TIP3    H151815   2.938   6.679   1.906  0.5857  0.3956 -0.5326
10108TIP3    H251816   2.869   6.810   1.875 -1.8976 -0.5971  0.5935
10109TIP3   OH251817   5.512   3.741  10.532 -0.3654 -0.2081  0.0408
10109TIP3    H151818   5.589   3.772  10.485 -0.9938  0.4791 -0.5612
10109TIP3    H251819   5.519   3.646  10.531 -0.6177 -0.2242 -1.8774
10110TIP3   OH251820   5.189   3.719  14.970 -0.2047  0.3525  0.8459
10110TIP3    H151821   5.244   3.702  15.046 -1.0579 -2.1798  0.9703
10110TIP3    H251822   5.236   3.679  14.897 -1.4502 -1.1202  0.8179
10111TIP3   OH251823   1.585   0.835   5.334 -0.3537 -0.0730 -0.0500
10111TIP3    H151824   1.646   0.818   5.262  0.0001 -1.9192  0.6717
10111TIP3    H251825   1.506   0.868   5.291  0.8826  1.7237 -1.0455
10112TIP3   OH251826   6.264   1.583   3.797 -0.1738  0.4337 -0.0053
10112TIP3    H151827   6.317   1.632   3.734 -0.9337 -1.5875 -2.3088
10112TIP3    H251828   6.178   1.625   3.792 -0.6676 -0.7064 -1.5494
10113TIP3   OH251829   0.150   0.568  16.628  0.2356  0.6794  0.0904
10113TIP3    H151830   0.210   0.550  16.701 -0.0345  0.6621  0.3065
10113TIP3    H251831   0.089   0.633  16.662 -1.1593 -0.8507  0.5566
10114TIP3   OH251832   4.263   6.761   3.679  0.5585  0.1604 -0.9237
10114TIP3    H151833   4.292   6.808   3.600  3.2867  1.8042  0.9411
10114TIP3    H251834   4.248   6.672   3.650  1.3692  0.7737 -3.3517
10115TIP3   OH251835   4.606   4.883   1.321 -0.2993  0.1916  0.1962
10115TIP3    H151836   4.641   4.795   1.311 -1.9225 -0.3982 -0.5101
10115TIP3    H251837   4.543   4.876   1.393 -0.7117  0.6811 -0.1145
10116TIP3   OH251838   5.203   5.000  11.843 -0.1344  0.5647 -0.2196
10116TIP3    H151839   5.118   4.957  11.833 -0.6944  1.6895 -0.3274
10116TIP3    H251840   5.245   4.991  11.758 -0.1643  0.0514 -0.1821
10117TIP3   OH251841   3.986   2.806  11.726  0.0592 -0.1698 -0.3757
10117TIP3    H151842   3.971   2.900  11.718 -1.9802 -0.2961  1.4870
10117TIP3    H251843   3.907   2.765  11.691 -1.0702 -1.0240  2.9376
10118TIP3   OH251844   5.071   2.192   2.836  0.6122  0.1376  0.3668
10118TIP3    H151845   4.993   2.237   2.804  0.0577  0.1237  1.6510
10118TIP3    H251846   5.144   2.244   2.804  0.0170  1.1819  0.6667
10119TIP3   OH251847   0.311   5.863   3.383  0.1872  0.9577  0.0832
10119TIP3    H151848   0.373   5.836   3.315 -0.1333  2.0659 -0.6640
10119TIP3    H251849   0.234   5.893   3.334 -0.2703  1.2079  0.9557
10120TIP3   OH251850   4.281   6.566  11.543  0.5648  0.5485 -0.4004
10120TIP3    H151851   4.302   6.630  11.611  1.3988 -2.0891  1.9278
10120TIP3    H251852   4.210   6.605  11.493 -1.3777  1.7666  3.1917
10121TIP3   OH251853   5.768   0.937   4.072 -0.7876  0.1806 -0.1519
10121TIP3    H151854   5.698   1.000   4.088 -0.5022  0.4951 -0.1090
10121TIP3    H251855   5.828   0.949   4.146  0.6626  1.8052 -1.5209
10122TIP3   OH251856   5.259   3.885  17.203  0.7958 -0.0076 -0.1806
10122TIP3    H151857   5.192   3.880  17.135 -0.8150 -3.3651  1.5544
10122TIP3    H251858   5.236   3.963  17.253 -0.9887 -0.3281 -0.4729
10123TIP3   OH251859   4.290   0.589   4.148 -0.2965 -0.3110 -0.1528
10123TIP3    H151860   4.278   0.637   4.230  0.0741 -0.7012  0.1299
10123TIP3    H251861   4.367   0.534   4.163 -0.6591 -0.9277 -0.5025
10124TIP3   OH251862   3.975   0.508   6.129 -0.1929  0.3657  0.1618
10124TIP3    H151863   4.010   0.597   6.117  1.4285 -0.0986  1.2850
10124TIP3    H251864   4.007   0.460   6.052  1.3194  0.0578  0.9612
10125TIP3   OH251865   0.319   4.900  12.643 -0.2766 -0.6996  0.0041
10125TIP3    H151866   0.249   4.843  12.609 -0.7533  0.2288 -0.5743
10125TIP3    H251867   0.290   4.989  12.622 -0.1457 -0.1570  2.0163
10126TIP3   OH251868   2.034   0.449  16.857 -0.2138  0.0604  0.2345
10126TIP3    H151869   2.018   0.543  16.846 -1.0823 -0.1251 -0.0933
10126TIP3    H251870   2.019   0.412  16.771  2.3962 -0.0791 -0.2164
10127TIP3   OH251871   6.615   0.060   5.454  0.3240  0.1433 -0.2036
10127TIP3    H151872   6.631  -0.033   5.438  0.1003 -0.2873  1.9877
10127TIP3    H251873   6.530   0.062   5.499  1.8087  1.1354  2.6369
10128TIP3   OH251874   5.648   1.169   0.380 -0.0679 -0.8689  0.4672
10128TIP3    H151875   5.713   1.100   0.390  1.6603  0.7273  0.6766
10128TIP3    H251876   5.682   1.241   0.434 -2.1530 -0.0812  0.7791
10129TIP3   OH251877   1.242   2.936  17.234 -0.6728  0.0266  0.0513
10129TIP3    H151878   1.289   2.941  17.318  0.8826 -1.4275 -0.7132
10129TIP3    H251879   1.289   2.997  17.177  0.4927 -1.6316 -0.7939
10130TIP3   OH251880   4.809   0.703  11.503 -0.2246  0.6340  0.0960
10130TIP3    H151881   4.758   0.665  11.431  0.0947  1.3841 -0.5370
10130TIP3    H251882   4.899   0.677  11.485 -0.1590  0.7316  0.2833
10131TIP3   OH251883   2.893   1.366  13.921  0.3770 -0.3763 -0.0069
10131TIP3    H151884   2.866   1.301  13.986  0.5141 -0.2629  0.1636
10131TIP3    H251885   2.841   1.346  13.843  1.5700 -1.6797 -0.4855
10132TIP3   OH251886   2.363   2.083   4.842 -0.4297  0.2824 -0.0122
10132TIP3    H151887   2.309   2.009   4.816  1.0441 -0.4445 -1.1177
10132TIP3    H251888   2.390   2.063   4.931 -0.1209 -0.4896 -0.2712
10133TIP3   OH251889   3.096   4.590  11.844 -0.8656 -0.1286  0.2591
10133TIP3    H151890   3.099   4.535  11.766  0.1449  0.0638  0.1523
10133TIP3    H251891   3.018   4.644  11.833 -0.2684  0.4928 -1.0140
10134TIP3   OH251892   4.549   6.247   1.303  0.2008 -0.4083 -0.3175
10134TIP3    H151893   4.490   6.251   1.378  0.8940 -1.0680  0.2701
10134TIP3    H251894   4.492   6.251   1.227 -0.6637 -1.8327  0.2462
10135TIP3   OH251895   5.263   2.667   3.197 -0.0828 -0.3871  0.4356
10135TIP3    H151896   5.319   2.676   3.274  1.2918 -0.6237 -0.5118
10135TIP3    H251897   5.214   2.749   3.193  1.2147  0.4130  0.5077
10136TIP3   OH251898   1.095   5.905  16.804  0.1989  0.1469 -0.1267
10136TIP3    H151899   1.057   5.824  16.770  2.1730 -1.2608  0.9302
10136TIP3    H251900   1.190   5.893  16.794  0.5740  1.7971  1.2406
10137TIP3   OH251901   2.576   3.925   0.491  0.1965  0.2600 -0.2929
10137TIP3    H151902   2.593   3.881   0.408  0.8514  0.1388 -0.0957
10137TIP3    H251903   2.658   3.917   0.541 -0.3632 -0.1348  0.5784
10138TIP3   OH251904   3.332   3.303  12.110 -0.0007 -0.2226 -0.8024
10138TIP3    H151905   3.303   3.356  12.185  0.3958 -1.6202  0.3605
10138TIP3    H251906   3.265   3.318  12.044  0.4708  2.3000 -0.7858
10139TIP3   OH251907   6.797   0.170  11.614  0.2524  0.3093  0.4663
10139TIP3    H151908   6.869   0.110  11.596  0.6385  0.2195  2.1794
10139TIP3    H251909   6.729   0.115  11.653  0.7226  0.9736  2.3221
10140TIP3   OH251910   5.103   1.946  12.385  0.2400  0.3828  0.1828
10140TIP3    H151911   5.073   1.932  12.295  1.5764 -0.7912 -0.0898
10140TIP3    H251912   5.161   1.872  12.403 -0.5300  0.2497  2.2404
10141TIP3   OH251913   4.776   4.038   3.667  0.3380 -0.4174  0.2941
10141TIP3    H151914   4.801   4.006   3.754 -1.2650  1.0315  1.3431
10141TIP3    H251915   4.730   3.965   3.626 -0.9136 -0.3820  1.5904
10142TIP3   OH251916   3.636   4.703  12.081  0.3863 -0.0297 -0.8036
10142TIP3    H151917   3.698   4.776  12.086  1.5918 -1.1192  0.7713
10142TIP3    H251918   3.684   4.634  12.035  0.3152 -0.8050  0.2463
10143TIP3   OH251919   1.105   5.841  10.806 -0.3188  0.0361  0.3826
10143TIP3    H151920   1.102   5.920  10.751  0.6073 -1.1457 -1.4159
10143TIP3    H251921   1.192   5.804  10.789 -0.9009 -1.5948  0.8654
10144TIP3   OH251922   4.521   3.116  14.764  0.1691  0.3288 -0.2954
10144TIP3    H151923   4.447   3.133  14.823 -0.9699 -0.0511 -1.5908
10144TIP3    H251924   4.556   3.032  14.794 -0.2696  0.2361 -0.0270
10145TIP3   OH251925   4.560   5.775  16.811 -0.4870 -0.4337 -0.0887
10145TIP3    H151926   4.586   5.770  16.903  0.2231  2.1678 -0.0946
10145TIP3    H251927   4.467   5.800  16.814  0.0085  1.5381 -0.0215
10146TIP3   OH251928   5.472   0.670  13.952  0.1642  0.1950 -0.3363
10146TIP3    H151929   5.408   0.599  13.952  1.1907 -0.7345 -1.0949
10146TIP3    H251930   5.516   0.663  13.867  1.0236  1.0587  0.0270
10147TIP3   OH251931   5.696   4.569  12.022  0.3924  0.7805 -0.2370
10147TIP3    H151932   5.696   4.588  11.928 -0.9793 -2.0171 -0.8352
10147TIP3    H251933   5.605   4.586  12.049  0.9087  2.0855  0.7081
10148TIP3   OH251934   5.923   5.341  11.399 -0.4112  0.0934  0.1327
10148TIP3    H151935   5.831   5.316  11.395  0.1524 -2.3476  1.7511
10148TIP3    H251936   5.960   5.311  11.316 -0.5262 -1.1835  0.5420
10149TIP3   OH251937   3.461   6.260   4.086 -0.4141  0.4756 -0.0628
10149TIP3    H151938   3.473   6.186   4.026  0.9821  0.5373  0.1371
10149TIP3    H251939   3.396   6.228   4.149  0.7380 -0.8806  0.4769
10150TIP3   OH251940   6.716   3.128   1.808  0.0553 -0.0363 -0.3980
10150TIP3    H151941   6.735   3.222   1.808  1.3818 -0.2669  1.6462
10150TIP3    H251942   6.622   3.123   1.791 -0.7767  1.8936  3.0434
10151TIP3   OH251943   1.596   5.931  14.735  0.4860  0.2002 -0.2327
10151TIP3    H151944   1.628   5.848  14.771  0.4957  0.5714  0.6317
10151TIP3    H251945   1.645   5.998  14.784 -1.0137  0.7558  0.5418
10152TIP3   OH251946   5.244   4.418  13.412  0.0522  0.0331 -0.4442
10152TIP3    H151947   5.198   4.419  13.327 -0.0647 -0.8968 -0.3872
10152TIP3    H251948   5.337   4.410  13.389  0.0874  0.5716 -0.5069
10153TIP3   OH251949   4.548   5.771   0.372 -0.2691 -0.1366 -0.7004
10153TIP3    H151950   4.597   5.843   0.410  0.5966 -1.8290  1.4926
10153TIP3    H251951   4.610   5.726   0.315 -0.6209  0.4143 -1.5394
10154TIP3   OH251952   0.567   4.800  14.871 -0.3448  0.4991  0.3478
10154TIP3    H151953   0.575   4.890  14.838  0.7229  0.5109  0.6381
10154TIP3    H251954   0.476   4.793  14.898 -0.5332  1.3756 -0.0291
10155TIP3   OH251955   4.990   6.278  14.979  0.2400  0.0097 -0.1016
10155TIP3    H151956   4.994   6.366  14.941 -0.2120  0.1705  0.2118
10155TIP3    H251957   4.923   6.233  14.927  1.7112 -0.7298 -1.4208
10156TIP3   OH251958   2.578   1.673   4.456  0.2208 -0.1167 -0.3232
10156TIP3    H151959   2.579   1.616   4.532 -1.0356 -0.9967 -0.9478
10156TIP3    H251960   2.658   1.724   4.463  0.6090 -0.8991  1.0483
10157TIP3   OH251961   0.373   4.125   2.674 -0.1404 -0.7736 -0.2800
10157TIP3    H151962   0.392   4.204   2.622  0.7018  0.4804  1.8652
10157TIP3    H251963   0.311   4.155   2.740  2.0466 -1.3065  2.0753
10158TIP3   OH251964   1.364   3.832  12.440  0.5025 -0.7487 -0.3485
10158TIP3    H151965   1.370   3.775  12.364  1.6181 -1.8768  0.5786
10158TIP3    H251966   1.270   3.840  12.457  0.2348 -0.1554 -2.0860
10159TIP3   OH251967   0.269   2.046  12.317 -0.5061 -0.3842  0.3148
10159TIP3    H151968   0.225   2.080  12.239  0.0104  0.4655  0.3828
10159TIP3    H251969   0.213   2.074  12.390 -0.3493 -0.1278  0.3358
10160TIP3   OH251970   5.970   6.182   4.343 -0.0654  0.3458  0.2487
10160TIP3    H151971   5.891   6.160   4.393 -1.6688  1.7766 -1.5879
10160TIP3    H251972   6.010   6.097   4.323 -1.5126 -0.4374  0.6304
10161TIP3   OH251973   4.738   3.275  11.331  0.0929 -0.8226  0.1449
10161TIP3    H151974   4.685   3.313  11.261  0.3595  0.3887  0.6011
10161TIP3    H251975   4.698   3.189  11.346 -0.6041 -0.6717 -0.7784
10162TIP3   OH251976   1.619   0.270  10.951 -0.8905  0.1445 -0.4297
10162TIP3    H151977   1.713   0.285  10.958 -0.5511 -1.2355 -1.7414
10162TIP3    H251978   1.603   0.194  11.008 -1.6774  1.9582  1.8611
10163TIP3   OH251979   5.426   4.435   2.242  0.3758  0.1061  0.0896
10163TIP3    H151980   5.487   4.481   2.300  1.8398 -1.4309 -0.2109
10163TIP3    H251981   5.481   4.394   2.176 -1.0078 -1.0351 -0.3941
10164TIP3   OH251982   5.453   6.267   3.244 -0.2128 -0.7938  0.3796
10164TIP3    H151983   5.429   6.322   3.169  0.0044  0.7207  1.3994
10164TIP3    H251984   5.533   6.222   3.216 -0.1849 -0.3050 -0.3312
10165TIP3   OH251985   5.212   2.411   3.392  0.1607 -0.2552 -0.0549
10165TIP3    H151986   5.142   2.406   3.457  1.2724 -0.8542  1.1162
10165TIP3    H251987   5.186   2.483   3.334 -0.4912  0.7679  1.4761
10166TIP3   OH251988   0.884   6.398  17.031 -0.0935  0.8133 -0.6352
10166TIP3    H151989   0.850   6.323  17.079 -0.1039  1.8818  1.0654
10166TIP3    H251990   0.979   6.386  17.032 -0.1385  0.3722 -1.1461
10167TIP3   OH251991   3.060   0.005  11.698 -1.0313 -0.3734 -0.1698
10167TIP3    H151992   3.126   0.068  11.669 -2.7188  1.3086 -0.4082
10167TIP3    H251993   3.070  -0.069  11.638 -0.1879  0.3700 -0.9674
10168TIP3   OH251994   4.930   3.180  13.558  0.7692  0.2661 -0.1034
10168TIP3    H151995   4.926   3.123  13.482 -0.3430 -2.8794  2.2073
10168TIP3    H251996   5.023   3.183  13.581  0.8076 -0.9455 -0.0491
10169TIP3   OH251997   3.222   5.051  12.140 -0.3210 -0.4218  0.3655
10169TIP3    H151998   3.133   5.051  12.173 -0.3723  1.3963  0.2417
10169TIP3    H251999   3.247   4.958  12.139 -2.9930 -1.1850 -1.7343
10170TIP3   OH252000   6.583   5.976   6.279 -0.1887  0.1238  0.0207
10170TIP3    H152001   6.498   6.016   6.263  0.1671  0.9194  0.0816
10170TIP3    H252002   6.625   6.034   6.343  0.2287 -0.4945  0.3113
10171TIP3   OH252003   6.572   3.067  13.972 -0.0492 -0.2137 -0.2517
10171TIP3    H152004   6.594   2.980  14.006  0.7192  0.5941  1.3604
10171TIP3    H252005   6.478   3.065  13.960 -0.2278 -0.8012  1.1622
10172TIP3   OH252006   3.704   0.284   1.912 -0.4253  0.3243 -0.1374
10172TIP3    H152007   3.744   0.224   1.848  1.0292  1.5848 -0.4440
10172TIP3    H252008   3.679   0.361   1.861 -0.8670  0.6161  0.5113
10173TIP3   OH252009   2.583   5.844  15.195 -0.0136 -0.3431 -0.5067
10173TIP3    H152010   2.656   5.840  15.132 -0.2471  2.7151 -1.0665
10173TIP3    H252011   2.505   5.828  15.142 -0.1580  1.6449 -0.9516
10174TIP3   OH252012   5.519   3.207   2.867  0.3519 -0.4064  0.2675
10174TIP3    H152013   5.587   3.140   2.859 -0.0116 -0.8065  0.5236
10174TIP3    H252014   5.442   3.169   2.824 -0.1816 -0.6174  1.3870
10175TIP3   OH252015   3.616   3.174   5.497 -0.1569 -0.0569  0.2475
10175TIP3    H152016   3.530   3.175   5.455 -0.4814  1.4159  0.9231
10175TIP3    H252017   3.666   3.109   5.447 -1.4296 -0.4066 -0.5971
10176TIP3   OH252018   4.927   6.159   2.914  0.4211 -0.0484 -0.1692
10176TIP3    H152019   4.838   6.139   2.886  0.2631  0.8094 -0.2805
10176TIP3    H252020   4.974   6.180   2.833  0.9837 -1.4332 -0.2268
10177TIP3   OH252021   2.573   5.669  10.575 -0.1596  0.0692 -0.1970
10177TIP3    H152022   2.494   5.701  10.618  1.0413  0.8838  1.4808
10177TIP3    H252023   2.614   5.748  10.538  0.5528 -0.1523  0.1080
10178TIP3   OH252024   3.465   1.289  14.083 -0.0901  0.0615  0.4281
10178TIP3    H152025   3.380   1.332  14.090 -0.8491 -1.2272 -0.5640
10178TIP3    H252026   3.444   1.195  14.081  1.3526 -0.2637  0.1220
10179TIP3   OH252027   2.289   5.000   2.465  0.2114  0.0752  0.4325
10179TIP3    H152028   2.205   4.956   2.455 -0.4241  0.6875  2.9236
10179TIP3    H252029   2.312   4.991   2.557  2.1549  1.2236  0.1183
10180TIP3   OH252030   5.957   2.294   4.876 -0.2151 -0.4850  0.0344
10180TIP3    H152031   5.979   2.384   4.902 -2.4015 -0.3057  1.3934
10180TIP3    H252032   6.020   2.273   4.807  0.3802  2.0647 -0.2593
10181TIP3   OH252033   5.871   1.488  14.595  0.4462  0.2679 -0.0515
10181TIP3    H152034   5.814   1.486  14.518 -0.2782  0.4141  0.4763
10181TIP3    H252035   5.946   1.433  14.571 -1.1597 -2.1293  0.1880
10182TIP3   OH252036   6.600   0.502   2.665 -0.0418 -0.6026 -0.1079
10182TIP3    H152037   6.507   0.484   2.673 -0.1978  0.3993  0.4568
10182TIP3    H252038   6.604   0.594   2.637  0.7770 -0.5169  0.2708
10183TIP3   OH252039   5.992   4.919  11.912  0.1101  0.2742  0.1141
10183TIP3    H152040   5.980   4.837  11.959 -1.3068  0.9150  0.9052
10183TIP3    H252041   6.009   4.893  11.821  0.7121 -0.9082  0.5618
10184TIP3   OH252042   2.851   4.470   4.364 -0.3280  0.0432  0.0601
10184TIP3    H152043   2.758   4.474   4.386 -0.6040 -3.0618 -0.3552
10184TIP3    H252044   2.892   4.532   4.423 -2.5153  0.5747  1.0830
10185TIP3   OH252045   6.237   2.740  16.541 -0.2068  1.0398 -0.5927
10185TIP3    H152046   6.251   2.649  16.569 -0.2115  0.8582 -1.1675
10185TIP3    H252047   6.325   2.771  16.518 -0.0433  1.5440  0.6629
10186TIP3   OH252048   2.972   0.443  12.458 -0.2604  0.1109  0.8329
10186TIP3    H152049   2.904   0.470  12.396 -0.5230 -2.1157  0.0990
10186TIP3    H252050   3.054   0.463  12.414 -0.4506 -0.9248 -0.0269
10187TIP3   OH252051   0.269   3.746  12.542 -0.0748 -0.0443  0.3456
10187TIP3    H152052   0.347   3.700  12.570 -0.0994 -0.2700  0.0405
10187TIP3    H252053   0.244   3.704  12.460 -1.2278 -0.8090  1.0695
10188TIP3   OH252054   2.043   2.763  11.533 -0.2663 -0.0372 -0.4491
10188TIP3    H152055   1.996   2.824  11.476  0.2106  0.5034 -0.2663
10188TIP3    H252056   1.992   2.762  11.614  0.9530  1.8838  0.3879
10189TIP3   OH252057   0.807   6.602   3.576  0.4066 -0.0723 -0.2182
10189TIP3    H152058   0.728   6.633   3.619 -0.8525  0.4965 -2.8573
10189TIP3    H252059   0.875   6.665   3.603 -0.3204  0.2454  0.9106
10190TIP3   OH252060   1.491   2.605  14.325 -0.0781  0.2208  0.2381
10190TIP3    H152061   1.475   2.691  14.364  1.2511  0.8549 -0.5877
10190TIP3    H252062   1.521   2.624  14.236  0.5649 -1.0886  0.1668
10191TIP3   OH252063   6.609   6.501   6.454  0.4945  0.1595 -0.4425
10191TIP3    H152064   6.530   6.493   6.507  1.1353  1.5692  0.7730
10191TIP3    H252065   6.604   6.589   6.417  1.7596  0.4781  0.1114
10192TIP3   OH252066   3.140   4.325  14.366 -0.0003  0.1006  0.4741
10192TIP3    H152067   3.077   4.370  14.422 -0.7227  1.0666 -1.0820
10192TIP3    H252068   3.204   4.392  14.343  0.0568 -0.1838 -0.2033
10193TIP3   OH252069   0.188   0.029  13.175  0.2568 -0.4000 -0.3535
10193TIP3    H152070   0.264   0.086  13.169  0.9575 -1.0725  1.8721
10193TIP3    H252071   0.214  -0.051  13.130  0.6035 -0.3843 -0.1756
10194TIP3   OH252072   0.100   0.236   1.619  1.0930 -0.0379  0.3149
10194TIP3    H152073   0.087   0.143   1.637 -0.9406 -0.0914 -1.3549
10194TIP3    H252074   0.074   0.280   1.700  1.8323 -0.8920  1.0249
10195TIP3   OH252075   6.226   4.660   3.176  0.5345  0.5831 -0.3325
10195TIP3    H152076   6.196   4.693   3.092 -0.9666  1.6985  0.6123
10195TIP3    H252077   6.298   4.600   3.154 -0.5127  0.0459 -2.4550
10196TIP3   OH252078   5.458   2.208   2.547  0.1925  0.1123  0.3709
10196TIP3    H152079   5.415   2.276   2.495 -0.0355 -1.2678 -1.2857
10196TIP3    H252080   5.551   2.231   2.544  0.3358 -0.5986 -1.6763
10197TIP3   OH252081   3.142   0.851  16.975  0.9531  0.0445  0.1719
10197TIP3    H152082   3.186   0.814  16.898  1.6740  1.4516 -0.1118
10197TIP3    H252083   3.198   0.923  17.003 -0.1681  0.6203  1.0115
10198TIP3   OH252084   5.393   0.899   3.205  0.2650  0.1766 -0.1617
10198TIP3    H152085   5.341   0.848   3.267  1.5316 -0.2985  0.5395
10198TIP3    H252086   5.481   0.898   3.242  1.0882 -0.2866 -2.0795
10199TIP3   OH252087   2.369   0.257  12.651  0.2978 -0.3042  0.3874
10199TIP3    H152088   2.459   0.289  12.661 -0.2776  1.0718  1.2511
10199TIP3    H252089   2.359   0.245  12.556  1.5919 -1.0648  0.3383
10200TIP3   OH252090   3.184   3.861   1.152 -0.2434 -0.3691  0.3960
10200TIP3    H152091   3.211   3.774   1.179 -1.3687 -1.0961 -0.7899
10200TIP3    H252092   3.252   3.888   1.090 -0.6944 -1.0176 -0.3831
10201TIP3   OH252093   4.642   4.760   5.843  0.0914 -0.1920 -0.0704
10201TIP3    H152094   4.649   4.717   5.929  1.6228 -0.4410 -0.3096
10201TIP3    H252095   4.565   4.816   5.851  1.0043  0.8489  1.9522
10202TIP3   OH252096   4.563   6.327   2.638 -0.2593  0.0548 -0.2323
10202TIP3    H152097   4.574   6.389   2.710  0.2785  0.4190 -0.6191
10202TIP3    H252098   4.471   6.300   2.643 -0.7825  1.6611 -0.6579
10203TIP3   OH252099   5.307   2.108   6.187 -0.0769  0.4076  0.4584
10203TIP3    H152100   5.325   2.087   6.278  1.6026 -1.3083 -0.2351
10203TIP3    H252101   5.384   2.159   6.158  0.4197 -0.8924 -0.5699
10204TIP3   OH252102   6.203   5.157  12.440  0.5911 -0.5702  0.3651
10204TIP3    H152103   6.234   5.146  12.530  0.4218  0.1089  0.5079
10204TIP3    H252104   6.222   5.073  12.398  2.1270 -0.3626  0.5987
10205TIP3   OH252105   3.619   1.889   0.154  0.2948 -0.2237 -0.0235
10205TIP3    H152106   3.604   1.912   0.245 -1.4346 -3.5272  0.6214
10205TIP3    H252107   3.591   1.966   0.104  0.0403  1.1250  2.1589
10206TIP3   OH252108   3.523   2.547   2.094 -0.2305  0.3390  0.2521
10206TIP3    H152109   3.477   2.631   2.082  2.3730  1.5923 -1.3508
10206TIP3    H252110   3.515   2.503   2.010  0.6461  0.1159  0.2840
10207TIP3   OH252111   5.473   6.348  12.091  0.3283  0.2031 -0.6229
10207TIP3    H152112   5.404   6.389  12.039 -0.4567  0.2479  0.4363
10207TIP3    H252113   5.458   6.254  12.081 -0.1385  0.2147 -0.0774
10208TIP3   OH252114   0.519   2.920  14.523  0.5929 -0.2450  0.3618
10208TIP3    H152115   0.605   2.928  14.483  1.5088  2.5318  2.7103
10208TIP3    H252116   0.536   2.896  14.614 -1.1417 -0.5326  0.6442
10209TIP3   OH252117   0.146   4.507   1.247  0.1278 -0.3905  0.0377
10209TIP3    H152118   0.130   4.434   1.307 -0.0489  0.0654  0.5518
10209TIP3    H252119   0.173   4.579   1.305 -1.0231  0.3445 -0.3356
10210TIP3   OH252120   2.281   0.287   5.350 -0.1760  0.3228  0.9388
10210TIP3    H152121   2.202   0.283   5.297  0.2578 -4.1826  0.4330
10210TIP3    H252122   2.252   0.266   5.438  0.2414  0.0277  1.0077
10211TIP3   OH252123   3.173   0.976   4.924 -0.3653  0.0342  0.5710
10211TIP3    H152124   3.116   1.045   4.891  0.4895 -0.4217 -2.0434
10211TIP3    H252125   3.135   0.895   4.890  1.3189 -0.3351 -0.5290
10212TIP3   OH252126   4.334   2.931  10.751  0.3894  0.2251  0.4013
10212TIP3    H152127   4.415   2.970  10.718  0.6845 -1.6230 -1.0983
10212TIP3    H252128   4.290   2.896  10.674 -1.4995  0.5195  1.2948
10213TIP3   OH252129   3.135   4.476   5.262  0.8057  0.0805  0.2193
10213TIP3    H152130   3.229   4.495   5.253  0.6212  0.8937  0.0265
10213TIP3    H252131   3.129   4.428   5.345  1.4337 -0.2748  0.0676
10214TIP3   OH252132   3.635   0.600  15.616 -0.2524 -0.1910 -0.3939
10214TIP3    H152133   3.660   0.513  15.586  2.1858 -0.0736  1.1575
10214TIP3    H252134   3.641   0.655  15.537  0.3016 -1.0095 -0.9273
10215TIP3   OH252135   6.125   3.554   3.553  0.1801 -0.1552 -0.5182
10215TIP3    H152136   6.199   3.607   3.582 -0.5090  1.2363 -1.2435
10215TIP3    H252137   6.088   3.517   3.634 -0.1880  1.6365  0.1607
10216TIP3   OH252138   3.750   4.992   1.580  1.1263 -0.4192  0.4558
10216TIP3    H152139   3.789   4.915   1.539 -0.4576 -3.0677  3.6763
10216TIP3    H252140   3.656   4.975   1.577  0.7214  1.7490  0.5357
10217TIP3   OH252141   5.015   1.820   2.968  0.4330  0.3228  0.0359
10217TIP3    H152142   5.012   1.868   3.050  0.0853 -1.4970  1.1207
10217TIP3    H252143   5.079   1.751   2.982 -1.9859 -2.0315 -0.0347
10218TIP3   OH252144   5.418   0.157   2.360 -0.0565 -0.1329  0.3455
10218TIP3    H152145   5.390   0.231   2.414  0.7602  0.1253  0.4152
10218TIP3    H252146   5.359   0.159   2.284 -0.9856 -0.2988  1.0567
10219TIP3   OH252147   2.658   3.237  12.345 -0.5350 -0.0613  0.2945
10219TIP3    H152148   2.596   3.164  12.343 -1.8225  1.0379 -0.6745
10219TIP3    H252149   2.617   3.305  12.291  1.4566  0.7238 -0.2859
10220TIP3   OH252150   6.211   6.567  12.063 -0.5434  0.1816 -0.2277
10220TIP3    H152151   6.134   6.532  12.108 -0.0576  1.1734  1.4023
10220TIP3    H252152   6.271   6.592  12.133  1.1926 -0.3761 -1.4762
10221TIP3   OH252153   2.937   5.843  12.375  0.4078  0.3869  0.9504
10221TIP3    H152154   2.887   5.923  12.361 -1.5864 -1.2551 -1.7517
10221TIP3    H252155   2.895   5.801  12.450 -0.9988  0.0200 -0.0282
10222TIP3   OH252156   1.062   3.543   4.884  0.4513 -0.2861  0.4570
10222TIP3    H152157   1.041   3.573   4.796  0.6598  0.3446  0.6145
10222TIP3    H252158   1.099   3.456   4.873 -0.0167 -0.4170 -0.0315
10223TIP3   OH252159   6.413   6.097   5.127  0.8246 -0.4911 -0.0607
10223TIP3    H152160   6.471   6.027   5.098  2.2949 -0.5489  2.8126
10223TIP3    H252161   6.471   6.171   5.142 -0.1916  0.1952  0.5347
10224TIP3   OH252162   6.445   6.392  15.510 -0.1110 -0.0073 -0.2374
10224TIP3    H152163   6.481   6.432  15.432 -0.5546 -0.8981 -0.9129
10224TIP3    H252164   6.358   6.362  15.483  0.1056 -1.1724  0.3173
10225TIP3   OH252165   3.617   3.462  10.949 -0.0662  0.3547 -0.3343
10225TIP3    H152166   3.638   3.553  10.926  1.0617 -0.1676 -1.3868
10225TIP3    H252167   3.688   3.410  10.911 -1.2019 -1.0708 -0.5532
10226TIP3   OH252168   3.864   2.985  15.833  0.1498  0.0756  0.2329
10226TIP3    H152169   3.829   2.993  15.745  2.5881  1.1020 -0.7007
10226TIP3    H252170   3.869   2.891  15.849 -0.9084 -0.1069 -0.4579
10227TIP3   OH252171   4.854   5.882  15.923 -0.2615 -0.3592  0.2498
10227TIP3    H152172   4.845   5.977  15.928 -0.0630 -0.3465  0.3378
10227TIP3    H252173   4.948   5.867  15.915 -0.4098 -0.4357 -1.8388
10228TIP3   OH252174   5.482   3.913   2.702 -0.1821  0.6010 -0.0817
10228TIP3    H152175   5.509   3.866   2.622 -0.2352 -1.0616  0.8528
10228TIP3    H252176   5.387   3.909   2.701 -0.1495 -1.2923  1.1129
10229TIP3   OH252177   2.296   0.486   1.230  0.3360 -0.5405 -0.1067
10229TIP3    H152178   2.384   0.450   1.220  0.4624 -0.4330  0.5908
10229TIP3    H252179   2.274   0.470   1.322  0.1094  0.5034  0.0254
10230TIP3   OH252180   4.266   1.267  14.856 -0.0533 -0.2775  0.9360
10230TIP3    H152181   4.351   1.269  14.900 -0.1109 -1.1382  1.0974
10230TIP3    H252182   4.286   1.250  14.764 -0.1176 -1.8152  1.1946
10231TIP3   OH252183   1.301   5.238  12.511  0.3773 -0.0735 -0.6596
10231TIP3    H152184   1.242   5.169  12.542  0.6366 -0.1617 -0.3631
10231TIP3    H252185   1.373   5.190  12.469 -0.2421  0.0520 -1.8947
10232TIP3   OH252186   0.221   0.480   0.268  0.2455  0.1187  0.3855
10232TIP3    H152187   0.249   0.391   0.292  2.8511  0.4055 -1.3523
10232TIP3    H252188   0.279   0.537   0.319 -0.6905  0.8244  0.6678
10233TIP3   OH252189   1.114   6.767  14.460  0.3498  0.6065 -0.3458
10233TIP3    H152190   1.142   6.696  14.517 -0.7215 -0.8900 -1.6656
10233TIP3    H252191   1.039   6.807  14.506  0.4507  0.3848  0.0104
10234TIP3   OH252192   1.655   6.730  13.510 -0.3899  0.0823 -0.3403
10234TIP3    H152193   1.698   6.645  13.523  0.2268  0.2706 -1.0892
10234TIP3    H252194   1.589   6.734  13.579  1.7050  0.3599  1.7085
10235TIP3   OH252195   1.220   0.962  11.810  0.3651  0.0534 -0.1832
10235TIP3    H152196   1.163   1.024  11.854  1.6579  1.0162  0.1463
10235TIP3    H252197   1.160   0.902  11.765 -0.9002  0.7831  0.5211
10236TIP3   OH252198   2.620   5.384  11.098 -0.1325  0.4552  0.2300
10236TIP3    H152199   2.620   5.371  11.004 -2.0975  0.6055  0.1893
10236TIP3    H252200   2.528   5.376  11.124  0.5311 -1.0911  2.3453
10237TIP3   OH252201   3.128   0.567   0.761 -0.3610  0.0090  0.3335
10237TIP3    H152202   3.174   0.483   0.761 -0.2707  0.0574 -0.3595
10237TIP3    H252203   3.119   0.590   0.668 -1.3821  0.2136  0.4729
10238TIP3   OH252204   6.008   5.148  14.203  0.4338  0.0926 -0.5043
10238TIP3    H152205   6.004   5.107  14.290  1.4782  2.1931  0.5811
10238TIP3    H252206   5.937   5.107  14.154 -0.2813 -1.0264  1.3999
10239TIP3   OH252207   5.796   4.255   4.257  0.3476 -0.4399  0.5156
10239TIP3    H152208   5.802   4.265   4.352 -0.7576 -1.4795  0.7058
10239TIP3    H252209   5.852   4.180   4.238  1.1190  0.1971  0.2563
10240TIP3   OH252210   4.667   2.021  12.459  0.2466  0.1850  0.0551
10240TIP3    H152211   4.691   2.096  12.513 -0.0554  1.1045 -1.0684
10240TIP3    H252212   4.597   1.978  12.507  0.8002  0.2885  0.9739
10241TIP3   OH252213   0.337   6.457   0.798  0.9289  0.8879 -0.0445
10241TIP3    H152214   0.243   6.472   0.801  1.1988  2.3552  1.5212
10241TIP3    H252215   0.349   6.397   0.725 -1.5070 -1.4176  1.3577
10242TIP3   OH252216   0.197   1.487   2.959 -0.4551  0.5054 -0.0474
10242TIP3    H152217   0.191   1.405   2.911 -0.9480  0.9621 -0.7873
10242TIP3    H252218   0.280   1.525   2.932  1.7679 -1.6248  3.3870
10243TIP3   OH252219   0.704   0.885  14.627  0.3488  0.0600  0.0199
10243TIP3    H152220   0.788   0.867  14.668  0.5646 -0.3655 -0.6006
10243TIP3    H252221   0.721   0.960  14.570  0.1499  0.3785  0.3708
10244TIP3   OH252222   2.098   2.052  16.767  0.4072 -0.4153 -0.2396
10244TIP3    H152223   2.158   2.118  16.803  1.1555  0.1581 -2.4686
10244TIP3    H252224   2.030   2.103  16.724 -0.5825 -1.1035  0.4884
10245TIP3   OH252225   3.102   0.695  10.473 -0.5014  0.4318  0.1726
10245TIP3    H152226   3.088   0.717  10.566  2.7621  0.5482  0.7122
10245TIP3    H252227   3.121   0.779  10.432  0.9959  0.0393  0.0222
10246TIP3   OH252228   2.438   5.881  11.384 -0.4510 -0.5850 -0.1554
10246TIP3    H152229   2.432   5.930  11.466  0.9585  1.6063 -1.3229
10246TIP3    H252230   2.373   5.922  11.327  0.2452 -0.5329 -0.9127
10247TIP3   OH252231   2.450   5.439  16.632  0.3390 -0.1384  0.1460
10247TIP3    H152232   2.502   5.495  16.575  0.3630 -1.1747 -0.8643
10247TIP3    H252233   2.383   5.401  16.575 -0.9912  0.5018  1.2555
10248TIP3   OH252234   3.055   1.999   2.704  0.3715 -0.2297 -0.0553
10248TIP3    H152235   2.987   1.970   2.643 -1.2868  1.3310  0.9850
10248TIP3    H252236   3.007   2.045   2.773  2.4076  0.0052  1.2539
10249TIP3   OH252237   3.340   5.108   4.475  0.2018 -0.3312 -0.6000
10249TIP3    H152238   3.356   5.024   4.518  1.2549 -1.2589 -2.7424
10249TIP3    H252239   3.412   5.118   4.414 -0.2701  1.8434 -0.8434
10250TIP3   OH252240   2.752   4.028   5.889  0.1777 -0.1431  0.2091
10250TIP3    H152241   2.736   3.942   5.929 -1.4432  0.6350  1.2840
10250TIP3    H252242   2.713   4.021   5.802  1.3432 -0.9632 -0.2620
10251TIP3   OH252243   3.078   5.283  14.269  0.1130 -1.1770 -0.7221
10251TIP3    H152244   3.078   5.367  14.315  0.7667 -1.6680  0.1953
10251TIP3    H252245   3.025   5.226  14.325  1.6109 -2.0096 -0.1376
10252TIP3   OH252246   1.076   0.136  13.158 -0.0407 -0.1465 -0.2023
10252TIP3    H152247   1.029   0.082  13.095 -0.0189 -1.2854  0.7521
10252TIP3    H252248   1.027   0.218  13.161 -2.2431 -1.4914  1.1223
10253TIP3   OH252249   6.484   5.490  16.729  0.4671 -0.7467 -0.2917
10253TIP3    H152250   6.547   5.429  16.766  1.4220 -0.7831 -1.9150
10253TIP3    H252251   6.526   5.523  16.650 -1.2762 -0.2618 -1.0512
10254TIP3   OH252252   4.774   4.608  12.570 -0.5657  0.5976  0.3946
10254TIP3    H152253   4.713   4.676  12.598 -0.5798  0.5204  0.5539
10254TIP3    H252254   4.751   4.532  12.624 -0.9848  0.2672 -0.2436
10255TIP3   OH252255   6.157   4.983  17.171 -0.3469 -0.0549  0.0455
10255TIP3    H152256   6.170   5.059  17.229 -2.3259 -0.4948  1.1173
10255TIP3    H252257   6.136   5.021  17.086  1.4953  0.5932 -0.1549
10256TIP3   OH252258   1.342   6.001   0.874  0.5700  0.2085 -0.3928
10256TIP3    H152259   1.308   5.984   0.786 -0.5411 -0.3601  0.1346
10256TIP3    H252260   1.434   5.977   0.869  0.2736 -0.7991 -1.1254
10257TIP3   OH252261   2.004   4.852  17.042 -0.3676  0.0011 -0.5909
10257TIP3    H152262   2.071   4.808  16.991  0.1767 -0.8989  0.8590
10257TIP3    H252263   2.052   4.916  17.095 -1.0430  1.6841 -1.9604
10258TIP3   OH252264   6.103   2.658  14.259 -0.6660  0.2588  0.4069
10258TIP3    H152265   6.084   2.567  14.234 -1.7719  0.7363 -0.5279
10258TIP3    H252266   6.131   2.700  14.178 -1.2286  1.0241  0.6012
10259TIP3   OH252267   4.569   4.649   5.069  0.2023  0.5293 -0.1616
10259TIP3    H152268   4.561   4.580   5.003 -0.9007  0.3663  0.1438
10259TIP3    H252269   4.549   4.730   5.022 -0.2838  0.4467 -0.0943
10260TIP3   OH252270   1.738   5.838   2.658 -0.1404  0.1779  0.7159
10260TIP3    H152271   1.655   5.790   2.649  1.2718 -1.9826 -1.6277
10260TIP3    H252272   1.742   5.862   2.750 -3.0492 -0.2791  1.0161
10261TIP3   OH252273   1.594   5.047  16.654 -0.0254  0.4825 -0.0349
10261TIP3    H152274   1.630   5.002  16.578 -2.3072  0.3800 -1.0945
10261TIP3    H252275   1.670   5.061  16.712  1.2615 -1.9811 -1.0215
10262TIP3   OH252276   3.986   6.024   1.129  0.6196  0.7579  0.3344
10262TIP3    H152277   4.034   5.987   1.055 -2.3824  1.9654 -2.3253
10262TIP3    H252278   3.976   6.117   1.107  1.8893  1.7049  3.5237
10263TIP3   OH252279   2.128   2.710   1.120 -0.4710 -0.5881  0.1701
10263TIP3    H152280   2.185   2.787   1.124 -0.5007 -0.6410  1.7057
10263TIP3    H252281   2.040   2.744   1.132 -0.6382 -0.6723 -0.7976
10264TIP3   OH252282   3.346   1.115  13.221 -0.0967 -0.0420  0.0755
10264TIP3    H152283   3.415   1.057  13.189  0.2744  1.6763 -2.3616
10264TIP3    H252284   3.389   1.172  13.285  0.2317 -0.4478  0.2130
10265TIP3   OH252285   2.342   3.458   0.493  0.2280 -0.0456  0.4737
10265TIP3    H152286   2.290   3.519   0.545 -0.9389  0.0259 -0.7395
10265TIP3    H252287   2.287   3.380   0.485  0.3345 -0.0174 -0.7070
10266TIP3   OH252288   4.705   1.577  15.316  0.4086 -0.1449 -0.6087
10266TIP3    H152289   4.746   1.545  15.397 -0.2414  1.3235  0.3147
10266TIP3    H252290   4.616   1.542  15.320  0.4341 -0.2327 -0.7956
10267TIP3   OH252291   0.210   4.623  11.150  0.7921  0.1367 -0.1339
10267TIP3    H152292   0.217   4.653  11.240 -0.9823  0.7363 -0.1722
10267TIP3    H252293   0.263   4.685  11.099  2.7087 -0.8595  0.6111
10268TIP3   OH252294   3.929   1.390  13.183 -0.5058  0.3790  0.0683
10268TIP3    H152295   3.958   1.440  13.106 -0.8813  0.8853  0.2516
10268TIP3    H252296   4.010   1.366  13.228 -0.2307 -0.7162 -0.9731
10269TIP3   OH252297   5.361   0.205   5.160 -0.2793  0.0250 -0.1007
10269TIP3    H152298   5.377   0.183   5.068  1.1358 -1.1658  0.4021
10269TIP3    H252299   5.301   0.279   5.157 -0.8597 -0.4914 -1.9724
10270TIP3   OH252300   1.273   0.621   2.599  0.4732  0.4747 -0.6494
10270TIP3    H152301   1.274   0.608   2.694  2.3778  0.8135 -0.6085
10270TIP3    H252302   1.218   0.551   2.566  0.0019  0.2016  0.6942
10271TIP3   OH252303   0.075   0.258  12.927 -0.0333  0.4385  0.2146
10271TIP3    H152304   0.028   0.176  12.918 -0.1784  0.3508  1.6146
10271TIP3    H252305   0.050   0.309  12.850  1.0910 -1.3125 -1.3407
10272TIP3   OH252306   3.987   0.610  11.434  0.1005 -0.0089 -0.4336
10272TIP3    H152307   4.006   0.704  11.425  1.1514  0.0566  2.1006
10272TIP3    H252308   4.073   0.568  11.440 -0.3815 -0.9528  0.0084
10273TIP3   OH252309   6.000   1.368  15.420 -0.1552  0.1009  0.0418
10273TIP3    H152310   6.009   1.457  15.386 -0.6364 -0.2322 -1.0084
10273TIP3    H252311   5.952   1.322  15.351 -1.0848 -0.6296  1.1638
10274TIP3   OH252312   3.698   2.782   3.421 -0.0711  0.0792 -0.7637
10274TIP3    H152313   3.632   2.808   3.485  0.0195 -1.0311 -0.2057
10274TIP3    H252314   3.683   2.840   3.346 -1.0708  0.4609 -0.2759
10275TIP3   OH252315   5.803   5.038  15.244  0.3110 -0.0390  0.4915
10275TIP3    H152316   5.816   5.059  15.152  1.3087 -0.9229  0.4191
10275TIP3    H252317   5.709   5.018  15.251 -0.3467  2.8356  0.2726
10276TIP3   OH252318   4.413   5.248   6.282 -0.1738 -0.3471  0.2149
10276TIP3    H152319   4.356   5.253   6.358  0.1787 -0.0749  0.4617
10276TIP3    H252320   4.414   5.336   6.246  2.1622  0.2984  1.7383
10277TIP3   OH252321   4.227   4.360  12.141 -0.0698 -0.2032 -0.3563
10277TIP3    H152322   4.140   4.363  12.101  0.2086  2.5714 -0.8755
10277TIP3    H252323   4.287   4.356  12.067  0.3305  1.4297 -0.1428
10278TIP3   OH252324   5.931   5.233   4.133  0.0880 -0.3607 -0.3514
10278TIP3    H152325   5.988   5.242   4.209 -0.0006  0.6363 -0.3937
10278TIP3    H252326   5.847   5.205   4.170 -0.1441  0.7607  0.0045
10279TIP3   OH252327   3.028   0.157   5.464  0.1676 -0.1427  0.1285
10279TIP3    H152328   2.945   0.148   5.417 -0.5834 -1.2956  1.6163
10279TIP3    H252329   3.095   0.157   5.396 -0.8752 -2.0290 -0.9502
10280TIP3   OH252330   4.840   2.191   4.723  0.8371  0.1638 -0.0841
10280TIP3    H152331   4.913   2.215   4.779  1.5613  0.3797 -1.0982
10280TIP3    H252332   4.871   2.209   4.634  1.2750 -4.0263 -0.9025
10281TIP3   OH252333   3.750   4.264  15.140  0.2117 -0.0876  0.2493
10281TIP3    H152334   3.741   4.267  15.236 -0.5669 -0.8639  0.2027
10281TIP3    H252335   3.844   4.250  15.126  0.3807  0.3645  0.8902
10282TIP3   OH252336   4.447   4.583  15.614  0.3735 -0.2587  0.2226
10282TIP3    H152337   4.540   4.604  15.607  0.1014  1.5386  1.7138
10282TIP3    H252338   4.444   4.502  15.666  1.1031 -0.3634  0.0973
10283TIP3   OH252339   5.145   6.671  11.555  0.0466 -0.1412  0.3470
10283TIP3    H152340   5.062   6.623  11.555  0.8351 -1.5886  2.2984
10283TIP3    H252341   5.120   6.761  11.575 -0.9909 -0.6997  1.6572
10284TIP3   OH252342   4.701   6.188   3.758 -0.0319 -0.1032 -0.2513
10284TIP3    H152343   4.761   6.114   3.753  1.4860  1.0834 -0.0420
10284TIP3    H252344   4.695   6.209   3.851 -0.6119 -0.0869 -0.2873
10285TIP3   OH252345   2.236   4.176  13.832 -0.1659 -0.1348  0.8860
10285TIP3    H152346   2.307   4.197  13.893 -0.5489  4.0019  0.0253
10285TIP3    H252347   2.159   4.220  13.869 -1.4243 -1.3032 -0.2745
10286TIP3   OH252348   3.610   5.917  15.199  0.0831 -0.1651  0.7040
10286TIP3    H152349   3.617   5.881  15.287 -0.8908 -0.1069  0.8053
10286TIP3    H252350   3.665   5.859  15.145 -1.8542 -2.1233  0.7656
10287TIP3   OH252351   5.831   6.536  14.987 -0.0748 -0.1689  0.1186
10287TIP3    H152352   5.894   6.607  15.001  1.1206 -1.0590 -0.5763
10287TIP3    H252353   5.747   6.580  14.975 -0.0965  0.9493  3.6184
10288TIP3   OH252354   2.456   1.536   4.046 -0.1570  0.1163  0.2790
10288TIP3    H152355   2.484   1.619   4.008 -1.2933  0.8169  0.9511
10288TIP3    H252356   2.526   1.513   4.108  0.4844  0.2193 -0.3971
10289TIP3   OH252357   2.297   1.368  12.172 -0.0255 -0.1921  0.5062
10289TIP3    H152358   2.322   1.334  12.087 -0.9057 -2.6416  1.1832
10289TIP3    H252359   2.214   1.414  12.156  0.8935  1.2087 -0.3165
10290TIP3   OH252360   6.647   6.484  12.449  0.5650  0.2871  0.1079
10290TIP3    H152361   6.648   6.388  12.450  0.2782  0.2696 -0.6252
10290TIP3    H252362   6.606   6.509  12.531  0.9945 -0.2102  0.4762
10291TIP3   OH252363   3.440   5.433   1.197  0.0362 -0.3431 -0.2304
10291TIP3    H152364   3.369   5.432   1.261 -0.6383 -0.7629 -0.9685
10291TIP3    H252365   3.498   5.503   1.226  0.3508 -1.2935  1.4878
10292TIP3   OH252366   3.650   1.043  15.276 -0.1951 -0.2345  0.4042
10292TIP3    H152367   3.736   1.081  15.257  0.1275 -1.3124 -0.3076
10292TIP3    H252368   3.589   1.117  15.269  0.5543  0.3517  0.0060
10293TIP3   OH252369   5.022   6.199   5.413  0.1949  0.4963  0.2803
10293TIP3    H152370   5.115   6.218   5.418  0.4862  0.2234 -3.1421
10293TIP3    H252371   4.983   6.250   5.485  3.0015  0.1720  2.0853
10294TIP3   OH252372   5.374   0.305   4.436 -0.3016 -0.1463 -0.3756
10294TIP3    H152373   5.359   0.324   4.344 -1.5682 -0.0409 -0.1628
10294TIP3    H252374   5.310   0.237   4.457 -0.6618  0.5034  0.6582
10295TIP3   OH252375   0.001   1.739   1.139  0.2079  0.3432  0.5458
10295TIP3    H152376  -0.013   1.674   1.208 -2.0905  2.2758  1.9386
10295TIP3    H252377  -0.069   1.721   1.076 -0.5412  1.5755  1.0229
10296TIP3   OH252378   2.150   5.021   3.179 -0.4293 -0.1524  0.4516
10296TIP3    H152379   2.061   4.985   3.176 -0.5064  0.1017 -0.2800
10296TIP3    H252380   2.205   4.948   3.208 -1.0277 -0.0195  1.9675
10297TIP3   OH252381   1.450   0.839   0.808 -0.0383  0.3829 -0.2410
10297TIP3    H152382   1.426   0.846   0.900 -3.9810 -0.8788 -1.0615
10297TIP3    H252383   1.450   0.930   0.777 -1.3569  0.6412  0.4379
10298TIP3   OH252384   6.151   1.710   0.655 -0.1230 -0.7788  0.3617
10298TIP3    H152385   6.084   1.642   0.644 -1.7928  0.8056  0.5411
10298TIP3    H252386   6.227   1.677   0.606 -1.2466 -2.2905 -0.4067
10299TIP3   OH252387   0.893   5.100  11.924 -0.1999 -0.4943  0.2707
10299TIP3    H152388   0.943   5.026  11.959 -1.2418 -0.5542  1.6603
10299TIP3    H252389   0.952   5.175  11.931 -0.2081 -0.6038  1.7459
10300TIP3   OH252390   5.130   1.859   6.231  0.6435  0.7617 -0.2372
10300TIP3    H152391   5.114   1.884   6.140  1.4969  0.3538 -0.5012
10300TIP3    H252392   5.222   1.835   6.234  0.4039 -0.1062  0.5354
10301TIP3   OH252393   4.793   3.977   2.687  0.8031 -0.4131  0.7181
10301TIP3    H152394   4.714   4.015   2.726  0.7065  1.2410 -1.0062
10301TIP3    H252395   4.762   3.933   2.607  1.8359  1.8962 -1.0117
10302TIP3   OH252396   2.818   3.744  16.802  0.2730 -0.1773  0.0792
10302TIP3    H152397   2.887   3.795  16.845  0.8796 -0.2022 -0.8495
10302TIP3    H252398   2.865   3.690  16.739 -0.6070 -0.1937 -0.5609
10303TIP3   OH252399   1.248   0.671   0.699  0.4799  0.0285  0.1707
10303TIP3    H152400   1.321   0.722   0.734  0.9894 -0.7740  0.3055
10303TIP3    H252401   1.287   0.623   0.625  0.3427 -1.1734  0.8636
10304TIP3   OH252402   3.613   2.213   4.947 -0.6285 -0.2310  0.6549
10304TIP3    H152403   3.677   2.177   5.008 -1.2614 -0.1037  1.3991
10304TIP3    H252404   3.657   2.287   4.906 -0.4345  0.1033  1.4522
10305TIP3   OH252405   2.208   2.008  15.122 -0.2501 -1.0318 -0.1122
10305TIP3    H152406   2.283   1.950  15.114  0.0231 -1.0654  2.3138
10305TIP3    H252407   2.234   2.088  15.076  0.4203 -1.8250 -1.1238
10306TIP3   OH252408   1.398   0.561   4.644  0.2311 -0.4881  0.1128
10306TIP3    H152409   1.420   0.527   4.557  0.3246 -0.7353  0.2323
10306TIP3    H252410   1.345   0.639   4.627 -1.3922 -1.6300 -0.1463
10307TIP3   OH252411   4.494   3.210   4.392 -0.3929 -0.0206 -0.9305
10307TIP3    H152412   4.526   3.300   4.395  2.1753 -0.8984 -0.6308
10307TIP3    H252413   4.496   3.180   4.483 -0.3476 -0.6703 -1.1405
10308TIP3   OH252414   0.687   1.857  13.347 -0.1096  0.7693 -0.4964
10308TIP3    H152415   0.733   1.918  13.404 -0.5039  0.1381  0.5047
10308TIP3    H252416   0.597   1.888  13.346 -0.2235  0.4427 -0.3179
10309TIP3   OH252417   3.842   3.849  13.369 -0.3456 -0.1190 -0.2440
10309TIP3    H152418   3.894   3.782  13.413 -0.4729 -0.4651 -0.6152
10309TIP3    H252419   3.755   3.843  13.410 -0.7601 -1.1358 -1.2223
10310TIP3   OH252420   5.561   5.396   3.562  0.1157 -0.5309  0.0639
10310TIP3    H152421   5.565   5.474   3.507  0.5368 -2.7491 -3.2135
10310TIP3    H252422   5.653   5.371   3.574  0.0655  0.4223  2.5353
10311TIP3   OH252423   0.482   5.670   5.906  0.0960 -0.0371 -0.1261
10311TIP3    H152424   0.406   5.677   5.963  0.4920 -2.7345  0.7909
10311TIP3    H252425   0.483   5.753   5.858 -1.7593  1.2175  1.8744
10312TIP3   OH252426   4.320   0.297   3.165  0.1061  0.6096 -0.1468
10312TIP3    H152427   4.288   0.311   3.255 -0.0409  0.5541 -0.1891
10312TIP3    H252428   4.287   0.372   3.116 -0.0687  0.4882 -0.2178
10313TIP3   OH252429   2.451   2.689   3.160  0.1010  0.1039 -0.0624
10313TIP3    H152430   2.442   2.756   3.092  1.1729  0.0698 -0.2522
10313TIP3    H252431   2.538   2.704   3.198  0.0755 -0.7455  0.3669
10314TIP3   OH252432   3.943   2.180   0.942 -0.7180  0.7411 -0.2346
10314TIP3    H152433   4.032   2.150   0.959 -0.7236 -0.5335 -2.3149
10314TIP3    H252434   3.893   2.150   1.019  0.2354 -0.3331 -0.0114
10315TIP3   OH252435   3.468   1.477   4.393  0.0212 -0.3920  0.4196
10315TIP3    H152436   3.387   1.426   4.393  0.0912 -0.5069  0.7826
10315TIP3    H252437   3.497   1.476   4.302 -0.5650 -0.0591  0.2266
10316TIP3   OH252438   2.050   4.568  16.958 -0.3657 -0.9563  0.5089
10316TIP3    H152439   2.020   4.496  17.014 -1.4745 -0.0790  1.0470
10316TIP3    H252440   2.146   4.562  16.963 -0.4408 -1.9648  1.1013
10317TIP3   OH252441   2.718   6.440  17.051  0.2303  0.1617  0.4000
10317TIP3    H152442   2.792   6.473  17.102  0.8670 -1.9812  0.8977
10317TIP3    H252443   2.749   6.444  16.960  0.0603  1.5131  0.3916
10318TIP3   OH252444   0.618   3.670  11.174  0.5915 -0.3582 -0.7298
10318TIP3    H152445   0.564   3.646  11.099  0.8975  0.1884 -1.1322
10318TIP3    H252446   0.686   3.727  11.138  1.4758 -1.0844 -0.2383
10319TIP3   OH252447   5.309   2.032  14.041 -0.0423 -0.0025 -0.0199
10319TIP3    H152448   5.271   1.990  14.118  2.0569 -0.2076  0.9302
10319TIP3    H252449   5.274   2.121  14.042 -1.1208 -0.4292  0.3724
10320TIP3   OH252450   6.563   0.089   2.245  0.2374  0.0344  0.0936
10320TIP3    H152451   6.551   0.177   2.281  0.1149 -0.7562  2.0183
10320TIP3    H252452   6.505   0.034   2.296 -0.5217 -1.0000 -1.8503
10321TIP3   OH252453   2.926   1.180  10.967 -0.1730 -0.2303 -0.2170
10321TIP3    H152454   2.926   1.210  11.057 -1.0777 -0.9684  0.0322
10321TIP3    H252455   3.018   1.189  10.939  0.4346 -1.5170  1.2922
10322TIP3   OH252456   5.369   1.548   2.501 -0.2813  0.7200  0.2153
10322TIP3    H152457   5.366   1.586   2.413 -0.0375  0.5957  0.1534
10322TIP3    H252458   5.340   1.618   2.559  0.1235  0.9851  0.0973
10323TIP3   OH252459   4.829   5.206   5.195 -0.0062  0.5576  0.0762
10323TIP3    H152460   4.783   5.289   5.191 -1.0365 -0.0424 -0.8393
10323TIP3    H252461   4.817   5.176   5.285 -1.6644  0.2741 -0.2261
10324TIP3   OH252462   2.305   1.322  14.432 -0.2614  0.1838  0.0363
10324TIP3    H152463   2.399   1.308  14.445  0.1133  1.6438 -0.9173
10324TIP3    H252464   2.265   1.294  14.514  0.6470 -3.5758 -0.7392
10325TIP3   OH252465   5.922   5.708  13.724  0.2035 -0.0128  0.2241
10325TIP3    H152466   5.926   5.715  13.820 -0.0322  0.3733  0.2074
10325TIP3    H252467   5.940   5.797  13.693 -1.7024  0.3124 -0.0299
10326TIP3   OH252468   2.417   1.372   2.993 -0.2387  0.1002 -0.0770
10326TIP3    H152469   2.495   1.422   2.965 -0.6131  1.3601  1.1039
10326TIP3    H252470   2.435   1.349   3.084 -0.5896 -0.9519 -0.2645
10327TIP3   OH252471   4.566   2.182  10.205  0.2274  0.3092  0.3154
10327TIP3    H152472   4.651   2.223  10.199  0.3136  0.0572 -0.2380
10327TIP3    H252473   4.584   2.094  10.240  0.0375  0.7459  1.5525
10328TIP3   OH252474   0.961   4.123  16.295 -0.1069  0.4125  0.5801
10328TIP3    H152475   0.964   4.217  16.310 -0.5400  0.6417 -0.7354
10328TIP3    H252476   0.868   4.100  16.300  0.0342 -0.0162  1.3162
10329TIP3   OH252477   0.353   3.563   0.713 -0.6064 -0.6378  0.1131
10329TIP3    H152478   0.380   3.510   0.788 -3.4527 -0.0554  1.6402
10329TIP3    H252479   0.301   3.634   0.752  0.8286  1.6933 -2.1284
10330TIP3   OH252480   4.833   3.672  16.546  0.8159 -0.6055 -0.3461
10330TIP3    H152481   4.831   3.595  16.489 -2.3945 -0.8247 -0.0283
10330TIP3    H252482   4.811   3.639  16.632  2.1674  0.2812  0.3670
10331TIP3   OH252483   0.159   3.152   1.312 -0.1690 -0.0301  0.2847
10331TIP3    H152484   0.094   3.098   1.268 -2.2998 -0.2099  3.4290
10331TIP3    H252485   0.241   3.136   1.265 -1.8946 -1.7032 -2.2433
10332TIP3   OH252486   0.531   6.197   0.577  0.8464 -0.4783  0.1043
10332TIP3    H152487   0.542   6.291   0.562 -0.4180 -0.3381 -0.0455
10332TIP3    H252488   0.522   6.159   0.490 -0.5623 -0.4655  0.2296
10333TIP3   OH252489   3.707   0.969   4.742  0.2034 -0.1165 -0.3771
10333TIP3    H152490   3.614   0.985   4.756  0.7227  1.7983  1.0909
10333TIP3    H252491   3.727   0.892   4.796  0.1270  1.4140  1.9028
10334TIP3   OH252492   5.071   6.369   4.494 -0.1916  0.1774 -0.3215
10334TIP3    H152493   5.035   6.296   4.544  2.1096 -2.2170 -1.9987
10334TIP3    H252494   5.163   6.374   4.521 -0.0978  1.9544 -0.8435
10335TIP3   OH252495   3.724   2.422   3.761 -0.1905 -0.3685 -0.1920
10335TIP3    H152496   3.815   2.446   3.747 -0.3853  0.5203  0.0202
10335TIP3    H252497   3.726   2.360   3.834  0.1821  0.1970  0.2864
10336TIP3   OH252498   6.635   4.281   5.548  0.5538 -0.7471 -0.0910
10336TIP3    H152499   6.652   4.218   5.479  1.8302  1.1834 -1.6005
10336TIP3    H252500   6.654   4.366   5.508 -0.4297  0.5408  2.0934
10337TIP3   OH252501   3.651   4.512   3.539  0.0228 -0.2757 -0.3505
10337TIP3    H152502   3.742   4.502   3.510  0.0787  0.0299 -0.2749
10337TIP3    H252503   3.624   4.423   3.563  0.4936 -0.2660  0.2092
10338TIP3   OH252504   3.872   4.425   1.935 -0.7409 -0.3269  0.3335
10338TIP3    H152505   3.862   4.434   1.840 -2.9644  1.7276  0.7123
10338TIP3    H252506   3.877   4.331   1.950  0.2407 -0.6479 -1.8832
10339TIP3   OH252507   4.194   1.773  11.454 -0.3296  0.1088  0.5284
10339TIP3    H152508   4.178   1.822  11.373  0.8904 -0.8969 -0.3404
10339TIP3    H252509   4.233   1.691  11.425  0.0730 -0.2855  2.1455
10340TIP3   OH252510   2.967   2.647   3.099  0.2408 -0.0326  0.5784
10340TIP3    H152511   2.899   2.659   3.033 -0.0242 -1.5775  0.5604
10340TIP3    H252512   3.044   2.691   3.062 -0.1184 -0.2244 -0.4216
10341TIP3   OH252513   1.073   5.488   3.597  0.2346  0.2105 -0.0166
10341TIP3    H152514   1.009   5.456   3.534  1.7849  1.9638 -2.5910
10341TIP3    H252515   1.020   5.526   3.667 -1.6599  3.0470 -2.8236
10342TIP3   OH252516   3.589   4.127  13.849 -0.2136  0.0838 -0.3620
10342TIP3    H152517   3.624   4.048  13.807  1.5785 -0.0781  1.3455
10342TIP3    H252518   3.549   4.176  13.777 -0.9123 -2.1295 -1.5389
10343TIP3   OH252519   4.113   0.768  15.120 -0.0255  0.1562 -0.4495
10343TIP3    H152520   4.133   0.688  15.170  1.3181  0.9162  0.2634
10343TIP3    H252521   4.063   0.737  15.044 -1.3495 -1.1331  0.8936
10344TIP3   OH252522   4.081   0.701   1.242  0.3355  0.1167 -0.3269
10344TIP3    H152523   4.040   0.643   1.178  1.1416  0.1198 -0.8506
10344TIP3    H252524   4.021   0.701   1.317 -0.4431 -0.1484 -0.9493
10345TIP3   OH252525   2.192   1.843   3.766  0.4047  0.4404  0.3241
10345TIP3    H152526   2.248   1.920   3.751  0.3352  0.3545 -0.4273
10345TIP3    H252527   2.250   1.768   3.752 -0.0568  0.3442 -1.1846
10346TIP3   OH252528   0.819   1.310   5.134 -0.4413 -0.0771  0.2985
10346TIP3    H152529   0.862   1.227   5.119 -0.3029 -0.0831  0.7179
10346TIP3    H252530   0.881   1.360   5.187 -0.2919  0.4989 -0.4136
10347TIP3   OH252531   1.230   1.733   5.141 -0.2908 -0.2674  0.1735
10347TIP3    H152532   1.260   1.722   5.231  2.3251  0.3414 -0.5955
10347TIP3    H252533   1.199   1.646   5.115 -1.0618 -0.4402  1.6421
10348TIP3   OH252534   6.032   3.305  12.686  0.7819 -0.1266 -0.5713
10348TIP3    H152535   5.999   3.285  12.598 -0.8556  0.7931 -0.2003
10348TIP3    H252536   5.955   3.295  12.742  1.8426 -0.8022  0.7744
10349TIP3   OH252537   0.974   1.112   2.273  0.5925  0.4317  0.2406
10349TIP3    H152538   0.944   1.167   2.345 -0.8544 -0.8352  0.6520
10349TIP3    H252539   0.935   1.152   2.195  0.3508  0.5537  0.4222
10350TIP3   OH252540   0.365   1.648  15.264  0.4008  0.4664  0.2073
10350TIP3    H152541   0.358   1.670  15.357  1.9026  1.9122  0.0008
10350TIP3    H252542   0.287   1.687  15.224  0.3657  0.8893  0.6817
10351TIP3   OH252543   0.558   5.573   1.868  0.4295  0.6171 -0.5717
10351TIP3    H152544   0.465   5.568   1.843  0.0019 -0.3964  1.1416
10351TIP3    H252545   0.575   5.666   1.882 -0.8182  0.6553  0.8368
10352TIP3   OH252546   4.698   1.402   3.022  0.1342 -0.2338  0.1301
10352TIP3    H152547   4.731   1.485   2.987 -0.2218 -0.0390  0.2571
10352TIP3    H252548   4.616   1.425   3.066  0.2563 -0.5818  0.5414
10353TIP3   OH252549   4.388   5.354  12.003 -0.0301  0.4432 -0.3543
10353TIP3    H152550   4.319   5.418  11.986  0.6624  2.2610  3.1180
10353TIP3    H252551   4.445   5.359  11.926 -0.8630  2.8566 -0.8581
10354TIP3   OH252552   4.178   3.404   3.632 -0.7153 -0.4138 -0.1652
10354TIP3    H152553   4.233   3.420   3.709 -0.5497  2.4062 -0.8329
10354TIP3    H252554   4.092   3.385   3.669 -0.3166 -0.5191  0.7506
10355TIP3   OH252555   4.929   5.607   5.846  0.1185 -0.0105  0.0616
10355TIP3    H152556   4.895   5.630   5.760  1.7593  0.8022 -0.3986
10355TIP3    H252557   4.954   5.515   5.838 -0.1538 -0.0627 -0.1854
10356TIP3   OH252558   3.013   3.221   2.118 -0.2476 -0.1747 -0.1518
10356TIP3    H152559   2.977   3.306   2.143 -0.5989 -0.5944  0.7705
10356TIP3    H252560   2.961   3.194   2.042 -0.7968 -0.0285  0.1742
10357TIP3   OH252561   4.983   4.328   2.176  0.0498 -0.6034  0.0809
10357TIP3    H152562   5.042   4.403   2.166 -2.1982  1.1990 -0.2896
10357TIP3    H252563   5.014   4.284   2.255  1.1760  0.9860  0.5613
10358TIP3   OH252564   2.508   2.419  16.111 -0.4412  0.1899  0.2596
10358TIP3    H152565   2.503   2.500  16.161  0.4346 -0.3638  1.2762
10358TIP3    H252566   2.579   2.369  16.153 -1.4544 -1.4090  0.1241
10359TIP3   OH252567   5.071   2.636  12.474 -0.5788 -0.4667 -0.7399
10359TIP3    H152568   5.016   2.575  12.423 -0.5584 -0.0402 -1.2824
10359TIP3    H252569   5.079   2.713  12.417  0.0988 -0.2975 -0.4104
10360TIP3   OH252570   0.963   2.774  13.604 -0.0816 -0.3595 -0.3195
10360TIP3    H152571   1.048   2.777  13.646  0.2778  1.4225 -1.1126
10360TIP3    H252572   0.911   2.840  13.650 -0.8220 -0.9839 -0.2598
10361TIP3   OH252573   4.038   5.060   5.419  0.0156  0.0532  0.1345
10361TIP3    H152574   4.097   5.017   5.357 -0.7428 -0.0655 -0.5158
10361TIP3    H252575   3.957   5.010   5.413 -0.3324  0.5617  0.6070
10362TIP3   OH252576   6.267   1.975  16.919 -0.8958  0.3389  0.1665
10362TIP3    H152577   6.343   1.938  16.965  0.0790  2.3737  0.2268
10362TIP3    H252578   6.204   1.994  16.988 -1.2478 -0.7867  0.1739
10363TIP3   OH252579   1.917   4.990  13.865 -0.1513 -0.0936  0.3303
10363TIP3    H152580   1.918   4.937  13.945  1.8943 -1.7237 -0.7171
10363TIP3    H252581   1.831   5.031  13.864 -0.1926  0.0382  3.4165
10364TIP3   OH252582   2.911   0.354  12.116 -0.1812  0.2984  0.3036
10364TIP3    H152583   2.852   0.346  12.191 -1.6676  0.2138 -0.8588
10364TIP3    H252584   2.916   0.448  12.100  1.4396  0.4463  1.4987
10365TIP3   OH252585   5.766   1.396  12.408  0.7533 -0.1323 -0.2902
10365TIP3    H152586   5.735   1.452  12.479 -1.8867  0.3711 -1.7892
10365TIP3    H252587   5.764   1.308  12.444 -0.8458  0.0887  0.1673
10366TIP3   OH252588   5.314   3.841   4.880  0.2729  0.4331  0.0026
10366TIP3    H152589   5.242   3.876   4.933 -0.6655 -0.6616 -0.5418
10366TIP3    H252590   5.323   3.904   4.808  2.4559  2.6775  2.1165
10367TIP3   OH252591   6.380   3.082  15.059 -0.4359  0.1309  0.1728
10367TIP3    H152592   6.461   3.112  15.019 -0.2789 -1.3023 -0.6212
10367TIP3    H252593   6.372   3.133  15.139 -0.0751  2.0990 -1.0228
10368TIP3   OH252594   3.746   5.631   0.238  0.0858 -0.1805  0.0612
10368TIP3    H152595   3.696   5.709   0.211 -2.1794 -1.4863  0.3640
10368TIP3    H252596   3.706   5.604   0.320  0.9608 -1.5987  0.0329
10369TIP3   OH252597   0.791   6.456  16.225 -0.4580  0.6498 -0.0666
10369TIP3    H152598   0.758   6.482  16.139 -1.3393 -1.6209 -0.4541
10369TIP3    H252599   0.716   6.416  16.269  0.9194 -1.6554  0.2783
10370TIP3   OH252600   3.841   3.925   2.698  0.2882  0.2405 -0.8131
10370TIP3    H152601   3.756   3.959   2.669  0.0889  0.8945  0.5000
10370TIP3    H252602   3.897   3.932   2.621 -0.6785  0.3954 -1.5162
10371TIP3   OH252603   3.473   1.874   1.862  0.2304  0.3282  0.5070
10371TIP3    H152604   3.432   1.810   1.804  0.0748 -0.2467  1.2488
10371TIP3    H252605   3.563   1.880   1.831 -0.7022  2.5474 -1.9520
10372TIP3   OH252606   3.474   3.716   4.784 -0.0313  0.8085  0.7955
10372TIP3    H152607   3.419   3.793   4.794 -1.6564 -0.3675  1.0849
10372TIP3    H252608   3.424   3.645   4.825 -0.1505 -1.1347 -2.5285
10373TIP3   OH252609   2.378   1.106   0.391 -0.7603 -0.3040  0.5866
10373TIP3    H152610   2.300   1.163   0.384 -0.2747  0.0952 -1.9728
10373TIP3    H252611   2.350   1.023   0.353 -0.2565 -0.5391  0.7307
10374TIP3   OH252612   3.381   3.527   1.812 -0.1824  0.0024  0.5501
10374TIP3    H152613   3.348   3.477   1.887 -0.9215  0.0836  0.2804
10374TIP3    H252614   3.475   3.510   1.812  0.1928  1.9286  2.9507
10375TIP3   OH252615   0.528   2.806  15.494 -0.2091  0.5559 -0.2798
10375TIP3    H152616   0.603   2.850  15.456  0.1825  2.5995  2.6459
10375TIP3    H252617   0.552   2.793  15.586 -2.5890 -0.6627  0.2122
10376TIP3   OH252618   3.277   5.647  16.600  0.4122  0.1916 -0.6368
10376TIP3    H152619   3.247   5.611  16.684  0.1567  0.6840 -0.5114
10376TIP3    H252620   3.208   5.623  16.538  0.8594 -0.6361 -0.8231
10377TIP3   OH252621   3.428   2.161  15.423 -0.4564 -0.6043 -0.2207
10377TIP3    H152622   3.402   2.083  15.375 -2.4160  0.3934 -0.8295
10377TIP3    H252623   3.371   2.163  15.500  0.9213 -0.8217  0.8235
10378TIP3   OH252624   5.910   0.550  17.204  0.5624  0.5370  0.4145
10378TIP3    H152625   5.902   0.456  17.218 -2.8710  0.8906  1.3356
10378TIP3    H252626   6.000   0.563  17.175  1.2730 -2.9366  0.9133
10379TIP3   OH252627   0.455   2.862  12.812  0.7094  0.5800 -0.0505
10379TIP3    H152628   0.449   2.802  12.886 -0.6473  0.1067 -0.5255
10379TIP3    H252629   0.427   2.946  12.847 -0.9905  0.1238 -0.2716
10380TIP3   OH252630   5.717   5.336  11.876  0.6872  0.1533 -0.3188
10380TIP3    H152631   5.799   5.385  11.879  0.4543  0.5758 -0.8421
10380TIP3    H252632   5.683   5.350  11.788 -0.2502  0.4796  0.0863
10381TIP3   OH252633   4.398   2.627  16.703 -0.0878  0.1293  0.5644
10381TIP3    H152634   4.477   2.665  16.664  0.3214 -0.6994  0.5786
10381TIP3    H252635   4.350   2.590  16.630 -0.4193  0.5506  0.5686
10382TIP3   OH252636   5.073   6.351  11.823  0.5627  0.3851 -0.0289
10382TIP3    H152637   4.995   6.299  11.801  2.2845 -2.1592 -0.2819
10382TIP3    H252638   5.093   6.327  11.913  1.5335  0.4215 -0.2348
10383TIP3   OH252639   6.671   0.070  16.107 -0.5734  0.0412 -0.0172
10383TIP3    H152640   6.703   0.080  16.018 -1.5192 -2.9723 -0.7560
10383TIP3    H252641   6.588   0.023  16.097 -1.1600  0.4878  2.4047
10384TIP3   OH252642   1.430   3.498   5.429  0.0394  0.2510 -0.5675
10384TIP3    H152643   1.373   3.554   5.482 -0.8373 -2.4910  1.5040
10384TIP3    H252644   1.517   3.536   5.440 -0.4684  1.0006  1.1521
10385TIP3   OH252645   2.476   4.533   4.117 -0.7979 -0.2952  0.4476
10385TIP3    H152646   2.430   4.614   4.093  0.9738  0.3855 -0.7545
10385TIP3    H252647   2.491   4.489   4.033  1.3184 -0.1624  0.7243
10386TIP3   OH252648   3.634   1.755   6.801  0.2666 -0.1041  0.3541
10386TIP3    H152649   3.548   1.793   6.821  0.6337  1.3653 -0.7623
10386TIP3    H252650   3.617   1.688   6.735  0.1833  1.4852 -1.2687
10387TIP3   OH252651   5.978   3.941   5.115 -1.0069  0.2018 -0.4408
10387TIP3    H152652   6.023   3.901   5.189 -0.4283  1.4718 -0.0933
10387TIP3    H252653   5.885   3.922   5.130 -0.6993 -1.5385 -0.6204
10388TIP3   OH252654   6.407   4.939   5.363 -0.0907 -0.0216  0.0511
10388TIP3    H152655   6.380   4.847   5.356  1.9902 -0.5763 -1.0752
10388TIP3    H252656   6.378   4.966   5.450 -0.4819 -1.8168  0.5026
10389TIP3   OH252657   4.824   1.284   1.721 -0.4547  0.4146  0.1151
10389TIP3    H152658   4.838   1.348   1.651 -2.5447  1.3951  0.5573
10389TIP3    H252659   4.741   1.242   1.699 -0.5750 -0.0651  1.4128
10390TIP3   OH252660   2.251   4.181  17.174 -0.3788 -0.0717  0.1448
10390TIP3    H152661   2.178   4.193  17.113  0.1792 -3.0445 -1.1884
10390TIP3    H252662   2.211   4.142  17.252 -0.5702  0.5312  0.3519
10391TIP3   OH252663   2.352   5.288   4.873 -0.1270 -0.5212  0.1895
10391TIP3    H152664   2.256   5.286   4.878 -0.1665  2.2198  1.2457
10391TIP3    H252665   2.380   5.272   4.963  0.3908  0.1754  0.1476
10392TIP3   OH252666   6.304   2.312   2.057  0.7232  0.3835 -0.2871
10392TIP3    H152667   6.273   2.295   1.969  1.7032 -2.8748 -0.0744
10392TIP3    H252668   6.400   2.310   2.050  0.8198  0.7479  0.7204
10393TIP3   OH252669   6.646   4.432  16.889 -0.3488  0.1071  0.0389
10393TIP3    H152670   6.696   4.468  16.816  1.2776 -0.7502  0.7129
10393TIP3    H252671   6.702   4.445  16.966 -2.0687  1.0774  1.1742
10394TIP3   OH252672   5.660   6.605   2.533  0.0314  0.1169 -0.0827
10394TIP3    H152673   5.579   6.562   2.507  1.2636 -1.9637 -0.5340
10394TIP3    H252674   5.715   6.536   2.570  0.7217  1.8983  2.4303
10395TIP3   OH252675   0.982   2.543  12.154 -0.0590  0.3775  0.3434
10395TIP3    H152676   1.053   2.513  12.098 -1.6312 -1.3297 -0.8241
10395TIP3    H252677   1.024   2.599  12.219  2.1478  0.4389 -1.0883
10396TIP3   OH252678   1.777   1.925  16.205  0.0647  0.5213  0.0141
10396TIP3    H152679   1.683   1.939  16.200 -0.0089  0.2007  0.4690
10396TIP3    H252680   1.807   1.989  16.270  0.1016  0.3427  0.1731
10397TIP3   OH252681   5.820   2.135  16.801 -0.0323 -0.5461 -0.1625
10397TIP3    H152682   5.902   2.090  16.780 -0.0890 -0.1297 -1.3469
10397TIP3    H252683   5.759   2.065  16.826  0.7002 -0.8490  0.7922
10398TIP3   OH252684   4.980   1.409  12.981 -0.3539  0.3112 -0.2234
10398TIP3    H152685   4.962   1.364  12.898 -1.0529 -0.3590  0.2842
10398TIP3    H252686   4.920   1.483  12.981 -2.4885 -1.3778  1.0299
10399TIP3   OH252687   0.315   0.816   5.835 -0.7801 -0.7704 -0.1022
10399TIP3    H152688   0.403   0.784   5.856 -0.3826  1.0181  1.0129
10399TIP3    H252689   0.328   0.905   5.804 -2.2574 -0.2500  0.7252
10400TIP3   OH252690   4.007   1.631  11.633  0.4124 -0.5385 -0.0685
10400TIP3    H152691   4.073   1.675  11.580  2.5169 -2.3223  0.9944
10400TIP3    H252692   3.969   1.565  11.576 -0.5416  0.5330 -0.6995
10401TIP3   OH252693   4.143   3.582  16.852  0.4118  0.0566  0.1506
10401TIP3    H152694   4.123   3.492  16.878  0.4386  0.1554  0.5143
10401TIP3    H252695   4.079   3.635  16.901  0.8277  0.2854  0.4448
10402TIP3   OH252696   0.667   5.786  12.449 -0.2178 -0.6446  0.3661
10402TIP3    H152697   0.637   5.877  12.448 -0.0459 -0.5885  0.2240
10402TIP3    H252698   0.693   5.770  12.539 -0.1672 -0.5251  0.3720
10403TIP3   OH252699   0.922   0.840   1.391 -0.0138  0.4670 -0.0713
10403TIP3    H152700   0.854   0.789   1.345 -0.1020 -0.8360  1.4683
10403TIP3    H252701   0.971   0.775   1.440  1.0494  1.6777  0.4829
10404TIP3   OH252702   1.425   0.271  16.933  0.3039 -0.1414  0.3971
10404TIP3    H152703   1.401   0.210  16.863  2.9273  1.5438 -2.1186
10404TIP3    H252704   1.365   0.344  16.923 -0.7987 -0.8921  1.4051
10405TIP3   OH252705   6.180   1.121   1.847  0.1614 -0.3125 -0.1591
10405TIP3    H152706   6.209   1.044   1.797  0.2762 -1.0537  1.0147
10405TIP3    H252707   6.256   1.179   1.849 -0.1462  0.1463 -1.6458
10406TIP3   OH252708   0.489   5.164  15.624  0.2649  0.1344  0.2199
10406TIP3    H152709   0.574   5.128  15.649  0.6156  1.5190  1.1019
10406TIP3    H252710   0.509   5.251  15.589 -0.8043  0.5874  0.7070
10407TIP3   OH252711   1.622   2.933   0.131  0.0846 -0.4534  0.2623
10407TIP3    H152712   1.636   2.990   0.207 -0.7069 -1.0205  0.8540
10407TIP3    H252713   1.527   2.923   0.126  0.2207 -2.2083  0.5572
10408TIP3   OH252714   3.372   1.493  13.518  0.4755 -0.2569  0.8962
10408TIP3    H152715   3.374   1.548  13.596  0.1052  1.4291 -0.2725
10408TIP3    H252716   3.426   1.539  13.454 -0.2760 -0.9720 -0.2740
10409TIP3   OH252717   0.216   4.451  11.530  0.2670 -0.2802  0.2253
10409TIP3    H152718   0.185   4.390  11.597 -1.0440 -1.5068 -1.4060
10409TIP3    H252719   0.136   4.492  11.497  1.0861  1.7954  0.7916
10410TIP3   OH252720   3.250   4.625   2.111  0.2237  0.0632  0.2108
10410TIP3    H152721   3.173   4.669   2.075 -0.2913 -0.9323  0.0970
10410TIP3    H252722   3.320   4.646   2.050 -0.0150  0.7263  0.1572
10411TIP3   OH252723   2.109   0.908   0.109 -0.1796 -0.3671 -0.6324
10411TIP3    H152724   2.039   0.938   0.168  2.3693 -1.5754  3.1676
10411TIP3    H252725   2.136   0.987   0.062 -1.1762  0.9811  1.0190
10412TIP3   OH252726   5.557   3.406  12.696  0.1103  1.1456 -0.0028
10412TIP3    H152727   5.484   3.353  12.729  1.0400 -0.8766 -1.1004
10412TIP3    H252728   5.601   3.437  12.775 -1.4090  1.6610  0.6647
10413TIP3   OH252729   5.462   3.164   3.487  0.4488  0.3486 -0.5730
10413TIP3    H152730   5.413   3.224   3.431  1.3564  0.0411 -1.7310
10413TIP3    H252731   5.399   3.133   3.552 -0.3022  1.6950 -0.6476
10414TIP3   OH252732   3.252   4.775   5.101 -0.1559 -0.5808 -0.0354
10414TIP3    H152733   3.254   4.770   5.006 -0.0017 -0.3125 -0.0472
10414TIP3    H252734   3.259   4.868   5.121 -0.1337 -0.6392  0.2387
10415TIP3   OH252735   4.964   4.474   0.291 -0.0567  0.2664 -0.1363
10415TIP3    H152736   4.911   4.414   0.343 -1.2807 -1.0756 -2.8316
10415TIP3    H252737   4.927   4.560   0.308 -2.0899 -0.4662 -0.7402
10416TIP3   OH252738   2.662   5.511  12.678  0.4124  0.3662  0.0632
10416TIP3    H152739   2.709   5.443  12.727 -0.2589  0.0234  0.2444
10416TIP3    H252740   2.592   5.539  12.737 -0.4875 -0.1488 -0.7395
10417TIP3   OH252741   0.895   5.005  14.221 -0.5558  0.2041 -0.3616
10417TIP3    H152742   0.804   5.021  14.247 -0.7676 -1.7217  0.1571
10417TIP3    H252743   0.888   4.968  14.133 -0.2499  0.4200 -0.4756
10418TIP3   OH252744   6.801   3.451  13.240 -0.0028  0.0844  0.2172
10418TIP3    H152745   6.872   3.398  13.276 -0.3734  1.1401  2.5785
10418TIP3    H252746   6.757   3.488  13.316 -2.3229  0.4693 -1.2416
10419TIP3   OH252747   2.792   1.926  11.607  0.2516 -0.4059 -0.5917
10419TIP3    H152748   2.786   1.928  11.703 -0.6276 -1.0788 -0.6227
10419TIP3    H252749   2.750   1.843  11.583  1.4619 -0.7731 -1.4910
10420TIP3   OH252750   4.996   2.806   3.232 -0.0723 -0.2334 -0.4570
10420TIP3    H152751   4.975   2.714   3.218 -2.0748  0.4691 -2.2900
10420TIP3    H252752   4.918   2.854   3.203  0.3692  1.9818  1.7992
10421TIP3   OH252753   1.821   3.973  14.325 -0.7288 -0.1524  0.4760
10421TIP3    H152754   1.802   4.047  14.383 -0.4330  0.7197 -0.5205
10421TIP3    H252755   1.893   4.004  14.270 -1.0710 -0.9271 -0.4276
10422TIP3   OH252756   1.832   6.080   2.593 -0.4603  0.1757 -0.4501
10422TIP3    H152757   1.924   6.061   2.611 -0.6218  0.3376  0.5557
10422TIP3    H252758   1.787   5.997   2.606 -0.8109  0.6558  1.5386
10423TIP3   OH252759   6.596   5.262  16.817 -0.2155  0.2662  0.2402
10423TIP3    H152760   6.601   5.273  16.911  0.4895  0.2587  0.2030
10423TIP3    H252761   6.526   5.198  16.804  0.1628 -0.2587  0.7959
10424TIP3   OH252762   5.644   0.143  14.068  0.3514  0.1880  0.1247
10424TIP3    H152763   5.649   0.238  14.076  1.3739  0.2481 -0.9734
10424TIP3    H252764   5.560   0.119  14.107  1.1491  1.2816  2.5672
10425TIP3   OH252765   4.111   6.551   6.153 -0.2605 -0.7131 -0.3738
10425TIP3    H152766   4.169   6.613   6.108  0.6673 -0.8155  0.6688
10425TIP3    H252767   4.170   6.496   6.204 -1.2556 -1.0614  0.4057
10426TIP3   OH252768   3.980   1.015   3.617  0.3280  0.4440  0.7409
10426TIP3    H152769   4.025   0.939   3.654  0.6220  0.1755 -0.1559
10426TIP3    H252770   4.028   1.034   3.536  0.5509  1.8721  1.1834
10427TIP3   OH252771   2.274   0.400  14.095  0.0121 -0.0335 -0.0544
10427TIP3    H152772   2.200   0.341  14.099 -1.6768  2.0792  0.9920
10427TIP3    H252773   2.274   0.445  14.179  3.7044 -1.3955  0.7441
10428TIP3   OH252774   3.188   4.312   3.108 -0.2293 -0.1292  0.4808
10428TIP3    H152775   3.165   4.286   3.197  1.0171  1.5718  1.3307
10428TIP3    H252776   3.127   4.383   3.088  1.2109  1.2696  0.9953
10429TIP3   OH252777   6.753   5.796  15.788 -0.3308  0.5054  0.0770
10429TIP3    H152778   6.679   5.775  15.731 -0.2894  0.0617  0.1840
10429TIP3    H252779   6.721   5.775  15.876  1.4779 -4.3040 -0.2356
10430TIP3   OH252780   5.695   5.361   0.506 -0.3386 -0.8757  0.9122
10430TIP3    H152781   5.622   5.414   0.472 -0.0539 -0.9302  0.2207
10430TIP3    H252782   5.676   5.272   0.475  0.6888 -0.6650 -0.3543
10431TIP3   OH252783   0.670   0.406  11.859  0.2499 -0.3833 -0.4432
10431TIP3    H152784   0.682   0.498  11.836 -0.9261 -0.4059 -1.1738
10431TIP3    H252785   0.714   0.397  11.944  0.0596  0.9317 -0.1910
10432TIP3   OH252786   3.253   6.722   3.232  0.1095  0.1838  0.1892
10432TIP3    H152787   3.201   6.749   3.308  0.1873 -0.8758  0.6418
10432TIP3    H252788   3.246   6.794   3.170  0.4473  1.2786  1.4086
10433TIP3   OH252789   2.431   4.323   4.305  0.3757 -0.1490  0.5436
10433TIP3    H152790   2.445   4.303   4.212 -2.8809  1.6843 -0.4222
10433TIP3    H252791   2.483   4.401   4.322 -0.5900  0.7028 -0.3248
10434TIP3   OH252792   4.509   3.857  14.093 -0.3451 -0.1609  0.0531
10434TIP3    H152793   4.522   3.950  14.080  1.6217 -0.3185  0.7977
10434TIP3    H252794   4.428   3.851  14.144 -0.8588  1.0923 -0.6040
10435TIP3   OH252795   5.387   4.558  13.638 -0.5135 -0.2442 -0.3500
10435TIP3    H152796   5.333   4.486  13.670 -0.2552 -0.4310 -0.3313
10435TIP3    H252797   5.436   4.521  13.564  0.2745 -0.3380  0.2157
10436TIP3   OH252798   4.930   3.530  12.146  0.1864  1.2162  0.6980
10436TIP3    H152799   4.886   3.590  12.207 -0.4152  1.0321  0.4494
10436TIP3    H252800   4.882   3.448  12.154  1.4502  0.5570  1.5511
10437TIP3   OH252801   3.846   4.090  11.586  0.0238 -0.1647  0.0089
10437TIP3    H152802   3.773   4.106  11.647  2.7026  0.9270  3.0597
10437TIP3    H252803   3.872   4.000  11.603  0.2231 -0.1401 -0.1663
10438TIP3   OH252804   4.394   6.763   0.827 -0.0292  0.1778  0.3261
10438TIP3    H152805   4.377   6.677   0.789 -1.2731 -0.5132  2.3796
10438TIP3    H252806   4.329   6.820   0.786 -0.2128 -0.1787  0.1168
10439TIP3   OH252807   3.520   6.737  13.279  0.0909  0.0785  0.6424
10439TIP3    H152808   3.518   6.713  13.186 -2.6154  1.8138  0.2232
10439TIP3    H252809   3.444   6.693  13.317  0.3588  0.5599  1.7500
10440TIP3   OH252810   4.999   2.413  10.423  0.1422 -0.3672  0.0942
10440TIP3    H152811   5.088   2.442  10.443  0.1105  0.3575 -0.8096
10440TIP3    H252812   4.961   2.391  10.508  1.3089 -1.0387  0.4457
10441TIP3   OH252813   0.364   6.438   0.073 -0.1897  0.7035  0.3649
10441TIP3    H152814   0.403   6.406  -0.008  0.0304  0.1069  0.6999
10441TIP3    H252815   0.270   6.440   0.055 -0.0566  1.5596 -0.2423
10442TIP3   OH252816   1.122   5.591  13.452 -0.2738  0.7071  0.0501
10442TIP3    H152817   1.139   5.595  13.546 -1.9573  1.5081  0.3448
10442TIP3    H252818   1.116   5.497  13.432  1.2543  0.5153  0.5112
10443TIP3   OH252819   1.185   3.253  16.266 -0.2007 -0.2180  0.1385
10443TIP3    H152820   1.147   3.194  16.202 -0.4874  1.1687 -0.9933
10443TIP3    H252821   1.219   3.195  16.335 -0.9578 -1.6528 -0.6694
10444TIP3   OH252822   0.175   5.701   5.938  0.4123  0.2728  0.0800
10444TIP3    H152823   0.197   5.635   6.003 -1.8358 -0.5242  0.0685
10444TIP3    H252824   0.104   5.751   5.978 -1.7981 -0.9581 -2.1682
10445TIP3   OH252825   3.552   4.865   5.158 -0.3036  0.0331 -0.0796
10445TIP3    H152826   3.510   4.911   5.085  2.2100  1.9581 -0.4197
10445TIP3    H252827   3.527   4.916   5.235  0.4795  0.5486 -0.1550
10446TIP3   OH252828   3.493   3.969   5.463 -0.1173  0.4236 -0.1882
10446TIP3    H152829   3.426   3.911   5.427  1.3873 -0.5099 -1.5139
10446TIP3    H252830   3.534   3.918   5.533 -0.0479  0.5960 -0.1021
10447TIP3   OH252831   4.466   1.317   2.339 -0.6336  0.2346 -0.1394
10447TIP3    H152832   4.504   1.237   2.301  0.4072  1.4239 -1.6471
10447TIP3    H252833   4.527   1.342   2.408 -1.3668 -0.6805  0.8672
10448TIP3   OH252834   5.354   2.921   0.079  0.3122  0.0530  0.1232
10448TIP3    H152835   5.444   2.903   0.053  0.4738 -0.7404  1.1715
10448TIP3    H252836   5.322   2.984   0.015 -0.0325 -3.4492 -3.3658
10449TIP3   OH252837   6.019   4.653  13.291 -0.4173  0.2064  0.0034
10449TIP3    H152838   5.978   4.695  13.367 -4.2313 -0.5607 -1.5037
10449TIP3    H252839   6.039   4.725  13.232  0.1083  0.5578  0.5990
10450TIP3   OH252840   5.469   1.958   3.609  0.4260 -0.6366  0.6423
10450TIP3    H152841   5.444   2.041   3.568  2.2395  1.1311  2.9644
10450TIP3    H252842   5.487   1.899   3.536  1.7304  1.8469 -1.1117
10451TIP3   OH252843   5.799   4.106   2.882 -0.0922  0.2853  1.5439
10451TIP3    H152844   5.763   4.110   2.793  0.8449 -0.2964  1.1305
10451TIP3    H252845   5.856   4.182   2.888  0.3232 -0.0212  1.4391
10452TIP3   OH252846   4.726   0.130  12.683  0.1748 -0.2423 -0.6519
10452TIP3    H152847   4.699   0.058  12.741  5.0220  1.3188  3.9529
10452TIP3    H252848   4.661   0.198  12.698  1.6729  0.3815  3.7279
10453TIP3   OH252849   1.105   5.044  12.661  0.1604  0.5032 -0.4025
10453TIP3    H152850   1.092   4.962  12.708 -0.6018  0.4287 -0.7249
10453TIP3    H252851   1.061   5.030  12.577  0.3820  1.0989 -0.6213
10454TIP3   OH252852   4.826   3.426   6.135  0.2182  0.2095  0.8481
10454TIP3    H152853   4.915   3.453   6.159  0.7364 -0.8776  0.1639
10454TIP3    H252854   4.838   3.351   6.077 -1.1077  1.1224 -0.6529
10455TIP3   OH252855   0.073   5.295  11.833 -0.0872 -0.0953  0.3281
10455TIP3    H152856   0.137   5.268  11.767 -0.9717 -0.5641 -0.3538
10455TIP3    H252857   0.039   5.213  11.869 -1.6146  0.0998 -0.6117
10456TIP3   OH252858   1.334   1.308  13.190 -0.0804  0.0773  0.7934
10456TIP3    H152859   1.251   1.268  13.166 -0.0711  0.5955 -0.1110
10456TIP3    H252860   1.369   1.343  13.108  0.0915  1.6188  1.5023
10457TIP3   OH252861   5.186   4.001  11.521  0.2422  0.1860 -0.3116
10457TIP3    H152862   5.142   4.071  11.570 -1.4417  1.2625 -3.2257
10457TIP3    H252863   5.230   4.047  11.449  0.2035 -1.6273 -1.5004
10458TIP3   OH252864   0.229   0.465   5.447  0.0299  0.0182 -0.1759
10458TIP3    H152865   0.296   0.424   5.502  1.3257 -0.2249 -1.9185
10458TIP3    H252866   0.191   0.392   5.398 -1.0667  0.2488  0.3109
10459TIP3   OH252867   0.850   4.177  12.945 -0.4288  0.1816  0.0683
10459TIP3    H152868   0.755   4.172  12.933 -0.4690  1.4378 -0.1667
10459TIP3    H252869   0.866   4.268  12.970  0.5492 -0.4194  1.6667
10460TIP3   OH252870   1.196   3.640   1.598 -0.1940  0.2364 -0.1268
10460TIP3    H152871   1.262   3.706   1.620  0.9779 -1.3382  1.1802
10460TIP3    H252872   1.217   3.565   1.653 -1.0850 -1.5016 -2.0635
10461TIP3   OH252873   4.601   4.290   1.465  0.0142 -0.4600  1.0227
10461TIP3    H152874   4.572   4.216   1.411 -1.3941  0.8860 -0.1005
10461TIP3    H252875   4.597   4.256   1.555 -1.0842 -1.6186  0.5551
10462TIP3   OH252876   3.256   0.472   4.931  0.6849  0.5082 -0.0211
10462TIP3    H152877   3.254   0.553   4.880  0.8197  1.4798  1.4859
10462TIP3    H252878   3.186   0.418   4.895 -0.1314  1.7568 -0.2969
10463TIP3   OH252879   6.031   6.593   2.090  0.6022 -0.0897 -0.3935
10463TIP3    H152880   6.026   6.505   2.127  2.7270  0.4399  1.2142
10463TIP3    H252881   6.087   6.584   2.014 -0.5828 -0.4376 -1.2352
10464TIP3   OH252882   3.394   1.091   3.395 -0.1629  0.3767 -0.3835
10464TIP3    H152883   3.382   1.166   3.337  2.0121  0.0991 -1.2120
10464TIP3    H252884   3.462   1.039   3.354  2.7194  1.0853  3.2558
10465TIP3   OH252885   4.270   5.901  12.978 -0.3508  0.4153 -0.1746
10465TIP3    H152886   4.297   5.910  13.069 -0.7235 -2.0154  0.2047
10465TIP3    H252887   4.352   5.905  12.928  0.2464 -1.6355  0.5678
10466TIP3   OH252888   1.080   4.962   4.507  0.1587 -0.2541 -0.0195
10466TIP3    H152889   1.154   5.001   4.554 -1.2862  1.0370  1.2482
10466TIP3    H252890   1.069   4.876   4.546  0.1040  0.1055  0.7669
10467TIP3   OH252891   2.651   2.895  12.567 -0.2148 -0.0652 -0.6230
10467TIP3    H152892   2.644   2.810  12.610  1.0218  0.4543  0.6207
10467TIP3    H252893   2.647   2.959  12.638 -0.6067  0.9035 -1.5030
10468TIP3   OH252894   3.725   3.428  16.643  0.5798 -0.2005 -0.4898
10468TIP3    H152895   3.710   3.335  16.661 -1.9277  0.3153  0.2509
10468TIP3    H252896   3.817   3.441  16.663  1.0807 -2.6256 -1.0309
10469TIP3   OH252897   1.964   1.531   2.229  0.2471  0.3493 -0.3719
10469TIP3    H152898   2.017   1.453   2.246 -0.4246 -0.0508 -0.0938
10469TIP3    H252899   2.019   1.586   2.174  0.8358 -0.1973 -0.3339
10470TIP3   OH252900   5.898   2.176  13.539  0.9098  0.6230  0.7514
10470TIP3    H152901   5.861   2.200  13.624  1.4612  1.1036  0.8596
10470TIP3    H252902   5.865   2.242  13.478  0.5761  0.3234  0.6107
10471TIP3   OH252903   5.398   2.151   4.692  0.3971  0.3449  0.2332
10471TIP3    H152904   5.327   2.215   4.689 -0.4226 -0.5017  1.1467
10471TIP3    H252905   5.365   2.076   4.642  1.3895  0.6624 -0.9149
10472TIP3   OH252906   1.033   2.578  15.384  0.1728 -0.6911  0.4336
10472TIP3    H152907   1.088   2.530  15.446  1.1903 -0.2346 -0.1214
10472TIP3    H252908   1.074   2.664  15.376  0.9034 -1.2320 -2.0009
10473TIP3   OH252909   0.543   1.079  11.512  0.3791  0.2530 -1.0686
10473TIP3    H152910   0.461   1.119  11.539  0.2818 -1.0707  0.6542
10473TIP3    H252911   0.607   1.150  11.513 -0.0405  0.6116  0.7848
10474TIP3   OH252912   1.485   0.145   1.954 -0.2297 -0.0812  0.3200
10474TIP3    H152913   1.435   0.209   1.904 -0.3246  0.5329  1.1836
10474TIP3    H252914   1.574   0.152   1.921 -0.9124 -1.9860 -2.0278
10475TIP3   OH252915   0.504   0.673  14.481  0.2676 -0.6225 -0.4279
10475TIP3    H152916   0.549   0.717  14.410  0.6260 -0.5877 -0.1805
10475TIP3    H252917   0.429   0.630  14.440  1.5329 -2.1799 -1.1254
10476TIP3   OH252918   2.739   1.989   1.094 -0.4783  0.2819 -0.6690
10476TIP3    H152919   2.660   2.028   1.132 -1.2074 -0.6409 -1.2237
10476TIP3    H252920   2.728   1.895   1.108  0.5754  0.1618 -0.6545
10477TIP3   OH252921   2.046   2.673  14.665 -0.1251  0.2759  0.2150
10477TIP3    H152922   2.066   2.579  14.671  2.4850  0.7955  0.3816
10477TIP3    H252923   2.008   2.684  14.578 -1.8687 -1.1604  0.7652
10478TIP3   OH252924   3.345   0.880   5.470 -0.2124  0.1596 -0.3560
10478TIP3    H152925   3.371   0.888   5.562  1.2127 -0.3337 -0.7043
10478TIP3    H252926   3.251   0.901   5.470 -0.3716 -0.4331  1.2989
10479TIP3   OH252927   6.122   6.635   5.808  0.4359 -0.1244 -0.5715
10479TIP3    H152928   6.061   6.690   5.858  1.9560  0.2397  0.9226
10479TIP3    H252929   6.073   6.556   5.789 -1.5003  1.3620 -1.9912
10480TIP3   OH252930   5.919   4.302  11.872 -0.0753 -0.2653  0.0839
10480TIP3    H152931   5.920   4.355  11.952 -0.2740 -1.5737  0.9696
10480TIP3    H252932   5.918   4.211  11.903  0.8938 -0.8088 -1.4155
10481TIP3   OH252933   1.163   6.295   2.780 -0.3306  0.1947  0.4668
10481TIP3    H152934   1.194   6.222   2.727 -0.5619  0.1903  0.3365
10481TIP3    H252935   1.080   6.321   2.739 -0.5132  0.1898  0.8262
10482TIP3   OH252936   1.636   3.968   1.566  0.2146 -0.0951 -0.1776
10482TIP3    H152937   1.558   4.001   1.523 -1.2056 -0.6148  1.9276
10482TIP3    H252938   1.624   3.989   1.659  1.7600 -1.6928  0.4372
10483TIP3   OH252939   6.054   4.522  12.403 -0.9915  0.1623 -0.3110
10483TIP3    H152940   6.127   4.514  12.464 -0.9939 -0.9598 -0.4532
10483TIP3    H252941   6.092   4.501  12.318 -1.8775 -2.2647 -0.1381
10484TIP3   OH252942   5.795   4.192   5.792 -0.3808 -0.0477  0.2240
10484TIP3    H152943   5.722   4.131   5.802 -1.0346  0.3839 -1.6280
10484TIP3    H252944   5.794   4.215   5.699  2.5738 -0.5943  0.0113
10485TIP3   OH252945   0.938   1.247   4.747 -0.1587 -0.5387  0.1193
10485TIP3    H152946   0.912   1.340   4.751  0.1735 -0.2548 -2.8476
10485TIP3    H252947   0.873   1.207   4.690  1.3381 -1.4974 -0.9615
10486TIP3   OH252948   6.781   3.659   0.737  0.4517  0.2020 -0.5814
10486TIP3    H152949   6.769   3.567   0.762 -1.2369  0.4447 -0.4901
10486TIP3    H252950   6.808   3.702   0.818  1.6577 -0.2801 -0.7144
10487TIP3   OH252951   3.871   4.514  15.678 -0.3931  0.5522  0.2154
10487TIP3    H152952   3.870   4.610  15.683  0.5412  0.5010  1.9386
10487TIP3    H252953   3.892   4.486  15.767  1.8019 -1.1808 -0.7978
10488TIP3   OH252954   2.419   4.490  12.122 -0.2635  0.4036  0.3828
10488TIP3    H152955   2.346   4.465  12.177  0.4640 -1.4587  0.5447
10488TIP3    H252956   2.480   4.535  12.181 -0.9934  1.4420  0.3627
10489TIP3   OH252957   4.135   4.748   4.444 -0.0246  0.2662 -0.1234
10489TIP3    H152958   4.141   4.675   4.506  1.0460  0.7899  0.4114
10489TIP3    H252959   4.165   4.711   4.361  0.5634  0.0977  0.1546
10490TIP3   OH252960   1.001   4.237  13.615 -0.1273 -0.2982  0.0827
10490TIP3    H152961   1.071   4.173  13.627 -0.3726 -0.2619  1.8923
10490TIP3    H252962   0.924   4.194  13.651 -0.7303  0.2326 -0.5720
10491TIP3   OH252963   4.768   2.362   0.362 -0.0902  0.1597 -0.2447
10491TIP3    H152964   4.721   2.410   0.430  0.2360 -0.9826  0.7895
10491TIP3    H252965   4.763   2.420   0.285  0.6979  2.0646  1.0962
10492TIP3   OH252966   6.190   5.734  16.644  0.1558  0.0889 -0.8608
10492TIP3    H152967   6.151   5.693  16.721  0.8990 -0.5645 -0.8204
10492TIP3    H252968   6.229   5.815  16.677  0.7360 -0.3362 -0.4839
10493TIP3   OH252969   5.720   0.111  12.782 -0.2921  0.2523  0.2758
10493TIP3    H152970   5.742   0.186  12.726 -0.1614 -0.7134 -0.9844
10493TIP3    H252971   5.715   0.037  12.722  0.9879 -1.0272  1.7010
10494TIP3   OH252972   0.682   3.410  11.243  0.9435  0.0245 -0.2631
10494TIP3    H152973   0.651   3.488  11.198 -0.2669 -0.1093  0.3195
10494TIP3    H252974   0.700   3.439  11.332  0.3320 -0.3944 -0.0009
10495TIP3   OH252975   5.507   6.533   6.572 -0.0088 -0.8000  0.1971
10495TIP3    H152976   5.530   6.458   6.517 -0.6396 -1.0849  0.3195
10495TIP3    H252977   5.413   6.522   6.590 -0.0458 -0.1212  0.4274
10496TIP3   OH252978   3.244   4.786  15.448  0.5820  0.1673 -0.3222
10496TIP3    H152979   3.335   4.801  15.422  0.5099 -1.4476 -1.5838
10496TIP3    H252980   3.193   4.808  15.370 -0.0807  0.6046  0.2321
10497TIP3   OH252981   5.836   0.655   5.525 -0.0131  0.1463  0.1325
10497TIP3    H152982   5.851   0.600   5.602  0.2760 -1.7219 -1.2489
10497TIP3    H252983   5.756   0.621   5.485 -0.7450  1.7716  0.1415
10498TIP3   OH252984   0.303   6.009   1.375  0.1483 -0.1767  0.1708
10498TIP3    H152985   0.289   6.045   1.287  1.9121  0.1490  0.0028
10498TIP3    H252986   0.351   5.927   1.360 -0.6913 -0.7877  0.7648
10499TIP3   OH252987   5.410   3.246   0.283  0.2284  0.6035 -0.4077
10499TIP3    H152988   5.354   3.168   0.289 -0.2050  0.5687 -3.8254
10499TIP3    H252989   5.480   3.230   0.347 -0.7681 -1.8013  0.1511
10500TIP3   OH252990   4.111   4.247  16.607  0.4313 -0.1102 -0.4526
10500TIP3    H152991   4.083   4.166  16.649  0.5431 -0.1389 -0.4315
10500TIP3    H252992   4.078   4.241  16.517  1.2277 -0.5969 -0.7154
10501TIP3   OH252993   5.784   6.602  12.940 -0.7150 -0.1434  0.1145
10501TIP3    H152994   5.860   6.654  12.916 -0.2876 -0.6024  0.4747
10501TIP3    H252995   5.743   6.651  13.011  1.8140 -2.1580  3.0907
10502TIP3   OH252996   2.998   0.199   2.296 -0.3384 -0.2688  0.3620
10502TIP3    H152997   3.076   0.224   2.247 -0.2936  1.1734  1.1423
10502TIP3    H252998   2.951   0.281   2.309 -0.3825 -0.6336  2.6766
10503TIP3   OH252999   0.302   0.902   0.203 -0.5114 -0.1420  0.5049
10503TIP3    H153000   0.244   0.919   0.129  0.5148  0.7243 -0.1128
10503TIP3    H253001   0.390   0.898   0.164  0.0371  0.3577  1.6739
10504TIP3   OH253002   1.011   5.876   2.860 -0.5736 -0.6241 -0.0680
10504TIP3    H153003   1.104   5.857   2.851 -0.0848  1.4737  0.3360
10504TIP3    H253004   0.984   5.908   2.774 -0.3241  1.1212  0.4761
10505TIP3   OH253005   6.236   0.844   2.517 -0.0633  0.4133 -0.0169
10505TIP3    H153006   6.238   0.915   2.453 -1.3872 -0.2478 -0.8209
10505TIP3    H253007   6.167   0.786   2.486  0.4765 -0.8305  1.0565
10506TIP3   OH253008   2.986   6.527   0.931  0.3297  0.0849 -0.3655
10506TIP3    H153009   2.964   6.441   0.895  0.1991 -0.3164  0.6432
10506TIP3    H253010   2.961   6.521   1.023 -0.7352  1.5836 -0.5350
10507TIP3   OH253011   2.731   0.409   1.661 -0.0502  0.5470  0.7827
10507TIP3    H153012   2.712   0.489   1.612  0.2085 -0.2228 -0.5724
10507TIP3    H253013   2.645   0.371   1.679 -0.1248  0.6640  0.6761
10508TIP3   OH253014   3.534   4.419  14.350  0.1723 -0.5548 -0.1568
10508TIP3    H153015   3.574   4.502  14.376  0.0720 -0.9118  1.1805
10508TIP3    H253016   3.440   4.432  14.362  0.2431 -1.2397  1.1835
10509TIP3   OH253017   5.306   2.749   1.783  0.1744 -0.0318 -0.1605
10509TIP3    H153018   5.298   2.747   1.878  1.3050  0.7141 -0.0370
10509TIP3    H253019   5.344   2.834   1.763 -0.5386  0.0341 -1.3326
10510TIP3   OH253020   4.464   4.166   0.321 -0.2608 -0.2683  0.3275
10510TIP3    H153021   4.424   4.153   0.235 -0.6301  1.1545  0.2681
10510TIP3    H253022   4.504   4.082   0.342  0.7841 -0.3203 -1.7293
10511TIP3   OH253023   2.359   0.670   0.855  0.2094 -0.5030 -0.2516
10511TIP3    H153024   2.306   0.659   0.777  0.2761  0.6472 -0.4672
10511TIP3    H253025   2.429   0.730   0.829  1.3789 -1.6750  0.1465
10512TIP3   OH253026   1.308   0.132  14.633  0.6054 -0.3998 -0.0828
10512TIP3    H153027   1.241   0.133  14.565  0.3250  0.2495  0.1917
10512TIP3    H253028   1.286   0.207  14.688  0.8746 -0.8762  0.6767
10513TIP3   OH253029   5.313   1.967   1.367  0.3506  0.3247  0.6147
10513TIP3    H153030   5.228   1.956   1.410 -1.2712 -0.9044 -2.7491
10513TIP3    H253031   5.369   1.902   1.408 -0.7382  0.1217  1.8232
10514TIP3   OH253032   3.567   3.375  15.583  0.3930 -0.0659  0.5944
10514TIP3    H153033   3.530   3.287  15.594 -0.6493  0.0637 -1.5149
10514TIP3    H253034   3.660   3.365  15.605  0.2640 -1.6705  0.4883
10515TIP3   OH253035   3.081   3.957  11.922  0.6212 -0.2493 -0.4705
10515TIP3    H153036   3.010   3.939  11.983  1.9627  1.6614  1.7013
10515TIP3    H253037   3.079   4.052  11.910  0.8074 -0.5037 -2.9216
10516TIP3   OH253038   5.618   3.484  16.103 -0.3564 -0.2400 -0.1757
10516TIP3    H153039   5.571   3.433  16.038 -2.2087 -0.2323  1.1181
10516TIP3    H253040   5.561   3.560  16.119 -0.1528 -0.4823  1.7742
10517TIP3   OH253041   1.947   5.923  13.018  0.5499  0.9685  0.1710
10517TIP3    H153042   1.949   5.885  12.930 -1.9428  0.4954  0.2788
10517TIP3    H253043   1.899   5.859  13.070  3.8740  0.1897  2.4455
10518TIP3   OH253044   3.183   5.153  13.159 -0.4468 -0.3617 -0.5484
10518TIP3    H153045   3.120   5.157  13.087  0.4832  1.4362 -1.3062
10518TIP3    H253046   3.180   5.241  13.198  0.1508 -0.8709  0.6584
10519TIP3   OH253047   2.745   5.685   6.537 -0.0418  0.0762  0.1125
10519TIP3    H153048   2.836   5.671   6.564  0.2414  0.1792 -0.7685
10519TIP3    H253049   2.698   5.608   6.570  0.9775 -1.6249 -2.2898
10520TIP3   OH253050   6.257   2.702  13.092 -0.0611  0.2522 -0.4800
10520TIP3    H153051   6.274   2.794  13.114 -1.8340  0.2638  0.9681
10520TIP3    H253052   6.336   2.656  13.118  0.1845  1.1393  0.3871
10521TIP3   OH253053   2.623   2.210   4.073  0.6344  0.2864  0.8691
10521TIP3    H153054   2.624   2.304   4.056  0.4888  0.2716  0.7693
10521TIP3    H253055   2.610   2.202   4.167  0.9028  0.3687  0.9111
10522TIP3   OH253056   4.949   2.842   5.803  0.5474  0.4876 -0.3795
10522TIP3    H153057   4.984   2.851   5.892  0.1868 -2.6237  0.1188
10522TIP3    H253058   4.861   2.807   5.815  0.4252  0.2111 -1.9761
10523TIP3   OH253059   1.777   2.427  11.332 -0.6109 -0.2558 -0.2495
10523TIP3    H153060   1.855   2.467  11.369 -0.9835  0.5732 -0.3396
10523TIP3    H253061   1.809   2.375  11.259 -0.1689  0.3047 -0.4603
10524TIP3   OH253062   2.554   0.616  13.035 -0.0238  0.2945 -0.3096
10524TIP3    H153063   2.473   0.635  12.989  0.5115  0.0908 -1.3507
10524TIP3    H253064   2.622   0.659  12.984  0.5164  0.5374  0.6040
10525TIP3   OH253065   6.167   5.760   5.240  0.2983 -0.1345 -0.4626
10525TIP3    H153066   6.104   5.717   5.182  2.0695 -2.2451 -0.9086
10525TIP3    H253067   6.246   5.772   5.187 -0.0441  3.5582 -0.2625
10526TIP3   OH253068   3.704   5.588  15.229  0.3252  0.0939  0.4014
10526TIP3    H153069   3.789   5.548  15.246  0.1086 -1.4611 -1.8393
10526TIP3    H253070   3.717   5.638  15.148 -1.3142 -1.7310 -1.0585
10527TIP3   OH253071   2.394   2.835  10.914 -0.3148 -0.2398 -0.2883
10527TIP3    H153072   2.380   2.884  10.833 -0.5703 -2.6104 -1.7027
10527TIP3    H253073   2.487   2.850  10.935 -0.3410  0.6787 -0.8151
10528TIP3   OH253074   6.315   2.470  12.846  0.0077  0.0140 -0.1951
10528TIP3    H153075   6.253   2.540  12.868  0.1917  0.2260 -0.3440
10528TIP3    H253076   6.276   2.426  12.770  0.0932  0.2198 -0.3601
10529TIP3   OH253077   6.582   3.369  10.738  0.2780 -0.0432 -0.1220
10529TIP3    H153078   6.512   3.431  10.717 -0.9900 -0.9906  1.2205
10529TIP3    H253079   6.650   3.423  10.779 -1.4397  0.2999  2.3973
10530TIP3   OH253080   2.731   0.132  14.159 -0.6265  0.0151  0.1963
10530TIP3    H153081   2.779   0.213  14.141 -1.1722  0.4538  0.7155
10530TIP3    H253082   2.701   0.103  14.073  0.4002 -0.1566 -0.1112
10531TIP3   OH253083   3.694   4.250   3.272  0.7949  0.4187 -0.4032
10531TIP3    H153084   3.630   4.191   3.231  1.1784 -1.1021  1.1679
10531TIP3    H253085   3.677   4.244   3.365  1.4611  2.1064 -0.1490
10532TIP3   OH253086   6.738   2.584   1.847  0.0504 -0.6942 -0.2458
10532TIP3    H153087   6.773   2.573   1.935 -4.8453 -1.4621  1.8012
10532TIP3    H253088   6.717   2.677   1.840 -1.6395 -1.0145  0.3155
10533TIP3   OH253089   4.505   2.066   4.799  0.0251  0.0576 -0.0874
10533TIP3    H153090   4.531   1.975   4.812 -1.7931 -0.5559 -0.6394
10533TIP3    H253091   4.414   2.062   4.772  0.5995  1.9117 -2.4668
10534TIP3   OH253092   0.609   2.229   0.070  0.2893 -0.1793 -0.5596
10534TIP3    H153093   0.589   2.136   0.083  1.3821 -0.1089  1.8116
10534TIP3    H253094   0.656   2.255   0.149  2.2172  1.7783 -2.2880
10535TIP3   OH253095   0.950   4.963   1.804  0.1204  0.5201  0.5727
10535TIP3    H153096   0.937   4.898   1.873  3.3690  1.3413  2.0550
10535TIP3    H253097   0.989   4.913   1.732 -1.5777  0.0162 -0.0248
10536TIP3   OH253098   2.166   3.895  16.849 -0.2127 -0.2092  0.3550
10536TIP3    H153099   2.114   3.850  16.916  1.0368  0.5457  1.8779
10536TIP3    H253100   2.122   3.979  16.837 -0.9621 -0.7146 -0.4497
10537TIP3   OH253101   6.305   5.827  15.687 -0.4532 -0.3083 -0.0549
10537TIP3    H153102   6.361   5.903  15.708 -1.2770  0.2120  0.2787
10537TIP3    H253103   6.260   5.852  15.607 -0.2285 -0.7170 -0.3050
10538TIP3   OH253104   2.620   6.309   3.119  0.6040 -0.4248 -0.2797
10538TIP3    H153105   2.682   6.380   3.135 -0.8262  0.6838  0.5053
10538TIP3    H253106   2.536   6.343   3.152 -0.9328 -0.9410 -3.4161
10539TIP3   OH253107   5.117   2.455  16.391  0.3910 -0.0022  0.2659
10539TIP3    H153108   5.148   2.541  16.363  2.0322 -0.6355  0.1270
10539TIP3    H253109   5.112   2.461  16.487 -0.9783  0.7363  0.1539
10540TIP3   OH253110   4.072   6.369   0.832  0.5527 -0.2095 -0.4318
10540TIP3    H153111   3.994   6.313   0.828  0.0053  0.6554 -2.2931
10540TIP3    H253112   4.111   6.362   0.745  1.7489  0.5285  0.0344
10541TIP3   OH253113   6.340   3.758   1.194  0.4153  0.3744 -0.0198
10541TIP3    H153114   6.253   3.783   1.165  0.5354 -0.0559 -0.7642
10541TIP3    H253115   6.393   3.837   1.183  0.3560  0.3410 -0.5465
10542TIP3   OH253116   3.453   1.514   0.627  0.3091 -0.2059  0.0552
10542TIP3    H153117   3.484   1.531   0.538  0.8847 -0.2425  0.2475
10542TIP3    H253118   3.359   1.532   0.623  0.5819  1.2667 -0.1905
10543TIP3   OH253119   3.009   0.143  16.777  0.1487  0.2300  0.0336
10543TIP3    H153120   2.920   0.119  16.801  0.0153  0.9248  0.2477
10543TIP3    H253121   3.061   0.125  16.856  0.1017  0.3483  0.0927
10544TIP3   OH253122   2.082   2.272  15.518 -0.1155 -0.3388  0.5352
10544TIP3    H153123   2.068   2.363  15.543 -0.3030 -0.6017  1.3780
10544TIP3    H253124   2.172   2.253  15.545 -0.8998 -1.1588  2.6587
10545TIP3   OH253125   6.604   6.601  16.784 -0.6428 -0.3011  0.9222
10545TIP3    H153126   6.628   6.658  16.856  0.8428 -1.2617  1.2238
10545TIP3    H253127   6.593   6.659  16.709  2.8279  0.2436  0.7480
10546TIP3   OH253128   3.209   0.306   2.840  0.4725  0.2717 -0.7733
10546TIP3    H153129   3.153   0.376   2.875 -1.6614 -1.0820 -1.4157
10546TIP3    H253130   3.162   0.273   2.764  1.8132 -1.3826 -0.9111
10547TIP3   OH253131   0.378   5.639   0.625 -0.1746 -0.1851  0.2188
10547TIP3    H153132   0.348   5.643   0.716  0.5916 -2.5898  0.5905
10547TIP3    H253133   0.307   5.594   0.579  1.2651 -2.7540  0.4477
10548TIP3   OH253134   4.234   6.203   2.002 -0.3584 -0.2404  0.1310
10548TIP3    H153135   4.323   6.195   1.967 -0.7880 -1.1756 -0.7687
10548TIP3    H253136   4.235   6.286   2.050  0.5719  0.4982 -1.1220
10549TIP3   OH253137   4.816   2.791  16.963 -0.0655  0.1392 -0.6530
10549TIP3    H153138   4.773   2.709  16.940  1.5596 -0.8365 -0.2789
10549TIP3    H253139   4.849   2.825  16.880 -0.6123  0.3380 -0.7893
10550TIP3   OH253140   2.089   0.461   4.907  0.3112 -0.0969 -0.0962
10550TIP3    H153141   2.023   0.530   4.917  2.1438  1.7771 -0.5464
10550TIP3    H253142   2.038   0.380   4.900 -1.9200  1.2620 -0.1588
10551TIP3   OH253143   5.347   0.926   4.072  0.2356 -0.6198  0.3069
10551TIP3    H153144   5.442   0.921   4.063  0.2961 -0.6678  0.9301
10551TIP3    H253145   5.314   0.854   4.018  0.6525 -1.8467  1.6349
10552TIP3   OH253146   2.429   4.118  11.602 -0.1904  0.4521 -0.1736
10552TIP3    H153147   2.460   4.087  11.687  0.2174 -0.1727 -0.5469
10552TIP3    H253148   2.501   4.172  11.568 -0.1562  0.3042 -0.3365
10553TIP3   OH253149   3.059   5.015   5.152  0.1164  0.5839  0.5424
10553TIP3    H153150   2.980   4.986   5.197  0.3152 -0.7637  0.0687
10553TIP3    H253151   3.088   5.092   5.200 -0.8803  0.4442  1.3810
10554TIP3   OH253152   3.104   5.416  11.395 -0.3280 -0.6443  0.2335
10554TIP3    H153153   3.165   5.428  11.322  0.4909  0.6384  1.0923
10554TIP3    H253154   3.159   5.427  11.474 -1.6049  0.1941  1.0194
10555TIP3   OH253155   3.418   3.969   0.961  0.3066  0.2002  0.0170
10555TIP3    H153156   3.390   4.042   0.906  1.4108  0.6007 -0.0231
10555TIP3    H253157   3.472   4.009   1.029 -0.2486 -0.4121  0.8213
10556TIP3   OH253158   5.936   0.723  12.465  0.2427  0.0061 -0.2319
10556TIP3    H153159   5.982   0.744  12.384  0.3050  0.3320 -0.1148
10556TIP3    H253160   5.991   0.658  12.508  1.4250  1.5239  0.6493
10557TIP3   OH253161   1.924   2.778   0.042  0.0961 -0.0339 -0.6333
10557TIP3    H153162   1.936   2.868   0.010  2.2303  0.4162  1.2219
10557TIP3    H253163   1.992   2.728  -0.003  0.2345 -0.2825 -0.1525
10558TIP3   OH253164   5.087   2.174  13.035  0.1774 -0.4296  0.1775
10558TIP3    H153165   5.153   2.240  13.056  2.1209 -2.7362  1.4827
10558TIP3    H253166   5.092   2.164  12.940 -0.4738  1.5883 -0.1016
10559TIP3   OH253167   4.238   0.324  11.233 -0.1237 -0.1213  0.1983
10559TIP3    H153168   4.237   0.356  11.323 -3.2854  0.2111  0.1260
10559TIP3    H253169   4.215   0.400  11.180 -1.0608 -0.9271 -0.5932
10560TIP3   OH253170   3.629   4.169   4.739  0.1759  0.4510  0.4694
10560TIP3    H153171   3.674   4.254   4.743 -0.1896  0.7042 -0.7811
10560TIP3    H253172   3.682   4.116   4.679 -2.0157  1.2662 -2.2609
10561TIP3   OH253173   3.949   5.283   0.270  0.1824  0.6803  0.1662
10561TIP3    H153174   4.032   5.246   0.239 -0.6903 -1.6727  0.5010
10561TIP3    H253175   3.901   5.207   0.303 -1.9909  2.0703  0.2467
10562TIP3   OH253176   4.068   3.088   3.061 -0.1825  0.1656 -0.1087
10562TIP3    H153177   4.015   3.010   3.075  0.4292 -0.2482 -0.0666
10562TIP3    H253178   4.132   3.087   3.132  1.3719 -0.6274 -1.4751
10563TIP3   OH253179   1.802   4.080  13.685 -0.3696  0.2717  0.4740
10563TIP3    H153180   1.735   4.112  13.624 -2.5653 -0.7149  2.3041
10563TIP3    H253181   1.838   4.002  13.642  0.9210  1.8404 -1.3459
10564TIP3   OH253182   0.649   4.493   5.572 -0.0961  1.0067  0.3845
10564TIP3    H153183   0.688   4.408   5.592  0.8809  1.4176  0.2640
10564TIP3    H253184   0.577   4.472   5.512  0.2987  0.2880  0.1500
10565TIP3   OH253185   2.040   2.155  12.049 -0.3903  0.0626  0.2060
10565TIP3    H153186   2.002   2.141  12.135  0.0857 -0.9751  0.2541
10565TIP3    H253187   2.092   2.076  12.032  0.1593  0.6001 -0.6858
10566TIP3   OH253188   6.148   4.567  16.981 -0.0856  0.4417  0.5281
10566TIP3    H153189   6.114   4.653  16.956  0.0961 -0.4907 -3.1261
10566TIP3    H253190   6.244   4.577  16.976 -0.0790 -0.2477 -1.0366
10567TIP3   OH253191   4.525   2.496   2.551  0.4705  0.2801 -0.9223
10567TIP3    H153192   4.604   2.537   2.518  0.7587  0.6766  0.2332
10567TIP3    H253193   4.552   2.408   2.577  0.1317 -0.2080 -2.2137
10568TIP3   OH253194   0.634   0.907  13.272 -0.2393 -0.6789 -0.1549
10568TIP3    H153195   0.706   0.966  13.295 -0.2316 -0.3635 -0.9966
10568TIP3    H253196   0.556   0.961  13.277 -0.0477 -0.1187 -2.7166
10569TIP3   OH253197   0.205   5.281  15.233 -0.3429  0.4924  0.3747
10569TIP3    H153198   0.163   5.262  15.317 -0.1931 -0.8475  0.1588
10569TIP3    H253199   0.136   5.268  15.168 -0.2655  0.8217  0.2239
10570TIP3   OH253200   1.050   1.494   0.600  0.0299  0.0906  0.5101
10570TIP3    H153201   0.993   1.566   0.628  0.0744  0.8237 -1.1737
10570TIP3    H253202   1.072   1.447   0.680 -1.3747  0.9586  1.4237
10571TIP3   OH253203   5.831   1.320  15.187  0.2863 -0.7603  0.3537
10571TIP3    H153204   5.749   1.278  15.215 -0.2688 -0.2112 -0.4099
10571TIP3    H253205   5.814   1.346  15.096  2.2820 -3.1218 -0.7376
10572TIP3   OH253206   3.472   4.487  15.364  0.0816  0.3798  0.1401
10572TIP3    H153207   3.449   4.541  15.440 -0.9550  0.5669 -0.2944
10572TIP3    H253208   3.520   4.413  15.401  1.7793  1.7370  0.7171
10573TIP3   OH253209   0.385   3.089  15.951 -0.0509  0.9774  0.4915
10573TIP3    H153210   0.310   3.056  15.902  0.3782 -1.0689  1.1436
10573TIP3    H253211   0.454   3.099  15.886  0.0505 -0.2337  0.3908
10574TIP3   OH253212   4.228   4.687   4.125 -0.5856 -0.3376  0.8722
10574TIP3    H153213   4.136   4.670   4.102 -1.0603  2.7984  0.1529
10574TIP3    H253214   4.267   4.718   4.043 -0.0119  2.3659  2.0893
10575TIP3   OH253215   5.447   3.080  16.003 -0.8759 -0.1022 -0.2826
10575TIP3    H153216   5.483   3.110  16.086  0.9754 -0.7764 -0.8113
10575TIP3    H253217   5.400   2.999  16.025  1.6930 -1.6503 -0.2192
10576TIP3   OH253218   5.892   0.260   0.598 -0.1475  0.5065  0.3867
10576TIP3    H153219   5.800   0.265   0.624  0.4332  0.0134  2.7190
10576TIP3    H253220   5.931   0.201   0.663  1.7719  0.5816 -0.6804
10577TIP3   OH253221   1.282   6.534  16.883  0.1809  0.4268 -0.0077
10577TIP3    H153222   1.238   6.599  16.939 -0.8215  0.7111 -1.0856
10577TIP3    H253223   1.372   6.566  16.876  0.1073  0.8329  0.7623
10578TIP3   OH253224   1.310   0.624  11.627 -0.5841 -0.7473  0.2312
10578TIP3    H153225   1.227   0.637  11.674 -0.4193 -0.7233  0.5163
10578TIP3    H253226   1.284   0.592  11.541 -0.9368  0.0912  0.0184
10579TIP3   OH253227   2.653   0.179   4.381  0.0648  0.3984 -0.3263
10579TIP3    H153228   2.709   0.101   4.379  1.0846  1.1290 -1.8915
10579TIP3    H253229   2.569   0.148   4.414  0.4407 -1.3859 -0.9771
10580TIP3   OH253230   5.703   1.723  16.355 -0.2988  0.2221 -0.0331
10580TIP3    H153231   5.624   1.732  16.409 -0.3656 -0.8717  0.0592
10580TIP3    H253232   5.773   1.760  16.408 -0.8717  1.9904 -0.4521
10581TIP3   OH253233   6.003   0.324   4.103  0.3940  0.8175 -0.2188
10581TIP3    H153234   5.960   0.373   4.033  0.8987  1.4910 -0.0612
10581TIP3    H253235   6.089   0.365   4.113 -0.9039  3.0241  3.1041
10582TIP3   OH253236   2.639   3.699  10.914  0.5190 -0.0396 -0.5195
10582TIP3    H153237   2.566   3.753  10.943 -0.3970 -0.5960 -1.7258
10582TIP3    H253238   2.703   3.762  10.878 -0.2739  0.3078 -1.3561
10583TIP3   OH253239   1.939   3.207  15.900  0.0380 -0.5291  0.2816
10583TIP3    H153240   1.965   3.188  15.990  0.1310  0.6294  0.5142
10583TIP3    H253241   1.967   3.298  15.886  1.1107 -1.0836 -1.3210
10584TIP3   OH253242   2.284   4.015  15.188  0.6613 -0.1992 -0.2767
10584TIP3    H153243   2.350   3.947  15.193  0.6744 -0.2142 -0.6401
10584TIP3    H253244   2.311   4.080  15.253  0.0807 -1.0245  0.8147
10585TIP3   OH253245   5.563   6.549  14.625 -0.5310  0.0901 -0.2564
10585TIP3    H153246   5.494   6.521  14.565  0.8203 -1.6719 -1.0339
10585TIP3    H253247   5.644   6.528  14.579  0.5237  1.5086  0.9313
10586TIP3   OH253248   6.517   5.290   0.359 -0.2163 -0.1537  0.0985
10586TIP3    H153249   6.440   5.249   0.320 -0.8071  0.1101  0.9781
10586TIP3    H253250   6.505   5.281   0.453  0.2336  0.9525  0.2782
10587TIP3   OH253251   4.660   3.092  17.207 -0.3574  0.6276 -0.4356
10587TIP3    H153252   4.624   3.087  17.118 -0.9788 -1.5966 -0.0954
10587TIP3    H253253   4.737   3.036  17.205 -0.6683  0.1492  0.5615
10588TIP3   OH253254   6.295   0.545  14.234  0.1707 -0.7372 -0.0407
10588TIP3    H153255   6.322   0.594  14.312  2.1472 -0.1855 -1.0118
10588TIP3    H253256   6.350   0.581  14.164 -3.1422  0.3960 -2.1993
10589TIP3   OH253257   4.600   6.743  16.304 -0.6664  0.4298 -0.2489
10589TIP3    H153258   4.634   6.811  16.362  2.4278 -0.7998 -0.5187
10589TIP3    H253259   4.587   6.667  16.360 -2.2151  0.6366 -0.3118
10590TIP3   OH253260   2.957   6.303  13.237  0.3215  0.1028  0.6566
10590TIP3    H153261   2.886   6.306  13.174  0.5019 -0.2071  0.4360
10590TIP3    H253262   2.924   6.248  13.308  1.0035 -1.5147 -0.2725
10591TIP3   OH253263   4.621   3.266  16.000 -0.0699  0.4384 -0.0985
10591TIP3    H153264   4.581   3.221  16.075 -1.2179  1.4931 -0.0742
10591TIP3    H253265   4.623   3.199  15.932 -4.1583  1.0174 -0.8880
10592TIP3   OH253266   0.714   0.378  16.870 -0.0593  0.0393 -0.0519
10592TIP3    H153267   0.676   0.449  16.922  1.7640 -0.0757  1.5003
10592TIP3    H253268   0.665   0.300  16.898  1.0760 -0.0685  1.7561
10593TIP3   OH253269   5.136   1.427   4.980 -0.4390  0.1409  0.0428
10593TIP3    H153270   5.186   1.491   5.031  0.8890 -0.8930  0.0546
10593TIP3    H253271   5.091   1.374   5.046  0.0329 -0.1974  0.0922
10594TIP3   OH253272   3.463   4.277  11.902  0.2420 -0.4006  0.0603
10594TIP3    H153273   3.465   4.241  11.991  1.6981 -0.4846  0.0078
10594TIP3    H253274   3.533   4.231  11.856  0.7945  1.0354 -0.5729
10595TIP3   OH253275   6.600   3.032  15.942  0.0116 -0.0343  0.1567
10595TIP3    H153276   6.559   3.003  16.023  0.4990 -0.9887  0.0756
10595TIP3    H253277   6.601   3.127  15.947 -1.5139 -0.0315  0.4984
10596TIP3   OH253278   0.580   2.224   5.746 -0.4704 -0.0148 -0.2438
10596TIP3    H153279   0.595   2.137   5.710  1.0142 -0.3028  1.0133
10596TIP3    H253280   0.545   2.209   5.834  0.7260  0.6072  0.3714
10597TIP3   OH253281   5.718   5.275   2.131  0.2378 -0.4629  0.2446
10597TIP3    H153282   5.700   5.263   2.038  1.0640 -1.4779  0.1941
10597TIP3    H253283   5.775   5.352   2.135  1.8780 -1.6231 -0.3012
10598TIP3   OH253284   2.000   0.221  13.798  0.1978 -0.3535  0.4536
10598TIP3    H153285   2.081   0.179  13.827 -0.6927 -2.3372  0.1485
10598TIP3    H253286   1.995   0.301  13.850  2.3346 -0.2119  0.4993
10599TIP3   OH253287   0.080   3.029   5.882  0.7789 -0.0349  0.6032
10599TIP3    H153288   0.097   2.942   5.846 -1.5070 -0.5159  0.6094
10599TIP3    H253289   0.004   3.017   5.940 -0.7879  2.2973 -0.8786
10600TIP3   OH253290   1.098   0.545   0.047 -0.2649  0.5934 -0.2579
10600TIP3    H153291   1.105   0.639   0.035 -0.7540  0.6366 -0.2099
10600TIP3    H253292   1.044   0.535   0.126 -0.6926  0.2676 -0.5914
10601TIP3   OH253293   0.716   5.082   0.539 -0.1636 -0.2130 -0.4715
10601TIP3    H153294   0.759   5.161   0.573 -0.3174  0.1132 -1.0423
10601TIP3    H253295   0.701   5.028   0.617 -0.1792  0.3741 -0.0660
10602TIP3   OH253296   3.965   2.365  16.868 -0.1109 -0.3198  1.0302
10602TIP3    H153297   3.982   2.309  16.793 -0.2537  0.7750  0.1644
10602TIP3    H253298   3.870   2.368  16.876 -0.2670  2.3393 -0.9409
10603TIP3   OH253299   5.414   6.733   0.415 -0.2073 -0.1659 -0.4676
10603TIP3    H153300   5.423   6.741   0.320 -1.3994  0.3670 -0.5404
10603TIP3    H253301   5.340   6.790   0.437 -0.4372 -0.9017  0.6802
10604TIP3   OH253302   4.847   0.082  14.750 -0.1645 -0.8001 -0.4597
10604TIP3    H153303   4.799   0.025  14.690 -0.3718  0.4447 -1.4987
10604TIP3    H253304   4.839   0.169  14.711  0.3143 -0.0978  1.0013
10605TIP3   OH253305   2.293   6.515   4.941  0.5250 -0.1652  0.0647
10605TIP3    H153306   2.266   6.570   4.867 -0.1340 -0.9576 -0.2840
10605TIP3    H253307   2.384   6.492   4.921  0.2183 -0.7270 -0.7193
10606TIP3   OH253308   6.317   6.744   5.417  0.1339 -0.3457 -0.8238
10606TIP3    H153309   6.289   6.654   5.436  0.4965 -0.1841  0.5578
10606TIP3    H253310   6.285   6.795   5.491  0.3936  0.5718 -1.3427
10607TIP3   OH253311   4.278   0.859  13.823 -0.3344  0.9429  0.0322
10607TIP3    H153312   4.306   0.917  13.753  0.1917  1.0403  0.3215
10607TIP3    H253313   4.196   0.820  13.791 -1.1112  2.4190  0.1667
10608TIP3   OH253314   3.263   4.245  10.729 -0.0520 -0.7487  0.1385
10608TIP3    H153315   3.219   4.230  10.645 -0.3194  0.8751 -0.0319
10608TIP3    H253316   3.349   4.204  10.719  0.8222  1.4273 -1.8176
10609TIP3   OH253317   1.866   2.639   3.981 -0.2105  0.2578  0.5385
10609TIP3    H153318   1.833   2.645   4.071 -1.3498  0.2248  0.1380
10609TIP3    H253319   1.852   2.547   3.956  0.0162  0.2883  0.2958
10610TIP3   OH253320   5.145   1.202  11.231 -0.1351  0.3164 -0.2220
10610TIP3    H153321   5.201   1.263  11.183 -0.2773  2.0420  1.7540
10610TIP3    H253322   5.178   1.205  11.321 -2.5096  0.3042  0.6800
10611TIP3   OH253323   1.830   5.450  16.848 -0.1612 -0.1985  0.8741
10611TIP3    H153324   1.880   5.482  16.774 -1.8472  0.5604  0.0245
10611TIP3    H253325   1.895   5.415  16.909  1.2302 -0.7977 -0.9409
10612TIP3   OH253326   5.932   1.776   5.012 -0.1623 -0.3909  0.3590
10612TIP3    H153327   5.842   1.746   5.011 -0.8371  1.5683  0.5135
10612TIP3    H253328   5.931   1.859   4.965  1.7662 -0.8596 -0.5840
10613TIP3   OH253329   0.020   6.317   2.607  0.0121  0.5762  0.9034
10613TIP3    H153330   0.041   6.321   2.700 -1.9596  1.3493  1.3506
10613TIP3    H253331  -0.014   6.404   2.586 -0.8134  0.0055 -0.2047
10614TIP3   OH253332   1.235   6.757  17.066  0.4942 -0.2977 -0.2325
10614TIP3    H153333   1.288   6.729  17.141  1.6878 -0.6196 -1.1641
10614TIP3    H253334   1.145   6.739  17.092  0.8967 -0.4402  1.1052
10615TIP3   OH253335   1.875   6.229   4.370  0.1821  0.1650 -0.9179
10615TIP3    H153336   1.782   6.247   4.360  0.3115  0.8748 -0.8850
10615TIP3    H253337   1.891   6.233   4.464 -0.1323 -1.9018 -0.7703
10616TIP3   OH253338   3.855   4.991  12.059  0.0057  0.4610 -0.0636
10616TIP3    H153339   3.932   4.980  12.003  1.7228  0.1960  2.2354
10616TIP3    H253340   3.788   5.027  12.002  1.9210  0.9086 -2.1018
10617TIP3   OH253341   4.427   5.888   5.123 -0.3578 -0.4407 -0.0741
10617TIP3    H153342   4.363   5.834   5.171 -1.4245  0.3454 -0.5768
10617TIP3    H253343   4.401   5.978   5.142  0.7357 -0.1091 -0.1344
10618TIP3   OH253344   4.053   2.817  15.931 -0.2094  0.4811  0.5389
10618TIP3    H153345   4.059   2.911  15.951  1.7540  0.3623  0.6039
10618TIP3    H253346   4.087   2.773  16.009  2.3839 -0.1349 -0.8559
10619TIP3   OH253347   1.999   6.430   5.846 -0.3229 -0.1331  0.2462
10619TIP3    H153348   2.086   6.438   5.808  0.4167 -0.3488  1.8546
10619TIP3    H253349   1.939   6.448   5.774  1.0707  1.9344 -0.4340
10620TIP3   OH253350   1.783   0.021   3.395 -0.4372 -0.1451  0.2195
10620TIP3    H153351   1.836   0.090   3.434 -0.5381 -0.0122  0.1252
10620TIP3    H253352   1.712   0.068   3.351  0.2339 -0.2304 -0.9845
10621TIP3   OH253353   4.451   5.886   0.823  0.0212 -0.8564 -0.4300
10621TIP3    H153354   4.454   5.982   0.820  1.6010 -0.8951 -0.4518
10621TIP3    H253355   4.410   5.860   0.741 -0.1399 -0.2101 -0.5565
10622TIP3   OH253356   0.986   5.221   3.193  0.1620  0.5210  0.1517
10622TIP3    H153357   0.919   5.158   3.168  0.6841 -0.6290  1.5789
10622TIP3    H253358   0.977   5.230   3.288 -0.3212  3.0962 -0.1090
10623TIP3   OH253359   3.783   2.963   5.156 -0.1431 -0.0174  0.2010
10623TIP3    H153360   3.827   3.047   5.138  1.3522 -0.6996  0.5812
10623TIP3    H253361   3.771   2.923   5.071 -2.0212  1.1365 -0.1036
10624TIP3   OH253362   0.599   4.871  11.781 -0.6747  0.2109  0.1762
10624TIP3    H153363   0.591   4.941  11.716  1.1323 -0.6149 -0.9707
10624TIP3    H253364   0.674   4.897  11.835  0.0608 -0.8885 -0.3168
10625TIP3   OH253365   2.005   1.226  12.190  0.2967 -0.1652  0.7311
10625TIP3    H153366   1.993   1.313  12.152  0.1513 -0.2193  0.6514
10625TIP3    H253367   1.965   1.167  12.126  1.3612 -0.3836  0.2709
10626TIP3   OH253368   3.654   2.137  11.536  0.8577 -0.1292 -0.2223
10626TIP3    H153369   3.696   2.051  11.529 -0.3018 -0.7836  0.7087
10626TIP3    H253370   3.617   2.138  11.624 -2.5121 -0.2520 -1.5610
10627TIP3   OH253371   0.382   1.177  17.276  0.4362 -0.3125 -0.6918
10627TIP3    H153372   0.367   1.135  17.191 -0.4811  0.5840 -0.9886
10627TIP3    H253373   0.474   1.200  17.276  0.0365  1.4406 -2.2716
10628TIP3   OH253374   3.703   0.012  16.060 -0.0731 -0.0662 -0.7053
10628TIP3    H153375   3.618   0.053  16.047  0.2439  0.7537 -0.2192
10628TIP3    H253376   3.685  -0.082  16.059 -0.7711  0.0762 -1.9939
10629TIP3   OH253377   2.883   0.583   2.216  0.5113 -0.0553 -0.1429
10629TIP3    H153378   2.862   0.674   2.233 -0.1939 -0.1588 -0.4294
10629TIP3    H253379   2.977   0.582   2.199  0.5138  0.6180 -0.1713
10630TIP3   OH253380   0.093   6.055  12.394  0.1482  0.7189  0.2831
10630TIP3    H153381   0.034   6.077  12.323  0.4632  0.6504  0.0004
10630TIP3    H253382   0.041   6.068  12.474 -0.5443 -0.2499  0.0003
10631TIP3   OH253383   5.064   6.142  15.568 -0.7473  0.0901 -0.4847
10631TIP3    H153384   5.142   6.090  15.588 -1.0750 -1.0268 -2.0151
10631TIP3    H253385   5.078   6.170  15.478 -2.3595 -0.5759 -0.9506
10632TIP3   OH253386   2.115   1.095   0.935  0.2844  0.1505  0.1556
10632TIP3    H153387   2.033   1.048   0.925  0.1054  0.3661  0.5920
10632TIP3    H253388   2.143   1.075   1.025 -0.6827  2.2797  0.9526
10633TIP3   OH253389   0.485   5.267  13.281 -0.6117  0.5697 -0.2249
10633TIP3    H153390   0.570   5.238  13.315 -0.1379  0.6404 -1.3417
10633TIP3    H253391   0.494   5.361  13.268 -0.8999  0.5972 -0.2398
10634TIP3   OH253392   1.548   2.939  14.020 -0.7635  0.2088 -0.1490
10634TIP3    H153393   1.471   2.962  14.072 -0.7471  1.6166 -0.7215
10634TIP3    H253394   1.548   3.002  13.948  0.6065 -0.1351 -0.4604
10635TIP3   OH253395   6.131   1.439   5.427 -0.0407  0.6331 -0.5178
10635TIP3    H153396   6.158   1.430   5.519  1.3354  0.4496 -0.9225
10635TIP3    H253397   6.129   1.534   5.412  0.6567  0.6532 -0.5407
10636TIP3   OH253398   5.379   6.216  15.426  0.1144  0.1624 -0.3694
10636TIP3    H153399   5.394   6.156  15.500 -1.3316 -0.0905 -0.2664
10636TIP3    H253400   5.291   6.196  15.397  0.3284  0.9357 -1.5705
10637TIP3   OH253401   5.300   0.788  16.142  0.5719 -0.6060  0.3755
10637TIP3    H153402   5.238   0.753  16.079  0.3017  0.0782  0.2537
10637TIP3    H253403   5.280   0.882  16.146  1.8876 -0.2913 -0.0183
10638TIP3   OH253404   3.713   4.084  12.885 -0.1429  0.3401  0.1398
10638TIP3    H153405   3.638   4.039  12.848  0.0751  0.4254 -0.4070
10638TIP3    H253406   3.689   4.100  12.976 -0.7239  0.2405  0.0040
10639TIP3   OH253407   0.484   4.528   3.045  0.2052 -0.5109  0.1167
10639TIP3    H153408   0.566   4.575   3.036  1.3052 -2.6589 -1.8638
10639TIP3    H253409   0.423   4.575   2.988  0.6480 -0.1298 -0.0441
10640TIP3   OH253410   1.371   0.532  13.150 -0.4583 -0.4389 -0.3496
10640TIP3    H153411   1.398   0.603  13.092 -1.4713  0.7417  0.5815
10640TIP3    H253412   1.401   0.561  13.237 -2.1629 -0.4460  0.2576
10641TIP3   OH253413   2.793   0.091   5.266  0.3105  0.4798  0.0220
10641TIP3    H153414   2.753   0.065   5.183 -0.6313 -0.6853  0.8327
10641TIP3    H253415   2.737   0.161   5.299 -0.3098 -0.2338  0.5021
10642TIP3   OH253416   4.543   6.614  15.873  0.4966  0.2495 -0.4953
10642TIP3    H153417   4.521   6.632  15.964  0.1333  1.7307 -0.8640
10642TIP3    H253418   4.639   6.613  15.872  0.5000 -0.1622 -0.0255
10643TIP3   OH253419   4.023   6.450   1.794  0.4006  0.2940  0.5530
10643TIP3    H153420   3.967   6.516   1.834  0.3894 -0.0326  1.0914
10643TIP3    H253421   3.967   6.372   1.786  0.7533 -0.0182  1.0503
10644TIP3   OH253422   5.554   0.997  14.272  0.3146  0.1523  0.7588
10644TIP3    H153423   5.608   0.932  14.228 -0.8198  0.6715 -1.5163
10644TIP3    H253424   5.464   0.973  14.248 -0.2241  1.3860  1.5049
10645TIP3   OH253425   3.347   6.224   1.719  0.2255 -0.8348 -0.4579
10645TIP3    H153426   3.384   6.278   1.650 -1.1951  1.8554  0.7911
10645TIP3    H253427   3.420   6.169   1.748  1.8813  0.7783 -1.4388
10646TIP3   OH253428   1.993   4.542   0.844  0.2586 -0.1181 -0.0414
10646TIP3    H153429   1.959   4.631   0.836 -0.4666 -0.1284  2.5408
10646TIP3    H253430   1.958   4.496   0.767 -1.9177  1.0361  0.2197
10647TIP3   OH253431   2.291   3.837   3.515  0.2643 -0.1590  0.3517
10647TIP3    H153432   2.351   3.805   3.448 -0.0019  0.1521 -0.0309
10647TIP3    H253433   2.348   3.879   3.579  0.4033  0.6409 -0.2965
10648TIP3   OH253434   2.519   4.214   0.526 -0.2752  0.1680 -0.8361
10648TIP3    H153435   2.456   4.218   0.598  1.1613  0.1290  0.4471
10648TIP3    H253436   2.517   4.122   0.498 -0.4154  0.0597 -0.4770
10649TIP3   OH253437   2.418   2.929  14.310  0.0830 -0.2558  0.2998
10649TIP3    H153438   2.509   2.903  14.299  0.2173 -0.6495  2.3179
10649TIP3    H253439   2.367   2.854  14.278  0.4520 -0.4612  0.1960
10650TIP3   OH253440   6.659   5.736  12.129  0.2320 -0.1687  0.2885
10650TIP3    H153441   6.579   5.775  12.093  0.1860  1.4702  2.0338
10650TIP3    H253442   6.629   5.658  12.175 -0.1656 -0.4052 -0.3714
10651TIP3   OH253443   1.502   6.738  16.874  0.1333 -0.1135 -0.5895
10651TIP3    H153444   1.474   6.803  16.810 -1.9583 -0.1883  0.2051
10651TIP3    H253445   1.517   6.788  16.954 -1.8692 -0.6546  0.1297
10652TIP3   OH253446   6.487   5.373   2.092  0.0123 -0.3228 -0.0114
10652TIP3    H153447   6.475   5.278   2.096 -0.5501 -0.2468  0.1312
10652TIP3    H253448   6.563   5.390   2.149  0.6443 -0.7769 -0.7040
10653TIP3   OH253449   3.463   5.462  12.753  0.8078  0.4595 -0.1377
10653TIP3    H153450   3.495   5.499  12.836 -0.2460 -0.9689  0.9390
10653TIP3    H253451   3.413   5.533  12.714 -1.2873  0.2160  1.9583
10654TIP3   OH253452   3.526   4.235  13.361  0.5364 -0.2321  0.6116
10654TIP3    H153453   3.505   4.190  13.280  1.4045  0.4145  0.0093
10654TIP3    H253454   3.622   4.236  13.364  0.5190  0.1636  1.4076
10655TIP3   OH253455   2.255   4.167   3.802  0.0196  0.4088  0.7863
10655TIP3    H153456   2.199   4.089   3.809  0.7385 -0.5584 -2.9445
10655TIP3    H253457   2.201   4.231   3.757  1.0883  0.2862 -0.7000
10656TIP3   OH253458   2.801   4.971  11.580  0.1970  0.0135 -0.9482
10656TIP3    H153459   2.732   4.906  11.567  1.6485 -1.5297 -1.1815
10656TIP3    H253460   2.870   4.945  11.519  1.1259  1.3258 -0.4905
10657TIP3   OH253461   4.178   4.175   0.894 -0.0509 -0.7188  0.0240
10657TIP3    H153462   4.209   4.245   0.952 -0.5089  0.4069 -1.0690
10657TIP3    H253463   4.202   4.094   0.940  2.9590  0.1120  0.0396
10658TIP3   OH253464   0.131   5.654   2.957 -0.0898 -0.1505 -0.1440
10658TIP3    H153465   0.148   5.748   2.952  0.3562 -0.3045 -1.5759
10658TIP3    H253466   0.076   5.635   2.881  2.1881 -1.5447 -1.5089
10659TIP3   OH253467   4.462   3.068  14.508 -0.4167  0.3775  0.0791
10659TIP3    H153468   4.376   3.104  14.530 -0.5406  1.1763 -1.6669
10659TIP3    H253469   4.510   3.069  14.591 -1.6752  1.0949  0.8138
10660TIP3   OH253470   2.804   1.465   4.450  0.2202 -0.6172  0.2951
10660TIP3    H153471   2.725   1.412   4.459  0.5221 -0.9577  1.0645
10660TIP3    H253472   2.845   1.460   4.536  2.6668 -3.0091 -0.9249
10661TIP3   OH253473   0.803   3.586   5.788  0.2303  0.3744  0.0916
10661TIP3    H153474   0.840   3.540   5.713  1.4536  0.0967  0.8643
10661TIP3    H253475   0.857   3.560   5.862 -3.6317 -2.8601  1.9481
10662TIP3   OH253476   0.394   3.542  11.474 -0.1683  0.5922 -0.8898
10662TIP3    H153477   0.325   3.534  11.539 -2.1385 -0.9821 -3.0891
10662TIP3    H253478   0.387   3.632  11.441 -0.9685  0.5418 -0.8641
10663TIP3   OH253479   0.156   5.586  14.103 -0.4629  0.0985  0.1592
10663TIP3    H153480   0.186   5.658  14.158 -1.5985 -0.1000  1.0398
10663TIP3    H253481   0.156   5.622  14.014  2.7429 -0.0073  0.0374
10664TIP3   OH253482   0.373   4.915   1.783 -0.4547 -0.2881  0.3084
10664TIP3    H153483   0.453   4.884   1.825  0.0978  0.1044 -0.4430
10664TIP3    H253484   0.310   4.844   1.796  0.1970 -0.8631  0.3669
10665TIP3   OH253485   3.136   3.406   2.443  0.1159  0.3136  1.0563
10665TIP3    H153486   3.041   3.410   2.459 -0.7871 -1.0174 -3.3827
10665TIP3    H253487   3.164   3.497   2.447 -1.7450  0.9449  0.3823
10666TIP3   OH253488   5.495   4.640  11.340 -0.0224 -0.0849  0.4033
10666TIP3    H153489   5.406   4.658  11.310  0.0571  0.1611  0.3124
10666TIP3    H253490   5.507   4.547  11.323  0.5516  0.3468 -1.8001
10667TIP3   OH253491   2.343   2.546   5.888 -0.0255 -0.1193 -0.1223
10667TIP3    H153492   2.341   2.616   5.953 -0.2267 -0.1406 -0.1052
10667TIP3    H253493   2.413   2.572   5.827 -0.0009  0.0213 -0.0339
10668TIP3   OH253494   3.394   2.945   3.326  0.4911  0.8868  0.0291
10668TIP3    H153495   3.380   2.931   3.232 -0.0629 -0.2628  0.2710
10668TIP3    H253496   3.487   2.966   3.333  1.0119 -1.0694 -0.5691
10669TIP3   OH253497   3.113   5.262   4.474  0.0404  0.6563  0.2900
10669TIP3    H153498   3.043   5.199   4.492 -0.0443  1.6505  3.8560
10669TIP3    H253499   3.194   5.212   4.488  0.0390  0.4621 -0.3378
10670TIP3   OH253500   1.607   3.588  12.103 -0.1353 -0.1309 -0.3293
10670TIP3    H153501   1.549   3.645  12.153 -0.5649 -1.5082  0.7626
10670TIP3    H253502   1.549   3.521  12.066  0.6327 -1.0113  0.0443
10671TIP3   OH253503   3.768   6.647  15.055  0.1117 -0.1383 -0.0176
10671TIP3    H153504   3.762   6.556  15.029 -0.4032 -0.2470  0.4820
10671TIP3    H253505   3.677   6.676  15.064  0.1234  1.6948 -4.5269
10672TIP3   OH253506   6.102   6.747   3.031  0.4719  0.2051  0.4599
10672TIP3    H153507   6.170   6.810   3.006  0.4770  1.3862  3.2570
10672TIP3    H253508   6.023   6.800   3.041  0.2027 -0.4211  1.7078
10673TIP3   OH253509   1.291   6.281   6.260 -0.3012 -0.2345  0.4770
10673TIP3    H153510   1.264   6.292   6.352  0.8540 -0.1048  0.8108
10673TIP3    H253511   1.326   6.367   6.236  1.8783 -0.9907  0.7681
10674TIP3   OH253512   3.216   0.603   2.421 -0.1626 -0.0205  0.0685
10674TIP3    H153513   3.197   0.602   2.327  0.8215 -1.2974 -0.1269
10674TIP3    H253514   3.294   0.658   2.429  0.5982 -1.0515 -0.0519
10675TIP3   OH253515   0.663   5.073   1.291 -0.0815  0.0010  0.2277
10675TIP3    H153516   0.742   5.127   1.288  0.0786 -0.2578 -0.1403
10675TIP3    H253517   0.688   4.996   1.342 -0.4497  0.4964  1.1806
10676TIP3   OH253518   0.677   4.415   1.562 -0.1282 -0.0290 -0.7591
10676TIP3    H153519   0.609   4.477   1.588  0.9048  0.4741  0.8603
10676TIP3    H253520   0.636   4.329   1.569 -0.5848  0.2676  0.2274
10677TIP3   OH253521   6.095   1.846  16.221  0.1127 -0.3900  1.1433
10677TIP3    H153522   6.017   1.810  16.180 -0.7788 -2.0158  4.0919
10677TIP3    H253523   6.168   1.809  16.171 -0.9704  0.1802 -0.8793
10678TIP3   OH253524   3.432   4.771  14.206  0.5022 -0.3122 -0.4367
10678TIP3    H153525   3.349   4.808  14.237  0.3026  0.7580 -2.2035
10678TIP3    H253526   3.452   4.820  14.127  2.6183 -0.8586 -0.2707
10679TIP3   OH253527   3.953   1.990   5.443 -0.5366 -0.6696 -0.1537
10679TIP3    H153528   3.955   2.054   5.372 -0.2356  0.1101  0.5442
10679TIP3    H253529   3.907   1.914   5.406 -0.9188 -0.0433 -0.9767
10680TIP3   OH253530   5.637   5.671  12.010  0.3774  0.1754 -0.2101
10680TIP3    H153531   5.577   5.700  12.078  1.8055 -0.2991  1.2730
10680TIP3    H253532   5.706   5.624  12.056  2.8206  2.1927 -1.6671
10681TIP3   OH253533   1.333   2.379  13.322  0.0913 -0.5580 -0.1864
10681TIP3    H153534   1.360   2.295  13.359  0.0163 -0.3285  0.3993
10681TIP3    H253535   1.393   2.393  13.249  2.4773  0.6093  1.9326
10682TIP3   OH253536   6.527   2.953   6.766  0.0287 -0.0199  0.7044
10682TIP3    H153537   6.598   2.889   6.771  0.6720  0.6579  0.3330
10682TIP3    H253538   6.555   3.025   6.823  0.6126  1.1699 -1.0479
10683TIP3   OH253539   2.582   2.208   4.713 -0.8615  0.3352  0.5116
10683TIP3    H153540   2.576   2.124   4.668  1.8926  0.0480  0.6039
10683TIP3    H253541   2.507   2.209   4.772 -1.6615 -1.4723 -0.4481
10684TIP3   OH253542   1.752   4.083   3.716 -0.1336  0.3959 -0.2194
10684TIP3    H153543   1.738   4.107   3.807  3.5535  1.5368  0.1222
10684TIP3    H253544   1.778   3.991   3.719 -2.2088 -0.2137 -0.3654
10685TIP3   OH253545   3.895   4.162   1.528 -1.0012 -0.5476  0.4528
10685TIP3    H153546   3.938   4.085   1.492 -0.3524 -0.9392  2.0309
10685TIP3    H253547   3.943   4.182   1.608 -2.8248 -0.0965  1.4753
10686TIP3   OH253548   4.034   5.063   0.927 -0.6771  0.1649 -0.1333
10686TIP3    H153549   4.070   5.134   0.874  1.7052  0.2942  1.5915
10686TIP3    H253550   3.957   5.101   0.970  1.0888  2.0093  1.4616
10687TIP3   OH253551   5.014   3.531  16.064 -0.0801 -0.2233 -0.0785
10687TIP3    H153552   4.926   3.506  16.090 -0.3295  0.2765 -0.4331
10687TIP3    H253553   5.045   3.589  16.134 -1.5530  2.8683 -1.8483
10688TIP3   OH253554   2.630   5.086  16.274 -0.2728  0.3500 -0.1501
10688TIP3    H153555   2.696   5.133  16.222 -1.1964  2.4305  0.5546
10688TIP3    H253556   2.570   5.050  16.208  1.5417 -1.6522 -0.8100
10689TIP3   OH253557   3.496   0.562   5.045 -0.3742 -0.1406 -0.2790
10689TIP3    H153558   3.412   0.522   5.023 -0.2672  0.1504 -1.2099
10689TIP3    H253559   3.474   0.625   5.114 -0.6315 -1.3544  0.7952
10690TIP3   OH253560   0.026   6.265   4.119  0.6707 -0.6833  0.4601
10690TIP3    H153561   0.084   6.280   4.193 -1.1143  0.9379  1.5839
10690TIP3    H253562   0.038   6.342   4.063  1.2437 -1.4077 -0.4290
10691TIP3   OH253563   2.423   4.723   2.891 -0.2119 -0.1149 -0.4654
10691TIP3    H153564   2.360   4.772   2.838 -0.9577 -0.8100 -0.2230
10691TIP3    H253565   2.507   4.735   2.846 -0.2629  1.9186 -0.0526
10692TIP3   OH253566   6.439   2.961  16.157  0.1584 -0.4395  0.1372
10692TIP3    H153567   6.425   2.871  16.187  0.5952  0.2550  2.5865
10692TIP3    H253568   6.445   3.012  16.238 -0.3761  1.8453 -1.2236
10693TIP3   OH253569   0.119   0.898  16.569  0.3005  0.1239 -0.0028
10693TIP3    H153570   0.162   0.893  16.654 -0.0931  0.5089  0.2228
10693TIP3    H253571   0.157   0.975  16.527  0.2570  0.1271 -0.0377
10694TIP3   OH253572   6.160   3.157   3.115 -0.1885 -0.7928  0.2165
10694TIP3    H153573   6.120   3.197   3.192 -2.5162 -2.2065 -0.2011
10694TIP3    H253574   6.149   3.222   3.046  0.3662 -0.2239  0.6525
10695TIP3   OH253575   6.464   0.943  11.119 -0.0239  0.1276 -0.0675
10695TIP3    H153576   6.461   0.868  11.060  1.7189  0.0758 -0.1081
10695TIP3    H253577   6.517   1.008  11.074  0.2965  0.5596  0.9121
10696TIP3   OH253578   2.925   4.557  11.049 -0.0505 -0.2229  0.4171
10696TIP3    H153579   2.966   4.476  11.019 -0.6310 -0.6512  0.7842
10696TIP3    H253580   2.917   4.547  11.143  0.9762  0.7685  0.6253
10697TIP3   OH253581   1.977   0.291  15.754  1.0646  0.1978 -0.5315
10697TIP3    H153582   2.036   0.283  15.678  1.9247 -0.6932  0.2134
10697TIP3    H253583   2.036   0.299  15.829  0.2425 -0.5133  0.2058
10698TIP3   OH253584   2.943   0.523   3.527 -0.0334 -0.7685  0.1013
10698TIP3    H153585   2.934   0.511   3.622 -0.4196 -1.6550 -0.0482
10698TIP3    H253586   2.853   0.538   3.497  0.2260  0.7976  0.0406
10699TIP3   OH253587   6.470   0.676   0.268 -0.3818 -0.1645  0.5115
10699TIP3    H153588   6.406   0.611   0.239 -0.8476  0.7555 -0.5415
10699TIP3    H253589   6.551   0.627   0.277 -0.7822 -0.9444 -0.0786
10700TIP3   OH253590   4.174   2.379  14.753 -0.3423  0.2990  0.4124
10700TIP3    H153591   4.186   2.469  14.723  0.6286 -0.0900 -0.3823
10700TIP3    H253592   4.087   2.355  14.722  0.3087  0.1870 -1.3804
10701TIP3   OH253593   3.951   2.244  11.844 -0.2583  0.0754 -0.4985
10701TIP3    H153594   3.921   2.225  11.755  1.5881  0.4199 -1.2323
10701TIP3    H253595   4.005   2.168  11.867  0.7548  0.8024 -0.4095
10702TIP3   OH253596   3.040   2.431   0.932  0.2769  0.6013  0.0147
10702TIP3    H153597   3.131   2.427   0.962  0.3677 -2.4612 -0.5087
10702TIP3    H253598   3.046   2.421   0.837 -0.7509 -2.9445  0.2689
10703TIP3   OH253599   0.043   3.773  15.845 -0.6362 -0.2467  0.2695
10703TIP3    H153600   0.113   3.796  15.785 -2.1672  2.7346 -0.4856
10703TIP3    H253601   0.014   3.687  15.816  2.0474 -1.1111  0.0334
10704TIP3   OH253602   5.254   1.526   1.115 -1.0945  0.3811 -0.3898
10704TIP3    H153603   5.349   1.513   1.124 -1.3429 -1.0831  0.2410
10704TIP3    H253604   5.246   1.615   1.080  0.4831  0.7872  0.2045
10705TIP3   OH253605   1.552   3.319   2.020  0.3129  0.2955  0.2937
10705TIP3    H153606   1.616   3.359   1.962 -0.5540  1.6984  0.2754
10705TIP3    H253607   1.598   3.308   2.103  1.5564 -1.7206 -0.6307
10706TIP3   OH253608   6.620   3.346  13.512 -0.2929  0.0901  0.0204
10706TIP3    H153609   6.577   3.338  13.597 -0.9708 -0.5185 -0.3670
10706TIP3    H253610   6.620   3.257  13.477  0.6745  0.2051 -0.2855
10707TIP3   OH253611   5.610   3.079   1.209  0.1706  0.4398 -0.0848
10707TIP3    H153612   5.689   3.031   1.183 -0.3959  0.1962 -1.3531
10707TIP3    H253613   5.538   3.030   1.171 -0.5308  1.3264  0.0839
10708TIP3   OH253614   0.865   0.384  17.201 -0.0747 -0.1147 -0.7409
10708TIP3    H153615   0.889   0.295  17.224  0.2695 -0.1015 -1.0385
10708TIP3    H253616   0.947   0.434  17.209 -0.7250  0.6488  1.7327
10709TIP3   OH253617   1.708   6.703  13.889  0.3805  0.5663 -0.4518
10709TIP3    H153618   1.732   6.776  13.946 -0.0804  0.1860  0.2383
10709TIP3    H253619   1.784   6.644  13.892 -0.0584  0.0521  0.5913
10710TIP3   OH253620   5.568   2.349  16.151 -0.4913  0.5071  0.4038
10710TIP3    H153621   5.595   2.404  16.078  0.0376  0.2465  0.4024
10710TIP3    H253622   5.648   2.334  16.201 -0.3634 -1.3854 -0.3468
10711TIP3   OH253623   1.595   3.898  13.365 -0.2256  0.8983 -0.2262
10711TIP3    H153624   1.649   3.881  13.287  0.8793 -0.2249  0.7497
10711TIP3    H253625   1.520   3.839  13.355  0.8012 -0.5561  0.3947
10712TIP3   OH253626   0.973   4.466   5.480 -0.0068 -0.3854  0.2698
10712TIP3    H153627   0.941   4.508   5.560  1.2207  1.6676 -0.2820
10712TIP3    H253628   1.066   4.450   5.497  0.3487  0.4050 -0.8638
10713TIP3   OH253629   5.927   5.252   0.654  0.4814  0.4581  0.0928
10713TIP3    H153630   5.911   5.299   0.735  2.4429 -0.7414  1.2300
10713TIP3    H253631   5.863   5.286   0.592  1.8513  4.6619  0.8401
10714TIP3   OH253632   1.767   1.002   3.630  0.0105  0.1335 -0.1895
10714TIP3    H153633   1.793   0.935   3.694  0.9395 -0.4086 -1.1172
10714TIP3    H253634   1.846   1.052   3.614 -0.6710  1.4655  0.4642
10715TIP3   OH253635   5.538   5.003  14.976 -0.1625  0.3956  0.1659
10715TIP3    H153636   5.561   4.994  15.069  0.1489  0.3943  0.0897
10715TIP3    H253637   5.511   4.914  14.950 -0.3358  0.4140  0.2764
10716TIP3   OH253638   2.382   2.439  14.262 -0.5730  0.0995 -0.0815
10716TIP3    H153639   2.314   2.435  14.329 -0.2890 -1.0047  0.1379
10716TIP3    H253640   2.461   2.407  14.305 -1.0461 -3.5730 -1.7469
10717TIP3   OH253641   4.378   2.277  17.088  0.8772 -0.0487 -0.2415
10717TIP3    H153642   4.352   2.348  17.031  2.1958 -0.3449 -1.2502
10717TIP3    H253643   4.303   2.218  17.091  0.5813  0.2832 -1.1825
10718TIP3   OH253644   5.269   3.561   3.170  0.1013  0.3181 -0.6689
10718TIP3    H153645   5.251   3.654   3.179 -1.2150  0.1901 -1.8384
10718TIP3    H253646   5.317   3.553   3.088  1.7429  0.1543  0.2914
10719TIP3   OH253647   2.307   4.609  13.701 -0.1144  0.5475  0.3220
10719TIP3    H153648   2.358   4.529  13.708 -1.1640 -0.4017 -2.3983
10719TIP3    H253649   2.334   4.647  13.617 -3.8769 -0.0089 -1.1992
10720TIP3   OH253650   4.576   5.681   0.973 -0.2338 -0.8086  1.0146
10720TIP3    H153651   4.532   5.751   0.926  1.2959  0.0724  0.8599
10720TIP3    H253652   4.507   5.618   0.994 -1.1260 -0.6636 -1.3918
10721TIP3   OH253653   3.145   6.362   1.462 -0.0395  0.1107  0.2565
10721TIP3    H153654   3.074   6.422   1.439 -1.3110 -0.9976  1.1960
10721TIP3    H253655   3.165   6.382   1.553  0.6407  0.2000  0.0917
10722TIP3   OH253656   2.003   4.745  12.460  0.2885 -0.1817 -0.0189
10722TIP3    H153657   2.002   4.651  12.442  1.1758 -0.0310 -0.8873
10722TIP3    H253658   1.973   4.752  12.551 -0.1624 -1.2648 -0.0713
10723TIP3   OH253659   5.274   1.288   5.406 -0.5767 -0.4560 -0.3026
10723TIP3    H153660   5.316   1.249   5.329  0.6185  1.7563 -0.8017
10723TIP3    H253661   5.184   1.305   5.377 -0.4346 -0.6050 -0.8573
10724TIP3   OH253662   0.662   5.038   3.994  0.4137 -0.3151  0.2072
10724TIP3    H153663   0.573   5.062   3.966  0.2031 -1.1253  0.1775
10724TIP3    H253664   0.716   5.053   3.916  0.2126 -0.3594  0.0591
10725TIP3   OH253665   0.459   0.597  13.048  0.0662  0.6590 -0.7463
10725TIP3    H153666   0.473   0.503  13.065 -0.9227  0.7083  0.4243
10725TIP3    H253667   0.437   0.602  12.955  1.3184 -0.1352 -1.0972
10726TIP3   OH253668   5.965   4.239   5.125  0.1073 -0.3671  0.4287
10726TIP3    H153669   5.989   4.148   5.104  0.4590 -0.1218 -0.2562
10726TIP3    H253670   5.909   4.232   5.202  0.8595 -1.1025  0.9172
10727TIP3   OH253671   1.975   6.121   4.157 -0.4401 -0.2197 -0.2580
10727TIP3    H153672   2.056   6.163   4.127  0.3195 -0.5706  1.2690
10727TIP3    H253673   1.951   6.169   4.236 -1.8776  0.0327 -0.8201
10728TIP3   OH253674   4.770   3.425  16.165 -0.7380 -0.0144  0.2456
10728TIP3    H153675   4.696   3.466  16.211 -2.0137 -1.9338 -0.0305
10728TIP3    H253676   4.729   3.362  16.106  1.1993 -2.2363  1.2125
10729TIP3   OH253677   0.773   3.705  12.364  0.2198  0.0125 -0.9165
10729TIP3    H153678   0.762   3.611  12.375  1.9784  0.0321  1.2405
10729TIP3    H253679   0.827   3.713  12.285  1.6869 -0.9025 -0.0417
10730TIP3   OH253680   1.053   3.437   5.337  0.2904 -0.7810 -0.1614
10730TIP3    H153681   1.114   3.369   5.309 -0.8192 -1.8188 -0.0323
10730TIP3    H253682   0.966   3.399   5.326 -0.3741  0.8598 -0.7805
10731TIP3   OH253683   0.902   3.900   4.392 -0.5232  0.4763 -0.2588
10731TIP3    H153684   0.860   3.822   4.356  2.6321 -0.4881 -2.0772
10731TIP3    H253685   0.884   3.969   4.328  0.1530  0.2017 -0.7521
10732TIP3   OH253686   6.690   0.883  13.414  0.2663 -0.1316  0.4163
10732TIP3    H153687   6.768   0.918  13.457  0.3067 -1.1758  1.2124
10732TIP3    H253688   6.619   0.939  13.445  0.8476  1.6387 -1.3166
10733TIP3   OH253689   4.690   0.796  12.717 -0.0479  0.2875 -0.2841
10733TIP3    H153690   4.653   0.708  12.709 -0.6333  0.6223 -1.2311
10733TIP3    H253691   4.718   0.801  12.808 -0.4983 -0.6919 -0.0821
10734TIP3   OH253692   3.298   0.418   4.253  0.5016 -0.4724 -0.1624
10734TIP3    H153693   3.220   0.372   4.286 -0.9640  1.0661 -1.3954
10734TIP3    H253694   3.351   0.433   4.331 -0.0508 -2.2649  0.5779
10735TIP3   OH253695   2.888   5.012  13.773  0.1391 -0.6878  0.0638
10735TIP3    H153696   2.912   5.068  13.848  0.2256  1.4140 -1.4969
10735TIP3    H253697   2.972   4.994  13.730 -0.1205 -0.2747 -0.6240
10736TIP3   OH253698   1.100   1.713  16.593  0.1200  0.1701  0.4677
10736TIP3    H153699   1.139   1.664  16.665  1.2041  0.1032 -0.1573
10736TIP3    H253700   1.134   1.802  16.605 -0.6153  0.4196  0.7058
10737TIP3   OH253701   0.139   6.797  13.927 -0.4798  0.0836 -0.3866
10737TIP3    H153702   0.218   6.757  13.891 -1.2778 -0.8220 -1.1559
10737TIP3    H253703   0.153   6.801  14.021 -0.0672 -1.2842 -0.3918
10738TIP3   OH253704   6.495   0.479  17.056 -0.2479  0.1511 -0.5539
10738TIP3    H153705   6.477   0.573  17.053 -2.7179 -0.2980 -1.5761
10738TIP3    H253706   6.587   0.471  17.030 -0.1911  2.2273 -1.0764
10739TIP3   OH253707   4.978   2.627   1.888 -0.1024 -0.1116  0.0870
10739TIP3    H153708   4.998   2.600   1.798 -1.4564 -1.7628  0.2674
10739TIP3    H253709   5.013   2.716   1.894  0.8814 -0.3508 -1.7635
10740TIP3   OH253710   4.971   4.150  13.830  0.0604  0.1163 -0.0664
10740TIP3    H153711   4.995   4.058  13.846 -2.1775 -0.2760  1.2823
10740TIP3    H253712   4.969   4.158  13.735 -2.0761 -1.9072 -0.2220
10741TIP3   OH253713   6.146   0.422  11.762 -0.2589  0.1983  0.6746
10741TIP3    H153714   6.223   0.377  11.728  0.5347  0.7438  1.7495
10741TIP3    H253715   6.088   0.430  11.686  1.0990  0.5693 -0.3395
10742TIP3   OH253716   4.750   5.322   4.496  0.5092 -0.0687 -0.2289
10742TIP3    H153717   4.822   5.260   4.488 -1.0181 -1.9762  0.6868
10742TIP3    H253718   4.764   5.365   4.580  1.7157  1.0537 -0.9850
10743TIP3   OH253719   5.427   0.247  11.887  0.5502  0.0123 -0.0551
10743TIP3    H153720   5.446   0.238  11.793  1.5430  0.7163  0.0715
10743TIP3    H253721   5.340   0.285  11.891  0.9263  0.9598 -0.7131
10744TIP3   OH253722   1.352   2.871   0.474 -0.1459 -0.2767  0.2194
10744TIP3    H153723   1.417   2.934   0.442 -0.8513  0.3331 -0.0327
10744TIP3    H253724   1.307   2.917   0.545  0.8678 -1.3301  1.5525
10745TIP3   OH253725   3.332   2.808   6.311 -0.8874 -0.0178  0.3669
10745TIP3    H153726   3.276   2.841   6.240 -0.3004 -1.2135 -0.6641
10745TIP3    H253727   3.298   2.850   6.390 -2.1486  0.6010 -0.4957
10746TIP3   OH253728   3.605   2.307   2.271  0.2741  0.7288 -0.4154
10746TIP3    H153729   3.555   2.385   2.246 -0.7118  0.4853  0.7907
10746TIP3    H253730   3.562   2.274   2.349 -0.6931 -2.3282 -2.1355
10747TIP3   OH253731   2.492   1.237  12.309 -0.1938  0.6985  0.5183
10747TIP3    H153732   2.542   1.319  12.306  0.3190  0.3664 -0.0547
10747TIP3    H253733   2.414   1.255  12.256 -0.3250  0.9767  0.8040
10748TIP3   OH253734   1.630   1.211  14.565  0.0316 -0.3989 -0.1966
10748TIP3    H153735   1.695   1.167  14.511  1.3238  1.5212 -0.2511
10748TIP3    H253736   1.666   1.209  14.654 -1.6648 -2.7468  0.4966
10749TIP3   OH253737   6.327   4.044  14.950  0.2642 -0.1885 -0.6048
10749TIP3    H153738   6.343   3.977  15.016 -0.2991  0.4426  0.1818
10749TIP3    H253739   6.319   3.995  14.868  1.3611 -0.9371 -0.2719
10750TIP3   OH253740   4.981   0.875  14.168  0.2412 -0.6708  0.4886
10750TIP3    H153741   4.887   0.893  14.159  0.0843 -2.0235 -0.6278
10750TIP3    H253742   5.017   0.955  14.206 -1.3705 -0.1533  0.9512
10751TIP3   OH253743   5.992   0.973  10.781 -0.5137 -0.0922  0.5122
10751TIP3    H153744   5.968   1.005  10.694  0.0443  0.7741  0.6737
10751TIP3    H253745   5.908   0.963  10.826 -0.8427 -1.1478 -0.3335
10752TIP3   OH253746   1.015   0.896   4.826  0.6058  0.8525  0.3106
10752TIP3    H153747   1.057   0.969   4.872  1.7773  0.7104 -0.5172
10752TIP3    H253748   1.088   0.846   4.789 -0.2092 -0.5045  0.5117
10753TIP3   OH253749   5.752   4.844   1.462 -0.0119 -0.4101  0.0915
10753TIP3    H153750   5.785   4.933   1.469 -0.9787 -0.0846  0.5368
10753TIP3    H253751   5.684   4.848   1.395  0.4610 -0.9670 -0.4268
10754TIP3   OH253752   3.952   3.594  15.109  0.1777  0.1191 -0.4076
10754TIP3    H153753   3.930   3.566  15.198  0.3472 -1.4732 -0.8555
10754TIP3    H253754   3.901   3.537  15.052 -0.3751  1.5176 -1.3397
10755TIP3   OH253755   0.984   0.360  13.755  0.0176  0.3372  0.3412
10755TIP3    H153756   1.055   0.342  13.693 -0.4282 -1.5921  0.3510
10755TIP3    H253757   1.009   0.442  13.798  1.8962  0.0380 -0.1444
10756TIP3   OH253758   1.111   0.676   5.011  0.0880  0.6287  0.0343
10756TIP3    H153759   1.161   0.670   5.092  1.8876 -0.5707 -1.1148
10756TIP3    H253760   1.139   0.758   4.972  0.8184  0.2010 -0.3625
10757TIP3   OH253761   0.415   2.913   2.502 -0.2367 -0.4534  0.5723
10757TIP3    H153762   0.472   2.842   2.473 -0.0213  0.3772 -1.1113
10757TIP3    H253763   0.408   2.971   2.426 -2.1630  0.2087  1.2238
10758TIP3   OH253764   6.464   6.350   3.878  0.0656 -0.0466  0.2140
10758TIP3    H153765   6.401   6.338   3.949 -1.2229 -1.0249 -1.0716
10758TIP3    H253766   6.501   6.437   3.894  0.1629 -0.4480  2.3523
10759TIP3   OH253767   5.057   6.047  11.355  0.0394 -0.3203 -0.4306
10759TIP3    H153768   5.128   5.985  11.340  1.8164  1.1220  1.6882
10759TIP3    H253769   5.069   6.114  11.288  1.3341  0.4565  0.5537
10760TIP3   OH253770   1.398   1.884  11.973  0.2027  0.2787  0.0280
10760TIP3    H153771   1.441   1.930  12.045  1.8983 -0.6819 -0.3308
10760TIP3    H253772   1.350   1.953  11.926  0.0446  1.1048  1.3634
10761TIP3   OH253773   0.284   2.505   3.781 -0.0077 -0.7215  0.5451
10761TIP3    H153774   0.324   2.462   3.856  1.2312  0.6710  0.7140
10761TIP3    H253775   0.204   2.545   3.815  1.5863  1.6650  1.6518
10762TIP3   OH253776   6.308   0.619   4.675  0.3198 -0.3803 -0.0196
10762TIP3    H153777   6.320   0.713   4.690  1.7425 -0.5322 -0.2102
10762TIP3    H253778   6.396   0.582   4.678 -0.3089 -1.8499  0.9171
10763TIP3   OH253779   3.000   0.304   0.708 -0.2108  0.5016  0.5537
10763TIP3    H153780   3.090   0.287   0.735  0.1562  1.3899 -0.0823
10763TIP3    H253781   2.950   0.300   0.789  0.0072 -2.3763  0.5960
10764TIP3   OH253782   2.119   5.317   0.949  0.0150  0.0369  0.0118
10764TIP3    H153783   2.102   5.372   0.873 -1.5877 -0.4451  0.0011
10764TIP3    H253784   2.141   5.378   1.019 -2.1573  0.7376  0.1139
10765TIP3   OH253785   4.298   4.655   1.721 -0.1506 -0.3486 -0.2244
10765TIP3    H153786   4.376   4.608   1.694 -0.8414 -1.5264 -0.2123
10765TIP3    H253787   4.330   4.737   1.760  1.0473 -0.7520 -0.3756
10766TIP3   OH253788   0.052   4.854   4.670 -0.0325 -0.8226 -0.2115
10766TIP3    H153789   0.112   4.812   4.608  1.0817  1.3883 -0.6836
10766TIP3    H253790   0.028   4.936   4.628 -2.6343 -1.2262  0.4397
10767TIP3   OH253791   2.695   5.072  12.793 -1.4135 -0.3288 -0.0555
10767TIP3    H153792   2.747   5.149  12.817 -0.2743 -2.1575  3.7295
10767TIP3    H253793   2.757   4.999  12.796 -3.1348 -1.8545 -0.4795
10768TIP3   OH253794   5.427   3.753   2.411  0.1069  0.6519  0.2871
10768TIP3    H153795   5.509   3.744   2.361 -0.5472  0.8820 -0.8462
10768TIP3    H253796   5.397   3.663   2.423 -1.1933  0.6996 -2.2285
10769TIP3   OH253797   3.799   2.741  14.523  0.4336  0.2793 -0.0273
10769TIP3    H153798   3.776   2.669  14.465  1.5332 -1.2148  1.3546
10769TIP3    H253799   3.877   2.779  14.483 -0.2955  0.9126 -0.8988
10770TIP3   OH253800   1.962   3.622   3.999  0.5842 -0.2147 -0.0475
10770TIP3    H153801   1.907   3.611   3.921 -1.3426 -1.4168  1.4149
10770TIP3    H253802   1.991   3.713   3.996 -1.7012  0.5194 -0.7866
10771TIP3   OH253803   3.328   2.338   3.973  0.0433 -0.0061  0.0993
10771TIP3    H153804   3.250   2.322   4.027  0.4299  0.6339  0.8628
10771TIP3    H253805   3.300   2.400   3.907 -0.3580 -0.5570 -0.2485
10772TIP3   OH253806   6.801   2.740  13.447 -0.6731  0.3008  0.0819
10772TIP3    H153807   6.816   2.759  13.354  0.0419 -0.7326 -0.0222
10772TIP3    H253808   6.847   2.811  13.493  0.1940  0.0160 -0.3314
10773TIP3   OH253809   1.451   4.249  11.253  0.2452  0.0655  0.0037
10773TIP3    H153810   1.490   4.162  11.252  2.1959  0.9060 -0.0040
10773TIP3    H253811   1.415   4.258  11.341 -2.6983 -1.8734 -0.9317
10774TIP3   OH253812   3.997   2.021   2.577  0.6100 -0.1313  0.2266
10774TIP3    H153813   4.069   2.010   2.640  0.5710  1.0235  0.4817
10774TIP3    H253814   3.994   2.115   2.560  0.6948 -0.4410 -1.6057
10775TIP3   OH253815   5.298   6.783  12.267  0.2394 -1.0142 -0.1437
10775TIP3    H153816   5.276   6.850  12.332  0.6361 -1.7632  0.7632
10775TIP3    H253817   5.392   6.771  12.275  0.3039 -1.0660 -0.9074
10776TIP3   OH253818   0.253   4.145  14.402 -0.1555 -0.2844 -1.0926
10776TIP3    H153819   0.219   4.086  14.334  1.2859 -1.7811 -0.5517
10776TIP3    H253820   0.188   4.140  14.472 -0.1628 -1.0621 -1.1460
10777TIP3   OH253821   2.969   0.640   2.568  0.1041 -0.4243 -0.0377
10777TIP3    H153822   3.049   0.639   2.516  1.4503 -0.8914  1.9533
10777TIP3    H253823   2.912   0.575   2.527  0.8125 -0.2308 -1.3573
10778TIP3   OH253824   5.487   3.930  12.901  0.3050  0.1494  0.7752
10778TIP3    H153825   5.416   3.960  12.957 -0.7602  0.1280 -0.5381
10778TIP3    H253826   5.523   4.010  12.862 -0.8986 -0.0418 -0.7843
10779TIP3   OH253827   3.598   3.064  13.293 -0.6466  0.2746 -0.5625
10779TIP3    H153828   3.634   3.122  13.361 -0.7188  0.0904 -0.3688
10779TIP3    H253829   3.619   2.976  13.323 -2.2307  0.1133  0.1081
10780TIP3   OH253830   5.250   1.472  14.296  0.1564 -0.3918  0.6032
10780TIP3    H153831   5.216   1.405  14.356  1.2557 -1.3846  0.1314
10780TIP3    H253832   5.281   1.423  14.220  3.1256  0.4108  1.2198
10781TIP3   OH253833   0.776   0.629   5.707 -0.2400  0.9123 -0.4290
10781TIP3    H153834   0.694   0.643   5.660 -0.1650 -0.4601 -1.0117
10781TIP3    H253835   0.785   0.533   5.711  1.8911  1.0414 -1.4198
10782TIP3   OH253836   0.216   1.863  15.175  0.0664 -0.0039 -0.1964
10782TIP3    H153837   0.122   1.846  15.183 -0.2623  1.6939 -0.4051
10782TIP3    H253838   0.231   1.871  15.081  1.0524 -3.6500 -0.4311
10783TIP3   OH253839   2.292   5.895  13.767  0.3256 -0.1186  0.7837
10783TIP3    H153840   2.367   5.916  13.712  0.5016 -0.7915  0.7697
10783TIP3    H253841   2.281   5.800  13.759 -1.7839  0.2294 -0.8157
10784TIP3   OH253842   0.639   1.476  14.835  0.6035 -0.3521 -0.1049
10784TIP3    H153843   0.696   1.402  14.814  1.8750  0.3338  0.8305
10784TIP3    H253844   0.683   1.551  14.796 -0.2520  0.0346 -0.3296
10785TIP3   OH253845   3.895   4.834  12.340 -0.1951  0.1655  0.3799
10785TIP3    H153846   3.880   4.915  12.292  0.0871 -0.0244 -0.0352
10785TIP3    H253847   3.940   4.777  12.278  2.2803  0.7311  1.5737
10786TIP3   OH253848   0.625   2.937  14.054  0.2837 -0.2223  0.3839
10786TIP3    H153849   0.706   2.986  14.040  0.3079 -0.7354 -1.3833
10786TIP3    H253850   0.560   3.004  14.078  0.2637  0.7329 -2.2071
10787TIP3   OH253851   2.661   3.198  10.491 -0.0276 -0.2306  0.0342
10787TIP3    H153852   2.718   3.167  10.421 -0.1883 -0.5210  0.0309
10787TIP3    H253853   2.720   3.236  10.555  0.0629  0.7568 -0.6201
10788TIP3   OH253854   0.393   1.154   2.614 -0.4162  0.9341  0.0231
10788TIP3    H153855   0.346   1.072   2.599 -0.5650  1.1834 -0.9293
10788TIP3    H253856   0.484   1.128   2.626 -0.4626  0.6216 -0.2804
10789TIP3   OH253857   0.445   0.752  13.652 -0.4048 -0.0415 -0.2155
10789TIP3    H153858   0.492   0.766  13.734 -0.7447  0.0220 -0.0274
10789TIP3    H253859   0.460   0.832  13.601 -0.9191  0.2882  0.1482
10790TIP3   OH253860   2.059   6.600   2.945 -0.3640 -0.3968  0.0599
10790TIP3    H153861   2.064   6.509   2.916  0.6738 -0.3325  0.0272
10790TIP3    H253862   2.032   6.649   2.867  0.4249 -0.4947 -0.2751
10791TIP3   OH253863   3.352   0.309   5.636 -0.2596  0.8229  0.5244
10791TIP3    H153864   3.345   0.305   5.541 -1.7736  0.8686  0.6231
10791TIP3    H253865   3.343   0.402   5.658 -2.5884  0.5304  0.8894
10792TIP3   OH253866   0.183   0.815  12.852  0.1476  0.6322 -0.4645
10792TIP3    H153867   0.090   0.793  12.848  0.8347 -3.0775  1.1968
10792TIP3    H253868   0.204   0.814  12.945  2.4405 -1.6799 -0.9463
10793TIP3   OH253869   4.792   5.768  13.657  0.9326  0.0056 -0.5085
10793TIP3    H153870   4.864   5.738  13.600  0.6790  1.9418 -1.8849
10793TIP3    H253871   4.834   5.831  13.716  0.6133  0.1968 -0.4864
10794TIP3   OH253872   0.268   1.381   1.674  0.1780 -0.5939  0.1851
10794TIP3    H153873   0.224   1.393   1.758  0.3590 -3.1051  0.6991
10794TIP3    H253874   0.309   1.465   1.655 -2.6338  1.0089  0.9765
10795TIP3   OH253875   0.785   1.961   0.752  0.5386 -0.0285 -0.2241
10795TIP3    H153876   0.705   1.990   0.709 -1.0980 -1.4617  1.7170
10795TIP3    H253877   0.800   1.873   0.718  0.6265 -0.2127  0.2840
10796TIP3   OH253878   0.241   6.015   4.631 -0.4584 -0.4974 -0.1428
10796TIP3    H153879   0.251   5.941   4.690  0.1174  0.0856  0.5034
10796TIP3    H253880   0.178   6.073   4.676 -5.5289 -3.2203 -3.2478
10797TIP3   OH253881   3.316   0.117  13.394 -0.0007 -0.0360  0.2059
10797TIP3    H153882   3.324   0.022  13.394  0.3186 -0.0127 -2.1132
10797TIP3    H253883   3.397   0.148  13.435  0.6026 -0.6988 -0.4831
10798TIP3   OH253884   1.168   1.135  14.416 -0.5296 -0.0354 -0.1885
10798TIP3    H153885   1.115   1.057  14.432 -0.8395  0.0486 -0.7958
10798TIP3    H253886   1.253   1.115  14.454 -0.9890 -0.1849  0.7808
10799TIP3   OH253887   4.917   4.412   5.912 -0.3263 -0.2366 -0.1099
10799TIP3    H153888   4.972   4.478   5.870  0.0240  0.4582  1.3920
10799TIP3    H253889   4.879   4.362   5.840  3.1758 -1.4767 -1.2001
10800TIP3   OH253890   0.963   0.369  13.231 -0.4725 -0.4976 -0.0740
10800TIP3    H153891   1.005   0.444  13.272 -1.5376  0.4620 -0.7149
10800TIP3    H253892   0.930   0.317  13.304 -2.1234  1.0606  0.2984
10801TIP3   OH253893   0.073   6.443   1.802 -0.2225  0.3238  0.1700
10801TIP3    H153894   0.167   6.459   1.790 -0.1529 -0.6396 -0.6304
10801TIP3    H253895   0.030   6.504   1.743 -0.1097  0.7881  0.5594
10802TIP3   OH253896   2.662   6.333  14.883  0.4299 -0.4443  0.5976
10802TIP3    H153897   2.712   6.411  14.906 -0.0005  0.1352 -0.4252
10802TIP3    H253898   2.573   6.364  14.869  0.4893 -0.9133 -0.9578
10803TIP3   OH253899   4.786   2.734  16.169 -0.0069 -0.3993  0.0344
10803TIP3    H153900   4.742   2.722  16.084  0.8182 -2.0496 -0.1848
10803TIP3    H253901   4.876   2.759  16.146 -0.3118  1.1345  0.4598
10804TIP3   OH253902   5.467   3.529   1.029  0.2395 -0.2623 -0.0697
10804TIP3    H153903   5.527   3.470   0.985  0.4730 -0.4420  0.4794
10804TIP3    H253904   5.475   3.612   0.982 -0.6778 -0.8848 -1.3397
10805TIP3   OH253905   2.085   4.951   5.870  0.1597 -0.2196  0.7301
10805TIP3    H153906   2.137   5.010   5.924  0.3842  0.6502 -0.4210
10805TIP3    H253907   2.094   4.866   5.912  3.8740 -0.4441 -0.3573
10806TIP3   OH253908   5.533   4.454  13.402  0.0347  0.2186  0.1635
10806TIP3    H153909   5.613   4.402  13.402  0.4780  0.8452 -2.3991
10806TIP3    H253910   5.563   4.545  13.401 -0.7304  0.4841  0.6006
10807TIP3   OH253911   1.072   5.958   1.732  0.5736  0.1175  0.3278
10807TIP3    H153912   1.095   5.865   1.723 -1.1210 -0.2067 -0.9619
10807TIP3    H253913   1.098   5.997   1.650 -0.6721  0.3350  0.0222
10808TIP3   OH253914   0.084   4.527   5.803 -0.1509  0.2500  0.3967
10808TIP3    H153915   0.076   4.601   5.743 -2.3488  0.0913  0.4453
10808TIP3    H253916   0.156   4.475   5.768  0.3590  1.5569 -0.5429
10809TIP3   OH253917   1.746   1.536   2.056 -1.1848  0.1621  0.1768
10809TIP3    H153918   1.669   1.505   2.104 -0.3249  0.5143  1.8519
10809TIP3    H253919   1.820   1.513   2.113 -0.0069 -0.5077 -1.5734
10810TIP3   OH253920   4.678   4.346  16.517  0.3573  0.3153 -0.0142
10810TIP3    H153921   4.603   4.295  16.547 -0.5960  1.3425 -0.6032
10810TIP3    H253922   4.643   4.400  16.446  2.0706 -0.5017 -1.5229
10811TIP3   OH253923   5.736   2.402   4.281  0.5748  0.0492  0.4489
10811TIP3    H153924   5.704   2.486   4.314 -0.7400 -0.1094 -0.3862
10811TIP3    H253925   5.831   2.410   4.285  0.4643  1.5178  0.5622
10812TIP3   OH253926   3.982   3.817   0.795  0.1984  0.1120 -0.0808
10812TIP3    H153927   3.983   3.740   0.738 -1.3729 -0.7496  1.0083
10812TIP3    H253928   3.889   3.834   0.810  0.5361  2.1900 -0.2568
10813TIP3   OH253929   2.327   2.467  12.229  0.3924 -0.5860  0.1016
10813TIP3    H153930   2.349   2.542  12.173 -0.0625 -0.0608  0.6161
10813TIP3    H253931   2.331   2.392  12.171 -0.9320  0.0659 -0.8489
10814TIP3   OH253932   5.720   6.491  12.068 -0.6435 -0.0121  0.1444
10814TIP3    H153933   5.630   6.463  12.082 -1.5388  1.8881 -1.4072
10814TIP3    H253934   5.741   6.458  11.981  1.2858 -3.1135  1.7290
10815TIP3   OH253935   5.394   0.372  10.696  0.0459  0.0927 -0.4784
10815TIP3    H153936   5.367   0.417  10.616 -1.0506 -0.8349 -0.6383
10815TIP3    H253937   5.323   0.311  10.714 -1.0744  2.2534  2.7882
10816TIP3   OH253938   1.232   2.513   0.773 -0.0876 -0.6169 -0.5473
10816TIP3    H153939   1.137   2.517   0.781 -0.1425 -0.2842 -1.3249
10816TIP3    H253940   1.248   2.500   0.679  0.6518  0.3432 -0.5714
10817TIP3   OH253941   3.776   6.255   0.064 -0.2876  0.3450 -0.4804
10817TIP3    H153942   3.869   6.239   0.051 -0.7010 -1.4321 -1.4260
10817TIP3    H253943   3.764   6.253   0.159  0.2796 -1.7932 -0.4245
10818TIP3   OH253944   1.451   6.253   6.636  0.7719  0.0147  0.3533
10818TIP3    H153945   1.502   6.322   6.594  1.4105 -1.4117 -1.2586
10818TIP3    H253946   1.362   6.266   6.603  0.0067  2.4555  3.1104
10819TIP3   OH253947   4.613   3.380   0.210  0.7678 -0.0724 -0.2983
10819TIP3    H153948   4.639   3.395   0.301 -0.0298  0.1220 -0.0935
10819TIP3    H253949   4.518   3.395   0.210  0.8857  0.7624 -1.3310
10820TIP3   OH253950   1.274   5.489   1.088 -0.1788  0.5878 -0.4672
10820TIP3    H153951   1.199   5.429   1.092 -0.4299  0.7422 -2.4070
10820TIP3    H253952   1.235   5.575   1.072  0.3142  0.9439  0.2242
10821TIP3   OH253953   5.773   2.158  11.478 -0.0103  0.4237 -0.0472
10821TIP3    H153954   5.792   2.250  11.497  1.2515 -0.0841  1.2742
10821TIP3    H253955   5.717   2.130  11.551  0.2253 -0.0423 -0.0448
10822TIP3   OH253956   2.103   1.969  11.282 -0.5010 -0.2962  0.3771
10822TIP3    H153957   2.008   1.979  11.290 -0.4948  2.6542 -2.1089
10822TIP3    H253958   2.135   2.059  11.267  2.3093 -1.5802 -1.9126
10823TIP3   OH253959   1.344   0.231  15.948  0.3936  0.2103  0.0701
10823TIP3    H153960   1.401   0.158  15.925  1.0522  0.8689 -0.4152
10823TIP3    H253961   1.298   0.201  16.026 -0.6954 -1.4210 -1.1696
10824TIP3   OH253962   5.814   3.823  17.181 -0.3033 -0.0181 -0.0291
10824TIP3    H153963   5.861   3.894  17.225 -0.9578  1.1115 -1.1204
10824TIP3    H253964   5.745   3.799  17.243  1.1039 -1.0242  1.1631
10825TIP3   OH253965   4.937   0.619  16.186 -0.0257  0.0386 -0.5612
10825TIP3    H153966   4.994   0.542  16.181 -0.3850 -0.1525 -2.1334
10825TIP3    H253967   4.994   0.688  16.220  0.6190 -0.6236 -0.2574
10826TIP3   OH253968   4.043   0.426  13.206  0.1848 -0.5090 -0.0724
10826TIP3    H153969   4.004   0.463  13.286  1.6192 -2.0755  1.3641
10826TIP3    H253970   4.010   0.483  13.136 -1.0692  0.9149  1.6163
10827TIP3   OH253971   5.126   6.221   5.152 -0.1368  0.3669  0.1480
10827TIP3    H153972   5.123   6.130   5.180  0.3548  0.4231  0.3988
10827TIP3    H253973   5.100   6.271   5.229 -0.6195  0.4251 -0.0544
10828TIP3   OH253974   4.130   3.248  14.022  0.2932 -0.9310 -0.1828
10828TIP3    H153975   4.060   3.187  14.047  0.7652 -1.1564  0.6050
10828TIP3    H253976   4.210   3.197  14.028  0.7981  0.0090  1.4071
10829TIP3   OH253977   3.560   4.184  15.972 -0.0768  0.2549 -0.2077
10829TIP3    H153978   3.582   4.271  15.938  0.5129  0.2374  0.1374
10829TIP3    H253979   3.475   4.164  15.931 -0.0297  0.8208 -0.5948
10830TIP3   OH253980   0.160   2.766   4.636  0.5721 -0.3773  0.1644
10830TIP3    H153981   0.199   2.687   4.598  1.2322  0.1982 -0.3826
10830TIP3    H253982   0.190   2.837   4.579  1.4640  0.4847  1.6774
10831TIP3   OH253983   3.868   4.691  15.127 -0.2493 -0.3365  0.0755
10831TIP3    H153984   3.827   4.627  15.069 -1.3950  0.4500  0.0079
10831TIP3    H253985   3.876   4.645  15.211  1.8156 -1.6315 -0.7649
10832TIP3   OH253986   1.017   1.347   4.181 -0.1524 -0.3473  0.1554
10832TIP3    H153987   0.948   1.306   4.233 -0.9693  1.5239  0.6035
10832TIP3    H253988   1.083   1.279   4.170 -1.8903 -2.0472  0.0460
10833TIP3   OH253989   5.138   3.723   1.053 -0.0973  0.6373 -0.3604
10833TIP3    H153990   5.114   3.711   0.961  0.4629 -2.1505 -0.1913
10833TIP3    H253991   5.233   3.733   1.052 -0.3064  2.8941 -0.2513
10834TIP3   OH253992   5.345   2.586   0.664  0.2007 -0.1792 -0.5257
10834TIP3    H153993   5.376   2.550   0.581  1.4194  1.5292 -0.8348
10834TIP3    H253994   5.260   2.624   0.644 -0.3983 -1.4817 -0.5336
10835TIP3   OH253995   6.218   6.187  16.867 -0.0405 -0.1180 -0.3868
10835TIP3    H153996   6.164   6.137  16.929 -0.8475  0.3318 -0.7272
10835TIP3    H253997   6.181   6.167  16.781 -1.0184  1.8466 -0.4453
10836TIP3   OH253998   1.629   0.096   6.220 -0.0007 -0.0392 -0.1404
10836TIP3    H153999   1.544   0.053   6.214 -0.3624  0.4291  1.2779
10836TIP3    H254000   1.619   0.159   6.293  0.4455  2.5627 -2.2413
10837TIP3   OH254001   5.631   3.502   4.217  0.5723  0.0579 -0.2043
10837TIP3    H154002   5.711   3.547   4.244 -0.5383  1.0401  1.5865
10837TIP3    H254003   5.617   3.529   4.126  3.1251 -1.4208 -1.0740
10838TIP3   OH254004   5.684   3.005  11.208  0.3908 -0.1447 -0.2580
10838TIP3    H154005   5.712   2.934  11.266  0.0523 -1.4753 -1.6858
10838TIP3    H254006   5.724   2.984  11.124  0.2098  1.3191 -0.7149
10839TIP3   OH254007   1.177   6.206  12.806 -0.8840 -0.4043 -0.1232
10839TIP3    H154008   1.131   6.289  12.804  1.1603  0.7612  0.0393
10839TIP3    H254009   1.170   6.176  12.897 -0.5515  0.2149  0.1081
10840TIP3   OH254010   1.894   0.883   4.336  0.2404  0.6633  0.1631
10840TIP3    H154011   1.965   0.823   4.314 -0.5882 -0.4333  0.4541
10840TIP3    H254012   1.870   0.923   4.252 -1.7295 -2.2055 -0.6975
10841TIP3   OH254013   0.634   6.373   7.051 -0.4700 -0.0140 -0.3036
10841TIP3    H154014   0.632   6.413   6.964  1.2004  1.9859  0.5337
10841TIP3    H254015   0.564   6.308   7.049 -1.3827  0.9780 -2.6640
10842TIP3   OH254016   3.447   0.123  16.808 -0.2701  0.2622  1.1135
10842TIP3    H154017   3.397   0.195  16.847 -0.9057  0.2722  0.2874
10842TIP3    H254018   3.511   0.100  16.875  0.8636  2.5270  0.8590
10843TIP3   OH254019   5.356   6.648  13.653  0.7009  0.3716 -0.7637
10843TIP3    H154020   5.344   6.742  13.640 -0.4853  0.7575  2.6294
10843TIP3    H254021   5.337   6.634  13.745  0.9818 -3.2101 -1.1794
10844TIP3   OH254022   1.835   3.429  11.515 -0.8845 -0.3187 -0.5483
10844TIP3    H154023   1.853   3.335  11.517 -0.6736 -0.2689  0.1656
10844TIP3    H254024   1.903   3.466  11.459 -0.8118 -0.5560 -0.6146
10845TIP3   OH254025   3.655   1.339  12.476 -0.4976 -0.5537  0.4665
10845TIP3    H154026   3.729   1.320  12.418 -0.6838  0.3656 -0.0669
10845TIP3    H254027   3.692   1.396  12.543 -0.9943  0.8699 -0.4616
10846TIP3   OH254028   5.960   2.768   0.219 -0.2087  0.1682 -0.4064
10846TIP3    H154029   5.983   2.751   0.128 -1.4670  1.5338 -0.9995
10846TIP3    H254030   5.928   2.858   0.220  2.9826  1.3578  2.0216
10847TIP3   OH254031   2.034   0.082  14.585  0.9466 -0.5447 -1.0482
10847TIP3    H154032   2.031   0.071  14.680  0.0456 -0.4012 -1.0482
10847TIP3    H254033   2.124   0.065  14.561  0.8428 -2.1098 -0.3436
10848TIP3   OH254034   1.575   0.095   5.826 -0.1199 -0.7026  0.2250
10848TIP3    H154035   1.504   0.124   5.883  0.8254 -0.3367  1.2323
10848TIP3    H254036   1.586   0.166   5.763  0.4796  0.0116  1.1161
10849TIP3   OH254037   5.091   5.474  12.163  0.1442  0.4043 -0.1917
10849TIP3    H154038   5.030   5.453  12.234 -1.3941  2.0100 -1.0046
10849TIP3    H254039   5.174   5.435  12.190 -1.3277 -2.2324  0.7262
10850TIP3   OH254040   6.805   0.959   2.577  0.0608  0.1794  0.3577
10850TIP3    H154041   6.722   0.962   2.623  1.0778  1.8443  2.1411
10850TIP3    H254042   6.785   0.989   2.489 -1.2215  0.5410  0.7683
10851TIP3   OH254043   0.216   1.926   1.223 -0.5615 -0.8547  0.0671
10851TIP3    H154044   0.198   2.017   1.244 -0.2103 -0.9061  0.6054
10851TIP3    H254045   0.141   1.898   1.171  0.0150  0.1616 -1.3552
10852TIP3   OH254046   0.155   3.517   3.725 -0.6808  0.7620 -0.1229
10852TIP3    H154047   0.129   3.446   3.666  1.2799  1.0997 -1.4543
10852TIP3    H254048   0.097   3.509   3.800  0.3389 -3.0514  0.3564
10853TIP3   OH254049   2.177   5.784  14.612 -0.0538  0.1258  0.6813
10853TIP3    H154050   2.084   5.775  14.631  0.3963 -1.9243  2.1157
10853TIP3    H254051   2.204   5.864  14.656 -1.0207  0.4180  0.7416
10854TIP3   OH254052   0.128   3.294  13.022 -0.1990  0.6684  0.2773
10854TIP3    H154053   0.084   3.368  12.981 -2.5044  0.1006  1.6438
10854TIP3    H254054   0.179   3.332  13.094 -1.7223  0.9069  1.2449
10855TIP3   OH254055   5.097   1.948  11.846 -0.6582 -0.4626 -0.4096
10855TIP3    H154056   5.086   1.949  11.751  0.8814 -1.3184 -0.6119
10855TIP3    H254057   5.059   1.865  11.873 -2.1934  0.3285 -0.1320
10856TIP3   OH254058   2.171   3.285   1.481  0.4923  0.1910  0.2211
10856TIP3    H154059   2.196   3.366   1.437 -0.3039  1.0225  1.2802
10856TIP3    H254060   2.233   3.278   1.554  0.8784 -0.4258 -0.1577
10857TIP3   OH254061   5.749   0.351  11.277 -0.0631 -0.2781 -0.2451
10857TIP3    H154062   5.789   0.428  11.318  0.9420 -1.3125  0.7747
10857TIP3    H254063   5.812   0.323  11.211 -1.9020  1.6642 -2.8815
10858TIP3   OH254064   2.527   6.451  12.586  0.6782 -0.1360  0.2096
10858TIP3    H154065   2.620   6.457  12.563  0.5394 -0.0044 -0.3124
10858TIP3    H254066   2.484   6.427  12.505 -0.0972  2.5269 -0.2234
10859TIP3   OH254067   6.282   4.841   5.091 -0.3962 -0.1416 -0.0375
10859TIP3    H154068   6.296   4.936   5.092  1.3215 -0.3878  0.9160
10859TIP3    H254069   6.364   4.805   5.056 -0.0809 -1.4069  1.9159
10860TIP3   OH254070   1.864   2.761  12.145  0.5041  0.1012  0.1367
10860TIP3    H154071   1.858   2.804  12.231 -1.5046 -0.2547  0.1871
10860TIP3    H254072   1.816   2.679  12.156 -0.5776  0.4967 -1.6040
10861TIP3   OH254073   5.333   6.437  16.307  0.9076  0.2869 -0.3717
10861TIP3    H154074   5.280   6.479  16.375 -0.5654  0.6717 -1.7320
10861TIP3    H254075   5.390   6.507  16.274  1.2496  0.2305  0.0954
10862TIP3   OH254076   5.033   1.966   4.502  0.4098 -0.3783 -0.3071
10862TIP3    H154077   5.055   2.051   4.463  0.0408 -0.7012 -1.2270
10862TIP3    H254078   4.953   1.939   4.457 -0.5108 -0.3646  1.2945
10863TIP3   OH254079   0.869   6.653  14.203 -0.0702  0.6826  0.3855
10863TIP3    H154080   0.776   6.674  14.192 -0.2176 -0.2834 -0.2506
10863TIP3    H254081   0.914   6.737  14.192 -0.8519  1.1254  0.5166
10864TIP3   OH254082   6.421   2.970  11.229  0.1594  0.0306 -0.1268
10864TIP3    H154083   6.516   2.985  11.224  0.2581 -0.6763 -0.5085
10864TIP3    H254084   6.403   2.960  11.322  0.5447 -0.3550 -0.0915
10865TIP3   OH254085   2.581   2.565  14.097 -0.3816 -0.1737  0.1107
10865TIP3    H154086   2.605   2.494  14.156  1.1033 -0.4605 -0.7924
10865TIP3    H254087   2.660   2.579  14.045 -0.5660  2.3317  0.4654
10866TIP3   OH254088   4.843   3.817  11.602  0.9769  0.2368 -0.2842
10866TIP3    H154089   4.765   3.849  11.555  0.7953  1.0205  0.5249
10866TIP3    H254090   4.897   3.777  11.534 -0.8645 -1.7698 -0.6229
10867TIP3   OH254091   3.828   1.259   2.472 -0.3039 -0.3423 -0.1736
10867TIP3    H154092   3.795   1.169   2.464 -1.2136 -0.0719  0.4374
10867TIP3    H254093   3.915   1.249   2.511 -0.1805 -0.9892 -0.5951
10868TIP3   OH254094   5.527   0.271   1.560  0.0209  0.1772  0.0795
10868TIP3    H154095   5.506   0.364   1.575 -0.3839 -0.0354  0.8655
10868TIP3    H254096   5.468   0.224   1.619 -0.2188 -0.6050 -0.7832
10869TIP3   OH254097   2.682   6.111  15.552  0.1271  0.0133 -0.9979
10869TIP3    H154098   2.589   6.119  15.571  0.6386  0.1676  1.5440
10869TIP3    H254099   2.698   6.016  15.549  0.1157 -0.0153 -0.2349
10870TIP3   OH254100   0.622   2.106  12.836  0.3600 -0.1016  0.3753
10870TIP3    H154101   0.632   2.195  12.802  0.1555  0.1387  0.9315
10870TIP3    H254102   0.647   2.049  12.764 -2.3626  0.3402 -0.9680
10871TIP3   OH254103   5.548   5.732   0.955  0.3112 -0.2277 -0.7224
10871TIP3    H154104   5.487   5.752   1.027 -1.5047 -0.8811 -2.0452
10871TIP3    H254105   5.564   5.638   0.963  1.1148 -0.0656 -0.4126
10872TIP3   OH254106   5.330   1.402   4.243  0.0644 -0.6364  0.1479
10872TIP3    H154107   5.266   1.373   4.178  1.1264 -1.0012 -0.7518
10872TIP3    H254108   5.413   1.364   4.214  0.6975 -0.1618  1.2923
10873TIP3   OH254109   3.517   0.273   5.928 -0.3816  0.4919 -0.1539
10873TIP3    H154110   3.448   0.339   5.923  0.2143  1.1426  0.1354
10873TIP3    H254111   3.494   0.209   5.860 -1.9750  0.0121  0.7972
10874TIP3   OH254112   3.554   3.841  10.159  0.4512 -0.4787 -0.2481
10874TIP3    H154113   3.518   3.867  10.244 -0.4168  1.5851 -1.2280
10874TIP3    H254114   3.516   3.755  10.142 -2.1887  0.6615 -0.1979
10875TIP3   OH254115   4.001   1.712  12.533 -0.2027 -0.3059  0.5634
10875TIP3    H154116   4.010   1.782  12.597 -0.4711 -0.2340  0.5222
10875TIP3    H254117   4.082   1.716  12.482 -0.0957 -0.2059  0.7389
10876TIP3   OH254118   1.395   4.250  13.346  0.4119  0.0455 -0.0433
10876TIP3    H154119   1.386   4.319  13.412  1.5718 -1.5141  1.8199
10876TIP3    H254120   1.362   4.289  13.265  0.9600  2.7362  0.9771
10877TIP3   OH254121   0.817   0.848  15.015 -0.0622 -0.5180 -0.4739
10877TIP3    H154122   0.816   0.843  15.111 -2.1161 -0.8658 -0.4828
10877TIP3    H254123   0.743   0.905  14.993 -0.4141 -1.4784 -1.8910
10878TIP3   OH254124   5.475   5.659   1.894  0.1617  0.3206 -0.1822
10878TIP3    H154125   5.401   5.617   1.937 -0.7122  1.5148 -0.5085
10878TIP3    H254126   5.511   5.592   1.836 -0.5124 -0.3376  0.1523
10879TIP3   OH254127   0.503   1.364   4.319 -1.1871  1.1312 -0.8139
10879TIP3    H154128   0.435   1.321   4.267 -1.4130 -0.1083  0.4784
10879TIP3    H254129   0.492   1.328   4.407  0.9849  1.1025 -0.5381
10880TIP3   OH254130   4.185   5.093   0.477 -0.4396 -0.1246  0.3521
10880TIP3    H154131   4.180   5.188   0.490 -1.7100  0.1505 -2.0002
10880TIP3    H254132   4.269   5.069   0.517 -0.0168  2.0067  0.8358
10881TIP3   OH254133   3.790   5.438   0.478  0.6896 -0.2901  0.0629
10881TIP3    H154134   3.845   5.416   0.402 -0.2625 -2.3373 -0.0889
10881TIP3    H254135   3.783   5.356   0.527  0.6329  0.8173  1.9536
10882TIP3   OH254136   0.620   6.221  13.616  0.3650  0.0475 -0.2343
10882TIP3    H154137   0.544   6.247  13.668  0.3222  0.4395 -0.4912
10882TIP3    H254138   0.668   6.160  13.672  0.0295  0.0448  0.0512
10883TIP3   OH254139   2.504   4.996   5.714 -0.8008 -0.4351 -0.0204
10883TIP3    H154140   2.594   5.029   5.718  0.0121 -2.7690  1.9700
10883TIP3    H254141   2.464   5.024   5.796 -0.7907 -2.3838  0.6719
10884TIP3   OH254142   5.005   4.810  11.845  0.5082 -0.6095  0.0329
10884TIP3    H154143   4.925   4.829  11.796  2.2274  0.3611 -2.4780
10884TIP3    H254144   4.979   4.817  11.936 -2.1537  0.2281 -0.7387
10885TIP3   OH254145   2.498   3.152  11.756  0.6308 -0.6940 -0.0360
10885TIP3    H154146   2.457   3.180  11.838 -0.1019 -1.1534 -0.2481
10885TIP3    H254147   2.488   3.227  11.698  0.9800 -0.4390  0.2280
10886TIP3   OH254148   6.626   3.499   1.410  0.2241  0.1584 -0.6586
10886TIP3    H154149   6.625   3.590   1.379  3.5787  0.2478 -0.7020
10886TIP3    H254150   6.663   3.450   1.337  0.4901 -0.8910  0.1742
10887TIP3   OH254151   3.581   1.223  16.662 -0.2318 -0.8191 -0.2420
10887TIP3    H154152   3.599   1.317  16.663  1.6498 -1.1744  1.2746
10887TIP3    H254153   3.515   1.211  16.730 -0.9040 -0.5115 -0.8390
10888TIP3   OH254154   3.601   5.211   1.226  0.2661  0.4082  0.2286
10888TIP3    H154155   3.547   5.279   1.185  2.4876  1.9722 -0.1860
10888TIP3    H254156   3.582   5.218   1.319 -1.4510 -0.1560 -0.0598
10889TIP3   OH254157   5.782   2.953   5.151  0.6595 -0.5764 -0.7711
10889TIP3    H154158   5.734   3.023   5.105 -0.9428 -2.3935 -1.9754
10889TIP3    H254159   5.862   2.942   5.100  0.6126 -0.0620 -0.9651
10890TIP3   OH254160   4.740   3.437   1.929 -0.4902 -0.4885  0.3263
10890TIP3    H154161   4.756   3.343   1.917  0.0981 -0.2811 -0.5418
10890TIP3    H254162   4.724   3.470   1.841  1.3969  0.6006  0.3528
10891TIP3   OH254163   6.119   3.082   1.474 -0.2276  0.0408  0.1950
10891TIP3    H154164   6.213   3.091   1.486 -0.3807  1.6628  0.1824
10891TIP3    H254165   6.107   3.083   1.379 -0.2424 -0.3601  0.1917
10892TIP3   OH254166   2.084   1.698  11.177  0.2393  0.1800  0.0437
10892TIP3    H154167   1.996   1.680  11.208  0.8814  0.2457  1.9439
10892TIP3    H254168   2.103   1.787  11.207  0.7490  0.3695 -0.8302
10893TIP3   OH254169   4.474   5.000   5.416  0.5123  0.2693 -0.0082
10893TIP3    H154170   4.440   4.920   5.456 -0.8416  0.7418 -0.2165
10893TIP3    H254171   4.521   5.044   5.488 -2.8368  1.6544  1.4291
10894TIP3   OH254172   2.787   2.576   2.635 -0.2124  0.4868  0.4893
10894TIP3    H154173   2.729   2.510   2.596 -1.9343  2.6674 -0.7950
10894TIP3    H254174   2.796   2.642   2.566  2.7604  0.8489  1.1719
10895TIP3   OH254175   4.135   5.219  11.247  0.2586  0.4759 -0.0610
10895TIP3    H154176   4.081   5.240  11.324  0.3253  0.3666  0.0164
10895TIP3    H254177   4.121   5.293  11.187 -1.8436 -0.6668 -1.0457
10896TIP3   OH254178   1.159   4.029   5.546  0.7451 -0.2311  0.2586
10896TIP3    H154179   1.212   4.108   5.532  2.0910 -0.7337  2.3619
10896TIP3    H254180   1.111   4.047   5.627 -1.7334 -0.1116 -1.1987
10897TIP3   OH254181   5.721   1.100   0.867  0.2603  1.2130 -0.0151
10897TIP3    H154182   5.724   1.167   0.799  0.6982  1.5370  0.3234
10897TIP3    H254183   5.781   1.031   0.837 -0.2815  0.9179 -0.4196
10898TIP3   OH254184   0.655   5.157   4.276  0.2271 -0.1917 -0.5787
10898TIP3    H154185   0.633   5.089   4.213 -0.5664 -1.2104  0.7728
10898TIP3    H254186   0.726   5.119   4.329 -0.6630 -0.2612  0.6040
10899TIP3   OH254187   6.067   6.754   5.249 -0.2927  0.6037 -0.3771
10899TIP3    H154188   6.070   6.818   5.321 -2.3270 -0.6561  0.8779
10899TIP3    H254189   6.154   6.713   5.251 -0.3529  0.4903  1.4875
10900TIP3   OH254190   1.883   1.891  11.813  0.1984 -0.2536  0.5273
10900TIP3    H154191   1.936   1.968  11.790  0.5432 -0.7527 -0.3499
10900TIP3    H254192   1.905   1.826  11.747 -2.5987  0.0132 -0.7249
10901TIP3   OH254193   4.818   0.705  11.948  0.4418  0.2169  0.2149
10901TIP3    H154194   4.870   0.782  11.925  0.6405  0.0883  0.2230
10901TIP3    H254195   4.803   0.713  12.042 -0.0339  0.5431  0.1078
10902TIP3   OH254196   5.431   3.781   2.984  0.4818 -0.5457 -0.1449
10902TIP3    H154197   5.378   3.716   2.937 -1.2252  1.4831 -1.0740
10902TIP3    H254198   5.494   3.812   2.918  0.6105 -0.4858  0.0058
10903TIP3   OH254199   5.084   0.356  13.980 -0.2523 -0.5555  0.2093
10903TIP3    H154200   5.134   0.361  14.061  1.0978  2.6623 -0.7563
10903TIP3    H254201   5.089   0.264  13.954 -0.1998 -1.5153  3.4260
10904TIP3   OH254202   6.240   1.210   4.778 -0.5948 -1.0693 -0.2887
10904TIP3    H154203   6.266   1.301   4.791 -0.2144 -1.3190  0.8454
10904TIP3    H254204   6.175   1.213   4.709 -0.4726  0.0493 -0.3709
10905TIP3   OH254205   3.100   2.610   2.405  0.3426  0.0615  0.0126
10905TIP3    H154206   3.080   2.703   2.414 -1.3270 -0.2042 -0.7916
10905TIP3    H254207   3.196   2.606   2.398  0.3774  1.7547 -0.5489
10906TIP3   OH254208   3.521   4.359  11.436 -0.3990  0.1580  0.1151
10906TIP3    H154209   3.465   4.402  11.501 -1.7920  2.1812 -2.3249
10906TIP3    H254210   3.603   4.409  11.439 -0.4930  0.3052  0.2885
10907TIP3   OH254211   5.076   0.417   1.225  0.1861  0.0451 -1.2690
10907TIP3    H154212   5.029   0.422   1.308  2.1077 -2.5856  0.0288
10907TIP3    H254213   5.020   0.364   1.169  0.5735 -1.2786 -0.4258
10908TIP3   OH254214   1.272   6.153   0.012 -0.4508 -0.2685  0.3062
10908TIP3    H154215   1.274   6.239   0.054  0.4955 -0.2665  0.2698
10908TIP3    H254216   1.364   6.130   0.001 -0.6787 -1.8704  1.5109
10909TIP3   OH254217   2.286   0.206  11.678 -0.4769 -0.1202 -0.2761
10909TIP3    H154218   2.253   0.265  11.745 -1.2739  0.3345 -1.0647
10909TIP3    H254219   2.265   0.249  11.595 -0.1805 -1.0354 -0.8365
10910TIP3   OH254220   5.768   1.183  10.858  0.1310  0.3633  0.2613
10910TIP3    H154221   5.767   1.182  10.954  0.2941  1.9123  0.3014
10910TIP3    H254222   5.723   1.102  10.832 -1.0312  0.5419  1.6458
10911TIP3   OH254223   6.208   3.165  11.559  0.3899  0.1422 -0.0125
10911TIP3    H154224   6.246   3.221  11.491  0.5864 -0.7228 -0.6396
10911TIP3    H254225   6.175   3.225  11.625 -0.0430  1.0070 -1.0101
10912TIP3   OH254226   2.364   0.851  14.894  0.2884 -0.6931 -0.1564
10912TIP3    H154227   2.440   0.887  14.940 -0.4793 -0.0979  0.6656
10912TIP3    H254228   2.393   0.840  14.804  1.1522  0.1397  0.0142
10913TIP3   OH254229   1.368   5.204  15.848 -0.2435 -0.0020  0.0908
10913TIP3    H154230   1.454   5.200  15.891 -0.2479 -0.9177  0.0330
10913TIP3    H254231   1.322   5.275  15.892 -0.2373 -0.8993  1.5659
10914TIP3   OH254232   5.120   0.981   3.314 -0.8437 -0.1217  0.0804
10914TIP3    H154233   5.066   1.027   3.378 -1.6701  0.0654 -0.7396
10914TIP3    H254234   5.073   0.991   3.231  0.7592  0.5534 -0.7671
10915TIP3   OH254235   0.836   0.528  16.643 -0.2858 -0.0719 -0.1654
10915TIP3    H154236   0.820   0.491  16.729  1.5564 -0.0053  0.2281
10915TIP3    H254237   0.862   0.453  16.589 -0.8408 -0.0199 -0.5134
10916TIP3   OH254238   5.681   5.462  12.969 -0.4031 -0.4957 -0.1885
10916TIP3    H154239   5.702   5.544  12.923 -2.2829  1.0932  1.6963
10916TIP3    H254240   5.618   5.419  12.912  0.2124 -0.3997 -0.9530
10917TIP3   OH254241   3.652   4.353  13.088 -0.2385 -0.4765 -0.1968
10917TIP3    H154242   3.580   4.405  13.124 -0.2423 -1.1620  0.8056
10917TIP3    H254243   3.613   4.268  13.070  0.1492 -0.6259 -0.3318
10918TIP3   OH254244   4.039   1.009  11.216 -0.1281  0.3360 -0.3322
10918TIP3    H154245   4.076   1.097  11.214 -2.0856  1.2784  1.8346
10918TIP3    H254246   4.034   0.988  11.309 -2.3823 -0.8503 -0.6851
10919TIP3   OH254247   3.911   1.716   2.361 -0.1650  0.1767  0.1999
10919TIP3    H154248   3.958   1.760   2.431  1.5594 -1.7319  0.2773
10919TIP3    H254249   3.969   1.725   2.285  0.0743 -1.6666  0.1513
10920TIP3   OH254250   3.585   2.330  12.052 -0.3055  0.7368  0.5209
10920TIP3    H154251   3.579   2.341  12.147  0.4821  1.8384  0.4573
10920TIP3    H254252   3.618   2.414  12.021  0.5640 -0.0134 -0.6152
10921TIP3   OH254253   3.803   4.414   5.183  0.3788 -0.3008 -0.1371
10921TIP3    H154254   3.875   4.438   5.242  1.1098 -0.1947 -1.0545
10921TIP3    H254255   3.744   4.490   5.185 -0.3646 -0.9245  1.6169
10922TIP3   OH254256   2.614   4.148   5.176 -0.3905 -0.1331 -0.4852
10922TIP3    H154257   2.639   4.240   5.167  0.4172 -0.2627  0.3567
10922TIP3    H254258   2.643   4.123   5.264  1.4048 -1.7987 -1.4882
10923TIP3   OH254259   6.788   0.529   2.882 -0.1715 -0.5054 -0.2857
10923TIP3    H154260   6.818   0.537   2.973 -1.3147 -1.6428  0.2032
10923TIP3    H254261   6.694   0.544   2.886  0.2267  2.9049 -1.7911
10924TIP3   OH254262   1.972   6.492  16.385 -0.8139  0.2273 -0.1812
10924TIP3    H154263   2.041   6.451  16.438 -0.3544 -0.8135 -1.5354
10924TIP3    H254264   1.891   6.451  16.415 -0.4651 -0.9544 -0.8223
10925TIP3   OH254265   3.379   2.734  12.854  0.1602 -0.0097  0.3414
10925TIP3    H154266   3.457   2.783  12.880  0.4297 -0.9702  1.4433
10925TIP3    H254267   3.321   2.798  12.814  1.0321  0.9440  0.5986
10926TIP3   OH254268   5.706   4.549  16.130  0.3560 -0.0885 -0.3549
10926TIP3    H154269   5.710   4.483  16.199  1.0545  0.4013  0.0802
10926TIP3    H254270   5.647   4.616  16.164  1.1726  0.4446  0.0311
10927TIP3   OH254271   6.736   0.211   0.971  0.5600 -0.2021 -0.4160
10927TIP3    H154272   6.829   0.220   0.989  0.4067  2.8009 -0.8874
10927TIP3    H254273   6.693   0.229   1.054  0.3314  0.4325 -0.6695
10928TIP3   OH254274   0.070   4.587   4.293 -0.5176  0.4005 -0.3878
10928TIP3    H154275   0.055   4.670   4.337  0.4498 -0.2468  1.2145
10928TIP3    H254276   0.022   4.523   4.347 -0.9548 -0.1326 -1.3972
10929TIP3   OH254277   4.601   0.751  12.259 -0.1771  0.2191  0.4967
10929TIP3    H154278   4.683   0.758  12.308 -0.6602  1.6637  1.1485
10929TIP3    H254279   4.590   0.658  12.242  1.1601 -0.0636  1.1694
10930TIP3   OH254280   1.198   3.716  15.456 -0.1006 -0.5252 -0.3322
10930TIP3    H154281   1.277   3.765  15.477 -1.2396  1.5471 -0.7238
10930TIP3    H254282   1.215   3.677  15.370 -0.0608  1.1647 -1.1104
10931TIP3   OH254283   6.144   6.517   3.208 -0.1502  1.0812  0.4091
10931TIP3    H154284   6.103   6.585   3.154 -1.2076  0.1403  0.0162
10931TIP3    H254285   6.200   6.469   3.148 -2.3521 -0.8179 -0.1937
10932TIP3   OH254286   2.082   3.950   3.803  0.0167  0.2891  0.0114
10932TIP3    H154287   2.001   3.920   3.761  0.6416 -1.7638  0.2042
10932TIP3    H254288   2.078   3.913   3.891  0.7813  0.8918  0.3076
10933TIP3   OH254289   0.771   3.314  15.056  0.3398  0.1534 -0.5209
10933TIP3    H154290   0.804   3.309  15.146  2.0238  0.0795 -1.1239
10933TIP3    H254291   0.826   3.252  15.007  0.4225  1.2816 -1.8773
10934TIP3   OH254292   1.606   0.243   4.726  0.3615  0.1876  0.1923
10934TIP3    H154293   1.543   0.309   4.753  1.4954  1.6129 -0.5576
10934TIP3    H254294   1.562   0.195   4.657 -0.0718  0.8710 -0.0149
10935TIP3   OH254295   6.748   2.899   5.269 -0.0842  0.4423  0.6087
10935TIP3    H154296   6.828   2.854   5.295  0.0972  0.6394  0.3928
10935TIP3    H254297   6.684   2.875   5.336  0.1619  0.3023  0.7925
10936TIP3   OH254298   0.230   2.735   5.862 -0.2693  0.6102  0.2497
10936TIP3    H154299   0.289   2.707   5.932 -0.8750 -0.2477  0.4120
10936TIP3    H254300   0.165   2.666   5.855 -0.6504  1.0471 -0.6599
10937TIP3   OH254301   2.639   0.438   5.803 -0.3315 -0.1140  0.4643
10937TIP3    H154302   2.698   0.364   5.816 -0.2113 -0.2624 -0.8453
10937TIP3    H254303   2.695   0.507   5.768 -1.0242 -0.4500 -1.3695
10938TIP3   OH254304   4.979   4.366  13.508 -0.3995 -0.5042  0.1500
10938TIP3    H154305   5.065   4.372  13.467  0.7487 -0.8095  2.4009
10938TIP3    H254306   4.949   4.457  13.514  0.0612 -0.3347 -0.0687
10939TIP3   OH254307   0.682   2.823   2.971 -0.3131  0.7337  0.2852
10939TIP3    H154308   0.745   2.848   2.904 -0.1939 -2.5986 -0.9197
10939TIP3    H254309   0.597   2.852   2.936  0.0027  0.8959 -0.3441
10940TIP3   OH254310   2.969   4.103   2.430 -0.2368 -0.8089  0.1444
10940TIP3    H154311   2.951   4.010   2.423  1.0424 -0.8669 -3.3698
10940TIP3    H254312   3.042   4.118   2.370 -0.4241  2.4477  0.6257
10941TIP3   OH254313   1.672   0.644  15.255 -0.5114 -0.5827  0.0105
10941TIP3    H154314   1.591   0.689  15.278 -0.9341 -1.5615  0.4297
10941TIP3    H254315   1.716   0.629  15.338 -0.3764 -0.9588 -0.1273
10942TIP3   OH254316   2.374   6.702   1.792 -0.5234  0.2797 -0.1577
10942TIP3    H154317   2.314   6.635   1.822 -0.6590 -0.0960 -1.2411
10942TIP3    H254318   2.394   6.753   1.870 -1.6444 -0.0576  0.3589
10943TIP3   OH254319   5.972   3.538  17.261 -0.1171 -0.0005  0.1999
10943TIP3    H154320   5.905   3.491  17.211  0.2398  0.8185 -1.0768
10943TIP3    H254321   5.944   3.630  17.258  1.2745  0.4081 -0.6884
10944TIP3   OH254322   5.878   2.882   3.697  0.1831 -0.0066 -0.0556
10944TIP3    H154323   5.799   2.872   3.750 -0.3305 -1.3680 -1.0360
10944TIP3    H254324   5.898   2.976   3.701 -0.7559  0.1569  1.2144
10945TIP3   OH254325   1.638   0.527   0.905  0.1571 -0.3535 -0.0086
10945TIP3    H154326   1.609   0.611   0.870  0.3626 -0.2100  0.1680
10945TIP3    H254327   1.649   0.543   0.999  0.0215 -0.6247  0.0553
10946TIP3   OH254328   0.971   1.857  12.963 -0.2942  0.4015 -0.1537
10946TIP3    H154329   0.976   1.844  13.057  0.4928  0.6183 -0.1631
10946TIP3    H254330   0.980   1.770  12.926  1.1712  0.5207 -0.0896
10947TIP3   OH254331   0.465   1.063   5.026  0.1925  0.3099  0.4734
10947TIP3    H154332   0.477   1.104   4.941 -0.8316  1.3150  0.8056
10947TIP3    H254333   0.507   0.977   5.018 -0.3466  0.1927 -1.2113
10948TIP3   OH254334   1.788   4.047   2.164 -0.0625 -0.0211  0.0382
10948TIP3    H154335   1.710   4.063   2.217 -0.7781 -1.4021 -0.5620
10948TIP3    H254336   1.766   3.969   2.112  1.3166  0.2019 -0.9148
10949TIP3   OH254337   2.289   3.251  12.199  0.0465  0.0477 -0.2375
10949TIP3    H154338   2.203   3.282  12.226  0.4434  0.8285  0.1490
10949TIP3    H254339   2.318   3.195  12.271 -0.7055 -1.3001 -0.9733
10950TIP3   OH254340   2.997   4.433   3.690 -0.2714  0.5949  0.9031
10950TIP3    H154341   3.009   4.462   3.599 -0.8558  0.3905  0.7565
10950TIP3    H254342   2.986   4.514   3.739 -1.1562  0.6630  0.6053
10951TIP3   OH254343   2.458   5.336  14.283  0.1778  0.2502 -0.1301
10951TIP3    H154344   2.377   5.382  14.307 -0.4323 -0.2437 -1.1931
10951TIP3    H254345   2.453   5.253  14.330 -0.1064  0.0725 -0.4725
10952TIP3   OH254346   4.733   5.621  11.213  0.1548 -0.5532 -0.5878
10952TIP3    H154347   4.693   5.596  11.296  0.9415  1.1615  0.3463
10952TIP3    H254348   4.660   5.647  11.157 -0.2586 -0.1778  0.1268
10953TIP3   OH254349   0.168   2.706  12.847  0.4000 -0.0619 -0.0461
10953TIP3    H154350   0.201   2.656  12.922  0.8423  0.7940  0.3385
10953TIP3    H254351   0.207   2.663  12.771 -0.9175 -1.6172  0.1144
10954TIP3   OH254352   6.464   4.232  12.450  0.0217  0.3095 -0.7810
10954TIP3    H154353   6.502   4.156  12.407  0.2049 -0.7570  1.2053
10954TIP3    H254354   6.514   4.306  12.416  0.5010 -0.5479 -1.9847
10955TIP3   OH254355   4.296   0.988  11.487  0.4780  0.2819 -0.3953
10955TIP3    H154356   4.311   1.018  11.577 -0.0019  0.9409 -0.5270
10955TIP3    H254357   4.327   0.897  11.487 -0.3132 -0.0060  0.6645
10956TIP3   OH254358   0.207   2.701  13.261  0.0296 -0.3401 -0.0486
10956TIP3    H154359   0.194   2.609  13.239  1.1132 -0.3325 -0.7338
10956TIP3    H254360   0.141   2.747  13.210 -0.0682 -0.6815 -0.2349
10957TIP3   OH254361   3.639   1.859   2.952  0.1748  0.4569 -0.6155
10957TIP3    H154362   3.679   1.940   2.986  0.8842 -0.9326  2.0641
10957TIP3    H254363   3.690   1.839   2.873  0.3197  2.3392 -1.0316
10958TIP3   OH254364   0.067   3.603  16.283 -0.5024  0.1249  0.6215
10958TIP3    H154365   0.155   3.575  16.310 -0.4562  0.3614  0.7161
10958TIP3    H254366   0.059   3.692  16.316 -0.8513  0.0371  0.7711
10959TIP3   OH254367   3.969   0.388   1.596 -0.5646  0.4487  0.1903
10959TIP3    H154368   4.035   0.324   1.570 -1.0210  0.0647 -0.0362
10959TIP3    H254369   4.010   0.438   1.666  1.0500  2.1276 -1.8600
10960TIP3   OH254370   4.218   6.800   2.369  0.3797 -0.5482 -0.3168
10960TIP3    H154371   4.272   6.728   2.401 -1.1118 -1.1434  0.8963
10960TIP3    H254372   4.128   6.773   2.386 -0.1922  1.9156  0.9578
10961TIP3   OH254373   0.307   0.118  10.522  0.3341  0.5015 -1.0265
10961TIP3    H154374   0.303   0.213  10.516 -2.2495  0.4504 -0.7503
10961TIP3    H254375   0.337   0.101  10.611 -0.1011  1.0631 -0.7692
10962TIP3   OH254376   4.048   5.346  16.127 -0.3414  0.2325  0.5042
10962TIP3    H154377   4.084   5.301  16.203 -0.1012  1.1194  0.9237
10962TIP3    H254378   4.088   5.433  16.130  0.4238 -0.0490 -1.1868
10963TIP3   OH254379   4.099   1.880   1.705 -0.3700 -0.3119  0.5329
10963TIP3    H154380   4.156   1.827   1.761  0.8523  0.3472 -0.0668
10963TIP3    H254381   4.063   1.818   1.642  0.9508 -0.4674 -0.0891
10964TIP3   OH254382   0.864   6.750   6.068  0.4672  0.0556  0.0765
10964TIP3    H154383   0.828   6.677   6.018  1.1569 -1.4878  1.7685
10964TIP3    H254384   0.942   6.777   6.019 -0.9887  1.0806 -1.7016
10965TIP3   OH254385   4.133   0.345  17.202 -0.2047  0.3813  0.4011
10965TIP3    H154386   4.143   0.351  17.297 -0.5518  0.7624  0.4140
10965TIP3    H254387   4.220   0.321  17.170  0.0530  0.8216  0.7654
10966TIP3   OH254388   4.835   1.101  16.674  0.3287 -0.1819 -1.0545
10966TIP3    H154389   4.876   1.149  16.746 -2.6470 -1.0752  1.3276
10966TIP3    H254390   4.749   1.141  16.663 -1.4329 -3.6153 -0.3436
10967TIP3   OH254391   1.865   2.167   1.996  0.3041 -0.5878  0.4538
10967TIP3    H154392   1.959   2.188   1.994  0.4293 -1.1725  0.1155
10967TIP3    H254393   1.825   2.242   2.040  0.6420  0.8067 -1.4938
10968TIP3   OH254394   1.898   3.197   6.652 -0.3273 -0.8179 -0.1672
10968TIP3    H154395   1.883   3.291   6.658  3.0431 -0.2525  0.4442
10968TIP3    H254396   1.891   3.177   6.559  0.2844  0.2976 -0.4573
10969TIP3   OH254397   6.296   1.349   0.944  0.5347 -0.5984  0.3996
10969TIP3    H154398   6.366   1.321   0.884  0.6897  0.9932 -0.1801
10969TIP3    H254399   6.303   1.444   0.948 -0.3039 -0.5777  1.9604
10970TIP3   OH254400   0.707   1.115   0.289  0.4285 -0.1878  0.2519
10970TIP3    H154401   0.748   1.039   0.332 -1.9481  0.0325  3.0373
10970TIP3    H254402   0.772   1.185   0.297  0.1934 -0.2392  3.3068
10971TIP3   OH254403   3.836   6.342  14.008  0.3680  0.3115  0.0714
10971TIP3    H154404   3.783   6.326  14.086  0.9333 -1.0637  0.1769
10971TIP3    H254405   3.908   6.397  14.039 -0.2967  1.1419  0.1746
10972TIP3   OH254406   2.639   5.165  11.420  0.4078 -0.1892  0.0927
10972TIP3    H154407   2.712   5.213  11.381  0.3059 -0.6472 -0.6724
10972TIP3    H254408   2.680   5.105  11.483  0.6515 -0.1336 -0.0152
10973TIP3   OH254409   6.314   6.403   1.043 -0.0848 -0.4556  0.3887
10973TIP3    H154410   6.304   6.314   1.077  0.1496 -0.6360 -0.0144
10973TIP3    H254411   6.268   6.402   0.959  0.7515 -0.4641 -0.0713
10974TIP3   OH254412   3.299   5.193   6.305  0.0436  0.8383  0.3010
10974TIP3    H154413   3.365   5.213   6.371 -1.1779  0.2308  1.7233
10974TIP3    H254414   3.345   5.138   6.241  0.3414 -1.4699  2.4478
10975TIP3   OH254415   3.265   4.973   2.147 -0.2537  0.0917  0.0387
10975TIP3    H154416   3.186   4.920   2.138 -1.1368  1.8674 -3.4577
10975TIP3    H254417   3.237   5.051   2.193 -0.7429  1.0342 -1.8122
10976TIP3   OH254418   2.530   4.282   5.540 -0.1478 -0.5732  0.9645
10976TIP3    H154419   2.518   4.278   5.635 -1.0122 -0.4211  0.8659
10976TIP3    H254420   2.441   4.287   5.505  0.1729 -0.5353  0.1512
10977TIP3   OH254421   5.761   6.444  16.154  0.4930  0.0801 -0.0511
10977TIP3    H154422   5.848   6.409  16.174  0.9930  1.4738  0.2823
10977TIP3    H254423   5.776   6.535  16.132 -0.7009 -0.0972 -1.6963
10978TIP3   OH254424   2.913   1.369  13.583  0.0967  0.6106 -0.0216
10978TIP3    H154425   2.926   1.407  13.496  0.1448 -0.4442 -0.4804
10978TIP3    H254426   2.995   1.386  13.630  0.0299  1.2732 -0.1395
10979TIP3   OH254427   4.494   3.640   3.335  1.1927  0.0159  0.0111
10979TIP3    H154428   4.493   3.631   3.431 -0.0211  0.7513  0.0719
10979TIP3    H254429   4.515   3.552   3.304 -0.5213 -0.7368  0.8950
10980TIP3   OH254430   2.616   3.150  12.727 -0.7675  0.3879  0.4456
10980TIP3    H154431   2.640   3.205  12.801 -0.8168 -1.3313  1.7557
10980TIP3    H254432   2.528   3.119  12.747 -0.1328 -1.4498  0.5122
10981TIP3   OH254433   3.049   6.430  15.206  0.1333 -0.0384  0.0058
10981TIP3    H154434   3.011   6.493  15.266  1.1073 -0.4643  1.0941
10981TIP3    H254435   3.019   6.458  15.120 -2.4971 -0.2773  0.7963
10982TIP3   OH254436   5.929   5.798   0.468 -0.1398 -0.3141 -0.1758
10982TIP3    H154437   5.936   5.758   0.381  1.0437 -0.8051  0.1274
10982TIP3    H254438   5.896   5.728   0.524 -1.5256  0.1898 -0.3481
10983TIP3   OH254439   4.383   5.088  13.944 -0.2213 -0.0718  0.2458
10983TIP3    H154440   4.402   4.998  13.918  0.8656  0.6536 -1.6459
10983TIP3    H254441   4.362   5.132  13.861  0.1684  1.6175  1.0324
10984TIP3   OH254442   5.663   4.001   5.604 -0.1353  0.1988 -0.1316
10984TIP3    H154443   5.754   4.016   5.579 -0.0091  0.6657  0.6074
10984TIP3    H254444   5.654   3.905   5.604 -0.2369  0.1869 -2.2769
10985TIP3   OH254445   2.816   0.664  12.331 -0.3667  0.3515 -0.0062
10985TIP3    H154446   2.778   0.690  12.247 -0.4666 -1.2174 -0.4587
10985TIP3    H254447   2.910   0.660  12.314 -0.4109 -0.2436 -0.1334
10986TIP3   OH254448   2.253   5.861   1.879  0.0856 -0.1875 -0.1346
10986TIP3    H154449   2.165   5.831   1.901  0.1517 -0.1415  0.1954
10986TIP3    H254450   2.297   5.783   1.846 -0.4364  0.0374 -1.4105
10987TIP3   OH254451   1.041   5.238  14.204  0.7142  0.4877 -0.4336
10987TIP3    H154452   1.012   5.148  14.217 -0.1071  0.9886  1.3546
10987TIP3    H254453   0.967   5.291  14.232  0.8754  1.7210 -2.2792
10988TIP3   OH254454   3.931   5.891  11.020  0.0032 -0.4170 -0.3088
10988TIP3    H154455   3.955   5.865  10.931  0.0904 -2.2835  0.2303
10988TIP3    H254456   3.999   5.853  11.075 -0.6481 -0.2088  0.6511
10989TIP3   OH254457   4.014   4.303   4.224  0.2404 -0.2496  0.0116
10989TIP3    H154458   3.999   4.271   4.313 -0.9210 -2.0555 -0.7977
10989TIP3    H254459   4.105   4.333   4.225  0.6051 -1.3183  1.4975
10990TIP3   OH254460   3.509   1.364  12.234  0.1831  0.0476 -0.1014
10990TIP3    H154461   3.549   1.450  12.231  0.3705  0.0140  1.1583
10990TIP3    H254462   3.545   1.323  12.312 -0.9550 -0.6450  0.0805
10991TIP3   OH254463   2.312   3.821  13.952 -0.1468 -0.9920 -0.3510
10991TIP3    H154464   2.284   3.795  13.864  0.3932 -1.1217 -0.4829
10991TIP3    H254465   2.232   3.814  14.005 -0.4764 -0.9021 -0.8299
10992TIP3   OH254466   4.268   2.696  17.220 -0.5309 -0.8286  0.0225
10992TIP3    H154467   4.256   2.646  17.300 -1.1276 -1.6273 -0.5573
10992TIP3    H254468   4.357   2.678  17.192  0.7314  1.8368  2.1113
10993TIP3   OH254469   5.681   1.391  13.643 -0.3183 -0.6707  0.5476
10993TIP3    H154470   5.771   1.422  13.636 -0.4918 -0.0793  0.8901
10993TIP3    H254471   5.653   1.417  13.731 -2.2509  3.0291 -1.0557
10994TIP3   OH254472   2.299   1.397   5.090  0.3822  0.5283 -0.5425
10994TIP3    H154473   2.258   1.389   5.177 -0.8759  1.3165 -1.0497
10994TIP3    H254474   2.226   1.417   5.031  1.0910 -0.9118 -1.9380
10995TIP3   OH254475   5.408   3.566  13.385  0.2118 -0.1348  0.4532
10995TIP3    H154476   5.462   3.631  13.430  0.2587 -0.0371  0.2591
10995TIP3    H254477   5.441   3.482  13.416  1.9100 -0.1412 -1.2613
10996TIP3   OH254478   2.922   4.889  16.330  0.4915  0.5344 -0.0813
10996TIP3    H154479   2.830   4.863  16.334  1.0730 -1.6911 -0.5943
10996TIP3    H254480   2.927   4.966  16.388 -1.2899 -0.5364  1.5707
10997TIP3   OH254481   3.833   4.463  14.449  0.0434  0.6759 -0.1275
10997TIP3    H154482   3.762   4.508  14.404 -0.7473 -0.3920  0.0290
10997TIP3    H254483   3.836   4.376  14.409 -0.3811 -0.1477  1.5540
10998TIP3   OH254484   1.482   5.866  13.112 -0.1532  0.0747 -0.4846
10998TIP3    H154485   1.410   5.812  13.145  0.0486  0.6791  0.9918
10998TIP3    H254486   1.532   5.890  13.191  0.5909  1.1949 -1.2807
10999TIP3   OH254487   2.446   2.119  12.315 -0.3807  0.4635 -0.1463
10999TIP3    H154488   2.448   2.024  12.302 -0.3099  0.4573 -0.0980
10999TIP3    H254489   2.535   2.147  12.293 -1.0277  0.8370 -2.4151
11000TIP3   OH254490   0.249   0.880  11.512  0.1175  0.0519 -0.2055
11000TIP3    H154491   0.279   0.971  11.508  1.7894 -0.5295 -1.5209
11000TIP3    H254492   0.287   0.839  11.434 -1.3592 -1.5632 -0.1128
11001TIP3   OH254493   5.833   0.916  12.094 -0.0450 -0.0799  0.3173
11001TIP3    H154494   5.787   0.862  12.158 -1.1160  1.5493  0.9420
11001TIP3    H254495   5.778   0.911  12.015 -0.5372  0.6646  0.6046
11002TIP3   OH254496   6.388   5.073  16.823  0.1963  0.8624 -0.1397
11002TIP3    H154497   6.293   5.061  16.819  0.3185  0.0853 -0.6360
11002TIP3    H254498   6.418   5.062  16.733  0.9261 -0.3101  0.2428
11003TIP3   OH254499   6.622   1.040  16.570 -0.2196  0.3406  0.7260
11003TIP3    H154500   6.711   1.077  16.572  0.3752 -0.9987 -0.0206
11003TIP3    H254501   6.564   1.116  16.581  0.9665  1.4705 -0.6013
11004TIP3   OH254502   4.948   5.289   5.492  0.5231 -0.1441 -0.2036
11004TIP3    H154503   5.000   5.370   5.495  0.4532 -0.1026 -0.1237
11004TIP3    H254504   4.857   5.319   5.497  0.5268 -0.2960  1.1087
11005TIP3   OH254505   5.673   3.960  15.884  0.1673  0.0771 -0.0698
11005TIP3    H154506   5.748   3.984  15.830 -0.4364 -0.3593 -1.1138
11005TIP3    H254507   5.605   4.023  15.861 -0.0437 -0.0127  0.2969
11006TIP3   OH254508   6.468   3.061   0.243 -0.1755 -0.3372  0.4976
11006TIP3    H154509   6.462   2.981   0.296  2.1410 -2.8442 -2.7855
11006TIP3    H254510   6.386   3.064   0.194 -1.4001  0.8249  2.5285
11007TIP3   OH254511   1.524   1.847   3.684  0.2117 -0.1514 -0.0778
11007TIP3    H154512   1.553   1.781   3.747  0.9275 -0.2083 -0.4645
11007TIP3    H254513   1.565   1.928   3.714  0.8902 -0.2586 -0.7080
11008TIP3   OH254514   2.220   0.593   0.639  0.9114  0.1069 -1.2462
11008TIP3    H154515   2.250   0.504   0.621 -2.7617 -1.1953 -1.2695
11008TIP3    H254516   2.160   0.614   0.568 -1.1486  1.1397  0.7357
11009TIP3   OH254517   2.968   1.631   0.794  0.5427 -0.2047 -0.1345
11009TIP3    H154518   2.889   1.651   0.743 -0.2920 -1.8176  0.4915
11009TIP3    H254519   2.954   1.673   0.878 -0.0281 -1.1786  0.2628
11010TIP3   OH254520   3.013   2.846  13.643 -0.0227 -1.0187 -0.4158
11010TIP3    H154521   3.007   2.773  13.705  0.2081  0.4210  1.3249
11010TIP3    H254522   3.081   2.902  13.679  0.4736 -0.4026 -2.2561
11011TIP3   OH254523   0.143   6.071  13.361  0.1071  0.0748  0.3230
11011TIP3    H154524   0.209   6.001  13.366 -0.4650 -0.4795  0.1018
11011TIP3    H254525   0.166   6.120  13.282  0.6319  0.2605  0.5899
11012TIP3   OH254526   3.235   5.964   5.124  0.1917  0.8563 -0.1925
11012TIP3    H154527   3.272   5.881   5.093 -1.3105  0.6255 -1.4457
11012TIP3    H254528   3.185   5.939   5.202  0.5095  0.7423 -0.0232
11013TIP3   OH254529   6.179   4.090  14.461  0.5585  0.2527  0.3020
11013TIP3    H154530   6.103   4.129  14.506  0.4967  0.5141 -0.0240
11013TIP3    H254531   6.192   4.146  14.384 -0.4860 -1.2551 -1.0083
11014TIP3   OH254532   3.292   0.527  13.036  0.0365 -0.0857 -0.2089
11014TIP3    H154533   3.212   0.577  13.050  0.1354  0.0222 -0.0329
11014TIP3    H254534   3.280   0.448  13.089  0.9681  0.9152  1.5486
11015TIP3   OH254535   1.040   6.311   0.691  0.3072  0.1823  0.1123
11015TIP3    H154536   1.060   6.257   0.768  0.2623 -0.0334 -0.0264
11015TIP3    H254537   0.944   6.319   0.693  0.3549  0.7229  0.4453
11016TIP3   OH254538   0.294   5.971   5.209  0.5551 -0.4083 -0.1032
11016TIP3    H154539   0.357   5.921   5.158 -0.4760 -1.7917 -0.0550
11016TIP3    H254540   0.310   5.944   5.300  0.6910  0.1418  0.0392
11017TIP3   OH254541   4.505   3.419  10.384  0.8014 -0.0495  0.1304
11017TIP3    H154542   4.428   3.362  10.384  1.7418 -1.3568 -0.3435
11017TIP3    H254543   4.500   3.466  10.302 -0.4166  1.1810  0.8858
11018TIP3   OH254544   3.409   2.981   2.264 -0.9142  0.0883 -0.5523
11018TIP3    H154545   3.364   3.060   2.295 -0.1406  0.3480 -0.0715
11018TIP3    H254546   3.470   2.959   2.335  0.8739  0.6738 -1.8790
11019TIP3   OH254547   3.135   1.087   6.112 -0.0441  0.1207  0.2148
11019TIP3    H154548   3.178   1.135   6.182 -0.1881  1.9391 -0.9026
11019TIP3    H254549   3.069   1.147   6.078 -1.4605 -1.5288 -0.0673
11020TIP3   OH254550   1.416   4.083   1.464  0.1355  0.0024 -0.2349
11020TIP3    H154551   1.378   4.103   1.550 -1.1862 -1.6278 -0.4049
11020TIP3    H254552   1.346   4.102   1.402  1.0693  1.1229 -0.9633
11021TIP3   OH254553   4.644   1.452   5.347  0.6254  0.4585  0.4036
11021TIP3    H154554   4.586   1.442   5.423  0.5569 -0.7607  0.2047
11021TIP3    H254555   4.676   1.363   5.330  2.5069  1.1011  0.4677
11022TIP3   OH254556   2.257   2.732   2.370  0.1141 -0.0062 -0.2007
11022TIP3    H154557   2.311   2.783   2.430  0.4758  1.0915 -1.4241
11022TIP3    H254558   2.171   2.731   2.410  0.7948 -0.8755  1.2563
11023TIP3   OH254559   5.397   0.909   5.173  0.5253 -0.1822  0.2291
11023TIP3    H154560   5.410   0.908   5.078 -0.2163  0.1763  0.1221
11023TIP3    H254561   5.467   0.854   5.207  1.1918  0.2115 -0.4825
11024TIP3   OH254562   1.234   4.337   5.030  0.7440  0.5347  0.4742
11024TIP3    H154563   1.174   4.337   5.104  0.1068  2.8059  0.0070
11024TIP3    H254564   1.319   4.362   5.067  0.1019  3.2395  0.2716
11025TIP3   OH254565   1.026   1.767  14.768 -0.2680  0.3987 -0.0312
11025TIP3    H154566   1.103   1.730  14.724  1.3091  2.1679  1.1655
11025TIP3    H254567   1.018   1.716  14.848 -1.2457 -0.7517 -0.8475
11026TIP3   OH254568   6.303   6.667   3.464  0.1051 -0.2081  0.0343
11026TIP3    H154569   6.286   6.686   3.556 -0.0590  1.2628 -0.2801
11026TIP3    H254570   6.231   6.609   3.438 -0.0967 -0.2662  0.7154
11027TIP3   OH254571   4.619   6.551   6.226 -0.0739  0.2232 -0.3416
11027TIP3    H154572   4.565   6.628   6.210 -0.1159  0.3615  0.4580
11027TIP3    H254573   4.686   6.581   6.287  0.7877 -0.0030 -1.1624
11028TIP3   OH254574   3.380   3.538   3.548  0.1156  0.8872 -0.4634
11028TIP3    H154575   3.467   3.539   3.588  0.2308 -0.2672 -0.6560
11028TIP3    H254576   3.330   3.604   3.596  0.5322  0.1813  0.9688
11029TIP3   OH254577   4.943   5.312  12.956 -0.3918 -0.6451  0.2019
11029TIP3    H154578   4.853   5.281  12.951 -0.2102 -0.8467 -2.1538
11029TIP3    H254579   4.936   5.407  12.957 -0.6517 -0.6601  1.2323
11030TIP3   OH254580   3.861   0.300   5.094  0.1476  0.0491  0.3427
11030TIP3    H154581   3.833   0.224   5.043  0.1097  0.0984  0.2900
11030TIP3    H254582   3.955   0.308   5.076  0.1271  0.0893  0.2505
11031TIP3   OH254583   4.741   4.327   2.072 -0.3125 -0.1988 -0.0904
11031TIP3    H154584   4.830   4.345   2.101  0.3006  0.1476 -2.0580
11031TIP3    H254585   4.700   4.282   2.145  0.7553  1.6776  1.7304
11032TIP3   OH254586   3.185   6.571  11.489 -0.0635 -0.3665  0.1201
11032TIP3    H154587   3.270   6.527  11.495 -0.1384 -0.4011  0.9723
11032TIP3    H254588   3.127   6.506  11.448  0.0045 -0.8028  0.7071
11033TIP3   OH254589   0.572   0.797   5.931  0.4124  0.0460 -0.4126
11033TIP3    H154590   0.538   0.831   6.014  2.4462 -2.0697  1.3514
11033TIP3    H254591   0.667   0.805   5.939  0.7774 -2.7666 -1.3532
11034TIP3   OH254592   0.195   1.216   4.710  0.1622  0.1156 -0.3588
11034TIP3    H154593   0.243   1.248   4.786 -0.1287  1.3467 -0.6714
11034TIP3    H254594   0.157   1.133   4.738  0.7267  0.1648  0.5716
11035TIP3   OH254595   5.476   0.959  16.648 -0.5718  0.3041  0.3201
11035TIP3    H154596   5.497   1.051  16.663 -1.9829  0.7577 -0.3598
11035TIP3    H254597   5.469   0.922  16.736  0.3952  0.7543  0.5930
11036TIP3   OH254598   3.204   1.193  10.841 -0.0629  0.2211 -0.3656
11036TIP3    H154599   3.282   1.180  10.895 -0.8414  0.3354  0.8118
11036TIP3    H254600   3.170   1.104  10.826 -1.1059  0.3245  1.2522
11037TIP3   OH254601   4.672   4.736   4.742 -0.2796  0.3766 -0.5579
11037TIP3    H154602   4.610   4.793   4.787 -0.0225  1.2476 -1.2990
11037TIP3    H254603   4.756   4.782   4.747  1.1926 -2.4832  3.6982
11038TIP3   OH254604   0.127   3.777   0.104 -0.1182 -0.7237 -1.1964
11038TIP3    H154605   0.194   3.762   0.171 -0.5610 -0.6646 -0.7404
11038TIP3    H254606   0.066   3.839   0.144 -0.3231 -0.5956 -1.6978
11039TIP3   OH254607   4.685   2.720  10.668  0.3464  0.3661  0.4261
11039TIP3    H154608   4.631   2.780  10.719  1.4640  0.8840  1.0295
11039TIP3    H254609   4.748   2.685  10.731  0.0321 -1.0658 -0.0368
11040TIP3   OH254610   5.846   2.189   4.062 -0.2188  0.2081  0.0226
11040TIP3    H154611   5.856   2.267   4.007  0.4058  0.0501 -0.0867
11040TIP3    H254612   5.935   2.161   4.081 -0.4333  0.2694  1.1429
11041TIP3   OH254613   2.358   5.969  12.973 -0.1127  0.2477 -0.1315
11041TIP3    H154614   2.307   5.907  12.921 -0.4949 -0.7541  1.3854
11041TIP3    H254615   2.383   6.038  12.912 -0.0488 -1.1944 -1.7465
11042TIP3   OH254616   4.867   5.167   1.659 -0.0614 -0.4248 -0.3624
11042TIP3    H154617   4.949   5.132   1.695  1.3324 -0.0854 -3.0737
11042TIP3    H254618   4.804   5.096   1.670  0.4106 -0.4746  2.3205
11043TIP3   OH254619   5.054   2.353  14.075 -0.0145  0.1061 -0.3025
11043TIP3    H154620   5.128   2.309  14.033  0.1703  0.3356 -0.2160
11043TIP3    H254621   5.076   2.353  14.168 -0.0867  0.2449 -0.2859
11044TIP3   OH254622   6.004   6.137   4.631  0.3333 -0.0016 -0.2667
11044TIP3    H154623   6.025   6.231   4.632 -0.7003  0.2318  0.8774
11044TIP3    H254624   6.088   6.094   4.644  0.6705  0.7907  0.2442
11045TIP3   OH254625   1.493   5.697  13.547  0.6822 -0.1497  0.1001
11045TIP3    H154626   1.438   5.686  13.625  1.1419 -0.4081  0.3866
11045TIP3    H254627   1.531   5.785  13.557 -0.8740  0.6704 -0.8578
11046TIP3   OH254628   5.336   2.152  15.600  0.6272  0.2618  0.3241
11046TIP3    H154629   5.290   2.233  15.623 -1.1096 -0.6819  0.2463
11046TIP3    H254630   5.429   2.175  15.606  0.1689  1.7118  2.2371
11047TIP3   OH254631   2.610   6.184   3.837 -0.0447  0.5965 -0.3187
11047TIP3    H154632   2.538   6.234   3.875  0.3856  1.2171 -0.2967
11047TIP3    H254633   2.687   6.240   3.850  0.4903 -0.1690 -0.0932
11048TIP3   OH254634   3.689   2.611   4.956  0.2516 -0.4425  0.8786
11048TIP3    H154635   3.748   2.687   4.956  0.3695 -0.5230 -0.0895
11048TIP3    H254636   3.675   2.592   5.049  2.9101 -1.3055  1.1580
11049TIP3   OH254637   5.348   2.767  12.626  0.1447  0.1834  0.3104
11049TIP3    H154638   5.419   2.731  12.680 -0.9380  1.3009  2.5385
11049TIP3    H254639   5.268   2.730  12.663 -0.6704  1.5210 -0.0720
11050TIP3   OH254640   5.448   6.463  15.288 -0.2992  0.4504 -0.2333
11050TIP3    H154641   5.390   6.532  15.255  1.3288  2.3959  0.9417
11050TIP3    H254642   5.389   6.402  15.333 -1.5595  1.8775  0.0812
11051TIP3   OH254643   3.490   2.736  13.188 -0.3382 -0.0153 -0.5699
11051TIP3    H154644   3.561   2.754  13.251 -0.9740  0.1591  0.1021
11051TIP3    H254645   3.513   2.788  13.112 -1.8445  3.3618  1.1514
11052TIP3   OH254646   0.263   1.841   0.074 -0.4800  0.0564  0.0143
11052TIP3    H154647   0.189   1.786   0.048  0.1812 -0.9072  0.1543
11052TIP3    H254648   0.280   1.817   0.165  1.6980 -1.6953 -0.7825
11053TIP3   OH254649   6.518   4.263  12.060 -0.4020  0.1562 -0.6375
11053TIP3    H154650   6.614   4.264  12.055 -0.3721 -2.4824 -1.4146
11053TIP3    H254651   6.500   4.209  12.137 -1.2660 -0.8715 -1.5540
11054TIP3   OH254652   0.937   4.296  11.704  0.4552  0.7368 -0.3765
11054TIP3    H154653   0.904   4.229  11.765  0.6901  0.5831 -0.4194
11054TIP3    H254654   0.864   4.310  11.643  0.7601 -0.2169 -0.9781
11055TIP3   OH254655   4.479   5.523  11.752 -0.0770  0.0396  0.2477
11055TIP3    H154656   4.418   5.507  11.680  0.5037 -0.4842 -0.1329
11055TIP3    H254657   4.515   5.437  11.772 -0.3742  0.1495  1.2927
11056TIP3   OH254658   3.901   0.473   1.323  0.0628  0.4912  0.2500
11056TIP3    H154659   3.939   0.456   1.409  0.5385  0.2885  0.0044
11056TIP3    H254660   3.858   0.558   1.332 -0.5765  0.0973  0.9086
11057TIP3   OH254661   1.739   3.041  15.754  0.5538 -0.6236  0.0630
11057TIP3    H154662   1.653   3.079  15.772  0.1890 -2.0546  1.5278
11057TIP3    H254663   1.801   3.105  15.791 -0.0308 -1.1430  2.0443
11058TIP3   OH254664   3.478   3.362   0.910 -0.4371 -0.3567  0.4732
11058TIP3    H154665   3.534   3.396   0.980 -0.2207 -0.3750  0.3113
11058TIP3    H254666   3.500   3.269   0.906 -1.3465 -0.6035  1.2099
11059TIP3   OH254667   0.196   1.244  12.530  0.1842 -0.3702  0.8592
11059TIP3    H154668   0.265   1.306  12.506  0.1446 -0.3167  0.8843
11059TIP3    H254669   0.219   1.215  12.618  0.1086 -0.2610  0.9153
11060TIP3   OH254670   4.795   6.169  15.422  0.0821 -0.0576 -0.0156
11060TIP3    H154671   4.833   6.212  15.498  0.2542 -0.1392 -0.0550
11060TIP3    H254672   4.702   6.192  15.425  0.0447 -0.2500  0.3486
11061TIP3   OH254673   1.198   4.604   6.291 -0.0150  0.2911  0.1407
11061TIP3    H154674   1.193   4.634   6.382 -0.0910  2.7515 -0.6342
11061TIP3    H254675   1.248   4.672   6.246  0.8508 -1.3648 -1.4978
11062TIP3   OH254676   6.360   2.130  13.462  0.2402  0.3703 -0.4050
11062TIP3    H154677   6.332   2.049  13.420  0.1334  0.2041 -0.0211
11062TIP3    H254678   6.295   2.196  13.435 -0.0265  0.1855 -0.2131
11063TIP3   OH254679   6.200   5.783   4.072  0.2943 -0.1562  0.2913
11063TIP3    H154680   6.191   5.761   3.979  1.4943  1.0621 -0.1383
11063TIP3    H254681   6.267   5.722   4.104 -0.7927 -1.2042  0.5929
11064TIP3   OH254682   2.355   4.896  10.855  0.2792 -0.3306 -0.0232
11064TIP3    H154683   2.332   4.815  10.808 -0.0797 -1.2974  1.7638
11064TIP3    H254684   2.287   4.958  10.829  0.7994 -0.4583 -1.7474
11065TIP3   OH254685   2.106   4.760  13.870 -0.4779  0.3815  0.1105
11065TIP3    H154686   2.033   4.734  13.814 -0.7172 -0.9225  1.0306
11065TIP3    H254687   2.182   4.717  13.831 -0.0695  2.1798 -1.1754
11066TIP3   OH254688   1.321   4.427  16.365 -0.2249 -0.2864  0.4225
11066TIP3    H154689   1.392   4.489  16.377  0.5472 -0.9735 -0.5074
11066TIP3    H254690   1.266   4.438  16.443  0.3538  0.9490  0.6700
11067TIP3   OH254691   3.283   0.523  14.167  0.2860 -0.3611  0.0270
11067TIP3    H154692   3.235   0.494  14.244 -3.3753 -1.5026 -2.5796
11067TIP3    H254693   3.232   0.596  14.132  3.4218  2.0233  0.1801
11068TIP3   OH254694   0.728   2.724  12.144  0.6402 -0.9810 -0.2999
11068TIP3    H154695   0.683   2.648  12.180 -1.2645 -1.0710 -2.7664
11068TIP3    H254696   0.808   2.689  12.105  2.4988 -0.9421  3.2749
11069TIP3   OH254697   0.506   1.408  15.158  0.2137  0.8207  0.4932
11069TIP3    H154698   0.488   1.414  15.064 -1.2916 -0.2885  0.6927
11069TIP3    H254699   0.465   1.485  15.196  0.8357  1.2770  0.2485
11070TIP3   OH254700   1.494   5.775  16.055 -0.1225  0.3541  0.0709
11070TIP3    H154701   1.528   5.700  16.007 -1.4083 -0.5690  0.5975
11070TIP3    H254702   1.483   5.843  15.988  0.2271 -0.1937 -0.5537
11071TIP3   OH254703   0.857   6.219  16.009  0.2241  0.0695 -0.1074
11071TIP3    H154704   0.778   6.187  16.052  1.4189 -0.0319  2.0900
11071TIP3    H254705   0.827   6.288  15.950 -1.9609 -2.5533 -2.1912
11072TIP3   OH254706   1.959   1.853   3.928 -0.2897  0.5117 -0.7420
11072TIP3    H154707   2.046   1.849   3.887 -0.4749 -0.4102 -1.0481
11072TIP3    H254708   1.969   1.805   4.010 -0.2309  1.3451 -0.2527
11073TIP3   OH254709   4.460   4.778   3.000 -0.3610  0.1545 -0.0048
11073TIP3    H154710   4.504   4.705   3.042 -2.0591 -1.5849 -1.1364
11073TIP3    H254711   4.445   4.748   2.910  0.1479  2.4450 -0.8771
11074TIP3   OH254712   2.394   1.992  14.305 -0.2625  0.1161  0.6929
11074TIP3    H154713   2.306   1.987  14.343 -0.6142  0.8278 -0.0174
11074TIP3    H254714   2.424   2.080  14.324 -0.2625  0.3335 -0.2670
11075TIP3   OH254715   4.983   6.195   2.506  0.2148 -0.5063 -1.0512
11075TIP3    H154716   4.899   6.161   2.474 -0.5711  0.3526  0.0421
11075TIP3    H254717   4.971   6.290   2.511  0.2431 -0.5875  1.8075
11076TIP3   OH254718   1.946   0.928  14.206 -0.0410 -0.1788 -0.3896
11076TIP3    H154719   2.027   0.978  14.193 -0.3082  0.1910 -0.6394
11076TIP3    H254720   1.918   0.905  14.117  0.2055 -0.9757 -0.2669
11077TIP3   OH254721   1.567   0.784  16.180 -0.8909  0.1873 -0.1888
11077TIP3    H154722   1.608   0.870  16.194 -0.7025  0.1008 -0.2058
11077TIP3    H254723   1.612   0.748  16.104  0.1125 -0.5826  0.7467
11078TIP3   OH254724   1.106   0.764   5.972  0.0468 -0.9169 -0.4551
11078TIP3    H154725   1.146   0.847   6.001  1.6293 -1.8404  0.1029
11078TIP3    H254726   1.153   0.697   6.022 -1.3017 -2.1492 -0.8254
11079TIP3   OH254727   0.889   2.245   6.151  0.3171 -0.1805 -0.0912
11079TIP3    H154728   0.811   2.269   6.201 -0.2390 -0.3111 -0.8818
11079TIP3    H254729   0.928   2.173   6.200  0.2056  0.2015  0.5654
11080TIP3   OH254730   3.187   3.057   4.572  0.1994 -0.2858 -0.0070
11080TIP3    H154731   3.110   3.088   4.620 -0.2887 -0.9868 -0.3231
11080TIP3    H254732   3.260   3.104   4.611 -0.5650  1.5571 -0.7313
11081TIP3   OH254733   6.481   5.881  16.021  0.0981  0.7480 -0.5854
11081TIP3    H154734   6.522   5.962  15.990  1.6085  0.3807  0.3944
11081TIP3    H254735   6.545   5.813  16.001 -0.7591 -0.0726 -0.5446
11082TIP3   OH254736   6.526   4.712   1.443  0.2419  0.2142 -0.1679
11082TIP3    H154737   6.495   4.664   1.520 -0.0344  0.4252 -0.1486
11082TIP3    H254738   6.586   4.778   1.478  0.4575  0.0238 -0.1752
11083TIP3   OH254739   2.839   2.065  15.008  0.1611 -0.3390  0.2580
11083TIP3    H154740   2.864   2.106  14.925 -0.3188  0.0790  0.3208
11083TIP3    H254741   2.908   2.092  15.070 -0.4671  0.8651  0.4458
11084TIP3   OH254742   4.428   3.181   3.471  0.2017  0.4107 -0.1908
11084TIP3    H154743   4.480   3.115   3.425 -1.9185 -2.1592  1.0114
11084TIP3    H254744   4.491   3.251   3.491  2.6614 -1.5484 -0.8649
11085TIP3   OH254745   4.914   6.242  12.066  0.6258 -0.1259 -0.4740
11085TIP3    H154746   4.922   6.264  12.159  0.4784 -1.0882 -0.2228
11085TIP3    H254747   4.825   6.205  12.058  0.4888  0.3326 -1.0737
11086TIP3   OH254748   6.245   4.407  12.712  0.1667 -0.2687  0.5129
11086TIP3    H154749   6.229   4.313  12.698  1.6947 -0.4871  0.1020
11086TIP3    H254750   6.298   4.433  12.637 -2.6492  1.6108 -0.8955
11087TIP3   OH254751   1.099   2.927  15.604 -0.0187  0.2538  0.0323
11087TIP3    H154752   1.088   3.016  15.636 -1.1046  0.2490 -0.3155
11087TIP3    H254753   1.020   2.881  15.633 -0.7647  0.1055 -2.1703
11088TIP3   OH254754   3.294   5.261   3.725  0.1542 -0.6498  0.2145
11088TIP3    H154755   3.390   5.258   3.728  0.1743 -0.9563 -0.4975
11088TIP3    H254756   3.270   5.195   3.660 -0.6623 -2.1157  1.9544
11089TIP3   OH254757   6.737   1.303  14.047 -0.5565  0.1125  0.0383
11089TIP3    H154758   6.700   1.231  14.099 -1.9549 -0.1508 -1.3011
11089TIP3    H254759   6.824   1.271  14.022 -0.8293 -0.7781  0.1820
11090TIP3   OH254760   6.711   4.864  14.231  0.0479 -0.4587  0.4599
11090TIP3    H154761   6.674   4.870  14.143 -0.0578 -1.9295  0.3975
11090TIP3    H254762   6.635   4.856  14.288  0.1843 -2.1664  0.4412
11091TIP3   OH254763   5.959   5.166  11.641  0.6533  0.1008  0.1046
11091TIP3    H154764   5.899   5.180  11.715  0.3644 -1.1433  0.1164
11091TIP3    H254765   5.935   5.233  11.578  0.4946  0.7942  0.8908
11092TIP3   OH254766   0.746   2.719  12.733 -0.1146 -0.4778  0.3110
11092TIP3    H154767   0.764   2.673  12.815 -1.4661  1.9683  2.0305
11092TIP3    H254768   0.804   2.677  12.669  3.2309 -0.3803  3.1554
11093TIP3   OH254769   1.100   2.045  14.290 -0.0250  0.4101 -0.3061
11093TIP3    H154770   1.035   2.113  14.302  2.1097  2.7030 -1.2464
11093TIP3    H254771   1.182   2.084  14.323  1.4059 -1.3722 -1.6461
11094TIP3   OH254772   2.712   5.339  14.173 -0.0940  0.0512  0.0497
11094TIP3    H154773   2.706   5.350  14.078 -1.6962  2.2941  0.3866
11094TIP3    H254774   2.622   5.336  14.204  0.3953 -1.4469  1.4655
11095TIP3   OH254775   3.960   2.395   6.164 -0.0089  0.3224  0.6664
11095TIP3    H154776   3.963   2.300   6.176 -0.7830  0.3049  0.7119
11095TIP3    H254777   3.871   2.420   6.189 -0.0863  0.9385 -0.2062
11096TIP3   OH254778   6.768   1.288  16.102  0.1188 -0.6723  0.3453
11096TIP3    H154779   6.703   1.320  16.040 -1.8830 -3.0724  1.0942
11096TIP3    H254780   6.840   1.257  16.048 -1.1077 -1.6788 -0.7386
11097TIP3   OH254781   1.471   0.035  11.063 -0.3487  0.4844 -0.2801
11097TIP3    H154782   1.562   0.010  11.078  0.0180  0.9112 -1.7414
11097TIP3    H254783   1.420  -0.032  11.108  0.6746 -0.7942 -0.9809
11098TIP3   OH254784   6.111   4.343   6.237  0.2008 -0.3534 -0.6531
11098TIP3    H154785   6.182   4.395   6.198 -0.6174  2.0927  1.0123
11098TIP3    H254786   6.147   4.314   6.321  0.2495 -1.5925 -1.0910
11099TIP3   OH254787   4.972   6.114   0.925 -0.2520  0.4699  0.5306
11099TIP3    H154788   5.003   6.051   0.991  0.6305 -0.3879 -0.6952
11099TIP3    H254789   4.887   6.143   0.959  0.1156 -0.0891  1.9690
11100TIP3   OH254790   1.219   4.608   2.524 -0.0364 -0.0518 -0.2117
11100TIP3    H154791   1.198   4.696   2.491  0.8245 -0.6455 -2.4109
11100TIP3    H254792   1.212   4.616   2.619 -2.6386  1.7011 -0.5002
11101TIP3   OH254793   1.260   3.860   4.817 -0.3537  0.3004 -0.2656
11101TIP3    H154794   1.175   3.822   4.842  0.7845 -2.2828 -0.2293
11101TIP3    H254795   1.266   3.940   4.869 -0.7245 -1.8761  3.3172
11102TIP3   OH254796   6.363   4.526   0.138  0.2534  0.1027  0.0056
11102TIP3    H154797   6.378   4.438   0.101  1.5410 -0.3331  1.5084
11102TIP3    H254798   6.269   4.540   0.129 -0.1969 -2.0281  1.0081
11103TIP3   OH254799   5.847   4.450  12.929 -0.0567  0.2562 -0.0024
11103TIP3    H154800   5.914   4.385  12.947  1.5287  1.6322 -0.7946
11103TIP3    H254801   5.813   4.475  13.015  1.8871  1.0184  0.5657
11104TIP3   OH254802   0.289   5.554   2.590 -0.1855  0.2439  0.1885
11104TIP3    H154803   0.216   5.537   2.650 -0.4832  1.6316  0.2401
11104TIP3    H254804   0.266   5.508   2.510 -0.9095  0.2985  0.3597
11105TIP3   OH254805   2.186   3.772   5.268  0.1045 -0.1921  0.0347
11105TIP3    H154806   2.167   3.765   5.174  0.4489  0.2400 -0.0683
11105TIP3    H254807   2.203   3.865   5.282 -3.0178  0.2621  1.1209
11106TIP3   OH254808   4.347   5.294   0.932 -0.1820 -0.0543 -0.4801
11106TIP3    H154809   4.375   5.220   0.879  3.1932  1.8582 -1.4756
11106TIP3    H254810   4.251   5.288   0.932 -0.0887 -2.5947 -3.1275
11107TIP3   OH254811   5.942   3.591  13.875 -0.1058  0.0198 -0.0991
11107TIP3    H154812   5.857   3.585  13.918 -0.5998  0.8144 -0.9649
11107TIP3    H254813   5.926   3.641  13.796  0.7070 -1.9006 -1.5157
11108TIP3   OH254814   5.901   1.682   2.258 -0.3651  0.0379 -0.2617
11108TIP3    H154815   5.953   1.763   2.260 -1.2991  0.6437 -0.0726
11108TIP3    H254816   5.820   1.707   2.212 -0.4097 -0.9458 -0.7313
11109TIP3   OH254817   2.096   6.374  14.187 -0.0974  0.4213  0.2371
11109TIP3    H154818   2.191   6.374  14.176  0.2416  0.4232  2.8640
11109TIP3    H254819   2.080   6.311  14.257 -2.0878 -0.0279 -0.6035
11110TIP3   OH254820   4.872   5.787   0.366  1.0617 -0.5596  0.5025
11110TIP3    H154821   4.841   5.723   0.301  2.5889 -0.8145 -0.0121
11110TIP3    H254822   4.957   5.816   0.331 -1.5964  5.2917 -1.7179
11111TIP3   OH254823   6.301   1.922  15.522  0.1414  0.2436 -0.1384
11111TIP3    H154824   6.279   2.013  15.502 -1.0999 -0.1818 -0.7842
11111TIP3    H254825   6.308   1.880  15.436 -0.9696 -0.6462  0.1975
11112TIP3   OH254826   1.617   2.157   6.631 -0.4040 -0.2452  0.0450
11112TIP3    H154827   1.557   2.124   6.699 -0.6690 -0.3660 -0.2473
11112TIP3    H254828   1.578   2.127   6.549 -0.1926  0.0847 -0.1729
11113TIP3   OH254829   3.571   5.605  10.432  0.3254 -0.1909 -0.1280
11113TIP3    H154830   3.550   5.683  10.382  1.0780  0.7557  1.0071
11113TIP3    H254831   3.508   5.539  10.402 -0.9030  1.1063 -0.4231
11114TIP3   OH254832   4.946   3.275  15.400  0.1573 -0.3076 -0.7419
11114TIP3    H154833   4.918   3.366  15.382  0.6571  0.1837  0.9395
11114TIP3    H254834   4.865   3.230  15.423  0.2796  0.3882  1.1224
11115TIP3   OH254835   6.462   2.289  12.578 -0.2666 -0.3266 -0.6925
11115TIP3    H154836   6.397   2.220  12.591 -2.2110  1.2703 -1.8490
11115TIP3    H254837   6.412   2.367  12.558  2.0459  0.6072 -3.2155
11116TIP3   OH254838   6.122   4.814   6.450  0.3278 -1.0592 -0.1699
11116TIP3    H154839   6.045   4.795   6.395  1.0364 -0.4908 -1.3640
11116TIP3    H254840   6.193   4.764   6.409  1.3787  1.1819 -1.1482
11117TIP3   OH254841   4.818   4.421   0.016 -0.1894  0.6387  0.1481
11117TIP3    H154842   4.763   4.403   0.093  0.8058 -1.4705  0.4046
11117TIP3    H254843   4.905   4.437   0.052  0.0490  0.7409 -0.4793
11118TIP3   OH254844   1.039   3.496  11.414 -0.0298  0.1847  0.2806
11118TIP3    H154845   1.124   3.517  11.453  0.8562 -0.3589 -1.3499
11118TIP3    H254846   1.021   3.570  11.356 -0.5549  0.1623  0.4143
11119TIP3   OH254847   0.641   5.353  11.915  0.0140 -0.0150  0.0715
11119TIP3    H154848   0.713   5.366  11.977 -0.1750  2.0880 -0.0960
11119TIP3    H254849   0.610   5.264  11.932 -1.9760  1.4693  5.0874
11120TIP3   OH254850   6.279   6.095   0.022 -0.0075 -0.4543  0.5214
11120TIP3    H154851   6.216   6.140   0.078 -0.8871 -1.2677  0.1831
11120TIP3    H254852   6.364   6.116   0.062 -0.5497 -0.1887  1.5674
11121TIP3   OH254853   4.989   1.881  13.896 -0.3446  0.1277  0.1121
11121TIP3    H154854   4.957   1.955  13.948 -1.9926 -2.3444  2.7307
11121TIP3    H254855   5.058   1.842  13.949 -0.2017 -0.8337 -0.7614
11122TIP3   OH254856   2.198   0.284  14.442 -0.3116 -0.6744 -0.3714
11122TIP3    H154857   2.291   0.284  14.464  0.0542 -0.1431 -1.8796
11122TIP3    H254858   2.172   0.192  14.449  0.1990 -0.7570  0.5498
11123TIP3   OH254859   6.359   1.411  14.651  0.3239  0.3412 -0.2885
11123TIP3    H154860   6.312   1.378  14.728 -1.2708 -0.9635 -1.7742
11123TIP3    H254861   6.390   1.497  14.677 -1.0368  0.3267  1.5007
11124TIP3   OH254862   3.098   5.401   3.619  0.6012 -0.1061 -0.0909
11124TIP3    H154863   3.167   5.354   3.666  0.7558  1.0897  0.9046
11124TIP3    H254864   3.043   5.332   3.582  0.9886 -1.0667  1.0872
11125TIP3   OH254865   3.240   0.207   4.658  0.0225 -0.2151 -0.2307
11125TIP3    H154866   3.180   0.260   4.712 -1.1342 -0.0956 -1.6095
11125TIP3    H254867   3.327   0.243   4.676 -0.2965 -0.4150  1.8391
11126TIP3   OH254868   5.662   2.959  11.830 -0.2221 -0.1575 -0.1988
11126TIP3    H154869   5.695   2.911  11.754  0.6843  0.2515 -0.0677
11126TIP3    H254870   5.571   2.979  11.808  0.1651  0.3655 -1.3771
11127TIP3   OH254871   3.859   4.817  13.732 -0.1456  0.0361 -0.0137
11127TIP3    H154872   3.940   4.861  13.707 -0.5753  0.9658  0.1871
11127TIP3    H254873   3.797   4.839  13.662 -0.3599 -0.2719  0.0757
11128TIP3   OH254874   3.932   5.165  16.422  0.9291  0.3770 -0.0143
11128TIP3    H154875   4.012   5.217  16.415  0.9606  0.1125 -2.1504
11128TIP3    H254876   3.961   5.082  16.459  1.2135  1.1319  1.5106
11129TIP3   OH254877   0.987   2.265   4.807 -0.0588 -0.4476 -0.0474
11129TIP3    H154878   1.033   2.226   4.732  1.5512  0.1378  0.6097
11129TIP3    H254879   0.934   2.334   4.768 -1.9492 -2.4187 -1.0627
11130TIP3   OH254880   2.825   3.046  13.815 -0.1256  0.1125 -0.3481
11130TIP3    H154881   2.895   3.109  13.833  1.2549 -1.2034 -1.0063
11130TIP3    H254882   2.823   3.039  13.720  0.5755 -1.7396 -0.2518
11131TIP3   OH254883   2.610   4.276   2.293 -0.2080  0.2445 -0.0905
11131TIP3    H154884   2.549   4.268   2.220 -0.0055 -0.6715 -0.1654
11131TIP3    H254885   2.587   4.203   2.351 -0.3596  0.9583  0.7573
11132TIP3   OH254886   3.251   2.357   3.141  0.0618  0.4696  0.0472
11132TIP3    H154887   3.257   2.395   3.229  1.8544 -0.0181  0.1496
11132TIP3    H254888   3.342   2.341   3.116 -0.5667 -2.0954 -0.7190
11133TIP3   OH254889   5.967   1.266   3.856 -0.3488  0.4387 -0.2593
11133TIP3    H154890   6.057   1.274   3.825  0.2552  0.3982  1.4270
11133TIP3    H254891   5.913   1.271   3.777  0.9357  3.6932 -1.0214
11134TIP3   OH254892   0.021   1.888  13.508 -0.1784  0.1662  0.3906
11134TIP3    H154893   0.084   1.943  13.555  0.7500 -0.6222  0.0593
11134TIP3    H254894  -0.028   1.950  13.454 -0.3243  0.9031  1.3402
11135TIP3   OH254895   3.602   3.875  13.474  0.4618 -0.6028  0.5443
11135TIP3    H154896   3.551   3.809  13.521  0.9496 -2.2236 -1.1534
11135TIP3    H254897   3.537   3.925  13.425  0.1678 -0.3181  1.2214
11136TIP3   OH254898   4.285   4.320  13.936  0.2515 -0.2824  0.0214
11136TIP3    H154899   4.256   4.355  13.852  0.5914  1.7331  0.7198
11136TIP3    H254900   4.206   4.282  13.974 -0.5604  1.3831  0.0379
11137TIP3   OH254901   1.028   0.288   0.506  0.4141  0.2199 -0.1247
11137TIP3    H154902   1.096   0.266   0.442  2.7742  0.7389  2.1111
11137TIP3    H254903   0.947   0.287   0.456  1.9272 -1.4783 -2.6565
11138TIP3   OH254904   1.215   5.211   1.070  0.0414 -0.0853  0.1999
11138TIP3    H154905   1.275   5.148   1.030  0.8320  0.6704  0.1794
11138TIP3    H254906   1.130   5.192   1.031  0.3410 -0.9080 -0.0664
11139TIP3   OH254907   4.943   1.736  12.786  0.6540 -0.0574  0.0275
11139TIP3    H154908   4.961   1.710  12.696  0.4619 -1.2384  0.3284
11139TIP3    H254909   4.991   1.818  12.798  0.2588  0.3825 -1.3106
11140TIP3   OH254910   0.410   2.343   2.731 -0.0235 -1.0153  0.0395
11140TIP3    H154911   0.371   2.338   2.818 -0.3966  1.1472  0.0070
11140TIP3    H254912   0.401   2.434   2.705  3.6986 -0.7632 -0.6169
11141TIP3   OH254913   5.600   1.920   5.177 -0.2420  0.1953  0.2152
11141TIP3    H154914   5.561   1.964   5.252  0.2118  0.4051  0.3276
11141TIP3    H254915   5.608   1.988   5.110 -0.2233  0.1153  0.1353
11142TIP3   OH254916   5.727   3.191  12.107  0.4813  0.1937 -0.0118
11142TIP3    H154917   5.704   3.240  12.028  1.4639 -0.3805 -0.6689
11142TIP3    H254918   5.798   3.132  12.079  1.9701  1.1256  1.6909
11143TIP3   OH254919   1.993   3.834   1.178 -0.1366 -0.1714  0.3614
11143TIP3    H154920   2.062   3.874   1.125 -0.7208  1.9775  1.1702
11143TIP3    H254921   1.934   3.795   1.114  0.2584  0.5740 -0.4729
11144TIP3   OH254922   6.656   3.061   5.093 -0.4645  0.0604 -0.3280
11144TIP3    H154923   6.689   2.993   5.152  1.8875  0.3083 -1.2939
11144TIP3    H254924   6.561   3.048   5.093 -0.1762 -2.4965  0.3766
11145TIP3   OH254925   5.741   4.027  16.695 -0.2781  0.3317  0.3027
11145TIP3    H154926   5.733   3.950  16.752  1.3320  0.3160  0.5342
11145TIP3    H254927   5.668   4.084  16.722  0.1397  0.0959  2.0267
11146TIP3   OH254928   5.823   5.781  11.082 -0.3049  0.4350  0.1419
11146TIP3    H154929   5.857   5.708  11.134 -0.6993  0.3935  0.3373
11146TIP3    H254930   5.868   5.772  10.998 -1.1110 -0.6393 -0.1871
11147TIP3   OH254931   3.589   5.914   2.750  0.5602 -0.3925  0.1794
11147TIP3    H154932   3.624   5.847   2.809 -0.7084 -0.7620  0.5101
11147TIP3    H254933   3.511   5.947   2.793  0.5939  0.5729 -0.4747
11148TIP3   OH254934   3.389   3.054  10.826  0.8221  0.5886  0.1576
11148TIP3    H154935   3.478   3.031  10.853  0.9945  0.2761 -0.6802
11148TIP3    H254936   3.378   3.144  10.859  1.1702  0.3601  0.9198
11149TIP3   OH254937   6.749   1.871  16.611 -0.0764 -0.0078 -0.1353
11149TIP3    H154938   6.814   1.822  16.560 -0.1665  0.9202 -1.1561
11149TIP3    H254939   6.666   1.830  16.588 -0.1280  0.4676 -0.8270
11150TIP3   OH254940   2.225   2.287  10.840 -0.3339 -0.1330  0.0137
11150TIP3    H154941   2.240   2.217  10.776 -1.0725  0.8697 -1.2752
11150TIP3    H254942   2.305   2.340  10.836 -0.1947 -0.3204  0.2609
11151TIP3   OH254943   2.907   6.023   1.104  0.2833 -0.3080  0.1651
11151TIP3    H154944   2.863   5.944   1.134 -0.0939 -0.6316 -1.1921
11151TIP3    H254945   2.838   6.074   1.060  0.7367  0.3227  0.1696
11152TIP3   OH254946   0.034   4.460  16.475 -0.4210 -0.0730 -0.4080
11152TIP3    H154947  -0.049   4.505  16.488 -0.2038  0.6393 -1.4578
11152TIP3    H254948   0.028   4.381  16.530 -0.9539  1.0165  1.1327
11153TIP3   OH254949   5.865   5.575  12.131  0.1299  0.1440  0.3716
11153TIP3    H154950   5.948   5.582  12.177  0.7071 -3.5984  0.0187
11153TIP3    H254951   5.852   5.481  12.117 -2.9265  0.7910 -1.8146
11154TIP3   OH254952   1.320   2.070  11.771  0.1584 -0.3922  0.0511
11154TIP3    H154953   1.390   2.132  11.791 -1.9510  2.1841 -0.2659
11154TIP3    H254954   1.269   2.112  11.701 -1.0852 -2.6773 -0.4790
11155TIP3   OH254955   3.153   6.764  15.754 -0.3437  0.2876 -0.2905
11155TIP3    H154956   3.235   6.715  15.755  0.7508  2.0687  0.0111
11155TIP3    H254957   3.145   6.800  15.842 -1.4311  0.1589 -0.3326
11156TIP3   OH254958   4.658   4.881   1.028 -0.0319 -0.4687  0.2326
11156TIP3    H154959   4.752   4.880   1.046 -0.1002  0.3768  0.6507
11156TIP3    H254960   4.617   4.886   1.115 -0.4406  0.3270 -0.0020
11157TIP3   OH254961   5.916   2.265  15.922  0.3045  0.1427  0.2746
11157TIP3    H154962   5.964   2.255  16.005  0.5156  1.1655  0.2897
11157TIP3    H254963   5.927   2.181  15.877  0.7599 -0.1840  0.9897
11158TIP3   OH254964   4.839   3.299   0.936  0.1580 -0.1253 -0.0340
11158TIP3    H154965   4.919   3.286   0.885  0.7982  0.2928  0.8269
11158TIP3    H254966   4.836   3.394   0.951 -0.0063 -0.2413  0.6969
11159TIP3   OH254967   4.802   3.530  15.159 -0.2568  0.6045  0.1040
11159TIP3    H154968   4.818   3.578  15.078  1.4381 -0.1366 -0.0215
11159TIP3    H254969   4.736   3.464  15.136 -0.3761  0.9164 -0.4566
11160TIP3   OH254970   5.487   1.028  10.619  0.1328  0.0107  0.6721
11160TIP3    H154971   5.461   1.118  10.637 -0.1874 -0.1859  1.1828
11160TIP3    H254972   5.417   0.993  10.564  0.5500  0.2553 -0.0272
11161TIP3   OH254973   0.393   1.043   5.709 -0.3097 -0.3984  0.3334
11161TIP3    H154974   0.457   1.109   5.683 -1.4673  0.8979  0.6972
11161TIP3    H254975   0.338   1.032   5.632 -1.2154  0.4042  0.8511
11162TIP3   OH254976   4.896   1.192  10.464 -0.0142  0.3610  0.2654
11162TIP3    H154977   4.920   1.224  10.377 -1.7691  0.1590 -0.3004
11162TIP3    H254978   4.967   1.131  10.486  1.3865  1.7669 -0.2275
11163TIP3   OH254979   2.488   0.469  16.075 -0.1066 -0.1186  0.1385
11163TIP3    H154980   2.516   0.534  16.139  1.3303 -0.8189  0.2536
11163TIP3    H254981   2.430   0.516  16.016  0.7023  1.1978  0.3803
11164TIP3   OH254982   5.457   4.076   4.093 -0.4460  0.3166  0.1493
11164TIP3    H154983   5.412   4.143   4.144  0.7794 -0.0434  1.7445
11164TIP3    H254984   5.509   4.126   4.029 -0.3436  0.8542  0.6475
11165TIP3   OH254985   3.253   5.322  14.876 -0.2107 -0.5509  0.1948
11165TIP3    H154986   3.212   5.363  14.952 -0.5825 -1.1555  0.3219
11165TIP3    H254987   3.337   5.368  14.867 -0.0025 -0.7152  1.1830
11166TIP3   OH254988   4.532   3.653  16.959 -0.3079 -0.3987 -0.1488
11166TIP3    H154989   4.455   3.599  16.976  0.2196 -1.1810 -0.1907
11166TIP3    H254990   4.554   3.691  17.044 -0.7063 -0.2162 -0.1260
11167TIP3   OH254991   6.015   2.845   4.972 -0.3064 -0.3036  0.1197
11167TIP3    H154992   6.095   2.805   5.008  0.6569  1.8854  0.4533
11167TIP3    H254993   6.022   2.832   4.878  0.6440  0.2537  0.1129
11168TIP3   OH254994   5.662   1.621  11.749 -0.0331 -0.8447  0.2712
11168TIP3    H154995   5.595   1.690  11.747 -1.1769 -1.9407 -1.6168
11168TIP3    H254996   5.612   1.540  11.764  1.1132 -1.4334  0.9419
11169TIP3   OH254997   3.844   6.337   5.301 -0.7904 -0.2005 -0.3875
11169TIP3    H154998   3.846   6.334   5.397  0.9808 -1.4877 -0.4588
11169TIP3    H254999   3.798   6.420   5.281 -1.8569 -0.2914  1.5445
11170TIP3   OH255000   1.126   1.060  13.892 -0.6610 -0.2699 -0.1091
11170TIP3    H155001   1.191   1.089  13.957  1.2950 -0.3801 -1.9475
11170TIP3    H255002   1.097   1.141  13.849  0.5741 -0.4789 -1.3733
11171TIP3   OH255003   2.151   4.686  15.793 -0.1874 -0.0626  0.1550
11171TIP3    H155004   2.183   4.596  15.787 -0.2680 -0.1792  1.3300
11171TIP3    H255005   2.187   4.729  15.715 -1.3664 -1.4715 -1.2273
11172TIP3   OH255006   6.333   0.949  15.850 -0.3549  0.1414  0.0092
11172TIP3    H155007   6.355   1.036  15.817 -0.8112  0.5576  0.7765
11172TIP3    H255008   6.248   0.961  15.893 -0.0050 -0.4884  0.8824
11173TIP3   OH255009   4.073   6.175  14.001 -0.6024 -0.0178  0.0877
11173TIP3    H155010   3.991   6.223  13.988  0.5983  1.7057 -1.3031
11173TIP3    H255011   4.112   6.171  13.913  2.0482  1.4594  1.1536
11174TIP3   OH255012   0.081   4.029   6.154 -0.1623 -0.1243  0.2263
11174TIP3    H155013   0.067   3.962   6.087 -0.6197  1.2759 -1.1168
11174TIP3    H255014   0.132   3.986   6.222  1.3552 -1.2390 -1.5863
11175TIP3   OH255015   5.292   3.271   5.042 -0.1848  0.1065 -0.2670
11175TIP3    H155016   5.221   3.323   5.079 -0.0598  0.0117  0.1107
11175TIP3    H255017   5.271   3.264   4.949 -0.3429  0.5972 -0.2656
11176TIP3   OH255018   1.485   5.077  12.258 -0.1045  0.0538 -0.2788
11176TIP3    H155019   1.574   5.088  12.291 -0.2049  0.4265 -0.1361
11176TIP3    H255020   1.488   4.993  12.211  0.8385  1.0298 -1.9982
11177TIP3   OH255021   4.446   5.340   3.677  0.3273 -0.1655 -0.3371
11177TIP3    H155022   4.370   5.301   3.719  0.4650  0.1688  0.2194
11177TIP3    H255023   4.520   5.313   3.731  0.5447 -0.0553 -0.5804
11178TIP3   OH255024   3.999   3.869  13.947  0.0554  0.4713  0.2408
11178TIP3    H155025   4.063   3.810  13.987 -0.6158  0.6151  1.5533
11178TIP3    H255026   4.051   3.934  13.901  0.8049 -1.3461 -1.5332
11179TIP3   OH255027   3.888   4.792   1.080  0.1156 -0.4512 -0.1098
11179TIP3    H155028   3.911   4.806   0.988  2.0639 -0.6432  0.3357
11179TIP3    H255029   3.899   4.878   1.121 -1.3483 -0.2255 -0.1709
11180TIP3   OH255030   1.036   0.687   1.776 -0.5215 -0.1047 -0.1254
11180TIP3    H155031   1.042   0.671   1.681  1.0176  0.1866 -0.0902
11180TIP3    H255032   1.039   0.600   1.815 -1.3346 -0.2372 -0.3469
11181TIP3   OH255033   5.052   4.314  15.517  0.4108  0.1725 -0.1359
11181TIP3    H155034   5.115   4.269  15.461 -0.0478  0.5188 -0.9322
11181TIP3    H255035   5.104   4.376  15.568  0.6255  0.9619 -1.3007
11182TIP3   OH255036   6.257   3.153   5.797 -0.5803  0.3924  0.8974
11182TIP3    H155037   6.176   3.131   5.751 -0.7637  0.8134  1.0229
11182TIP3    H255038   6.242   3.125   5.887  1.4513 -4.7578 -0.1866
11183TIP3   OH255039   2.892   2.775   3.333 -0.4618  0.1093  0.2450
11183TIP3    H155040   2.913   2.749   3.244 -0.2259  4.5000 -1.1331
11183TIP3    H255041   2.972   2.759   3.383  0.3326  0.2340 -0.9765
11184TIP3   OH255042   0.465   2.934   1.275  0.1950 -0.3123  0.5618
11184TIP3    H155043   0.500   2.962   1.360  1.6870 -0.4929  0.0170
11184TIP3    H255044   0.517   2.981   1.210  0.1654 -1.4126 -0.2844
11185TIP3   OH255045   3.354   5.455   3.525 -0.5830  0.0717 -0.1800
11185TIP3    H155046   3.275   5.510   3.518 -0.5253  0.6102  2.9149
11185TIP3    H255047   3.331   5.388   3.590  0.5096 -1.5988 -1.4652
11186TIP3   OH255048   1.957   6.778  11.781 -0.2364 -0.3633  0.4958
11186TIP3    H155049   2.004   6.700  11.751 -1.9574 -1.9473  1.8659
11186TIP3    H255050   2.001   6.802  11.863  0.3120  0.1575  0.0589
11187TIP3   OH255051   1.089   3.886  11.600  0.0028 -0.5319 -0.0429
11187TIP3    H155052   1.139   3.850  11.527 -2.1875 -1.9936 -0.8724
11187TIP3    H255053   1.031   3.951  11.560  0.4073  0.3338  0.7430
11188TIP3   OH255054   5.753   1.100   4.463 -0.7725 -0.8394  0.2377
11188TIP3    H155055   5.817   1.062   4.403 -1.4591  0.2298 -1.2020
11188TIP3    H255056   5.668   1.078   4.424 -1.1980  2.0151 -0.5880
11189TIP3   OH255057   6.652   1.578   2.579  0.5999  0.1782 -0.1843
11189TIP3    H155058   6.717   1.576   2.649  2.3478  0.2007 -1.7680
11189TIP3    H255059   6.654   1.669   2.548 -1.1871  0.5187  0.6493
11190TIP3   OH255060   4.496   1.923   2.600 -0.2484  0.3567  0.1614
11190TIP3    H155061   4.454   1.987   2.541 -0.5096  0.3574  0.3442
11190TIP3    H255062   4.589   1.940   2.591 -0.3269  0.9407  0.4034
11191TIP3   OH255063   2.023   5.405   2.123  0.3947  0.3217 -0.2827
11191TIP3    H155064   2.022   5.309   2.123  2.0250  0.2939 -0.3111
11191TIP3    H255065   2.038   5.428   2.215  1.6061  0.5047 -0.5127
11192TIP3   OH255066   6.764   6.389  15.503  0.0369 -0.4369  0.5245
11192TIP3    H155067   6.825   6.350  15.565  0.2389  0.2736  0.7705
11192TIP3    H255068   6.816   6.406  15.424 -0.2169 -1.3276  0.1546
11193TIP3   OH255069   0.073   0.730   5.146 -0.4207  0.2227  0.4019
11193TIP3    H155070   0.093   0.772   5.229  1.0410  0.6008 -0.1350
11193TIP3    H255071  -0.022   0.741   5.136 -0.6793 -0.2429  2.2245
11194TIP3   OH255072   1.821   2.758  12.619 -0.4977 -0.0550 -0.1367
11194TIP3    H155073   1.744   2.788  12.667 -0.8848 -0.9429 -0.1769
11194TIP3    H255074   1.790   2.681  12.570 -0.1206  0.8389 -1.8237
11195TIP3   OH255075   6.269   2.578  17.064 -0.2171  0.3155  0.1133
11195TIP3    H155076   6.357   2.611  17.047  0.5230 -1.1377  1.0416
11195TIP3    H255077   6.226   2.580  16.978  0.3134  2.1732 -0.1165
11196TIP3   OH255078   3.940   2.072   3.203  0.2233 -0.0328  0.5283
11196TIP3    H155079   3.998   2.087   3.277 -1.3341  1.2370  1.5118
11196TIP3    H255080   3.855   2.052   3.242 -0.6087  0.6397 -0.9079
11197TIP3   OH255081   4.166   2.194   2.114 -0.4639 -0.1227  0.9369
11197TIP3    H155082   4.103   2.211   2.184 -0.8438 -1.1027  0.8281
11197TIP3    H255083   4.184   2.101   2.120 -0.6324 -0.2403 -0.3953
11198TIP3   OH255084   3.072   3.711  10.915 -0.7447  0.4689  0.2562
11198TIP3    H155085   3.089   3.617  10.907 -2.9630  0.0211  0.5028
11198TIP3    H255086   3.119   3.750  10.841  2.8023 -0.4441  1.9213
11199TIP3   OH255087   5.892   1.145   1.288  0.2895  0.5857 -0.3679
11199TIP3    H155088   5.983   1.150   1.258  0.6434 -0.6729  0.4704
11199TIP3    H255089   5.843   1.198   1.224  1.2737 -0.6250 -2.1799
11200TIP3   OH255090   2.057   3.536  13.067  0.2404 -0.2640  0.3555
11200TIP3    H155091   2.058   3.541  13.162 -0.4882  0.5275  0.3326
11200TIP3    H255092   2.105   3.456  13.046 -0.4922 -0.9986  1.4277
11201TIP3   OH255093   4.585   0.809   1.418  0.2825 -0.2261  0.0379
11201TIP3    H155094   4.624   0.858   1.346  0.4660  1.9305  1.5321
11201TIP3    H255095   4.505   0.772   1.383  0.3693  0.8081 -1.2609
11202TIP3   OH255096   1.899   6.570  15.474 -0.4093  0.2329 -0.6339
11202TIP3    H155097   1.804   6.558  15.470 -0.2819 -0.2817 -2.2799
11202TIP3    H255098   1.931   6.537  15.391  1.4586 -1.7330  0.8110
11203TIP3   OH255099   3.995   4.017   2.172 -0.2356 -0.0006 -0.2749
11203TIP3    H155100   4.017   4.048   2.084 -0.4284 -0.9666 -0.6777
11203TIP3    H255101   4.063   3.952   2.192 -1.5434 -1.5450 -0.7112
11204TIP3   OH255102   2.955   2.151  13.196  0.4491  0.1393 -0.0598
11204TIP3    H155103   2.867   2.186  13.210  0.9410  1.1830  0.4907
11204TIP3    H255104   3.011   2.229  13.191  1.1397 -0.4448 -1.8531
11205TIP3   OH255105   5.995   6.327  11.824 -0.0956 -0.1154  0.3209
11205TIP3    H155106   6.020   6.276  11.902  0.0298 -3.0606 -1.5633
11205TIP3    H255107   6.048   6.406  11.829  1.1724 -1.0487  2.3507
11206TIP3   OH255108   3.715   1.057   1.762  0.5832  0.4389 -0.1638
11206TIP3    H155109   3.669   1.138   1.783 -0.5731  0.1878 -1.6329
11206TIP3    H255110   3.807   1.083   1.754  0.1943  1.6607 -0.8144
11207TIP3   OH255111   2.931   4.385  17.166 -0.2573 -0.0857 -0.6754
11207TIP3    H155112   2.985   4.319  17.123  0.9638  0.1056  0.5247
11207TIP3    H255113   2.989   4.425  17.231 -1.0588  1.9884 -1.1962
11208TIP3   OH255114   5.464   2.438   3.329  0.0778  0.4488  0.5488
11208TIP3    H155115   5.498   2.520   3.366 -0.6437  1.7779 -1.6162
11208TIP3    H255116   5.380   2.426   3.371 -0.2219  1.3261  0.2155
11209TIP3   OH255117   5.786   4.135   0.763 -0.1179  0.3564 -0.1195
11209TIP3    H155118   5.722   4.184   0.816 -0.4168 -0.1142 -0.0477
11209TIP3    H255119   5.820   4.069   0.823  0.8918  1.0049  0.0250
11210TIP3   OH255120   5.390   3.661   5.204  0.0166 -0.8027  0.3633
11210TIP3    H155121   5.416   3.733   5.261  0.8704 -0.8643  0.0638
11210TIP3    H255122   5.332   3.607   5.258  0.2445 -0.4702  0.9412
11211TIP3   OH255123   4.439   4.229  16.586 -0.3105  0.0281 -0.6040
11211TIP3    H155124   4.348   4.255  16.575 -0.0480  0.9445 -0.6587
11211TIP3    H255125   4.449   4.152  16.529 -1.1512 -0.3288 -0.2740
11212TIP3   OH255126   5.748   6.497   5.366  0.3890  0.3471 -0.4204
11212TIP3    H155127   5.655   6.475   5.359  0.3108  0.5582 -0.0515
11212TIP3    H255128   5.765   6.553   5.290  0.8196 -1.7721 -1.9027
11213TIP3   OH255129   6.168   1.264   0.520 -0.1478 -0.3011  0.9310
11213TIP3    H155130   6.261   1.253   0.497 -0.7540 -1.6549 -0.9738
11213TIP3    H255131   6.124   1.189   0.481 -2.0786  0.3576  1.7671
11214TIP3   OH255132   1.829   5.763  16.408  0.0952  0.0121 -0.4834
11214TIP3    H155133   1.743   5.785  16.372  0.1671  0.6438 -0.2597
11214TIP3    H255134   1.842   5.825  16.479  0.6817 -0.1738 -0.4264
11215TIP3   OH255135   4.728   6.670  17.123 -0.1181 -0.2200 -0.0135
11215TIP3    H155136   4.813   6.714  17.129  0.5239 -1.2104 -1.6509
11215TIP3    H255137   4.698   6.688  17.034 -1.2078 -0.6624  0.2572
11216TIP3   OH255138   6.767   1.306   5.866 -0.4503  0.6535  0.1049
11216TIP3    H155139   6.860   1.303   5.889 -0.8180 -1.1808  1.5071
11216TIP3    H255140   6.726   1.348   5.941 -1.3096 -2.8033  1.6597
11217TIP3   OH255141   4.220   5.105   1.943  0.3714  0.1659 -0.3569
11217TIP3    H155142   4.224   5.154   1.861  0.8624  1.4206  0.4193
11217TIP3    H255143   4.152   5.148   1.994  1.3934  0.5729  0.6708
11218TIP3   OH255144   2.419   2.436  12.700 -0.4071 -0.2106 -0.2109
11218TIP3    H155145   2.353   2.497  12.669  0.2794  0.9983  0.6703
11218TIP3    H255146   2.399   2.424  12.793  1.7282  1.6526  0.5233
11219TIP3   OH255147   6.416   1.197   6.120 -0.1994  0.0265  0.8320
11219TIP3    H155148   6.350   1.227   6.182  0.7784  1.7019  1.1048
11219TIP3    H255149   6.464   1.129   6.167  1.1941  1.9862  2.3471
11220TIP3   OH255150   3.522   5.724  14.949 -0.3098  0.3552  0.1990
11220TIP3    H155151   3.474   5.784  14.892 -0.6830 -0.9356 -0.8772
11220TIP3    H255152   3.480   5.734  15.035 -0.1825  1.8233  0.1152
11221TIP3   OH255153   1.105   2.330   1.056 -0.1700 -0.1624 -0.0771
11221TIP3    H155154   1.057   2.253   1.025  1.5999 -0.7197 -1.5371
11221TIP3    H255155   1.071   2.403   1.005 -1.2837 -0.0915  0.7448
11222TIP3   OH255156   1.637   1.697  13.638  0.7337  0.6084  0.3921
11222TIP3    H155157   1.593   1.661  13.561  0.5499  0.2288  0.6738
11222TIP3    H255158   1.566   1.712  13.700  0.9165  0.6541  0.5873
11223TIP3   OH255159   1.281   2.132  10.623 -0.2669  0.4324 -0.4088
11223TIP3    H155160   1.190   2.131  10.653  0.3746  1.0899  1.6188
11223TIP3    H255161   1.289   2.211  10.570 -1.2332 -0.3768 -1.7923
11224TIP3   OH255162   1.991   4.191  12.742 -0.8099 -0.2711 -0.0999
11224TIP3    H155163   2.063   4.136  12.713 -0.7063  0.7539 -1.8365
11224TIP3    H255164   1.927   4.130  12.780 -0.2369 -1.4501 -1.0287
11225TIP3   OH255165   3.500   5.520  14.000 -0.0540 -0.5636  0.5567
11225TIP3    H155166   3.434   5.549  14.063  1.1489  0.3468  1.4211
11225TIP3    H255167   3.584   5.533  14.045  0.8918  1.1709 -1.6046
11226TIP3   OH255168   3.412   6.171  12.375  0.1817  0.0988  0.3873
11226TIP3    H155169   3.447   6.110  12.439  0.2957  2.2660  2.4317
11226TIP3    H255170   3.340   6.123  12.333  1.3358 -2.0059  0.7776
11227TIP3   OH255171   3.280   2.203  16.780  0.2281  0.0489  0.2735
11227TIP3    H155172   3.256   2.254  16.856 -1.8205  0.0089 -0.3207
11227TIP3    H255173   3.197   2.167  16.748  0.8766  0.9977 -2.6298
11228TIP3   OH255174   4.829   4.589  10.651  0.1028  0.1282  0.2128
11228TIP3    H155175   4.788   4.530  10.714  1.1489 -1.2166 -0.3276
11228TIP3    H255176   4.885   4.532  10.597 -0.8455  1.2114 -2.0064
11229TIP3   OH255177   6.081   4.308   4.136  0.2703  0.1724 -0.0558
11229TIP3    H155178   6.108   4.352   4.216 -0.1372  1.0543 -0.3960
11229TIP3    H255179   6.039   4.227   4.166  0.1591  0.4758  0.6210
11230TIP3   OH255180   3.523   2.334   4.643 -0.4353 -0.4900 -0.2308
11230TIP3    H155181   3.484   2.403   4.697 -0.1297  1.2347 -2.1070
11230TIP3    H255182   3.452   2.271   4.630 -1.1283  0.1358  0.4698
11231TIP3   OH255183   6.576   4.188  16.675 -0.7151  0.6022 -0.0844
11231TIP3    H155184   6.536   4.271  16.702 -0.2425  0.5362  0.8185
11231TIP3    H255185   6.501   4.134  16.648 -1.1397  0.8440  0.6076
11232TIP3   OH255186   5.440   1.351  13.323  0.0117 -0.4460 -0.1037
11232TIP3    H155187   5.425   1.257  13.314 -3.0616  0.1771 -2.2519
11232TIP3    H255188   5.420   1.370  13.414 -0.4941 -1.6771  0.0473
11233TIP3   OH255189   1.046   2.444   5.461  0.2335  0.4366  0.2746
11233TIP3    H155190   0.969   2.391   5.442 -1.1435  2.1079  1.0244
11233TIP3    H255191   1.120   2.385   5.448 -1.2133 -1.4202  0.3068
11234TIP3   OH255192   0.679   5.155  12.842 -0.0970  0.1425 -0.2823
11234TIP3    H155193   0.758   5.200  12.873 -0.2212 -0.1405  0.4585
11234TIP3    H255194   0.712   5.093  12.777  0.6701 -1.8877  1.9491
11235TIP3   OH255195   6.347   1.597   4.110  0.0003  0.0794  0.3760
11235TIP3    H155196   6.291   1.669   4.138  1.8336  1.7280 -0.1585
11235TIP3    H255197   6.327   1.586   4.017 -1.6327 -1.3740  0.8642
11236TIP3   OH255198   5.634   0.182   5.565  0.0745  0.0090  0.5364
11236TIP3    H155199   5.606   0.093   5.588 -0.0454 -0.4118 -1.1491
11236TIP3    H255200   5.729   0.177   5.561  0.2368  0.5808  2.8265
11237TIP3   OH255201   2.756   2.719   3.609  0.0063  0.2734 -0.5528
11237TIP3    H155202   2.750   2.692   3.700 -3.1108 -1.6524 -1.2627
11237TIP3    H255203   2.723   2.809   3.608  0.0052  0.2857  0.1863
11238TIP3   OH255204   1.929   4.753   4.392 -0.0237  0.2973  0.0031
11238TIP3    H155205   1.969   4.777   4.309 -0.3304 -0.1443 -0.2717
11238TIP3    H255206   1.837   4.776   4.383  0.1414  1.2178  0.6013
11239TIP3   OH255207   5.199   4.638  11.448 -0.0206  0.1952  0.1758
11239TIP3    H155208   5.171   4.548  11.430  0.9670 -0.3040  1.0626
11239TIP3    H255209   5.179   4.686  11.368 -0.6754 -0.7945 -0.2563
11240TIP3   OH255210   4.037   5.950  14.570 -0.1622  0.0523 -0.7271
11240TIP3    H155211   4.016   6.000  14.491 -0.1445  0.4295 -0.4976
11240TIP3    H255212   3.992   5.996  14.640 -0.8176 -0.7434 -0.6264
11241TIP3   OH255213   0.699   3.741   6.183  0.0457  0.6777 -0.1412
11241TIP3    H155214   0.711   3.817   6.126  1.5868  0.0030 -0.7615
11241TIP3    H255215   0.763   3.753   6.253 -0.1983  0.3185  0.1460
11242TIP3   OH255216   1.044   6.133   0.974 -0.8937  0.4590 -0.3411
11242TIP3    H155217   0.957   6.165   0.998 -0.2426  1.4422  0.7948
11242TIP3    H255218   1.103   6.178   1.034  0.3977 -0.2519 -1.0546
11243TIP3   OH255219   4.857   4.135  13.577  0.5062  0.4409  0.8603
11243TIP3    H155220   4.839   4.090  13.495  0.3105 -1.3384  1.8422
11243TIP3    H255221   4.912   4.210  13.553  2.8203 -1.6467 -0.5556
11244TIP3   OH255222   4.663   5.660  14.482 -0.3588  1.1336 -0.5426
11244TIP3    H155223   4.694   5.618  14.402 -0.6449 -1.9920  0.9076
11244TIP3    H255224   4.591   5.604  14.512 -0.3321  2.2954  1.8121
11245TIP3   OH255225   1.716   0.848  15.631 -0.4272 -0.3261  0.1329
11245TIP3    H155226   1.798   0.881  15.667  0.7374 -2.5940 -0.3396
11245TIP3    H255227   1.731   0.847  15.536 -1.2154 -0.1668  0.0058
11246TIP3   OH255228   1.143   4.304  10.789  0.1780  0.4153 -0.7826
11246TIP3    H155229   1.162   4.211  10.782 -2.3374 -0.2593  0.7952
11246TIP3    H255230   1.106   4.327  10.703 -0.7591 -0.4532 -0.6302
11247TIP3   OH255231   1.259   2.796  15.376  0.5581 -0.1495 -0.5941
11247TIP3    H155232   1.231   2.820  15.465 -1.5716 -0.7814 -1.0626
11247TIP3    H255233   1.252   2.876  15.326  1.1439  0.0596 -0.3498
11248TIP3   OH255234   5.034   1.210   5.935  0.1780  0.1182  0.8179
11248TIP3    H155235   5.071   1.197   5.847  0.3758  2.0900  0.5764
11248TIP3    H255236   4.978   1.134   5.949  1.7035 -1.2467 -0.1896
11249TIP3   OH255237   4.021   1.460   4.172  0.3679 -0.3071 -0.1984
11249TIP3    H155238   4.034   1.365   4.168 -0.1530 -0.3613 -0.8128
11249TIP3    H255239   3.926   1.471   4.167  0.3488  0.2009  1.0362
11250TIP3   OH255240   1.161   2.957  16.268 -0.4541  0.5968 -0.0061
11250TIP3    H155241   1.166   2.980  16.360 -0.5213  0.2032  0.0972
11250TIP3    H255242   1.234   2.897  16.254  0.4475  1.8094 -0.5565
11251TIP3   OH255243   1.283   1.861   0.126  0.1094  0.3674  0.3138
11251TIP3    H155244   1.372   1.875   0.159  0.2442 -1.8037  0.8958
11251TIP3    H255245   1.278   1.768   0.108 -1.6312  0.7017 -1.0089
11252TIP3   OH255246   6.016   5.876   5.447 -0.1260 -0.4179  0.0778
11252TIP3    H155247   6.053   5.871   5.358 -0.2020 -1.2528  0.0909
11252TIP3    H255248   6.021   5.787   5.480  4.7474  0.6870  2.9010
11253TIP3   OH255249   3.349   0.388  16.363 -0.2823 -0.6503 -0.3683
11253TIP3    H155250   3.411   0.391  16.291 -0.3770 -0.6279 -0.4476
11253TIP3    H255251   3.395   0.340  16.432  0.3031  0.4644  0.0365
11254TIP3   OH255252   2.475   4.912   4.774  0.3442 -0.1836  0.3050
11254TIP3    H155253   2.536   4.985   4.780 -0.4561  0.4310  0.8824
11254TIP3    H255254   2.457   4.888   4.864 -0.5989 -0.1050  0.1341
11255TIP3   OH255255   5.269   4.378  15.340 -0.0248  0.3728  0.0554
11255TIP3    H155256   5.363   4.379  15.319  0.0869  1.3582  0.5705
11255TIP3    H255257   5.246   4.470  15.349 -1.1224  0.1429 -0.3978
11256TIP3   OH255258   6.747   6.256   0.138  0.6767  0.4189 -0.3033
11256TIP3    H155259   6.657   6.242   0.167  0.5795  1.2634 -0.1764
11256TIP3    H255260   6.799   6.250   0.218  0.7851 -0.5272 -0.4458
11257TIP3   OH255261   2.031   1.110   3.593  0.0223 -0.2801  0.6940
11257TIP3    H155262   2.014   1.167   3.518  0.7934 -0.9389  0.0173
11257TIP3    H255263   2.073   1.167   3.658  0.1523  0.0830  0.2923
11258TIP3   OH255264   5.710   1.843  15.452  0.2920 -0.1538  0.0188
11258TIP3    H155265   5.673   1.932  15.447  1.2311  0.2427  0.0213
11258TIP3    H255266   5.640   1.787  15.419  0.1825  0.7295 -1.3098
11259TIP3   OH255267   6.160   5.798   6.060  0.6208  0.1173 -0.5964
11259TIP3    H155268   6.211   5.847   5.995 -1.0181  0.8148 -1.3899
11259TIP3    H255269   6.153   5.858   6.135 -1.9571  1.4035 -1.8273
11260TIP3   OH255270   3.587   6.211  12.734 -0.1913 -0.0625  0.5607
11260TIP3    H155271   3.566   6.126  12.695 -1.0398  0.2808  0.2505
11260TIP3    H255272   3.507   6.263  12.723 -0.3926  0.1052  2.5769
11261TIP3   OH255273   6.250   6.421  13.324 -0.4577  0.2826 -0.3570
11261TIP3    H155274   6.202   6.348  13.285  0.3867 -0.8256  0.6352
11261TIP3    H255275   6.185   6.491  13.331 -1.8710 -1.1013  0.7364
11262TIP3   OH255276   1.178   3.921   4.147 -0.4347 -0.3969  0.4763
11262TIP3    H155277   1.086   3.895   4.139  0.2288 -2.1802 -1.7773
11262TIP3    H255278   1.197   3.968   4.066  0.4163  0.6993  1.3060
11263TIP3   OH255279   0.789   1.464   1.890  0.5400  0.2272 -0.0548
11263TIP3    H155280   0.779   1.558   1.873  1.1409  0.1980 -0.5927
11263TIP3    H255281   0.881   1.454   1.917  0.7067 -0.3185 -0.8012
11264TIP3   OH255282   5.040   1.380   0.562  0.0375 -0.1362 -0.1509
11264TIP3    H155283   5.046   1.468   0.524  1.8391  0.2812  1.0136
11264TIP3    H255284   5.106   1.329   0.515  0.3534 -0.3457  0.5106
11265TIP3   OH255285   1.779   2.498  14.303  0.6681  0.6802 -0.1694
11265TIP3    H155286   1.741   2.481  14.217  1.3069  0.9939 -0.5096
11265TIP3    H255287   1.703   2.501  14.362  0.3151 -0.5582 -0.5481
11266TIP3   OH255288   2.470   0.205  13.631  0.1964 -0.1637  0.2181
11266TIP3    H155289   2.490   0.298  13.643  0.7972 -0.1127 -1.0588
11266TIP3    H255290   2.549   0.160  13.662  0.3624 -0.1943 -0.2524
11267TIP3   OH255291   3.152   4.568  12.151  0.3285  0.1690  0.7285
11267TIP3    H155292   3.142   4.487  12.102 -1.0856  1.3773 -1.0516
11267TIP3    H255293   3.177   4.633  12.085 -0.1896  1.5210  1.8288
11268TIP3   OH255294   4.764   5.106   1.201  0.0533 -0.7685  0.0451
11268TIP3    H155295   4.843   5.053   1.188  0.2530 -0.6689  0.8596
11268TIP3    H255296   4.697   5.044   1.227 -0.8660 -1.2716 -3.2103
11269TIP3   OH255297   6.033   0.321   1.432  0.2892 -0.5774 -0.0023
11269TIP3    H155298   6.009   0.240   1.477 -0.4935 -1.0834 -1.3041
11269TIP3    H255299   6.039   0.387   1.501  1.3673 -1.8399  1.1195
11270TIP3   OH255300   3.262   0.847   0.603 -0.1567 -0.0420 -0.1584
11270TIP3    H155301   3.221   0.933   0.599 -0.9515 -0.4472 -0.8411
11270TIP3    H255302   3.200   0.789   0.559 -0.0990 -1.1535  1.1929
11271TIP3   OH255303   0.447   0.224   1.889 -0.1392  0.7338 -0.6047
11271TIP3    H155304   0.500   0.289   1.935  1.3046 -0.2750 -0.8454
11271TIP3    H255305   0.366   0.219   1.940  0.2350  1.7996  0.1173
11272TIP3   OH255306   0.655   0.216  15.107  0.3151  0.1243  0.0378
11272TIP3    H155307   0.646   0.206  15.202  1.7927 -2.5534 -0.0618
11272TIP3    H255308   0.749   0.207  15.091  0.3091  2.4231 -1.5192
11273TIP3   OH255309   3.020   3.257   1.393  0.1667 -0.4424  0.9817
11273TIP3    H155310   3.110   3.258   1.426  0.4313 -3.5123  0.4989
11273TIP3    H255311   3.028   3.230   1.301 -1.0453  2.1301  0.0690
11274TIP3   OH255312   3.824   1.027  16.501  0.3729 -0.1420  0.3299
11274TIP3    H155313   3.828   1.036  16.406 -1.2798  0.5779  0.3199
11274TIP3    H255314   3.899   1.077  16.533 -0.0185  0.9926 -0.5158
11275TIP3   OH255315   2.271   3.404   5.561 -0.2032 -0.3750  0.3204
11275TIP3    H155316   2.298   3.470   5.497  2.0908 -0.4822  1.1144
11275TIP3    H255317   2.251   3.326   5.509 -0.0201  0.0462 -0.3897
11276TIP3   OH255318   2.358   0.703   2.969 -0.1459 -0.9681 -0.5812
11276TIP3    H155319   2.341   0.712   2.876 -1.8189 -2.4548 -0.4427
11276TIP3    H255320   2.278   0.664   3.005 -0.2332  1.2379  1.7756
11277TIP3   OH255321   5.602   5.922   0.328  0.3438  0.0919 -0.6008
11277TIP3    H155322   5.677   5.923   0.387  0.5873  0.7869 -0.9127
11277TIP3    H255323   5.527   5.940   0.385  0.8004  2.7550 -0.7733
11278TIP3   OH255324   4.547   6.082  14.042  0.2008  0.1433  0.3755
11278TIP3    H155325   4.463   6.036  14.053  0.7448 -1.2395 -0.9749
11278TIP3    H255326   4.553   6.097  13.947  1.4573  0.2610  0.4714
11279TIP3   OH255327   2.398   3.688  11.089 -0.5806  0.3150 -0.2502
11279TIP3    H155328   2.459   3.741  11.141 -0.4549 -0.3802  0.3288
11279TIP3    H255329   2.369   3.620  11.150  1.9046 -2.3648 -1.9306
11280TIP3   OH255330   0.710   6.465   1.227  0.0693 -0.1211  0.1555
11280TIP3    H155331   0.663   6.389   1.261  1.2396 -1.4558 -1.1299
11280TIP3    H255332   0.653   6.539   1.245 -2.0860 -1.5787 -0.5065
11281TIP3   OH255333   4.556   0.129  15.955 -0.3703  0.3821  0.2842
11281TIP3    H155334   4.598   0.043  15.943 -3.1556 -0.9815 -0.1346
11281TIP3    H255335   4.625   0.185  15.991  2.2544 -1.2856 -2.0070
11282TIP3   OH255336   3.317   5.291   5.501 -0.4319  0.2635 -0.4923
11282TIP3    H155337   3.377   5.256   5.566  0.2282  3.4856  0.6949
11282TIP3    H255338   3.370   5.302   5.422  0.4566  2.5011  0.3696
11283TIP3   OH255339   0.512   0.184  13.203  0.4233  0.0879  0.0242
11283TIP3    H155340   0.458   0.236  13.144  0.6381  0.9456  0.5680
11283TIP3    H255341   0.557   0.121  13.147 -1.1358 -0.6255 -0.4364
11284TIP3   OH255342   5.493   3.008  12.853 -1.0324 -0.2244 -0.4264
11284TIP3    H155343   5.579   3.028  12.888 -0.3117 -0.5929 -1.9415
11284TIP3    H255344   5.454   3.093  12.833 -0.0924 -0.1050 -1.8644
11285TIP3   OH255345   6.074   1.303   4.563 -0.1105 -0.5896  0.1416
11285TIP3    H155346   6.004   1.368   4.561  0.5145  0.0603 -1.7152
11285TIP3    H255347   6.028   1.219   4.574 -1.0619 -0.0156  0.5489
11286TIP3   OH255348   0.266   0.851  12.605  0.0443 -0.0315  0.0718
11286TIP3    H155349   0.361   0.859  12.611 -0.0370  0.4562  0.6740
11286TIP3    H255350   0.237   0.833  12.694 -0.2747 -1.9690 -0.3861
11287TIP3   OH255351   5.782   5.207   3.890  0.2528 -0.2529  0.5456
11287TIP3    H155352   5.802   5.117   3.917  0.4155 -0.6413 -0.8671
11287TIP3    H255353   5.847   5.228   3.824  1.0730  1.4112  1.8394
11288TIP3   OH255354   4.681   5.327  13.615 -0.0322 -0.0411 -0.1096
11288TIP3    H155355   4.707   5.293  13.530 -0.5617 -0.3619 -0.1462
11288TIP3    H255356   4.654   5.249  13.665 -0.6899  0.2521  0.0033
11289TIP3   OH255357   5.989   6.565   1.656  0.2339 -0.0614 -0.4972
11289TIP3    H155358   5.901   6.535   1.631 -0.2103  1.4508 -0.8557
11289TIP3    H255359   5.973   6.627   1.727  1.1253 -0.7798  0.3341
11290TIP3   OH255360   1.247   6.514  14.169  0.2141 -0.3128  0.2403
11290TIP3    H155361   1.278   6.599  14.199 -1.5816  0.1150  0.9158
11290TIP3    H255362   1.258   6.516  14.074 -0.4640  0.9266  0.1902
11291TIP3   OH255363   0.591   3.248   5.875  0.0517  0.3045 -0.3891
11291TIP3    H155364   0.564   3.208   5.958 -0.3762  2.3048  0.4598
11291TIP3    H255365   0.676   3.288   5.894  0.3099  0.1117 -1.1272
11292TIP3   OH255366   0.030   4.346  12.361 -0.3166 -0.1846  0.3692
11292TIP3    H155367  -0.001   4.257  12.378  1.1727 -0.8513 -0.3022
11292TIP3    H255368   0.109   4.354  12.415 -1.1124  1.1712  1.3726
11293TIP3   OH255369   4.178   2.427   0.968  0.1933  0.1085  0.0648
11293TIP3    H155370   4.182   2.331   0.966  2.7103  0.1056  1.7976
11293TIP3    H255371   4.141   2.447   1.054 -0.0413  0.6859 -0.1721
11294TIP3   OH255372   2.054   2.548  15.580 -0.2454 -0.0937 -0.3048
11294TIP3    H155373   2.095   2.586  15.658 -0.4655 -1.9713  0.7499
11294TIP3    H255374   1.962   2.572  15.587  0.0976  1.5010 -1.0781
11295TIP3   OH255375   1.242   5.085   5.679  0.1569  0.3139 -0.0306
11295TIP3    H155376   1.221   5.031   5.602 -3.0738  0.8727  0.3730
11295TIP3    H255377   1.201   5.170   5.660  0.7071  0.9672  1.6250
11296TIP3   OH255378   5.284   6.698  13.323 -0.2972  0.0964 -0.4374
11296TIP3    H155379   5.355   6.637  13.346 -0.5777 -0.5869 -1.3681
11296TIP3    H255380   5.284   6.761  13.394  0.8832 -0.2223 -0.1313
11297TIP3   OH255381   3.615   2.863   2.362 -0.1529  0.4713  0.5548
11297TIP3    H155382   3.673   2.885   2.289 -0.5357  0.2788  0.1910
11297TIP3    H255383   3.653   2.909   2.438 -0.6101  1.9063 -0.0684
11298TIP3   OH255384   0.134   1.171  11.961 -1.1275  0.3549 -0.1749
11298TIP3    H155385   0.105   1.112  11.892  0.0551 -0.9353  0.4193
11298TIP3    H255386   0.055   1.221  11.984 -1.7421  0.1868 -1.8237
11299TIP3   OH255387   2.757   2.666   0.112  0.4398  0.3826  0.1697
11299TIP3    H155388   2.709   2.706   0.185 -0.2703 -0.8463  0.4090
11299TIP3    H255389   2.703   2.684   0.035 -1.5017 -2.6814  0.7233
11300TIP3   OH255390   3.045   0.310   4.842  0.5083  0.5415 -0.0599
11300TIP3    H155391   2.989   0.332   4.767 -0.3897  1.0144  0.7386
11300TIP3    H255392   2.984   0.301   4.915  1.0774 -2.5829  0.0942
11301TIP3   OH255393   5.641   3.799   1.857  0.3643  0.1566 -0.2626
11301TIP3    H155394   5.729   3.820   1.886 -0.0534 -0.0224  1.2177
11301TIP3    H255395   5.596   3.883   1.852  0.8411  0.3251 -1.8054
11302TIP3   OH255396   2.321   2.276   4.379 -0.1983  0.5500  0.2929
11302TIP3    H155397   2.296   2.273   4.472 -1.4579 -0.5964 -0.0710
11302TIP3    H255398   2.380   2.202   4.368 -0.9030  0.0466 -0.0688
11303TIP3   OH255399   5.421   0.320  13.678  0.2991  0.0943  0.0327
11303TIP3    H155400   5.494   0.319  13.617 -0.1254 -1.8450 -0.4558
11303TIP3    H255401   5.425   0.236  13.723 -1.0427  0.3731  0.7106
11304TIP3   OH255402   3.707   0.555   0.786 -0.5768  0.2555 -0.3096
11304TIP3    H155403   3.663   0.637   0.763  0.2170  0.4612 -1.1644
11304TIP3    H255404   3.664   0.526   0.866 -0.8996  1.4854 -0.0244
11305TIP3   OH255405   3.901   2.936   0.638 -0.5160  0.4065  0.3191
11305TIP3    H155406   3.841   3.007   0.658 -2.2015 -1.2552  1.3080
11305TIP3    H255407   3.947   2.919   0.720  0.3005  0.7386 -0.0659
11306TIP3   OH255408   0.424   4.224  12.936  0.7579  0.0055 -0.1212
11306TIP3    H155409   0.477   4.165  12.990  1.2078  0.4508 -0.0803
11306TIP3    H255410   0.447   4.201  12.846  0.6355 -0.1550 -0.1126
11307TIP3   OH255411   6.369   1.377  13.297  0.1425 -0.6542  0.4158
11307TIP3    H155412   6.294   1.411  13.346 -0.1724 -0.9642  0.1617
11307TIP3    H255413   6.445   1.403  13.347 -0.1145  0.0416  0.4543
11308TIP3   OH255414   5.665   1.745   2.126 -0.0412  0.1518  0.2601
11308TIP3    H155415   5.635   1.797   2.051  0.6595  0.3564  0.1216
11308TIP3    H255416   5.591   1.746   2.187 -1.3701 -1.6251 -1.2530
11309TIP3   OH255417   1.372   5.952  14.932  0.3684  0.3993 -0.4438
11309TIP3    H155418   1.418   5.907  14.861  0.0578  0.3266 -0.6028
11309TIP3    H255419   1.426   5.937  15.009  1.3200  1.4657 -0.8892
11310TIP3   OH255420   1.167   4.016  17.219  0.2670 -0.4692 -0.1412
11310TIP3    H155421   1.251   4.058  17.239  0.7005 -1.7597  0.7916
11310TIP3    H255422   1.154   3.953  17.290 -1.1791 -0.7363 -0.6350
11311TIP3   OH255423   0.438   0.153  14.958 -0.1825  0.1952  0.1643
11311TIP3    H155424   0.427   0.065  14.994  0.2205 -0.0497 -0.3018
11311TIP3    H255425   0.523   0.181  14.991 -1.4119  1.4305  2.4065
11312TIP3   OH255426   2.942   0.652  14.341  0.1780  0.3163 -0.0870
11312TIP3    H155427   2.942   0.745  14.319  0.6493  0.6602  1.2973
11312TIP3    H255428   3.031   0.634  14.372 -0.1504 -0.3923  0.4707
11313TIP3   OH255429   6.461   5.754   0.626 -0.4360  0.0754  0.0848
11313TIP3    H155430   6.445   5.697   0.551  0.1768 -0.8606  0.6548
11313TIP3    H255431   6.373   5.777   0.658 -0.6834 -0.4132 -0.2467
11314TIP3   OH255432   4.195   0.960  15.605  0.2472 -0.5579  0.5378
11314TIP3    H155433   4.251   0.893  15.566  0.0952 -0.8424  0.8032
11314TIP3    H255434   4.117   0.961  15.550  1.4554  1.4482 -1.2031
11315TIP3   OH255435   4.848   5.917   1.864 -0.1098  0.0834  0.6081
11315TIP3    H155436   4.780   5.904   1.930 -0.2154 -0.3957  0.4091
11315TIP3    H255437   4.918   5.963   1.909 -0.0182 -0.5918  1.1545
11316TIP3   OH255438   5.355   1.402  14.841  0.1165 -0.0436  0.1452
11316TIP3    H155439   5.371   1.475  14.902 -1.9012  1.2749 -0.8503
11316TIP3    H255440   5.419   1.414  14.771  1.0594 -0.3590  0.9411
11317TIP3   OH255441   6.759   5.049   5.731  0.0222 -0.5699 -0.0886
11317TIP3    H155442   6.845   5.010   5.748  0.9022  0.8618 -1.1550
11317TIP3    H255443   6.774   5.110   5.659 -1.7151  0.3122  0.2721
11318TIP3   OH255444   3.226   0.781   2.909 -0.3379 -0.4530  0.3241
11318TIP3    H155445   3.270   0.713   2.857  1.1063  0.4908  0.2775
11318TIP3    H255446   3.285   0.856   2.904 -0.8598  0.0962  2.1962
11319TIP3   OH255447   4.174   1.667  16.206 -0.4516 -0.2016 -0.3097
11319TIP3    H155448   4.259   1.637  16.174 -0.5686  0.4579 -1.2618
11319TIP3    H255449   4.125   1.689  16.126 -1.3705 -0.2108  0.2509
11320TIP3   OH255450   5.148   1.922   5.945 -0.3432  0.1023  0.3966
11320TIP3    H155451   5.128   2.015   5.934 -0.5879  0.1371  1.1165
11320TIP3    H255452   5.118   1.881   5.864  0.8800  0.8315 -0.4279
11321TIP3   OH255453   0.725   6.719  15.330  0.0250 -0.2360 -0.0110
11321TIP3    H155454   0.813   6.707  15.292 -0.7644 -0.1480 -1.9030
11321TIP3    H255455   0.715   6.813  15.339 -0.1834 -0.2073 -0.5407
11322TIP3   OH255456   3.521   0.687   1.997  0.1299 -0.2214  0.5896
11322TIP3    H155457   3.444   0.740   1.977  1.0884  1.3576  0.9866
11322TIP3    H255458   3.595   0.745   1.981  1.2162 -1.4542  1.0141
11323TIP3   OH255459   2.749   5.856   0.356 -0.0750 -0.4182  0.0863
11323TIP3    H155460   2.799   5.792   0.304 -0.1690 -1.1106  0.8352
11323TIP3    H255461   2.701   5.802   0.420  0.7665  0.4992  1.5042
11324TIP3   OH255462   0.033   2.521  14.339  0.0679  0.1820  0.1518
11324TIP3    H155463  -0.057   2.502  14.364 -0.9920  1.5815 -2.4610
11324TIP3    H255464   0.069   2.436  14.313 -0.7960 -0.2257  0.2831
11325TIP3   OH255465   0.401   3.247   1.221 -0.1694 -0.0804  0.0014
11325TIP3    H155466   0.405   3.260   1.316  1.1328 -1.4505  0.1628
11325TIP3    H255467   0.491   3.222   1.197 -0.7113 -0.6820 -1.4403
11326TIP3   OH255468   0.018   5.135  15.427  0.0195 -0.0774  0.0477
11326TIP3    H155469  -0.055   5.100  15.479 -1.7967  1.9329 -1.0784
11326TIP3    H255470   0.054   5.058  15.383 -0.3971 -1.3416  1.8123
11327TIP3   OH255471   6.269   5.218  17.214 -0.4618 -0.2147 -0.2654
11327TIP3    H155472   6.348   5.271  17.217 -1.0861  0.6526  1.4233
11327TIP3    H255473   6.234   5.232  17.125  0.1810  1.0065 -0.3359
11328TIP3   OH255474   4.756   5.515  14.248 -0.2013  0.0711 -0.7018
11328TIP3    H155475   4.700   5.510  14.170 -1.0249  1.3103 -0.2050
11328TIP3    H255476   4.781   5.425  14.265 -1.6142 -0.4477 -1.2537
11329TIP3   OH255477   2.511   0.895  14.318 -0.1365 -0.0554  0.0205
11329TIP3    H155478   2.443   0.834  14.289  0.7744 -1.1399  0.1060
11329TIP3    H255479   2.518   0.959  14.246 -0.0817 -0.9064 -0.7472
11330TIP3   OH255480   5.333   0.247   2.053 -0.2667 -0.2314 -0.3180
11330TIP3    H155481   5.370   0.314   2.110  1.6584 -1.1048 -0.5124
11330TIP3    H255482   5.408   0.210   2.007 -1.4403 -1.7005 -1.1063
11331TIP3   OH255483   5.211   6.125   2.370  0.1888 -0.0223 -0.0907
11331TIP3    H155484   5.133   6.134   2.424  0.5088  1.0126  0.1991
11331TIP3    H255485   5.194   6.046   2.317 -1.8559  1.2035 -1.3620
11332TIP3   OH255486   4.114   1.348   3.391 -0.7627 -0.1492  0.2552
11332TIP3    H155487   4.119   1.381   3.481  1.2926  0.3857 -0.0408
11332TIP3    H255488   4.144   1.420   3.337 -0.7308 -0.9218 -0.7715
11333TIP3   OH255489   6.111   6.385   0.515 -0.0640 -0.0859  0.3594
11333TIP3    H155490   6.090   6.294   0.495 -0.0477 -0.6340  2.6481
11333TIP3    H255491   6.207   6.386   0.520 -0.0710  0.0119  0.4856
11334TIP3   OH255492   4.791   6.521  15.834 -0.1372 -0.2505 -0.3161
11334TIP3    H155493   4.818   6.532  15.925 -0.0341 -1.7533 -0.1501
11334TIP3    H255494   4.865   6.479  15.791 -0.5533 -0.4316 -0.8706
11335TIP3   OH255495   0.669   2.456  16.486 -0.1924 -0.2536  0.4351
11335TIP3    H155496   0.624   2.377  16.512 -3.2271  0.9100 -1.0214
11335TIP3    H255497   0.692   2.442  16.394 -0.7111  0.5233  0.1776
11336TIP3   OH255498   3.308   6.605  13.363 -0.0725  0.1351  0.0343
11336TIP3    H155499   3.244   6.591  13.433  1.2124 -0.6875  1.0724
11336TIP3    H255500   3.282   6.543  13.294 -0.7939  0.2958  0.1542
11337TIP3   OH255501   3.790   4.473   1.674 -0.0292 -0.2879  0.2948
11337TIP3    H155502   3.713   4.430   1.637 -1.5815  0.6949  2.2751
11337TIP3    H255503   3.859   4.462   1.608 -1.0755 -3.6184 -0.2908
11338TIP3   OH255504   5.641   2.794  13.912  0.3254  0.4949 -0.0360
11338TIP3    H155505   5.568   2.757  13.863  1.5656 -1.9518 -0.0764
11338TIP3    H255506   5.602   2.864  13.964 -2.0432 -0.7843 -0.0574
11339TIP3   OH255507   1.265   1.089  10.693 -0.0805  0.1713 -0.1164
11339TIP3    H155508   1.179   1.070  10.656 -1.4853  3.0182  1.4698
11339TIP3    H255509   1.288   1.174  10.656  1.9204 -0.4078 -0.2516
11340TIP3   OH255510   1.081   5.955   4.235  0.0723  0.2322  0.0742
11340TIP3    H155511   1.151   5.889   4.241  1.8374  2.1748  2.0477
11340TIP3    H255512   1.058   5.957   4.142  0.6591 -2.4307 -0.1841
11341TIP3   OH255513   2.392   5.269   0.710 -0.2497  0.3732  0.3982
11341TIP3    H155514   2.379   5.269   0.805  0.3880  1.2047  0.4861
11341TIP3    H255515   2.464   5.207   0.696 -1.2638 -0.8203  0.3159
11342TIP3   OH255516   2.596   4.194  14.424 -0.5572  0.2151 -0.7448
11342TIP3    H155517   2.510   4.168  14.389 -1.0095  0.9175 -0.1643
11342TIP3    H255518   2.581   4.281  14.460  0.0633 -0.2623  0.6689
11343TIP3   OH255519   1.053   4.351   5.232 -0.4189 -0.7262 -0.0574
11343TIP3    H155520   0.985   4.317   5.173  0.2416  1.4336 -2.1438
11343TIP3    H255521   1.013   4.349   5.319 -2.1758 -2.0111 -0.8650
11344TIP3   OH255522   2.845   3.133   2.639  0.0047 -0.2263 -0.5062
11344TIP3    H155523   2.895   3.137   2.557  1.5574  1.0098  0.4632
11344TIP3    H255524   2.772   3.194   2.626 -0.5329 -1.0597 -1.4597
11345TIP3   OH255525   2.122   5.692   3.064  0.3335  0.3776  0.7410
11345TIP3    H155526   2.203   5.742   3.064  0.9991 -0.4946 -4.0850
11345TIP3    H255527   2.147   5.604   3.092  0.7134  0.5697  0.9970
11346TIP3   OH255528   4.369   3.271   3.938  0.0188  0.2554 -0.4515
11346TIP3    H155529   4.321   3.227   3.868  0.4585 -2.0141  0.6181
11346TIP3    H255530   4.459   3.278   3.905  0.1831 -0.6404 -0.2267
11347TIP3   OH255531   4.695   4.704  13.341 -0.3422 -0.1988 -0.3241
11347TIP3    H155532   4.686   4.721  13.247 -1.3588  0.6949 -0.0711
11347TIP3    H255533   4.610   4.726  13.377 -0.4991 -2.2163  0.5706
11348TIP3   OH255534   1.077   1.531  15.830  0.4073  0.2051  0.0057
11348TIP3    H155535   1.151   1.591  15.819 -0.6590  1.3099 -1.4414
11348TIP3    H255536   1.083   1.472  15.755 -2.1503  2.5117 -2.0980
11349TIP3   OH255537   0.271   4.156   3.316 -0.0769 -0.1202  0.1684
11349TIP3    H155538   0.297   4.157   3.224  0.7850  3.1125  0.3868
11349TIP3    H255539   0.177   4.177   3.314 -0.5265 -2.0492 -0.0511
11350TIP3   OH255540   3.537   1.051   0.149 -1.1828 -0.2802  0.2534
11350TIP3    H155541   3.529   1.143   0.124 -1.8690 -0.3997  0.0176
11350TIP3    H255542   3.480   1.042   0.226 -1.3784 -0.5781  0.0753
11351TIP3   OH255543   0.626   0.228   5.720  0.3178 -0.0170 -0.3594
11351TIP3    H155544   0.706   0.222   5.773 -1.1246  2.8628  2.3130
11351TIP3    H255545   0.651   0.279   5.644  0.9035  1.4851  0.8154
11352TIP3   OH255546   5.523   5.451   6.195  0.8805 -0.4317 -0.2205
11352TIP3    H155547   5.542   5.516   6.263 -0.2644  1.0406 -1.2754
11352TIP3    H255548   5.469   5.386   6.238  1.4412 -0.3143  0.6747
11353TIP3   OH255549   2.144   0.297  15.981  0.3277 -0.1331  0.1153
11353TIP3    H155550   2.215   0.247  16.022  1.7791  3.0017  1.6155
11353TIP3    H255551   2.069   0.284  16.039  0.7607 -0.4018  0.6224
11354TIP3   OH255552   1.471   0.201  12.481  0.2032  0.9095  0.9548
11354TIP3    H155553   1.473   0.204  12.577 -1.0924  0.5313  1.0142
11354TIP3    H255554   1.379   0.182  12.461  0.7815 -0.6368 -0.3230
11355TIP3   OH255555   3.860   0.103  15.786 -0.5200 -0.6551  0.1647
11355TIP3    H155556   3.872   0.077  15.878  0.7266  1.3028  0.5872
11355TIP3    H255557   3.909   0.037  15.736  0.6638 -0.4588  1.0496
11356TIP3   OH255558   4.840   1.997   4.288  0.1904 -0.2709 -0.4660
11356TIP3    H155559   4.877   2.072   4.243 -0.1367  0.7259  0.9088
11356TIP3    H255560   4.771   1.965   4.229  1.7400 -0.8113 -2.0176
11357TIP3   OH255561   3.825   0.394   0.572  0.2070 -0.7056 -0.4184
11357TIP3    H155562   3.755   0.437   0.621  0.7650 -1.1308  0.7630
11357TIP3    H255563   3.852   0.458   0.506 -0.4174 -0.0585 -0.0488
11358TIP3   OH255564   6.583   2.338   1.980  0.2483 -0.4429 -0.3385
11358TIP3    H155565   6.571   2.413   1.921  0.1809  2.1342  2.7779
11358TIP3    H255566   6.676   2.340   2.002  0.3466 -1.6180 -0.6128
11359TIP3   OH255567   2.541   3.820  13.092  0.1249  0.0613  0.2595
11359TIP3    H155568   2.593   3.813  13.012  1.4681  3.1556  0.8052
11359TIP3    H255569   2.602   3.848  13.159 -1.9047  2.3604  1.2503
11360TIP3   OH255570   5.938   2.290  13.847 -0.1842  0.1425  0.0554
11360TIP3    H155571   5.880   2.365  13.841  2.0667  2.0421  0.8739
11360TIP3    H255572   6.018   2.318  13.803  2.0047 -0.3564  3.4641
11361TIP3   OH255573   5.017   0.416   3.211 -0.6001 -0.1237 -0.0581
11361TIP3    H155574   5.112   0.407   3.220 -0.6269 -1.7438 -1.2632
11361TIP3    H255575   4.992   0.473   3.284  0.9329 -1.9449  1.9595
11362TIP3   OH255576   1.060   2.881  13.346  0.0680  0.1644  0.3050
11362TIP3    H155577   1.102   2.967  13.350  0.7441 -0.0525 -1.5226
11362TIP3    H255578   1.006   2.877  13.424 -0.6130  2.5910  0.0027
11363TIP3   OH255579   6.111   6.354   0.830  0.0948  0.6795 -0.3116
11363TIP3    H155580   6.086   6.294   0.900  0.5547  1.5635  0.6168
11363TIP3    H255581   6.081   6.311   0.750 -1.3199  0.1235  0.4950
11364TIP3   OH255582   4.575   0.749   2.446 -0.2634 -0.3168  0.9046
11364TIP3    H155583   4.531   0.829   2.474  1.4064  1.2236 -0.6426
11364TIP3    H255584   4.623   0.775   2.367 -0.6494 -3.1663 -0.3376
11365TIP3   OH255585   6.075   4.875  15.248 -0.0460  0.0738  0.4033
11365TIP3    H155586   6.110   4.938  15.311  0.0469  0.2782  0.1480
11365TIP3    H255587   6.086   4.917  15.163 -2.7785  1.0065  0.4804
11366TIP3   OH255588   6.235   4.921  12.313 -0.2119 -0.3998  0.4117
11366TIP3    H155589   6.157   4.967  12.282 -0.4033 -0.4508  0.8196
11366TIP3    H255590   6.230   4.835  12.271  0.3504  0.0791 -0.6648
11367TIP3   OH255591   2.568   0.960   1.743  0.3841 -0.0711  0.2096
11367TIP3    H155592   2.498   0.977   1.806 -0.6668 -1.2977 -0.6168
11367TIP3    H255593   2.526   0.963   1.658  1.5641  0.3253 -0.3749
11368TIP3   OH255594   5.255   3.628  14.336  1.0730  0.2809  0.1894
11368TIP3    H155595   5.209   3.593  14.412 -0.8605  0.0172 -1.0651
11368TIP3    H255596   5.309   3.699  14.371 -0.8344  1.0703  1.6193
11369TIP3   OH255597   6.626   2.803  14.356 -0.0337  0.3302  0.0156
11369TIP3    H155598   6.555   2.809  14.420 -0.5184 -0.7578 -0.4057
11369TIP3    H255599   6.623   2.712  14.325 -1.3716  1.3987 -3.2893
11370TIP3   OH255600   3.595   1.437   2.347  0.3675  0.0425 -0.4326
11370TIP3    H155601   3.662   1.453   2.281  0.4258  0.4559 -0.2791
11370TIP3    H255602   3.641   1.389   2.417  0.2414 -0.6297 -0.8044
11371TIP3   OH255603   1.385   4.544   5.412 -0.0782  0.0421  0.0357
11371TIP3    H155604   1.364   4.605   5.483 -0.7407 -0.2727  0.1108
11371TIP3    H255605   1.327   4.568   5.341  0.0277 -0.1650 -0.1211
11372TIP3   OH255606   5.659   5.512   2.778  0.3036 -0.1461  0.0519
11372TIP3    H155607   5.612   5.458   2.841  0.4418 -0.5750 -0.2073
11372TIP3    H255608   5.592   5.567   2.737  0.2454  0.2706  0.7102
11373TIP3   OH255609   0.545   4.308  11.296  0.2532 -0.1341 -0.5523
11373TIP3    H155610   0.624   4.335  11.249  0.4001 -0.1238 -0.3025
11373TIP3    H255611   0.479   4.297  11.228 -0.3338  2.7237 -0.5079
11374TIP3   OH255612   0.659   5.709   5.495 -0.1341  0.5846  0.0008
11374TIP3    H155613   0.676   5.742   5.584 -0.1754  1.2760 -0.2462
11374TIP3    H255614   0.593   5.640   5.508  1.6372 -0.9997  0.7765
11375TIP3   OH255615   3.772   0.788   2.869 -0.3375 -0.3807  0.0436
11375TIP3    H155616   3.821   0.710   2.898  0.1401 -0.1745 -0.2125
11375TIP3    H255617   3.837   0.858   2.865 -0.9470  0.2634  1.1879
11376TIP3   OH255618   0.995   5.575   6.877 -0.3113 -0.6147 -0.1918
11376TIP3    H155619   1.010   5.570   6.783  0.6892 -1.2594 -0.0012
11376TIP3    H255620   0.900   5.585   6.886 -0.2749  1.0177 -1.3128
11377TIP3   OH255621   4.217   3.091  16.272  0.8242 -0.7796  0.2734
11377TIP3    H155622   4.167   3.149  16.214  1.5051  0.1545  0.5999
11377TIP3    H255623   4.154   3.024  16.298  0.1285 -0.4218 -0.4376
11378TIP3   OH255624   6.595   1.385  14.857 -0.1002  0.2250 -0.4202
11378TIP3    H155625   6.651   1.392  14.780 -0.5405 -0.7576 -0.8390
11378TIP3    H255626   6.612   1.297  14.892 -1.7069 -0.2658 -0.8227
11379TIP3   OH255627   2.569   1.183   5.545 -0.2916 -0.6211 -0.0127
11379TIP3    H155628   2.485   1.147   5.575  0.3293 -1.6102  0.5977
11379TIP3    H255629   2.547   1.269   5.509 -1.3957 -0.3751  1.2057
11380TIP3   OH255630   3.683   6.252   3.622 -0.3300 -0.0107  0.2226
11380TIP3    H155631   3.680   6.194   3.545  0.1744  0.1272  0.1014
11380TIP3    H255632   3.592   6.255   3.652 -0.3797 -0.7972  0.1787
11381TIP3   OH255633   2.377   6.334  13.216  0.2303 -0.1575 -0.0465
11381TIP3    H155634   2.296   6.292  13.187 -1.1674  2.2162  0.2437
11381TIP3    H255635   2.412   6.376  13.138  0.1384  0.4293  0.2227
11382TIP3   OH255636   5.124   2.000   4.758 -0.4907 -0.0362  0.8608
11382TIP3    H155637   5.109   2.094   4.753  0.6755  0.0751 -1.4240
11382TIP3    H255638   5.072   1.964   4.685 -1.6062 -1.2721  2.2316
11383TIP3   OH255639   5.982   6.274   3.187  0.0621  0.1140  0.7455
11383TIP3    H155640   5.931   6.222   3.248 -0.5799 -1.8144 -1.3739
11383TIP3    H255641   5.950   6.364   3.198 -1.8603 -0.6422  1.3575
11384TIP3   OH255642   2.388   4.644  15.036  0.3678  0.0541  0.0800
11384TIP3    H155643   2.313   4.609  15.084  0.7978 -1.2567 -0.1837
11384TIP3    H255644   2.377   4.613  14.946  1.3773 -0.4161  0.1039
11385TIP3   OH255645   6.653   4.589  13.605 -0.2032 -0.1078  0.0938
11385TIP3    H155646   6.587   4.614  13.669 -0.2688  1.0628 -0.4310
11385TIP3    H255647   6.734   4.582  13.656 -0.1316  1.4181  0.2115
11386TIP3   OH255648   6.550   4.226   0.233 -0.2071  0.1609  0.2454
11386TIP3    H155649   6.486   4.268   0.290 -0.1850 -1.7007  1.7002
11386TIP3    H255650   6.634   4.239   0.276 -0.2343 -1.5728  0.8643
11387TIP3   OH255651   0.593   3.567  16.679 -0.1813  0.3650  0.2273
11387TIP3    H155652   0.666   3.569  16.617  0.2489  1.1543  0.7508
11387TIP3    H255653   0.523   3.615  16.634 -0.4459 -0.5254 -0.3428
11388TIP3   OH255654   1.348   4.327  12.637  0.9844 -0.1703  0.0542
11388TIP3    H155655   1.327   4.268  12.709  1.2865  0.2278  0.4754
11388TIP3    H255656   1.297   4.294  12.563 -0.5757  0.3511  0.8676
11389TIP3   OH255657   5.422   2.884   2.976 -0.0802 -0.5459  0.3390
11389TIP3    H155658   5.446   2.794   2.997  2.0992 -0.1667 -0.3533
11389TIP3    H255659   5.413   2.927   3.061  1.9673 -0.6906  0.6660
11390TIP3   OH255660   5.023   2.959  15.363 -0.2458 -0.3356 -0.7123
11390TIP3    H155661   4.929   2.943  15.367 -0.5232  0.7873 -2.2662
11390TIP3    H255662   5.035   3.046  15.401  0.1886 -0.5151 -0.4254
11391TIP3   OH255663   4.900   5.284   1.005 -0.3412 -0.0455  0.7705
11391TIP3    H155664   4.869   5.374   1.018 -2.2520 -0.0957 -2.9577
11391TIP3    H255665   4.835   5.230   1.048 -1.0613  0.2253  0.0368
11392TIP3   OH255666   3.706   5.798  15.460  0.2278 -0.5461 -0.3193
11392TIP3    H155667   3.800   5.815  15.467 -0.0217  1.3220 -1.1730
11392TIP3    H255668   3.699   5.719  15.408  1.3193 -0.4718 -0.5862
11393TIP3   OH255669   5.772   6.576  14.124  0.1715  0.5587 -0.3469
11393TIP3    H155670   5.801   6.583  14.033 -2.3721  1.9990 -1.1045
11393TIP3    H255671   5.851   6.588  14.176  1.6946 -0.4601 -2.3644
11394TIP3   OH255672   3.439   4.077  10.938 -0.0767 -0.1934  0.1140
11394TIP3    H155673   3.470   4.099  10.850 -1.6996 -0.6656 -0.5996
11394TIP3    H255674   3.516   4.084  10.993  1.1385 -0.6605 -1.4939
11395TIP3   OH255675   3.525   4.703  15.794  0.3020  0.0163  0.3226
11395TIP3    H155676   3.579   4.768  15.750  0.3648 -0.5844 -0.5151
11395TIP3    H255677   3.562   4.694  15.881  0.0216  1.4146  0.5914
11396TIP3   OH255678   4.199   2.753   5.460 -0.1905 -0.1549 -0.4226
11396TIP3    H155679   4.226   2.712   5.542  0.3302 -1.1685 -1.0978
11396TIP3    H255680   4.108   2.725   5.449 -0.5735  0.7702  0.2881
11397TIP3   OH255681   0.751   0.968   4.709 -0.1316  0.0042  0.2176
11397TIP3    H155682   0.843   0.962   4.735 -0.0122 -0.8373 -0.3652
11397TIP3    H255683   0.732   0.883   4.670 -1.6841 -0.4868  1.9710
11398TIP3   OH255684   4.583   0.678   3.343 -0.0387 -0.4502  1.0261
11398TIP3    H155685   4.662   0.720   3.378  0.0506 -1.7929  2.4964
11398TIP3    H255686   4.514   0.703   3.405 -0.7319  0.4859 -0.0973
11399TIP3   OH255687   1.508   3.276   5.293  0.4527 -0.0419 -0.2413
11399TIP3    H155688   1.486   3.365   5.322 -0.8187 -0.5189  0.3239
11399TIP3    H255689   1.603   3.276   5.283  0.6000  1.0078  1.0377
11400TIP3   OH255690   4.124   1.100  14.475  0.0986 -0.1147 -1.1019
11400TIP3    H155691   4.072   1.179  14.458  0.4381  0.6675  1.3494
11400TIP3    H255692   4.204   1.132  14.517  0.2241 -1.7720 -0.0328
11401TIP3   OH255693   2.763   4.521  13.140 -0.0469  0.4696 -0.0814
11401TIP3    H155694   2.746   4.430  13.164  0.2440  0.3462 -0.3474
11401TIP3    H255695   2.765   4.521  13.045 -0.3069  0.8011 -0.0863
11402TIP3   OH255696   0.977   0.598  10.847 -0.2921  0.5554 -0.4240
11402TIP3    H155697   0.886   0.626  10.863  0.4571  2.2585  1.0789
11402TIP3    H255698   1.001   0.640  10.765 -0.7541  0.3515 -0.6695
11403TIP3   OH255699   4.913   2.976   0.279  0.7436  0.7791  0.1376
11403TIP3    H155700   4.874   3.050   0.234  0.6526  0.3372 -0.5184
11403TIP3    H255701   4.966   2.932   0.212  0.5938  0.1055  0.4495
11404TIP3   OH255702   1.879   1.047  12.009 -0.5078  0.2123  0.0835
11404TIP3    H155703   1.943   0.984  11.978  1.6459  3.0276 -1.4433
11404TIP3    H255704   1.798   1.025  11.962 -0.8013 -3.4637  2.1520
11405TIP3   OH255705   2.669   0.378   4.570  0.5240  0.3175 -0.1497
11405TIP3    H155706   2.616   0.332   4.635 -0.0544  1.2389  0.0349
11405TIP3    H255707   2.674   0.317   4.496  0.0411 -0.1724  0.2196
11406TIP3   OH255708   2.111   1.172   4.909 -0.3710  0.0715  0.0059
11406TIP3    H155709   2.088   1.263   4.927 -0.1914  0.9714 -3.8468
11406TIP3    H255710   2.028   1.130   4.886  0.0296  0.1216 -1.5464
11407TIP3   OH255711   4.523   4.754  12.712 -0.1717 -0.1609 -0.4629
11407TIP3    H155712   4.533   4.812  12.637 -2.7021 -0.5150 -1.1065
11407TIP3    H255713   4.477   4.806  12.777  2.0812  0.1738  0.9229
11408TIP3   OH255714   1.881   4.828   0.461  0.1701 -0.0751 -0.0204
11408TIP3    H155715   1.830   4.748   0.444 -1.1601  1.1986 -2.2800
11408TIP3    H255716   1.895   4.827   0.556 -2.2171 -1.5875  0.3837
11409TIP3   OH255717   6.815   4.591   4.732  0.0895  0.1654 -0.4519
11409TIP3    H155718   6.826   4.581   4.827  5.5908 -2.8618 -1.2073
11409TIP3    H255719   6.828   4.685   4.716 -1.8956  0.8854  1.7860
11410TIP3   OH255720   0.259   5.482  15.456  0.0136 -0.0601 -0.0105
11410TIP3    H155721   0.266   5.577  15.469  1.7381 -0.2928  0.9613
11410TIP3    H255722   0.262   5.471  15.361 -1.3874  0.9421 -0.1759
11411TIP3   OH255723   5.824   4.369   1.954  0.1215 -0.2635  0.1878
11411TIP3    H155724   5.863   4.335   1.873 -0.6297  1.5749 -0.9611
11411TIP3    H255725   5.891   4.427   1.991  0.3134 -0.8048  0.7050
11412TIP3   OH255726   6.156   4.187  12.390  0.1471 -0.2257 -0.4201
11412TIP3    H155727   6.209   4.135  12.329 -2.5524 -1.2932 -1.9174
11412TIP3    H255728   6.114   4.122  12.446  1.4037  0.6856  1.6295
11413TIP3   OH255729   2.755   4.878   0.912  0.4969 -0.1848  0.2462
11413TIP3    H155730   2.799   4.837   0.987 -0.1583 -1.0823  0.1517
11413TIP3    H255731   2.664   4.888   0.940 -0.2289 -2.4116 -1.1449
11414TIP3   OH255732   4.033   3.412  12.400  0.4567 -0.5704  0.0904
11414TIP3    H155733   4.009   3.328  12.361 -0.6182  0.7045 -2.0603
11414TIP3    H255734   4.125   3.401  12.426 -0.4042 -3.2357  2.2123
11415TIP3   OH255735   1.955   3.169   0.977  0.5044  0.0931  0.8974
11415TIP3    H155736   1.886   3.232   0.997  0.4632 -0.0052  1.0653
11415TIP3    H255737   2.001   3.156   1.060  0.6808  0.1054  0.8018
11416TIP3   OH255738   4.858   1.165   4.200 -0.5267  0.0268  0.8999
11416TIP3    H155739   4.915   1.154   4.276 -0.4026 -0.0500  0.7966
11416TIP3    H255740   4.866   1.082   4.152  0.1443  0.4413  0.2943
11417TIP3   OH255741   5.541   3.056  15.012  0.7529 -0.1541 -0.1302
11417TIP3    H155742   5.513   3.146  14.999  4.1680  1.3689  2.3700
11417TIP3    H255743   5.634   3.055  14.989  0.6916 -3.1614 -0.5337
11418TIP3   OH255744   0.889   1.823   4.253 -0.1287  0.1534  0.2206
11418TIP3    H155745   0.878   1.785   4.340 -0.1372  0.0161  0.1594
11418TIP3    H255746   0.916   1.913   4.270  0.7021 -0.1192  0.3543
11419TIP3   OH255747   1.381   5.208  14.860  0.5084 -0.1951  0.0716
11419TIP3    H155748   1.439   5.266  14.910  2.2579  0.2111 -2.3157
11419TIP3    H255749   1.414   5.120  14.879  0.2760 -0.1443  0.7226
11420TIP3   OH255750   0.657   6.751  13.684 -0.4819  0.0526  0.1892
11420TIP3    H155751   0.574   6.769  13.729 -0.3107 -0.9136  0.9217
11420TIP3    H255752   0.718   6.815  13.720 -0.5428 -0.2084  0.7779
11421TIP3   OH255753   2.192   6.035  16.140  0.6161 -0.4803  0.4063
11421TIP3    H155754   2.188   6.015  16.234  0.0150 -1.9316  0.0893
11421TIP3    H255755   2.243   5.964  16.102  1.0267  0.2108 -0.3440
11422TIP3   OH255756   6.285   3.579  13.512  0.1953 -0.3049 -0.1431
11422TIP3    H155757   6.334   3.586  13.431 -0.8991 -0.6163 -0.8486
11422TIP3    H255758   6.251   3.489  13.512  0.6234 -0.4692  0.9114
11423TIP3   OH255759   5.613   4.810   2.255 -0.0664 -0.0615  0.0003
11423TIP3    H155760   5.529   4.791   2.214  0.1908  2.1513 -1.6442
11423TIP3    H255761   5.591   4.867   2.329 -0.1239 -0.5647  0.3753
11424TIP3   OH255762   5.834   3.094  12.424 -0.2888 -0.2973 -0.1158
11424TIP3    H155763   5.746   3.129  12.438 -0.8758 -1.4140 -0.9644
11424TIP3    H255764   5.888   3.172  12.409 -1.7220  0.2594 -2.8485
11425TIP3   OH255765   0.936   3.753  14.628  0.1472  0.4292  0.3943
11425TIP3    H155766   0.910   3.670  14.589  0.3553  0.3556  0.4162
11425TIP3    H255767   1.006   3.786  14.571  1.5975 -0.4543  1.6263
11426TIP3   OH255768   6.682   6.440   5.054 -0.2194  0.2878  0.9843
11426TIP3    H155769   6.775   6.459   5.048 -0.2463  0.9643  2.4692
11426TIP3    H255770   6.673   6.351   5.020  0.7010  0.8954 -0.8595
11427TIP3   OH255771   4.814   2.290  11.894 -0.6181  0.0550 -0.5960
11427TIP3    H155772   4.817   2.201  11.929  1.6457  0.0639 -0.6930
11427TIP3    H255773   4.760   2.338  11.957 -1.1861 -1.1990 -0.1072
11428TIP3   OH255774   1.085   2.974   5.380  0.8412  0.3220  0.0655
11428TIP3    H155775   1.075   2.931   5.466 -0.6980 -1.2492 -0.8609
11428TIP3    H255776   1.080   2.902   5.317  0.1627  1.6688 -1.4342
11429TIP3   OH255777   4.815   3.542   1.201  0.2800  0.3292  0.4694
11429TIP3    H155778   4.824   3.458   1.247  3.0234 -0.1190 -0.8183
11429TIP3    H255779   4.735   3.532   1.149  0.0159 -1.1026  1.1148
11430TIP3   OH255780   5.196   5.487  17.278  0.3770 -0.1740  0.2803
11430TIP3    H155781   5.255   5.423  17.239  1.7860  0.8139  0.7851
11430TIP3    H255782   5.249   5.535  17.341 -1.3179 -0.2498  1.8146
11431TIP3   OH255783   0.946   5.228  12.889 -0.2268  0.0856  0.1564
11431TIP3    H155784   0.933   5.263  12.801 -0.2551 -0.7718 -0.1901
11431TIP3    H255785   1.040   5.214  12.896  0.1083  2.5391  1.2054
11432TIP3   OH255786   0.989   1.081   1.521  0.2899  0.0253  0.1927
11432TIP3    H155787   0.934   1.012   1.485  0.2819 -1.0565  2.2223
11432TIP3    H255788   1.018   1.047   1.606 -0.2217  2.7855  1.5025
11433TIP3   OH255789   2.113   4.057  14.109 -0.4696 -0.3779  0.2270
11433TIP3    H155790   2.164   4.051  14.029  0.5604  1.4672  0.6965
11433TIP3    H255791   2.055   4.132  14.095 -0.3740 -0.1221  1.1269
11434TIP3   OH255792   2.181   5.820  15.834  0.0194 -0.4550 -0.0322
11434TIP3    H155793   2.118   5.886  15.804 -1.0879 -1.4372  0.1080
11434TIP3    H255794   2.185   5.832  15.929  1.4115  0.7987 -0.2395
11435TIP3   OH255795   0.113   3.156   5.128 -0.2396 -0.2240  0.1054
11435TIP3    H155796   0.036   3.099   5.120  0.2511 -1.1599  1.8904
11435TIP3    H255797   0.082   3.231   5.180 -0.3926  0.2357 -0.6445
11436TIP3   OH255798   1.077   1.952   2.821 -0.4698 -0.0899 -0.1844
11436TIP3    H155799   1.123   2.033   2.839  1.0241 -1.0849  0.5650
11436TIP3    H255800   0.996   1.958   2.872 -0.3363  0.8975 -0.0875
11437TIP3   OH255801   5.412   3.455  11.954 -0.0864  0.2213 -0.3396
11437TIP3    H155802   5.363   3.499  12.023 -1.2552  2.3524 -2.4785
11437TIP3    H255803   5.442   3.525  11.897  1.9083 -1.4154 -1.3450
11438TIP3   OH255804   0.246   6.225   7.200  0.1500  0.3349 -0.1575
11438TIP3    H155805   0.282   6.137   7.209  1.2115  0.5505 -1.9858
11438TIP3    H255806   0.312   6.273   7.149 -1.8893  1.2703 -1.9717
11439TIP3   OH255807   5.602   6.533   0.769 -0.2535 -0.1803  0.2418
11439TIP3    H155808   5.688   6.520   0.729  0.2947  2.4764  0.4960
11439TIP3    H255809   5.621   6.555   0.860 -1.2960 -1.0353  0.6855
11440TIP3   OH255810   5.107   2.348  16.054 -0.5333 -0.1493 -0.5095
11440TIP3    H155811   5.147   2.262  16.039  1.5996  0.5519  0.9341
11440TIP3    H255812   5.013   2.333  16.039 -0.1187 -2.5369 -1.0298
11441TIP3   OH255813   5.949   2.900  13.933 -0.0954  0.0210 -0.0188
11441TIP3    H155814   5.929   2.955  13.857  0.7136 -0.4806 -0.6052
11441TIP3    H255815   5.897   2.821  13.919  2.0561 -1.1964 -1.4366
11442TIP3   OH255816   4.603   5.309   0.645 -0.1964 -0.5181 -0.3497
11442TIP3    H155817   4.529   5.326   0.703 -1.1927 -0.9499 -1.4650
11442TIP3    H255818   4.659   5.386   0.654 -1.3608  0.3451 -0.3709
11443TIP3   OH255819   2.593   3.749  11.899  0.2760  0.1313  0.2948
11443TIP3    H155820   2.505   3.720  11.923  0.0266 -1.5516 -2.4503
11443TIP3    H255821   2.645   3.735  11.978 -1.6693  0.0775  1.5935
11444TIP3   OH255822   0.292   6.373   1.382  0.3050 -0.1440  0.6129
11444TIP3    H155823   0.362   6.311   1.360 -0.7915 -0.0328 -3.5781
11444TIP3    H255824   0.334   6.436   1.442  3.5746 -0.6046 -1.0598
11445TIP3   OH255825   5.317   6.182   5.417 -0.1111  0.0412 -0.4754
11445TIP3    H155826   5.342   6.112   5.357 -0.3478 -0.4761  0.0256
11445TIP3    H255827   5.364   6.163   5.498 -0.1631  0.4742 -0.3412
11446TIP3   OH255828   3.542   5.354  16.437 -0.1827 -0.4477  0.2925
11446TIP3    H155829   3.533   5.448  16.454 -2.3731 -0.4230 -0.8495
11446TIP3    H255830   3.624   5.347  16.388  0.9183  0.6370  1.9157
11447TIP3   OH255831   2.003   3.436   4.450 -0.2121  0.3303  0.0280
11447TIP3    H155832   1.940   3.439   4.378  0.3932  0.0892 -0.5089
11447TIP3    H255833   1.960   3.485   4.521 -1.2992 -0.3998 -0.1062
11448TIP3   OH255834   4.219   1.679   5.817 -0.3806 -0.3157 -0.2761
11448TIP3    H155835   4.166   1.663   5.894 -0.7349 -0.4268 -0.5416
11448TIP3    H255836   4.266   1.760   5.837 -0.6211 -0.2371 -0.0261
11449TIP3   OH255837   5.604   5.484  13.810 -0.2974 -0.9491 -0.1088
11449TIP3    H155838   5.638   5.469  13.898 -0.1795  2.0400  0.4028
11449TIP3    H255839   5.526   5.538  13.824 -1.7058 -2.4847 -1.7026
11450TIP3   OH255840   1.390   3.757  13.903 -0.1625 -0.2959 -0.6115
11450TIP3    H155841   1.474   3.724  13.936 -0.4432 -0.2927  0.1159
11450TIP3    H255842   1.402   3.852  13.899  0.5874 -0.4543 -2.5388
11451TIP3   OH255843   6.570   6.541  12.711 -0.4077 -0.4967  0.0544
11451TIP3    H155844   6.583   6.462  12.763  1.3857  0.0280  0.4584
11451TIP3    H255845   6.508   6.594  12.762  2.0713  0.4445  2.2273
11452TIP3   OH255846   4.387   2.498  12.061 -0.5085 -0.1855  0.0899
11452TIP3    H155847   4.375   2.499  12.156 -1.9392  1.5734 -0.0890
11452TIP3    H255848   4.300   2.479  12.025 -0.4909  1.4782 -0.9106
11453TIP3   OH255849   3.574   3.397  11.780  0.1108 -0.1399 -0.0203
11453TIP3    H155850   3.547   3.484  11.752  1.2833 -0.0819 -0.9821
11453TIP3    H255851   3.492   3.348  11.789 -0.3996  0.3863 -1.7406
11454TIP3   OH255852   0.520   5.919   3.191  0.3944  0.3719 -0.1372
11454TIP3    H155853   0.589   5.927   3.257 -0.0041 -1.2257  0.4865
11454TIP3    H255854   0.564   5.887   3.113  0.4451 -0.2436  0.1384
11455TIP3   OH255855   2.965   0.888  12.027 -0.0334 -0.6244 -0.0934
11455TIP3    H155856   2.965   0.937  12.109 -1.4987 -1.4239  0.3955
11455TIP3    H255857   2.970   0.955  11.958 -0.6410  0.1268  0.5983
11456TIP3   OH255858   2.353   2.380   1.753  0.0871  0.1071 -0.4082
11456TIP3    H155859   2.444   2.364   1.728 -0.5156  0.1435 -2.7806
11456TIP3    H255860   2.302   2.358   1.675 -1.8761  0.8403  0.6153
11457TIP3   OH255861   4.146   4.890  11.367  0.3515 -0.1119  0.1382
11457TIP3    H155862   4.150   4.803  11.329 -0.7233  0.1820 -0.6684
11457TIP3    H255863   4.194   4.946  11.306 -1.7713  0.4426 -1.0645
11458TIP3   OH255864   3.900   0.182  12.665  0.0628 -0.1003 -0.0027
11458TIP3    H155865   3.831   0.165  12.730 -0.3708  1.5935  0.0150
11458TIP3    H255866   3.982   0.170  12.713 -0.2445 -0.3055  0.4724
11459TIP3   OH255867   6.619   4.550   4.013 -0.3698  0.4368 -0.1130
11459TIP3    H155868   6.688   4.505   4.061  0.5162  0.0052 -1.7538
11459TIP3    H255869   6.567   4.594   4.080  0.8182 -0.1867  1.2217
11460TIP3   OH255870   6.636   0.803   3.263  0.1567  0.5438  0.4919
11460TIP3    H155871   6.596   0.876   3.309  0.6341  0.6375  0.7631
11460TIP3    H255872   6.701   0.844   3.205  1.1259  0.2807  1.3622
11461TIP3   OH255873   4.575   6.336   3.114  0.1192 -0.3487 -0.0852
11461TIP3    H155874   4.533   6.403   3.168  0.8117  0.2294 -0.2396
11461TIP3    H255875   4.539   6.253   3.144 -1.3861  0.1566 -0.4652
11462TIP3   OH255876   1.611   3.301   0.406  0.4130  0.0898 -0.0847
11462TIP3    H155877   1.596   3.294   0.500 -0.3768 -0.0117 -0.2224
11462TIP3    H255878   1.586   3.390   0.384  0.1569 -0.0309 -0.2835
11463TIP3   OH255879   2.543   0.101  11.843 -0.1797  1.0519  0.5327
11463TIP3    H155880   2.487   0.153  11.785  0.0643 -0.0260 -0.7010
11463TIP3    H255881   2.585   0.166  11.900  0.0902  2.2073 -0.9525
11464TIP3   OH255882   6.209   3.579  12.444 -1.2444  0.4478 -0.3123
11464TIP3    H155883   6.226   3.617  12.358 -1.3954 -0.4813 -0.7653
11464TIP3    H255884   6.295   3.553  12.477 -1.3499 -0.6801 -0.9002
11465TIP3   OH255885   1.030   0.789   2.725 -0.1399 -0.0909  0.3925
11465TIP3    H155886   1.072   0.806   2.641  0.0348 -0.5551  0.3844
11465TIP3    H255887   1.086   0.834   2.789  0.3546 -0.6964  0.3791
11466TIP3   OH255888   1.650   5.129   0.642  0.4180 -0.7072 -0.3137
11466TIP3    H155889   1.636   5.035   0.656 -1.1279 -0.7402 -1.8478
11466TIP3    H255890   1.584   5.171   0.697 -1.3896 -0.6629 -2.4262
11467TIP3   OH255891   0.829   6.437  12.693  0.5786  0.0317 -0.5702
11467TIP3    H155892   0.787   6.389  12.764 -1.9951  2.1453 -0.5421
11467TIP3    H255893   0.862   6.517  12.734  0.3277  0.6080 -1.4621
11468TIP3   OH255894   5.405   1.332  12.018 -0.3803 -0.5284  0.0199
11468TIP3    H155895   5.324   1.282  12.010 -0.2687 -0.7918  0.5094
11468TIP3    H255896   5.448   1.295  12.095 -0.5169  0.6317  0.6707
11469TIP3   OH255897   2.435   5.314  12.775  0.0544 -0.4476  0.6003
11469TIP3    H155898   2.490   5.236  12.787 -1.6749 -1.4175  2.4693
11469TIP3    H255899   2.458   5.371  12.849 -0.2611 -0.1146  0.4433
11470TIP3   OH255900   3.141   3.094  15.601  0.8477 -0.0811  0.1469
11470TIP3    H155901   3.206   3.156  15.571  0.9896 -0.6146 -0.6762
11470TIP3    H255902   3.140   3.025  15.534  1.9750 -1.8857  1.9137
11471TIP3   OH255903   3.985   4.173  13.849  0.0564 -0.2283 -0.5608
11471TIP3    H155904   3.970   4.229  13.924 -1.7220  0.4880 -1.4163
11471TIP3    H255905   3.912   4.111  13.850  0.4145 -0.6722 -1.2713
11472TIP3   OH255906   1.664   4.269   4.935  0.4886 -0.3678  0.2740
11472TIP3    H155907   1.629   4.226   5.012  0.2003 -0.2983  0.1796
11472TIP3    H255908   1.711   4.200   4.887 -1.1217 -0.8889 -0.5778
11473TIP3   OH255909   6.421   5.614  14.789  0.6399  0.1637 -0.2466
11473TIP3    H155910   6.399   5.681  14.854 -0.2860  0.8968 -1.2809
11473TIP3    H255911   6.353   5.547  14.799 -0.0243  0.7067 -1.0408
11474TIP3   OH255912   3.200   1.327  16.499 -0.3652  0.3829  0.1234
11474TIP3    H155913   3.160   1.249  16.460  0.1743 -1.0505  2.3760
11474TIP3    H255914   3.270   1.351  16.438 -1.9226  0.4287 -1.6945
11475TIP3   OH255915   4.441   0.035   1.593 -0.0791 -0.0831 -0.5637
11475TIP3    H155916   4.427   0.112   1.649  0.4924 -1.4015  1.4198
11475TIP3    H255917   4.380   0.048   1.520 -2.0110  0.8985  1.1517
11476TIP3   OH255918   0.878   2.521   3.148  0.4706  0.5228  0.2288
11476TIP3    H155919   0.855   2.429   3.165 -0.9053  1.1019  1.6718
11476TIP3    H255920   0.958   2.536   3.198  0.3632  0.2746  0.4763
11477TIP3   OH255921   6.644   0.203  10.539 -0.2168  0.0968  0.1298
11477TIP3    H155922   6.674   0.276  10.484 -0.9570 -1.4582 -2.4280
11477TIP3    H255923   6.552   0.221  10.555 -0.5922 -0.6397 -1.1444
11478TIP3   OH255924   2.783   4.074   5.372 -0.2517 -0.2638  1.0647
11478TIP3    H155925   2.869   4.056   5.334  0.5276  0.3087  2.5344
11478TIP3    H255926   2.802   4.110   5.458 -1.9601  0.5599  1.1050
11479TIP3   OH255927   5.785   3.275  16.193 -0.7128 -0.5961 -0.4018
11479TIP3    H155928   5.772   3.218  16.269 -0.6946  0.8149  0.6712
11479TIP3    H255929   5.697   3.309  16.174 -0.1421  1.9017  1.2728
11480TIP3   OH255930   2.841   6.085   3.716 -0.3107  0.0566 -0.2171
11480TIP3    H155931   2.760   6.079   3.766 -0.1840  1.3001  0.1490
11480TIP3    H255932   2.909   6.099   3.782  0.4113 -2.3032 -0.3917
11481TIP3   OH255933   4.954   2.928  13.085 -0.7875  0.4919 -0.5167
11481TIP3    H155934   5.007   2.862  13.130 -2.7169 -0.4594  0.4263
11481TIP3    H255935   4.991   3.012  13.113 -0.2638 -0.1330  0.6899
11482TIP3   OH255936   0.540   1.663   0.313  0.0186 -0.4647 -0.5240
11482TIP3    H155937   0.596   1.599   0.357 -0.3763  0.7070  1.7296
11482TIP3    H255938   0.498   1.613   0.243  0.0394 -2.5975  0.9199
11483TIP3   OH255939   5.468   0.462   1.758  0.1278  0.2194 -0.6105
11483TIP3    H155940   5.548   0.509   1.734  1.4686 -2.6524 -2.1446
11483TIP3    H255941   5.489   0.418   1.840  0.1899 -0.6360 -1.0757
11484TIP3   OH255942   0.154   5.689  13.605  0.4135 -0.0062 -0.5792
11484TIP3    H155943   0.107   5.755  13.554  1.1383  0.8188 -0.1839
11484TIP3    H255944   0.243   5.723  13.612  0.0338  0.5018  2.2801
11485TIP3   OH255945   6.133   1.052   3.968  0.2861 -0.2843  0.0358
11485TIP3    H155946   6.227   1.065   3.956 -0.0291  0.3235 -1.8237
11485TIP3    H255947   6.095   1.139   3.963 -0.2548 -0.3735  2.1174
11486TIP3   OH255948   4.887   6.702   2.414  0.0595  0.0643  0.0824
11486TIP3    H155949   4.922   6.786   2.445  1.1980 -0.7250  0.9999
11486TIP3    H255950   4.883   6.711   2.319  1.6214  0.6215  0.0523
11487TIP3   OH255951   0.381   6.479  16.482 -0.1405 -0.5132 -0.1237
11487TIP3    H155952   0.301   6.515  16.444 -0.0349  1.5035  1.4524
11487TIP3    H255953   0.352   6.432  16.560  0.0204 -1.4035 -0.5969
11488TIP3   OH255954   1.447   2.896   2.648 -0.6947 -0.4119 -0.1210
11488TIP3    H155955   1.536   2.872   2.620 -1.0039 -2.0765  0.2552
11488TIP3    H255956   1.459   2.977   2.697  0.5241 -0.2073 -0.7210
11489TIP3   OH255957   4.808   6.108  11.108  0.3259 -0.3109  0.3623
11489TIP3    H155958   4.896   6.127  11.143  0.4721  0.3705 -0.3626
11489TIP3    H255959   4.825   6.072  11.021 -0.2013  1.7808 -0.6125
11490TIP3   OH255960   2.784   6.772  11.381  0.3577  0.2751  0.2838
11490TIP3    H155961   2.736   6.813  11.309 -1.5421 -0.4373  1.0927
11490TIP3    H255962   2.817   6.844  11.433 -3.6362  0.8976  2.1531
11491TIP3   OH255963   4.576   1.020   0.854 -0.0748 -0.1091  0.0405
11491TIP3    H155964   4.496   1.042   0.901 -1.9955 -0.4838 -2.9218
11491TIP3    H255965   4.615   0.949   0.906 -0.8303  1.1064  2.3409
11492TIP3   OH255966   3.883   3.604  10.771 -0.3173  0.1819  0.4173
11492TIP3    H155967   3.882   3.687  10.723 -0.0750  0.7938  1.4673
11492TIP3    H255968   3.923   3.542  10.710  0.1655  0.9978 -0.0982
11493TIP3   OH255969   2.754   2.609   4.881 -0.0583 -0.2543 -0.3113
11493TIP3    H155970   2.802   2.527   4.867  0.2116  0.0398 -1.1671
11493TIP3    H255971   2.767   2.658   4.800  1.2247  1.3939  0.8724
11494TIP3   OH255972   0.619   6.027  15.292 -0.5084  0.1770  0.3898
11494TIP3    H155973   0.658   5.957  15.344 -0.5494 -0.6303 -0.6651
11494TIP3    H255974   0.551   6.064  15.348 -0.9253 -1.0555  0.6991
11495TIP3   OH255975   1.405   6.478  16.238  0.4011 -0.1207 -0.2743
11495TIP3    H155976   1.331   6.527  16.273 -0.3068  1.7649 -4.0974
11495TIP3    H255977   1.369   6.394  16.210  0.2556 -0.2370  0.2640
11496TIP3   OH255978   4.242   2.088   5.770 -0.1546 -0.3158  0.2696
11496TIP3    H155979   4.321   2.036   5.760  1.1929  1.7899 -0.3541
11496TIP3    H255980   4.210   2.101   5.680 -0.2168  0.3382  0.3853
11497TIP3   OH255981   0.937   1.117   2.912  0.3527 -0.0780 -0.5561
11497TIP3    H155982   0.963   1.156   2.828  2.8808  0.6162  0.5038
11497TIP3    H255983   1.000   1.151   2.975 -1.1014 -1.1273  1.5344
11498TIP3   OH255984   6.059   0.750   4.481  0.4207  0.4444 -0.5996
11498TIP3    H155985   6.053   0.661   4.445  1.3528  0.5474 -1.0163
11498TIP3    H255986   6.068   0.737   4.575  1.0031  0.0847 -0.7047
11499TIP3   OH255987   4.968   2.282  16.581  0.7925  0.2677  0.9572
11499TIP3    H155988   4.976   2.377  16.586  4.7022 -0.0136  1.5861
11499TIP3    H255989   4.968   2.263  16.487 -0.7849  0.9036  0.8171
11500TIP3   OH255990   3.356   1.858   2.928  0.2848  0.2045 -0.3308
11500TIP3    H155991   3.339   1.822   2.840 -0.7254  0.0930 -0.1001
11500TIP3    H255992   3.446   1.890   2.924  0.9483 -1.6579 -0.7814
11501TIP3   OH255993   6.382   0.326   3.423  0.0165 -1.4145  0.6243
11501TIP3    H155994   6.428   0.242   3.422  0.6725 -1.0668  1.1496
11501TIP3    H255995   6.367   0.346   3.331 -0.6206 -2.3592  0.5071
11502TIP3   OH255996   2.181   1.612  15.643  0.5819 -0.0553  0.2871
11502TIP3    H155997   2.265   1.659  15.642  1.2263 -1.1713 -1.0490
11502TIP3    H255998   2.206   1.520  15.635 -0.7580 -0.4272  0.3204
11503TIP3   OH255999   1.840   3.468  10.963  0.6084 -0.1917 -0.3625
11503TIP3    H156000   1.806   3.513  10.885 -1.2749 -1.5859 -0.3778
11503TIP3    H256001   1.824   3.375  10.946  3.4114 -0.8183  0.1739
11504TIP3   OH256002   3.302   4.882   4.025  0.1448 -0.4814  0.1882
11504TIP3    H156003   3.282   4.799   3.981 -0.1966 -0.0720 -0.4441
11504TIP3    H256004   3.379   4.863   4.079  1.0775 -0.8021 -1.2116
11505TIP3   OH256005   6.514   2.197  11.796 -0.1059  0.6944  0.6481
11505TIP3    H156006   6.539   2.106  11.812  0.3242  0.7446  0.3056
11505TIP3    H256007   6.475   2.196  11.708 -0.6458  0.7399  0.8893
11506TIP3   OH256008   0.235   3.559   2.655 -0.7751 -0.1065  0.1241
11506TIP3    H156009   0.276   3.494   2.711  1.0697  0.0253 -0.9971
11506TIP3    H256010   0.297   3.632   2.655  0.0656 -0.7197 -3.2863
11507TIP3   OH256011   1.703   4.923  11.924  0.1179  0.1422 -0.2040
11507TIP3    H156012   1.692   4.936  11.830  1.3210  1.6763 -0.1491
11507TIP3    H256013   1.760   4.994  11.951  2.1839 -2.0023  1.1778
11508TIP3   OH256014   4.994   4.355   2.585  0.4378  0.0361 -0.2486
11508TIP3    H156015   5.027   4.439   2.620  1.2995 -0.0127 -0.9201
11508TIP3    H256016   5.050   4.338   2.509 -1.6657  0.3315 -1.9061
11509TIP3   OH256017   0.216   2.329   4.851  0.4654 -0.0987 -0.4765
11509TIP3    H156018   0.289   2.372   4.897 -0.4254 -0.5248  1.3886
11509TIP3    H256019   0.256   2.293   4.772  2.2952 -0.3028  0.4998
11510TIP3   OH256020   5.438   5.894  15.359 -0.0904 -0.2915 -0.1080
11510TIP3    H156021   5.496   5.819  15.348  0.7275  0.0587  1.6533
11510TIP3    H256022   5.485   5.966  15.317  0.0813 -0.3092  0.0550
11511TIP3   OH256023   3.469   2.130   3.246 -0.3395  0.0822  0.3241
11511TIP3    H156024   3.452   2.183   3.168 -0.5301  2.0694  1.6666
11511TIP3    H256025   3.382   2.111   3.281 -0.2017  2.5688  2.1906
11512TIP3   OH256026   5.258   1.454  16.786 -0.3987  0.6249  0.3180
11512TIP3    H156027   5.336   1.478  16.835  0.5371 -0.6491 -0.4977
11512TIP3    H256028   5.224   1.377  16.831 -0.2388  0.1882 -0.3024
11513TIP3   OH256029   0.287   1.680   1.923  0.5856  0.1009 -0.2576
11513TIP3    H156030   0.224   1.610   1.942 -0.1259  0.4945 -1.1601
11513TIP3    H256031   0.284   1.736   2.001  1.0001 -0.7464  0.3791
11514TIP3   OH256032   4.544   3.722   4.430 -0.3630  0.2412  0.5085
11514TIP3    H156033   4.449   3.723   4.443 -0.4693 -0.1115 -0.1864
11514TIP3    H256034   4.580   3.754   4.512 -1.0865  0.3770  0.7789
11515TIP3   OH256035   1.952   3.722  16.010  0.0941  0.1670 -0.1377
11515TIP3    H156036   1.960   3.631  15.981 -0.4443  0.0342  0.0993
11515TIP3    H256037   1.915   3.715  16.099 -0.2283  0.6228 -0.2296
11516TIP3   OH256038   2.742   6.000  11.689 -0.1275 -0.4683  0.5842
11516TIP3    H156039   2.664   5.983  11.637 -0.0715 -0.4372  0.4895
11516TIP3    H256040   2.716   5.983  11.780 -0.5191  0.4943  0.6571
11517TIP3   OH256041   1.611   5.691   4.053  0.5008  0.1136  0.1846
11517TIP3    H156042   1.573   5.708   3.966 -1.0024 -1.3033  0.5458
11517TIP3    H256043   1.682   5.755   4.061  0.4590  0.4589 -1.9639
11518TIP3   OH256044   0.589   1.274   5.626 -0.3922 -0.3931  0.0103
11518TIP3    H156045   0.576   1.292   5.533 -1.0530  1.2190  0.4016
11518TIP3    H256046   0.654   1.339   5.654 -0.6919 -0.4371  0.8132
11519TIP3   OH256047   6.478   1.465  16.359 -0.4027  0.4030 -0.2386
11519TIP3    H156048   6.519   1.384  16.387  3.1440  1.8376 -1.0643
11519TIP3    H256049   6.460   1.453  16.266 -3.0464 -0.6473  0.3542
11520TIP3   OH256050   2.672   0.632  14.134  0.3264 -0.1123 -0.1495
11520TIP3    H156051   2.624   0.563  14.088  0.4954 -0.4907  0.2390
11520TIP3    H256052   2.685   0.597  14.222 -0.3773  0.7912  0.3204
11521TIP3   OH256053   6.553   1.939   5.570  0.0277  0.1477 -0.2648
11521TIP3    H156054   6.617   1.955   5.501 -0.3032  0.4208 -0.5074
11521TIP3    H256055   6.501   2.019   5.574 -0.1498  0.0165  0.0926
11522TIP3   OH256056   2.055   2.187   4.872 -0.1604  0.2270 -0.0635
11522TIP3    H156057   1.975   2.176   4.924 -1.1669 -1.0423 -1.7995
11522TIP3    H256058   2.121   2.135   4.918 -1.0606 -0.9377 -0.0514
11523TIP3   OH256059   0.002   6.355   5.442 -0.1870 -0.2881  0.2348
11523TIP3    H156060  -0.009   6.284   5.505 -1.0368 -0.5500 -0.2117
11523TIP3    H256061   0.040   6.314   5.365 -1.7335 -0.4686 -0.4404
11524TIP3   OH256062   2.215   5.622  13.174 -0.0533  0.0625  0.2825
11524TIP3    H156063   2.149   5.670  13.223  0.2519 -0.2151  0.9723
11524TIP3    H256064   2.293   5.679  13.177  0.0051 -0.0146  0.2334
11525TIP3   OH256065   6.157   5.374   3.496  0.3230 -0.2028 -0.6216
11525TIP3    H156066   6.135   5.457   3.454  0.9919  0.2052 -0.1753
11525TIP3    H256067   6.086   5.315   3.471 -0.5341  0.7012 -0.3325
11526TIP3   OH256068   0.336   6.603  15.719 -0.1079  0.4284 -0.4131
11526TIP3    H156069   0.270   6.588  15.651 -0.2019  0.7240 -0.3870
11526TIP3    H256070   0.419   6.583  15.676 -0.1746  0.5352 -0.5918
11527TIP3   OH256071   6.235   0.066  15.858 -0.0876 -0.0261  0.1555
11527TIP3    H156072   6.319   0.096  15.893 -0.4105  0.6263  0.3693
11527TIP3    H256073   6.255  -0.019  15.818  0.8332  0.4782 -0.4802
11528TIP3   OH256074   4.987   6.001  10.926 -0.4181 -0.1849 -0.2206
11528TIP3    H156075   5.030   5.953  10.856 -0.7888 -0.6975 -0.0997
11528TIP3    H256076   5.050   5.999  10.998  0.8944  2.2452 -1.2470
11529TIP3   OH256077   5.194   3.877   5.386 -0.0913 -0.0706 -0.0883
11529TIP3    H156078   5.105   3.869   5.420 -0.5437  1.8098 -0.7684
11529TIP3    H256079   5.194   3.960   5.337  1.7742 -0.5031 -0.8740
11530TIP3   OH256080   2.552   5.073   3.696  0.6391 -0.5450  0.9426
11530TIP3    H156081   2.604   4.995   3.680 -2.2149 -2.1973 -0.8254
11530TIP3    H256082   2.576   5.133   3.626 -1.2665 -2.1472 -1.1960
11531TIP3   OH256083   1.161   6.165   1.958 -0.4660 -0.9574 -0.2684
11531TIP3    H156084   1.155   6.118   2.041 -1.0248  0.1991  0.3510
11531TIP3    H256085   1.149   6.097   1.891  0.4888 -1.9632  0.5774
11532TIP3   OH256086   4.167   0.832   2.697 -0.3253 -0.8653  0.3303
11532TIP3    H156087   4.167   0.743   2.732 -0.4055 -1.6118 -1.4768
11532TIP3    H256088   4.127   0.823   2.610 -0.8904  1.0360  0.3788
11533TIP3   OH256089   2.472   6.737  10.622  0.4045  0.8063 -0.6760
11533TIP3    H156090   2.545   6.768  10.676  0.1084  3.0734 -1.5354
11533TIP3    H256091   2.512   6.721  10.536  0.4652 -0.8628 -0.3625
11534TIP3   OH256092   3.639   2.700   5.516 -0.3908  0.1489 -0.6455
11534TIP3    H156093   3.686   2.689   5.598 -2.2779 -0.7384  0.3522
11534TIP3    H256094   3.637   2.794   5.501 -0.1656  0.3286  0.4163
11535TIP3   OH256095   2.252   3.667  12.698 -0.5123 -0.1386 -0.3062
11535TIP3    H156096   2.312   3.741  12.712 -2.3426  1.1604  1.0407
11535TIP3    H256097   2.225   3.675  12.607 -0.4842  0.7329 -0.2503
11536TIP3   OH256098   3.275   3.792  12.218  0.9028 -0.3512  0.2705
11536TIP3    H156099   3.329   3.853  12.269  0.9079  0.4057 -0.6373
11536TIP3    H256100   3.225   3.848  12.159  1.7921 -1.3279 -1.4234
11537TIP3   OH256101   5.345   2.246   0.470 -0.2096  0.2550 -0.5221
11537TIP3    H156102   5.404   2.315   0.439 -0.9307  1.8463  1.5345
11537TIP3    H256103   5.257   2.280   0.452 -0.5940  0.5289  1.8217
11538TIP3   OH256104   2.259   3.225   1.023 -0.1978 -0.3728 -0.4207
11538TIP3    H156105   2.325   3.280   1.066 -0.6336 -0.3441  0.2197
11538TIP3    H256106   2.194   3.286   0.989 -1.6722 -0.5637  1.9483
11539TIP3   OH256107   1.746   4.589  13.132 -0.6296  0.5238 -0.1586
11539TIP3    H156108   1.814   4.643  13.093 -0.9558  0.6455 -0.5619
11539TIP3    H256109   1.741   4.512  13.075 -0.2584  0.1274  0.3381
11540TIP3   OH256110   0.073   5.691  15.360  0.2330  0.0779  0.0722
11540TIP3    H156111   0.016   5.767  15.349 -0.7944 -0.5792  0.7498
11540TIP3    H256112   0.050   5.656  15.446  0.2081 -1.4011 -0.5299
11541TIP3   OH256113   2.308   5.368  11.109 -0.5123 -0.1744  0.3339
11541TIP3    H156114   2.269   5.413  11.184 -0.1332  0.8619 -0.0789
11541TIP3    H256115   2.310   5.434  11.040  0.2645 -0.7633 -0.2176
11542TIP3   OH256116   0.227   0.135  12.636 -0.3215  0.8398  0.0888
11542TIP3    H156117   0.175   0.214  12.619  0.8457  1.6609  0.2893
11542TIP3    H256118   0.166   0.075  12.680 -0.6789  2.3819  1.7586
11543TIP3   OH256119   6.158   5.086   1.622 -0.1906 -0.2472  0.6249
11543TIP3    H156120   6.088   5.133   1.577 -1.9440 -1.8496  1.6355
11543TIP3    H256121   6.129   5.080   1.713  0.2142 -2.8051  0.6199
11544TIP3   OH256122   4.128   2.428   5.660  0.0736 -0.4009 -0.1821
11544TIP3    H156123   4.190   2.384   5.602  1.3896  3.0827 -1.4869
11544TIP3    H256124   4.182   2.483   5.716 -1.4824 -1.0913  2.0388
11545TIP3   OH256125   1.228   2.474   1.665  0.3259  0.6113 -0.0374
11545TIP3    H156126   1.181   2.464   1.583 -0.0891  2.1610  0.0052
11545TIP3    H256127   1.318   2.446   1.645 -0.4773 -2.0406 -0.1964
11546TIP3   OH256128   0.342   5.417   2.358 -0.4586  0.4794 -0.3048
11546TIP3    H156129   0.416   5.462   2.317 -1.0549  0.5201 -1.3511
11546TIP3    H256130   0.345   5.329   2.322 -0.4431  0.2451  0.2675
11547TIP3   OH256131   1.959   0.952   2.072 -0.6893 -0.0191 -0.0815
11547TIP3    H156132   2.020   1.021   2.045  0.4727 -1.3204 -0.8455
11547TIP3    H256133   1.991   0.924   2.158 -1.7814  1.1065  0.6964
11548TIP3   OH256134   3.868   6.518  14.555 -0.3563 -0.1186 -0.1038
11548TIP3    H156135   3.848   6.441  14.502 -1.5083  0.7363 -0.9667
11548TIP3    H256136   3.858   6.488  14.646  1.4950 -1.5608 -0.3617
11549TIP3   OH256137   1.798   3.988  13.934  0.5949 -0.1307 -0.2055
11549TIP3    H156138   1.807   3.987  13.839  0.2771  0.4525 -0.2426
11549TIP3    H256139   1.757   4.072  13.954  2.0836  0.4490  0.5733
11550TIP3   OH256140   4.161   2.014  11.826 -0.2703  0.1281  0.7027
11550TIP3    H156141   4.105   1.942  11.857 -0.5332  0.5276  1.1704
11550TIP3    H256142   4.211   1.977  11.754 -0.8778 -0.3444  0.5180
11551TIP3   OH256143   4.795   6.312   2.229 -0.6909 -0.0910 -0.3673
11551TIP3    H156144   4.777   6.290   2.138  1.5016 -1.4960 -0.4813
11551TIP3    H256145   4.842   6.395   2.225 -0.6717 -0.1085 -0.4881
11552TIP3   OH256146   3.874   4.046  16.409  0.4942  0.1561 -0.4375
11552TIP3    H156147   3.870   4.062  16.504  2.8784 -0.3002 -0.2375
11552TIP3    H256148   3.900   3.954  16.402  1.0981  0.4076 -1.5427
11553TIP3   OH256149   4.813   4.107  11.541 -0.0832  0.2526 -0.5011
11553TIP3    H156150   4.815   4.133  11.449 -2.0932  2.2857 -0.0072
11553TIP3    H256151   4.734   4.053  11.549  0.2898 -0.2254 -0.0638
11554TIP3   OH256152   5.055   4.976  13.608 -0.4597 -0.0873  0.3273
11554TIP3    H156153   5.085   4.910  13.671 -0.3118 -2.1287 -1.7759
11554TIP3    H256154   5.135   5.006  13.565 -0.5040  1.6985  1.4557
11555TIP3   OH256155   5.194   5.847  15.046 -0.3097 -0.0955 -0.1128
11555TIP3    H156156   5.149   5.802  14.974 -1.2573 -0.9781  1.0155
11555TIP3    H256157   5.170   5.939  15.036 -0.1081 -0.1517 -1.1607
11556TIP3   OH256158   3.435   1.253   4.731  0.3483 -0.5082  0.6829
11556TIP3    H156159   3.531   1.248   4.729  0.3403 -0.2416 -0.2708
11556TIP3    H256160   3.408   1.241   4.640 -0.5434 -0.8630  0.9908
11557TIP3   OH256161   5.809   3.175  14.050 -0.6179 -0.3868  0.2094
11557TIP3    H156162   5.782   3.256  14.095  0.3710  0.1131 -0.0640
11557TIP3    H256163   5.752   3.107  14.086  0.0648  0.0286  2.1581
11558TIP3   OH256164   0.244   1.100   5.991  0.2082  0.7235  0.1615
11558TIP3    H156165   0.267   1.193   5.985  1.3888  0.5015  0.9935
11558TIP3    H256166   0.317   1.054   5.950 -0.6643  0.1910 -0.7934
11559TIP3   OH256167   6.060   4.756  14.169 -0.5792 -1.0216  0.3725
11559TIP3    H156168   6.044   4.829  14.229 -1.2760 -1.8296  1.1926
11559TIP3    H256169   6.145   4.775  14.129 -1.3749  0.9576 -0.4878
11560TIP3   OH256170   0.781   0.350   0.913  0.8325  0.2865  0.5767
11560TIP3    H156171   0.854   0.360   0.852 -0.6710  0.3425 -1.2736
11560TIP3    H256172   0.785   0.259   0.943  0.8532 -0.0981 -0.5857
11561TIP3   OH256173   1.990   4.879   1.005 -0.0292  0.4175 -0.3964
11561TIP3    H156174   2.010   4.967   1.037  0.5416  0.2315 -0.2216
11561TIP3    H256175   2.018   4.821   1.077  1.3204 -0.0086 -1.2401
11562TIP3   OH256176   2.448   1.682  15.638 -0.4031  0.0047  0.1969
11562TIP3    H156177   2.530   1.633  15.631 -0.7519 -0.7532  1.2265
11562TIP3    H256178   2.467   1.768  15.601  0.6943 -0.3603 -0.0882
11563TIP3   OH256179   6.816   0.692  11.953 -0.1349  1.0511 -0.5514
11563TIP3    H156180   6.862   0.612  11.979 -0.2025  1.3508  0.4893
11563TIP3    H256181   6.872   0.731  11.886  0.8986  1.1743  0.3803
11564TIP3   OH256182   5.685   4.713   2.732 -0.4007 -0.2302  0.2613
11564TIP3    H156183   5.694   4.619   2.716  0.3207  0.0220 -0.8194
11564TIP3    H256184   5.727   4.727   2.817  3.7877 -0.1285 -1.7420
11565TIP3   OH256185   6.039   6.573   0.316  0.0256 -0.4621 -0.2482
11565TIP3    H156186   5.961   6.542   0.270  1.3918 -3.1972 -0.7872
11565TIP3    H256187   6.048   6.514   0.391  0.3232  1.2443  1.0919
11566TIP3   OH256188   0.870   4.289   3.649 -0.2685  0.1637 -0.1727
11566TIP3    H156189   0.793   4.277   3.704 -0.4036  0.8377 -0.2092
11566TIP3    H256190   0.847   4.247   3.566 -1.4641  2.2647 -0.9499
11567TIP3   OH256191   1.860   0.914  17.034  0.5300 -0.3894  0.3505
11567TIP3    H156192   1.938   0.869  17.067 -0.0829 -2.8280 -1.3401
11567TIP3    H256193   1.791   0.846  17.036 -0.9565  1.0634 -0.3464
11568TIP3   OH256194   4.323   4.886  11.768 -0.2416  0.1366  0.2312
11568TIP3    H156195   4.330   4.795  11.736  2.9529  0.1878  0.6032
11568TIP3    H256196   4.301   4.937  11.690  0.5372 -0.6388 -0.5073
11569TIP3   OH256197   0.180   2.235   4.013 -0.2941 -0.4208 -1.0018
11569TIP3    H156198   0.210   2.210   4.100 -0.0531 -3.7785 -2.0040
11569TIP3    H256199   0.245   2.299   3.983  0.6024 -0.5585  0.5787
11570TIP3   OH256200   0.238   5.097  15.661 -0.1278  0.5037  1.1805
11570TIP3    H156201   0.184   5.137  15.593 -0.3316 -0.9188  0.4925
11570TIP3    H256202   0.325   5.136  15.648 -0.5395  1.4366  1.1425
11571TIP3   OH256203   3.587   4.952  10.570 -0.4203  0.3743 -0.2681
11571TIP3    H156204   3.587   4.856  10.565  0.0349  0.2738  1.3168
11571TIP3    H256205   3.498   4.975  10.597 -0.1054  0.2896  0.8745
11572TIP3   OH256206   2.778   3.687  13.005  0.2159 -0.6040 -0.3202
11572TIP3    H156207   2.826   3.770  13.002  1.2465 -1.2120 -0.8101
11572TIP3    H256208   2.764   3.671  13.099 -2.3509  1.4546 -0.3188
11573TIP3   OH256209   0.063   0.881   0.365  0.2887 -0.1239 -0.3923
11573TIP3    H156210   0.047   0.964   0.411  0.2232 -0.6424  0.5410
11573TIP3    H256211   0.140   0.898   0.311  3.5620 -0.9342  3.7327
11574TIP3   OH256212   3.379   2.260  13.326  0.2912 -0.2971 -0.0465
11574TIP3    H156213   3.413   2.302  13.248  2.1504 -2.6421 -0.5510
11574TIP3    H256214   3.381   2.328  13.393  2.1662  0.7297 -1.1128
11575TIP3   OH256215   4.297   4.444   2.981  0.1520  0.3440  0.7464
11575TIP3    H156216   4.379   4.481   3.013  0.3620  0.1438  0.4447
11575TIP3    H256217   4.233   4.514   2.992  0.7213  1.1044 -0.6049
11576TIP3   OH256218   4.182   3.499  14.694 -0.0732 -0.4087  0.6427
11576TIP3    H156219   4.112   3.558  14.723  0.5447  0.0536  1.2143
11576TIP3    H256220   4.146   3.455  14.618 -0.9550 -0.0990  0.8723
11577TIP3   OH256221   6.085   6.171  13.556  0.2111 -0.4455  0.0125
11577TIP3    H156222   6.022   6.208  13.617  0.4826 -0.7738  0.4902
11577TIP3    H256223   6.096   6.080  13.585  2.1278  0.0575  0.9102
11578TIP3   OH256224   5.799   4.376   3.423  0.0845 -0.1599 -0.0678
11578TIP3    H156225   5.876   4.323   3.402  0.2306  0.7214 -1.7821
11578TIP3    H256226   5.785   4.361   3.517  2.5921  0.0024  0.3685
11579TIP3   OH256227   6.583   4.126  14.516 -0.2960  0.0370  0.4522
11579TIP3    H156228   6.541   4.168  14.440 -1.2682  0.5400  1.2573
11579TIP3    H256229   6.545   4.038  14.519  0.1952 -0.1966  0.0074
11580TIP3   OH256230   6.204   5.322   5.444  0.6514  0.2083 -0.1862
11580TIP3    H156231   6.147   5.318   5.367 -1.5485 -0.0490  1.3981
11580TIP3    H256232   6.207   5.231   5.476 -1.6312  0.8991  2.2030
11581TIP3   OH256233   4.758   1.528   6.270 -0.2678  0.1266 -0.5592
11581TIP3    H156234   4.728   1.448   6.226  2.0817 -0.6097 -0.9231
11581TIP3    H256235   4.844   1.545   6.231  0.1485  1.6799  0.9888
11582TIP3   OH256236   5.293   4.415   1.818 -0.1002  0.1424  0.0497
11582TIP3    H156237   5.223   4.361   1.781 -0.2074  0.7156 -0.5839
11582TIP3    H256238   5.317   4.370   1.899 -0.0319 -0.9972 -0.5943
11583TIP3   OH256239   5.974   0.565   3.884  0.3125  0.4382 -0.1012
11583TIP3    H156240   5.987   0.509   3.808 -0.0224  1.3624 -0.8572
11583TIP3    H256241   5.879   0.573   3.891  0.3469  0.4956  0.3097
11584TIP3   OH256242   0.041   5.568  16.730 -0.4571 -0.6394 -0.1931
11584TIP3    H156243  -0.009   5.624  16.670  1.4229 -0.2763 -1.4945
11584TIP3    H256244   0.009   5.591  16.817  0.3165  2.5609 -0.6974
11585TIP3   OH256245   5.632   4.181   3.904  0.1213  0.1909  0.3691
11585TIP3    H156246   5.694   4.137   3.846 -0.2933  1.1117 -0.7737
11585TIP3    H256247   5.546   4.168   3.864 -0.0942  1.3879  0.4190
11586TIP3   OH256248   1.430   1.148   4.752  0.2567  0.0187  0.2337
11586TIP3    H156249   1.496   1.091   4.714 -0.3980 -0.9343  0.5206
11586TIP3    H256250   1.455   1.236   4.724  1.9675 -0.2725  0.8168
11587TIP3   OH256251   6.421   3.946  11.865 -0.1119 -0.0695 -0.6344
11587TIP3    H156252   6.516   3.940  11.857 -0.1693 -0.7215 -0.8299
11587TIP3    H256253   6.391   3.855  11.865 -0.6393  0.0953  0.6104
11588TIP3   OH256254   6.083   3.439  15.635 -0.4306  0.7228  0.2139
11588TIP3    H156255   6.146   3.435  15.563  0.1842 -2.1435  0.8572
11588TIP3    H256256   6.131   3.482  15.706  0.4179 -0.3563  0.3075
11589TIP3   OH256257   3.211   3.153   0.740 -0.1182 -0.1771  0.2204
11589TIP3    H156258   3.160   3.127   0.664 -2.1230 -0.4609  1.6111
11589TIP3    H256259   3.152   3.139   0.814  1.2718  1.4531  1.6883
11590TIP3   OH256260   2.405   3.571   4.770  0.1990  0.5834 -0.1401
11590TIP3    H156261   2.347   3.560   4.695  0.5976  0.6274 -0.4518
11590TIP3    H256262   2.350   3.547   4.845 -0.1155  0.2688 -0.4643
11591TIP3   OH256263   2.713   2.710   6.062  0.1485  0.1901 -0.3969
11591TIP3    H156264   2.662   2.782   6.098  1.1875  1.0747 -0.6907
11591TIP3    H256265   2.781   2.752   6.010  0.4611 -1.0131 -0.9735
11592TIP3   OH256266   3.714   2.018  14.483 -0.0214 -0.4630 -0.0748
11592TIP3    H156267   3.691   2.037  14.573  2.4753 -0.7275  0.6600
11592TIP3    H256268   3.733   2.104  14.444  1.0735 -0.5410  0.2854
11593TIP3   OH256269   2.778   6.479  12.518  0.2422 -0.2060  0.3166
11593TIP3    H156270   2.746   6.532  12.445 -0.4886  0.5692  1.1887
11593TIP3    H256271   2.873   6.476  12.506  0.1010 -0.3706 -0.8555
11594TIP3   OH256272   2.288   6.065  11.881 -0.0634 -0.4567 -0.2746
11594TIP3    H156273   2.256   6.000  11.819  0.2420  0.5010 -1.4448
11594TIP3    H256274   2.335   6.014  11.947 -0.3163 -1.4737 -0.8687
11595TIP3   OH256275   0.380   3.519  12.828  1.1820 -0.2322  0.4566
11595TIP3    H156276   0.335   3.494  12.747  0.6350  2.9185 -0.3166
11595TIP3    H256277   0.458   3.464  12.831  0.4180 -1.4665 -1.4287
11596TIP3   OH256278   2.488   0.186  15.125  0.2118  0.2074 -0.7503
11596TIP3    H156279   2.541   0.265  15.120  0.4709 -0.0195 -1.8285
11596TIP3    H256280   2.532   0.130  15.188  1.0460  0.1798 -1.3511
11597TIP3   OH256281   0.410   5.830   0.134  0.0747  0.2180  0.1282
11597TIP3    H156282   0.487   5.804   0.184 -0.3412 -0.3367  0.4827
11597TIP3    H256283   0.336   5.802   0.188 -0.3739 -0.2870 -0.7454
11598TIP3   OH256284   1.016   1.693   5.629  0.5045 -0.3364 -0.1036
11598TIP3    H156285   0.969   1.613   5.650  0.8275 -0.7429 -0.9063
11598TIP3    H256286   1.076   1.705   5.702  1.5129 -1.6537 -0.6925
11599TIP3   OH256287   4.178   3.920  15.862  0.2569 -0.2906 -0.0046
11599TIP3    H156288   4.246   3.938  15.927  0.4071 -1.4286  0.1675
11599TIP3    H256289   4.096   3.921  15.912  0.1374  1.1374 -0.2222
11600TIP3   OH256290   0.717   0.964   2.988  0.5970  0.2759  0.1554
11600TIP3    H156291   0.796   1.017   2.971  0.5868  0.7004  1.3716
11600TIP3    H256292   0.675   1.007   3.062 -1.0846  0.3661 -0.8210
11601TIP3   OH256293   0.170   6.232   0.317 -0.0408  0.1808  0.5799
11601TIP3    H156294   0.240   6.187   0.269 -0.0567  0.8772 -0.0945
11601TIP3    H256295   0.204   6.319   0.333 -0.5186  0.3296  0.7751
11602TIP3   OH256296   2.017   3.959  16.428 -0.1523  0.6072  0.0089
11602TIP3    H156297   1.931   3.994  16.407 -0.6295 -0.9146 -0.6459
11602TIP3    H256298   2.075   4.034  16.424 -1.3595  1.5454 -0.1181
11603TIP3   OH256299   3.075   3.807   3.298 -0.4198  1.2068  0.0846
11603TIP3    H156300   3.132   3.839   3.228  0.7910  2.7950  1.7525
11603TIP3    H256301   2.999   3.865   3.296  0.0553  1.8594  0.6862
11604TIP3   OH256302   6.471   0.433   3.836  0.3137 -0.0584 -0.2889
11604TIP3    H156303   6.447   0.523   3.859  1.0159 -0.5479  2.4857
11604TIP3    H256304   6.565   0.428   3.852  0.2495 -1.3390 -0.3100
11605TIP3   OH256305   2.495   3.804  16.382  0.0456  0.0596 -0.9999
11605TIP3    H156306   2.579   3.847  16.399 -0.5572  0.4281  1.3666
11605TIP3    H256307   2.435   3.876  16.361 -0.4587  0.1859  0.7859
11606TIP3   OH256308   2.238   5.996   3.594 -0.0277 -0.1007 -0.5998
11606TIP3    H156309   2.325   6.033   3.610 -0.6259 -0.4433  4.2880
11606TIP3    H256310   2.249   5.902   3.610 -1.1510 -0.2120 -0.4570
11607TIP3   OH256311   5.707   1.561   4.784 -0.2912  0.0600 -0.1798
11607TIP3    H156312   5.719   1.553   4.879  0.6171  2.4743 -0.0674
11607TIP3    H256313   5.653   1.639   4.772  1.1784  0.8821 -1.7183
11608TIP3   OH256314   0.309   5.733  16.876  0.3099  0.2103 -0.6020
11608TIP3    H156315   0.265   5.654  16.844  0.5508 -0.2298  0.1351
11608TIP3    H256316   0.244   5.773  16.935 -0.5354  1.5699 -2.4063
11609TIP3   OH256317   5.934   4.027   5.532  0.0656 -0.2506 -0.0326
11609TIP3    H156318   5.987   4.075   5.595  0.1482 -1.1056  0.5590
11609TIP3    H256319   5.996   3.967   5.489  0.3472  1.4624 -2.1026
11610TIP3   OH256320   4.212   2.074  12.801  0.8099  0.6337 -0.1959
11610TIP3    H156321   4.211   2.072  12.896 -0.0122 -0.7707 -0.2140
11610TIP3    H256322   4.295   2.116  12.778  0.4142  2.1733  1.1354
11611TIP3   OH256323   5.460   3.341  15.915 -0.0750  0.0601 -0.3641
11611TIP3    H156324   5.368   3.367  15.913 -0.4957 -1.2101  1.2616
11611TIP3    H256325   5.458   3.246  15.932  1.5480  0.2946  1.2840
11612TIP3   OH256326   5.223   6.502  15.061  0.5867  0.1830 -0.4619
11612TIP3    H156327   5.269   6.420  15.042 -0.4075 -0.2741 -0.9202
11612TIP3    H256328   5.293   6.567  15.068  1.2945 -0.4665 -1.3630
11613TIP3   OH256329   0.462   1.897   4.299 -0.0482  0.2796 -0.3378
11613TIP3    H156330   0.487   1.818   4.252  2.0413 -0.5838  2.1001
11613TIP3    H256331   0.411   1.865   4.374  0.2987  1.2730  0.3362
11614TIP3   OH256332   5.050   3.642  16.850  0.1200 -0.1090 -0.1771
11614TIP3    H156333   4.967   3.690  16.849 -0.7759 -1.5825  1.2715
11614TIP3    H256334   5.048   3.589  16.771 -0.4970 -0.4215  0.0443
11615TIP3   OH256335   1.801   6.619   6.463 -0.4164  0.7254 -0.0286
11615TIP3    H156336   1.721   6.608   6.413 -0.0968  0.7874 -0.5572
11615TIP3    H256337   1.804   6.542   6.520 -2.3070  2.1415  2.0525
11616TIP3   OH256338   1.189   1.087   1.894 -0.3761  0.3782 -0.5785
11616TIP3    H156339   1.111   1.085   1.950 -0.8420  2.5406 -1.1185
11616TIP3    H256340   1.257   1.125   1.949  0.0506 -0.5864 -0.4307
11617TIP3   OH256341   3.746   2.736   1.391 -0.0308  0.0112  0.3685
11617TIP3    H156342   3.833   2.777   1.387 -0.4622  0.9710  0.6549
11617TIP3    H256343   3.757   2.659   1.447  0.4289  0.6479  1.1556
11618TIP3   OH256344   6.494   5.252  12.215  0.1295  0.4460 -0.2294
11618TIP3    H156345   6.537   5.333  12.241 -0.2643  1.3389 -2.2671
11618TIP3    H256346   6.558   5.210  12.157 -0.6037  0.4156 -1.0171
11619TIP3   OH256347   4.453   3.185  15.101  0.0138 -0.4479 -0.1429
11619TIP3    H156348   4.474   3.166  15.192 -1.6415 -0.9327  0.1645
11619TIP3    H256349   4.449   3.280  15.096  1.6865 -0.3595 -0.0983
11620TIP3   OH256350   5.213   0.330  17.035  0.2290  0.6973  0.1076
11620TIP3    H156351   5.308   0.339  17.029 -0.0422  1.5428 -3.6439
11620TIP3    H256352   5.185   0.403  17.091  1.4673  2.4826 -1.5616
11621TIP3   OH256353   6.797   6.505   3.993 -0.0746  0.4932 -0.0378
11621TIP3    H156354   6.729   6.535   4.053 -1.4882  0.2881 -1.4978
11621TIP3    H256355   6.798   6.571   3.923  2.3810  1.3740  0.7827
11622TIP3   OH256356   3.430   5.466  11.900  0.2182 -0.1380 -0.0216
11622TIP3    H156357   3.391   5.481  11.987 -0.7423  0.7145 -0.5896
11622TIP3    H256358   3.512   5.516  11.902 -0.0868  0.3585  0.1856
11623TIP3   OH256359   1.029   0.675  16.388 -0.2093  0.5184  0.2102
11623TIP3    H156360   0.948   0.629  16.366  1.3720 -2.1106 -0.3929
11623TIP3    H256361   1.058   0.634  16.470  1.0046  0.7155 -0.1079
11624TIP3   OH256362   3.437   4.206  13.638  0.2262  0.1325  0.0982
11624TIP3    H156363   3.363   4.149  13.619  0.3357 -0.0137  0.1061
11624TIP3    H256364   3.471   4.230  13.551  0.5900 -0.3554  0.1052
11625TIP3   OH256365   4.706   5.942   5.136 -0.3289 -0.3674  0.0367
11625TIP3    H156366   4.628   5.887   5.131 -1.4733  1.2900 -1.0250
11625TIP3    H256367   4.689   6.001   5.210  0.0012 -0.1444 -0.0630
11626TIP3   OH256368   0.610   3.380  12.839 -0.0996  0.2395  0.2756
11626TIP3    H156369   0.667   3.306  12.820 -0.3649 -0.4278  2.0134
11626TIP3    H256370   0.645   3.419  12.919 -0.9384  0.9962  0.2977
11627TIP3   OH256371   4.889   2.087  13.709 -0.1911  0.5574  0.1985
11627TIP3    H156372   4.903   2.172  13.750  0.8455  0.0540  0.9091
11627TIP3    H256373   4.805   2.096  13.664 -0.5104  1.6773  0.9889
11628TIP3   OH256374   3.125   2.068  13.384  0.0054 -0.5002  0.4724
11628TIP3    H156375   3.066   2.081  13.310  0.2073 -0.9439  0.2325
11628TIP3    H256376   3.177   2.149  13.389  0.6560 -0.8551 -0.4682
11629TIP3   OH256377   6.251   2.038  10.752  0.1672  0.2769 -0.4579
11629TIP3    H156378   6.277   1.963  10.804 -0.3235 -0.0742 -0.7097
11629TIP3    H256379   6.279   2.018  10.663  0.5584  0.6513 -0.4203
11630TIP3   OH256380   0.210   6.094   3.512  0.1988 -0.1004 -0.3952
11630TIP3    H156381   0.271   6.046   3.456 -1.2066 -2.2989 -0.1072
11630TIP3    H256382   0.205   6.042   3.592 -0.8059  0.9269  0.2328
11631TIP3   OH256383   1.696   0.312  15.331  0.1502  0.2515 -0.0824
11631TIP3    H156384   1.674   0.326  15.423 -2.1320  2.2063 -0.8547
11631TIP3    H256385   1.788   0.338  15.324  0.4518 -0.3006  1.7160
11632TIP3   OH256386   4.496   6.773  11.409 -0.3936 -0.2852 -0.6262
11632TIP3    H156387   4.431   6.736  11.349  0.2560 -3.2838  0.4619
11632TIP3    H256388   4.444   6.823  11.472 -1.3402  0.1992 -1.7704
11633TIP3   OH256389   1.378   1.853   4.071  0.6247 -0.1308  0.4490
11633TIP3    H156390   1.380   1.789   4.000 -0.4861  2.1237 -1.6628
11633TIP3    H256391   1.355   1.801   4.149 -2.1255 -2.0695 -1.5432
11634TIP3   OH256392   2.959   4.121  16.432  0.1599  0.5510 -0.2009
11634TIP3    H156393   2.957   4.115  16.337  0.4562  1.0898 -0.2386
11634TIP3    H256394   3.033   4.066  16.458 -0.1891  0.0551 -0.2520
11635TIP3   OH256395   4.676   1.840   5.035 -0.0695 -0.5016 -0.0433
11635TIP3    H156396   4.616   1.868   4.967 -0.0593 -0.1312  0.1011
11635TIP3    H256397   4.657   1.897   5.109  1.2793  0.4285 -0.3875
11636TIP3   OH256398   0.721   1.483  12.155 -0.0357 -0.4676  0.1969
11636TIP3    H156399   0.795   1.450  12.103 -0.6869 -1.3247 -0.2142
11636TIP3    H256400   0.656   1.508  12.089  0.7818  2.5309  0.4711
11637TIP3   OH256401   5.996   0.009  12.304 -0.5031 -0.2362 -0.1761
11637TIP3    H156402   5.975  -0.084  12.306  1.5549 -0.7260 -0.1637
11637TIP3    H256403   6.020   0.027  12.213  0.3150 -0.0195  0.0722
11638TIP3   OH256404   1.542   5.096  11.640 -0.0407 -0.2031  0.2510
11638TIP3    H156405   1.565   5.139  11.722 -2.7512  0.8567  0.5186
11638TIP3    H256406   1.533   5.003  11.662  0.8480 -0.1630  0.7840
11639TIP3   OH256407   3.609   6.155  11.600 -0.0352  0.0375 -0.1968
11639TIP3    H156408   3.612   6.070  11.555  1.7225 -0.3199  0.5427
11639TIP3    H256409   3.677   6.207  11.557 -0.1542  0.5898  0.2799
11640TIP3   OH256410   0.166   4.504   0.941  0.3549  0.0939  0.7351
11640TIP3    H156411   0.167   4.497   1.036  0.0201 -0.8035  0.6781
11640TIP3    H256412   0.115   4.428   0.912  0.3633  0.4217 -0.1531
11641TIP3   OH256413   1.828   4.885  15.492  0.1664 -0.1767 -0.5188
11641TIP3    H156414   1.753   4.839  15.455  0.3990 -1.2740  0.3450
11641TIP3    H256415   1.876   4.818  15.541  0.7293  0.8937  0.4292
11642TIP3   OH256416   2.785   0.775  11.703 -0.5051 -0.1474  0.3442
11642TIP3    H156417   2.851   0.833  11.742  0.1746  0.6548 -1.9330
11642TIP3    H256418   2.836   0.703  11.667 -0.7863  0.7052 -1.8363
11643TIP3   OH256419   5.342   3.068  15.627  0.3050  0.6768  0.1943
11643TIP3    H156420   5.390   3.068  15.544  0.5032  2.0341  0.3058
11643TIP3    H256421   5.409   3.078  15.694  0.1756 -0.7433  0.5459
11644TIP3   OH256422   2.645   0.136   2.953  0.6092 -0.7417  0.5430
11644TIP3    H156423   2.699   0.128   3.032  2.2776  0.6440 -0.4290
11644TIP3    H256424   2.611   0.225   2.957  0.7017 -0.6670 -0.2846
11645TIP3   OH256425   1.581   2.249   4.468  0.1644 -0.2284  0.0448
11645TIP3    H156426   1.504   2.260   4.523 -0.9533  1.5508 -1.8049
11645TIP3    H256427   1.588   2.154   4.454 -1.4784 -0.4310  0.5306
11646TIP3   OH256428   1.673   5.945   6.072 -0.1876 -0.0157  0.4096
11646TIP3    H156429   1.721   5.945   5.989  0.1365 -1.6952  0.5703
11646TIP3    H256430   1.650   6.037   6.087  0.8644  0.4797 -0.8964
11647TIP3   OH256431   0.485   6.261  11.783 -0.1058 -0.6172  0.4863
11647TIP3    H156432   0.407   6.246  11.729  1.4907 -3.7654 -1.1035
11647TIP3    H256433   0.546   6.306  11.724  0.3062 -0.7335  0.8258
11648TIP3   OH256434   1.340   4.224   5.847 -0.5230  0.0589  0.3027
11648TIP3    H156435   1.271   4.181   5.898  1.1357 -1.6469  1.2153
11648TIP3    H256436   1.405   4.249   5.912  0.4379  0.2087 -0.7067
11649TIP3   OH256437   3.310   0.369  13.658 -0.0161  0.1170  0.0266
11649TIP3    H156438   3.222   0.362  13.620 -0.2654  3.3017 -0.1665
11649TIP3    H256439   3.369   0.355  13.584 -0.4394  1.3992 -0.5741
11650TIP3   OH256440   5.856   5.643  12.534  0.7132  0.2903  0.7231
11650TIP3    H156441   5.832   5.572  12.474 -2.1487  0.9072  1.0862
11650TIP3    H256442   5.854   5.722  12.480  1.5437  0.4199  0.8700
11651TIP3   OH256443   6.706   3.828  14.272  0.2539  0.6598 -0.3465
11651TIP3    H156444   6.732   3.769  14.343  1.1092 -0.5950 -1.6602
11651TIP3    H256445   6.611   3.835  14.281  0.0953 -1.1133 -0.2890
11652TIP3   OH256446   3.654   2.938  14.676 -0.2275 -0.3950 -0.5347
11652TIP3    H156447   3.742   2.968  14.698 -0.0651 -1.9932  1.0711
11652TIP3    H256448   3.668   2.868  14.612 -0.5265  1.5978 -2.8692
11653TIP3   OH256449   0.675   1.270   0.541 -0.0611  0.3718 -0.3765
11653TIP3    H156450   0.680   1.342   0.478  0.4162 -0.7944 -1.7008
11653TIP3    H256451   0.614   1.207   0.501  0.7780 -0.6918 -0.0188
11654TIP3   OH256452   2.067   6.035  13.730  0.1161  0.0475 -0.8117
11654TIP3    H156453   2.005   5.974  13.690  0.6458  0.5317 -2.4408
11654TIP3    H256454   2.145   5.982  13.747 -0.8364 -0.6517  1.5971
11655TIP3   OH256455   2.302   0.389  13.170  0.2440  0.4122  0.3119
11655TIP3    H156456   2.352   0.443  13.231 -0.6711  0.6052  0.8961
11655TIP3    H256457   2.297   0.441  13.090 -0.4517  1.1081  0.8039
11656TIP3   OH256458   3.128   4.660   0.275  0.6536 -0.0024  0.7334
11656TIP3    H156459   3.146   4.623   0.361 -0.1239 -1.7019  0.2014
11656TIP3    H256460   3.056   4.721   0.289 -0.3535 -1.2511  1.0955
11657TIP3   OH256461   1.353   2.125  15.780  0.1623 -0.0026 -0.0958
11657TIP3    H156462   1.371   2.198  15.720  1.1708  0.5099  0.7987
11657TIP3    H256463   1.424   2.063  15.765  1.1322  0.7044  1.4301
11658TIP3   OH256464   1.163   6.636  15.754 -0.1597 -0.4747  0.0441
11658TIP3    H156465   1.102   6.649  15.826  1.2744 -2.7720  1.7222
11658TIP3    H256466   1.141   6.550  15.719  1.7950 -1.1204  0.3733
11659TIP3   OH256467   3.652   0.879   5.616 -0.2836  0.5966 -0.4233
11659TIP3    H156468   3.567   0.891   5.659  0.0351  0.5861  0.2178
11659TIP3    H256469   3.634   0.817   5.545 -1.0046  1.3448 -0.8953
11660TIP3   OH256470   1.034   2.174   2.430 -0.6046 -0.3079 -0.1518
11660TIP3    H156471   1.036   2.204   2.521  0.3680  1.5783 -0.7651
11660TIP3    H256472   0.942   2.177   2.405 -1.0238 -1.9674  1.1095
11661TIP3   OH256473   0.981   6.532   1.767  0.6457  0.0425  0.6721
11661TIP3    H156474   0.956   6.460   1.824  1.9591 -1.5572 -0.7374
11661TIP3    H256475   1.050   6.578   1.815 -0.5501  0.7027  1.7947
11662TIP3   OH256476   2.989   6.506  16.712  0.1255 -0.0946 -0.4486
11662TIP3    H156477   2.919   6.565  16.685 -1.4139 -1.0915  1.2771
11662TIP3    H256478   3.033   6.551  16.784  0.2026 -0.2081 -0.4218
11663TIP3   OH256479   2.484   6.046   1.832 -0.3687 -0.0232 -0.0644
11663TIP3    H156480   2.530   6.080   1.908 -1.1827  0.4657  0.2123
11663TIP3    H256481   2.450   5.961   1.861  1.0558 -0.7702 -0.5322
11664TIP3   OH256482   6.246   2.355  14.807 -0.1016  0.0773 -0.5414
11664TIP3    H156483   6.273   2.394  14.724  2.6315 -0.8842 -0.1410
11664TIP3    H256484   6.249   2.427  14.869  1.3197  0.0400 -0.5590
11665TIP3   OH256485   4.564   4.025   3.922  0.1697  0.6192 -0.0045
11665TIP3    H156486   4.628   4.091   3.898  0.7264  0.3088  0.6146
11665TIP3    H256487   4.494   4.073   3.966 -0.0714  0.9671 -0.7505
11666TIP3   OH256488   3.792   2.577  11.139 -0.2692 -0.1156 -0.0090
11666TIP3    H156489   3.742   2.497  11.127 -0.1416 -0.2057  0.0580
11666TIP3    H256490   3.767   2.609  11.226  2.1173 -1.8111  1.3418
11667TIP3   OH256491   6.817   0.129  15.554 -0.0900  0.0916 -0.4009
11667TIP3    H156492   6.855   0.042  15.550 -2.1664 -0.9513  1.4146
11667TIP3    H256493   6.869   0.176  15.619  0.7713  0.0675 -1.0753
11668TIP3   OH256494   4.255   6.084  15.271 -0.2479  0.0658 -0.8417
11668TIP3    H156495   4.283   6.142  15.200  0.3181  0.3533 -0.3911
11668TIP3    H256496   4.301   6.002  15.255  1.3578  0.7215  0.2263
11669TIP3   OH256497   1.562   5.410  11.444 -0.6894  0.2362 -0.6128
11669TIP3    H156498   1.495   5.405  11.513  0.2306  0.0905  0.2882
11669TIP3    H256499   1.521   5.367  11.369 -1.1434 -1.0177  0.3156
11670TIP3   OH256500   5.739   4.465   4.081 -0.1133 -0.1458 -0.4207
11670TIP3    H156501   5.754   4.423   3.996  1.0215 -0.2137 -0.2006
11670TIP3    H256502   5.754   4.396   4.145 -0.8987 -0.0785 -0.1565
11671TIP3   OH256503   1.477   0.606  13.393 -0.0873  0.6447 -0.0639
11671TIP3    H156504   1.546   0.543  13.408 -0.6887  0.2549  1.1329
11671TIP3    H256505   1.404   0.577  13.448 -1.1501  1.1384 -1.1649
11672TIP3   OH256506   2.525   1.081  14.092 -0.2114 -0.0564  0.3958
11672TIP3    H156507   2.502   1.171  14.070 -1.4971 -0.4087  0.2352
11672TIP3    H256508   2.496   1.029  14.017  1.6426 -0.4792 -0.0628
11673TIP3   OH256509   3.836   0.054   2.324 -0.0639 -0.0392 -0.9348
11673TIP3    H156510   3.886   0.134   2.338  0.3446 -0.5037  0.3427
11673TIP3    H256511   3.776   0.050   2.398 -0.7500 -0.4124 -1.5110
11674TIP3   OH256512   2.259   5.020   6.339  0.4384  0.2629  0.4689
11674TIP3    H156513   2.293   5.109   6.331 -0.5912  0.6743  0.6520
11674TIP3    H256514   2.331   4.971   6.378 -0.0463  1.6890  3.2924
11675TIP3   OH256515   2.430   1.851  15.204  0.0786  0.3621  0.1003
11675TIP3    H156516   2.489   1.894  15.143  1.5769 -0.3382  1.0422
11675TIP3    H256517   2.486   1.820  15.275 -0.9156 -3.0992 -0.5042
11676TIP3   OH256518   0.518   6.490   4.932 -0.0714  0.0912 -0.1159
11676TIP3    H156519   0.559   6.500   5.018  2.6776  0.7519 -1.4393
11676TIP3    H256520   0.508   6.396   4.921  2.0872 -0.1529 -0.1727
11677TIP3   OH256521   0.662   4.617  15.826 -0.0369 -0.1956  0.7110
11677TIP3    H156522   0.585   4.641  15.774  0.3388 -0.2078  0.1418
11677TIP3    H256523   0.672   4.523  15.812  1.7309  0.2960 -1.4631
11678TIP3   OH256524   2.204   6.049  10.855 -0.2011  0.1814 -0.1654
11678TIP3    H156525   2.221   6.140  10.880 -0.3493  0.1164  0.1707
11678TIP3    H256526   2.108   6.043  10.851 -0.1705  0.3824 -1.4472
11679TIP3   OH256527   3.237   6.659  13.693 -0.1516  0.0831  0.1844
11679TIP3    H156528   3.184   6.599  13.642  0.7395  0.5173 -1.2615
11679TIP3    H256529   3.176   6.694  13.759 -2.0261  1.5332 -2.2130
11680TIP3   OH256530   5.357   6.208   3.482  1.1867 -0.6305  0.1445
11680TIP3    H156531   5.379   6.232   3.392  3.1463 -0.6276  0.6020
11680TIP3    H256532   5.329   6.117   3.476  0.0477 -0.2418 -0.6493
11681TIP3   OH256533   5.817   3.057   0.197 -0.6250  0.2513  0.0223
11681TIP3    H156534   5.751   3.006   0.245  0.5145 -1.3010 -0.0103
11681TIP3    H256535   5.767   3.107   0.133 -1.6964 -1.7290 -0.7362
11682TIP3   OH256536   1.535   4.933  14.605 -0.2237 -0.1046 -0.2005
11682TIP3    H156537   1.608   4.993  14.623  0.5116 -0.7968 -0.8579
11682TIP3    H256538   1.536   4.922  14.510 -0.9829 -0.3813 -0.1787
11683TIP3   OH256539   2.909   2.392  12.319 -0.4342 -0.0217  0.0247
11683TIP3    H156540   2.865   2.452  12.260 -1.8500 -0.7350  0.3343
11683TIP3    H256541   2.853   2.315  12.321  0.0281 -0.3362  1.6478
11684TIP3   OH256542   4.461   3.571   2.299  0.1639  0.5671  0.6797
11684TIP3    H156543   4.382   3.621   2.320  0.0215 -0.2890  2.2951
11684TIP3    H256544   4.520   3.635   2.260 -1.0982  1.3518  0.0301
11685TIP3   OH256545   3.375   4.947  13.963  0.4316  0.0050  0.2870
11685TIP3    H156546   3.368   5.011  13.893  1.4834  1.3941  1.4246
11685TIP3    H256547   3.284   4.929  13.988  0.0448 -0.6525 -1.5307
11686TIP3   OH256548   6.757   6.020  14.930 -0.3995 -0.2169 -0.1740
11686TIP3    H156549   6.774   5.977  14.846 -0.9426  1.6852 -1.2858
11686TIP3    H256550   6.748   5.948  14.992  0.8497 -1.6267 -1.5770
11687TIP3   OH256551   0.164   2.023   5.146  0.1919  0.1581 -0.1164
11687TIP3    H156552   0.081   2.041   5.102 -0.3834 -1.2787  0.3479
11687TIP3    H256553   0.151   1.940   5.190  1.8538 -0.0378  0.0677
11688TIP3   OH256554   2.640   4.595   4.737 -0.5621  0.3623 -0.1289
11688TIP3    H156555   2.560   4.546   4.756 -0.7083  0.2820 -0.9439
11688TIP3    H256556   2.666   4.632   4.821  0.1237 -1.9707  0.7320
11689TIP3   OH256557   4.343   5.033   3.536 -0.0022  0.0805 -0.9960
11689TIP3    H156558   4.382   5.051   3.451 -0.4508  0.3559 -1.1435
11689TIP3    H256559   4.401   5.076   3.599  0.1950  0.0822 -1.1795
11690TIP3   OH256560   5.211   1.446   0.823 -0.5501 -0.0014 -0.5844
11690TIP3    H156561   5.196   1.445   0.918 -2.7898 -0.0675 -0.9197
11690TIP3    H256562   5.146   1.386   0.788 -0.7501  1.1826 -2.3030
11691TIP3   OH256563   6.334   2.297  17.050 -0.1554  0.0923  0.3424
11691TIP3    H156564   6.352   2.381  17.090 -0.4090  0.0301  0.5872
11691TIP3    H256565   6.400   2.289  16.981  0.0171  0.3823  0.4742
11692TIP3   OH256566   6.581   0.288  11.421 -0.2850 -0.7419 -0.1202
11692TIP3    H156567   6.656   0.347  11.424 -0.0272 -1.1046  1.0697
11692TIP3    H256568   6.595   0.228  11.495 -1.4452 -1.1741 -0.2375
11693TIP3   OH256569   4.280   6.676  12.199  0.3333 -0.2792 -0.0649
11693TIP3    H156570   4.243   6.689  12.112  0.4754  1.5662  0.1340
11693TIP3    H256571   4.373   6.656  12.184 -0.1482 -2.3899 -0.4321
11694TIP3   OH256572   3.571   2.958  14.349 -0.3338 -0.2392 -0.1250
11694TIP3    H156573   3.576   3.024  14.419 -0.6200 -1.4655  1.0588
11694TIP3    H256574   3.522   2.886  14.387 -0.4043 -0.9698 -1.5698
11695TIP3   OH256575   5.583   3.208   0.516  0.3087  0.0155 -0.4006
11695TIP3    H156576   5.527   3.235   0.588  1.8621 -1.2667  1.3353
11695TIP3    H256577   5.668   3.190   0.557  1.3525 -0.2510 -2.6142
11696TIP3   OH256578   0.733   1.992  16.887 -0.4149 -0.1523  0.2307
11696TIP3    H156579   0.814   1.959  16.926  0.3519 -0.2256 -1.3813
11696TIP3    H256580   0.681   1.914  16.869 -0.4375 -0.1733  0.3871
11697TIP3   OH256581   0.111   4.946  15.212  0.8014 -0.0486 -0.2986
11697TIP3    H156582   0.079   4.911  15.129  1.9777 -0.8169 -0.4453
11697TIP3    H256583   0.161   4.874  15.250 -0.3453  0.0399  1.4405
11698TIP3   OH256584   5.464   4.991   4.832 -0.2855  0.1297 -0.0705
11698TIP3    H156585   5.413   4.912   4.815  0.0654 -0.1610  0.2251
11698TIP3    H256586   5.442   5.050   4.760 -1.0008 -0.0118  0.0283
11699TIP3   OH256587   0.190   2.207  15.021  0.3653  0.0438  0.0687
11699TIP3    H156588   0.260   2.268  15.001  0.8083 -0.5590 -0.2259
11699TIP3    H256589   0.189   2.202  15.117  0.1744  0.6896  0.0981
11700TIP3   OH256590   0.470   2.382   1.222  0.3515 -0.2730 -0.3061
11700TIP3    H156591   0.451   2.471   1.251  0.3345 -0.5809  0.6365
11700TIP3    H256592   0.562   2.384   1.196  0.6653 -0.2482  0.7776
11701TIP3   OH256593   5.109   1.452  16.500 -0.3463  1.1582 -0.4505
11701TIP3    H156594   5.144   1.465  16.588  2.4986  2.6265 -1.7533
11701TIP3    H256595   5.128   1.361  16.479 -0.1170  1.0888  0.0658
11702TIP3   OH256596   4.193   5.891  13.829  0.2174 -0.2544 -0.3066
11702TIP3    H156597   4.186   5.978  13.791  1.0417 -0.6635 -1.4091
11702TIP3    H256598   4.111   5.847  13.804 -1.0489  0.7964  1.8394
11703TIP3   OH256599   6.182   1.531  13.404  0.0911  0.1162 -0.5869
11703TIP3    H156600   6.091   1.557  13.419 -0.0374 -1.0461  0.8197
11703TIP3    H256601   6.199   1.556  13.314 -2.1373 -1.0362 -1.3773
11704TIP3   OH256602   2.867   2.265   1.689  0.5727  0.2650 -0.2236
11704TIP3    H156603   2.922   2.188   1.702  0.0530 -0.1871 -0.6642
11704TIP3    H256604   2.918   2.323   1.633  0.4574 -0.3159 -0.9445
11705TIP3   OH256605   3.209   4.437  12.400 -0.1023 -0.0633  0.0987
11705TIP3    H156606   3.200   4.486  12.318 -1.3534 -0.2529  0.1081
11705TIP3    H256607   3.142   4.369  12.395  0.5154 -0.7366  0.8213
11706TIP3   OH256608   2.523   6.685   3.154  0.9704 -0.5028 -0.0205
11706TIP3    H156609   2.534   6.770   3.112 -0.2395  0.6852  1.9669
11706TIP3    H256610   2.506   6.625   3.082  1.6334  0.9776 -1.4441
11707TIP3   OH256611   3.278   5.663  12.678  0.0917  0.4901 -0.6692
11707TIP3    H156612   3.335   5.687  12.751 -0.7437  0.3271  0.0501
11707TIP3    H256613   3.233   5.745  12.655 -0.5564  0.2759 -0.1814
11708TIP3   OH256614   2.283   3.128  11.947  0.2061  0.7112 -0.2899
11708TIP3    H156615   2.298   3.177  12.028 -0.9491  0.8763 -0.1692
11708TIP3    H256616   2.189   3.135  11.932  0.2419 -0.3213 -1.0178
11709TIP3   OH256617   1.646   1.833   2.867 -0.5431  0.5327  0.3205
11709TIP3    H156618   1.558   1.830   2.904 -0.8940 -0.0323 -0.5578
11709TIP3    H256619   1.699   1.783   2.928 -1.6530 -2.7890 -1.3395
11710TIP3   OH256620   6.117   4.381   1.479 -0.0861  0.7688 -0.5571
11710TIP3    H156621   6.033   4.386   1.433  0.0115  1.6027 -0.6595
11710TIP3    H256622   6.182   4.402   1.412  0.1340  1.0191 -0.2667
11711TIP3   OH256623   5.709   4.402   3.133 -0.7312 -0.9001  0.5362
11711TIP3    H156624   5.744   4.417   3.221 -0.6802 -2.1563  0.7384
11711TIP3    H256625   5.708   4.307   3.124  1.3386 -0.7506 -1.6658
11712TIP3   OH256626   0.072   5.271   6.339 -0.6291 -0.5671  0.1734
11712TIP3    H156627   0.049   5.329   6.267  2.6691  1.2852  0.4908
11712TIP3    H256628   0.063   5.326   6.417  0.9075 -0.9667  0.6445
11713TIP3   OH256629   2.858   1.915   3.800  0.0818  0.4772 -0.0063
11713TIP3    H156630   2.935   1.959   3.766  0.0867  1.4478  1.2268
11713TIP3    H256631   2.870   1.823   3.776  0.4936  0.9867 -1.8271
11714TIP3   OH256632   5.714   5.129   5.992 -0.0990  0.3852 -0.7353
11714TIP3    H156633   5.729   5.041   6.027 -1.1798 -0.6101 -2.6773
11714TIP3    H256634   5.788   5.181   6.024  2.1600 -1.9558 -1.9368
11715TIP3   OH256635   0.563   0.418  13.706 -0.8756 -0.7053 -0.0587
11715TIP3    H156636   0.469   0.431  13.717 -0.6381  0.2787  0.9124
11715TIP3    H256637   0.588   0.358  13.776 -0.8034 -1.1189 -0.4311
11716TIP3   OH256638   5.788   2.138  16.267  0.2836  0.1929  0.3245
11716TIP3    H156639   5.845   2.064  16.244  1.1141  0.8846  0.1438
11716TIP3    H256640   5.759   2.118  16.355 -1.2755 -1.4579 -0.5298
11717TIP3   OH256641   4.537   5.062   0.805 -0.2128 -0.0045 -0.0747
11717TIP3    H156642   4.588   4.995   0.850  0.1033  1.6058  2.0212
11717TIP3    H256643   4.602   5.127   0.777 -0.8965  1.3651  1.3866
11718TIP3   OH256644   3.900   3.248  13.021 -0.0087 -0.3661 -0.0613
11718TIP3    H156645   3.995   3.259  13.022 -0.1415  0.9781  3.1897
11718TIP3    H256646   3.865   3.336  13.036 -1.8354 -0.5942 -2.6215
11719TIP3   OH256647   5.306   3.666  16.951  0.3898  0.1816  0.1449
11719TIP3    H156648   5.216   3.660  16.917  0.6021 -0.8213 -0.2462
11719TIP3    H256649   5.350   3.726  16.891  0.4401 -0.6631 -0.6733
11720TIP3   OH256650   2.237   5.607   1.698 -0.3941 -0.1556  0.0543
11720TIP3    H156651   2.289   5.564   1.631  0.5479 -1.1995  1.4157
11720TIP3    H256652   2.274   5.575   1.781 -2.3157  0.1565  1.0529
11721TIP3   OH256653   0.191   2.504   4.501  0.2689 -0.0264  0.6224
11721TIP3    H156654   0.122   2.447   4.535 -0.0833 -0.1681 -0.3218
11721TIP3    H256655   0.155   2.539   4.419  0.2723  1.9416  1.4388
11722TIP3   OH256656   6.243   2.612   5.263 -0.0641  0.6849  0.5169
11722TIP3    H156657   6.270   2.636   5.174  0.5076  0.5245  0.6494
11722TIP3    H256658   6.191   2.687   5.293  0.4167  1.0850  0.3524
11723TIP3   OH256659   1.512   2.400  15.180 -0.6953 -0.2167  0.1972
11723TIP3    H156660   1.446   2.435  15.239 -1.3789  0.8354 -1.1690
11723TIP3    H256661   1.553   2.477  15.140 -1.5922 -0.8915 -2.1401
11724TIP3   OH256662   2.984   6.395   1.189 -0.1087  0.3625  0.1700
11724TIP3    H156663   2.990   6.461   1.259 -0.9455 -1.2698  1.8241
11724TIP3    H256664   2.937   6.322   1.229  0.9202 -1.3148 -1.5984
11725TIP3   OH256665   5.550   3.149  10.921  0.2766  0.4090 -0.2044
11725TIP3    H156666   5.495   3.203  10.865  0.5763  1.2407  0.2931
11725TIP3    H256667   5.630   3.136  10.871  0.1517  0.3172 -0.3810
11726TIP3   OH256668   2.742   5.612   2.557  0.0579 -0.1990  0.1665
11726TIP3    H156669   2.783   5.669   2.622  1.4276  0.3395 -1.1150
11726TIP3    H256670   2.801   5.536   2.552 -0.1285 -0.3147 -0.2992
11727TIP3   OH256671   1.077   1.420   2.137 -0.2865  0.0999 -0.7865
11727TIP3    H156672   1.008   1.484   2.153 -1.2680 -1.2337  0.4828
11727TIP3    H256673   1.048   1.372   2.059 -0.0688  0.5178 -1.1225
11728TIP3   OH256674   0.607   5.802  14.152 -0.3540 -0.0746  0.1060
11728TIP3    H156675   0.691   5.795  14.106 -0.3300 -1.1830  0.3142
11728TIP3    H256676   0.542   5.799  14.082 -0.2535 -0.0272  0.0100
11729TIP3   OH256677   0.681   0.962  12.761  0.3599  0.3556 -0.1893
11729TIP3    H156678   0.695   0.946  12.854 -1.6061  0.0740  0.0856
11729TIP3    H256679   0.638   1.047  12.757  0.0512  0.1748 -0.8119
11730TIP3   OH256680   2.938   2.533  16.620  0.0578 -0.6760  0.3441
11730TIP3    H156681   2.884   2.552  16.543  2.3467  1.5716 -0.7644
11730TIP3    H256682   2.971   2.444  16.605  1.5804  0.2423 -1.9712
11731TIP3   OH256683   2.154   4.142  15.565  0.3250 -0.0362  0.6656
11731TIP3    H156684   2.110   4.188  15.495 -0.2314  1.2273  1.8208
11731TIP3    H256685   2.097   4.155  15.642  0.2852 -2.4065  1.0835
11732TIP3   OH256686   2.337   4.192   0.730  0.0848  0.3703  0.2389
11732TIP3    H156687   2.275   4.118   0.727 -0.2536  0.6898 -0.8843
11732TIP3    H256688   2.359   4.201   0.823 -1.0574 -0.1677  0.5736
11733TIP3   OH256689   4.313   2.931  11.277  0.4103 -0.0951 -0.2237
11733TIP3    H156690   4.307   2.983  11.197  0.9816  3.9955  2.2709
11733TIP3    H256691   4.231   2.881  11.280 -0.4216  1.0996 -2.3993
11734TIP3   OH256692   3.572   3.336  11.508 -0.5723 -0.4795 -0.1536
11734TIP3    H156693   3.641   3.334  11.574 -2.1952 -0.9174  1.6134
11734TIP3    H256694   3.491   3.340  11.559 -1.8580 -0.1745 -2.1535
11735TIP3   OH256695   5.566   2.428  11.422 -0.0821  0.4282  0.2933
11735TIP3    H156696   5.574   2.431  11.327  1.4861 -0.4253  0.3889
11735TIP3    H256697   5.656   2.424  11.454 -0.6080  0.1584  1.7967
11736TIP3   OH256698   0.009   4.732   1.002 -0.1690 -0.4268  0.2129
11736TIP3    H156699   0.086   4.676   1.002 -0.6848 -1.1541  2.3766
11736TIP3    H256700  -0.054   4.687   0.945  0.0760 -1.1117  0.4825
11737TIP3   OH256701   6.561   1.539   4.966  0.3427  0.1965  0.8131
11737TIP3    H156702   6.642   1.529   5.015  0.3978  1.9035  1.1226
11737TIP3    H256703   6.496   1.490   5.016  0.6000  1.1509  2.1249
11738TIP3   OH256704   1.474   3.073  13.196 -0.5602  0.3337  0.3386
11738TIP3    H156705   1.553   3.062  13.143 -0.0538 -0.2067  1.1768
11738TIP3    H256706   1.404   3.036  13.142 -0.0953  0.0088 -0.0543
11739TIP3   OH256707   0.259   6.593   4.835 -0.0795  0.3575 -0.4614
11739TIP3    H156708   0.220   6.562   4.916  0.6103  0.9543  0.1009
11739TIP3    H256709   0.274   6.513   4.783 -2.1244  0.1220 -0.7408
11740TIP3   OH256710   5.686   2.626   5.523  0.1403 -0.1845  0.1459
11740TIP3    H156711   5.697   2.720   5.536 -0.2218  0.1876 -2.0204
11740TIP3    H256712   5.760   2.601   5.466  1.5738 -1.6614  2.5766
11741TIP3   OH256713   3.752   5.066  14.887 -0.1665 -0.3988  0.2158
11741TIP3    H156714   3.824   5.098  14.942 -0.0375 -0.5127  0.1110
11741TIP3    H256715   3.782   5.080  14.798 -0.1491 -0.7326  0.1717
11742TIP3   OH256716   2.912   3.700   5.129  0.7275 -0.1288  0.1475
11742TIP3    H156717   2.845   3.768   5.128  1.4215  0.5560 -0.0858
11742TIP3    H256718   2.869   3.623   5.092 -0.3117 -0.0685  1.1922
11743TIP3   OH256719   5.297   0.376   6.403 -0.3548 -0.3545 -0.2494
11743TIP3    H156720   5.392   0.364   6.394 -0.1877  0.4150  0.3824
11743TIP3    H256721   5.259   0.318   6.338  0.6128  0.5835 -1.6835
11744TIP3   OH256722   3.517   3.853   1.850 -0.7160 -0.6877  0.5749
11744TIP3    H156723   3.438   3.885   1.892 -2.1679 -1.9031 -1.1429
11744TIP3    H256724   3.557   3.795   1.915 -1.2358 -0.0976  1.4326
11745TIP3   OH256725   0.962   1.141  15.616 -0.0426  0.0030 -0.1489
11745TIP3    H156726   1.044   1.095  15.632 -0.9921 -1.1905  1.4488
11745TIP3    H256727   0.906   1.076  15.572 -0.1923  0.7691 -1.1232
11746TIP3   OH256728   2.254   1.045  13.164 -0.4341  0.4778  0.2834
11746TIP3    H156729   2.192   0.992  13.214 -1.9093  1.6919 -0.2372
11746TIP3    H256730   2.205   1.074  13.087  0.5693  2.0195  0.2112
11747TIP3   OH256731   5.311   3.227  10.544 -0.2446  0.0027 -0.1742
11747TIP3    H156732   5.353   3.265  10.621  0.2037  0.5649 -0.6910
11747TIP3    H256733   5.300   3.301  10.484 -1.1432 -0.3113 -0.4109
11748TIP3   OH256734   4.866   0.450   3.496 -0.1132  0.5089 -0.4479
11748TIP3    H156735   4.804   0.496   3.553  0.4371  0.0123  0.5731
11748TIP3    H256736   4.812   0.412   3.427 -0.8824  0.5159  0.1427
11749TIP3   OH256737   4.794   2.696  10.411 -0.7501 -0.4421 -0.1867
11749TIP3    H156738   4.762   2.709  10.500  0.5239  1.1798  0.0694
11749TIP3    H256739   4.844   2.615  10.414 -1.9545 -1.1797  0.2085
11750TIP3   OH256740   6.377   3.274   4.827 -0.3369  0.5024  0.0555
11750TIP3    H156741   6.442   3.322   4.880  0.7416  0.3263 -1.0781
11750TIP3    H256742   6.338   3.211   4.887  1.0898  0.1030  0.5807
11751TIP3   OH256743   0.427   4.823   4.882 -1.0171 -0.5714 -0.2621
11751TIP3    H156744   0.510   4.868   4.898 -1.6800  0.5272  0.0663
11751TIP3    H256745   0.424   4.810   4.787 -2.1660  2.6709 -0.7112
11752TIP3   OH256746   2.722   1.679   5.120 -0.2774 -0.0032  0.5125
11752TIP3    H156747   2.747   1.727   5.199 -0.4056 -1.3253  1.3659
11752TIP3    H256748   2.793   1.616   5.106  0.2649  0.9117 -1.0349
11753TIP3   OH256749   2.836   3.435  12.751 -0.4006  0.5909  0.6609
11753TIP3    H156750   2.786   3.426  12.670  2.9114  1.1242 -1.4956
11753TIP3    H256751   2.812   3.358  12.803 -2.6369  0.3161 -0.7137
11754TIP3   OH256752   1.167   3.891   1.403  0.4553 -0.3420  0.0467
11754TIP3    H156753   1.114   3.968   1.425 -1.4068 -1.3204 -0.8809
11754TIP3    H256754   1.167   3.838   1.483 -2.4648 -1.7080 -0.7680
11755TIP3   OH256755   1.538   4.848   3.764  0.1160  0.4227  0.1819
11755TIP3    H156756   1.600   4.916   3.738 -0.1817  0.2635 -0.9567
11755TIP3    H256757   1.459   4.896   3.789 -0.2093  0.4737 -0.9512
11756TIP3   OH256758   6.682   4.741   3.143 -0.0385  0.2233  0.2250
11756TIP3    H156759   6.703   4.752   3.235  0.0794  1.0781  0.0966
11756TIP3    H256760   6.744   4.797   3.097 -0.3082  0.0506 -0.3523
11757TIP3   OH256761   1.600   6.405   3.373 -0.1234  0.0041  0.2056
11757TIP3    H156762   1.537   6.474   3.391  0.9740  1.1558 -0.3342
11757TIP3    H256763   1.664   6.411   3.443  0.3187 -0.0568 -0.1857
11758TIP3   OH256764   0.865   3.592   3.262 -0.3996  0.3907 -0.2095
11758TIP3    H156765   0.804   3.523   3.287 -1.0800  1.0798  0.0740
11758TIP3    H256766   0.951   3.550   3.263 -0.6615 -0.1336  1.2184
11759TIP3   OH256767   5.049   4.205  11.650 -0.2067  0.1637  0.2921
11759TIP3    H156768   5.038   4.143  11.723 -1.6773 -0.1234 -0.1560
11759TIP3    H256769   4.962   4.215  11.613  0.5229  0.2637 -1.4824
11760TIP3   OH256770   3.208   4.545   4.197 -0.3905 -0.0503 -0.2088
11760TIP3    H156771   3.146   4.613   4.221 -1.4024 -0.6803 -1.0013
11760TIP3    H256772   3.254   4.524   4.278 -1.7864 -0.1573  0.5627
11761TIP3   OH256773   1.547   2.654  12.285 -0.2899 -0.1608 -0.4150
11761TIP3    H156774   1.578   2.647  12.195  0.7789 -1.8159  0.0570
11761TIP3    H256775   1.452   2.648  12.278 -0.2396  0.1197 -1.4590
11762TIP3   OH256776   2.322   2.935   2.163 -0.2181  0.0564  0.1541
11762TIP3    H156777   2.330   2.844   2.192  0.6879 -0.4586 -1.6507
11762TIP3    H256778   2.373   2.984   2.227 -0.1766 -0.7836  0.7786
11763TIP3   OH256779   6.550   2.449   3.539 -0.1081  0.2559 -0.2113
11763TIP3    H156780   6.628   2.504   3.544 -0.2920  0.3551  2.0197
11763TIP3    H256781   6.583   2.360   3.549 -0.1555  0.1942 -0.5865
11764TIP3   OH256782   1.327   1.267  12.063 -0.0947  0.1198 -0.1488
11764TIP3    H156783   1.402   1.278  12.120  1.0768  1.7395 -1.9466
11764TIP3    H256784   1.273   1.344  12.078 -0.4865 -0.1426 -0.1924
11765TIP3   OH256785   3.940   5.053  13.488  0.0678 -0.2296 -0.1772
11765TIP3    H156786   3.850   5.057  13.520  0.1746  0.3245  0.0660
11765TIP3    H256787   3.958   5.142  13.458  1.9048  0.7314  3.5004
11766TIP3   OH256788   2.447   1.259  14.695 -0.1436 -0.1821 -0.5790
11766TIP3    H156789   2.525   1.213  14.665 -0.5383 -0.7932 -0.6860
11766TIP3    H256790   2.434   1.227  14.785  1.5573  2.3154  0.5982
11767TIP3   OH256791   0.740   4.932  10.939 -0.2635  0.2014 -0.2097
11767TIP3    H156792   0.721   4.975  10.856 -2.0977  0.3133  0.2438
11767TIP3    H256793   0.834   4.942  10.950 -0.2198  1.4633 -1.5706
11768TIP3   OH256794   2.026   4.843   5.165 -0.1347 -0.3192 -0.2521
11768TIP3    H156795   2.062   4.917   5.115  0.5211  0.5826  1.5012
11768TIP3    H256796   2.002   4.779   5.099  0.2307  1.0565 -1.7591
11769TIP3   OH256797   5.967   0.624  15.436 -1.0912  0.1515  0.1717
11769TIP3    H156798   5.978   0.563  15.364  0.8436  0.8948 -0.1696
11769TIP3    H256799   5.873   0.621  15.456 -1.4719 -0.7794 -1.7199
11770TIP3   OH256800   3.781   0.839   1.927 -0.6024 -0.3852  0.3433
11770TIP3    H156801   3.750   0.912   1.874 -0.3299  0.1806  0.9478
11770TIP3    H256802   3.817   0.776   1.864 -1.2657 -0.2061 -0.2102
11771TIP3   OH256803   2.429   3.452   2.115 -0.0220 -0.8567 -0.1538
11771TIP3    H156804   2.488   3.526   2.104  2.1515 -2.5806 -0.2336
11771TIP3    H256805   2.372   3.478   2.188  1.2048  0.5897  0.3131
11772TIP3   OH256806   0.178   6.226  13.117 -0.3152  0.6338 -0.2344
11772TIP3    H156807   0.137   6.312  13.125  1.2125  1.3113  0.5328
11772TIP3    H256808   0.271   6.245  13.103  0.0564 -0.8923  0.0910
11773TIP3   OH256809   5.946   1.956  14.946  0.6092  0.2931 -0.1246
11773TIP3    H156810   5.908   1.919  15.026  1.7672 -0.6474  0.0053
11773TIP3    H256811   5.893   2.033  14.927 -0.9132 -0.5975  0.4480
11774TIP3   OH256812   6.522   0.413  14.009 -0.6574 -0.1998  0.6108
11774TIP3    H156813   6.463   0.349  14.048 -1.3062 -0.9308 -1.4835
11774TIP3    H256814   6.465   0.472  13.961 -0.0299  1.8529  2.3364
11775TIP3   OH256815   1.041   6.076   3.979  0.2854 -0.3304 -0.0950
11775TIP3    H156816   1.097   6.073   3.901 -1.0675 -1.5166 -1.0727
11775TIP3    H256817   1.028   6.169   3.996  2.7497 -0.0474  0.3192
11776TIP3   OH256818   4.056   1.491  13.680 -0.0335 -0.0451 -0.0113
11776TIP3    H156819   4.083   1.532  13.762  0.9520  1.7522 -1.2169
11776TIP3    H256820   4.092   1.547  13.611 -1.5128 -1.0870 -1.6892
11777TIP3   OH256821   1.185   6.178  14.916 -0.1318 -0.3439 -0.2968
11777TIP3    H156822   1.244   6.106  14.896 -0.3005  0.1409 -2.7686
11777TIP3    H256823   1.113   6.168  14.853 -1.1354  0.8373  0.6312
11778TIP3   OH256824   5.682   3.566   2.404  0.0396 -0.1406  0.0534
11778TIP3    H156825   5.696   3.636   2.467 -2.8762 -0.7574  1.5126
11778TIP3    H256826   5.751   3.576   2.339  1.2349  2.4306  1.6846
11779TIP3   OH256827   2.106   6.816   6.449 -0.3612  0.1894 -0.3403
11779TIP3    H156828   2.197   6.805   6.419 -0.3002 -0.5643  0.0882
11779TIP3    H256829   2.071   6.886   6.394  0.2264 -0.0822 -1.0777
11780TIP3   OH256830   5.670   4.169   6.129  0.2721  0.2910  0.3132
11780TIP3    H156831   5.692   4.078   6.150  1.3171  0.4826  0.0965
11780TIP3    H256832   5.600   4.163   6.064  1.0148 -0.3822 -0.4355
11781TIP3   OH256833   5.496   3.808  16.840  0.1083 -0.3194  0.3319
11781TIP3    H156834   5.525   3.729  16.794  1.0530  0.5713 -0.6055
11781TIP3    H256835   5.574   3.841  16.884  0.1107  1.0125 -0.6400
11782TIP3   OH256836   6.752   5.016   6.565 -0.0141 -0.3261  0.2672
11782TIP3    H156837   6.803   4.936   6.573  0.6086  0.1202  0.7883
11782TIP3    H256838   6.662   4.989   6.583  0.3438 -0.7045  1.5277
11783TIP3   OH256839   1.625   5.881   2.178  0.0686 -0.1514  0.1534
11783TIP3    H156840   1.605   5.972   2.200  2.4282  0.5978 -0.6593
11783TIP3    H256841   1.594   5.870   2.088  1.5570  0.4595 -0.4503
11784TIP3   OH256842   5.413   0.280  11.627  0.3072  0.4049  0.3172
11784TIP3    H156843   5.429   0.270  11.533  2.0540  0.9832  0.5331
11784TIP3    H256844   5.372   0.366  11.636  0.0149  0.2922  0.0873
11785TIP3   OH256845   4.012   2.603  11.901  0.3033 -0.0455  0.0568
11785TIP3    H156846   3.997   2.692  11.870 -0.0450 -0.5880 -1.3625
11785TIP3    H256847   4.075   2.566  11.840  1.1238 -0.5030  1.1576
11786TIP3   OH256848   6.810   4.172   1.643  0.4796 -0.1855  0.1481
11786TIP3    H156849   6.725   4.189   1.684 -0.1556 -0.5333 -0.9956
11786TIP3    H256850   6.874   4.209   1.704 -0.6085  2.2632 -0.0991
11787TIP3   OH256851   2.445   0.434  15.370 -0.0134  0.2979 -0.6658
11787TIP3    H156852   2.486   0.409  15.453 -1.4693  2.0395  0.6008
11787TIP3    H256853   2.401   0.354  15.341 -1.4070  0.2972  1.4000
11788TIP3   OH256854   5.317   5.985  15.583 -0.2202 -0.0418  0.0674
11788TIP3    H156855   5.386   5.962  15.645 -0.5568  1.1409  0.9036
11788TIP3    H256856   5.357   5.977  15.497  0.6453 -0.3896  0.5043
11789TIP3   OH256857   1.532   0.738   4.064  0.0128  0.0014 -0.3007
11789TIP3    H156858   1.489   0.654   4.051  1.7279 -1.0081  0.4648
11789TIP3    H256859   1.567   0.761   3.978 -0.5356 -0.0097 -0.5291
11790TIP3   OH256860   0.958   2.487  11.482  0.3239  0.3198  0.8584
11790TIP3    H156861   0.983   2.400  11.450  1.7025  1.3945 -1.1200
11790TIP3    H256862   0.894   2.470  11.551  3.2253 -2.3765  3.0137
11791TIP3   OH256863   5.003   1.443  13.577 -0.0436 -0.2977 -0.0321
11791TIP3    H156864   5.074   1.493  13.538 -1.1954  0.4490 -1.2001
11791TIP3    H256865   4.924   1.476  13.534 -1.1761 -0.5799  1.7881
11792TIP3   OH256866   2.371   0.631   5.872 -0.0341  0.4434  0.1005
11792TIP3    H156867   2.305   0.576   5.914  0.9919  0.0619  1.2584
11792TIP3    H256868   2.454   0.585   5.886  0.3300  0.1929 -2.6032
11793TIP3   OH256869   6.318   6.028  16.227  0.3476 -0.4948  0.1756
11793TIP3    H156870   6.364   5.971  16.165  0.0114 -0.1348 -0.4137
11793TIP3    H256871   6.233   6.044  16.187  0.5639  0.6929  0.1653
11794TIP3   OH256872   1.404   3.199  14.423 -0.6236  0.4373  0.8809
11794TIP3    H156873   1.348   3.185  14.499  0.4644 -0.0010  1.6100
11794TIP3    H256874   1.453   3.278  14.443 -2.2076  1.8152 -0.5156
11795TIP3   OH256875   1.452   1.324  12.941 -0.1877 -0.7140  0.7799
11795TIP3    H156876   1.481   1.238  12.911 -0.2512 -0.3375 -0.4154
11795TIP3    H256877   1.422   1.368  12.861 -1.1003  0.0495  1.5316
11796TIP3   OH256878   0.495   1.903  12.230 -0.8893 -0.7432 -0.0882
11796TIP3    H156879   0.406   1.937  12.232 -0.4359  0.4276  0.5963
11796TIP3    H256880   0.540   1.948  12.302  0.6275 -0.2520 -1.3032
11797TIP3   OH256881   6.374   5.312   2.365 -0.4859 -0.0468 -0.3923
11797TIP3    H156882   6.300   5.354   2.321 -0.8739 -0.8514 -0.5248
11797TIP3    H256883   6.344   5.222   2.381  0.6329 -0.5203 -0.8888
11798TIP3   OH256884   0.859   5.339  16.657 -0.1036  0.3095 -0.0018
11798TIP3    H156885   0.824   5.422  16.690  1.2763  0.8124  0.2180
11798TIP3    H256886   0.845   5.344  16.562 -2.8442 -0.5622  0.3182
11799TIP3   OH256887   4.648   2.436  12.058  0.4713  0.0811  0.1731
11799TIP3    H156888   4.555   2.453  12.045  0.3415 -1.1337 -0.5458
11799TIP3    H256889   4.667   2.473  12.144 -0.7777 -0.0856  0.5310
11800TIP3   OH256890   3.505   5.147  14.544 -0.3190 -0.7411  0.1485
11800TIP3    H156891   3.482   5.145  14.451 -2.3020 -0.5451  0.6002
11800TIP3    H256892   3.462   5.070  14.581 -2.3274  0.9399  1.4690
11801TIP3   OH256893   4.265   1.195   4.627  0.1424 -1.1466 -0.1029
11801TIP3    H156894   4.278   1.257   4.556  0.3652  0.6993  1.5185
11801TIP3    H256895   4.353   1.161   4.645  0.0888 -1.6068 -0.6733
11802TIP3   OH256896   4.741   0.502  12.205 -0.3258  0.0855 -0.1428
11802TIP3    H156897   4.791   0.544  12.275 -0.5619  1.1880 -0.6254
11802TIP3    H256898   4.683   0.441  12.250 -1.0463  1.3759  0.6874
11803TIP3   OH256899   3.041   3.872  11.527 -0.5287 -0.5986 -0.4066
11803TIP3    H156900   2.980   3.834  11.590  1.0338  0.9664  2.2181
11803TIP3    H256901   3.123   3.824  11.542  0.7354  1.8850  1.1168
11804TIP3   OH256902   5.619   0.314  13.488  0.0881  0.1610 -0.5388
11804TIP3    H156903   5.671   0.234  13.495  0.3514  0.3352 -0.5271
11804TIP3    H256904   5.672   0.374  13.436 -0.4751  0.0296 -1.2804
11805TIP3   OH256905   6.338   6.729   5.133 -0.5615  0.2719 -0.2834
11805TIP3    H156906   6.363   6.777   5.212  0.5960  0.8179 -0.9608
11805TIP3    H256907   6.345   6.794   5.063  0.4207 -0.7239 -1.1286
11806TIP3   OH256908   4.933   0.475   5.381  0.5293  0.0351 -0.3203
11806TIP3    H156909   4.899   0.471   5.471  0.4599 -0.6858 -0.3720
11806TIP3    H256910   4.941   0.383   5.355  0.4444  0.2458 -1.0927
11807TIP3   OH256911   4.222   6.280   1.131  0.1269  0.3950  0.1655
11807TIP3    H156912   4.128   6.297   1.121  0.0869  0.1875  0.1982
11807TIP3    H256913   4.264   6.362   1.103 -0.0769  0.6172  0.5150
11808TIP3   OH256914   2.207   1.899  14.657 -0.2407  0.3090  0.3347
11808TIP3    H156915   2.208   1.982  14.610 -0.7765  0.1545  0.0497
11808TIP3    H256916   2.123   1.898  14.704 -1.2781 -1.0736 -1.4737
11809TIP3   OH256917   5.737   5.619   1.208  0.1782 -0.1208 -0.2144
11809TIP3    H156918   5.687   5.691   1.172 -0.8994  0.0480  1.5680
11809TIP3    H256919   5.827   5.652   1.213 -0.0123  0.5131 -0.8901
11810TIP3   OH256920   0.262   6.350   2.429  0.3332  0.1407 -0.7383
11810TIP3    H156921   0.175   6.319   2.453  1.0687 -0.5026  1.2317
11810TIP3    H256922   0.302   6.374   2.513  2.2201 -0.0515 -1.5660
11811TIP3   OH256923   1.303   4.518   3.750 -0.9075  0.1074 -0.7173
11811TIP3    H156924   1.337   4.429   3.756 -1.8427 -0.1388  1.4146
11811TIP3    H256925   1.379   4.574   3.766 -0.7941 -0.3656  0.4286
11812TIP3   OH256926   5.241   5.693   3.538  0.0491  0.3266  0.6085
11812TIP3    H156927   5.210   5.631   3.605  1.5420  0.5530  1.5528
11812TIP3    H256928   5.233   5.646   3.456 -1.8423  0.0408  0.9291
11813TIP3   OH256929   2.195   4.555  11.979  0.2971  0.3859  0.6002
11813TIP3    H156930   2.221   4.487  11.916  1.0571  1.3873 -0.1692
11813TIP3    H256931   2.270   4.562  12.038 -0.8861 -1.3933  2.3521
11814TIP3   OH256932   2.600   6.285   5.218 -0.1074 -0.1266 -0.2569
11814TIP3    H156933   2.664   6.217   5.238 -0.0573  0.5315  1.9263
11814TIP3    H256934   2.540   6.244   5.156  1.1274 -1.4659 -0.5941
11815TIP3   OH256935   4.079   1.934  16.689 -0.4444 -0.2865 -0.3048
11815TIP3    H156936   3.983   1.936  16.692 -0.4761 -1.5971 -0.3180
11815TIP3    H256937   4.101   1.962  16.600 -0.7699  1.2534  0.0936
11816TIP3   OH256938   4.419   3.288  16.781 -0.1784 -0.1476  0.1850
11816TIP3    H156939   4.505   3.329  16.789  0.0836 -0.7276  0.3523
11816TIP3    H256940   4.417   3.254  16.691 -0.4065  0.2610  0.0375
11817TIP3   OH256941   2.905   6.454  11.679 -0.2478 -0.3609  0.6342
11817TIP3    H156942   2.865   6.387  11.735 -0.4849  0.8055  1.8602
11817TIP3    H256943   2.849   6.456  11.601  0.1838 -2.1107  0.2373
11818TIP3   OH256944   5.635   2.748  16.060 -0.1093 -0.0176  0.0203
11818TIP3    H156945   5.540   2.745  16.045 -0.1640  2.3227 -0.3594
11818TIP3    H256946   5.670   2.674  16.011 -1.6354 -0.2725 -0.7004
11819TIP3   OH256947   5.243   5.308  13.197  0.1489  0.2734 -0.1681
11819TIP3    H156948   5.257   5.272  13.109  0.8346 -1.5284  0.6601
11819TIP3    H256949   5.324   5.356  13.216  1.1315 -1.6240  0.5496
11820TIP3   OH256950   2.815   5.149  12.498 -0.4383  0.2326  0.2843
11820TIP3    H156951   2.720   5.158  12.505 -0.5151 -0.1711 -0.1857
11820TIP3    H256952   2.830   5.055  12.511 -0.2563  0.0363 -1.2599
11821TIP3   OH256953   2.860   0.592   4.135  0.1164 -0.0988  0.1180
11821TIP3    H156954   2.863   0.506   4.176 -1.0636  0.5663  1.6493
11821TIP3    H256955   2.767   0.615   4.132  0.4382  1.2690  0.0830
11822TIP3   OH256956   0.707   3.511  17.273  0.0225 -0.4366 -0.1818
11822TIP3    H156957   0.712   3.514  17.178 -1.0242  0.0126 -0.2251
11822TIP3    H256958   0.650   3.437  17.293  0.4512 -0.6927  0.1008
11823TIP3   OH256959   5.445   4.943   6.371  0.2280  0.3931  0.0796
11823TIP3    H156960   5.450   4.905   6.459  1.3148 -0.9768 -0.5500
11823TIP3    H256961   5.454   4.868   6.312 -1.9120  1.1023 -1.2331
11824TIP3   OH256962   3.029   5.621  15.892  0.4796  0.3978 -0.2339
11824TIP3    H156963   3.006   5.542  15.941  2.0493  0.7990  1.2149
11824TIP3    H256964   3.013   5.598  15.800 -0.3931 -1.1247  0.2725
11825TIP3   OH256965   5.434   0.927   2.690 -0.3581  0.7879  0.2636
11825TIP3    H156966   5.473   0.861   2.747  0.5471 -0.4913 -1.7967
11825TIP3    H256967   5.356   0.957   2.738 -0.5385 -1.4309  1.4249
11826TIP3   OH256968   4.734   1.657   4.585 -0.2062  0.0855  0.7261
11826TIP3    H156969   4.652   1.666   4.536 -0.3460  0.8390  1.0846
11826TIP3    H256970   4.761   1.747   4.603  0.2319 -0.1713  1.3832
11827TIP3   OH256971   0.259   5.545  11.002  0.3024  0.9059  0.1875
11827TIP3    H156972   0.316   5.620  10.985 -1.3774  2.5724  1.6616
11827TIP3    H256973   0.199   5.542  10.928  0.7673  0.6441 -0.1765
11828TIP3   OH256974   4.750   3.684  11.325  0.3219 -0.6253 -0.1641
11828TIP3    H156975   4.827   3.737  11.302  0.4101 -0.8171 -0.3167
11828TIP3    H256976   4.691   3.745  11.368  1.0508 -0.7243  1.0111
11829TIP3   OH256977   3.941   4.867  16.742 -0.3039  0.3832 -0.4573
11829TIP3    H156978   3.923   4.946  16.794  0.2341  0.6942 -0.7419
11829TIP3    H256979   3.956   4.900  16.653 -0.1119 -0.0438 -0.5797
11830TIP3   OH256980   4.974   1.275  11.828  0.4672 -0.2353 -0.5821
11830TIP3    H156981   4.968   1.299  11.735 -1.0698  1.3478 -0.1164
11830TIP3    H256982   5.052   1.320  11.860  1.7517 -1.8638 -1.4051
11831TIP3   OH256983   3.287   3.768   6.357  0.2769 -0.2688 -0.5729
11831TIP3    H156984   3.303   3.684   6.400  2.1178 -0.2654 -1.1716
11831TIP3    H256985   3.194   3.766   6.334 -0.3344 -0.9931  1.8213
11832TIP3   OH256986   5.705   4.315  11.081  0.8625  0.7150 -0.8323
11832TIP3    H156987   5.774   4.325  11.015  1.4738 -1.4731 -0.5478
11832TIP3    H256988   5.715   4.225  11.113 -1.2463  0.8358  0.2125
11833TIP3   OH256989   1.669   2.792  14.833 -0.3902 -0.0787 -0.2806
11833TIP3    H156990   1.714   2.863  14.788 -1.1786  0.4299 -0.2692
11833TIP3    H256991   1.708   2.790  14.920  0.7580 -0.7109 -0.7951
11834TIP3   OH256992   6.562   4.271  14.763 -0.3550  0.5823  0.3110
11834TIP3    H156993   6.600   4.200  14.814 -2.0140  0.2967  1.1891
11834TIP3    H256994   6.565   4.240  14.672 -0.8619 -0.5353  0.6646
11835TIP3   OH256995   5.459   5.360   4.090  0.2084  0.3181  0.3827
11835TIP3    H156996   5.379   5.407   4.112  0.3497  0.4097  0.6903
11835TIP3    H256997   5.524   5.389   4.154  1.2927  2.4162 -1.6128
11836TIP3   OH256998   1.305   5.268   0.489  0.1572  0.0497  0.2599
11836TIP3    H156999   1.363   5.314   0.550 -0.0386 -0.5706  0.9135
11836TIP3    H257000   1.365   5.226   0.427  0.4241 -0.9418  1.1825
11837TIP3   OH257001   3.074   2.126   1.700 -0.3280 -0.0805  0.0066
11837TIP3    H157002   3.136   2.106   1.770  0.1648 -1.7537 -0.8884
11837TIP3    H257003   3.042   2.041   1.671 -2.6469  0.7422  0.0858
11838TIP3   OH257004   5.369   1.545   0.436  0.4663 -0.4537  0.0295
11838TIP3    H157005   5.318   1.590   0.368 -0.3657 -1.5496 -0.0872
11838TIP3    H257006   5.454   1.588   0.434  0.0152  0.4408 -0.7735
11839TIP3   OH257007   5.019   5.269  13.659 -0.1977 -0.4363  0.3781
11839TIP3    H157008   4.962   5.195  13.679 -1.1099  0.5038  1.2818
11839TIP3    H257009   5.024   5.319  13.741  2.4468 -0.8401  0.5344
11840TIP3   OH257010   6.178   2.137   2.330 -0.3335 -0.3038  0.0646
11840TIP3    H157011   6.261   2.098   2.304  0.1593  0.9245 -0.2272
11840TIP3    H257012   6.119   2.062   2.339  0.2540 -1.0188 -1.7228
11841TIP3   OH257013   0.456   5.449   0.357 -0.0313  0.2309  0.4414
11841TIP3    H157014   0.548   5.476   0.346 -0.5085  1.7360 -0.0256
11841TIP3    H257015   0.461   5.357   0.383  1.5283 -0.6877 -2.8152
11842TIP3   OH257016   5.809   1.495   2.842 -0.2325 -0.6332  0.1028
11842TIP3    H157017   5.717   1.503   2.866  0.0604 -0.5910  1.2533
11842TIP3    H257018   5.819   1.404   2.815 -0.6398 -0.6071 -0.1283
11843TIP3   OH257019   0.180   4.958  13.710  0.1613 -0.1053  0.1167
11843TIP3    H157020   0.143   5.019  13.646 -1.2816 -0.7146  0.3366
11843TIP3    H257021   0.150   4.992  13.795  0.8907 -0.0814  0.3641
11844TIP3   OH257022   4.368   6.284  13.201 -0.1211 -0.1734  0.2341
11844TIP3    H157023   4.291   6.285  13.257 -1.4631  1.5877 -1.5187
11844TIP3    H257024   4.340   6.235  13.123  0.3758  0.7136 -0.5257
11845TIP3   OH257025   3.690   6.079  15.935  0.3903  0.0288 -0.6806
11845TIP3    H157026   3.626   6.041  15.996 -1.2195  1.6649 -1.2839
11845TIP3    H257027   3.724   6.005  15.886  0.6207 -1.1359  1.2196
11846TIP3   OH257028   1.503   6.144   1.387  0.0395 -0.2086  0.0927
11846TIP3    H157029   1.461   6.228   1.404  1.3504  1.0241 -2.4732
11846TIP3    H257030   1.584   6.147   1.438  0.3491  0.3120 -0.4319
11847TIP3   OH257031   3.087   0.156   4.173  0.0667 -0.6334  0.0817
11847TIP3    H157032   3.167   0.151   4.119 -0.5659 -0.1780 -0.9199
11847TIP3    H257033   3.029   0.090   4.134  0.0164 -1.0888  0.9237
11848TIP3   OH257034   3.371   6.703   5.260  0.4006 -0.4675  0.2291
11848TIP3    H157035   3.415   6.657   5.189  1.4033 -2.5117  2.1150
11848TIP3    H257036   3.439   6.760   5.298  0.0163  0.2171 -0.0996
11849TIP3   OH257037   5.646   3.581   1.696 -0.0166  0.6809  0.2242
11849TIP3    H157038   5.640   3.650   1.762 -1.3338  1.3807 -0.5915
11849TIP3    H257039   5.735   3.547   1.705  0.1234  1.3932  1.7190
11850TIP3   OH257040   2.011   0.449  16.581 -0.4275 -0.2392 -0.6861
11850TIP3    H157041   2.028   0.358  16.556  0.2185 -0.3976  0.3128
11850TIP3    H257042   1.953   0.482  16.512  1.6834 -0.5173 -2.6701
11851TIP3   OH257043   0.803   5.529   5.125  0.0194 -0.3215  0.3021
11851TIP3    H157044   0.783   5.502   5.215  1.1658 -2.4601 -0.0470
11851TIP3    H257045   0.759   5.464   5.070 -1.5669  1.5932 -0.7508
11852TIP3   OH257046   0.068   1.370  16.361 -0.3040 -0.2138 -0.5356
11852TIP3    H157047   0.085   1.315  16.437  2.1794  0.5481 -0.4978
11852TIP3    H257048   0.091   1.316  16.285  2.3954  0.7861 -0.4860
11853TIP3   OH257049   2.933   3.140  11.341  0.1166  0.3942 -0.2475
11853TIP3    H157050   2.906   3.058  11.301 -0.0613  1.0030 -1.4053
11853TIP3    H257051   2.954   3.197  11.266 -1.4726  1.9813  0.4688
11854TIP3   OH257052   0.499   2.346   2.196 -0.1698  0.3289  0.3013
11854TIP3    H157053   0.434   2.413   2.174 -2.0771 -1.0736  1.4734
11854TIP3    H257054   0.545   2.382   2.271 -0.8780  0.5318  0.6467
11855TIP3   OH257055   2.923   5.577  13.451 -0.4000  0.0649 -0.2683
11855TIP3    H157056   2.838   5.612  13.421 -0.1597  0.8948  0.0016
11855TIP3    H257057   2.914   5.573  13.546  0.3213  1.3904 -0.1334
11856TIP3   OH257058   2.683   5.168  14.819 -0.5180  0.1938  0.3128
11856TIP3    H157059   2.669   5.146  14.727 -1.2222  0.2026  0.4174
11856TIP3    H257060   2.597   5.155  14.860  0.1346 -1.2477  1.2600
11857TIP3   OH257061   2.440   6.762  14.693 -0.7679 -0.6183  0.6512
11857TIP3    H157062   2.396   6.766  14.778  0.8205 -3.9634  1.7413
11857TIP3    H257063   2.532   6.780  14.712 -0.5603 -0.4166 -0.4930
11858TIP3   OH257064   2.481   5.849  15.484 -0.0702  0.4526  0.2553
11858TIP3    H157065   2.463   5.943  15.485 -1.7724  0.1802 -2.0609
11858TIP3    H257066   2.523   5.834  15.399  0.0974 -0.9112  0.5706
11859TIP3   OH257067   4.725   0.146  14.419 -0.0154 -0.1808 -0.3499
11859TIP3    H157068   4.636   0.156  14.385  0.2727  0.0754 -1.0470
11859TIP3    H257069   4.732   0.053  14.441 -1.3016  0.2979  2.1689
11860TIP3   OH257070   5.888   0.135   2.791 -0.4530 -0.6126  0.3251
11860TIP3    H157071   5.795   0.147   2.770 -0.5853 -2.3170 -0.1797
11860TIP3    H257072   5.934   0.158   2.710 -0.5670 -1.4458  0.0139
11861TIP3   OH257073   6.647   5.086  14.861  0.2192  0.4476  0.3425
11861TIP3    H157074   6.622   5.018  14.798 -1.2560  0.3256  1.0419
11861TIP3    H257075   6.586   5.158  14.844 -0.2508  0.3853  1.6744
11862TIP3   OH257076   5.854   3.078  16.393  0.0077 -0.1409  0.3457
11862TIP3    H157077   5.927   3.103  16.336  1.2203 -0.6630  1.6152
11862TIP3    H257078   5.851   2.983  16.388  0.3873 -0.2199  1.4389
11863TIP3   OH257079   4.961   3.644   5.391 -0.2781 -0.2015  0.2003
11863TIP3    H157080   4.956   3.556   5.354 -2.4782 -0.1324  0.2479
11863TIP3    H257081   5.032   3.640   5.455  1.3621 -1.2160 -1.6331
11864TIP3   OH257082   4.474   4.076   1.351 -0.0550 -0.4373  0.0335
11864TIP3    H157083   4.498   4.067   1.259 -0.3244  0.7314 -0.1572
11864TIP3    H257084   4.388   4.034   1.357 -1.6682  2.5686 -1.0143
11865TIP3   OH257085   5.799   3.763  13.070  0.0776  0.2363  0.1277
11865TIP3    H157086   5.719   3.776  13.020 -0.2911 -2.1377  0.0520
11865TIP3    H257087   5.855   3.710  13.014 -0.3816 -2.5444  2.1762
11866TIP3   OH257088   4.240   1.164   2.145 -0.4631 -1.0654  0.1396
11866TIP3    H157089   4.262   1.132   2.233 -0.6579  0.0064  0.5815
11866TIP3    H257090   4.147   1.186   2.150 -0.6649 -1.7144 -0.5615
11867TIP3   OH257091   5.442   3.100   2.302 -0.1430  0.1048  0.1295
11867TIP3    H157092   5.397   3.179   2.270  1.0324  1.0531  0.8230
11867TIP3    H257093   5.524   3.097   2.253 -0.5607 -1.1861 -0.5344
11868TIP3   OH257094   0.110   1.183   0.799 -0.2932 -0.4335 -0.0348
11868TIP3    H157095   0.102   1.277   0.812 -1.0413 -0.1965 -2.1336
11868TIP3    H257096   0.189   1.159   0.848  0.0861  1.3231  0.2460
11869TIP3   OH257097   5.504   3.658  16.272  0.0668 -0.2798 -0.3423
11869TIP3    H157098   5.430   3.719  16.275 -0.1509 -0.5541 -0.1386
11869TIP3    H257099   5.476   3.584  16.326 -0.9737 -1.9779 -3.1012
11870TIP3   OH257100   0.424   2.826   3.477  0.0099  0.2072  0.1890
11870TIP3    H157101   0.346   2.850   3.527  0.4590  1.1624  0.4317
11870TIP3    H257102   0.395   2.754   3.421 -1.7787  2.3482 -1.7450
11871TIP3   OH257103   2.995   5.686   6.608  0.4049  0.8025  0.0754
11871TIP3    H157104   3.023   5.659   6.521 -0.8496 -0.0780 -0.0585
11871TIP3    H257105   3.073   5.725   6.647  1.4446 -0.3995 -0.7905
11872TIP3   OH257106   6.486   6.406  10.986 -0.5039  0.5354  0.1609
11872TIP3    H157107   6.456   6.320  10.958 -1.6764  1.0814 -0.2956
11872TIP3    H257108   6.409   6.447  11.025  0.0098  1.4290  0.2610
11873TIP3   OH257109   6.560   6.553   3.592  0.5224  0.2036  0.0382
11873TIP3    H157110   6.527   6.636   3.557  1.3002  0.3908 -0.2709
11873TIP3    H257111   6.551   6.561   3.687 -2.1546 -0.5358 -0.1072
11874TIP3   OH257112   1.793   6.117   1.144 -0.1114 -0.5169  1.0009
11874TIP3    H157113   1.797   6.026   1.114  1.7602 -0.0583 -0.2014
11874TIP3    H257114   1.876   6.131   1.189 -0.4214  0.5895  1.2434
11875TIP3   OH257115   5.438   1.180  13.927 -0.3283  0.2440 -0.0492
11875TIP3    H157116   5.497   1.182  13.851 -0.2038  1.5846  0.0654
11875TIP3    H257117   5.492   1.148  13.999 -0.1072  0.1630 -0.2495
11876TIP3   OH257118   2.763   5.144   1.187  0.5371  0.3049 -0.3037
11876TIP3    H157119   2.708   5.111   1.116  1.1871 -0.6174 -0.3971
11876TIP3    H257120   2.835   5.189   1.142  1.1938 -0.6784 -0.2460
11877TIP3   OH257121   0.883   4.770  16.576  0.0075 -0.6692 -0.3443
11877TIP3    H157122   0.789   4.784  16.589  0.7894  2.7292  2.0586
11877TIP3    H257123   0.893   4.763  16.481 -2.4602  0.5535 -0.7185
11878TIP3   OH257124   6.205   4.465  16.001 -0.5394 -0.1111  0.0117
11878TIP3    H157125   6.283   4.491  16.050  0.0218 -1.5312 -0.1194
11878TIP3    H257126   6.132   4.482  16.061 -0.0790  0.6491  0.3612
11879TIP3   OH257127   3.014   4.284  12.280  0.2268  0.6451  0.0692
11879TIP3    H157128   3.060   4.273  12.197  0.6539  1.2894  0.2139
11879TIP3    H257129   2.948   4.350  12.262  1.2483  1.8383  0.5925
11880TIP3   OH257130   3.370   2.341   5.257  0.4293  0.1695 -0.0401
11880TIP3    H157131   3.342   2.300   5.339  0.8466 -0.6090 -0.2853
11880TIP3    H257132   3.397   2.268   5.201  1.0620  0.7662 -0.5257
11881TIP3   OH257133   5.317   0.072  13.537 -0.0138 -0.1844  0.0057
11881TIP3    H157134   5.278   0.133  13.600 -1.3328 -0.7322 -0.2679
11881TIP3    H257135   5.354   0.129  13.469  0.6312  0.3743  0.8158
11882TIP3   OH257136   2.428   1.551   1.843 -0.8351 -0.6012 -0.1206
11882TIP3    H157137   2.385   1.613   1.784  0.2760  0.2954 -0.0004
11882TIP3    H257138   2.446   1.474   1.789 -1.1429 -0.3524 -0.5776
11883TIP3   OH257139   6.392   1.532  14.311 -0.1510  0.2817  0.3009
11883TIP3    H157140   6.476   1.504  14.346  0.8214  0.9757 -1.4379
11883TIP3    H257141   6.376   1.474  14.237  0.6140  2.5561 -1.6985
11884TIP3   OH257142   0.876   3.440  14.799  0.0692 -0.1284 -0.4837
11884TIP3    H157143   0.852   3.416  14.888  0.8262  0.9915  0.0337
11884TIP3    H257144   0.799   3.485  14.765  0.0717  0.1447 -0.1224
11885TIP3   OH257145   1.553   3.128   2.829  0.4006 -0.7473 -0.0736
11885TIP3    H157146   1.476   3.157   2.878  0.1947 -0.9890 -0.2525
11885TIP3    H257147   1.622   3.189   2.855 -0.0003 -0.1579 -0.3569
11886TIP3   OH257148   4.508   0.685  16.846 -0.2459 -0.0862  0.1710
11886TIP3    H157149   4.533   0.681  16.754  1.1701  0.1110  0.5292
11886TIP3    H257150   4.474   0.774  16.857  3.0433  1.1890  0.6507
11887TIP3   OH257151   0.830   4.391  14.242  0.3037 -0.4874 -0.8490
11887TIP3    H157152   0.737   4.390  14.222  0.0881  0.5219  0.0892
11887TIP3    H257153   0.837   4.351  14.329  0.6532  0.2262 -0.5467
11888TIP3   OH257154   4.994   4.962  11.301  0.0390 -0.0670 -0.5291
11888TIP3    H157155   4.913   5.014  11.299  0.1619  0.1379 -0.2093
11888TIP3    H257156   4.986   4.909  11.380  1.3061  1.7099  0.8162
11889TIP3   OH257157   2.411   4.520   1.047 -0.1906  0.7975 -0.3024
11889TIP3    H157158   2.363   4.448   1.088  1.3144 -0.2126 -0.2941
11889TIP3    H257159   2.501   4.508   1.074 -0.1381  3.5956  0.9432
11890TIP3   OH257160   6.818   0.080   2.419 -0.3857 -0.6319  0.1027
11890TIP3    H157161   6.729   0.071   2.384 -0.2893 -2.4834  0.2885
11890TIP3    H257162   6.871   0.023   2.363  0.6176  0.1972  0.2091
11891TIP3   OH257163   3.500   4.863   1.643 -0.0449  0.1530  0.0010
11891TIP3    H157164   3.428   4.799   1.645 -0.0237  0.1107 -0.4931
11891TIP3    H257165   3.572   4.816   1.603 -1.2430  1.6932 -4.1665
11892TIP3   OH257166   4.700   2.197  14.253  0.6181  0.1057 -0.8176
11892TIP3    H157167   4.605   2.199  14.236  0.5851 -0.4191 -0.6913
11892TIP3    H257168   4.739   2.223  14.170  0.3283  1.7662 -0.4704
11893TIP3   OH257169   1.939   3.664  13.740  0.0124 -1.0478  0.9286
11893TIP3    H157170   1.871   3.706  13.687  1.0677 -0.1950  0.2489
11893TIP3    H257171   1.894   3.642  13.822 -1.8974 -3.2295 -0.6196
11894TIP3   OH257172   5.453   3.510   5.534  0.0179  0.3776 -0.3762
11894TIP3    H157173   5.532   3.468   5.567  0.0639  0.7788  0.0207
11894TIP3    H257174   5.417   3.447   5.471 -0.2874 -0.5590  0.7278
11895TIP3   OH257175   5.580   6.338   6.005  0.2715 -0.3093  0.2094
11895TIP3    H157176   5.555   6.431   5.999  0.3510 -0.1961  1.5600
11895TIP3    H257177   5.658   6.331   5.950 -0.9495 -0.0292 -1.6084
11896TIP3   OH257178   1.867   4.942   3.187  0.1367 -0.1238 -0.4355
11896TIP3    H157179   1.877   4.848   3.177  0.7077 -0.1956  0.6397
11896TIP3    H257180   1.779   4.954   3.223  1.0480 -0.4764  2.0165
11897TIP3   OH257181   3.414   1.589  13.781 -0.0886  0.0009  0.1366
11897TIP3    H157182   3.330   1.565  13.820  0.7762 -2.0382  0.7650
11897TIP3    H257183   3.478   1.531  13.822  1.2969 -0.0593 -2.0106
11898TIP3   OH257184   2.297   3.255   0.024 -1.2346 -0.4566 -0.4335
11898TIP3    H157185   2.314   3.307  -0.055 -1.8777  0.8484  0.2627
11898TIP3    H257186   2.202   3.239   0.022 -1.1604 -0.9246 -0.2290
11899TIP3   OH257187   6.784   1.610   5.506 -0.4629  0.2204  0.3708
11899TIP3    H157188   6.851   1.615   5.575  0.4001 -1.2182 -0.3354
11899TIP3    H257189   6.703   1.639   5.548 -0.1562 -1.6388  2.2622
11900TIP3   OH257190   3.345   4.044   6.309  0.0668  0.2792 -0.4410
11900TIP3    H157191   3.440   4.032   6.316 -0.0972  0.2574  2.2843
11900TIP3    H257192   3.310   3.955   6.302  0.2491  0.3026 -1.7856
11901TIP3   OH257193   4.491   4.579  17.109  0.1184  0.2255  0.1524
11901TIP3    H157194   4.432   4.514  17.072  0.6402  0.6714 -1.5166
11901TIP3    H257195   4.456   4.663  17.079 -0.1550  0.6832  1.7149
11902TIP3   OH257196   2.669   3.477  13.246  0.5717 -0.3270 -0.4097
11902TIP3    H157197   2.612   3.455  13.172  0.3475 -2.6767  0.4071
11902TIP3    H257198   2.623   3.547  13.292 -0.4234 -0.4543 -1.1993
11903TIP3   OH257199   6.276   1.349   3.897 -0.2265  0.3802 -0.9777
11903TIP3    H157200   6.270   1.427   3.843  0.9598  1.6575  0.6961
11903TIP3    H257201   6.322   1.285   3.842 -0.0497  1.2773 -1.8751
11904TIP3   OH257202   0.939   6.734   3.092  0.4923  0.0425 -0.4859
11904TIP3    H157203   0.862   6.705   3.141 -0.0525  0.9649 -0.7657
11904TIP3    H257204   0.977   6.654   3.056  0.3063 -0.5333  0.5842
11905TIP3   OH257205   4.687   2.939  11.996 -0.0590 -0.4216 -0.2707
11905TIP3    H157206   4.734   2.917  12.076 -0.3174 -0.7838 -0.2217
11905TIP3    H257207   4.649   2.857  11.966 -1.6740  0.0929  0.3384
11906TIP3   OH257208   2.730   3.110   5.458 -0.3784  0.0208  0.3204
11906TIP3    H157209   2.693   3.155   5.535 -1.2026  0.4241 -0.3023
11906TIP3    H257210   2.675   3.139   5.385  0.4155 -0.3499 -0.4269
11907TIP3   OH257211   2.161   4.691   4.518  0.1187  0.2897  0.4651
11907TIP3    H157212   2.066   4.698   4.504 -0.0472 -1.4340  0.6358
11907TIP3    H257213   2.200   4.726   4.437 -0.6751  0.3581  0.1078
11908TIP3   OH257214   2.632   3.383  12.581 -0.0081  0.1649 -0.7236
11908TIP3    H157215   2.581   3.327  12.638 -0.7834  1.8351  0.2628
11908TIP3    H257216   2.647   3.331  12.502 -1.4364 -1.0916 -0.1728
11909TIP3   OH257217   2.570   3.517   6.207 -0.1731 -0.5782 -0.5038
11909TIP3    H157218   2.513   3.593   6.198  0.2517 -0.3363 -1.1813
11909TIP3    H257219   2.657   3.554   6.227 -0.3337 -0.9604  0.9724
11910TIP3   OH257220   4.607   5.085  13.677 -0.1228 -0.8780 -0.0426
11910TIP3    H157221   4.632   5.027  13.606 -3.0145 -1.3583 -0.7501
11910TIP3    H257222   4.567   5.028  13.742  1.1682 -0.2470  1.3371
11911TIP3   OH257223   3.350   3.931  15.214 -0.4608  0.0475 -0.9617
11911TIP3    H157224   3.441   3.904  15.220 -1.0959 -1.8250  1.5313
11911TIP3    H257225   3.321   3.900  15.129  1.5588  1.8660 -2.3426
11912TIP3   OH257226   3.326   4.591   5.602  0.2719  0.0553  0.0100
11912TIP3    H157227   3.295   4.642   5.528  0.0720  0.4690  0.3802
11912TIP3    H257228   3.360   4.656   5.664 -0.9392 -0.1820  0.9341
11913TIP3   OH257229   5.856   6.466   4.944  0.1848  0.8174  0.4623
11913TIP3    H157230   5.892   6.377   4.953 -1.5887  0.0556  0.3050
11913TIP3    H257231   5.931   6.524   4.953  1.6207 -0.7742 -0.9583
11914TIP3   OH257232   0.527   3.818   2.074  0.6218 -0.3093 -0.1820
11914TIP3    H157233   0.497   3.869   1.998  2.8016  0.9420 -0.2598
11914TIP3    H257234   0.548   3.884   2.140  0.3718 -1.3009  0.9000
11915TIP3   OH257235   2.746   0.594   5.367  0.3619  0.3372 -0.6255
11915TIP3    H157236   2.674   0.533   5.351  1.1768 -0.9029  0.3568
11915TIP3    H257237   2.771   0.625   5.280 -0.7175  0.0391 -1.0443
11916TIP3   OH257238   3.986   4.946  13.964  0.0839 -0.1279 -0.0602
11916TIP3    H157239   4.014   5.036  13.948  0.3330 -0.1933  0.0095
11916TIP3    H257240   3.925   4.927  13.892  1.0049 -0.3330 -0.7938
11917TIP3   OH257241   6.604   3.234  11.418  0.1755 -0.2731 -0.1686
11917TIP3    H157242   6.587   3.325  11.394 -0.8029 -0.8771 -1.8785
11917TIP3    H257243   6.687   3.213  11.375  1.5561  0.4601  2.0778
11918TIP3   OH257244   2.052   5.538  11.850  0.2016 -0.1426 -0.2229
11918TIP3    H157245   1.972   5.571  11.891  0.0971 -0.2686 -0.3254
11918TIP3    H257246   2.121   5.554  11.914  0.1282  0.1530 -0.2182
11919TIP3   OH257247   5.074   0.616  14.460  0.1156 -0.4222  0.1846
11919TIP3    H157248   5.137   0.545  14.463  0.0491 -0.4215  1.9193
11919TIP3    H257249   5.127   0.696  14.461  0.1641 -0.4256 -1.0695
11920TIP3   OH257250   6.455   0.233   4.505 -0.1385 -0.6011  0.1200
11920TIP3    H157251   6.543   0.247   4.471 -0.1148 -1.2894 -0.0983
11920TIP3    H257252   6.429   0.147   4.472 -0.9551 -0.3321  0.0389
11921TIP3   OH257253   3.152   2.577  15.476 -0.3151 -0.1961 -0.7662
11921TIP3    H157254   3.186   2.584  15.387  0.6841 -0.2160 -0.3907
11921TIP3    H257255   3.226   2.600  15.532 -0.6657 -1.0977  0.0907
11922TIP3   OH257256   5.131   3.411  12.290 -0.0174 -0.1266 -0.8096
11922TIP3    H157257   5.154   3.327  12.251  1.7195  0.8994 -2.0625
11922TIP3    H257258   5.080   3.456  12.222 -1.9874 -0.5955  0.2987
11923TIP3   OH257259   3.530   1.855   1.025  0.0002 -0.6235  0.1183
11923TIP3    H157260   3.443   1.860   1.063  0.5220  1.6906  1.1411
11923TIP3    H257261   3.522   1.794   0.952 -2.1555 -1.4150  1.0045
11924TIP3   OH257262   4.979   0.079  13.505 -0.7016 -0.0559  0.2771
11924TIP3    H157263   5.056   0.068  13.561 -0.5174 -0.7448 -0.1037
11924TIP3    H257264   5.003   0.150  13.446 -0.4073 -0.1728  0.2554
11925TIP3   OH257265   3.185   4.796   5.804 -0.1193 -0.3688  0.4487
11925TIP3    H157266   3.222   4.848   5.875 -2.3887 -1.0021  2.1560
11925TIP3    H257267   3.252   4.731   5.784  1.7050  1.5831  0.0309
11926TIP3   OH257268   2.320   3.459  15.671  0.7041 -0.5207 -0.0460
11926TIP3    H157269   2.348   3.369  15.684  0.6089 -0.3401  1.4752
11926TIP3    H257270   2.360   3.508  15.743 -0.6662  0.3429  0.1546
11927TIP3   OH257271   1.069   0.412  11.476  0.1626  0.1218 -0.4270
11927TIP3    H157272   1.089   0.505  11.465 -1.6741  0.7220  1.1412
11927TIP3    H257273   0.986   0.410  11.524  1.2648 -2.3374  1.5045
11928TIP3   OH257274   5.101   5.659   5.245 -0.0323  0.1465 -0.0255
11928TIP3    H157275   5.058   5.728   5.196 -0.7778 -0.8195 -0.7526
11928TIP3    H257276   5.032   5.623   5.301  0.8978  1.5149  2.0819
11929TIP3   OH257277   2.631   2.115   4.351 -0.7474 -0.0414  0.5341
11929TIP3    H157278   2.694   2.077   4.412 -0.0595 -0.1746 -0.2485
11929TIP3    H257279   2.578   2.041   4.322 -0.0441 -0.2505 -0.2374
11930TIP3   OH257280   0.182   4.358  14.633 -0.0373  0.2034 -0.4220
11930TIP3    H157281   0.117   4.404  14.581  0.3569  1.0602 -0.1676
11930TIP3    H257282   0.264   4.405  14.618 -0.0732  0.9875  1.5906
11931TIP3   OH257283   4.138   3.990  15.177  0.0740  0.5915  0.7265
11931TIP3    H157284   4.091   4.051  15.234 -0.7269  1.7233 -1.0868
11931TIP3    H257285   4.223   3.977  15.219 -0.7338  0.8846  2.4911
11932TIP3   OH257286   4.533   1.932   1.063 -0.1123  0.0274  0.0144
11932TIP3    H157287   4.529   1.862   1.128 -1.6307 -2.0206 -2.1420
11932TIP3    H257288   4.623   1.932   1.032 -0.2116 -1.3857 -0.3232
11933TIP3   OH257289   4.069   3.221   5.491 -0.1269  0.2201 -0.1497
11933TIP3    H157290   3.999   3.218   5.556  0.5449 -1.3849  0.5233
11933TIP3    H257291   4.052   3.148   5.432  0.4962  0.3291 -0.4753
11934TIP3   OH257292   5.530   5.087   3.798  0.5454  0.8609  0.4006
11934TIP3    H157293   5.575   5.168   3.821 -0.9487  1.6907  0.4560
11934TIP3    H257294   5.588   5.017   3.830  0.8956  1.9222  2.1686
11935TIP3   OH257295   1.299   5.143   4.948 -0.3221  0.4940 -0.5897
11935TIP3    H157296   1.383   5.107   4.920 -0.5674 -0.6478  0.1040
11935TIP3    H257297   1.318   5.189   5.030  0.0102  2.0593 -1.5284
11936TIP3   OH257298   1.247   3.219   5.309 -0.4278  0.1142  0.1295
11936TIP3    H157299   1.332   3.260   5.329 -0.5844  1.2401 -1.4289
11936TIP3    H257300   1.263   3.125   5.318  0.7955  0.3479  0.5597
11937TIP3   OH257301   3.750   4.774   3.933 -0.1250  0.3643 -0.1123
11937TIP3    H157302   3.719   4.686   3.955  1.0181  0.3517  1.4896
11937TIP3    H257303   3.677   4.813   3.884 -1.8542 -0.4140  1.7584
11938TIP3   OH257304   2.438   2.020  15.785 -0.1235  0.2344  0.4791
11938TIP3    H157305   2.360   2.075  15.791  0.3327  0.9001  0.3716
11938TIP3    H257306   2.458   1.998  15.876 -0.3233  0.2244  0.5205
11939TIP3   OH257307   2.021   4.866   1.562 -0.3384 -0.6931  1.2137
11939TIP3    H157308   2.089   4.803   1.539 -1.1652 -1.5450  1.0757
11939TIP3    H257309   1.998   4.909   1.479 -0.5205 -0.9626  1.1237
11940TIP3   OH257310   4.867   2.754   5.100 -0.0879 -0.6447  0.3927
11940TIP3    H157311   4.872   2.659   5.083 -0.4087 -0.4108 -1.0347
11940TIP3    H257312   4.784   2.766   5.146 -1.2588 -0.7258 -1.6934
11941TIP3   OH257313   3.264   4.403   3.761 -0.1887 -0.1181 -0.1141
11941TIP3    H157314   3.282   4.457   3.838 -1.5274  1.6901 -0.9992
11941TIP3    H257315   3.168   4.399   3.757 -0.1018 -1.6759 -0.6824
11942TIP3   OH257316   3.720   4.494  14.984  0.2972  0.4974 -0.2083
11942TIP3    H157317   3.713   4.419  15.043 -2.2492  0.8378 -0.0548
11942TIP3    H257318   3.643   4.488  14.928  0.4395  2.6169 -0.6570
11943TIP3   OH257319   3.481   3.568   2.495  0.8294  0.2152 -0.1180
11943TIP3    H157320   3.406   3.574   2.553  0.7596  0.2018 -0.2077
11943TIP3    H257321   3.519   3.656   2.497  0.6656  0.2880 -0.2712
11944TIP3   OH257322   6.260   4.954   4.433 -0.7144  0.0594  0.2472
11944TIP3    H157323   6.200   4.984   4.501 -0.9230  0.0759  0.0574
11944TIP3    H257324   6.285   5.033   4.386 -3.7344 -0.3816 -2.2703
11945TIP3   OH257325   3.631   4.101  11.131  0.2825 -0.1512  0.1392
11945TIP3    H157326   3.704   4.141  11.178  0.2643  0.0737 -0.0239
11945TIP3    H257327   3.590   4.043  11.195  2.7084 -2.9457 -0.7881
11946TIP3   OH257328   3.538   0.054   5.393  0.3482  0.2257  0.1183
11946TIP3    H157329   3.476   0.125   5.379  0.9013  0.9675  1.2912
11946TIP3    H257330   3.607   0.093   5.448  0.7444 -1.1644  0.6396
11947TIP3   OH257331   1.376   4.481  10.526 -0.6977 -0.0301  0.6584
11947TIP3    H157332   1.367   4.567  10.485 -1.1729 -0.0891  0.6276
11947TIP3    H257333   1.428   4.497  10.605  0.8671 -0.0426 -0.3455
11948TIP3   OH257334   5.604   0.054   2.133 -0.8527 -0.7294  0.7943
11948TIP3    H157335   5.561   0.062   2.218  0.9538 -2.4287  1.9194
11948TIP3    H257336   5.651  -0.030   2.138  2.3942  0.9341 -0.4186
11949TIP3   OH257337   5.746   1.388  16.954  0.1582 -0.0017  0.3073
11949TIP3    H157338   5.803   1.335  17.009  0.3658  0.0611  0.1550
11949TIP3    H257339   5.770   1.365  16.865  0.5571  0.6721  0.2390
11950TIP3   OH257340   5.620   1.860  12.070 -0.2343 -0.2768 -0.1301
11950TIP3    H157341   5.570   1.872  11.990  1.1003 -0.7037 -1.0532
11950TIP3    H257342   5.706   1.900  12.051 -0.7318  1.9762  1.9867
11951TIP3   OH257343   3.149   3.734   1.706  0.0189 -0.5693 -0.0980
11951TIP3    H157344   3.217   3.666   1.704  0.2314 -0.3448 -0.5178
11951TIP3    H257345   3.068   3.686   1.693 -0.0365 -0.9938  1.5771
11952TIP3   OH257346   3.103   1.186  17.078  0.3798  0.2788  0.1619
11952TIP3    H157347   3.157   1.253  17.036  2.1106 -1.6931 -0.8408
11952TIP3    H257348   3.119   1.197  17.172 -0.3844  2.0934  0.0997
11953TIP3   OH257349   2.607   0.240   5.501  0.1368 -0.0137  0.3411
11953TIP3    H157350   2.649   0.290   5.571  2.6991 -0.0086 -1.1403
11953TIP3    H257351   2.562   0.169   5.545 -0.4859  1.4828  2.1895
11954TIP3   OH257352   4.647   2.281   1.199 -0.0521  0.4678  0.4112
11954TIP3    H157353   4.658   2.244   1.112  1.1774  0.1452  0.6946
11954TIP3    H257354   4.584   2.352   1.187 -1.1172 -0.6110 -0.4361
11955TIP3   OH257355   0.801   2.842  11.804  0.9849  0.6744  0.2668
11955TIP3    H157356   0.711   2.810  11.799  0.8688  1.0080  0.2242
11955TIP3    H257357   0.851   2.768  11.838  0.8268  0.2147 -0.4926
11956TIP3   OH257358   3.759   2.991  15.581 -0.3833 -0.2518  0.1646
11956TIP3    H157359   3.736   2.907  15.541 -0.0788 -0.5744  0.6559
11956TIP3    H257360   3.818   3.033  15.519  1.2742 -1.3940  0.9155
11957TIP3   OH257361   5.924   5.474   2.580  0.1337  0.1400 -0.0295
11957TIP3    H157362   5.901   5.493   2.489 -1.5107 -0.0660  0.3200
11957TIP3    H257363   5.846   5.499   2.630 -0.4263 -3.2325  0.9239
11958TIP3   OH257364   3.987   0.665   3.027 -0.4321  0.1244 -0.0134
11958TIP3    H157365   3.946   0.676   3.113 -1.3655 -0.6887 -0.3451
11958TIP3    H257366   4.013   0.754   3.001  0.3237  0.2999  1.3359
11959TIP3   OH257367   4.680   4.074   0.584  0.2274 -0.1231  0.3211
11959TIP3    H157368   4.656   4.028   0.503  1.5555  0.5366 -0.4549
11959TIP3    H257369   4.597   4.084   0.630 -1.1136  2.3236 -2.4265
11960TIP3   OH257370   1.285   4.702  16.761  0.3384 -0.0217 -0.5878
11960TIP3    H157371   1.368   4.712  16.807  0.4343 -1.2038 -0.4958
11960TIP3    H257372   1.257   4.792  16.743  2.9182  0.4092 -2.9281
11961TIP3   OH257373   0.925   3.579  16.097 -0.1014 -0.2226  0.2297
11961TIP3    H157374   0.989   3.642  16.064 -0.8884 -0.0127 -0.9427
11961TIP3    H257375   0.848   3.593  16.042  0.1914 -3.2289 -1.0875
11962TIP3   OH257376   0.289   0.809  14.265 -0.1730  0.1559  0.2729
11962TIP3    H157377   0.343   0.884  14.289  0.0396 -0.2499  1.1042
11962TIP3    H257378   0.209   0.846  14.229 -0.5676  0.7991  1.7683
11963TIP3   OH257379   1.740   6.701   5.279 -0.8367  0.4844 -0.7396
11963TIP3    H157380   1.653   6.677   5.248  0.0255 -1.3619 -1.7682
11963TIP3    H257381   1.767   6.628   5.335 -0.1722  1.3085  0.0382
11964TIP3   OH257382   0.391   4.754  14.155  0.0246  0.1169 -0.3205
11964TIP3    H157383   0.371   4.703  14.233  0.0687  0.4199 -0.1095
11964TIP3    H257384   0.322   4.821  14.152  1.1531  1.3666  0.5906
11965TIP3   OH257385   1.565   6.244  14.202 -0.2784  0.2821 -0.0806
11965TIP3    H157386   1.502   6.211  14.266  0.3342  0.7957  0.7992
11965TIP3    H257387   1.649   6.240  14.247  0.0818  1.1612 -0.6583
11966TIP3   OH257388   2.943   6.418   5.406  0.0018  0.2983  0.1557
11966TIP3    H157389   2.964   6.400   5.497  0.9771  0.9391  0.0691
11966TIP3    H257390   3.014   6.377   5.356 -0.4435  0.0826 -0.3071
11967TIP3   OH257391   3.700   4.507  13.524  0.5752  0.1068  0.0350
11967TIP3    H157392   3.712   4.418  13.555 -1.7113  0.1782  1.1878
11967TIP3    H257393   3.651   4.551  13.594  0.9644  2.0350 -0.8664
11968TIP3   OH257394   4.417   5.022   0.539 -0.8325 -0.6080  0.0168
11968TIP3    H157395   4.423   4.928   0.521 -1.1916 -0.5940 -0.1672
11968TIP3    H257396   4.463   5.032   0.623  2.2985 -0.4204 -1.6273
11969TIP3   OH257397   3.729   1.763   3.789 -0.4691  0.0537  0.4933
11969TIP3    H157398   3.758   1.818   3.862  0.6464 -0.2682  0.2948
11969TIP3    H257399   3.810   1.736   3.745 -1.1148 -0.1072 -0.6090
11970TIP3   OH257400   2.949   3.720   3.697 -0.0911 -0.5551  0.4479
11970TIP3    H157401   2.921   3.717   3.788  0.1280 -0.7313  0.5102
11970TIP3    H257402   2.897   3.653   3.653 -0.4793 -0.2006  0.3638
11971TIP3   OH257403   5.496   0.214   4.667  0.2578  0.2104 -0.1131
11971TIP3    H157404   5.418   0.231   4.720  0.3928 -0.3737  0.2734
11971TIP3    H257405   5.483   0.266   4.588 -1.0434 -0.7463 -0.5430
11972TIP3   OH257406   2.997   1.821  16.566  0.3799 -0.3097 -0.4697
11972TIP3    H157407   2.951   1.739  16.583 -1.8943  0.9847 -0.0931
11972TIP3    H257408   3.025   1.815  16.475  0.2029 -1.4928 -0.4458
11973TIP3   OH257409   5.243   4.692   2.938 -0.9856  0.1178 -0.1839
11973TIP3    H157410   5.265   4.785   2.942 -0.7137  0.0624 -0.4260
11973TIP3    H257411   5.194   4.676   3.019 -1.1285  0.4949 -0.1912
11974TIP3   OH257412   2.415   1.945  14.840 -0.3154 -0.2494 -0.2188
11974TIP3    H157413   2.493   1.892  14.823 -1.2691 -1.2824 -1.4107
11974TIP3    H257414   2.354   1.921  14.772 -1.7337  0.4859  0.7710
11975TIP3   OH257415   2.227   6.347   3.742  0.1651  0.7859  0.2847
11975TIP3    H157416   2.285   6.284   3.698  0.6400  1.3018  0.1601
11975TIP3    H257417   2.284   6.422   3.761 -0.8590  2.0442 -1.4441
11976TIP3   OH257418   3.463   0.413   2.399 -0.1562 -0.1614  0.5774
11976TIP3    H157419   3.508   0.422   2.315  0.6939  0.8517  1.1317
11976TIP3    H257420   3.441   0.502   2.424 -2.5238 -0.6354  0.3098
11977TIP3   OH257421   2.277   5.758   5.641 -0.1484  0.2665 -0.2901
11977TIP3    H157422   2.215   5.705   5.591  1.1237 -1.5343  0.0106
11977TIP3    H257423   2.325   5.807   5.574 -0.8653  0.5215 -0.6162
11978TIP3   OH257424   4.025   2.283   5.357  0.3893 -0.0140  0.7684
11978TIP3    H157425   3.977   2.320   5.284  0.6358  0.7166  0.9734
11978TIP3    H257426   4.107   2.333   5.360  0.6225 -0.4162  1.1868
11979TIP3   OH257427   1.603   4.510   3.553 -0.4525 -0.1122  0.0005
11979TIP3    H157428   1.560   4.564   3.618  1.0392  2.2719 -0.9230
11979TIP3    H257429   1.555   4.428   3.554 -1.8049  0.6687  2.5323
11980TIP3   OH257430   5.567   2.105  17.026 -0.3048  0.0515 -0.0224
11980TIP3    H157431   5.568   2.168  17.098  3.0552  1.0347 -0.8548
11980TIP3    H257432   5.550   2.158  16.948 -0.1925 -0.4643 -0.4009
11981TIP3   OH257433   1.811   3.710  16.247 -0.2143  0.4973 -0.3887
11981TIP3    H157434   1.801   3.754  16.331 -2.2227 -1.6256  0.5286
11981TIP3    H257435   1.746   3.750  16.190 -0.5716  0.2188 -0.1813
11982TIP3   OH257436   3.308   6.424  15.239 -0.3007  0.0298 -0.4119
11982TIP3    H157437   3.352   6.341  15.217  0.6484  0.1566  1.0054
11982TIP3    H257438   3.217   6.408  15.215  0.1316 -0.9154 -1.5423
11983TIP3   OH257439   1.565   2.077  14.870  0.2232 -0.3721  0.5737
11983TIP3    H157440   1.512   2.144  14.911  0.3085  1.7448 -2.5923
11983TIP3    H257441   1.518   1.995  14.886 -0.7893  0.6539  2.9785
11984TIP3   OH257442   5.577   3.766  13.441 -0.0473  0.1594  0.6121
11984TIP3    H157443   5.669   3.765  13.413 -0.4210  1.8772 -0.7496
11984TIP3    H257444   5.551   3.857  13.434 -2.1930 -0.4858 -0.0704
11985TIP3   OH257445   6.026   2.923  11.481 -0.1863  0.2571 -0.0433
11985TIP3    H157446   6.099   2.972  11.444  0.1054 -1.8476 -2.3549
11985TIP3    H257447   6.030   2.942  11.575  1.6280  2.3457 -0.4971
11986TIP3   OH257448   0.134   3.699   1.406 -1.0210  0.0070  0.3874
11986TIP3    H157449   0.162   3.611   1.381 -0.9126  0.5628 -1.5668
11986TIP3    H257450   0.195   3.725   1.475  0.3267 -0.6299 -0.5270
11987TIP3   OH257451   5.454   5.800  11.588  0.4313 -0.0880  1.0274
11987TIP3    H157452   5.371   5.845  11.606  0.6093  0.5334  0.3312
11987TIP3    H257453   5.481   5.834  11.503  2.6082  1.5544  2.3450
11988TIP3   OH257454   2.729   5.299   0.369 -0.4871  0.2592 -0.2041
11988TIP3    H157455   2.777   5.299   0.287 -0.3726  1.0744 -0.1446
11988TIP3    H257456   2.778   5.239   0.426 -1.4803 -1.5678 -1.2340
11989TIP3   OH257457   1.639   1.691   3.885  0.2579  0.3067 -0.0521
11989TIP3    H157458   1.673   1.664   3.971  0.7664  0.4205 -0.2132
11989TIP3    H257459   1.588   1.617   3.854  2.1488 -0.7147 -0.7742
11990TIP3   OH257460   3.793   6.233  16.618 -0.2266 -0.1089 -0.5475
11990TIP3    H157461   3.820   6.141  16.617  3.3763  0.8785 -1.2929
11990TIP3    H257462   3.826   6.267  16.701  1.0662  1.1784 -1.5512
11991TIP3   OH257463   5.020   2.948  10.447 -0.3088 -0.2502  0.4580
11991TIP3    H157464   4.940   2.997  10.429 -0.5734 -0.2590  1.5993
11991TIP3    H257465   4.997   2.857  10.427 -1.4625 -0.6631  3.4609
11992TIP3   OH257466   5.302   2.386  12.707  0.2547  0.1921 -0.0110
11992TIP3    H157467   5.336   2.317  12.651 -1.1899 -0.0708 -0.5777
11992TIP3    H257468   5.209   2.391  12.686 -0.7437 -1.1362  3.6401
11993TIP3   OH257469   4.116   4.735   5.615 -0.2752  0.1244 -0.2936
11993TIP3    H157470   4.148   4.813   5.660  0.4304 -0.1705 -0.2860
11993TIP3    H257471   4.153   4.741   5.527  0.0148 -0.3559 -0.2020
11994TIP3   OH257472   6.221   2.287  16.455 -0.4218 -0.9608 -0.2866
11994TIP3    H157473   6.199   2.195  16.465 -0.9821 -0.7620  0.3115
11994TIP3    H257474   6.138   2.333  16.462 -0.1621 -0.4164 -0.7197
11995TIP3   OH257475   6.479   4.941   6.519 -0.4588  0.2961 -0.3460
11995TIP3    H157476   6.430   4.998   6.459 -0.6246 -0.1839 -0.6746
11995TIP3    H257477   6.463   4.977   6.606 -1.1194  0.3455 -0.4886
11996TIP3   OH257478   1.156   2.363   2.253  0.7059  0.4020 -0.4388
11996TIP3    H157479   1.248   2.345   2.269  0.5547 -0.0682 -0.1085
11996TIP3    H257480   1.109   2.301   2.308  0.1822 -0.2959 -1.6553
11997TIP3   OH257481   0.099   6.498  13.126  0.2854  0.0749  0.5105
11997TIP3    H157482   0.156   6.479  13.200  1.4424  0.0890 -0.3496
11997TIP3    H257483   0.158   6.537  13.060 -0.0943 -2.7420 -1.5652
11998TIP3   OH257484   5.320   0.750   3.415  0.4651 -0.6925  0.5019
11998TIP3    H157485   5.340   0.714   3.501  1.1972  1.9923  1.4991
11998TIP3    H257486   5.233   0.787   3.423  0.6421 -0.1978  0.1531
11999TIP3   OH257487   2.015   6.639   6.662  0.5707 -0.0852 -0.1590
11999TIP3    H157488   2.027   6.547   6.684  1.7513  0.0397 -0.2449
11999TIP3    H257489   2.103   6.677   6.668  0.1589  0.9468 -0.5115
12000TIP3   OH257490   5.424   0.773  12.463 -0.4029 -0.1027  0.1134
12000TIP3    H157491   5.388   0.763  12.551  0.2927  1.2935  0.5680
12000TIP3    H257492   5.505   0.822  12.476 -1.7159  2.6066 -1.6053
12001TIP3   OH257493   2.140   3.332   3.860  0.7014  0.3418  0.5450
12001TIP3    H157494   2.189   3.344   3.779  1.2233  0.1185  0.8246
12001TIP3    H257495   2.189   3.383   3.925 -0.4381  1.5907  0.4492
12002TIP3   OH257496   2.443   3.807   0.707 -0.1780 -0.6479 -0.7062
12002TIP3    H157497   2.363   3.856   0.725 -0.2465 -1.0950  0.2353
12002TIP3    H257498   2.480   3.848   0.629  0.5344  1.8562  0.8863
12003TIP3   OH257499   6.519   4.598  14.019  0.4097  0.2360  0.0612
12003TIP3    H157500   6.612   4.621  14.019 -0.0289  2.0381  0.4215
12003TIP3    H257501   6.476   4.668  14.068 -1.3329  0.1737 -1.3369
12004TIP3   OH257502   4.155   0.040   2.728 -0.5527  0.5740  0.0866
12004TIP3    H157503   4.172   0.045   2.822  1.0160  0.8031 -0.1915
12004TIP3    H257504   4.149   0.132   2.701 -2.9710  0.5145  0.2696
12005TIP3   OH257505   1.426   1.453  14.115  0.3749 -0.5875  0.2030
12005TIP3    H157506   1.425   1.417  14.204 -0.3067  1.4352  1.0437
12005TIP3    H257507   1.483   1.530  14.121 -1.5800  0.9635 -0.5179
12006TIP3   OH257508   1.461   4.533   4.273  0.0380  0.5982  0.6358
12006TIP3    H157509   1.504   4.579   4.345  1.5705  0.0743  0.0718
12006TIP3    H257510   1.494   4.444   4.278  0.7304  0.7239 -1.1584
12007TIP3   OH257511   4.252   3.006  15.800 -0.1253 -0.4832  0.7483
12007TIP3    H157512   4.172   3.044  15.835 -0.2916 -0.6747  0.5818
12007TIP3    H257513   4.222   2.940  15.738  0.1606 -0.6540  0.7883
12008TIP3   OH257514   5.474   1.119   4.635  0.1910  0.3111 -0.8263
12008TIP3    H157515   5.497   1.212   4.627 -0.1427  0.4448 -0.2474
12008TIP3    H257516   5.489   1.083   4.547  0.6626  0.8342 -0.9588
12009TIP3   OH257517   1.733   4.789   2.891  0.0990 -0.2089  0.3833
12009TIP3    H157518   1.660   4.794   2.829  0.4551  0.2252 -0.0046
12009TIP3    H257519   1.721   4.704   2.934 -0.4163 -0.3126  0.0506
12010TIP3   OH257520   2.629   3.814  13.747  0.6878 -0.3926 -0.2424
12010TIP3    H157521   2.710   3.762  13.747 -0.1644 -1.8003 -1.8247
12010TIP3    H257522   2.559   3.748  13.746 -0.5576  0.7919  3.5773
12011TIP3   OH257523   4.813   0.090  15.568  0.0346  0.4668 -0.5953
12011TIP3    H157524   4.896   0.059  15.531  0.3665  1.7531 -0.9706
12011TIP3    H257525   4.755   0.014  15.565  2.2696 -1.4916  3.0770
12012TIP3   OH257526   5.699   5.963  13.596 -0.6096  0.2584  0.9903
12012TIP3    H157527   5.719   6.056  13.594 -0.2002  0.2411  3.1118
12012TIP3    H257528   5.620   5.954  13.543 -0.3091  1.7047  0.2822
12013TIP3   OH257529   2.771   1.302   1.703 -0.3935  0.0678 -0.0414
12013TIP3    H157530   2.807   1.215   1.686  0.7416  0.7564 -1.3420
12013TIP3    H257531   2.784   1.317   1.796  0.3603 -0.7544 -0.0113
12014TIP3   OH257532   5.008   2.573   4.604  0.4885 -0.2146 -0.0794
12014TIP3    H157533   4.966   2.618   4.677  1.4793  1.2975 -0.4072
12014TIP3    H257534   5.048   2.496   4.643 -2.4750 -1.6670  0.2489
12015TIP3   OH257535   1.594   1.253   1.555  0.5585  0.1295 -0.0062
12015TIP3    H157536   1.537   1.210   1.619  1.3297 -0.4480  0.2938
12015TIP3    H257537   1.595   1.193   1.481  3.1543 -1.3307  1.1452
12016TIP3   OH257538   5.645   3.876  14.036  0.1348 -0.5445 -0.1086
12016TIP3    H157539   5.716   3.814  14.054  0.9079  0.5650  0.6834
12016TIP3    H257540   5.613   3.850  13.949  1.9524 -0.6421 -0.7820
12017TIP3   OH257541   2.736   2.809  11.395 -0.2015  0.5832  0.0206
12017TIP3    H157542   2.651   2.788  11.356  0.9220 -1.4695 -1.4373
12017TIP3    H257543   2.783   2.855  11.325  1.0336 -1.1540 -0.3093
12018TIP3   OH257544   6.438   6.731  16.045 -0.0764 -0.2580  0.1044
12018TIP3    H157545   6.344   6.732  16.030  0.0014  1.1234 -0.3492
12018TIP3    H257546   6.470   6.657  15.994 -0.8639 -0.4880 -0.0626
12019TIP3   OH257547   6.204   4.066   2.982  0.2571 -0.3184 -0.3384
12019TIP3    H157548   6.235   4.089   2.895  1.9062  0.1015  0.3355
12019TIP3    H257549   6.201   4.149   3.029 -0.2860 -0.5852  0.1039
12020TIP3   OH257550   2.085   0.539  12.140  0.1919 -0.4078 -0.3344
12020TIP3    H157551   2.141   0.606  12.178 -0.2283 -0.8483  1.1229
12020TIP3    H257552   2.001   0.550  12.185 -0.3824 -0.8036 -1.3027
12021TIP3   OH257553   6.311   4.633   5.441  0.0572 -0.3951 -0.3695
12021TIP3    H157554   6.344   4.549   5.473  0.7730  0.7259  1.9935
12021TIP3    H257555   6.216   4.622   5.437  0.0376 -0.8840  1.2720
12022TIP3   OH257556   4.612   6.103  11.914  0.0840 -0.5507  0.0155
12022TIP3    H157557   4.554   6.165  11.959  0.2654 -0.7692  0.5604
12022TIP3    H257558   4.565   6.079  11.835 -0.0357  0.2111 -0.1486
12023TIP3   OH257559   3.545   6.588  11.799 -0.2819 -0.1160  0.0975
12023TIP3    H157560   3.583   6.632  11.722 -0.7369 -0.2887 -0.2247
12023TIP3    H257561   3.455   6.618  11.802  0.1853  1.2460  1.5694
12024TIP3   OH257562   2.001   5.465   0.739  0.2138  0.1730 -0.1694
12024TIP3    H157563   2.025   5.446   0.648  0.9860  1.5554 -0.2622
12024TIP3    H257564   1.936   5.398   0.760 -1.3614  0.9723 -2.3431
12025TIP3   OH257565   3.326   2.132  17.084 -0.7336  0.5301  0.1126
12025TIP3    H157566   3.293   2.047  17.057  0.3743 -0.5536  2.0659
12025TIP3    H257567   3.248   2.188  17.085 -1.5876 -0.6110 -0.5175
12026TIP3   OH257568   5.193   2.543  16.834  0.3020 -0.4894  0.5672
12026TIP3    H157569   5.126   2.485  16.871  0.2206 -0.8354 -0.1155
12026TIP3    H257570   5.265   2.538  16.897  0.3001 -1.3511  0.5142
12027TIP3   OH257571   5.019   6.114   1.718  0.1041 -0.2521  0.0359
12027TIP3    H157572   5.049   6.150   1.634 -1.2982  0.6566 -0.0814
12027TIP3    H257573   4.940   6.064   1.695 -1.4241  1.6432  1.1131
12028TIP3   OH257574   6.467   5.430   6.128 -0.9099  0.0390  0.1713
12028TIP3    H157575   6.464   5.414   6.033  1.6200 -2.4105  0.4608
12028TIP3    H257576   6.557   5.458   6.144 -0.8591 -1.2135  2.1064
12029TIP3   OH257577   3.207   2.714  14.669  0.0378 -0.1469  0.1712
12029TIP3    H157578   3.120   2.752  14.675  0.2428  0.1903  1.1250
12029TIP3    H257579   3.266   2.783  14.701  0.6652 -0.3354 -0.5513
12030TIP3   OH257580   6.384   2.828   1.358 -0.1449 -0.6034  0.4531
12030TIP3    H157581   6.452   2.826   1.291  0.5851 -0.6300  1.1830
12030TIP3    H257582   6.404   2.907   1.409  0.2601 -1.4390  1.6120
12031TIP3   OH257583   5.219   5.099  13.411  0.6041  0.2738  0.2104
12031TIP3    H157584   5.128   5.126  13.399  1.0559  1.0628 -1.6050
12031TIP3    H257585   5.262   5.120  13.328  2.3289 -0.5856  0.8481
12032TIP3   OH257586   2.293   5.913   0.897  0.1235  0.0604  0.1902
12032TIP3    H157587   2.228   5.983   0.892 -1.6813 -1.6977 -2.3803
12032TIP3    H257588   2.340   5.918   0.813  1.2558 -0.6170  0.7679
12033TIP3   OH257589   3.854   3.458   4.278  0.0732  0.3709  0.5378
12033TIP3    H157590   3.805   3.452   4.196 -0.9553  1.1306  1.0982
12033TIP3    H257591   3.822   3.537   4.320 -0.5517 -0.8452  2.4337
12034TIP3   OH257592   3.325   1.875   2.303 -0.1089  0.3142 -0.2397
12034TIP3    H157593   3.255   1.915   2.252 -0.5174 -0.1750 -0.0683
12034TIP3    H257594   3.322   1.919   2.388  0.2392  0.7734 -0.4670
12035TIP3   OH257595   6.521   3.334   1.611  0.0996  0.2144 -0.2322
12035TIP3    H157596   6.586   3.357   1.676  0.0812  1.5283 -0.6664
12035TIP3    H257597   6.532   3.398   1.541 -1.0388 -0.1067 -0.7351
12036TIP3   OH257598   2.918   0.448  15.975 -0.2077 -0.1121 -0.2007
12036TIP3    H157599   2.886   0.535  15.997  0.7766 -0.2053  1.6812
12036TIP3    H257600   3.007   0.462  15.944 -0.2808 -0.3803 -0.5318
12037TIP3   OH257601   4.446   2.379  15.231  0.2142  0.8762  0.2624
12037TIP3    H157602   4.395   2.298  15.226  0.8749  0.4585  0.2318
12037TIP3    H257603   4.533   2.354  15.201  0.8348  1.2636  1.7288
12038TIP3   OH257604   5.399   1.127   0.258  0.2526  0.2746  0.2209
12038TIP3    H157605   5.473   1.112   0.317 -0.3797  0.5136  1.0935
12038TIP3    H257606   5.435   1.179   0.187  0.8133  0.8415  0.9101
12039TIP3   OH257607   5.802   1.212   6.547  0.7069 -0.2561  0.0191
12039TIP3    H157608   5.847   1.131   6.573  1.0439 -0.1275 -0.1699
12039TIP3    H257609   5.872   1.272   6.523  0.4786  0.2729  0.6722
12040TIP3   OH257610   2.883   6.642  16.089  0.1477 -0.0812 -0.3335
12040TIP3    H157611   2.947   6.609  16.152  1.7091  1.8980 -0.8439
12040TIP3    H257612   2.806   6.663  16.142  1.2840  1.1329  0.8728
12041TIP3   OH257613   3.593   1.289  13.783 -0.6520  0.6672 -0.2449
12041TIP3    H157614   3.513   1.245  13.757 -0.5038  0.8817 -1.0648
12041TIP3    H257615   3.636   1.312  13.701  0.3954  0.2900  0.1942
12042TIP3   OH257616   6.387   3.268   1.140  0.2035  0.8963 -0.1621
12042TIP3    H157617   6.372   3.357   1.108  0.7174  0.5806 -1.3381
12042TIP3    H257618   6.384   3.275   1.235 -0.2578  2.0816 -0.2592
12043TIP3   OH257619   0.321   1.556  11.520 -0.6681 -0.1891  0.1905
12043TIP3    H157620   0.357   1.499  11.452 -0.2681  0.6445 -0.3114
12043TIP3    H257621   0.362   1.526  11.601  0.4284  0.1400 -0.2373
12044TIP3   OH257622   2.389   3.514  16.764 -0.0607 -0.7262 -0.1183
12044TIP3    H157623   2.403   3.575  16.837  1.4071 -0.8361 -0.2908
12044TIP3    H257624   2.318   3.458  16.793  0.2068 -0.4775  1.0426
12045TIP3   OH257625   4.696   2.108   5.461  0.3881  0.0851  0.4278
12045TIP3    H157626   4.661   2.170   5.525  0.0338 -0.2382  0.5483
12045TIP3    H257627   4.790   2.104   5.481  0.6886  1.7485 -0.5789
12046TIP3   OH257628   5.819   4.233  14.335 -0.2304  0.6616  0.1024
12046TIP3    H157629   5.738   4.243  14.285  1.1132  1.6094 -1.9487
12046TIP3    H257630   5.867   4.164  14.290 -0.1431 -0.3462  1.6893
12047TIP3   OH257631   1.193   4.047   1.893 -0.3943 -0.1379 -0.2040
12047TIP3    H157632   1.112   4.005   1.922 -0.2929 -0.2177 -0.0369
12047TIP3    H257633   1.200   4.125   1.947 -0.8935  0.4134 -0.9224
12048TIP3   OH257634   0.189   3.533  11.675 -0.5571  0.1429 -0.2466
12048TIP3    H157635   0.205   3.459  11.733 -1.2535 -0.4799 -0.8332
12048TIP3    H257636   0.155   3.602  11.732 -0.3119 -0.1300  0.2319
12049TIP3   OH257637   6.187   5.493   0.477 -0.0772 -0.3209 -0.7800
12049TIP3    H157638   6.212   5.582   0.501  0.6463 -0.7658  0.1673
12049TIP3    H257639   6.103   5.502   0.432  1.4932  1.1408 -3.5011
12050TIP3   OH257640   1.116   4.340  15.491 -0.2546 -0.0187  0.3183
12050TIP3    H157641   1.198   4.322  15.445  0.4038  4.7060 -0.6595
12050TIP3    H257642   1.075   4.411  15.440 -3.7135 -0.5140  2.2352
12051TIP3   OH257643   3.985   0.354   4.188 -0.5359  0.3542 -0.5789
12051TIP3    H157644   3.977   0.270   4.142 -0.2709  1.0367 -1.8690
12051TIP3    H257645   3.905   0.401   4.166 -0.5225  0.5858 -0.1310
12052TIP3   OH257646   3.131   4.232   4.413  0.6067 -0.1030 -0.1509
12052TIP3    H157647   3.092   4.234   4.326 -1.4668  0.2745  0.7617
12052TIP3    H257648   3.172   4.145   4.419  0.9360 -0.0476 -1.5643
12053TIP3   OH257649   4.474   4.860  13.801 -0.4203  0.4353  0.2124
12053TIP3    H157650   4.456   4.786  13.743 -3.0787 -0.3645  2.0010
12053TIP3    H257651   4.500   4.820  13.884 -0.7570  1.5391  0.8595
12054TIP3   OH257652   4.098   3.219   2.213 -0.1385  0.9194 -0.4737
12054TIP3    H157653   4.109   3.137   2.165 -0.9451  2.0346 -2.6261
12054TIP3    H257654   4.181   3.264   2.203  0.2614  0.4479  0.6044
12055TIP3   OH257655   6.186   0.052  14.398  0.4093  0.0087 -0.3469
12055TIP3    H157656   6.092   0.055  14.381  0.7160  2.2233 -1.8535
12055TIP3    H257657   6.224   0.026  14.313  1.0327 -3.3034  0.8702
12056TIP3   OH257658   4.796   4.979  15.108  0.3095 -0.1438  0.1467
12056TIP3    H157659   4.762   4.979  15.197 -0.3188  0.0699 -0.0900
12056TIP3    H257660   4.723   5.009  15.054  0.0233 -2.2235 -0.6947
12057TIP3   OH257661   6.661   1.933   0.859 -0.1778  0.0169 -0.3230
12057TIP3    H157662   6.733   1.927   0.796  1.4401 -1.4291  1.5756
12057TIP3    H257663   6.658   2.025   0.884 -0.7182  0.5598 -2.3736
12058TIP3   OH257664   2.279   0.617  15.218  0.5877  0.2381  0.1646
12058TIP3    H157665   2.272   0.712  15.205 -0.3689 -0.0263 -1.3706
12058TIP3    H257666   2.210   0.580  15.163  0.9223 -1.3516  0.7889
12059TIP3   OH257667   5.037   1.213   0.817 -0.3339 -0.4449  0.2752
12059TIP3    H157668   5.028   1.143   0.882  0.1641  0.0126  0.8358
12059TIP3    H257669   4.959   1.268   0.831 -0.6720 -0.8240 -0.0969
12060TIP3   OH257670   6.717   1.773  13.889  0.0719 -0.2348  0.1473
12060TIP3    H157671   6.811   1.778  13.872  0.0624  0.2215  0.2422
12060TIP3    H257672   6.698   1.679  13.886  0.4507 -0.2981 -0.2947
12061TIP3   OH257673   5.430   3.275   5.393 -0.1920  0.0133  0.0701
12061TIP3    H157674   5.492   3.235   5.453  0.3166  1.1960  0.3618
12061TIP3    H257675   5.401   3.204   5.336  2.4007 -0.3128 -0.9104
12062TIP3   OH257676   3.613   4.370   2.682  0.2114 -0.2874 -0.3947
12062TIP3    H157677   3.665   4.321   2.746 -0.4406  0.5468  0.7933
12062TIP3    H257678   3.573   4.441   2.733 -0.6567  0.1374 -1.6473
12063TIP3   OH257679   2.799   1.473  15.359 -0.7531 -0.1669  0.4286
12063TIP3    H157680   2.709   1.505  15.362 -0.5003  0.7311 -1.2330
12063TIP3    H257681   2.792   1.388  15.315 -0.5619  0.7692 -1.4386
12064TIP3   OH257682   1.694   6.026   4.948  0.0758  0.3305 -0.4141
12064TIP3    H157683   1.616   6.021   5.003  0.1720 -0.5792 -0.3448
12064TIP3    H257684   1.698   5.940   4.906  2.5977 -0.6431  1.6910
12065TIP3   OH257685   3.676   3.977  14.434 -0.0588  0.0457 -0.4388
12065TIP3    H157686   3.593   3.934  14.411  0.2226 -0.8943  0.2710
12065TIP3    H257687   3.684   3.964  14.529 -0.7239  3.0134  0.0797
12066TIP3   OH257688   4.474   0.019   3.461 -0.2775 -0.6735  0.5487
12066TIP3    H157689   4.410  -0.026   3.406  0.3005 -0.9706  0.1196
12066TIP3    H257690   4.541  -0.047   3.478  1.1219  0.3535 -0.9611
12067TIP3   OH257691   3.465   2.760   3.828 -0.7188  0.3175  0.2837
12067TIP3    H157692   3.557   2.776   3.848  0.2505 -1.6903 -2.3457
12067TIP3    H257693   3.444   2.824   3.760 -0.6697 -0.6190 -0.6106
12068TIP3   OH257694   5.273   6.369  13.655 -0.1168  0.2507 -0.3676
12068TIP3    H157695   5.266   6.401  13.745  2.8015 -1.6405  0.5867
12068TIP3    H257696   5.297   6.447  13.604 -2.2590  1.4379  0.3256
12069TIP3   OH257697   2.026   3.575  12.550 -0.3599 -0.3145  0.0937
12069TIP3    H157698   2.029   3.670  12.543 -2.4422 -0.0701  1.9935
12069TIP3    H257699   2.017   3.558  12.644  2.1377 -2.4854  0.0054
12070TIP3   OH257700   4.916   5.654   3.787 -0.1790 -0.2806  0.4817
12070TIP3    H157701   4.983   5.605   3.739  1.0726  0.7082  1.2090
12070TIP3    H257702   4.893   5.726   3.729 -0.2037 -0.2947  0.4740
12071TIP3   OH257703   6.485   4.773  14.364  0.3107 -0.4504  0.3353
12071TIP3    H157704   6.458   4.801  14.451 -0.5026 -1.0671  0.2870
12071TIP3    H257705   6.407   4.732  14.327  0.6848 -0.2932 -0.6410
12072TIP3   OH257706   5.754   5.495   5.729 -0.1130 -0.1947 -0.2373
12072TIP3    H157707   5.737   5.517   5.638  1.3310  1.7031 -0.0670
12072TIP3    H257708   5.689   5.545   5.778 -0.8736 -1.1961 -0.1906
12073TIP3   OH257709   1.434   2.246   3.916  0.1281 -0.0875 -0.4152
12073TIP3    H157710   1.421   2.183   3.986 -0.5890  0.2826 -0.2144
12073TIP3    H257711   1.346   2.268   3.886  0.3261  1.4813  0.1070
12074TIP3   OH257712   6.427   5.087  10.854 -0.4745 -0.3359 -0.6492
12074TIP3    H157713   6.361   5.130  10.800 -0.6054 -1.2135 -1.2106
12074TIP3    H257714   6.486   5.045  10.790 -0.5658 -1.2944 -0.1188
12075TIP3   OH257715   5.188   0.138   4.550  0.2864  0.3081 -0.1977
12075TIP3    H157716   5.113   0.167   4.603 -0.5994  0.6185 -1.5967
12075TIP3    H257717   5.199   0.046   4.572 -0.7475  0.1627 -0.2801
12076TIP3   OH257718   4.414   6.239  12.072 -0.1309  0.3393  0.0236
12076TIP3    H157719   4.321   6.242  12.092 -0.1416  0.9821 -0.1109
12076TIP3    H257720   4.440   6.330  12.065 -0.1754  0.1572 -3.1239
12077TIP3   OH257721   6.817   3.511  13.713  0.0340 -0.5201  0.3020
12077TIP3    H157722   6.741   3.452  13.720 -1.0088  0.5287 -1.6851
12077TIP3    H257723   6.833   3.540  13.802 -2.0482 -0.6296  0.7462
12078TIP3   OH257724   6.199   3.975   4.643  0.7747 -0.0640  0.0344
12078TIP3    H157725   6.177   3.882   4.649 -0.0895 -0.0112 -2.0075
12078TIP3    H257726   6.115   4.020   4.638  1.1642  0.4574 -3.5394
12079TIP3   OH257727   3.907   2.693  13.665 -0.3309  0.4700  0.2237
12079TIP3    H157728   3.888   2.778  13.625  1.1633  1.6195  1.9086
12079TIP3    H257729   3.980   2.658  13.615 -1.0890  0.0467 -0.6122
12080TIP3   OH257730   6.706   4.375   4.209  0.3152  0.0964 -0.1015
12080TIP3    H157731   6.627   4.420   4.241 -0.5906 -1.4442 -0.1221
12080TIP3    H257732   6.722   4.307   4.273  0.0902 -1.2737 -1.4688
12081TIP3   OH257733   1.665   5.109  17.214  0.7864 -0.6710 -0.1553
12081TIP3    H157734   1.741   5.148  17.170  0.9862 -1.0759 -0.1781
12081TIP3    H257735   1.597   5.108  17.148  0.1013  1.6166  0.4588
12082TIP3   OH257736   4.713   4.527   3.970 -0.5077 -0.3419  0.2457
12082TIP3    H157737   4.764   4.497   4.044  0.8116 -0.3289 -0.6449
12082TIP3    H257738   4.765   4.597   3.931 -1.8166  0.5856  0.1074
12083TIP3   OH257739   6.273   3.998   1.407  0.2759 -0.0065 -0.4488
12083TIP3    H157740   6.359   4.039   1.403  0.0036  0.5951 -0.0755
12083TIP3    H257741   6.272   3.950   1.490  0.5329 -0.6384 -0.8082
12084TIP3   OH257742   6.447   3.813  14.348 -0.2388 -0.2929  0.6853
12084TIP3    H157743   6.362   3.814  14.304  0.1791  0.5285 -0.1223
12084TIP3    H257744   6.429   3.850  14.435 -0.4061  1.5475 -0.0958
12085TIP3   OH257745   3.863   4.574  13.201 -0.0750  0.5834 -0.4136
12085TIP3    H157746   3.773   4.544  13.200 -0.6261  1.9010  2.4374
12085TIP3    H257747   3.857   4.668  13.219  1.8269  0.8718 -1.1796
12086TIP3   OH257748   3.226   2.727   4.285 -0.4331  0.8411  0.0166
12086TIP3    H157749   3.287   2.656   4.305  0.3408  2.1604  2.4890
12086TIP3    H257750   3.156   2.717   4.350 -2.2117  0.1421 -1.9628
12087TIP3   OH257751   4.756   1.617  13.903  0.0519 -0.2571  0.4001
12087TIP3    H157752   4.678   1.572  13.870  0.9624 -0.9767 -0.8183
12087TIP3    H257753   4.769   1.691  13.843 -0.6371  0.8377  1.5813
12088TIP3   OH257754   1.585   5.825  15.105  0.0033  0.0863 -0.6962
12088TIP3    H157755   1.592   5.920  15.118 -0.9360  0.3233 -1.8077
12088TIP3    H257756   1.675   5.794  15.109  0.1717  0.7852  1.4077
12089TIP3   OH257757   5.278   6.480  17.008 -0.2860  0.3134 -0.4140
12089TIP3    H157758   5.342   6.410  16.994 -1.0787 -0.3329 -0.8803
12089TIP3    H257759   5.329   6.561  17.007  0.9551 -0.3806  2.2684
12090TIP3   OH257760   6.183   4.063   0.928  0.0633  0.3796  0.3432
12090TIP3    H157761   6.224   4.135   0.879  2.1869 -0.5835  0.6805
12090TIP3    H257762   6.174   4.097   1.017 -0.4587  0.8026  0.1374
12091TIP3   OH257763   6.222   0.083   0.707  0.3369  0.2908  0.2923
12091TIP3    H157764   6.235   0.144   0.634 -0.9811  0.5478  0.2537
12091TIP3    H257765   6.186   0.005   0.666 -0.4715  0.4611  0.6711
12092TIP3   OH257766   4.010   3.891  13.006  0.2020 -0.4163 -0.0645
12092TIP3    H157767   3.918   3.868  13.020 -0.3469  1.5144 -0.4352
12092TIP3    H257768   4.013   3.926  12.917  1.0827  0.6644  0.3802
12093TIP3   OH257769   2.848   6.321   4.527 -0.4009 -0.5309  0.3151
12093TIP3    H157770   2.871   6.377   4.452 -0.1456 -0.1730  0.6546
12093TIP3    H257771   2.761   6.287   4.506 -0.3959 -0.3080 -0.0733
12094TIP3   OH257772   6.393   6.562  11.301 -0.0656 -0.2304 -0.0541
12094TIP3    H157773   6.321   6.540  11.242  0.0147 -1.0038  0.1355
12094TIP3    H257774   6.451   6.616  11.248 -0.0999 -0.7474 -0.6223
12095TIP3   OH257775   0.780   2.265   5.449 -0.3993 -0.2625  0.1273
12095TIP3    H157776   0.740   2.350   5.467  0.4119 -0.2190  1.7646
12095TIP3    H257777   0.706   2.210   5.420 -1.0034  0.8399 -0.4585
12096TIP3   OH257778   2.017   1.901  16.048  0.1905  0.1875  0.3390
12096TIP3    H157779   1.989   1.966  15.984  0.0384  0.5998  0.8246
12096TIP3    H257780   1.952   1.907  16.118  0.7161  0.1794  0.8280
12097TIP3   OH257781   5.245   1.211  16.406 -0.2707 -0.0997  0.3905
12097TIP3    H157782   5.322   1.157  16.386 -0.7839 -0.1021 -1.6714
12097TIP3    H257783   5.174   1.148  16.419 -1.1180  0.0659 -3.1103
12098TIP3   OH257784   1.253   6.808   3.446 -0.1141 -0.0131 -0.3054
12098TIP3    H157785   1.159   6.802   3.463 -0.0050  1.3552  0.7789
12098TIP3    H257786   1.261   6.782   3.354 -1.2215 -2.8526  0.3220
12099TIP3   OH257787   0.466   0.666  14.836 -0.1182  0.4242  0.0613
12099TIP3    H157788   0.470   0.736  14.900  1.9314 -0.4864  0.9580
12099TIP3    H257789   0.435   0.590  14.885 -0.0140  0.1021 -0.3611
12100TIP3   OH257790   2.411   6.405  12.345 -0.2872 -0.0978 -0.0392
12100TIP3    H157791   2.373   6.321  12.319  0.0313 -0.0638 -0.6182
12100TIP3    H257792   2.425   6.451  12.263  3.1519 -1.0116 -0.0353
12101TIP3   OH257793   2.301   6.568   3.860  0.0784 -0.3280  0.6640
12101TIP3    H157794   2.208   6.584   3.841  0.5768  0.2815 -1.4490
12101TIP3    H257795   2.337   6.655   3.878  0.6793 -0.2580 -0.7587
12102TIP3   OH257796   6.311   5.458  16.105  0.5021 -0.2268 -0.9108
12102TIP3    H157797   6.333   5.485  16.194  0.0752  0.4081 -0.9980
12102TIP3    H257798   6.355   5.522  16.049  0.9281 -0.7352 -1.1723
12103TIP3   OH257799   1.688   6.506  11.282  0.0629 -0.0509 -0.5906
12103TIP3    H157800   1.597   6.496  11.256 -0.4014  0.4433  0.7844
12103TIP3    H257801   1.717   6.586  11.240 -1.0455  1.4116  1.3245
12104TIP3   OH257802   6.536   6.621   3.849  0.1066  0.0028  0.2958
12104TIP3    H157803   6.569   6.607   3.938  0.9468  0.2709  0.0397
12104TIP3    H257804   6.513   6.714   3.847 -1.4826 -0.3778  0.7305
12105TIP3   OH257805   3.312   2.152  16.151 -0.4185 -0.1114  0.0162
12105TIP3    H157806   3.269   2.106  16.223  1.0746 -1.5914 -0.0182
12105TIP3    H257807   3.355   2.227  16.193  0.8507 -1.2383  0.7550
12106TIP3   OH257808   5.289   3.104  13.297  0.4841  0.5945 -0.3234
12106TIP3    H157809   5.299   3.134  13.388  1.5097 -0.4198 -0.0845
12106TIP3    H257810   5.286   3.008  13.304  0.5112  0.5161 -1.3563
12107TIP3   OH257811   1.250   6.041   0.277 -0.5619  0.4630  0.1705
12107TIP3    H157812   1.259   6.035   0.182  0.9073  0.0421  0.3338
12107TIP3    H257813   1.185   6.110   0.290 -0.7309  0.5600 -1.1348
12108TIP3   OH257814   1.227   0.553  16.022 -0.0432 -0.9534 -0.4372
12108TIP3    H157815   1.271   0.615  16.079 -0.0296 -1.7886  0.4663
12108TIP3    H257816   1.148   0.528  16.071 -0.2188 -1.3940 -0.9448
12109TIP3   OH257817   1.457   3.518   2.554  0.3641  0.0043 -0.2033
12109TIP3    H157818   1.365   3.512   2.527  0.0142  0.6678  0.8098
12109TIP3    H257819   1.467   3.450   2.621  0.8944 -0.7698 -1.0484
12110TIP3   OH257820   0.550   5.578   3.972 -0.2641 -0.0821  0.0893
12110TIP3    H157821   0.618   5.586   4.039  0.8832 -1.7543 -0.8362
12110TIP3    H257822   0.522   5.486   3.977  0.3238 -0.4032 -2.1662
12111TIP3   OH257823   1.181   0.340   5.851  0.0634  0.3863 -0.3312
12111TIP3    H157824   1.172   0.363   5.759  2.0799 -2.4702 -1.2609
12111TIP3    H257825   1.275   0.330   5.865 -0.4139 -2.5826  1.1520
12112TIP3   OH257826   0.775   0.649  14.850 -0.1536  0.6758 -0.0102
12112TIP3    H157827   0.795   0.683  14.937  2.0244 -0.1016 -0.1666
12112TIP3    H257828   0.801   0.557  14.854  0.6846  0.8289 -1.7149
12113TIP3   OH257829   4.482   3.726  16.675 -0.0647 -0.5838  0.1393
12113TIP3    H157830   4.408   3.683  16.631  0.1255  1.1794 -2.0086
12113TIP3    H257831   4.453   3.738  16.765 -2.3780 -0.0428 -0.6419
12114TIP3   OH257832   6.102   1.598  15.357 -0.0409  0.0948  0.0985
12114TIP3    H157833   6.180   1.578  15.305  1.3986  1.5893  1.5919
12114TIP3    H257834   6.035   1.623  15.293  0.7051 -1.1334 -1.1992
12115TIP3   OH257835   1.704   2.405  13.359 -0.1393  0.2954 -1.0610
12115TIP3    H157836   1.654   2.464  13.415 -0.2368 -0.2390 -0.5831
12115TIP3    H257837   1.637   2.356  13.311 -0.0982 -0.9786  0.1551
12116TIP3   OH257838   3.241   4.265  11.617  0.4037  0.4713  0.1484
12116TIP3    H157839   3.186   4.191  11.590  0.8213  0.8046 -1.6561
12116TIP3    H257840   3.309   4.225  11.672 -0.7028 -0.1557  1.0820
12117TIP3   OH257841   4.289   5.813  10.546  0.2019  0.6104 -0.0300
12117TIP3    H157842   4.370   5.778  10.511 -0.1595  0.0227 -0.2929
12117TIP3    H257843   4.247   5.739  10.589  0.5967  1.3022  1.5805
12118TIP3   OH257844   1.979   3.535   5.844 -0.0251  0.0972 -0.4249
12118TIP3    H157845   1.943   3.478   5.776  0.0722 -1.3335  0.7257
12118TIP3    H257846   1.902   3.570   5.889 -0.0272 -1.2173  0.5948
12119TIP3   OH257847   5.120   6.627   3.738  0.1001 -0.2832 -0.2081
12119TIP3    H157848   5.102   6.716   3.767  0.9590  0.3691 -1.6600
12119TIP3    H257849   5.037   6.598   3.698 -0.2710 -0.2632  0.5302
12120TIP3   OH257850   4.792   3.925   1.239 -0.0602  0.1893  0.2894
12120TIP3    H157851   4.835   3.986   1.300 -0.8977 -0.0464  1.1150
12120TIP3    H257852   4.857   3.911   1.170  0.8610  0.5251  1.0812
12121TIP3   OH257853   1.930   4.057   1.585  0.1794  0.4978  0.1180
12121TIP3    H157854   1.985   4.048   1.507  1.6499 -1.7584  1.3467
12121TIP3    H257855   1.843   4.030   1.557  0.8573 -1.0191 -0.5901
12122TIP3   OH257856   6.123   2.005  17.190  0.8783  0.1486  0.0975
12122TIP3    H157857   6.131   1.910  17.178  0.0612  0.0402  0.4019
12122TIP3    H257858   6.127   2.016  17.285 -1.5508  0.1852  0.2172
12123TIP3   OH257859   4.341   2.053   5.255  0.0946  0.0979 -0.0909
12123TIP3    H157860   4.433   2.051   5.282 -0.2305  0.9018  1.0913
12123TIP3    H257861   4.340   2.109   5.178  0.3964  1.2446  0.7181
12124TIP3   OH257862   3.222   4.412  15.980  0.4259  0.0129  0.2188
12124TIP3    H157863   3.291   4.374  16.035  0.5170  0.0581  0.1375
12124TIP3    H257864   3.165   4.339  15.958 -0.4488  0.2629  1.5879
12125TIP3   OH257865   0.884   2.592  16.537  0.2120 -0.1820  0.3646
12125TIP3    H157866   0.806   2.536  16.532 -0.4842  0.8882 -1.5314
12125TIP3    H257867   0.872   2.642  16.618 -1.1748  0.0739  0.0249
12126TIP3   OH257868   0.185   4.441  12.131 -0.4990  0.1611 -0.7446
12126TIP3    H157869   0.126   4.402  12.195 -0.2915  0.8816 -0.1124
12126TIP3    H257870   0.129   4.470  12.059 -0.7715 -0.2791 -0.7115
12127TIP3   OH257871   5.251   1.446  11.751  0.2617  0.3600  0.2098
12127TIP3    H157872   5.255   1.451  11.656 -0.2793 -0.0465  0.1600
12127TIP3    H257873   5.337   1.412  11.777  0.5291  0.7984 -0.1088
12128TIP3   OH257874   4.372   2.236  13.076 -0.1913 -0.5745 -0.0539
12128TIP3    H157875   4.306   2.202  13.136 -0.9060  0.3015 -0.3280
12128TIP3    H257876   4.365   2.331  13.085  1.4770 -0.4890  0.3845
12129TIP3   OH257877   1.402   5.796  15.606 -0.0261 -0.1643  0.0183
12129TIP3    H157878   1.433   5.837  15.524  0.7305 -0.3742  0.1978
12129TIP3    H257879   1.452   5.715  15.612  0.5247  0.2418  1.1092
12130TIP3   OH257880   1.211   6.094  15.550  0.0150  0.1398 -0.3343
12130TIP3    H157881   1.167   6.097  15.465 -0.2968 -1.2044 -0.2415
12130TIP3    H257882   1.198   6.004  15.580  2.5530 -0.2117 -0.1602
12131TIP3   OH257883   2.086   6.230  13.368  0.2140 -0.4030 -0.1576
12131TIP3    H157884   2.068   6.314  13.327  0.7068  0.5178  1.4662
12131TIP3    H257885   2.127   6.178  13.300  1.3216  1.1983 -0.7310
12132TIP3   OH257886   4.428   5.728  12.416 -0.1334  0.0616 -0.0302
12132TIP3    H157887   4.518   5.757  12.401  0.0639  0.0363  1.0439
12132TIP3    H257888   4.374   5.796  12.376  0.3612  0.5113  0.0576
12133TIP3   OH257889   2.845   2.420  14.519 -0.1590 -0.2295  0.5989
12133TIP3    H157890   2.817   2.329  14.516  0.6710 -0.4659 -0.1245
12133TIP3    H257891   2.917   2.425  14.456 -0.0717  0.8775  0.7804
12134TIP3   OH257892   4.418   1.754   1.819  0.4012 -0.1499  0.5491
12134TIP3    H157893   4.348   1.703   1.860  1.9450 -1.8752  1.0712
12134TIP3    H257894   4.407   1.842   1.854 -1.3432 -0.4622  0.8310
12135TIP3   OH257895   6.594   5.411  14.397 -0.3414  0.0733 -0.4136
12135TIP3    H157896   6.580   5.481  14.462  0.8115 -0.8255  0.8346
12135TIP3    H257897   6.569   5.451  14.314 -3.7241  0.6821  0.7909
12136TIP3   OH257898   4.167   4.178   2.984  0.0609 -0.2529 -0.6956
12136TIP3    H157899   4.218   4.260   2.983  1.1946 -0.9379 -0.3469
12136TIP3    H257900   4.081   4.203   2.949  0.4449  1.0524 -0.7531
12137TIP3   OH257901   4.606   3.398  13.025 -0.4149 -0.4906 -0.3912
12137TIP3    H157902   4.656   3.339  12.969  3.4478  0.4865  1.8349
12137TIP3    H257903   4.590   3.475  12.971 -0.2950 -1.1884 -1.4294
12138TIP3   OH257904   4.496   2.988  10.496  0.3786  0.1076 -0.2158
12138TIP3    H157905   4.434   3.055  10.468 -1.3346 -1.5111 -0.3903
12138TIP3    H257906   4.488   2.919  10.430  0.0281 -1.5197  1.4911
12139TIP3   OH257907   0.990   4.936   0.282 -0.0255 -0.1580 -0.0166
12139TIP3    H157908   0.972   4.968   0.371 -2.2376  0.2783 -0.5952
12139TIP3    H257909   0.932   4.860   0.272  1.5375 -1.3032 -0.4552
12140TIP3   OH257910   3.143   0.054   2.977  0.2452  0.2857  0.4576
12140TIP3    H157911   3.205   0.108   2.928  1.3354 -0.3850  1.0517
12140TIP3    H257912   3.089   0.117   3.026 -1.2899  0.9822 -2.0567
12141TIP3   OH257913   1.767   3.601   2.581  0.3508  0.3103  0.1629
12141TIP3    H157914   1.805   3.542   2.646 -0.6130 -1.0186 -0.4566
12141TIP3    H257915   1.696   3.551   2.541  0.7305  1.1982 -1.7149
12142TIP3   OH257916   0.797   0.817  11.017 -0.6194 -0.0053 -0.2840
12142TIP3    H157917   0.738   0.754  10.974 -1.0589  0.9741 -1.1524
12142TIP3    H257918   0.860   0.840  10.949  0.6606 -0.8792  0.5783
12143TIP3   OH257919   1.724   0.474   0.274 -0.6578 -0.0070  0.4643
12143TIP3    H157920   1.638   0.438   0.251 -1.0058  0.7782  0.5184
12143TIP3    H257921   1.720   0.565   0.243 -0.1548  0.2757  1.2299
12144TIP3   OH257922   3.805   2.179  17.215  0.5737  0.4055 -0.5759
12144TIP3    H157923   3.734   2.201  17.155  0.4557 -1.8158 -1.3314
12144TIP3    H257924   3.770   2.197  17.302 -0.5621  0.2808 -0.9932
12145TIP3   OH257925   6.559   3.162  12.444  0.0794  0.1943 -0.1279
12145TIP3    H157926   6.616   3.090  12.415 -2.2984 -1.7604 -0.1386
12145TIP3    H257927   6.611   3.210  12.508  0.9876 -2.8689  1.5454
12146TIP3   OH257928   1.932   4.501   2.034 -0.2121 -0.1993 -0.2264
12146TIP3    H157929   1.921   4.418   2.082  1.7041 -0.4648 -0.2215
12146TIP3    H257930   1.843   4.527   2.012 -0.8648 -2.1602 -0.0445
12147TIP3   OH257931   1.394   3.536  16.883 -0.6910 -0.7881 -0.2591
12147TIP3    H157932   1.327   3.580  16.934 -0.7665 -0.0112 -1.0253
12147TIP3    H257933   1.402   3.449  16.923 -1.9461 -0.7819  0.0063
12148TIP3   OH257934   2.808   3.364   3.777  0.0705  0.0037  0.1387
12148TIP3    H157935   2.788   3.444   3.728 -0.3656 -1.3980 -2.0323
12148TIP3    H257936   2.895   3.380   3.814  0.9041  0.6908 -2.0278
12149TIP3   OH257937   0.092   2.493   0.109 -0.0773 -0.1787 -0.1126
12149TIP3    H157938   0.095   2.589   0.107 -3.3706  0.0821  3.2776
12149TIP3    H257939   0.157   2.468   0.175 -0.3640 -0.2280  0.1472
12150TIP3   OH257940   2.378   0.063  16.208 -0.0436  1.1017 -0.0895
12150TIP3    H157941   2.441   0.135  16.211  0.8401  0.2845  1.6695
12150TIP3    H257942   2.341   0.060  16.297  0.7239 -1.2850  0.1840
12151TIP3   OH257943   3.221   4.084   1.317  0.1748 -0.5824 -0.2072
12151TIP3    H157944   3.204   4.007   1.263 -0.0115  0.4509 -1.6329
12151TIP3    H257945   3.245   4.153   1.255 -3.5748  1.6342  0.6150
12152TIP3   OH257946   3.645   2.077  15.013  0.1593 -0.0661  0.1905
12152TIP3    H157947   3.591   2.018  14.961  1.6301 -0.4268 -0.9696
12152TIP3    H257948   3.667   2.027  15.091  0.6958 -0.7507 -0.3944
12153TIP3   OH257949   2.061   0.618  13.294  0.1828 -0.5746  0.7529
12153TIP3    H157950   2.039   0.643  13.204  1.8644 -0.1130  0.4424
12153TIP3    H257951   2.106   0.534  13.285 -1.0212 -1.2770  1.3114
12154TIP3   OH257952   4.551   2.828  10.924 -0.5544  0.6832  0.7850
12154TIP3    H157953   4.491   2.896  10.893 -0.3401  0.8074  0.6413
12154TIP3    H257954   4.496   2.770  10.977 -1.0483  0.1611 -0.2713
12155TIP3   OH257955   1.272   6.026  13.427  0.4515 -0.2672  0.3628
12155TIP3    H157956   1.250   6.007  13.518 -2.2261 -0.9490 -0.3825
12155TIP3    H257957   1.325   6.106  13.431 -2.2497  1.5118  2.3342
12156TIP3   OH257958   3.224   1.177   5.333  0.2610 -0.1624 -0.1409
12156TIP3    H157959   3.270   1.237   5.392  0.0658  0.8826 -1.0252
12156TIP3    H257960   3.143   1.223   5.312  0.1028 -0.7534 -0.8081
12157TIP3   OH257961   6.357   6.805   4.785  0.6424 -0.1180  0.6249
12157TIP3    H157962   6.308   6.888   4.787  1.3104  0.4709 -2.8625
12157TIP3    H257963   6.290   6.737   4.794 -0.6006  0.7348 -1.6516
12158TIP3   OH257964   5.412   3.623  12.213 -0.1898  0.0251 -0.6166
12158TIP3    H157965   5.471   3.548  12.220  0.4282  0.6142  1.0237
12158TIP3    H257966   5.471   3.698  12.203 -0.7259  0.4584 -0.5377
12159TIP3   OH257967   4.764   2.229   1.750  0.2864 -0.6168 -0.4849
12159TIP3    H157968   4.856   2.228   1.779  0.5475  0.0504 -1.2935
12159TIP3    H257969   4.755   2.149   1.698  0.5069 -0.4891 -0.7175
12160TIP3   OH257970   0.971   2.361  14.001 -0.3440  0.3390  0.3762
12160TIP3    H157971   1.066   2.365  14.010 -0.4959  2.0061  1.7098
12160TIP3    H257972   0.953   2.272  13.972  1.7450  0.5451 -1.7144
12161TIP3   OH257973   1.630   0.592   6.300 -0.0926  0.4555  0.2487
12161TIP3    H157974   1.539   0.562   6.306 -0.4688  1.6655  0.6534
12161TIP3    H257975   1.650   0.588   6.207 -0.0870 -1.2103  0.3122
12162TIP3   OH257976   6.491   1.083  13.479  0.0924  0.0579  0.1018
12162TIP3    H157977   6.552   1.083  13.552 -0.5548  0.1775  0.6457
12162TIP3    H257978   6.494   1.173  13.446 -0.8394  0.4361  1.0194
12163TIP3   OH257979   6.050   3.865   1.244  1.5036 -0.4277 -0.3624
12163TIP3    H157980   6.037   3.784   1.292  1.7767 -0.1492  0.1916
12163TIP3    H257981   6.056   3.933   1.312  0.1130  0.2208 -0.8645
12164TIP3   OH257982   2.915   3.831   2.358  0.4309  0.0599  0.0021
12164TIP3    H157983   2.912   3.837   2.263 -1.0315 -0.7501 -0.0150
12164TIP3    H257984   2.982   3.765   2.376 -2.1625 -2.8986 -0.6429
12165TIP3   OH257985   2.424   4.180   4.026  0.5563 -0.2968 -0.1249
12165TIP3    H157986   2.359   4.177   3.955  1.5558 -0.6061 -1.0353
12165TIP3    H257987   2.491   4.241   3.994 -0.2308  1.5596  1.6385
12166TIP3   OH257988   2.922   4.395  13.499  0.4115 -0.1378  0.0864
12166TIP3    H157989   2.894   4.374  13.588 -0.5826 -0.8376 -0.3884
12166TIP3    H257990   2.905   4.316  13.449  0.9538  0.2571 -0.7372
12167TIP3   OH257991   4.770   1.589   6.682  0.2115 -0.8309 -0.1432
12167TIP3    H157992   4.693   1.605   6.737 -0.3313  1.4566 -1.4981
12167TIP3    H257993   4.738   1.534   6.610  0.4364 -2.0108  0.6474
12168TIP3   OH257994   6.562   0.221  12.275 -0.4660 -0.5273  0.2358
12168TIP3    H157995   6.536   0.311  12.255 -0.2214 -0.1963  1.3371
12168TIP3    H257996   6.576   0.180  12.190  0.6330  0.8343 -0.2678
12169TIP3   OH257997   5.339   5.887   2.593  0.1401  0.0827  0.4214
12169TIP3    H157998   5.393   5.947   2.644  0.2122  0.4294 -0.0623
12169TIP3    H257999   5.251   5.895   2.631  0.6543 -1.4069  2.0300
12170TIP3   OH258000   3.220   1.644   1.916 -0.0919 -0.1236  0.0245
12170TIP3    H158001   3.155   1.575   1.930  0.4498 -0.7643 -0.5699
12170TIP3    H258002   3.244   1.636   1.824 -0.3292  1.1289 -0.1510
12171TIP3   OH258003   2.115   0.772   3.148  0.0148  0.2661  0.1138
12171TIP3    H158004   2.081   0.782   3.059  0.8726  1.1666 -0.1245
12171TIP3    H258005   2.183   0.839   3.155  1.5766 -1.3187  0.6520
12172TIP3   OH258006   2.489   0.014  13.332 -0.3821  0.0072  0.4105
12172TIP3    H158007   2.459   0.035  13.420  0.0616 -0.1231  0.5918
12172TIP3    H258008   2.507   0.099  13.292  0.7036  0.0080  0.8954
12173TIP3   OH258009   0.112   2.222  16.175 -0.1787 -0.7704 -0.0258
12173TIP3    H158010   0.167   2.160  16.222 -0.4044 -0.2633  0.9043
12173TIP3    H258011   0.054   2.167  16.122  1.8698 -1.2888 -1.7657
12174TIP3   OH258012   1.297   3.121   1.467 -0.5656  0.1092 -0.0091
12174TIP3    H158013   1.319   3.182   1.397  2.7616 -1.2222 -0.1963
12174TIP3    H258014   1.226   3.067   1.431  0.2263  0.2775 -1.8723
12175TIP3   OH258015   4.450   1.369  11.382 -0.4583  0.5911 -0.4889
12175TIP3    H158016   4.477   1.293  11.330  0.4239  0.9285 -0.5187
12175TIP3    H258017   4.478   1.348  11.471 -0.1175  0.9286 -0.5158
12176TIP3   OH258018   3.497   3.247   3.516  0.2396 -0.4175  0.3314
12176TIP3    H158019   3.529   3.311   3.453 -0.5563  0.2445  0.6043
12176TIP3    H258020   3.402   3.256   3.514  0.1467 -1.2649  0.7084
12177TIP3   OH258021   0.693   4.585   0.324  0.6616 -0.0505 -0.4520
12177TIP3    H158022   0.729   4.593   0.236 -1.0063 -1.3697 -1.2742
12177TIP3    H258023   0.617   4.644   0.324  0.9894  0.3763  0.2854
12178TIP3   OH258024   2.495   5.955   6.275  0.2324  0.3050 -0.2264
12178TIP3    H158025   2.463   5.865   6.266 -0.9479  0.5193  1.5708
12178TIP3    H258026   2.416   6.006   6.294  1.2339  1.3264  1.2904
12179TIP3   OH258027   3.555   0.317  15.725  0.3022 -0.1714 -0.5604
12179TIP3    H158028   3.626   0.294  15.664  2.8470  1.4472  1.6668
12179TIP3    H258029   3.600   0.336  15.807 -3.0285 -1.9646  1.7747
12180TIP3   OH258030   6.397   6.436   0.181 -0.4891 -0.6469  0.1175
12180TIP3    H158031   6.307   6.418   0.154 -0.4172  0.1136 -0.6735
12180TIP3    H258032   6.394   6.522   0.223 -0.0455 -0.3614 -0.4186
12181TIP3   OH258033   0.844   3.424  12.431  0.2247  0.3501  0.2981
12181TIP3    H158034   0.935   3.396  12.424  0.6127  1.1747  1.9715
12181TIP3    H258035   0.794   3.348  12.400  1.3999 -0.8197  1.1939
12182TIP3   OH258036   0.730   4.031   2.017  0.1628 -0.5852 -0.1920
12182TIP3    H158037   0.816   3.995   1.994  0.2291 -0.1763 -0.6158
12182TIP3    H258038   0.727   4.028   2.112  1.1958  0.6191 -0.1041
12183TIP3   OH258039   1.291   0.813   3.773 -0.3454  0.3038 -0.4024
12183TIP3    H158040   1.362   0.804   3.709  0.5069 -0.1125  0.5849
12183TIP3    H258041   1.225   0.750   3.744 -0.2538  0.5923 -1.2446
12184TIP3   OH258042   4.967   2.250  11.676  0.0679 -0.6180  0.5978
12184TIP3    H158043   4.928   2.265  11.762  0.3563 -1.0691  0.8048
12184TIP3    H258044   5.054   2.292  11.682 -0.3616  0.3602  0.1481
12185TIP3   OH258045   5.320   1.641  14.606  0.0568  0.1815  0.4921
12185TIP3    H158046   5.363   1.722  14.578  1.8765 -0.6821  0.7045
12185TIP3    H258047   5.310   1.651  14.701 -0.5693  0.5408  0.3924
12186TIP3   OH258048   6.683   2.447   4.350  0.1810 -0.2571  0.2257
12186TIP3    H158049   6.619   2.413   4.413  0.4862  1.1417  1.3065
12186TIP3    H258050   6.713   2.369   4.303 -2.7389 -0.8811 -0.7261
12187TIP3   OH258051   6.150   0.070   1.195 -0.2685 -0.2484  0.0764
12187TIP3    H158052   6.113   0.049   1.281 -1.5167 -1.3305 -0.7139
12187TIP3    H258053   6.081   0.119   1.151 -0.2915 -1.1877 -0.9437
12188TIP3   OH258054   0.952   3.801  13.768  0.1011  0.2046 -0.4658
12188TIP3    H158055   1.001   3.737  13.819  1.3571  0.6933 -1.0326
12188TIP3    H258056   1.005   3.814  13.689 -1.6886 -0.3652 -1.7913
12189TIP3   OH258057   1.533   0.910  12.117 -0.2687 -0.2553 -0.1385
12189TIP3    H158058   1.491   0.925  12.202  1.1591 -0.4354  0.6069
12189TIP3    H258059   1.567   0.821  12.122 -0.1337 -0.2541 -0.8843
12190TIP3   OH258060   2.693   1.505  16.993  0.1959 -0.1012 -0.7219
12190TIP3    H158061   2.601   1.479  17.000  0.0676  0.4317 -0.3397
12190TIP3    H258062   2.737   1.454  17.061  0.2690 -0.7544 -1.2641
12191TIP3   OH258063   3.054   2.402   4.709  0.1072 -0.6665 -0.0395
12191TIP3    H158064   3.109   2.325   4.724  1.2982  0.1242 -0.2386
12191TIP3    H258065   2.966   2.375   4.735  0.5935 -1.9578  0.2850
12192TIP3   OH258066   1.402   4.399   0.829 -0.0876  0.1566  0.5337
12192TIP3    H158067   1.435   4.309   0.822  0.0279  0.4141 -3.0007
12192TIP3    H258068   1.317   4.389   0.872 -0.0835 -1.6751  0.1931
12193TIP3   OH258069   6.050   3.167   0.266 -0.2518 -0.2885 -0.2721
12193TIP3    H158070   6.114   3.121   0.212 -0.0179  0.1688 -0.3883
12193TIP3    H258071   5.965   3.130   0.240  0.1251 -2.4643  1.4245
12194TIP3   OH258072   1.573   6.578   4.387  0.1298  0.0547 -0.1363
12194TIP3    H158073   1.629   6.612   4.318 -0.0933 -0.3926 -0.5463
12194TIP3    H258074   1.499   6.538   4.341 -1.0061  1.4412  0.4103
12195TIP3   OH258075   5.378   6.533   4.922 -0.4551 -0.1078 -0.0909
12195TIP3    H158076   5.454   6.539   4.980  0.5129 -0.6495 -1.2703
12195TIP3    H258077   5.302   6.545   4.979  0.4878 -0.5043  1.2498
12196TIP3   OH258078   5.271   2.319   1.944 -0.1326 -0.4896 -0.0116
12196TIP3    H158079   5.324   2.320   1.864  1.1969  1.1473  0.8584
12196TIP3    H258080   5.298   2.239   1.989 -0.8514 -1.3979 -1.1632
12197TIP3   OH258081   1.100   1.465   5.913 -0.2152 -0.3147  0.0133
12197TIP3    H158082   1.171   1.421   5.960 -0.4321 -1.2312 -0.5025
12197TIP3    H258083   1.135   1.551   5.891  0.7999 -0.8082 -0.3559
12198TIP3   OH258084   0.785   0.358   1.505 -0.3572 -0.0944  0.2933
12198TIP3    H158085   0.831   0.282   1.541  1.1707  0.0672 -1.1951
12198TIP3    H258086   0.718   0.379   1.569 -0.4439 -2.3708  0.9909
12199TIP3   OH258087   3.516   5.351  15.629  1.0083 -0.1779 -0.3345
12199TIP3    H158088   3.517   5.259  15.653  2.3616  0.2545  1.2957
12199TIP3    H258089   3.552   5.353  15.540  1.1948 -1.1822 -0.2835
12200TIP3   OH258090   2.697   4.882  14.004 -0.5372 -0.1769  0.5955
12200TIP3    H158091   2.769   4.904  13.945 -1.0091  0.6863  0.3226
12200TIP3    H258092   2.627   4.850  13.946  0.0602 -2.2395  0.9686
12201TIP3   OH258093   3.681   2.000   3.376 -0.3210 -0.2640 -0.0625
12201TIP3    H158094   3.624   2.064   3.334 -1.3105 -0.6131  0.7425
12201TIP3    H258095   3.694   2.034   3.464  0.7222 -0.1945 -0.2289
12202TIP3   OH258096   6.643   0.942  12.654  0.3520 -0.5595  0.1618
12202TIP3    H158097   6.577   0.902  12.596 -1.1403  2.3707 -0.2833
12202TIP3    H258098   6.719   0.956  12.597  0.6202 -2.0685  0.1409
12203TIP3   OH258099   5.074   0.897  16.765 -0.4598  0.1509 -0.2388
12203TIP3    H158100   5.001   0.857  16.812 -0.4457  0.7399  0.2921
12203TIP3    H258101   5.045   0.900  16.673 -0.5519 -0.8525 -0.2484
12204TIP3   OH258102   4.292   6.584   2.856  0.9751  0.2006 -0.4892
12204TIP3    H158103   4.249   6.620   2.934  0.4808  1.1759 -1.1916
12204TIP3    H258104   4.234   6.514   2.826  0.0189  1.3043 -1.2512
12205TIP3   OH258105   3.843   5.520  14.727 -0.1995  0.2742  0.7170
12205TIP3    H158106   3.809   5.448  14.674 -0.7419 -0.0046  1.4371
12205TIP3    H258107   3.819   5.498  14.816 -0.0691  1.1786  0.9846
12206TIP3   OH258108   4.682   1.976   2.913 -0.2104 -0.5141  0.1798
12206TIP3    H158109   4.671   2.071   2.923 -1.3009 -0.4995 -1.0690
12206TIP3    H258110   4.727   1.949   2.993 -0.9452  0.8843  1.0912
12207TIP3   OH258111   1.879   0.265  11.006 -0.0328 -0.7506  0.2811
12207TIP3    H158112   1.902   0.178  10.973  0.3024 -0.0750 -1.3030
12207TIP3    H258113   1.932   0.275  11.085  0.1414 -1.8608  0.3182
12208TIP3   OH258114   3.501   0.267   0.858 -0.1847 -0.1770 -0.0619
12208TIP3    H158115   3.457   0.333   0.912 -2.5532 -1.8577  0.1370
12208TIP3    H258116   3.577   0.240   0.910 -0.5023  0.7210  0.8847
12209TIP3   OH258117   4.770   3.498  12.751  0.1060  0.7284  0.2896
12209TIP3    H158118   4.843   3.497  12.690 -0.4334  0.9871 -0.3597
12209TIP3    H258119   4.796   3.562  12.818  0.6555  0.5086  0.2921
12210TIP3   OH258120   2.278   5.459   0.129 -0.2091  0.4770 -0.1382
12210TIP3    H158121   2.319   5.437   0.046  0.0350 -1.1849  0.4154
12210TIP3    H258122   2.278   5.555   0.131 -0.6635  0.5409 -2.2646
12211TIP3   OH258123   3.112   0.357  11.675  0.2867 -0.3535 -0.2160
12211TIP3    H158124   3.159   0.278  11.701  1.3909  0.5119  0.4406
12211TIP3    H258125   3.117   0.357  11.579 -1.3141 -2.0376 -0.3043
12212TIP3   OH258126   3.576   2.855  12.226  0.1590 -0.4403 -0.0636
12212TIP3    H158127   3.563   2.894  12.140  0.3813 -0.4390 -0.0957
12212TIP3    H258128   3.576   2.930  12.286  1.1346 -0.3325 -0.1833
12213TIP3   OH258129   0.141   4.559  12.955 -0.2179 -0.5458 -0.0956
12213TIP3    H158130   0.107   4.566  12.865 -3.6616  0.4897  1.2173
12213TIP3    H258131   0.184   4.643  12.971  0.6359 -0.8262 -0.8170
12214TIP3   OH258132   6.670   3.846   3.615  0.2445  0.0027 -0.5263
12214TIP3    H158133   6.689   3.820   3.706 -2.5178 -0.7290 -0.1238
12214TIP3    H258134   6.714   3.779   3.562 -1.5396 -1.9432  0.3864
12215TIP3   OH258135   1.402   5.913   4.254 -0.3155 -0.7957  0.1799
12215TIP3    H158136   1.486   5.870   4.274 -0.1525 -0.6571 -0.2041
12215TIP3    H258137   1.382   5.963   4.333  0.5019  0.0315 -0.1213
12216TIP3   OH258138   0.500   6.702   4.261 -0.2783 -0.3684 -0.9245
12216TIP3    H158139   0.591   6.726   4.280 -0.5728  0.6476 -0.7947
12216TIP3    H258140   0.506   6.611   4.232  1.0112  0.2528 -2.7212
12217TIP3   OH258141   4.406   4.313  11.919  0.4075  0.3814 -0.2827
12217TIP3    H158142   4.487   4.267  11.942  1.0118  2.3279  1.6762
12217TIP3    H258143   4.433   4.378  11.854  0.2551  0.3902 -0.3360
12218TIP3   OH258144   3.590   1.845  16.626 -0.1042  0.0773 -0.0148
12218TIP3    H158145   3.597   1.913  16.559  1.2051  0.5376  0.5620
12218TIP3    H258146   3.508   1.863  16.671  0.7095  1.9241  0.7924
12219TIP3   OH258147   1.856   3.177   6.361 -0.1775  0.1322  0.3746
12219TIP3    H158148   1.942   3.212   6.339 -0.9616  0.0781 -2.9854
12219TIP3    H258149   1.848   3.097   6.309 -1.3410 -1.1873  2.4613
12220TIP3   OH258150   3.431   4.664  14.631  0.3682  0.2573  0.6340
12220TIP3    H158151   3.482   4.583  14.631  0.6722  0.4466  0.6184
12220TIP3    H258152   3.362   4.649  14.695  0.3964 -0.0311  0.5950
12221TIP3   OH258153   6.209   2.322  15.809 -0.3512 -0.4200  0.3095
12221TIP3    H158154   6.303   2.317  15.791 -0.1437 -1.2828  1.6024
12221TIP3    H258155   6.168   2.288  15.729  0.4842 -1.4039  0.2804
12222TIP3   OH258156   1.023   4.613   1.743 -0.2916  0.4812 -0.3667
12222TIP3    H158157   0.963   4.637   1.673 -0.1302  0.7248 -0.4228
12222TIP3    H258158   1.079   4.545   1.705 -0.9317 -0.1939 -0.1193
12223TIP3   OH258159   1.144   2.887  11.882 -0.2060 -0.0444 -0.1146
12223TIP3    H158160   1.199   2.913  11.956  0.8696  0.5163 -1.0897
12223TIP3    H258161   1.100   2.968  11.855  0.4278  0.0418 -0.9216
12224TIP3   OH258162   3.433   0.118  13.825 -0.4600 -0.4358 -0.3885
12224TIP3    H158163   3.432   0.065  13.745 -2.6572  0.1802 -0.8067
12224TIP3    H258164   3.388   0.199  13.801  0.7093  0.6214  0.9154
12225TIP3   OH258165   4.708   3.786   3.485  0.2454 -0.1736  0.0533
12225TIP3    H158166   4.697   3.755   3.575  0.7980  1.3549  0.6521
12225TIP3    H258167   4.764   3.720   3.444  1.2040 -0.1282  1.2503
12226TIP3   OH258168   3.532   2.192   2.509  0.2658 -0.1254 -0.4192
12226TIP3    H158169   3.596   2.242   2.561 -0.6685  0.5082  0.1328
12226TIP3    H258170   3.543   2.102   2.540  1.8209 -0.2571 -1.2774
12227TIP3   OH258171   4.422   5.944  12.092 -0.6141  0.3967 -0.0261
12227TIP3    H158172   4.425   6.038  12.073 -0.2008  0.5134  0.6081
12227TIP3    H258173   4.391   5.939  12.182  1.6549  0.0222  0.7681
12228TIP3   OH258174   3.526   1.473   1.111  0.0741  0.1346 -0.7074
12228TIP3    H158175   3.568   1.387   1.117 -0.1956  0.1200  1.5816
12228TIP3    H258176   3.439   1.455   1.075  0.2874 -0.4488 -0.9378
12229TIP3   OH258177   3.292   1.674   4.035  0.6758  0.0488  0.2755
12229TIP3    H158178   3.312   1.730   3.959  0.0362 -1.4026 -0.9871
12229TIP3    H258179   3.241   1.730   4.093 -0.9489  0.4776 -1.4911
12230TIP3   OH258180   0.789   5.250  14.569 -0.2161  0.0483 -0.1199
12230TIP3    H158181   0.827   5.163  14.575  2.2404  1.0238 -0.8357
12230TIP3    H258182   0.793   5.271  14.475 -1.2796  0.7277 -0.0227
12231TIP3   OH258183   6.232   5.240  12.159 -0.5870 -0.7738  0.8003
12231TIP3    H158184   6.324   5.265  12.163 -0.9134  0.5019  0.6664
12231TIP3    H258185   6.213   5.205  12.246  0.6752 -3.4976  0.0335
12232TIP3   OH258186   4.665   1.263  16.321 -0.4295  0.4798  0.0946
12232TIP3    H158187   4.690   1.340  16.372 -1.3681  0.3287  0.7982
12232TIP3    H258188   4.735   1.200  16.338  0.4741  1.2528 -0.6858
12233TIP3   OH258189   6.469   3.878  16.754  0.2194  0.2421  0.5312
12233TIP3    H158190   6.457   3.866  16.848  1.2266 -1.3005  0.4959
12233TIP3    H258191   6.390   3.921  16.724 -0.8175 -0.7196  1.8413
12234TIP3   OH258192   4.024   2.886   2.810  0.4263  0.1661  0.4856
12234TIP3    H158193   3.970   2.919   2.883 -0.4296  1.2990 -0.6413
12234TIP3    H258194   3.967   2.825   2.763  0.9718 -0.5475  0.7313
12235TIP3   OH258195   4.374   4.296  15.265 -0.2298  0.5304  0.2261
12235TIP3    H158196   4.289   4.337  15.249  0.9790  4.0448  2.2494
12235TIP3    H258197   4.365   4.256  15.352 -0.0259  0.4478  0.2078
12236TIP3   OH258198   5.886   0.990  14.410 -0.2342  0.2957  0.0260
12236TIP3    H158199   5.872   1.074  14.366 -1.2841 -1.6728 -3.5960
12236TIP3    H258200   5.974   0.964  14.384  0.0988  0.2850  1.1668
12237TIP3   OH258201   1.556   1.355   6.294  0.9175 -0.8102  0.0108
12237TIP3    H158202   1.468   1.379   6.325  1.0298  1.4667 -1.3666
12237TIP3    H258203   1.539   1.295   6.221  0.5453 -0.8922  0.1598
12238TIP3   OH258204   0.398   1.970   4.976  0.5638  0.2055 -0.2233
12238TIP3    H158205   0.353   1.984   5.059  1.7514  0.0311  0.4691
12238TIP3    H258206   0.436   1.882   4.983 -0.7453 -0.5039 -1.6380
12239TIP3   OH258207   2.077   1.381  12.935  0.2258  0.1524 -0.1392
12239TIP3    H158208   2.000   1.423  12.973  0.9240  1.1317  0.2085
12239TIP3    H258209   2.107   1.443  12.868  1.0522  0.0392  0.1281
12240TIP3   OH258210   6.120   6.136   6.814  0.1013  0.3101 -0.0298
12240TIP3    H158211   6.084   6.168   6.897  1.1451 -1.0383  0.9583
12240TIP3    H258212   6.201   6.186   6.802 -0.0102  0.4500 -0.2184
12241TIP3   OH258213   0.230   5.334  12.086 -0.1916 -0.5044  0.0128
12241TIP3    H158214   0.240   5.240  12.076  0.8622 -0.4449  0.3751
12241TIP3    H258215   0.213   5.366  11.997  1.1659 -0.8525 -0.3879
12242TIP3   OH258216   3.289   2.543   3.794  0.0730 -0.5238  0.3867
12242TIP3    H158217   3.206   2.590   3.792 -0.4858 -1.5046 -0.7801
12242TIP3    H258218   3.354   2.609   3.817 -1.0982  0.1326  1.9137
12243TIP3   OH258219   1.252   4.558   2.811  0.2820 -0.8314 -0.2028
12243TIP3    H158220   1.343   4.533   2.828  0.6943 -0.9309 -2.4288
12243TIP3    H258221   1.202   4.478   2.830  0.8192 -1.2333 -0.4667
12244TIP3   OH258222   3.652   3.843   0.839 -0.2915  0.1877  0.4913
12244TIP3    H158223   3.629   3.871   0.750  1.0809  2.7481  0.8985
12244TIP3    H258224   3.574   3.863   0.891 -0.0315  1.4410  0.4061
12245TIP3   OH258225   3.916   5.221   2.825 -0.0250 -0.3087  0.1819
12245TIP3    H158226   3.878   5.233   2.738 -0.4862  0.2658  0.4651
12245TIP3    H258227   3.842   5.204   2.882  0.2408 -0.2881  0.5348
12246TIP3   OH258228   0.703   6.189   4.287  0.0043 -0.2373  0.0597
12246TIP3    H158229   0.744   6.103   4.296 -0.4932 -0.5038 -0.1498
12246TIP3    H258230   0.762   6.250   4.331  0.7562 -0.5695 -0.4947
12247TIP3   OH258231   1.897   5.656  13.621 -0.4211 -0.2826  0.4283
12247TIP3    H158232   1.832   5.704  13.672  0.6364  2.5024 -0.7386
12247TIP3    H258233   1.866   5.661  13.531  0.6466 -0.2381  0.0547
12248TIP3   OH258234   4.301   3.967   1.013 -0.2551  0.0014  0.4729
12248TIP3    H158235   4.265   3.902   1.074  0.1452 -2.6985 -2.0556
12248TIP3    H258236   4.393   3.976   1.039  0.1046 -1.6977 -0.1155
12249TIP3   OH258237   6.012   5.043   5.767 -0.0464  0.0039  0.0233
12249TIP3    H158238   5.920   5.038   5.742  0.1660 -0.4373 -0.6796
12249TIP3    H258239   6.015   5.108   5.837 -0.4173  2.4354 -2.1686
12250TIP3   OH258240   0.371   4.287  14.934  0.0018  0.0284 -0.0202
12250TIP3    H158241   0.328   4.366  14.966 -0.1834 -0.3723  0.7455
12250TIP3    H258242   0.369   4.227  15.009  1.0200 -0.3442 -0.2867
12251TIP3   OH258243   2.280   6.602  10.882 -0.0182 -0.4019  0.6940
12251TIP3    H158244   2.353   6.664  10.875  0.5857 -1.2294 -0.4903
12251TIP3    H258245   2.294   6.540  10.811 -0.4174 -2.1121  2.0687
12252TIP3   OH258246   4.010   1.444   2.127  0.3353 -0.6501  0.4681
12252TIP3    H158247   4.096   1.481   2.145 -0.3258  1.4616 -0.5478
12252TIP3    H258248   4.015   1.354   2.160  2.7584 -0.4147  0.8364
12253TIP3   OH258249   0.383   4.740   2.923 -0.0631 -0.0856 -0.1202
12253TIP3    H158250   0.443   4.768   2.992  0.3233  0.3729 -0.6392
12253TIP3    H258251   0.359   4.821   2.878  0.2395 -0.4747 -0.9702
12254TIP3   OH258252   3.446   5.213   2.729 -0.2394 -0.1824 -0.1790
12254TIP3    H158253   3.396   5.260   2.662 -1.6696 -0.1124  0.9011
12254TIP3    H258254   3.382   5.154   2.769  0.8010 -0.8305  0.5542
12255TIP3   OH258255   6.481   5.985   3.798 -0.0654 -0.0370 -0.2640
12255TIP3    H158256   6.471   5.923   3.726  0.2359 -0.6756  0.2416
12255TIP3    H258257   6.504   6.068   3.755  0.6498 -0.5407 -0.8695
12256TIP3   OH258258   3.204   2.934   4.055  0.1229 -0.1365 -0.2445
12256TIP3    H158259   3.298   2.950   4.064  0.2923 -0.2799 -1.6420
12256TIP3    H258260   3.191   2.847   4.093  0.2674  0.5958  1.4941
12257TIP3   OH258261   5.128   3.735   1.756 -1.1679  0.1063 -0.2888
12257TIP3    H158262   5.093   3.816   1.793 -2.6371  0.1684 -1.7049
12257TIP3    H258263   5.119   3.670   1.825 -1.3903  0.8100  0.3471
12258TIP3   OH258264   2.308   1.135  12.665 -0.5818  0.6019  0.4067
12258TIP3    H158265   2.399   1.118  12.687 -0.9226 -0.9689  0.7507
12258TIP3    H258266   2.293   1.087  12.584 -0.4158  3.0417 -1.0974
12259TIP3   OH258267   0.037   6.630   6.102  0.3997  0.3572 -0.4160
12259TIP3    H158268  -0.023   6.568   6.060  2.7785 -1.8279 -0.6859
12259TIP3    H258269   0.009   6.715   6.069 -0.4117 -0.9172 -3.2312
12260TIP3   OH258270   4.775   5.360   4.744 -0.3277  0.1682  0.1925
12260TIP3    H158271   4.763   5.455   4.741 -1.9137 -0.0535 -1.4490
12260TIP3    H258272   4.856   5.348   4.795  0.7084  2.4462 -0.8192
12261TIP3   OH258273   3.606   3.555  13.562 -0.0804 -0.0893  0.3254
12261TIP3    H158274   3.539   3.570  13.628 -0.0643 -0.5792  0.4554
12261TIP3    H258275   3.664   3.490  13.601 -1.0367 -1.6733 -0.8593
12262TIP3   OH258276   0.263   5.583  15.200 -0.1089 -0.1072 -0.2607
12262TIP3    H158277   0.236   5.545  15.117 -1.0811  0.9104 -0.4206
12262TIP3    H258278   0.190   5.640  15.226  0.7012  0.5331  0.6701
12263TIP3   OH258279   6.481   2.535  15.639  0.1794  0.3839  0.5541
12263TIP3    H158280   6.499   2.628  15.646  0.4932  0.2776  1.1958
12263TIP3    H258281   6.501   2.500  15.726 -0.6731 -0.1491  0.5464
12264TIP3   OH258282   5.574   0.915   0.989  0.6785  0.2411 -0.1863
12264TIP3    H158283   5.590   0.959   1.073 -0.8044  1.8434 -0.7200
12264TIP3    H258284   5.626   0.964   0.926 -1.4853  1.6865 -0.8931
12265TIP3   OH258285   4.669   5.427   6.385 -0.3950 -0.0713  0.6543
12265TIP3    H158286   4.669   5.334   6.361 -1.0198 -0.6335  2.7257
12265TIP3    H258287   4.727   5.432   6.461 -2.1815  0.8314  1.9948
12266TIP3   OH258288   6.188   4.112  15.770  0.2183 -0.3013  0.2820
12266TIP3    H158289   6.265   4.070  15.809  1.2350 -1.5846 -2.9370
12266TIP3    H258290   6.117   4.050  15.786  0.3777 -0.2787  1.0973
12267TIP3   OH258291   0.369   0.221  11.786 -0.3170  0.0496 -0.4596
12267TIP3    H158292   0.324   0.258  11.710  0.0541 -3.6294 -2.5324
12267TIP3    H258293   0.315   0.146  11.811  0.1031  0.6320  2.3637
12268TIP3   OH258294   6.036   4.199  16.133  0.1460  0.2000 -0.0892
12268TIP3    H158295   6.114   4.172  16.181  0.0524  0.7977  0.4061
12268TIP3    H258296   5.974   4.127  16.143  0.5527 -0.1860 -0.3060
12269TIP3   OH258297   4.410   2.365  11.656  0.2055  0.6756  0.1699
12269TIP3    H158298   4.440   2.320  11.734 -1.6365 -0.5723  0.1867
12269TIP3    H258299   4.444   2.454  11.664  0.8801  0.2657  1.8758
12270TIP3   OH258300   3.337   4.683  16.755  0.0705 -0.1396 -0.1139
12270TIP3    H158301   3.413   4.726  16.793 -1.2052  1.5223  0.6486
12270TIP3    H258302   3.309   4.620  16.822 -0.5750  0.8839  0.5966
12271TIP3   OH258303   5.490   4.980   0.688  0.0619 -0.0830 -0.1439
12271TIP3    H158304   5.445   4.944   0.764  0.3810 -0.4545 -0.1329
12271TIP3    H258305   5.583   4.961   0.704  0.4292  2.0794  0.6237
12272TIP3   OH258306   5.350   4.969  12.066  0.3949  0.2916  0.1741
12272TIP3    H158307   5.308   4.972  11.980  0.6107  1.3539  0.1001
12272TIP3    H258308   5.398   5.052  12.072  0.2243  0.3127  1.3886
12273TIP3   OH258309   2.393   3.873   0.118  0.0515  0.3252 -0.0997
12273TIP3    H158310   2.472   3.826   0.144 -1.8685 -3.1533 -0.3363
12273TIP3    H258311   2.386   3.945   0.180  3.3933  0.7171 -0.0993
12274TIP3   OH258312   3.487   3.320  13.868 -0.5845 -0.2261 -0.3013
12274TIP3    H158313   3.553   3.306  13.935 -0.8018  1.4014  0.2755
12274TIP3    H258314   3.495   3.244  13.809  2.0200  0.1440 -0.4475
12275TIP3   OH258315   6.792   5.840  13.451  0.4114  0.4852 -0.3327
12275TIP3    H158316   6.730   5.777  13.416 -0.4502  1.2043 -0.1407
12275TIP3    H258317   6.776   5.920  13.400 -0.6574  1.4550  1.4605
12276TIP3   OH258318   6.815   2.505  11.121  0.0915 -0.2493  0.5572
12276TIP3    H158319   6.787   2.559  11.195 -0.4984  0.1843  0.0271
12276TIP3    H258320   6.759   2.534  11.049  0.6280 -0.7047 -0.0391
12277TIP3   OH258321   1.659   5.841   0.101  0.1375  0.0146  0.1163
12277TIP3    H158322   1.616   5.757   0.121 -0.5937  0.4209  0.2559
12277TIP3    H258323   1.696   5.869   0.185  0.0193  0.0358  0.1618
12278TIP3   OH258324   2.007   2.539   3.395 -0.1615 -0.0275  0.8656
12278TIP3    H158325   2.052   2.612   3.353 -1.9567  0.5973 -0.0553
12278TIP3    H258326   2.077   2.481   3.424  1.2631  1.5235  0.6393
12279TIP3   OH258327   3.731   6.766  13.669  0.0184  0.4255 -0.5069
12279TIP3    H158328   3.655   6.732  13.622 -0.5236  0.0164  0.6524
12279TIP3    H258329   3.751   6.699  13.734 -0.0309  1.5524  0.7004
12280TIP3   OH258330   4.169   3.240  13.004 -0.0288 -0.1340  0.2223
12280TIP3    H158331   4.251   3.228  12.955 -0.5963  0.4370 -0.8778
12280TIP3    H258332   4.159   3.334  13.011 -0.8222 -0.2001 -0.0255
12281TIP3   OH258333   1.787   5.380   0.886  0.3278  0.5955 -0.1799
12281TIP3    H158334   1.813   5.415   0.971 -0.0755  1.3396 -0.3607
12281TIP3    H258335   1.700   5.416   0.871  0.2139  0.1078 -0.7092
12282TIP3   OH258336   6.337   3.776   4.163 -0.5387 -0.0598 -0.1323
12282TIP3    H158337   6.422   3.816   4.144 -0.3753 -0.2071  0.2962
12282TIP3    H258338   6.289   3.783   4.080 -0.3298  0.5627 -0.2078
12283TIP3   OH258339   1.251   2.257  11.545  0.4006 -0.3178  1.2632
12283TIP3    H158340   1.201   2.230  11.467 -0.3624 -2.3026  2.4036
12283TIP3    H258341   1.342   2.251  11.518  0.1312 -0.7178  0.4068
12284TIP3   OH258342   0.339   1.735   3.382  0.3286  0.1253 -0.8213
12284TIP3    H158343   0.364   1.827   3.387 -1.8116  0.6225  1.3744
12284TIP3    H258344   0.400   1.691   3.442  0.7787  0.2218 -1.2023
12285TIP3   OH258345   6.251   1.845   4.174  0.1690  0.3293  0.3876
12285TIP3    H158346   6.335   1.878   4.141  0.3403 -1.4659 -1.0219
12285TIP3    H258347   6.255   1.862   4.268  1.6210  1.3166  0.1850
12286TIP3   OH258348   3.685   0.693  12.823 -0.0475 -0.4808 -0.3650
12286TIP3    H158349   3.603   0.709  12.777 -1.2733 -0.2552  1.8647
12286TIP3    H258350   3.727   0.779  12.827 -1.6642  0.2389  2.1544
12287TIP3   OH258351   3.959   1.871  14.416  0.4415  0.2335  0.1142
12287TIP3    H158352   4.014   1.893  14.491  2.1491 -0.9326 -0.7545
12287TIP3    H258353   3.881   1.925  14.426  0.8766  0.4599  2.4460
12288TIP3   OH258354   2.950   2.658  13.869  0.1099 -0.7099 -0.3599
12288TIP3    H158355   3.013   2.587  13.882  1.1465  0.3059  0.2922
12288TIP3    H258356   2.967   2.718  13.941  0.1873  0.8965 -1.6971
12289TIP3   OH258357   0.969   2.655  12.574  0.1700  0.2280  0.4324
12289TIP3    H158358   0.938   2.591  12.509  0.2661  1.0316 -0.4127
12289TIP3    H258359   0.981   2.736  12.524  0.2689  0.8479  1.4536
12290TIP3   OH258360   6.464   6.225  16.332 -0.1270  0.4957 -0.0248
12290TIP3    H158361   6.461   6.202  16.425  1.6739  0.0890 -0.0413
12290TIP3    H258362   6.436   6.145  16.287  2.0549 -0.3638  0.0757
12291TIP3   OH258363   5.508   3.544  16.721 -0.3529  0.0025 -0.1234
12291TIP3    H158364   5.516   3.504  16.634  1.1970 -1.2772  0.5748
12291TIP3    H258365   5.530   3.473  16.782 -0.5958  1.1095  1.2858
12292TIP3   OH258366   5.354   1.082  12.412  0.1035  0.0885  0.0897
12292TIP3    H158367   5.387   1.091  12.502  0.2473 -2.0003  0.2754
12292TIP3    H258368   5.259   1.090  12.421  0.1139 -0.1587  0.4435
12293TIP3   OH258369   2.228   5.155  14.091 -0.9544 -0.9280  0.3104
12293TIP3    H158370   2.179   5.147  14.009 -0.9605  1.8316  0.0036
12293TIP3    H258371   2.294   5.085  14.087  1.0116  1.0170 -3.4654
12294TIP3   OH258372   2.106   0.955  11.695 -0.0423 -0.1786 -0.0692
12294TIP3    H158373   2.133   0.884  11.753  0.8728  0.4393  0.2724
12294TIP3    H258374   2.188   0.989  11.659 -0.4608  0.8495 -0.0690
12295TIP3   OH258375   3.645   3.001  10.907  0.2604  0.2832  0.4240
12295TIP3    H158376   3.630   2.924  10.961  0.6992  0.2246  0.4632
12295TIP3    H258377   3.715   3.049  10.951  0.3056  0.4698  0.1551
12296TIP3   OH258378   4.045   0.120  11.249  0.2935  0.0948  0.2241
12296TIP3    H158379   3.971   0.175  11.223  0.7165  0.7188  0.3095
12296TIP3    H258380   4.121   0.162  11.208  0.6136 -0.4678  0.2403
12297TIP3   OH258381   0.688   5.252  16.985  0.3648  0.4358  0.0132
12297TIP3    H158382   0.623   5.298  16.932  1.3413  0.3651 -1.2432
12297TIP3    H258383   0.688   5.162  16.952  0.5027  0.2269  0.5698
12298TIP3   OH258384   3.250   2.073   0.189  0.2280  0.1820  0.3047
12298TIP3    H158385   3.171   2.048   0.236 -0.3446 -0.6516 -1.0677
12298TIP3    H258386   3.235   2.165   0.165 -0.5651 -0.1267 -0.4107
12299TIP3   OH258387   5.778   5.665  10.820  0.4109  0.1271  0.0215
12299TIP3    H158388   5.709   5.641  10.882 -0.3442 -1.2621 -1.3252
12299TIP3    H258389   5.761   5.757  10.799 -0.4737  0.0527  0.3937
12300TIP3   OH258390   2.217   2.881  14.654  0.1365 -0.0960 -0.1485
12300TIP3    H158391   2.185   2.800  14.613  0.2676 -0.9825  1.4416
12300TIP3    H258392   2.220   2.860  14.747  2.6018  0.9234  0.0340
12301TIP3   OH258393   3.711   4.563   4.454  0.3736  0.1818  0.1730
12301TIP3    H158394   3.720   4.518   4.371  1.9725 -0.0039  0.4453
12301TIP3    H258395   3.680   4.651   4.431  1.4529  0.3446 -0.6544
12302TIP3   OH258396   5.659   2.573   5.959 -0.2332 -0.0643  0.2477
12302TIP3    H158397   5.710   2.518   6.018 -2.1017 -1.1797  0.8771
12302TIP3    H258398   5.601   2.513   5.913 -2.6329  1.3520  1.2639
12303TIP3   OH258399   3.429   3.875  16.077  0.2304  0.0090  0.2276
12303TIP3    H158400   3.512   3.923  16.080  0.8288 -0.9160 -1.1836
12303TIP3    H258401   3.363   3.943  16.061  0.7292  0.7096  1.0434
12304TIP3   OH258402   0.217   6.188   1.837  0.0903 -0.3466  0.7261
12304TIP3    H158403   0.201   6.206   1.745 -0.6165  1.7235  1.2228
12304TIP3    H258404   0.259   6.102   1.838  0.1375 -0.3740 -1.5124
12305TIP3   OH258405   6.511   5.064   1.296 -0.0675  0.5515  0.2056
12305TIP3    H158406   6.436   5.029   1.247 -0.4734 -0.4897  1.5034
12305TIP3    H258407   6.576   5.084   1.230 -0.9027 -0.0592 -0.8254
12306TIP3   OH258408   5.377   6.169   5.948  0.1899  0.3471  0.1609
12306TIP3    H158409   5.452   6.225   5.968 -1.0400  2.1878 -0.2921
12306TIP3    H258410   5.312   6.192   6.014 -0.8146  0.4247 -0.8395
12307TIP3   OH258411   2.338   5.800   0.228  0.4030 -0.5034  0.0533
12307TIP3    H158412   2.417   5.763   0.189  1.0634  1.0709 -0.1381
12307TIP3    H258413   2.285   5.828   0.153  0.6212  0.3873  0.2301
12308TIP3   OH258414   0.745   3.888   5.537  0.2272  0.4029  0.2297
12308TIP3    H158415   0.791   3.895   5.621  0.0548 -1.3091  0.5000
12308TIP3    H258416   0.657   3.858   5.560 -0.5533  2.1917 -0.4019
12309TIP3   OH258417   1.040   3.191   3.639 -0.1257  0.5555  0.5406
12309TIP3    H158418   1.074   3.133   3.708  0.0713 -0.8362 -0.7050
12309TIP3    H258419   0.952   3.215   3.669 -0.6012 -1.1971  0.6044
12310TIP3   OH258420   1.154   1.903   3.108 -0.3843 -0.4006  0.8958
12310TIP3    H158421   1.162   1.968   3.178 -0.9216  0.1521  0.4463
12310TIP3    H258422   1.074   1.856   3.128 -1.2198  0.5960 -0.0331
12311TIP3   OH258423   0.223   4.074   4.899  0.1467 -0.1013 -0.1617
12311TIP3    H158424   0.205   4.003   4.960  0.0722 -0.0671 -0.1437
12311TIP3    H258425   0.153   4.137   4.913  0.8626  0.5189  0.6326
12312TIP3   OH258426   5.022   1.158   2.596  0.0706  0.2815 -0.4647
12312TIP3    H158427   5.057   1.073   2.620 -1.7631  0.0778  1.7126
12312TIP3    H258428   4.996   1.198   2.680 -2.6972  1.3165 -1.7301
12313TIP3   OH258429   6.698   0.883   5.345  0.0965 -0.4679  0.4515
12313TIP3    H158430   6.755   0.861   5.418 -0.6545  0.2683  1.2693
12313TIP3    H258431   6.631   0.816   5.346  0.6265 -1.0163 -0.1706
12314TIP3   OH258432   6.703   1.866  13.011  0.3648 -0.4652  0.1394
12314TIP3    H158433   6.622   1.871  12.959  0.8935  0.3847 -0.6105
12314TIP3    H258434   6.710   1.773  13.036  0.6035 -1.0764 -2.1045
12315TIP3   OH258435   3.710   6.637   2.890 -0.3211  0.4934  0.0956
12315TIP3    H158436   3.620   6.648   2.922 -0.0438 -1.3061  1.5709
12315TIP3    H258437   3.711   6.550   2.850  0.9491  0.1703  0.7910
12316TIP3   OH258438   3.897   5.075   1.319 -0.0173  0.0953  0.4383
12316TIP3    H158439   3.850   5.123   1.388  1.9459  0.9986  1.1862
12316TIP3    H258440   3.917   5.142   1.253  1.1786 -0.0428  0.6469
12317TIP3   OH258441   5.129   3.582  13.447 -0.2612 -0.2841  0.3400
12317TIP3    H158442   5.070   3.613  13.378 -0.0278  0.3325  0.4161
12317TIP3    H258443   5.213   3.570  13.404  0.0862  0.8534  0.6725
12318TIP3   OH258444   3.656   1.412  13.202 -0.4981  0.1448  0.3892
12318TIP3    H158445   3.729   1.434  13.144 -1.7920  1.0779 -0.9271
12318TIP3    H258446   3.688   1.339  13.255  1.0376 -0.0901 -0.8315
12319TIP3   OH258447   1.813   3.019  17.229 -0.4498 -0.4169 -0.0357
12319TIP3    H158448   1.749   2.994  17.295  0.0881 -2.1644 -0.1264
12319TIP3    H258449   1.767   3.006  17.146 -0.5239 -0.0354 -0.0543
12320TIP3   OH258450   5.450   2.140  15.029  0.0585 -0.4245 -0.1813
12320TIP3    H158451   5.355   2.152  15.032  0.2473  1.0150  0.4552
12320TIP3    H258452   5.475   2.166  14.940 -0.1686 -1.1392 -0.4614
12321TIP3   OH258453   3.035   5.605  11.639 -0.5565  0.6497  0.0429
12321TIP3    H158454   2.962   5.554  11.602 -1.4862  1.4010  0.8121
12321TIP3    H258455   3.025   5.597  11.734  0.1548  1.0599  0.1592
12322TIP3   OH258456   4.668   2.303  17.089  0.2800  0.9828 -0.1477
12322TIP3    H158457   4.694   2.297  16.998  1.2288 -0.0339  0.1837
12322TIP3    H258458   4.585   2.255  17.094  0.3105  0.9055 -0.4315
12323TIP3   OH258459   5.643   3.930   6.334 -0.0214 -0.5580  0.6409
12323TIP3    H158460   5.726   3.939   6.288 -0.0351 -1.5459  0.4002
12323TIP3    H258461   5.663   3.874   6.409 -0.2866 -0.0794  1.0735
12324TIP3   OH258462   2.092   5.321  12.400  0.4348  0.8443 -0.3815
12324TIP3    H158463   2.034   5.245  12.398  0.4658  0.8237 -0.5796
12324TIP3    H258464   2.043   5.390  12.356  0.2778  1.0336  0.0966
12325TIP3   OH258465   5.731   4.310  16.328  0.1487 -0.0865 -0.1012
12325TIP3    H158466   5.808   4.346  16.373  0.7843 -1.3248 -0.1716
12325TIP3    H258467   5.696   4.246  16.390 -1.0855  0.7752  0.1034
12326TIP3   OH258468   4.663   6.437   1.101  0.3721  0.4243 -0.3243
12326TIP3    H158469   4.680   6.359   1.154  1.5943  1.6632  1.1370
12326TIP3    H258470   4.744   6.488   1.107 -1.0840  2.6817  0.2282
12327TIP3   OH258471   2.391   4.153  14.709  0.0419  0.0033  0.1049
12327TIP3    H158472   2.420   4.115  14.792  0.4996  1.3174  0.5587
12327TIP3    H258473   2.327   4.091  14.675  1.3263 -1.5529  0.4577
12328TIP3   OH258474   2.057   5.441   6.447  0.4556 -0.8529  0.1185
12328TIP3    H158475   1.992   5.511   6.453  0.2103 -0.9069 -1.6223
12328TIP3    H258476   2.141   5.487   6.447  0.2778 -0.4873 -1.6734
12329TIP3   OH258477   0.023   3.499   4.617  0.1230  0.2919  0.1107
12329TIP3    H158478  -0.009   3.442   4.547  1.0130  0.8302 -0.7370
12329TIP3    H258479  -0.040   3.485   4.689 -1.5203  0.6738 -1.2191
12330TIP3   OH258480   4.792   6.378  17.019  0.2585  0.4680  0.2862
12330TIP3    H158481   4.846   6.421  16.953  0.6883 -0.0455  0.2963
12330TIP3    H258482   4.742   6.449  17.059  1.8650  1.1370  1.1526
12331TIP3   OH258483   3.167   5.963   3.610 -0.8167 -0.4341  0.5942
12331TIP3    H158484   3.127   6.050   3.603  0.4732  0.0743 -0.9823
12331TIP3    H258485   3.122   5.911   3.544  0.5331 -0.0769 -0.6366
12332TIP3   OH258486   0.578   2.214  12.042  0.4954  0.4292  0.0578
12332TIP3    H158487   0.634   2.280  12.000  1.3511 -1.0576 -1.1664
12332TIP3    H258488   0.619   2.197  12.126  1.1720  0.2841 -0.3019
12333TIP3   OH258489   3.252   2.200   4.694 -1.1172 -0.4390 -0.6918
12333TIP3    H158490   3.248   2.130   4.759 -1.6762  0.7523  0.5607
12333TIP3    H258491   3.256   2.153   4.610 -1.3392 -1.9749  0.1253
12334TIP3   OH258492   2.835   3.753   1.224 -0.0664  0.0539 -0.3327
12334TIP3    H158493   2.914   3.718   1.266 -0.2487  1.5841  1.3415
12334TIP3    H258494   2.868   3.802   1.148  0.8232  2.4589  1.5383
12335TIP3   OH258495   3.987   0.960   0.679 -0.4646  0.1879  0.4621
12335TIP3    H158496   3.906   0.911   0.697  0.1463 -1.0434 -0.0589
12335TIP3    H258497   4.042   0.946   0.756 -0.2262 -0.0816  0.2436
12336TIP3   OH258498   6.136   0.275  11.993 -0.9543 -0.1136 -0.2319
12336TIP3    H158499   6.195   0.201  12.010 -1.2269 -0.6105 -1.3850
12336TIP3    H258500   6.166   0.311  11.909 -0.6927  1.2174  0.4308
12337TIP3   OH258501   6.276   4.880   5.811 -0.3348 -0.4639 -1.2425
12337TIP3    H158502   6.204   4.937   5.839 -0.5750 -0.9904 -0.7820
12337TIP3    H258503   6.348   4.902   5.869 -0.6654 -1.1724 -0.5665
12338TIP3   OH258504   1.382   2.956   0.827  0.6043  1.1911 -0.0156
12338TIP3    H158505   1.313   2.894   0.852  0.9627  1.4602  1.6744
12338TIP3    H258506   1.446   2.902   0.779  0.0871  0.6009 -0.0582
12339TIP3   OH258507   2.876   1.661  14.997  0.3053 -0.1569 -0.1822
12339TIP3    H158508   2.799   1.713  15.018  1.1470  1.3317 -0.6512
12339TIP3    H258509   2.945   1.695  15.054  0.9972 -0.4198 -0.8450
12340TIP3   OH258510   4.055   6.481  16.290  0.3616  0.2679  0.1484
12340TIP3    H158511   4.132   6.463  16.237 -0.1522  1.2852 -0.9662
12340TIP3    H258512   4.074   6.564  16.333  0.6489 -0.4004  1.3425
12341TIP3   OH258513   5.822   6.184   3.582 -0.2057  0.3905 -0.1355
12341TIP3    H158514   5.885   6.199   3.653 -0.3697 -1.2468  0.3948
12341TIP3    H258515   5.865   6.119   3.526 -0.3334  1.2365 -1.2080
12342TIP3   OH258516   5.057   1.379   4.718  0.1809 -0.2717  0.7110
12342TIP3    H158517   5.081   1.425   4.799  1.2200 -0.5651  0.5734
12342TIP3    H258518   5.097   1.293   4.726 -0.9157 -0.8048  0.5084
12343TIP3   OH258519   5.849   6.206  13.274 -0.1716  0.4726 -0.0996
12343TIP3    H158520   5.817   6.146  13.206 -0.2780  0.3717  0.0395
12343TIP3    H258521   5.821   6.166  13.356  1.6222 -0.3937  0.1151
12344TIP3   OH258522   0.166   3.417  16.623 -0.2213  0.2958 -0.4800
12344TIP3    H158523   0.172   3.413  16.528 -1.2979 -0.0189 -0.5531
12344TIP3    H258524   0.090   3.473  16.640  0.9970  1.7538  0.2248
12345TIP3   OH258525   4.207   3.142  14.561  0.1166  0.2825 -0.1452
12345TIP3    H158526   4.233   3.193  14.638 -1.1066  1.1987 -0.3253
12345TIP3    H258527   4.142   3.196  14.517 -0.4966 -1.0186 -0.8737
12346TIP3   OH258528   4.123   0.709   1.872  0.0960  0.2420 -0.5119
12346TIP3    H158529   4.197   0.759   1.837 -0.6201  0.5409 -1.6463
12346TIP3    H258530   4.146   0.618   1.854  0.6729  0.2592  0.1109
12347TIP3   OH258531   4.053   3.998   5.718 -0.2067  0.0933  0.1142
12347TIP3    H158532   4.001   3.918   5.734  1.0528 -0.7410  0.0723
12347TIP3    H258533   4.143   3.971   5.734  0.3946  1.0880 -1.5622
12348TIP3   OH258534   4.936   5.111   4.439 -0.3280  0.0053 -0.1969
12348TIP3    H158535   5.018   5.064   4.457  0.4164  1.2308 -0.3618
12348TIP3    H258536   4.964   5.193   4.397 -1.6016  0.7762  0.4469
12349TIP3   OH258537   3.848   6.541   1.237  0.0347  0.5251  0.6911
12349TIP3    H158538   3.812   6.630   1.244  1.2056  1.4230 -3.2377
12349TIP3    H258539   3.938   6.549   1.270 -0.2308  0.5175  1.4247
12350TIP3   OH258540   6.171   2.600   2.654  0.2994  0.4219  0.1467
12350TIP3    H158541   6.192   2.508   2.639  0.3750  0.7805 -2.0595
12350TIP3    H258542   6.078   2.607   2.634  0.2617  0.7966  0.4516
12351TIP3   OH258543   0.236   3.507  16.884  0.7419 -0.0600 -0.1856
12351TIP3    H158544   0.212   3.599  16.879 -0.4378 -0.3860 -0.6927
12351TIP3    H258545   0.230   3.475  16.794  0.7155 -0.7399  0.0515
12352TIP3   OH258546   4.959   1.408  12.433 -0.4072 -0.7978  0.6062
12352TIP3    H158547   4.913   1.454  12.504 -0.8786 -0.4128  0.0669
12352TIP3    H258548   4.903   1.422  12.356 -0.3279 -1.9106  0.3371
12353TIP3   OH258549   2.846   2.146   2.556  0.2563  0.0713 -0.0012
12353TIP3    H158550   2.907   2.219   2.560  0.4657 -0.1686  1.4998
12353TIP3    H258551   2.762   2.184   2.584 -0.3769  0.4642 -2.3061
12354TIP3   OH258552   5.193   1.759  16.822  0.3021  0.2785 -0.0215
12354TIP3    H158553   5.098   1.752  16.833  0.5386 -1.5656  1.0262
12354TIP3    H258554   5.220   1.672  16.793  1.5000  1.1994 -1.7599
12355TIP3   OH258555   1.201   5.100  12.101  0.2394 -0.5097  0.2262
12355TIP3    H158556   1.158   5.049  12.170  1.0407 -0.4078  0.8142
12355TIP3    H258557   1.271   5.147  12.146  0.4937 -0.0990 -0.5848
12356TIP3   OH258558   2.614   2.916   1.638 -0.6478  0.2834  0.4739
12356TIP3    H158559   2.631   2.952   1.551  0.5800 -0.6964  0.3085
12356TIP3    H258560   2.549   2.848   1.623 -3.5224  2.8095  0.8768
12357TIP3   OH258561   4.617   5.762  11.846 -0.7339  0.3486  0.6151
12357TIP3    H158562   4.539   5.809  11.815 -0.3805  1.0610  0.8001
12357TIP3    H258563   4.594   5.669  11.838 -1.4895  0.5544  0.3821
12358TIP3   OH258564   5.628   3.317   1.996  0.4930 -0.5964  1.0287
12358TIP3    H158565   5.621   3.405   2.034  0.3696 -0.0240 -0.2973
12358TIP3    H258566   5.593   3.326   1.907  0.1312 -2.0728  1.0065
12359TIP3   OH258567   3.205   3.680  13.431 -0.5388  0.4264 -0.0608
12359TIP3    H158568   3.241   3.603  13.388 -0.7970  0.5952 -0.5847
12359TIP3    H258569   3.278   3.742  13.433  0.5647 -0.8515  3.0051
12360TIP3   OH258570   5.856   0.434  12.900 -0.0652 -0.6427  0.1447
12360TIP3    H158571   5.783   0.495  12.904  0.8738  0.3954  2.2835
12360TIP3    H258572   5.930   0.486  12.869  0.3652 -1.0934  0.4040
12361TIP3   OH258573   5.190   6.109  15.067  0.3076  0.1331 -0.3803
12361TIP3    H158574   5.112   6.151  15.031  0.1087  0.1991  0.1240
12361TIP3    H258575   5.257   6.178  15.068 -0.5650  0.9949  2.2472
12362TIP3   OH258576   5.442   0.131   4.086 -0.1001 -0.3164 -1.0809
12362TIP3    H158577   5.530   0.129   4.124  0.2386 -1.7563 -1.9028
12362TIP3    H258578   5.435   0.049   4.037 -2.1137 -0.4783 -0.5529
12363TIP3   OH258579   3.164   0.624  11.442  0.4722  0.2587  0.2384
12363TIP3    H158580   3.165   0.703  11.388  0.7210  0.9706  1.2601
12363TIP3    H258581   3.218   0.647  11.518  1.3526 -1.2266  0.0819
12364TIP3   OH258582   6.123   4.406  11.708 -0.5054  0.2092 -0.3457
12364TIP3    H158583   6.052   4.363  11.757 -0.0840 -0.4019 -0.2653
12364TIP3    H258584   6.203   4.376  11.751  0.0701 -2.9077 -3.3254
12365TIP3   OH258585   4.330   3.214  13.428 -0.0649  0.1595  0.1243
12365TIP3    H158586   4.274   3.287  13.453 -2.4150 -1.5738  0.0942
12365TIP3    H258587   4.367   3.241  13.343 -2.8700  0.3203 -1.1301
12366TIP3   OH258588   0.189   1.842   4.115  0.5595 -0.3865 -0.3780
12366TIP3    H158589   0.124   1.776   4.092  0.6053 -0.2004 -1.0567
12366TIP3    H258590   0.272   1.795   4.116  0.6177 -0.2959 -1.0578
12367TIP3   OH258591   1.326   1.906  11.552  0.1619 -0.6141  0.7729
12367TIP3    H158592   1.349   1.929  11.642  1.2369 -1.5458  0.7445
12367TIP3    H258593   1.275   1.825  11.560 -0.7924 -0.0409  0.6241
12368TIP3   OH258594   6.410   5.702   1.186  0.7056 -0.2216 -0.3329
12368TIP3    H158595   6.502   5.699   1.212  0.8921 -0.9683 -1.0303
12368TIP3    H258596   6.401   5.629   1.124 -0.4613 -0.4389  0.0829
12369TIP3   OH258597   0.964   3.395   0.154  0.0397 -0.0288  0.5668
12369TIP3    H158598   0.970   3.324   0.218 -0.8634 -1.5271 -0.9734
12369TIP3    H258599   0.941   3.351   0.072  2.6026  1.6729 -1.1362
12370TIP3   OH258600   4.911   4.901  12.759 -0.2164  0.0181  0.3815
12370TIP3    H158601   4.926   4.926  12.850 -0.2417 -0.5070  0.5262
12370TIP3    H258602   4.989   4.932  12.713  2.3577 -4.4790  1.4605
12371TIP3   OH258603   6.043   2.271  12.991  0.6293 -0.3229 -0.5703
12371TIP3    H158604   5.988   2.340  12.953  3.1385  1.6722 -0.6565
12371TIP3    H258605   6.112   2.318  13.036  1.9193 -2.8071  0.0922
12372TIP3   OH258606   2.459   4.501   2.309  0.2905  0.2939  0.1911
12372TIP3    H158607   2.519   4.431   2.336  0.4805  0.2865 -0.2450
12372TIP3    H258608   2.512   4.558   2.254 -0.2354  0.0062 -0.6188
12373TIP3   OH258609   1.500   5.781  14.040 -0.2511 -0.5458  0.2096
12373TIP3    H158610   1.557   5.857  14.051 -1.8688  0.8105 -0.5052
12373TIP3    H258611   1.495   5.741  14.126  1.6006 -0.5683  0.3266
12374TIP3   OH258612   1.498   0.262   0.427 -0.2461 -0.6241  0.2005
12374TIP3    H158613   1.584   0.227   0.403  0.5484  1.7491 -0.5079
12374TIP3    H258614   1.440   0.235   0.356  0.1395 -1.3639  0.1669
12375TIP3   OH258615   1.138   5.297   2.758  0.4205 -0.0416  0.0858
12375TIP3    H158616   1.226   5.308   2.794  1.2005 -0.5460 -1.5887
12375TIP3    H258617   1.123   5.203   2.757 -0.6509  0.1036  1.5156
12376TIP3   OH258618   3.178   0.232   0.086  0.1778 -0.2887 -0.3076
12376TIP3    H158619   3.101   0.248   0.032 -0.8018  0.1376  1.1596
12376TIP3    H258620   3.217   0.153   0.051 -0.8921 -0.4588 -1.1303
12377TIP3   OH258621   1.946   3.298   4.050  0.2264  0.3028 -0.5221
12377TIP3    H158622   2.012   3.332   3.989  1.0355  0.2287  0.3001
12377TIP3    H258623   1.953   3.354   4.127 -0.3092 -0.0399 -0.2234
12378TIP3   OH258624   4.217   2.016   4.948  0.4764 -0.0309  0.0330
12378TIP3    H158625   4.229   1.929   4.986  0.1707 -0.2901 -0.4524
12378TIP3    H258626   4.146   2.004   4.884 -0.0780  0.7361  0.4981
12379TIP3   OH258627   1.460   0.852   2.764 -0.7467 -0.0575  0.2012
12379TIP3    H158628   1.484   0.819   2.850 -2.8175 -0.5181  0.6430
12379TIP3    H258629   1.367   0.873   2.772 -1.0854 -0.5645 -2.0564
12380TIP3   OH258630   0.047   0.213  12.308 -0.3354  0.1149  0.1751
12380TIP3    H158631   0.063   0.129  12.266 -1.4335 -0.0253  0.0139
12380TIP3    H258632  -0.048   0.215  12.323 -0.2827  1.1946  0.4478
12381TIP3   OH258633   2.369   6.144   2.543 -0.5147  0.3579  0.8548
12381TIP3    H158634   2.423   6.083   2.491  0.8895  3.2970 -1.2871
12381TIP3    H258635   2.406   6.139   2.631  2.9375  1.7324 -0.4005
12382TIP3   OH258636   6.664   5.616   1.207 -0.1660 -0.2762  0.1172
12382TIP3    H158637   6.725   5.689   1.206 -0.6903  0.1759  0.9167
12382TIP3    H258638   6.718   5.539   1.222  0.4789 -0.1478 -1.4531
12383TIP3   OH258639   2.521   4.664   0.420 -0.6833  0.0526 -0.2922
12383TIP3    H158640   2.474   4.733   0.374 -2.8952 -0.9974  0.3408
12383TIP3    H258641   2.533   4.699   0.509  0.4978  0.6611 -0.6834
12384TIP3   OH258642   4.743   3.550   4.886  0.1321 -0.2481  0.7575
12384TIP3    H158643   4.809   3.582   4.824 -0.3732 -0.3599  0.1473
12384TIP3    H258644   4.752   3.455   4.882 -1.7484 -0.3773 -1.2364
12385TIP3   OH258645   0.063   0.717   4.285 -0.3126  0.0791  0.0737
12385TIP3    H158646   0.151   0.716   4.247 -0.3033  0.9836  0.0760
12385TIP3    H258647   0.046   0.809   4.305 -1.1529 -0.1280  0.3251
12386TIP3   OH258648   4.859   4.687   2.958  0.4775  0.0250 -0.2107
12386TIP3    H158649   4.795   4.757   2.971  0.4706 -0.2229  1.1760
12386TIP3    H258650   4.824   4.613   3.008  0.0147 -1.2970 -2.4003
12387TIP3   OH258651   1.926   4.123  11.217  0.1898  0.2744  0.2981
12387TIP3    H158652   2.004   4.128  11.162 -0.1251  0.3279 -0.1453
12387TIP3    H258653   1.905   4.030  11.221  0.5661  0.2135  0.8236
12388TIP3   OH258654   2.659   3.061   4.668  0.5913 -0.4571  0.6184
12388TIP3    H158655   2.605   3.016   4.603  2.2860 -0.8350 -0.5679
12388TIP3    H258656   2.617   3.147   4.680 -1.5413 -1.5647  1.4384
12389TIP3   OH258657   2.579   3.943   1.487  0.4974  0.1314  0.7896
12389TIP3    H158658   2.533   4.012   1.536 -1.0006 -0.3479  0.0838
12389TIP3    H258659   2.549   3.861   1.527  1.2452 -0.1668  0.7439
12390TIP3   OH258660   5.249   1.708   0.253 -0.1497  0.0877  0.1545
12390TIP3    H158661   5.200   1.750   0.182 -1.0653  1.0129  1.3049
12390TIP3    H258662   5.270   1.780   0.313  2.0533 -0.4043  0.0190
12391TIP3   OH258663   2.033   3.658  11.614 -0.2561  0.4458  1.0583
12391TIP3    H158664   2.075   3.706  11.543 -1.1720 -1.8436 -1.1291
12391TIP3    H258665   2.102   3.604  11.651 -0.4451 -0.7210 -0.2360
12392TIP3   OH258666   6.545   5.436   3.960  0.1394 -0.9337  0.1852
12392TIP3    H158667   6.548   5.530   3.975  2.2449 -0.7966 -1.0106
12392TIP3    H258668   6.455   5.420   3.932 -0.1348  0.7629  0.0324
12393TIP3   OH258669   2.649   2.369  17.176  0.2812  0.3868  0.2885
12393TIP3    H158670   2.689   2.289  17.140 -0.1761  0.8077 -1.2061
12393TIP3    H258671   2.603   2.339  17.254  1.2448 -0.5756  0.5133
12394TIP3   OH258672   6.258   1.514  15.554 -0.1052 -0.3070  0.1453
12394TIP3    H158673   6.180   1.561  15.523 -0.1314 -0.8534 -0.6299
12394TIP3    H258674   6.332   1.566  15.523 -0.0862 -1.8007 -2.4500
12395TIP3   OH258675   4.050   6.651   4.375 -0.3045 -0.6996  0.3098
12395TIP3    H158676   4.050   6.716   4.445 -0.0198 -1.6118  1.1630
12395TIP3    H258677   4.141   6.627   4.364 -0.3107 -0.3301 -0.6044
12396TIP3   OH258678   4.696   0.914  11.632 -0.6374  0.0096  0.5709
12396TIP3    H158679   4.737   0.832  11.602 -0.5861 -0.1795  1.1412
12396TIP3    H258680   4.758   0.982  11.606 -1.2571 -0.0121 -0.9884
12397TIP3   OH258681   5.371   0.094   1.378 -0.2590 -0.1424  0.4073
12397TIP3    H158682   5.403   0.185   1.385 -0.5688  0.2044 -2.1234
12397TIP3    H258683   5.404   0.052   1.457  0.8427  1.9053  1.1058
12398TIP3   OH258684   0.717   0.367  16.020  0.4786 -0.5829  0.1878
12398TIP3    H158685   0.704   0.404  15.932  1.9978  1.7259  0.8938
12398TIP3    H258686   0.793   0.309  16.011 -0.6134 -1.9699 -0.4363
12399TIP3   OH258687   1.920   3.174   1.547 -0.0233 -0.0511  0.0729
12399TIP3    H158688   1.965   3.096   1.579 -0.2203 -0.7182 -1.2455
12399TIP3    H258689   1.990   3.230   1.515 -0.0167 -0.5092 -0.7309
12400TIP3   OH258690   3.942   1.807  14.974 -0.2839 -0.2475 -0.1904
12400TIP3    H158691   4.009   1.747  15.005 -0.3297 -0.8683 -1.2458
12400TIP3    H258692   3.949   1.803  14.878 -0.6948  0.9673 -0.2789
12401TIP3   OH258693   1.376   5.335  14.599  0.5914 -0.2372 -0.2709
12401TIP3    H158694   1.394   5.272  14.669  0.9973  1.7621  1.4915
12401TIP3    H258695   1.281   5.336  14.591  0.5466 -0.5964  0.1665
12402TIP3   OH258696   6.570   5.170  16.233  0.1463 -0.2641 -0.5137
12402TIP3    H158697   6.619   5.091  16.209  1.4737  0.6736 -0.9398
12402TIP3    H258698   6.634   5.240  16.230 -0.8969  0.7627  0.4207
12403TIP3   OH258699   3.734   1.708   5.575  1.0617  0.2477  0.7021
12403TIP3    H158700   3.681   1.669   5.645  0.0045  1.0534  0.3763
12403TIP3    H258701   3.779   1.634   5.535 -0.0129 -0.4901  0.8334
12404TIP3   OH258702   6.468   1.644   6.305 -0.2328  0.3245  0.4953
12404TIP3    H158703   6.556   1.607   6.310  0.1228  1.0035 -0.6938
12404TIP3    H258704   6.446   1.641   6.212 -1.6717 -0.3085  0.8463
12405TIP3   OH258705   2.175   6.259   4.086 -0.2131  0.6176 -0.3246
12405TIP3    H158706   2.257   6.257   4.037  0.6096  1.9672  0.9420
12405TIP3    H258707   2.191   6.322   4.157 -1.7493 -0.4330  0.9868
12406TIP3   OH258708   1.375   2.607   0.050 -0.7682  0.2949  0.4684
12406TIP3    H158709   1.295   2.610  -0.003 -0.3445 -0.7422 -0.2400
12406TIP3    H258710   1.372   2.522   0.094 -1.1457  1.1639  2.1924
12407TIP3   OH258711   2.203   5.220  16.216 -0.0536  0.0366  0.3311
12407TIP3    H158712   2.122   5.171  16.230  0.4080 -1.2086 -1.3329
12407TIP3    H258713   2.265   5.156  16.182  1.4524  1.1255  1.0025
12408TIP3   OH258714   0.736   0.529  12.179 -0.2768 -0.5048  0.0513
12408TIP3    H158715   0.794   0.478  12.123  2.8194  1.7160  1.1191
12408TIP3    H258716   0.688   0.463  12.230  1.4395 -2.3964 -0.7263
12409TIP3   OH258717   0.496   4.545  11.450 -0.7351 -0.4033 -0.8311
12409TIP3    H158718   0.493   4.456  11.415  0.8417 -0.5109 -0.7343
12409TIP3    H258719   0.409   4.559  11.487 -0.9051 -2.0197 -0.5712
12410TIP3   OH258720   4.081   2.173  15.983 -0.1250  0.8322  0.4006
12410TIP3    H158721   4.050   2.263  15.981 -0.2515  0.8191  1.5364
12410TIP3    H258722   4.063   2.139  15.895  1.3421  2.3856 -0.5299
12411TIP3   OH258723   0.847   4.584   5.731  0.2885  0.0996 -0.1427
12411TIP3    H158724   0.764   4.573   5.685 -0.6541  0.8828  1.3401
12411TIP3    H258725   0.830   4.652   5.796  1.9514 -0.0814  0.5104
12412TIP3   OH258726   6.060   2.021  16.653  0.0805  0.0249 -0.2897
12412TIP3    H158727   6.115   1.998  16.578  0.2164  0.1214 -0.2199
12412TIP3    H258728   6.114   2.000  16.730  0.1411  0.4246 -0.2234
12413TIP3   OH258729   3.877   3.801   5.532 -0.4783  0.2925 -0.2923
12413TIP3    H158730   3.840   3.882   5.569 -1.0645 -0.3813  0.6315
12413TIP3    H258731   3.883   3.742   5.607  2.1529  0.2459 -0.4946
12414TIP3   OH258732   2.236   4.755   3.629 -0.1951  0.1951  0.2516
12414TIP3    H158733   2.187   4.775   3.708  0.2982 -0.4459  0.7271
12414TIP3    H258734   2.174   4.710   3.572 -0.4728  0.4127  0.3836
12415TIP3   OH258735   1.909   2.767   4.862  0.1172  0.1940  0.4452
12415TIP3    H158736   1.977   2.771   4.929  0.6641 -1.1528 -0.0154
12415TIP3    H258737   1.887   2.675   4.855 -1.1113  0.5158 -0.0698
12416TIP3   OH258738   2.632   2.821   3.343 -0.0723 -0.5703  0.1027
12416TIP3    H158739   2.714   2.782   3.313 -1.0365 -1.0435 -1.9954
12416TIP3    H258740   2.599   2.760   3.410  1.3820 -0.2468  1.1425
12417TIP3   OH258741   0.989   2.497  14.243 -0.0986 -0.3008  0.1999
12417TIP3    H158742   0.984   2.469  14.152 -0.4435  0.3054  0.0320
12417TIP3    H258743   1.070   2.548  14.248 -1.3234  1.7389 -0.3446
12418TIP3   OH258744   0.060   3.807   5.401 -0.1810 -0.5034  0.1282
12418TIP3    H158745   0.098   3.832   5.316  1.0060 -0.4393  0.6690
12418TIP3    H258746   0.135   3.801   5.460 -0.9521 -1.0154  1.0684
12419TIP3   OH258747   4.755   3.340  14.479  0.4096  0.4065  0.3166
12419TIP3    H158748   4.836   3.323  14.528 -0.1033 -0.2738  0.9255
12419TIP3    H258749   4.783   3.342  14.387  0.9876 -0.6784  0.4589
12420TIP3   OH258750   6.288   6.110   1.979 -0.1606 -0.3234 -0.9625
12420TIP3    H158751   6.233   6.032   1.989  1.8764 -1.9900 -2.2125
12420TIP3    H258752   6.320   6.105   1.889 -0.2152  2.1591 -1.1687
12421TIP3   OH258753   1.088   5.154   2.154 -0.3451 -0.0844  0.3439
12421TIP3    H158754   1.023   5.115   2.095 -0.2187  0.1930  0.0200
12421TIP3    H258755   1.051   5.238   2.179  1.1253  1.3350 -2.0662
12422TIP3   OH258756   4.169   4.994   3.844  0.1813 -0.5762  0.5324
12422TIP3    H158757   4.261   4.974   3.864  0.5011  0.3159 -0.0093
12422TIP3    H258758   4.142   4.926   3.783  0.9490  0.0127 -0.4938
12423TIP3   OH258759   6.728   0.040  13.744  0.0184 -0.2205 -0.2329
12423TIP3    H158760   6.806   0.028  13.798 -0.3470 -0.4429  0.2520
12423TIP3    H258761   6.725  -0.038  13.688 -0.7798 -1.0272  0.9227
12424TIP3   OH258762   4.636   3.784   0.843  0.1095  0.2651 -0.1680
12424TIP3    H158763   4.600   3.717   0.786 -2.2252  0.2738  1.2276
12424TIP3    H258764   4.571   3.854   0.842  0.5074  0.7024  1.6613
12425TIP3   OH258765   3.605   0.453   2.171 -0.3118  0.1636 -0.2246
12425TIP3    H158766   3.700   0.463   2.162 -0.1218 -1.0817  0.3268
12425TIP3    H258767   3.569   0.530   2.127  0.9750  1.0716  0.2752
12426TIP3   OH258768   0.323   3.873   5.851  0.6407 -0.2944 -0.7028
12426TIP3    H158769   0.398   3.845   5.799  2.5756  1.3098  1.1173
12426TIP3    H258770   0.340   3.837   5.939 -0.9564 -0.3000 -0.3842
12427TIP3   OH258771   4.286   2.479  11.090  0.5532 -0.3980 -0.5054
12427TIP3    H158772   4.215   2.436  11.138  0.2713  0.5486 -0.0473
12427TIP3    H258773   4.240   2.536  11.028  0.9185 -1.0734 -1.3993
12428TIP3   OH258774   0.949   0.606   2.903 -0.4242 -0.2410 -0.0234
12428TIP3    H158775   0.967   0.526   2.854 -2.1035 -0.5817 -0.1049
12428TIP3    H258776   0.951   0.675   2.837  1.5429 -0.1011  0.1241
12429TIP3   OH258777   1.596   3.293   5.596  0.7209 -0.2263 -0.2951
12429TIP3    H158778   1.548   3.213   5.619  0.0156  0.3573  0.2964
12429TIP3    H258779   1.536   3.341   5.538  0.3402  0.7696  0.8937
12430TIP3   OH258780   3.135   0.899   1.022 -0.1192  0.3609  0.8720
12430TIP3    H158781   3.196   0.972   1.028  1.9421 -1.2197 -0.4075
12430TIP3    H258782   3.057   0.937   0.982  1.2655  1.6625 -0.6544
12431TIP3   OH258783   2.007   0.301  17.087 -0.0641  0.1590  0.4485
12431TIP3    H158784   1.930   0.251  17.060  0.6881 -0.2967 -0.9095
12431TIP3    H258785   2.039   0.341  17.006  1.9762 -0.8525  0.7133
12432TIP3   OH258786   0.542   5.350  16.778  0.0507 -0.4322 -0.3967
12432TIP3    H158787   0.548   5.445  16.779 -1.8797 -0.2839 -0.4217
12432TIP3    H258788   0.596   5.323  16.703  0.6700  0.6154 -0.3380
12433TIP3   OH258789   3.613   3.039  12.704 -0.7370 -0.6561  0.4955
12433TIP3    H158790   3.539   3.066  12.757 -0.1369 -0.9774  1.5127
12433TIP3    H258791   3.669   3.116  12.699  0.9219 -1.5796  3.3055
12434TIP3   OH258792   6.456   2.292   6.179  0.1832  0.3490 -0.4536
12434TIP3    H158793   6.503   2.210   6.196 -0.4438  0.1909  0.5284
12434TIP3    H258794   6.525   2.355   6.158  0.7762 -0.0683  0.2303
12435TIP3   OH258795   5.555   4.760  16.214  0.1590 -0.3132 -0.0208
12435TIP3    H158796   5.466   4.759  16.180 -0.0159 -0.3632  0.4456
12435TIP3    H258797   5.579   4.853  16.215 -0.6832 -0.1067  1.9551
12436TIP3   OH258798   2.931   2.342   3.889  0.2337  0.3540 -0.1590
12436TIP3    H158799   2.965   2.394   3.817 -0.3609 -1.2994 -1.6756
12436TIP3    H258800   2.836   2.351   3.883  0.0263 -2.2251 -1.5221
12437TIP3   OH258801   3.473   3.626  14.914  0.1808 -0.3129  0.2267
12437TIP3    H158802   3.429   3.582  14.987 -1.9270  0.6994 -0.3969
12437TIP3    H258803   3.430   3.590  14.836 -1.6513  2.8802 -0.2942
12438TIP3   OH258804   3.953   6.302   1.117  0.4343 -0.2111  0.1408
12438TIP3    H158805   3.919   6.354   1.189 -0.7071 -0.5262 -0.1677
12438TIP3    H258806   3.942   6.358   1.040  1.1398 -0.0919  0.1214
12439TIP3   OH258807   3.246   4.085  10.486 -0.4183  0.4044  0.2615
12439TIP3    H158808   3.269   4.098  10.395  0.8843 -1.2202  0.3299
12439TIP3    H258809   3.160   4.041  10.483 -0.1039 -0.1832 -0.2026
12440TIP3   OH258810   6.391   3.951  14.567  0.4534  0.6872 -0.4176
12440TIP3    H158811   6.308   3.987  14.536 -1.1104 -2.4506 -0.1357
12440TIP3    H258812   6.366   3.888  14.634  2.8906 -2.0691 -1.9850
12441TIP3   OH258813   0.344   6.410  12.831  0.2909  0.9812  0.0451
12441TIP3    H158814   0.361   6.341  12.767  0.2286  0.8770  0.1419
12441TIP3    H258815   0.385   6.379  12.912  1.3164  1.5970 -0.2217
12442TIP3   OH258816   5.431   2.819  16.817  0.3750  0.4865  0.3146
12442TIP3    H158817   5.429   2.784  16.906  3.8057  0.9137  0.6084
12442TIP3    H258818   5.502   2.772  16.774  0.0801  1.7341 -1.6158
12443TIP3   OH258819   6.294   4.856   6.091 -0.0730 -0.2127 -0.5260
12443TIP3    H158820   6.298   4.801   6.169  0.4488  0.5327 -0.0331
12443TIP3    H258821   6.200   4.870   6.077 -0.1175  1.9717  1.5995
12444TIP3   OH258822   5.474   2.680  11.387 -0.0798  0.2565 -0.6768
12444TIP3    H158823   5.500   2.655  11.299  1.4228  1.1638 -0.5078
12444TIP3    H258824   5.492   2.603  11.440  0.9888  0.4164 -0.8037
12445TIP3   OH258825   2.015   0.767  11.986 -0.7316 -0.0786 -0.7758
12445TIP3    H158826   1.936   0.742  11.938 -0.0039 -0.5046 -1.7712
12445TIP3    H258827   1.989   0.764  12.078 -2.2695  1.1396 -1.1341
12446TIP3   OH258828   1.302   1.672   5.390  0.9106 -0.6361  0.2656
12446TIP3    H158829   1.262   1.606   5.447  0.8357 -0.9475 -0.1487
12446TIP3    H258830   1.336   1.738   5.451  0.3198 -0.6769  0.6531
12447TIP3   OH258831   6.548   6.310   5.248  0.4328 -0.4143  0.5744
12447TIP3    H158832   6.596   6.367   5.190 -1.0344 -0.0327 -0.2873
12447TIP3    H258833   6.557   6.350   5.335  1.0580  0.0262  0.3078
12448TIP3   OH258834   2.159   5.047  10.728  0.4100  0.3282  0.5589
12448TIP3    H158835   2.116   5.076  10.648  0.4207  0.2883  0.5389
12448TIP3    H258836   2.122   5.102  10.797 -0.5867 -0.5391  0.7328
12449TIP3   OH258837   2.021   4.073  16.689 -0.1066 -0.8611  0.1373
12449TIP3    H158838   2.099   4.104  16.644  0.1352  0.3495  1.3558
12449TIP3    H258839   1.993   3.996  16.639  0.5725  0.0104 -1.6179
12450TIP3   OH258840   3.647   5.063   2.587  0.2449  0.7077 -0.1097
12450TIP3    H158841   3.613   5.095   2.503 -0.9345  2.0921  0.8740
12450TIP3    H258842   3.593   5.106   2.653  1.6998  0.2748  1.3983
12451TIP3   OH258843   5.779   4.845   5.644 -0.4629  0.1018  1.0161
12451TIP3    H158844   5.863   4.803   5.659 -0.4506 -0.0760  0.4550
12451TIP3    H258845   5.715   4.787   5.685 -0.4546 -0.5096  0.1646
12452TIP3   OH258846   0.622   1.421   5.410  0.4221  0.5392  0.2844
12452TIP3    H158847   0.570   1.481   5.463  1.5975  1.0400  0.8791
12452TIP3    H258848   0.660   1.477   5.342 -0.3644  0.0540 -0.5691
12453TIP3   OH258849   5.291   6.119   1.796  0.1118  0.1080  0.1168
12453TIP3    H158850   5.314   6.028   1.775  0.7464  0.5683 -1.2251
12453TIP3    H258851   5.219   6.140   1.737  0.1944  0.5895  0.1847
12454TIP3   OH258852   3.449   6.702  16.334  0.2993 -0.4028  0.4913
12454TIP3    H158853   3.359   6.726  16.313  0.3597 -0.4039  0.2387
12454TIP3    H258854   3.474   6.639  16.267  1.0148  0.7499 -0.3376
12455TIP3   OH258855   6.769   2.836   1.219  0.6712 -0.0166  0.2225
12455TIP3    H158856   6.717   2.847   1.140  1.3813 -1.3413 -0.4500
12455TIP3    H258857   6.731   2.760   1.262  2.7497 -1.7293 -0.8791
12456TIP3   OH258858   1.915   3.473   6.606  0.2166  0.6083 -0.0027
12456TIP3    H158859   1.995   3.525   6.607 -1.2055  2.8530  1.1203
12456TIP3    H258860   1.845   3.537   6.609 -1.6223 -1.3796  0.7683
12457TIP3   OH258861   2.137   3.776  11.394 -0.1563 -0.1122 -0.3867
12457TIP3    H158862   2.207   3.803  11.454  0.5818 -0.3317 -1.1477
12457TIP3    H258863   2.172   3.792  11.307 -0.0379 -2.6700 -0.8515
12458TIP3   OH258864   3.885   0.498   2.050 -0.2502 -0.4398 -0.3662
12458TIP3    H158865   3.811   0.445   2.018 -0.4178  1.8825 -4.2025
12458TIP3    H258866   3.950   0.491   1.980  1.6216  0.6427  1.2431
12459TIP3   OH258867   0.932   3.664  12.109  0.5914  0.1696  0.7853
12459TIP3    H158868   0.890   3.619  12.037  1.7261 -0.1182  0.2945
12459TIP3    H258869   0.994   3.724  12.068  0.2090  1.0590  1.4778
12460TIP3   OH258870   0.043   5.858   5.612  0.0681  0.1287 -0.3977
12460TIP3    H158871  -0.022   5.824   5.672  0.9221 -1.1573 -0.1715
12460TIP3    H258872   0.086   5.780   5.576  2.3947  0.9315  0.4804
12461TIP3   OH258873   4.934   0.063   5.830  0.2681  0.2737  0.5516
12461TIP3    H158874   4.868  -0.006   5.820  0.9284 -0.3430  0.4141
12461TIP3    H258875   4.886   0.144   5.813 -0.1690 -0.2671 -0.9229
12462TIP3   OH258876   0.323   4.276   1.584  0.0378  0.4535  0.4503
12462TIP3    H158877   0.370   4.204   1.543  0.0514  1.0845 -0.6435
12462TIP3    H258878   0.391   4.340   1.605 -0.4746  2.1334 -2.7032
12463TIP3   OH258879   0.498   5.129   1.056 -0.3928 -0.3607  0.1479
12463TIP3    H158880   0.530   5.213   1.022 -0.1665 -0.0380  1.1553
12463TIP3    H258881   0.531   5.125   1.145  0.8533 -2.2154 -0.3868
12464TIP3   OH258882   1.083   1.909  15.508 -0.3139 -1.0354  0.0527
12464TIP3    H158883   1.064   1.953  15.591 -0.0037 -1.6904  0.4754
12464TIP3    H258884   1.120   1.825  15.533 -1.7789 -1.9510 -0.7275
12465TIP3   OH258885   2.813   1.209  12.864 -0.3752 -0.3602 -0.6951
12465TIP3    H158886   2.770   1.294  12.852 -0.5033 -0.3255  0.0076
12465TIP3    H258887   2.850   1.213  12.952  0.7749 -0.5240 -1.1688
12466TIP3   OH258888   4.059   0.872  11.470 -0.2883 -0.0513 -0.0351
12466TIP3    H158889   4.010   0.878  11.552  0.1820 -0.5484  0.2771
12466TIP3    H258890   4.138   0.923  11.485 -0.3305  0.0860 -0.2733
12467TIP3   OH258891   6.066   5.055  13.320  0.1143 -0.2643 -0.1423
12467TIP3    H158892   6.110   5.069  13.236  1.3435  0.2176  0.5784
12467TIP3    H258893   6.132   5.076  13.386 -0.8213 -0.7135  0.9533
12468TIP3   OH258894   6.600   6.090  17.198  0.4431 -0.3154 -0.2604
12468TIP3    H158895   6.696   6.095  17.200  0.3825  0.6169  1.0882
12468TIP3    H258896   6.572   6.180  17.183 -0.2312 -0.4792  0.0148
12469TIP3   OH258897   0.233   5.661   2.027 -0.1640 -0.5053  0.1120
12469TIP3    H158898   0.239   5.749   1.990  0.1405 -1.2741 -1.7620
12469TIP3    H258899   0.299   5.658   2.096  0.0783  0.6175 -0.0763
12470TIP3   OH258900   1.153   4.913   0.891  0.1414  1.0231  0.1842
12470TIP3    H158901   1.232   4.864   0.914 -1.0430 -0.3805  1.3828
12470TIP3    H258902   1.185   4.993   0.850  2.1520 -0.7069 -1.7705
12471TIP3   OH258903   5.205   2.283   1.127 -0.5938 -0.2209 -0.2234
12471TIP3    H158904   5.237   2.264   1.039  1.1528  0.9164  0.1553
12471TIP3    H258905   5.277   2.260   1.185 -1.5106 -0.3749  0.8780
12472TIP3   OH258906   5.845   0.518  13.821 -0.2334 -0.8545 -0.5122
12472TIP3    H158907   5.869   0.490  13.732  1.2644 -3.3950  0.6238
12472TIP3    H258908   5.923   0.562  13.854 -0.2064 -1.3714  0.1182
12473TIP3   OH258909   3.161   0.296   2.537  0.5576  0.4034 -0.4857
12473TIP3    H158910   3.102   0.362   2.503  0.1277 -0.2675 -1.0593
12473TIP3    H258911   3.148   0.220   2.480  1.2592 -0.0750 -0.0227
12474TIP3   OH258912   4.861   0.211   5.308  0.2966 -0.1045 -0.3752
12474TIP3    H158913   4.825   0.173   5.228 -0.5835 -1.0630  0.4519
12474TIP3    H258914   4.949   0.174   5.315  0.0943 -0.6086 -0.4967
12475TIP3   OH258915   4.991   2.994   5.543  0.7807 -0.1550 -0.3576
12475TIP3    H158916   4.972   3.040   5.462  0.7674 -0.9797 -0.8212
12475TIP3    H258917   4.926   2.924   5.547  1.1323 -0.4591  0.0879
12476TIP3   OH258918   2.893   2.128  12.551  0.8509  0.0907 -0.6609
12476TIP3    H158919   2.913   2.088  12.466  3.3396 -0.8459  0.3199
12476TIP3    H258920   2.972   2.116  12.603 -1.0832 -0.5740  2.2768
12477TIP3   OH258921   0.239   0.376  11.607 -0.1871 -0.5283  0.2570
12477TIP3    H158922   0.332   0.379  11.584 -0.5494  0.1722 -1.1270
12477TIP3    H258923   0.213   0.467  11.617 -0.9366 -0.6788 -0.2550
12478TIP3   OH258924   0.473   6.699  13.221 -0.4075 -0.0337  0.8874
12478TIP3    H158925   0.550   6.705  13.277  0.1772 -0.4168  0.1208
12478TIP3    H258926   0.399   6.695  13.282  0.1353  0.8752  1.6130
12479TIP3   OH258927   0.102   1.272  11.606  0.0760 -0.1402  0.6464
12479TIP3    H158928   0.051   1.348  11.635  0.1811 -0.1326  0.8134
12479TIP3    H258929   0.087   1.206  11.674  0.6242  0.0066  0.9129
12480TIP3   OH258930   4.248   1.496  13.192  0.3303 -0.6267 -0.2954
12480TIP3    H158931   4.322   1.436  13.195  0.6826 -0.1951 -0.3884
12480TIP3    H258932   4.262   1.547  13.112  0.7594  0.5141  0.4971
12481TIP3   OH258933   0.931   2.186   0.739 -0.3118  0.0411  0.0637
12481TIP3    H158934   0.845   2.145   0.750 -0.3434  0.4680  1.5386
12481TIP3    H258935   0.981   2.155   0.815  0.6473  0.2762 -0.4693
12482TIP3   OH258936   3.078   5.397   5.585 -0.2246 -0.4048 -0.0804
12482TIP3    H158937   3.061   5.350   5.666 -1.6201 -1.0482 -0.7362
12482TIP3    H258938   3.167   5.372   5.561 -0.2467 -1.1677  0.6110
12483TIP3   OH258939   2.734   1.144   3.323  0.4047  0.6702  0.2428
12483TIP3    H158940   2.783   1.136   3.404 -0.8948 -1.4083  0.8601
12483TIP3    H258941   2.788   1.101   3.257  1.2233  1.9051  0.0921
12484TIP3   OH258942   2.315   6.759   2.778 -0.7710  0.2138 -0.3434
12484TIP3    H158943   2.348   6.693   2.839  0.1237  0.5580 -0.4583
12484TIP3    H258944   2.256   6.711   2.720  0.4528 -0.6354 -0.8960
12485TIP3   OH258945   4.180   3.648   0.369 -0.3043 -0.4412 -0.3347
12485TIP3    H158946   4.186   3.652   0.464 -0.0389 -1.0188 -0.3225
12485TIP3    H258947   4.087   3.636   0.351 -0.1928 -1.7208 -0.0893
12486TIP3   OH258948   2.220   5.061  11.153  0.0211 -0.4986  0.1883
12486TIP3    H158949   2.287   5.124  11.127  0.3005 -1.6179 -1.8355
12486TIP3    H258950   2.267   4.978  11.163 -0.9461 -1.1369 -0.5490
12487TIP3   OH258951   6.294   4.353   3.968 -0.2157  0.1800  0.5228
12487TIP3    H158952   6.367   4.291   3.974  0.4097  0.8786  0.1128
12487TIP3    H258953   6.235   4.326   4.039  0.4603 -0.3540  0.8908
12488TIP3   OH258954   5.552   1.277   0.089 -0.2934  0.4144  0.1999
12488TIP3    H158955   5.535   1.303  -0.001  3.1207 -1.1185 -1.0085
12488TIP3    H258956   5.575   1.358   0.134  0.1825  0.9045 -0.9034
12489TIP3   OH258957   4.307   6.210   4.140 -0.4658 -0.4448 -0.0825
12489TIP3    H158958   4.320   6.297   4.101 -2.5243 -0.2105 -0.3158
12489TIP3    H258959   4.272   6.228   4.227 -1.6206 -1.0160 -0.4100
12490TIP3   OH258960   6.527   1.564   0.558  0.1052  0.0936  0.3905
12490TIP3    H158961   6.437   1.573   0.529 -0.1699  0.9756  1.4711
12490TIP3    H258962   6.536   1.628   0.629  0.9758 -1.3818  1.6528
12491TIP3   OH258963   3.307   3.299   2.073 -0.9912  0.7065  0.2884
12491TIP3    H158964   3.213   3.284   2.063 -0.9490 -0.7417  1.9696
12491TIP3    H258965   3.348   3.216   2.048 -0.3007  0.5737  1.8302
12492TIP3   OH258966   5.354   0.785  16.484 -0.0815 -0.6119  0.1531
12492TIP3    H158967   5.425   0.773  16.420 -0.3315 -0.5348 -0.1348
12492TIP3    H258968   5.374   0.868  16.526  0.5042 -1.0259  0.7077
12493TIP3   OH258969   0.681   2.604  10.960 -0.0558 -0.3470  0.5388
12493TIP3    H158970   0.681   2.609  10.865  0.1658 -1.6170  0.4755
12493TIP3    H258971   0.612   2.666  10.986  0.7586  0.9645 -0.3766
12494TIP3   OH258972   0.362   0.296   4.307 -0.1130 -0.3954 -0.2045
12494TIP3    H158973   0.325   0.298   4.395  0.4854 -0.9931  0.0641
12494TIP3    H258974   0.438   0.237   4.314 -0.0695 -0.4527 -1.1157
12495TIP3   OH258975   1.813   3.999  12.860  0.4968 -0.2287 -0.2312
12495TIP3    H158976   1.778   3.929  12.806 -1.2005 -0.6534  1.3844
12495TIP3    H258977   1.747   4.068  12.856  1.7397  0.9484 -1.0836
12496TIP3   OH258978   2.465   5.902  16.501  0.1188  0.3557  0.3569
12496TIP3    H158979   2.411   5.858  16.435 -0.9958  0.4026  1.2112
12496TIP3    H258980   2.460   5.995  16.477  0.7785  0.2312 -0.2483
12497TIP3   OH258981   6.635   6.151  13.981 -0.1057 -0.3304  0.5398
12497TIP3    H158982   6.560   6.200  13.948 -1.1914 -1.1929  1.7294
12497TIP3    H258983   6.688   6.217  14.026 -0.3772  0.1880  0.1099
12498TIP3   OH258984   6.133   1.819   5.647  0.3577 -0.3406 -0.5114
12498TIP3    H158985   6.122   1.740   5.701  1.5634  0.0475  0.3378
12498TIP3    H258986   6.057   1.873   5.668  2.1213  0.9653  2.8536
12499TIP3   OH258987   5.854   3.313   5.722  0.0917  0.1403 -0.1245
12499TIP3    H158988   5.904   3.374   5.668 -2.0516  0.6467 -1.6344
12499TIP3    H258989   5.907   3.234   5.724  0.8597  0.5735 -1.8745
12500TIP3   OH258990   5.101   0.407   6.583  0.6238  0.1253 -0.0026
12500TIP3    H158991   5.185   0.387   6.541 -0.0749  0.2980 -1.4742
12500TIP3    H258992   5.096   0.503   6.582  0.2460  0.1018 -0.2287
12501TIP3   OH258993   2.711   5.926  16.033  0.0594 -0.5004 -0.4336
12501TIP3    H158994   2.683   5.866  15.965  0.2770 -0.9237 -0.1472
12501TIP3    H258995   2.796   5.893  16.062 -0.4130 -0.8138  0.6305
12502TIP3   OH258996   2.791   5.260  11.883 -0.2678 -0.7072  0.5970
12502TIP3    H158997   2.703   5.264  11.847 -0.1738  2.5549  0.5309
12502TIP3    H258998   2.848   5.252  11.807 -0.3577  0.7450  0.3571
12503TIP3   OH258999   3.974   3.756   3.088  0.1821 -0.8647 -0.8815
12503TIP3    H159000   3.941   3.691   3.027 -0.4042 -0.3328 -1.1370
12503TIP3    H259001   3.914   3.830   3.079  0.5346 -0.4933 -0.2131
12504TIP3   OH259002   5.624   0.028   2.447 -0.8288  0.4754 -0.2592
12504TIP3    H159003   5.630  -0.067   2.437  1.1835  0.2720  2.2698
12504TIP3    H259004   5.533   0.049   2.429 -1.5468 -2.0930  0.2278
12505TIP3   OH259005   4.980   0.803   0.887 -0.0541  0.1749  0.0909
12505TIP3    H159006   4.998   0.893   0.914  0.7511  0.2541 -0.6544
12505TIP3    H259007   5.047   0.785   0.820 -0.4762 -0.8267 -0.0687
12506TIP3   OH259008   5.077   0.641   2.715  0.4021  0.1836 -0.8010
12506TIP3    H159009   4.987   0.649   2.684  0.5240  2.4257 -0.6438
12506TIP3    H259010   5.068   0.627   2.809  0.2315  1.9186 -0.5417
12507TIP3   OH259011   4.479   5.841  11.326 -0.2173  0.6849 -0.5965
12507TIP3    H159012   4.496   5.824  11.234 -0.0264 -0.1545 -0.4150
12507TIP3    H259013   4.391   5.805  11.341  0.8823 -1.7777  0.1982
12508TIP3   OH259014   4.850   4.731  14.713 -0.4745  0.0446  0.3244
12508TIP3    H159015   4.792   4.763  14.645 -0.5790 -1.2594 -0.2126
12508TIP3    H259016   4.936   4.765  14.689 -0.3081 -1.2976 -1.0764
12509TIP3   OH259017   2.729   2.094  12.953  0.0030 -0.1070  0.3932
12509TIP3    H159018   2.693   2.125  13.036 -1.4472 -0.3874 -0.1188
12509TIP3    H259019   2.748   2.174  12.904  0.5596  0.0530  0.8660
12510TIP3   OH259020   3.684   2.073   3.685 -0.7681 -0.1648  0.4142
12510TIP3    H159021   3.708   2.002   3.745 -1.6717  0.4735  1.5636
12510TIP3    H259022   3.603   2.109   3.722 -0.1367  1.6901  0.0565
12511TIP3   OH259023   0.926   5.669  16.130  0.2771  0.1631  0.2853
12511TIP3    H159024   0.982   5.599  16.097  0.9164  1.0315 -0.5048
12511TIP3    H259025   0.855   5.623  16.174 -0.2794 -1.0434 -1.7734
12512TIP3   OH259026   6.080   5.870   2.037 -0.4981 -0.0615  0.0105
12512TIP3    H159027   5.990   5.895   2.017 -0.1245 -0.0032 -1.6522
12512TIP3    H259028   6.113   5.831   1.956  0.7385 -0.7521  0.8323
12513TIP3   OH259029   2.538   5.016  14.173  0.5539 -0.4638 -0.3293
12513TIP3    H159030   2.558   4.987  14.262  3.8983  1.4445 -0.3685
12513TIP3    H259031   2.597   4.964  14.118 -0.1430 -0.2761 -1.2637
12514TIP3   OH259032   1.448   0.778  14.590  0.0324  0.1050  0.1612
12514TIP3    H159033   1.387   0.851  14.577  0.1284  0.4040  1.3323
12514TIP3    H259034   1.504   0.807  14.662  0.3891 -0.9269  0.2984
12515TIP3   OH259035   5.727   5.495   5.243 -0.0219 -0.3122 -0.6721
12515TIP3    H159036   5.690   5.505   5.155 -1.2999  1.2228  0.0200
12515TIP3    H259037   5.660   5.448   5.292  0.0767  0.0890 -0.1449
12516TIP3   OH259038   3.435   6.454  11.066 -0.1868 -0.9097  0.6012
12516TIP3    H159039   3.396   6.371  11.094  1.2604 -1.8176 -0.0388
12516TIP3    H259040   3.505   6.470  11.129 -0.2123 -0.3715  0.4939
12517TIP3   OH259041   1.777   1.227  12.816 -0.6481  0.2659  0.6592
12517TIP3    H159042   1.823   1.311  12.822  0.0876 -0.0917  0.0767
12517TIP3    H259043   1.762   1.202  12.907  0.6854  0.1916  0.8704
12518TIP3   OH259044   1.660   5.525   1.666  0.3227 -0.1865 -0.3255
12518TIP3    H159045   1.616   5.504   1.583  2.8055  1.0240 -2.0200
12518TIP3    H259046   1.624   5.610   1.691  1.7856  0.9119 -1.8286
12519TIP3   OH259047   2.668   5.939   5.289 -0.2825  0.0741 -0.1672
12519TIP3    H159048   2.753   5.985   5.289 -0.9915  1.4516 -1.2427
12519TIP3    H259049   2.691   5.847   5.283  1.1638  0.3699  0.4197
12520TIP3   OH259050   1.459   5.789   5.379  0.9012 -0.0114 -0.4186
12520TIP3    H159051   1.401   5.777   5.304 -0.3768 -0.7870  0.6738
12520TIP3    H259052   1.531   5.727   5.363  0.3848 -0.5320 -0.7651
12521TIP3   OH259053   2.446   4.197   2.088  0.7665 -0.2351  0.3723
12521TIP3    H159054   2.442   4.103   2.069  1.6684 -0.6053  1.9231
12521TIP3    H259055   2.358   4.219   2.117  0.6821 -0.7068  0.4802
12522TIP3   OH259056   6.807   2.500   0.572 -0.2936  0.2263 -0.0362
12522TIP3    H159057   6.889   2.512   0.619 -0.8597  0.4517  0.8880
12522TIP3    H259058   6.799   2.578   0.518  0.6992 -0.3472 -1.0602
12523TIP3   OH259059   2.159   5.970   2.847 -0.1584 -0.2267  0.3072
12523TIP3    H159060   2.108   5.898   2.886  0.5681 -1.6398 -1.2845
12523TIP3    H259061   2.245   5.963   2.887  0.2945 -1.0673 -0.7776
12524TIP3   OH259062   5.076   4.549  16.255 -0.0383 -0.2698  0.1320
12524TIP3    H159063   5.032   4.578  16.335 -1.3090  0.1542 -0.7026
12524TIP3    H259064   5.111   4.629  16.216  1.3731 -0.5879  0.7249
12525TIP3   OH259065   5.275   4.385  11.618 -0.3145  0.0392 -0.1649
12525TIP3    H159066   5.257   4.475  11.648 -1.0354 -0.0695 -0.2525
12525TIP3    H259067   5.190   4.353  11.589  0.5090  0.5742 -3.4948
12526TIP3   OH259068   6.239   0.127   0.123 -0.5690  0.7125 -0.4335
12526TIP3    H159069   6.228   0.137   0.028 -1.7360  1.6323 -0.2086
12526TIP3    H259070   6.214   0.036   0.140 -0.1748  0.4836 -1.0253
12527TIP3   OH259071   5.678   0.881   1.436  0.0570  0.7985 -0.0161
12527TIP3    H159072   5.712   0.831   1.362  1.6678  0.8435  0.6669
12527TIP3    H259073   5.623   0.818   1.484 -0.0088  0.4231 -0.5754
12528TIP3   OH259074   2.827   4.783   1.934  0.2610 -0.9237 -0.2261
12528TIP3    H159075   2.769   4.819   1.867 -0.0655  1.1903  1.1459
12528TIP3    H259076   2.915   4.809   1.906  0.0698  0.5490  0.4914
12529TIP3   OH259077   0.929   6.770   1.285 -0.0348 -0.1859  0.5563
12529TIP3    H159078   0.996   6.745   1.221 -0.3536  0.1767  0.0764
12529TIP3    H259079   0.953   6.722   1.365  0.9842  0.2006  0.4901
12530TIP3   OH259080   4.735   5.109  12.751  1.2598 -0.2913 -0.0426
12530TIP3    H159081   4.644   5.097  12.778  1.3025 -0.9130 -0.1549
12530TIP3    H259082   4.763   5.022  12.722  2.6329 -0.6356  2.2177
12531TIP3   OH259083   1.087   5.043   4.816 -0.5425 -0.5490  0.4973
12531TIP3    H159084   1.150   5.087   4.874 -0.1373  0.1662 -0.4518
12531TIP3    H259085   1.123   4.955   4.805  0.8563  0.1602 -0.8331
12532TIP3   OH259086   0.321   1.292  16.659 -0.1852 -0.1815  0.5548
12532TIP3    H159087   0.362   1.376  16.680 -0.3173 -0.0063  0.1076
12532TIP3    H259088   0.395   1.235  16.636 -0.2886  0.4637 -1.3943
12533TIP3   OH259089   3.697   0.043  12.062  0.0485  0.2919  0.6247
12533TIP3    H159090   3.753  -0.026  12.026  0.4704  0.0498  1.7282
12533TIP3    H259091   3.759   0.107  12.098 -0.3190  1.5764 -0.9693
12534TIP3   OH259092   4.105   6.317  13.324  0.5144  0.0827  0.4780
12534TIP3    H159093   4.120   6.406  13.293 -0.3751  1.0144  2.5923
12534TIP3    H259094   4.028   6.324  13.380 -1.4960 -2.6120 -1.7935
12535TIP3   OH259095   4.363   5.382  16.979 -0.3269 -0.1817 -0.3937
12535TIP3    H159096   4.441   5.419  16.938 -1.6009  2.0427 -0.8896
12535TIP3    H259097   4.295   5.448  16.965 -1.3332 -0.2702  3.5210
12536TIP3   OH259098   2.849   3.519  12.182 -0.1648 -0.1955 -0.8618
12536TIP3    H159099   2.894   3.570  12.250  1.2883 -1.0738 -1.1328
12536TIP3    H259100   2.830   3.435  12.223 -2.7245  0.5946 -0.3599
12537TIP3   OH259101   6.156   1.125  17.155  0.1127 -0.0557  0.2444
12537TIP3    H159102   6.243   1.091  17.131 -0.0316  0.7217 -1.4769
12537TIP3    H259103   6.103   1.047  17.170  1.0352 -0.5410  1.0109
12538TIP3   OH259104   3.345   6.741   6.029  0.3099  0.0911  0.0744
12538TIP3    H159105   3.267   6.773   5.984  1.3864  1.9639 -0.5272
12538TIP3    H259106   3.360   6.805   6.099  1.4395 -0.1176  0.0346
12539TIP3   OH259107   4.687   6.673  15.550 -0.4623  0.1068  0.1835
12539TIP3    H159108   4.593   6.690  15.543 -0.2714  0.3879 -2.2085
12539TIP3    H259109   4.694   6.595  15.604 -1.9737  1.0689  1.8015
12540TIP3   OH259110   1.037   3.189   0.335 -0.0150 -0.0488 -0.1592
12540TIP3    H159111   1.048   3.099   0.305 -0.9985 -0.9769  2.0922
12540TIP3    H259112   0.968   3.183   0.401  1.6284  1.9511  1.8060
12541TIP3   OH259113   6.539   2.184   4.228  0.1574 -0.4881 -0.2747
12541TIP3    H159114   6.634   2.177   4.238  0.0864  0.1599  1.1285
12541TIP3    H259115   6.526   2.265   4.178  0.2865  0.8017  1.7155
12542TIP3   OH259116   6.059   4.012   2.506 -0.8245  0.7683 -0.0233
12542TIP3    H159117   6.130   4.010   2.442 -1.2260  0.0534 -0.4515
12542TIP3    H259118   5.998   4.078   2.472 -0.9383  0.5356 -0.2730
12543TIP3   OH259119   2.158   2.810   4.974 -0.7998 -0.1299  0.4387
12543TIP3    H159120   2.233   2.867   4.993 -1.9864  2.2845 -1.7400
12543TIP3    H259121   2.197   2.723   4.962  1.3616  0.6396  1.5490
12544TIP3   OH259122   1.903   5.816  11.781 -0.0686  0.3202 -0.0158
12544TIP3    H159123   1.899   5.794  11.874  0.7420 -4.3172 -0.9548
12544TIP3    H259124   1.996   5.826  11.762  0.0699 -2.5823 -1.0590
12545TIP3   OH259125   6.535   3.250   0.739  0.6317  0.3412 -0.1614
12545TIP3    H159126   6.568   3.208   0.659 -0.4181 -0.7659 -0.0289
12545TIP3    H259127   6.447   3.279   0.716  0.0257 -0.6682  0.8046
12546TIP3   OH259128   6.715   0.447  14.621  0.3846 -0.0089  0.8083
12546TIP3    H159129   6.777   0.503  14.668  0.5246 -0.7993  1.5731
12546TIP3    H259130   6.638   0.444  14.677  0.7118 -1.3042  1.1992
12547TIP3   OH259131   0.340   2.284  11.938  0.5177  0.2175 -0.0982
12547TIP3    H159132   0.284   2.242  12.003  1.0328 -1.7312 -0.8677
12547TIP3    H259133   0.429   2.268  11.969  0.7872 -1.1346 -1.4704
12548TIP3   OH259134   3.946   5.846   3.998  0.3654 -0.7725 -0.2172
12548TIP3    H159135   4.028   5.895   3.997  0.6957 -1.3212 -0.0265
12548TIP3    H259136   3.912   5.858   4.087 -0.0561 -0.0621 -0.4693
12549TIP3   OH259137   6.623   0.043   4.794  0.2480  0.6946  0.0748
12549TIP3    H159138   6.538   0.003   4.779  0.8929 -0.0391 -1.8627
12549TIP3    H259139   6.605   0.136   4.807 -0.7559  0.7583 -1.6400
12550TIP3   OH259140   1.541   1.865  13.893 -0.2732  0.9200 -0.1986
12550TIP3    H159141   1.491   1.942  13.920 -0.2166  1.4774 -1.6293
12550TIP3    H259142   1.475   1.807  13.855 -0.7022 -0.7967  3.0120
12551TIP3   OH259143   0.689   6.476   5.157  0.8977 -0.1416  0.0891
12551TIP3    H159144   0.697   6.381   5.161 -3.3034 -0.5536  0.4523
12551TIP3    H259145   0.709   6.506   5.246 -0.9622 -0.9926  0.8047
12552TIP3   OH259146   6.725   2.218   1.546 -0.1270 -0.3494  0.3976
12552TIP3    H159147   6.749   2.209   1.454  1.0245 -0.3104  0.6898
12552TIP3    H259148   6.755   2.306   1.570  2.3439 -1.5127  1.6240
12553TIP3   OH259149   5.060   6.013  13.499  0.2735 -0.1426  0.2875
12553TIP3    H159150   5.051   5.918  13.492  0.6365 -0.2798  1.6054
12553TIP3    H259151   4.971   6.046  13.488 -0.4794 -0.8933  3.6002
12554TIP3   OH259152   3.632   3.716  17.101 -0.3814  0.2675  0.2093
12554TIP3    H159153   3.565   3.653  17.127 -0.8070  0.0682 -1.3151
12554TIP3    H259154   3.583   3.795  17.077 -0.1645 -0.1225 -1.6341
12555TIP3   OH259155   3.569   2.661  16.169 -0.0377  0.6496  0.3651
12555TIP3    H159156   3.631   2.658  16.242 -0.8452 -0.0762  1.0293
12555TIP3    H259157   3.552   2.570  16.147  0.6904  0.8690 -1.1671
12556TIP3   OH259158   1.848   0.352   4.724 -0.2703 -0.1487  0.2131
12556TIP3    H159159   1.853   0.405   4.804  0.8692 -0.1037  0.1212
12556TIP3    H259160   1.761   0.311   4.728  0.1982 -1.0222  2.0354
12557TIP3   OH259161   1.546   0.069   2.453  0.0186  0.2452 -0.1713
12557TIP3    H159162   1.636   0.073   2.419 -0.6899  0.0686 -2.1157
12557TIP3    H259163   1.515   0.160   2.449  0.1888  0.3587  0.7921
12558TIP3   OH259164   4.774   0.736  13.459  0.1231 -0.3223 -0.1696
12558TIP3    H159165   4.710   0.807  13.469 -0.4878 -0.8410 -0.4116
12558TIP3    H259166   4.844   0.759  13.521  1.0651  1.7635 -1.9449
12559TIP3   OH259167   1.263   0.691  12.790 -0.1200 -0.1165  0.7308
12559TIP3    H159168   1.288   0.676  12.699  1.1349  0.3729  0.9909
12559TIP3    H259169   1.167   0.687  12.789 -0.3370  3.4623 -1.2412
12560TIP3   OH259170   3.982   4.582  13.524  0.1797  0.4488  0.1937
12560TIP3    H159171   3.886   4.579  13.518  0.0866  1.6365  0.9217
12560TIP3    H259172   4.011   4.510  13.468 -1.1148  0.6028 -0.7198
12561TIP3   OH259173   1.073   4.482   0.739  0.1785 -0.1649 -0.1713
12561TIP3    H159174   1.129   4.445   0.807  0.3502 -0.2047 -0.3344
12561TIP3    H259175   1.101   4.439   0.659  2.8908  2.9147 -0.9946
12562TIP3   OH259176   4.065   6.815  13.763 -0.4999  0.1807 -0.2058
12562TIP3    H159177   4.161   6.818  13.760 -0.5342  1.0413 -0.6859
12562TIP3    H259178   4.041   6.872  13.836 -0.6345 -0.3301  0.1515
12563TIP3   OH259179   2.285   0.277   0.653 -0.4061 -0.2123 -0.1376
12563TIP3    H159180   2.197   0.258   0.685 -0.4893  1.0891  0.4636
12563TIP3    H259181   2.330   0.315   0.729  0.4349 -0.1688 -0.6549
12564TIP3   OH259182   5.999   1.216  11.361  0.0879  0.5656 -0.2633
12564TIP3    H159183   6.007   1.309  11.380 -0.7807  0.5289  0.3127
12564TIP3    H259184   6.041   1.172  11.436 -0.4833  0.4721 -0.0012
12565TIP3   OH259185   3.253   4.730  16.115 -0.2525 -0.2965 -0.0670
12565TIP3    H159186   3.188   4.706  16.181 -0.5649  0.3414 -0.1437
12565TIP3    H259187   3.203   4.738  16.034 -0.2187  0.9643  0.0236
12566TIP3   OH259188   4.348   0.016   0.043  0.3492  0.1303 -0.4542
12566TIP3    H159189   4.280  -0.003   0.107 -0.8836  0.1622 -1.7119
12566TIP3    H259190   4.343   0.111   0.031 -0.3264 -0.0243 -1.5287
12567TIP3   OH259191   6.757   6.359   3.119 -0.1132 -0.0075 -0.0275
12567TIP3    H159192   6.734   6.390   3.207 -0.3580 -0.1843 -0.0274
12567TIP3    H259193   6.775   6.265   3.131  0.1957  0.0423 -0.1051
12568TIP3   OH259194   3.806   1.274  11.481 -0.1292 -0.5126 -0.3078
12568TIP3    H159195   3.842   1.248  11.566  1.5311 -2.6586 -1.6008
12568TIP3    H259196   3.876   1.326  11.441 -1.4868  1.7666  0.2021
12569TIP3   OH259197   3.732   2.001   3.961  0.3470 -0.5718  0.2297
12569TIP3    H159198   3.787   2.003   4.039  0.4055 -3.8771  0.3593
12569TIP3    H259199   3.642   2.007   3.994  0.4251 -0.6783  0.4570
12570TIP3   OH259200   1.712   2.536  12.494 -0.1920 -0.2209  0.1462
12570TIP3    H159201   1.627   2.513  12.532 -0.2785  1.5811  1.0862
12570TIP3    H259202   1.691   2.560  12.403 -0.5601 -0.6046  0.1258
12571TIP3   OH259203   0.903   0.180  15.943 -0.0291  0.0383  0.2921
12571TIP3    H159204   0.871   0.099  15.983 -2.3452  1.1498  0.8239
12571TIP3    H259205   0.887   0.167  15.849  0.6759 -0.5513  0.2437
12572TIP3   OH259206   4.739   0.691   0.238 -0.7395 -0.1693  0.5026
12572TIP3    H159207   4.819   0.741   0.254 -1.5013  0.9041  1.0179
12572TIP3    H259208   4.734   0.682   0.143 -0.3443  0.3042  0.4379
12573TIP3   OH259209   1.519   0.569  10.903 -0.6004 -0.1831  0.3772
12573TIP3    H159210   1.612   0.585  10.886 -0.7956 -0.7196 -1.3625
12573TIP3    H259211   1.509   0.580  10.997  1.2081 -0.0149  0.5676
12574TIP3   OH259212   3.533   4.333   2.439 -0.9407 -0.2308  0.5417
12574TIP3    H159213   3.565   4.350   2.527  1.5471  0.0280 -0.3821
12574TIP3    H259214   3.508   4.420   2.406 -1.4130 -0.2669  0.7895
12575TIP3   OH259215   6.694   2.955  12.841  0.6031  0.1893  0.4104
12575TIP3    H159216   6.719   2.873  12.883 -0.2387 -0.1491  0.2641
12575TIP3    H259217   6.673   3.013  12.914 -2.1428 -0.8107  0.4690
12576TIP3   OH259218   3.028   1.416   1.066  0.2664 -0.3050 -1.2201
12576TIP3    H159219   3.019   1.511   1.056 -0.5369 -0.0769  1.4570
12576TIP3    H259220   2.942   1.382   1.043  0.2325 -0.2869 -1.1219
12577TIP3   OH259221   2.516   2.440   4.942  0.1817 -0.1582 -0.2308
12577TIP3    H159222   2.519   2.483   4.856  1.4846  0.0491 -0.0875
12577TIP3    H259223   2.576   2.366   4.934 -1.0757 -1.2202 -0.0632
12578TIP3   OH259224   2.745   2.074   5.804 -0.3894  0.5109  0.5230
12578TIP3    H159225   2.754   2.085   5.899  2.5480  0.3447  0.3119
12578TIP3    H259226   2.723   1.982   5.792 -0.2988  0.4216  1.0377
12579TIP3   OH259227   6.784   4.562   1.518  0.2696 -0.6593  0.0604
12579TIP3    H159228   6.744   4.639   1.479  0.5418 -0.5740 -0.0518
12579TIP3    H259229   6.878   4.578   1.512  0.3063 -0.2613  1.5374
12580TIP3   OH259230   6.063   6.252  12.107  0.0385 -0.2266 -0.0530
12580TIP3    H159231   6.067   6.163  12.143  1.4071 -0.0239  0.3054
12580TIP3    H259232   6.088   6.309  12.179 -2.9316  0.6493  0.3566
12581TIP3   OH259233   6.495   5.204  11.407  0.4885  0.8604 -0.4109
12581TIP3    H159234   6.531   5.292  11.402 -1.2909  1.5621 -0.9558
12581TIP3    H259235   6.437   5.206  11.483 -0.4668  0.4904 -1.1296
12582TIP3   OH259236   0.403   2.897  16.935 -0.4270 -0.1266  0.2409
12582TIP3    H159237   0.382   2.980  16.977  1.1906  0.3144  0.2086
12582TIP3    H259238   0.353   2.899  16.853 -0.6001  0.6986  0.3557
12583TIP3   OH259239   3.475   1.958   5.609  0.0464  0.1933  0.2779
12583TIP3    H159240   3.494   1.972   5.702 -1.8112 -3.5943  1.3301
12583TIP3    H259241   3.379   1.956   5.604  0.0854  2.0458 -2.0508
12584TIP3   OH259242   1.271   0.482  12.026 -0.4449 -0.0731 -0.9078
12584TIP3    H159243   1.302   0.497  12.116  0.0580 -0.9896 -0.9278
12584TIP3    H259244   1.259   0.570  11.990  2.2338  0.3188 -0.9525
12585TIP3   OH259245   6.738   1.536   1.311  0.5772  0.1054  0.3222
12585TIP3    H159246   6.747   1.441   1.302 -0.1916  0.0304  0.3651
12585TIP3    H259247   6.714   1.549   1.403  1.2460  0.3833  0.4617
12586TIP3   OH259248   4.913   3.950   4.584 -0.3567 -0.0174  0.2532
12586TIP3    H159249   4.899   4.015   4.653  0.0571 -1.2944  1.5582
12586TIP3    H259250   4.949   3.874   4.630 -0.0541 -0.8724 -1.3795
12587TIP3   OH259251   0.845   4.045   3.501 -0.0260  0.5504  0.7740
12587TIP3    H159252   0.860   4.006   3.587  1.8865  0.4954  0.4288
12587TIP3    H259253   0.876   3.979   3.439 -0.9318  0.8005  0.0401
12588TIP3   OH259254   6.627   6.254  15.706 -0.0358 -0.0928 -0.1961
12588TIP3    H159255   6.617   6.176  15.651 -0.2245  0.7496 -1.3738
12588TIP3    H259256   6.652   6.323  15.645 -1.1653  1.0790  0.6396
12589TIP3   OH259257   0.577   2.114   0.623 -0.3506 -0.8891  0.4332
12589TIP3    H159258   0.506   2.111   0.687  0.2202  0.5576  1.1512
12589TIP3    H259259   0.533   2.104   0.538 -1.5535  1.0668  0.7922
12590TIP3   OH259260   0.827   3.182  14.123  0.2116 -0.3838 -0.2217
12590TIP3    H159261   0.850   3.264  14.079  1.2400 -0.7477 -0.3840
12590TIP3    H259262   0.753   3.204  14.179  0.2875  0.5853 -0.4966
12591TIP3   OH259263   6.185   0.724  13.142  0.3485  0.1618 -0.1014
12591TIP3    H159264   6.244   0.799  13.150  0.5480 -0.0203  0.1216
12591TIP3    H259265   6.215   0.662  13.208  0.8710 -0.5727 -1.0336
12592TIP3   OH259266   0.083   4.593  15.695  0.0119  0.1444 -0.3486
12592TIP3    H159267   0.040   4.514  15.726  0.3354 -0.4207 -1.3187
12592TIP3    H259268   0.174   4.585  15.725 -0.5068  1.2649  1.5710
12593TIP3   OH259269   0.494   3.187  11.999  0.8761 -0.3747 -0.1673
12593TIP3    H159270   0.437   3.120  11.961  0.8622 -0.0045 -0.8125
12593TIP3    H259271   0.556   3.138  12.054 -1.5137 -0.6109  2.4403
12594TIP3   OH259272   2.994   4.608  17.021  0.5069  0.2823 -0.7593
12594TIP3    H159273   2.976   4.516  17.040 -0.0268  0.7429  1.0127
12594TIP3    H259274   2.977   4.617  16.927 -0.6151 -1.1571 -0.7020
12595TIP3   OH259275   6.285   1.128  11.253 -0.3279 -0.1469 -0.1907
12595TIP3    H159276   6.331   1.044  11.247 -0.1967 -0.2163  1.4954
12595TIP3    H259277   6.198   1.111  11.217 -0.1317 -0.8776 -0.3224
12596TIP3   OH259278   6.069   4.607  14.822  0.1988 -0.1016 -0.2467
12596TIP3    H159279   6.121   4.612  14.902 -0.6637 -0.6929  0.3638
12596TIP3    H259280   6.085   4.518  14.788 -2.6679 -1.3636  1.5335
12597TIP3   OH259281   1.046   5.715   5.832  0.1961 -0.8217  0.6343
12597TIP3    H159282   1.056   5.639   5.775 -1.2831 -0.6975  0.1937
12597TIP3    H259283   1.040   5.789   5.772 -2.0416 -0.7557  0.8890
12598TIP3   OH259284   4.206   6.805  13.327 -0.1107 -0.3666 -0.5990
12598TIP3    H159285   4.142   6.853  13.378 -0.9251 -0.7620 -1.2315
12598TIP3    H259286   4.289   6.820  13.372 -0.1342  2.5682 -1.4217
12599TIP3   OH259287   5.401   4.232   5.671 -0.3312  0.0991  0.0298
12599TIP3    H159288   5.459   4.227   5.595 -0.6512 -0.5053 -0.1816
12599TIP3    H259289   5.424   4.314   5.714  0.4464  0.0251 -0.2411
12600TIP3   OH259290   0.272   4.975   2.802  0.0339 -0.1408 -0.1338
12600TIP3    H159291   0.249   5.012   2.717 -1.4227 -1.9888 -0.5679
12600TIP3    H259292   0.258   5.047   2.863 -2.7405  0.0738 -0.9706
12601TIP3   OH259293   6.240   6.647  16.530  0.0205 -0.2767 -0.4412
12601TIP3    H159294   6.166   6.622  16.586  0.8028 -0.0916  0.7099
12601TIP3    H259295   6.316   6.644  16.589  0.8469  0.0515 -1.4729
12602TIP3   OH259296   4.133   3.983   1.627  0.1525 -0.2818  0.3144
12602TIP3    H159297   4.080   3.931   1.687  0.2585 -0.6267  0.1124
12602TIP3    H259298   4.166   4.055   1.680 -2.0534  0.9996 -0.0140
12603TIP3   OH259299   1.766   3.249   5.169 -0.3325 -0.4444  0.0145
12603TIP3    H159300   1.784   3.327   5.116  1.1588 -0.5295  0.3918
12603TIP3    H259301   1.795   3.272   5.257  0.5558 -1.5746  0.0360
12604TIP3   OH259302   3.545   4.452  14.014 -0.2519  0.3951  0.2075
12604TIP3    H159303   3.560   4.538  13.974  0.7371  0.2130  0.1735
12604TIP3    H259304   3.509   4.471  14.101 -0.8154  0.8243 -0.1191
12605TIP3   OH259305   1.023   5.598  12.163 -0.1062  0.0799 -0.0871
12605TIP3    H159306   1.045   5.665  12.099 -1.0751 -0.7138 -1.2622
12605TIP3    H259307   1.003   5.646  12.243 -0.0720  1.1369 -0.7100
12606TIP3   OH259308   1.558   2.904   2.968  0.4472  0.5652  0.1748
12606TIP3    H159309   1.649   2.934   2.963  0.4662  0.8507  1.9946
12606TIP3    H259310   1.510   2.963   2.909  1.1354  1.6770  0.7000
12607TIP3   OH259311   3.135   4.254   4.891  0.2849  0.2357 -0.2187
12607TIP3    H159312   3.069   4.279   4.827 -1.0998  1.1363  1.5029
12607TIP3    H259313   3.218   4.273   4.848 -0.5639 -0.4743 -2.2525
12608TIP3   OH259314   3.708   2.513  14.678  0.2194  0.6671  0.2930
12608TIP3    H159315   3.751   2.595  14.653  1.3620  0.1318  0.5055
12608TIP3    H259316   3.665   2.484  14.597  2.3421 -0.0845 -0.5982
12609TIP3   OH259317   2.164   3.117   0.757  0.1430  0.2152  0.6048
12609TIP3    H159318   2.094   3.167   0.800 -0.4485 -0.1590  0.0771
12609TIP3    H259319   2.183   3.045   0.817  0.8185  0.9186  1.2485
12610TIP3   OH259320   5.268   2.322  14.481 -0.2418 -0.2605  0.1823
12610TIP3    H159321   5.342   2.353  14.429  0.2820 -0.1338  0.9914
12610TIP3    H259322   5.193   2.331  14.424  0.2653  0.2832 -0.4009
12611TIP3   OH259323   1.796   4.066   1.209  0.0910  0.1754 -0.0247
12611TIP3    H159324   1.851   4.077   1.287 -0.9121 -0.7311  0.8314
12611TIP3    H259325   1.734   3.998   1.234 -1.9352  1.7325 -0.6819
12612TIP3   OH259326   4.966   3.141   4.205 -0.4531 -0.5612 -0.4394
12612TIP3    H159327   4.958   3.061   4.257  1.5789 -1.7927 -1.9391
12612TIP3    H259328   4.957   3.212   4.268 -1.4584 -1.9697  1.0542
12613TIP3   OH259329   0.667   1.215   1.532 -0.1913 -0.9893 -0.0923
12613TIP3    H159330   0.714   1.288   1.493 -0.1170 -1.0479 -0.1119
12613TIP3    H259331   0.625   1.171   1.458  1.0365 -1.8897 -0.2663
12614TIP3   OH259332   0.748   4.801   0.828  0.4205 -0.4548 -0.3750
12614TIP3    H159333   0.811   4.768   0.764 -0.8730 -1.3832 -1.2056
12614TIP3    H259334   0.744   4.734   0.896  0.2858 -0.4251 -0.3533
12615TIP3   OH259335   1.512   6.136   2.148  0.4035 -0.2244 -0.0486
12615TIP3    H159336   1.505   6.091   2.064  1.8057 -0.4519 -0.0454
12615TIP3    H259337   1.554   6.220   2.127 -0.0471  0.0905  0.2993
12616TIP3   OH259338   5.023   2.312  14.357 -0.0889  0.2304  0.1909
12616TIP3    H159339   4.968   2.237  14.378 -0.7153  0.6508  0.0959
12616TIP3    H259340   4.964   2.388  14.366  0.3166  0.6354 -0.4851
12617TIP3   OH259341   3.713   4.705   1.779 -0.1758 -0.3896  0.2521
12617TIP3    H159342   3.797   4.731   1.815 -0.8736 -0.0153  1.6308
12617TIP3    H259343   3.728   4.615   1.748  0.9452 -0.0324 -0.2835
12618TIP3   OH259344   6.729   0.557   0.306 -0.3018 -0.2061  0.3226
12618TIP3    H159345   6.822   0.578   0.300 -0.2882 -0.8478 -2.0014
12618TIP3    H259346   6.727   0.462   0.312 -0.7734 -0.1204  1.7745
12619TIP3   OH259347   5.908   4.061   3.253  0.2166 -0.3380  0.2383
12619TIP3    H159348   5.923   4.063   3.158  0.0583 -0.0251  0.2226
12619TIP3    H259349   5.983   4.109   3.290 -1.3728  2.3337  0.0909
12620TIP3   OH259350   0.514   6.448   4.105 -0.3193  0.1735 -0.7305
12620TIP3    H159351   0.575   6.383   4.070 -1.0117 -0.7237 -0.2898
12620TIP3    H259352   0.454   6.398   4.159 -1.8836  0.9275 -1.7204
12621TIP3   OH259353   6.349   3.137   1.962  0.1611  0.3539  0.3607
12621TIP3    H159354   6.431   3.169   2.000  0.8115  0.6633 -1.2654
12621TIP3    H259355   6.332   3.197   1.890 -2.0377  0.8923  1.2951
12622TIP3   OH259356   3.565   3.612   1.018 -0.0489  0.1560  0.5390
12622TIP3    H159357   3.478   3.633   1.053 -0.1040 -0.2196  0.6348
12622TIP3    H259358   3.562   3.641   0.927 -0.2879  0.1133  0.5323
12623TIP3   OH259359   2.182   5.988  11.259  0.5718  0.2324 -0.0217
12623TIP3    H159360   2.143   5.941  11.185  1.1256 -0.9109  0.4235
12623TIP3    H259361   2.227   6.062  11.218 -2.5155  1.9417 -0.5306
12624TIP3   OH259362   1.620   4.815   0.984 -0.3767  0.4029 -0.1173
12624TIP3    H159363   1.655   4.902   0.962 -0.0143  0.3023  0.0539
12624TIP3    H259364   1.652   4.799   1.073  0.2862 -0.2840 -0.4779
12625TIP3   OH259365   5.537   2.963   5.708  0.0876  0.1782  0.0302
12625TIP3    H159366   5.508   2.876   5.734  0.9270  0.0649  0.6045
12625TIP3    H259367   5.604   2.948   5.642 -1.2379  0.4458 -1.4037
12626TIP3   OH259368   3.031   0.527  11.026 -0.1875 -0.6327 -0.4079
12626TIP3    H159369   3.007   0.529  11.119 -1.4666 -1.2750 -0.7135
12626TIP3    H259370   2.976   0.594  10.986 -0.0324 -0.7290 -0.7810
12627TIP3   OH259371   2.298   5.774  16.124  0.1413 -0.3070 -0.2869
12627TIP3    H159372   2.289   5.786  16.218  0.5661  1.0144 -0.3966
12627TIP3    H259373   2.265   5.686  16.107  1.8840 -1.3128  1.3667
12628TIP3   OH259374   6.742   0.840  15.342  0.2321  0.7270 -0.4168
12628TIP3    H159375   6.683   0.796  15.281 -0.1964  0.1791  0.3782
12628TIP3    H259376   6.816   0.780  15.351  0.4933  1.0028 -0.7234
12629TIP3   OH259377   6.798   3.394   0.814 -0.4371  0.0419 -0.2330
12629TIP3    H159378   6.844   3.325   0.767  0.3486  0.4545 -0.0786
12629TIP3    H259379   6.709   3.360   0.826  0.3215 -1.5483  1.1031
12630TIP3   OH259380   2.060   2.211   0.537 -0.7522  0.2734  0.1819
12630TIP3    H159381   1.996   2.234   0.604 -0.5520 -0.8429  0.7554
12630TIP3    H259382   2.144   2.211   0.583 -0.8349 -2.3967  0.3883
12631TIP3   OH259383   0.589   4.550  12.001 -0.0697  0.3520 -0.3387
12631TIP3    H159384   0.572   4.554  11.907  0.4662  2.5781 -0.3683
12631TIP3    H259385   0.564   4.637  12.033  0.4220 -0.1614  1.4525
12632TIP3   OH259386   1.727   4.011  16.368 -0.7285 -0.9829  0.2208
12632TIP3    H159387   1.709   4.094  16.412  0.9578 -1.9789  2.9119
12632TIP3    H259388   1.653   3.954  16.390  0.4992 -1.7363  2.5224
12633TIP3   OH259389   3.927   5.881   3.518 -0.0425  0.4415 -0.1538
12633TIP3    H159390   3.845   5.836   3.540  2.3560 -3.2819  1.7816
12633TIP3    H259391   3.938   5.946   3.588 -0.8297  0.2555  0.1507
12634TIP3   OH259392   3.767   3.178  16.800  0.1777 -0.4049 -0.3475
12634TIP3    H159393   3.804   3.194  16.886  1.2462  0.4623 -0.9557
12634TIP3    H259394   3.839   3.138  16.750 -0.0062  0.3371 -1.2225
12635TIP3   OH259395   3.286   1.182  12.919 -0.1699  0.2203  0.1660
12635TIP3    H159396   3.373   1.204  12.953 -0.2666 -0.4660  0.8539
12635TIP3    H259397   3.228   1.189  12.994 -0.3535 -1.4698  0.1980
12636TIP3   OH259398   2.384   1.092  15.577  0.2212  0.2013 -0.2480
12636TIP3    H159399   2.395   1.130  15.490  0.9566  0.9077  0.1428
12636TIP3    H259400   2.471   1.062  15.602 -0.2008 -1.0215 -0.2116
12637TIP3   OH259401   4.386   3.354  13.212 -0.9432 -0.3421 -0.0952
12637TIP3    H159402   4.465   3.327  13.165 -1.2696 -1.3177 -0.0976
12637TIP3    H259403   4.329   3.391  13.145 -1.1900 -1.2390 -0.3913
12638TIP3   OH259404   5.929   0.437  12.270  0.2422 -0.1761  0.2591
12638TIP3    H159405   6.015   0.398  12.255  0.1614 -0.4508  0.5067
12638TIP3    H259406   5.948   0.529  12.291  0.5457 -0.4628  1.2844
12639TIP3   OH259407   2.875   3.120   1.862  0.1965  0.1330 -0.6040
12639TIP3    H159408   2.822   3.042   1.848 -0.4177  1.3071 -5.7390
12639TIP3    H259409   2.887   3.157   1.775  2.5596  4.4397  1.3905
12640TIP3   OH259410   2.330   6.679  13.754  0.2344  0.3609  0.2929
12640TIP3    H159411   2.356   6.718  13.838  1.0558  0.7165 -0.1244
12640TIP3    H259412   2.272   6.607  13.778  1.0573 -0.0028  1.1975
12641TIP3   OH259413   1.027   0.080  11.940  0.2028 -0.2884  0.8585
12641TIP3    H159414   1.059   0.005  11.889  0.0190  0.8713 -0.9929
12641TIP3    H259415   1.073   0.155  11.904  0.7372  0.4411  3.0376
12642TIP3   OH259416   5.879   0.227  11.875 -0.0098 -0.2238  0.0753
12642TIP3    H159417   5.811   0.232  11.942  0.0921  0.2041  0.1529
12642TIP3    H259418   5.959   0.255  11.921  0.2012 -0.6542 -0.0307
12643TIP3   OH259419   1.154   3.425  12.426 -0.3238 -0.4778 -0.2375
12643TIP3    H159420   1.222   3.442  12.491  1.0735  0.2291 -1.8396
12643TIP3    H259421   1.166   3.493  12.360 -2.5983 -0.3553 -0.5518
12644TIP3   OH259422   1.711   1.225  14.148 -0.0299 -0.1793 -0.9068
12644TIP3    H159423   1.716   1.153  14.211 -0.2650  1.9318  1.5915
12644TIP3    H259424   1.648   1.196  14.082  0.6049 -2.6238 -0.4743
12645TIP3   OH259425   1.470   0.852   4.335 -0.9630 -0.2365  0.2012
12645TIP3    H159426   1.383   0.819   4.312 -0.7977  0.7569 -1.8863
12645TIP3    H259427   1.525   0.831   4.260 -0.6794  4.0421 -0.9263
12646TIP3   OH259428   2.865   0.681  17.144  0.6844  0.3385  0.2974
12646TIP3    H159429   2.922   0.610  17.117  0.1068 -0.0154 -0.0038
12646TIP3    H259430   2.776   0.649  17.126  0.4043  0.9866  0.5001
12647TIP3   OH259431   3.984   1.828  12.113 -0.4625 -0.3880 -0.0213
12647TIP3    H159432   3.955   1.902  12.167 -1.7285  0.5724 -1.9855
12647TIP3    H259433   3.965   1.854  12.023  2.8143 -1.4070 -1.1028
12648TIP3   OH259434   3.357   5.601   1.904 -0.3073 -0.2604  0.7734
12648TIP3    H159435   3.399   5.635   1.984 -1.0915 -0.7109  1.3798
12648TIP3    H259436   3.337   5.679   1.853  0.5673  0.0096  0.8310
12649TIP3   OH259437   4.268   3.331   5.013 -0.2196 -0.3302  0.6374
12649TIP3    H159438   4.260   3.281   5.095  0.0259 -2.1133 -0.4049
12649TIP3    H259439   4.346   3.385   5.025 -0.5267 -0.1398  1.8133
12650TIP3   OH259440   1.265   2.047   4.243 -0.0141  0.2959 -0.2952
12650TIP3    H159441   1.295   1.987   4.174  2.5157  1.6878 -0.4510
12650TIP3    H259442   1.296   2.007   4.324  0.7105  0.8138 -0.3130
12651TIP3   OH259443   0.375   2.186  14.448  0.2208  0.3640  0.1114
12651TIP3    H159444   0.311   2.157  14.383  0.7729 -2.6403  0.8102
12651TIP3    H259445   0.325   2.189  14.530 -0.1881  2.9922 -0.1820
12652TIP3   OH259446   1.030   2.196  12.166  0.0474 -0.2161  0.5448
12652TIP3    H159447   1.028   2.238  12.081  2.0316  0.0898  0.6206
12652TIP3    H259448   0.946   2.219  12.207 -0.2936  0.8479 -0.7319
12653TIP3   OH259449   2.520   0.218  16.829 -0.6223  0.0852  0.5926
12653TIP3    H159450   2.598   0.178  16.792  0.3292  0.6097  2.0138
12653TIP3    H259451   2.470   0.248  16.753  1.0524  0.6831 -0.2872
12654TIP3   OH259452   2.984   5.623   1.680 -0.0719 -0.1710  0.1772
12654TIP3    H159453   2.927   5.553   1.649  0.8849 -1.0037  0.2958
12654TIP3    H259454   3.042   5.581   1.743  1.5151  0.3997 -0.8786
12655TIP3   OH259455   2.330   1.615   1.411 -0.4214  0.7506 -0.5930
12655TIP3    H159456   2.287   1.625   1.325  0.0651 -0.1075 -0.9405
12655TIP3    H259457   2.265   1.648   1.473 -0.6100  1.8000 -1.3226
12656TIP3   OH259458   0.046   1.306  14.591 -0.1619  0.4707 -0.1032
12656TIP3    H159459   0.056   1.214  14.615 -0.5054  0.3796 -0.3082
12656TIP3    H259460   0.099   1.354  14.655 -0.5229  0.1787  0.4172
12657TIP3   OH259461   4.926   1.160  14.787 -0.0447 -0.2404 -0.1773
12657TIP3    H159462   4.993   1.207  14.738  2.0880  0.7022  3.4359
12657TIP3    H259463   4.957   1.070  14.789  0.2333 -0.1420  0.0120
12658TIP3   OH259464   4.941   2.327  15.303 -0.5458  0.1952  0.6652
12658TIP3    H159465   4.868   2.331  15.366 -1.2878  1.5692 -0.2545
12658TIP3    H259466   4.984   2.412  15.312  0.0403 -0.0442  0.1192
12659TIP3   OH259467   4.357   6.115   4.847 -0.6298  0.0902  0.5413
12659TIP3    H159468   4.286   6.087   4.905  0.2615 -0.3560  1.4241
12659TIP3    H259469   4.330   6.086   4.760 -0.4919 -2.0397  1.2018
12660TIP3   OH259470   1.028   5.548   6.578  0.3427  0.5881 -0.2530
12660TIP3    H159471   1.006   5.569   6.487  1.8874 -1.6677 -1.1924
12660TIP3    H259472   1.090   5.476   6.571 -1.1352 -1.0501  2.6615
12661TIP3   OH259473   3.921   6.318  13.697  0.2826 -0.0367  0.3210
12661TIP3    H159474   3.913   6.410  13.673  0.4678 -0.0523  0.2009
12661TIP3    H259475   3.830   6.289  13.711  0.3268  0.5187  1.7444
12662TIP3   OH259476   4.277   4.237   4.882 -0.0703  0.3601  0.1583
12662TIP3    H159477   4.294   4.328   4.857 -0.2690  0.0843 -0.9788
12662TIP3    H259478   4.204   4.243   4.944 -0.9048  0.8751 -0.8591
12663TIP3   OH259479   5.558   3.468  10.524  0.3246 -0.3630 -0.2372
12663TIP3    H159480   5.526   3.469  10.434  0.4556  0.6192 -0.2821
12663TIP3    H259481   5.612   3.389  10.530 -0.4881 -0.9665 -0.7249
12664TIP3   OH259482   3.051   6.519  15.646 -0.2820 -0.5114 -0.4448
12664TIP3    H159483   2.974   6.507  15.703 -0.5078 -0.6517 -0.7774
12664TIP3    H259484   3.109   6.577  15.696 -1.3825  1.0484 -0.9428
12665TIP3   OH259485   1.309   6.798   2.857  0.1176  0.1652 -0.3984
12665TIP3    H159486   1.367   6.838   2.923 -1.9419  1.8995  0.4021
12665TIP3    H259487   1.290   6.711   2.892  1.5311 -0.1109 -0.2590
12666TIP3   OH259488   5.236   5.111  14.152  0.3300  0.5377  0.1468
12666TIP3    H159489   5.227   5.018  14.131  0.7364  1.0065 -2.3173
12666TIP3    H259490   5.235   5.115  14.247 -2.6534 -1.6695  0.2531
12667TIP3   OH259491   5.930   2.570   4.991  0.0984  0.1183  0.2207
12667TIP3    H159492   5.970   2.653   4.968 -0.2884  0.8088  1.9327
12667TIP3    H259493   5.909   2.578   5.084 -1.0049 -1.4582  0.1421
12668TIP3   OH259494   2.197   0.135   2.264 -0.2951  0.2844  0.7500
12668TIP3    H159495   2.148   0.147   2.182 -2.6680  0.0316  2.0941
12668TIP3    H259496   2.217   0.224   2.293 -0.9153  0.4159  0.7679
12669TIP3   OH259497   3.814   1.154  16.873  0.5983  0.3236 -0.2243
12669TIP3    H159498   3.719   1.162  16.881  0.3332 -2.5861  0.2532
12669TIP3    H259499   3.842   1.237  16.836 -2.2314  0.9483 -1.1066
12670TIP3   OH259500   3.695   2.009   0.690  0.3442 -0.4597 -0.0230
12670TIP3    H159501   3.648   1.926   0.679 -2.5665  1.1008 -0.0354
12670TIP3    H259502   3.709   2.017   0.785  1.0553 -1.1947 -0.0703
12671TIP3   OH259503   6.096   2.425   1.660  0.2901 -0.3148  0.1316
12671TIP3    H159504   6.023   2.454   1.715 -0.3516 -0.5212 -0.6195
12671TIP3    H259505   6.122   2.503   1.612 -1.1962 -0.8675 -1.6135
12672TIP3   OH259506   1.283   0.195   3.221  0.4085  0.5054 -0.2046
12672TIP3    H159507   1.196   0.178   3.184  0.6857 -2.5629  0.4499
12672TIP3    H259508   1.265   0.229   3.309 -0.1279  0.4472 -0.2872
12673TIP3   OH259509   4.092   0.778   3.728  0.0047 -0.2097 -0.3237
12673TIP3    H159510   4.122   0.730   3.651  1.2109  0.2973 -0.1853
12673TIP3    H259511   4.086   0.712   3.797 -0.8250 -0.6166 -0.7759
12674TIP3   OH259512   4.653   6.284  11.548  0.4155 -0.4165 -0.2892
12674TIP3    H159513   4.688   6.373  11.559  0.1158 -0.2202 -0.9492
12674TIP3    H259514   4.729   6.232  11.522  0.1537  0.0904 -2.1364
12675TIP3   OH259515   6.417   4.240  16.042  0.1223 -0.1158  0.1922
12675TIP3    H159516   6.332   4.283  16.032 -0.1054 -0.1286  1.8307
12675TIP3    H259517   6.396   4.146  16.039  0.8034 -0.2432 -4.8880
12676TIP3   OH259518   1.817   6.568  16.707  0.1462 -0.3527  0.4423
12676TIP3    H159519   1.736   6.547  16.753 -0.7056  1.7325 -0.0599
12676TIP3    H259520   1.840   6.488  16.660 -1.3307 -1.1079  0.9971
12677TIP3   OH259521   5.775   1.431   2.378 -0.2814  0.1381  0.3087
12677TIP3    H159522   5.776   1.520   2.344 -0.7718  0.1439  0.3064
12677TIP3    H259523   5.798   1.377   2.302 -0.8897  0.1896  0.0868
12678TIP3   OH259524   5.250   4.126  14.994 -0.3051 -0.2426  0.3281
12678TIP3    H159525   5.239   4.141  15.088 -0.7714 -0.1845  0.2688
12678TIP3    H259526   5.341   4.148  14.976 -0.7908  1.9821  0.3546
12679TIP3   OH259527   0.399   3.370   1.497  0.3907 -0.0512  0.2093
12679TIP3    H159528   0.417   3.450   1.448 -1.5023 -0.8845 -1.9459
12679TIP3    H259529   0.326   3.393   1.555 -1.4100 -0.6760 -1.7547
12680TIP3   OH259530   5.879   0.534   3.594  0.2952 -0.3585 -0.2054
12680TIP3    H159531   5.825   0.477   3.540  1.7526 -0.7801 -1.2558
12680TIP3    H259532   5.955   0.481   3.618  0.8984  0.6235  0.1207
12681TIP3   OH259533   4.679   3.823   4.076  0.0711  0.4399  0.1528
12681TIP3    H159534   4.607   3.829   4.138 -0.0802  2.2861 -0.1642
12681TIP3    H259535   4.658   3.888   4.008  0.3802 -1.3133 -1.6793
12682TIP3   OH259536   1.278   3.730   3.145 -0.0095 -0.1758 -0.0018
12682TIP3    H159537   1.354   3.677   3.120  0.1349 -0.9346  2.0061
12682TIP3    H259538   1.266   3.713   3.238 -3.4610 -1.0999 -0.5472
12683TIP3   OH259539   0.297   6.657  14.502 -0.1624 -0.5573  0.1237
12683TIP3    H159540   0.224   6.598  14.518  0.1488 -1.3398 -1.2638
12683TIP3    H259541   0.303   6.711  14.581  1.4110 -4.3323  2.6966
12684TIP3   OH259542   0.000   0.893   4.758  0.4446  0.1753 -0.7391
12684TIP3    H159543   0.077   0.902   4.702  0.7270 -0.4332 -0.4524
12684TIP3    H259544   0.028   0.926   4.843 -0.0865  1.4170 -1.0268
12685TIP3   OH259545   1.007   2.727   0.576 -0.9508 -0.0656 -0.1066
12685TIP3    H159546   0.911   2.730   0.573 -0.9887 -0.2196  1.0113
12685TIP3    H259547   1.031   2.806   0.624 -0.3815  1.4509 -2.7419
12686TIP3   OH259548   2.039   4.340  13.963 -0.2173  0.3285 -0.7732
12686TIP3    H159549   1.967   4.389  14.003 -0.4341 -0.7632  0.2076
12686TIP3    H259550   2.050   4.380  13.877 -1.7212  0.7785 -0.7757
12687TIP3   OH259551   5.993   2.662   2.044 -0.3504 -0.0231 -0.4108
12687TIP3    H159552   5.990   2.738   2.103  0.7199 -0.3624  0.1001
12687TIP3    H259553   5.993   2.587   2.103 -1.9142 -0.4489 -0.9273
12688TIP3   OH259554   1.959   0.109  16.204 -0.3128  1.4125  0.0634
12688TIP3    H159555   1.894   0.086  16.271  1.8741  3.0952  2.8620
12688TIP3    H259556   1.915   0.176  16.150 -1.6908  0.8699  0.4875
12689TIP3   OH259557   2.837   6.035   3.452 -0.5465 -0.2273  0.0034
12689TIP3    H159558   2.829   6.041   3.548  0.4457 -2.1324  0.2471
12689TIP3    H259559   2.927   6.063   3.435 -0.9406  0.7639 -0.4483
12690TIP3   OH259560   1.312   5.644   5.182  0.1017 -0.2424  0.1896
12690TIP3    H159561   1.363   5.614   5.106 -0.8394 -0.5547 -0.3193
12690TIP3    H259562   1.235   5.685   5.144  0.2354  0.7185  0.9547
12691TIP3   OH259563   5.086   3.715   4.604 -0.2005 -0.2554 -0.7196
12691TIP3    H159564   5.129   3.725   4.518 -0.1994  4.6422 -0.2892
12691TIP3    H259565   5.139   3.649   4.649  2.1994 -0.0470 -3.0708
12692TIP3   OH259566   3.151   1.335  15.024 -0.6845  0.2134 -0.2121
12692TIP3    H159567   3.099   1.365  14.950  0.7033  1.8472 -0.5510
12692TIP3    H259568   3.178   1.246  14.999 -1.0031  0.3980 -1.2494
12693TIP3   OH259569   1.837   1.399   2.741 -0.1915  0.1360  0.2162
12693TIP3    H159570   1.878   1.321   2.779  0.0379  0.3866  0.4894
12693TIP3    H259571   1.787   1.437   2.813  1.0516  1.1682  0.5491
12694TIP3   OH259572   4.428   1.602   2.865  0.4827 -0.2483  0.0990
12694TIP3    H159573   4.421   1.679   2.922  0.2472  1.4788 -2.1916
12694TIP3    H259574   4.342   1.596   2.823  1.0687 -0.7017 -1.0543
12695TIP3   OH259575   1.322   4.136  12.827 -0.0142  0.0503  0.2503
12695TIP3    H159576   1.263   4.060  12.824 -0.1394  0.0672  1.6974
12695TIP3    H259577   1.362   4.131  12.914  1.2031  0.7310 -0.2594
12696TIP3   OH259578   5.005   4.326   0.757 -0.1317  0.0591  0.0593
12696TIP3    H159579   5.092   4.317   0.797  0.4859  2.1429 -0.7163
12696TIP3    H259580   5.010   4.277   0.675  0.1865 -0.1585  0.2107
12697TIP3   OH259581   5.919   5.216   2.479 -0.8328  0.2872 -0.5668
12697TIP3    H159582   5.876   5.254   2.402  0.2170  1.9638 -0.3545
12697TIP3    H259583   5.956   5.291   2.525  0.7499 -0.9452  0.2188
12698TIP3   OH259584   1.253   2.405   2.002  0.1965  0.0611 -0.0867
12698TIP3    H159585   1.192   2.455   1.947  0.3840  0.9293  0.4829
12698TIP3    H259586   1.206   2.395   2.086  0.5617  0.1326  0.1261
12699TIP3   OH259587   4.757   2.783   3.442  0.1489  0.1762  0.2593
12699TIP3    H159588   4.853   2.776   3.450  0.1565  0.1393  0.1285
12699TIP3    H259589   4.724   2.744   3.523  0.2529  0.4406  0.4313
12700TIP3   OH259590   2.317   2.611   0.736 -0.3425 -0.4810 -0.2539
12700TIP3    H159591   2.297   2.570   0.820  0.3982 -0.8612 -0.2581
12700TIP3    H259592   2.246   2.584   0.678  0.6644 -2.5802 -0.5268
12701TIP3   OH259593   4.405   0.982   1.522  0.3332 -0.3704 -0.1423
12701TIP3    H159594   4.450   1.050   1.571  0.0354  0.5512 -1.1161
12701TIP3    H259595   4.473   0.941   1.468  0.2109  0.3225 -0.8353
12702TIP3   OH259596   0.797   0.312  11.512 -0.2449  0.2021 -0.2894
12702TIP3    H159597   0.729   0.372  11.481 -0.8895  0.0029  0.7262
12702TIP3    H259598   0.778   0.299  11.605  0.8431 -0.3081 -0.1244
12703TIP3   OH259599   3.346   6.154  13.873  0.1961 -0.3507  0.4262
12703TIP3    H159600   3.267   6.206  13.859 -1.0422 -1.7895  1.9990
12703TIP3    H259601   3.342   6.085  13.806  1.6155  1.2154 -1.3675
12704TIP3   OH259602   4.573   1.285  15.767  0.1952  0.3563  0.4492
12704TIP3    H159603   4.609   1.273  15.855 -0.1804 -0.6583  0.4639
12704TIP3    H259604   4.643   1.257  15.708 -0.0284 -0.1935  0.4484
12705TIP3   OH259605   1.146   3.012   2.226  0.2110  0.0274  0.1416
12705TIP3    H159606   1.169   2.919   2.220  0.2969  0.0412  0.2445
12705TIP3    H259607   1.220   3.051   2.272 -1.2586 -0.4100  3.0235
12706TIP3   OH259608   3.655   3.163   4.347 -1.2293  0.3773  0.4914
12706TIP3    H159609   3.575   3.114   4.361 -2.3678  2.4495  1.4419
12706TIP3    H259610   3.714   3.101   4.303 -3.4277 -1.0610 -0.4883
12707TIP3   OH259611   4.365   5.249   4.702  0.3646  0.4912  0.7662
12707TIP3    H159612   4.447   5.202   4.722  0.3588  0.3206  0.4101
12707TIP3    H259613   4.390   5.310   4.632  0.4770  1.3507  1.5516
12708TIP3   OH259614   3.732   0.534  11.535  0.4126  0.4064 -0.1189
12708TIP3    H159615   3.728   0.528  11.630  1.3946  0.5329 -0.0709
12708TIP3    H259616   3.819   0.570  11.516  0.7553 -0.9010 -1.1180
12709TIP3   OH259617   2.958   3.761   5.973  0.4445 -0.5821 -1.0320
12709TIP3    H159618   2.944   3.803   5.888  2.0607 -1.7029 -1.9011
12709TIP3    H259619   2.909   3.679   5.968  0.0330 -0.3631 -0.6354
12710TIP3   OH259620   1.830   3.251   0.210  0.5716  0.0481 -0.0070
12710TIP3    H159621   1.761   3.296   0.259  1.1650  1.6816 -0.6012
12710TIP3    H259622   1.836   3.164   0.249 -0.1893  0.7067  1.6075
12711TIP3   OH259623   5.511   4.944  11.303 -0.2354 -0.1157 -0.2321
12711TIP3    H159624   5.485   4.852  11.299  1.3734 -0.5823 -0.2165
12711TIP3    H259625   5.591   4.944  11.356  0.2894  1.1830 -1.0031
12712TIP3   OH259626   4.132   1.363  11.763  0.0465 -0.0099  0.1950
12712TIP3    H159627   4.187   1.439  11.744 -0.1009 -0.3885 -1.8557
12712TIP3    H259628   4.184   1.311  11.825  1.2588  0.4887 -0.3920
12713TIP3   OH259629   6.432   1.943   1.144  0.1353 -0.3399  0.0099
12713TIP3    H159630   6.518   1.904   1.127  0.3599  0.3829 -0.5323
12713TIP3    H259631   6.438   1.975   1.234 -0.8643 -3.6625  1.3487
12714TIP3   OH259632   5.519   4.825   6.112 -0.0559 -0.1297  0.3089
12714TIP3    H159633   5.517   4.753   6.050  0.5953 -0.4499  0.6427
12714TIP3    H259634   5.612   4.849   6.117 -0.3408  1.1097 -0.2284
12715TIP3   OH259635   1.248   3.917   3.853  0.1236 -0.6211  0.0583
12715TIP3    H159636   1.310   3.964   3.797 -0.7078  1.7039  1.0325
12715TIP3    H259637   1.229   3.836   3.805  1.7932 -0.1102 -1.5325
12716TIP3   OH259638   3.648   2.522   4.031  0.0142 -0.8323  0.2093
12716TIP3    H159639   3.694   2.598   3.994 -0.6099  0.5769  2.2475
12716TIP3    H259640   3.606   2.480   3.956  0.5833  0.7080 -0.9830
12717TIP3   OH259641   1.145   3.168   4.849  0.0696  0.0286  0.4371
12717TIP3    H159642   1.166   3.075   4.858  1.3349  0.2900  0.3672
12717TIP3    H259643   1.172   3.206   4.933 -0.3215  0.3519  0.4166
12718TIP3   OH259644   6.102   6.814  13.505 -0.6520 -0.3641 -0.0722
12718TIP3    H159645   6.130   6.830  13.594 -0.2507  0.4304 -0.3370
12718TIP3    H259646   6.127   6.893  13.457 -1.3400 -0.5638 -0.7718
12719TIP3   OH259647   2.805   2.730  13.302  0.0844 -0.3998  0.0067
12719TIP3    H159648   2.851   2.682  13.233 -2.3062 -0.6823 -1.4348
12719TIP3    H259649   2.840   2.819  13.296  1.5504 -0.9552 -0.0203
12720TIP3   OH259650   6.058   0.755  15.698  0.1442  0.3729 -0.0301
12720TIP3    H159651   5.983   0.722  15.748 -0.1781  0.3559 -0.5204
12720TIP3    H259652   6.040   0.729  15.608  1.9035 -1.7387  0.1827
12721TIP3   OH259653   6.548   1.679   1.010  0.4841  0.2449  0.3697
12721TIP3    H159654   6.455   1.656   1.004  0.3557  0.8534 -0.1298
12721TIP3    H259655   6.560   1.744   0.941  1.5439 -0.6726 -0.3232
12722TIP3   OH259656   5.558   3.043  14.153 -0.8229 -0.2508 -0.4312
12722TIP3    H159657   5.618   2.999  14.214 -0.8919 -0.7182 -0.6997
12722TIP3    H259658   5.472   3.035  14.195 -0.7932 -0.1304 -0.3477
12723TIP3   OH259659   3.147   0.707  14.025 -0.2600  0.1649  0.4159
12723TIP3    H159660   3.185   0.793  14.004  2.4189 -0.1336  3.5935
12723TIP3    H259661   3.066   0.728  14.071  0.7850  1.0769  1.9072
12724TIP3   OH259662   1.392   3.923  14.584  0.2047 -0.0216  0.1311
12724TIP3    H159663   1.301   3.923  14.615  0.3175 -1.8661  0.5485
12724TIP3    H259664   1.424   4.010  14.605 -0.4655 -0.4283  3.0802
12725TIP3   OH259665   6.125   1.787  12.825 -0.3984 -0.1637  0.3245
12725TIP3    H159666   6.062   1.790  12.753  0.3299  1.0128 -0.2902
12725TIP3    H259667   6.175   1.707  12.810  0.0728  0.3173 -0.7898
12726TIP3   OH259668   6.502   5.921   1.045  0.1794  0.4917  0.1812
12726TIP3    H159669   6.429   5.873   1.084 -0.7934  1.0976 -0.8821
12726TIP3    H259670   6.548   5.856   0.992  1.3210 -0.2591  2.0303
12727TIP3   OH259671   3.252   1.609   1.338  0.0641 -0.0568 -0.1040
12727TIP3    H159672   3.237   1.692   1.293 -1.5098 -1.2709 -1.9277
12727TIP3    H259673   3.324   1.569   1.290  1.6334  0.7491  1.5276
12728TIP3   OH259674   3.258   2.614  14.974  1.1001  0.0346  0.0001
12728TIP3    H159675   3.208   2.566  14.909  0.8412 -2.0189  1.6504
12728TIP3    H259676   3.349   2.588  14.959  0.9754 -0.8954  0.8052
12729TIP3   OH259677   2.575   0.567   2.706  0.0109  0.2435 -0.2476
12729TIP3    H159678   2.502   0.548   2.647 -0.3456 -0.5515  0.4482
12729TIP3    H259679   2.608   0.652   2.676 -0.5543  0.1364 -1.2027
12730TIP3   OH259680   3.727   3.584  13.320  0.0762 -0.7562 -0.0784
12730TIP3    H159681   3.659   3.627  13.268  0.2918  0.6457  0.7770
12730TIP3    H259682   3.687   3.571  13.407 -0.1686 -2.7797 -0.4523
12731TIP3   OH259683   0.951   3.108  15.049  0.2519  0.2975 -0.0340
12731TIP3    H159684   0.900   3.030  15.026 -1.5184  1.5247 -0.4676
12731TIP3    H259685   1.018   3.077  15.109 -1.6152 -1.2595  1.3259
12732TIP3   OH259686   6.743   4.968  13.242 -0.5375 -0.4038 -0.0056
12732TIP3    H159687   6.779   4.885  13.272 -0.2246 -0.1808  0.2467
12732TIP3    H259688   6.760   4.969  13.147 -3.3132 -1.9862 -0.5661
12733TIP3   OH259689   2.759   1.688   1.224  0.4419  0.6236  0.6257
12733TIP3    H159690   2.696   1.616   1.222 -1.4535  2.1994  1.8503
12733TIP3    H259691   2.818   1.667   1.296  1.5356 -1.0014 -0.7062
12734TIP3   OH259692   0.947   5.146   5.971  0.1038  0.0311  0.1972
12734TIP3    H159693   0.851   5.143   5.977  0.0513 -1.4135 -1.1801
12734TIP3    H259694   0.965   5.146   5.877  1.5301 -2.5092  0.4388
12735TIP3   OH259695   0.736   2.952   4.593 -0.1201  0.0608  0.1563
12735TIP3    H159696   0.724   3.022   4.657  1.0926 -2.0975  2.8512
12735TIP3    H259697   0.707   2.873   4.638  1.0210 -1.5569 -1.8728
12736TIP3   OH259698   6.325   1.349  14.942  0.1508 -0.2565 -0.0813
12736TIP3    H159699   6.288   1.407  15.009 -0.6284  1.3186 -1.8210
12736TIP3    H259700   6.418   1.375  14.937 -0.3052  1.2262 -1.2057
12737TIP3   OH259701   6.103   4.242   4.413  0.0521 -0.2034 -0.5206
12737TIP3    H159702   6.055   4.230   4.495  0.5044  0.2671 -0.1915
12737TIP3    H259703   6.106   4.154   4.374 -1.0469 -0.2483 -0.5321
12738TIP3   OH259704   5.740   5.606   6.045  0.1360 -0.1351  0.1078
12738TIP3    H159705   5.766   5.675   6.106  0.2748  0.2496 -0.3869
12738TIP3    H259706   5.700   5.539   6.101  1.1801 -0.2386  0.7357
12739TIP3   OH259707   0.628   6.086  12.419  0.2735  0.6595 -0.9267
12739TIP3    H159708   0.704   6.135  12.450  0.3769 -0.8358  1.3218
12739TIP3    H259709   0.556   6.148  12.421  0.8259  1.2810 -0.1595
12740TIP3   OH259710   0.081   5.833   1.802 -0.1089  0.0403 -0.3566
12740TIP3    H159711   0.021   5.854   1.731 -0.6832  2.1494  0.7194
12740TIP3    H259712   0.031   5.850   1.882  0.3666 -2.7696  0.5997
12741TIP3   OH259713   5.110   5.826   4.453 -0.7410 -0.0840 -0.6782
12741TIP3    H159714   5.136   5.889   4.386 -0.0728 -0.0555 -0.3941
12741TIP3    H259715   5.017   5.845   4.468 -0.3712  1.3329 -0.0613
12742TIP3   OH259716   5.126   3.992   1.873  0.8362 -0.1340 -0.7424
12742TIP3    H159717   5.044   4.043   1.880  1.0631  0.3902 -1.8091
12742TIP3    H259718   5.184   4.049   1.823  1.7893 -0.6057 -0.1686
12743TIP3   OH259719   1.883   5.867   1.105  0.4181  0.0774 -0.5492
12743TIP3    H159720   1.978   5.871   1.114  0.4616  1.7351 -1.4835
12743TIP3    H259721   1.866   5.783   1.061  1.2829 -1.0875  1.2938
12744TIP3   OH259722   2.838   4.840  12.571  0.0675  0.4972 -0.9758
12744TIP3    H159723   2.845   4.784  12.648 -1.2744  0.0568 -1.1583
12744TIP3    H259724   2.891   4.797  12.504 -0.1527 -0.0191 -0.8156
12745TIP3   OH259725   1.186   6.528   2.633  0.0113 -0.0453 -0.0679
12745TIP3    H159726   1.245   6.479   2.690 -0.1413  1.0237  1.0445
12745TIP3    H259727   1.243   6.574   2.572  0.1553 -1.5648 -1.1140
12746TIP3   OH259728   2.246   1.993  12.527  0.6189 -0.3592  0.0478
12746TIP3    H159729   2.317   1.972  12.588  2.3892  0.9735 -1.4937
12746TIP3    H259730   2.288   2.045  12.459 -2.7238  4.6563  1.5485
12747TIP3   OH259731   4.036   1.203   5.623 -0.1340  0.3900  0.0611
12747TIP3    H159732   4.089   1.173   5.697  2.0161  0.0933 -1.5713
12747TIP3    H259733   3.987   1.126   5.596  0.0255  0.1778  0.3687
12748TIP3   OH259734   5.976   3.441   5.253 -0.2412  0.4306 -0.1521
12748TIP3    H159735   5.964   3.472   5.163 -0.3657  0.0453 -0.2708
12748TIP3    H259736   6.049   3.380   5.248 -0.0844  0.6000  0.0563
12749TIP3   OH259737   3.189   0.900   2.656 -0.0169 -1.0571 -0.6408
12749TIP3    H159738   3.253   0.833   2.680  2.3269  1.4363  0.4151
12749TIP3    H259739   3.121   0.894   2.723 -0.6558 -3.3976 -1.4652
12750TIP3   OH259740   5.693   5.358  16.918 -0.1726  0.0574 -0.2045
12750TIP3    H159741   5.774   5.393  16.955  1.1285 -1.7831 -1.2555
12750TIP3    H259742   5.655   5.432  16.870  0.4984  1.1358  0.9065
12751TIP3   OH259743   1.403   5.374   1.554 -0.0691  0.3042 -0.0291
12751TIP3    H159744   1.380   5.358   1.646 -3.0369  2.4489 -0.3237
12751TIP3    H259745   1.353   5.308   1.505 -0.2013  0.5571 -0.2350
12752TIP3   OH259746   1.175   5.085  15.622 -0.1311  0.1827 -0.0246
12752TIP3    H159747   1.137   5.026  15.557 -0.9327 -0.2489  0.8387
12752TIP3    H259748   1.101   5.137  15.653  0.2693  0.4507  0.4819
12753TIP3   OH259749   5.698   6.227  12.757  0.4519  0.2118 -0.5406
12753TIP3    H159750   5.726   6.258  12.843  1.7174  0.1055 -0.9161
12753TIP3    H259751   5.606   6.255  12.750  0.8828  1.8051  0.0941
12754TIP3   OH259752   3.142   4.579   1.191 -0.4806 -0.7257 -0.0701
12754TIP3    H159753   3.113   4.489   1.203  1.1392 -1.0642  1.4739
12754TIP3    H259754   3.233   4.571   1.162 -0.0146  0.4345  1.0396
12755TIP3   OH259755   4.298   3.675   1.454 -0.6385 -0.5909 -0.2348
12755TIP3    H159756   4.279   3.766   1.430 -0.7706 -1.0662 -1.9919
12755TIP3    H259757   4.227   3.651   1.514  0.0295  0.8134  1.1516
12756TIP3   OH259758   3.904   4.054   2.451  0.4109  0.0095  0.3359
12756TIP3    H159759   3.809   4.051   2.461  0.1696 -2.5677 -1.8791
12756TIP3    H259760   3.917   4.074   2.358  1.9941 -0.5594  0.4213
12757TIP3   OH259761   5.792   4.205  14.883 -0.5230 -0.3637 -0.4752
12757TIP3    H159762   5.730   4.209  14.956  0.2330  2.3803  0.0472
12757TIP3    H259763   5.817   4.296  14.868  0.5084 -1.0591 -3.1624
12758TIP3   OH259764   2.563   1.027   6.415  0.4041  0.2585  0.8000
12758TIP3    H159765   2.513   0.986   6.487  0.5798 -1.8714 -0.2471
12758TIP3    H259766   2.650   0.987   6.421  0.5443  0.3945 -0.3417
12759TIP3   OH259767   2.240   2.236   4.640 -1.0536 -0.3202 -0.2037
12759TIP3    H159768   2.296   2.185   4.698 -1.3542 -0.0652  0.3083
12759TIP3    H259769   2.156   2.240   4.685 -1.2187  0.0827 -0.5431
12760TIP3   OH259770   5.709   0.756  10.581 -0.1348 -0.3868  0.0720
12760TIP3    H159771   5.665   0.701  10.645 -0.9550  1.6737  1.3293
12760TIP3    H259772   5.655   0.747  10.502 -0.7150 -0.7782  0.5017
12761TIP3   OH259773   0.210   6.409  14.936 -0.0748 -0.2649  0.8871
12761TIP3    H159774   0.298   6.383  14.906 -0.2952 -0.5301  0.4683
12761TIP3    H259775   0.157   6.330  14.924 -0.7285  0.3470 -0.3073
12762TIP3   OH259776   1.617   5.267   4.930 -0.0018  0.1684 -0.1384
12762TIP3    H159777   1.662   5.224   5.002 -0.5232 -2.8515 -1.5297
12762TIP3    H259778   1.528   5.283   4.962  0.1409  0.0339  0.3230
12763TIP3   OH259779   3.814   3.615  15.931 -0.0467 -0.5383 -0.4380
12763TIP3    H159780   3.807   3.680  15.861  0.1844  0.5264  0.5230
12763TIP3    H259781   3.731   3.620  15.978 -0.3755 -1.5627 -0.8872
12764TIP3   OH259782   3.841   6.624  13.145 -0.1153  0.4757  0.0413
12764TIP3    H159783   3.812   6.712  13.169 -2.2273 -0.3560  0.6378
12764TIP3    H259784   3.865   6.583  13.228 -2.6376 -0.7158  0.2290
12765TIP3   OH259785   0.620   5.654  13.412 -0.1902  0.7147 -0.7856
12765TIP3    H159786   0.709   5.620  13.397 -0.3314 -0.9964  1.9459
12765TIP3    H259787   0.633   5.745  13.436  1.0248  0.0105  1.4008
12766TIP3   OH259788   1.140   2.690   2.187  0.4542  0.2129 -1.1313
12766TIP3    H159789   1.143   2.683   2.092  1.2487 -2.4897 -0.9460
12766TIP3    H259790   1.049   2.668   2.210  0.9321 -1.9181 -1.1262
12767TIP3   OH259791   5.444   4.275   5.110 -0.3338  0.2629  0.8084
12767TIP3    H159792   5.437   4.243   5.020  0.1783  0.5089  0.6793
12767TIP3    H259793   5.417   4.201   5.164  1.7045 -0.7113  0.5568
12768TIP3   OH259794   0.472   0.876   6.167 -0.4184  0.5035  0.1703
12768TIP3    H159795   0.526   0.953   6.153 -0.9958  0.6861 -1.1590
12768TIP3    H259796   0.491   0.849   6.257 -0.8943  2.7292  0.9726
12769TIP3   OH259797   1.771   5.737   3.558  0.6364  0.5071  0.2298
12769TIP3    H159798   1.774   5.669   3.625 -0.3038  0.6255  0.4116
12769TIP3    H259799   1.686   5.725   3.516  0.2144  1.9179  0.6465
12770TIP3   OH259800   5.117   2.587   5.496  0.4785 -0.1511 -0.6640
12770TIP3    H159801   5.212   2.594   5.511  0.1403 -0.1383  1.6853
12770TIP3    H259802   5.094   2.501   5.531 -0.6307  0.5316  0.3164
12771TIP3   OH259803   0.774   6.780   2.417  0.0226 -0.2175  0.1286
12771TIP3    H159804   0.812   6.785   2.330  0.3213 -1.6617  0.1627
12771TIP3    H259805   0.746   6.689   2.426  2.6573 -0.8399  2.6325
12772TIP3   OH259806   3.362   4.299   3.520 -0.2689 -0.0078  0.1752
12772TIP3    H159807   3.411   4.256   3.589  1.6987 -0.4221 -1.4417
12772TIP3    H259808   3.350   4.389   3.550 -1.9248 -0.9060  2.2982
12773TIP3   OH259809   2.794   0.933   5.391 -0.1118 -0.3518  0.2541
12773TIP3    H159810   2.753   0.995   5.331 -1.6558 -0.2835  1.3651
12773TIP3    H259811   2.723   0.877   5.421  0.8522 -1.1492  1.1020
12774TIP3   OH259812   3.833   0.993  16.226 -0.0604  0.5148 -0.2827
12774TIP3    H159813   3.821   0.984  16.132 -0.2243  0.3197 -0.2428
12774TIP3    H259814   3.846   0.903  16.257 -0.0040  0.5794 -0.1199
12775TIP3   OH259815   1.764   2.255   4.006  0.1057 -0.0090 -0.3609
12775TIP3    H159816   1.759   2.170   3.962 -0.4452  0.0089 -0.3457
12775TIP3    H259817   1.672   2.279   4.022  0.2930  0.0765  0.6177
12776TIP3   OH259818   5.771   1.120  12.423  0.2181 -0.3406 -0.3379
12776TIP3    H159819   5.863   1.133  12.446 -0.7331  1.8012  2.4720
12776TIP3    H259820   5.749   1.033  12.458 -0.0286  1.0656  3.1939
12777TIP3   OH259821   5.222   2.968  10.648  0.2020  0.0378  0.1846
12777TIP3    H159822   5.161   2.972  10.575  0.5386 -1.3847 -0.1825
12777TIP3    H259823   5.294   3.027  10.623  0.8026 -1.2133 -1.1003
12778TIP3   OH259824   0.998   3.643   0.271 -0.0445  0.1405 -1.3682
12778TIP3    H159825   0.980   3.562   0.224 -1.0205  0.3453 -1.3657
12778TIP3    H259826   1.070   3.621   0.331  0.4745 -0.4021 -2.1871
12779TIP3   OH259827   5.243   5.309   2.890  0.0139 -0.7213 -0.2111
12779TIP3    H159828   5.152   5.282   2.901 -0.4885  1.6726  2.0883
12779TIP3    H259829   5.279   5.311   2.979  1.4604  1.1187 -0.7818
12780TIP3   OH259830   1.338   5.247   5.227  0.6721 -0.4033  0.0028
12780TIP3    H159831   1.355   5.170   5.282  0.0373 -0.4749  0.0982
12780TIP3    H259832   1.244   5.259   5.232  0.6388 -0.2905 -0.9181
12781TIP3   OH259833   3.592   3.386   2.170  0.0631 -0.1716  0.9080
12781TIP3    H159834   3.521   3.322   2.159 -0.9757  1.0730  0.3612
12781TIP3    H259835   3.550   3.471   2.163  1.8160  0.5971 -0.8289
12782TIP3   OH259836   1.302   2.835  15.762  0.5435 -0.5282 -0.4730
12782TIP3    H159837   1.267   2.884  15.836 -0.7643 -1.3007 -0.5742
12782TIP3    H259838   1.248   2.864  15.687  0.0374 -1.8020 -0.6093
12783TIP3   OH259839   0.047   5.102  15.874  0.1050 -0.5930 -0.4424
12783TIP3    H159840   0.098   5.126  15.951 -2.3665 -0.4290  1.1955
12783TIP3    H259841   0.109   5.108  15.801  2.1512  0.5209  1.3416
12784TIP3   OH259842   3.710   3.144   1.749 -0.5029 -0.4078  0.3460
12784TIP3    H159843   3.655   3.084   1.699 -0.5228 -0.1675  0.0848
12784TIP3    H259844   3.717   3.222   1.695  0.3518 -0.5545  0.2305
12785TIP3   OH259845   2.442   3.169   3.965  0.1433 -0.2769  0.0308
12785TIP3    H159846   2.489   3.088   3.945  0.3250 -0.2616  0.3949
12785TIP3    H259847   2.357   3.139   3.999  0.9760 -0.3500  2.0867
12786TIP3   OH259848   5.378   3.895  11.678 -0.4157  0.0037  0.9047
12786TIP3    H159849   5.304   3.921  11.623 -0.3829 -2.1285 -0.2008
12786TIP3    H259850   5.454   3.898  11.619 -0.2376 -1.3955  1.0399
12787TIP3   OH259851   4.637   0.965  13.508  0.3262 -0.3043 -0.4701
12787TIP3    H159852   4.544   0.983  13.501  0.4245  0.4551  0.1222
12787TIP3    H259853   4.673   1.040  13.557  1.2853 -0.4355 -0.9498
12788TIP3   OH259854   6.206   3.003   0.124 -0.5447 -0.1653  0.4933
12788TIP3    H159855   6.238   2.917   0.152 -0.9793 -0.5254 -0.0939
12788TIP3    H259856   6.154   2.984   0.046 -0.7276  0.6236  0.4246
12789TIP3   OH259857   2.118   5.013  13.154 -0.0144  0.0162 -0.1380
12789TIP3    H159858   2.102   4.920  13.166 -2.4232  0.1793 -1.8536
12789TIP3    H259859   2.095   5.031  13.063 -2.6080  2.8746  0.9837
12790TIP3   OH259860   3.266   3.189   2.346  0.0842  0.1108 -0.4715
12790TIP3    H159861   3.204   3.225   2.409  1.2513 -0.6214  1.1129
12790TIP3    H259862   3.261   3.248   2.271 -1.7091  0.6861  0.0671
12791TIP3   OH259863   3.498   2.126  12.423  0.0616  0.4592 -0.1412
12791TIP3    H159864   3.525   2.218  12.417  0.5745  0.3542  0.4220
12791TIP3    H259865   3.580   2.078  12.437 -0.0308 -0.2412 -1.9413
12792TIP3   OH259866   1.890   4.223   4.737 -0.2545 -0.1777  0.2857
12792TIP3    H159867   1.976   4.183   4.721  0.4405  1.4215 -0.0909
12792TIP3    H259868   1.894   4.250   4.829  0.9832  2.9642 -0.6245
12793TIP3   OH259869   4.945   3.547  14.887  0.1292 -0.4423 -0.0579
12793TIP3    H159870   4.897   3.596  14.820 -2.2215 -0.0417  1.8711
12793TIP3    H259871   5.003   3.611  14.928 -0.0956 -0.1831 -0.1499
12794TIP3   OH259872   0.694   2.976   3.856  0.4454 -0.2885  0.5722
12794TIP3    H159873   0.790   2.980   3.858  0.4000  0.6607  1.9649
12794TIP3    H259874   0.673   2.888   3.888  0.8407 -0.1304  1.2922
12795TIP3   OH259875   6.663   2.146  13.076 -0.2368 -0.6002  0.2966
12795TIP3    H159876   6.582   2.158  13.027 -0.0948 -0.8998 -0.0079
12795TIP3    H259877   6.694   2.059  13.052  0.7657 -0.0526 -0.4614
12796TIP3   OH259878   6.804   6.023   2.544 -0.1128 -0.4459  0.1841
12796TIP3    H159879   6.849   5.998   2.463  0.8069  0.1570  0.5060
12796TIP3    H259880   6.828   6.115   2.557 -1.0673 -0.2568  0.6057
12797TIP3   OH259881   1.907   3.864   4.734 -0.0645  0.0045 -0.6191
12797TIP3    H159882   1.822   3.905   4.716 -0.0866  0.1928 -0.0909
12797TIP3    H259883   1.935   3.901   4.818 -0.8015 -2.1909  0.6370
12798TIP3   OH259884   0.284   1.867  11.052 -0.0688 -0.1840 -0.4849
12798TIP3    H159885   0.299   1.837  10.962 -1.8810 -2.7365 -0.0070
12798TIP3    H259886   0.212   1.929  11.045  0.8329  0.8082 -0.9839
12799TIP3   OH259887   5.224   0.776   5.361  0.4298 -0.1791  0.3389
12799TIP3    H159888   5.279   0.830   5.305 -1.2359 -1.0926 -2.2716
12799TIP3    H259889   5.285   0.715   5.403  1.4186 -1.5366 -2.8972
12800TIP3   OH259890   5.273   3.190  12.310 -0.4522 -0.1987  0.6023
12800TIP3    H159891   5.328   3.124  12.269  0.5156 -0.2777  1.9922
12800TIP3    H259892   5.313   3.205  12.395 -2.1812  0.2623  1.3603
12801TIP3   OH259893   6.232   2.304   1.006  0.5419 -0.3712 -0.4590
12801TIP3    H159894   6.209   2.216   1.036  1.7764 -0.4078  0.4123
12801TIP3    H259895   6.149   2.352   1.006 -0.5283 -2.1454 -3.1120
12802TIP3   OH259896   5.211   1.155   4.697  0.2428 -0.5656  0.6699
12802TIP3    H159897   5.203   1.060   4.695 -0.2412 -0.4989 -4.0447
12802TIP3    H259898   5.303   1.173   4.676  0.1523  0.0635  0.7705
12803TIP3   OH259899   6.492   6.480   1.754 -0.5349 -0.8106  0.1494
12803TIP3    H159900   6.422   6.529   1.710 -0.2549 -0.6450 -0.1136
12803TIP3    H259901   6.499   6.399   1.703  2.0716  0.7976 -2.1963
12804TIP3   OH259902   2.027   2.213   1.151  0.1618 -0.5153 -0.0573
12804TIP3    H159903   1.985   2.272   1.213 -0.2973 -3.0099  2.1082
12804TIP3    H259904   2.121   2.225   1.166  0.0570 -1.0054  1.0667
12805TIP3   OH259905   3.270   2.462  15.896  0.0683  0.0065  0.6675
12805TIP3    H159906   3.200   2.401  15.878  0.2921  0.2962 -1.2506
12805TIP3    H259907   3.265   2.478  15.991 -3.3559  1.1455  0.3475
12806TIP3   OH259908   0.321   0.626   0.976 -0.0614  0.0631 -0.4371
12806TIP3    H159909   0.384   0.596   0.911  0.1409  1.4981 -0.9137
12806TIP3    H259910   0.374   0.667   1.044 -0.4022  0.2215 -0.2664
12807TIP3   OH259911   3.170   1.569   4.532  0.0856 -0.4029  0.3101
12807TIP3    H159912   3.131   1.507   4.595 -1.1889 -1.6435 -1.6366
12807TIP3    H259913   3.121   1.553   4.451  0.3961  2.5260 -0.4767
12808TIP3   OH259914   4.426   4.844   2.329 -0.5994  0.1499 -0.4113
12808TIP3    H159915   4.379   4.765   2.301 -0.4289  0.0729 -0.4782
12808TIP3    H259916   4.382   4.915   2.282 -0.7374  0.0919 -0.3705
12809TIP3   OH259917   0.171   6.173   1.543  0.6006  0.1505 -0.0042
12809TIP3    H159918   0.182   6.254   1.493  0.9496 -0.1784 -0.4557
12809TIP3    H259919   0.221   6.108   1.495 -2.3263 -1.1152 -1.4413
12810TIP3   OH259920   4.886   4.837  14.398 -0.5955  0.5144  0.0098
12810TIP3    H159921   4.933   4.908  14.441 -1.7308  0.8868  0.6760
12810TIP3    H259922   4.799   4.838  14.439 -0.2299 -2.0628  0.9300
12811TIP3   OH259923   4.724   6.282   6.154 -0.0432  0.0699 -0.0489
12811TIP3    H159924   4.746   6.216   6.219  0.3036  1.4174  1.2314
12811TIP3    H259925   4.764   6.363   6.187 -0.1862  0.8616 -1.7354
12812TIP3   OH259926   6.569   6.286   4.176 -0.0005 -0.3124 -0.3332
12812TIP3    H159927   6.559   6.215   4.113  0.4168 -0.3779 -0.3301
12812TIP3    H259928   6.664   6.294   4.188 -0.0553  0.0753 -0.1427
12813TIP3   OH259929   4.000   4.563   6.504  0.5961  0.4498 -0.3359
12813TIP3    H159930   3.940   4.634   6.529 -0.0654 -0.2388  0.0843
12813TIP3    H259931   4.017   4.577   6.411 -0.4378  0.5106 -0.5240
12814TIP3   OH259932   5.647   0.511  14.613  0.9328 -0.6551  0.0975
12814TIP3    H159933   5.585   0.567  14.567 -0.5410 -0.6410  2.0608
12814TIP3    H259934   5.726   0.515  14.559 -0.6514 -0.4525 -2.2848
12815TIP3   OH259935   5.672   6.076   1.961 -0.1340 -0.3945 -0.2472
12815TIP3    H159936   5.647   6.056   1.871 -1.6759  1.9167 -0.3995
12815TIP3    H259937   5.598   6.046   2.014  0.1664 -0.5254  0.0998
12816TIP3   OH259938   4.478   1.774   4.840  0.0999 -0.2407 -0.2230
12816TIP3    H159939   4.457   1.707   4.774 -3.9361  2.4701 -1.8948
12816TIP3    H259940   4.419   1.756   4.912 -1.1555  1.5969 -0.7689
12817TIP3   OH259941   1.983   1.697  15.281 -0.3367 -0.3505  0.3224
12817TIP3    H159942   1.975   1.780  15.234 -1.7758 -0.2136  0.7737
12817TIP3    H259943   2.076   1.690  15.302  0.1819 -0.0057 -1.7722
12818TIP3   OH259944   5.689   3.235  10.569  0.0945  0.4180  0.0014
12818TIP3    H159945   5.737   3.191  10.639  1.4631  0.0417 -1.1516
12818TIP3    H259946   5.665   3.164  10.508 -1.3008  0.7058  0.2022
12819TIP3   OH259947   5.492   6.310  16.959 -0.0222 -0.1076 -0.2048
12819TIP3    H159948   5.462   6.247  17.024 -1.0945 -0.3308 -0.9007
12819TIP3    H259949   5.576   6.274  16.928  0.0096 -0.5072  0.3356
12820TIP3   OH259950   1.129   6.471   3.271 -0.4276 -0.2297 -0.1378
12820TIP3    H159951   1.146   6.393   3.324  1.6865  1.7653  2.2307
12820TIP3    H259952   1.133   6.544   3.333  1.4539  2.1304 -2.8916
12821TIP3   OH259953   3.200   6.327  12.516  0.1431 -0.4363  0.5650
12821TIP3    H159954   3.228   6.257  12.457  1.0601  1.2387 -1.0584
12821TIP3    H259955   3.278   6.351  12.565 -0.2533 -0.7892  1.3753
12822TIP3   OH259956   5.383   2.555  17.025  0.1940 -0.1612  0.2107
12822TIP3    H159957   5.456   2.550  16.964  1.6583 -0.3763  1.9097
12822TIP3    H259958   5.423   2.541  17.111 -2.0229 -1.5592  1.0744
12823TIP3   OH259959   0.463   1.199  15.968  0.3952  0.3691  0.0203
12823TIP3    H159960   0.444   1.236  16.054 -3.4335 -3.0543  0.8502
12823TIP3    H259961   0.525   1.128  15.986  2.4427  1.9454 -0.6257
12824TIP3   OH259962   6.788   5.328  16.167  0.5033 -0.1417 -0.3445
12824TIP3    H159963   6.766   5.398  16.106  1.0631 -1.0010 -1.5657
12824TIP3    H259964   6.877   5.303  16.143  0.4012 -1.0802  0.2360
12825TIP3   OH259965   6.680   6.692   5.189 -0.0064 -0.4633  0.2441
12825TIP3    H159966   6.666   6.663   5.279  1.8478 -1.5300  0.2258
12825TIP3    H259967   6.652   6.618   5.135  2.5817 -1.4244  0.1199
12826TIP3   OH259968   2.594   4.655   3.165 -0.4370  0.0907 -0.2763
12826TIP3    H159969   2.566   4.570   3.132  0.6966 -0.5553  0.3826
12826TIP3    H259970   2.550   4.663   3.250 -0.0035 -0.1428 -0.0295
12827TIP3   OH259971   2.570   0.824   4.358 -0.6066 -0.4579  0.2072
12827TIP3    H159972   2.475   0.829   4.361 -0.5619 -0.0934  1.3135
12827TIP3    H259973   2.589   0.735   4.327 -1.3067 -0.8445  0.8720
12828TIP3   OH259974   5.513   0.313  16.998  0.0895 -0.1823 -0.2131
12828TIP3    H159975   5.483   0.402  17.014 -1.5641 -0.8651  0.6523
12828TIP3    H259976   5.593   0.305  17.051 -0.1430  0.5691  0.2604
12829TIP3   OH259977   0.971   2.447   0.832 -0.6842  0.1609 -0.5731
12829TIP3    H159978   0.888   2.484   0.861 -0.1438  0.4768  0.6102
12829TIP3    H259979   0.948   2.365   0.789 -1.8559  1.5041 -2.6383
12830TIP3   OH259980   6.264   4.427  14.013  0.2971 -0.1854  0.6263
12830TIP3    H159981   6.348   4.403  14.052  0.1210 -1.2994  0.3636
12830TIP3    H259982   6.199   4.410  14.081  0.2527  0.3515  0.7180
12831TIP3   OH259983   0.248   1.167  13.530 -0.1500  0.2296 -0.3326
12831TIP3    H159984   0.218   1.221  13.457  1.6617  0.3427 -1.0131
12831TIP3    H259985   0.182   1.098  13.537  0.0432 -0.2066 -2.5341
12832TIP3   OH259986   4.560   3.549   3.947 -0.4978  0.4368  0.3386
12832TIP3    H159987   4.603   3.599   4.017 -0.2896 -0.2720  0.7240
12832TIP3    H259988   4.467   3.558   3.965 -0.4046 -1.9720  2.3140
12833TIP3   OH259989   1.431   4.168   0.304 -0.0078  0.3789  0.5747
12833TIP3    H159990   1.436   4.253   0.347 -1.9797  2.2499 -2.6661
12833TIP3    H259991   1.522   4.138   0.299  0.6862  2.2222  1.8457
12834TIP3   OH259992   0.607   1.613  10.625 -0.3557  0.3937 -0.0093
12834TIP3    H159993   0.644   1.682  10.569 -0.6946 -0.3508 -1.1481
12834TIP3    H259994   0.512   1.626  10.619 -0.4203 -0.2429 -0.2990
12835TIP3   OH259995   2.663   6.740  16.244  0.2437  0.0005 -0.1406
12835TIP3    H159996   2.686   6.768  16.332 -2.5995 -0.6146  0.8229
12835TIP3    H259997   2.662   6.821  16.193  0.9157  0.4837  0.6065
12836TIP3   OH259998   1.276   6.305  12.191  0.2634  0.1095  0.1051
12836TIP3    H159999   1.283   6.311  12.286 -0.0101  0.3881  0.1101
12836TIP3    H260000   1.187   6.334  12.172 -0.4361 -2.0051 -0.0396
12837TIP3   OH260001   0.364   5.914   0.807 -0.3390 -0.2469 -0.0762
12837TIP3    H160002   0.289   5.944   0.756 -0.1744 -1.6307 -1.1414
12837TIP3    H260003   0.429   5.984   0.797 -0.9886  0.3542 -0.2036
12838TIP3   OH260004   4.899   3.907  16.142  0.3565  0.8262 -0.0486
12838TIP3    H160005   4.944   3.991  16.143  3.4641 -0.7834  0.8379
12838TIP3    H260006   4.879   3.891  16.049 -0.3823  2.5623 -0.2026
12839TIP3   OH260007   2.929   0.209  14.751 -0.4587  0.0050 -0.1963
12839TIP3    H160008   2.852   0.253  14.784 -1.3012 -1.0787 -0.6752
12839TIP3    H260009   2.977   0.180  14.829  1.1385  3.4434  0.1733
12840TIP3   OH260010   6.550   0.101   3.436  0.1210  0.9423  0.7548
12840TIP3    H160011   6.639   0.087   3.469  0.2281  1.9210  0.8962
12840TIP3    H260012   6.548   0.055   3.352  0.4810  0.1631  1.1663
12841TIP3   OH260013   3.738   1.363  15.400  0.0368  0.0575  0.5243
12841TIP3    H160014   3.763   1.438  15.452  1.8186 -0.1541  0.0134
12841TIP3    H260015   3.758   1.287  15.455  0.4768 -0.1130  0.1377
12842TIP3   OH260016   0.979   4.066  12.707 -0.1579 -0.2395 -0.0978
12842TIP3    H160017   1.059   4.016  12.722 -0.9659 -1.6084 -0.2410
12842TIP3    H260018   0.946   4.087  12.794 -1.2623 -2.3533  0.0343
12843TIP3   OH260019   6.057   5.360  16.163 -0.1230 -0.7015  0.3850
12843TIP3    H160020   6.079   5.446  16.200 -1.2383  0.0153 -0.5840
12843TIP3    H260021   6.137   5.332  16.119  0.0364  0.1393  0.1403
12844TIP3   OH260022   5.548   3.386  13.777 -0.8205  0.1892  0.2543
12844TIP3    H160023   5.613   3.438  13.826 -1.2721  0.8239  0.1895
12844TIP3    H260024   5.476   3.447  13.761 -0.4733  0.1313 -1.6267
12845TIP3   OH260025   4.161   6.271  12.130 -0.2206 -0.4657  0.0093
12845TIP3    H160026   4.135   6.329  12.201  1.0985  0.1080  0.0291
12845TIP3    H260027   4.078   6.241  12.092 -0.9290  2.2055 -0.6519
12846TIP3   OH260028   3.246   2.735   1.669  0.0201 -0.2970  0.5125
12846TIP3    H160029   3.264   2.799   1.737 -0.2895  0.8304 -0.4580
12846TIP3    H260030   3.156   2.706   1.686  0.4014 -1.0145  1.3701
12847TIP3   OH260031   6.591   5.264   6.342  0.0588  0.1639 -0.2700
12847TIP3    H160032   6.574   5.343   6.392 -3.2534 -1.3720  1.1661
12847TIP3    H260033   6.535   5.272   6.265 -0.4795 -0.8725  0.0036
12848TIP3   OH260034   3.216   0.580  15.345  0.1768  0.5062  0.1683
12848TIP3    H160035   3.224   0.493  15.385  1.0170  0.8233  0.7023
12848TIP3    H260036   3.296   0.625  15.369 -0.0123  1.2550 -0.5642
12849TIP3   OH260037   3.944   5.711  14.026  0.2253  0.1870 -1.1017
12849TIP3    H160038   4.000   5.779  14.063  0.1279  0.3371 -1.2342
12849TIP3    H260039   3.876   5.698  14.092  0.5412 -0.1566 -0.8356
12850TIP3   OH260040   2.249   4.462  15.631 -0.0277  0.1791  0.1894
12850TIP3    H160041   2.332   4.449  15.583  0.0547 -0.4494  0.4941
12850TIP3    H260042   2.271   4.445  15.722  0.1279  2.7387  0.6664
12851TIP3   OH260043   3.522   3.436   3.996  0.2363 -0.1988  0.1435
12851TIP3    H160044   3.610   3.473   3.988 -0.4996  1.1362 -2.4841
12851TIP3    H260045   3.479   3.489   4.063 -0.4814  3.2091 -2.8607
12852TIP3   OH260046   5.318   0.034   3.222  0.2369  0.2969 -0.3898
12852TIP3    H160047   5.248  -0.003   3.275  0.7996 -2.3332 -1.3884
12852TIP3    H260048   5.276   0.059   3.140  0.0205  1.1318 -0.0355
12853TIP3   OH260049   3.281   4.705   5.388 -0.2512 -0.3025  0.6124
12853TIP3    H160050   3.235   4.735   5.309 -0.8460 -0.5513  0.8588
12853TIP3    H260051   3.353   4.767   5.399  0.7259 -1.1057 -0.9619
12854TIP3   OH260052   6.780   3.553  15.285 -0.0933  0.2786  0.1226
12854TIP3    H160053   6.863   3.539  15.239 -0.2766  0.3197 -0.2159
12854TIP3    H260054   6.733   3.617  15.232  0.2120  1.2455  0.9890
12855TIP3   OH260055   0.070   0.748   2.785 -0.7051  0.0861 -0.8808
12855TIP3    H160056   0.003   0.810   2.755 -1.5278 -0.4118 -0.0757
12855TIP3    H260057   0.023   0.667   2.802  0.4487 -0.9600 -2.4674
12856TIP3   OH260058   5.659   2.760   1.670 -0.2498  0.4261 -0.3270
12856TIP3    H160059   5.712   2.752   1.591 -0.1188 -0.9719 -0.1197
12856TIP3    H260060   5.598   2.831   1.651 -0.4570 -0.1306 -1.8325
12857TIP3   OH260061   5.465   1.643  14.308 -0.6787  0.2491 -0.1243
12857TIP3    H160062   5.430   1.707  14.370 -1.1407  0.9256 -1.0545
12857TIP3    H260063   5.391   1.585  14.290 -0.9569  0.8676 -1.0551
12858TIP3   OH260064   6.251   0.497   4.899 -0.3883  0.1383 -0.4635
12858TIP3    H160065   6.169   0.462   4.864  1.3304 -3.3873 -1.2205
12858TIP3    H260066   6.276   0.566   4.838 -1.4535 -0.5697 -1.7247
12859TIP3   OH260067   0.399   4.064   5.362  0.5036 -0.2301  0.1408
12859TIP3    H160068   0.494   4.070   5.348  0.7603 -0.5529  1.6719
12859TIP3    H260069   0.388   3.984   5.414 -0.9119 -2.0069 -2.7227
12860TIP3   OH260070   2.760   4.697   1.126  0.3478 -0.3362 -0.2635
12860TIP3    H160071   2.677   4.735   1.153 -0.3268 -0.6517 -1.8579
12860TIP3    H260072   2.738   4.609   1.094  1.2119 -0.2566 -1.1149
12861TIP3   OH260073   3.053   4.760  15.209 -0.4870  0.3691  0.7818
12861TIP3    H160074   3.065   4.768  15.115  0.7126 -0.7911  0.8229
12861TIP3    H260075   2.965   4.724  15.219  0.0884 -1.3025  0.0186
12862TIP3   OH260076   3.363   6.241  11.766  0.1541  0.0415 -0.0945
12862TIP3    H160077   3.380   6.151  11.738 -2.0987  0.0646 -1.6722
12862TIP3    H260078   3.364   6.237  11.861 -0.0435 -1.6839 -0.1499
12863TIP3   OH260079   4.015   5.280  17.032  0.3379 -0.6182 -0.2955
12863TIP3    H160080   4.058   5.326  17.104  4.3174 -2.4477 -1.3573
12863TIP3    H260081   3.977   5.350  16.978  0.4568  0.9742  1.6291
12864TIP3   OH260082   2.558   2.329  12.003 -0.1232 -0.1858 -0.5185
12864TIP3    H160083   2.481   2.278  12.025 -0.8001  1.8531  2.0661
12864TIP3    H260084   2.527   2.396  11.942  0.2656 -1.1932 -1.8721
12865TIP3   OH260085   0.355   1.102   1.689  0.3707  0.1328  0.0354
12865TIP3    H160086   0.401   1.091   1.772  1.3626 -0.3536 -0.5714
12865TIP3    H260087   0.347   1.197   1.679  0.4166  0.1975  0.5950
12866TIP3   OH260088   2.016   2.787   0.748 -0.4419 -0.0534  0.0150
12866TIP3    H160089   2.072   2.822   0.678  0.2517  3.9812  2.4203
12866TIP3    H260090   1.937   2.841   0.745 -0.9806 -0.7358  1.5001
12867TIP3   OH260091   1.067   1.325  11.524  0.1937 -0.6866 -0.3214
12867TIP3    H160092   1.045   1.266  11.452  0.4224  0.3208 -1.2287
12867TIP3    H260093   0.985   1.370  11.544  0.3476 -0.2670 -0.6140
12868TIP3   OH260094   4.499   1.007  12.344 -0.0116 -0.7151 -0.6571
12868TIP3    H160095   4.552   0.940  12.301  0.2712 -0.1527 -1.1824
12868TIP3    H260096   4.455   0.960  12.416 -0.7237 -1.7219 -1.7305
12869TIP3   OH260097   4.170   5.810   2.032 -0.0188 -0.4271  0.0719
12869TIP3    H160098   4.143   5.886   2.084 -0.9758 -0.2131 -0.7299
12869TIP3    H260099   4.098   5.795   1.971  1.3840 -0.2442 -1.6780
12870TIP3   OH260100   4.834   4.249  12.616  0.2765 -0.7712 -0.2975
12870TIP3    H160101   4.861   4.305  12.689  0.4843 -2.5401  1.0111
12870TIP3    H260102   4.907   4.255  12.554  0.0085  0.8981 -0.4816
12871TIP3   OH260103   4.222   3.813  11.551  0.1946 -0.3568  0.0723
12871TIP3    H160104   4.186   3.725  11.536 -0.0364 -0.1427 -0.6414
12871TIP3    H260105   4.293   3.799  11.613  1.7058 -1.3983 -1.8272
12872TIP3   OH260106   4.102   2.913  17.241  0.7473  0.1122  0.3121
12872TIP3    H160107   4.055   2.923  17.158  0.2077  2.1030  0.8524
12872TIP3    H260108   4.161   2.839  17.226 -0.0104 -0.1393 -1.5344
12873TIP3   OH260109   4.017   5.150  12.271  0.1044  0.6293 -0.2301
12873TIP3    H160110   3.960   5.133  12.197  0.2667  0.4884 -0.3238
12873TIP3    H260111   4.092   5.196  12.233  0.8394 -0.6689 -0.3788
12874TIP3   OH260112   6.614   1.028  11.760 -0.5466  0.6544  0.2925
12874TIP3    H160113   6.595   0.989  11.675 -0.2737  1.4791 -0.1517
12874TIP3    H260114   6.530   1.063  11.790 -0.0685  3.0843 -1.0455
12875TIP3   OH260115   4.042   3.082  12.261  0.1349  0.3261  0.3376
12875TIP3    H160116   3.955   3.045  12.273  0.2602 -0.2245 -0.3972
12875TIP3    H260117   4.034   3.137  12.182  0.4403  0.3015  0.2875
12876TIP3   OH260118   4.300   4.317   0.648 -0.4196  0.3550 -0.1721
12876TIP3    H160119   4.238   4.248   0.672  0.4568 -0.5643 -0.5431
12876TIP3    H260120   4.301   4.376   0.724 -0.2707 -0.6751  0.6365
12877TIP3   OH260121   5.879   2.050   5.922  0.0197 -0.5510 -0.2897
12877TIP3    H160122   5.956   2.063   5.978  0.2753 -1.7773 -0.3257
12877TIP3    H260123   5.805   2.048   5.982  0.0858 -0.0289 -0.1873
12878TIP3   OH260124   2.241   5.618   5.863  0.4249 -0.0285  0.1684
12878TIP3    H160125   2.242   5.659   5.776 -1.9126 -0.0420  0.1071
12878TIP3    H260126   2.235   5.692   5.924  1.8291 -0.0329  0.3409
12879TIP3   OH260127   2.086   1.276   2.180  0.4190 -0.4446  0.4695
12879TIP3    H160128   2.074   1.226   2.261  1.6912 -1.3415  0.1244
12879TIP3    H260129   2.176   1.257   2.154 -0.0099 -0.2197 -1.1978
12880TIP3   OH260130   0.139   6.665   2.840 -0.3408 -0.3740 -0.0980
12880TIP3    H160131   0.126   6.745   2.788 -1.3867 -0.2121  0.4008
12880TIP3    H260132   0.234   6.654   2.843 -0.2552 -0.2958 -1.8922
12881TIP3   OH260133   4.828   5.829   1.240 -0.2391  0.4138  0.1662
12881TIP3    H160134   4.757   5.787   1.288 -0.4859  0.8968  0.2329
12881TIP3    H260135   4.783   5.881   1.172  0.0562  0.5574  0.0815
12882TIP3   OH260136   2.188   0.508  13.687  0.9571 -0.0078  0.2722
12882TIP3    H160137   2.123   0.520  13.756 -0.1301  1.9934 -1.0499
12882TIP3    H260138   2.169   0.422  13.650 -1.9930  1.1855 -1.1229
12883TIP3   OH260139   0.277   5.089  11.707 -0.0744  0.4246  0.4148
12883TIP3    H160140   0.300   5.101  11.799  1.2966  0.4519  0.0700
12883TIP3    H260141   0.286   4.994  11.692  2.2870  0.7451 -0.3635
12884TIP3   OH260142   3.927   4.522   3.494 -0.1056 -0.1722  0.4337
12884TIP3    H160143   4.005   4.469   3.480 -0.3142 -0.5251  0.6093
12884TIP3    H260144   3.946   4.571   3.574  0.7416  1.2224 -0.5776
12885TIP3   OH260145   4.178   1.749  12.319 -0.5502 -0.1341 -0.0334
12885TIP3    H160146   4.268   1.757  12.287 -0.1883  0.1351  1.0239
12885TIP3    H260147   4.124   1.786  12.248  0.1156 -0.8310 -0.9196
12886TIP3   OH260148   2.844   0.345  12.658 -0.1353  0.1239 -0.5506
12886TIP3    H160149   2.881   0.257  12.671 -2.4866 -1.0611 -1.6428
12886TIP3    H260150   2.891   0.379  12.582  0.8307 -0.1533 -0.0878
12887TIP3   OH260151   5.176   5.479  14.370  0.1924  0.6625  0.4976
12887TIP3    H160152   5.243   5.460  14.304 -0.6339 -1.0828  0.1470
12887TIP3    H260153   5.142   5.565  14.346 -0.7775 -0.3769 -1.9367
12888TIP3   OH260154   2.650   3.226  16.947 -0.5255  0.0458 -0.3164
12888TIP3    H160155   2.646   3.268  17.033 -0.5148  0.1029 -0.3429
12888TIP3    H260156   2.739   3.190  16.942 -1.3453 -2.2724  0.7787
12889TIP3   OH260157   5.384   6.283  14.976  0.3157  0.4712 -0.4498
12889TIP3    H160158   5.472   6.246  14.984  0.4572  1.1270  1.3702
12889TIP3    H260159   5.362   6.276  14.883  3.1129  2.1998 -1.2766
12890TIP3   OH260160   2.932   6.551   2.332 -0.0521 -0.0988 -0.1534
12890TIP3    H160161   3.025   6.571   2.325 -0.2956  0.7656 -0.9546
12890TIP3    H260162   2.923   6.511   2.419  0.9672  0.3418  0.1639
12891TIP3   OH260163   1.031   3.138   2.933  0.1977  0.0857 -0.1735
12891TIP3    H160164   0.948   3.142   2.886 -0.3999 -0.3650  0.8277
12891TIP3    H260165   1.015   3.186   3.014  0.1923 -2.0167  1.0979
12892TIP3   OH260166   1.832   5.454   1.137 -0.1320 -0.0831  0.2698
12892TIP3    H160167   1.765   5.516   1.164  0.5217  0.6185  0.2938
12892TIP3    H260168   1.915   5.493   1.166  0.2429 -1.2046  0.7309
12893TIP3   OH260169   2.186   6.809   0.533  0.2930 -0.3758  0.1771
12893TIP3    H160170   2.198   6.816   0.438 -0.1676  1.3480  0.2294
12893TIP3    H260171   2.131   6.884   0.556  1.3321 -0.1397  1.9760
12894TIP3   OH260172   4.800   1.820  13.723 -0.1171 -0.4151  0.2139
12894TIP3    H160173   4.876   1.849  13.773  0.7534 -0.6909 -0.9395
12894TIP3    H260174   4.744   1.897  13.718  0.2017 -0.1347  0.8437
12895TIP3   OH260175   2.517   6.495   3.471 -0.8320 -0.3300  0.3823
12895TIP3    H160176   2.558   6.576   3.499 -0.1033 -0.2697 -0.7835
12895TIP3    H260177   2.563   6.427   3.520  1.4905 -0.3514 -1.7180
12896TIP3   OH260178   6.371   0.602   2.425 -0.1677 -0.3549 -0.2989
12896TIP3    H160179   6.295   0.618   2.369  0.9206  0.7969 -1.4911
12896TIP3    H260180   6.446   0.611   2.366  0.9747  0.2948  1.2236
12897TIP3   OH260181   6.218   6.588   6.520 -0.5699 -0.4897 -0.3433
12897TIP3    H160182   6.248   6.543   6.441 -1.7762 -3.0800  0.6144
12897TIP3    H260183   6.243   6.530   6.592  0.8182  1.9904  1.2683
12898TIP3   OH260184   5.989   1.995   1.977  0.5458 -0.2302  0.8223
12898TIP3    H160185   5.968   2.074   2.028  2.0727  1.1335 -0.6116
12898TIP3    H260186   6.084   1.992   1.974  0.4967 -1.4447 -0.1982
12899TIP3   OH260187   1.637   2.370   5.383 -0.2399 -0.0530  0.4731
12899TIP3    H160188   1.606   2.319   5.458  2.3660 -2.6420 -0.1047
12899TIP3    H260189   1.729   2.386   5.403 -0.3102  1.9251 -0.7529
12900TIP3   OH260190   4.157   2.919   4.155 -0.0285 -0.7758  0.1694
12900TIP3    H160191   4.247   2.945   4.172 -0.3513  0.1888  0.4458
12900TIP3    H260192   4.112   3.001   4.133  0.4297 -1.9357 -5.9518
12901TIP3   OH260193   0.892   4.332  12.246  0.4787 -0.5266  0.3793
12901TIP3    H160194   0.926   4.359  12.161 -0.3839 -0.9745 -0.1264
12901TIP3    H260195   0.919   4.240  12.254  1.3542 -0.2145  1.0065
12902TIP3   OH260196   5.272   3.085   0.992  0.4460 -0.2250  0.3490
12902TIP3    H160197   5.361   3.058   0.970  1.4061  2.0433  1.3268
12902TIP3    H260198   5.250   3.033   1.069  0.1779 -2.1786 -1.0152
12903TIP3   OH260199   3.992   0.161  17.045  0.1318  0.5018 -0.7600
12903TIP3    H160200   4.052   0.200  16.982  1.4467  0.1070  0.2325
12903TIP3    H260201   4.015   0.201  17.128  0.7212 -1.4982  0.0699
12904TIP3   OH260202   0.409   3.473   0.986  0.1777 -0.0683 -0.7606
12904TIP3    H160203   0.480   3.533   1.010 -0.5600  0.1162  0.9844
12904TIP3    H260204   0.331   3.511   1.024 -0.3229 -2.0818  0.2645
12905TIP3   OH260205   2.080   5.321   4.875  0.5869 -0.1350 -0.2557
12905TIP3    H160206   1.989   5.292   4.884  0.7813 -1.0672 -1.0983
12905TIP3    H260207   2.073   5.407   4.833  0.1134 -0.7343 -1.4636
12906TIP3   OH260208   2.987   2.559   3.736 -0.7445 -0.9139 -0.3727
12906TIP3    H160209   3.006   2.652   3.750  1.3234 -1.1945 -1.2557
12906TIP3    H260210   2.949   2.555   3.648  1.0509 -1.1536 -1.1426
12907TIP3   OH260211   1.760   6.040  16.597  0.2921 -0.3555 -0.3240
12907TIP3    H160212   1.677   6.085  16.582 -0.3038 -1.2750  0.1594
12907TIP3    H260213   1.745   5.989  16.676  2.1165  1.3923  1.2044
12908TIP3   OH260214   1.022   3.656   4.628 -0.1975  1.0388  0.1334
12908TIP3    H160215   0.963   3.731   4.638  0.0210  1.4581 -1.6676
12908TIP3    H260216   1.088   3.685   4.566  0.5930 -0.2298  0.3735
12909TIP3   OH260217   1.763   5.972  14.474  0.2143  0.5461 -0.5627
12909TIP3    H160218   1.754   6.022  14.392 -1.4266 -1.0770 -1.4123
12909TIP3    H260219   1.689   6.001  14.528 -0.9474 -1.1048 -1.1894
12910TIP3   OH260220   4.020   6.602  14.351 -0.2890 -0.1175 -0.5297
12910TIP3    H160221   4.076   6.671  14.386  0.0638 -0.3554 -0.6120
12910TIP3    H260222   3.979   6.562  14.428  0.3143 -0.4962 -0.3968
12911TIP3   OH260223   3.963   2.141  13.418 -0.0525  1.0588 -0.4102
12911TIP3    H160224   3.874   2.107  13.406 -0.4778  1.8831  0.2996
12911TIP3    H260225   3.982   2.124  13.511  0.3019  1.3995 -0.4188
12912TIP3   OH260226   6.124   1.570  13.940  0.9939  0.3739 -0.2033
12912TIP3    H160227   6.090   1.639  13.882  0.1648  0.8970  0.8754
12912TIP3    H260228   6.135   1.614  14.025  1.4520 -0.5698  0.2296
12913TIP3   OH260229   5.527   3.981   2.085  0.0584 -0.2034  0.0849
12913TIP3    H160230   5.502   4.063   2.043  0.4750  0.0410  0.3058
12913TIP3    H260231   5.446   3.931   2.091 -0.2956  0.4025  0.4070
12914TIP3   OH260232   3.575   0.235  11.661 -0.1741 -0.3879  0.4620
12914TIP3    H160233   3.661   0.204  11.632 -0.4724 -1.3551  0.5774
12914TIP3    H260234   3.564   0.196  11.747 -0.7842 -0.3760  0.3905
12915TIP3   OH260235   0.001   3.059  14.734 -0.4737  0.3959  0.4390
12915TIP3    H160236   0.043   3.057  14.820 -0.5823  0.1980  0.4875
12915TIP3    H260237   0.021   2.974  14.695 -1.0104  0.2193  0.5484
12916TIP3   OH260238   4.288   3.712   3.014  0.0642  0.2165 -0.2380
12916TIP3    H160239   4.302   3.660   2.934 -0.1421  0.6058 -0.5310
12916TIP3    H260240   4.220   3.774   2.990  0.0388  0.3711  0.2313
12917TIP3   OH260241   3.628   4.670  14.364  0.0444 -0.2209  0.3104
12917TIP3    H160242   3.552   4.718  14.329 -0.6415 -0.0964  1.9532
12917TIP3    H260243   3.699   4.692  14.304 -0.8847  0.7709 -0.4532
12918TIP3   OH260244   0.451   5.014  16.673 -0.3428  0.2468  0.0570
12918TIP3    H160245   0.384   5.030  16.606 -0.6578 -0.7584  0.1263
12918TIP3    H260246   0.456   5.096  16.722 -1.6069  0.2803  0.1294
12919TIP3   OH260247   5.464   3.697  15.940 -0.8771  0.0351 -0.4498
12919TIP3    H160248   5.482   3.791  15.935  0.2862 -0.0673  1.4470
12919TIP3    H260249   5.461   3.669  15.848 -0.5447  1.7944 -1.0223
12920TIP3   OH260250   1.117   1.995   5.727  0.4121 -0.1463 -0.2204
12920TIP3    H160251   1.060   2.021   5.799  0.3368  0.6696 -0.5687
12920TIP3    H260252   1.061   2.001   5.649  0.8257  0.1389 -0.4953
12921TIP3   OH260253   5.991   0.459   5.262 -0.8503  0.0271 -0.3055
12921TIP3    H160254   5.924   0.413   5.210  0.0074 -1.2092 -0.3365
12921TIP3    H260255   5.983   0.420   5.349  1.0610 -1.4706 -0.7596
12922TIP3   OH260256   2.942   4.971  11.984 -0.2568 -0.3184  0.5577
12922TIP3    H160257   2.913   4.887  11.949  0.1374 -0.3064  0.2032
12922TIP3    H260258   3.016   4.996  11.929 -0.2886  0.1965  0.7482
12923TIP3   OH260259   0.215   0.865  14.868 -0.2347 -0.3666  0.7086
12923TIP3    H160260   0.277   0.847  14.939  0.4374 -1.8750 -0.2437
12923TIP3    H260261   0.135   0.821  14.894 -0.2262 -0.2818  0.8829
12924TIP3   OH260262   4.813   0.363  10.891  0.0923  0.1007  0.0738
12924TIP3    H160263   4.821   0.268  10.875  0.9911  0.3160 -0.8625
12924TIP3    H260264   4.833   0.373  10.984 -0.4108 -0.6732  0.2749
12925TIP3   OH260265   2.360   3.382   1.672  0.2665 -0.1497 -0.1121
12925TIP3    H160266   2.331   3.367   1.762 -0.1249  1.8304  0.1320
12925TIP3    H260267   2.445   3.426   1.681  1.2136 -1.7949 -0.7612
12926TIP3   OH260268   3.522   4.554   2.854 -0.3080 -0.0000  0.1570
12926TIP3    H160269   3.551   4.475   2.900 -0.9799 -0.1228  0.3783
12926TIP3    H260270   3.579   4.623   2.887  1.3856 -0.6796 -1.2462
12927TIP3   OH260271   3.538   1.806  11.285 -0.4319  0.1725 -0.0501
12927TIP3    H160272   3.444   1.806  11.265 -0.5324 -0.2212  0.4062
12927TIP3    H260273   3.576   1.870  11.225 -0.6703 -1.2342 -1.7609
12928TIP3   OH260274   4.212   5.240   3.766  0.7273  0.0231 -0.5393
12928TIP3    H160275   4.133   5.289   3.745  0.1551 -0.6606  0.0082
12928TIP3    H260276   4.181   5.163   3.814  1.5161 -1.3640 -2.1678
12929TIP3   OH260277   1.007   1.421   3.391  0.4018  0.0816  0.4782
12929TIP3    H160278   0.970   1.336   3.414  0.1002  0.1174  0.1328
12929TIP3    H260279   0.971   1.482   3.455  0.4292 -0.0106  0.5807
12930TIP3   OH260280   2.449   4.825  11.116 -0.3419 -0.0514 -0.2576
12930TIP3    H160281   2.394   4.795  11.043 -1.3779 -0.2213  0.5831
12930TIP3    H260282   2.470   4.916  11.094  0.1067 -0.3743 -1.2059
12931TIP3   OH260283   1.313   4.815  12.375  0.3613  0.5181  0.4630
12931TIP3    H160284   1.402   4.783  12.361  0.0214  0.0185 -0.5919
12931TIP3    H260285   1.309   4.834  12.469  1.3811 -0.0449  0.6257
12932TIP3   OH260286   2.617   1.447  14.843  0.3189 -0.0095 -0.2703
12932TIP3    H160287   2.705   1.425  14.813  1.0370  1.1004  0.9668
12932TIP3    H260288   2.558   1.404  14.781  1.7342 -0.8037 -1.0664
12933TIP3   OH260289   0.125   1.576   5.737 -0.1004 -0.1782 -0.6699
12933TIP3    H160290   0.175   1.656   5.755 -0.3323 -0.0740 -0.4916
12933TIP3    H260291   0.108   1.539   5.823 -0.3821 -0.1836 -0.7275
12934TIP3   OH260292   2.728   3.056   6.073  0.5623 -0.2419 -0.2328
12934TIP3    H160293   2.721   3.151   6.084  0.7296 -0.3449  0.8655
12934TIP3    H260294   2.648   3.031   6.028  0.8276  0.5127 -1.1280
12935TIP3   OH260295   5.357   3.188   6.731 -0.2819  0.2743  0.6091
12935TIP3    H160296   5.272   3.180   6.689 -1.4119  3.2536  2.1923
12935TIP3    H260297   5.400   3.260   6.685  1.8970 -1.9125 -0.9233
12936TIP3   OH260298   2.230   6.488  13.495 -0.4968 -0.1387 -0.4629
12936TIP3    H160299   2.222   6.436  13.415  2.1577 -1.9402  0.3804
12936TIP3    H260300   2.239   6.578  13.464 -0.8437 -0.6475 -2.1262
12937TIP3   OH260301   5.984   1.301   2.526  0.0031 -0.5544  0.2094
12937TIP3    H160302   5.913   1.359   2.501  0.1906  0.2643  1.5233
12937TIP3    H260303   5.963   1.217   2.484 -0.8862  0.1180 -0.7175
12938TIP3   OH260304   4.959   3.915  12.498  0.0919 -0.0024  0.5431
12938TIP3    H160305   4.959   3.924  12.594  1.2901  0.4727  0.5117
12938TIP3    H260306   5.046   3.879  12.477 -0.0495  0.1846 -0.3870
12939TIP3   OH260307   2.956   3.281  15.758  0.0327  0.3658  0.0729
12939TIP3    H160308   3.009   3.206  15.733 -1.2113  0.1021 -1.8902
12939TIP3    H260309   2.979   3.349  15.695 -0.9778  0.6659  0.0179
12940TIP3   OH260310   0.161   1.834  12.042  0.0196 -0.0950  0.0960
12940TIP3    H160311   0.245   1.796  12.068  0.6826  1.2281 -0.0452
12940TIP3    H260312   0.102   1.760  12.035  1.6104 -1.2522 -1.4977
12941TIP3   OH260313   3.322   6.490   5.748  0.0294  0.3595 -0.3132
12941TIP3    H160314   3.287   6.578   5.738 -0.5947 -0.0336 -1.7091
12941TIP3    H260315   3.335   6.458   5.658  0.2821 -0.9554  0.1681
12942TIP3   OH260316   6.817   5.018  11.910 -0.3163 -0.2711 -0.4038
12942TIP3    H160317   6.820   4.954  11.839 -0.7603  0.0666 -0.7315
12942TIP3    H260318   6.724   5.026  11.931 -0.1751 -0.4717  0.3068
12943TIP3   OH260319   2.393   2.844   5.689 -0.4724  0.5522 -0.3133
12943TIP3    H160320   2.424   2.892   5.612 -0.3696  0.2095 -0.4868
12943TIP3    H260321   2.462   2.779   5.706  0.0548  1.3604  0.7508
12944TIP3   OH260322   1.332   6.534   4.251  0.7287  0.4528 -0.1053
12944TIP3    H160323   1.295   6.447   4.238  0.1744  0.6071  0.4187
12944TIP3    H260324   1.282   6.591   4.194 -0.2016  0.7465  0.9740
12945TIP3   OH260325   3.839   5.963  16.747  0.0086  0.0927 -0.5275
12945TIP3    H160326   3.856   5.976  16.840  0.8515  2.5156 -0.9665
12945TIP3    H260327   3.817   5.871  16.739 -2.5932  0.3737  2.4559
12946TIP3   OH260328   6.474   0.915  12.857  0.7755  0.1347  0.3496
12946TIP3    H160329   6.411   0.975  12.816  1.1047  0.2443 -0.0051
12946TIP3    H260330   6.555   0.926  12.806  0.4258 -1.6676 -0.6439
12947TIP3   OH260331   4.184   5.550   2.581  0.2137 -0.0747 -0.1538
12947TIP3    H160332   4.089   5.557   2.573  0.2068 -0.3546 -0.3209
12947TIP3    H260333   4.198   5.469   2.630  0.3988 -0.5307 -0.9595
12948TIP3   OH260334   0.497   2.146  10.274  0.1494 -0.0879 -0.5090
12948TIP3    H160335   0.563   2.104  10.330  2.1410  0.6204 -2.2744
12948TIP3    H260336   0.531   2.234  10.258 -2.8090  1.4497  1.1690
12949TIP3   OH260337   1.056   6.248  15.714  0.2877  0.1899  0.5168
12949TIP3    H160338   1.076   6.174  15.658 -2.7143 -0.1562 -0.1858
12949TIP3    H260339   1.026   6.317  15.655 -1.2607  0.4081  1.5147
12950TIP3   OH260340   3.370   5.863   5.678  0.4712 -0.7450  0.2860
12950TIP3    H160341   3.405   5.857   5.767 -3.0658 -2.1358  1.6977
12950TIP3    H260342   3.361   5.773   5.649  0.0952 -0.3464 -0.8708
12951TIP3   OH260343   1.261   4.880   2.487 -0.0742 -0.2418 -0.0289
12951TIP3    H160344   1.176   4.913   2.459  0.5766  1.2429 -0.2899
12951TIP3    H260345   1.312   4.875   2.406  0.6322  0.5199  0.3703
12952TIP3   OH260346   1.458   0.445   0.140 -0.5109 -0.3614  0.0679
12952TIP3    H160347   1.387   0.386   0.114  0.0640 -0.6687 -0.8294
12952TIP3    H260348   1.425   0.533   0.119 -0.9256 -0.4422  0.3706
12953TIP3   OH260349   5.623   2.350   4.027 -0.2797  0.2196  0.0480
12953TIP3    H160350   5.609   2.343   4.121 -0.0100 -0.3106  0.0550
12953TIP3    H260351   5.694   2.288   4.009 -0.2772  0.3764 -0.4887
12954TIP3   OH260352   0.044   2.516   5.821 -0.4973  0.2359  0.0340
12954TIP3    H160353   0.088   2.433   5.839 -0.6058  0.1631 -0.0398
12954TIP3    H260354  -0.020   2.496   5.753  0.5395  0.7055 -1.1069
12955TIP3   OH260355   1.629   5.561  17.021 -0.4766 -0.3020  0.2202
12955TIP3    H160356   1.717   5.529  17.001 -1.2757 -0.6239 -2.9829
12955TIP3    H260357   1.630   5.653  16.992 -1.1507 -0.2365  0.4026
12956TIP3   OH260358   3.715   0.280   1.531 -0.4767 -0.1458 -0.0859
12956TIP3    H160359   3.788   0.315   1.582 -1.3661 -0.0193  1.1226
12956TIP3    H260360   3.728   0.316   1.443  0.3518  0.7006  0.3708
12957TIP3   OH260361   6.071   2.598   3.438 -0.0147  0.4684 -0.3039
12957TIP3    H160362   6.116   2.566   3.360  0.3718 -0.2149  0.1943
12957TIP3    H260363   6.014   2.668   3.406 -0.8846 -0.7254 -1.4149
12958TIP3   OH260364   4.754   4.630   1.367  0.3037  0.2698 -0.0473
12958TIP3    H160365   4.754   4.543   1.325  0.8923 -0.7721  2.0470
12958TIP3    H260366   4.835   4.633   1.417 -1.2073  0.7025  2.4946
12959TIP3   OH260367   2.412   6.386  16.880  0.4772  0.0590  0.1332
12959TIP3    H160368   2.372   6.311  16.836  0.3473 -0.6609  1.4620
12959TIP3    H260369   2.383   6.379  16.971  1.5937  0.9340  0.5653
12960TIP3   OH260370   5.726   3.952   4.078  0.0632  0.4032  0.5590
12960TIP3    H160371   5.692   3.869   4.111  2.0814 -0.6227  0.1278
12960TIP3    H260372   5.649   3.998   4.044 -1.0764 -1.2658  0.8521
12961TIP3   OH260373   3.160   3.257  14.176  0.7650  0.0956 -0.4508
12961TIP3    H160374   3.132   3.335  14.127  0.7653 -0.3232 -1.1193
12961TIP3    H260375   3.193   3.292  14.259 -1.3797  0.6198  0.2022
12962TIP3   OH260376   6.017   6.708   4.755  0.3146  0.3770 -0.2046
12962TIP3    H160377   5.938   6.678   4.711 -0.1644 -0.0501  0.9241
12962TIP3    H260378   5.992   6.713   4.847  1.3347  1.1353  0.0347
12963TIP3   OH260379   2.791   3.504  11.679 -0.4857 -0.0001  0.0176
12963TIP3    H160380   2.822   3.428  11.728 -1.2423  0.3932  1.1435
12963TIP3    H260381   2.820   3.579  11.732 -1.2718  0.4315 -0.1578
12964TIP3   OH260382   6.647   3.732   4.531 -0.1994  0.7218 -0.4550
12964TIP3    H160383   6.628   3.669   4.461 -0.1729  1.3109 -0.9972
12964TIP3    H260384   6.687   3.806   4.486 -1.9968  1.9445 -0.0626
12965TIP3   OH260385   5.812   2.563  11.936 -0.2855  0.0251  0.3456
12965TIP3    H160386   5.828   2.617  11.859 -0.4600  0.8112  0.8451
12965TIP3    H260387   5.896   2.563  11.983 -0.1798 -0.4467  0.1535
12966TIP3   OH260388   6.634   4.962  15.534  0.2477  0.5401  0.5627
12966TIP3    H160389   6.568   5.021  15.571 -0.1990  1.5357 -1.7376
12966TIP3    H260390   6.596   4.929  15.454  2.1344  0.3250 -0.2832
12967TIP3   OH260391   1.900   1.298  15.907 -0.3312 -0.0336  0.9570
12967TIP3    H160392   1.838   1.246  15.855 -0.6706  0.4723  0.8460
12967TIP3    H260393   1.956   1.340  15.841  1.3452 -1.9479  1.1084
12968TIP3   OH260394   0.514   2.087   2.612 -0.6850  0.1139 -0.3860
12968TIP3    H160395   0.516   2.154   2.681 -0.7721 -0.4112  0.1368
12968TIP3    H260396   0.434   2.037   2.630  0.8135 -1.8793  0.9248
12969TIP3   OH260397   0.123   3.253  12.762  0.3954  0.1041  0.7602
12969TIP3    H160398   0.172   3.174  12.740  1.7261  0.7955  1.1874
12969TIP3    H260399   0.121   3.254  12.858 -1.3579 -0.4584  0.7418
12970TIP3   OH260400   5.857   0.713   5.166  1.0174  0.1736  0.0405
12970TIP3    H160401   5.879   0.697   5.258  1.1288  0.8209  0.1332
12970TIP3    H260402   5.870   0.807   5.155  0.6022  0.1649 -0.5315
12971TIP3   OH260403   5.242   2.755   2.803  0.1038 -0.0155  0.3730
12971TIP3    H160404   5.173   2.821   2.805  0.9779  0.9831 -1.3492
12971TIP3    H260405   5.295   2.773   2.881 -1.1903 -0.3827  1.3511
12972TIP3   OH260406   2.649   3.286   0.792 -0.3306  0.2897  0.0112
12972TIP3    H160407   2.570   3.247   0.830  0.9184 -1.1013  1.2560
12972TIP3    H260408   2.642   3.268   0.698 -1.9248  0.9782 -0.0117
12973TIP3   OH260409   0.280   6.584  11.418 -0.0749 -0.7971 -0.5682
12973TIP3    H160410   0.356   6.584  11.477 -2.1528  0.0706  2.1870
12973TIP3    H260411   0.292   6.661  11.363  1.3049 -0.9546 -0.4999
12974TIP3   OH260412   0.056   1.581  11.594  0.1014 -0.1344 -0.0195
12974TIP3    H160413   0.141   1.577  11.552  0.0426 -1.8974 -0.0009
12974TIP3    H260414   0.076   1.592  11.687  0.2641  1.2786 -0.2090
12975TIP3   OH260415   3.358   3.400   0.176  0.0443 -1.0076 -0.4413
12975TIP3    H160416   3.358   3.490   0.142  0.0745 -0.7237  0.3019
12975TIP3    H260417   3.450   3.381   0.192  0.1143 -1.4664 -1.3574
12976TIP3   OH260418   5.421   5.806   4.521  0.3270  0.0367 -0.8315
12976TIP3    H160419   5.339   5.756   4.523  1.0787 -1.1867  0.6013
12976TIP3    H260420   5.475   5.762   4.455  1.1594 -1.3837  0.7433
12977TIP3   OH260421   0.621   6.685  14.113 -0.1823  0.6852 -0.5137
12977TIP3    H160422   0.532   6.683  14.148 -0.1060 -1.1560 -0.3607
12977TIP3    H260423   0.620   6.620  14.042  0.9672  0.8389 -0.6730
12978TIP3   OH260424   5.807   2.529  17.153  0.3002 -0.2961  0.5240
12978TIP3    H160425   5.818   2.460  17.087 -0.2324 -1.2070  1.3823
12978TIP3    H260426   5.754   2.595  17.109  1.4330 -0.0834 -0.5573
12979TIP3   OH260427   0.552   5.814   3.880  0.2852 -0.4194  0.2353
12979TIP3    H160428   0.530   5.721   3.884  0.1501 -0.3621  0.9129
12979TIP3    H260429   0.633   5.823   3.930 -0.3615  0.0157  1.2263
12980TIP3   OH260430   4.302   5.273  12.233  0.4263 -0.5501  0.1544
12980TIP3    H160431   4.348   5.320  12.163  0.1489  0.6410  0.7563
12980TIP3    H260432   4.334   5.313  12.314  0.5297 -1.7281  0.7090
12981TIP3   OH260433   4.634   1.367  13.453 -0.3008 -0.2798  0.0473
12981TIP3    H160434   4.569   1.425  13.493 -1.2344 -0.3854 -1.2862
12981TIP3    H260435   4.633   1.391  13.360  0.8118 -1.0030 -0.1563
12982TIP3   OH260436   0.040   0.297  13.882 -0.4913 -0.0037 -0.2111
12982TIP3    H160437   0.048   0.201  13.875  0.5648  0.0759 -0.0778
12982TIP3    H260438   0.091   0.330  13.808  1.6917  0.5431  1.5067
12983TIP3   OH260439   6.586   1.582  11.801 -0.3727 -0.2617 -0.2460
12983TIP3    H160440   6.620   1.587  11.712 -0.4800 -0.7600 -0.3153
12983TIP3    H260441   6.659   1.611  11.856 -0.9861  2.0838 -0.6363
12984TIP3   OH260442   5.522   1.393  11.764 -0.5277  1.1476  0.8703
12984TIP3    H160443   5.530   1.358  11.853  1.1257  0.1560  0.3610
12984TIP3    H260444   5.563   1.326  11.709 -2.1647  1.4236 -0.7239
12985TIP3   OH260445   4.470   1.128  16.219  0.5724 -0.2373 -0.6583
12985TIP3    H160446   4.537   1.173  16.271  0.9884  0.2085 -1.5551
12985TIP3    H260447   4.402   1.193  16.205 -0.0931 -0.7116  0.3078
12986TIP3   OH260448   4.407   0.448  11.764  0.0986  0.3295  0.0565
12986TIP3    H160449   4.493   0.407  11.759 -0.0355  0.1597 -0.9952
12986TIP3    H260450   4.398   0.474  11.856  0.1192 -2.1104  0.7778
12987TIP3   OH260451   3.771   5.057  16.235 -0.4217  0.3769 -0.7213
12987TIP3    H160452   3.832   5.095  16.298 -1.1164  0.1800  0.0764
12987TIP3    H260453   3.827   5.020  16.166  0.5386 -2.3943  1.4259
12988TIP3   OH260454   4.098   3.502   1.012 -0.0902  0.1694 -0.3306
12988TIP3    H160455   4.003   3.512   1.015 -0.0621  0.2374  0.6899
12988TIP3    H260456   4.115   3.417   1.054  0.4275  1.1543  1.5476
12989TIP3   OH260457   2.788   4.388  12.095  0.0518  0.0001  0.1851
12989TIP3    H160458   2.790   4.356  12.004 -0.6651 -0.0882  0.1978
12989TIP3    H260459   2.783   4.483  12.087 -1.1204 -0.0572  0.1145
12990TIP3   OH260460   4.514   0.297  13.384  0.4461  0.0648  0.5688
12990TIP3    H160461   4.532   0.239  13.310 -0.3880 -0.2058  0.5719
12990TIP3    H260462   4.499   0.237  13.457 -1.9526  0.2389  0.2330
12991TIP3   OH260463   1.774   1.297   1.828  0.7687  0.1470 -0.0313
12991TIP3    H160464   1.756   1.391   1.819  0.9887  0.1764 -0.1621
12991TIP3    H260465   1.869   1.292   1.843  0.8875 -0.1063 -0.8252
12992TIP3   OH260466   0.168   0.583  13.527  0.3393  0.8539 -0.3116
12992TIP3    H160467   0.246   0.581  13.471  0.4408 -0.7574 -0.1338
12992TIP3    H260468   0.097   0.556  13.469  0.4805 -1.0354  0.3628
12993TIP3   OH260469   3.222   4.020   0.173  0.3885  0.2858 -0.1310
12993TIP3    H160470   3.175   4.101   0.194  0.6066  0.7975 -1.5284
12993TIP3    H260471   3.154   3.953   0.166  0.2265  0.3003  1.2106
12994TIP3   OH260472   1.174   1.990   4.897  0.0499 -0.1835 -0.1988
12994TIP3    H160473   1.269   1.981   4.909 -0.0079  1.6863  1.8291
12994TIP3    H260474   1.166   2.038   4.814  0.8802 -0.0167 -0.1955
12995TIP3   OH260475   6.029   5.265   6.647  0.2987  0.7477  0.0909
12995TIP3    H160476   6.080   5.189   6.676  0.7822  1.0368  0.0217
12995TIP3    H260477   6.095   5.335   6.639 -0.1839  1.2437  0.4309
12996TIP3   OH260478   5.190   3.644  14.071  0.0737 -0.3323 -0.2806
12996TIP3    H160479   5.220   3.579  14.007  0.3277 -0.6426  0.1593
12996TIP3    H260480   5.235   3.621  14.152  0.1228  0.3623 -0.1121
12997TIP3   OH260481   6.479   2.309   0.374  0.2834 -0.2878  0.4855
12997TIP3    H160482   6.468   2.252   0.298 -1.1005 -0.9101  1.1394
12997TIP3    H260483   6.569   2.293   0.404  0.5625 -0.6386 -0.5262
12998TIP3   OH260484   3.167   5.002   4.868 -0.3855  0.2953  0.6248
12998TIP3    H160485   3.126   5.005   4.954 -0.3597 -0.0525  0.6510
12998TIP3    H260486   3.100   5.038   4.809 -0.6174  0.0139  0.7109
12999TIP3   OH260487   6.538   4.443   1.901 -0.1346 -0.6244 -0.2086
12999TIP3    H160488   6.490   4.516   1.939  1.0306 -0.3834  0.8293
12999TIP3    H260489   6.503   4.366   1.946  0.1911 -0.4883  0.2785
13000TIP3   OH260490   3.164   3.797   5.207  0.7926  0.0531  0.0356
13000TIP3    H160491   3.182   3.889   5.229  0.4224  0.4540 -1.2396
13000TIP3    H260492   3.069   3.789   5.213  0.8209 -0.2196  0.0858
13001TIP3   OH260493   0.808   3.345   3.755 -0.1301  0.2668 -0.3493
13001TIP3    H160494   0.718   3.312   3.765 -0.1998  0.4300 -0.4328
13001TIP3    H260495   0.820   3.405   3.828 -0.0209  0.0945 -0.2272
13002TIP3   OH260496   0.106   3.908  13.935  0.5468 -0.4971  0.5160
13002TIP3    H160497   0.161   3.930  14.010  2.0136  0.1454 -0.7173
13002TIP3    H260498   0.153   3.835  13.893 -0.4941 -1.1408  0.4567
13003TIP3   OH260499   6.138   5.897   1.779 -0.0704  0.0362  0.2185
13003TIP3    H160500   6.121   5.805   1.759 -1.3379  0.1077  0.8832
13003TIP3    H260501   6.175   5.933   1.699  0.9436 -1.1824  0.1402
13004TIP3   OH260502   5.129   3.797  13.837  0.0620  0.3043 -0.2959
13004TIP3    H160503   5.045   3.753  13.852  1.2268 -2.4844 -1.5523
13004TIP3    H260504   5.171   3.797  13.924  0.2648 -1.6281 -0.3658
13005TIP3   OH260505   0.697   3.682  14.792 -0.0967  0.3077  0.3862
13005TIP3    H160506   0.776   3.726  14.762 -0.7826  1.5430  0.3365
13005TIP3    H260507   0.699   3.692  14.887 -1.1269  2.0166  0.2543
13006TIP3   OH260508   6.112   5.517   3.262  0.1517 -0.0390  0.1089
13006TIP3    H160509   6.139   5.581   3.196  2.5146  1.2859  2.2639
13006TIP3    H260510   6.163   5.439   3.242 -1.0202 -0.5023 -1.1305
13007TIP3   OH260511   5.663   4.161  11.442  0.5071 -0.0905 -0.4022
13007TIP3    H160512   5.711   4.202  11.514 -1.7508 -1.8648  2.2241
13007TIP3    H260513   5.700   4.072  11.437 -0.7074 -0.6145 -0.1077
13008TIP3   OH260514   6.207   5.229   6.353 -0.4393  0.2862 -0.2106
13008TIP3    H160515   6.274   5.214   6.287 -0.2352  0.4657 -0.0438
13008TIP3    H260516   6.250   5.280   6.421 -0.7922  0.5617 -0.1878
13009TIP3   OH260517   1.576   5.614   0.221 -0.0920  0.2615 -0.3572
13009TIP3    H160518   1.644   5.552   0.196 -0.8939 -0.4948 -0.7159
13009TIP3    H260519   1.494   5.571   0.194 -0.6724  1.3470 -0.3340
13010TIP3   OH260520   6.788   4.311   0.416  0.4051 -0.4039 -1.2447
13010TIP3    H160521   6.760   4.402   0.406  0.9372 -0.1916 -0.7980
13010TIP3    H260522   6.877   4.309   0.383  0.1627 -0.9073 -1.8808
13011TIP3   OH260523   2.733   0.235   2.155 -0.5590  0.0468 -0.2736
13011TIP3    H160524   2.759   0.240   2.247  0.7636  1.2218 -0.6861
13011TIP3    H260525   2.771   0.153   2.124 -0.1158  0.1578 -0.0291
13012TIP3   OH260526   4.878   6.492   3.610  0.2057 -0.4911 -0.3725
13012TIP3    H160527   4.811   6.488   3.678 -0.7747 -0.1212 -1.3204
13012TIP3    H260528   4.831   6.479   3.528  0.9865  1.9439 -1.2344
13013TIP3   OH260529   3.097   2.104  11.480 -0.0423 -0.4290  0.2252
13013TIP3    H160530   3.189   2.126  11.465 -0.8372 -0.1917 -5.5735
13013TIP3    H260531   3.099   2.016  11.518  2.5426 -0.0733  1.0283
13014TIP3   OH260532   4.124   5.200  15.325  0.0901 -0.0840 -0.6592
13014TIP3    H160533   4.177   5.197  15.405  0.9984  1.3126 -1.1817
13014TIP3    H260534   4.164   5.270  15.273 -1.6854  0.3356 -1.4835
13015TIP3   OH260535   6.059   0.271   2.240  0.3591  0.0407 -0.3385
13015TIP3    H160536   6.080   0.180   2.262  1.7530  0.4716  0.1697
13015TIP3    H260537   5.970   0.284   2.272  0.7006 -0.7058  0.9549
13016TIP3   OH260538   1.547   3.063  16.434  0.0423 -0.4578  0.1366
13016TIP3    H160539   1.493   3.101  16.504 -1.2569 -1.0597 -0.5233
13016TIP3    H260540   1.569   3.138  16.378 -0.9644 -0.3767 -0.1536
13017TIP3   OH260541   4.776   1.017  15.707 -0.2161 -0.3242  0.2106
13017TIP3    H160542   4.824   1.049  15.630  0.2773  2.1169  1.4748
13017TIP3    H260543   4.684   1.032  15.685 -0.0948  0.0829 -0.0355
13018TIP3   OH260544   0.016   0.408  11.428  0.6610 -0.1829  0.3660
13018TIP3    H160545   0.018   0.495  11.468 -0.1061  0.2890 -0.6136
13018TIP3    H260546   0.042   0.349  11.499  0.4593  0.7628  1.2435
13019TIP3   OH260547   4.693   0.931  14.129 -0.2774  0.0630  0.5840
13019TIP3    H160548   4.620   0.920  14.069  1.9235 -1.8182 -1.8253
13019TIP3    H260549   4.698   1.026  14.143 -3.8034  0.1324  1.6545
13020TIP3   OH260550   2.915   0.999  17.148 -0.4399  0.2995 -0.6760
13020TIP3    H160551   2.950   0.960  17.228 -1.3735 -0.9073 -0.8509
13020TIP3    H260552   2.989   1.048  17.111  0.5421 -0.7293 -0.1053
13021TIP3   OH260553   4.799   6.553   5.155 -0.2035 -0.2000  0.1980
13021TIP3    H160554   4.823   6.486   5.092  0.6047  0.7940 -0.5734
13021TIP3    H260555   4.782   6.631   5.101 -1.5880  0.0981  1.0309
13022TIP3   OH260556   1.551   2.121   3.433 -0.2357 -0.2280  0.6785
13022TIP3    H160557   1.476   2.123   3.493  1.6312 -0.9249  3.1263
13022TIP3    H260558   1.597   2.203   3.451 -1.0334  0.7714 -1.6897
13023TIP3   OH260559   4.179   5.592  16.210 -0.0068  0.0352  0.1151
13023TIP3    H160560   4.107   5.655  16.218 -0.7151 -0.8007  0.3734
13023TIP3    H260561   4.245   5.625  16.272 -0.9933 -0.2934  1.3832
13024TIP3   OH260562   1.211   6.037  12.404  0.0284 -0.4787 -0.5492
13024TIP3    H160563   1.132   6.019  12.454 -0.1832  0.8053 -0.4228
13024TIP3    H260564   1.233   5.952  12.364  1.6786 -2.1955  3.7097
13025TIP3   OH260565   1.618   1.572  16.874 -0.5527  0.2599  0.1058
13025TIP3    H160566   1.625   1.649  16.932 -0.3759  1.8032 -1.8890
13025TIP3    H260567   1.658   1.601  16.792 -1.8013 -1.5054 -1.1620
13026TIP3   OH260568   0.741   2.544   5.466 -0.7792  0.3729 -0.0658
13026TIP3    H160569   0.753   2.638   5.454  0.3968  0.3092  0.5662
13026TIP3    H260570   0.766   2.528   5.556 -1.3961 -0.4866 -0.0472
13027TIP3   OH260571   0.272   0.780   5.363 -0.5473  0.2858  0.3256
13027TIP3    H160572   0.366   0.759   5.362 -0.4884  0.5622  0.1957
13027TIP3    H260573   0.230   0.699   5.334 -0.4651 -0.4379  2.1611
13028TIP3   OH260574   4.004   1.789  13.386  0.7795 -0.1224  0.5270
13028TIP3    H160575   4.025   1.803  13.478 -0.4785  1.6432  0.5699
13028TIP3    H260576   3.922   1.837  13.372  0.6922 -0.7623 -1.3961
13029TIP3   OH260577   2.105   5.864   4.117 -0.3115  0.1006 -0.6906
13029TIP3    H160578   2.185   5.890   4.071 -0.5488 -1.0209 -1.7757
13029TIP3    H260579   2.054   5.945   4.124  1.7629  1.2658  1.8385
13030TIP3   OH260580   4.973   6.315  12.317  0.1972 -0.2550 -0.2020
13030TIP3    H160581   5.026   6.318  12.396  1.6008  1.0586 -1.1682
13030TIP3    H260582   4.995   6.395  12.270  0.0957 -1.4522 -2.3752
13031TIP3   OH260583   2.759   0.140  15.208 -0.5761  0.1371  0.0671
13031TIP3    H160584   2.847   0.161  15.238 -1.1601  1.0627  1.1831
13031TIP3    H260585   2.736   0.059  15.254  0.7244 -1.6146 -2.3214
13032TIP3   OH260586   1.580   4.305   1.470 -0.2879  0.2526  0.0366
13032TIP3    H160587   1.539   4.336   1.551  2.7248 -0.6320  1.9445
13032TIP3    H260588   1.529   4.227   1.446 -1.3863  0.6908  0.9086
13033TIP3   OH260589   3.832   0.424  11.248  0.7545 -0.0582  0.2598
13033TIP3    H160590   3.878   0.436  11.165  0.4696 -1.0136 -0.0441
13033TIP3    H260591   3.877   0.483  11.309  1.2427  0.3282 -0.4646
13034TIP3   OH260592   5.992   0.017  13.138  0.2255  0.0406  0.1708
13034TIP3    H160593   6.000  -0.003  13.045 -1.7094  0.1781 -0.0438
13034TIP3    H260594   5.972   0.111  13.141 -0.1373 -0.0477  0.7025
13035TIP3   OH260595   3.012   4.063  14.574  0.2505  0.9219 -0.2879
13035TIP3    H160596   2.925   4.043  14.540  0.0574  1.5397 -0.1626
13035TIP3    H260597   2.996   4.115  14.653  0.7408  1.2505 -0.4043
13036TIP3   OH260598   1.890   2.123   0.899 -0.4561  0.3353  0.1506
13036TIP3    H160599   1.905   2.029   0.886 -0.5771  0.2333  0.7370
13036TIP3    H260600   1.939   2.145   0.979 -1.4770  0.4952  0.7528
13037TIP3   OH260601   6.183   1.612   0.076 -0.1640 -0.2660 -0.2936
13037TIP3    H160602   6.172   1.638  -0.016 -0.0052 -0.0857 -0.2622
13037TIP3    H260603   6.216   1.522   0.071 -0.6365 -0.4374 -0.4033
13038TIP3   OH260604   5.893   2.817   3.401  0.5621 -0.4494  0.5278
13038TIP3    H160605   5.926   2.899   3.364  1.5595 -0.1656  1.9529
13038TIP3    H260606   5.825   2.845   3.463  1.7581 -0.5715  1.9355
13039TIP3   OH260607   3.206   5.602   3.873 -1.0229 -0.4216  0.0132
13039TIP3    H160608   3.146   5.645   3.812  0.4674 -0.3832 -1.4474
13039TIP3    H260609   3.175   5.511   3.875 -0.7819 -0.5359 -1.1799
13040TIP3   OH260610   4.315   2.445  16.349  0.1213  0.2879 -0.3663
13040TIP3    H160611   4.407   2.444  16.323  0.6151 -2.7687  1.2293
13040TIP3    H260612   4.278   2.366  16.308 -0.9537 -0.3221  1.6983
13041TIP3   OH260613   3.257   6.677   4.214 -0.4868 -0.2779  0.2672
13041TIP3    H160614   3.321   6.615   4.250 -1.2996  1.2145  4.5586
13041TIP3    H260615   3.253   6.747   4.278 -3.0800  1.9601 -2.2005
13042TIP3   OH260616   2.625   6.617  15.879 -0.4981  0.0947  0.2319
13042TIP3    H160617   2.562   6.631  15.949  0.2073 -1.3855  1.1727
13042TIP3    H260618   2.681   6.695  15.881 -1.1393  0.5539  0.5818
13043TIP3   OH260619   4.079   5.446   3.089 -0.0516 -0.4664  0.3800
13043TIP3    H160620   3.985   5.459   3.103 -0.2844  0.0978 -1.6051
13043TIP3    H260621   4.120   5.494   3.161 -1.2473  0.3123  0.5625
13044TIP3   OH260622   3.416   2.901  15.074 -0.0031  0.8124  0.2436
13044TIP3    H160623   3.469   2.824  15.095 -0.3385  1.1694  2.4336
13044TIP3    H260624   3.384   2.884  14.985 -0.4702 -1.7747  0.8817
13045TIP3   OH260625   0.588   1.248   2.239  0.3397 -0.1613  0.0103
13045TIP3    H160626   0.579   1.152   2.238 -1.2115 -0.0375  0.0893
13045TIP3    H260627   0.611   1.269   2.329 -5.3102 -0.0404  1.6393
13046TIP3   OH260628   0.081   1.309   0.442  0.0320 -0.3054 -0.4096
13046TIP3    H160629   0.032   1.241   0.488 -2.3103  1.2253 -0.5535
13046TIP3    H260630   0.088   1.277   0.352  1.1826 -1.4912  0.0800
13047TIP3   OH260631   4.321   5.627  13.818 -0.9084  0.5372  0.0858
13047TIP3    H160632   4.372   5.589  13.890 -0.3321 -0.2962 -0.7593
13047TIP3    H260633   4.271   5.697  13.860 -0.7119 -0.0466  1.3424
13048TIP3   OH260634   5.844   1.443  16.480  0.5247 -0.1271 -0.1746
13048TIP3    H160635   5.914   1.504  16.459  1.5154 -1.1802 -0.0066
13048TIP3    H260636   5.862   1.366  16.425 -0.7909 -0.2100 -0.5068
13049TIP3   OH260637   3.317   1.112   2.509  0.2348 -0.3569  0.8561
13049TIP3    H160638   3.337   1.186   2.567 -2.2488  1.3174 -0.2953
13049TIP3    H260639   3.269   1.051   2.564 -1.2416  0.7727  0.8743
13050TIP3   OH260640   5.383   4.060   3.161 -0.3754 -0.7786  0.1567
13050TIP3    H160641   5.407   3.968   3.161  1.3762 -0.3384 -0.4344
13050TIP3    H260642   5.400   4.090   3.072 -0.2557  0.2804  0.5210
13051TIP3   OH260643   4.126   2.954  14.766  0.1592 -0.4029  0.2081
13051TIP3    H160644   4.164   2.968  14.852  0.8569 -1.2054  0.0260
13051TIP3    H260645   4.177   3.010  14.707 -0.6505  0.5495  0.3847
13052TIP3   OH260646   4.069   1.373  11.434  0.2162 -0.3083  0.0892
13052TIP3    H160647   4.129   1.354  11.506 -1.4119 -2.7292  0.8722
13052TIP3    H260648   4.113   1.337  11.357  1.1850  0.7472  0.1399
13053TIP3   OH260649   2.548   2.526   1.110 -0.2601 -0.8836  0.3470
13053TIP3    H160650   2.616   2.571   1.161  0.4100 -1.9521  0.4015
13053TIP3    H260651   2.596   2.478   1.043 -1.1150  0.1903 -1.0665
13054TIP3   OH260652   3.815   6.696  14.176  0.6104 -0.3954 -0.1379
13054TIP3    H160653   3.883   6.656  14.229  2.5267  3.6453  0.6509
13054TIP3    H260654   3.859   6.721  14.094  0.1715  2.3722  0.4330
13055TIP3   OH260655   0.655   2.614   3.470  0.4520 -0.0608 -0.1669
13055TIP3    H160656   0.607   2.676   3.525  2.6920  0.1503  1.6403
13055TIP3    H260657   0.644   2.647   3.381 -1.2169  0.9941  0.4096
13056TIP3   OH260658   4.743   5.324  14.509  0.6129 -0.1305 -0.3864
13056TIP3    H160659   4.823   5.333  14.561  0.8676  0.8820 -0.9374
13056TIP3    H260660   4.686   5.268  14.562  0.4286  1.7947  1.5545
13057TIP3   OH260661   2.503   6.420  12.999  0.3109  0.1497  0.2179
13057TIP3    H160662   2.463   6.402  12.914  2.2478 -1.6581 -0.3412
13057TIP3    H260663   2.521   6.514  12.998  0.1516  0.1792 -1.2866
13058TIP3   OH260664   6.649   3.037   1.344 -0.0196  0.0952  0.1906
13058TIP3    H160665   6.661   3.093   1.268  1.7007  0.5765  0.7764
13058TIP3    H260666   6.704   2.960   1.326  0.5625  0.3028  1.0081
13059TIP3   OH260667   0.721   4.648   3.909 -0.3053  0.0916  0.1829
13059TIP3    H160668   0.795   4.701   3.940  0.2465 -1.1246  0.9927
13059TIP3    H260669   0.655   4.656   3.978 -0.3715  0.0343  0.1270
13060TIP3   OH260670   5.797   1.345   5.793 -0.5203  0.4122 -0.4408
13060TIP3    H160671   5.845   1.280   5.742 -3.1856 -0.5128 -1.8814
13060TIP3    H260672   5.830   1.430   5.762  1.7728 -0.2086  0.2392
13061TIP3   OH260673   4.387   3.113   1.165 -0.1566 -0.1066 -0.1780
13061TIP3    H160674   4.428   3.027   1.180 -0.3233 -0.1504  0.0369
13061TIP3    H260675   4.455   3.165   1.123 -0.2310 -0.5088 -0.7925
13062TIP3   OH260676   0.504   0.641   5.615  0.0399  0.1153  0.0460
13062TIP3    H160677   0.431   0.601   5.662  0.0090  0.2176  0.0857
13062TIP3    H260678   0.463   0.703   5.555  0.1280  0.6661  0.5446
13063TIP3   OH260679   3.287   3.818  11.799 -0.1167  0.1914  0.2728
13063TIP3    H160680   3.246   3.737  11.769 -0.3318 -0.1424  1.4305
13063TIP3    H260681   3.217   3.866  11.842  0.0669  0.8868 -0.2043
13064TIP3   OH260682   5.849   6.461   2.306  0.4169 -0.2917  0.2048
13064TIP3    H160683   5.904   6.409   2.365  0.9255 -0.6664 -0.5876
13064TIP3    H260684   5.780   6.401   2.278 -0.0490 -0.0021  0.7017
13065TIP3   OH260685   6.035   2.816  16.711 -0.1576 -0.7832  0.7813
13065TIP3    H160686   6.117   2.794  16.666  0.6895  1.4423  1.1765
13065TIP3    H260687   6.061   2.838  16.800 -0.9094  1.7721  0.4113
13066TIP3   OH260688   5.018   4.412   4.474 -0.5254  0.5631  0.6276
13066TIP3    H160689   5.039   4.454   4.391  0.0241  0.9873  0.9784
13066TIP3    H260690   5.099   4.416   4.524 -1.0972  1.0842  1.5231
13067TIP3   OH260691   0.052   1.963   4.333  0.0186 -0.1454 -0.1889
13067TIP3    H160692   0.082   1.951   4.424  0.4070  2.3084  0.0482
13067TIP3    H260693   0.120   1.920   4.280 -0.4068 -1.9282  0.6740
13068TIP3   OH260694   5.252   1.890  17.087  0.6077  0.2353  0.2904
13068TIP3    H160695   5.196   1.860  17.016 -0.1700  1.0264  0.5525
13068TIP3    H260696   5.341   1.885  17.052  0.4348 -1.6259  0.0796
13069TIP3   OH260697   3.314   6.110   2.441 -0.1343 -0.0652  0.0757
13069TIP3    H160698   3.336   6.169   2.513  1.0096  0.1770 -0.4535
13069TIP3    H260699   3.310   6.166   2.363 -0.8018 -0.4112 -0.1434
13070TIP3   OH260700   0.922   5.238   1.873 -0.5146  0.7107  0.0936
13070TIP3    H160701   0.827   5.236   1.864 -0.3493  0.4208 -1.7538
13070TIP3    H260702   0.952   5.157   1.833  0.4832  0.4408  1.3190
13071TIP3   OH260703   4.341   0.608  12.547 -0.2665  0.4593 -0.1037
13071TIP3    H160704   4.294   0.564  12.618 -0.1520 -0.2988 -0.4865
13071TIP3    H260705   4.272   0.647  12.494 -0.5034 -0.8928 -0.8242
13072TIP3   OH260706   5.572   5.042  16.226 -0.3150  0.4719 -0.2895
13072TIP3    H160707   5.573   5.095  16.306 -1.3488 -0.8662  0.6378
13072TIP3    H260708   5.514   5.090  16.167  1.1151  1.9112 -0.5776
13073TIP3   OH260709   2.452   0.855  13.373 -0.2977  0.3856  0.3048
13073TIP3    H160710   2.360   0.881  13.374 -1.1126 -2.3048  0.0555
13073TIP3    H260711   2.475   0.856  13.280 -0.6025 -0.6794  0.2173
13074TIP3   OH260712   5.361   5.186   6.240  0.2683 -0.1721 -0.1216
13074TIP3    H160713   5.323   5.244   6.307  0.8611  0.9974 -0.7828
13074TIP3    H260714   5.365   5.100   6.282  0.2806  0.4717  1.2239
13075TIP3   OH260715   1.856   5.810   1.900  0.0637  0.0950  0.2302
13075TIP3    H160716   1.861   5.845   1.811  2.8246  0.5999  0.5458
13075TIP3    H260717   1.786   5.861   1.942 -1.1803 -0.0631 -1.5723
13076TIP3   OH260718   1.134   0.631  11.061  0.0841  0.0795 -0.4114
13076TIP3    H160719   1.102   0.555  11.111  1.2362 -0.1597 -0.0400
13076TIP3    H260720   1.098   0.617  10.973  0.0619 -0.7604 -0.2781
13077TIP3   OH260721   3.637   4.244   3.576 -0.1770  0.5794  0.1026
13077TIP3    H160722   3.677   4.240   3.663 -1.2886 -1.4442  0.5679
13077TIP3    H260723   3.634   4.152   3.547 -0.4743  1.1549 -1.7653
13078TIP3   OH260724   5.789   3.485   0.576 -0.3875 -0.2625 -0.1963
13078TIP3    H160725   5.712   3.460   0.626 -1.4859  1.7811 -0.8506
13078TIP3    H260726   5.768   3.462   0.486  0.6704 -1.7655 -0.0837
13079TIP3   OH260727   3.999   3.512  14.057 -0.3760 -0.0616 -0.7236
13079TIP3    H160728   4.032   3.430  14.019  0.7033 -0.2368  0.5606
13079TIP3    H260729   4.003   3.575  13.985  1.6238 -0.3976 -0.9267
13080TIP3   OH260730   2.251   4.884   2.747 -0.7044  0.2202 -0.0037
13080TIP3    H160731   2.233   4.972   2.780 -1.7543 -0.1567  0.4277
13080TIP3    H260732   2.177   4.832   2.776  0.4802 -1.0777  0.7532
13081TIP3   OH260733   0.833   0.675   2.548 -0.0573 -0.2841 -0.1102
13081TIP3    H160734   0.906   0.678   2.610 -1.3836  0.9986  1.4398
13081TIP3    H260735   0.776   0.605   2.581 -1.0434  0.7725  0.4862
13082TIP3   OH260736   4.228   2.418  14.425  0.1653 -0.3298  0.1545
13082TIP3    H160737   4.170   2.344  14.410  0.8184 -1.1548  1.6522
13082TIP3    H260738   4.169   2.488  14.456 -0.3650 -0.3753 -0.7227
13083TIP3   OH260739   6.576   1.012   3.662 -0.6670  0.5316 -0.1331
13083TIP3    H160740   6.661   1.044   3.632  0.4774 -2.2284  0.0060
13083TIP3    H260741   6.530   0.987   3.582 -1.2552  1.7181 -0.1829
13084TIP3   OH260742   3.995   6.736  15.663 -0.2511  0.1919 -0.0354
13084TIP3    H160743   3.961   6.648  15.681  0.9427 -0.1180  0.7529
13084TIP3    H260744   4.089   6.724  15.650 -0.2405  1.2092 -1.0122
13085TIP3   OH260745   0.494   4.019  13.627  0.1777  0.2232 -0.7242
13085TIP3    H160746   0.421   4.009  13.566 -1.9237 -2.5826  2.0755
13085TIP3    H260747   0.453   4.028  13.713  3.0921  1.0448  0.6529
13086TIP3   OH260748   3.159   3.772  12.672  0.4154 -0.2792  0.3256
13086TIP3    H160749   3.141   3.854  12.718  0.7703 -0.2386  0.3955
13086TIP3    H260750   3.145   3.704  12.739  0.4394 -0.2530  0.3571
13087TIP3   OH260751   0.679   1.036  14.868  0.5565  0.4815 -0.0323
13087TIP3    H160752   0.754   1.087  14.838  2.4372 -1.9568  0.3453
13087TIP3    H260753   0.642   0.999  14.788  1.8203 -0.9867  0.0198
13088TIP3   OH260754   5.834   4.570  16.936 -0.4826  0.3790 -0.2916
13088TIP3    H160755   5.875   4.630  16.998 -1.5079  1.0544 -0.2576
13088TIP3    H260756   5.781   4.627  16.879 -1.4464 -0.4882 -0.2739
13089TIP3   OH260757   2.452   3.932  10.942 -0.4843  0.1643 -0.2319
13089TIP3    H160758   2.428   3.930  11.035  1.4299  1.4749  0.3052
13089TIP3    H260759   2.377   3.974  10.899 -1.5408 -0.7831  0.6558
13090TIP3   OH260760   4.879   3.722  15.405 -0.0897 -0.5115 -0.0540
13090TIP3    H160761   4.819   3.736  15.332  0.8705 -0.3316 -0.8279
13090TIP3    H260762   4.956   3.775  15.383  0.6575 -1.3308  0.5310
13091TIP3   OH260763   5.661   3.439  15.158  0.7100 -0.4648 -0.1892
13091TIP3    H160764   5.719   3.370  15.126 -1.3781 -2.2156 -0.3111
13091TIP3    H260765   5.669   3.508  15.092  0.5060 -1.8465 -1.6983
13092TIP3   OH260766   2.545   2.558   3.472  0.0341 -0.1909  0.5583
13092TIP3    H160767   2.583   2.542   3.386  0.6361 -0.1356  0.8114
13092TIP3    H260768   2.567   2.480   3.523 -0.9994 -0.5786  0.4378
13093TIP3   OH260769   2.781   2.912  15.188  0.4244 -0.0516  0.1658
13093TIP3    H160770   2.748   2.997  15.217  0.4246 -0.0445  0.1447
13093TIP3    H260771   2.753   2.905  15.096  0.1093 -0.2351  0.2754
13094TIP3   OH260772   2.799   1.917  11.879  0.5439  0.3236 -0.0007
13094TIP3    H160773   2.750   1.841  11.910 -0.1961  0.9092  0.2840
13094TIP3    H260774   2.772   1.988  11.937 -0.8615  1.4517 -1.9566
13095TIP3   OH260775   2.060   5.024   0.700 -0.3732 -0.4336 -0.4967
13095TIP3    H160776   2.009   4.943   0.708 -0.1972 -0.3421  1.8125
13095TIP3    H260777   2.126   5.017   0.769  0.0796  1.3677 -0.7431
13096TIP3   OH260778   0.767   4.026  12.194 -0.2372  0.0193  0.3272
13096TIP3    H160779   0.853   4.033  12.236  0.4274  0.6332 -1.1163
13096TIP3    H260780   0.759   4.107  12.144 -1.3113 -0.4109 -0.1924
13097TIP3   OH260781   5.423   1.203   3.795  0.3083 -0.0320 -0.8728
13097TIP3    H160782   5.485   1.202   3.722  0.6865 -3.0123 -0.5457
13097TIP3    H260783   5.366   1.128   3.780 -0.4907  0.1303  1.1650
13098TIP3   OH260784   6.222   1.221  15.636 -0.1672 -0.1744 -0.0414
13098TIP3    H160785   6.205   1.256  15.549 -0.0795  0.4708  0.1968
13098TIP3    H260786   6.144   1.169  15.656  0.0729 -0.8068 -0.7427
13099TIP3   OH260787   1.766   2.238   5.630  0.0008 -0.2206 -0.0971
13099TIP3    H160788   1.799   2.163   5.579 -0.3652  0.9888 -2.1923
13099TIP3    H260789   1.671   2.235   5.618 -0.1871 -0.5161  1.3988
13100TIP3   OH260790   3.431   0.224  14.912 -0.2732 -0.6949 -0.4680
13100TIP3    H160791   3.406   0.191  14.826  0.6432  0.4613 -1.1875
13100TIP3    H260792   3.482   0.303  14.894 -0.9800  0.1533  1.1711
13101TIP3   OH260793   6.509   6.547   4.725  0.2824  0.2265  0.3724
13101TIP3    H160794   6.421   6.584   4.726  0.1877  0.0723 -0.9929
13101TIP3    H260795   6.545   6.567   4.811 -0.7487  1.1091  0.6008
13102TIP3   OH260796   2.495   0.146  17.087 -0.0656  0.1900 -0.1392
13102TIP3    H160797   2.408   0.106  17.081 -0.1721  0.6167 -1.5220
13102TIP3    H260798   2.509   0.185  17.001  1.5405  0.0327  0.0440
13103TIP3   OH260799   1.688   4.845   2.272 -0.7044  0.5056  0.1682
13103TIP3    H160800   1.691   4.937   2.247  1.4890  0.6402  0.8272
13103TIP3    H260801   1.743   4.801   2.207 -2.3948 -0.4771 -0.6280
13104TIP3   OH260802   6.562   6.210   3.664 -0.1540  0.4268 -0.2197
13104TIP3    H160803   6.516   6.261   3.731 -1.1581  0.1647 -0.7034
13104TIP3    H260804   6.653   6.236   3.673 -0.1720 -0.1198  1.7290
13105TIP3   OH260805   5.716   5.051  12.258 -0.5146 -0.2712  0.0106
13105TIP3    H160806   5.735   5.075  12.167 -2.0667  0.4207 -0.1410
13105TIP3    H260807   5.677   4.963  12.251  1.7016 -1.2927  0.2398
13106TIP3   OH260808   0.346   1.822  14.427 -0.1381 -0.2502  0.6198
13106TIP3    H160809   0.407   1.825  14.501  1.7576  0.1127 -0.9147
13106TIP3    H260810   0.394   1.776  14.359 -1.2540  0.8664 -0.9508
13107TIP3   OH260811   0.509   3.764   2.938  0.2466 -0.3452 -0.4095
13107TIP3    H160812   0.595   3.768   2.980  0.2988  0.1612 -0.5669
13107TIP3    H260813   0.474   3.678   2.964 -0.2042  0.4300  1.6523
13108TIP3   OH260814   4.508   6.677  14.757  0.2342  0.0406 -0.0833
13108TIP3    H160815   4.556   6.722  14.688 -1.6343  0.3268 -1.2394
13108TIP3    H260816   4.489   6.745  14.821  2.3814 -0.3212  0.9933
13109TIP3   OH260817   1.409   1.776   0.763  0.5178 -0.1932  0.0481
13109TIP3    H160818   1.393   1.803   0.853 -1.5652 -1.6576  0.1617
13109TIP3    H260819   1.450   1.853   0.722  2.4340  0.1368  2.4581
13110TIP3   OH260820   3.830   1.014  15.960  0.1130 -0.3467 -0.5128
13110TIP3    H160821   3.847   0.923  15.936  0.3763 -0.0363 -1.5146
13110TIP3    H260822   3.777   1.048  15.888 -0.2935  0.1908  0.0381
13111TIP3   OH260823   5.714   3.691   5.639 -0.1659 -0.4193  0.1234
13111TIP3    H160824   5.772   3.639   5.584  0.1415 -0.2736  0.3109
13111TIP3    H260825   5.638   3.710   5.583  0.4507  0.3113 -0.4793
13112TIP3   OH260826   4.095   4.614   3.137 -0.0624 -0.4002  0.2211
13112TIP3    H160827   4.125   4.657   3.217 -1.3870  1.0160 -0.0376
13112TIP3    H260828   4.026   4.555   3.167 -1.9214  1.5695 -0.1164
13113TIP3   OH260829   4.123   4.161  11.167 -0.0508 -0.0119 -0.2881
13113TIP3    H160830   4.156   4.139  11.254 -0.3416  0.5738 -0.0256
13113TIP3    H260831   4.139   4.083  11.114  1.0427 -0.0014  0.0293
13114TIP3   OH260832   2.182   1.098  14.226 -0.6485  0.0020 -0.0915
13114TIP3    H160833   2.124   1.174  14.238  1.2844  1.4402  0.3273
13114TIP3    H260834   2.254   1.132  14.173 -0.3177 -1.8499 -0.8454
13115TIP3   OH260835   6.610   3.877   5.284 -0.1042 -0.0930 -0.9310
13115TIP3    H160836   6.628   3.893   5.192 -0.4676  0.3226 -0.9317
13115TIP3    H260837   6.696   3.868   5.324  0.0748  0.4328 -1.1881
13116TIP3   OH260838   0.219   0.409  12.419  0.5037  0.4101 -0.8078
13116TIP3    H160839   0.226   0.481  12.357 -1.4286  1.3495  0.0213
13116TIP3    H260840   0.193   0.334  12.365  0.2648  0.8682 -1.3407
13117TIP3   OH260841   6.486   3.979  17.023 -0.0843  0.5909 -0.1743
13117TIP3    H160842   6.500   3.925  17.101  0.5748  0.7323 -0.1931
13117TIP3    H260843   6.417   4.039  17.049 -0.8253 -0.2614 -0.1582
13118TIP3   OH260844   6.386   1.025  12.335  0.0148 -0.0610 -0.2111
13118TIP3    H160845   6.415   1.103  12.383 -1.8530 -0.5315  1.7635
13118TIP3    H260846   6.295   1.045  12.310 -0.2692 -1.3439 -0.2380
13119TIP3   OH260847   2.438   1.764  13.802 -0.7983 -0.3262 -0.0438
13119TIP3    H160848   2.516   1.715  13.828 -0.1789  0.2594 -0.7662
13119TIP3    H260849   2.397   1.790  13.884 -0.8342 -1.5920  0.3370
13120TIP3   OH260850   1.647   2.729  11.434 -0.2442 -0.3470  0.2137
13120TIP3    H160851   1.583   2.800  11.437 -1.7067 -1.6028 -0.5340
13120TIP3    H260852   1.697   2.746  11.354  0.5176  0.7513  0.9062
13121TIP3   OH260853   6.375   0.416  16.195 -0.3341  0.1607  0.0436
13121TIP3    H160854   6.297   0.447  16.240 -0.6265 -0.5724  0.0520
13121TIP3    H260855   6.429   0.377  16.264 -1.1276 -1.6585 -0.3195
13122TIP3   OH260856   4.508   1.458  14.496  0.0187  0.1697 -0.5960
13122TIP3    H160857   4.502   1.526  14.563  2.6641 -0.2071  0.0800
13122TIP3    H260858   4.548   1.383  14.542 -0.1337 -0.8305 -2.0594
13123TIP3   OH260859   3.011   4.253  13.825  0.2073  0.0375  0.7374
13123TIP3    H160860   3.036   4.213  13.908 -0.4644 -0.7590  0.5636
13123TIP3    H260861   3.090   4.299  13.795  1.0364 -1.2708  0.8773
13124TIP3   OH260862   1.566   5.383  14.182  0.2852  0.1545 -0.4304
13124TIP3    H160863   1.572   5.411  14.091  0.4441  1.0710 -0.1403
13124TIP3    H260864   1.476   5.350  14.191 -0.5432  2.3526 -0.2813
13125TIP3   OH260865   3.023   6.518   1.987  0.3802  0.7254  0.6016
13125TIP3    H160866   2.963   6.464   2.038  0.5349  0.7813  0.8396
13125TIP3    H260867   3.109   6.502   2.025  0.4359  1.0811  0.6288
13126TIP3   OH260868   6.235   0.887   5.382 -0.4123  0.7988 -0.3861
13126TIP3    H160869   6.209   0.795   5.382  0.1321  0.6370  0.4548
13126TIP3    H260870   6.264   0.903   5.292  0.8100 -0.2382 -0.1986
13127TIP3   OH260871   2.680   1.168  13.320  0.0748  0.1666  0.0551
13127TIP3    H160872   2.757   1.134  13.273  0.5601 -2.0923  2.3719
13127TIP3    H260873   2.716   1.201  13.402 -0.9720  2.6458 -0.4466
13128TIP3   OH260874   4.582   1.539  11.629 -0.1686  0.3346 -0.7793
13128TIP3    H160875   4.651   1.475  11.640  0.4045  1.1304  0.3489
13128TIP3    H260876   4.600   1.580  11.544  0.6579  0.4327 -0.5600
13129TIP3   OH260877   5.509   6.289   2.440  0.6932 -0.2313 -0.0643
13129TIP3    H160878   5.555   6.287   2.356 -0.0907 -2.9637 -0.4811
13129TIP3    H260879   5.544   6.215   2.489 -0.6688 -0.1721  1.0283
13130TIP3   OH260880   0.939   4.474  12.487 -0.1306 -0.7081  0.3612
13130TIP3    H160881   1.030   4.502  12.486 -0.4613  0.5462  2.2401
13130TIP3    H260882   0.927   4.428  12.404  2.0626 -0.4608 -0.1261
13131TIP3   OH260883   2.610   0.769   5.539  0.5231 -0.3961 -0.1416
13131TIP3    H160884   2.651   0.778   5.625 -1.9600  0.8174  0.9714
13131TIP3    H260885   2.666   0.707   5.492  3.2319  0.7486  1.4984
13132TIP3   OH260886   2.820   6.170  15.784  0.2142  0.0283 -0.1035
13132TIP3    H160887   2.762   6.186  15.858 -0.0753  2.0781 -0.7288
13132TIP3    H260888   2.772   6.202  15.708  1.0710 -0.7618 -0.9924
13133TIP3   OH260889   0.210   2.008  14.299  0.3560  0.2259  1.2666
13133TIP3    H160890   0.146   2.032  14.365 -0.3440 -2.1110  1.5117
13133TIP3    H260891   0.250   1.928  14.333  0.0593 -0.9562 -1.0331
13134TIP3   OH260892   0.765   6.337   4.780  0.6841 -0.1541  0.0792
13134TIP3    H160893   0.742   6.273   4.713 -0.9884  0.8857 -0.3933
13134TIP3    H260894   0.860   6.341   4.779  0.7544 -1.8930 -0.5755
13135TIP3   OH260895   2.612   1.773  16.240  0.2510 -0.6546  0.6035
13135TIP3    H160896   2.573   1.725  16.167  1.8059 -1.2484  0.1602
13135TIP3    H260897   2.539   1.823  16.277 -1.1125 -2.3480  0.2654
13136TIP3   OH260898   6.045   4.331  15.506  0.1802 -0.1515 -0.4885
13136TIP3    H160899   6.089   4.392  15.566 -1.5841  1.4270 -0.7627
13136TIP3    H260900   5.991   4.276  15.563 -0.5358  0.5318 -0.4960
13137TIP3   OH260901   2.586   0.265  13.134 -0.3877 -0.5076  0.7304
13137TIP3    H160902   2.526   0.339  13.137 -0.1388 -0.2672 -0.0148
13137TIP3    H260903   2.540   0.198  13.083 -0.9710 -1.2121  2.1337
13138TIP3   OH260904   1.258   0.763   5.628  0.2068 -0.1847 -0.0975
13138TIP3    H160905   1.203   0.793   5.555  0.9936 -1.7939 -1.3747
13138TIP3    H260906   1.196   0.726   5.691 -0.4272  0.7256 -0.1736
13139TIP3   OH260907   5.344   6.098   2.828 -0.3785  0.9033 -0.0978
13139TIP3    H160908   5.308   6.140   2.749 -1.2141  0.9616  0.3042
13139TIP3    H260909   5.267   6.077   2.881 -0.0535 -1.9936 -0.6935
13140TIP3   OH260910   3.548   3.474   4.954 -0.2198 -0.6553  0.4150
13140TIP3    H160911   3.481   3.542   4.954 -0.0420 -0.4575  2.2622
13140TIP3    H260912   3.630   3.521   4.966  0.0452 -1.0742  0.2466
13141TIP3   OH260913   1.113   5.541   4.264  0.3845 -0.0680 -0.5415
13141TIP3    H160914   1.037   5.494   4.300  2.5142 -2.5720  0.9416
13141TIP3    H260915   1.144   5.486   4.192  1.0393  0.6867 -0.8472
13142TIP3   OH260916   5.570   0.428   3.631 -0.4631  0.0915  0.3596
13142TIP3    H160917   5.597   0.459   3.545 -0.2512  1.8206  1.0198
13142TIP3    H260918   5.623   0.479   3.692 -0.2099 -1.5023  1.5101
13143TIP3   OH260919   4.622   0.532  15.132 -0.0219 -0.3971 -0.3281
13143TIP3    H160920   4.697   0.501  15.183 -0.6282 -0.2357  0.6717
13143TIP3    H260921   4.650   0.525  15.041  1.4692  0.3009  0.0600
13144TIP3   OH260922   3.923   1.507  11.215 -0.3395  0.0156 -0.1356
13144TIP3    H160923   3.942   1.437  11.153 -0.6760  0.5319 -0.8304
13144TIP3    H260924   3.999   1.510  11.272 -0.3811 -1.0041 -0.0180
13145TIP3   OH260925   1.273   4.870  14.441  0.1263  0.0738 -0.1137
13145TIP3    H160926   1.360   4.880  14.402  0.0693  0.3843 -0.1597
13145TIP3    H260927   1.286   4.807  14.512  0.5579  0.7695  0.4330
13146TIP3   OH260928   3.883   6.547  15.938  0.5024  0.2538  0.6769
13146TIP3    H160929   3.880   6.457  15.970 -0.7252  0.9375  2.5477
13146TIP3    H260930   3.795   6.562  15.903  0.5807  0.8546  0.7391
13147TIP3   OH260931   1.944   3.120   3.802  0.0015  0.1855  0.1473
13147TIP3    H160932   1.872   3.182   3.800 -0.1790 -0.0741 -1.5531
13147TIP3    H260933   1.945   3.088   3.893 -0.7148  1.6836  0.7040
13148TIP3   OH260934   6.762   4.168   2.936 -0.0288 -0.0492 -0.6389
13148TIP3    H160935   6.678   4.178   2.981  0.7342 -0.8168  0.9646
13148TIP3    H260936   6.782   4.075   2.942  1.5983  0.3475  0.1931
13149TIP3   OH260937   2.866   4.173   4.458  0.0228  0.0560 -0.2721
13149TIP3    H160938   2.871   4.269   4.457  0.3799  0.0648  1.2001
13149TIP3    H260939   2.952   4.146   4.491  0.1015 -0.7995 -1.1538
13150TIP3   OH260940   0.282   2.227  13.437 -0.1501  0.5477  0.2812
13150TIP3    H160941   0.245   2.313  13.414 -1.2847  0.1876  0.7515
13150TIP3    H260942   0.235   2.165  13.382 -0.1251  0.0983  0.7627
13151TIP3   OH260943   1.040   1.290  13.357 -0.4029  0.5907  0.3000
13151TIP3    H160944   1.037   1.352  13.284 -1.3023  1.0850  0.7473
13151TIP3    H260945   1.025   1.205  13.316 -0.8602  0.8607 -0.0967
13152TIP3   OH260946   4.861   4.805   3.399 -0.4564 -0.0913 -0.2088
13152TIP3    H160947   4.765   4.808   3.401 -0.4056  2.2794 -0.3051
13152TIP3    H260948   4.887   4.882   3.348  1.5103 -0.5944 -0.0124
13153TIP3   OH260949   6.755   5.036  16.512 -0.1981 -0.2489 -0.4049
13153TIP3    H160950   6.777   5.124  16.543 -1.6536  0.2587 -0.7417
13153TIP3    H260951   6.733   5.048  16.420 -0.7355 -0.8990 -0.3653
13154TIP3   OH260952   0.984   3.907   3.745 -0.0426 -0.0592  0.3800
13154TIP3    H160953   0.900   3.925   3.787  0.5830 -1.3540  2.2392
13154TIP3    H260954   1.046   3.966   3.787  0.4171 -0.7429  0.6837
13155TIP3   OH260955   2.801   3.199  11.572  0.5728 -0.2284 -0.1519
13155TIP3    H160956   2.806   3.119  11.624 -1.4484 -0.2976 -0.0278
13155TIP3    H260957   2.839   3.175  11.487  1.3582 -0.8913  0.3793
13156TIP3   OH260958   0.744   3.942  14.013 -0.2288  0.0496  0.0596
13156TIP3    H160959   0.661   3.950  14.061 -1.1444 -0.6737 -1.3585
13156TIP3    H260960   0.768   4.032  13.992 -0.6888  0.2630  0.4242
13157TIP3   OH260961   3.526   2.149  11.778 -0.6797  0.2916 -0.5286
13157TIP3    H160962   3.454   2.087  11.765 -1.0097  0.6650 -0.4838
13157TIP3    H260963   3.569   2.118  11.858 -0.8113  0.0865 -0.5364
13158TIP3   OH260964   0.188   4.416  14.037 -0.0724  0.0012  0.3600
13158TIP3    H160965   0.217   4.424  14.128 -1.1868 -0.3810  0.7518
13158TIP3    H260966   0.155   4.503  14.015 -0.4618 -0.0941  0.5565
13159TIP3   OH260967   3.551   0.534   5.398  0.2800  0.5112  0.3187
13159TIP3    H160968   3.511   0.602   5.344  0.8090  1.4246  1.0686
13159TIP3    H260969   3.634   0.514   5.353 -0.4511 -0.5751 -0.6063
13160TIP3   OH260970   5.701   3.549  14.032  0.0115  0.5275 -0.2413
13160TIP3    H160971   5.642   3.513  14.099 -0.4007  4.4974  1.7259
13160TIP3    H260972   5.646   3.611  13.984  1.7668  1.9527 -0.4470
13161TIP3   OH260973   6.783   0.176   0.121  0.0645  0.1876  0.1335
13161TIP3    H160974   6.692   0.186   0.095 -0.1915 -2.6796 -0.2694
13161TIP3    H260975   6.830   0.163   0.039  0.7691  1.1245  0.3775
13162TIP3   OH260976   5.625   4.532   0.038  0.1548 -0.2596 -0.1289
13162TIP3    H160977   5.720   4.543   0.032  0.2635 -1.7091 -1.4326
13162TIP3    H260978   5.602   4.483  -0.040 -1.7168  0.2649  0.0652
13163TIP3   OH260979   4.885   4.805   1.697  0.3944  0.9090 -0.6071
13163TIP3    H160980   4.893   4.860   1.775  2.0185 -0.9019  0.5318
13163TIP3    H260981   4.908   4.717   1.727  0.2792  0.0422 -2.9647
13164TIP3   OH260982   1.256   2.488   4.847  0.0435  0.5858  0.5155
13164TIP3    H160983   1.186   2.525   4.792 -2.3523  0.0687  3.0821
13164TIP3    H260984   1.329   2.549   4.837 -0.1091  0.2423 -3.5630
13165TIP3   OH260985   6.279   0.922  15.527  0.2176  0.3431  0.6509
13165TIP3    H160986   6.369   0.936  15.499 -0.0122  0.2780 -0.1353
13165TIP3    H260987   6.248   1.008  15.556  0.6284  0.3028  1.2038
13166TIP3   OH260988   1.271   2.583   0.512  0.5073 -0.3141 -0.3214
13166TIP3    H160989   1.280   2.675   0.488  0.3515  0.6365  2.9993
13166TIP3    H260990   1.345   2.539   0.469  0.5553  1.3460 -1.9637
13167TIP3   OH260991   0.647   0.521  14.219 -0.0543  0.0194  0.4136
13167TIP3    H160992   0.553   0.538  14.219  0.2303  1.6685 -0.8696
13167TIP3    H260993   0.654   0.426  14.231 -1.8841 -0.2102 -0.1942
13168TIP3   OH260994   3.504   2.174   0.341  0.3319 -0.0877  0.3108
13168TIP3    H160995   3.541   2.093   0.375 -0.7917 -0.3933  0.8358
13168TIP3    H260996   3.419   2.149   0.305 -0.4250  0.9883  1.2894
13169TIP3   OH260997   4.162   0.315   2.638  0.8210 -0.5068 -0.0797
13169TIP3    H160998   4.169   0.410   2.650  2.3760 -0.8824  2.5246
13169TIP3    H260999   4.253   0.285   2.638  0.2866 -2.2236  1.5525
13170TIP3   OH261000   5.457   6.078  17.103 -0.0234 -0.3562 -0.0535
13170TIP3    H161001   5.378   6.031  17.076 -0.8079  0.1317  1.2990
13170TIP3    H261002   5.470   6.053  17.194 -0.4750  2.0159  0.7052
13171TIP3   OH261003   0.447   1.124  13.334  0.8993  0.4845 -0.3400
13171TIP3    H161004   0.366   1.152  13.377  1.1574  0.1327  0.3953
13171TIP3    H261005   0.476   1.201  13.285  1.1122  1.2302  0.9180
13172TIP3   OH261006   5.261   6.430   2.830 -0.0251 -0.0793 -0.6127
13172TIP3    H161007   5.264   6.390   2.743  2.2706 -2.0725  0.3431
13172TIP3    H261008   5.335   6.491   2.831 -0.2088  0.1418 -0.1259
13173TIP3   OH261009   4.274   0.273   0.985  0.4585 -0.0413  0.0480
13173TIP3    H161010   4.218   0.235   0.917 -2.5551  1.5579  1.5254
13173TIP3    H261011   4.291   0.362   0.956 -0.1987  0.4014  0.9815
13174TIP3   OH261012   6.699   2.873   4.025 -0.2608 -0.3160 -0.3837
13174TIP3    H161013   6.784   2.891   3.985 -0.8544 -1.6158 -2.3521
13174TIP3    H261014   6.688   2.778   4.015 -1.8246 -0.1959  0.0922
13175TIP3   OH261015   0.137   5.965  15.826 -0.2382  0.0315  0.3860
13175TIP3    H161016   0.065   5.905  15.807  0.5256 -1.5958  2.3846
13175TIP3    H261017   0.121   5.993  15.917  0.1581  1.8305 -0.0761
13176TIP3   OH261018   5.938   0.246  15.487 -0.1714 -0.1932  0.0748
13176TIP3    H161019   5.874   0.299  15.535  0.8276  0.4677  0.7112
13176TIP3    H261020   5.942   0.286  15.400 -2.1005 -1.4859 -0.6442
13177TIP3   OH261021   3.301   4.970  16.586 -0.1877 -0.2719  0.0616
13177TIP3    H161022   3.260   4.885  16.601 -1.0414 -0.1550 -1.4791
13177TIP3    H261023   3.348   4.959  16.503  0.6046  0.4360  0.4127
13178TIP3   OH261024   2.723   3.504  16.328  0.2571 -0.4131  0.2958
13178TIP3    H161025   2.782   3.578  16.314  1.1831 -0.9927  1.0351
13178TIP3    H261026   2.702   3.508  16.422  0.7014 -1.3621  0.4369
13179TIP3   OH261027   0.858   2.806  15.677 -0.7105 -0.3262  0.0854
13179TIP3    H161028   0.860   2.859  15.756  1.3787 -0.9695  0.4844
13179TIP3    H261029   0.794   2.737  15.696 -0.5757 -0.1947  1.0310
13180TIP3   OH261030   0.671   6.816   3.263  0.1647  0.4679  0.2547
13180TIP3    H161031   0.711   6.885   3.211 -1.6745  0.2386 -1.5524
13180TIP3    H261032   0.657   6.744   3.201 -3.3266  0.6967  0.6555
13181TIP3   OH261033   2.076   2.087  11.752 -0.6495 -0.0212  0.1828
13181TIP3    H161034   2.123   2.064  11.832  0.2004  1.5204  0.1450
13181TIP3    H261035   2.142   2.083  11.683 -1.3727 -1.3120 -0.4415
13182TIP3   OH261036   0.429   0.158  10.767 -0.3347  0.3147 -0.1017
13182TIP3    H161037   0.432   0.235  10.824 -0.3112 -0.6294  1.2010
13182TIP3    H261038   0.520   0.130  10.760 -0.6452 -1.2499  1.7588
13183TIP3   OH261039   0.937   6.475  14.999  0.4530  0.6907 -0.1685
13183TIP3    H161040   0.965   6.549  15.053 -0.2405  1.2752 -0.6079
13183TIP3    H261041   0.984   6.400  15.036 -0.3956  0.9836  1.5643
13184TIP3   OH261042   1.199   4.398   4.756  0.4008  0.1952  0.1546
13184TIP3    H161043   1.238   4.414   4.842  0.8570 -0.0427 -0.0084
13184TIP3    H261044   1.240   4.318   4.725 -1.2207 -0.8127  0.5631
13185TIP3   OH261045   5.721   3.949  11.757  1.0272 -0.4803 -0.4916
13185TIP3    H161046   5.790   3.883  11.761  1.1990 -0.2441  0.5087
13185TIP3    H261047   5.677   3.932  11.673  1.2724 -1.6517 -0.3961
13186TIP3   OH261048   2.317   2.231  12.075  0.3573  0.0264  0.3110
13186TIP3    H161049   2.327   2.151  12.127  1.2128 -0.9350 -1.2949
13186TIP3    H261050   2.225   2.231  12.048  0.1466  0.0341  1.0198
13187TIP3   OH261051   0.485   1.460  13.104 -0.0150 -0.0676 -0.1049
13187TIP3    H161052   0.407   1.471  13.158  0.9274 -0.9824  1.4596
13187TIP3    H261053   0.545   1.529  13.135  0.5660 -0.6623  0.0941
13188TIP3   OH261054   2.029   4.143  16.995 -0.0759 -0.1820 -0.2557
13188TIP3    H161055   1.967   4.192  16.941  0.5623  1.0975  0.1537
13188TIP3    H261056   1.974   4.091  17.053 -0.7606  0.5467 -0.2461
13189TIP3   OH261057   3.079   4.121   1.568 -0.1856 -0.5807  0.1290
13189TIP3    H161058   2.986   4.114   1.549 -0.3229 -0.4036  0.7245
13189TIP3    H261059   3.119   4.141   1.483 -0.7766  0.0856 -0.0064
13190TIP3   OH261060   5.452   3.467   2.919  0.0358  0.7223 -0.1019
13190TIP3    H161061   5.496   3.382   2.913  1.1663  1.2145  0.9672
13190TIP3    H261062   5.383   3.463   2.853 -0.1622 -1.1691  0.1999
13191TIP3   OH261063   6.531   0.247   0.066 -0.0373  0.3803  0.0943
13191TIP3    H161064   6.536   0.228  -0.027 -0.9262 -1.8513  0.4761
13191TIP3    H261065   6.463   0.188   0.100 -0.1080  1.5301  2.0538
13192TIP3   OH261066   4.783   5.486   5.130  0.4612 -0.4387 -0.1114
13192TIP3    H161067   4.787   5.532   5.213 -0.1552 -0.7895  0.1125
13192TIP3    H261068   4.779   5.555   5.064 -0.2205 -0.1733  0.2134
13193TIP3   OH261069   1.118   5.448  15.997  0.2574 -0.4478  0.3485
13193TIP3    H161070   1.204   5.454  16.038  0.0710 -0.0678  0.6878
13193TIP3    H261071   1.132   5.475  15.907  0.3471  0.4018  0.6118
13194TIP3   OH261072   0.894   2.617  14.921  0.1778  0.4036 -0.3904
13194TIP3    H161073   0.924   2.611  14.830  0.2972 -1.2763 -0.2589
13194TIP3    H261074   0.965   2.576  14.972 -0.2386  0.6423  0.3850
13195TIP3   OH261075   1.855   2.200   5.086  0.7108 -0.4667  0.3835
13195TIP3    H161076   1.921   2.264   5.113  1.8825 -1.4162 -0.1137
13195TIP3    H261077   1.838   2.149   5.165  2.4629 -1.8036 -0.0458
13196TIP3   OH261078   4.315   1.977  11.601 -0.2943  0.2401  0.0835
13196TIP3    H161079   4.281   1.896  11.562  0.4681  0.1283 -0.3474
13196TIP3    H261080   4.400   1.953  11.637 -0.8513  0.4232  1.5430
13197TIP3   OH261081   2.773   4.615  14.548  0.2158 -0.2861 -0.4706
13197TIP3    H161082   2.680   4.593  14.536 -0.0286  0.5957 -0.2586
13197TIP3    H261083   2.772   4.694  14.603  1.0703  0.1473 -1.0649
13198TIP3   OH261084   4.175   4.694  17.263 -0.0802  0.1465 -0.0589
13198TIP3    H161085   4.151   4.620  17.208  3.1164 -1.1238  0.1604
13198TIP3    H261086   4.258   4.726  17.226 -1.9104  4.3726 -0.8438
13199TIP3   OH261087   5.689   1.243  15.543 -0.0148  0.8615 -0.0557
13199TIP3    H161088   5.620   1.230  15.608  0.6663  1.8312  0.8810
13199TIP3    H261089   5.753   1.300  15.586  3.2667 -3.0272  0.4700
13200TIP3   OH261090   4.738   0.565   3.107 -0.3697  0.3949 -0.5447
13200TIP3    H161091   4.713   0.482   3.149  1.9465 -0.5313 -0.9605
13200TIP3    H261092   4.693   0.562   3.022  0.2795 -0.7894 -0.8654
13201TIP3   OH261093   4.226   6.214  16.788  0.2788  0.1973  0.4571
13201TIP3    H161094   4.282   6.289  16.768  0.2346  0.2422  0.4973
13201TIP3    H261095   4.176   6.242  16.865  0.8678 -0.1886  0.9913
13202TIP3   OH261096   0.922   5.175  13.597  0.8321  0.2230  0.1863
13202TIP3    H161097   0.999   5.214  13.557  1.5373  0.6220  1.8920
13202TIP3    H261098   0.952   5.090  13.629  0.1051 -0.3780 -0.6930
13203TIP3   OH261099   5.130   4.501   0.081  0.2457 -0.5200 -0.0991
13203TIP3    H161100   5.078   4.510   0.161  2.3163 -2.0510  1.4636
13203TIP3    H261101   5.203   4.561   0.092  0.9089 -1.2355 -0.5585
13204TIP3   OH261102   4.889   6.091  16.910  0.2595  0.1501  0.0200
13204TIP3    H161103   4.878   6.089  17.006 -2.1179  0.4939 -0.2180
13204TIP3    H261104   4.983   6.083  16.897  0.6319  0.1999  2.4058
13205TIP3   OH261105   2.957   0.509  15.499  0.2652 -0.3887  0.4996
13205TIP3    H161106   2.987   0.463  15.577 -0.4039  0.5566  1.3091
13205TIP3    H261107   3.027   0.494  15.435  0.5161 -1.6999  1.0618
13206TIP3   OH261108   1.922   4.112  15.860  0.0176 -0.2765 -0.4135
13206TIP3    H161109   1.955   4.188  15.812  0.5700 -1.2147 -1.5299
13206TIP3    H261110   1.915   4.143  15.951 -0.0825  1.2047 -0.9048
13207TIP3   OH261111   1.395   1.366  16.858 -0.4547 -0.0715 -0.1484
13207TIP3    H161112   1.419   1.282  16.898 -0.8162  0.1591  0.5651
13207TIP3    H261113   1.477   1.414  16.851 -0.4311 -0.0065  0.5678
13208TIP3   OH261114   6.514   6.198   4.440  0.0115 -0.3327 -0.4332
13208TIP3    H161115   6.532   6.284   4.478  1.7827 -1.4898  1.4727
13208TIP3    H261116   6.530   6.209   4.346  1.6899  1.0842 -0.0093
13209TIP3   OH261117   5.869   4.157  13.407 -0.0042 -0.3700 -0.1719
13209TIP3    H161118   5.855   4.151  13.312  1.1990 -1.7253 -0.2878
13209TIP3    H261119   5.943   4.217  13.417 -0.1883 -0.1577 -0.0895
13210TIP3   OH261120   3.350   3.782   5.645  0.5655  0.0461 -0.6267
13210TIP3    H161121   3.328   3.872   5.668 -1.7153 -0.5987 -0.2169
13210TIP3    H261122   3.376   3.742   5.727  3.2514  0.7414 -1.0706
13211TIP3   OH261123   3.618   4.203   6.227 -0.5502  0.1539  0.1416
13211TIP3    H161124   3.538   4.252   6.247 -2.0390 -3.6362  4.1113
13211TIP3    H261125   3.669   4.207   6.308  2.5969  1.0759 -1.8078
13212TIP3   OH261126   6.029   0.720  13.859  0.1611  0.1447 -0.1551
13212TIP3    H161127   6.103   0.769  13.824  0.6919  1.5083  2.7974
13212TIP3    H261128   5.956   0.781  13.856 -0.4341 -0.5926 -1.2855
13213TIP3   OH261129   4.804   1.963   1.663  0.0097 -0.0315  0.3867
13213TIP3    H161130   4.857   1.884   1.675  0.5513  0.5600  2.0475
13213TIP3    H261131   4.794   1.971   1.568  0.0012 -2.0520  0.1944
13214TIP3   OH261132   6.248   0.271  14.674 -0.3267  0.0931 -0.1640
13214TIP3    H161133   6.257   0.211  14.600 -0.1178 -2.2862  1.7534
13214TIP3    H261134   6.164   0.249  14.714 -0.0028  0.7049  0.8858
13215TIP3   OH261135   6.154   3.599  15.910  0.0007  0.0687  0.6080
13215TIP3    H161136   6.207   3.525  15.941 -1.3802 -1.7340 -1.2218
13215TIP3    H261137   6.080   3.603  15.970  0.1251  0.0305  0.7636
13216TIP3   OH261138   4.399   6.093   3.027 -0.0876  0.5461  0.1935
13216TIP3    H161139   4.383   5.999   3.027 -1.4826  0.7549 -1.2176
13216TIP3    H261140   4.393   6.119   3.119 -1.5746 -0.4541  0.3885
13217TIP3   OH261141   4.186   2.870  15.202  0.0785  0.2238 -0.0606
13217TIP3    H161142   4.182   2.909  15.114 -3.2077 -1.8259 -0.8820
13217TIP3    H261143   4.223   2.783  15.188 -1.1464 -0.3891  0.4518
13218TIP3   OH261144   0.281   4.978  12.197 -0.3090 -0.0261  0.0836
13218TIP3    H161145   0.241   5.018  12.274  0.2734  0.3658  0.1830
13218TIP3    H261146   0.261   4.884  12.206  0.3746 -0.0915  1.0961
13219TIP3   OH261147   3.052   0.407   1.147 -0.0558  0.4070 -0.2906
13219TIP3    H161148   2.982   0.394   1.083 -0.2835 -0.5151  0.1388
13219TIP3    H261149   3.079   0.318   1.172  0.9005  0.7577 -0.0560
13220TIP3   OH261150   4.736   3.691  11.910 -0.1852  0.0806  0.3083
13220TIP3    H161151   4.663   3.692  11.972 -0.1155  0.3616  0.3828
13220TIP3    H261152   4.740   3.599  11.881 -1.2229  0.2616 -0.4631
13221TIP3   OH261153   5.404   5.494  14.201  0.1328 -0.1717 -0.0050
13221TIP3    H161154   5.432   5.402  14.199  0.0849 -0.1889  0.0820
13221TIP3    H261155   5.467   5.540  14.145 -1.5123 -0.7099 -2.3924
13222TIP3   OH261156   0.967   1.401  16.569 -0.1808  0.1177  0.5088
13222TIP3    H161157   1.030   1.419  16.638  1.4856 -0.8482 -0.7302
13222TIP3    H261158   0.980   1.470  16.504 -0.0044 -0.3753  0.0071
13223TIP3   OH261159   2.370   3.528  14.832  0.1765  0.4512 -0.0321
13223TIP3    H161160   2.394   3.617  14.804  1.3170  0.0133 -0.4972
13223TIP3    H261161   2.447   3.498  14.881 -0.1338 -0.3376 -0.0253
13224TIP3   OH261162   3.185   5.622  10.633 -0.3531  0.2744 -0.0363
13224TIP3    H161163   3.250   5.667  10.686  1.3898 -1.2711 -0.8249
13224TIP3    H261164   3.157   5.547  10.686  1.1403 -1.0766 -1.1295
13225TIP3   OH261165   0.484   3.091   1.507 -0.0821  0.1426  0.6196
13225TIP3    H161166   0.468   3.052   1.593  1.4968  0.5405  1.1127
13225TIP3    H261167   0.454   3.182   1.516 -0.0552  0.1427  0.7122
13226TIP3   OH261168   1.982   5.337   0.017  0.2599 -0.3494  0.0125
13226TIP3    H161169   2.037   5.334  -0.061  0.4628 -0.3939  0.1580
13226TIP3    H261170   2.031   5.287   0.083  0.9064  1.1343  0.6742
13227TIP3   OH261171   2.050   1.192   4.064  0.1846  0.3226 -0.4205
13227TIP3    H161172   2.111   1.265   4.069 -1.7752  2.0321 -0.8012
13227TIP3    H261173   2.011   1.188   4.152  0.8870 -0.7996 -0.1577
13228TIP3   OH261174   1.236   5.622   0.177  0.3086 -0.0522  0.2686
13228TIP3    H161175   1.202   5.546   0.129 -0.0764 -0.4534  1.1710
13228TIP3    H261176   1.238   5.594   0.268  0.9968  0.7263  0.4972
13229TIP3   OH261177   5.875   0.442   1.940 -0.6871  0.4569 -0.2514
13229TIP3    H161178   5.951   0.498   1.954  0.0448 -0.0477 -2.0558
13229TIP3    H261179   5.903   0.355   1.969 -1.4391  0.7525  1.4536
13230TIP3   OH261180   6.737   2.937  11.204  0.0827  0.3016  0.0809
13230TIP3    H161181   6.768   2.926  11.114 -0.5230  1.7819 -0.3306
13230TIP3    H261182   6.780   3.017  11.234  1.8276 -1.2363  1.8069
13231TIP3   OH261183   2.311   6.751   3.327  0.7177 -0.8618  0.4666
13231TIP3    H161184   2.390   6.745   3.272 -1.0259  1.2772 -2.4411
13231TIP3    H261185   2.253   6.684   3.293  0.3293 -0.7627  0.9362
13232TIP3   OH261186   4.379   6.405  17.072 -0.0446  0.2430  0.4959
13232TIP3    H161187   4.304   6.463  17.086  0.2927  0.5997  0.8134
13232TIP3    H261188   4.411   6.429  16.985  0.9722  1.5403  1.1993
13233TIP3   OH261189   6.006   4.305   0.002  0.3462  0.0813  0.0817
13233TIP3    H161190   6.081   4.325  -0.053  0.4086  1.6970  0.7170
13233TIP3    H261191   6.022   4.355   0.083 -0.7002 -0.6908  0.7700
13234TIP3   OH261192   5.967   6.149  14.018  0.7661 -0.2520  0.0545
13234TIP3    H161193   5.931   6.061  14.002  2.2443 -0.5015 -2.2032
13234TIP3    H261194   5.891   6.205  14.028 -0.2361 -1.3220 -1.3602
13235TIP3   OH261195   2.710   5.745  15.781  0.1204  0.1913 -0.3599
13235TIP3    H161196   2.795   5.757  15.739 -0.7373  1.6895 -1.7443
13235TIP3    H261197   2.675   5.664  15.743  0.6376 -0.0521 -0.3136
13236TIP3   OH261198   1.895   3.753   0.670  0.1742  0.5608  0.0260
13236TIP3    H161199   1.971   3.809   0.685 -0.5899  1.3909  0.8710
13236TIP3    H261200   1.820   3.808   0.692 -0.5263 -1.2370  2.3010
13237TIP3   OH261201   2.653   5.565  16.027 -0.4817 -0.3851 -0.4694
13237TIP3    H161202   2.660   5.643  16.082  0.0915  0.3487 -1.5606
13237TIP3    H261203   2.663   5.598  15.937 -1.3962 -1.5622 -1.0144
13238TIP3   OH261204   4.679   0.293  11.882 -0.2708 -0.2310 -0.1420
13238TIP3    H161205   4.710   0.284  11.972 -0.0914  0.8263 -0.0973
13238TIP3    H261206   4.729   0.366  11.847 -0.8920 -0.1534 -0.8619
13239TIP3   OH261207   6.541   3.752  14.910  0.0884  0.3119  0.0015
13239TIP3    H161208   6.545   3.829  14.854 -0.4136  1.8225  1.9838
13239TIP3    H261209   6.630   3.716  14.907  0.4604  1.2530 -0.5331
13240TIP3   OH261210   0.379   0.340  15.192 -0.0616  0.1268  0.0939
13240TIP3    H161211   0.307   0.305  15.139  0.5971  1.6558 -1.8890
13240TIP3    H261212   0.457   0.296  15.159  0.4498  1.6334 -0.7640
13241TIP3   OH261213   3.509   5.304  13.808 -0.2997 -0.0942 -0.1677
13241TIP3    H161214   3.490   5.356  13.887 -2.3220 -1.5691  0.3576
13241TIP3    H261215   3.601   5.320  13.791 -0.2018  1.4698  1.6228
13242TIP3   OH261216   0.356   4.603   4.306  0.8410  0.5038  0.2211
13242TIP3    H161217   0.265   4.573   4.300  1.1044 -0.1314 -0.7266
13242TIP3    H261218   0.363   4.642   4.393 -0.3792  0.6800  0.2518
13243TIP3   OH261219   2.795   4.092   1.375 -0.5100 -0.2668 -0.0825
13243TIP3    H161220   2.770   4.184   1.367  1.1171  0.3310  1.3953
13243TIP3    H261221   2.712   4.045   1.384 -1.3141  1.1140 -0.1722
13244TIP3   OH261222   5.889   0.813   3.540 -0.4658  0.0316  0.1495
13244TIP3    H161223   5.914   0.729   3.578  1.2278  0.2086 -0.5600
13244TIP3    H261224   5.877   0.870   3.616  1.1131 -0.1030  0.5119
13245TIP3   OH261225   5.613   2.861   0.008 -0.1952 -0.4290  0.4454
13245TIP3    H161226   5.667   2.842  -0.069 -0.5834 -0.5335  0.1966
13245TIP3    H261227   5.640   2.949   0.035 -1.7133  0.5851 -1.2224
13246TIP3   OH261228   6.629   1.703   3.636  0.6035 -0.0842  0.2220
13246TIP3    H161229   6.720   1.681   3.614  0.6989 -2.2131  2.5510
13246TIP3    H261230   6.632   1.728   3.728 -1.2902 -1.0259  0.5709
13247TIP3   OH261231   5.945   2.956  15.773  0.5966  0.4178  0.2393
13247TIP3    H161232   5.975   2.869  15.747  2.3116  0.8406  0.7720
13247TIP3    H261233   5.943   2.953  15.868  2.1817  1.4515  0.3167
13248TIP3   OH261234   1.450   2.091   2.859 -0.1256 -0.2431  0.3703
13248TIP3    H161235   1.455   2.010   2.809  2.4170 -0.7124  1.2997
13248TIP3    H261236   1.374   2.079   2.916 -0.7718 -1.2724 -0.7001
13249TIP3   OH261237   1.145   3.874   2.763  0.4020 -0.1947  0.0672
13249TIP3    H161238   1.061   3.856   2.721  0.2136 -0.6417  0.6228
13249TIP3    H261239   1.153   3.970   2.762 -0.1964 -0.1440  0.1617
13250TIP3   OH261240   3.129   0.240  14.067  0.2623 -0.6529  0.1882
13250TIP3    H161241   3.134   0.275  14.156 -0.2281 -2.4094  0.9225
13250TIP3    H261242   3.218   0.212  14.047  0.7822  1.4884 -0.6231
13251TIP3   OH261243   4.578   5.064  14.707 -0.1400  0.4776 -0.0697
13251TIP3    H161244   4.514   4.994  14.719 -0.3370  0.6014 -0.3836
13251TIP3    H261245   4.632   5.034  14.634  0.3244  0.2554  0.3612
13252TIP3   OH261246   0.334   5.115   3.975  0.1699 -0.3497  0.3189
13252TIP3    H161247   0.282   5.053   3.925 -0.0079 -0.3499  0.5021
13252TIP3    H261248   0.359   5.068   4.055 -0.5771  0.0462  0.7938
13253TIP3   OH261249   3.172   4.846   0.594  0.0458  0.0292 -0.1510
13253TIP3    H161250   3.202   4.924   0.641 -0.2838 -0.2077  0.4643
13253TIP3    H261251   3.078   4.863   0.579  0.1302  0.0603 -0.6375
13254TIP3   OH261252   5.401   3.599  15.681  0.0888  0.2441 -0.0239
13254TIP3    H161253   5.350   3.552  15.615  0.2334 -0.1332  0.1323
13254TIP3    H261254   5.364   3.688  15.682 -0.0444  0.1938 -0.4689
13255TIP3   OH261255   3.389   6.109   3.331 -0.2081  0.5650  0.3823
13255TIP3    H161256   3.393   6.118   3.426 -0.4826  0.5517  0.3970
13255TIP3    H261257   3.349   6.190   3.301  1.5887  1.3643  0.1160
13256TIP3   OH261258   4.564   0.537   4.514  0.1929  0.0696 -0.4770
13256TIP3    H161259   4.588   0.587   4.592  0.9629  1.5266 -1.6328
13256TIP3    H261260   4.645   0.490   4.491  0.2394  0.3920 -0.9605
13257TIP3   OH261261   3.501   0.867   2.706 -0.2504 -0.0410  0.5469
13257TIP3    H161262   3.540   0.795   2.755 -1.2655 -0.0634  1.3475
13257TIP3    H261263   3.465   0.925   2.773  2.0180  2.0811 -0.0317
13258TIP3   OH261264   2.048   5.830   3.811  0.6240 -0.3661 -0.4177
13258TIP3    H161265   2.138   5.852   3.837  0.6100 -0.3077 -0.4177
13258TIP3    H261266   2.048   5.735   3.806  1.0293 -0.3015 -1.6933
13259TIP3   OH261267   4.837   2.155  10.407  0.4677 -0.6870 -0.0450
13259TIP3    H161268   4.859   2.184  10.495  1.3358  2.2139 -1.1529
13259TIP3    H261269   4.912   2.179  10.353 -0.4839 -1.4375 -1.7871
13260TIP3   OH261270   0.097   3.896  16.307  0.1522 -0.1672 -0.0453
13260TIP3    H161271   0.118   3.864  16.219  3.3777 -1.4786  1.1539
13260TIP3    H261272   0.051   3.979  16.291  0.5797 -0.4398 -2.9754
13261TIP3   OH261273   1.225   2.561  15.644  0.0503 -0.2777 -0.4518
13261TIP3    H161274   1.232   2.633  15.707 -1.2632  0.7075 -1.4055
13261TIP3    H261275   1.165   2.499  15.686  0.8636 -0.6323  0.1951
13262TIP3   OH261276   6.604   6.807  11.394 -0.0237  0.1587  0.2112
13262TIP3    H161277   6.600   6.771  11.305 -1.6917 -2.3738  1.2672
13262TIP3    H261278   6.698   6.818  11.411  0.3367 -0.1201 -1.5456
13263TIP3   OH261279   2.184   0.946  13.884 -0.7453 -0.1954  0.4361
13263TIP3    H161280   2.119   0.880  13.862 -0.7106 -0.0378 -0.1649
13263TIP3    H261281   2.134   1.017  13.924 -0.6336 -1.0776  2.2030
13264TIP3   OH261282   2.936   5.879  16.795 -0.1219 -0.3495 -0.4678
13264TIP3    H161283   2.987   5.960  16.800  0.7587 -0.9421  0.2305
13264TIP3    H261284   2.850   5.907  16.763  0.5917  0.6676 -1.4991
13265TIP3   OH261285   6.774   2.304  12.674 -0.8496 -0.0136  0.4362
13265TIP3    H161286   6.743   2.366  12.740 -2.4691  1.1301 -1.3681
13265TIP3    H261287   6.751   2.343  12.590  1.1213 -1.4782 -0.8446
13266TIP3   OH261288   2.093   2.167   3.913 -0.5195  0.7481  0.0621
13266TIP3    H161289   2.149   2.209   3.979  0.7835 -2.6608  1.3038
13266TIP3    H261290   2.020   2.132   3.964  0.7969 -2.4299 -0.1085
13267TIP3   OH261291   0.070   6.726  16.848  0.2888  0.0047  0.2452
13267TIP3    H161292  -0.008   6.736  16.902  0.6554  0.3423  0.7178
13267TIP3    H261293   0.141   6.715  16.910  0.5535 -0.7973 -0.1977
13268TIP3   OH261294   3.009   1.182   2.587 -0.4096 -0.0204  0.5381
13268TIP3    H161295   2.967   1.152   2.507  1.0225  0.7853 -0.5209
13268TIP3    H261296   3.049   1.266   2.564  0.4986 -0.0485  1.9361
13269TIP3   OH261297   4.496   4.651   4.328  0.4106  0.1958 -0.1430
13269TIP3    H161298   4.512   4.642   4.234  3.0650  2.8144  0.0142
13269TIP3    H261299   4.487   4.745   4.342 -0.2901 -0.2007  2.1985
13270TIP3   OH261300   2.466   5.469   1.214 -0.2450  0.6494 -0.1877
13270TIP3    H161301   2.385   5.487   1.262  0.1012  0.3693  0.5118
13270TIP3    H261302   2.501   5.556   1.193 -2.1585  0.8033 -2.9802
13271TIP3   OH261303   2.079   6.274  10.636 -0.3112  0.5927  0.5938
13271TIP3    H161304   2.038   6.335  10.574 -2.3869 -0.9310  0.3894
13271TIP3    H261305   2.009   6.212  10.656  1.6464 -1.4666  1.1066
13272TIP3   OH261306   2.372   5.475   2.917 -0.2993  0.5509  0.0718
13272TIP3    H161307   2.288   5.464   2.961 -0.6858 -0.1493 -0.8042
13272TIP3    H261308   2.433   5.420   2.967 -0.0930  1.9574  1.3898
13273TIP3   OH261309   5.469   4.726  14.424 -0.1336  0.1705  0.3094
13273TIP3    H161310   5.524   4.719  14.501 -0.4502  2.0259  0.7299
13273TIP3    H261311   5.522   4.773  14.360 -0.5580  0.3310  0.0709
13274TIP3   OH261312   4.981   6.161  13.098 -0.3085  0.1543 -0.1674
13274TIP3    H161313   4.932   6.242  13.086 -0.7413  0.1533  1.4593
13274TIP3    H261314   5.027   6.148  13.015  0.4273  2.5024 -0.1590
13275TIP3   OH261315   4.302   0.500  16.903  0.1088 -0.0555  0.2736
13275TIP3    H161316   4.356   0.555  16.847 -1.3328 -0.7996 -1.9562
13275TIP3    H261317   4.258   0.561  16.962  0.8123  0.8740 -0.1501
13276TIP3   OH261318   0.030   4.102  14.594  0.4756  0.4408 -0.3492
13276TIP3    H161319  -0.054   4.140  14.567 -0.0335  0.5883  1.3619
13276TIP3    H261320   0.057   4.155  14.669 -0.1213 -2.3659  1.9347
13277TIP3   OH261321   3.579   3.823  12.755 -0.1373 -0.0805  0.1839
13277TIP3    H161322   3.524   3.796  12.681  0.6201  2.0173 -1.1989
13277TIP3    H261323   3.668   3.798  12.730 -0.0081 -0.3107  0.8546
13278TIP3   OH261324   4.807   0.515  11.749  0.5869  0.4682  0.8205
13278TIP3    H161325   4.818   0.590  11.690  0.0873  1.3196  1.7968
13278TIP3    H261326   4.817   0.552  11.837 -1.1343 -0.3351  1.3660
13279TIP3   OH261327   6.715   6.428   3.391 -0.1730  0.5992 -0.0430
13279TIP3    H161328   6.725   6.335   3.409  0.4878  0.5185 -0.7914
13279TIP3    H261329   6.686   6.466   3.474  0.1340 -0.1853  0.4214
13280TIP3   OH261330   5.066   0.798   3.624  0.2725  0.1708  0.1800
13280TIP3    H161331   5.029   0.713   3.648  1.2186 -0.4255 -0.4343
13280TIP3    H261332   5.019   0.861   3.679 -0.7183 -0.7030  0.3493
13281TIP3   OH261333   5.661   3.788  12.561  0.0549 -0.0445  0.6502
13281TIP3    H161334   5.573   3.776  12.523 -1.1355  2.5193  2.4539
13281TIP3    H261335   5.712   3.716  12.524 -3.1291 -2.4159  0.5519
13282TIP3   OH261336   6.126   4.896  14.405  0.1270  0.4124 -0.0476
13282TIP3    H161337   6.168   4.960  14.462  1.9552 -1.1783  0.4283
13282TIP3    H261338   6.067   4.848  14.462  2.9219 -2.0610  0.8797
13283TIP3   OH261339   5.418   1.364   3.375 -0.1399 -0.4821  0.2100
13283TIP3    H161340   5.412   1.268   3.382  0.1794 -0.4227  1.4911
13283TIP3    H261341   5.511   1.381   3.359 -0.4757 -0.4695 -1.8388
13284TIP3   OH261342   5.875   0.222   5.213  0.6510 -0.0693 -0.2514
13284TIP3    H161343   5.800   0.192   5.264  2.2662 -1.8687  1.2104
13284TIP3    H261344   5.853   0.201   5.123 -1.3227  1.0604 -0.0531
13285TIP3   OH261345   5.661   2.718  13.366 -0.7407 -0.3592 -0.0216
13285TIP3    H161346   5.603   2.642  13.353 -1.2469  0.0244 -0.0187
13285TIP3    H261347   5.706   2.728  13.282 -0.6253 -0.6987 -0.0020
13286TIP3   OH261348   6.571   4.949  10.674  0.1688  0.1724 -0.2312
13286TIP3    H161349   6.544   4.862  10.703  0.1395  0.0500 -0.6327
13286TIP3    H261350   6.664   4.954  10.697  0.7341 -0.8004 -2.2100
13287TIP3   OH261351   4.944   5.837  14.023  0.3582 -0.3492 -0.1189
13287TIP3    H161352   5.016   5.785  13.988 -0.2069  0.4627 -2.5805
13287TIP3    H261353   4.932   5.907  13.959 -2.5474 -0.4137  0.2882
13288TIP3   OH261354   1.031   2.862  11.344  0.3789 -0.1261 -0.0570
13288TIP3    H161355   1.059   2.943  11.301 -0.8504 -0.5149 -1.6373
13288TIP3    H261356   0.972   2.891  11.414 -1.2818  0.3036 -1.5891
13289TIP3   OH261357   5.983   5.672  16.840  0.2144  0.3343  0.0362
13289TIP3    H161358   5.986   5.767  16.826  0.1860  0.1622 -1.1984
13289TIP3    H261359   5.893   5.648  16.820  0.3577 -0.0279 -0.1732
13290TIP3   OH261360   2.855   4.152  13.407 -0.3180 -0.3615  0.0015
13290TIP3    H161361   2.936   4.103  13.420 -0.4003 -0.5117 -0.0583
13290TIP3    H261362   2.796   4.118  13.475 -0.9173 -1.5046 -1.0764
13291TIP3   OH261363   2.389   5.922  11.040 -0.5515  0.2621 -0.2437
13291TIP3    H161364   2.342   5.945  10.959  0.1076  0.3027 -0.6166
13291TIP3    H261365   2.468   5.975  11.038 -0.3258 -0.0537  0.2236
13292TIP3   OH261366   0.120   1.061   1.861  0.3620  0.0514  0.5775
13292TIP3    H161367   0.178   1.114   1.807 -0.9878 -0.4801 -1.4508
13292TIP3    H261368   0.133   1.094   1.950  1.4157  2.0400 -0.2898
13293TIP3   OH261369   4.610   5.191  14.960 -0.3912  0.3821 -0.1422
13293TIP3    H161370   4.525   5.205  15.001 -0.2131  1.1016 -0.0198
13293TIP3    H261371   4.589   5.154  14.874 -0.7527 -1.6779  0.7933
13294TIP3   OH261372   0.661   5.752   0.186  0.8638  0.1254 -0.4364
13294TIP3    H161373   0.686   5.664   0.158  1.2641  0.7890 -2.3043
13294TIP3    H261374   0.733   5.808   0.156  0.7383  1.0585  0.9502
13295TIP3   OH261375   5.517   0.882  12.926  0.0165 -0.4967 -0.3963
13295TIP3    H161376   5.471   0.958  12.962 -0.8367 -1.0368 -0.3247
13295TIP3    H261377   5.599   0.917  12.892 -1.7902  1.0516 -3.3915
13296TIP3   OH261378   2.668   0.307  13.797 -0.5812 -0.1804  0.1135
13296TIP3    H161379   2.599   0.351  13.847 -0.4483 -1.8784  1.8337
13296TIP3    H261380   2.748   0.355  13.819 -0.6646 -0.3627  0.7965
13297TIP3   OH261381   4.046   1.127   6.048 -0.1691  0.2166 -0.1677
13297TIP3    H161382   4.119   1.067   6.061  0.1692  0.6554 -0.0411
13297TIP3    H261383   3.991   1.084   5.982  0.5011  0.1510 -0.6901
13298TIP3   OH261384   3.340   4.977  12.972  0.0468 -0.0265  0.2108
13298TIP3    H161385   3.345   5.045  12.905 -0.8266 -0.1850 -0.0180
13298TIP3    H261386   3.309   5.023  13.050 -0.3398 -0.1224  0.1133
13299TIP3   OH261387   1.535   1.192   6.093 -0.2468 -0.0649  0.3629
13299TIP3    H161388   1.600   1.188   6.023 -1.2803 -0.3948 -0.6032
13299TIP3    H261389   1.530   1.102   6.127 -1.6781 -0.5135 -0.9704
13300TIP3   OH261390   4.746   2.486  13.075 -0.6575 -0.6037  0.3314
13300TIP3    H161391   4.710   2.574  13.089  0.2328 -0.0810 -0.5925
13300TIP3    H261392   4.698   2.431  13.137 -0.9607  0.5975  1.2016
13301TIP3   OH261393   0.542   5.622   2.687  0.2655 -0.2849  0.2859
13301TIP3    H161394   0.537   5.593   2.778 -0.7893  0.8247  0.6061
13301TIP3    H261395   0.457   5.596   2.650 -0.1781  1.2071  0.2338
13302TIP3   OH261396   1.597   6.494  12.655 -0.0367  0.4941 -0.5363
13302TIP3    H161397   1.513   6.541  12.657 -1.2608 -1.5997 -1.7206
13302TIP3    H261398   1.608   6.468  12.564  1.6208  0.2132 -0.2729
13303TIP3   OH261399   5.153   5.576   0.856 -0.0670  0.6044 -0.0781
13303TIP3    H161400   5.095   5.612   0.922  0.6798  2.3771 -0.3726
13303TIP3    H261401   5.095   5.523   0.800 -1.3498  2.0547 -0.1639
13304TIP3   OH261402   0.486   1.961   3.395 -0.5987 -0.4190 -0.4598
13304TIP3    H161403   0.561   1.992   3.446  0.6725 -0.7351 -2.0655
13304TIP3    H261404   0.510   1.873   3.368 -1.5595 -0.5319 -0.9855
13305TIP3   OH261405   5.755   0.984  12.806  0.2456 -0.4010 -0.3203
13305TIP3    H161406   5.792   1.059  12.760  1.5263 -1.1155 -0.4912
13305TIP3    H261407   5.831   0.936  12.839 -0.5464 -1.5988 -0.1735
13306TIP3   OH261408   4.769   1.747  15.022 -0.0655  0.1286  0.2127
13306TIP3    H161409   4.785   1.821  15.080 -0.5526  0.3149  0.1116
13306TIP3    H261410   4.823   1.764  14.946 -0.5287  0.6159 -0.0105
13307TIP3   OH261411   0.891   1.035  13.191  0.5046  0.2108  0.7360
13307TIP3    H161412   0.950   1.010  13.120  0.7803  2.4482  0.1228
13307TIP3    H261413   0.822   1.086  13.147 -2.0119 -2.4630  1.4043
13308TIP3   OH261414   2.833   5.531  13.694  0.1989  0.1864  0.5899
13308TIP3    H161415   2.748   5.530  13.650  0.9196  0.1275 -0.8555
13308TIP3    H261416   2.823   5.474  13.770 -1.7868  2.1859  1.8733
13309TIP3   OH261417   1.259   0.793  12.383  0.0662  0.0500 -0.1770
13309TIP3    H161418   1.186   0.743  12.347 -1.0896 -0.0945  2.2361
13309TIP3    H261419   1.235   0.885  12.368 -0.0395 -0.0290 -0.4826
13310TIP3   OH261420   4.932   1.878  11.231 -0.2529 -0.1574  0.1789
13310TIP3    H161421   5.014   1.874  11.280 -0.4400 -1.7595  0.3999
13310TIP3    H261422   4.885   1.952  11.269  1.2654  1.0622 -0.2638
13311TIP3   OH261423   1.200   0.035   2.616 -0.5475 -0.5017 -0.3645
13311TIP3    H161424   1.106   0.017   2.606 -0.4970 -0.7030 -0.4819
13311TIP3    H261425   1.223  -0.007   2.699 -0.1426 -2.1312 -1.2932
13312TIP3   OH261426   5.235   6.738  12.699  0.0674 -0.1851  0.2068
13312TIP3    H161427   5.150   6.755  12.738 -0.5726 -1.6645 -0.4693
13312TIP3    H261428   5.271   6.666  12.752 -0.3410 -1.4608 -1.1988
13313TIP3   OH261429   6.066   2.986  14.980  0.2380 -0.1440 -0.2976
13313TIP3    H161430   6.060   2.952  15.069 -0.2108  0.4510 -0.0968
13313TIP3    H261431   6.132   3.055  14.985  0.3912 -0.2784 -0.4766
13314TIP3   OH261432   0.404   2.595   6.055 -0.0425 -0.5306  0.3903
13314TIP3    H161433   0.425   2.548   5.975  2.1109  2.8561 -1.1374
13314TIP3    H261434   0.486   2.598   6.104 -1.0235 -1.4313  2.1704
13315TIP3   OH261435   0.422   2.716  15.862  0.2573  0.3359  0.9253
13315TIP3    H161436   0.376   2.634  15.883  0.7818  0.1147  1.2176
13315TIP3    H261437   0.355   2.771  15.822  0.1058 -0.5729 -0.1089
13316TIP3   OH261438   0.448   2.643  16.788  0.2714  0.6271 -0.1402
13316TIP3    H161439   0.452   2.713  16.853 -0.4655 -0.0738  0.6938
13316TIP3    H261440   0.430   2.687  16.705  1.3174  1.5418  0.1180
13317TIP3   OH261441   1.904   6.007  13.446  0.7700 -1.1315  0.1412
13317TIP3    H161442   1.885   6.037  13.535 -0.4209  0.4114 -0.6085
13317TIP3    H261443   1.955   6.078  13.408 -0.0155 -1.1124 -0.8909
13318TIP3   OH261444   0.876   0.846  16.622  0.2183 -0.2255 -0.3304
13318TIP3    H161445   0.797   0.791  16.620  0.2620 -0.2696 -0.8408
13318TIP3    H261446   0.860   0.913  16.557  0.7884 -0.4869 -0.7444
13319TIP3   OH261447   5.152   3.311   0.885 -0.0354 -0.0652  0.5052
13319TIP3    H161448   5.136   3.348   0.972 -2.8558 -1.5283  0.6359
13319TIP3    H261449   5.164   3.218   0.900 -0.2130 -0.2802 -0.6579
13320TIP3   OH261450   0.409   6.244   6.981  0.7386 -0.0959 -0.9386
13320TIP3    H161451   0.428   6.159   6.943  1.7327 -0.9678  1.4220
13320TIP3    H261452   0.328   6.272   6.938  0.8414 -1.8327 -2.3138
13321TIP3   OH261453   0.152   2.309  14.197 -0.4662  0.3243 -0.3043
13321TIP3    H161454   0.241   2.291  14.166 -0.1509 -1.0747  1.3187
13321TIP3    H261455   0.101   2.235  14.165 -0.8676  0.7124 -0.5507
13322TIP3   OH261456   3.681   4.458   4.707 -0.3866  0.4349 -0.4197
13322TIP3    H161457   3.634   4.519   4.764 -1.7488 -0.0101 -1.0727
13322TIP3    H261458   3.687   4.503   4.623  0.2790  0.4420 -0.3786
13323TIP3   OH261459   6.224   1.909  15.244  0.1636  0.1967  0.1693
13323TIP3    H161460   6.275   1.984  15.215 -3.0240  2.1986 -0.4286
13323TIP3    H261461   6.208   1.858  15.164 -1.2397  1.1137 -0.1389
13324TIP3   OH261462   6.544   1.375   1.184 -0.3137  0.0008  0.1916
13324TIP3    H161463   6.458   1.363   1.144 -1.4635  1.1524  2.2402
13324TIP3    H261464   6.571   1.463   1.158  0.8198 -0.7950 -1.4315
13325TIP3   OH261465   0.299   0.352  13.042  0.3341 -0.8728 -0.2649
13325TIP3    H161466   0.357   0.320  12.973 -0.1390 -0.2108 -0.9825
13325TIP3    H261467   0.211   0.327  13.014  0.2580 -1.7303  0.7393
13326TIP3   OH261468   6.679   6.627   1.147 -0.2189  0.3980 -0.3169
13326TIP3    H161469   6.767   6.652   1.173 -0.1636  0.2136 -0.3271
13326TIP3    H261470   6.628   6.708   1.152  0.4710  0.9948 -2.6077
13327TIP3   OH261471   6.317   1.852   2.371 -0.0641 -0.8893 -0.1426
13327TIP3    H161472   6.361   1.926   2.328 -1.2715 -0.1005 -0.0401
13327TIP3    H261473   6.354   1.850   2.459 -0.2967 -0.1751 -0.0279
13328TIP3   OH261474   2.029   0.676   3.783  0.5406 -0.4491  0.1839
13328TIP3    H161475   2.120   0.701   3.766  0.2086  0.7159  0.0778
13328TIP3    H261476   2.024   0.666   3.878  0.8181 -0.6548  0.1765
13329TIP3   OH261477   1.805   2.008   2.718  0.1507 -0.6615  0.4034
13329TIP3    H161478   1.740   1.955   2.762 -0.9260  0.2968 -0.0106
13329TIP3    H261479   1.781   2.003   2.625  0.3184  0.1555  0.3116
13330TIP3   OH261480   6.562   3.038   3.020  0.1588 -0.1167  1.1842
13330TIP3    H161481   6.520   3.080   3.095  0.8766  1.4146  0.7671
13330TIP3    H261482   6.517   3.074   2.944  1.2664  0.4675  0.7920
13331TIP3   OH261483   2.997   0.128  15.639 -0.0100 -0.1718  0.0255
13331TIP3    H161484   2.941   0.162  15.709  0.5449  0.7258  0.0434
13331TIP3    H261485   3.042   0.053  15.678  0.4977  0.4886  0.7165
13332TIP3   OH261486   3.796   4.720  14.146 -0.2726  0.3191 -0.1839
13332TIP3    H161487   3.748   4.702  14.065 -2.2449 -0.5468  1.1207
13332TIP3    H261488   3.784   4.813  14.162 -3.7730 -0.3269  1.4417
13333TIP3   OH261489   3.283   4.352  15.217 -0.7601  0.0285  0.0607
13333TIP3    H161490   3.263   4.307  15.299 -0.6519  2.1067  1.2791
13333TIP3    H261491   3.319   4.436  15.245  1.3794 -0.1259 -2.1406
13334TIP3   OH261492   6.798   0.723  13.214 -0.1510  0.3873 -0.2501
13334TIP3    H161493   6.798   0.644  13.268  2.8063  0.1382 -0.5108
13334TIP3    H261494   6.760   0.790  13.271  1.3368 -0.2697  1.5898
13335TIP3   OH261495   2.543   2.881   6.257 -0.7889  0.2785  0.2263
13335TIP3    H161496   2.589   2.869   6.339 -0.5327  1.1051  0.2103
13335TIP3    H261497   2.564   2.971   6.230 -0.5065 -0.1266 -0.9588
13336TIP3   OH261498   3.803   0.614  14.525 -0.2131 -0.1885 -0.1665
13336TIP3    H161499   3.814   0.709  14.522 -2.4731  0.2191  2.3345
13336TIP3    H261500   3.748   0.594  14.449 -0.4668  0.6449 -0.2114
13337TIP3   OH261501   5.531   0.454   3.383 -0.0142 -0.3086  0.1497
13337TIP3    H161502   5.495   0.501   3.308 -1.2046 -0.6446  0.4875
13337TIP3    H261503   5.469   0.382   3.398 -0.2482  0.2200  1.9295
13338TIP3   OH261504   5.209   0.109   0.385  0.1909  0.1464  0.3156
13338TIP3    H161505   5.167   0.126   0.470  1.8066  1.8971  0.7991
13338TIP3    H261506   5.162   0.166   0.324  1.2667  1.4676  0.6983
13339TIP3   OH261507   2.249   6.566   5.226  0.3367  0.3150  0.1589
13339TIP3    H161508   2.327   6.613   5.255  1.9019 -1.6805 -0.7296
13339TIP3    H261509   2.268   6.541   5.135 -1.1930 -0.4691  0.0434
13340TIP3   OH261510   3.787   1.900  15.183  0.0191  0.3377  0.1809
13340TIP3    H161511   3.842   1.871  15.111 -0.2040 -0.3366  0.2766
13340TIP3    H261512   3.849   1.930  15.250  0.2073  1.8227 -0.6313
13341TIP3   OH261513   1.840   4.089  13.186 -0.1331 -0.4447  0.3307
13341TIP3    H161514   1.865   4.153  13.253 -0.1110 -0.0792 -0.0235
13341TIP3    H261515   1.917   4.033  13.176  0.1459 -0.0235  0.0627
13342TIP3   OH261516   3.492   4.650   4.119 -0.5755 -0.2061 -0.1144
13342TIP3    H161517   3.559   4.607   4.067  0.0984  0.9367 -0.2228
13342TIP3    H261518   3.414   4.596   4.108 -0.2519 -0.3609 -1.7307
13343TIP3   OH261519   5.037   6.358   1.135  0.1947 -0.1734 -0.0892
13343TIP3    H161520   4.980   6.414   1.082 -0.6614 -1.1968 -0.2539
13343TIP3    H261521   5.042   6.403   1.219 -1.4761 -0.4477  0.1829
13344TIP3   OH261522   1.129   3.890  16.271  0.1483 -0.3746  0.1473
13344TIP3    H161523   1.069   3.964  16.265  0.4086 -0.2245 -0.5832
13344TIP3    H261524   1.085   3.829  16.332  1.0261  1.3666  2.5985
13345TIP3   OH261525   1.142   4.446   2.234  0.5688 -0.3215 -0.2368
13345TIP3    H161526   1.160   4.521   2.177 -0.1140  0.1448  0.1538
13345TIP3    H261527   1.155   4.480   2.322  0.0989 -0.6122 -0.0534
13346TIP3   OH261528   4.380   4.744  13.024  0.1594  0.3133  0.2955
13346TIP3    H161529   4.332   4.728  13.106  0.5188 -0.2428  0.4046
13346TIP3    H261530   4.327   4.702  12.956 -0.2245  0.9194  0.2176
13347TIP3   OH261531   0.868   0.236   3.367  0.5357  0.4240  0.4737
13347TIP3    H161532   0.787   0.233   3.420 -0.3168  0.6424 -0.8061
13347TIP3    H261533   0.863   0.319   3.320 -0.8812 -1.6628 -3.2924
13348TIP3   OH261534   2.437   5.452   1.540  0.1788  0.3103  0.4601
13348TIP3    H161535   2.472   5.385   1.481 -1.7644  0.0600 -0.4528
13348TIP3    H261536   2.511   5.476   1.595  0.9561 -2.5130  0.7405
13349TIP3   OH261537   1.354   4.533  14.623  0.0355  0.3584 -0.2115
13349TIP3    H161538   1.423   4.591  14.654  0.3914 -0.5325  0.7062
13349TIP3    H261539   1.299   4.518  14.700  0.5525 -1.3626 -0.1462
13350TIP3   OH261540   5.453   2.920   1.431  0.1633 -0.2977 -0.3613
13350TIP3    H161541   5.402   2.846   1.398  0.4373 -0.1219 -1.1954
13350TIP3    H261542   5.409   2.997   1.397  0.7055 -0.1279 -0.6848
13351TIP3   OH261543   1.120   1.281  16.325 -0.1989  0.1268 -0.3936
13351TIP3    H161544   1.081   1.363  16.295 -0.6411  0.2642  0.5467
13351TIP3    H261545   1.177   1.306  16.397 -0.8812 -0.4602  0.3645
13352TIP3   OH261546   2.669   1.100  15.678 -0.3946 -0.0436 -0.2954
13352TIP3    H161547   2.680   1.189  15.644  0.0553  0.0011 -0.0396
13352TIP3    H261548   2.684   1.043  15.603 -0.2668  0.0816 -0.3630
13353TIP3   OH261549   6.532   2.839   1.068 -0.7471 -0.1038  0.5765
13353TIP3    H161550   6.465   2.772   1.049 -0.4284 -0.9496  2.3351
13353TIP3    H261551   6.499   2.918   1.025 -1.8082 -1.0442 -0.3987
13354TIP3   OH261552   6.097   5.948   4.294  0.1056  0.3754 -0.0323
13354TIP3    H161553   6.167   5.996   4.339  0.0757  0.3576  0.0333
13354TIP3    H261554   6.136   5.922   4.210 -0.5733  2.4233 -1.0311
13355TIP3   OH261555   3.674   4.637   2.142  0.2714 -0.1746 -0.5154
13355TIP3    H161556   3.624   4.586   2.205  0.3763  1.1675  0.7000
13355TIP3    H261557   3.762   4.600   2.145  1.0470  1.7411  2.3722
13356TIP3   OH261558   6.565   5.899  12.455  0.1262 -0.0680 -0.9037
13356TIP3    H161559   6.652   5.888  12.416  0.9421 -0.2101  0.8959
13356TIP3    H261560   6.509   5.837  12.407  1.5412 -1.7122 -0.4940
13357TIP3   OH261561   5.616   1.027   1.219  0.2997 -0.0761 -0.2999
13357TIP3    H161562   5.660   1.109   1.242  0.3908 -0.2035 -0.0262
13357TIP3    H261563   5.654   0.962   1.278  0.0758 -0.2763 -0.3779
13358TIP3   OH261564   6.419   3.326   4.085 -0.8494 -0.1046  0.0553
13358TIP3    H161565   6.327   3.303   4.101 -0.6458 -0.8690  0.1091
13358TIP3    H261566   6.469   3.253   4.120 -0.1672  0.7562  0.9001
13359TIP3   OH261567   4.936   1.622   5.668  0.0579  0.3021  0.1095
13359TIP3    H161568   4.997   1.573   5.613  0.0489  0.7009 -0.2592
13359TIP3    H261569   4.863   1.644   5.609 -2.5912 -3.9969  1.5811
13360TIP3   OH261570   0.307   5.390   4.821  0.3288 -0.0900 -0.2300
13360TIP3    H161571   0.287   5.345   4.740 -0.2197  0.5561 -0.4539
13360TIP3    H261572   0.227   5.436   4.844 -0.2918 -2.1407  1.9173
13361TIP3   OH261573   2.077   1.790  16.702 -0.4304 -0.4923 -0.4673
13361TIP3    H161574   2.081   1.883  16.725  0.3637 -0.9623  1.3825
13361TIP3    H261575   2.168   1.762  16.699 -0.6910 -1.4322 -0.0068
13362TIP3   OH261576   4.586   3.438   4.556  0.1862 -0.1339  0.1993
13362TIP3    H161577   4.588   3.525   4.597  0.2829 -0.2781  0.5002
13362TIP3    H261578   4.576   3.377   4.629 -1.2406 -0.2983 -0.1298
13363TIP3   OH261579   5.861   0.755   2.257 -0.0550  0.5694  0.3392
13363TIP3    H161580   5.766   0.743   2.251 -0.0588  0.5484  0.4267
13363TIP3    H261581   5.877   0.842   2.221  0.1319 -0.2557 -1.6310
13364TIP3   OH261582   6.738   1.076  13.167 -0.3040  0.3485  0.3839
13364TIP3    H161583   6.753   1.013  13.237 -0.0407  1.2807  1.1678
13364TIP3    H261584   6.646   1.063  13.143  0.0592 -1.1147 -0.2345
13365TIP3   OH261585   4.865   0.709  15.716 -0.5249 -0.2535 -0.1838
13365TIP3    H161586   4.793   0.702  15.653 -2.3422  0.3725  1.7456
13365TIP3    H261587   4.860   0.800  15.748  0.9612 -0.2870  0.1627
13366TIP3   OH261588   1.869   2.401  14.613 -0.0625  0.2436  0.3997
13366TIP3    H161589   1.837   2.314  14.636  1.0112  0.4187  2.7692
13366TIP3    H261590   1.790   2.453  14.596 -0.7073 -1.1407 -0.8562
13367TIP3   OH261591   6.782   1.377  13.225  0.0956 -0.3808 -0.0258
13367TIP3    H161592   6.791   1.287  13.194 -1.5820 -0.5813  0.0079
13367TIP3    H261593   6.699   1.377  13.272  0.6159  0.9308  0.9064
13368TIP3   OH261594   3.739   0.879  14.135 -0.1121  0.0931 -0.5753
13368TIP3    H161595   3.756   0.973  14.141 -1.2407  0.2710 -0.0341
13368TIP3    H261596   3.707   0.867  14.045 -0.2947  0.2760 -0.5352
13369TIP3   OH261597   1.641   3.944  12.169 -0.0517 -0.0731  0.0497
13369TIP3    H161598   1.576   3.931  12.100  0.7353 -3.6088 -0.1293
13369TIP3    H261599   1.591   3.976  12.244 -1.3214  1.1358 -1.2811
13370TIP3   OH261600   2.174   1.803  16.440  0.3838 -0.6071 -0.7766
13370TIP3    H161601   2.120   1.766  16.370  1.0939 -0.7205 -1.2755
13370TIP3    H261602   2.123   1.791  16.520 -1.0606  0.7634 -1.4580
13371TIP3   OH261603   0.424   6.394  12.212  0.3276 -0.8591  0.0704
13371TIP3    H161604   0.403   6.301  12.205  0.0331 -0.9298  1.7285
13371TIP3    H261605   0.506   6.404  12.163  0.8010 -2.1475  0.5904
13372TIP3   OH261606   3.912   4.021   4.033 -0.3619 -0.1745 -0.3247
13372TIP3    H161607   3.947   3.986   4.115  2.3583  2.6016 -0.2052
13372TIP3    H261608   3.967   4.097   4.014 -3.3580  1.4973 -2.7524
13373TIP3   OH261609   1.017   6.258   4.708  0.0710  0.0823 -0.0072
13373TIP3    H161610   1.021   6.193   4.639 -0.6999  0.2141 -0.1782
13373TIP3    H261611   1.109   6.273   4.732  0.1728 -2.2698  1.1813
13374TIP3   OH261612   0.071   0.960  11.129 -0.5510 -0.3315  0.3517
13374TIP3    H161613   0.043   0.949  11.038 -1.5237  0.0084  0.6100
13374TIP3    H261614   0.156   0.915  11.133 -0.6839 -0.6842 -0.6236
13375TIP3   OH261615   4.700   5.978   0.480 -0.2231  0.1872  0.4700
13375TIP3    H161616   4.725   6.045   0.543 -0.3951  0.0315  0.7033
13375TIP3    H261617   4.784   5.950   0.441 -0.2281  1.1411 -0.2578
13376TIP3   OH261618   1.616   3.245  11.633 -0.6487  0.2030 -0.1442
13376TIP3    H161619   1.606   3.208  11.545  1.4218  0.5890 -0.5476
13376TIP3    H261620   1.706   3.226  11.657 -1.1819  0.1621  1.8890
13377TIP3   OH261621   3.018   4.199  11.828 -0.6098  0.3921  0.7470
13377TIP3    H161622   3.027   4.168  11.738 -0.5526 -0.5226  1.0652
13377TIP3    H261623   2.924   4.209  11.841 -0.5933  1.0201  0.4264
13378TIP3   OH261624   0.838   3.941  13.433  0.3960 -0.1597  0.6680
13378TIP3    H161625   0.849   3.907  13.344  0.5170  1.4623  0.0412
13378TIP3    H261626   0.771   4.009  13.424  0.5975  0.1910  1.7634
13379TIP3   OH261627   6.117   2.203  11.513 -0.5733 -0.2433 -0.0131
13379TIP3    H161628   6.132   2.219  11.606 -1.4761 -1.2880  0.3292
13379TIP3    H261629   6.032   2.243  11.495 -0.7065 -0.6183 -0.2234
13380TIP3   OH261630   2.490   5.231   0.269 -0.3362 -0.0316 -0.1345
13380TIP3    H161631   2.523   5.148   0.236  1.3162 -0.3153  2.1186
13380TIP3    H261632   2.563   5.269   0.317 -1.1426  2.6359 -0.9071
13381TIP3   OH261633   3.281   6.188   4.301  0.5114 -0.1199 -0.1412
13381TIP3    H161634   3.303   6.095   4.306  0.7483 -0.0484  0.1179
13381TIP3    H261635   3.231   6.205   4.381 -1.4979 -0.5541 -1.2686
13382TIP3   OH261636   4.819   2.125   0.492 -0.3272 -0.5540 -0.4244
13382TIP3    H161637   4.880   2.067   0.447  0.5133  0.1624 -0.2286
13382TIP3    H261638   4.804   2.197   0.430 -0.4410 -0.3882 -0.2042
13383TIP3   OH261639   2.350   3.774   1.305  0.4546  0.1397  0.5942
13383TIP3    H161640   2.360   3.682   1.280  0.4370  0.1668  0.4864
13383TIP3    H261641   2.427   3.794   1.358  1.2201  0.4869 -0.6204
13384TIP3   OH261642   5.631   1.999   3.281  0.0052  0.3306 -0.2700
13384TIP3    H161643   5.594   1.942   3.213 -0.3141 -0.4849  0.5904
13384TIP3    H261644   5.592   2.085   3.263  1.0313  0.4641 -2.0091
13385TIP3   OH261645   6.299   0.737   4.295 -0.4483  0.5275  0.3924
13385TIP3    H161646   6.281   0.831   4.294 -1.1797  0.3985 -1.8749
13385TIP3    H261647   6.308   0.715   4.388 -2.7622  2.3536  1.0943
13386TIP3   OH261648   4.639   2.185  13.915  0.0951  0.0110 -0.2998
13386TIP3    H161649   4.599   2.109  13.872 -0.1596 -0.4163  0.6647
13386TIP3    H261650   4.570   2.251  13.916 -0.4334 -0.5288  0.8477
13387TIP3   OH261651   4.640   1.783  16.923 -0.0552 -0.0827 -0.0910
13387TIP3    H161652   4.623   1.877  16.919  0.6822  0.1339  1.6376
13387TIP3    H261653   4.559   1.745  16.958 -0.5109 -0.1491 -1.1996
13388TIP3   OH261654   0.062   4.535  12.670 -0.8425 -0.1141  0.0177
13388TIP3    H161655   0.114   4.455  12.660 -0.2738  0.2437  0.0491
13388TIP3    H261656   0.104   4.598  12.610 -0.0842  0.7448  1.4171
13389TIP3   OH261657   3.745   5.310   4.950 -0.3683 -0.2860  0.4248
13389TIP3    H161658   3.719   5.402   4.959 -2.1026 -0.7919  0.8032
13389TIP3    H261659   3.838   5.314   4.927 -0.7922  1.5933 -1.1366
13390TIP3   OH261660   4.116   3.307   4.141  0.2570 -0.4426  0.8161
13390TIP3    H161661   4.068   3.390   4.145  0.1228 -0.4334 -0.7182
13390TIP3    H261662   4.208   3.332   4.142  0.2168 -0.2037 -0.7111
13391TIP3   OH261663   2.614   1.078   2.379 -0.2391  0.5980  0.5848
13391TIP3    H161664   2.633   1.138   2.452  0.9974  1.4562 -0.4255
13391TIP3    H261665   2.679   1.008   2.387 -0.4811  0.3790  0.6508
13392TIP3   OH261666   2.227   5.995  14.755 -0.5662  0.5327  0.5251
13392TIP3    H161667   2.263   5.991  14.844  0.7974 -0.6934 -0.0473
13392TIP3    H261668   2.266   6.073  14.717  0.5769 -0.1327  0.3043
13393TIP3   OH261669   3.863   1.117  14.145  0.4064  0.7091 -0.2425
13393TIP3    H161670   3.957   1.138  14.146  0.3940  0.7950 -0.8793
13393TIP3    H261671   3.822   1.193  14.187  0.6863  0.3325  0.7250
13394TIP3   OH261672   3.377   3.057   4.373 -0.6228  0.2819 -0.5430
13394TIP3    H161673   3.412   2.972   4.345 -1.2213  0.0460 -0.5901
13394TIP3    H261674   3.300   3.035   4.425 -0.2398  0.7729  0.2263
13395TIP3   OH261675   2.396   2.603   2.765 -0.0451 -0.3142 -0.0278
13395TIP3    H161676   2.338   2.531   2.739 -0.4622  0.4489 -1.2319
13395TIP3    H261677   2.410   2.653   2.684 -0.0575  1.1742  0.8802
13396TIP3   OH261678   4.274   3.566   2.774 -0.6809 -0.0007  0.1658
13396TIP3    H161679   4.322   3.524   2.703 -2.0691 -0.6624 -0.3969
13396TIP3    H261680   4.241   3.494   2.827  0.3817  0.4909  1.5046
13397TIP3   OH261681   2.645   5.723  16.239  0.0287 -0.0137 -0.0358
13397TIP3    H161682   2.682   5.806  16.269  0.4613 -0.0521 -0.4697
13397TIP3    H261683   2.554   5.744  16.219  0.3232  0.5241 -0.8311
13398TIP3   OH261684   2.981   5.094   1.637  0.0418 -0.0159 -0.0684
13398TIP3    H161685   2.911   5.117   1.698 -0.7014  1.3762 -1.3960
13398TIP3    H261686   2.935   5.059   1.561  0.9863 -2.3511  0.3864
13399TIP3   OH261687   1.087   4.994  15.378 -0.4302 -0.0509  0.0428
13399TIP3    H161688   1.009   4.996  15.322  0.8441 -0.0569 -1.7738
13399TIP3    H261689   1.150   5.050  15.332  0.9301 -0.7699  1.0357
13400TIP3   OH261690   3.361   6.762   6.744 -0.1962 -0.2996 -0.1910
13400TIP3    H161691   3.336   6.714   6.666  1.2810 -1.9519  0.3074
13400TIP3    H261692   3.301   6.731   6.812 -0.5775  0.1094 -0.3353
13401TIP3   OH261693   4.308   6.474   3.547  0.1615  0.4499 -0.3250
13401TIP3    H161694   4.242   6.496   3.613  1.3454  2.3619  0.2481
13401TIP3    H261695   4.363   6.409   3.589 -0.8419 -0.5342 -0.5052
13402TIP3   OH261696   2.534   0.400   2.942 -0.9182  0.1197 -0.1910
13402TIP3    H161697   2.477   0.450   3.000 -0.3174 -0.3512  0.8094
13402TIP3    H261698   2.584   0.466   2.895  0.9827  0.4516  2.2481
13403TIP3   OH261699   1.485   2.454  16.430 -0.3541 -0.2191 -0.6974
13403TIP3    H161700   1.472   2.426  16.340 -0.3576  1.2281 -1.1495
13403TIP3    H261701   1.573   2.490  16.432  0.9150 -3.1909  0.6547
13404TIP3   OH261702   3.643   6.376  15.298  0.2034  0.2266  0.2361
13404TIP3    H161703   3.698   6.314  15.347  0.6252  0.4086  0.0013
13404TIP3    H261704   3.564   6.385  15.351  1.4210  1.8750  1.8882
13405TIP3   OH261705   4.725   4.516   3.431  0.7540  0.7253 -0.3361
13405TIP3    H161706   4.668   4.590   3.450  0.8545  0.5403  0.6964
13405TIP3    H261707   4.739   4.474   3.516  1.6053  0.1792 -0.7445
13406TIP3   OH261708   2.164   3.625   0.601 -0.0535 -0.6307  0.4823
13406TIP3    H161709   2.160   3.720   0.588  1.6223 -0.6753 -0.6276
13406TIP3    H261710   2.132   3.611   0.690 -1.5974  0.8393  0.1811
13407TIP3   OH261711   5.027   0.347  16.206 -0.3238  0.0305  0.3441
13407TIP3    H161712   5.089   0.321  16.138 -1.4112 -0.8632 -0.3065
13407TIP3    H261713   5.048   0.291  16.281  0.8974  1.0408  0.7789
13408TIP3   OH261714   4.567   3.342  17.227 -0.2658  0.6506 -0.1274
13408TIP3    H161715   4.583   3.251  17.200  0.0613  0.7327 -0.2196
13408TIP3    H261716   4.563   3.338  17.322  0.4393  0.6388 -0.0916
13409TIP3   OH261717   1.076   0.410  11.198  0.0215 -0.3045  0.6230
13409TIP3    H161718   1.006   0.354  11.164  0.7037 -0.6189 -0.2939
13409TIP3    H261719   1.052   0.426  11.289 -1.9039  0.6294 -0.0183
13410TIP3   OH261720   0.798   4.050  13.671 -0.2270  0.1565  0.4230
13410TIP3    H161721   0.768   3.976  13.723  0.2437 -0.3295  0.0188
13410TIP3    H261722   0.815   4.013  13.584 -0.3205  0.8112  0.1195
13411TIP3   OH261723   1.778   6.355  14.555 -0.3794  0.2826 -1.0615
13411TIP3    H161724   1.813   6.311  14.478  1.4307  0.1388 -0.1751
13411TIP3    H261725   1.830   6.435  14.563 -1.2007  0.7765 -0.5377
13412TIP3   OH261726   3.516   1.992  13.326  0.1800 -0.0523 -0.0132
13412TIP3    H161727   3.478   2.076  13.352 -0.7438 -0.2627 -0.6509
13412TIP3    H261728   3.445   1.947  13.280  1.0716 -0.6482 -0.8238
13413TIP3   OH261729   1.589   0.192   3.701 -0.2022  0.2161  0.4657
13413TIP3    H161730   1.501   0.205   3.739  0.2546  1.2873  1.2030
13413TIP3    H261731   1.574   0.188   3.607 -1.1126 -0.2296  0.6197
13414TIP3   OH261732   5.362   4.901   4.332 -1.0512 -0.1567 -0.4350
13414TIP3    H161733   5.361   4.977   4.274 -0.6117  0.5195  0.4279
13414TIP3    H261734   5.422   4.839   4.290 -0.7752  0.3066 -0.7238
13415TIP3   OH261735   1.480   5.403  12.624 -0.3844  0.1559 -0.2426
13415TIP3    H161736   1.396   5.365  12.596 -1.0655  1.5775 -0.1350
13415TIP3    H261737   1.460   5.447  12.707  0.1518  1.7164 -0.9268
13416TIP3   OH261738   4.257   5.487  10.833 -0.0921  0.3846  0.4972
13416TIP3    H161739   4.206   5.408  10.855 -0.7565  0.9716  1.0822
13416TIP3    H261740   4.201   5.559  10.861  0.8859  1.0504  0.7188
13417TIP3   OH261741   2.787   4.002  14.439  0.5460  0.1889  0.5294
13417TIP3    H161742   2.743   3.922  14.469  0.4529 -0.0731 -0.2690
13417TIP3    H261743   2.715   4.063  14.419  0.5516 -0.0500 -0.2608
13418TIP3   OH261744   4.345   3.495  12.160  0.6967  0.6518  0.5196
13418TIP3    H161745   4.392   3.547  12.095  1.0351  1.8224  1.6823
13418TIP3    H261746   4.253   3.502  12.134  0.8101  1.3006  0.2943
13419TIP3   OH261747   5.740   4.960  11.443 -0.0903  0.6294 -0.7817
13419TIP3    H161748   5.802   4.920  11.504 -0.3040  0.9075 -0.3817
13419TIP3    H261749   5.688   5.020  11.496 -0.4365  0.7003 -1.1902
13420TIP3   OH261750   3.664   1.338   6.291 -0.5682 -0.2843 -0.4160
13420TIP3    H161751   3.583   1.378   6.261  0.0713  0.8583 -0.6551
13420TIP3    H261752   3.654   1.331   6.386 -0.2284  1.5386 -0.2240
13421TIP3   OH261753   4.481   3.401   2.927  0.3302 -0.4892 -0.0297
13421TIP3    H161754   4.464   3.311   2.900  0.7762 -0.6099  0.0787
13421TIP3    H261755   4.412   3.422   2.989  2.4420 -2.1047  2.9802
13422TIP3   OH261756   5.418   0.137  16.126 -0.5635  0.4943 -1.1022
13422TIP3    H161757   5.506   0.138  16.088  0.1397 -0.1279  0.4610
13422TIP3    H261758   5.431   0.159  16.218 -1.5439 -3.2104  0.0459
13423TIP3   OH261759   2.516   3.565   5.159  1.1357 -0.3848 -0.0856
13423TIP3    H161760   2.601   3.543   5.122  0.6260 -2.4979 -0.0482
13423TIP3    H261761   2.462   3.586   5.083  1.4742  0.2472 -0.1585
13424TIP3   OH261762   1.520   0.762  16.725 -0.1903  0.3469 -0.3049
13424TIP3    H161763   1.560   0.766  16.639  1.3547 -0.6287  0.3436
13424TIP3    H261764   1.455   0.693  16.718  0.3533 -0.1493 -0.5323
13425TIP3   OH261765   0.864   3.919   2.671  0.4028  0.2353 -0.3436
13425TIP3    H161766   0.893   3.967   2.593  2.2752  0.5726  0.5179
13425TIP3    H261767   0.787   3.967   2.700  0.5621  1.0104 -1.1437
13426TIP3   OH261768   2.502   3.365  16.197 -0.0486 -1.1424 -0.1003
13426TIP3    H161769   2.497   3.329  16.286  0.6519 -0.1739  0.3447
13426TIP3    H261770   2.572   3.431  16.202  0.8700 -1.9847 -1.6934
13427TIP3   OH261771   2.191   2.501   0.137  0.0924 -0.4447 -0.0950
13427TIP3    H161772   2.279   2.492   0.173 -0.7169 -0.5058  1.9413
13427TIP3    H261773   2.135   2.457   0.201 -1.4380 -0.2512 -1.2811
13428TIP3   OH261774   6.791   4.117  11.365  0.2836 -0.5039 -0.9956
13428TIP3    H161775   6.806   4.209  11.344  0.7754  0.3361  2.7231
13428TIP3    H261776   6.877   4.075  11.356  0.3020 -0.3637 -1.4844
13429TIP3   OH261777   2.871   2.985  13.422  0.1113 -0.2052 -0.2104
13429TIP3    H161778   2.911   2.937  13.494  0.7274  0.8339  0.1472
13429TIP3    H261779   2.808   3.044  13.465 -1.5110 -1.4960 -0.7264
13430TIP3   OH261780   3.440   4.979   4.918  0.3517  0.3359  0.3829
13430TIP3    H161781   3.357   5.004   4.878  0.1167 -0.3093  0.4604
13430TIP3    H261782   3.507   5.012   4.858  0.0897  2.4962  1.2573
13431TIP3   OH261783   5.657   3.945   2.299 -0.6148 -0.0177 -0.4884
13431TIP3    H161784   5.603   3.950   2.220 -1.3436  0.4371  0.0291
13431TIP3    H261785   5.658   4.035   2.332 -1.6737 -0.4968  0.9066
13432TIP3   OH261786   6.700   1.937   2.159  0.6161  0.5864 -0.1389
13432TIP3    H161787   6.637   1.969   2.094  0.4459 -2.1132 -1.3651
13432TIP3    H261788   6.785   1.957   2.122  0.5045  0.8234 -0.2687
13433TIP3   OH261789   2.773   5.905   2.218  0.1219 -0.1573  0.5211
13433TIP3    H161790   2.811   5.910   2.306  0.8252  3.0263  0.1067
13433TIP3    H261791   2.823   5.969   2.168  0.9743 -3.2185 -2.7283
13434TIP3   OH261792   3.887   5.611   2.056 -0.6098  0.4871  0.1731
13434TIP3    H161793   3.973   5.573   2.037  0.2071  1.6548  1.4417
13434TIP3    H261794   3.842   5.611   1.972  1.2319  1.3270 -0.8531
13435TIP3   OH261795   4.839   5.513   4.254 -0.2296 -0.4314 -0.1118
13435TIP3    H161796   4.771   5.579   4.269 -2.8558 -3.0927  0.0434
13435TIP3    H261797   4.853   5.474   4.340  0.8410 -0.5333 -0.3288
13436TIP3   OH261798   1.588   5.768  16.311  0.4320  0.0880 -0.0170
13436TIP3    H161799   1.524   5.705  16.343 -0.0461  1.2604  1.4091
13436TIP3    H261800   1.574   5.771  16.217 -0.9278 -0.4111  0.1552
13437TIP3   OH261801   4.787   0.081   2.914 -0.5908 -0.6428  0.5466
13437TIP3    H161802   4.812   0.167   2.878 -0.4835 -0.4819  1.0049
13437TIP3    H261803   4.791   0.093   3.009 -0.3172 -1.2323  0.6092
13438TIP3   OH261804   6.097   2.688  16.200  0.4804 -0.9479 -0.2963
13438TIP3    H161805   6.137   2.764  16.158 -1.6877 -0.9001 -2.3617
13438TIP3    H261806   6.117   2.699  16.293 -0.4181  2.5365 -0.4676
13439TIP3   OH261807   5.228   3.356  16.729  0.3873  0.3615 -0.2203
13439TIP3    H161808   5.217   3.428  16.667 -0.9221 -0.3709 -0.8686
13439TIP3    H261809   5.299   3.303  16.691  0.7622  0.8406 -0.1917
13440TIP3   OH261810   2.632   5.820  13.867 -0.0705 -0.3760 -0.3101
13440TIP3    H161811   2.591   5.846  13.785  1.5942 -1.1854 -1.4244
13440TIP3    H261812   2.705   5.881  13.878  0.4137 -1.0019 -0.0226
13441TIP3   OH261813   6.089   3.510   4.974 -0.0492 -0.1463  0.0454
13441TIP3    H161814   6.129   3.518   4.888 -0.4839  1.0858 -0.0472
13441TIP3    H261815   5.998   3.486   4.956 -0.4131  1.1598  0.1236
13442TIP3   OH261816   5.031   2.875   1.936 -0.4575  0.0218  0.3170
13442TIP3    H161817   5.094   2.894   2.006 -0.8185 -0.6031  0.8075
13442TIP3    H261818   4.950   2.918   1.963 -0.2537  0.8207 -0.3124
13443TIP3   OH261819   1.698   3.675   6.632 -0.1173  0.3724  0.5861
13443TIP3    H161820   1.722   3.766   6.651 -1.5917  0.8270  0.3599
13443TIP3    H261821   1.680   3.637   6.718 -2.1141  1.0813  0.5315
13444TIP3   OH261822   4.913   3.016   2.594 -0.4693  0.0844 -0.0992
13444TIP3    H161823   4.868   3.064   2.663  0.3675  1.0432 -0.2031
13444TIP3    H261824   4.979   2.964   2.640  0.1656  0.8104 -0.1595
13445TIP3   OH261825   0.930   3.133  13.433 -0.1479 -0.4567  0.4580
13445TIP3    H161826   0.977   3.213  13.458  4.0358 -2.1149 -1.5724
13445TIP3    H261827   0.936   3.076  13.510 -0.0922 -0.1356  0.6911
13446TIP3   OH261828   5.187   1.496   1.383 -0.3170  0.3993 -0.0105
13446TIP3    H161829   5.199   1.527   1.293  0.5984  0.2203  0.0429
13446TIP3    H261830   5.239   1.416   1.388  0.2762  0.8300  0.8904
13447TIP3   OH261831   4.374   3.051   1.873  0.3742 -0.0457 -0.1789
13447TIP3    H161832   4.404   2.983   1.933  1.5275  0.6498  0.0419
13447TIP3    H261833   4.404   3.023   1.787  0.2008 -0.1941 -0.1899
13448TIP3   OH261834   3.636   5.995  13.781  0.3025  0.5878 -0.6034
13448TIP3    H161835   3.603   6.076  13.744 -0.1470  0.4808 -0.4347
13448TIP3    H261836   3.559   5.950  13.815  0.8156  1.1228  1.3319
13449TIP3   OH261837   0.212   4.131   3.935 -0.7553 -0.4829  0.2062
13449TIP3    H161838   0.172   4.217   3.951  0.1355 -0.1666  0.8124
13449TIP3    H261839   0.192   4.111   3.844 -2.0213 -0.1904  0.4162
13450TIP3   OH261840   0.967   5.098   1.019 -0.2466 -0.1730  0.1454
13450TIP3    H161841   0.884   5.106   0.972  0.1649  1.2620 -0.3779
13450TIP3    H261842   0.996   5.008   1.001 -0.1447  0.3142 -2.3293
13451TIP3   OH261843   6.327   0.238   1.744  0.0300 -0.5056  0.5827
13451TIP3    H161844   6.322   0.332   1.762  0.7837 -0.5759  1.1922
13451TIP3    H261845   6.354   0.199   1.828  1.3617 -1.0913 -0.1100
13452TIP3   OH261846   3.108   6.231  11.645 -0.1051 -0.0166 -0.1478
13452TIP3    H161847   3.081   6.283  11.721 -0.0959 -0.2639  0.0239
13452TIP3    H261848   3.198   6.206  11.664 -0.3929 -0.8300  0.1733
13453TIP3   OH261849   0.259   5.098   2.031 -0.3184 -1.1683 -0.0630
13453TIP3    H161850   0.207   5.110   1.951  0.6151  0.2621 -0.4612
13453TIP3    H261851   0.336   5.153   2.018 -0.2779 -0.7269  1.9370
13454TIP3   OH261852   3.971   1.701   3.180 -0.1703  0.6166 -0.0132
13454TIP3    H161853   3.919   1.746   3.247  0.0422 -0.7013  1.0729
13454TIP3    H261854   4.057   1.689   3.221 -0.3449 -1.1115 -0.1014
13455TIP3   OH261855   1.271   3.534  13.084 -0.1205  0.3671 -0.0302
13455TIP3    H161856   1.250   3.482  13.006 -0.4918 -0.9243  0.9171
13455TIP3    H261857   1.274   3.470  13.155 -0.8344  1.6779  1.1982
13456TIP3   OH261858   6.134   6.276   0.160  0.4044 -0.0823  0.1262
13456TIP3    H161859   6.077   6.346   0.130  0.1554 -1.1940 -2.1131
13456TIP3    H261860   6.074   6.210   0.195  0.4186 -0.5208 -0.6670
13457TIP3   OH261861   0.997   4.204   0.065  0.6017 -0.5194 -0.0089
13457TIP3    H161862   0.990   4.124   0.117  0.4713  0.9900  2.3725
13457TIP3    H261863   1.023   4.174  -0.022  1.9217 -3.0237  1.1965
13458TIP3   OH261864   0.428   3.914  13.235  0.7245  0.2754 -0.3928
13458TIP3    H161865   0.457   3.825  13.257  2.0652  0.6788 -0.5104
13458TIP3    H261866   0.380   3.943  13.312  2.1976  0.2747  0.5382
13459TIP3   OH261867   0.317   1.400   3.234 -0.3220 -0.1794  0.0993
13459TIP3    H161868   0.294   1.396   3.326 -1.1319  0.6293 -0.0572
13459TIP3    H261869   0.391   1.462   3.230 -1.7725  1.5890 -0.0490
13460TIP3   OH261870   4.867   4.068   1.712  0.3424  0.3416  0.0410
13460TIP3    H161871   4.798   4.129   1.739  2.1713  1.5219  2.2416
13460TIP3    H261872   4.838   3.983   1.744  0.7625  1.1537  2.6777
13461TIP3   OH261873   6.789   5.256   0.291  0.0980 -0.4797  0.5135
13461TIP3    H161874   6.707   5.279   0.334  0.4805 -0.7872  1.4343
13461TIP3    H261875   6.765   5.191   0.225 -0.8636  1.8727 -1.5022
13462TIP3   OH261876   5.343   0.342   1.160 -0.1641  0.1260  0.2374
13462TIP3    H161877   5.392   0.424   1.166 -1.0078  0.5931  0.8976
13462TIP3    H261878   5.252   0.367   1.178 -0.5821 -0.8009 -0.5012
13463TIP3   OH261879   0.595   4.050  13.085  0.1092 -0.0955 -0.0899
13463TIP3    H161880   0.652   3.978  13.056  0.8213  0.2210  0.5188
13463TIP3    H261881   0.536   4.009  13.148 -1.1434 -0.6859 -1.6061
13464TIP3   OH261882   0.437   2.686  14.249 -0.0268  0.7218  0.3526
13464TIP3    H161883   0.530   2.688  14.274 -0.3072 -1.3253  1.6847
13464TIP3    H261884   0.433   2.617  14.182 -0.8676 -0.5639  1.6880
13465TIP3   OH261885   3.764   3.099   4.822 -0.1152  0.0365  0.1589
13465TIP3    H161886   3.827   3.166   4.797 -0.0795  0.4134  1.2094
13465TIP3    H261887   3.716   3.137   4.896  0.4248 -1.3737  1.2705
13466TIP3   OH261888   2.951   5.858  15.642 -0.2554  0.3822  0.2649
13466TIP3    H161889   2.969   5.764  15.637 -1.7988  0.0458  0.9785
13466TIP3    H261890   2.892   5.876  15.569 -0.5581  0.6685  0.5788
13467TIP3   OH261891   4.086   0.125   1.151 -0.1856 -0.1143  0.3985
13467TIP3    H161892   4.172   0.164   1.133 -0.8882  1.3431  0.2129
13467TIP3    H261893   4.026   0.169   1.091 -0.8304 -2.1630 -0.5170
13468TIP3   OH261894   2.282   6.300   4.361  0.2447 -0.2212  0.0780
13468TIP3    H161895   2.282   6.395   4.375 -2.6366 -0.0638 -0.8253
13468TIP3    H261896   2.255   6.263   4.445  3.2978 -0.3938  1.0383
13469TIP3   OH261897   1.072   3.186   2.452 -0.3138  0.3707 -0.5372
13469TIP3    H161898   1.121   3.178   2.533  0.0553 -0.9583 -0.8877
13469TIP3    H261899   1.102   3.113   2.398 -0.9293  0.9413 -1.6693
13470TIP3   OH261900   3.742   3.325  15.943  0.2748 -0.4836  0.4476
13470TIP3    H161901   3.697   3.247  15.975 -0.6957 -0.6120 -1.1967
13470TIP3    H261902   3.671   3.385  15.920  0.9592 -0.3478 -1.3518
13471TIP3   OH261903   5.265   4.977   2.974 -0.0312 -0.3192  0.3498
13471TIP3    H161904   5.286   5.011   3.060  0.1597  0.9055 -0.1799
13471TIP3    H261905   5.332   5.013   2.916 -0.6556 -0.4407 -0.4651
13472TIP3   OH261906   2.063   2.518  12.944  1.0143  0.9213 -0.0905
13472TIP3    H161907   2.087   2.557  12.859  0.2720 -0.5790 -1.0193
13472TIP3    H261908   1.972   2.545  12.957  0.4424 -0.6058 -0.8197
13473TIP3   OH261909   5.968   5.883  16.096  0.2576  0.1545 -0.0133
13473TIP3    H161910   5.975   5.969  16.137  1.2265 -0.0692  0.2849
13473TIP3    H261911   6.047   5.875  16.043  0.2726 -0.6382  0.1247
13474TIP3   OH261912   5.080   6.807   3.362  0.1849 -0.0987 -0.1250
13474TIP3    H161913   4.999   6.857   3.371  0.4157  0.2534  0.0078
13474TIP3    H261914   5.053   6.724   3.321 -0.4169 -0.4444  0.9478
13475TIP3   OH261915   0.229   0.878  16.802  0.2952 -0.5130 -0.0422
13475TIP3    H161916   0.184   0.854  16.883  0.5035 -0.9357 -0.0499
13475TIP3    H261917   0.319   0.849  16.816  0.1314 -1.3823 -0.7690
13476TIP3   OH261918   6.394   2.071   1.408  0.2221  0.2013  0.1916
13476TIP3    H161919   6.362   2.071   1.498  0.4632 -1.6877  0.3050
13476TIP3    H261920   6.416   2.162   1.390  1.6986  0.3675  2.6087
13477TIP3   OH261921   4.553   4.435   2.388  0.2480  0.0513 -0.2613
13477TIP3    H161922   4.472   4.387   2.378  0.3989 -0.1895 -0.3275
13477TIP3    H261923   4.535   4.522   2.351 -0.5465  0.6162  1.3995
13478TIP3   OH261924   6.287   1.619   0.931  0.1541 -0.0910 -0.4019
13478TIP3    H161925   6.240   1.659   0.858  1.6861  1.4518 -0.5719
13478TIP3    H261926   6.256   1.665   1.008  1.9277  1.4936 -0.5981
13479TIP3   OH261927   5.855   3.128  14.426  0.5134 -0.5289  0.1470
13479TIP3    H161928   5.866   3.200  14.364  0.3800 -1.0098 -0.4364
13479TIP3    H261929   5.927   3.138  14.488  0.5878  0.0099 -0.0249
13480TIP3   OH261930   2.382   4.753   4.989 -0.6601  0.2041  0.1132
13480TIP3    H161931   2.402   4.674   5.040  1.6679  0.2218 -0.7394
13480TIP3    H261932   2.317   4.724   4.925 -1.5460 -0.4631  1.2875
13481TIP3   OH261933   0.118   0.582   4.859  0.4545 -0.8591 -0.0559
13481TIP3    H161934   0.058   0.635   4.913 -0.1972 -0.7850 -0.8475
13481TIP3    H261935   0.200   0.581   4.909  0.0899 -0.1615  0.5765
13482TIP3   OH261936   4.191   5.491   4.303 -0.3941 -0.4642  0.3305
13482TIP3    H161937   4.180   5.523   4.393 -0.1573 -2.0319  0.9206
13482TIP3    H261938   4.238   5.409   4.312  2.7777  1.0820 -1.4816
13483TIP3   OH261939   5.515   1.736   4.194 -0.5104  0.0924  0.1346
13483TIP3    H161940   5.493   1.654   4.236 -3.6022  1.9376  2.3447
13483TIP3    H261941   5.563   1.786   4.260  1.3994  0.0588 -1.1985
13484TIP3   OH261942   1.665   1.365   0.145  0.0465  0.2234 -0.1600
13484TIP3    H161943   1.693   1.305   0.075  1.8475  0.6147  0.1970
13484TIP3    H261944   1.628   1.440   0.099 -0.4291 -0.3048 -0.6486
13485TIP3   OH261945   0.382   4.788   3.368 -0.3729 -0.6862 -0.4413
13485TIP3    H161946   0.355   4.870   3.411 -0.0584 -1.8043  1.9246
13485TIP3    H261947   0.309   4.767   3.310 -1.3564  0.2072  0.4486
13486TIP3   OH261948   2.427   0.751   2.098  0.5046  0.3629 -0.8035
13486TIP3    H161949   2.382   0.667   2.100 -0.4377  0.8136 -2.0672
13486TIP3    H261950   2.517   0.729   2.075 -0.2575 -0.1464 -3.4932
13487TIP3   OH261951   2.789   2.493   6.607  0.0379 -1.1407 -0.1905
13487TIP3    H161952   2.777   2.546   6.529 -2.8322 -2.3384 -0.6331
13487TIP3    H261953   2.828   2.411   6.576  1.6163 -0.4962  0.0625
13488TIP3   OH261954   5.434   3.177  11.990 -0.1534  0.0600  0.4246
13488TIP3    H161955   5.456   3.269  11.972  0.1201 -0.0041  0.4354
13488TIP3    H261956   5.486   3.155  12.068 -0.5942  0.0430  0.7154
13489TIP3   OH261957   0.072   0.087  11.989  0.0419 -0.4745  0.6961
13489TIP3    H161958   0.137   0.045  11.934 -1.8374 -1.0317 -1.1708
13489TIP3    H261959   0.025   0.014  12.030 -1.2920 -0.1489 -0.2342
13490TIP3   OH261960   5.391   5.674   3.047  0.2782 -0.1631  0.1534
13490TIP3    H161961   5.352   5.635   2.968  0.4794 -0.0016 -0.0230
13490TIP3    H261962   5.478   5.634   3.052 -0.3734 -1.4838  1.2446
13491TIP3   OH261963   3.819   2.424   1.495  0.3544 -0.1645 -0.2297
13491TIP3    H161964   3.826   2.398   1.587  1.5498  1.5649  0.1938
13491TIP3    H261965   3.906   2.407   1.458  0.9605  2.4031 -0.1184
13492TIP3   OH261966   5.020   0.032   3.834  0.2303 -0.4049  0.4854
13492TIP3    H161967   5.102   0.072   3.805  1.3295 -2.2540  0.9636
13492TIP3    H261968   4.963   0.106   3.854  2.0094  0.9150  0.7901
13493TIP3   OH261969   3.110   4.878   1.892 -0.3242 -0.5768  0.1207
13493TIP3    H161970   3.125   4.943   1.824  0.4857 -1.6227 -0.7110
13493TIP3    H261971   3.087   4.930   1.970 -2.1671  0.5921 -1.1456
13494TIP3   OH261972   0.580   5.921  17.229  0.3252  0.1526 -0.1468
13494TIP3    H161973   0.521   5.877  17.290 -1.4430  1.6790 -0.6761
13494TIP3    H261974   0.661   5.871  17.232 -1.2706 -2.4987  0.0245
13495TIP3   OH261975   0.351   5.664   6.330  0.0703  0.2483  0.1013
13495TIP3    H161976   0.418   5.707   6.277  0.4219 -0.5430 -0.1113
13495TIP3    H261977   0.384   5.670   6.420  0.8711 -0.8962 -0.0941
13496TIP3   OH261978   6.061   4.387  13.424 -0.3999  0.6087  0.0594
13496TIP3    H161979   6.061   4.482  13.420  1.9273  0.7345  1.6415
13496TIP3    H261980   6.098   4.366  13.510 -3.0825 -1.7433  0.7392
13497TIP3   OH261981   2.328   2.166  13.113  0.3652  0.0542 -0.3120
13497TIP3    H161982   2.389   2.204  13.176 -0.4811 -0.5651  0.9114
13497TIP3    H261983   2.303   2.082  13.152  1.4419 -1.3074 -2.4953
13498TIP3   OH261984   5.628   5.981  11.084  0.4372  0.1952 -0.0777
13498TIP3    H161985   5.556   5.919  11.082  0.9374 -0.3954  0.2619
13498TIP3    H261986   5.707   5.928  11.076  0.9093  0.6939  1.1350
13499TIP3   OH261987   6.517   5.028   5.874  0.2956  0.7537  0.2121
13499TIP3    H161988   6.502   5.121   5.859  3.1042  1.4295  1.3607
13499TIP3    H261989   6.586   5.004   5.812  0.5499 -0.2296  0.8558
13500TIP3   OH261990   2.238   4.569   3.848  0.2588  0.9987 -0.2315
13500TIP3    H161991   2.328   4.599   3.840  0.0421  1.2870 -1.8388
13500TIP3    H261992   2.221   4.567   3.942  0.7571  4.5404  0.0175
13501TIP3   OH261993   1.790   2.395   1.219 -0.4115 -0.2906 -0.2246
13501TIP3    H161994   1.744   2.352   1.147 -0.3745 -1.3062  0.3583
13501TIP3    H261995   1.793   2.330   1.288 -0.1448  0.5704  0.5829
13502TIP3   OH261996   2.048   6.390  15.609 -0.1868  0.4598  0.2838
13502TIP3    H161997   1.998   6.321  15.565  0.0904 -0.0010  0.6791
13502TIP3    H261998   2.012   6.471  15.576 -0.5537  0.1203 -0.1514
13503TIP3   OH261999   3.161   1.623   0.524  0.0634 -0.0492  0.2201
13503TIP3    H162000   3.141   1.641   0.616  0.4596  1.7017 -0.0199
13503TIP3    H262001   3.086   1.658   0.476  0.5306  0.3537 -0.2171
13504TIP3   OH262002   3.731   4.634  16.737 -0.0536 -0.1830  0.0408
13504TIP3    H162003   3.687   4.701  16.684 -1.0106 -0.8806 -0.0400
13504TIP3    H262004   3.809   4.678  16.770  0.2339  0.4530 -1.4488
13505TIP3   OH262005   1.578   1.418   5.448  1.0201 -0.2069 -0.2098
13505TIP3    H162006   1.610   1.508   5.445  0.9394 -0.1655  0.1231
13505TIP3    H262007   1.655   1.365   5.468  1.4966 -0.4504 -2.5646
13506TIP3   OH262008   0.798   2.257   4.462  0.3532 -0.0297 -0.5961
13506TIP3    H162009   0.742   2.181   4.477  0.6448 -0.0275  0.5291
13506TIP3    H262010   0.887   2.225   4.476  0.3854  0.8543  1.3811
13507TIP3   OH262011   2.980   4.309   5.109 -0.4670  0.2201  0.4323
13507TIP3    H162012   3.034   4.289   5.033  1.0210 -1.9992  1.9790
13507TIP3    H262013   3.018   4.388   5.146 -0.5118  0.6830 -0.5144
13508TIP3   OH262014   6.058   4.430  15.775  0.1063 -0.2929 -0.0498
13508TIP3    H162015   5.980   4.391  15.815 -0.6335  0.2804 -0.9224
13508TIP3    H262016   6.111   4.460  15.849 -0.4731 -0.7405  0.5469
13509TIP3   OH262017   3.280   6.686  13.040 -0.4180  0.2085 -0.2241
13509TIP3    H162018   3.234   6.674  12.956  0.4256  0.4962 -0.7359
13509TIP3    H262019   3.363   6.641  13.028  0.3694  1.6157 -0.1018
13510TIP3   OH262020   0.100   3.750   3.578  0.3561  0.3921  0.4714
13510TIP3    H162021   0.103   3.669   3.629  0.2424 -0.3295 -0.6389
13510TIP3    H262022   0.143   3.728   3.495 -0.2365  1.2915 -0.0894
13511TIP3   OH262023   4.596   5.073   3.692  0.0894  1.1561 -0.1111
13511TIP3    H162024   4.647   5.060   3.613  0.9632  0.0514  0.6151
13511TIP3    H262025   4.661   5.081   3.762 -0.7088 -0.7882  0.8934
13512TIP3   OH262026   4.866   3.052  11.156 -0.8802 -0.5115  0.0482
13512TIP3    H162027   4.872   3.138  11.197 -0.1380 -0.7572  0.4555
13512TIP3    H262028   4.827   2.997  11.223 -2.4026 -0.2489 -0.5928
13513TIP3   OH262029   4.598   1.940   5.288  0.4996 -0.3722  0.1466
13513TIP3    H162030   4.570   1.863   5.336  1.3559 -0.7449  0.0605
13513TIP3    H262031   4.651   1.990   5.350 -0.5022  0.4216  0.3698
13514TIP3   OH262032   2.374   5.412  15.604  0.2379 -0.3607  0.4439
13514TIP3    H162033   2.347   5.502  15.622 -0.2875 -0.8022  1.8954
13514TIP3    H262034   2.396   5.412  15.511  0.4344  1.3194  0.4725
13515TIP3   OH262035   1.141   5.097  17.154  0.2954  0.7256  0.4604
13515TIP3    H162036   1.126   5.173  17.097  0.3459  0.6241  0.3101
13515TIP3    H262037   1.090   5.116  17.232 -2.5856 -0.7128 -0.9749
13516TIP3   OH262038   4.834   6.207  15.923 -0.5367  0.3845  0.1674
13516TIP3    H162039   4.775   6.153  15.975  0.6861 -1.4076 -0.2586
13516TIP3    H262040   4.785   6.227  15.843 -1.8127  1.7881  1.2677
13517TIP3   OH262041   0.649   2.537  15.025  0.4494  0.3851  0.5718
13517TIP3    H162042   0.743   2.535  15.009  0.5255 -1.0795  1.1643
13517TIP3    H262043   0.641   2.545  15.120 -0.0269  1.5350  0.4454
13518TIP3   OH262044   1.780   6.745   2.872  0.4669 -0.1688 -0.0373
13518TIP3    H162045   1.823   6.719   2.953 -1.1628 -0.8090  0.6508
13518TIP3    H262046   1.805   6.677   2.809  2.4088  0.7775 -0.3244
13519TIP3   OH262047   3.115   1.481  17.039 -0.2395  0.1269 -0.0946
13519TIP3    H162048   3.064   1.540  17.094  0.7750  0.5587  0.3848
13519TIP3    H262049   3.160   1.539  16.977  0.7114 -0.1416  0.3378
13520TIP3   OH262050   0.880   4.936  13.933 -0.4152 -0.2002 -0.7555
13520TIP3    H162051   0.834   5.010  13.895  1.1591  1.4398  0.4257
13520TIP3    H262052   0.840   4.859  13.892 -3.4405  1.1763 -0.5305
13521TIP3   OH262053   2.627   3.969   5.612  0.4968  0.2054  0.2340
13521TIP3    H162054   2.684   3.949   5.537 -0.8025 -1.6272 -0.3014
13521TIP3    H262055   2.565   3.896   5.615 -0.6928  1.2512  1.9204
13522TIP3   OH262056   0.764   1.245  15.293 -0.3001 -0.5503 -0.7802
13522TIP3    H162057   0.805   1.246  15.207 -0.0665 -1.3006 -0.6826
13522TIP3    H262058   0.812   1.177  15.341  1.2841  1.5887  0.7629
13523TIP3   OH262059   1.135   5.773  11.962 -0.3559  0.1635 -0.2064
13523TIP3    H162060   1.111   5.863  11.939  1.3727  1.0087  1.2216
13523TIP3    H262061   1.221   5.760  11.922 -0.9956 -1.2017 -1.1999
13524TIP3   OH262062   5.711   4.911  12.508 -0.2903  0.6659  0.2187
13524TIP3    H162063   5.758   4.993  12.522 -1.0826  1.3505 -1.0985
13524TIP3    H262064   5.622   4.937  12.486 -0.7094 -0.5653  0.4306
13525TIP3   OH262065   0.409   2.586   4.666 -0.5542  0.0472 -0.1331
13525TIP3    H162066   0.469   2.516   4.639  1.0864  1.0824  0.7413
13525TIP3    H262067   0.326   2.565   4.623 -0.3810 -2.9816  0.9093
13526TIP3   OH262068   6.154   1.080  13.086  0.2022 -0.2103 -0.3737
13526TIP3    H162069   6.195   1.051  13.168 -1.7029  0.4551  0.8428
13526TIP3    H262070   6.181   1.172  13.078 -1.2287  0.3009  0.5591
13527TIP3   OH262071   1.551   1.560   2.267 -0.1789  0.1774 -0.5417
13527TIP3    H162072   1.526   1.502   2.339  0.3127  1.6105  0.8231
13527TIP3    H262073   1.470   1.575   2.219 -0.5045 -0.8406 -0.3224
13528TIP3   OH262074   2.955   0.902  16.730  0.5161 -0.4724  0.0711
13528TIP3    H162075   2.889   0.931  16.668  0.2487 -0.7113  0.2441
13528TIP3    H262076   3.020   0.856  16.676  2.2176  2.5248 -0.5675
13529TIP3   OH262077   4.472   0.850  12.565  0.1386 -0.0484 -0.5319
13529TIP3    H162078   4.427   0.766  12.574 -1.5897  1.0616  2.2452
13529TIP3    H262079   4.559   0.835  12.603  0.3542 -0.9533 -1.3780
13530TIP3   OH262080   6.551   1.309  12.948  0.2552  0.1508 -0.0987
13530TIP3    H162081   6.608   1.255  12.894 -1.2374 -1.0708 -0.5037
13530TIP3    H262082   6.577   1.399  12.930  0.0191 -0.2508 -2.6034
13531TIP3   OH262083   6.653   0.384   6.544  0.0951  0.0659  0.4052
13531TIP3    H162084   6.611   0.352   6.464 -0.1626 -0.9972  0.9543
13531TIP3    H262085   6.583   0.430   6.592 -0.0554 -0.3626  0.5958
13532TIP3   OH262086   3.352   0.762   6.045 -0.0567 -0.5057 -0.4647
13532TIP3    H162087   3.387   0.697   6.106  0.3385  0.3234  0.2065
13532TIP3    H262088   3.398   0.744   5.962  1.4471  0.0979  0.2070
13533TIP3   OH262089   0.764   4.837  14.416 -0.3287  0.0595  0.1638
13533TIP3    H162090   0.746   4.783  14.339 -0.7505 -0.4295  0.5988
13533TIP3    H262091   0.769   4.774  14.488  1.4502  0.3618  0.3329
13534TIP3   OH262092   1.762   5.161   5.138  0.1231  0.2554  0.3184
13534TIP3    H162093   1.799   5.121   5.059 -0.0173  0.6958  0.0254
13534TIP3    H262094   1.737   5.087   5.193 -0.1250 -0.0617 -0.2131
13535TIP3   OH262095   6.629   3.816  11.186 -0.6304 -0.5344 -0.1882
13535TIP3    H162096   6.724   3.823  11.197 -0.4210 -2.8078 -0.4156
13535TIP3    H262097   6.608   3.874  11.113  0.7717 -1.0293 -0.9906
13536TIP3   OH262098   0.882   3.185   4.738  0.1927 -0.2662 -0.4432
13536TIP3    H162099   0.951   3.234   4.783 -0.3662  0.6620 -0.5832
13536TIP3    H262100   0.888   3.097   4.774 -0.4356  0.5346  1.6755
13537TIP3   OH262101   6.014   4.928   3.867  0.2293  0.2100  0.0127
13537TIP3    H162102   5.971   4.914   3.951  1.2976 -2.3584  0.1843
13537TIP3    H262103   5.943   4.928   3.803 -0.4757  0.9605  0.7864
13538TIP3   OH262104   3.678   1.737  13.616 -0.1966  0.0603  0.1130
13538TIP3    H162105   3.598   1.767  13.658 -0.1115  0.1660  0.2024
13538TIP3    H262106   3.707   1.663  13.670 -0.5456 -0.3450 -0.2576
13539TIP3   OH262107   4.935   1.858  13.159 -0.3612 -0.7625  0.1482
13539TIP3    H162108   4.924   1.953  13.154 -0.3428 -0.7351  0.6038
13539TIP3    H262109   5.029   1.846  13.174 -0.5145 -0.8141  1.0912
13540TIP3   OH262110   3.245   0.436  10.368  0.2831 -0.1360 -0.6329
13540TIP3    H162111   3.216   0.526  10.378  1.5204  0.2470 -0.4495
13540TIP3    H262112   3.334   0.435  10.402  0.4354 -1.3320 -1.0345
13541TIP3   OH262113   1.511   1.586   6.082  0.2391 -0.4588  0.0714
13541TIP3    H162114   1.491   1.667   6.034 -0.3464  0.0108  1.0992
13541TIP3    H262115   1.604   1.571   6.064  0.8014  1.3926  1.2568
13542TIP3   OH262116   2.381   2.389   5.183  0.0644  1.0603  0.2807
13542TIP3    H162117   2.439   2.318   5.211 -1.5090 -1.0625 -1.6216
13542TIP3    H262118   2.429   2.434   5.114  0.9932  1.7249  1.3594
13543TIP3   OH262119   5.646   2.507   2.446 -0.2423 -0.4683 -0.5246
13543TIP3    H162120   5.631   2.598   2.469 -0.3481 -0.6414  0.1013
13543TIP3    H262121   5.562   2.478   2.409 -0.7548 -0.7944  0.8742
13544TIP3   OH262122   1.296   3.022  13.458  0.0331 -0.4602 -0.2683
13544TIP3    H162123   1.354   3.027  13.382 -1.1623 -4.1039 -1.5135
13544TIP3    H262124   1.306   2.932  13.490 -2.0677 -0.0080  1.7903
13545TIP3   OH262125   0.393   1.160  15.300  0.4233 -0.1923  0.5553
13545TIP3    H162126   0.336   1.177  15.225  2.5110  1.1567 -0.7748
13545TIP3    H262127   0.413   1.067  15.293 -3.0686 -1.1678  2.1464
13546TIP3   OH262128   1.297   6.393   1.971  0.2404 -0.4692  0.2933
13546TIP3    H162129   1.248   6.476   1.969 -0.2441 -0.7064  1.6148
13546TIP3    H262130   1.238   6.332   2.015  1.7721 -0.7073  2.1006
13547TIP3   OH262131   1.906   4.019  17.214  0.3580 -0.2405 -0.9540
13547TIP3    H162132   1.952   4.048  17.293  0.7067 -0.4612 -1.0757
13547TIP3    H262133   1.847   3.951  17.244  0.9945 -0.8128 -0.9945
13548TIP3   OH262134   6.435   5.712   5.844  0.0627 -0.8995 -0.3168
13548TIP3    H162135   6.407   5.620   5.850 -2.0726 -0.4387 -2.3676
13548TIP3    H262136   6.355   5.762   5.861  0.6536  0.5422 -1.6909
13549TIP3   OH262137   5.229   4.285  16.296  0.6626  0.2430  0.1577
13549TIP3    H162138   5.294   4.290  16.366 -0.8414 -0.2969  1.6269
13549TIP3    H262139   5.186   4.371  16.297 -0.8459 -0.4968  1.3968
13550TIP3   OH262140   5.959   2.550  15.981  0.2254  0.0725  0.4379
13550TIP3    H162141   5.996   2.603  16.052 -2.2183  0.2854  1.6109
13550TIP3    H262142   6.000   2.464  15.992  1.7075  0.7780  0.5755
13551TIP3   OH262143   1.562   6.609   3.164 -0.5685  0.5600 -0.7449
13551TIP3    H162144   1.592   6.578   3.078  1.5038  0.9413 -0.1896
13551TIP3    H262145   1.591   6.542   3.225  1.0642  1.9774  0.0723
13552TIP3   OH262146   2.406   0.027   2.041 -0.0511  0.2855  0.0898
13552TIP3    H162147   2.354   0.031   2.122  0.4481 -0.8589  0.4651
13552TIP3    H262148   2.441  -0.062   2.039  1.5442  0.9050 -0.3810
13553TIP3   OH262149   1.886   3.609  14.235  0.6171 -0.2599  0.0439
13553TIP3    H162150   1.831   3.532  14.248 -0.8802  0.7706 -0.0220
13553TIP3    H262151   1.903   3.642  14.323 -0.9313  0.8173 -0.0415
13554TIP3   OH262152   5.184   4.986   2.136  0.1888 -0.4222 -0.2781
13554TIP3    H162153   5.136   5.004   2.055 -1.0877 -0.2479  0.5152
13554TIP3    H262154   5.117   4.986   2.205  1.5591  1.8515  1.1299
13555TIP3   OH262155   1.404   6.472   1.027  0.4374  0.6236 -0.2164
13555TIP3    H162156   1.417   6.460   0.933 -0.0191  1.5514 -0.3945
13555TIP3    H262157   1.455   6.549   1.049 -0.4428  1.1300  0.0689
13556TIP3   OH262158   2.410   5.307  15.187 -0.0306 -0.7797  0.1105
13556TIP3    H162159   2.352   5.318  15.112 -0.0472  0.6061  0.3116
13556TIP3    H262160   2.419   5.395  15.224  0.2773 -1.3818  1.5108
13557TIP3   OH262161   0.188   1.236   0.189 -0.6267  0.2383  0.3060
13557TIP3    H162162   0.108   1.204   0.148 -0.1383  0.1959 -0.6098
13557TIP3    H262163   0.254   1.235   0.120 -0.0619  1.1844  0.8102
13558TIP3   OH262164   6.635   2.885  16.834 -0.0731 -0.2674 -0.1720
13558TIP3    H162165   6.704   2.831  16.872 -1.2501 -1.1426  0.7655
13558TIP3    H262166   6.599   2.933  16.909  1.0660  1.9770 -1.0061
13559TIP3   OH262167   2.776   1.453  11.289 -0.1432 -0.2992  0.4966
13559TIP3    H162168   2.742   1.498  11.212 -0.2090 -0.5056  0.4065
13559TIP3    H262169   2.798   1.365  11.259  1.4970  0.1587  0.2887
13560TIP3   OH262170   4.032   6.721   1.494 -0.2738 -0.5415 -0.0316
13560TIP3    H162171   4.102   6.709   1.429 -1.2593  0.2618 -1.2743
13560TIP3    H262172   4.035   6.815   1.514  0.6233 -0.9378  1.8064
13561TIP3   OH262173   1.441   5.390  13.529 -0.3810  0.3488 -0.0839
13561TIP3    H162174   1.450   5.482  13.503  0.5123  0.4646  0.6051
13561TIP3    H262175   1.530   5.355  13.525 -0.7455 -0.5414 -0.5223
13562TIP3   OH262176   2.735   2.288  16.197  0.8555 -0.1943  0.5577
13562TIP3    H162177   2.760   2.207  16.152 -0.7574 -1.4298  1.8090
13562TIP3    H262178   2.730   2.263  16.289  1.4216  1.6266  1.0990
13563TIP3   OH262179   2.138   1.553  14.738  0.6479 -0.8073  0.2115
13563TIP3    H162180   2.181   1.581  14.819  1.5866 -2.1056  0.1659
13563TIP3    H262181   2.080   1.482  14.765 -0.6423  0.1836  0.0855
13564TIP3   OH262182   3.246   1.334  12.305  0.1149  0.3474  0.3166
13564TIP3    H162183   3.336   1.332  12.272 -0.0773  0.3267 -0.2153
13564TIP3    H262184   3.250   1.292  12.391  0.6342  0.4577  0.3455
13565TIP3   OH262185   6.229   5.189  15.823  0.1092 -0.1307 -0.4268
13565TIP3    H162186   6.169   5.125  15.785  1.6201 -0.5631 -2.1283
13565TIP3    H262187   6.180   5.272  15.823 -1.1733 -0.8723  0.0607
13566TIP3   OH262188   6.577   4.680  11.367  0.1434 -0.3253  0.2086
13566TIP3    H162189   6.602   4.770  11.390 -0.7920  0.0890 -0.3781
13566TIP3    H262190   6.555   4.685  11.274 -3.4454 -0.3748  0.9997
13567TIP3   OH262191   4.695   4.639   4.503  0.0166 -0.1387  0.5497
13567TIP3    H162192   4.663   4.688   4.579 -0.2390  2.7274 -1.3126
13567TIP3    H262193   4.626   4.648   4.437 -0.1108 -3.2401  0.1866
13568TIP3   OH262194   1.734   2.208  14.248  0.1942 -0.4540  0.9474
13568TIP3    H162195   1.653   2.251  14.277  0.1648  0.0729  0.1395
13568TIP3    H262196   1.802   2.245  14.304  0.3085  1.3883 -0.3248
13569TIP3   OH262197   4.951   1.882  15.661  0.1171 -0.0715  0.0322
13569TIP3    H162198   5.016   1.914  15.599  0.6673 -0.3144  0.4747
13569TIP3    H262199   4.875   1.939  15.649  1.3046  1.8105  1.2563
13570TIP3   OH262200   1.548   2.070   1.584  0.2082  0.0616  0.4582
13570TIP3    H162201   1.632   2.050   1.625 -0.1520  0.8697  1.6089
13570TIP3    H262202   1.566   2.072   1.491  0.8534 -2.8123  0.4698
13571TIP3   OH262203   4.093   0.492  15.093 -0.0291  0.2416  0.4619
13571TIP3    H162204   4.004   0.477  15.123 -0.9103  2.5551 -0.8445
13571TIP3    H262205   4.098   0.452  15.007 -0.8796  2.9548 -0.9058
13572TIP3   OH262206   2.878   6.643   3.540 -0.3591 -0.1371  0.0431
13572TIP3    H162207   2.895   6.566   3.485 -0.7557 -0.5581  0.5097
13572TIP3    H262208   2.784   6.658   3.532 -0.7066 -1.2044  1.9288
13573TIP3   OH262209   4.666   5.837  14.112 -0.2100  0.0369  0.1699
13573TIP3    H162210   4.751   5.828  14.069 -0.1416 -0.5719  0.4418
13573TIP3    H262211   4.644   5.930  14.100 -0.5227 -0.2629 -1.7968
13574TIP3   OH262212   2.083   0.930   4.124  0.2674  0.3209  0.1029
13574TIP3    H162213   2.159   0.892   4.080 -0.3987  0.8585 -1.5712
13574TIP3    H262214   2.070   1.014   4.079 -1.1557  0.3452  0.5560
13575TIP3   OH262215   6.318   1.174  12.634  0.0297  0.3016 -0.2655
13575TIP3    H162216   6.243   1.233  12.636 -0.0243  0.2210  0.8136
13575TIP3    H262217   6.289   1.098  12.683 -0.6069 -1.5313 -3.3757
13576TIP3   OH262218   6.809   3.711   6.090 -0.4415  0.0388  0.2234
13576TIP3    H162219   6.806   3.665   6.174  0.7084 -1.1032 -0.3473
13576TIP3    H262220   6.782   3.645   6.026  0.0892  0.4844 -0.4677
13577TIP3   OH262221   1.666   3.260  14.873  0.6752 -0.3489  0.6690
13577TIP3    H162222   1.636   3.350  14.860 -0.4306 -0.7887  0.0763
13577TIP3    H262223   1.621   3.210  14.805  0.2175 -1.5716  1.8520
13578TIP3   OH262224   3.345   3.882  11.128  1.0718 -0.7679  0.0986
13578TIP3    H162225   3.365   3.789  11.116  0.6244 -0.8830  0.2353
13578TIP3    H262226   3.406   3.927  11.070  2.0899 -1.0866  0.9029
13579TIP3   OH262227   3.140   1.882  15.367 -0.2642  0.1642  0.4041
13579TIP3    H162228   3.079   1.902  15.438 -2.1761  1.0612 -1.4232
13579TIP3    H262229   3.097   1.812  15.318  0.5529  0.2585 -0.4625
13580TIP3   OH262230   0.562   2.188  16.539 -0.3660  0.1866  0.3179
13580TIP3    H162231   0.596   2.111  16.494  0.7616 -0.8498  2.8353
13580TIP3    H262232   0.500   2.154  16.603 -0.0464  1.3608  1.2803
13581TIP3   OH262233   0.253   2.918   4.887 -0.3046 -0.3689  0.6623
13581TIP3    H162234   0.177   2.976   4.899  1.1758  2.0262 -1.1824
13581TIP3    H262235   0.219   2.846   4.834 -1.5056  0.2528  0.5641
13582TIP3   OH262236   3.212   6.120   5.902 -0.1147  0.1899 -0.5413
13582TIP3    H162237   3.138   6.088   5.955  1.4787  0.0486  1.6556
13582TIP3    H262238   3.266   6.042   5.888  0.6735  0.6910 -0.3359
13583TIP3   OH262239   5.576   5.571   3.347  0.4073  0.0957  0.0310
13583TIP3    H162240   5.629   5.650   3.347  0.7268 -0.1178 -0.2348
13583TIP3    H262241   5.570   5.545   3.255 -0.3753  0.2624  0.0284
13584TIP3   OH262242   4.100   5.811   3.316  0.3432  0.5105 -0.1772
13584TIP3    H162243   4.060   5.866   3.249 -1.0507  1.2449  1.2400
13584TIP3    H262244   4.044   5.820   3.392  3.2986  1.7177  1.9449
13585TIP3   OH262245   4.680   4.966   1.638  0.3809  0.0898  0.1160
13585TIP3    H162246   4.750   4.902   1.653 -0.3346 -0.4870  1.0382
13585TIP3    H262247   4.605   4.914   1.608 -0.1335  0.5243  0.6442
13586TIP3   OH262248   3.204   1.985   5.574 -0.5986  0.4284 -0.0202
13586TIP3    H162249   3.178   2.008   5.485 -0.5616  1.1189  0.1439
13586TIP3    H262250   3.125   1.998   5.627 -0.3206  1.1071  0.2323
13587TIP3   OH262251   2.732   2.464  11.310 -0.3259  0.2826 -0.3420
13587TIP3    H162252   2.807   2.437  11.363 -0.0523  1.7350  0.0328
13587TIP3    H262253   2.748   2.426  11.224  0.2085 -0.4525  0.0816
13588TIP3   OH262254   0.862   5.864  11.464 -0.0002 -0.6041  0.1035
13588TIP3    H162255   0.815   5.890  11.386  0.2779 -1.5283 -0.3854
13588TIP3    H262256   0.837   5.773  11.478  0.6138 -0.7056  0.5916
13589TIP3   OH262257   2.966   2.232   5.453 -0.0973  0.0901 -0.1492
13589TIP3    H162258   3.037   2.280   5.411 -1.5183  2.8374  0.5054
13589TIP3    H262259   2.975   2.253   5.546 -2.4558  1.4295 -0.2044
13590TIP3   OH262260   2.123   0.094   1.407 -0.2386 -0.3327 -0.0423
13590TIP3    H162261   2.156   0.005   1.408  0.8103  0.0420 -0.5091
13590TIP3    H262262   2.142   0.128   1.495 -0.5925 -0.5520  0.1183
13591TIP3   OH262263   3.605   1.607   3.480 -1.1264  0.0184 -0.4489
13591TIP3    H162264   3.662   1.659   3.424  0.3690 -1.1493 -0.0808
13591TIP3    H262265   3.656   1.528   3.498 -2.8559 -1.0359 -0.0415
13592TIP3   OH262266   6.722   5.340   0.746  0.4949 -0.0561 -0.1221
13592TIP3    H162267   6.766   5.396   0.683  0.3939 -0.8789 -0.9197
13592TIP3    H262268   6.668   5.401   0.798  0.5521  0.6112 -0.8395
13593TIP3   OH262269   1.849   2.191  16.599  0.6100 -0.3178 -0.0184
13593TIP3    H162270   1.897   2.191  16.516  0.6846 -2.5429  0.0029
13593TIP3    H262271   1.798   2.110  16.597 -0.1087  0.0808  1.7070
13594TIP3   OH262272   0.146   0.040  14.744 -0.4085 -0.2474 -0.0044
13594TIP3    H162273   0.187   0.045  14.831  0.0405  0.4557 -0.2580
13594TIP3    H262274   0.055   0.066  14.759 -0.4373 -0.5236  0.3234
13595TIP3   OH262275   2.405   0.069   4.361 -0.5514 -0.1947 -0.0707
13595TIP3    H162276   2.317   0.075   4.325 -0.1676 -1.7489 -1.2907
13595TIP3    H262277   2.404  -0.011   4.414  0.1997 -0.3783 -0.3247
13596TIP3   OH262278   5.711   6.799  16.519  0.1681 -0.2403  0.0318
13596TIP3    H162279   5.680   6.735  16.583 -1.4740 -0.2456 -0.7271
13596TIP3    H262280   5.737   6.747  16.443  1.7600 -0.2080  0.5258
13597TIP3   OH262281   0.703   3.948   1.073  0.4975  0.2109  0.9495
13597TIP3    H162282   0.672   4.010   1.139  1.9320  1.8776  0.0996
13597TIP3    H262283   0.797   3.965   1.067  1.2716 -3.3487  2.0117
13598TIP3   OH262284   1.806   2.257   4.687  0.3497 -0.1914  0.0345
13598TIP3    H162285   1.828   2.165   4.679 -0.7055 -0.5235  0.8301
13598TIP3    H262286   1.731   2.259   4.747 -0.7958  1.0138 -1.3701
13599TIP3   OH262287   0.713   5.708   0.628 -0.3624  0.3720 -0.3892
13599TIP3    H162288   0.620   5.703   0.608  0.0603  0.6022 -2.5737
13599TIP3    H262289   0.720   5.776   0.695 -1.3062  3.8676 -3.6467
13600TIP3   OH262290   5.362   3.256  12.844 -0.8020  0.2915  0.0285
13600TIP3    H162291   5.393   3.251  12.935  1.2718  0.1293 -0.6512
13600TIP3    H262292   5.299   3.329  12.844 -1.3967 -0.2087  1.7461
13601TIP3   OH262293   1.843   2.516  14.978 -0.2006  0.5384 -0.1533
13601TIP3    H162294   1.872   2.584  15.038  2.0098 -0.5312  0.0454
13601TIP3    H262295   1.922   2.489  14.931 -0.9296 -2.1343  0.0375
13602TIP3   OH262296   6.813   5.574   2.676 -0.0408  0.3556  0.1201
13602TIP3    H162297   6.723   5.563   2.706  0.5081 -0.6659  1.4350
13602TIP3    H262298   6.811   5.552   2.583 -1.1304  0.2262  0.1775
13603TIP3   OH262299   2.087   3.681  16.466  0.5970 -0.2728 -0.4009
13603TIP3    H162300   2.040   3.764  16.469 -0.4601 -0.8339 -0.9900
13603TIP3    H262301   2.123   3.678  16.377  1.8656  0.2073  0.0852
13604TIP3   OH262302   4.379   0.948   0.663 -0.0417  0.0521  0.4040
13604TIP3    H162303   4.457   0.952   0.718  1.0893 -2.7099 -0.8927
13604TIP3    H262304   4.411   0.958   0.574 -0.8264 -3.0280 -0.3040
13605TIP3   OH262305   0.364   6.122  15.375  0.6248  0.6475 -0.6684
13605TIP3    H162306   0.297   6.130  15.306 -0.6758 -0.4497  0.4265
13605TIP3    H262307   0.313   6.122  15.456  2.1243  1.5988  0.2830
13606TIP3   OH262308   0.938   1.141   1.218  0.1344  0.8396 -0.6523
13606TIP3    H162309   0.975   1.111   1.301 -2.0281  1.8684  0.7199
13606TIP3    H262310   0.909   1.061   1.174  0.6097  0.3654 -0.1083
13607TIP3   OH262311   1.497   3.282   4.967 -0.3263 -0.1378  0.3193
13607TIP3    H162312   1.413   3.299   5.010 -0.3439  1.5770 -0.3531
13607TIP3    H262313   1.556   3.349   5.001 -0.2715  1.0901 -2.0831
13608TIP3   OH262314   5.319   6.194   0.612 -0.4820  0.0675  0.1462
13608TIP3    H162315   5.274   6.268   0.654 -1.6620 -1.4347  1.5767
13608TIP3    H262316   5.412   6.219   0.615 -0.9374  1.9266 -0.2824
13609TIP3   OH262317   5.973   0.898   1.482  0.0889  0.5761 -0.2569
13609TIP3    H162318   5.984   0.855   1.398  0.9591  0.8279 -0.2758
13609TIP3    H262319   5.880   0.921   1.486 -0.5548 -1.9270  0.0613
13610TIP3   OH262320   4.978   4.133  14.313  0.3377 -0.2341  0.0435
13610TIP3    H162321   5.006   4.065  14.375 -0.5018 -0.2295  0.4287
13610TIP3    H262322   4.926   4.086  14.248 -0.4917  0.0784  0.4721
13611TIP3   OH262323   0.761   1.042  12.043 -0.0841  0.3054  0.6102
13611TIP3    H162324   0.679   0.997  12.020 -0.4779  0.2615  2.0897
13611TIP3    H262325   0.755   1.127  12.000  0.2368 -0.6358 -1.4160
13612TIP3   OH262326   5.259   1.325  13.011 -0.0218  0.2831 -0.0666
13612TIP3    H162327   5.313   1.381  13.066  0.5812 -0.8231  0.4820
13612TIP3    H262328   5.172   1.366  13.013  0.1696  0.6397  1.1371
13613TIP3   OH262329   3.227   2.650  13.935 -0.1669  0.5246 -0.0872
13613TIP3    H162330   3.189   2.688  14.014 -0.3843 -0.3181  0.2207
13613TIP3    H262331   3.208   2.556  13.942  2.7349 -0.0966  0.5380
13614TIP3   OH262332   4.855   3.935  15.003  0.2526 -0.6014 -0.2787
13614TIP3    H162333   4.940   3.942  14.959 -0.7091  0.9901 -1.9714
13614TIP3    H262334   4.876   3.938  15.096  1.8572  3.2049 -0.6787
13615TIP3   OH262335   6.499   0.083  11.667  0.5331 -0.3960 -0.3376
13615TIP3    H162336   6.535   0.008  11.714  2.2205 -0.2922 -1.4184
13615TIP3    H262337   6.461   0.045  11.587 -0.8807 -0.3789  0.3037
13616TIP3   OH262338   3.358   1.852   5.871 -0.0551  0.2834 -0.4720
13616TIP3    H162339   3.317   1.932   5.906 -1.1121 -0.1092 -0.8253
13616TIP3    H262340   3.451   1.875   5.866 -0.2837  1.3483 -0.1530
13617TIP3   OH262341   3.026   3.842  15.111 -0.0262  0.5219  0.3412
13617TIP3    H162342   3.085   3.908  15.148  0.1478 -0.0184  1.0407
13617TIP3    H262343   2.943   3.888  15.101 -0.0423  0.7053  1.2991
13618TIP3   OH262344   1.601   3.152   0.931  0.3379  0.2014 -0.3595
13618TIP3    H162345   1.528   3.107   0.973 -0.9477  0.7620 -1.9287
13618TIP3    H262346   1.626   3.220   0.993 -0.1513 -0.3144  0.4038
13619TIP3   OH262347   0.799   1.799  16.101 -0.4179 -0.5890  0.1189
13619TIP3    H162348   0.776   1.710  16.129 -2.4293  0.9789  3.8349
13619TIP3    H262349   0.716   1.841  16.082  0.3533  1.1196  0.4353
13620TIP3   OH262350   1.932   3.113   4.337  0.2452 -0.0496 -0.1196
13620TIP3    H162351   1.877   3.163   4.397  2.2872 -0.1559  1.8930
13620TIP3    H262352   1.919   3.155   4.252  1.3472  3.4573  1.3677
13621TIP3   OH262353   6.542   1.782  15.213 -0.4090 -0.4582  0.1738
13621TIP3    H162354   6.576   1.871  15.206 -1.2814 -0.1694 -0.5642
13621TIP3    H262355   6.616   1.730  15.244  0.3819  0.3493 -0.3384
13622TIP3   OH262356   5.992   3.509  12.219  1.0671  0.2928  0.9506
13622TIP3    H162357   5.966   3.485  12.130 -0.6164  1.5271  1.0793
13622TIP3    H262358   6.082   3.540  12.209  0.2196  2.4366 -0.7501
13623TIP3   OH262359   6.591   5.675  14.541 -0.3717  0.1055 -0.2419
13623TIP3    H162360   6.544   5.703  14.462  0.5137  5.2141  0.8668
13623TIP3    H262361   6.534   5.702  14.613  1.0601 -0.0372  0.9583
13624TIP3   OH262362   6.295   5.856  16.936  0.2126  0.0548  0.0605
13624TIP3    H162363   6.261   5.775  16.973 -1.2061  0.6075 -0.0210
13624TIP3    H262364   6.225   5.920  16.949  1.4492  1.3497  0.4318
13625TIP3   OH262365   0.144   2.397  15.627 -0.0688 -0.1035  0.2322
13625TIP3    H162366   0.220   2.454  15.625  0.4915 -0.7562  1.9525
13625TIP3    H262367   0.077   2.448  15.674  0.9988 -1.4619  3.3782
13626TIP3   OH262368   2.966   0.020  13.428  0.5074 -0.6169  0.0849
13626TIP3    H162369   2.931   0.109  13.417  2.1218 -0.0512 -0.6593
13626TIP3    H262370   3.015   0.004  13.347  0.1097 -2.2531  0.1530
13627TIP3   OH262371   1.468   5.184   2.582  0.4223  0.0484 -0.0196
13627TIP3    H162372   1.472   5.275   2.613 -0.7988  0.3005 -0.5794
13627TIP3    H262373   1.556   5.150   2.599  1.0479  1.4817 -0.2531
13628TIP3   OH262374   0.848   4.070   0.254  0.7820  0.9840  0.2283
13628TIP3    H162375   0.788   4.057   0.328  0.9815  0.4949  0.3035
13628TIP3    H262376   0.877   4.161   0.263  0.9961  0.8500  0.8964
13629TIP3   OH262377   4.758   5.924  12.314  0.2510  0.1211  0.0926
13629TIP3    H162378   4.763   5.891  12.224  0.6290 -0.5351  0.3505
13629TIP3    H262379   4.706   6.004  12.307 -0.0931 -0.1585 -0.6429
13630TIP3   OH262380   4.574   3.698  14.354  0.1262 -0.0478  0.2771
13630TIP3    H162381   4.658   3.717  14.394  1.0175 -0.4841 -1.3624
13630TIP3    H262382   4.579   3.737  14.267 -1.0007 -0.9366 -0.2004
13631TIP3   OH262383   1.654   6.366  16.336 -0.3616 -0.5230  0.3003
13631TIP3    H162384   1.561   6.368  16.315 -0.5359 -0.9740  1.0196
13631TIP3    H262385   1.697   6.347  16.253 -0.8637  0.2833 -0.1537
13632TIP3   OH262386   3.449   5.108  15.271  0.2011  0.2677 -1.1275
13632TIP3    H162387   3.442   5.037  15.335  1.0974  1.5486  0.4475
13632TIP3    H262388   3.472   5.065  15.189  0.9569 -1.2335 -0.1483
13633TIP3   OH262389   1.681   4.313   1.964  0.5008 -0.9641  0.0527
13633TIP3    H162390   1.684   4.395   1.914  0.0577 -1.8618 -1.4633
13633TIP3    H262391   1.631   4.336   2.043  0.2714  0.1928 -0.4159
13634TIP3   OH262392   3.527   4.050   3.165  0.3181 -0.0346 -0.3890
13634TIP3    H162393   3.553   3.968   3.208 -1.6812 -0.3791  0.2099
13634TIP3    H262394   3.441   4.030   3.127  0.1290  1.6005 -0.8306
13635TIP3   OH262395   0.554   0.039   3.500 -0.3266  0.1942 -0.4307
13635TIP3    H162396   0.469   0.067   3.466  0.3494  1.9962 -0.6474
13635TIP3    H262397   0.605   0.014   3.423  0.3056  1.7963 -0.5398
13636TIP3   OH262398   6.615   3.285  14.290 -0.3233 -0.1555  0.5515
13636TIP3    H162399   6.540   3.233  14.261 -1.5549  0.7761  1.9963
13636TIP3    H262400   6.607   3.367  14.241  0.8312 -0.7627 -0.6866
13637TIP3   OH262401   6.288   5.199  12.707  0.3426  0.0373  0.0723
13637TIP3    H162402   6.372   5.240  12.687 -0.0192  1.0928  0.7246
13637TIP3    H262403   6.273   5.218  12.800  0.0145 -1.2801  0.2963
13638TIP3   OH262404   4.419   5.533  11.423  0.2823 -0.3853 -0.3767
13638TIP3    H162405   4.380   5.451  11.455 -0.5914  0.7022  1.4261
13638TIP3    H262406   4.511   5.527  11.450 -0.1338 -0.0983  1.1681
13639TIP3   OH262407   6.609   5.784   4.267  0.3001 -0.3903 -0.0416
13639TIP3    H162408   6.664   5.831   4.205  0.3168 -0.0165  0.2545
13639TIP3    H262409   6.627   5.826   4.351 -3.3779  2.4559 -0.5344
13640TIP3   OH262410   1.648   1.195  16.946  0.0165  0.3383  0.0063
13640TIP3    H162411   1.729   1.145  16.947 -0.1195  0.1148 -0.2239
13640TIP3    H262412   1.588   1.143  16.893 -0.4555  0.2255  0.6491
13641TIP3   OH262413   6.767   4.524   4.992 -0.0116  0.4239  0.0756
13641TIP3    H162414   6.849   4.483   5.020  0.2560  0.9920  0.1438
13641TIP3    H262415   6.700   4.489   5.051  0.2018  0.0400  0.0892
13642TIP3   OH262416   0.410   1.525   5.621 -0.2951  0.1217 -0.4234
13642TIP3    H162417   0.366   1.448   5.657 -1.0154  0.6294 -0.2145
13642TIP3    H262418   0.362   1.599   5.657  0.3511  0.6711 -0.6821
13643TIP3   OH262419   6.507   2.129  11.531 -0.2266  0.5573  0.0370
13643TIP3    H162420   6.452   2.165  11.462 -0.3579  1.2886  0.5226
13643TIP3    H262421   6.593   2.118  11.489  0.4546  3.6595  0.5148
13644TIP3   OH262422   0.461   5.352   5.873 -0.4449 -0.4387  0.4933
13644TIP3    H162423   0.459   5.424   5.936  0.0466  0.4021 -0.4434
13644TIP3    H262424   0.369   5.338   5.849 -0.5515 -0.2029  0.7622
13645TIP3   OH262425   2.975   5.214  11.646  0.0412 -0.1107  0.0560
13645TIP3    H162426   3.063   5.188  11.675 -0.8739 -1.7347  1.4946
13645TIP3    H262427   2.948   5.143  11.587 -0.3781  0.2876 -0.2345
13646TIP3   OH262428   0.550   5.963  14.625  0.0815  0.4050 -0.3786
13646TIP3    H162429   0.469   5.912  14.620 -0.3781  1.1914 -1.2579
13646TIP3    H262430   0.600   5.936  14.548  1.1409 -0.8692  0.7410
13647TIP3   OH262431   4.616   4.475   0.741 -0.5178  0.0990  0.4528
13647TIP3    H162432   4.616   4.412   0.669 -0.2483  0.7029 -0.0727
13647TIP3    H262433   4.684   4.539   0.718 -2.2228  1.7703 -0.0463
13648TIP3   OH262434   0.076   0.288   5.294 -0.2406 -0.2539  0.1283
13648TIP3    H162435  -0.013   0.288   5.331 -0.2127  1.1575  0.2135
13648TIP3    H262436   0.066   0.331   5.208  0.2129 -0.8604 -0.2311
13649TIP3   OH262437   3.418   3.318  11.249 -0.2053 -0.1203  0.0894
13649TIP3    H162438   3.327   3.339  11.269  0.1217  0.0451  1.4165
13649TIP3    H262439   3.460   3.308  11.334  0.6679 -1.7519 -0.5221
13650TIP3   OH262440   5.633   4.929  14.036  0.0183  0.4500 -0.0018
13650TIP3    H162441   5.562   4.889  13.987  1.2319 -0.4102 -1.1140
13650TIP3    H262442   5.618   5.023  14.029  0.0657  0.3274 -1.8649
13651TIP3   OH262443   2.164   1.647   2.014 -0.0975  0.0922 -0.3802
13651TIP3    H162444   2.223   1.603   1.953  0.3617  2.1111 -1.4624
13651TIP3    H262445   2.201   1.735   2.022 -0.2517 -0.0926  2.7214
13652TIP3   OH262446   1.506   2.390   1.334 -0.0526  0.5417 -0.1836
13652TIP3    H162447   1.414   2.373   1.312 -0.0015  0.8001 -0.5961
13652TIP3    H262448   1.547   2.304   1.332 -0.5510  0.2593  1.2484
13653TIP3   OH262449   5.153   6.355   1.861  0.1064 -0.0484 -0.4949
13653TIP3    H162450   5.112   6.389   1.941  1.0580  0.6014 -0.2789
13653TIP3    H262451   5.092   6.288   1.830 -0.3194 -0.2535  0.7353
13654TIP3   OH262452   1.694   1.359  15.122  0.2248  0.2998 -0.1340
13654TIP3    H162453   1.645   1.426  15.073  1.5921  0.6713 -1.0123
13654TIP3    H262454   1.697   1.284  15.063 -1.1052 -0.4813  0.7608
13655TIP3   OH262455   3.883   0.166   3.367  0.3647 -0.2959  0.3537
13655TIP3    H162456   3.875   0.130   3.455  1.5717  0.6565  0.8783
13655TIP3    H262457   3.806   0.135   3.321 -1.0953  0.4818  2.2126
13656TIP3   OH262458   6.445   1.200   3.239 -0.5319  0.0374  0.2158
13656TIP3    H162459   6.536   1.211   3.267 -0.9706  0.4967  1.4773
13656TIP3    H262460   6.404   1.284   3.258 -0.9676  0.1866 -1.3511
13657TIP3   OH262461   2.689   6.789  10.796 -0.0394  0.5898 -0.4234
13657TIP3    H162462   2.642   6.800  10.879 -1.1171  0.7374 -1.0421
13657TIP3    H262463   2.703   6.878  10.765 -0.8993  0.4999 -1.0884
13658TIP3   OH262464   6.573   0.421   1.640  0.6348 -0.3027 -0.4426
13658TIP3    H162465   6.495   0.457   1.682  1.9371  1.9538  0.1464
13658TIP3    H262466   6.615   0.369   1.709 -0.1824 -1.2549 -0.6643
13659TIP3   OH262467   4.504   0.303  16.942  0.0262 -0.0503  0.6722
13659TIP3    H162468   4.546   0.294  16.857  0.1758 -0.5245  0.7939
13659TIP3    H262469   4.425   0.354  16.925 -0.2970 -0.7264  0.1323
13660TIP3   OH262470   4.495   2.820  12.601 -1.0729 -0.3700  0.6411
13660TIP3    H162471   4.434   2.795  12.532 -0.3466  0.3268 -0.2577
13660TIP3    H262472   4.516   2.738  12.646 -0.8239 -0.9683 -0.5560
13661TIP3   OH262473   2.677   0.935   4.942 -0.0736 -0.7338  0.1965
13661TIP3    H162474   2.708   0.845   4.928 -1.7979 -1.2840 -0.2228
13661TIP3    H262475   2.584   0.932   4.918  0.2357  1.5477 -1.4349
13662TIP3   OH262476   5.559   0.135   3.714  0.2968 -0.2625  0.5851
13662TIP3    H162477   5.560   0.224   3.680 -2.1497 -0.2833  0.3830
13662TIP3    H262478   5.645   0.124   3.755  0.2696  2.5163  1.4712
13663TIP3   OH262479   0.531   2.709  16.425  0.2179  0.1787 -0.8951
13663TIP3    H162480   0.579   2.781  16.465 -0.7359  0.0125  0.5979
13663TIP3    H262481   0.583   2.631  16.445  0.9928  0.3844 -2.0878
13664TIP3   OH262482   3.852   2.732  12.878 -0.2911 -0.1156 -0.5153
13664TIP3    H162483   3.799   2.741  12.799  1.2609  0.4226 -1.5323
13664TIP3    H262484   3.868   2.823  12.906 -1.3613 -0.3134  0.8047
13665TIP3   OH262485   0.930   1.410  13.926  0.0332  0.0164  0.3698
13665TIP3    H162486   1.026   1.406  13.921  0.0352 -2.3315  1.9106
13665TIP3    H262487   0.901   1.319  13.921 -2.1257  0.6790  0.1440
13666TIP3   OH262488   4.808   0.112   4.587  0.2188  0.3671  0.4393
13666TIP3    H162489   4.798   0.021   4.613  2.1024  0.0913  0.2823
13666TIP3    H262490   4.809   0.109   4.491 -1.5024  0.7762  0.3928
13667TIP3   OH262491   3.849   1.935  13.918 -0.2870 -0.4836 -0.4600
13667TIP3    H162492   3.791   1.952  13.992  2.2359 -0.6179  1.6021
13667TIP3    H262493   3.836   1.842  13.897  0.5812 -1.0027  1.2511
13668TIP3   OH262494   0.133   5.639   3.303 -0.0568 -0.3746  0.2290
13668TIP3    H162495   0.118   5.733   3.298  1.5400 -0.1520 -1.0797
13668TIP3    H262496   0.218   5.631   3.348  0.2527 -1.1402 -0.4829
13669TIP3   OH262497   4.639   3.567   2.776  0.0391 -0.5320  0.7945
13669TIP3    H162498   4.588   3.510   2.834  0.0749 -1.9889 -0.5680
13669TIP3    H262499   4.573   3.609   2.720  0.2663 -1.9516 -0.5609
13670TIP3   OH262500   1.855   5.828  11.186  0.2692 -0.5438  0.1572
13670TIP3    H162501   1.898   5.810  11.270  0.1702  0.0359  0.3375
13670TIP3    H262502   1.922   5.810  11.120  0.1317 -1.6749  0.3180
13671TIP3   OH262503   2.197   4.515   2.443  0.2009  0.2110 -0.5514
13671TIP3    H162504   2.277   4.490   2.397  0.6180 -0.8915  0.7164
13671TIP3    H262505   2.227   4.566   2.518 -0.1498 -1.2647  0.6395
13672TIP3   OH262506   0.467   6.641   1.114  0.4613  0.5870  0.1843
13672TIP3    H162507   0.390   6.696   1.101  1.4003  1.3602 -2.3838
13672TIP3    H262508   0.535   6.701   1.146  0.3925  0.1656  1.1389
13673TIP3   OH262509   4.600   0.785  14.536  0.3163  0.5521 -0.6320
13673TIP3    H162510   4.644   0.823  14.612 -0.2045  1.4790 -0.7947
13673TIP3    H262511   4.563   0.703  14.568 -0.1301  1.0715  0.1868
13674TIP3   OH262512   3.081   3.646  13.140 -0.1116  0.0034 -0.2694
13674TIP3    H162513   3.079   3.678  13.230 -0.1598  1.5392 -0.7986
13674TIP3    H262514   3.164   3.601  13.132 -1.1847 -2.3134  1.2656
13675TIP3   OH262515   2.091   5.469  16.739 -0.0125  0.0535 -0.0528
13675TIP3    H162516   2.143   5.416  16.678  1.2259  1.7790 -0.5227
13675TIP3    H262517   2.100   5.423  16.823 -0.7165 -1.6511 -0.8758
13676TIP3   OH262518   2.664   4.841  17.167 -0.4553  0.1987 -0.5211
13676TIP3    H162519   2.694   4.761  17.209 -0.0854  1.1607  1.1007
13676TIP3    H262520   2.700   4.911  17.222 -2.1588  1.4424 -0.9691
13677TIP3   OH262521   1.121   4.026   0.401 -0.2948  0.0847  0.1537
13677TIP3    H162522   1.195   4.018   0.341  0.7094  0.0997  1.3676
13677TIP3    H262523   1.047   3.993   0.351 -0.3123  3.9078 -2.5679
13678TIP3   OH262524   6.142   4.719  10.755  1.0970 -0.0904 -0.8291
13678TIP3    H162525   6.201   4.720  10.679  1.4022  0.7324 -0.5814
13678TIP3    H262526   6.163   4.799  10.804  1.3533 -0.9561  0.4835
13679TIP3   OH262527   6.324   4.720  16.491  0.3630  0.0502 -0.1823
13679TIP3    H162528   6.408   4.740  16.449 -0.6484  2.0944 -1.2997
13679TIP3    H262529   6.274   4.673  16.425  0.4925 -0.8670  0.3680
13680TIP3   OH262530   6.609   4.771  12.894  0.0415  0.0267  0.3247
13680TIP3    H162531   6.524   4.815  12.898  0.0458 -0.0925  2.0479
13680TIP3    H262532   6.673   4.840  12.913  0.3692  0.1765 -1.2367
13681TIP3   OH262533   1.258   0.228  14.061  0.1003  0.1503 -0.2015
13681TIP3    H162534   1.230   0.162  13.998 -0.1503  0.8476 -0.8256
13681TIP3    H262535   1.346   0.253  14.031  1.0172 -1.2892  1.1596
13682TIP3   OH262536   6.045   4.533   1.978  0.8213  0.1819  0.2660
13682TIP3    H162537   6.107   4.495   2.040 -0.6991 -0.5368  1.3896
13682TIP3    H262538   6.049   4.627   1.994  2.9289  0.3008 -0.9280
13683TIP3   OH262539   6.581   1.138  14.982 -0.2860 -0.3060 -0.4857
13683TIP3    H162540   6.543   1.165  15.065 -0.1682  1.8923 -1.1108
13683TIP3    H262541   6.514   1.082  14.942 -1.1494  0.1927  0.2397
13684TIP3   OH262542   2.479   4.227   1.009 -0.4733  0.4621 -0.3624
13684TIP3    H162543   2.563   4.273   1.003 -1.1790  1.8122 -0.1109
13684TIP3    H262544   2.503   4.135   1.018  0.9801  0.8182 -0.3964
13685TIP3   OH262545   3.950   6.131   5.186  0.4129 -0.1137  0.4352
13685TIP3    H162546   3.919   6.214   5.222  1.6739  0.3375  0.4912
13685TIP3    H262547   3.875   6.072   5.195 -1.0248  1.4182 -0.9866
13686TIP3   OH262548   0.801   5.814  11.001 -0.4325  0.4106  0.6403
13686TIP3    H162549   0.733   5.861  10.953 -1.8721 -0.7923  1.5101
13686TIP3    H262550   0.826   5.742  10.943 -0.6840  0.2005  0.7911
13687TIP3   OH262551   3.664   6.166  10.776 -0.3728  0.3862  0.4291
13687TIP3    H162552   3.700   6.253  10.761  1.6152  0.2627  3.8777
13687TIP3    H262553   3.662   6.157  10.871 -2.2275 -2.6708  0.1667
13688TIP3   OH262554   4.068   0.359  13.761 -0.5646 -0.2647 -0.6260
13688TIP3    H162555   4.082   0.311  13.843  0.2919 -0.5247 -0.9164
13688TIP3    H262556   4.156   0.388  13.735 -1.2501  3.2042  0.5736
13689TIP3   OH262557   1.825   4.299  12.554 -0.1778  0.1847 -0.4757
13689TIP3    H162558   1.737   4.260  12.554 -0.3806  0.6441 -0.2234
13689TIP3    H262559   1.872   4.249  12.621 -0.7338  1.0354  0.5560
13690TIP3   OH262560   4.015   4.773   5.202 -0.3061 -0.1366  0.6694
13690TIP3    H162561   4.085   4.715   5.231 -0.3915 -0.2208  0.7044
13690TIP3    H262562   3.975   4.728   5.128 -0.1153  0.0588  0.4449
13691TIP3   OH262563   2.331   0.465  14.930 -0.3410  0.2961 -0.1051
13691TIP3    H162564   2.280   0.408  14.988 -0.5511  1.9666  1.4151
13691TIP3    H262565   2.319   0.428  14.843 -0.6603 -1.8211  0.8132
13692TIP3   OH262566   1.519   5.493   5.097 -0.0347 -0.3184 -0.2676
13692TIP3    H162567   1.528   5.438   5.175 -1.1530 -0.9897 -0.5913
13692TIP3    H262568   1.595   5.550   5.099  0.5431 -1.0992  0.7093
13693TIP3   OH262569   4.516   2.804  14.662 -0.0167  0.1663 -0.5325
13693TIP3    H162570   4.592   2.808  14.605 -0.7255 -0.3598 -1.5382
13693TIP3    H262571   4.451   2.754  14.612 -0.2540 -1.3064  1.2080
13694TIP3   OH262572   0.470   4.229  15.941  0.2179 -0.1974 -0.2008
13694TIP3    H162573   0.433   4.307  15.899  1.5430  1.1076  1.0378
13694TIP3    H262574   0.398   4.193  15.993 -0.3431  0.2753 -0.6435
13695TIP3   OH262575   6.578   3.975  13.141 -0.0384 -0.2047  0.4522
13695TIP3    H162576   6.546   4.001  13.054 -0.6114 -1.0534  0.3983
13695TIP3    H262577   6.581   4.056  13.191 -1.8253 -0.0337  0.3004
13696TIP3   OH262578   4.307   6.423  13.925  0.0491 -0.0028 -0.0598
13696TIP3    H162579   4.344   6.510  13.906 -0.4226  0.2648  0.2501
13696TIP3    H262580   4.216   6.440  13.949 -0.3585 -0.6926 -1.0888
13697TIP3   OH262581   1.571   4.470   4.764 -0.0080 -0.0143  0.2526
13697TIP3    H162582   1.622   4.410   4.820  3.5458  1.7660 -0.9309
13697TIP3    H262583   1.537   4.536   4.824  1.6215  0.4303  0.7245
13698TIP3   OH262584   0.504   3.943   4.768 -0.1250 -0.1022 -0.0456
13698TIP3    H162585   0.585   3.989   4.743 -1.5776  2.5239 -0.1178
13698TIP3    H262586   0.436   3.985   4.716 -1.0606 -5.0247 -3.0456
13699TIP3   OH262587   5.022   2.221   1.862  0.0460  0.8278 -0.5445
13699TIP3    H162588   5.086   2.274   1.910  0.9583  0.5067 -1.3914
13699TIP3    H262589   5.006   2.145   1.918 -1.9244  2.3857  1.0900
13700TIP3   OH262590   6.768   2.619  11.715  0.1934  0.6865  0.1018
13700TIP3    H162591   6.775   2.578  11.801  0.0430 -3.3247 -1.7154
13700TIP3    H262592   6.689   2.582  11.676 -0.6262  3.6304 -1.2307
13701TIP3   OH262593   6.761   3.214  17.141  0.1593 -0.6161  0.1915
13701TIP3    H162594   6.705   3.248  17.211  1.3674  1.0412  0.4014
13701TIP3    H262595   6.808   3.291  17.109  1.0837 -1.6939 -1.1094
13702TIP3   OH262596   4.185   1.588   2.762 -0.6187 -1.2402 -0.2528
13702TIP3    H162597   4.121   1.626   2.823  1.8694  2.2386  0.3373
13702TIP3    H262598   4.167   1.632   2.679 -0.0778 -1.5097 -0.5118
13703TIP3   OH262599   5.272   1.700  15.947  0.1900 -0.6849  0.6385
13703TIP3    H162600   5.273   1.729  15.856 -0.7616 -3.1491 -0.1847
13703TIP3    H262601   5.217   1.763  15.992  0.5186  0.4468 -0.5239
13704TIP3   OH262602   3.766   6.317  10.475 -0.2277 -0.9223 -0.2490
13704TIP3    H162603   3.774   6.408  10.448 -0.5499 -0.3429  1.5521
13704TIP3    H262604   3.838   6.303  10.536 -0.5565 -1.6938 -0.0336
13705TIP3   OH262605   5.921   4.784   2.576  0.0228  0.5741  0.0681
13705TIP3    H162606   5.968   4.700   2.572 -0.7558  0.1725 -0.7493
13705TIP3    H262607   5.834   4.761   2.608  0.4117  1.3521  1.7783
13706TIP3   OH262608   6.582   2.899  12.601 -0.1050  0.0355 -0.0824
13706TIP3    H162609   6.501   2.950  12.594 -0.6012 -0.6323  0.6298
13706TIP3    H262610   6.618   2.923  12.686  1.0942  1.2433 -0.9053
13707TIP3   OH262611   2.033   3.264   4.758 -0.0056  0.1306 -0.4067
13707TIP3    H162612   2.056   3.172   4.744 -2.6898 -0.6045 -0.2645
13707TIP3    H262613   1.999   3.294   4.674  0.5321  0.8895 -0.3562
13708TIP3   OH262614   6.756   2.126   4.992 -0.0565 -0.4982  0.1305
13708TIP3    H162615   6.674   2.132   5.041 -0.6508  0.4625 -0.9685
13708TIP3    H262616   6.787   2.216   4.986  2.1095 -1.0628  2.2265
13709TIP3   OH262617   3.195   3.745   3.547  0.4771 -0.3036  0.7056
13709TIP3    H162618   3.121   3.714   3.599 -0.4325 -0.8773 -0.8755
13709TIP3    H262619   3.159   3.755   3.459  1.5219  2.3487  0.5318
13710TIP3   OH262620   3.472   4.354   4.004 -0.0357 -0.0466 -0.4780
13710TIP3    H162621   3.381   4.323   4.001 -0.6443  1.6697 -0.1867
13710TIP3    H262622   3.521   4.280   4.039 -1.9052  0.2827  3.0932
13711TIP3   OH262623   5.980   3.514   2.475 -0.5423 -0.1049  0.2370
13711TIP3    H162624   5.927   3.459   2.533 -0.0561  0.8021  1.5616
13711TIP3    H262625   6.069   3.480   2.483 -0.5073 -0.1147 -0.1550
13712TIP3   OH262626   4.252   5.530   4.769 -0.3713  0.0094  0.5280
13712TIP3    H162627   4.302   5.608   4.795  0.6575 -0.3005 -0.4945
13712TIP3    H262628   4.313   5.458   4.780 -0.8605 -0.4756  0.0546
13713TIP3   OH262629   5.439   4.403  15.130  0.4476  0.4574  0.2397
13713TIP3    H162630   5.429   4.444  15.044  0.7682  0.7990  0.3625
13713TIP3    H262631   5.478   4.318  15.112 -0.6846 -0.0135 -0.0604
13714TIP3   OH262632   0.602   0.960  14.004  0.2267 -0.4638  0.2690
13714TIP3    H162633   0.616   1.044  13.959 -0.0066 -0.2577  0.5742
13714TIP3    H262634   0.508   0.946  13.999  0.3839 -1.1888 -0.6314
13715TIP3   OH262635   6.122   6.217  13.224 -0.2554 -0.1094  0.7528
13715TIP3    H162636   6.027   6.215  13.214 -0.1299 -0.7854 -0.4171
13715TIP3    H262637   6.140   6.149  13.290 -0.3770 -1.9321 -1.0341
13716TIP3   OH262638   3.205   5.144  12.437 -0.4002  0.0504 -0.5706
13716TIP3    H162639   3.259   5.065  12.441 -0.3227  0.0767 -1.1110
13716TIP3    H262640   3.245   5.197  12.368 -0.9793  0.1785 -0.8064
13717TIP3   OH262641   6.731   2.385   6.145 -0.0597  0.0821  0.0762
13717TIP3    H162642   6.808   2.441   6.133  0.8329 -0.8449  1.3142
13717TIP3    H262643   6.760   2.318   6.206 -1.7388 -0.5398  0.2136
13718TIP3   OH262644   5.907   6.587  12.264  0.1588 -0.1289 -0.0953
13718TIP3    H162645   5.924   6.547  12.179 -0.8765 -0.1649 -0.2956
13718TIP3    H262646   5.832   6.539  12.299  0.8696 -0.4287  1.0602
13719TIP3   OH262647   2.594   5.757   2.091 -0.5589  0.0058  0.2187
13719TIP3    H162648   2.539   5.787   2.163 -0.2646  1.0964 -0.0027
13719TIP3    H262649   2.681   5.792   2.110 -0.1796 -0.8237  0.0264
13720TIP3   OH262650   1.447   5.051  15.415 -0.1163  0.1378 -0.5906
13720TIP3    H162651   1.501   5.090  15.346 -0.4414 -0.7011 -1.3260
13720TIP3    H262652   1.390   4.989  15.369 -0.1679 -0.6085  0.4571
13721TIP3   OH262653   5.269   5.786  16.814 -0.2210  0.3870 -0.2699
13721TIP3    H162654   5.361   5.804  16.797 -0.0432 -0.0077  0.2708
13721TIP3    H262655   5.230   5.777  16.727 -0.4623  3.9596 -0.5899
13722TIP3   OH262656   3.389   3.483  15.163 -0.1809 -0.2835  0.4542
13722TIP3    H162657   3.331   3.433  15.105  2.1298 -0.3118 -1.8995
13722TIP3    H262658   3.330   3.544  15.208 -2.3161 -1.6712 -0.3517
13723TIP3   OH262659   1.372   4.214  10.477 -0.5679 -0.0119 -0.2984
13723TIP3    H162660   1.332   4.299  10.496  0.0587  0.3422 -0.5381
13723TIP3    H262661   1.465   4.233  10.466 -0.1285 -1.0214  1.4630
13724TIP3   OH262662   2.900   0.492   3.783 -0.8052 -0.0248  0.3651
13724TIP3    H162663   2.865   0.414   3.827  0.8533 -1.4437 -0.7964
13724TIP3    H262664   2.966   0.526   3.843  0.0850 -0.8515 -0.1235
13725TIP3   OH262665   5.118   1.075   3.973  0.5566 -0.3297 -0.0494
13725TIP3    H162666   5.182   1.010   4.001 -0.2881 -1.2784 -0.3098
13725TIP3    H262667   5.124   1.144   4.039 -0.3118 -1.8176  1.6524
13726TIP3   OH262668   5.806   2.865  12.578 -0.4661  0.0690 -0.5778
13726TIP3    H162669   5.823   2.952  12.541  0.3799 -0.2770 -1.0193
13726TIP3    H262670   5.745   2.824  12.517 -0.6198  0.2342 -0.5344
13727TIP3   OH262671   5.260   4.897   1.116 -0.2436 -0.4149 -0.1495
13727TIP3    H162672   5.206   4.825   1.150 -1.9672  1.7513  1.9104
13727TIP3    H262673   5.300   4.935   1.194  2.5453 -0.5755 -1.4598
13728TIP3   OH262674   3.284   0.443  11.043 -0.0725 -0.0487  0.1937
13728TIP3    H162675   3.201   0.487  11.029  0.9783  1.8747 -0.2359
13728TIP3    H262676   3.264   0.372  11.104 -1.6143  1.7324  1.8083
13729TIP3   OH262677   6.259   0.840   2.054 -0.0245  0.0374 -0.8321
13729TIP3    H162678   6.275   0.906   2.122  0.1834 -1.5063  0.6382
13729TIP3    H262679   6.283   0.884   1.972  1.3435  1.3653  0.2479
13730TIP3   OH262680   5.171   2.185  12.498  0.1839 -0.0662 -0.6612
13730TIP3    H162681   5.205   2.247  12.433 -3.5190  0.6227 -2.0461
13730TIP3    H262682   5.164   2.102  12.452 -0.4847 -0.0842 -0.5281
13731TIP3   OH262683   2.283   2.207  13.440 -0.4763  0.1228 -0.5452
13731TIP3    H162684   2.196   2.175  13.467 -1.0564  2.8337  1.0034
13731TIP3    H262685   2.342   2.170  13.506 -0.4806 -1.3307 -1.3230
13732TIP3   OH262686   4.641   1.272   1.984 -0.4547  0.1783 -0.0895
13732TIP3    H162687   4.615   1.232   2.066 -0.1347  0.4855  0.1634
13732TIP3    H262688   4.671   1.199   1.929  0.4563  0.1027  0.4933
13733TIP3   OH262689   2.695   1.462  12.886 -0.2446 -0.3769  0.6306
13733TIP3    H162690   2.652   1.412  12.955  0.1490  0.2026  1.3045
13733TIP3    H262691   2.629   1.525  12.857 -0.5170 -0.8356  0.2503
13734TIP3   OH262692   0.346   1.649  16.666  0.0434  0.4513 -0.4225
13734TIP3    H162693   0.341   1.698  16.584  1.4183 -0.7482 -1.2274
13734TIP3    H262694   0.398   1.572  16.646 -0.8815 -0.6409  1.2041
13735TIP3   OH262695   0.109   3.598  14.239 -0.5176 -0.2295 -0.4796
13735TIP3    H162696   0.159   3.523  14.271 -1.7086 -1.3450 -1.1703
13735TIP3    H262697   0.155   3.674  14.273  0.4312 -1.2919  0.6486
13736TIP3   OH262698   5.138   3.156  14.747  0.3403  0.3188  0.5393
13736TIP3    H162699   5.220   3.108  14.755  0.0585  0.2037  3.0981
13736TIP3    H262700   5.105   3.164  14.837 -3.4528 -1.4018 -0.5976
13737TIP3   OH262701   2.168   6.476  14.546 -0.4112 -0.7373  0.3363
13737TIP3    H162702   2.161   6.493  14.452 -0.6311  1.0784  0.6721
13737TIP3    H262703   2.089   6.514  14.583 -0.1968 -1.2208  1.3054
13738TIP3   OH262704   4.999   2.164   5.921  0.0471  0.0967 -0.2176
13738TIP3    H162705   4.967   2.245   5.962  2.5501  1.2771 -0.5140
13738TIP3    H262706   4.920   2.122   5.887 -1.3236  2.2802  0.1562
13739TIP3   OH262707   1.714   5.635   5.392 -0.3861 -0.1067  0.1870
13739TIP3    H162708   1.761   5.704   5.439  3.2678 -1.3547 -1.4661
13739TIP3    H262709   1.767   5.557   5.404 -2.5229 -1.8013 -1.0561
13740TIP3   OH262710   5.903   5.222  17.269 -0.1282 -0.9435  0.1130
13740TIP3    H162711   5.958   5.287  17.225  1.7841 -0.8283  2.5231
13740TIP3    H262712   5.851   5.183  17.199 -0.6758  2.5372 -1.5281
13741TIP3   OH262713   4.794   4.271   0.402  0.7334 -0.4661  0.4418
13741TIP3    H162714   4.737   4.304   0.333  0.9164  0.8076  0.8999
13741TIP3    H262715   4.735   4.236   0.468  0.5150  0.0320  0.5057
13742TIP3   OH262716   5.033   2.586  13.417 -0.0517  0.4219  0.1880
13742TIP3    H162717   5.037   2.543  13.331  1.3359 -0.5749  0.7322
13742TIP3    H262718   5.078   2.526  13.476 -1.6777  0.7482  1.7952
13743TIP3   OH262719   5.059   1.072  14.309 -0.2967 -0.8099 -0.1092
13743TIP3    H162720   5.003   1.137  14.351 -0.4849 -2.2525  1.9218
13743TIP3    H262721   5.147   1.091  14.342 -0.0985 -0.6018 -0.7493
13744TIP3   OH262722   5.421   1.887   5.444  0.4312 -0.1224  0.3445
13744TIP3    H162723   5.355   1.870   5.377  0.3267  1.7074 -0.0563
13744TIP3    H262724   5.376   1.870   5.527 -0.0102 -0.5978  0.0075
13745TIP3   OH262725   4.185   3.203   0.807 -0.5286  0.0286  0.5857
13745TIP3    H162726   4.195   3.154   0.726 -1.4168 -0.4005  0.7391
13745TIP3    H262727   4.157   3.139   0.872  0.7274  0.2569  1.3762
13746TIP3   OH262728   4.061   4.680   2.883  0.5044 -0.4360 -0.0120
13746TIP3    H162729   4.086   4.674   2.975 -0.0463  3.4380  0.4931
13746TIP3    H262730   3.973   4.720   2.885  1.4258  1.8780 -2.2164
13747TIP3   OH262731   1.078   5.894   1.243  0.0669  0.1064 -0.3733
13747TIP3    H162732   1.004   5.877   1.300 -0.6612 -1.7473 -1.8090
13747TIP3    H262733   1.071   5.987   1.221 -0.9380  0.2936  0.7361
13748TIP3   OH262734   1.797   4.648  12.275  0.2043  0.0870  0.0674
13748TIP3    H162735   1.824   4.720  12.333  1.5237 -0.4492  0.1430
13748TIP3    H262736   1.842   4.666  12.193  0.6531 -0.7291  0.1288
13749TIP3   OH262737   6.243   2.954  14.770 -0.1989 -0.4193 -0.7221
13749TIP3    H162738   6.337   2.957  14.789 -0.2816 -0.1433 -0.3415
13749TIP3    H262739   6.201   2.955  14.856 -0.5346 -1.4586 -0.8697
13750TIP3   OH262740   1.589   0.379  13.313 -0.0649  0.4635  0.3769
13750TIP3    H162741   1.560   0.341  13.230 -3.0158  1.6474  0.8095
13750TIP3    H262742   1.648   0.451  13.288 -0.9248  0.7991 -0.6855
13751TIP3   OH262743   3.770   4.411   4.255  0.2438 -0.6900  0.8659
13751TIP3    H162744   3.853   4.374   4.225 -0.5370 -0.7738 -1.2489
13751TIP3    H262745   3.740   4.466   4.183 -0.2397  1.5066  2.6719
13752TIP3   OH262746   2.408   1.673  12.463  0.0299  0.1813 -0.0833
13752TIP3    H162747   2.410   1.580  12.484  1.5411  0.1889 -0.1522
13752TIP3    H262748   2.336   1.707  12.516 -1.0397 -1.1504 -0.6450
13753TIP3   OH262749   6.651   1.480  13.834 -0.1706 -0.2934 -0.8205
13753TIP3    H162750   6.558   1.504  13.831 -0.2117  0.1127  2.4213
13753TIP3    H262751   6.663   1.442  13.920  2.6221 -0.6888 -1.3510
13754TIP3   OH262752   5.556   0.076  12.083 -0.2929  0.0559  0.1745
13754TIP3    H162753   5.631   0.134  12.095 -0.1271  0.3579 -2.1608
13754TIP3    H262754   5.496   0.125  12.028 -2.2603 -0.1761  2.0164
13755TIP3   OH262755   1.678   1.248   0.403 -0.1836 -0.1983  0.4316
13755TIP3    H162756   1.681   1.278   0.313  0.7798 -0.4018  0.3942
13755TIP3    H262757   1.667   1.153   0.397 -1.0341 -0.1101  0.5366
13756TIP3   OH262758   6.400   4.504  16.178 -0.5960 -0.0582 -0.3889
13756TIP3    H162759   6.433   4.593  16.169 -1.8621  0.4043 -0.4899
13756TIP3    H262760   6.476   4.448  16.157  0.5213  0.9744  0.8663
13757TIP3   OH262761   0.109   5.227   3.699  0.0964  0.2760  0.4017
13757TIP3    H162762   0.135   5.297   3.760 -2.0043  0.3347  1.2452
13757TIP3    H262763   0.128   5.264   3.613 -2.0558  2.3976  0.7742
13758TIP3   OH262764   5.052   2.841   4.904 -0.1828  0.0510 -0.0863
13758TIP3    H162765   4.976   2.824   4.961 -0.4006  1.2751  0.0093
13758TIP3    H262766   5.024   2.915   4.850  0.2009 -0.7955 -1.4705
13759TIP3   OH262767   4.233   6.452  11.839  0.0193 -0.2745  0.4641
13759TIP3    H162768   4.290   6.475  11.766  0.0990 -1.4052  0.1554
13759TIP3    H262769   4.288   6.398  11.896 -0.9647 -2.1344 -0.2822
13760TIP3   OH262770   1.308   4.847  14.725 -0.2250  0.3278  0.4575
13760TIP3    H162771   1.247   4.919  14.711 -1.1476 -0.6837 -0.8413
13760TIP3    H262772   1.385   4.870  14.673 -0.0096  0.9643  1.0442
13761TIP3   OH262773   3.897   6.816  15.213  0.1655 -0.0765 -0.5419
13761TIP3    H162774   3.861   6.902  15.191  1.3474  0.2066 -1.3806
13761TIP3    H262775   3.839   6.754  15.170 -2.3463  0.1463  2.3074
13762TIP3   OH262776   4.679   5.789  17.053  0.2965  0.1023 -0.0753
13762TIP3    H162777   4.686   5.787  17.149  1.0435  1.0719 -0.0971
13762TIP3    H262778   4.768   5.806  17.024 -0.2395  1.6315 -0.8675
13763TIP3   OH262779   2.674   2.058  17.135 -0.0099  0.0363 -1.1120
13763TIP3    H162780   2.666   1.964  17.121  1.1437 -0.2387  0.0548
13763TIP3    H262781   2.732   2.088  17.065  1.3491 -0.4699 -0.2193
13764TIP3   OH262782   3.142   1.535  12.679  0.3669 -0.1251  0.1607
13764TIP3    H162783   3.231   1.534  12.715 -0.0679  0.7096  1.2608
13764TIP3    H262784   3.151   1.582  12.596  0.5079  2.3002  1.5066
13765TIP3   OH262785   5.364   2.911  16.482  0.6405  0.2924  0.4156
13765TIP3    H162786   5.413   2.904  16.564  1.1659  1.8346  0.2576
13765TIP3    H262787   5.272   2.913  16.509  0.6815 -2.0264  0.7574
13766TIP3   OH262788   3.137   4.307  13.024 -0.0113  0.5692  0.0634
13766TIP3    H162789   3.149   4.221  12.983  0.6376  1.2335 -1.1694
13766TIP3    H262790   3.052   4.301  13.068 -0.6749 -0.2128 -1.2740
13767TIP3   OH262791   1.023   1.062  16.041 -0.1372  0.1788 -0.2386
13767TIP3    H162792   1.011   0.996  16.110  1.7650  1.4160  1.3200
13767TIP3    H262793   1.116   1.082  16.043 -0.1863  0.8052 -2.6998
13768TIP3   OH262794   3.499   1.515  16.000  0.6295 -0.5420  0.2523
13768TIP3    H162795   3.530   1.602  15.973 -0.7115  0.3761  1.6692
13768TIP3    H262796   3.404   1.523  16.003  0.5016 -2.0625  0.4422
13769TIP3   OH262797   4.033   4.214   2.656  0.3578  0.4569 -0.2398
13769TIP3    H162798   4.126   4.201   2.638 -0.1206 -1.4651 -1.4608
13769TIP3    H262799   3.988   4.161   2.591 -1.6077  1.1199  0.5287
13770TIP3   OH262800   2.248   0.770   1.285 -0.1167 -0.0437  0.5615
13770TIP3    H162801   2.263   0.680   1.255  0.4761  0.6606 -1.3456
13770TIP3    H262802   2.319   0.787   1.347  0.4144 -0.5171  0.0868
13771TIP3   OH262803   6.399   5.979  14.743  0.6491  0.2390  0.3656
13771TIP3    H162804   6.397   5.921  14.820  1.7295  0.0905  0.2919
13771TIP3    H262805   6.487   5.968  14.708 -0.2744 -0.7458 -1.7166
13772TIP3   OH262806   2.853   6.794   4.125 -0.3832  0.0819  0.3951
13772TIP3    H162807   2.831   6.772   4.215  0.8861 -2.5959  0.1101
13772TIP3    H262808   2.907   6.721   4.095 -0.8022  0.8989 -2.5374
13773TIP3   OH262809   0.159   6.685  14.981  0.1018  0.4715 -0.0061
13773TIP3    H162810   0.160   6.593  14.954  0.3473  1.2280 -2.7210
13773TIP3    H262811   0.241   6.698  15.028  1.6823  0.1246 -2.6138
13774TIP3   OH262812   1.579   4.259   4.286  0.1893  0.3196 -0.4995
13774TIP3    H162813   1.566   4.242   4.380  1.6447  1.4322 -0.0842
13774TIP3    H262814   1.523   4.195   4.243  1.5352 -1.9968  1.0895
13775TIP3   OH262815   0.416   5.809  12.322 -0.2428  0.3112 -0.2753
13775TIP3    H162816   0.503   5.804  12.363 -0.4611  0.1725  0.1751
13775TIP3    H262817   0.356   5.822  12.395 -0.6508 -0.0794 -0.5388
13776TIP3   OH262818   5.757   0.124   4.988 -0.6572 -0.5254  0.5238
13776TIP3    H162819   5.778   0.180   4.913 -0.8772 -1.7775 -0.4924
13776TIP3    H262820   5.683   0.071   4.958 -3.2773  1.6146  2.9449
13777TIP3   OH262821   2.189   3.805  16.135  0.0679 -0.2108  0.4650
13777TIP3    H162822   2.158   3.723  16.174  2.0940 -1.1039  0.2636
13777TIP3    H262823   2.132   3.819  16.060 -0.2963 -1.4572  0.4955
13778TIP3   OH262824   3.218   3.182   0.092  0.0608 -0.2899  0.6458
13778TIP3    H162825   3.252   3.254   0.145  0.5998 -0.4727  0.5623
13778TIP3    H262826   3.139   3.216   0.051 -1.3520 -0.6952  2.9210
13779TIP3   OH262827   3.820   3.557   1.044  0.0922 -0.1802  0.0635
13779TIP3    H162828   3.731   3.575   1.016  0.7702 -0.7331 -2.5372
13779TIP3    H262829   3.856   3.643   1.067 -0.2785  0.3884 -1.4380
13780TIP3   OH262830   3.990   6.567   4.127  0.3829 -0.8410 -0.5318
13780TIP3    H162831   4.000   6.607   4.213 -1.0382 -2.7775  0.5966
13780TIP3    H262832   3.944   6.633   4.075  0.6287  0.0755  0.3965
13781TIP3   OH262833   4.891   3.561   2.496  0.2249 -0.0998 -0.0691
13781TIP3    H162834   4.970   3.600   2.534 -0.6009 -0.2492  1.8482
13781TIP3    H262835   4.916   3.541   2.406  2.1895  0.4040  0.3270
13782TIP3   OH262836   4.861   4.461   1.022 -0.0748  0.4876 -0.0943
13782TIP3    H162837   4.937   4.517   1.037  1.8129 -1.5165 -2.0159
13782TIP3    H262838   4.797   4.519   0.980  0.3753  2.1694  1.4707
13783TIP3   OH262839   1.451   1.288   5.702  0.3072 -0.2541  0.1259
13783TIP3    H162840   1.374   1.290   5.758  0.9554 -1.7392  1.1017
13783TIP3    H262841   1.502   1.365   5.729 -0.9303  0.8749 -0.7032
13784TIP3   OH262842   4.169   1.959   1.420 -0.5047 -0.7942  0.4236
13784TIP3    H162843   4.132   1.930   1.337  0.7468 -0.7624 -0.1535
13784TIP3    H262844   4.258   1.986   1.399 -0.2664 -0.5163  1.7267
13785TIP3   OH262845   5.637   4.034  13.482  0.2848  0.0076  0.7413
13785TIP3    H162846   5.728   4.065  13.485  0.4888 -0.5022 -0.2140
13785TIP3    H262847   5.613   4.022  13.574  1.0013  0.6736  1.0226
13786TIP3   OH262848   4.277   0.314  14.355  0.3235 -0.1106  0.0023
13786TIP3    H162849   4.363   0.357  14.358 -0.0301  0.6862 -0.8062
13786TIP3    H262850   4.222   0.376  14.307 -0.3804 -1.1743 -0.5787
13787TIP3   OH262851   5.068   1.657   4.037 -0.5775 -0.6541 -0.0788
13787TIP3    H162852   5.087   1.685   3.947  0.1226  0.1372  0.3053
13787TIP3    H262853   5.129   1.707   4.091 -0.6283 -1.5157  0.7990
13788TIP3   OH262854   5.010   2.902   2.840 -0.5325 -0.6375  0.5115
13788TIP3    H162855   4.937   2.956   2.870 -0.1341 -0.6803  1.5834
13788TIP3    H262856   4.998   2.819   2.886  0.5353 -0.4267  1.1893
13789TIP3   OH262857   3.333   4.255   1.093 -0.6754  0.5913  0.4435
13789TIP3    H162858   3.302   4.224   1.008 -1.2297 -0.2334  0.9317
13789TIP3    H262859   3.340   4.350   1.083 -0.2096  0.4490 -0.6829
13790TIP3   OH262860   3.462   2.704  14.177 -0.5218 -0.3351  0.3079
13790TIP3    H162861   3.371   2.731  14.166 -0.2444  0.7548  0.6211
13790TIP3    H262862   3.466   2.672  14.268 -0.2545  1.0448  0.7995
13791TIP3   OH262863   0.252   5.378   3.185 -0.3903  0.1127 -0.3357
13791TIP3    H162864   0.315   5.332   3.130  1.9787  1.4054  1.2291
13791TIP3    H262865   0.265   5.471   3.164 -1.3837  0.4239  0.3938
13792TIP3   OH262866   0.269   4.967  16.288 -0.2195  0.6886 -0.5609
13792TIP3    H162867   0.241   4.886  16.333  2.2634  0.6006  0.9030
13792TIP3    H262868   0.275   5.032  16.358 -1.5610  1.9996 -1.6334
13793TIP3   OH262869   1.677   2.012  12.842 -0.4405 -0.3341 -0.3125
13793TIP3    H162870   1.743   1.970  12.787  1.7770 -0.5660  2.4263
13793TIP3    H262871   1.659   1.949  12.911 -0.7310  1.2333  1.0796
13794TIP3   OH262872   5.033   2.608   2.149 -0.1234  0.0358 -0.9570
13794TIP3    H162873   5.007   2.580   2.061  1.2114 -0.2447 -1.2699
13794TIP3    H262874   5.090   2.538   2.180 -0.1086  0.4300 -0.0999
13795TIP3   OH262875   4.781   0.109   0.272 -0.2766  0.4018  0.4775
13795TIP3    H162876   4.692   0.073   0.276 -0.1597 -0.0002 -0.4833
13795TIP3    H262877   4.824   0.072   0.349 -0.5642 -0.4512  0.2422
13796TIP3   OH262878   3.022   1.089  14.770  0.0822  0.3166 -0.0162
13796TIP3    H162879   3.026   0.994  14.764  1.7054  0.3409  0.4019
13796TIP3    H262880   2.940   1.107  14.815  0.5144 -0.9527  1.3029
13797TIP3   OH262881   2.136   5.312  15.716 -0.2347 -0.1349  0.4141
13797TIP3    H162882   2.128   5.251  15.643 -0.0637  0.0802  0.2157
13797TIP3    H262883   2.228   5.339  15.716 -0.1614 -0.3639  0.8947
13798TIP3   OH262884   1.917   5.760  12.771 -0.6723 -0.3517 -0.5217
13798TIP3    H162885   1.924   5.669  12.742 -2.8304 -0.8216  0.3079
13798TIP3    H262886   1.823   5.774  12.781 -0.3645  2.0407 -0.8172
13799TIP3   OH262887   2.487   0.601   0.040  0.3601  0.4965  0.0479
13799TIP3    H162888   2.407   0.594   0.092 -0.2662  0.9145 -0.8403
13799TIP3    H262889   2.460   0.579  -0.049  1.6012 -1.0630  0.0424
13800TIP3   OH262890   2.853   2.517   3.447 -0.0949  0.6791  0.3110
13800TIP3    H162891   2.795   2.571   3.501 -1.3157 -0.1905 -0.1082
13800TIP3    H262892   2.900   2.580   3.392 -1.6777  1.3042 -0.3526
13801TIP3   OH262893   0.219   2.571   4.117  0.0341  0.0682  0.1132
13801TIP3    H162894   0.159   2.600   4.185 -1.5416 -1.6965 -0.4806
13801TIP3    H262895   0.238   2.650   4.066 -1.0011  0.8309  0.8907
13802TIP3   OH262896   6.811   4.602  14.113  0.0017  0.1263 -0.1046
13802TIP3    H162897   6.796   4.688  14.152 -0.0125  0.5313 -0.9914
13802TIP3    H262898   6.780   4.540  14.179 -0.8830  0.8273  0.1550
13803TIP3   OH262899   3.285   0.064   1.004 -0.5665  0.3281  0.0270
13803TIP3    H162900   3.356   0.117   0.968  0.9240 -0.1460  2.1438
13803TIP3    H262901   3.275  -0.008   0.941  0.6571  0.5465 -0.4307
13804TIP3   OH262902   6.313   3.336  14.741  0.6675  0.0718 -0.2115
13804TIP3    H162903   6.402   3.345  14.708  0.2749 -0.8738 -1.5780
13804TIP3    H262904   6.299   3.241  14.745 -1.4289  0.1922 -3.2858
13805TIP3   OH262905   4.738   0.236  16.783 -0.6238  0.0767 -0.1200
13805TIP3    H162906   4.826   0.276  16.785  0.0744 -1.4782  2.0465
13805TIP3    H262907   4.721   0.221  16.690  1.9918 -0.8240 -0.4927
13806TIP3   OH262908   2.519   3.002  13.670 -0.2077  0.3153 -0.1645
13806TIP3    H162909   2.428   3.029  13.652  0.2148  1.4747 -0.5979
13806TIP3    H262910   2.536   3.033  13.759  0.7576  2.8228 -1.1862
13807TIP3   OH262911   4.101   1.860  17.077 -0.4154  0.6619  0.5288
13807TIP3    H162912   4.103   1.814  17.160 -0.6722  1.6628  1.0993
13807TIP3    H262913   4.147   1.943  17.094 -0.3491  0.8130 -0.3578
13808TIP3   OH262914   6.432   3.182   4.588 -0.9583 -0.2202 -0.5737
13808TIP3    H162915   6.390   3.191   4.674 -1.7980  0.1213 -1.0159
13808TIP3    H262916   6.414   3.266   4.545  0.5211  0.0876 -0.6197
13809TIP3   OH262917   6.407   1.678   2.986 -0.4561 -0.0090  0.1523
13809TIP3    H162918   6.339   1.672   2.919 -0.6196 -2.0862  0.4969
13809TIP3    H262919   6.381   1.753   3.040 -2.2812 -0.5746  0.0791
13810TIP3   OH262920   6.693   5.607  14.841 -0.3188  0.1355  0.4224
13810TIP3    H162921   6.603   5.596  14.812  0.1620 -1.1086 -0.6368
13810TIP3    H262922   6.746   5.591  14.763  0.8625 -0.2475  1.2835
13811TIP3   OH262923   5.265   3.622   0.354  0.1874  0.7094  0.1115
13811TIP3    H162924   5.199   3.608   0.286  1.6099  2.1848 -1.5936
13811TIP3    H262925   5.349   3.608   0.311  1.0513 -0.8298  2.1874
13812TIP3   OH262926   0.921   2.895  15.919 -0.4500  0.4149  0.1696
13812TIP3    H162927   0.833   2.921  15.946 -0.2552  0.5475  0.6847
13812TIP3    H262928   0.973   2.975  15.926 -0.6355  0.7307 -1.6898
13813TIP3   OH262929   1.730   2.620  10.499 -0.1011 -0.1851 -0.2897
13813TIP3    H162930   1.689   2.689  10.550  2.1728  0.5831  0.5572
13813TIP3    H262931   1.763   2.664  10.421  2.0452 -0.1329  0.6232
13814TIP3   OH262932   2.547   4.798   5.418  0.3449 -0.2201 -0.1490
13814TIP3    H162933   2.463   4.794   5.465  0.8141  0.7328  0.7932
13814TIP3    H262934   2.572   4.707   5.407 -0.4269 -0.4951  0.2794
13815TIP3   OH262935   2.407   5.382  15.937  0.3274  0.2594  0.3965
13815TIP3    H162936   2.362   5.460  15.970 -1.5076 -1.4328  2.1183
13815TIP3    H262937   2.473   5.363  16.003 -0.8814 -1.0118  1.2843
13816TIP3   OH262938   5.274   4.062   3.487 -0.0167  0.2126 -0.4852
13816TIP3    H162939   5.206   3.998   3.509 -2.9010  2.2797 -2.9976
13816TIP3    H262940   5.240   4.145   3.521  1.3529  1.2659 -1.6228
13817TIP3   OH262941   1.413   3.380   4.408  0.1457  0.3872  0.5788
13817TIP3    H162942   1.393   3.434   4.484  0.8596  0.3255  0.8127
13817TIP3    H262943   1.476   3.432   4.358  0.5022 -0.0418  0.5843
13818TIP3   OH262944   3.672   1.270   0.388 -0.3852 -0.3721 -0.5991
13818TIP3    H162945   3.757   1.312   0.377 -0.1304 -0.8694 -0.5654
13818TIP3    H262946   3.690   1.194   0.444 -0.9728 -0.0901 -0.0143
13819TIP3   OH262947   0.792   5.337   3.689  0.3886 -0.8965  0.2943
13819TIP3    H162948   0.706   5.303   3.712 -0.0815 -0.2272 -0.4485
13819TIP3    H262949   0.831   5.364   3.772 -0.3843 -0.5883  0.5627
13820TIP3   OH262950   1.710   2.361  16.786 -0.0288 -0.0273  0.3941
13820TIP3    H162951   1.771   2.318  16.846 -0.1138 -0.6119  0.0644
13820TIP3    H262952   1.718   2.311  16.704 -1.1287 -0.2625  0.4250
13821TIP3   OH262953   3.795   5.230  14.436 -0.4799  0.2642 -0.4469
13821TIP3    H162954   3.747   5.225  14.519 -0.9560 -1.2651 -0.7869
13821TIP3    H262955   3.875   5.278  14.457 -0.7749  0.2238  0.8173
13822TIP3   OH262956   0.583   4.395  14.099  0.2506 -0.7282 -0.4760
13822TIP3    H162957   0.544   4.449  14.031  0.2000  0.5710  0.5717
13822TIP3    H262958   0.521   4.323  14.111  0.3356 -1.0640 -1.8866
13823TIP3   OH262959   2.410   6.731   4.589 -0.9277 -0.0054  0.1211
13823TIP3    H162960   2.479   6.666   4.574 -2.1816 -1.4813  0.5829
13823TIP3    H262961   2.421   6.757   4.680  0.5212  1.5905 -0.4840
13824TIP3   OH262962   5.332   0.464  15.353 -0.1331  0.8552 -0.3726
13824TIP3    H162963   5.243   0.461  15.388 -0.0961 -0.3496 -0.3702
13824TIP3    H262964   5.321   0.491  15.262 -0.6263 -0.6218 -0.7650
13825TIP3   OH262965   6.499   1.303  16.963  0.0114 -0.0520 -0.6311
13825TIP3    H162966   6.415   1.347  16.980  1.9683  3.1943  1.2080
13825TIP3    H262967   6.494   1.222  17.013 -1.1275  1.2807  1.4940
13826TIP3   OH262968   6.016   5.657   3.807  0.0591 -0.4745 -0.1276
13826TIP3    H162969   5.970   5.603   3.872  1.2775  0.4624  1.5707
13826TIP3    H262970   5.948   5.687   3.748 -1.4500  0.4260  2.0099
13827TIP3   OH262971   6.341   0.832  14.817  0.1139 -0.2246  0.3736
13827TIP3    H162972   6.390   0.811  14.897  0.8582 -1.3402 -0.3624
13827TIP3    H262973   6.362   0.924  14.800  0.2933 -0.1023  1.2280
13828TIP3   OH262974   3.192   3.873   2.590 -0.0147 -0.5909  0.4395
13828TIP3    H162975   3.256   3.851   2.658 -1.1444 -0.9001  1.4229
13828TIP3    H262976   3.215   3.961   2.563  0.8086 -0.6856  0.8105
13829TIP3   OH262977   4.926   2.948  14.788 -0.5733 -0.0367  0.1822
13829TIP3    H162978   4.944   3.019  14.726 -1.0284 -0.7481 -0.7860
13829TIP3    H262979   4.833   2.957  14.808 -1.3442 -2.0488 -2.1768
13830TIP3   OH262980   3.596   1.294  15.096 -0.3335  0.7234  0.1099
13830TIP3    H162981   3.530   1.311  15.163 -0.7937  2.0681 -0.6671
13830TIP3    H262982   3.591   1.369  15.037  1.5200  0.5723 -0.2659
13831TIP3   OH262983   0.417   1.295   5.865 -0.2254 -0.3955 -0.3217
13831TIP3    H162984   0.495   1.287   5.811  0.2906  1.0948  0.1878
13831TIP3    H262985   0.450   1.316   5.952 -1.2689  3.3899 -0.7436
13832TIP3   OH262986   5.793   2.797   4.644 -0.6367 -0.5968 -0.4378
13832TIP3    H162987   5.703   2.771   4.662 -1.3258  1.6214 -0.5235
13832TIP3    H262988   5.847   2.740   4.699 -2.2320 -0.0259  1.7558
13833TIP3   OH262989   5.520   5.442   0.059  0.0630  0.2540  0.3966
13833TIP3    H162990   5.604   5.397   0.067  0.3799  0.7796  0.0559
13833TIP3    H262991   5.482   5.409  -0.022 -0.0677  0.0053  0.5585
13834TIP3   OH262992   4.104   3.410   0.625 -0.0911  0.9300 -0.0611
13834TIP3    H162993   4.162   3.360   0.682 -1.1816  0.8131  0.9694
13834TIP3    H262994   4.129   3.501   0.639  0.0143  0.8634  0.1968
13835TIP3   OH262995   1.158   1.353  15.574  0.0932 -0.3993  0.0934
13835TIP3    H162996   1.179   1.387  15.487  0.3645 -0.4339  0.1439
13835TIP3    H262997   1.134   1.262  15.559  0.0873 -0.3901  0.0473
13836TIP3   OH262998   4.432   0.543  12.031  0.5501  0.5468  0.1146
13836TIP3    H162999   4.395   0.603  12.096 -0.8748 -1.1862  0.9559
13836TIP3    H263000   4.508   0.504  12.074 -1.1418 -1.5752  1.3182
13837TIP3   OH263001   3.917   1.360   0.347  0.1210  0.2824 -0.0914
13837TIP3    H163002   3.962   1.439   0.318  3.4324 -2.0257 -1.5245
13837TIP3    H263003   3.986   1.296   0.362 -2.5105 -2.6584  0.1675
13838TIP3   OH263004   5.495   1.848  14.528 -0.3686  0.1638 -0.1437
13838TIP3    H163005   5.570   1.891  14.486  0.3664  2.3857  3.2512
13838TIP3    H263006   5.427   1.916  14.531 -1.3783 -0.8232 -0.2386
13839TIP3   OH263007   6.394   5.914  13.877 -0.0151 -0.6247  0.0543
13839TIP3    H163008   6.309   5.949  13.848 -0.4530 -0.4708  1.4846
13839TIP3    H263009   6.375   5.825  13.907  0.1815 -0.3336  1.0724
13840TIP3   OH263010   5.526   4.205   3.376 -0.1027  0.6580 -0.4999
13840TIP3    H163011   5.513   4.193   3.282 -1.6293 -1.3391 -0.0783
13840TIP3    H263012   5.445   4.172   3.415  1.4083 -0.6231  1.6167
13841TIP3   OH263013   6.658   1.841   2.487  0.1807  0.1087  0.2667
13841TIP3    H163014   6.686   1.926   2.455 -0.4143 -0.2651 -1.3010
13841TIP3    H263015   6.562   1.842   2.477  0.3424 -1.4814 -1.6680
13842TIP3   OH263016   4.562   4.429   1.220  0.4071  0.3436  0.0033
13842TIP3    H163017   4.543   4.340   1.187 -0.2671  0.3464  0.3723
13842TIP3    H263018   4.565   4.419   1.315  1.3999  0.5182 -0.0114
13843TIP3   OH263019   2.860   1.902  13.283 -0.0132 -0.3708 -0.1044
13843TIP3    H163020   2.926   1.846  13.242 -2.0556 -2.5360 -0.5846
13843TIP3    H263021   2.876   1.989  13.247  1.9134 -1.0711 -0.9935
13844TIP3   OH263022   5.141   1.024  16.131 -0.2508  0.7793 -0.1245
13844TIP3    H163023   5.221   1.077  16.138 -0.0034  0.6053 -1.5288
13844TIP3    H263024   5.072   1.088  16.113 -0.0606  0.7148 -1.1324
13845TIP3   OH263025   2.339   0.175   1.019 -0.2468  0.1396 -0.5180
13845TIP3    H163026   2.261   0.165   1.073  0.5181  1.1625  0.8124
13845TIP3    H263027   2.343   0.269   1.001 -0.3203 -0.1443 -2.1244
13846TIP3   OH263028   3.974   6.745  12.576 -0.0939  0.1386  0.5864
13846TIP3    H163029   3.959   6.707  12.663  0.4703  0.4519  0.8295
13846TIP3    H263030   3.915   6.820  12.573 -1.7566 -1.1959 -0.1897
13847TIP3   OH263031   3.450   0.349  12.689 -0.1241 -0.0784 -0.0603
13847TIP3    H163032   3.437   0.331  12.596  0.4300  0.1061 -0.1781
13847TIP3    H263033   3.450   0.262  12.730  1.2708 -0.2768 -0.4564
13848TIP3   OH263034   6.701   3.864   0.235 -0.0813  0.3232 -0.1362
13848TIP3    H163035   6.735   3.905   0.314  2.0415 -0.5508 -0.5614
13848TIP3    H263036   6.713   3.770   0.248  0.7978  0.1943 -1.7024
13849TIP3   OH263037   6.208   2.287   2.572 -0.7744 -0.3558 -0.4173
13849TIP3    H163038   6.261   2.254   2.645 -3.1700 -0.5878  1.2701
13849TIP3    H263039   6.228   2.228   2.499  0.2726 -1.2459  0.5716
13850TIP3   OH263040   2.990   5.433   1.389  0.4309  0.1614 -0.0950
13850TIP3    H163041   2.916   5.463   1.337  0.2562  2.3083  1.3187
13850TIP3    H263042   2.954   5.415   1.476  0.9771 -1.9594 -0.2939
13851TIP3   OH263043   2.394   1.662  14.694 -0.2992 -0.0004  0.1035
13851TIP3    H163044   2.340   1.590  14.660  0.6945 -0.6776 -0.0699
13851TIP3    H263045   2.331   1.725  14.728 -1.1596 -1.3662  1.0950
13852TIP3   OH263046   2.156   5.992  14.417  0.2712 -0.0567  0.0551
13852TIP3    H163047   2.244   6.030  14.418  1.0836 -1.8768  0.8553
13852TIP3    H263048   2.171   5.899  14.434 -1.8833 -0.2661  0.8632
13853TIP3   OH263049   3.059   2.749   2.654 -0.3525  0.5822  0.5026
13853TIP3    H163050   2.996   2.677   2.658  0.2112 -0.0051 -0.6964
13853TIP3    H263051   3.033   2.799   2.577  1.7419 -0.7407 -1.1048
13854TIP3   OH263052   3.520   4.587   1.385 -0.4718 -0.1181  0.2450
13854TIP3    H163053   3.573   4.522   1.431 -0.1580 -0.6156 -0.7899
13854TIP3    H263054   3.498   4.544   1.302 -0.8635  0.8300 -0.1408
13855TIP3   OH263055   1.824   5.472  14.209  0.7080 -0.4400  0.5626
13855TIP3    H163056   1.729   5.468  14.193  0.9991 -0.5893 -1.3245
13855TIP3    H263057   1.842   5.564  14.227  0.4094 -0.1222 -0.6609
13856TIP3   OH263058   0.733   0.731  13.080  0.0971 -0.7959  0.8790
13856TIP3    H163059   0.724   0.798  13.148  0.6517  0.0673  0.1204
13856TIP3    H263060   0.652   0.681  13.085 -1.7899  1.9374 -0.6687
13857TIP3   OH263061   6.243   2.723   1.978  0.7194  0.0394  0.3107
13857TIP3    H163062   6.167   2.704   2.033 -0.3648 -1.6577 -1.6730
13857TIP3    H263063   6.303   2.649   1.993  0.5792 -0.2428 -0.4783
13858TIP3   OH263064   0.177   5.798   0.300 -0.0003  0.3530 -0.1092
13858TIP3    H163065   0.107   5.738   0.327 -0.6088  0.8615 -0.5488
13858TIP3    H263066   0.132   5.879   0.279  0.9443  1.3759  1.6675
13859TIP3   OH263067   1.904   2.298  15.155  0.1692  0.4980  0.3051
13859TIP3    H163068   1.907   2.210  15.117 -0.7189 -0.4817  2.4781
13859TIP3    H263069   1.865   2.352  15.086 -1.0743 -1.1834 -0.3402
13860TIP3   OH263070   6.649   3.600   3.519 -1.2005  0.2344  0.3988
13860TIP3    H163071   6.720   3.582   3.457 -0.3298  2.2973  0.7491
13860TIP3    H263072   6.577   3.631   3.465 -1.3637 -0.5234  0.1748
13861TIP3   OH263073   2.646   6.647   3.821 -0.7058 -0.3506  0.2735
13861TIP3    H163074   2.565   6.664   3.772 -0.0095  1.0824 -0.4083
13861TIP3    H263075   2.693   6.731   3.819  0.1460 -0.7799  1.8809
13862TIP3   OH263076   5.045   5.252   0.532  0.1086 -0.1517 -0.3504
13862TIP3    H163077   5.008   5.163   0.535  1.5488 -0.7299  0.8818
13862TIP3    H263078   4.988   5.300   0.472 -2.5787 -1.0216  1.4684
13863TIP3   OH263079   2.679   5.569  16.469 -0.5596  0.2470  0.5577
13863TIP3    H163080   2.727   5.487  16.458 -1.1083 -0.2084  1.5369
13863TIP3    H263081   2.678   5.608  16.382  3.2585  1.1875  0.8183
13864TIP3   OH263082   3.032   4.500   3.412 -0.6712 -0.3185 -0.3290
13864TIP3    H163083   3.062   4.502   3.321  0.6014  0.3663  0.1070
13864TIP3    H263084   2.948   4.453   3.408  0.6263 -2.6266 -1.4881
13865TIP3   OH263085   1.944   5.732  13.988 -0.0309 -0.0813 -0.4581
13865TIP3    H163086   1.964   5.788  13.914 -1.0196  1.5130  0.4261
13865TIP3    H263087   2.004   5.658  13.981  1.5150  1.2540 -1.4893
13866TIP3   OH263088   4.118   6.044   2.187  0.0653  0.6258  0.2187
13866TIP3    H163089   4.163   6.086   2.113 -0.9946  0.0654 -0.7616
13866TIP3    H263090   4.053   6.110   2.215 -0.9145  0.0675 -0.6759
13867TIP3   OH263091   2.437   1.039  13.798  0.1702  0.4630 -0.2938
13867TIP3    H163092   2.348   1.030  13.831  0.2221  0.1585 -0.2369
13867TIP3    H263093   2.432   1.110  13.733 -0.2507 -0.0251 -0.8007
13868TIP3   OH263094   2.522   2.150   1.395  0.1373  0.1747 -0.1541
13868TIP3    H163095   2.590   2.204   1.356 -0.6225  1.5323  0.3416
13868TIP3    H263096   2.532   2.064   1.354  2.8634  0.0228  0.7649
13869TIP3   OH263097   3.064   1.092  16.378 -0.1324 -0.3795 -0.0674
13869TIP3    H163098   3.003   1.105  16.451 -1.1002 -1.0180 -0.7459
13869TIP3    H263099   3.036   1.009  16.338 -1.3386  1.2653 -2.8055
13870TIP3   OH263100   4.785   2.804   2.437 -0.2223 -0.2224  0.2525
13870TIP3    H163101   4.814   2.718   2.468 -0.0623  0.3370  1.6757
13870TIP3    H263102   4.834   2.866   2.490 -1.2059  0.7474  0.0332
13871TIP3   OH263103   3.139   1.110   3.796 -0.9441  0.4853 -1.0283
13871TIP3    H163104   3.165   1.168   3.723 -1.8487  0.1997 -1.5764
13871TIP3    H263105   3.082   1.045   3.756 -1.7496  0.5412  0.0052
13872TIP3   OH263106   0.818   0.159   5.198 -0.4674  0.0429  0.5015
13872TIP3    H163107   0.901   0.112   5.206  1.2165  2.9101  0.7921
13872TIP3    H263108   0.780   0.156   5.285 -0.8517 -1.5774  0.2883
13873TIP3   OH263109   2.286   1.663   2.711  0.3276  0.3361  0.1773
13873TIP3    H163110   2.241   1.741   2.743 -1.1646  0.1711 -1.4239
13873TIP3    H263111   2.264   1.660   2.618 -1.0680 -2.9353  0.5452
13874TIP3   OH263112   5.304   6.475  11.898 -0.4055  0.0237  0.4982
13874TIP3    H163113   5.225   6.480  11.846 -0.9360 -0.1199  1.2824
13874TIP3    H263114   5.372   6.512  11.842 -0.9574 -0.1533 -0.2990
13875TIP3   OH263115   5.183   6.029  16.956 -0.3697 -0.0067 -0.4897
13875TIP3    H163116   5.228   6.090  16.897  0.8533 -0.8195 -0.4210
13875TIP3    H263117   5.226   5.945  16.940 -0.6013 -0.4047  0.9652
13876TIP3   OH263118   5.343   5.984   5.195  0.1201  0.6234 -0.9500
13876TIP3    H163119   5.382   5.904   5.232 -1.6033  1.0354  1.8901
13876TIP3    H263120   5.254   5.959   5.171  0.0049  1.3501 -1.2892
13877TIP3   OH263121   1.617   0.007   4.938  0.3540 -0.2809  0.1303
13877TIP3    H163122   1.594   0.083   4.884 -0.7267  1.0178  2.3297
13877TIP3    H263123   1.535  -0.043   4.943  0.5455 -0.5763  0.2532
13878TIP3   OH263124   1.229   2.479  16.032  0.4301  0.6670 -0.1933
13878TIP3    H163125   1.165   2.537  15.991  1.2122  1.4601 -0.3039
13878TIP3    H263126   1.180   2.399  16.052 -0.1241  0.5056 -2.0898
13879TIP3   OH263127   0.068   1.986  16.796 -0.5250  0.0909  0.2951
13879TIP3    H163128   0.115   1.920  16.846 -0.7964  1.4982  2.4566
13879TIP3    H263129   0.013   1.936  16.736  2.4359 -1.6054 -1.1681
13880TIP3   OH263130   5.513   2.217   3.490 -0.6569  0.5537  0.0972
13880TIP3    H163131   5.602   2.191   3.512 -0.6258  0.8021  0.2655
13880TIP3    H263132   5.522   2.302   3.447 -0.8037  0.5345  0.0268
13881TIP3   OH263133   2.668   1.567   4.700  0.4341 -0.1003  0.4067
13881TIP3    H163134   2.742   1.615   4.737 -0.2116 -0.0984  1.7496
13881TIP3    H263135   2.680   1.477   4.731  0.4812 -0.3383 -0.3053
13882TIP3   OH263136   2.540   4.902   5.146  0.3554  0.3742  0.1346
13882TIP3    H163137   2.479   4.859   5.086  0.3537  0.3798  0.1314
13882TIP3    H263138   2.520   4.865   5.232  0.7105 -0.0127  0.0478
13883TIP3   OH263139   3.022   0.629   3.270 -0.2341  0.0382  0.2642
13883TIP3    H163140   2.979   0.584   3.198 -0.0631 -0.9796  0.7892
13883TIP3    H263141   2.989   0.586   3.349 -0.7366  1.4167  0.8248
13884TIP3   OH263142   0.730   2.012   3.828 -0.1118 -0.1604 -0.0114
13884TIP3    H163143   0.768   1.936   3.872 -0.4784 -0.4256 -0.1410
13884TIP3    H263144   0.712   2.075   3.898 -1.9527 -1.1187  0.4195
13885TIP3   OH263145   3.524   3.694  13.166  0.4220 -0.6731 -0.1049
13885TIP3    H163146   3.453   3.644  13.125 -0.0491  0.9612 -1.2883
13885TIP3    H263147   3.481   3.768  13.208  1.2022 -0.8730  1.0824
13886TIP3   OH263148   3.133   6.215   4.528  0.1385 -0.6952 -0.3901
13886TIP3    H163149   3.101   6.138   4.576 -1.2442  0.0765 -0.0154
13886TIP3    H263150   3.056   6.272   4.522  0.6461 -0.1974 -2.3761
13887TIP3   OH263151   1.876   0.765  12.293 -0.2094  0.2069 -0.8192
13887TIP3    H163152   1.967   0.790  12.308  0.8437 -3.2469 -1.0556
13887TIP3    H263153   1.832   0.847  12.269  2.2298  2.4041  1.7994
13888TIP3   OH263154   2.037   3.541   5.244  0.8993 -0.2789 -0.4767
13888TIP3    H163155   2.097   3.613   5.224  0.5257  1.1107  3.0725
13888TIP3    H263156   2.091   3.462   5.233  2.1042  0.6927 -1.6753
13889TIP3   OH263157   5.421   4.803   0.911 -0.0960 -0.8576  0.0871
13889TIP3    H163158   5.350   4.842   0.961  0.0697 -1.2883  0.6743
13889TIP3    H263159   5.396   4.711   0.901  0.2129 -0.9367  0.0092
13890TIP3   OH263160   5.236   2.749   5.310  0.2255 -0.1453 -0.1853
13890TIP3    H163161   5.231   2.719   5.220  2.0368 -0.2365 -0.2659
13890TIP3    H263162   5.176   2.691   5.358  0.6422 -1.2704 -1.0130
13891TIP3   OH263163   4.942   4.272   1.181  0.5971  0.6674  0.0505
13891TIP3    H163164   4.913   4.328   1.109  0.6157  2.1726  1.1891
13891TIP3    H263165   4.977   4.194   1.139 -3.9882 -0.7403 -1.4596
13892TIP3   OH263166   4.745   5.893   0.799 -0.0358 -0.4334  0.2555
13892TIP3    H163167   4.756   5.974   0.750 -0.1640 -0.3645  0.3396
13892TIP3    H263168   4.668   5.851   0.760  2.0536 -2.2049 -2.1026
13893TIP3   OH263169   3.025   0.727   4.932  0.0784 -0.1068  0.9258
13893TIP3    H163170   2.944   0.723   4.882 -0.5712 -3.1112  2.0720
13893TIP3    H263171   2.997   0.716   5.023  1.6067  0.7175  1.5099
13894TIP3   OH263172   0.167   3.820   3.294 -0.4258 -0.6794 -0.1084
13894TIP3    H163173   0.152   3.903   3.250  1.0239 -0.8352 -0.9159
13894TIP3    H263174   0.176   3.757   3.222 -1.9726 -1.6330  0.4994
13895TIP3   OH263175   3.174   2.798   4.652 -0.2040 -0.1335  0.0938
13895TIP3    H163176   3.158   2.892   4.655 -0.5174 -0.2341  2.2284
13895TIP3    H263177   3.269   2.790   4.640 -0.3747  0.4286 -1.8087
13896TIP3   OH263178   6.543   2.246  12.085  0.1991 -0.3561 -0.0066
13896TIP3    H163179   6.453   2.224  12.109 -0.5410  2.3494 -0.1536
13896TIP3    H263180   6.541   2.257  11.990  1.1740 -2.2800 -0.2799
13897TIP3   OH263181   4.057   3.734  13.223  0.2094  0.0577 -0.2081
13897TIP3    H163182   4.058   3.789  13.145  0.2259 -1.1639 -1.0817
13897TIP3    H263183   3.969   3.747  13.260 -0.5580 -0.9987 -1.6242
13898TIP3   OH263184   1.082   3.701  11.825  0.3530  0.0729 -0.2379
13898TIP3    H163185   1.060   3.761  11.754 -1.4432  2.1088  1.9423
13898TIP3    H263186   1.120   3.756  11.893  0.5926 -1.5759  1.0112
13899TIP3   OH263187   6.511   2.726   5.358 -0.3776  0.3379  0.0978
13899TIP3    H163188   6.581   2.664   5.380 -0.5322 -0.3710 -1.3815
13899TIP3    H263189   6.434   2.671   5.345 -0.7574  0.9457 -0.2125
13900TIP3   OH263190   6.487   3.571   3.739 -0.2385  0.0502  0.1361
13900TIP3    H163191   6.552   3.578   3.669 -0.9353 -0.2499 -0.5608
13900TIP3    H263192   6.434   3.650   3.731 -2.3297 -1.4528 -1.7815
13901TIP3   OH263193   4.815   0.932   4.024 -0.1068 -0.2735  0.4565
13901TIP3    H163194   4.779   0.859   3.974  2.3161 -0.6992 -0.7674
13901TIP3    H263195   4.819   1.004   3.961 -0.3669  0.2219  1.0152
13902TIP3   OH263196   5.219   0.508  10.497 -0.3096 -0.0776  0.1363
13902TIP3    H163197   5.125   0.514  10.517 -0.0003 -0.0964  1.6781
13902TIP3    H263198   5.248   0.600  10.496 -0.3021 -0.0816 -0.1798
13903TIP3   OH263199   2.378   1.427   3.630 -0.2659 -0.1048  0.4004
13903TIP3    H163200   2.349   1.359   3.568 -0.0190 -0.1594  0.3441
13903TIP3    H263201   2.448   1.385   3.680  1.1186  0.6820 -0.8412
13904TIP3   OH263202   1.843   5.450  10.771  0.1344 -0.2489 -0.4164
13904TIP3    H163203   1.796   5.370  10.793 -0.4475 -0.3611 -2.0282
13904TIP3    H263204   1.857   5.445  10.676 -0.8582  2.0612 -0.7153
13905TIP3   OH263205   1.001   4.956   0.540 -0.4882  0.2639  0.1156
13905TIP3    H163206   1.092   4.928   0.541 -0.5413  0.0958  0.3555
13905TIP3    H263207   0.960   4.907   0.611 -0.0214  2.8740  2.2367
13906TIP3   OH263208   5.677   2.254   0.534 -0.2466  0.0299 -0.4472
13906TIP3    H163209   5.677   2.301   0.618  0.8053 -0.1635 -0.3334
13906TIP3    H263210   5.690   2.323   0.469 -0.9657  0.1692 -0.4466
13907TIP3   OH263211   3.236   0.846  11.947 -0.0375  0.7861  0.4644
13907TIP3    H163212   3.237   0.940  11.930 -1.8127  0.7935  0.2467
13907TIP3    H263213   3.143   0.825  11.958  0.4395 -0.6819  1.9664
13908TIP3   OH263214   4.505   2.173   0.174  0.1892  0.5540  0.0505
13908TIP3    H163215   4.592   2.212   0.168  0.1436  0.3507 -2.6239
13908TIP3    H263216   4.459   2.224   0.241  3.2226 -1.0876  3.5502
13909TIP3   OH263217   3.025   4.866  11.145 -0.3542 -0.5125 -0.4581
13909TIP3    H163218   3.068   4.784  11.168 -1.2516 -0.3155  2.0877
13909TIP3    H263219   2.961   4.881  11.215  0.1897  2.6422 -0.5451
13910TIP3   OH263220   5.574   3.442   4.694  0.0815  0.1026  0.2714
13910TIP3    H163221   5.544   3.507   4.631 -0.5108  1.2234  1.6918
13910TIP3    H263222   5.545   3.475   4.779  3.1339 -0.0380  1.4532
13911TIP3   OH263223   5.854   1.865   3.142  0.1487  0.3043  0.1828
13911TIP3    H163224   5.828   1.893   3.054 -1.2664 -1.4834 -0.0065
13911TIP3    H263225   5.783   1.896   3.199  0.3261  0.1815  0.4708
13912TIP3   OH263226   3.726   2.196  15.949  0.7332  0.3457 -0.1238
13912TIP3    H163227   3.737   2.135  16.022  1.1843 -1.7474 -1.8881
13912TIP3    H263228   3.789   2.167  15.884 -1.2462  0.7323 -2.2736
13913TIP3   OH263229   1.870   1.583  13.746  0.0940 -0.6122  0.2407
13913TIP3    H163230   1.787   1.590  13.699 -0.7070 -2.2517  1.3542
13913TIP3    H263231   1.893   1.673  13.768 -0.8660 -0.0529 -0.9652
13914TIP3   OH263232   6.393   5.805   0.339  0.5381  0.7012 -0.1943
13914TIP3    H163233   6.460   5.822   0.272 -1.1014 -0.4642 -2.1805
13914TIP3    H263234   6.416   5.719   0.374 -1.5408 -1.1082 -3.0078
13915TIP3   OH263235   2.165   3.632   5.677  0.3811 -0.6619 -0.4895
13915TIP3    H163236   2.198   3.547   5.646  1.0569 -1.2421  1.7124
13915TIP3    H263237   2.109   3.610   5.752  2.1984  0.9329  1.4151
13916TIP3   OH263238   4.242   0.775   5.729 -0.3857  0.2063 -0.4386
13916TIP3    H163239   4.201   0.777   5.643  0.5557 -1.8455 -0.9576
13916TIP3    H263240   4.330   0.811   5.715  0.0119 -0.7691 -0.4834
13917TIP3   OH263241   2.698   0.905  16.939  0.6962 -0.5393  0.0192
13917TIP3    H163242   2.639   0.914  17.014  1.4382  0.9266  0.4538
13917TIP3    H263243   2.643   0.925  16.863  0.1260 -1.2569  0.2425
13918TIP3   OH263244   5.739   3.310   3.569  0.3748  0.0885  0.2863
13918TIP3    H163245   5.714   3.272   3.485  1.6726 -2.1109  0.8580
13918TIP3    H263246   5.835   3.317   3.565  0.2162  3.1643  0.2877
13919TIP3   OH263247   6.604   2.031  14.853 -0.0211  0.1510 -0.2514
13919TIP3    H163248   6.621   2.016  14.946 -0.0867  1.8348  0.0484
13919TIP3    H263249   6.690   2.046  14.815  0.0019 -0.4989 -0.4727
13920TIP3   OH263250   4.207   1.985   2.736  0.4656 -0.1125  0.2345
13920TIP3    H163251   4.233   1.923   2.804 -1.6869  1.4989  2.6357
13920TIP3    H263252   4.219   2.071   2.776  0.4995  0.9436 -1.9535
13921TIP3   OH263253   2.280   2.454  11.446  0.0675  0.4808  0.0035
13921TIP3    H163254   2.321   2.370  11.467 -2.5939 -0.4663  1.7360
13921TIP3    H263255   2.328   2.518  11.499 -0.1436 -0.5036  1.4342
13922TIP3   OH263256   1.771   3.060  16.721 -0.2847  0.4457 -0.3068
13922TIP3    H163257   1.760   2.991  16.655 -0.8589  0.6636 -0.4432
13922TIP3    H263258   1.786   3.140  16.670  1.9475  0.1841 -0.1330
13923TIP3   OH263259   1.527   3.452  14.468  0.6699  0.8791  0.3944
13923TIP3    H163260   1.504   3.541  14.443 -0.3897  0.6743  0.6046
13923TIP3    H263261   1.521   3.452  14.564 -0.0432  0.4092  0.3575
13924TIP3   OH263262   4.948   1.116   5.499  0.6614  0.0927 -0.4067
13924TIP3    H163263   5.030   1.082   5.536 -0.6123 -1.4557  1.1169
13924TIP3    H263264   4.922   1.050   5.434 -0.1863 -0.2755  0.2862
13925TIP3   OH263265   5.994   2.201  14.758 -0.1130 -0.5532  0.0322
13925TIP3    H163266   6.021   2.289  14.730  2.1998 -1.9149 -2.2154
13925TIP3    H263267   5.899   2.205  14.761 -0.1051  1.6651 -1.4094
13926TIP3   OH263268   3.338   6.361   5.191 -0.0273 -0.4355  0.6702
13926TIP3    H163269   3.411   6.336   5.247  0.5913  0.8641  0.4671
13926TIP3    H263270   3.374   6.428   5.133 -0.6916 -1.6544 -1.2001
13927TIP3   OH263271   4.097   1.592  13.969  0.4519  0.1714  0.0535
13927TIP3    H163272   4.088   1.504  14.006 -0.4895  0.1174 -0.2763
13927TIP3    H263273   4.104   1.650  14.045 -0.1721 -0.0672  0.2974
13928TIP3   OH263274   1.327   5.533  14.827  0.6221 -0.5135 -0.1353
13928TIP3    H163275   1.236   5.504  14.822  0.7321 -0.6830 -1.2456
13928TIP3    H263276   1.335   5.600  14.759  1.2393 -0.2532  0.1863
13929TIP3   OH263277   0.106   3.007  14.986  0.3955  0.4280 -0.1042
13929TIP3    H163278   0.137   3.053  15.064 -0.1122 -0.9638  0.9470
13929TIP3    H263279   0.180   2.955  14.957 -0.6720 -2.5100  2.1139
13930TIP3   OH263280   2.907   0.367  14.194  0.0187  0.1034  0.2368
13930TIP3    H163281   2.968   0.347  14.122  2.1781  0.8825  1.8134
13930TIP3    H263282   2.939   0.449  14.231 -1.4347  0.0262  1.7428
13931TIP3   OH263283   1.923   5.928  12.402 -0.1255 -0.0781 -0.2539
13931TIP3    H163284   1.883   5.942  12.488 -1.7054  0.1094 -0.9994
13931TIP3    H263285   1.954   6.015  12.376  0.4147 -0.1472  0.1425
13932TIP3   OH263286   4.280   5.798  16.814 -0.1413 -0.0012 -0.1396
13932TIP3    H163287   4.224   5.804  16.736 -0.3872 -0.7971 -0.0310
13932TIP3    H263288   4.259   5.712  16.851  1.2591 -0.3581 -0.1726
13933TIP3   OH263289   5.826   2.790  11.360 -0.0569 -0.0611 -0.0564
13933TIP3    H163290   5.868   2.709  11.330 -0.3384 -0.3621  0.3400
13933TIP3    H263291   5.896   2.838  11.404 -0.4017 -1.1577  1.7621
13934TIP3   OH263292   4.833   2.059  16.709  0.2215  0.1876 -0.0638
13934TIP3    H163293   4.896   2.112  16.660  1.1663 -0.3781  0.5389
13934TIP3    H263294   4.827   1.978  16.659  1.7845 -0.7067  1.1647
13935TIP3   OH263295   4.706   0.373  17.249 -0.4943 -0.1485 -0.1633
13935TIP3    H163296   4.665   0.407  17.170 -1.5725  2.0009  1.2397
13935TIP3    H263297   4.773   0.438  17.271 -0.1681 -0.7490  0.6320
13936TIP3   OH263298   1.723   6.191  13.933  0.4220 -0.3134  0.1162
13936TIP3    H163299   1.706   6.282  13.957  1.4248 -0.5022  1.6327
13936TIP3    H263300   1.793   6.196  13.869 -0.5800  0.0633 -0.9614
13937TIP3   OH263301   0.640   1.970   5.624 -0.4545  0.5784 -0.1622
13937TIP3    H163302   0.715   1.934   5.576 -0.7690 -1.3144  0.6880
13937TIP3    H263303   0.567   1.963   5.563 -0.8449 -1.7781  0.5263
13938TIP3   OH263304   5.839   3.246  15.047 -0.2648 -0.2689 -0.1784
13938TIP3    H163305   5.823   3.163  15.001  0.2645 -1.9880  2.5815
13938TIP3    H263306   5.932   3.243  15.071 -0.2193  1.1583 -0.1314
13939TIP3   OH263307   4.500   1.012  15.629 -0.2634 -0.4087 -0.0097
13939TIP3    H163308   4.447   0.997  15.550 -2.1757 -0.5183  1.2620
13939TIP3    H263309   4.483   0.936  15.684  1.6668 -0.7042  0.2245
13940TIP3   OH263310   4.371   1.051  16.688 -0.3707  0.3895  0.4020
13940TIP3    H163311   4.301   1.018  16.744 -0.1271  0.3476  0.6833
13940TIP3    H263312   4.332   1.059  16.602 -0.0060 -2.0827 -0.0060
13941TIP3   OH263313   4.295   1.879   2.254  0.1996 -0.4884  0.0815
13941TIP3    H163314   4.340   1.803   2.291 -0.5633 -1.1574 -0.3508
13941TIP3    H263315   4.298   1.945   2.324  1.0207 -0.8453  0.3923
13942TIP3   OH263316   4.113   2.259  13.922  0.5612 -0.2739 -0.5205
13942TIP3    H163317   4.108   2.180  13.977  0.3630 -0.2966 -0.5687
13942TIP3    H263318   4.181   2.239  13.858 -0.3826 -0.9324 -1.3497
13943TIP3   OH263319   4.464   4.448  15.058  0.0084  0.0868 -0.3626
13943TIP3    H163320   4.439   4.386  15.126 -2.1715  0.2310 -0.9771
13943TIP3    H263321   4.460   4.534  15.100 -1.8825  0.2273 -0.7683
13944TIP3   OH263322   2.465   2.252  11.443 -0.1803 -0.2663  0.1684
13944TIP3    H163323   2.529   2.252  11.515  0.4925  0.9265 -0.4309
13944TIP3    H263324   2.518   2.252  11.364 -0.9318 -1.3415 -0.3464
13945TIP3   OH263325   2.492   2.337  15.826  0.1841 -0.2846 -0.4424
13945TIP3    H163326   2.492   2.360  15.919 -1.0927 -1.7766 -0.0468
13945TIP3    H263327   2.582   2.352  15.797  0.4132  0.9110  0.8505
13946TIP3   OH263328   0.998   1.408  16.060 -0.4201  0.0849 -0.2428
13946TIP3    H163329   0.909   1.444  16.060  0.1901  1.6344  1.3897
13946TIP3    H263330   1.040   1.450  15.986 -0.4009  1.0090  0.2872
13947TIP3   OH263331   2.438   3.030   5.501  0.2477  0.3677 -0.4017
13947TIP3    H163332   2.343   3.029   5.490  0.1170 -3.1403  0.6048
13947TIP3    H263333   2.472   2.990   5.421  0.7773 -0.1118  0.0605
13948TIP3   OH263334   5.529   4.360  11.291 -0.3351 -0.7626 -0.3156
13948TIP3    H163335   5.595   4.358  11.222  2.0170  1.7441  1.7382
13948TIP3    H263336   5.561   4.300  11.357 -1.8327 -2.0372 -0.7165
13949TIP3   OH263337   0.672   5.937   3.632 -0.1423  0.1513 -0.1957
13949TIP3    H163338   0.761   5.918   3.661  0.2237  1.0926 -0.6792
13949TIP3    H263339   0.619   5.934   3.712  0.6243  1.3950  0.3620
13950TIP3   OH263340   1.265   0.318   1.791 -0.7215  0.0891  0.1287
13950TIP3    H163341   1.321   0.381   1.837 -0.0723 -2.2457  2.7048
13950TIP3    H263342   1.177   0.335   1.825 -0.4664 -0.6514  1.2243
13951TIP3   OH263343   5.675   2.978   2.857  0.4323 -0.2644 -0.1746
13951TIP3    H163344   5.585   2.944   2.856  0.4843 -0.3837 -1.1824
13951TIP3    H263345   5.724   2.915   2.804  1.1837 -0.3851  0.6569
13952TIP3   OH263346   5.053   0.355   5.929 -0.2189  0.3957  0.0075
13952TIP3    H163347   4.962   0.332   5.943 -0.5740  0.8664 -1.3790
13952TIP3    H263348   5.103   0.298   5.987 -1.5538  2.1710  2.9724
13953TIP3   OH263349   6.609   3.862   2.005 -0.2105 -0.3709 -0.1941
13953TIP3    H163350   6.640   3.772   2.017  0.2822 -0.0920  0.7040
13953TIP3    H263351   6.517   3.860   2.034  0.3730 -0.1639  1.7778
13954TIP3   OH263352   6.350   0.019   2.358  0.1246 -0.4812 -0.0528
13954TIP3    H163353   6.329  -0.027   2.439 -1.2366  0.5559  0.1803
13954TIP3    H263354   6.266   0.041   2.319  0.7535  1.7637 -0.2043
13955TIP3   OH263355   5.542   5.882  16.151  0.1148 -0.5181  0.7021
13955TIP3    H163356   5.491   5.837  16.219 -0.8084 -0.9210 -0.2473
13955TIP3    H263357   5.574   5.812  16.095  1.5539 -0.2488  1.1541
13956TIP3   OH263358   3.845   3.517  13.070  0.0537 -0.0759 -0.0810
13956TIP3    H163359   3.819   3.535  13.160 -2.4458  0.5638 -0.8903
13956TIP3    H263360   3.809   3.590  13.020  0.6082 -0.9096 -1.7181
13957TIP3   OH263361   0.209   3.547  11.974  0.2006  0.3155 -0.7133
13957TIP3    H163362   0.294   3.568  11.935 -0.0345  0.0723 -1.3475
13957TIP3    H263363   0.195   3.454  11.955  0.3382  0.0459  0.4221
13958TIP3   OH263364   5.387   1.078  13.296  0.4246  0.2206  0.0389
13958TIP3    H163365   5.376   1.000  13.351 -1.3598  0.4022 -0.0238
13958TIP3    H263366   5.299   1.114  13.289  1.0237  1.4834 -1.0685
13959TIP3   OH263367   2.219   3.054   4.060  0.1437  0.2145 -0.1643
13959TIP3    H163368   2.136   3.006   4.061  0.4887 -0.3823  0.5838
13959TIP3    H263369   2.218   3.103   4.142  0.2338  0.7171 -0.4683
13960TIP3   OH263370   1.321   5.976   0.616 -0.1983  0.2229 -0.0225
13960TIP3    H163371   1.234   5.959   0.580 -0.2551 -0.1447  0.2929
13960TIP3    H263372   1.360   5.889   0.627  0.5900  0.4152 -1.1070
13961TIP3   OH263373   2.655   5.704  11.600  0.5296  0.0059 -0.2575
13961TIP3    H163374   2.709   5.660  11.533  0.1860  1.1152 -1.2802
13961TIP3    H263375   2.565   5.687  11.573  0.3830 -0.2336  0.3867
13962TIP3   OH263376   0.765   4.643  12.618 -0.2274  0.2544 -0.0641
13962TIP3    H163377   0.687   4.591  12.600 -0.6053  0.7528  0.0942
13962TIP3    H263378   0.837   4.595  12.578 -0.8331  0.5623 -1.5289
13963TIP3   OH263379   6.222   2.373   4.152 -0.2811 -0.1184 -0.6592
13963TIP3    H163380   6.197   2.294   4.200 -1.2375  0.1171 -0.7553
13963TIP3    H263381   6.186   2.360   4.064  1.6449 -0.6473 -1.3946
13964TIP3   OH263382   6.672   3.474   4.832  0.3977 -0.2662  0.2423
13964TIP3    H163383   6.667   3.468   4.927  0.5841  0.5838  0.3158
13964TIP3    H263384   6.590   3.515   4.805  0.8146  0.5215  0.1453
13965TIP3   OH263385   0.839   6.581   0.137  0.6688 -0.0538  0.0939
13965TIP3    H163386   0.781   6.655   0.120  1.5844  0.3700 -1.2743
13965TIP3    H263387   0.780   6.508   0.154 -0.2534  0.8159  0.6919
13966TIP3   OH263388   4.713   1.198  13.645  0.0200 -0.2504 -0.4425
13966TIP3    H163389   4.691   1.268  13.583  3.4064  0.8555 -0.4991
13966TIP3    H263390   4.724   1.242  13.729  0.2480 -1.0139 -0.0670
13967TIP3   OH263391   2.565   0.010   1.233  0.3855  0.2813  0.0120
13967TIP3    H163392   2.499   0.064   1.277  1.0850  1.3509 -0.2241
13967TIP3    H263393   2.611  -0.036   1.304 -0.2062  0.0026  0.2162
13968TIP3   OH263394   6.427   6.557  12.969 -0.2115  0.2073  0.2786
13968TIP3    H163395   6.514   6.576  13.005 -1.2650  2.0884  1.9516
13968TIP3    H263396   6.440   6.479  12.914  2.0886 -0.8967  2.2882
13969TIP3   OH263397   5.701   2.994  13.309 -0.3329  0.0164  0.0186
13969TIP3    H163398   5.795   3.005  13.325 -0.1018 -1.2068 -0.4027
13969TIP3    H263399   5.678   2.914  13.356 -1.0505  0.0298 -0.3078
13970TIP3   OH263400   5.457   4.486  12.164 -0.5299 -0.3030  0.2660
13970TIP3    H163401   5.374   4.494  12.116 -0.3377 -0.7154 -0.1426
13970TIP3    H263402   5.502   4.414  12.121 -0.4638 -0.8472  1.2366
13971TIP3   OH263403   5.156   3.047   0.427  0.0768 -0.2980  0.6176
13971TIP3    H163404   5.072   3.026   0.385 -0.0614  0.8551  0.3130
13971TIP3    H263405   5.149   3.139   0.451  0.6803 -0.5786  1.9666
13972TIP3   OH263406   1.885   1.876   0.764  0.1299 -0.8929 -0.4290
13972TIP3    H163407   1.974   1.842   0.773  0.8826  1.3843  1.2881
13972TIP3    H263408   1.877   1.896   0.670  2.3064  1.0062 -0.2723
13973TIP3   OH263409   3.292   4.481  16.960 -0.0687 -1.0005 -0.8585
13973TIP3    H163410   3.280   4.446  17.048 -0.9564 -0.1604 -0.6299
13973TIP3    H263411   3.386   4.474  16.943  0.0162 -1.7262 -0.0816
13974TIP3   OH263412   4.991   2.821  15.820 -0.1326 -0.2003  0.2390
13974TIP3    H163413   4.899   2.848  15.829 -0.2983 -0.3183 -1.0408
13974TIP3    H263414   5.030   2.887  15.764  0.2133 -0.9352 -0.3931
13975TIP3   OH263415   3.930   0.160  12.153 -0.0150 -0.7146 -0.0867
13975TIP3    H163416   3.998   0.215  12.192 -0.4066  0.7331 -1.4059
13975TIP3    H263417   3.955   0.153  12.061 -2.0391  0.4526 -0.7535
13976TIP3   OH263418   6.179   4.545   4.786 -0.2313 -0.2309 -0.0799
13976TIP3    H163419   6.096   4.534   4.739 -1.5958  0.0877  2.1734
13976TIP3    H263420   6.181   4.637   4.810  0.4573 -0.3883  0.4858
13977TIP3   OH263421   4.092   6.595   3.092  0.1409 -0.7793 -0.0556
13977TIP3    H163422   4.045   6.512   3.093 -2.1640  0.4920 -1.1377
13977TIP3    H263423   4.027   6.660   3.067  2.2752  1.1490 -0.7819
13978TIP3   OH263424   1.368   3.785  16.600  0.5121 -0.1803  0.0760
13978TIP3    H163425   1.396   3.702  16.561  1.6157  0.2493 -0.0345
13978TIP3    H263426   1.406   3.852  16.544 -0.3517  0.4140  0.1887
13979TIP3   OH263427   4.921   6.098  12.527  1.0078 -0.3969  0.3704
13979TIP3    H163428   4.898   6.138  12.443  1.7531 -1.9237 -0.5895
13979TIP3    H263429   5.017   6.106  12.531  0.9929 -0.5185  0.9837
13980TIP3   OH263430   0.452   4.446   1.944 -0.5549 -0.2268  0.0795
13980TIP3    H163431   0.452   4.351   1.956  2.2734 -0.2318  0.3708
13980TIP3    H263432   0.530   4.476   1.992 -1.4504  2.2444  0.0396
13981TIP3   OH263433   5.699   5.165  13.884  0.1507  0.3646 -0.1347
13981TIP3    H163434   5.664   5.136  13.800 -2.2520 -1.4211  1.4194
13981TIP3    H263435   5.639   5.233  13.913  0.1277 -0.0616  0.8211
13982TIP3   OH263436   3.877   5.250  12.484  0.0253  0.1488 -0.0526
13982TIP3    H163437   3.937   5.198  12.431  0.0599  2.1240 -2.0807
13982TIP3    H263438   3.801   5.264  12.426 -1.3303 -0.2802  1.5910
13983TIP3   OH263439   2.008   2.606   1.561  0.7748  0.3891 -0.3843
13983TIP3    H163440   2.059   2.548   1.506  0.7640  0.9404 -0.9833
13983TIP3    H263441   1.941   2.642   1.503 -0.0209  0.0096  0.2851
13984TIP3   OH263442   6.393   0.189  14.221 -0.9325 -0.4107 -0.0366
13984TIP3    H163443   6.322   0.209  14.282 -0.6812 -2.2132  0.8815
13984TIP3    H263444   6.459   0.144  14.275  0.8396  1.0913 -0.9032
13985TIP3   OH263445   2.874   3.822  11.732  0.1477  0.3263  0.2236
13985TIP3    H163446   2.791   3.861  11.761  1.1562  1.8650  1.0953
13985TIP3    H263447   2.914   3.789  11.812  1.5979  1.9736  0.2120
13986TIP3   OH263448   5.377   2.784  12.970  0.0115  0.3939 -0.0193
13986TIP3    H163449   5.407   2.867  12.933 -2.1504  0.6225 -1.3523
13986TIP3    H263450   5.413   2.717  12.911  0.9687  0.4278  0.5175
13987TIP3   OH263451   5.969   6.025   0.984 -0.5039 -0.3098 -0.1921
13987TIP3    H163452   5.883   6.002   0.949  0.1098  0.3196 -2.1932
13987TIP3    H263453   5.955   6.106   1.032 -1.4071 -1.3039  1.2721
13988TIP3   OH263454   4.115   3.636   3.484 -0.2695 -0.6508 -0.2652
13988TIP3    H163455   4.132   3.563   3.543  0.9562  1.3935  1.9604
13988TIP3    H263456   4.054   3.692   3.532  0.3040  0.7505 -1.1491
13989TIP3   OH263457   2.542   1.506   1.252  0.0933  0.6567  0.3402
13989TIP3    H163458   2.500   1.422   1.233  1.7991  0.0945 -1.0823
13989TIP3    H263459   2.482   1.550   1.312 -0.9522 -1.4581  0.8794
13990TIP3   OH263460   5.006   3.551   0.670  0.2452  0.3483 -0.1473
13990TIP3    H163461   4.951   3.620   0.633 -0.3120  0.1175  0.2325
13990TIP3    H263462   4.994   3.559   0.765 -1.2460 -1.3916 -0.1540
13991TIP3   OH263463   5.373   3.014   1.711 -0.2980  0.0832  0.2912
13991TIP3    H163464   5.420   3.094   1.731 -0.8259 -0.0973  2.3574
13991TIP3    H263465   5.380   3.005   1.616  1.9173  1.2145  0.3217
13992TIP3   OH263466   0.772   4.515  15.561 -0.0929  0.0951 -0.4532
13992TIP3    H163467   0.846   4.553  15.608  1.5791 -1.5332 -1.6689
13992TIP3    H263468   0.751   4.579  15.493  0.0371  0.6682  0.0454
13993TIP3   OH263469   1.786   1.287  16.368  0.4479 -0.0688  0.2707
13993TIP3    H163470   1.805   1.350  16.298  0.5843 -0.8116 -0.3703
13993TIP3    H263471   1.856   1.222  16.361  1.4790  0.7764  2.2363
13994TIP3   OH263472   1.154   4.160   2.888 -0.4233  0.1453  0.7560
13994TIP3    H163473   1.181   4.155   2.797 -1.3470  1.2916  0.4173
13994TIP3    H263474   1.233   4.138   2.938  0.2150  0.0471 -0.2926
13995TIP3   OH263475   3.192   5.982  15.068 -0.1591  0.5268 -0.2722
13995TIP3    H163476   3.182   6.067  15.112  3.1525  0.4538  0.8013
13995TIP3    H263477   3.172   5.918  15.136  2.4373  0.4480  0.4862
13996TIP3   OH263478   1.676   0.365   4.006 -0.2758  0.6346  0.2674
13996TIP3    H163479   1.733   0.297   4.040 -1.3526  0.5162  1.9410
13996TIP3    H263480   1.644   0.331   3.922  0.3343 -0.2823  0.4028
13997TIP3   OH263481   6.702   5.027   0.082  0.3048  0.4505  0.4601
13997TIP3    H163482   6.768   5.072   0.028  1.2776 -1.3504  0.1065
13997TIP3    H263483   6.659   4.967   0.021 -0.1430  0.0226  1.1931
13998TIP3   OH263484   5.611   3.153   0.050  0.8202  0.0664 -0.4433
13998TIP3    H163485   5.539   3.209   0.079  0.0582  0.0118 -2.2032
13998TIP3    H263486   5.657   3.205  -0.015  2.0680 -0.1120  0.2822
13999TIP3   OH263487   0.727   3.290  13.333  0.3072  0.1003 -0.3959
13999TIP3    H163488   0.783   3.215  13.354 -0.0502  0.4211  1.8635
13999TIP3    H263489   0.643   3.252  13.310 -0.0398 -0.2216  1.2939
14000TIP3   OH263490   1.668   6.244   3.679 -0.0052  0.0507  0.1608
14000TIP3    H163491   1.739   6.247   3.744  1.3440  1.1750 -1.3210
14000TIP3    H263492   1.682   6.161   3.633  1.3495  1.0004 -1.1889
14001TIP3   OH263493   6.303   0.695   5.711 -0.0626  0.1375 -0.1966
14001TIP3    H163494   6.219   0.677   5.752  0.8208 -1.2113  1.0967
14001TIP3    H263495   6.316   0.789   5.721  0.5240 -0.2614  3.4878
14002TIP3   OH263496   2.521   1.455   5.458  0.3979 -0.6770  0.6300
14002TIP3    H163497   2.501   1.493   5.373  0.0374 -0.5775  0.7585
14002TIP3    H263498   2.461   1.498   5.519 -1.0428 -2.5175  0.5473
14003TIP3   OH263499   4.580   3.221   4.724 -0.1585  0.0931  0.1703
14003TIP3    H163500   4.672   3.212   4.698  1.1916  1.6480  3.9403
14003TIP3    H263501   4.558   3.136   4.762  0.0657  0.0412  0.1876
14004TIP3   OH263502   6.114   1.949  14.009 -0.2916  0.2077 -0.1401
14004TIP3    H163503   6.030   1.934  13.965 -0.4303 -0.8633  0.4657
14004TIP3    H263504   6.135   2.040  13.990 -0.1398 -0.3229 -2.7744
14005TIP3   OH263505   6.359   4.056   3.790  0.2645  0.6607  0.1473
14005TIP3    H163506   6.409   4.076   3.869 -0.8022  0.0906  0.9734
14005TIP3    H263507   6.415   4.085   3.718  2.0419 -0.5300  1.0338
14006TIP3   OH263508   3.686   6.647   5.320 -0.7688  0.6122  0.1620
14006TIP3    H163509   3.706   6.618   5.410 -1.1174  0.5219  0.2133
14006TIP3    H263510   3.648   6.734   5.331  0.7234  1.3054 -0.0308
14007TIP3   OH263511   5.582   3.947  14.290 -0.2198 -0.2424  0.0182
14007TIP3    H163512   5.586   4.040  14.265 -0.1033 -0.0368  0.7914
14007TIP3    H263513   5.601   3.900  14.209  1.2581  0.4285 -0.0469
14008TIP3   OH263514   5.143   4.441  11.110 -0.6836 -0.4367 -0.1238
14008TIP3    H163515   5.229   4.420  11.145 -0.3316  0.9514 -0.1052
14008TIP3    H263516   5.081   4.399  11.170 -0.0455 -0.1694  0.7309
14009TIP3   OH263517   5.168   4.121  13.550  0.2196 -0.5704  0.5357
14009TIP3    H163518   5.174   4.027  13.533  0.9308 -0.3682 -0.4335
14009TIP3    H263519   5.148   4.159  13.464  1.6770  0.3151  0.5817
14010TIP3   OH263520   1.221   2.767  13.642  0.3954  0.5848  0.0979
14010TIP3    H163521   1.270   2.704  13.695  1.2074  0.5693 -0.6529
14010TIP3    H263522   1.207   2.721  13.559 -1.0663  0.5201  0.3728
14011TIP3   OH263523   6.378   6.060  11.663  0.3811 -0.3861 -0.0964
14011TIP3    H163524   6.293   6.088  11.698  0.3598 -0.6338  0.0521
14011TIP3    H263525   6.397   6.123  11.593 -0.4969 -1.0266 -0.9282
14012TIP3   OH263526   0.186   1.304   5.694 -0.0739  0.5340  0.0699
14012TIP3    H163527   0.146   1.388   5.716  1.2103  1.1729  0.0331
14012TIP3    H263528   0.261   1.298   5.753  1.2123  0.5093 -1.5512
14013TIP3   OH263529   6.170   3.876   5.324  0.6303 -0.0721 -0.4259
14013TIP3    H163530   6.205   3.964   5.336  1.5982 -0.4397 -0.5419
14013TIP3    H263531   6.217   3.822   5.387 -0.1546 -0.4621 -0.1650
14014TIP3   OH263532   6.474   4.470   1.033 -0.3832  0.1529 -0.3812
14014TIP3    H163533   6.513   4.476   1.120  1.0588  1.7574 -1.1367
14014TIP3    H263534   6.466   4.375   1.018  2.4076 -0.2029  0.1386
14015TIP3   OH263535   4.945   4.850   0.795  0.3488  0.2277 -0.0693
14015TIP3    H163536   4.908   4.874   0.880  0.4547  1.2583 -0.3124
14015TIP3    H263537   4.943   4.754   0.795 -0.3401  0.2319  0.7877
14016TIP3   OH263538   6.544   5.141  14.483  0.4704 -0.1414 -0.8837
14016TIP3    H163539   6.451   5.119  14.496  0.6630  0.4533  1.8977
14016TIP3    H263540   6.543   5.216  14.423 -1.0744  1.9334  1.6291
14017TIP3   OH263541   1.877   2.606   5.290  0.1498  0.2564  0.1680
14017TIP3    H163542   1.795   2.631   5.333 -0.8697  0.2689 -1.7341
14017TIP3    H263543   1.909   2.688   5.252  1.5052  0.4220  1.5893
14018TIP3   OH263544   3.757   6.084   2.026 -0.1236  0.5529  0.4327
14018TIP3    H163545   3.784   6.029   2.099  0.8489  2.6906  1.7297
14018TIP3    H263546   3.830   6.080   1.964 -0.5771 -0.5745 -0.0349
14019TIP3   OH263547   5.683   0.405  15.203  0.0386 -0.0840 -0.2125
14019TIP3    H163548   5.633   0.412  15.285 -0.7973 -2.6012 -0.4441
14019TIP3    H263549   5.646   0.472  15.146  0.0827  1.1591  1.1791
14020TIP3   OH263550   6.337   3.506  16.120 -0.3326  0.0467 -0.0218
14020TIP3    H163551   6.361   3.429  16.172 -0.4981 -0.1466 -0.2325
14020TIP3    H263552   6.363   3.580  16.174  0.8735 -0.1571 -0.3202
14021TIP3   OH263553   3.073   6.544  16.261 -0.1557  0.5559  0.2170
14021TIP3    H163554   3.109   6.630  16.279 -0.0722  0.4230  0.6827
14021TIP3    H263555   3.149   6.489  16.243 -0.2737  0.8544 -1.2971
14022TIP3   OH263556   4.705   4.697   1.945 -0.1572  0.3722  0.3928
14022TIP3    H163557   4.796   4.699   1.976 -0.5021  0.2559  1.4394
14022TIP3    H263558   4.684   4.788   1.924 -0.2221  0.5951  1.4137
14023TIP3   OH263559   3.202   2.709  13.510  1.0577 -0.3933  0.2688
14023TIP3    H163560   3.260   2.737  13.580  0.9678 -1.7250  0.8958
14023TIP3    H263561   3.115   2.736  13.538  1.2476  0.7392 -0.2149
14024TIP3   OH263562   4.642   0.787   0.683 -0.4361  0.6573  0.2454
14024TIP3    H163563   4.699   0.809   0.609 -0.1473 -1.2468 -0.1233
14024TIP3    H263564   4.560   0.759   0.642  0.5605 -2.8455  0.4825
14025TIP3   OH263565   4.076   6.682   1.107  0.4563  0.1996 -0.2597
14025TIP3    H163566   4.072   6.669   1.012  2.9292  1.2214 -0.5579
14025TIP3    H263567   4.093   6.776   1.117 -1.8348  0.4703  1.2785
14026TIP3   OH263568   4.976   1.280  14.462  0.2916 -0.0528 -0.3830
14026TIP3    H163569   4.958   1.348  14.398 -1.4203 -0.8774 -0.8064
14026TIP3    H263570   5.018   1.326  14.535 -0.1736  1.3241 -0.9791
14027TIP3   OH263571   0.137   0.657   6.008  0.4642 -0.0890 -0.4242
14027TIP3    H163572   0.166   0.728   6.065  4.7335 -2.3288  0.3971
14027TIP3    H263573   0.194   0.664   5.931  0.0423 -1.7955 -0.9027
14028TIP3   OH263574   4.377   0.827  14.320  0.6478 -0.1864 -0.1177
14028TIP3    H163575   4.397   0.920  14.317 -2.2276  0.4726 -0.6997
14028TIP3    H263576   4.462   0.783  14.312  2.2253  2.3699  1.8968
14029TIP3   OH263577   2.198   6.078   5.296 -0.0663 -0.1554  0.1621
14029TIP3    H163578   2.163   6.138   5.231  1.1770 -0.2663 -0.6198
14029TIP3    H263579   2.252   6.133   5.352  1.6687 -0.6564 -0.9958
14030TIP3   OH263580   2.708   1.490   1.511 -0.0935 -0.0158  0.1733
14030TIP3    H163581   2.703   1.427   1.583 -0.9569 -0.3472 -0.1729
14030TIP3    H263582   2.649   1.455   1.444 -0.2615  0.9477 -0.1913
14031TIP3   OH263583   3.180   6.001   2.666  0.1793  0.7533 -0.1927
14031TIP3    H163584   3.238   6.003   2.743 -1.5960  0.0853  1.2085
14031TIP3    H263585   3.237   6.026   2.593  2.9149 -2.6202  0.6540
14032TIP3   OH263586   2.064   2.481  12.290 -0.0672 -0.3151  0.6201
14032TIP3    H163587   2.010   2.455  12.216  0.1789  0.3789  0.1914
14032TIP3    H263588   2.154   2.474  12.258  0.0114  0.6821  0.6310
14033TIP3   OH263589   2.646   0.571  11.833 -0.7001 -0.2026  0.4363
14033TIP3    H163590   2.664   0.650  11.781 -2.5852  0.9407  1.4308
14033TIP3    H263591   2.718   0.566  11.895  0.1472 -0.0338 -0.5313
14034TIP3   OH263592   5.516   6.531   1.396 -0.0047 -0.7170 -0.1363
14034TIP3    H163593   5.580   6.602   1.394  1.3080 -1.8718 -0.1476
14034TIP3    H263594   5.567   6.453   1.419 -1.2901 -1.7902 -0.8409
14035TIP3   OH263595   2.807   2.120  14.208 -0.5401 -0.2457 -0.0766
14035TIP3    H163596   2.756   2.176  14.149  1.2490  1.5245  0.0067
14035TIP3    H263597   2.892   2.113  14.166  0.0002 -0.9487  1.1134
14036TIP3   OH263598   2.603   2.453  16.611 -0.8236 -0.0722  0.3398
14036TIP3    H163599   2.533   2.519  16.602 -0.3171  0.0653 -3.1509
14036TIP3    H263600   2.684   2.503  16.604 -0.4229 -1.0665 -3.4196
14037TIP3   OH263601   0.748   0.721  15.666 -0.5893  0.1060  0.4067
14037TIP3    H163602   0.793   0.737  15.748 -2.1073 -0.1741  1.3085
14037TIP3    H263603   0.808   0.664  15.617 -0.6513 -1.5646  2.2205
14038TIP3   OH263604   1.046   1.084   2.618  0.5879  0.0031 -0.2992
14038TIP3    H163605   0.954   1.059   2.622  1.1553 -1.9878  1.6611
14038TIP3    H263606   1.085   1.021   2.556  1.1965 -1.2080  1.2834
14039TIP3   OH263607   5.203   0.524  12.244 -0.1502  0.2985 -0.6345
14039TIP3    H163608   5.186   0.616  12.261  0.3859  0.5860 -1.5587
14039TIP3    H263609   5.136   0.477  12.292  0.9837  1.0693  1.7601
14040TIP3   OH263610   0.628   0.094   6.538 -0.7355  0.0811 -0.3384
14040TIP3    H163611   0.612   0.112   6.446 -1.8649  1.2678  0.0693
14040TIP3    H263612   0.723   0.091   6.547 -0.6353 -0.8587 -1.6854
14041TIP3   OH263613   3.642   4.572  10.835 -0.2926  0.2720 -0.4503
14041TIP3    H163614   3.682   4.523  10.907 -0.6182  2.4292  1.2598
14041TIP3    H263615   3.714   4.592  10.776  0.0305 -1.2821 -0.6007
14042TIP3   OH263616   6.263   3.355   1.398  0.6847  0.3447 -0.3889
14042TIP3    H163617   6.252   3.439   1.444 -3.5578 -0.9302  1.1729
14042TIP3    H263618   6.197   3.357   1.329  1.2351 -1.3169 -0.9728
14043TIP3   OH263619   0.155   4.350  11.189  0.1044  1.0308  0.5152
14043TIP3    H163620   0.195   4.298  11.119 -1.8565 -0.6624  0.6080
14043TIP3    H263621   0.188   4.439  11.176 -0.4603  0.7961 -2.7195
14044TIP3   OH263622   1.874   4.792   0.785  0.1971 -0.2615 -0.3094
14044TIP3    H163623   1.781   4.782   0.808  0.1699 -0.8055 -0.6567
14044TIP3    H263624   1.912   4.839   0.859 -0.3304 -0.1539 -0.1054
14045TIP3   OH263625   3.245   5.398  11.659 -0.1830 -0.2664  0.1442
14045TIP3    H163626   3.169   5.450  11.686 -0.8281 -1.7735  1.3240
14045TIP3    H263627   3.274   5.355  11.739  1.0302 -0.8469 -0.5921
14046TIP3   OH263628   3.633   4.729  13.918  0.6290 -0.1630 -0.3095
14046TIP3    H163629   3.676   4.752  13.835 -0.4110  0.8588 -0.5765
14046TIP3    H263630   3.582   4.807  13.941  0.7098 -0.5356  1.1705
14047TIP3   OH263631   4.517   5.080   0.151  0.7467  0.2768  0.1440
14047TIP3    H163632   4.422   5.078   0.164  0.3164  0.5235 -2.6838
14047TIP3    H263633   4.536   5.003   0.097  2.4985 -1.0014  2.4701
14048TIP3   OH263634   3.831   3.322  15.691 -0.2754 -0.3969  0.0570
14048TIP3    H163635   3.806   3.246  15.743  1.0132  0.7153  2.3757
14048TIP3    H263636   3.846   3.391  15.755 -0.4547  1.5537 -1.9398
14049TIP3   OH263637   0.400   1.222  14.910 -0.6652 -0.3227  0.0909
14049TIP3    H163638   0.446   1.153  14.862  0.0450  2.4982 -3.5598
14049TIP3    H263639   0.315   1.230  14.865 -1.4980 -0.0906  1.6708
14050TIP3   OH263640   3.082   2.275   4.106 -0.5827 -0.2404  0.0400
14050TIP3    H163641   3.065   2.302   4.196 -0.4801 -1.3638  0.4088
14050TIP3    H263642   2.997   2.282   4.062 -1.2436 -2.2172  0.9176
14051TIP3   OH263643   2.017   2.435   4.663  0.0565  0.0960 -0.3072
14051TIP3    H163644   2.087   2.434   4.729 -1.7142  2.1627  1.7114
14051TIP3    H263645   1.966   2.357   4.681 -0.1866  0.4426  0.5164
14052TIP3   OH263646   4.272   3.850  13.410 -0.1120 -0.0514  0.1514
14052TIP3    H163647   4.236   3.825  13.325 -2.3823  0.9048  0.8077
14052TIP3    H263648   4.225   3.929  13.434 -0.3443 -0.9387  2.8367
14053TIP3   OH263649   2.034   0.256   2.067 -0.4224  0.2937  0.4040
14053TIP3    H163650   2.021   0.275   1.974 -0.8213  0.8326  0.5665
14053TIP3    H263651   1.953   0.285   2.110 -1.7239 -3.2579  0.4902
14054TIP3   OH263652   4.847   6.307  14.653  0.0278  0.0533 -0.1486
14054TIP3    H163653   4.791   6.366  14.704  0.4872  1.5407 -1.3065
14054TIP3    H263654   4.845   6.224  14.700  0.6578  1.4558  2.4462
14055TIP3   OH263655   3.570   3.769  14.186  0.7579  0.5595  0.1758
14055TIP3    H163656   3.614   3.749  14.269  0.3001  0.1394  0.3253
14055TIP3    H263657   3.638   3.759  14.119  0.2127 -3.1593  0.0539
14056TIP3   OH263658   1.071   4.864   1.576  0.0795  0.4076 -0.0662
14056TIP3    H163659   1.147   4.808   1.595  1.2331  1.6771 -0.8210
14056TIP3    H263660   1.095   4.909   1.495 -1.1300  1.4857  0.1637
14057TIP3   OH263661   0.560   6.346  16.318  0.0035 -0.4915 -0.3898
14057TIP3    H163662   0.491   6.371  16.380 -1.3480 -0.2833 -1.9607
14057TIP3    H263663   0.515   6.338  16.234  1.9048 -0.3626 -1.4334
14058TIP3   OH263664   4.338   2.564   4.706 -0.2263 -0.4086 -0.3828
14058TIP3    H163665   4.429   2.535   4.697 -0.1587 -0.9734  1.7825
14058TIP3    H263666   4.302   2.560   4.618  1.9634  0.2052 -1.3446
14059TIP3   OH263667   2.562   3.661  12.846 -0.3629 -0.7611 -0.7835
14059TIP3    H163668   2.646   3.640  12.886  0.0019  1.9130 -0.0919
14059TIP3    H263669   2.579   3.661  12.752  0.4859  0.1177 -0.6305
14060TIP3   OH263670   4.379   4.026   3.112  0.3221 -0.7782  0.1942
14060TIP3    H163671   4.287   4.051   3.098  0.6831 -0.0229 -0.8661
14060TIP3    H263672   4.415   4.097   3.166  0.3674 -0.9303  0.3656
14061TIP3   OH263673   2.683   1.665   3.643  0.4621  0.1575 -0.1647
14061TIP3    H163674   2.739   1.712   3.581  1.7718 -1.1080  0.0326
14061TIP3    H263675   2.690   1.573   3.616 -0.2068 -0.2069  0.8907
14062TIP3   OH263676   2.497   0.232   0.264  0.5786 -0.3262  0.3548
14062TIP3    H163677   2.514   0.168   0.333 -0.8420 -1.5575 -0.4052
14062TIP3    H263678   2.532   0.190   0.185  0.0919  0.0504 -0.0619
14063TIP3   OH263679   0.872   1.871  11.960  0.3191 -0.4608  0.2413
14063TIP3    H163680   0.871   1.829  12.046 -1.4907  0.6371  0.7755
14063TIP3    H263681   0.779   1.886  11.939  0.7318 -0.7541 -1.9190
14064TIP3   OH263682   5.950   5.905  13.510 -0.1601 -0.1139 -0.5818
14064TIP3    H163683   5.957   5.882  13.417 -0.7549  0.2192 -0.7115
14064TIP3    H263684   5.857   5.892  13.530 -0.0475 -0.0940 -0.0561
14065TIP3   OH263685   0.298   4.971   1.320  0.2447  0.0286 -0.3800
14065TIP3    H163686   0.217   4.954   1.273 -0.6683 -0.5497  1.3583
14065TIP3    H263687   0.274   5.030   1.390  1.5743  0.8049 -0.5537
14066TIP3   OH263688   6.425   0.269   4.813  0.2201  0.1248 -0.4392
14066TIP3    H163689   6.353   0.323   4.844  0.8376  0.4769  0.4074
14066TIP3    H263690   6.402   0.248   4.722 -0.9527  0.2005 -0.1646
14067TIP3   OH263691   4.828   2.099  11.345 -0.2385  0.0237  0.5636
14067TIP3    H163692   4.766   2.153  11.393  0.6061  1.3146  0.2156
14067TIP3    H263693   4.904   2.156  11.330  0.6452 -1.2341  0.1558
14068TIP3   OH263694   1.174   1.500  15.357 -0.2148  0.1472  0.2124
14068TIP3    H163695   1.219   1.443  15.294 -0.6918 -3.2127  2.7353
14068TIP3    H263696   1.102   1.538  15.307  0.6214 -0.8097 -1.8050
14069TIP3   OH263697   3.364   6.618   4.754  0.1512  0.0157 -0.2039
14069TIP3    H163698   3.349   6.533   4.715 -0.4009  0.2764 -0.5684
14069TIP3    H263699   3.282   6.665   4.741  0.3634  0.5111  0.2227
14070TIP3   OH263700   5.512   6.659  16.275  0.6962 -0.1996  0.2765
14070TIP3    H163701   5.560   6.739  16.250  0.1016  0.1212  0.1547
14070TIP3    H263702   5.569   6.588  16.246  2.0557  0.1642  1.9525
14071TIP3   OH263703   4.101   4.376  13.380  0.1200  0.4195  0.3420
14071TIP3    H163704   4.188   4.386  13.342 -0.7917  4.3830 -0.9458
14071TIP3    H263705   4.050   4.332  13.312  0.7533 -0.7636  0.6116
14072TIP3   OH263706   3.965   0.553  17.266 -0.2334 -0.5235 -0.4031
14072TIP3    H163707   3.871   0.542  17.280 -0.0256 -0.7546  0.8080
14072TIP3    H263708   3.987   0.484  17.204 -1.0718  0.2634 -1.6095
14073TIP3   OH263709   3.817   4.343   5.577  0.0453 -0.2213  0.3081
14073TIP3    H163710   3.831   4.249   5.573  0.0425 -0.1822 -0.6038
14073TIP3    H263711   3.870   4.379   5.506 -1.8917  0.2355 -0.9409
14074TIP3   OH263712   4.512   5.416   1.378 -0.4062  0.3033  0.5500
14074TIP3    H163713   4.595   5.379   1.408 -1.1642 -0.8871  1.2300
14074TIP3    H263714   4.452   5.341   1.376 -1.0463  0.8597 -1.4798
14075TIP3   OH263715   6.807   6.696  14.349 -0.0560 -0.0476 -0.2503
14075TIP3    H163716   6.761   6.627  14.301  1.4036 -0.9812 -0.3453
14075TIP3    H263717   6.823   6.659  14.435  0.2423  0.3904 -0.1179
14076TIP3   OH263718   2.164   1.788   4.309  0.1842  0.1891 -0.0046
14076TIP3    H163719   2.122   1.719   4.256  0.0673 -0.5807  1.0829
14076TIP3    H263720   2.209   1.842   4.245  0.5141 -1.0659 -0.8633
14077TIP3   OH263721   3.145   3.441  10.914 -0.1988  0.4516 -0.3850
14077TIP3    H163722   3.223   3.389  10.933 -0.4654  0.0999 -0.2230
14077TIP3    H263723   3.080   3.376  10.887 -0.6250  0.6678  0.1105
14078TIP3   OH263724   6.673   3.527  11.121 -0.2215 -0.5068 -0.0810
14078TIP3    H163725   6.673   3.510  11.027 -1.2288 -0.0849 -0.1553
14078TIP3    H263726   6.647   3.619  11.130  2.0307  0.1055  0.5026
14079TIP3   OH263727   4.440   4.433  15.859 -0.2620 -0.0006  0.2320
14079TIP3    H163728   4.518   4.444  15.913  0.6786  0.3370 -1.1698
14079TIP3    H263729   4.400   4.520  15.855 -1.1141 -0.3142  1.5187
14080TIP3   OH263730   2.627   1.295  15.107 -1.0242 -0.0224  0.0997
14080TIP3    H163731   2.617   1.380  15.063 -0.1933  0.8213  1.4897
14080TIP3    H263732   2.541   1.276  15.144 -1.3237  0.0043 -0.5822
14081TIP3   OH263733   1.888   0.171   3.071 -0.3344  0.0738  0.4782
14081TIP3    H163734   1.980   0.163   3.048 -0.6067  0.4328 -0.7889
14081TIP3    H263735   1.862   0.083   3.099 -0.5208 -0.9341 -2.6939
14082TIP3   OH263736   2.694   0.538   1.006 -0.2192  0.4473 -0.0215
14082TIP3    H163737   2.662   0.552   0.917 -0.4687 -1.8814 -0.3285
14082TIP3    H263738   2.639   0.594   1.061 -1.8426 -0.1086 -1.0423
14083TIP3   OH263739   5.709   0.309   1.223 -0.1061 -0.1562  0.0767
14083TIP3    H163740   5.715   0.290   1.317  0.8097  1.6250  0.3969
14083TIP3    H263741   5.786   0.361   1.204 -0.5949  0.0032 -1.5619
14084TIP3   OH263742   3.633   5.664   0.532 -0.1123  0.7742 -0.0583
14084TIP3    H163743   3.679   5.581   0.545 -1.0476  0.0316 -1.3242
14084TIP3    H263744   3.689   5.730   0.574  2.6369  0.0681 -2.4389
14085TIP3   OH263745   5.324   3.366  14.763 -0.0812 -0.2722 -0.2452
14085TIP3    H163746   5.244   3.313  14.754 -0.1551 -0.0946 -0.6619
14085TIP3    H263747   5.345   3.362  14.856 -0.1005 -1.0123 -0.2677
14086TIP3   OH263748   5.747   4.681   3.749  0.4332 -0.2030  0.1408
14086TIP3    H163749   5.700   4.640   3.676  1.4717  1.1723 -1.3226
14086TIP3    H263750   5.838   4.653   3.738  0.6215  0.1157  0.8476
14087TIP3   OH263751   3.343   4.158   1.950  0.0046  0.4896 -0.5701
14087TIP3    H163752   3.302   4.239   1.921 -2.0193 -0.8885 -1.6919
14087TIP3    H263753   3.428   4.157   1.906  0.1758  2.1448 -0.2934
14088TIP3   OH263754   0.100   6.790   1.678 -0.1597 -0.2946 -0.1315
14088TIP3    H163755   0.110   6.718   1.615 -0.5744 -0.3582 -0.1230
14088TIP3    H263756   0.017   6.773   1.721 -0.1801  0.1014 -0.0117
14089TIP3   OH263757   5.362   1.113  11.735 -0.1777 -0.6662  0.3308
14089TIP3    H163758   5.436   1.151  11.687 -0.9542 -1.1034 -1.2524
14089TIP3    H263759   5.335   1.183  11.795  1.7191 -0.6255  1.1908
14090TIP3   OH263760   1.703   2.902   2.527  0.0538 -0.0399 -0.1874
14090TIP3    H163761   1.691   2.961   2.452  0.1561 -1.0696 -1.0324
14090TIP3    H263762   1.682   2.815   2.492 -1.2065 -0.3750  1.3306
14091TIP3   OH263763   2.357   1.146   3.824  0.2784  0.2290  0.0203
14091TIP3    H163764   2.269   1.177   3.802  0.7661  0.5026 -1.6414
14091TIP3    H263765   2.401   1.222   3.861 -0.4779 -0.1675  1.7834
14092TIP3   OH263766   0.696   2.431   1.034 -0.4713  0.5011  0.2048
14092TIP3    H163767   0.663   2.419   0.945 -0.5355 -1.5835  0.4722
14092TIP3    H263768   0.704   2.525   1.045  1.4125  0.7173 -2.6887
14093TIP3   OH263769   0.742   3.361   1.212  0.0634 -0.2394  0.3937
14093TIP3    H163770   0.675   3.408   1.162 -0.7317  0.2599  1.9057
14093TIP3    H263771   0.724   3.383   1.303  1.9601 -0.5503  0.8659
14094TIP3   OH263772   5.232   0.115  13.977 -0.2532  0.4692  0.0503
14094TIP3    H163773   5.298   0.169  14.020  1.2683 -0.5094 -1.0100
14094TIP3    H263774   5.226   0.037  14.031  2.1643 -1.0685 -1.8247
14095TIP3   OH263775   6.712   3.822  10.724  0.2724 -0.0159  0.1705
14095TIP3    H163776   6.677   3.846  10.810 -1.5449  0.6587 -0.7161
14095TIP3    H263777   6.638   3.836  10.664  1.3529 -0.9830 -1.4172
14096TIP3   OH263778   4.366   3.654  13.016 -0.2683 -0.0087 -0.2516
14096TIP3    H163779   4.447   3.644  12.965  0.1405 -1.0973  0.5807
14096TIP3    H263780   4.382   3.731  13.071  0.2069 -0.2047 -0.1060
14097TIP3   OH263781   0.572   4.709  13.421 -0.0122 -0.7393  0.1670
14097TIP3    H163782   0.659   4.701  13.459  1.0420  1.3632 -1.7104
14097TIP3    H263783   0.516   4.736  13.495  1.2311 -0.5636  1.0557
14098TIP3   OH263784   1.340   0.910   3.080 -0.1316 -0.3589 -0.4720
14098TIP3    H163785   1.263   0.865   3.116 -0.2205  0.5160  0.4322
14098TIP3    H263786   1.303   0.971   3.016 -0.2152  0.2662  0.1699
14099TIP3   OH263787   5.439   1.947  15.443 -0.0977  0.2658 -0.5009
14099TIP3    H163788   5.386   1.922  15.368 -1.5247  0.5159  0.4077
14099TIP3    H263789   5.376   1.971  15.510  1.1678  2.0724  0.0995
14100TIP3   OH263790   6.326   4.509  12.492 -0.0798  0.0727  0.0068
14100TIP3    H163791   6.375   4.581  12.452  5.0752 -2.6911  0.9341
14100TIP3    H263792   6.330   4.438  12.427 -0.1395 -1.2186  1.3838
14101TIP3   OH263793   1.734   0.737   0.179  0.4697  0.0296 -0.2702
14101TIP3    H163794   1.810   0.740   0.122 -0.1064 -0.0138 -1.0443
14101TIP3    H263795   1.659   0.739   0.120 -0.1433  0.8380  0.5143
14102TIP3   OH263796   3.415   5.785  11.530 -0.3895 -0.4156 -0.5649
14102TIP3    H163797   3.454   5.697  11.535 -3.0190 -1.5495  1.4888
14102TIP3    H263798   3.322   5.768  11.517 -0.6843  2.1592 -2.0797
14103TIP3   OH263799   4.942   2.885  16.722  0.4344 -0.0391 -0.0410
14103TIP3    H163800   4.962   2.837  16.641  1.1473  1.1445 -0.6011
14103TIP3    H263801   5.028   2.911  16.755  0.1929 -1.2943  1.6022
14104TIP3   OH263802   6.171   0.537  16.348  0.1992  0.0677  0.1213
14104TIP3    H163803   6.088   0.551  16.303  0.5583  1.0648 -0.2599
14104TIP3    H263804   6.153   0.470  16.413 -0.9097  0.3068  0.0590
14105TIP3   OH263805   1.468   0.183   3.468 -0.2620 -0.1758  0.5035
14105TIP3    H163806   1.394   0.122   3.473  0.5142 -1.2062 -0.3339
14105TIP3    H263807   1.497   0.179   3.377  0.5970  0.4937  0.7388
14106TIP3   OH263808   0.865   0.229   2.144 -0.7312  0.1914 -0.2681
14106TIP3    H163809   0.869   0.281   2.224  2.5345 -0.4483  0.0671
14106TIP3    H263810   0.896   0.142   2.170  2.7899  0.6108 -2.6390
14107TIP3   OH263811   4.190   0.740   2.162  0.4307 -0.3481 -0.1870
14107TIP3    H163812   4.103   0.731   2.122 -1.2347  0.2928  3.1229
14107TIP3    H263813   4.212   0.651   2.190  0.3783 -0.3202 -0.0597
14108TIP3   OH263814   0.996   6.652  12.678  0.4131  0.1915  0.7480
14108TIP3    H163815   0.979   6.680  12.588 -0.7143  1.5157  1.3625
14108TIP3    H263816   1.068   6.589  12.670 -0.4417 -0.5753 -1.1944
14109TIP3   OH263817   1.793   0.871   1.489 -0.0230 -0.1943  0.0596
14109TIP3    H163818   1.852   0.859   1.564 -0.4956 -1.0495  0.3022
14109TIP3    H263819   1.756   0.958   1.502  0.6120  0.0455  0.3117
14110TIP3   OH263820   6.074   3.416   1.204 -0.0330  0.1066  0.0595
14110TIP3    H163821   6.085   3.484   1.138 -0.5180  0.3462  0.2210
14110TIP3    H263822   5.989   3.436   1.244  0.5443  0.3417  1.1827
14111TIP3   OH263823   0.165   1.581  15.804 -0.3503 -0.0551 -0.1295
14111TIP3    H163824   0.253   1.619  15.797 -0.6821  0.6367 -0.5893
14111TIP3    H263825   0.180   1.486  15.808  0.4955  0.1179  1.2469
14112TIP3   OH263826   3.741   2.166   0.192 -0.8824 -0.0987  0.1563
14112TIP3    H163827   3.820   2.154   0.244 -0.5320 -1.0319 -0.5887
14112TIP3    H263828   3.689   2.229   0.243  1.0527  1.8213 -0.1346
14113TIP3   OH263829   4.196   5.225   1.709 -0.0143 -1.0920 -0.0096
14113TIP3    H163830   4.152   5.309   1.697 -0.1060 -0.9118  1.4850
14113TIP3    H263831   4.289   5.247   1.709 -0.0567 -0.8778  1.0958
14114TIP3   OH263832   2.165   1.230  14.653  0.3052 -0.1104  0.4239
14114TIP3    H163833   2.090   1.199  14.704 -0.4155 -0.8293 -1.0331
14114TIP3    H263834   2.240   1.221  14.712 -0.6990  0.3096  1.7886
14115TIP3   OH263835   6.279   1.463  15.830  0.5672  0.2359  0.0072
14115TIP3    H163836   6.236   1.381  15.852 -0.5980  0.7590 -0.2723
14115TIP3    H263837   6.314   1.449  15.742  1.5826 -0.4210  0.5016
14116TIP3   OH263838   4.487   2.017   4.456  0.4456  0.5014 -0.6696
14116TIP3    H163839   4.495   1.928   4.422  4.7878 -0.0291  1.3218
14116TIP3    H263840   4.436   2.063   4.391 -0.3344 -2.9933 -2.6716
14117TIP3   OH263841   2.576   3.819   5.971 -0.5836  0.0370  0.9103
14117TIP3    H163842   2.522   3.812   6.050  0.3945 -0.6669  1.5392
14117TIP3    H263843   2.569   3.733   5.930 -0.3188  0.0946  0.7463
14118TIP3   OH263844   1.768   2.943  12.319 -0.3106  0.2899  0.3741
14118TIP3    H163845   1.699   2.927  12.384  1.8139 -0.9712  2.3584
14118TIP3    H263846   1.821   3.012  12.357  0.3718  0.2395 -0.4851
14119TIP3   OH263847   5.205   1.693   0.688 -0.4794  0.1244  0.0432
14119TIP3    H163848   5.212   1.607   0.731  2.9716  0.4819  0.3225
14119TIP3    H263849   5.149   1.676   0.612 -0.1621 -2.2992  0.2910
14120TIP3   OH263850   0.468   5.969  12.091 -0.0830  0.5555  0.6103
14120TIP3    H163851   0.466   5.957  12.186 -1.6952  0.1446  0.5355
14120TIP3    H263852   0.555   6.006  12.074  0.5993 -0.2836  2.1189
14121TIP3   OH263853   2.173   0.795   2.591 -0.0637  0.4855  0.7374
14121TIP3    H163854   2.265   0.806   2.617  0.5506 -2.6156 -0.0098
14121TIP3    H263855   2.177   0.754   2.505 -2.1716 -0.3442  1.0122
14122TIP3   OH263856   5.448   3.964  11.332  0.1174  0.0183 -0.1803
14122TIP3    H163857   5.473   3.984  11.242 -0.0715 -0.7205 -0.3994
14122TIP3    H263858   5.412   4.046  11.365  0.6957  0.4470 -0.5967
14123TIP3   OH263859   4.357   5.557   2.331  0.1925 -0.1165  0.0896
14123TIP3    H163860   4.395   5.470   2.346  1.7264  0.4242 -0.5975
14123TIP3    H263861   4.321   5.582   2.417  0.3623 -1.1204  0.4676
14124TIP3   OH263862   4.931   6.240  16.307 -0.1449 -1.0020 -0.2771
14124TIP3    H163863   4.977   6.287  16.237  0.6567 -1.3399  0.0143
14124TIP3    H263864   4.976   6.267  16.387 -0.7694 -0.9691  0.0645
14125TIP3   OH263865   5.520   1.137   2.939 -0.2366 -0.2977 -0.0951
14125TIP3    H163866   5.510   1.049   2.903 -0.4280 -0.7468  1.0377
14125TIP3    H263867   5.571   1.124   3.019  3.0941  1.0615 -1.8695
14126TIP3   OH263868   2.128   4.550  14.188 -0.2620 -0.4546 -0.4706
14126TIP3    H163869   2.159   4.638  14.208  0.1246 -0.5812 -0.5276
14126TIP3    H263870   2.207   4.497  14.182 -0.5006 -0.8198 -0.3659
14127TIP3   OH263871   0.620   4.162   3.718  0.4494  0.0688  0.1271
14127TIP3    H163872   0.540   4.203   3.685  0.4811  1.0590  1.2375
14127TIP3    H263873   0.631   4.083   3.664 -0.4398  0.7234 -1.0297
14128TIP3   OH263874   0.814   0.959   6.119 -0.2139 -0.4195  0.7536
14128TIP3    H163875   0.838   0.912   6.039 -0.7032 -0.3539  0.5686
14128TIP3    H263876   0.843   0.901   6.190 -0.6044 -0.8971  0.5268
14129TIP3   OH263877   6.240   0.525  15.057 -0.0166 -0.4888  0.0499
14129TIP3    H163878   6.240   0.581  15.134 -0.1400 -0.6770  0.1886
14129TIP3    H263879   6.324   0.480  15.060 -0.4102 -1.2149  0.6097
14130TIP3   OH263880   3.394   3.364   1.232  0.5643 -0.1327  0.1405
14130TIP3    H163881   3.343   3.283   1.236  1.1752 -0.7213 -2.6606
14130TIP3    H263882   3.485   3.335   1.239  0.7138  0.4484  0.5800
14131TIP3   OH263883   4.995   5.406  13.909  0.6180 -0.1670 -0.0694
14131TIP3    H163884   5.021   5.496  13.928 -0.2011 -0.2366  1.3995
14131TIP3    H263885   5.015   5.357  13.989 -1.8668 -0.6727  0.2647
14132TIP3   OH263886   1.760   1.825   3.157  0.3431 -0.6677  0.2928
14132TIP3    H163887   1.760   1.910   3.112 -0.3616 -1.0190 -0.3938
14132TIP3    H263888   1.819   1.837   3.231 -0.7008  0.7981  0.9091
14133TIP3   OH263889   2.041   1.321   1.581 -0.0802 -0.3321 -0.9393
14133TIP3    H163890   2.032   1.321   1.677  0.1315  0.0754 -0.9188
14133TIP3    H263891   2.134   1.301   1.566 -0.2380 -0.9802 -1.0730
14134TIP3   OH263892   5.256   0.828  15.255 -0.0317  0.2141  0.4139
14134TIP3    H163893   5.257   0.824  15.159  1.2463 -3.2414  0.5330
14134TIP3    H263894   5.325   0.891  15.277 -0.1720  0.8468 -0.9014
14135TIP3   OH263895   4.287   5.491  12.467 -0.4461  0.0188  0.1967
14135TIP3    H163896   4.365   5.457  12.510  0.1402 -2.3435 -2.6205
14135TIP3    H263897   4.319   5.561  12.410 -0.8416  1.1114  1.2752
14136TIP3   OH263898   5.676   6.370  10.960 -0.3598  0.2444 -0.1659
14136TIP3    H163899   5.657   6.392  10.869  0.7499 -0.4690 -0.5691
14136TIP3    H263900   5.745   6.305  10.956 -0.6449 -0.1696  1.1761
14137TIP3   OH263901   6.745   0.255  13.562  0.0176  0.0516 -0.2373
14137TIP3    H163902   6.724   0.183  13.621 -1.6303  0.4120 -0.3832
14137TIP3    H263903   6.780   0.212  13.483  0.4895 -0.5065  0.2669
14138TIP3   OH263904   4.684   6.488   3.792  0.6584 -0.2787 -0.5396
14138TIP3    H163905   4.663   6.403   3.754  0.7901 -0.5500 -0.0150
14138TIP3    H263906   4.601   6.517   3.832  0.4169  0.1880 -1.3760
14139TIP3   OH263907   6.162   4.572  14.407 -0.3504  0.3074  0.5197
14139TIP3    H163908   6.121   4.636  14.464  0.7378  2.2414 -0.7921
14139TIP3    H263909   6.125   4.589  14.320  1.8078  0.8719 -0.3346
14140TIP3   OH263910   5.610   0.574   1.496  0.0423  0.1491 -0.7797
14140TIP3    H163911   5.702   0.573   1.524  0.0354  3.6392 -0.3910
14140TIP3    H263912   5.565   0.626   1.564 -1.5997  1.2290 -2.6517
14141TIP3   OH263913   6.144   3.671  15.009 -0.0726 -0.2444  0.1768
14141TIP3    H163914   6.187   3.586  15.002 -0.0006 -0.2547  0.7323
14141TIP3    H263915   6.198   3.729  14.956  0.6300 -0.2577  0.8668
14142TIP3   OH263916   0.317   0.074   2.260 -0.2876 -0.0116  0.0119
14142TIP3    H163917   0.301   0.107   2.171 -1.4575  0.1192  0.2672
14142TIP3    H263918   0.258  -0.000   2.269 -0.9630  0.6465  1.0609
14143TIP3   OH263919   4.876   5.785   2.486 -0.2907  0.5917  0.0165
14143TIP3    H163920   4.905   5.743   2.567 -0.5534  1.6383  0.6779
14143TIP3    H263921   4.797   5.832   2.511  0.2777  1.8951 -0.5568
14144TIP3   OH263922   3.721   5.260  15.872 -0.1897  0.4510  0.2983
14144TIP3    H163923   3.646   5.206  15.845  0.1421  0.5772 -0.8886
14144TIP3    H263924   3.682   5.341  15.902 -0.6163  0.0084  0.9612
14145TIP3   OH263925   2.482   4.910  15.045 -0.0357 -0.3270  0.2569
14145TIP3    H163926   2.447   4.821  15.047  0.6249 -0.5663  1.5360
14145TIP3    H263927   2.419   4.960  14.993 -0.8949 -1.3279  0.3310
14146TIP3   OH263928   3.337   6.020  13.625 -0.4257 -1.1387 -0.4500
14146TIP3    H163929   3.262   5.973  13.659 -0.6587 -1.4312 -1.3518
14146TIP3    H263930   3.324   6.022  13.530  1.1808 -2.0363 -0.7125
14147TIP3   OH263931   0.494   3.570   1.831 -0.0647  0.3853  0.4938
14147TIP3    H163932   0.423   3.553   1.770  0.4160 -2.2866  0.6098
14147TIP3    H263933   0.465   3.646   1.881 -1.8151  0.7253 -0.9853
14148TIP3   OH263934   3.363   4.446   4.408 -0.1893 -0.1155  0.5592
14148TIP3    H163935   3.448   4.402   4.418  0.3186  0.2564 -1.8084
14148TIP3    H263936   3.303   4.376   4.380 -0.4337 -0.1655  1.1923
14149TIP3   OH263937   3.893   1.431   5.760  0.5426 -0.3335 -0.1312
14149TIP3    H163938   3.842   1.417   5.840 -1.1758 -1.7246 -1.4576
14149TIP3    H263939   3.957   1.360   5.760 -0.2578 -1.0569 -0.6205
14150TIP3   OH263940   0.412   0.042  17.092 -0.7520 -0.2527 -0.9280
14150TIP3    H163941   0.366  -0.035  17.060  0.8480 -1.3161 -0.6994
14150TIP3    H263942   0.373   0.059  17.178 -0.9988 -0.8941 -0.9121
14151TIP3   OH263943   1.592   6.319  14.959  0.1008 -0.0280  0.3642
14151TIP3    H163944   1.661   6.346  15.019  0.4699 -1.4573  0.5790
14151TIP3    H263945   1.629   6.246  14.910 -0.8021  0.0266 -0.4233
14152TIP3   OH263946   2.156   4.002  11.961  0.6651 -0.1442  0.1661
14152TIP3    H163947   2.148   4.049  11.878  0.5807  1.7994  1.2385
14152TIP3    H263948   2.066   3.979  11.985  0.7370 -1.1973 -0.5319
14153TIP3   OH263949   2.008   3.431   1.914 -0.3330 -0.6072  0.3071
14153TIP3    H163950   2.044   3.343   1.923  0.3792 -0.2498  0.9510
14153TIP3    H263951   2.084   3.488   1.904 -0.8023 -0.1012 -0.5098
14154TIP3   OH263952   3.257   4.854  14.918 -0.0232  0.0348  0.7944
14154TIP3    H163953   3.351   4.854  14.934  0.0706  0.2221  0.2470
14154TIP3    H263954   3.230   4.945  14.929 -0.0516  0.0697  0.4356
14155TIP3   OH263955   3.711   0.277   3.907 -0.2915 -0.2806  0.2068
14155TIP3    H163956   3.622   0.244   3.916 -0.3096 -1.1610 -2.5891
14155TIP3    H263957   3.722   0.339   3.979 -3.0002 -0.5151  0.8498
14156TIP3   OH263958   1.785   5.997  17.182 -0.5758  0.0092  0.1186
14156TIP3    H163959   1.767   5.949  17.263 -1.0443  1.4422  0.8887
14156TIP3    H263960   1.700   6.032  17.156  0.0615  2.0708  0.6759
14157TIP3   OH263961   5.012   1.758  13.533  0.2910  0.4731 -0.1121
14157TIP3    H163962   5.064   1.828  13.570  2.5598 -2.0281  1.5500
14157TIP3    H263963   4.926   1.766  13.575  0.4427  2.3544 -0.1414
14158TIP3   OH263964   5.849   6.348  11.521 -0.3358  0.9405  0.1111
14158TIP3    H163965   5.804   6.433  11.518  1.7980  2.0827 -0.8633
14158TIP3    H263966   5.901   6.346  11.441 -0.7088 -1.5280 -0.1161
14159TIP3   OH263967   3.029   2.361  15.587  0.5164  0.0489  0.0582
14159TIP3    H163968   3.101   2.299  15.594 -0.6019 -1.4636 -1.5875
14159TIP3    H263969   3.066   2.436  15.539  1.9768  0.9036  2.4000
14160TIP3   OH263970   3.865   0.796   5.789  0.3273  0.4787 -0.4818
14160TIP3    H163971   3.791   0.782   5.731 -0.2200 -0.9639  0.5356
14160TIP3    H263972   3.852   0.885   5.822 -0.5534  0.5054 -0.8803
14161TIP3   OH263973   6.436   1.615  14.859 -0.0788  0.8096  0.1037
14161TIP3    H163974   6.430   1.659  14.943  1.2476  0.8263  0.1983
14161TIP3    H263975   6.520   1.569  14.861 -1.0104 -0.9816 -0.3498
14162TIP3   OH263976   3.357   1.949  11.920  0.2128 -0.4561  0.1452
14162TIP3    H163977   3.340   2.031  11.966 -2.1468 -0.7739 -0.1108
14162TIP3    H263978   3.270   1.914  11.900  1.1817 -2.7187 -0.2877
14163TIP3   OH263979   4.547   2.453   3.432 -0.2107  0.5073 -0.2087
14163TIP3    H163980   4.574   2.403   3.355 -2.2135 -0.3729 -0.3774
14163TIP3    H263981   4.585   2.406   3.506  1.6103  1.2820 -0.6189
14164TIP3   OH263982   3.100   0.447   5.198  0.5072  0.2849 -0.1222
14164TIP3    H163983   3.143   0.468   5.281 -0.2056  0.0734  0.3089
14164TIP3    H263984   3.155   0.486   5.131  1.9490 -0.8944  0.3582
14165TIP3   OH263985   1.759   1.210   5.909  0.2147 -0.3897  0.3363
14165TIP3    H163986   1.784   1.125   5.875 -0.2435 -0.1160 -0.7097
14165TIP3    H263987   1.777   1.271   5.837 -2.7252 -0.0834 -0.2054
14166TIP3   OH263988   3.852   3.257  11.849 -0.8423  0.3544  0.3424
14166TIP3    H163989   3.794   3.197  11.802 -0.5236  1.8132 -1.9878
14166TIP3    H263990   3.827   3.344  11.819  1.9658  1.0684 -0.1058
14167TIP3   OH263991   1.985   0.614  15.137  0.5919 -0.2462  0.1936
14167TIP3    H163992   1.978   0.700  15.179  1.2666 -0.8472  1.5554
14167TIP3    H263993   1.917   0.561  15.179  1.4951 -0.9504  0.7798
14168TIP3   OH263994   5.658   2.638   1.194  0.5534  0.0783 -0.0099
14168TIP3    H163995   5.611   2.555   1.192  2.4343 -0.9794 -1.0563
14168TIP3    H263996   5.648   2.669   1.284 -0.3549 -1.1408  0.3208
14169TIP3   OH263997   4.406   6.508   4.391  0.0985 -0.3031 -0.4415
14169TIP3    H163998   4.401   6.488   4.298 -1.0651 -0.5261 -0.3438
14169TIP3    H263999   4.480   6.456   4.423 -0.1654 -1.0627 -1.0418
14170TIP3   OH264000   0.367   2.642   2.243 -0.1961  0.9095 -0.2911
14170TIP3    H164001   0.320   2.643   2.327 -1.5325  2.0301 -1.0269
14170TIP3    H264002   0.299   2.622   2.179  0.8411 -0.0246 -1.1001
14171TIP3   OH264003   1.794   4.376  14.771  0.6433  0.3413  0.3214
14171TIP3    H164004   1.777   4.457  14.820 -0.0978  0.5494 -0.2683
14171TIP3    H264005   1.786   4.401  14.679 -0.2044 -0.5245  0.1460
14172TIP3   OH264006   5.581   4.020  14.764  0.0913  0.2107  0.3254
14172TIP3    H164007   5.584   3.954  14.833  1.0779 -0.0971 -0.0168
14172TIP3    H264008   5.639   3.987  14.696  0.4215  1.3343  0.0628
14173TIP3   OH264009   1.415   1.298  14.784  0.8445 -0.1748  0.6340
14173TIP3    H164010   1.498   1.255  14.807  1.0926  0.6733  1.3450
14173TIP3    H264011   1.438   1.362  14.717  0.3573 -1.6168 -0.9515
14174TIP3   OH264012   4.762   3.441  11.767 -0.3834  0.6531  0.1570
14174TIP3    H164013   4.802   3.465  11.684 -0.2616  0.5073  0.1731
14174TIP3    H264014   4.794   3.352  11.785 -1.8611 -0.0349 -0.5523
14175TIP3   OH264015   6.737   1.815  11.243  0.2707 -0.4481  0.0426
14175TIP3    H164016   6.649   1.848  11.262 -0.2077 -1.0857 -1.0355
14175TIP3    H264017   6.734   1.790  11.151  2.1233  1.1861 -0.4934
14176TIP3   OH264018   0.694   6.687   4.846 -1.0152  0.0406 -0.2583
14176TIP3    H164019   0.631   6.633   4.893 -0.4840 -0.5425 -0.2181
14176TIP3    H264020   0.700   6.768   4.897 -0.9010 -0.3435  0.3357
14177TIP3   OH264021   5.610   0.378  13.927  0.0675  0.4345  0.3246
14177TIP3    H164022   5.690   0.418  13.893  0.1090 -0.1249 -0.2477
14177TIP3    H264023   5.541   0.410  13.868  0.0339  0.0187  0.1406
14178TIP3   OH264024   4.437   0.364   5.506  0.0057  0.1450 -1.1391
14178TIP3    H164025   4.496   0.331   5.438  1.8868  0.3194  0.3495
14178TIP3    H264026   4.487   0.433   5.549 -0.0292 -1.7974  2.1811
14179TIP3   OH264027   4.560   5.609  14.029  0.7354  0.0727 -0.2700
14179TIP3    H164028   4.635   5.586  13.974  0.0510 -0.1510 -1.1151
14179TIP3    H264029   4.582   5.696  14.063  1.8840 -0.4669  0.3934
14180TIP3   OH264030   6.736   3.263   2.887  0.2049 -0.3340 -0.0280
14180TIP3    H164031   6.772   3.177   2.906  3.3418  1.5447  3.1817
14180TIP3    H264032   6.659   3.269   2.943  1.4499 -0.1397  1.7027
14181TIP3   OH264033   5.993   3.075   4.396  0.0816  0.0441  0.1518
14181TIP3    H164034   6.054   3.037   4.459 -1.9108 -0.2411  1.9440
14181TIP3    H264035   6.018   3.037   4.312  3.5312  1.3267  0.5205
14182TIP3   OH264036   6.103   5.188  13.888  0.0228  0.9750 -0.2654
14182TIP3    H164037   6.073   5.232  13.967  0.7394  2.8168 -1.0028
14182TIP3    H264038   6.049   5.224  13.818  1.1356  1.2949 -0.9859
14183TIP3   OH264039   0.252   1.171   2.833  0.1813 -0.1635 -0.4340
14183TIP3    H164040   0.293   1.222   2.764  0.0074 -0.9722 -1.1467
14183TIP3    H264041   0.169   1.142   2.795  0.4245 -1.2378 -0.1535
14184TIP3   OH264042   2.650   6.723   3.396  0.8612  0.3404 -0.8153
14184TIP3    H164043   2.674   6.813   3.415  0.7763  0.3887 -0.9432
14184TIP3    H264044   2.594   6.728   3.319  1.4019  0.1205 -1.2309
14185TIP3   OH264045   3.764   2.520  13.393 -0.9694  0.3167 -0.7188
14185TIP3    H164046   3.857   2.539  13.407 -1.0312  1.8412 -2.2755
14185TIP3    H264047   3.734   2.485  13.477  0.4608  1.9723  0.5251
14186TIP3   OH264048   2.265   0.218  15.364  0.5049 -0.4837 -0.4459
14186TIP3    H164049   2.170   0.203  15.367  0.4750 -0.5264 -1.4845
14186TIP3    H264050   2.297   0.180  15.446 -0.0332 -2.9515 -1.3431
14187TIP3   OH264051   4.190   1.370   4.411  0.3368 -0.8740 -0.3560
14187TIP3    H164052   4.099   1.397   4.423  0.2620 -1.2285 -0.1071
14187TIP3    H264053   4.233   1.445   4.371 -0.2123 -0.9276 -1.0557
14188TIP3   OH264054   1.488   2.628   1.224  0.3296 -0.3895  0.2020
14188TIP3    H164055   1.483   2.533   1.231  1.9565 -0.4631  0.4336
14188TIP3    H264056   1.457   2.660   1.309 -1.9189 -0.6312 -0.4799
14189TIP3   OH264057   6.668   0.407   5.510  0.6481 -0.2832 -0.4298
14189TIP3    H164058   6.613   0.371   5.440 -0.1223  1.0664 -0.5505
14189TIP3    H264059   6.611   0.410   5.586  1.5441 -1.9248  0.3299
14190TIP3   OH264060   0.890   2.734   1.765  0.1607  0.4215 -0.4598
14190TIP3    H164061   0.858   2.720   1.855 -1.2280  1.7495 -0.7375
14190TIP3    H264062   0.976   2.773   1.776 -0.0655  0.7137  0.3003
14191TIP3   OH264063   2.534   5.952  10.783  0.0341 -0.0565 -0.1611
14191TIP3    H164064   2.630   5.948  10.778  0.0462 -0.2693  0.2904
14191TIP3    H264065   2.514   6.045  10.769  0.3751  0.1907  0.9628
14192TIP3   OH264066   0.945   2.237  10.697 -0.6770  0.7855 -0.2416
14192TIP3    H164067   0.914   2.147  10.710 -0.8166  0.8360 -0.2242
14192TIP3    H264068   0.879   2.277  10.641  0.3543  0.3216 -1.8149
14193TIP3   OH264069   3.507   5.023   2.007 -0.3052 -0.1305 -0.1866
14193TIP3    H164070   3.433   5.020   2.068 -0.8961 -3.2818 -0.9532
14193TIP3    H264071   3.579   4.983   2.055  0.1979  0.6000 -0.3331
14194TIP3   OH264072   4.218   5.638   0.249 -0.3128  0.2584 -0.2773
14194TIP3    H164073   4.276   5.692   0.194 -0.4071  0.0741 -0.5618
14194TIP3    H264074   4.139   5.626   0.196 -0.4234  0.1163 -0.0805
14195TIP3   OH264075   1.942   1.584   2.576  0.0908 -0.6052 -0.3659
14195TIP3    H164076   1.913   1.510   2.631  1.2703  0.7809  2.2032
14195TIP3    H264077   1.860   1.628   2.552 -0.4087 -0.6033  1.2301
14196TIP3   OH264078   3.075   4.017   6.541  0.2603 -0.0458 -0.0686
14196TIP3    H164079   3.108   3.954   6.476 -0.3494  1.0153 -1.4159
14196TIP3    H264080   2.983   3.994   6.553  0.5646 -0.7418  1.0347
14197TIP3   OH264081   6.289   1.265  11.764 -0.2740  0.0733 -0.5410
14197TIP3    H164082   6.330   1.215  11.835 -0.6224 -0.0873 -0.4571
14197TIP3    H264083   6.273   1.352  11.803  2.5585  1.0422 -1.4126
14198TIP3   OH264084   6.227   1.060   0.981 -0.8652  0.0515 -0.4817
14198TIP3    H164085   6.301   1.094   0.932 -0.4904  1.3353  0.9626
14198TIP3    H264086   6.150   1.101   0.940 -0.6357  0.3157 -0.6476
14199TIP3   OH264087   3.112   1.966   3.060  0.2254 -0.5956 -0.2918
14199TIP3    H164088   3.191   1.932   3.017  1.6392  0.4202  1.4241
14199TIP3    H264089   3.143   1.997   3.145 -1.9672  0.2288  0.2295
14200TIP3   OH264090   1.976   5.270  14.897  0.0596  0.7565 -0.0881
14200TIP3    H164091   1.942   5.182  14.915 -0.2325  0.8828 -0.0237
14200TIP3    H264092   1.941   5.292  14.811  0.2006  0.7799 -0.1415
14201TIP3   OH264093   5.930   0.041  14.306  0.1556  0.0610 -0.6138
14201TIP3    H164094   5.911   0.077  14.219  0.8400 -1.9291 -1.6147
14201TIP3    H264095   5.846   0.006  14.336 -0.3170  1.6612 -0.0051
14202TIP3   OH264096   2.510   6.412   1.682 -0.4969  0.4294 -0.4379
14202TIP3    H164097   2.418   6.410   1.707 -0.6440  1.1835 -0.9009
14202TIP3    H264098   2.555   6.447   1.758 -0.4817 -0.7734  0.1103
14203TIP3   OH264099   3.098   4.668  15.878 -0.0104  0.1106 -0.1244
14203TIP3    H164100   3.016   4.635  15.842 -0.6576 -0.9791  2.2464
14203TIP3    H264101   3.143   4.591  15.912  0.4592  1.1057  1.5781
14204TIP3   OH264102   2.070   5.817  12.152 -0.2417 -0.1710  0.6207
14204TIP3    H164103   2.091   5.888  12.214 -0.8325  1.5647 -1.1096
14204TIP3    H264104   1.975   5.806  12.160 -0.3117  0.0256  0.0700
14205TIP3   OH264105   4.885   4.174  16.608  0.3975  0.3463  0.0096
14205TIP3    H164106   4.865   4.142  16.696  0.7827  3.4021  1.2718
14205TIP3    H264107   4.834   4.254  16.600 -0.2082 -0.2982 -2.8779
14206TIP3   OH264108   4.188   5.646   1.262  0.3513  0.5478 -0.1922
14206TIP3    H164109   4.273   5.645   1.218  2.1461 -0.8103  3.0694
14206TIP3    H264110   4.173   5.738   1.283  1.4515  0.7097 -0.0739
14207TIP3   OH264111   0.438   1.785  11.837 -0.2191  0.1827 -0.6702
14207TIP3    H164112   0.386   1.865  11.830  0.0427  0.4718  0.6102
14207TIP3    H264113   0.444   1.767  11.931  1.2722 -0.3226 -0.8366
14208TIP3   OH264114   0.947   1.259   0.276  0.0173 -0.3366 -0.2938
14208TIP3    H164115   0.972   1.174   0.240  1.3726 -0.8095  1.6395
14208TIP3    H264116   1.023   1.286   0.328 -0.9813  1.3526  0.3301
14209TIP3   OH264117   1.194   0.909   4.121  0.0745 -0.5294  0.4896
14209TIP3    H164118   1.179   0.843   4.055 -0.4337 -1.5219  1.5821
14209TIP3    H264119   1.203   0.860   4.203  2.6823  0.4951  0.8872
14210TIP3   OH264120   1.215   5.420  13.677 -0.4421  0.5044 -0.4093
14210TIP3    H164121   1.172   5.335  13.664 -1.2907  0.8840 -0.1041
14210TIP3    H264122   1.299   5.411  13.631  0.9006 -1.5915  2.2720
14211TIP3   OH264123   1.590   4.925  11.404 -0.2192  0.4508 -0.3031
14211TIP3    H164124   1.577   4.995  11.468  0.5091  0.3315 -0.0246
14211TIP3    H264125   1.684   4.926  11.385  0.0214 -1.3139  0.6992
14212TIP3   OH264126   6.411   6.166  13.808  0.2539  0.4939  0.0437
14212TIP3    H164127   6.404   6.152  13.714  0.1110 -1.5708  0.3322
14212TIP3    H264128   6.461   6.090  13.839 -2.5836 -0.6013  2.0659
14213TIP3   OH264129   0.388   1.153   0.652 -0.0631 -0.2633  0.1831
14213TIP3    H164130   0.400   1.233   0.602  0.3354 -1.1823 -1.2269
14213TIP3    H264131   0.315   1.171   0.710 -0.1471  1.0235 -0.3202
14214TIP3   OH264132   2.020   4.977   6.191 -0.2372 -0.1516 -0.0063
14214TIP3    H164133   2.031   4.889   6.154  0.4146  0.3938 -1.1199
14214TIP3    H264134   2.092   4.985   6.254  0.3508 -0.0161 -0.6884
14215TIP3   OH264135   6.617   2.804  15.645  0.7195  0.0844 -0.6533
14215TIP3    H164136   6.547   2.858  15.609 -0.4618 -1.0924 -0.1532
14215TIP3    H264137   6.616   2.822  15.739  0.6708 -0.4266 -0.5582
14216TIP3   OH264138   6.325   5.521   1.877  0.4857  0.6080 -0.1780
14216TIP3    H164139   6.394   5.585   1.859  1.1374 -0.2146 -0.6473
14216TIP3    H264140   6.367   5.454   1.931 -0.3537  0.8765  0.8288
14217TIP3   OH264141   6.231   5.133  10.688 -0.4622 -0.6554 -0.5612
14217TIP3    H164142   6.219   5.204  10.625 -1.1408 -0.1972  0.0761
14217TIP3    H264143   6.143   5.099  10.703 -0.2150 -1.2246 -0.3864
14218TIP3   OH264144   4.570   4.739  11.510  0.3628  0.1107 -0.2523
14218TIP3    H164145   4.480   4.762  11.534  0.4677 -0.3201  0.5653
14218TIP3    H264146   4.560   4.675  11.440 -0.0222 -1.8824  1.5682
14219TIP3   OH264147   2.561   2.891   2.025 -0.5053 -0.4677  0.3307
14219TIP3    H164148   2.476   2.923   2.057 -0.4166 -1.4637  1.6113
14219TIP3    H264149   2.552   2.796   2.025  0.0770 -0.5307 -1.0922
14220TIP3   OH264150   3.392   6.342  14.646  0.6765  0.0789 -0.5081
14220TIP3    H164151   3.384   6.272  14.582 -1.2697  0.9858 -1.2759
14220TIP3    H264152   3.425   6.417  14.596  1.3595  0.1410  0.0220
14221TIP3   OH264153   6.274   0.435   4.484  0.1877  0.2242  0.4683
14221TIP3    H164154   6.298   0.512   4.536  2.9306  0.6818 -1.3698
14221TIP3    H264155   6.337   0.368   4.511 -0.2696 -0.4326 -0.0935
14222TIP3   OH264156   1.989   3.501   4.901  0.3450  0.0855  1.1916
14222TIP3    H164157   2.009   3.436   4.834 -2.5343  0.9280 -0.5853
14222TIP3    H264158   1.921   3.460   4.955  1.0506  0.2719  2.2339
14223TIP3   OH264159   3.021   5.375   0.389  0.3434  0.2214  0.0761
14223TIP3    H164160   2.949   5.366   0.326  0.6444 -0.1903 -0.2095
14223TIP3    H264161   3.083   5.435   0.347  1.3684 -1.4115 -0.7772
14224TIP3   OH264162   6.530   4.284  17.232 -0.0966  0.3938  0.0732
14224TIP3    H164163   6.617   4.293  17.193 -0.2553 -0.1547 -0.4175
14224TIP3    H264164   6.546   4.246  17.318  0.2095  0.9926  0.2815
14225TIP3   OH264165   0.369   2.181  14.036 -0.3344  0.2710  0.3755
14225TIP3    H164166   0.291   2.170  13.982  0.4741 -0.6221 -0.6403
14225TIP3    H264167   0.442   2.174  13.974  0.6081 -0.6679  1.5785
14226TIP3   OH264168   5.185   4.209   0.474  0.4344 -0.1208  0.2940
14226TIP3    H164169   5.261   4.150   0.479  1.4949  1.2882  1.3800
14226TIP3    H264170   5.115   4.155   0.438  2.7651 -0.6272 -3.7813
14227TIP3   OH264171   0.260   4.260   6.060  0.5601 -0.5430  0.0235
14227TIP3    H164172   0.229   4.331   6.117  1.4860 -1.5024  1.7516
14227TIP3    H264173   0.190   4.194   6.064  1.5318 -1.4900  1.6859
14228TIP3   OH264174   6.275   4.454   4.365 -0.2359 -0.2640 -0.0562
14228TIP3    H164175   6.369   4.442   4.380 -0.0307  0.6396 -0.5544
14228TIP3    H264176   6.235   4.373   4.395  0.5088  0.1065  2.0320
14229TIP3   OH264177   5.093   1.839   0.957 -0.3037  0.1920 -0.1269
14229TIP3    H164178   5.042   1.919   0.959 -0.5410  0.0423 -0.2062
14229TIP3    H264179   5.114   1.826   0.864  0.4580  0.6223 -0.0163
14230TIP3   OH264180   5.144   2.163  17.073  0.6430  0.1622 -0.0139
14230TIP3    H164181   5.191   2.181  17.154  1.9878 -0.9816 -0.5366
14230TIP3    H264182   5.128   2.069  17.074 -2.1690  0.5999  0.4277
14231TIP3   OH264183   0.311   6.188  15.911  0.2387 -0.1654 -0.3521
14231TIP3    H164184   0.288   6.097  15.926  0.1472  0.0245  0.6787
14231TIP3    H264185   0.379   6.185  15.843 -0.1919 -0.9538 -0.7571
14232TIP3   OH264186   6.780   6.645   0.445 -0.8103 -0.1610  0.4924
14232TIP3    H164187   6.747   6.567   0.489  0.1621 -0.6763  0.3200
14232TIP3    H264188   6.874   6.647   0.467 -0.7959  0.8678  0.3711
14233TIP3   OH264189   5.252   6.372  12.443  0.8371 -0.0150 -0.2955
14233TIP3    H164190   5.346   6.354  12.441  0.5382 -1.7041 -3.3489
14233TIP3    H264191   5.237   6.433  12.371 -0.4528  0.0240 -0.0132
14234TIP3   OH264192   6.081   5.271   0.350 -0.0114 -0.0448  0.1165
14234TIP3    H164193   5.995   5.311   0.355  0.5766  1.5131 -1.5655
14234TIP3    H264194   6.140   5.334   0.389  0.6231 -0.2320 -0.5184
14235TIP3   OH264195   6.814   3.333  15.674 -0.2281 -0.2822 -0.3214
14235TIP3    H164196   6.738   3.276  15.688 -0.0900 -0.5770 -0.7403
14235TIP3    H264197   6.781   3.422  15.687 -0.1022 -0.5261  1.8640
14236TIP3   OH264198   1.758   0.197  14.747 -0.6212 -0.4250  0.4594
14236TIP3    H164199   1.719   0.165  14.666 -0.4268 -2.8829  1.2755
14236TIP3    H264200   1.848   0.162  14.746 -0.0755  0.9236  0.9535
14237TIP3   OH264201   4.257   5.567   3.261  0.0367  0.0780  0.0535
14237TIP3    H164202   4.196   5.637   3.286 -1.4394 -0.4606 -1.9291
14237TIP3    H264203   4.326   5.571   3.327 -0.9028  2.2941  0.9543
14238TIP3   OH264204   3.627   5.644  13.539  0.1105  0.0364 -0.1847
14238TIP3    H164205   3.706   5.624  13.489 -0.5966  0.2487 -1.3892
14238TIP3    H264206   3.659   5.661  13.628  1.3758 -0.2732 -0.5720
14239TIP3   OH264207   3.953   4.797   0.798  0.3407  0.1683 -0.4606
14239TIP3    H164208   3.990   4.768   0.715  0.1825  0.0780 -0.5003
14239TIP3    H264209   3.979   4.889   0.806  2.0972 -0.3794  0.3660
14240TIP3   OH264210   3.072   6.029   3.283  0.1092  0.4374  0.3023
14240TIP3    H164211   3.106   6.115   3.260  1.9750  0.0951  1.6587
14240TIP3    H264212   3.140   5.968   3.253 -1.4404 -0.6324 -1.1592
14241TIP3   OH264213   4.426   6.258   5.075 -0.8804 -0.4699  0.7065
14241TIP3    H164214   4.520   6.260   5.058 -0.9240 -2.0583  0.2208
14241TIP3    H264215   4.387   6.242   4.990 -1.6536  1.0267  0.7680
14242TIP3   OH264216   4.009   5.498   4.093  0.7082  0.2060  0.3424
14242TIP3    H164217   3.936   5.461   4.144  1.0519  0.0403  0.7114
14242TIP3    H264218   4.085   5.487   4.149  1.8086 -3.4205 -1.7452
14243TIP3   OH264219   0.389   5.457  15.839  0.0043 -0.3377 -0.3964
14243TIP3    H164220   0.293   5.451  15.843  0.0988 -1.9582 -0.3513
14243TIP3    H264221   0.420   5.393  15.903  1.1176  0.8063  0.2128
14244TIP3   OH264222   3.993   5.019   1.744  0.0852 -0.2598  0.1234
14244TIP3    H164223   4.048   5.093   1.769  0.3005 -0.3695 -0.0240
14244TIP3    H264224   3.924   5.058   1.690  0.6523 -0.2799 -0.6161
14245TIP3   OH264225   3.705   4.101   5.034 -0.5894  0.5667 -0.0283
14245TIP3    H164226   3.658   4.102   4.950 -2.3219  0.0521  0.9125
14245TIP3    H264227   3.679   4.182   5.078  1.0143  1.2781 -0.3316
14246TIP3   OH264228   0.973   3.209  15.972  0.0202  0.0490  0.0674
14246TIP3    H164229   0.915   3.230  16.046  0.4952  0.6585  0.2694
14246TIP3    H264230   0.954   3.276  15.907  0.5807  0.3254  0.1826
14247TIP3   OH264231   2.168   1.979  13.699  0.5674 -0.8930 -0.3009
14247TIP3    H164232   2.196   2.031  13.774  0.0687 -1.1500  0.0607
14247TIP3    H264233   2.101   2.031  13.656 -0.3469 -1.4858  0.3926
14248TIP3   OH264234   1.808   4.634   5.257  0.1961  0.1888  0.0881
14248TIP3    H164235   1.892   4.639   5.302 -0.4824 -0.1128  1.3949
14248TIP3    H264236   1.804   4.544   5.224 -0.5299 -0.4344  1.8359
14249TIP3   OH264237   5.122   2.329   3.905  0.1886  0.1844 -0.7245
14249TIP3    H164238   5.174   2.313   3.826 -0.6461 -0.8237 -1.0710
14249TIP3    H264239   5.149   2.259   3.965 -0.8244 -0.3742 -0.9269
14250TIP3   OH264240   5.556   5.581  11.747 -0.3137 -0.1606  0.0045
14250TIP3    H164241   5.590   5.618  11.829  0.0603 -2.1109  0.7563
14250TIP3    H264242   5.505   5.652  11.709  1.3299  1.5287  0.8249
14251TIP3   OH264243   1.267   1.297  15.204 -0.1827  0.5035 -0.3274
14251TIP3    H164244   1.192   1.247  15.171 -0.4632  0.8196 -0.1733
14251TIP3    H264245   1.305   1.240  15.272 -0.9532  0.8194  0.3758
14252TIP3   OH264246   4.891   4.959  13.031  0.3415 -0.1284 -0.0535
14252TIP3    H164247   4.807   4.916  13.049  0.5598 -0.3868  0.3337
14252TIP3    H264248   4.886   5.041  13.079  0.1994 -0.0143 -0.2571
14253TIP3   OH264249   3.536   2.880  10.146 -0.6067  0.0421 -0.0231
14253TIP3    H164250   3.462   2.913  10.196 -0.5101 -0.7346  0.6324
14253TIP3    H264251   3.538   2.786  10.163  0.6214  0.0776  0.1013
14254TIP3   OH264252   4.674   6.151   2.822 -0.4201  0.3049  0.2103
14254TIP3    H164253   4.627   6.197   2.753  1.3044 -1.5587 -2.2839
14254TIP3    H264254   4.608   6.137   2.890 -2.6272  0.6110 -1.8114
14255TIP3   OH264255   6.089   0.290   4.765  0.3805 -0.6735  0.1788
14255TIP3    H164256   6.017   0.326   4.817 -1.4706 -1.8429 -1.5164
14255TIP3    H264257   6.053   0.281   4.677  1.9155 -3.3225 -0.2353
14256TIP3   OH264258   4.227   0.806   4.945 -0.1350  0.0788 -0.5030
14256TIP3    H164259   4.199   0.718   4.921  0.8952 -0.7013  1.0906
14256TIP3    H264260   4.192   0.862   4.876 -0.4120 -1.6288 -1.7675
14257TIP3   OH264261   3.777   2.330   4.189  0.1292 -0.1739  0.2618
14257TIP3    H164262   3.758   2.374   4.272 -0.6179  1.3989 -0.7231
14257TIP3    H264263   3.756   2.395   4.122 -2.2231 -2.4615 -1.2797
14258TIP3   OH264264   3.629   4.928   1.187  0.2768 -0.0510  0.4114
14258TIP3    H164265   3.678   4.925   1.269 -0.5561 -0.0877  0.9181
14258TIP3    H264266   3.624   5.021   1.165  0.9747 -0.0852  0.1131
14259TIP3   OH264267   2.773   5.857  14.265  0.0027  0.0325 -0.4713
14259TIP3    H164268   2.712   5.898  14.204  0.3782  0.8855 -0.2924
14259TIP3    H264269   2.808   5.782  14.218  0.0597  0.5102 -1.1912
14260TIP3   OH264270   4.300   3.153  12.225 -0.3935 -0.2572  0.1004
14260TIP3    H164271   4.302   3.248  12.229  0.4934 -0.2748  0.2284
14260TIP3    H264272   4.208   3.130  12.241 -0.3750  0.5149  1.3801
14261TIP3   OH264273   1.931   5.475  12.227  0.5015 -0.8251 -0.4425
14261TIP3    H164274   1.845   5.453  12.191 -0.2895 -0.3280  1.0707
14261TIP3    H264275   1.966   5.540  12.166 -0.2758 -0.9125 -0.9952
14262TIP3   OH264276   0.184   0.566  15.986  0.1845  0.0536 -0.5393
14262TIP3    H164277   0.216   0.544  15.899  0.7963  0.6069 -0.4576
14262TIP3    H264278   0.257   0.611  16.028 -1.0238  2.3543 -0.7618
14263TIP3   OH264279   3.268   6.031  16.604 -0.4504 -0.6226 -0.0655
14263TIP3    H164280   3.342   6.092  16.606 -1.4039  0.5426  1.4052
14263TIP3    H264281   3.307   5.945  16.612  0.7190  0.0445  1.8283
14264TIP3   OH264282   1.539   5.169   3.245  0.0747  0.3725 -0.5825
14264TIP3    H164283   1.456   5.216   3.239 -0.2643 -0.1628 -0.1248
14264TIP3    H264284   1.559   5.145   3.155 -0.9455 -0.6578 -0.5490
14265TIP3   OH264285   6.121   5.924  11.863  0.4122 -0.1722 -0.0045
14265TIP3    H164286   6.039   5.878  11.879  0.7710 -0.5186  0.8791
14265TIP3    H264287   6.178   5.858  11.824  0.8157 -0.3947  0.9463
14266TIP3   OH264288   2.948   1.213   5.510 -0.3392 -0.2969  0.0233
14266TIP3    H164289   2.879   1.180   5.567  0.7533  1.8624  2.7386
14266TIP3    H264290   2.908   1.285   5.461 -1.3625 -2.3469 -2.2791
14267TIP3   OH264291   0.113   0.749  14.019 -0.4417  0.0883  0.1874
14267TIP3    H164292   0.073   0.750  14.106 -0.5308  1.5034  0.1421
14267TIP3    H264293   0.070   0.676  13.974  0.3102 -1.2958  1.6469
14268TIP3   OH264294   2.406   1.011  11.319 -1.2963  0.0805  0.5455
14268TIP3    H164295   2.398   1.015  11.414 -1.2731  0.2258  0.5414
14268TIP3    H264296   2.371   0.925  11.295  1.3868 -1.1785  0.9450
14269TIP3   OH264297   5.110   0.600  11.375 -0.2449  0.3691 -0.0272
14269TIP3    H164298   5.184   0.639  11.421  0.7982 -2.1414  0.5345
14269TIP3    H264299   5.085   0.665  11.309  3.1701  0.8127 -0.9639
14270TIP3   OH264300   3.584   2.461  14.413 -0.2742  0.8693 -0.0767
14270TIP3    H164301   3.519   2.396  14.440  0.2639  0.3982  0.1040
14270TIP3    H264302   3.644   2.413  14.357 -0.6949  1.5664 -1.1321
14271TIP3   OH264303   1.174   3.043  15.860 -0.0497 -0.3441 -0.2021
14271TIP3    H164304   1.129   3.109  15.914 -1.3635 -0.4841 -1.1089
14271TIP3    H264305   1.250   3.089  15.825 -0.6382  0.5255 -0.3554
14272TIP3   OH264306   4.737   4.533   5.675 -0.1813 -0.2911 -0.5100
14272TIP3    H164307   4.713   4.440   5.673  0.1860 -0.4770  1.8324
14272TIP3    H264308   4.667   4.574   5.725  1.4328  0.0746  1.5385
14273TIP3   OH264309   6.774   6.676  16.244 -0.2442 -0.2140  0.1990
14273TIP3    H164310   6.764   6.767  16.215  0.1597 -0.0457  0.5939
14273TIP3    H264311   6.691   6.635  16.221  0.2522 -0.2130 -1.6929
14274TIP3   OH264312   1.384   4.654  13.856  0.0401 -0.7639 -0.2287
14274TIP3    H164313   1.336   4.732  13.883  0.9603 -0.1675 -0.3061
14274TIP3    H264314   1.323   4.607  13.800  0.0049  0.6578 -1.4241
14275TIP3   OH264315   4.579   1.247   0.720 -0.2144  0.3707  0.3772
14275TIP3    H164316   4.661   1.278   0.758 -0.3856  1.2439  0.0488
14275TIP3    H264317   4.569   1.158   0.754  1.0484  0.1206  0.1358
14276TIP3   OH264318   6.568   2.963  11.608  0.6188  0.2128  0.3558
14276TIP3    H164319   6.662   2.951  11.591  0.1976  0.0970 -2.1882
14276TIP3    H264320   6.562   3.049  11.648  1.5915  1.5810 -2.2564
14277TIP3   OH264321   0.015   0.039   5.600 -0.0143  0.2787  0.2620
14277TIP3    H164322  -0.034  -0.016   5.662  0.5795  0.2555  0.7204
14277TIP3    H264323  -0.052   0.077   5.544 -0.4446 -0.8751 -0.0289
14278TIP3   OH264324   5.527   5.219  12.049  0.1765  0.3529 -0.0651
14278TIP3    H164325   5.591   5.149  12.051 -0.0529  0.1181 -0.7704
14278TIP3    H264326   5.558   5.278  11.980  1.0223  1.5765  1.3378
14279TIP3   OH264327   0.769   0.948  15.516 -0.6355 -0.4043  0.8568
14279TIP3    H164328   0.781   0.895  15.438 -1.0193 -1.9494  1.8320
14279TIP3    H264329   0.755   0.885  15.587 -1.4464  0.9911  1.9816
14280TIP3   OH264330   5.994   5.788   4.627 -0.2918 -0.4010 -0.1381
14280TIP3    H164331   5.924   5.844   4.592  0.2018 -0.4083 -1.1509
14280TIP3    H264332   5.998   5.810   4.720  1.6265  3.2044 -0.9698
14281TIP3   OH264333   5.305   1.689  13.011  0.7030  0.8147 -0.5944
14281TIP3    H164334   5.234   1.679  13.074  2.0041 -0.1712  0.7443
14281TIP3    H264335   5.376   1.731  13.060  1.6781  0.1567 -1.4164
14282TIP3   OH264336   3.174   2.571  11.892 -0.2716  0.0816 -0.0120
14282TIP3    H164337   3.178   2.657  11.933  1.4938 -0.6014  1.3368
14282TIP3    H264338   3.232   2.516  11.945 -1.2995 -1.9291 -0.8847
14283TIP3   OH264339   4.891   5.281  14.996 -0.3174 -0.2444 -0.2350
14283TIP3    H164340   4.799   5.267  15.020  0.0678 -2.1991  0.1489
14283TIP3    H264341   4.921   5.349  15.057 -1.9630  1.7485 -1.5403
14284TIP3   OH264342   2.618   0.888   3.889 -0.3550  0.2244 -0.6751
14284TIP3    H164343   2.542   0.904   3.945 -0.2283 -0.4243 -0.3065
14284TIP3    H264344   2.617   0.794   3.874 -1.0854  0.5531 -2.7808
14285TIP3   OH264345   1.821   1.273  11.248 -0.0818  0.5450  0.4758
14285TIP3    H164346   1.906   1.229  11.242 -0.4266  0.0181 -0.7558
14285TIP3    H264347   1.765   1.225  11.186 -0.6989  2.1678 -0.2456
14286TIP3   OH264348   3.437   1.129   0.413  0.4028 -0.0861  0.2230
14286TIP3    H164349   3.362   1.179   0.445 -0.2027 -1.1056  0.3851
14286TIP3    H264350   3.506   1.195   0.403 -0.4450  0.8220  0.2576
14287TIP3   OH264351   5.484   5.910  15.813 -0.0718  0.2315 -0.3208
14287TIP3    H164352   5.531   5.961  15.879  0.0497 -1.0023  0.5414
14287TIP3    H264353   5.541   5.836  15.794 -1.4229 -1.0332  0.3943
14288TIP3   OH264354   3.320   6.167   1.350  0.1665 -0.3540 -0.4890
14288TIP3    H164355   3.331   6.105   1.423 -0.4626 -0.7275 -0.7032
14288TIP3    H264356   3.257   6.231   1.383 -0.4480 -0.7634 -0.8450
14289TIP3   OH264357   5.288   0.513   1.437  0.0252  0.3135 -0.7972
14289TIP3    H164358   5.378   0.525   1.406 -1.0632  1.1517 -3.7699
14289TIP3    H264359   5.239   0.486   1.360 -1.8538 -2.4722  1.2899
14290TIP3   OH264360   6.697   6.092  12.083 -0.5732  0.6051  0.1207
14290TIP3    H164361   6.636   6.075  12.012  1.0180 -0.4245 -1.0382
14290TIP3    H264362   6.725   6.005  12.112  1.0793  1.0534 -0.0574
14291TIP3   OH264363   4.744   5.611  12.065 -0.4100  0.2433  0.1958
14291TIP3    H164364   4.706   5.661  11.993  0.6594  0.6566 -0.0782
14291TIP3    H264365   4.823   5.572  12.029  0.0630  0.3501  1.1113
14292TIP3   OH264366   6.461   6.580   0.669 -0.3800  0.0124 -0.0364
14292TIP3    H164367   6.510   6.571   0.750  3.7954  0.9856 -2.2749
14292TIP3    H264368   6.464   6.493   0.629 -0.7003 -0.0031 -0.0225
14293TIP3   OH264369   6.808   1.419   4.722 -0.3387  0.0884  0.9821
14293TIP3    H164370   6.820   1.444   4.813 -0.4703 -2.5022  1.7448
14293TIP3    H264371   6.894   1.387   4.695  0.3750  3.0704 -0.5957
14294TIP3   OH264372   4.714   6.306   4.063 -0.5296  0.2134  0.4608
14294TIP3    H164373   4.690   6.396   4.040 -0.1260  0.4950  1.1158
14294TIP3    H264374   4.732   6.310   4.157  0.5432 -0.3278  0.2757
14295TIP3   OH264375   5.691   0.532  16.844 -0.2966  0.0383 -0.1809
14295TIP3    H164376   5.623   0.549  16.909  0.6637 -0.0591  0.8581
14295TIP3    H264377   5.691   0.610  16.789 -1.6037 -0.1772 -0.5213
14296TIP3   OH264378   2.131   6.566  11.729  0.4604 -0.0203  0.1643
14296TIP3    H164379   2.226   6.567  11.736  0.3532  1.8257  1.9798
14296TIP3    H264380   2.104   6.485  11.772  1.0061  1.5677  3.6514
14297TIP3   OH264381   0.960   3.647   1.767 -0.5058  0.0017 -0.3602
14297TIP3    H164382   0.959   3.662   1.861 -0.7134  1.7178 -0.6315
14297TIP3    H264383   1.047   3.673   1.739  0.0363 -1.8490 -0.4424
14298TIP3   OH264384   4.552   0.506  15.768 -0.2986  0.5370  0.5925
14298TIP3    H164385   4.590   0.509  15.856  1.2380 -0.1004 -0.0446
14298TIP3    H264386   4.590   0.428  15.728 -1.0627  0.7783 -0.6296
14299TIP3   OH264387   0.418   3.793  11.336  0.0412 -0.0461  0.4799
14299TIP3    H164388   0.485   3.740  11.292  0.9390  1.8894 -0.5407
14299TIP3    H264389   0.466   3.870  11.367 -1.6869  1.2804 -0.1116
14300TIP3   OH264390   4.181   6.115  12.556 -0.5548  0.1807 -0.3195
14300TIP3    H164391   4.154   6.148  12.642 -2.3209  0.0657 -0.7932
14300TIP3    H264392   4.103   6.127  12.501 -0.2324 -1.9278 -1.2900
14301TIP3   OH264393   0.855   1.650  13.341 -0.1831  0.1383 -0.2801
14301TIP3    H164394   0.791   1.722  13.342 -0.2071  0.1472 -1.9444
14301TIP3    H264395   0.844   1.607  13.426 -2.7732 -0.1876 -0.7510
14302TIP3   OH264396   2.501   1.710   0.825 -0.0735 -0.2112 -0.3754
14302TIP3    H164397   2.524   1.626   0.864  0.3604  0.4159  0.7446
14302TIP3    H264398   2.444   1.688   0.752 -1.4990 -1.3643  1.0515
14303TIP3   OH264399   1.262   6.679  12.827 -0.1476 -0.2072 -0.5296
14303TIP3    H164400   1.283   6.600  12.777  0.4712 -0.2277 -0.2453
14303TIP3    H264401   1.218   6.647  12.905  1.5068 -0.3946  0.3433
14304TIP3   OH264402   6.270   0.768  13.550  0.2325  0.0119  0.0997
14304TIP3    H164403   6.238   0.679  13.567  0.1759 -0.2519 -1.3759
14304TIP3    H264404   6.352   0.755  13.502  0.1054  0.7624 -0.3195
14305TIP3   OH264405   4.223   1.385   2.506 -0.1138 -0.7381  0.2703
14305TIP3    H164406   4.310   1.419   2.482 -0.8406  0.4710 -0.6958
14305TIP3    H264407   4.209   1.417   2.595  0.9634 -2.0066  0.9087
14306TIP3   OH264408   5.248   4.612  14.595 -0.2558 -0.3375  0.4755
14306TIP3    H164409   5.225   4.538  14.538 -1.6722 -0.2293  0.8833
14306TIP3    H264410   5.292   4.674  14.537 -2.3606  0.1084 -0.7072
14307TIP3   OH264411   6.250   4.142   2.708 -0.3439 -0.5796  0.1204
14307TIP3    H164412   6.203   4.126   2.626 -0.2816 -1.1196  0.1892
14307TIP3    H264413   6.300   4.222   2.691  0.8971 -1.5522 -0.9076
14308TIP3   OH264414   3.675   4.159   4.060  0.0585  0.0836 -0.1336
14308TIP3    H164415   3.764   4.127   4.068  0.2149  0.8088  1.0624
14308TIP3    H264416   3.641   4.116   3.981  1.7808  0.5781 -1.1589
14309TIP3   OH264417   0.288   0.790   2.293  0.0114 -0.5541  0.0302
14309TIP3    H164418   0.275   0.700   2.261  2.9463 -0.1171 -2.6382
14309TIP3    H264419   0.211   0.837   2.263 -0.2822 -1.6026 -0.9412
14310TIP3   OH264420   3.488   0.752   0.740 -0.1544  0.0534 -0.7783
14310TIP3    H164421   3.417   0.777   0.681 -0.1198 -2.0070 -1.7174
14310TIP3    H264422   3.447   0.742   0.825 -0.2566  2.7714 -0.4534
14311TIP3   OH264423   4.472   6.511  12.038 -0.8912  0.0730 -0.6055
14311TIP3    H164424   4.541   6.574  12.063 -0.8596 -0.8623  1.7962
14311TIP3    H264425   4.488   6.494  11.945  2.0424 -0.0103 -0.1308
14312TIP3   OH264426   0.877   2.300   0.256  0.7594 -0.4573 -0.2308
14312TIP3    H164427   0.914   2.369   0.311 -0.8297 -0.6505  1.1267
14312TIP3    H264428   0.873   2.223   0.313 -1.5876 -0.4705 -0.3423
14313TIP3   OH264429   5.002   1.916   5.705 -0.1523  0.4966  0.0623
14313TIP3    H164430   5.008   1.824   5.680 -0.3952  0.6580 -0.5953
14313TIP3    H264431   4.913   1.926   5.739  0.1405  0.3043  0.8969
14314TIP3   OH264432   2.068   2.244   2.760  0.0028 -0.5944 -0.0249
14314TIP3    H164433   1.973   2.236   2.760  0.0046 -0.6252 -0.3338
14314TIP3    H264434   2.100   2.157   2.783 -0.0381 -0.6618 -0.2228
14315TIP3   OH264435   1.511   1.462  14.563 -0.2577  0.3781  0.5328
14315TIP3    H164436   1.584   1.413  14.525 -1.0699 -1.2505  1.0243
14315TIP3    H264437   1.548   1.548  14.583  1.3674 -0.2305  0.2366
14316TIP3   OH264438   4.826   4.407  14.680  0.6841 -0.1011  0.2436
14316TIP3    H164439   4.817   4.485  14.734 -1.3294  1.2442 -1.9322
14316TIP3    H264440   4.752   4.352  14.706 -0.0808  0.3932 -0.8391
14317TIP3   OH264441   3.822   4.940   0.161  0.2797 -0.7987 -0.0034
14317TIP3    H164442   3.830   5.020   0.108  0.2244  0.5391  1.9564
14317TIP3    H264443   3.729   4.916   0.154  0.1079 -0.1819  0.1215
14318TIP3   OH264444   2.012   0.145   5.739 -0.1979  0.3619  0.2337
14318TIP3    H164445   2.013   0.111   5.829  1.5482 -0.6342 -0.1334
14318TIP3    H264446   2.008   0.066   5.685  1.3842  0.8286 -0.5909
14319TIP3   OH264447   5.000   3.964   1.008  0.0345  0.0134 -0.1823
14319TIP3    H164448   5.033   3.990   0.922 -0.2133 -3.1930 -1.3202
14319TIP3    H264449   4.993   3.868   1.003 -1.3925 -0.1050  2.9048
14320TIP3   OH264450   4.598   6.478   2.876 -0.2527  0.2779  0.3020
14320TIP3    H164451   4.541   6.556   2.881  0.1778  0.6160 -0.0445
14320TIP3    H264452   4.565   6.420   2.944 -1.3773  0.2312 -0.2737
14321TIP3   OH264453   5.547   4.173  15.059 -0.2047  0.3394  0.2406
14321TIP3    H164454   5.573   4.085  15.031  1.3050  1.2918 -1.4671
14321TIP3    H264455   5.554   4.171  15.154 -0.9983 -1.6363  0.2770
14322TIP3   OH264456   4.810   1.453  16.963 -0.5951 -0.6325  0.3022
14322TIP3    H164457   4.721   1.437  16.932 -0.0688  0.2099 -1.7016
14322TIP3    H264458   4.863   1.386  16.921 -0.2805 -1.1842  1.5607
14323TIP3   OH264459   4.007   0.941  15.338  0.0789  0.3055  0.5997
14323TIP3    H164460   4.030   0.908  15.251 -1.2429 -0.2444  0.4382
14323TIP3    H264461   3.956   1.020  15.321 -1.7409 -0.7833  0.7845
14324TIP3   OH264462   2.115   3.176   1.910  0.3130  0.0023  0.4083
14324TIP3    H164463   2.069   3.092   1.897 -0.4609  0.8037 -2.4139
14324TIP3    H264464   2.200   3.163   1.869  0.3463  0.4720  0.3284
14325TIP3   OH264465   3.469   4.648  13.644  0.1182 -0.6699  0.1936
14325TIP3    H164466   3.436   4.733  13.671  1.9607  0.2776 -0.5071
14325TIP3    H264467   3.390   4.599  13.619 -0.7922  1.5237 -1.4085
14326TIP3   OH264468   0.662   6.327   3.853 -0.4005  0.4220  0.4849
14326TIP3    H164469   0.631   6.413   3.824 -0.8521 -0.5512 -2.0562
14326TIP3    H264470   0.651   6.270   3.776  1.0711 -1.6130  1.7203
14327TIP3   OH264471   3.503   0.560   4.758  0.7175 -0.0685 -0.1855
14327TIP3    H164472   3.428   0.585   4.811  1.2581  1.3223 -0.0517
14327TIP3    H264473   3.504   0.464   4.761 -1.8556 -0.1794 -1.3397
14328TIP3   OH264474   4.271   6.749   3.300  0.4435 -0.3425  0.2293
14328TIP3    H164475   4.192   6.758   3.352 -0.6561 -1.9351 -1.1084
14328TIP3    H264476   4.240   6.733   3.211  2.2474 -1.7644 -0.1862
14329TIP3   OH264477   4.991   0.019   1.540 -0.7107  0.2875  0.8680
14329TIP3    H164478   4.942  -0.054   1.502 -1.5136  0.4977  1.4874
14329TIP3    H264479   5.008  -0.007   1.630 -0.7305  0.7393  1.0033
14330TIP3   OH264480   5.448   5.242  13.476  0.5552  0.3405  0.0812
14330TIP3    H164481   5.360   5.205  13.486  0.5378 -0.1900 -1.7522
14330TIP3    H264482   5.435   5.320  13.422  1.3542 -0.4670 -1.3115
14331TIP3   OH264483   0.472   5.032   5.426 -0.3098 -0.3166  0.4575
14331TIP3    H164484   0.516   4.965   5.373  0.5115  1.6504 -1.4114
14331TIP3    H264485   0.385   5.040   5.387  0.1099  0.7537 -0.2747
14332TIP3   OH264486   6.059   5.118   3.122 -0.0269 -0.0491 -0.1151
14332TIP3    H164487   5.993   5.048   3.131 -0.0347 -0.1076 -0.5935
14332TIP3    H264488   6.016   5.184   3.068  0.6553 -0.5452 -1.3004
14333TIP3   OH264489   2.536   0.232   4.779 -0.6175 -0.0106 -0.1684
14333TIP3    H164490   2.573   0.254   4.864  0.1567 -0.2033 -0.4524
14333TIP3    H264491   2.451   0.276   4.778 -0.7189 -0.1679  0.7801
14334TIP3   OH264492   4.268   1.190   4.083 -0.5612 -0.4284  0.0106
14334TIP3    H164493   4.347   1.166   4.133 -0.7893 -1.9635 -0.3431
14334TIP3    H264494   4.199   1.193   4.148 -0.4591 -0.3976  0.1183
14335TIP3   OH264495   3.307   5.120   0.137 -0.3273  0.9158  0.1989
14335TIP3    H164496   3.272   5.207   0.119  0.8244  0.9548 -2.0708
14335TIP3    H264497   3.361   5.131   0.215 -1.3301  1.9083  0.7731
14336TIP3   OH264498   6.314   5.559  15.625 -0.6941  0.7724 -1.2048
14336TIP3    H164499   6.309   5.646  15.664  0.6308  0.8674 -1.2333
14336TIP3    H264500   6.407   5.538  15.623 -0.9810 -0.5627 -1.3921
14337TIP3   OH264501   2.608   3.747  11.608 -0.0641  0.1173 -0.5677
14337TIP3    H164502   2.618   3.743  11.703  0.8372 -0.0808 -0.6671
14337TIP3    H264503   2.642   3.663  11.577  0.6363  0.6187 -1.1534
14338TIP3   OH264504   3.726   1.054   2.159 -0.6404  0.3857  0.4051
14338TIP3    H164505   3.748   0.972   2.115  0.0745 -0.1780  1.7875
14338TIP3    H264506   3.641   1.037   2.200  0.4965 -0.4065  2.4969
14339TIP3   OH264507   1.237   6.125   2.580 -0.4128 -0.7117 -0.1193
14339TIP3    H164508   1.324   6.115   2.619 -0.0453 -0.3218 -0.8421
14339TIP3    H264509   1.253   6.170   2.497 -1.2786 -0.8794 -0.3737
14340TIP3   OH264510   6.564   2.286   4.522 -0.3192 -0.2781 -0.3172
14340TIP3    H164511   6.478   2.326   4.534 -0.4606 -0.5798 -0.3326
14340TIP3    H264512   6.550   2.193   4.538  0.2396 -0.1666  0.8873
14341TIP3   OH264513   4.270   2.699  14.233 -0.2786  0.2221 -0.3134
14341TIP3    H164514   4.359   2.672  14.213 -0.4258  0.3236 -1.1252
14341TIP3    H264515   4.216   2.622  14.212 -0.2253 -0.3325  1.5710
14342TIP3   OH264516   6.673   5.725  13.092  0.3811  0.0304  0.0150
14342TIP3    H164517   6.685   5.816  13.068 -2.7851  0.2837 -0.7718
14342TIP3    H264518   6.654   5.727  13.186  1.6076  0.0600  0.2611
14343TIP3   OH264519   2.678   2.327   5.731  0.3748  0.1451  0.4540
14343TIP3    H164520   2.772   2.320   5.711  0.5045 -2.0963  1.5807
14343TIP3    H264521   2.659   2.248   5.782 -2.3870  0.0090 -0.7013
14344TIP3   OH264522   4.419   3.746   1.976  0.3569  0.3906  0.0631
14344TIP3    H164523   4.421   3.664   1.926  0.6096 -0.1015  0.8643
14344TIP3    H264524   4.352   3.731   2.042  0.3311  0.8733  0.1429
14345TIP3   OH264525   6.698   1.066   0.253  0.5148 -0.0115  0.3039
14345TIP3    H164526   6.674   0.974   0.264  0.6805 -0.2169 -0.9810
14345TIP3    H264527   6.631   1.115   0.301  0.4207 -0.8009  0.9744
14346TIP3   OH264528   2.159   5.046  12.175  0.2023 -0.3433 -0.1295
14346TIP3    H164529   2.091   5.019  12.113 -1.1824 -0.0031  1.2036
14346TIP3    H264530   2.213   4.968  12.188  1.6557  0.0692 -3.1437
14347TIP3   OH264531   6.146   1.106  11.588 -0.2153  0.7713  0.2712
14347TIP3    H164532   6.214   1.139  11.647 -0.0589 -0.1098  0.5883
14347TIP3    H264533   6.064   1.123  11.634 -0.0802 -0.0911  0.8251
14348TIP3   OH264534   1.692   4.263  11.084  0.4016 -0.4377 -0.4800
14348TIP3    H164535   1.755   4.326  11.119 -0.1499  0.4542 -1.0955
14348TIP3    H264536   1.658   4.219  11.162  1.2065 -0.3903 -0.0879
14349TIP3   OH264537   1.604   0.293   6.419  0.3445  0.1771  0.0475
14349TIP3    H164538   1.539   0.361   6.403  2.2347  2.5290  1.9262
14349TIP3    H264539   1.581   0.257   6.504  0.5702 -0.1325 -0.0200
14350TIP3   OH264540   6.246   4.925  13.642 -0.1989 -0.4662 -0.1157
14350TIP3    H164541   6.207   4.906  13.727 -0.1861  0.9796  0.2232
14350TIP3    H264542   6.243   4.841  13.595 -1.2578 -0.9982  0.8761
14351TIP3   OH264543   5.671   1.279   2.757  0.4418  0.1533 -0.8656
14351TIP3    H164544   5.625   1.211   2.806 -0.3982 -0.5893 -2.6225
14351TIP3    H264545   5.621   1.358   2.772 -0.1909 -0.2090 -1.0481
14352TIP3   OH264546   3.053   3.625  12.849  0.0549 -0.1628  0.4646
14352TIP3    H164547   2.962   3.607  12.829  0.5228 -1.1346 -0.8835
14352TIP3    H264548   3.064   3.598  12.940 -1.1643  0.6453  0.8633
14353TIP3   OH264549   6.010   3.053   6.870 -0.1661 -0.3589  0.0539
14353TIP3    H164550   5.989   3.146   6.873 -0.0879 -0.3315 -0.2737
14353TIP3    H264551   6.073   3.044   6.798 -1.6060 -0.9409 -1.1663
14354TIP3   OH264552   6.055   4.585   0.116  0.4652 -0.4396  0.9844
14354TIP3    H164553   6.066   4.674   0.149 -2.8533  0.2330  0.4518
14354TIP3    H264554   6.045   4.531   0.195  1.0231 -0.1301  1.2691
14355TIP3   OH264555   0.965   0.432   3.920  0.2383  0.4776 -0.4308
14355TIP3    H164556   0.900   0.402   3.857 -0.2408  1.0513 -0.2046
14355TIP3    H264557   0.916   0.483   3.983  0.9826  1.3047 -0.5158
14356TIP3   OH264558   0.271   2.941  16.692 -0.1330  0.4348  0.3188
14356TIP3    H164559   0.250   3.029  16.725  1.0981  1.3710 -1.3367
14356TIP3    H264560   0.303   2.956  16.604  0.0017 -1.7193 -0.0146
14357TIP3   OH264561   0.828   3.995  14.628  0.5009  0.4524  0.5052
14357TIP3    H164562   0.765   3.934  14.589 -0.7934  1.9829  0.1370
14357TIP3    H264563   0.899   3.940  14.659  0.0487 -1.1061 -1.1546
14358TIP3   OH264564   0.637   1.692  11.195 -0.0412  0.0209  0.7002
14358TIP3    H164565   0.612   1.705  11.286 -1.8300 -1.3452  0.4360
14358TIP3    H264566   0.649   1.780  11.160 -2.8327  0.6925  1.3199
14359TIP3   OH264567   3.155   0.337   6.209 -0.3128 -0.2748  0.0274
14359TIP3    H164568   3.090   0.407   6.207  0.3294  0.3657  0.7730
14359TIP3    H264569   3.218   0.360   6.140 -0.5669 -0.5838 -0.3083
14360TIP3   OH264570   5.355   2.715  12.155  0.3049  0.0941 -0.4265
14360TIP3    H164571   5.325   2.791  12.204 -1.0850 -1.0771  0.5943
14360TIP3    H264572   5.448   2.731  12.140  0.0501  1.9174 -0.1159
14361TIP3   OH264573   1.472   5.394  17.188  0.0766  0.3792 -0.4529
14361TIP3    H164574   1.464   5.330  17.117  1.0519 -1.2644  0.8838
14361TIP3    H264575   1.532   5.460  17.154  0.8000 -0.5758 -1.0369
14362TIP3   OH264576   5.502   1.774   4.772 -0.2217  0.2822  0.4165
14362TIP3    H164577   5.437   1.812   4.713  0.8132 -2.2638 -2.5221
14362TIP3    H264578   5.552   1.848   4.804 -2.3121  1.9512 -0.0610
14363TIP3   OH264579   2.145   0.399   3.616 -0.1205 -0.4091 -0.0222
14363TIP3    H164580   2.106   0.458   3.681  0.2928 -1.1226  0.8870
14363TIP3    H264581   2.176   0.457   3.547 -0.1140  0.4067  0.6487
14364TIP3   OH264582   0.669   2.707   6.429 -0.1923 -0.3059 -0.1638
14364TIP3    H164583   0.603   2.767   6.464 -0.5946 -0.1802 -1.1175
14364TIP3    H264584   0.753   2.747   6.454 -0.4610 -0.3889  0.9293
14365TIP3   OH264585   0.440   4.468  10.939 -0.6970 -0.2859 -0.1583
14365TIP3    H164586   0.395   4.537  10.987 -1.2989 -0.7168 -0.1063
14365TIP3    H264587   0.408   4.386  10.978  1.6835 -0.5841  1.3200
14366TIP3   OH264588   3.269   3.544   5.516  0.4456  0.2473  0.5782
14366TIP3    H164589   3.325   3.598   5.571  0.1727  0.1211  0.9903
14366TIP3    H264590   3.180   3.560   5.550 -0.0739  2.4004 -1.7039
14367TIP3   OH264591   0.536   3.704   5.720 -0.6706  0.3094  0.3582
14367TIP3    H164592   0.628   3.680   5.726 -0.2923  0.6551 -2.9512
14367TIP3    H264593   0.489   3.632   5.763  1.1360  0.4829  2.6905
14368TIP3   OH264594   0.125   5.588   3.882 -0.1830 -0.2271  0.2400
14368TIP3    H164595   0.197   5.526   3.895  0.8348  0.5895 -1.3435
14368TIP3    H264596   0.072   5.548   3.813  0.5929  0.7492 -0.9329
14369TIP3   OH264597   4.864   6.409   3.122 -0.3406  0.0761 -0.2679
14369TIP3    H164598   4.904   6.375   3.042 -0.1764 -0.7983  0.1832
14369TIP3    H264599   4.772   6.385   3.116 -0.2964 -0.1369 -0.1239
14370TIP3   OH264600   2.088   5.574   6.698 -0.3950  0.4968  0.2810
14370TIP3    H164601   2.170   5.586   6.650  0.5382 -0.7869  1.5072
14370TIP3    H264602   2.071   5.480   6.693 -2.4903  0.9060 -1.0391
14371TIP3   OH264603   3.470   5.574   3.943  0.2927 -0.8239  0.7315
14371TIP3    H164604   3.378   5.583   3.917  0.1260  1.8927  2.0034
14371TIP3    H264605   3.518   5.630   3.882  1.3168 -3.2778 -0.7751
14372TIP3   OH264606   2.793   5.365  14.937 -0.2171 -0.1654  0.0258
14372TIP3    H164607   2.759   5.322  14.858  0.5657 -3.1822  1.2384
14372TIP3    H264608   2.814   5.292  14.996  2.1505  1.8903  1.8097
14373TIP3   OH264609   6.342   2.768   6.674  0.1177 -0.1582 -0.2213
14373TIP3    H164610   6.403   2.756   6.601  0.5293  3.0352 -0.4726
14373TIP3    H264611   6.390   2.823   6.736 -2.0255  1.3193  0.1719
14374TIP3   OH264612   3.645   4.941  13.605  0.1052 -0.1414 -0.4378
14374TIP3    H164613   3.619   4.866  13.550 -1.4363  0.3423 -0.4056
14374TIP3    H264614   3.566   4.995  13.609 -0.0007 -0.4879  2.8027
14375TIP3   OH264615   2.855   1.756  12.174  0.3136 -0.1676 -0.6815
14375TIP3    H164616   2.791   1.755  12.245  0.7415 -2.2198 -0.2954
14375TIP3    H264617   2.802   1.767  12.095 -0.2871  0.7368 -0.1639
14376TIP3   OH264618   6.386   2.078  11.029 -0.9530 -0.8128  0.0947
14376TIP3    H164619   6.358   2.114  10.945 -1.8300 -1.8252 -0.0545
14376TIP3    H264620   6.312   2.093  11.088 -0.3158 -0.0481  0.7038
14377TIP3   OH264621   3.831   0.557   5.309 -0.0419 -0.0073 -0.3453
14377TIP3    H164622   3.888   0.585   5.237  0.1098  2.0765  0.5203
14377TIP3    H264623   3.891   0.526   5.377  0.0171  0.9159  0.0411
14378TIP3   OH264624   4.928   2.046  14.391  0.1594 -0.4089 -0.3425
14378TIP3    H164625   4.896   1.961  14.422  0.7705 -0.7980 -0.7772
14378TIP3    H264626   4.883   2.060  14.307  0.4012 -0.5117 -0.4885
14379TIP3   OH264627   3.158   6.769   2.517 -0.0813 -0.0274 -0.3715
14379TIP3    H164628   3.238   6.822   2.514  0.0651 -0.1708  0.7604
14379TIP3    H264629   3.174   6.705   2.586 -1.7044  0.7989  0.8107
14380TIP3   OH264630   4.433   4.165  12.942  0.2970  0.0807  0.2871
14380TIP3    H164631   4.358   4.224  12.937 -0.0739 -0.1897  2.1049
14380TIP3    H264632   4.444   4.131  12.854  0.1927  2.4578 -0.6679
14381TIP3   OH264633   0.547   0.976   2.326 -0.4201  0.5110  0.3826
14381TIP3    H164634   0.622   0.933   2.368 -1.3740  0.4501  2.0680
14381TIP3    H264635   0.472   0.922   2.351 -0.9596  0.1688 -1.8733
14382TIP3   OH264636   1.374   4.047   3.637 -0.2235  0.2005  0.1198
14382TIP3    H164637   1.279   4.055   3.633 -0.0057  3.1116 -0.2535
14382TIP3    H264638   1.401   4.048   3.545  0.2907  1.5337  0.2732
14383TIP3   OH264639   1.283   5.786  13.293  0.8701 -0.2518 -0.2350
14383TIP3    H164640   1.283   5.867  13.344  2.2642  0.9683 -2.0639
14383TIP3    H264641   1.229   5.725  13.343 -3.1770  2.8865 -0.5067
14384TIP3   OH264642   1.612   2.130   0.837  0.0738 -0.2391  0.1001
14384TIP3    H164643   1.579   2.183   0.765  0.8027  0.8995  0.5956
14384TIP3    H264644   1.704   2.114   0.815  0.0120 -0.8074  0.2429
14385TIP3   OH264645   1.755   4.900   5.170  0.2930 -0.0433  0.3593
14385TIP3    H164646   1.737   4.812   5.204 -0.1657 -0.4572 -0.9229
14385TIP3    H264647   1.850   4.901   5.157  0.0987 -0.9258 -1.1774
14386TIP3   OH264648   0.531   0.041  14.447  0.3046  0.1641  0.0404
14386TIP3    H164649   0.573   0.113  14.399  0.2703 -0.8660 -1.5688
14386TIP3    H264650   0.529   0.071  14.538  0.2754  2.2045 -0.6065
14387TIP3   OH264651   1.516   1.431   2.485 -0.4428 -0.5037 -0.5738
14387TIP3    H164652   1.424   1.425   2.510 -0.4765  0.4103 -0.4727
14387TIP3    H264653   1.543   1.340   2.473 -1.1112 -0.8216  0.2766
14388TIP3   OH264654   5.013   1.342  11.555 -0.1138  0.3675 -0.1474
14388TIP3    H164655   4.966   1.343  11.472 -1.8815  0.0200  0.8267
14388TIP3    H264656   5.018   1.433  11.582 -0.3352  0.3892 -0.1865
14389TIP3   OH264657   6.676   0.446  10.413 -0.3792 -0.1201 -0.0179
14389TIP3    H164658   6.702   0.523  10.362  1.2816 -0.7544 -0.1640
14389TIP3    H264659   6.663   0.479  10.502 -2.8062  0.9040 -0.7149
14390TIP3   OH264660   2.300   5.237  13.024  0.3182 -0.2822 -0.3269
14390TIP3    H164661   2.389   5.201  13.021  0.7488  0.7961 -0.8848
14390TIP3    H264662   2.245   5.168  12.990  1.0166 -0.7754 -0.4620
14391TIP3   OH264663   3.988   3.853  14.548 -0.4561 -0.1342  0.0940
14391TIP3    H164664   3.949   3.917  14.608 -1.2387 -2.5757  2.3042
14391TIP3    H264665   3.969   3.887  14.461 -2.6194  1.6033  1.1832
14392TIP3   OH264666   5.511   0.056   1.870 -0.1381 -0.4027  0.1734
14392TIP3    H164667   5.532   0.021   1.957 -1.0493 -0.2293  0.4673
14392TIP3    H264668   5.581   0.119   1.851  0.4996 -1.0263  0.4339
14393TIP3   OH264669   0.592   1.225  13.058 -0.2950  0.6753  0.0050
14393TIP3    H164670   0.555   1.312  13.071  0.7494  1.1084  0.1548
14393TIP3    H264671   0.558   1.197  12.973 -0.5473  1.2758 -0.0972
14394TIP3   OH264672   3.621   2.474   1.325 -0.0417 -1.1084 -0.0354
14394TIP3    H164673   3.542   2.426   1.353 -0.5988  0.8680  1.9106
14394TIP3    H264674   3.688   2.448   1.388 -0.0102 -0.3587  0.2506
14395TIP3   OH264675   3.889   5.508  16.924 -0.0549 -0.1284  0.6396
14395TIP3    H164676   3.872   5.483  16.833  1.6100 -0.0715  0.2916
14395TIP3    H264677   3.821   5.572  16.944  1.4378  2.2903 -1.6547
14396TIP3   OH264678   3.787   1.990  15.717  0.2796  0.4857  0.3796
14396TIP3    H164679   3.772   1.948  15.632  0.1489 -0.2283  0.7482
14396TIP3    H264680   3.742   1.933  15.779  0.1828  1.1326  0.8989
14397TIP3   OH264681   4.878   0.484   5.654 -0.5319 -0.1556  0.5504
14397TIP3    H164682   4.888   0.416   5.721 -1.0369 -0.1942  0.5905
14397TIP3    H264683   4.950   0.544   5.670 -1.1105  0.2651  1.6425
14398TIP3   OH264684   2.646   6.261   4.241 -0.1292 -0.7529 -0.3511
14398TIP3    H164685   2.698   6.332   4.204  0.2715 -1.2509 -0.7458
14398TIP3    H264686   2.708   6.210   4.293 -0.5882 -0.3339  0.6349
14399TIP3   OH264687   3.550   2.352   3.067 -0.5834 -0.4572  0.0491
14399TIP3    H164688   3.630   2.371   3.115 -0.2007 -1.2075 -0.2916
14399TIP3    H264689   3.579   2.301   2.991 -1.1423  0.8883 -1.0962
14400TIP3   OH264690   2.923   0.558  11.257  0.8894  0.5951 -0.1680
14400TIP3    H164691   2.969   0.625  11.308  0.2544  1.2598 -0.4630
14400TIP3    H264692   2.831   0.576  11.273  0.7181 -0.8403  0.5527
14401TIP3   OH264693   6.193   2.442  12.613  0.6182  0.6106 -0.2082
14401TIP3    H164694   6.123   2.383  12.640  1.2120  0.9266  2.0714
14401TIP3    H264695   6.153   2.496  12.545 -1.2086  0.4857  0.7383
14402TIP3   OH264696   5.795   0.724   1.206 -0.5665  0.1617  0.2225
14402TIP3    H164697   5.884   0.743   1.177 -1.3025  2.1869 -0.8049
14402TIP3    H264698   5.745   0.710   1.125 -1.4409  0.2891  0.7312
14403TIP3   OH264699   1.168   5.830  15.344 -0.1298 -0.3200  0.2334
14403TIP3    H164700   1.262   5.836  15.362 -0.4190  0.8555  1.4180
14403TIP3    H264701   1.126   5.865  15.423 -1.5416 -0.2505 -0.5368
14404TIP3   OH264702   2.146   5.944   6.044  0.3331 -0.4003  0.1769
14404TIP3    H164703   2.152   5.854   6.073  1.4596  0.1755  1.7907
14404TIP3    H264704   2.183   5.995   6.116  1.6161  1.2052 -1.5685
14405TIP3   OH264705   3.962   3.780   1.085 -0.7800 -0.1617 -0.5104
14405TIP3    H164706   4.056   3.795   1.096 -0.4938 -1.3448 -1.1691
14405TIP3    H264707   3.943   3.812   0.997 -0.5684 -1.7284 -1.1505
14406TIP3   OH264708   0.293   2.250   1.077  0.4731 -0.1865 -0.1770
14406TIP3    H164709   0.358   2.303   1.123  0.2296 -0.9580  1.0820
14406TIP3    H264710   0.246   2.313   1.022  1.9004  0.4619 -0.6639
14407TIP3   OH264711   2.884   4.519  15.747 -0.6826 -1.3199 -0.4037
14407TIP3    H164712   2.803   4.477  15.776 -0.3742 -3.3530 -2.3410
14407TIP3    H264713   2.912   4.468  15.671  1.7424  0.1359 -0.5572
14408TIP3   OH264714   1.289   4.516  14.952  0.1580  0.1871  0.6544
14408TIP3    H164715   1.305   4.428  14.987  0.2431  0.1713  0.5798
14408TIP3    H264716   1.207   4.508  14.904  0.4128  0.0282  0.2434
14409TIP3   OH264717   5.497   0.790   1.654  0.2750  0.8667  0.2545
14409TIP3    H164718   5.516   0.805   1.746 -2.5398  1.8232  0.7161
14409TIP3    H264719   5.419   0.843   1.636 -0.9309 -1.5081 -1.9310
14410TIP3   OH264720   5.404   1.932  11.463  0.1833  0.6573 -0.3928
14410TIP3    H164721   5.446   2.016  11.446  0.8944  0.5361  0.7628
14410TIP3    H264722   5.436   1.906  11.549 -0.1653 -0.7151 -0.6717
14411TIP3   OH264723   5.965   3.599   1.964  0.4958 -0.2214  0.2633
14411TIP3    H164724   5.994   3.560   2.047 -0.4615 -0.9405  0.2687
14411TIP3    H264725   5.891   3.655   1.988 -0.1982 -0.9396 -0.1951
14412TIP3   OH264726   2.219   0.632  16.670  0.1017  0.3847  0.2875
14412TIP3    H164727   2.255   0.588  16.593 -0.9465  0.7028 -0.3885
14412TIP3    H264728   2.126   0.609  16.670 -0.2688  1.8136  0.4516
14413TIP3   OH264729   0.439   3.440  14.100 -0.1878  0.6474  0.0467
14413TIP3    H164730   0.474   3.475  14.018  1.5775 -0.7522  0.1844
14413TIP3    H264731   0.371   3.379  14.073 -0.1683  0.7977 -0.3483
14414TIP3   OH264732   3.923   5.308   1.893  0.4776 -0.1696 -0.0567
14414TIP3    H164733   3.831   5.285   1.884  1.2557 -2.8613 -2.0837
14414TIP3    H264734   3.956   5.250   1.961  1.1004 -0.6715 -0.7750
14415TIP3   OH264735   2.724   4.204  12.309  0.3500 -0.6287  0.2392
14415TIP3    H164736   2.809   4.209  12.352  0.3914 -0.5527  0.1503
14415TIP3    H264737   2.726   4.275  12.245  0.3419 -0.8290  0.0160
14416TIP3   OH264738   5.866   1.284  11.650 -0.5572 -0.6318 -0.3954
14416TIP3    H164739   5.843   1.363  11.700 -0.7229 -1.5496  1.0002
14416TIP3    H264740   5.949   1.306  11.608 -2.3576  1.6160 -3.0042
14417TIP3   OH264741   4.211   4.703  13.570  0.6042 -0.4951 -0.0396
14417TIP3    H164742   4.131   4.659  13.541  0.5454 -0.1626 -0.3800
14417TIP3    H264743   4.185   4.793  13.586  0.8350 -0.4670  0.1883
14418TIP3   OH264744   1.358   6.398   5.065 -0.0351 -0.5522  0.2177
14418TIP3    H164745   1.408   6.368   4.989 -0.6006 -2.8360  0.7136
14418TIP3    H264746   1.420   6.391   5.138  0.4420  1.4343  0.0202
14419TIP3   OH264747   0.677   0.839  11.558  0.5947  0.2662  0.0824
14419TIP3    H164748   0.636   0.925  11.564  2.0966  1.0792 -1.0454
14419TIP3    H264749   0.699   0.829  11.466  0.6851 -1.2159  0.2531
14420TIP3   OH264750   0.254   1.129  16.310  0.1031 -0.5418  0.8636
14420TIP3    H164751   0.159   1.116  16.316 -0.0917  0.8528  1.0229
14420TIP3    H264752   0.287   1.046  16.277 -1.1541 -1.1177  1.0054
14421TIP3   OH264753   2.560   1.436  16.735  0.7599 -0.3698 -0.6285
14421TIP3    H164754   2.622   1.438  16.809  0.1233 -0.8854 -0.0689
14421TIP3    H264755   2.605   1.483  16.665  1.1894  0.5274  0.2342
14422TIP3   OH264756   0.204   4.696   1.488  0.0205 -0.5776  0.0219
14422TIP3    H164757   0.286   4.714   1.443 -0.6103 -0.1161 -0.9554
14422TIP3    H264758   0.137   4.739   1.435 -0.6197  0.9892  2.0489
14423TIP3   OH264759   2.665   6.537  14.112 -0.2520  0.5144  0.8219
14423TIP3    H164760   2.670   6.564  14.203  0.5559 -0.4704  1.0811
14423TIP3    H264761   2.623   6.451  14.115  0.3634  0.1907  0.3210
14424TIP3   OH264762   0.098   1.541  13.532  0.0288 -0.0189 -0.3432
14424TIP3    H164763   0.014   1.574  13.499 -0.4103  0.1150  0.8834
14424TIP3    H264764   0.090   1.547  13.627  1.2410 -0.4898 -0.2078
14425TIP3   OH264765   4.313   6.706   6.055 -0.1776  0.1940  0.2920
14425TIP3    H164766   4.309   6.757   6.137 -0.2878  1.2706 -0.3764
14425TIP3    H264767   4.374   6.754   6.000  0.0821 -0.6696 -0.1807
14426TIP3   OH264768   2.178   4.497   2.128  0.2514  0.2887  0.3932
14426TIP3    H164769   2.089   4.530   2.116  0.7932  1.1500 -1.3298
14426TIP3    H264770   2.220   4.562   2.185  0.0549  0.3684  0.4457
14427TIP3   OH264771   0.757   5.409  15.694  0.6309 -0.3831  0.1092
14427TIP3    H164772   0.668   5.416  15.658  0.7667 -0.3049 -0.2120
14427TIP3    H264773   0.809   5.468  15.640  0.7845 -0.0695  0.6048
14428TIP3   OH264774   3.930   0.945   4.513  0.4447 -0.3447 -0.3047
14428TIP3    H164775   3.956   0.894   4.437  0.3380 -0.0461 -0.5398
14428TIP3    H264776   3.835   0.939   4.515  0.4185  0.0466 -0.4692
14429TIP3   OH264777   2.407   3.925   4.126 -0.3851 -0.4979 -0.4145
14429TIP3    H164778   2.449   3.915   4.041  1.5655 -0.3319  0.5210
14429TIP3    H264779   2.392   4.020   4.135  0.3168 -0.4113 -0.1442
14430TIP3   OH264780   3.397   1.925  16.833  0.4757  0.4268 -0.1390
14430TIP3    H164781   3.389   2.018  16.854 -0.7337 -0.1931  2.2948
14430TIP3    H264782   3.345   1.914  16.753  0.3918  1.7815 -0.2766
14431TIP3   OH264783   2.694   3.254   3.232  0.0401  0.0289  0.3581
14431TIP3    H164784   2.743   3.287   3.156  0.6473 -3.0392 -0.6221
14431TIP3    H264785   2.611   3.303   3.229  1.2914  2.1919 -0.4230
14432TIP3   OH264786   2.715   1.219   2.583  0.0526 -0.4097  0.1045
14432TIP3    H164787   2.782   1.284   2.562 -0.2008 -0.3942 -0.6594
14432TIP3    H264788   2.736   1.192   2.673  0.5798  0.2061  0.1744
14433TIP3   OH264789   3.448   2.841   4.698 -0.3395  0.0310  0.5874
14433TIP3    H164790   3.465   2.753   4.733  0.9213  0.4444  1.0547
14433TIP3    H264791   3.535   2.876   4.680 -0.8323  1.2487  0.5478
14434TIP3   OH264792   1.087   0.546  17.021 -0.4142 -0.1117 -0.0832
14434TIP3    H164793   1.149   0.596  16.969  0.2408 -0.5184  0.3016
14434TIP3    H264794   1.032   0.612  17.064  0.8201  0.2923  0.8874
14435TIP3   OH264795   0.949   1.077   5.146  0.0742 -0.9519  0.5498
14435TIP3    H164796   0.896   1.005   5.182 -1.5045  0.5180  1.2082
14435TIP3    H264797   1.016   1.093   5.212  0.9376 -2.3485  0.0336
14436TIP3   OH264798   0.034   5.242   2.239  0.0166  0.2777 -0.6285
14436TIP3    H164799  -0.026   5.270   2.308  0.4553  0.9899 -0.5245
14436TIP3    H264800  -0.012   5.262   2.158  0.1735  0.9919 -0.5501
14437TIP3   OH264801   1.190   0.900   1.662 -0.3475  0.1721  0.3307
14437TIP3    H164802   1.229   0.818   1.692  2.1137  0.6829 -1.3277
14437TIP3    H264803   1.172   0.948   1.742  2.7853  0.0340  1.1923
14438TIP3   OH264804   6.267   1.355  13.624  0.1539 -0.1568 -0.0016
14438TIP3    H164805   6.251   1.419  13.554 -2.3857 -0.6895  0.0419
14438TIP3    H264806   6.290   1.408  13.700 -3.3306  0.8823  0.4297
14439TIP3   OH264807   3.288   3.517   6.075 -0.0547  0.7629 -0.0627
14439TIP3    H164808   3.236   3.509   6.155 -1.6651  2.7996 -0.8705
14439TIP3    H264809   3.263   3.441   6.023 -1.6084  1.2569 -0.0692
14440TIP3   OH264810   5.144   5.800  11.956  0.0159  0.1685  0.6453
14440TIP3    H164811   5.107   5.718  11.924  0.4295  0.1459  0.2141
14440TIP3    H264812   5.069   5.852  11.985 -0.5765  1.0578 -2.3426
14441TIP3   OH264813   2.275   2.253   3.002  0.2090  0.2119 -0.3732
14441TIP3    H164814   2.287   2.327   3.062  1.2299 -0.1278 -0.1625
14441TIP3    H264815   2.267   2.177   3.060  0.8566 -0.0713 -0.6642
14442TIP3   OH264816   2.367   6.786   6.337 -0.0363  0.1869 -0.4809
14442TIP3    H164817   2.432   6.723   6.306  0.6444  1.3929 -1.5858
14442TIP3    H264818   2.419   6.857   6.375 -0.7472  0.6995 -0.4682
14443TIP3   OH264819   5.229   3.349  16.304  0.3229  0.1033  1.0233
14443TIP3    H164820   5.257   3.414  16.240 -0.3321  0.2799  0.9085
14443TIP3    H264821   5.309   3.323  16.350  0.5233  1.3437  1.3963
14444TIP3   OH264822   4.601   1.625   2.209 -0.2923 -0.5099  0.9389
14444TIP3    H164823   4.639   1.570   2.140 -2.1956 -0.4590 -0.2066
14444TIP3    H264824   4.653   1.705   2.208  1.0844 -1.3989  1.0643
14445TIP3   OH264825   0.569   5.862   1.955  0.0281  0.0787 -0.3634
14445TIP3    H164826   0.646   5.900   1.913  0.3943  1.7102  1.7015
14445TIP3    H264827   0.497   5.879   1.894  1.2899 -1.5398 -2.3488
14446TIP3   OH264828   0.423   5.971  11.337  0.6625  0.1276  0.1997
14446TIP3    H164829   0.418   5.985  11.242  0.4191 -3.3299 -0.3475
14446TIP3    H264830   0.515   5.986  11.359  0.5320  1.9076 -0.3889
14447TIP3   OH264831   6.528   0.315   0.348 -0.0690  0.0227 -0.4762
14447TIP3    H164832   6.615   0.283   0.372  0.4847  1.2567 -0.7807
14447TIP3    H264833   6.525   0.306   0.253 -0.2127  0.1018 -0.4788
14448TIP3   OH264834   4.807   6.637   1.647 -1.0222  0.5504  0.1053
14448TIP3    H164835   4.889   6.594   1.673 -0.9414  0.8105  0.2809
14448TIP3    H264836   4.770   6.579   1.581 -0.9789  0.1405  0.4364
14449TIP3   OH264837   3.173   6.163  14.543  0.2825  0.1076  0.3851
14449TIP3    H164838   3.236   6.164  14.471  1.1295 -0.8173  1.1037
14449TIP3    H264839   3.178   6.075  14.579 -0.1459  0.5445  1.5693
14450TIP3   OH264840   4.293   6.107  14.769 -0.0086 -0.2762  0.1266
14450TIP3    H164841   4.343   6.035  14.731  0.0008  0.9389 -2.2523
14450TIP3    H264842   4.337   6.126  14.852  2.4607 -0.3419 -1.1300
14451TIP3   OH264843   3.626   0.925   5.029 -0.0844 -0.0627 -0.0981
14451TIP3    H164844   3.556   0.948   5.091  0.4858 -0.4581  0.6885
14451TIP3    H264845   3.581   0.874   4.961 -0.4138 -1.1131  0.8813
14452TIP3   OH264846   6.607   3.508  13.062  0.5522 -0.5466 -0.0151
14452TIP3    H164847   6.693   3.482  13.095  0.7074  0.8281  0.6813
14452TIP3    H264848   6.609   3.603  13.063 -0.4716 -0.4920 -1.3412
14453TIP3   OH264849   0.044   5.544   4.128 -0.2871 -0.6207 -0.6084
14453TIP3    H164850   0.022   5.569   4.038 -0.0617  0.7762 -0.2848
14453TIP3    H264851  -0.013   5.470   4.147 -0.9378 -0.3846 -1.6140
14454TIP3   OH264852   5.235   2.318   5.349 -0.3221 -0.2194 -0.0422
14454TIP3    H164853   5.156   2.345   5.304  0.1440  3.3109  1.1414
14454TIP3    H264854   5.217   2.335   5.441  2.4848  2.5390  0.0602
14455TIP3   OH264855   6.469   5.116   6.726  0.3610 -0.1146 -0.3372
14455TIP3    H164856   6.499   5.192   6.676  0.8432 -1.0038 -1.4239
14455TIP3    H264857   6.440   5.152   6.810  0.2994  1.3022 -0.9566
14456TIP3   OH264858   2.503   1.104   0.134  0.3603  0.2449  0.8054
14456TIP3    H164859   2.547   1.019   0.137  1.5383  0.7939 -0.7285
14456TIP3    H264860   2.469   1.116   0.223  0.1755 -1.8219  1.0433
14457TIP3   OH264861   3.540   0.059  11.404  0.3639 -0.2167  0.0633
14457TIP3    H164862   3.572   0.077  11.315  0.5499  0.1135  0.1982
14457TIP3    H264863   3.453   0.021  11.390  0.0872  0.5028 -0.2342
14458TIP3   OH264864   1.067   0.306   6.256  0.2857  0.4164  0.1077
14458TIP3    H164865   1.092   0.334   6.344 -0.2498  0.6572  0.1907
14458TIP3    H264866   1.005   0.374   6.227  0.6359  0.4552 -0.5391
14459TIP3   OH264867   5.209   0.748  11.600  0.0023 -0.4039  0.2417
14459TIP3    H164868   5.168   0.833  11.617 -2.1832 -1.1329 -1.2337
14459TIP3    H264869   5.291   0.769  11.556 -0.8965  0.9346 -0.8395
14460TIP3   OH264870   4.176   1.428  16.501  0.6837  0.3430  0.1058
14460TIP3    H164871   4.222   1.421  16.417 -3.3145 -2.3516 -2.0899
14460TIP3    H264872   4.152   1.520  16.507  3.4937  1.1468 -0.2514
14461TIP3   OH264873   2.875   4.632   4.587  0.1262  1.0036  0.1008
14461TIP3    H164874   2.907   4.713   4.628 -1.3198  1.8824 -0.4551
14461TIP3    H264875   2.780   4.636   4.599 -0.2308  0.7933 -2.4549
14462TIP3   OH264876   6.542   2.803  16.579  0.2990  0.3240 -0.4824
14462TIP3    H164877   6.597   2.728  16.558  0.2619  0.5198 -1.2731
14462TIP3    H264878   6.588   2.846  16.652 -0.4067 -1.2479  0.9157
14463TIP3   OH264879   2.293   1.731  17.130  0.0472 -0.0627 -0.3698
14463TIP3    H164880   2.234   1.664  17.094  1.7447 -1.5094 -0.5430
14463TIP3    H264881   2.359   1.744  17.062  1.5491 -0.5883  0.9465
14464TIP3   OH264882   2.087   1.448   4.906 -0.1348 -0.1364  0.4176
14464TIP3    H164883   1.998   1.444   4.871  0.0190  1.3792 -0.1838
14464TIP3    H264884   2.140   1.477   4.833  0.1774  3.2402  1.8953
14465TIP3   OH264885   1.480   1.066  13.299 -0.3404 -0.1981 -0.0714
14465TIP3    H164886   1.506   1.076  13.207  0.9367  0.0751  0.3184
14465TIP3    H264887   1.429   1.145  13.317 -0.2589 -0.0584 -0.4295
14466TIP3   OH264888   5.846   2.823  12.859 -0.5641 -0.7121 -0.1709
14466TIP3    H164889   5.807   2.737  12.844 -1.1466 -0.5299  0.2753
14466TIP3    H264890   5.833   2.871  12.777 -3.2695  0.1101  0.6974
14467TIP3   OH264891   4.457   3.449  15.014 -0.4712  0.5870  0.0251
14467TIP3    H164892   4.366   3.475  15.025 -0.5388  1.9691 -3.2801
14467TIP3    H264893   4.500   3.525  14.975  2.2783  0.1796  2.1018
14468TIP3   OH264894   2.944   6.499  14.936  0.1874 -0.1935  0.1991
14468TIP3    H164895   2.998   6.436  14.889  0.6779  0.0200  0.4708
14468TIP3    H264896   2.905   6.554  14.868  1.2249  0.3803  0.0531
14469TIP3   OH264897   4.716   2.122   4.005 -0.1402  0.1663 -0.3404
14469TIP3    H164898   4.741   2.116   3.913 -2.1875  0.5892 -0.9433
14469TIP3    H264899   4.787   2.172   4.046  0.6553  0.1847 -1.7299
14470TIP3   OH264900   5.041   3.590  11.695  0.1996 -0.4383 -0.4760
14470TIP3    H164901   5.016   3.658  11.757  0.3010  0.8010 -1.7516
14470TIP3    H264902   4.964   3.579  11.639  0.8147 -0.0788 -1.3968
14471TIP3   OH264903   1.442   6.093  12.681 -0.2389 -0.5152 -0.5898
14471TIP3    H164904   1.430   6.144  12.761 -0.8583 -1.4600 -0.0641
14471TIP3    H264905   1.380   6.020  12.690  0.8026 -1.4861 -1.2088
14472TIP3   OH264906   0.644   5.366  14.784  0.0923 -0.0555 -0.9141
14472TIP3    H164907   0.596   5.443  14.754 -1.1734 -1.5449 -2.8842
14472TIP3    H264908   0.712   5.353  14.717  2.0411  0.9239  0.8447
14473TIP3   OH264909   5.688   2.299  12.375  0.2041  0.5846 -0.2971
14473TIP3    H164910   5.602   2.296  12.417  0.8691 -0.8236  1.0407
14473TIP3    H264911   5.724   2.211  12.389 -0.2168 -0.4979 -5.3402
14474TIP3   OH264912   6.469   5.418  12.789  0.1550 -0.5321  0.7788
14474TIP3    H164913   6.496   5.496  12.740 -1.3817  0.1029  0.9379
14474TIP3    H264914   6.486   5.440  12.880 -1.9485  0.3136  0.9843
14475TIP3   OH264915   2.140   2.083   5.950 -0.6915  0.1416  0.2018
14475TIP3    H164916   2.200   2.155   5.932  0.4126 -1.1065 -1.2552
14475TIP3    H264917   2.120   2.046   5.865 -1.5072 -1.0668  0.8998
14476TIP3   OH264918   1.634   4.513  14.233  0.4402 -0.2130 -0.6277
14476TIP3    H164919   1.569   4.512  14.164  1.0993  0.8670 -1.2842
14476TIP3    H264920   1.711   4.469  14.196  0.2402 -1.1153 -0.0014
14477TIP3   OH264921   4.251   1.958   0.468 -0.3776  0.4971 -0.2803
14477TIP3    H164922   4.323   1.921   0.416  0.2061  1.3485 -0.1012
14477TIP3    H264923   4.179   1.967   0.406 -0.5066 -0.8434 -0.3457
14478TIP3   OH264924   2.667   2.185   3.324 -0.1586  0.1118  0.3704
14478TIP3    H164925   2.758   2.176   3.297  0.1055 -1.8237  1.7897
14478TIP3    H264926   2.630   2.098   3.311 -1.2180  0.3290  1.8350
14479TIP3   OH264927   5.834   1.815  16.115 -0.2010 -0.0553  0.0726
14479TIP3    H164928   5.743   1.815  16.145 -0.2906  1.4378 -0.1738
14479TIP3    H264929   5.829   1.853  16.027  0.8774  1.6609  0.7424
14480TIP3   OH264930   6.362   4.819  15.478 -0.1028 -0.3390  0.0471
14480TIP3    H164931   6.375   4.778  15.392  0.8463  0.6871 -0.3172
14480TIP3    H264932   6.347   4.911  15.458 -0.1707 -0.1510  0.9680
14481TIP3   OH264933   1.821   3.935   3.262 -0.8262 -0.3845  0.0528
14481TIP3    H164934   1.802   4.022   3.228 -2.4750  0.0148  1.8905
14481TIP3    H264935   1.903   3.945   3.309 -1.7735  0.5747  1.5570
14482TIP3   OH264936   5.644   6.029   3.733  0.6713  0.0464 -0.9087
14482TIP3    H164937   5.579   6.097   3.716 -0.0858 -0.7670 -1.3066
14482TIP3    H264938   5.712   6.043   3.667  1.1934  1.2363 -0.1507
14483TIP3   OH264939   3.994   1.872   0.612 -0.1410 -0.4210 -0.3171
14483TIP3    H164940   4.036   1.789   0.635 -0.3564  0.1199  2.0870
14483TIP3    H264941   4.060   1.939   0.629 -0.8761  0.1401  0.3687
14484TIP3   OH264942   3.268   0.601   5.673  0.4357  0.1168  0.1263
14484TIP3    H164943   3.351   0.622   5.717 -0.0815 -0.0433  1.1983
14484TIP3    H264944   3.215   0.559   5.741  0.7613 -3.0189 -1.4566
14485TIP3   OH264945   1.530   4.161  14.590  0.1468 -0.2281 -0.3314
14485TIP3    H164946   1.624   4.175  14.587  0.1664 -0.2708  0.0884
14485TIP3    H264947   1.492   4.244  14.559  0.3071 -0.0124  0.0550
14486TIP3   OH264948   4.746   0.547  14.894 -0.5362 -0.0098  0.1485
14486TIP3    H164949   4.826   0.574  14.938 -0.8488 -0.2098  0.8405
14486TIP3    H264950   4.759   0.575  14.803  0.3129 -0.0384  0.2527
14487TIP3   OH264951   5.320   5.502   3.343 -0.1913 -0.3991 -0.0883
14487TIP3    H164952   5.319   5.443   3.268 -0.9277  0.4366 -0.7394
14487TIP3    H264953   5.408   5.540   3.343 -0.8271  1.1610 -1.7742
14488TIP3   OH264954   6.403   1.577  13.811  0.0931 -0.5159  0.0539
14488TIP3    H164955   6.390   1.650  13.871  0.3913 -0.3471 -0.0897
14488TIP3    H264956   6.392   1.615  13.724  2.1551 -0.2444 -0.0967
14489TIP3   OH264957   0.826   3.927   5.791 -0.2048  0.7144  0.0255
14489TIP3    H164958   0.877   3.848   5.807  0.1777  1.2594  1.5568
14489TIP3    H264959   0.782   3.945   5.874 -0.0362  2.2810 -0.2051
14490TIP3   OH264960   4.978   1.211  15.250  0.3730  0.2606  0.3365
14490TIP3    H164961   5.013   1.131  15.212 -0.3339  0.1952 -0.1722
14490TIP3    H264962   4.996   1.279  15.184  2.2266  0.7984  1.3547
14491TIP3   OH264963   6.670   6.594   5.423 -0.1898 -0.3597 -0.5639
14491TIP3    H164964   6.728   6.527   5.458 -1.4554 -2.4464 -2.3687
14491TIP3    H264965   6.585   6.576   5.464 -0.1283  1.2499  0.3058
14492TIP3   OH264966   5.015   5.685   2.705 -0.3972 -0.0547 -0.1493
14492TIP3    H164967   5.053   5.758   2.754  1.8338 -0.5533 -1.0715
14492TIP3    H264968   4.953   5.645   2.766  0.2370  1.0564  1.2569
14493TIP3   OH264969   1.494   4.446  15.168 -0.3965  0.5968  0.3589
14493TIP3    H164970   1.448   4.366  15.143  1.4055  0.1953 -1.8423
14493TIP3    H264971   1.460   4.513  15.108  0.0078  0.8698  0.4306
14494TIP3   OH264972   1.574   6.219   0.077  0.4362  0.4166 -0.3764
14494TIP3    H164973   1.598   6.182   0.162 -1.6563 -0.7356 -0.2609
14494TIP3    H264974   1.573   6.144   0.018 -0.4370  0.8398 -0.9093
14495TIP3   OH264975   0.683   5.925  14.384 -0.0657  0.3234 -0.3091
14495TIP3    H164976   0.752   5.865  14.414 -0.4375  0.3922  0.7326
14495TIP3    H264977   0.660   5.894  14.297  1.1551  0.1885 -0.5968
14496TIP3   OH264978   4.776   2.139   3.323  0.4313  0.4604 -0.5055
14496TIP3    H164979   4.827   2.202   3.374 -0.9794 -0.7507  2.5668
14496TIP3    H264980   4.692   2.182   3.309 -0.4235 -0.5629  1.3262
14497TIP3   OH264981   2.985   2.387   3.196 -0.2563  0.5960 -0.1522
14497TIP3    H164982   3.080   2.388   3.192 -0.1370 -0.3348  1.9026
14497TIP3    H264983   2.959   2.477   3.179  1.0541  1.1425  0.7039
14498TIP3   OH264984   5.505   2.227  16.787  0.0210  0.5922 -0.0193
14498TIP3    H164985   5.534   2.141  16.756  0.5819  0.2372  1.4857
14498TIP3    H264986   5.411   2.227  16.771  0.0264 -0.2769 -0.1055
14499TIP3   OH264987   3.289   3.216  14.776 -0.2840 -0.3111  0.1374
14499TIP3    H164988   3.267   3.250  14.863  1.0277 -0.3663  0.5000
14499TIP3    H264989   3.358   3.274  14.744 -0.1495 -0.8144 -0.5038
14500TIP3   OH264990   1.355   0.772  10.821 -0.6194 -0.0752 -0.7593
14500TIP3    H164991   1.411   0.695  10.815  1.7478  1.4999  0.4386
14500TIP3    H264992   1.303   0.758  10.900  1.0894  0.3488  0.4650
14501TIP3   OH264993   5.964   4.019   0.022 -0.2674 -0.1526  0.5174
14501TIP3    H164994   5.956   4.109  -0.009 -1.0991 -0.8863 -1.4916
14501TIP3    H264995   6.056   4.011   0.049 -0.1720  1.2692  0.6480
14502TIP3   OH264996   0.221   5.909   2.863  0.4313  0.2125  0.1466
14502TIP3    H164997   0.243   5.886   2.773  1.2843 -3.2688  1.1426
14502TIP3    H264998   0.134   5.949   2.858 -0.0024 -0.9568 -2.1183
14503TIP3   OH264999   2.545   5.265   1.877  0.8140 -0.1820  0.6438
14503TIP3    H165000   2.501   5.218   1.948 -0.6033 -1.5672 -1.0714
14503TIP3    H265001   2.561   5.353   1.911 -2.1405 -0.0412  1.8142
14504TIP3   OH265002   4.565   3.049  14.244 -0.8930  0.1563 -0.3889
14504TIP3    H165003   4.653   3.085  14.256 -0.3645 -0.1133 -3.0982
14504TIP3    H265004   4.525   3.053  14.331  2.0238 -0.3390  1.0404
14505TIP3   OH265005   2.976   5.755   2.640 -0.3183  0.1563  0.2088
14505TIP3    H165006   3.035   5.824   2.671 -0.0899  0.3094 -0.5533
14505TIP3    H265007   3.016   5.724   2.559 -1.9484  1.1650 -1.0199
14506TIP3   OH265008   5.279   2.724  11.057 -0.2801  0.6658  0.2357
14506TIP3    H165009   5.260   2.799  11.114 -1.8368  1.2282 -0.9739
14506TIP3    H265010   5.277   2.760  10.968  0.5168 -0.5066 -0.2748
14507TIP3   OH265011   0.071   0.088   5.965  0.8413 -0.6605 -0.2782
14507TIP3    H165012   0.010   0.076   5.893 -0.0883 -0.1499  0.4116
14507TIP3    H265013   0.146   0.134   5.926  0.4316 -0.5631 -0.9521
14508TIP3   OH265014   1.592   2.121  15.238 -0.2782  0.0710 -0.1212
14508TIP3    H165015   1.547   2.203  15.219 -0.2195  0.3324  0.8305
14508TIP3    H265016   1.532   2.073  15.296 -0.2865 -0.5317 -0.6195
14509TIP3   OH265017   5.613   1.039   2.322 -0.5657  0.0083 -0.3559
14509TIP3    H165018   5.524   1.003   2.328 -1.3464  1.6889 -1.4984
14509TIP3    H265019   5.613   1.114   2.381 -0.2677  0.7262 -1.2550
14510TIP3   OH265020   0.983   0.630   5.486  0.3902 -0.2693  0.1563
14510TIP3    H165021   0.915   0.583   5.534 -0.2643  0.2181 -0.2729
14510TIP3    H265022   0.970   0.722   5.511  0.5007 -0.1021 -0.3818
14511TIP3   OH265023   5.546   5.439  15.610  0.4475  0.1209 -0.0480
14511TIP3    H165024   5.502   5.367  15.655  0.2929  0.1214 -0.1994
14511TIP3    H265025   5.481   5.471  15.547  0.9810 -0.4693 -0.9143
14512TIP3   OH265026   1.022   0.760   4.577  0.0410  0.4564  0.0678
14512TIP3    H165027   1.005   0.684   4.632  0.6873 -0.0900 -0.4883
14512TIP3    H265028   1.110   0.788   4.602  0.5987 -0.1885 -1.1451
14513TIP3   OH265029   3.593   0.363  10.878 -0.0945  0.4393 -0.1316
14513TIP3    H165030   3.658   0.415  10.832 -0.5737  0.1742 -1.1266
14513TIP3    H265031   3.630   0.275  10.883 -1.5637 -0.4014 -3.2284
14514TIP3   OH265032   4.583   6.168  16.984  0.3311  0.2297  0.2710
14514TIP3    H165033   4.622   6.157  16.897 -0.4829  0.0803 -0.0734
14514TIP3    H265034   4.586   6.262  17.001 -2.1945  0.6011 -1.1693
14515TIP3   OH265035   0.631   1.268   3.950  0.3699  0.1055  0.2476
14515TIP3    H165036   0.578   1.344   3.927 -1.0907 -1.1490 -0.6072
14515TIP3    H265037   0.706   1.273   3.891 -0.1942  0.3823 -0.4657
14516TIP3   OH265038   1.140   5.605  11.426  0.3672  0.5510 -0.3504
14516TIP3    H165039   1.046   5.587  11.420  0.1448  1.8891 -1.0799
14516TIP3    H265040   1.174   5.584  11.339  1.2679 -2.6426  0.6973
14517TIP3   OH265041   2.001   5.825   6.282  0.2076  0.1468  0.1273
14517TIP3    H165042   1.976   5.777   6.360  1.7676  1.0503  1.2232
14517TIP3    H265043   2.091   5.798   6.265  1.3487  3.0290  1.1312
14518TIP3   OH265044   2.186   6.125  15.342 -0.1751  0.0212 -0.0060
14518TIP3    H165045   2.161   6.037  15.315  1.1082 -0.5144  0.4948
14518TIP3    H265046   2.111   6.158  15.391 -0.3754 -1.0698  0.4308
14519TIP3   OH265047   4.622   2.888   0.718 -0.5223  0.8772  0.3547
14519TIP3    H165048   4.586   2.977   0.723  0.1751  1.1407  0.7928
14519TIP3    H265049   4.706   2.899   0.673 -0.2225  0.5100  0.8208
14520TIP3   OH265050   3.598   1.701   6.207 -0.1255 -0.7195  0.0010
14520TIP3    H165051   3.677   1.682   6.158 -0.2359 -0.9032 -0.1088
14520TIP3    H265052   3.580   1.793   6.189  0.2893 -0.5709  0.3549
14521TIP3   OH265053   4.558   2.898   4.623 -0.4633 -0.4029 -0.4267
14521TIP3    H165054   4.528   2.899   4.532  1.3317 -0.1443 -1.0360
14521TIP3    H265055   4.630   2.835   4.623  0.6958  0.9187  0.4494
14522TIP3   OH265056   4.420   4.121  15.807  0.2833  0.8742  0.4839
14522TIP3    H165057   4.396   4.214  15.814 -0.7186  0.5062  2.0871
14522TIP3    H265058   4.378   4.092  15.726 -0.1772  1.5893  0.4580
14523TIP3   OH265059   3.163   0.593   5.422 -0.8731  0.5537  0.1587
14523TIP3    H165060   3.207   0.576   5.505 -2.1182 -0.6344  0.5870
14523TIP3    H265061   3.131   0.683   5.429 -1.7987  0.1400  1.3496
14524TIP3   OH265062   2.471   4.827  11.897  0.1918  0.0111 -0.7467
14524TIP3    H165063   2.496   4.862  11.982  1.2742 -0.3370 -0.9044
14524TIP3    H265064   2.514   4.884  11.834  2.1852 -1.7045 -0.9959
14525TIP3   OH265065   2.850   5.584  14.208 -0.0796  0.9125 -0.4643
14525TIP3    H165066   2.924   5.558  14.263 -0.4147  0.0357 -0.4105
14525TIP3    H265067   2.812   5.501  14.179 -0.3148  1.3612 -1.4669
14526TIP3   OH265068   0.823   2.262   3.182 -0.0381  0.0558  0.3169
14526TIP3    H165069   0.736   2.222   3.178  0.3571 -0.6782 -1.3245
14526TIP3    H265070   0.877   2.197   3.227  0.0967 -0.3349 -0.3965
14527TIP3   OH265071   5.055   1.449  10.611 -0.0351 -0.1084 -0.0873
14527TIP3    H165072   4.972   1.474  10.570  0.2773  0.9085 -0.1155
14527TIP3    H265073   5.040   1.361  10.644 -0.4697 -0.7303 -1.8985
14528TIP3   OH265074   5.770   2.135   3.702 -0.6265  0.3261  0.0049
14528TIP3    H165075   5.843   2.176   3.747  0.7227 -0.8723 -1.0485
14528TIP3    H265076   5.774   2.043   3.728 -0.6848 -0.0910 -1.4315
14529TIP3   OH265077   4.494   1.312   3.377  0.1198  0.1507 -0.3535
14529TIP3    H165078   4.443   1.230   3.378 -0.0464  0.2480 -0.9541
14529TIP3    H265079   4.512   1.329   3.470  0.0988 -0.5314 -0.2157
14530TIP3   OH265080   0.095   1.660   4.864  0.1250 -0.1343 -0.4889
14530TIP3    H165081   0.072   1.734   4.920 -1.4380  0.2882 -1.6588
14530TIP3    H265082   0.070   1.583   4.914 -2.2789  0.2644 -0.9959
14531TIP3   OH265083   3.399   6.104  15.307 -0.4529 -0.1419  0.0791
14531TIP3    H165084   3.430   6.160  15.237 -1.5625 -1.2722 -1.3378
14531TIP3    H265085   3.411   6.015  15.274  1.3077 -0.7883  2.2878
14532TIP3   OH265086   0.393   1.629   6.931  0.4856  0.1851 -0.3453
14532TIP3    H165087   0.397   1.704   6.990  0.7731 -0.7599  0.8690
14532TIP3    H265088   0.467   1.574   6.958 -0.5000 -1.1518 -0.3555
14533TIP3   OH265089   5.269   0.484  13.313 -0.1768  0.6047 -0.0699
14533TIP3    H165090   5.346   0.539  13.328  0.6852 -0.3495 -0.9064
14533TIP3    H265091   5.223   0.528  13.240  0.5807  0.1482 -0.8282
14534TIP3   OH265092   0.476   0.136  14.684 -0.2754 -0.1742 -0.4428
14534TIP3    H165093   0.390   0.165  14.654 -0.8169 -0.4230  0.8629
14534TIP3    H265094   0.470   0.136  14.779  0.3771 -2.6342 -0.3766
14535TIP3   OH265095   6.290   5.457  11.970  0.1233  0.1849 -0.1835
14535TIP3    H165096   6.250   5.443  12.057  2.1575  0.2348  0.7945
14535TIP3    H265097   6.305   5.368  11.937 -1.8770  0.1645 -1.0867
14536TIP3   OH265098   2.097   2.993   4.736 -0.0528  0.4093  0.5322
14536TIP3    H165099   2.189   2.975   4.715 -0.2466 -0.0539  0.0735
14536TIP3    H265100   2.074   2.926   4.801 -0.2921  0.0287  0.0595
14537TIP3   OH265101   3.012   4.468  14.063 -0.6026  0.3476 -0.2304
14537TIP3    H165102   2.990   4.448  14.154 -0.9278  0.1311 -0.3549
14537TIP3    H265103   2.946   4.422  14.011  0.2098 -0.4106 -0.6190
14538TIP3   OH265104   0.091   5.326  14.759  0.0281  0.0605 -0.1598
14538TIP3    H165105   0.050   5.296  14.679  0.8895 -0.8907 -0.2589
14538TIP3    H265106   0.184   5.303  14.749  0.4159  1.2608  0.4772
14539TIP3   OH265107   3.290   6.254  11.183  0.3136 -0.4654 -0.5335
14539TIP3    H165108   3.250   6.179  11.139 -0.6537 -1.5995  2.1162
14539TIP3    H265109   3.221   6.288  11.240  1.1403  1.6823 -0.7803
14540TIP3   OH265110   4.133   5.145  14.125  0.2993 -0.0178  0.3427
14540TIP3    H165111   4.200   5.153  14.057 -0.3943 -0.4662 -0.4006
14540TIP3    H265112   4.135   5.053  14.150  0.0033 -0.0213  0.3532
14541TIP3   OH265113   1.497   6.098  12.105  0.3466  0.6595 -0.0438
14541TIP3    H165114   1.442   6.037  12.057  0.3064  0.2272  0.5457
14541TIP3    H265115   1.439   6.135  12.172  0.5963  0.7076  0.1470
14542TIP3   OH265116   2.429   1.297  16.456  0.3211  0.6864  0.1195
14542TIP3    H165117   2.446   1.290  16.550  0.8376  0.0205 -0.0213
14542TIP3    H265118   2.369   1.372  16.448 -2.2302 -1.1366  1.2830
14543TIP3   OH265119   6.000   2.284   0.282  0.5121  0.3415  0.2460
14543TIP3    H165120   6.014   2.283   0.187  2.1430  1.3370  0.4568
14543TIP3    H265121   6.062   2.220   0.316  0.8777  0.9529  0.7462
14544TIP3   OH265122   1.352   6.165  15.938 -0.7367  0.5634  0.2906
14544TIP3    H165123   1.334   6.150  16.031  1.2811  0.3848  0.6735
14544TIP3    H265124   1.335   6.258  15.925 -1.9576  0.3970  0.6025
14545TIP3   OH265125   2.326   1.257   3.426 -0.8915  0.7892  0.2702
14545TIP3    H165126   2.391   1.250   3.356 -1.5019 -0.2076 -0.2218
14545TIP3    H265127   2.259   1.194   3.401 -1.8974  1.5963  0.9331
14546TIP3   OH265128   6.094   0.476  15.953 -0.6646 -0.1389 -0.1620
14546TIP3    H165129   6.016   0.470  15.898 -1.0700 -0.1692  0.4180
14546TIP3    H265130   6.072   0.541  16.020 -0.2834 -0.3297  0.1527
14547TIP3   OH265131   0.346   4.594  14.686 -0.4193 -0.0978  0.1636
14547TIP3    H165132   0.416   4.574  14.748 -1.2163  2.5625  2.0170
14547TIP3    H265133   0.280   4.639  14.738 -2.0452  0.4023 -2.2313
14548TIP3   OH265134   0.250   4.042   5.670 -0.1169 -0.3413 -0.1187
14548TIP3    H165135   0.247   3.965   5.613 -0.1289 -0.2240 -0.2762
14548TIP3    H265136   0.281   4.008   5.754  0.1597 -0.4685 -0.2711
14549TIP3   OH265137   4.086   2.393   1.449  0.2897  0.0516 -0.1886
14549TIP3    H165138   4.056   2.302   1.455  0.2730  0.1325  1.1706
14549TIP3    H265139   4.121   2.412   1.536 -0.3844  1.5830 -0.2339
14550TIP3   OH265140   1.213   5.223   6.028  0.3445  0.2458  0.8277
14550TIP3    H165141   1.236   5.316   6.030  1.7181  0.1500 -3.9472
14550TIP3    H265142   1.118   5.221   6.020  0.3454  1.2368  0.5319
14551TIP3   OH265143   1.733   2.592   3.376 -0.2339 -0.5397  0.0980
14551TIP3    H165144   1.828   2.593   3.382 -0.1507  2.3243 -1.0561
14551TIP3    H265145   1.704   2.651   3.446 -1.1075 -0.2886 -0.4723
14552TIP3   OH265146   5.447   0.637  13.453 -0.2843 -0.0243  0.4506
14552TIP3    H165147   5.513   0.596  13.510  0.7468  0.5225 -0.3293
14552TIP3    H265148   5.404   0.702  13.509  0.2769  0.0569  0.7942
14553TIP3   OH265149   4.938   6.631  12.492  0.3488  0.8281  0.6168
14553TIP3    H165150   4.981   6.696  12.435  0.3293 -0.0078 -0.3759
14553TIP3    H265151   5.010   6.594  12.543  0.4525  1.1962  0.7400
14554TIP3   OH265152   1.525   0.248  11.275  0.6580  1.4492 -0.1981
14554TIP3    H165153   1.595   0.189  11.303  0.6557  1.1615 -0.7767
14554TIP3    H265154   1.466   0.191  11.224 -0.0069  1.6817  0.3155
14555TIP3   OH265155   1.161   2.828  14.074  0.1345  0.4070  0.3589
14555TIP3    H165156   1.191   2.774  14.148  1.2124 -0.7413 -0.8853
14555TIP3    H265157   1.066   2.816  14.072  0.4250 -2.0460 -0.3196
14556TIP3   OH265158   0.212   6.304   5.995  0.3869  0.6197 -0.0153
14556TIP3    H165159   0.296   6.332   5.959  0.5799 -1.6076 -1.4117
14556TIP3    H265160   0.210   6.339   6.084  2.5355  1.1782 -0.1826
14557TIP3   OH265161   3.184   5.657   5.645 -0.0550 -0.5004  0.2709
14557TIP3    H165162   3.104   5.708   5.652 -0.5365 -1.3794  1.2730
14557TIP3    H265163   3.184   5.624   5.555 -0.7816 -0.4367  0.2480
14558TIP3   OH265164   0.630   4.158   1.252  0.3439 -0.7155  0.4464
14558TIP3    H165165   0.604   4.207   1.174  1.8181 -3.1066 -1.6128
14558TIP3    H265166   0.548   4.141   1.298 -0.2786  3.0030  0.8650
14559TIP3   OH265167   5.390   5.694  13.008 -0.2829  0.5447 -0.1657
14559TIP3    H165168   5.401   5.625  12.942  0.1792  1.9429 -1.5627
14559TIP3    H265169   5.320   5.750  12.974 -0.0066  1.3165  0.5046
14560TIP3   OH265170   6.473   2.400   1.025 -0.7490 -0.1956 -0.3946
14560TIP3    H165171   6.393   2.348   1.028 -0.4287 -0.7078 -0.6224
14560TIP3    H265172   6.452   2.473   0.966 -0.8880 -0.6069 -0.8610
14561TIP3   OH265173   5.738   0.331  17.149 -0.2044 -0.4522  0.5004
14561TIP3    H165174   5.728   0.382  17.229 -2.1607 -1.8513  1.1739
14561TIP3    H265175   5.806   0.266  17.170 -0.4668 -0.5940  0.8983
14562TIP3   OH265176   1.254   4.578  12.893 -0.0401  0.7573  0.5457
14562TIP3    H165177   1.224   4.606  12.807 -0.9083  1.0041  0.9138
14562TIP3    H265178   1.259   4.659  12.944 -1.0120  0.4514  1.1557
14563TIP3   OH265179   2.828   3.450   2.487 -0.3854  0.0247 -0.4566
14563TIP3    H165180   2.774   3.516   2.443 -0.6961  0.8297  1.1213
14563TIP3    H265181   2.765   3.383   2.515 -0.4221  0.3931  0.3497
14564TIP3   OH265182   0.493   2.747  12.506  0.2187  0.7725  0.6515
14564TIP3    H165183   0.433   2.818  12.482 -1.1259  0.3285  2.6254
14564TIP3    H265184   0.508   2.759  12.600  1.9849 -0.0686  0.5033
14565TIP3   OH265185   2.287   2.735   4.180  0.2214  0.2587 -0.0956
14565TIP3    H165186   2.339   2.804   4.139  0.3945 -0.3726 -0.9505
14565TIP3    H265187   2.223   2.782   4.234  0.1079  1.1042 -0.9450
14566TIP3   OH265188   6.083   5.781   3.379  0.0122 -0.2129  0.7450
14566TIP3    H165189   6.051   5.694   3.354 -0.6768 -0.6277  3.0379
14566TIP3    H265190   6.130   5.811   3.301  0.9856 -2.9815  0.1889
14567TIP3   OH265191   3.063   4.100  12.831 -0.0173 -0.5992 -0.1867
14567TIP3    H165192   3.062   4.077  12.738  0.5667 -0.2281 -0.2858
14567TIP3    H265193   2.974   4.129  12.849  0.4364  1.5814 -1.2018
14568TIP3   OH265194   4.735   5.233  17.136  0.2027  0.3605 -0.2056
14568TIP3    H165195   4.669   5.267  17.196  0.8088  0.1436  0.5852
14568TIP3    H265196   4.729   5.138  17.145  0.0434  0.3159 -0.7619
14569TIP3   OH265197   2.539   2.642  11.278  0.6707 -0.3818  0.1946
14569TIP3    H165198   2.614   2.583  11.289 -1.3605 -2.9469  0.7910
14569TIP3    H265199   2.484   2.598  11.213 -0.9011  0.8715  0.6607
14570TIP3   OH265200   4.137   6.366   2.602  0.6217  0.2945  0.5231
14570TIP3    H165201   4.087   6.285   2.600 -1.0025  1.2688 -2.8262
14570TIP3    H265202   4.228   6.339   2.595  0.1111 -1.2468 -0.2340
14571TIP3   OH265203   4.375   5.565  14.527  0.1063  0.2161  0.0134
14571TIP3    H165204   4.304   5.621  14.495 -0.5915 -0.4415  0.3715
14571TIP3    H265205   4.395   5.508  14.452 -1.1491 -0.9528  0.5355
14572TIP3   OH265206   4.644   3.690  12.978 -0.3150  0.0649 -0.2431
14572TIP3    H165207   4.735   3.703  12.950 -0.2397 -0.7643 -0.4097
14572TIP3    H265208   4.636   3.744  13.057  0.7436 -0.8951  0.5608
14573TIP3   OH265209   0.352   4.597  13.321 -0.3086  0.2448 -0.5444
14573TIP3    H165210   0.360   4.603  13.226 -0.6696  1.4129 -0.5060
14573TIP3    H265211   0.437   4.625  13.355  0.5655 -2.2309 -0.5589
14574TIP3   OH265212   2.265   1.512  16.423 -0.2614  0.0879 -0.5169
14574TIP3    H165213   2.232   1.593  16.385  1.6611  1.1635  0.0147
14574TIP3    H265214   2.228   1.509  16.511 -1.9366 -0.6480 -1.2303
14575TIP3   OH265215   0.342   4.054   1.079 -0.1963  0.3421 -0.2214
14575TIP3    H165216   0.259   4.027   1.118  0.4533 -0.5100  0.5910
14575TIP3    H265217   0.316   4.107   1.004 -1.4703  0.7205  0.4616
14576TIP3   OH265218   2.751   4.922  15.014  0.5666 -0.4038  0.3177
14576TIP3    H165219   2.774   4.836  14.980 -0.3956  0.6219 -3.1786
14576TIP3    H265220   2.655   4.925  15.012  0.5915  1.8311 -2.8558
14577TIP3   OH265221   2.343   5.379   5.953  0.4907  0.9166 -1.0738
14577TIP3    H165222   2.308   5.461   5.919 -0.2170  1.0000 -0.1705
14577TIP3    H265223   2.362   5.397   6.045  2.7956  0.8283 -1.4808
14578TIP3   OH265224   1.748   0.929   5.123  0.3684  0.0079  0.2164
14578TIP3    H165225   1.748   1.025   5.122 -0.6424  0.0159 -0.9072
14578TIP3    H265226   1.836   0.905   5.150  0.4177  1.2626  1.2221
14579TIP3   OH265227   0.847   3.191  11.084 -1.1546 -0.7986  0.0103
14579TIP3    H165228   0.826   3.097  11.084 -2.0272 -0.6233  1.5998
14579TIP3    H265229   0.783   3.230  11.144  0.5692  0.4892  1.0666
14580TIP3   OH265230   1.962   5.916  14.662 -0.0988  0.1031 -0.2492
14580TIP3    H165231   2.029   5.980  14.683 -0.1520  0.3538 -0.8372
14580TIP3    H265232   1.916   5.953  14.586 -0.5002 -0.3541 -0.2305
14581TIP3   OH265233   2.696   1.919  12.628 -0.6386 -0.1844  0.3864
14581TIP3    H165234   2.634   1.906  12.700 -0.6411 -0.9111  0.2517
14581TIP3    H265235   2.713   2.013  12.629 -0.1918 -0.2597  1.7169
14582TIP3   OH265236   4.393   0.576   0.058  0.4177 -0.0927  0.0187
14582TIP3    H165237   4.478   0.614   0.037  0.9441 -0.0676  2.0398
14582TIP3    H265238   4.337   0.651   0.079  0.0008 -0.1304 -0.9580
14583TIP3   OH265239   0.412   1.256   1.930  0.4694 -0.7392 -0.6970
14583TIP3    H165240   0.419   1.352   1.920 -1.3539 -0.4846  0.4440
14583TIP3    H265241   0.501   1.229   1.953  0.3404  1.0880  2.1879
14584TIP3   OH265242   1.862   4.263  11.930  0.2903  0.4354  0.7995
14584TIP3    H165243   1.879   4.334  11.867  1.0351  0.2866  0.8353
14584TIP3    H265244   1.848   4.186  11.875  0.1744  0.4647  0.7884
14585TIP3   OH265245   3.309   1.001   1.410 -0.0822 -0.0080  0.6605
14585TIP3    H165246   3.352   0.930   1.458 -0.2853 -0.6838 -0.1369
14585TIP3    H265247   3.372   1.073   1.411  0.0006 -0.0854  1.7519
14586TIP3   OH265248   4.016   5.190  13.852  0.4279 -0.1313  0.1587
14586TIP3    H165249   4.055   5.228  13.774  0.9784  0.0550  0.5171
14586TIP3    H265250   3.993   5.266  13.907 -0.1156 -0.2537  0.0996
14587TIP3   OH265251   2.319   6.357   1.361 -0.5591 -0.4095 -0.0719
14587TIP3    H165252   2.377   6.296   1.406 -1.4560 -1.3726 -0.2103
14587TIP3    H265253   2.241   6.361   1.416 -0.5779  0.4880 -0.1524
14588TIP3   OH265254   0.474   1.330  16.222  0.1909 -0.0722  0.3779
14588TIP3    H165255   0.517   1.400  16.271 -2.6994  2.3542 -0.3891
14588TIP3    H265256   0.406   1.298  16.281  1.5056 -2.2826  0.7216
14589TIP3   OH265257   1.889   2.487   5.635  0.0996 -0.3632 -0.0573
14589TIP3    H165258   1.855   2.398   5.641 -1.3022  0.0706 -1.2054
14589TIP3    H265259   1.849   2.534   5.708 -1.2953 -0.0148 -1.0283
14590TIP3   OH265260   1.385   6.786   0.894 -0.1068  0.3127 -0.3797
14590TIP3    H165261   1.413   6.828   0.813 -0.7246 -1.3729 -1.4736
14590TIP3    H265262   1.455   6.724   0.915  0.7811  1.8046  1.2086
14591TIP3   OH265263   2.264   0.573   5.469 -0.0823  0.0190  0.2097
14591TIP3    H165264   2.235   0.489   5.504  0.2069 -1.7309 -3.5104
14591TIP3    H265265   2.359   0.572   5.478 -0.1369  0.2353  0.7923
14592TIP3   OH265266   5.143   1.909  14.240 -0.4060  0.1168  0.4330
14592TIP3    H165267   5.120   1.819  14.264 -0.1833 -0.2562 -0.7180
14592TIP3    H265268   5.083   1.964  14.292  1.8467 -0.5182  3.8765
14593TIP3   OH265269   2.115   2.625  15.274  0.0936 -0.0006 -0.5444
14593TIP3    H165270   2.142   2.551  15.220  1.2295  0.2029 -0.2784
14593TIP3    H265271   2.088   2.586  15.357 -0.9785 -0.2536 -1.0046
14594TIP3   OH265272   1.211   4.430  16.944  0.6416  0.4828  0.0018
14594TIP3    H165273   1.249   4.400  17.027 -1.6741  0.9036  1.2689
14594TIP3    H265274   1.212   4.352  16.888 -1.4873 -0.9230  1.8429
14595TIP3   OH265275   5.501   4.081  17.143 -0.2187 -0.0249 -0.5057
14595TIP3    H165276   5.407   4.082  17.129 -0.3557  2.4171  0.2503
14595TIP3    H265277   5.514   4.136  17.220  1.7185 -1.3107  0.1019
14596TIP3   OH265278   5.682   0.731   6.226 -0.0922  0.3127 -0.5468
14596TIP3    H165279   5.735   0.774   6.292  1.5618  0.0491 -1.6722
14596TIP3    H265280   5.600   0.780   6.225  0.9521  2.0892 -0.3074
14597TIP3   OH265281   0.290   2.313   1.524  0.3350 -0.1466 -0.2258
14597TIP3    H165282   0.379   2.298   1.494 -0.1704 -0.4356 -1.6422
14597TIP3    H265283   0.299   2.373   1.598  1.7087 -0.3712 -0.1954
14598TIP3   OH265284   5.861   6.000   0.654  0.3943  0.2491  0.1459
14598TIP3    H165285   5.896   5.931   0.599  1.4637 -1.2564  2.6311
14598TIP3    H265286   5.783   5.962   0.694  0.4939  0.7834  0.8561
14599TIP3   OH265287   0.355   3.671  16.533 -0.3833  0.0011 -0.2816
14599TIP3    H165288   0.275   3.715  16.562 -0.0083  0.5331 -0.0509
14599TIP3    H265289   0.325   3.585  16.502 -1.3143  0.9392 -2.0606
14600TIP3   OH265290   4.492   0.670  11.371 -0.1708 -0.3978 -0.4950
14600TIP3    H165291   4.545   0.597  11.339 -0.5150 -0.1382 -1.6775
14600TIP3    H265292   4.471   0.721  11.292 -0.8578  0.3650  0.1743
14601TIP3   OH265293   1.361   3.022  14.202  0.8007  0.5696  0.8086
14601TIP3    H165294   1.295   2.986  14.262 -0.6699  0.1412 -0.9970
14601TIP3    H265295   1.379   3.109  14.236 -0.3250  0.4931  1.6503
14602TIP3   OH265296   1.850   2.951  16.396 -0.0493 -0.1788  0.2381
14602TIP3    H165297   1.777   2.943  16.335 -0.3610 -1.5655  0.7778
14602TIP3    H265298   1.842   3.040  16.431  1.4165  1.4363 -3.2877
14603TIP3   OH265299   5.157   5.664  13.958 -0.1496  0.5833  0.4577
14603TIP3    H165300   5.202   5.732  13.908 -0.8924  2.4228  2.2410
14603TIP3    H265301   5.203   5.661  14.042  0.1983 -1.5014  0.2369
14604TIP3   OH265302   3.765   3.822  15.484 -0.3123  0.1363 -0.1355
14604TIP3    H165303   3.814   3.819  15.401  1.6468 -0.7136  1.0223
14604TIP3    H265304   3.676   3.797  15.460 -0.0514  1.0136 -2.1714
14605TIP3   OH265305   0.236   2.241  11.241 -0.0516 -0.0297  0.2496
14605TIP3    H165306   0.192   2.268  11.322 -0.1358 -0.9132  0.5025
14605TIP3    H265307   0.209   2.307  11.176 -0.6496  0.2085  0.7337
14606TIP3   OH265308   1.331   4.563  11.908 -0.3260  0.3579  0.4286
14606TIP3    H165309   1.271   4.569  11.834 -0.2979  0.0064  0.3749
14606TIP3    H265310   1.288   4.612  11.978  0.0764  1.4653 -0.0889
14607TIP3   OH265311   2.782   0.995   5.998 -0.3538  0.5627  0.1031
14607TIP3    H165312   2.740   1.057   6.057 -1.1866 -0.3230  0.4490
14607TIP3    H265313   2.735   0.913   6.012  0.0872  0.1002 -1.0795
14608TIP3   OH265314   1.795   0.350   2.212  0.5982  0.1738 -0.1524
14608TIP3    H165315   1.762   0.265   2.240  2.9220 -0.3674  1.1237
14608TIP3    H265316   1.750   0.414   2.267 -0.4163 -0.3134 -0.4225
14609TIP3   OH265317   5.690   5.619  13.337 -0.0210  0.3313  0.2865
14609TIP3    H165318   5.775   5.654  13.309 -0.0092  1.4031  1.5804
14609TIP3    H265319   5.676   5.659  13.423 -2.4565  1.1984 -0.4817
14610TIP3   OH265320   2.588   4.627   2.079  0.2384  0.6914 -0.0541
14610TIP3    H165321   2.648   4.650   2.008  0.1784 -1.1102 -0.7281
14610TIP3    H265322   2.501   4.633   2.039  0.1863 -0.0205 -0.0479
14611TIP3   OH265323   3.873   5.817  16.980 -0.7393 -0.1816  1.1195
14611TIP3    H165324   3.957   5.835  16.939 -1.5253  1.7823  0.3022
14611TIP3    H265325   3.856   5.894  17.035 -3.1716  0.6904 -0.7387
14612TIP3   OH265326   2.976   2.045  15.616 -0.4282  0.2990  0.2070
14612TIP3    H165327   2.931   1.975  15.663 -0.2215  0.2025  0.2629
14612TIP3    H265328   2.920   2.122  15.627  0.2594  0.6006  1.7082
14613TIP3   OH265329   4.114   0.167   5.709 -0.6252 -0.2916 -0.7712
14613TIP3    H165330   4.127   0.258   5.735  0.2953 -0.5134 -0.4252
14613TIP3    H265331   4.064   0.128   5.780  0.7953 -0.5779  0.0962
14614TIP3   OH265332   2.857   4.794  15.652  0.3099  0.1294  0.1202
14614TIP3    H165333   2.899   4.713  15.681  3.5732  2.0558  1.0588
14614TIP3    H265334   2.835   4.840  15.733  1.7153  1.7238 -0.3742
14615TIP3   OH265335   4.550   5.288   4.178  0.4076  0.1697 -0.1658
14615TIP3    H165336   4.505   5.363   4.138 -1.1664  0.1503  1.4873
14615TIP3    H265337   4.643   5.311   4.175 -0.0617  2.2523  0.4561
14616TIP3   OH265338   4.278   6.718   5.768 -0.0090 -0.5987  0.7810
14616TIP3    H165339   4.202   6.759   5.810  0.8228  1.0483  0.7261
14616TIP3    H265340   4.306   6.782   5.703  0.4668 -1.8926 -0.3007
14617TIP3   OH265341   3.161   1.381  13.385 -0.0199 -0.1060  0.9752
14617TIP3    H165342   3.221   1.422  13.447 -1.4874  1.6288  1.2873
14617TIP3    H265343   3.197   1.401  13.299  0.8052 -0.5964  1.2075
14618TIP3   OH265344   3.112   2.710   3.479  0.0332  0.7200 -0.2837
14618TIP3    H165345   3.129   2.616   3.467  0.3461  0.4012  2.2800
14618TIP3    H265346   3.198   2.747   3.501 -0.4798  1.2081  0.9136
14619TIP3   OH265347   3.258   4.392   1.849  0.4914  0.6636  0.0259
14619TIP3    H165348   3.188   4.418   1.789  0.7140 -0.6479 -0.8248
14619TIP3    H265349   3.304   4.474   1.869 -0.7858  1.4059 -0.0435
14620TIP3   OH265350   2.845   0.022  12.158 -0.3133 -0.5892  0.3740
14620TIP3    H165351   2.842  -0.022  12.073  1.6372 -0.4621  0.2297
14620TIP3    H265352   2.889   0.105  12.141  0.0877 -0.5631  1.5158
14621TIP3   OH265353   4.697   6.494   1.953  0.1132  0.4681 -0.1453
14621TIP3    H165354   4.622   6.531   2.001  0.8819  1.2780  0.4559
14621TIP3    H265355   4.673   6.505   1.861 -1.0166 -0.3482  0.0394
14622TIP3   OH265356   2.744   6.063  12.658 -0.0121 -0.6069 -0.8349
14622TIP3    H165357   2.678   5.996  12.640 -1.2052  0.6560 -1.2110
14622TIP3    H265358   2.760   6.056  12.752 -1.3202 -0.3297 -0.5868
14623TIP3   OH265359   5.868   1.958  13.820 -0.1002  0.1479 -0.2288
14623TIP3    H165360   5.930   2.023  13.786  0.3534 -0.7049 -1.0925
14623TIP3    H265361   5.782   1.991  13.795  0.2198 -0.3503 -2.0444
14624TIP3   OH265362   0.418   1.501  12.824 -0.8590 -0.7419  0.5383
14624TIP3    H165363   0.449   1.502  12.914  3.9950 -0.4716 -1.0377
14624TIP3    H265364   0.426   1.591  12.794  0.3080 -1.3547 -1.0409
14625TIP3   OH265365   6.140   1.071   6.175  0.0233 -0.2466  0.1713
14625TIP3    H165366   6.192   1.020   6.237  1.6624  0.9317 -0.1946
14625TIP3    H265367   6.145   1.161   6.206 -0.0964  0.1870 -1.0088
14626TIP3   OH265368   3.222   1.631  14.976  0.1043 -0.1773  0.6215
14626TIP3    H165369   3.168   1.554  14.958  1.0233 -0.6622 -0.1174
14626TIP3    H265370   3.310   1.605  14.949  0.5771  0.8474  1.1546
14627TIP3   OH265371   4.091   2.247   3.404 -0.5758  0.1312 -0.1095
14627TIP3    H165372   4.151   2.274   3.474  0.1168  0.3318 -0.7698
14627TIP3    H265373   4.006   2.238   3.447 -0.0758 -0.1345  0.8428
14628TIP3   OH265374   0.358   6.215  11.122 -0.7495 -0.3304  0.4311
14628TIP3    H165375   0.379   6.128  11.089 -1.0687 -0.9244  1.7676
14628TIP3    H265376   0.359   6.271  11.044  1.4429 -1.1338 -0.1519
14629TIP3   OH265377   5.614   4.871  11.824 -0.3355  0.3605 -0.4805
14629TIP3    H165378   5.657   4.945  11.782  1.7814 -1.6825 -1.9888
14629TIP3    H265379   5.571   4.823  11.753  0.5345 -1.3252  0.0911
14630TIP3   OH265380   4.057   3.477   4.983  0.4584 -0.1923  0.2826
14630TIP3    H165381   4.084   3.567   4.971 -2.1599  0.5198 -0.8297
14630TIP3    H265382   4.138   3.426   4.980  1.7964  1.9488 -0.8842
14631TIP3   OH265383   5.435   6.304   6.261  0.0579 -0.7065  0.2556
14631TIP3    H165384   5.503   6.314   6.328  0.0041 -2.8440  0.6512
14631TIP3    H265385   5.483   6.286   6.181  0.2020  3.2503 -0.6533
14632TIP3   OH265386   4.809   0.057  13.965 -0.5311  0.4034  0.2700
14632TIP3    H165387   4.762  -0.008  14.017 -1.2911  0.8356  0.1396
14632TIP3    H265388   4.857   0.109  14.030  2.4743 -2.1361  0.1549
14633TIP3   OH265389   3.837   6.002   5.507  0.1101 -0.4615 -0.1825
14633TIP3    H165390   3.796   6.088   5.519  0.8138 -0.3446  1.4595
14633TIP3    H265391   3.785   5.943   5.562  0.9657 -0.6881  0.3779
14634TIP3   OH265392   6.517   4.659  10.737  0.1825 -0.3010  1.1030
14634TIP3    H165393   6.576   4.586  10.754  2.3218  0.3642 -2.8344
14634TIP3    H265394   6.446   4.621  10.686  0.1817 -0.0205  0.8964
14635TIP3   OH265395   3.228   1.943  14.244  0.2299  0.1466  0.2080
14635TIP3    H165396   3.206   1.851  14.261 -0.7751  0.4460  0.5950
14635TIP3    H265397   3.260   1.943  14.154 -3.1486 -0.0698 -1.0795
14636TIP3   OH265398   3.125   6.795   0.262 -0.7082 -0.0514 -0.2872
14636TIP3    H165399   3.078   6.806   0.179 -0.2002  0.6238 -0.4907
14636TIP3    H265400   3.064   6.826   0.328 -0.5402  0.8780 -0.5556
14637TIP3   OH265401   2.418   5.970  10.437  0.2990 -0.5912  0.2104
14637TIP3    H165402   2.390   6.024  10.511 -1.4739 -1.7055  0.3803
14637TIP3    H265403   2.508   5.946  10.458  0.7166  1.3346  0.6770
14638TIP3   OH265404   3.809   2.627   2.178 -0.5108 -0.6626  0.1191
14638TIP3    H165405   3.727   2.604   2.133  0.3376  0.1485 -1.8404
14638TIP3    H265406   3.781   2.687   2.248 -1.6221 -0.6591 -0.3132
14639TIP3   OH265407   1.419   4.836  12.676 -0.1288  0.4604  0.0538
14639TIP3    H165408   1.329   4.808  12.662 -0.5758  1.7131  0.2968
14639TIP3    H265409   1.466   4.757  12.701 -1.3810 -0.0262  0.9035
14640TIP3   OH265410   1.447   3.251  16.897  0.4720  0.1994  0.3812
14640TIP3    H165411   1.355   3.274  16.907  0.4167  0.7060 -1.2001
14640TIP3    H265412   1.464   3.188  16.967 -0.9200  0.5283  1.0273
14641TIP3   OH265413   0.274   1.487   1.347  0.0160  0.5310 -0.3253
14641TIP3    H165414   0.268   1.543   1.269  0.4507 -0.8491 -1.3571
14641TIP3    H265415   0.303   1.547   1.416 -0.5789  1.8207 -1.1570
14642TIP3   OH265416   1.713   4.086   0.312  0.3042 -0.2521  0.0831
14642TIP3    H165417   1.776   4.048   0.372  0.8205  1.8089  0.8705
14642TIP3    H265418   1.761   4.155   0.266  0.0065 -1.9158 -2.9086
14643TIP3   OH265419   3.515   4.960   0.775 -0.2897 -0.4183  0.2164
14643TIP3    H165420   3.580   4.931   0.711 -1.8291 -0.4381 -1.3810
14643TIP3    H265421   3.516   4.892   0.842  1.3267 -0.4180  0.2150
14644TIP3   OH265422   5.577   2.100  13.153 -0.2411 -0.4981 -0.0809
14644TIP3    H165423   5.672   2.101  13.163 -0.1464 -0.0090 -1.0450
14644TIP3    H265424   5.562   2.103  13.059 -1.2201 -0.0657  0.0780
14645TIP3   OH265425   5.960   0.954   4.321 -0.1363 -0.3363  0.8529
14645TIP3    H165426   6.045   0.993   4.302 -1.0089  1.6399  0.8825
14645TIP3    H265427   5.978   0.887   4.386  1.4723 -0.2980  0.4568
14646TIP3   OH265428   5.383   0.508   6.175 -0.2308  0.0852  0.4685
14646TIP3    H165429   5.413   0.588   6.132  0.9611 -0.0139  1.0742
14646TIP3    H265430   5.442   0.498   6.250 -0.4991 -1.2384  0.5196
14647TIP3   OH265431   3.167   4.639  11.221  0.4094  0.0942  0.3296
14647TIP3    H165432   3.151   4.547  11.202  0.7783 -0.0576  0.7398
14647TIP3    H265433   3.179   4.642  11.316 -0.5641  0.7077  0.4325
14648TIP3   OH265434   3.903   0.599  13.761  0.2173  0.1246 -0.5493
14648TIP3    H165435   3.829   0.541  13.777  0.0819 -0.2267 -2.3320
14648TIP3    H265436   3.976   0.541  13.742  1.7922  0.3528  4.1867
14649TIP3   OH265437   1.710   4.004   0.748  0.0060 -0.1730  0.4096
14649TIP3    H165438   1.650   4.064   0.794 -1.5553  0.0090 -1.7940
14649TIP3    H265439   1.797   4.036   0.771 -0.7563  0.9093  1.9195
14650TIP3   OH265440   1.006   4.105   1.468 -0.0118 -0.8433 -0.6820
14650TIP3    H165441   0.927   4.075   1.513  0.0221 -1.2980 -0.9250
14650TIP3    H265442   0.975   4.176   1.412 -0.3590 -1.4123 -1.2167
14651TIP3   OH265443   2.812   0.594   1.313  0.4539 -0.5269  0.1439
14651TIP3    H165444   2.857   0.626   1.234  0.4600  0.2537  0.4599
14651TIP3    H265445   2.873   0.531   1.351  0.7668 -0.3641 -0.0787
14652TIP3   OH265446   3.702   6.429   5.028 -0.4923  0.1734 -0.2942
14652TIP3    H165447   3.656   6.390   5.102 -0.3157 -0.2209 -0.3947
14652TIP3    H265448   3.766   6.363   5.001 -0.2022  0.5252 -0.4679
14653TIP3   OH265449   6.026   4.721   5.752 -0.1372 -0.0197  0.0028
14653TIP3    H165450   6.112   4.761   5.768 -0.4133  1.2031 -1.4568
14653TIP3    H265451   5.992   4.703   5.840  0.7149  1.4317  0.6678
14654TIP3   OH265452   2.709   5.320  12.953  0.5698  0.0131  0.4033
14654TIP3    H165453   2.658   5.247  12.990 -0.9524  0.1156 -1.4172
14654TIP3    H265454   2.718   5.381  13.026 -1.7541 -0.1137  0.8524
14655TIP3   OH265455   1.486   2.078  12.142  0.4364  0.0944 -1.1431
14655TIP3    H165456   1.484   2.131  12.062 -1.4848 -1.4608 -2.1530
14655TIP3    H265457   1.413   2.110  12.194  2.0791  1.5512  0.3332
14656TIP3   OH265458   5.325   5.001   6.016 -0.6291 -0.3610 -0.2723
14656TIP3    H165459   5.331   5.078   6.073  0.5544 -1.3317  0.9332
14656TIP3    H265460   5.389   4.940   6.052 -0.9016 -1.5501 -1.7906
14657TIP3   OH265461   4.525   0.311  12.709 -0.4572 -0.0755 -0.4313
14657TIP3    H165462   4.438   0.340  12.684 -0.4015  0.9355  0.4677
14657TIP3    H265463   4.518   0.293  12.803  0.5108  0.8914 -0.1590
14658TIP3   OH265464   0.601   1.092   3.211  0.1970 -0.3728  0.2152
14658TIP3    H165465   0.594   1.008   3.257  2.2558 -0.1292  0.9887
14658TIP3    H265466   0.595   1.158   3.279 -1.6926  0.1656 -0.4224
14659TIP3   OH265467   3.037   2.677  13.112 -0.2227 -0.1303  0.3768
14659TIP3    H165468   3.008   2.747  13.053  0.8308 -1.1715 -1.4141
14659TIP3    H265469   3.116   2.712  13.153  0.6152 -0.4545 -0.9275
14660TIP3   OH265470   4.135   3.704   2.101 -0.3827 -0.3836  0.2589
14660TIP3    H165471   4.064   3.639   2.101 -1.4017  0.7136  1.2362
14660TIP3    H265472   4.185   3.684   2.180  0.2038 -0.9359 -0.2473
14661TIP3   OH265473   0.076   1.461   0.791  0.0923  0.1806 -0.4029
14661TIP3    H165474   0.039   1.524   0.852  1.2276 -0.6051  1.1350
14661TIP3    H265475   0.129   1.513   0.731  2.2110  0.5717  1.7477
14662TIP3   OH265476   3.438   6.633  15.105 -0.2515  0.3441 -0.3545
14662TIP3    H165477   3.400   6.566  15.162  0.8970  0.7751  0.9372
14662TIP3    H265478   3.393   6.714  15.130 -0.0466  0.4592 -0.3571
14663TIP3   OH265479   5.305   1.287   2.589  0.6010  0.1352 -0.4124
14663TIP3    H165480   5.308   1.378   2.560 -1.2641  0.3840  0.1332
14663TIP3    H265481   5.285   1.293   2.683  2.2689 -0.7852  0.0207
14664TIP3   OH265482   6.012   0.365  15.007  0.5900 -0.1923  0.5164
14664TIP3    H165483   6.066   0.444  15.007  0.3886 -0.0239  2.3766
14664TIP3    H265484   5.955   0.375  14.931  1.2320  0.9798  0.1722
14665TIP3   OH265485   5.733   6.437   1.551  0.4962  0.4699 -0.1816
14665TIP3    H165486   5.764   6.354   1.588 -1.0358 -0.0340  0.0132
14665TIP3    H265487   5.769   6.439   1.463  1.0584 -0.1097  0.0304
14666TIP3   OH265488   1.188   6.188  13.838 -0.1614  0.1219  0.2491
14666TIP3    H165489   1.272   6.203  13.882 -1.0641  2.1369  1.3267
14666TIP3    H265490   1.175   6.265  13.784 -1.3400 -0.1718  0.1124
14667TIP3   OH265491   4.389   1.799   1.516 -0.0023  0.5562  0.9400
14667TIP3    H165492   4.336   1.877   1.531 -0.6364 -0.1184  2.3158
14667TIP3    H265493   4.349   1.732   1.571 -0.1749 -1.0701 -1.1038
14668TIP3   OH265494   5.338   6.708  15.251  0.0010 -0.0121 -0.3241
14668TIP3    H165495   5.420   6.742  15.286  1.5359 -2.0812 -1.7535
14668TIP3    H265496   5.320   6.763  15.175 -0.5333  1.1445  0.6338
14669TIP3   OH265497   0.848   5.932   4.833 -0.2323  0.1375 -0.2221
14669TIP3    H165498   0.772   5.878   4.856  0.1953 -0.7328 -0.7907
14669TIP3    H265499   0.899   5.937   4.914 -0.5144  0.0805 -0.0404
14670TIP3   OH265500   2.936   1.082  13.642 -0.1837 -0.0002 -0.0174
14670TIP3    H165501   2.867   1.042  13.589  0.4565 -0.0618 -0.8157
14670TIP3    H265502   2.941   1.172  13.609  0.0784  0.0222  0.0847
14671TIP3   OH265503   4.700   1.896  14.768 -0.2174  0.3317  0.2530
14671TIP3    H165504   4.616   1.940  14.777 -0.6116 -0.6148  1.4160
14671TIP3    H265505   4.764   1.966  14.754 -0.8045  1.2727  2.1870
14672TIP3   OH265506   0.132   3.738   0.553 -0.2781 -0.0942 -0.3404
14672TIP3    H165507   0.174   3.653   0.540  1.1689  0.2852  1.5766
14672TIP3    H265508   0.055   3.719   0.605 -0.9590 -0.4480 -1.4675
14673TIP3   OH265509   4.627   1.827  11.970  1.0007 -0.2954  0.3508
14673TIP3    H165510   4.694   1.760  11.987  0.6146 -0.5708  0.8089
14673TIP3    H265511   4.573   1.828  12.049  0.4060 -0.1401 -0.0482
14674TIP3   OH265512   2.434   3.336  10.494  0.1412 -0.0850  0.0309
14674TIP3    H165513   2.378   3.259  10.504 -1.2659  1.0577  1.1010
14674TIP3    H265514   2.522   3.300  10.484 -0.6320 -1.8663 -0.6017
14675TIP3   OH265515   0.744   3.843  16.482  0.2671 -0.3701 -1.0247
14675TIP3    H165516   0.825   3.876  16.521 -0.2494  2.2220 -2.0825
14675TIP3    H265517   0.675   3.869  16.544 -0.0974  0.0528 -1.6111
14676TIP3   OH265518   6.358   3.961  16.063 -0.1189 -0.2267 -0.1453
14676TIP3    H165519   6.425   3.927  16.122  2.4605  0.9481 -2.3335
14676TIP3    H265520   6.298   3.887  16.051 -1.5687 -0.0858  4.9857
14677TIP3   OH265521   4.889   2.985   3.748  0.4551 -0.4768  0.3787
14677TIP3    H165522   4.891   2.890   3.745  0.1885 -0.4885  0.5420
14677TIP3    H265523   4.839   3.005   3.828 -1.8138 -0.2018 -1.0588
14678TIP3   OH265524   1.533   4.773  14.369 -0.1561 -0.0898 -0.1485
14678TIP3    H165525   1.507   4.684  14.342  0.0935  0.2275 -1.4781
14678TIP3    H265526   1.600   4.798  14.305 -0.2877  1.0853  0.1738
14679TIP3   OH265527   4.192   3.658  16.070  0.0279  0.1563  0.4605
14679TIP3    H165528   4.251   3.593  16.032  0.2401  0.2922  0.5585
14679TIP3    H265529   4.110   3.610  16.085 -0.4800  0.4080 -1.3360
14680TIP3   OH265530   5.536   5.456   1.351  0.2012 -0.2799 -0.1459
14680TIP3    H165531   5.475   5.496   1.290 -0.0444  0.1629  0.3851
14680TIP3    H265532   5.622   5.490   1.326  0.1495 -0.3876 -0.4723
14681TIP3   OH265533   1.795   1.846   1.083 -0.1315 -0.2299  0.0120
14681TIP3    H165534   1.711   1.828   1.124 -1.1030 -0.1870 -1.9056
14681TIP3    H265535   1.851   1.773   1.111 -0.9978 -0.6420  0.7151
14682TIP3   OH265536   0.675   5.854   5.749 -0.0880 -0.3666  0.3853
14682TIP3    H165537   0.610   5.919   5.722  0.5937 -0.3475 -1.3039
14682TIP3    H265538   0.737   5.902   5.803 -0.1272  0.1654 -0.0434
14683TIP3   OH265539   3.921   3.504   5.632 -0.9790  0.5654  0.0635
14683TIP3    H165540   3.830   3.532   5.622 -1.8193 -2.1930 -0.2702
14683TIP3    H265541   3.917   3.409   5.636  1.7103  0.4673  2.0947
14684TIP3   OH265542   1.275   2.418  12.052 -0.3259  0.3492 -1.0232
14684TIP3    H165543   1.344   2.470  12.011 -0.2171  0.9175 -0.1303
14684TIP3    H265544   1.223   2.386  11.979  0.2619  0.7963 -1.6452
14685TIP3   OH265545   1.994   2.321  14.302  0.1360  0.6939 -0.0822
14685TIP3    H165546   1.941   2.400  14.291 -0.1744  0.4931 -0.0683
14685TIP3    H265547   2.057   2.343  14.371 -0.0031  0.9025 -0.0193
14686TIP3   OH265548   0.454   4.062  15.500 -0.3965 -0.9693  0.0074
14686TIP3    H165549   0.536   4.101  15.530  0.9100 -1.9745 -2.1235
14686TIP3    H265550   0.465   4.052  15.405 -0.8726 -5.8197  0.3093
14687TIP3   OH265551   6.469   1.589   2.306  0.1348 -0.0902 -0.5516
14687TIP3    H165552   6.521   1.630   2.375 -0.7313 -0.5403  0.3713
14687TIP3    H265553   6.531   1.576   2.234  1.3301 -0.7618  0.5905
14688TIP3   OH265554   0.210   3.918   6.375  0.0526 -0.0502  0.3412
14688TIP3    H165555   0.213   3.827   6.406 -0.4082 -1.1803 -2.7027
14688TIP3    H265556   0.301   3.941   6.360  0.3230  0.6902  2.9140
14689TIP3   OH265557   3.018   1.402  12.476 -0.6241  0.3062  0.2101
14689TIP3    H165558   3.044   1.414  12.567  0.4459 -0.2285 -0.0213
14689TIP3    H265559   3.075   1.460  12.426 -0.1460 -0.5663 -0.2624
14690TIP3   OH265560   0.083   5.762  11.474  0.4038 -0.1150  0.3884
14690TIP3    H165561   0.082   5.667  11.473 -1.8442 -0.1310 -1.0730
14690TIP3    H265562   0.131   5.787  11.396  0.5821 -0.0594  0.5163
14691TIP3   OH265563   1.398   2.723   1.467 -0.6007 -1.1041  0.3369
14691TIP3    H165564   1.417   2.780   1.542 -0.0765 -0.2331 -0.4442
14691TIP3    H265565   1.308   2.744   1.443 -0.3277 -0.4179 -0.1020
14692TIP3   OH265566   4.217   0.492   2.317  0.4584  0.0995  0.7350
14692TIP3    H165567   4.214   0.396   2.315  2.3496  0.0058  1.5331
14692TIP3    H265568   4.147   0.517   2.377 -0.6942 -0.7308 -0.2507
14693TIP3   OH265569   3.919   1.155   3.845  0.0357  0.0478  0.5107
14693TIP3    H165570   3.935   1.121   3.757 -0.7732  2.1669 -0.4911
14693TIP3    H265571   3.850   1.098   3.881 -0.2236 -0.3136 -0.5519
14694TIP3   OH265572   0.530   0.447   2.849 -0.1525  0.1721 -0.3444
14694TIP3    H165573   0.508   0.419   2.938  2.8049  1.1644  0.7433
14694TIP3    H265574   0.620   0.418   2.836  1.0858  4.1469 -1.2358
14695TIP3   OH265575   1.716   4.357   1.033 -0.9811  0.1478 -0.0977
14695TIP3    H165576   1.733   4.301   1.108  0.5441  0.9973  0.2164
14695TIP3    H265577   1.801   4.397   1.013 -1.9387  1.9950 -0.5899
14696TIP3   OH265578   1.756   6.351   0.975 -0.2126  0.0651  0.4941
14696TIP3    H165579   1.667   6.316   0.977 -0.7684  1.4204  0.2901
14696TIP3    H265580   1.805   6.294   1.034 -0.4894 -2.5541 -1.7188
14697TIP3   OH265581   4.732   5.328   3.834 -0.2170  0.0713  0.8399
14697TIP3    H165582   4.707   5.401   3.890  2.0698  1.1252  0.5565
14697TIP3    H265583   4.781   5.269   3.891  1.4563  0.7734  0.1561
14698TIP3   OH265584   1.446   1.976   1.892  0.7988  0.0979  0.6057
14698TIP3    H165585   1.365   2.000   1.848 -0.0895  1.0447  2.6655
14698TIP3    H265586   1.479   2.059   1.928  1.5957 -0.6082  1.5229
14699TIP3   OH265587   4.080   1.438   3.680 -0.5013 -0.0636  0.3223
14699TIP3    H165588   4.140   1.367   3.703 -0.3978  0.0800  0.4931
14699TIP3    H265589   3.999   1.393   3.655 -1.4503 -0.1452  3.4145
14700TIP3   OH265590   6.667   2.731  15.134  0.0656  0.2678 -0.4520
14700TIP3    H165591   6.673   2.655  15.192  0.1423 -0.0490 -0.8823
14700TIP3    H265592   6.701   2.701  15.050  0.1560  0.7947 -0.6049
14701TIP3   OH265593   1.266   3.167  12.306  0.4920 -0.2855 -0.5668
14701TIP3    H165594   1.358   3.181  12.328  0.2041 -0.1656  0.5641
14701TIP3    H265595   1.223   3.249  12.331 -0.2433 -1.0452  0.7030
14702TIP3   OH265596   0.145   3.978   2.665 -0.1166  0.1020 -0.2727
14702TIP3    H165597   0.241   3.985   2.668 -0.1147 -0.2354  0.6083
14702TIP3    H265598   0.125   3.903   2.721 -0.9932  1.0541  0.6982
14703TIP3   OH265599   2.840   1.490   3.848 -0.1593 -0.2569  0.1545
14703TIP3    H165600   2.768   1.507   3.787  0.5544  0.0951 -0.5934
14703TIP3    H265601   2.822   1.402   3.882 -0.6704 -0.3771 -0.4143
14704TIP3   OH265602   1.514   0.297  13.581  0.1099  0.5816  0.3906
14704TIP3    H165603   1.520   0.286  13.487  0.5550  2.5523  0.1662
14704TIP3    H265604   1.587   0.246  13.616  3.6060  4.5219 -0.7472
14705TIP3   OH265605   0.793   1.064  12.342  0.2238 -0.7503 -0.3278
14705TIP3    H165606   0.873   1.110  12.317  0.1777 -1.0476 -1.0497
14705TIP3    H265607   0.751   1.042  12.259 -0.4097 -0.9486  0.0383
14706TIP3   OH265608   1.306   6.785   5.996  0.2453  0.0165 -0.0116
14706TIP3    H165609   1.336   6.760   6.083  1.0086  1.1576  0.0538
14706TIP3    H265610   1.232   6.844   6.012  1.3707  1.4619 -0.1177
14707TIP3   OH265611   5.602   3.304   2.473  0.0316  0.0664 -0.7480
14707TIP3    H165612   5.613   3.388   2.429 -0.3569  0.0732 -0.8278
14707TIP3    H265613   5.513   3.305   2.507  0.6000  0.3992  0.7575
14708TIP3   OH265614   1.390   5.438   6.651  0.0946  0.2673 -0.1598
14708TIP3    H165615   1.436   5.355   6.660  1.5453  1.0840  0.0636
14708TIP3    H265616   1.354   5.454   6.739  1.0640  0.6016  0.1762
14709TIP3   OH265617   1.741   2.638  16.787  0.2578  0.2251  0.5809
14709TIP3    H165618   1.793   2.687  16.725  0.1104  0.6355  0.7811
14709TIP3    H265619   1.718   2.557  16.741 -0.1662  0.6905 -0.0320
14710TIP3   OH265620   6.087   5.048  16.286  0.2806 -0.6280  0.0870
14710TIP3    H165621   6.022   5.023  16.219 -0.0488  0.7413 -0.1220
14710TIP3    H265622   6.150   5.102  16.238  0.8406 -0.8510  0.5764
14711TIP3   OH265623   3.997   5.724  12.195  0.6423 -0.5535 -0.1852
14711TIP3    H165624   4.025   5.811  12.165 -1.1568  0.0186 -0.3278
14711TIP3    H265625   3.951   5.742  12.277 -0.0830 -1.3193 -0.4205
14712TIP3   OH265626   0.894   3.311  16.434 -0.7199 -0.1139 -0.2996
14712TIP3    H165627   0.831   3.262  16.488 -0.4451  0.6781  0.7521
14712TIP3    H265628   0.858   3.399  16.430  0.0834  0.2248 -0.0877
14713TIP3   OH265629   6.075   4.881   1.193 -0.1866 -0.0989  0.2060
14713TIP3    H165630   6.155   4.844   1.230  1.0664  0.2591 -2.0166
14713TIP3    H265631   6.013   4.808   1.191  1.3497 -1.4103 -1.5428
14714TIP3   OH265632   4.136   2.835  10.218 -0.0417 -0.1798 -0.8398
14714TIP3    H165633   4.071   2.893  10.179  0.5733  1.0376 -0.0862
14714TIP3    H265634   4.087   2.756  10.241 -1.1802  0.5880 -0.6111
14715TIP3   OH265635   3.632   6.027   4.205 -0.3330 -1.1435  0.0527
14715TIP3    H165636   3.718   6.029   4.163 -1.3332 -1.3896 -2.0496
14715TIP3    H265637   3.646   6.073   4.288  1.4103  0.4394 -1.0557
14716TIP3   OH265638   0.539   4.101   0.722  0.2430  0.4417  0.2652
14716TIP3    H165639   0.494   4.175   0.761 -0.1090 -0.0547  0.7992
14716TIP3    H265640   0.519   4.027   0.779 -0.4395 -0.3235 -0.9495
14717TIP3   OH265641   1.311   1.605   0.110  0.0934  0.2229 -0.5709
14717TIP3    H165642   1.351   1.568   0.031 -0.2797 -0.5793 -0.3946
14717TIP3    H265643   1.383   1.608   0.173  0.0075 -0.7305 -0.4159
14718TIP3   OH265644   0.151   1.847  14.665  0.0320 -0.5329 -0.5038
14718TIP3    H165645   0.234   1.824  14.622  0.2954  0.3064 -0.4538
14718TIP3    H265646   0.097   1.884  14.595 -1.0439 -2.8713 -0.9639
14719TIP3   OH265647   3.793   4.958  14.302  0.0757 -0.3073 -0.0970
14719TIP3    H165648   3.786   5.053  14.308 -0.4043 -0.2366 -1.4568
14719TIP3    H265649   3.754   4.926  14.383  0.8158  0.6715  0.6535
14720TIP3   OH265650   0.423   5.799  13.938 -0.3978 -0.0057 -0.2354
14720TIP3    H165651   0.331   5.779  13.919  0.1160 -0.8475 -1.9946
14720TIP3    H265652   0.470   5.772  13.859  1.5279 -0.7442  1.1218
14721TIP3   OH265653   3.081   2.580   1.322  0.0984  0.4897  0.2485
14721TIP3    H165654   3.056   2.669   1.348 -2.5637 -0.0797 -0.1433
14721TIP3    H265655   3.166   2.590   1.280  0.1469  2.7603  0.8088
14722TIP3   OH265656   4.827   0.476   4.893 -0.0795 -0.1936 -0.2915
14722TIP3    H165657   4.799   0.542   4.956 -0.0934 -1.3725  0.9424
14722TIP3    H265658   4.745   0.441   4.858 -0.1082 -1.3918  0.9702
14723TIP3   OH265659   6.170   1.541   2.034 -0.1194  0.5797  0.0141
14723TIP3    H165660   6.086   1.511   1.999  1.3272 -2.3521 -1.1224
14723TIP3    H265661   6.169   1.514   2.126  0.6522 -1.9212 -0.6848
14724TIP3   OH265662   1.771   1.036   4.110 -0.2109 -0.3272 -0.4168
14724TIP3    H165663   1.833   1.071   4.045  0.9458 -0.1158  0.7879
14724TIP3    H265664   1.703   0.993   4.057 -0.3504  1.5786 -1.8249
14725TIP3   OH265665   3.662   4.013  14.983 -0.4488  0.6324  0.1839
14725TIP3    H165666   3.703   4.087  15.026  1.4458  0.5232 -1.3679
14725TIP3    H265667   3.657   3.945  15.050 -1.0144  1.7230  1.2501
14726TIP3   OH265668   4.216   3.111   2.575  0.2372  0.2376 -0.1433
14726TIP3    H165669   4.256   3.056   2.642 -2.7314 -1.1519  0.5580
14726TIP3    H265670   4.191   3.191   2.621 -1.5517 -0.6069  0.4098
14727TIP3   OH265671   1.645   3.807   6.376 -0.1517 -0.1930 -0.0316
14727TIP3    H165672   1.570   3.755   6.348  0.9579 -1.1977 -1.2067
14727TIP3    H265673   1.672   3.769   6.459 -1.2833  0.5517  0.6989
14728TIP3   OH265674   0.005   2.417  15.922  0.0197  0.3811  0.2063
14728TIP3    H165675  -0.014   2.443  16.012 -1.2056  1.5261 -0.3672
14728TIP3    H265676  -0.049   2.475  15.868  1.2781  0.1871 -1.2936
14729TIP3   OH265677   0.385   0.561   2.187  0.9487  0.0090 -0.3691
14729TIP3    H165678   0.431   0.624   2.131  1.2361  0.2216  0.0964
14729TIP3    H265679   0.361   0.489   2.129  1.4064  0.1438 -0.7246
14730TIP3   OH265680   2.762   6.230  11.503 -0.2404  0.9139  0.1696
14730TIP3    H165681   2.703   6.239  11.578 -0.1941  1.6371  0.1180
14730TIP3    H265682   2.709   6.257  11.428  0.8273  3.7628  0.3914
14731TIP3   OH265683   4.312   0.284   4.089 -0.1786  0.0362 -0.2725
14731TIP3    H165684   4.335   0.353   4.150  0.2098 -0.0720 -0.2987
14731TIP3    H265685   4.244   0.233   4.134  1.7958 -1.4935  1.0585
14732TIP3   OH265686   4.290   3.293  14.803 -0.1029 -0.1698  0.0488
14732TIP3    H165687   4.243   3.368  14.766 -1.0620 -1.3849 -1.2288
14732TIP3    H265688   4.363   3.332  14.852 -2.1307  1.7318  1.6566
14733TIP3   OH265689   6.278   2.055   1.660  0.0064 -0.3594  0.1904
14733TIP3    H165690   6.314   2.126   1.713 -0.4209 -0.1296  0.1736
14733TIP3    H265691   6.254   1.987   1.724  1.0206 -0.7638  0.1545
14734TIP3   OH265692   2.682   4.467  12.867  0.3277  0.1383 -0.4742
14734TIP3    H165693   2.660   4.551  12.826 -0.5104 -0.4204 -1.1734
14734TIP3    H265694   2.607   4.411  12.848  0.2953 -0.3766  1.1182
14735TIP3   OH265695   2.846   1.647  16.366  0.0856  0.0014 -0.3294
14735TIP3    H165696   2.758   1.665  16.334  0.5023 -0.5982 -1.8692
14735TIP3    H265697   2.834   1.576  16.429 -0.2089 -2.4494 -2.9965
14736TIP3   OH265698   5.322   4.237  14.417 -0.5377  0.2851 -0.4276
14736TIP3    H165699   5.232   4.231  14.450 -0.5913  2.0552 -0.2346
14736TIP3    H265700   5.338   4.330  14.405  1.8593  0.1124  1.0997
14737TIP3   OH265701   6.200   4.152   2.112  0.9639 -0.3541  0.1644
14737TIP3    H165702   6.106   4.139   2.098  0.1731  1.6978  2.9833
14737TIP3    H265703   6.226   4.084   2.174  1.2749 -0.7506 -0.4001
14738TIP3   OH265704   5.419   6.188  16.396  0.0604 -0.2275  0.1821
14738TIP3    H165705   5.441   6.189  16.303  1.6676  0.0351  0.5550
14738TIP3    H265706   5.420   6.280  16.422 -0.8944 -0.2585  0.3547
14739TIP3   OH265707   2.113   1.772   1.472 -0.0671  0.5108 -0.1371
14739TIP3    H165708   2.031   1.743   1.511 -0.7482  0.4238 -1.6060
14739TIP3    H265709   2.088   1.846   1.417  0.8518  0.5112 -0.5615
14740TIP3   OH265710   6.050   2.796  12.051  0.0896  0.3814 -0.3227
14740TIP3    H165711   6.066   2.778  11.958  0.7553  0.0168 -0.1403
14740TIP3    H265712   5.991   2.871  12.051  1.5176  1.5351 -1.0319
14741TIP3   OH265713   0.078   3.874  15.340 -0.0415  0.2076  0.4362
14741TIP3    H165714   0.041   3.923  15.414 -0.8950  0.9759 -0.4835
14741TIP3    H265715   0.003   3.856  15.283  0.4045 -1.4901  0.3682
14742TIP3   OH265716   4.550   6.224   2.322  0.3397 -0.0852 -0.0335
14742TIP3    H165717   4.528   6.157   2.257 -1.4385 -1.1453  1.6032
14742TIP3    H265718   4.631   6.263   2.289 -0.0862 -1.1349 -2.4583
14743TIP3   OH265719   0.696   2.620   5.017  0.7183  0.1736  0.2983
14743TIP3    H165720   0.740   2.575   5.089  0.8293  1.1049  0.8218
14743TIP3    H265721   0.667   2.703   5.055 -1.6105 -0.4610 -0.0144
14744TIP3   OH265722   4.345   0.800  15.419 -0.6772  0.1313  0.0589
14744TIP3    H165723   4.416   0.803  15.354 -1.2836 -0.7110 -0.6616
14744TIP3    H265724   4.281   0.739  15.381 -1.1684 -0.1538  1.3225
14745TIP3   OH265725   1.135   6.081  11.493 -0.0400 -0.0476  0.1030
14745TIP3    H165726   1.203   6.111  11.553 -1.0932  0.2032  1.1710
14745TIP3    H265727   1.095   6.161  11.459 -0.1599 -0.1969 -0.1099
14746TIP3   OH265728   3.884   1.189  15.245  0.2275  0.6600  0.0043
14746TIP3    H165729   3.826   1.262  15.269  1.3088  1.5533 -0.0931
14746TIP3    H265730   3.952   1.228  15.191  1.0573 -0.3529  0.2871
14747TIP3   OH265731   4.129   1.905  11.211  0.5597  0.0083 -0.9801
14747TIP3    H165732   4.120   1.838  11.144  1.2784  0.1363 -1.2055
14747TIP3    H265733   4.068   1.974  11.183  1.5259  0.4611 -1.9971
14748TIP3   OH265734   4.501   4.608   0.132  0.0050 -0.4953  0.3619
14748TIP3    H165735   4.479   4.562   0.051  1.2815 -0.3135 -0.0968
14748TIP3    H265736   4.504   4.700   0.107  1.6347 -0.5526  0.3327
14749TIP3   OH265737   5.609   0.740  11.752  0.2055  0.3198 -0.5612
14749TIP3    H165738   5.674   0.702  11.811  0.6497 -0.5228 -1.5783
14749TIP3    H265739   5.628   0.701  11.667 -0.0818  1.9555 -1.3862
14750TIP3   OH265740   2.441   5.629   1.901 -0.6933 -0.4866  0.7039
14750TIP3    H165741   2.502   5.697   1.929  0.6612 -1.0895 -0.7324
14750TIP3    H265742   2.438   5.568   1.974 -1.4265  0.7557  1.7486
14751TIP3   OH265743   5.977   2.506   6.462  0.4312  0.1780 -0.3492
14751TIP3    H165744   6.033   2.436   6.430 -0.8490 -1.4403  0.8660
14751TIP3    H265745   6.023   2.541   6.538 -0.3099 -1.3556  0.8357
14752TIP3   OH265746   3.604   2.874  14.012 -0.2801  0.6271  0.0072
14752TIP3    H165747   3.676   2.854  14.073 -0.5744  3.2631  1.2770
14752TIP3    H265748   3.526   2.841  14.056 -0.1999  0.2197 -0.1430
14753TIP3   OH265749   5.887   5.178  12.595 -0.3109 -0.9064  0.1427
14753TIP3    H165750   5.908   5.095  12.638 -2.1225 -0.3963  2.1362
14753TIP3    H265751   5.901   5.243  12.664 -1.8654  0.1007 -0.4914
14754TIP3   OH265752   4.088   2.096  12.527 -0.0519 -0.2591 -0.1394
14754TIP3    H165753   4.082   2.072  12.619 -0.5571  0.4454  0.0126
14754TIP3    H265754   4.059   2.017  12.480 -1.2979 -0.1015  0.3493
14755TIP3   OH265755   6.598   0.790   4.413  0.1721 -0.8298 -0.0658
14755TIP3    H165756   6.591   0.763   4.505  0.7613  0.9875  0.5363
14755TIP3    H265757   6.668   0.736   4.377  0.2710 -1.2096  0.6848
14756TIP3   OH265758   5.186   0.065  16.987 -0.1606  0.1370  0.6685
14756TIP3    H165759   5.189   0.149  17.033 -0.0575 -0.0700  1.0415
14756TIP3    H265760   5.125   0.012  17.038 -0.0756 -0.0806  0.5458
14757TIP3   OH265761   5.164   3.630   5.572 -0.3495  0.4221  0.4268
14757TIP3    H165762   5.246   3.585   5.592 -1.1122 -1.1436  0.1242
14757TIP3    H265763   5.142   3.677   5.652 -0.9756 -2.0178  1.7185
14758TIP3   OH265764   0.780   6.230   1.001 -0.6466  0.0892  0.6328
14758TIP3    H165765   0.738   6.310   1.032 -1.4361 -0.1229  0.1265
14758TIP3    H265766   0.770   6.232   0.906  1.1217  0.3694  0.4366
14759TIP3   OH265767   1.255   2.132   1.744 -0.3405  0.1973 -0.6594
14759TIP3    H165768   1.260   2.125   1.649 -1.4199  0.6415 -0.7571
14759TIP3    H265769   1.318   2.200   1.767  2.8302 -2.6151 -0.6526
14760TIP3   OH265770   6.155   3.586  14.156 -0.0768 -0.5976 -0.2110
14760TIP3    H165771   6.112   3.624  14.232  2.9124  0.2168  1.1636
14760TIP3    H265772   6.163   3.658  14.094  2.1126  0.1359  0.8474
14761TIP3   OH265773   1.277   1.552   3.022  0.2873 -0.0850  0.1668
14761TIP3    H165774   1.215   1.618   2.990  1.9998  1.2308 -0.5074
14761TIP3    H265775   1.334   1.600   3.082  0.5846 -1.3169  0.8807
14762TIP3   OH265776   1.540   1.498   1.391  0.1148 -0.4740 -0.3172
14762TIP3    H165777   1.493   1.476   1.310  2.0362 -0.6466 -1.4099
14762TIP3    H265778   1.571   1.414   1.425  0.2557 -0.2878  0.0152
14763TIP3   OH265779   1.685   5.637  11.654 -0.6787  1.2200  0.5290
14763TIP3    H165780   1.635   5.578  11.710 -1.0798  0.4457 -0.6355
14763TIP3    H265781   1.756   5.669  11.711 -1.8957  1.5419  1.8807
14764TIP3   OH265782   4.203   4.351  15.951 -0.1237  0.2397 -0.6145
14764TIP3    H165783   4.268   4.387  15.892  1.2035 -0.7399  0.2124
14764TIP3    H265784   4.235   4.262  15.971 -1.4485 -0.0823  0.1754
14765TIP3   OH265785   1.183   4.070  16.515 -0.0791  0.3158  0.0422
14765TIP3    H165786   1.180   4.093  16.422 -0.6998 -0.8979 -0.2490
14765TIP3    H265787   1.095   4.036  16.534 -0.0347  0.7791  1.1313
14766TIP3   OH265788   2.596   0.522   0.392 -0.3154 -0.4105  0.0735
14766TIP3    H165789   2.521   0.469   0.417 -0.1832 -1.0103 -0.7541
14766TIP3    H265790   2.669   0.460   0.389 -0.2092 -0.2528 -1.1553
14767TIP3   OH265791   0.621   0.696  11.799  0.1861 -0.5174  0.0584
14767TIP3    H165792   0.605   0.773  11.854  0.8973 -0.0348 -0.3960
14767TIP3    H265793   0.620   0.730  11.710  1.8254 -0.7918 -0.0815
14768TIP3   OH265794   6.799   4.928  12.483  0.2865 -0.0760  0.3897
14768TIP3    H165795   6.720   4.974  12.511  0.6321  0.1995  0.8974
14768TIP3    H265796   6.772   4.836  12.478  0.1722 -0.1039  1.4295
14769TIP3   OH265797   0.673   5.114   1.973  0.4319 -0.1121 -0.3754
14769TIP3    H165798   0.759   5.100   2.014  0.3238 -0.9984 -0.4381
14769TIP3    H265799   0.643   5.026   1.950 -0.8336  0.1126  0.3390
14770TIP3   OH265800   1.840   4.158   4.346 -0.0847 -0.6687  0.0024
14770TIP3    H165801   1.815   4.239   4.392  0.4152 -0.8135  0.5270
14770TIP3    H265802   1.766   4.141   4.288 -0.4734 -0.1744  0.3404
14771TIP3   OH265803   2.806   3.882   4.831  0.1509 -0.0776 -0.2017
14771TIP3    H165804   2.758   3.884   4.914  0.3327 -1.0781 -0.0671
14771TIP3    H265805   2.895   3.908   4.854  0.4347 -1.2657  0.0901
14772TIP3   OH265806   1.072   5.348  13.200 -0.4898  0.2743 -0.2941
14772TIP3    H165807   0.976   5.341  13.194 -0.5733 -0.1935  1.3469
14772TIP3    H265808   1.104   5.310  13.119 -1.6802 -0.0647 -0.6209
14773TIP3   OH265809   1.798   6.468   3.559  0.6756  0.5729 -0.1948
14773TIP3    H165810   1.794   6.411   3.635 -0.8743  0.0037 -0.6778
14773TIP3    H265811   1.891   6.473   3.537  1.0913  0.4315  1.4869
14774TIP3   OH265812   1.154   4.668   2.112 -0.3439 -0.6252 -0.6868
14774TIP3    H165813   1.157   4.723   2.034 -3.1339  0.2781 -0.2083
14774TIP3    H265814   1.215   4.709   2.173  0.2307 -0.0991 -1.6001
14775TIP3   OH265815   0.202   4.553  16.979  0.5759 -0.1360 -0.4643
14775TIP3    H165816   0.143   4.608  17.031 -1.3830 -2.5414 -0.1084
14775TIP3    H265817   0.190   4.583  16.889  0.6056  0.9661 -0.1090
14776TIP3   OH265818   2.394   6.257  10.962  0.3138  0.8097  0.7087
14776TIP3    H165819   2.391   6.351  10.979  1.0341  0.9377  0.1386
14776TIP3    H265820   2.455   6.247  10.888  0.4086 -0.1206  0.9004
14777TIP3   OH265821   4.184   1.413  16.844  0.5842  0.4385  0.2926
14777TIP3    H165822   4.153   1.503  16.834  1.1203  0.5223 -0.6521
14777TIP3    H265823   4.118   1.359  16.802 -1.4360  0.0802  3.7013
14778TIP3   OH265824   3.603   3.696   6.123  0.0717 -0.5888 -0.0536
14778TIP3    H165825   3.643   3.752   6.189  0.9957 -1.6533  0.3005
14778TIP3    H265826   3.509   3.702   6.141  0.2882 -0.6129  1.1656
14779TIP3   OH265827   0.682   2.118  11.741 -0.3141  0.0402  0.0845
14779TIP3    H165828   0.599   2.119  11.694  0.2120 -2.7592 -0.9956
14779TIP3    H265829   0.657   2.111  11.833 -1.2830 -1.2480 -0.2608
14780TIP3   OH265830   4.037   1.699   5.595  0.0053 -0.5672 -0.2553
14780TIP3    H165831   4.099   1.668   5.661 -0.6557  1.2876  1.2761
14780TIP3    H265832   3.951   1.688   5.636 -0.3947  0.7424 -0.7240
14781TIP3   OH265833   2.274   2.039   3.195 -0.4056 -0.0622  0.3760
14781TIP3    H165834   2.292   1.981   3.270 -0.4331  1.0355  1.2382
14781TIP3    H265835   2.271   1.980   3.120  0.1301 -1.1182  1.1671
14782TIP3   OH265836   0.202   2.442   0.902  0.3140 -0.1234 -0.3851
14782TIP3    H165837   0.202   2.401   0.815  0.8468 -2.7018  0.7890
14782TIP3    H265838   0.109   2.451   0.924  0.1725  0.6689 -1.2607
14783TIP3   OH265839   6.536   5.549   2.724 -0.1223  0.3044 -0.1960
14783TIP3    H165840   6.516   5.550   2.630  2.3236  2.1204 -0.7707
14783TIP3    H265841   6.461   5.592   2.765 -0.8195  0.2767 -1.4227
14784TIP3   OH265842   6.625   1.568   6.625  0.3112 -0.3520  0.1463
14784TIP3    H165843   6.631   1.496   6.688 -0.9351  0.4932  1.2628
14784TIP3    H265844   6.715   1.581   6.595  0.9610 -0.6844  1.8739
14785TIP3   OH265845   3.619   1.504   5.334  0.0331  0.3477  0.0672
14785TIP3    H165846   3.686   1.446   5.370 -0.5866 -0.5795 -0.2416
14785TIP3    H265847   3.566   1.447   5.277 -1.2152  0.9680  0.5760
14786TIP3   OH265848   2.644   5.174   0.931  0.4613  0.0938  0.4071
14786TIP3    H165849   2.705   5.180   0.857  0.3450 -0.1366  0.2921
14786TIP3    H265850   2.580   5.108   0.904 -0.4465  1.0857  0.0896
14787TIP3   OH265851   2.338   5.966  14.994  0.5444 -0.0803  0.1715
14787TIP3    H165852   2.349   6.043  15.050  0.8264  0.0667 -0.0867
14787TIP3    H265853   2.270   5.914  15.038  0.1057  0.4771  0.1580
14788TIP3   OH265854   5.848   0.080   3.077  0.7088 -0.2798  0.2631
14788TIP3    H165855   5.766   0.042   3.107  0.8572 -1.5066 -0.8664
14788TIP3    H265856   5.840   0.086   2.982  1.1946  1.3353  0.3126
14789TIP3   OH265857   4.596   5.926  13.558  0.2713  0.2611 -0.8135
14789TIP3    H165858   4.666   5.865  13.579  2.2424  3.2075  1.5638
14789TIP3    H265859   4.603   5.939  13.463  1.8782 -0.7437 -0.8450
14790TIP3   OH265860   2.041   0.650  11.678 -1.1232  0.2593 -0.0457
14790TIP3    H165861   1.975   0.700  11.726 -1.0822 -0.3710  0.6813
14790TIP3    H265862   2.082   0.595  11.745 -0.8637 -0.4198 -0.7572
14791TIP3   OH265863   1.142   5.423   4.891  0.1200 -0.1057 -0.6929
14791TIP3    H165864   1.118   5.341   4.934 -0.0564 -0.8246 -2.1179
14791TIP3    H265865   1.187   5.396   4.811  0.5936  1.2005 -0.8881
14792TIP3   OH265866   1.550   4.281  14.931 -0.0084  0.0248 -0.1762
14792TIP3    H165867   1.613   4.317  14.868 -0.3390  1.7321  0.4567
14792TIP3    H265868   1.498   4.220  14.879  1.4482 -0.6079 -0.9493
14793TIP3   OH265869   4.196   2.111  10.560 -0.4551 -0.8735 -0.4551
14793TIP3    H165870   4.229   2.023  10.541 -0.1487 -0.4005 -2.1557
14793TIP3    H265871   4.108   2.112  10.522  0.0034 -0.0567 -1.5181
14794TIP3   OH265872   6.668   3.387  12.117 -0.1493  0.1650  0.0253
14794TIP3    H165873   6.689   3.478  12.093  0.4921 -0.3117 -1.3086
14794TIP3    H265874   6.658   3.389  12.212 -0.1051  1.6299  0.0172
14795TIP3   OH265875   3.945   4.590   2.151 -0.5677  0.2923 -0.2434
14795TIP3    H165876   3.986   4.674   2.130  2.3431 -0.8047  0.8487
14795TIP3    H265877   3.926   4.551   2.065 -0.6059  1.4030 -0.7561
14796TIP3   OH265878   2.293   0.774   6.833  0.3539  0.1724 -0.3062
14796TIP3    H165879   2.290   0.682   6.804  1.4070 -0.3780  1.3298
14796TIP3    H265880   2.375   0.808   6.797 -1.4281  1.3684 -3.4597
14797TIP3   OH265881   2.421   0.457   1.790  0.2107 -0.8341  0.3099
14797TIP3    H165882   2.477   0.470   1.867  3.2238 -1.4009 -1.7135
14797TIP3    H265883   2.401   0.546   1.761  1.2915 -0.6153  0.2031
14798TIP3   OH265884   3.424   3.031  12.034 -0.3939 -0.4268 -0.1885
14798TIP3    H165885   3.420   3.124  12.057 -0.0333 -0.2963 -0.6509
14798TIP3    H265886   3.361   2.989  12.092  1.6865 -0.3475  2.2006
14799TIP3   OH265887   4.156   0.089   0.792 -0.1525 -0.3170  0.7433
14799TIP3    H165888   4.136  -0.001   0.819  0.3374 -0.5115  0.4818
14799TIP3    H265889   4.072   0.126   0.767 -0.5101 -0.3669  1.8427
14800TIP3   OH265890   3.427   1.065  13.601 -0.2750 -0.1373  0.6519
14800TIP3    H165891   3.368   1.114  13.659  0.1711  0.8860  0.2647
14800TIP3    H265892   3.441   1.125  13.527  1.3776 -0.3075  0.8250
14801TIP3   OH265893   1.972   6.818  13.610 -0.6137  0.6127 -0.3827
14801TIP3    H165894   2.020   6.880  13.666 -0.6087  0.8671 -0.6723
14801TIP3    H265895   1.971   6.859  13.524 -0.2582  0.0207 -0.6675
14802TIP3   OH265896   6.593   3.414  14.742 -0.0582 -0.0691  0.0697
14802TIP3    H165897   6.570   3.469  14.667  2.4997  0.3466 -0.4768
14802TIP3    H265898   6.661   3.355  14.709  0.3667 -0.5807  1.7736
14803TIP3   OH265899   0.309   3.093  13.794  0.1889 -0.0334 -0.4509
14803TIP3    H165900   0.314   3.013  13.845  0.4857 -0.1327 -0.6351
14803TIP3    H265901   0.356   3.073  13.713  2.3351  1.0893  0.5051
14804TIP3   OH265902   2.390   4.023  16.759 -0.2962  0.3253 -0.2603
14804TIP3    H165903   2.320   3.967  16.790 -1.1394  1.2511 -0.4512
14804TIP3    H265904   2.418   4.072  16.836  0.4041 -0.3194 -0.1018
14805TIP3   OH265905   2.922   3.315  11.867 -0.2014  0.1457 -0.2915
14805TIP3    H165906   2.965   3.298  11.950 -0.6291 -0.2285 -0.1410
14805TIP3    H265907   2.992   3.312  11.802 -0.2142 -1.9624 -0.2303
14806TIP3   OH265908   3.938   1.308  14.545  0.2999 -0.5249  0.2549
14806TIP3    H165909   3.954   1.292  14.638  1.4242  1.9913  0.5347
14806TIP3    H265910   3.877   1.382  14.544  0.9119 -0.0291 -0.9921
14807TIP3   OH265911   1.659   5.273   5.520 -0.6080  0.6726 -0.0843
14807TIP3    H165912   1.607   5.243   5.595  1.8563 -0.7754  1.0855
14807TIP3    H265913   1.716   5.199   5.499 -0.2679  1.5848 -2.5210
14808TIP3   OH265914   2.993   2.581   6.189 -0.0774  0.2312 -0.2515
14808TIP3    H165915   2.973   2.537   6.107  0.1125  0.0806 -0.2183
14808TIP3    H265916   3.038   2.662   6.163  2.6911 -1.2396 -0.2124
14809TIP3   OH265917   4.326   2.713   0.277 -0.0191 -0.3852 -0.2385
14809TIP3    H165918   4.415   2.720   0.243 -0.1250 -1.1925 -0.6874
14809TIP3    H265919   4.308   2.799   0.315  0.6152  0.0752 -0.9679
14810TIP3   OH265920   1.774   0.462  13.730 -0.2186 -0.0333  1.0059
14810TIP3    H165921   1.774   0.384  13.675 -0.8910 -1.0194  2.3913
14810TIP3    H265922   1.812   0.530  13.674 -1.6035 -0.8113 -0.9432
14811TIP3   OH265923   4.541   0.531  14.660  0.5074 -0.0751 -0.3679
14811TIP3    H165924   4.530   0.492  14.746  0.9290 -0.3371 -0.4333
14811TIP3    H265925   4.605   0.476  14.616  1.0237  0.6196 -0.4994
14812TIP3   OH265926   4.019   4.398  12.649  0.1343 -0.4194  0.7934
14812TIP3    H165927   3.938   4.431  12.688  0.4179  2.2377 -0.7574
14812TIP3    H265928   4.000   4.389  12.556  0.7240 -2.7487  0.8580
14813TIP3   OH265929   0.466   5.180  15.257 -0.2902  0.7951  0.4065
14813TIP3    H165930   0.488   5.224  15.176  0.8538 -0.2565  0.1245
14813TIP3    H265931   0.370   5.176  15.258 -0.2965 -2.0767 -2.5065
14814TIP3   OH265932   1.973   5.990  15.746 -0.0349 -0.6596  0.4907
14814TIP3    H165933   1.893   5.939  15.760 -0.6400 -0.2163 -1.1612
14814TIP3    H265934   1.950   6.052  15.676  1.7802 -0.6051 -0.0926
14815TIP3   OH265935   3.072   4.179  14.083 -0.2677  0.0200  0.2039
14815TIP3    H165936   3.056   4.242  14.153  2.3487 -0.1222  0.9970
14815TIP3    H265937   3.140   4.121  14.118  0.2012 -0.8064 -1.9741
14816TIP3   OH265938   4.537   0.013   5.950  0.5091  0.3951 -0.1438
14816TIP3    H165939   4.543   0.008   6.045 -0.7274  0.8195 -0.0282
14816TIP3    H265940   4.533   0.107   5.931 -1.2339  0.2711 -0.4624
14817TIP3   OH265941   3.562   1.509   3.895  0.3620 -0.1836 -0.4767
14817TIP3    H165942   3.577   1.592   3.849 -1.3350  0.3906 -0.0151
14817TIP3    H265943   3.647   1.465   3.892  0.9437  0.9898 -1.8716
14818TIP3   OH265944   2.570   5.646  11.319 -0.3682 -0.3927  0.1574
14818TIP3    H165945   2.526   5.628  11.236 -1.1586 -0.2058  0.5270
14818TIP3    H265946   2.516   5.713  11.360 -0.2439 -0.8276  1.0348
14819TIP3   OH265947   5.345   5.104   4.145 -0.3822 -0.9972 -0.0395
14819TIP3    H165948   5.255   5.106   4.111 -0.1020 -0.1462 -0.7285
14819TIP3    H265949   5.400   5.104   4.067  0.2332 -0.8629  0.3962
14820TIP3   OH265950   0.826   2.219   1.136  0.4106  0.4850  0.5771
14820TIP3    H165951   0.828   2.239   1.230 -0.0962  2.3781  0.1996
14820TIP3    H265952   0.767   2.284   1.099  1.5794  0.5264 -1.2533
14821TIP3   OH265953   4.725   5.171   6.231 -0.1218  0.1363 -0.6519
14821TIP3    H165954   4.741   5.078   6.216 -0.9535 -0.5090  2.1678
14821TIP3    H265955   4.631   5.182   6.215  0.6563  1.3823 -4.9693
14822TIP3   OH265956   2.925   5.306  13.478  0.7435 -0.5455 -0.4606
14822TIP3    H165957   2.889   5.323  13.565 -2.0715 -2.0182 -1.2933
14822TIP3    H265958   2.931   5.393  13.438  0.9787  0.0259  0.7989
14823TIP3   OH265959   6.581   0.786  16.537  0.5313  0.6049  0.0045
14823TIP3    H165960   6.613   0.875  16.553 -0.6538  1.1951 -0.8327
14823TIP3    H265961   6.486   0.792  16.550  0.3385 -0.3321 -0.9010
14824TIP3   OH265962   6.511   4.735  16.077  0.3983 -0.3619 -0.3262
14824TIP3    H165963   6.516   4.669  16.008 -1.2991 -0.0390 -0.7861
14824TIP3    H265964   6.490   4.816  16.031 -0.3568 -0.0631  0.5310
14825TIP3   OH265965   6.002   3.246  13.534  0.4475 -0.4747 -0.6418
14825TIP3    H165966   5.964   3.179  13.591  0.4386  2.1018  2.5424
14825TIP3    H265967   5.926   3.292  13.498  0.4039  0.8754  1.0601
14826TIP3   OH265968   6.129   0.019   5.618 -0.1572  0.0301 -0.1421
14826TIP3    H165969   6.120   0.072   5.697  1.5629 -0.2904  0.2990
14826TIP3    H265970   6.153  -0.068   5.650 -2.3920 -0.8865 -0.8897
14827TIP3   OH265971   3.818   4.810   2.814  0.1840  0.0367  0.6889
14827TIP3    H165972   3.761   4.776   2.744 -1.1409  0.9955  1.2926
14827TIP3    H265973   3.768   4.797   2.894  0.9174  0.7055  1.2599
14828TIP3   OH265974   2.877   3.939  12.106  0.1871 -0.1032 -0.0003
14828TIP3    H165975   2.871   3.976  12.194  1.0947  0.8303 -0.3116
14828TIP3    H265976   2.814   3.868  12.105 -0.3833  0.3738  1.1653
14829TIP3   OH265977   0.270   5.837   2.604 -0.8857 -0.2130 -0.0129
14829TIP3    H165978   0.228   5.886   2.534  1.5721  0.3095 -1.1632
14829TIP3    H265979   0.269   5.746   2.574  0.4544  0.0551 -0.8820
14830TIP3   OH265980   2.500   2.200  14.034 -0.2780  0.3253 -0.4143
14830TIP3    H165981   2.409   2.215  14.008 -0.9473 -0.4845  1.4369
14830TIP3    H265982   2.501   2.212  14.128  1.4917  0.0552 -0.3822
14831TIP3   OH265983   0.088   3.087   5.609  0.2013  0.0197 -0.4017
14831TIP3    H165984   0.149   3.089   5.682  0.9345  0.6359 -1.0187
14831TIP3    H265985   0.034   3.010   5.624 -0.2112  0.6040  1.2292
14832TIP3   OH265986   3.731   2.244  14.319  0.1703 -0.2271  0.5761
14832TIP3    H165987   3.694   2.258  14.232  1.5031 -0.2247  0.0013
14832TIP3    H265988   3.809   2.190  14.304  0.3582 -0.3075  1.7767
14833TIP3   OH265989   6.205   5.819  14.041  0.0109 -0.3921 -0.4730
14833TIP3    H165990   6.233   5.891  14.098 -0.4539 -1.0443  0.5950
14833TIP3    H265991   6.110   5.831  14.032 -0.3683 -1.9297  1.2367
14834TIP3   OH265992   6.201   5.451   4.004  0.4535  0.0111 -0.5238
14834TIP3    H165993   6.112   5.484   4.013  0.3578 -0.4983  0.4876
14834TIP3    H265994   6.248   5.489   4.078  1.0894  0.2912 -1.0591
14835TIP3   OH265995   1.109   3.135  12.797 -0.3142 -0.5086  0.7068
14835TIP3    H165996   1.135   3.095  12.714 -0.9666 -0.3291  0.4110
14835TIP3    H265997   1.044   3.074  12.833 -1.5435  0.4242  0.1070
14836TIP3   OH265998   5.075   3.127  14.491 -0.0087 -0.2888 -0.1221
14836TIP3    H165999   5.074   3.215  14.452 -1.4111 -0.0813  0.3743
14836TIP3    H266000   5.109   3.141  14.580  0.3774 -0.3526 -0.2545
14837TIP3   OH266001   4.460   0.964   4.879  0.1076  0.1975 -0.3057
14837TIP3    H166002   4.383   0.920   4.913  1.9898 -1.3795  2.0548
14837TIP3    H266003   4.447   1.056   4.901 -0.9397 -0.1098  0.3885
14838TIP3   OH266004   4.396   3.098   4.145 -0.4748  0.4961 -0.3689
14838TIP3    H166005   4.390   3.148   4.063 -2.0539  1.5030  0.3311
14838TIP3    H266006   4.472   3.135   4.189 -0.1307  0.5456 -0.9914
14839TIP3   OH266007   0.523   3.290  11.060  0.3730 -0.4641 -0.7468
14839TIP3    H166008   0.584   3.310  11.132 -1.3484  0.0306  0.6289
14839TIP3    H266009   0.497   3.376  11.027 -0.1269 -0.6394 -0.8201
14840TIP3   OH266010   0.592   2.288   3.392  0.2765 -0.7425 -0.4230
14840TIP3    H166011   0.652   2.220   3.425 -1.8051 -2.1719  0.5542
14840TIP3    H266012   0.647   2.365   3.381  1.8830 -1.3479  2.6461
14841TIP3   OH266013   2.658   0.663   6.030 -0.7617  0.5340  0.1149
14841TIP3    H166014   2.659   0.575   6.069 -0.1146 -0.0596 -1.2067
14841TIP3    H266015   2.639   0.722   6.103  2.7056 -0.3172  1.8032
14842TIP3   OH266016   2.287   4.814  12.272 -0.7658  0.1247 -0.2965
14842TIP3    H166017   2.370   4.801  12.318 -0.7016  1.9993  0.1640
14842TIP3    H266018   2.228   4.750  12.311 -0.9251  2.1363  3.0399
14843TIP3   OH266019   1.402   1.396   3.315 -0.7224 -0.1579 -0.3139
14843TIP3    H166020   1.415   1.474   3.261  1.3543  0.4206  0.9757
14843TIP3    H266021   1.448   1.326   3.267  2.2963  0.6360  1.2787
14844TIP3   OH266022   0.056   0.785  15.071  0.1501 -0.4312  0.4470
14844TIP3    H166023   0.111   0.748  15.141  1.9232  1.6651  0.2188
14844TIP3    H266024   0.070   0.879  15.077 -0.0624 -0.1703 -2.4204
14845TIP3   OH266025   5.134   0.988   5.719 -0.4217 -0.1871  0.1700
14845TIP3    H166026   5.146   0.955   5.808 -1.9059  0.2327  0.5326
14845TIP3    H266027   5.222   0.988   5.681  0.4223  0.9128  2.0840
14846TIP3   OH266028   6.682   3.597   2.818  0.2605 -0.3225  0.0194
14846TIP3    H166029   6.653   3.511   2.851 -0.9898  0.3695  0.7962
14846TIP3    H266030   6.620   3.617   2.748 -2.4996  2.0364  2.9541
14847TIP3   OH266031   4.157   4.350  13.674  0.2326  0.0072 -0.0113
14847TIP3    H166032   4.163   4.372  13.581 -0.9555  0.3437 -0.0178
14847TIP3    H266033   4.078   4.297  13.681  1.0734 -1.1941  0.5968
14848TIP3   OH266034   2.504   1.662   2.895  0.0172 -0.0435  0.0080
14848TIP3    H166035   2.443   1.658   2.821  0.3068  3.0685 -0.4274
14848TIP3    H266036   2.448   1.676   2.971  0.0545  0.9451 -0.1503
14849TIP3   OH266037   3.148   4.198  17.090 -0.0820 -0.0347  0.8200
14849TIP3    H166038   3.209   4.261  17.129  2.9830 -0.0651 -3.5309
14849TIP3    H266039   3.197   4.116  17.086 -1.5653 -0.9061  0.1335
14850TIP3   OH266040   6.428   6.759  13.634 -0.5861 -0.0668 -0.2667
14850TIP3    H166041   6.489   6.689  13.657 -0.7354 -0.4201 -0.9306
14850TIP3    H266042   6.370   6.720  13.569 -2.2829 -0.1004  1.2242
14851TIP3   OH266043   1.728   0.491   4.372  0.1916  0.2754 -0.6567
14851TIP3    H166044   1.742   0.532   4.287 -0.1513  2.0149  0.1141
14851TIP3    H266045   1.647   0.441   4.361  1.4914 -1.6200 -2.0911
14852TIP3   OH266046   5.249   4.714   0.204 -0.1072 -0.6996  0.6093
14852TIP3    H166047   5.180   4.741   0.143 -1.2249 -2.7009  0.9458
14852TIP3    H266048   5.303   4.792   0.215 -0.4075 -0.0330 -2.2258
14853TIP3   OH266049   4.655   1.710   3.909  0.4609  0.3228  0.3137
14853TIP3    H166050   4.575   1.753   3.938  0.0622 -1.0980  1.3218
14853TIP3    H266051   4.699   1.683   3.990  0.3645 -1.7997 -0.3120
14854TIP3   OH266052   4.474   2.886   1.662 -0.4119 -0.2384 -0.0743
14854TIP3    H166053   4.480   2.796   1.694 -0.1287 -0.7601 -1.5317
14854TIP3    H266054   4.475   2.877   1.566  0.3464  1.3613 -0.2273
14855TIP3   OH266055   1.137   3.692  10.944 -0.3736 -0.0385  0.0092
14855TIP3    H166056   1.197   3.660  10.876  1.1603  0.2746  1.1840
14855TIP3    H266057   1.114   3.781  10.915 -0.5936 -0.3136 -0.6580
14856TIP3   OH266058   2.775   2.694   6.378  0.1982  0.0303 -0.0452
14856TIP3    H166059   2.832   2.638   6.326  0.8180  1.3616 -0.8240
14856TIP3    H266060   2.792   2.782   6.346  0.0998  0.8127  1.9625
14857TIP3   OH266061   6.796   5.623  12.895 -0.0097  0.1485  0.0279
14857TIP3    H166062   6.764   5.643  12.983  0.5275  0.9018  0.0584
14857TIP3    H266063   6.808   5.709  12.854 -0.1368 -0.1994 -0.7363
14858TIP3   OH266064   2.029   0.546   4.591 -0.0877  0.0746  0.0286
14858TIP3    H166065   2.063   0.540   4.680 -0.7974 -0.1191  0.2859
14858TIP3    H266066   1.952   0.489   4.591 -0.3756  0.4642 -0.5740
14859TIP3   OH266067   4.334   1.090  14.262  0.0192 -0.5281 -0.0628
14859TIP3    H166068   4.375   1.174  14.241 -2.1303  0.3713 -0.8135
14859TIP3    H266069   4.295   1.103  14.348  1.0632 -1.2854  0.5266
14860TIP3   OH266070   6.343   3.951   6.012 -0.0350 -0.9678  0.1614
14860TIP3    H166071   6.318   3.945   5.920  0.2298 -1.4686  0.1227
14860TIP3    H266072   6.260   3.952   6.059 -0.1983  0.2228 -0.1333
14861TIP3   OH266073   0.546   3.917  10.639  0.1225  0.2084  0.0411
14861TIP3    H166074   0.525   3.892  10.550 -0.0022 -1.7380  0.6024
14861TIP3    H266075   0.640   3.935  10.637 -0.5194  3.9500 -1.3037
14862TIP3   OH266076   2.998   1.422   4.707  0.1241 -0.1786 -0.4325
14862TIP3    H166077   2.944   1.361   4.756 -1.3098  0.9438 -0.5910
14862TIP3    H266078   2.967   1.509   4.734  0.5214  0.4718 -1.9863
14863TIP3   OH266079   3.509   6.096   0.074  0.0877 -1.2064 -0.0265
14863TIP3    H166080   3.534   6.037   0.145 -0.0727  0.4373  1.4378
14863TIP3    H266081   3.593   6.127   0.038  0.1803 -0.3286  0.9257
14864TIP3   OH266082   0.764   0.996  17.191  0.0876  0.7542  0.6797
14864TIP3    H166083   0.687   0.950  17.224  0.7082 -0.6558  0.1926
14864TIP3    H266084   0.748   1.006  17.097  1.3327 -1.2715  0.2178
14865TIP3   OH266085   1.321   2.813  12.666  0.1134  0.6373 -0.1491
14865TIP3    H166086   1.289   2.887  12.614  1.2904  0.6480 -0.8811
14865TIP3    H266087   1.247   2.789  12.721  0.1757  3.3362  1.1935
14866TIP3   OH266088   2.740   4.605  14.279 -0.7100  0.0515  0.5401
14866TIP3    H166089   2.761   4.624  14.370 -0.0020  0.9011  0.2126
14866TIP3    H266090   2.696   4.684  14.248  2.7199  1.4569 -0.9920
14867TIP3   OH266091   3.935   2.752  14.757 -0.0433  0.0255 -0.5006
14867TIP3    H166092   3.874   2.765  14.684 -1.6303  1.7821  1.0942
14867TIP3    H266093   3.996   2.825  14.751  1.1683 -1.0462 -1.3568
14868TIP3   OH266094   6.566   4.555   3.753 -0.1490  0.5401  0.1670
14868TIP3    H166095   6.578   4.544   3.847  0.3875 -0.6465 -0.0248
14868TIP3    H266096   6.646   4.597   3.723 -0.1189  0.4851  0.1707
14869TIP3   OH266097   4.053   2.042  13.102 -0.2518 -0.4981 -0.0790
14869TIP3    H166098   3.977   2.095  13.077  1.4438  1.3675 -1.3968
14869TIP3    H266099   4.097   2.093  13.169 -0.4795 -1.8723  1.1326
14870TIP3   OH266100   2.633   2.297   0.433 -0.0495 -0.5109 -0.2252
14870TIP3    H166101   2.550   2.334   0.464 -0.5515 -1.1866 -0.7455
14870TIP3    H266102   2.676   2.266   0.513 -0.2125  0.0073  0.0688
14871TIP3   OH266103   0.632   0.566   0.980 -0.2241 -0.4168  0.4847
14871TIP3    H166104   0.626   0.563   1.076  0.6630 -0.8935  0.5308
14871TIP3    H266105   0.685   0.490   0.957 -0.7239 -0.4974 -0.4171
14872TIP3   OH266106   0.159   6.169  14.289  0.0256 -0.3977 -0.3708
14872TIP3    H166107   0.123   6.081  14.303  0.6537 -0.6756 -0.4866
14872TIP3    H266108   0.170   6.204  14.377 -1.4199  0.0592 -0.3540
14873TIP3   OH266109   5.622   2.360  12.969 -0.2643  0.6480  0.3846
14873TIP3    H166110   5.571   2.284  12.941  0.3236  0.3263  0.1835
14873TIP3    H266111   5.582   2.385  13.052 -0.8134  0.4582  0.1836
14874TIP3   OH266112   3.787   1.056   0.913 -0.4813 -0.2749  0.2920
14874TIP3    H166113   3.835   1.125   0.867 -3.4861  0.5594 -1.7726
14874TIP3    H266114   3.751   1.002   0.842 -0.5311 -2.3071  1.8339
14875TIP3   OH266115   4.436   5.530   6.521 -0.3542  0.2423 -0.5712
14875TIP3    H166116   4.490   5.484   6.457  2.2408  0.4921  1.3384
14875TIP3    H266117   4.355   5.479   6.526 -0.0359 -0.5593 -2.9764
14876TIP3   OH266118   6.452   4.128   3.338  0.4278 -0.1787 -0.4892
14876TIP3    H166119   6.499   4.120   3.421 -2.4453  0.6671  1.3131
14876TIP3    H266120   6.425   4.039   3.317 -1.4092 -0.0456  1.1294
14877TIP3   OH266121   5.491   1.764  15.716 -0.1847 -0.2959 -0.1433
14877TIP3    H166122   5.488   1.857  15.740 -0.2820 -0.8691  2.2466
14877TIP3    H266123   5.572   1.732  15.756 -0.4443 -1.3539 -0.4558
14878TIP3   OH266124   2.193   6.473  16.566  0.3611 -0.2827  0.0015
14878TIP3    H166125   2.186   6.423  16.647 -2.4142 -0.7085 -0.4400
14878TIP3    H266126   2.245   6.550  16.589 -0.0011 -0.6293  2.0710
14879TIP3   OH266127   1.370   6.292   0.420  0.0070 -0.2380  0.1469
14879TIP3    H166128   1.275   6.282   0.430  0.1759 -0.7205  1.4748
14879TIP3    H266129   1.407   6.214   0.463  1.0699  1.2721  2.1061
14880TIP3   OH266130   3.775   2.764  11.567 -0.3994 -0.6693 -0.1482
14880TIP3    H166131   3.789   2.842  11.514  2.4609  0.9514  2.7702
14880TIP3    H266132   3.807   2.692  11.513  0.0883  0.5805 -1.5643
14881TIP3   OH266133   3.471   3.075   2.024  0.2160  0.1451  0.5111
14881TIP3    H166134   3.468   3.054   2.117 -0.7606 -0.4459  0.3452
14881TIP3    H266135   3.524   3.006   1.985 -0.1398 -0.1167  0.4902
14882TIP3   OH266136   1.777   0.218  14.303  0.4049  0.0630  0.0894
14882TIP3    H166137   1.844   0.286  14.308  1.2484 -0.5896 -1.6168
14882TIP3    H266138   1.711   0.244  14.366  2.1897  0.8141  1.6950
14883TIP3   OH266139   2.158   1.376   0.880 -0.0985 -0.2218  0.1653
14883TIP3    H166140   2.158   1.363   0.786  1.8501 -0.9361  0.2472
14883TIP3    H266141   2.129   1.292   0.916 -2.9341  0.6878  0.1768
14884TIP3   OH266142   3.735   2.558  13.099 -0.2652  0.3003 -0.0832
14884TIP3    H166143   3.742   2.568  13.194  1.5953 -1.1133 -0.0354
14884TIP3    H266144   3.790   2.628  13.064 -0.0232  0.1065 -0.0904
14885TIP3   OH266145   4.467   1.352   5.565  0.2369 -0.2900 -0.2389
14885TIP3    H166146   4.428   1.274   5.525  0.5910 -0.3977 -0.3685
14885TIP3    H266147   4.430   1.354   5.654  2.1562 -2.0103  0.6391
14886TIP3   OH266148   2.028   4.184   1.356 -0.0587 -0.5118  0.2449
14886TIP3    H166149   2.071   4.260   1.396  0.3542  0.6014 -2.2221
14886TIP3    H266150   2.099   4.121   1.343  0.2007 -0.0463 -0.6318
14887TIP3   OH266151   4.198   3.337   4.684 -0.5084  0.4548 -0.0649
14887TIP3    H166152   4.189   3.264   4.623  1.9090  0.3488 -0.3592
14887TIP3    H266153   4.222   3.296   4.767  2.1661  0.9528 -0.5506
14888TIP3   OH266154   5.238   0.483  11.716  0.5210  0.3185 -0.1739
14888TIP3    H166155   5.267   0.486  11.807 -0.6952 -1.0327  0.2709
14888TIP3    H266156   5.218   0.574  11.694  0.2770  0.5674  1.0808
14889TIP3   OH266157   1.725   4.012   5.822  0.3222  0.1461  0.5794
14889TIP3    H166158   1.665   4.061   5.767  1.2420 -1.0675 -1.5404
14889TIP3    H266159   1.669   3.961   5.881 -0.6424  2.3090  1.5570
14890TIP3   OH266160   4.165   6.007   4.992  0.7504  0.3031  0.1971
14890TIP3    H166161   4.140   5.925   4.951 -1.1610  0.5485  0.7981
14890TIP3    H266162   4.084   6.038   5.034  1.1545  3.0043 -0.9303
14891TIP3   OH266163   1.529   4.175  10.764 -0.0926 -0.9848  1.0062
14891TIP3    H166164   1.528   4.131  10.679  0.8492 -0.7305  0.8608
14891TIP3    H266165   1.613   4.220  10.767 -0.0237 -1.1753  2.1657
14892TIP3   OH266166   1.208   1.924   6.060 -0.3850 -0.3344 -0.0195
14892TIP3    H166167   1.179   2.014   6.070  0.9693 -0.1350  2.2998
14892TIP3    H266168   1.218   1.891   6.149 -0.3818 -2.6222 -0.8330
14893TIP3   OH266169   2.911   1.150   3.555 -0.1182 -0.0415  0.1121
14893TIP3    H166170   2.912   1.116   3.644 -3.3927 -0.4388  0.0914
14893TIP3    H266171   3.002   1.169   3.534  0.6660  0.4280  3.6789
14894TIP3   OH266172   2.685   2.631   5.146  0.4869 -0.1676 -0.1923
14894TIP3    H166173   2.715   2.717   5.176  0.4002 -0.0945 -0.3145
14894TIP3    H266174   2.679   2.639   5.051  1.3738 -0.5970 -0.2865
14895TIP3   OH266175   4.796   1.353   0.887  0.0055 -0.0281 -0.0559
14895TIP3    H166176   4.760   1.441   0.881  0.5042  0.0547 -2.1232
14895TIP3    H266177   4.863   1.359   0.955  0.8085  1.4877 -0.9555
14896TIP3   OH266178   5.649   0.889  13.598 -0.2535  0.0712 -0.3391
14896TIP3    H166179   5.676   0.907  13.508  2.9730  1.0141  0.7805
14896TIP3    H266180   5.611   0.971  13.628 -0.2256  0.1175 -0.4304
14897TIP3   OH266181   1.514   2.498   1.579 -0.5805 -0.5904  0.2357
14897TIP3    H166182   1.455   2.570   1.557  2.1257  1.8293  0.7074
14897TIP3    H266183   1.539   2.460   1.495 -0.5099  0.2656 -0.1338
14898TIP3   OH266184   6.546   3.231   5.815  0.1550 -0.3031 -0.1412
14898TIP3    H166185   6.592   3.211   5.733 -2.3588 -0.2880 -1.6082
14898TIP3    H266186   6.456   3.202   5.800 -0.5910  0.6390  2.2495
14899TIP3   OH266187   0.615   4.404   5.178  0.2855 -0.0467  0.2426
14899TIP3    H166188   0.695   4.445   5.212  0.8927 -0.7559 -0.2975
14899TIP3    H266189   0.567   4.476   5.137  1.2823  0.1503 -0.5944
14900TIP3   OH266190   1.039   4.428  14.079  0.0243 -0.3208 -0.5727
14900TIP3    H166191   1.016   4.520  14.088  2.0328  0.0713  0.7553
14900TIP3    H266192   0.988   4.383  14.146  0.9944  0.1798  0.5147
14901TIP3   OH266193   2.121   2.011  14.334 -0.2672  0.5997  0.4696
14901TIP3    H166194   2.072   2.089  14.307  0.9267  1.5962  1.1338
14901TIP3    H266195   2.069   1.937  14.301 -2.1846  1.6198  1.1075
14902TIP3   OH266196   4.586   3.821  11.524  0.0505 -0.2904  0.0900
14902TIP3    H166197   4.503   3.844  11.483 -0.6233 -1.3319  0.8648
14902TIP3    H266198   4.563   3.759  11.593  1.7291 -2.5087 -1.2801
14903TIP3   OH266199   4.083   2.009  14.632 -0.4676  0.2734 -0.1947
14903TIP3    H166200   4.089   2.047  14.720  0.3926 -0.6204  0.1493
14903TIP3    H266201   4.054   1.919  14.646  1.6833 -0.5240 -0.6413
14904TIP3   OH266202   2.589   6.284   5.825  0.4847 -0.3323 -0.2162
14904TIP3    H166203   2.570   6.358   5.883  0.7450 -0.6935  0.3301
14904TIP3    H266204   2.503   6.244   5.811  0.4045 -0.1825 -0.1665
14905TIP3   OH266205   0.434   5.886   5.430  0.6166  0.0064 -0.3410
14905TIP3    H166206   0.466   5.957   5.486  0.1726  0.7289 -0.9843
14905TIP3    H266207   0.513   5.844   5.397  0.8855 -0.6914  1.1410
14906TIP3   OH266208   3.755   5.696   5.936  0.0497 -0.1316  0.1912
14906TIP3    H166209   3.815   5.659   5.871 -1.3762  0.5815 -1.5512
14906TIP3    H266210   3.812   5.745   5.996  1.1701  0.9462 -1.7131
14907TIP3   OH266211   5.337   0.477  15.085 -0.3788  0.2660  0.1594
14907TIP3    H166212   5.304   0.551  15.033 -0.0776 -0.0392 -0.4802
14907TIP3    H266213   5.378   0.420  15.020  0.8638  0.3452  0.8795
14908TIP3   OH266214   3.548   6.602  16.583 -0.2514 -0.2639  0.8111
14908TIP3    H166215   3.529   6.639  16.496  0.8434 -1.0663  0.2223
14908TIP3    H266216   3.550   6.508  16.569  0.7035 -0.3627  1.5452
14909TIP3   OH266217   3.206   6.684   0.824  0.6758  0.3777  0.0659
14909TIP3    H166218   3.259   6.605   0.816  1.1290  0.7030 -0.2147
14909TIP3    H266219   3.116   6.653   0.835  0.9303 -0.1831  0.5921
14910TIP3   OH266220   5.572   1.554  16.098  0.5911  0.2418  0.8386
14910TIP3    H166221   5.652   1.545  16.149  0.4023 -0.9933  0.9186
14910TIP3    H266222   5.509   1.594  16.158  1.0286  0.8883  0.8760
14911TIP3   OH266223   5.308   2.813   2.037  0.9569 -0.2882 -0.3492
14911TIP3    H166224   5.233   2.826   2.096  0.3029 -1.5475 -0.8988
14911TIP3    H266225   5.382   2.798   2.096  0.5803 -0.0969  0.1812
14912TIP3   OH266226   3.702   1.630   4.459 -0.1238  0.0777  0.3614
14912TIP3    H166227   3.721   1.600   4.370  0.6770 -2.0301  1.2071
14912TIP3    H266228   3.626   1.579   4.485  1.0525 -1.0454  1.7042
14913TIP3   OH266229   5.498   1.557  16.924 -0.2449 -0.9192  0.0231
14913TIP3    H166230   5.589   1.533  16.938 -0.4365 -1.2799  0.6693
14913TIP3    H266231   5.492   1.647  16.957 -0.0038 -0.7069 -0.5063
14914TIP3   OH266232   6.811   3.768  12.590  0.1220  0.3649  0.4267
14914TIP3    H166233   6.837   3.811  12.672  1.1847  0.9423 -0.1916
14914TIP3    H266234   6.889   3.719  12.563  0.3167  1.4465 -1.0463
14915TIP3   OH266235   0.743   2.181  15.991  0.5850 -0.2856  0.1139
14915TIP3    H166236   0.780   2.268  16.005  0.7443 -0.4169  0.5183
14915TIP3    H266237   0.697   2.187  15.907  1.5015 -0.1167 -0.3855
14916TIP3   OH266238   5.824   1.698  13.995 -0.4233  0.3866  0.2751
14916TIP3    H166239   5.862   1.768  13.942 -0.3813 -0.4865 -0.8727
14916TIP3    H266240   5.745   1.735  14.032  0.0446  1.3090  0.3584
14917TIP3   OH266241   5.201   6.138   1.221 -0.1958 -0.4290 -0.0690
14917TIP3    H166242   5.156   6.060   1.187  1.8692 -1.0218 -1.5822
14917TIP3    H266243   5.143   6.211   1.198 -1.7018 -1.4080  0.5246
14918TIP3   OH266244   6.207   0.232  10.802  0.2702  0.3800  0.1249
14918TIP3    H166245   6.236   0.318  10.771  0.6490  0.8732  1.8105
14918TIP3    H266246   6.257   0.169  10.749  0.5017  1.1936 -0.6303
14919TIP3   OH266247   5.608   0.164  15.061 -0.1565 -0.4729  0.2479
14919TIP3    H166248   5.657   0.151  14.980 -0.5098 -1.8762  0.2462
14919TIP3    H266249   5.628   0.254  15.086  0.1938 -0.1103 -1.2340
14920TIP3   OH266250   6.373   6.540   4.389 -0.6688 -0.8391 -0.0412
14920TIP3    H166251   6.330   6.626   4.388 -0.1468 -0.5865 -0.6766
14920TIP3    H266252   6.301   6.477   4.386 -1.0398 -0.4242  0.1014
14921TIP3   OH266253   0.402   1.606   6.098  0.4814  0.0021 -0.1387
14921TIP3    H166254   0.445   1.673   6.151  0.9427 -1.4598  1.3751
14921TIP3    H266255   0.363   1.546   6.162  0.2406 -1.2699 -1.4473
14922TIP3   OH266256   0.587   3.784  17.250  0.2751  0.4315  0.1819
14922TIP3    H166257   0.605   3.702  17.205 -1.2952  0.2127 -0.0842
14922TIP3    H266258   0.582   3.761  17.342  0.1078  0.2747  0.1343
14923TIP3   OH266259   6.170   5.043   6.591  0.6331 -0.0648 -0.7386
14923TIP3    H166260   6.164   4.953   6.561 -1.4140 -0.0701 -0.3535
14923TIP3    H266261   6.174   5.095   6.510 -0.7465 -0.3497 -1.0052
14924TIP3   OH266262   0.243   4.078  11.335 -0.2645 -0.1048 -0.4982
14924TIP3    H166263   0.267   4.103  11.246 -0.0086  1.2721 -0.0464
14924TIP3    H266264   0.299   4.131  11.391 -1.3000 -0.0549  0.5100
14925TIP3   OH266265   0.634   3.141   1.087  0.3564  0.7315  0.4008
14925TIP3    H166266   0.682   3.215   1.125  0.8590 -0.7898  2.8362
14925TIP3    H266267   0.701   3.083   1.051  0.1088  0.3509  0.5413
14926TIP3   OH266268   0.291   5.473   1.304 -0.1293  0.4026 -0.7757
14926TIP3    H166269   0.347   5.398   1.322 -1.3215 -0.1910  0.4984
14926TIP3    H266270   0.351   5.547   1.299  0.7693 -0.2111  0.7153
14927TIP3   OH266271   1.825   4.302   0.195 -0.2051  0.8057  0.3259
14927TIP3    H166272   1.891   4.250   0.148 -2.0224 -0.2154 -1.1473
14927TIP3    H266273   1.772   4.341   0.126 -1.3745  1.3516  1.5173
14928TIP3   OH266274   2.386   6.409   3.216 -0.3581 -0.5771  0.3614
14928TIP3    H166275   2.307   6.462   3.202 -0.2603 -0.3691  0.5775
14928TIP3    H266276   2.415   6.433   3.305  0.3142 -0.1615  0.0351
14929TIP3   OH266277   3.291   0.923  13.865 -0.1566  0.7266 -0.1218
14929TIP3    H166278   3.346   0.970  13.928  0.3179 -0.4486  0.3525
14929TIP3    H266279   3.210   0.974  13.862 -0.7199  0.0820  2.4637
14930TIP3   OH266280   1.922   6.577  14.601  0.0816 -0.0888 -0.0406
14930TIP3    H166281   1.905   6.607  14.690  1.0600  0.5376 -0.0520
14930TIP3    H266282   1.890   6.648  14.546  0.5614  0.0517 -0.1401
14931TIP3   OH266283   2.804   5.154  12.140  0.4719  0.5238 -0.8981
14931TIP3    H166284   2.791   5.212  12.065  0.2312  0.0869 -1.1931
14931TIP3    H266285   2.838   5.073  12.103  0.5597  0.3788 -0.5115
14932TIP3   OH266286   3.629   1.750   0.620  0.5993  0.2945 -0.0079
14932TIP3    H166287   3.546   1.707   0.642 -0.4774  1.6741 -1.2898
14932TIP3    H266288   3.687   1.678   0.596 -1.0480 -0.5237 -1.6786
14933TIP3   OH266289   2.724   3.488  11.073 -0.3011 -0.0767  0.4283
14933TIP3    H166290   2.717   3.422  11.004  1.8858  0.5070 -0.3929
14933TIP3    H266291   2.686   3.567  11.035 -0.2138 -0.0796  0.3344
14934TIP3   OH266292   2.892   0.010  12.444 -0.0880 -0.4510 -0.5780
14934TIP3    H166293   2.802  -0.006  12.471 -0.0104 -0.5241 -0.3557
14934TIP3    H266294   2.889   0.015  12.348 -0.2737 -0.7901 -0.5881
14935TIP3   OH266295   6.757   4.909  11.088  0.2420  0.2144  0.0990
14935TIP3    H166296   6.698   4.853  11.037  0.6416  0.3498 -0.5276
14935TIP3    H266297   6.844   4.890  11.051  0.7323 -0.7881  1.7283
14936TIP3   OH266298   4.330   0.058  16.274 -0.0834  0.7715 -0.0437
14936TIP3    H166299   4.417   0.026  16.251 -0.2769  0.6108 -0.5616
14936TIP3    H266300   4.309   0.122  16.206 -0.5237  0.5316 -0.1400
14937TIP3   OH266301   3.622   3.645   1.568 -0.1442 -0.0014 -0.2736
14937TIP3    H166302   3.559   3.576   1.592 -1.5379  0.7746 -1.6608
14937TIP3    H266303   3.634   3.635   1.474  0.6911  0.8104 -0.2620
14938TIP3   OH266304   3.244   2.979  12.499 -0.3328  0.0458  0.2435
14938TIP3    H166305   3.182   2.906  12.495 -0.9639  0.5175  1.2234
14938TIP3    H266306   3.279   2.976  12.588  0.0230  0.6291  0.1303
14939TIP3   OH266307   4.787   4.073  15.264  0.3518 -0.6545  0.0312
14939TIP3    H166308   4.730   3.998  15.246  0.5883 -1.1110  1.1021
14939TIP3    H266309   4.734   4.131  15.319  0.8455 -0.9835  0.8598
14940TIP3   OH266310   5.099   0.345  11.517  0.6613  0.2165  0.0377
14940TIP3    H166311   5.143   0.381  11.593  1.8865 -0.3621 -0.3821
14940TIP3    H266312   5.077   0.422  11.463 -0.8610  0.6911  1.2791
14941TIP3   OH266313   5.531   4.605  12.720  0.4002 -0.1931 -0.3249
14941TIP3    H166314   5.488   4.520  12.718  1.9193 -1.2064  3.6956
14941TIP3    H266315   5.468   4.663  12.763  1.3336 -0.6581  1.7544
14942TIP3   OH266316   0.401   2.610   3.277  0.3319 -0.0117 -0.7959
14942TIP3    H166317   0.489   2.615   3.240 -0.0936  1.1688 -1.6719
14942TIP3    H266318   0.413   2.565   3.361  1.9098  1.0351 -0.4430
14943TIP3   OH266319   0.777   1.137  14.460  0.5925  1.1826  0.5810
14943TIP3    H166320   0.733   1.139  14.375 -0.3557  0.3949  1.0496
14943TIP3    H266321   0.863   1.099  14.442  0.5620  1.4227 -0.0932
14944TIP3   OH266322   1.790   6.555  15.774 -0.0574 -0.1496  0.2340
14944TIP3    H166323   1.788   6.513  15.688  0.2139 -1.5729  0.9063
14944TIP3    H266324   1.717   6.514  15.822 -1.3459  1.9145  0.1137
14945TIP3   OH266325   1.519   0.926   6.185 -0.0380  0.1990  0.9374
14945TIP3    H166326   1.559   0.846   6.148  4.1123  2.7957 -0.5450
14945TIP3    H266327   1.497   0.902   6.275 -0.4112 -3.0721  0.0688
14946TIP3   OH266328   2.601   5.920   0.111  0.3761  0.7824 -0.1634
14946TIP3    H166329   2.606   5.842   0.166  1.5698 -0.5120 -2.0528
14946TIP3    H266330   2.673   5.975   0.141  1.7354 -0.4256 -1.1547
14947TIP3   OH266331   5.167   2.035   2.585 -0.1624 -0.1384 -0.0996
14947TIP3    H166332   5.147   2.115   2.538  0.5689  0.7957  1.1505
14947TIP3    H266333   5.155   2.058   2.678  0.3592 -1.3772  0.2860
14948TIP3   OH266334   6.355   4.619   0.459 -0.7546  0.7423  0.2884
14948TIP3    H166335   6.378   4.706   0.489  3.0593  0.2979 -1.1313
14948TIP3    H266336   6.345   4.627   0.364  1.9169 -0.7442 -0.1753
14949TIP3   OH266337   4.776   6.818  13.038  0.0872  0.3903 -0.3585
14949TIP3    H166338   4.829   6.898  13.038  0.9747 -0.1746  1.9018
14949TIP3    H266339   4.757   6.803  12.945  1.6384  2.0817 -0.9911
14950TIP3   OH266340   1.569   1.686  14.288  0.0072 -0.1058 -0.3979
14950TIP3    H166341   1.609   1.610  14.331 -0.9562  0.0360  0.7905
14950TIP3    H266342   1.628   1.707  14.216  0.4566 -1.7905 -0.5446
14951TIP3   OH266343   2.449   3.589   3.679  0.4135 -0.1315 -0.1864
14951TIP3    H166344   2.400   3.607   3.759  1.1417 -0.8840  0.4369
14951TIP3    H266345   2.444   3.494   3.668  0.8757 -0.1017 -0.6682
14952TIP3   OH266346   3.989   3.379  16.678 -0.3945  0.6427  0.7044
14952TIP3    H166347   4.057   3.420  16.625 -0.0091  0.5311  1.1184
14952TIP3    H266348   4.010   3.285  16.675 -0.5738  0.6000  0.7658
14953TIP3   OH266349   5.056   1.889  15.906  0.3284  0.5838 -0.0077
14953TIP3    H166350   5.035   1.871  15.815  2.0882  0.9876 -0.5160
14953TIP3    H266351   4.980   1.857  15.955  0.2151 -1.4815 -1.4407
14954TIP3   OH266352   5.965   3.140   3.817 -0.2858 -0.2089 -0.1501
14954TIP3    H166353   5.915   3.162   3.896  0.9726 -1.9842  1.1829
14954TIP3    H266354   6.000   3.224   3.787  0.6702  0.2852  2.1969
14955TIP3   OH266355   6.002   0.011   4.518 -0.1830  0.5336  0.5255
14955TIP3    H166356   6.014  -0.048   4.444 -2.8524 -0.3047  0.6975
14955TIP3    H266357   6.022  -0.042   4.595 -0.9304  0.3237  0.5830
14956TIP3   OH266358   5.263   3.818  16.404  0.3984 -0.5023  0.2733
14956TIP3    H166359   5.281   3.877  16.331  1.0532  0.2822  1.0584
14956TIP3    H266360   5.185   3.854  16.446  0.5172 -0.4676  0.4660
14957TIP3   OH266361   5.440   2.213  12.550 -0.1976 -0.1284 -0.0976
14957TIP3    H166362   5.470   2.144  12.609  1.5196 -0.0087 -0.7941
14957TIP3    H266363   5.360   2.178  12.510 -1.0468 -0.4432  1.8366
14958TIP3   OH266364   5.338   3.675  14.754  0.1105 -0.2535  0.3120
14958TIP3    H166365   5.344   3.582  14.731  0.2118 -0.3093  0.5698
14958TIP3    H266366   5.407   3.716  14.702  0.1855 -0.3466  0.3377
14959TIP3   OH266367   4.492   5.176   6.001 -0.4650  0.2593 -0.0786
14959TIP3    H166368   4.449   5.227   6.069 -1.6277  0.5335 -1.0109
14959TIP3    H266369   4.422   5.149   5.942  0.6039  0.6047 -1.5508
14960TIP3   OH266370   5.104   2.923   4.545  0.1139  0.2476  1.1907
14960TIP3    H166371   5.177   2.984   4.534 -0.2674  0.3822 -0.6816
14960TIP3    H266372   5.118   2.856   4.478 -2.2061  0.9889 -0.0774
14961TIP3   OH266373   4.437   6.150  11.028 -0.1597  0.2380  0.3149
14961TIP3    H166374   4.495   6.160  10.952 -0.5800 -0.7367 -0.1497
14961TIP3    H266375   4.494   6.115  11.097  0.1295  0.7133  0.3186
14962TIP3   OH266376   2.161   4.671   5.326 -0.4176  0.2240  0.1276
14962TIP3    H166377   2.205   4.696   5.407 -0.0912 -0.0445  0.0293
14962TIP3    H266378   2.123   4.753   5.294 -0.1171  0.4247  0.2857
14963TIP3   OH266379   3.856   1.747  11.120  0.0383  0.0211  0.1672
14963TIP3    H166380   3.839   1.713  11.208  2.0544 -2.0019 -0.1885
14963TIP3    H266381   3.928   1.693  11.086  1.0608  2.4555 -1.7250
14964TIP3   OH266382   0.273   1.926   6.161  0.0932  0.3326  0.0522
14964TIP3    H166383   0.184   1.942   6.192 -0.4905 -2.6334  0.0711
14964TIP3    H266384   0.290   1.999   6.100 -2.3552  0.9278  0.0033
14965TIP3   OH266385   2.034   5.260   1.485 -0.4022  0.0765 -0.8746
14965TIP3    H166386   1.958   5.261   1.427  0.3184 -0.5405 -1.8340
14965TIP3    H266387   1.998   5.234   1.570 -1.4390  0.8902 -1.0514
14966TIP3   OH266388   2.075   5.907   4.561 -0.2391 -0.1969  0.0726
14966TIP3    H166389   2.072   5.886   4.654 -2.9238 -0.8546 -0.1337
14966TIP3    H266390   2.054   6.000   4.557 -2.6522 -0.7134 -0.0169
14967TIP3   OH266391   5.164   4.001   0.183  0.0662 -1.0871 -0.1293
14967TIP3    H166392   5.198   4.090   0.174 -0.5338 -0.9026 -0.5338
14967TIP3    H266393   5.201   3.970   0.266  0.2777 -0.4676  0.0099
14968TIP3   OH266394   2.272   3.768   0.979 -0.6425 -0.0715  0.4931
14968TIP3    H166395   2.213   3.830   0.937 -0.1995  0.4251  0.6048
14968TIP3    H266396   2.317   3.724   0.907  0.7885  1.4278  0.4586
14969TIP3   OH266397   1.233   5.832  11.593 -0.3022  0.4912  0.8924
14969TIP3    H166398   1.217   5.921  11.562 -1.0581 -0.1200 -0.5303
14969TIP3    H266399   1.178   5.777  11.538 -0.0104 -0.8496  1.8991
14970TIP3   OH266400   5.421   4.325  16.474 -0.3109 -0.2529  0.2244
14970TIP3    H166401   5.428   4.324  16.569 -1.5564 -3.9737  0.3327
14970TIP3    H266402   5.465   4.245  16.445 -0.7900  0.3438 -2.2712
14971TIP3   OH266403   2.311   1.688   4.513  0.2391  0.0250 -0.3782
14971TIP3    H166404   2.404   1.690   4.493  0.2935  1.7869 -0.0605
14971TIP3    H266405   2.272   1.746   4.447 -0.7596 -1.3941 -1.0672
14972TIP3   OH266406   2.522   0.767   0.451  0.0324 -0.4911 -0.3403
14972TIP3    H166407   2.438   0.784   0.407 -0.3551  1.2040  0.9918
14972TIP3    H266408   2.545   0.678   0.426 -1.3724 -0.4044 -2.0268
14973TIP3   OH266409   1.052   0.182  12.437  0.2416 -0.1852  0.1096
14973TIP3    H166410   1.101   0.145  12.364 -0.3757  0.9401 -0.8968
14973TIP3    H266411   0.963   0.149  12.426  0.9764 -3.2824  2.6684
14974TIP3   OH266412   6.019   4.980   2.202  0.3226 -0.0849  0.5473
14974TIP3    H166413   5.969   5.061   2.190  1.0504 -0.0641 -2.7911
14974TIP3    H266414   6.072   4.996   2.280  0.3958  2.6393 -0.0237
14975TIP3   OH266415   1.726   5.023   0.386 -0.4033  0.3552 -0.1709
14975TIP3    H166416   1.700   5.056   0.472 -1.3909 -1.4830  0.2665
14975TIP3    H266417   1.770   4.940   0.404 -0.7061 -0.0926 -1.4417
14976TIP3   OH266418   0.475   3.799   1.188  0.1999 -0.2055  0.1162
14976TIP3    H166419   0.547   3.841   1.236  0.5437  0.4191 -0.9189
14976TIP3    H266420   0.418   3.871   1.162 -0.1991 -0.5801 -0.0547
14977TIP3   OH266421   3.774   3.074  13.608  0.0192 -0.1784  0.1392
14977TIP3    H166422   3.771   3.152  13.552 -0.6357  0.5471  1.1572
14977TIP3    H266423   3.862   3.039  13.596 -1.0766 -1.8261 -3.7149
14978TIP3   OH266424   6.726   5.026   3.672 -0.0623  0.4733 -0.1391
14978TIP3    H166425   6.639   5.065   3.671  0.0026  0.6094 -0.3981
14978TIP3    H266426   6.786   5.101   3.670  0.0686  0.4379  1.3490
14979TIP3   OH266427   4.168   0.663   3.482  0.2060  0.1262 -0.2540
14979TIP3    H166428   4.079   0.639   3.456 -0.0002 -2.0423  2.1604
14979TIP3    H266429   4.218   0.582   3.472  1.4211  0.7824  0.3754
14980TIP3   OH266430   2.802   0.344   0.534 -0.4521  0.1066 -0.0349
14980TIP3    H166431   2.730   0.306   0.585 -0.4322  0.6634  0.4144
14980TIP3    H266432   2.874   0.352   0.596  0.5346 -1.9552 -0.8747
14981TIP3   OH266433   5.867   5.751  14.976 -0.6798  0.2791  0.1337
14981TIP3    H166434   5.931   5.820  14.960  0.2200 -0.3269  0.9846
14981TIP3    H266435   5.883   5.725  15.067 -1.1151 -0.9204 -0.1227
14982TIP3   OH266436   3.589   0.946   3.230 -0.1828  0.0992  0.8847
14982TIP3    H166437   3.537   0.869   3.205  1.2325 -1.5207  2.7173
14982TIP3    H266438   3.643   0.964   3.153  0.4257 -1.5890  0.8956
14983TIP3   OH266439   2.831   1.129  16.554 -0.3147 -0.5122  0.5590
14983TIP3    H166440   2.830   1.154  16.646  0.5903 -2.8628  1.2487
14983TIP3    H266441   2.767   1.057  16.547 -0.1846 -0.5377 -0.5899
14984TIP3   OH266442   1.597   1.802  17.072 -0.2173 -0.0430  0.0605
14984TIP3    H166443   1.511   1.843  17.087 -0.2801 -1.0408  2.7774
14984TIP3    H266444   1.640   1.859  17.008 -2.1089  1.6182  0.2091
14985TIP3   OH266445   2.535   2.913   1.225 -0.1782 -0.3848 -0.2949
14985TIP3    H166446   2.569   2.858   1.295  1.8638  0.4378 -0.5992
14985TIP3    H266447   2.442   2.924   1.245  0.5277  0.4328  2.6607
14986TIP3   OH266448   6.814   6.320  16.054 -0.6251 -0.1360 -0.6187
14986TIP3    H166449   6.902   6.356  16.058 -0.4210 -0.6428 -0.5666
14986TIP3    H266450   6.826   6.226  16.060 -1.2916 -0.1167  1.5156
14987TIP3   OH266451   5.078   4.026  11.045  0.1428  0.1021  0.0193
14987TIP3    H166452   5.106   3.941  11.010  0.3267  0.8002 -1.5822
14987TIP3    H266453   5.151   4.084  11.029 -0.0622  0.6219  0.9369
14988TIP3   OH266454   6.176   0.360  12.282 -0.0186 -0.0086  0.2090
14988TIP3    H166455   6.209   0.336  12.196 -1.0740 -0.0688 -0.1887
14988TIP3    H266456   6.250   0.347  12.341  1.2502  1.7112 -0.9515
14989TIP3   OH266457   6.409   6.756   3.225 -0.6105 -0.8396 -0.3810
14989TIP3    H166458   6.419   6.678   3.172 -0.2298 -1.0493 -0.0029
14989TIP3    H266459   6.358   6.727   3.301 -0.6104 -0.6831 -0.3201
14990TIP3   OH266460   5.062   6.380  16.518 -0.0749  0.2195 -0.5927
14990TIP3    H166461   5.111   6.462  16.521 -0.2681  0.2832  0.9919
14990TIP3    H266462   5.049   6.356  16.609 -3.1901  0.2996 -0.9471
14991TIP3   OH266463   0.665   5.529  12.360  0.5543 -0.1406  0.3661
14991TIP3    H166464   0.689   5.614  12.396 -0.6128  0.7257 -0.8571
14991TIP3    H266465   0.712   5.465  12.414  0.5839  1.2300  1.9821
14992TIP3   OH266466   5.587   5.565   4.748  0.2933 -0.1700  0.1121
14992TIP3    H166467   5.657   5.527   4.695 -0.0826  0.4078 -0.8273
14992TIP3    H266468   5.507   5.527   4.711 -0.0268  0.8345 -0.2660
14993TIP3   OH266469   3.438   2.961  11.785 -0.1894  0.5074 -0.4432
14993TIP3    H166470   3.455   3.010  11.866 -1.7188 -0.5875  0.5711
14993TIP3    H266471   3.367   3.010  11.742 -0.9993 -0.2056  0.0583
14994TIP3   OH266472   2.285   0.531  15.903 -0.2709 -0.3701 -0.1965
14994TIP3    H166473   2.227   0.460  15.932 -0.0186 -0.9424 -1.0732
14994TIP3    H266474   2.312   0.505  15.815  0.7487  0.2486 -0.0705
14995TIP3   OH266475   1.387   2.670   5.519 -0.5429  0.2538 -0.2718
14995TIP3    H166476   1.306   2.676   5.569  1.8154 -0.6291  3.8375
14995TIP3    H266477   1.421   2.583   5.538  1.8332  0.9385 -1.1684
14996TIP3   OH266478   4.072   3.577   0.061 -0.0629 -0.7493  0.2534
14996TIP3    H166479   3.999   3.638   0.055 -1.0281 -2.0068 -1.0265
14996TIP3    H266480   4.053   3.525   0.138 -0.5714 -1.1368 -0.1302
14997TIP3   OH266481   4.819   4.026  12.774 -0.3156  0.0423 -0.1024
14997TIP3    H166482   4.816   4.093  12.705  0.0976  0.1145 -0.0553
14997TIP3    H266483   4.849   4.073  12.852  0.4547 -0.2940 -0.1908
14998TIP3   OH266484   6.273   4.104  11.719 -0.2636 -0.0555 -0.9838
14998TIP3    H166485   6.284   4.187  11.766 -0.1784 -0.1924 -0.7592
14998TIP3    H266486   6.300   4.037  11.782 -1.6952 -0.3500 -0.6495
14999TIP3   OH266487   2.996   4.212   2.692 -0.6956  0.3266  0.2669
14999TIP3    H166488   2.949   4.273   2.634  0.0495  0.6930  0.0294
14999TIP3    H266489   3.026   4.142   2.634 -0.4002  0.4245  0.2980
15000TIP3   OH266490   3.274   3.923  14.096 -0.7975  0.7180 -0.5165
15000TIP3    H166491   3.325   3.845  14.119  0.2855  1.4305 -0.4251
15000TIP3    H266492   3.223   3.942  14.175 -1.8684 -0.5011 -0.9036
15001TIP3   OH266493   6.219   5.375  12.933 -0.4111 -0.1220  0.0043
15001TIP3    H166494   6.138   5.401  12.976  0.2335 -2.3345  2.7242
15001TIP3    H266495   6.286   5.433  12.971 -0.5348  1.1425 -1.6260
15002TIP3   OH266496   3.914   3.780   4.692  0.1391 -0.0784  0.0560
15002TIP3    H166497   3.998   3.735   4.692 -0.3835 -1.0930 -1.7585
15002TIP3    H266498   3.879   3.764   4.780  2.0795  0.8478  1.0151
15003TIP3   OH266499   2.243   2.946   1.179  0.1353  0.0061 -0.3085
15003TIP3    H166500   2.188   3.022   1.199  0.4598 -0.1917  1.3637
15003TIP3    H266501   2.260   2.954   1.085 -1.0412  1.1963 -0.4409
15004TIP3   OH266502   3.391   3.917   3.626 -0.2412  0.3597  0.1924
15004TIP3    H166503   3.315   3.865   3.600 -0.0598  0.3458 -0.3188
15004TIP3    H266504   3.354   3.998   3.661 -0.4751  0.9073 -1.2578
15005TIP3   OH266505   0.264   0.899   4.673 -0.6635  0.1238  0.0362
15005TIP3    H166506   0.268   0.889   4.768 -1.8750  1.1449  0.2024
15005TIP3    H266507   0.333   0.963   4.653 -1.2462  0.8529  0.3662
15006TIP3   OH266508   5.958   1.730   2.739 -0.1626  0.1052 -0.4762
15006TIP3    H166509   5.893   1.662   2.753  0.4547 -0.4636 -0.3626
15006TIP3    H266510   6.042   1.685   2.747  0.2669  1.1609  0.9975
15007TIP3   OH266511   6.061   0.898   6.497  0.4102  0.2300  0.2186
15007TIP3    H166512   6.134   0.934   6.447 -0.1525  1.2196  0.0945
15007TIP3    H266513   6.061   0.948   6.579  0.3775 -0.3225  0.5580
15008TIP3   OH266514   3.623   6.771  15.629 -0.2448 -0.0235  0.2343
15008TIP3    H166515   3.678   6.725  15.566 -2.0290  0.8414 -2.0193
15008TIP3    H266516   3.681   6.836  15.669  0.6339  0.2031 -1.3568
15009TIP3   OH266517   1.229   1.234   3.435  0.3863 -0.1424  0.1364
15009TIP3    H166518   1.260   1.320   3.407 -0.4931 -0.0923 -0.6898
15009TIP3    H266519   1.294   1.173   3.399  0.7845  0.1371  0.3733
15010TIP3   OH266520   1.446   6.503   3.866 -0.2549  0.7756  0.5083
15010TIP3    H166521   1.435   6.598   3.856  1.3586  0.8206 -1.1343
15010TIP3    H266522   1.388   6.465   3.801 -1.9423  0.5652  2.0970
15011TIP3   OH266523   2.073   2.723  15.790 -0.4647  0.0116 -0.0933
15011TIP3    H166524   2.075   2.805  15.742 -0.3409  1.3885  2.1659
15011TIP3    H266525   1.995   2.728  15.845  0.3051 -0.7350  1.1217
15012TIP3   OH266526   5.677   3.711  12.213 -0.2305 -0.0477 -0.4416
15012TIP3    H166527   5.672   3.771  12.139  2.1666 -0.6046 -1.1330
15012TIP3    H266528   5.735   3.641  12.182 -0.6889 -1.2423  1.3305
15013TIP3   OH266529   2.060   6.589   1.175  0.3089 -0.2413  0.0662
15013TIP3    H166530   2.030   6.632   1.095  2.4118 -0.9588 -1.1518
15013TIP3    H266531   2.156   6.587   1.167  0.5250 -0.8480  2.3308
15014TIP3   OH266532   2.007   3.904  13.020 -0.1182 -0.1804 -0.5604
15014TIP3    H166533   1.935   3.936  12.966  1.3347  1.3384 -1.6226
15014TIP3    H266534   2.054   3.842  12.964  0.3742  0.0795 -0.4367
15015TIP3   OH266535   3.364   3.213  13.366 -0.2709  0.8073 -0.0817
15015TIP3    H166536   3.412   3.160  13.302 -0.3089 -0.0426  0.5869
15015TIP3    H266537   3.272   3.190  13.352 -0.3588  1.3135 -0.3449
15016TIP3   OH266538   6.226   1.096  10.593 -0.0667  0.5719 -0.5557
15016TIP3    H166539   6.134   1.119  10.581 -0.2279  0.1489 -0.1692
15016TIP3    H266540   6.231   1.003  10.571  0.2153  0.5276 -0.3152
15017TIP3   OH266541   5.732   6.130  11.604  0.1478  0.4713 -0.1033
15017TIP3    H166542   5.814   6.084  11.620  0.2514  1.2839  1.8613
15017TIP3    H266543   5.758   6.219  11.578 -0.0840  0.3577 -0.7201
15018TIP3   OH266544   0.895   0.161   4.271 -0.4436  0.2289 -0.2669
15018TIP3    H166545   0.845   0.187   4.193  1.2463  0.4995 -1.2673
15018TIP3    H266546   0.888   0.236   4.330 -0.6915  0.5149 -0.6529
15019TIP3   OH266547   3.372   5.082   5.707  0.1342 -0.3076 -0.0273
15019TIP3    H166548   3.352   4.988   5.703 -0.3191 -0.3282  2.1561
15019TIP3    H266549   3.366   5.104   5.800  2.6322  1.3768 -0.2070
15020TIP3   OH266550   2.993   1.940   5.081  0.3057  0.5888  0.2353
15020TIP3    H166551   3.005   1.845   5.075 -1.7054  0.3261 -0.0281
15020TIP3    H266552   2.953   1.953   5.168  0.4087  1.1768  0.1965
15021TIP3   OH266553   4.019   5.750   4.255  0.3625  0.0492 -0.4055
15021TIP3    H166554   4.012   5.656   4.274  2.0929  0.2562  1.4281
15021TIP3    H266555   4.097   5.758   4.200 -0.0219  0.3635 -0.9063
15022TIP3   OH266556   6.682   5.699  16.049  0.8047 -0.0241 -0.1428
15022TIP3    H166557   6.652   5.648  16.125  1.0766 -2.3251 -1.5367
15022TIP3    H266558   6.775   5.680  16.044  0.6768 -0.3238 -1.3864
15023TIP3   OH266559   3.390   5.188  11.806 -0.2941  0.4843  0.6347
15023TIP3    H166560   3.428   5.267  11.844  0.0851  0.1782  0.8926
15023TIP3    H266561   3.436   5.177  11.723 -1.4118  1.3884 -0.1285
15024TIP3   OH266562   4.675   1.274   4.917 -0.3725  0.1023 -0.3323
15024TIP3    H166563   4.703   1.346   4.860  0.6528  0.6630  0.8493
15024TIP3    H266564   4.751   1.215   4.919  0.7368  1.5257  2.7260
15025TIP3   OH266565   5.265   2.764   4.737  0.1185 -0.2867 -0.6363
15025TIP3    H166566   5.219   2.761   4.653 -0.3821  0.1398 -0.3817
15025TIP3    H266567   5.195   2.760   4.803  0.4491  0.2821 -0.2452
15026TIP3   OH266568   0.495   3.842   4.214 -0.2563 -0.9609 -0.1737
15026TIP3    H166569   0.560   3.899   4.256 -0.4421 -1.8924  1.4228
15026TIP3    H266570   0.500   3.864   4.121  1.3927 -0.0611  0.1085
15027TIP3   OH266571   4.005   1.550  15.973 -0.1334 -0.4594  0.6676
15027TIP3    H166572   3.922   1.523  16.011  1.3405 -2.5555  2.5361
15027TIP3    H266573   4.054   1.469  15.960  1.6754  0.7396 -0.2615
15028TIP3   OH266574   4.194   4.570  15.672  0.6441 -0.2385  0.0065
15028TIP3    H166575   4.182   4.640  15.736 -0.3546  0.3972 -0.8652
15028TIP3    H266576   4.280   4.588  15.633  0.2694  0.6775 -0.4192
15029TIP3   OH266577   2.864   6.320  12.744 -0.3424 -0.5705  0.3737
15029TIP3    H166578   2.804   6.314  12.670 -0.5613  0.9548  0.4215
15029TIP3    H266579   2.838   6.400  12.791  1.2364 -0.2867  0.8112
15030TIP3   OH266580   2.597   5.541  15.081  0.5847  0.6019 -0.1136
15030TIP3    H166581   2.520   5.549  15.024  0.8413  0.6574 -0.4527
15030TIP3    H266582   2.654   5.478  15.036 -0.5864 -1.7595  1.6041
15031TIP3   OH266583   2.925   6.153   1.349  0.5360 -0.1243 -0.1912
15031TIP3    H166584   2.941   6.076   1.294  2.6388 -0.3613  0.7358
15031TIP3    H266585   2.926   6.120   1.438 -3.0118  0.2428  0.0547
15032TIP3   OH266586   0.918   4.886   5.611  0.2764 -0.4965 -0.2333
15032TIP3    H166587   0.926   4.981   5.622  0.6379 -0.3253 -1.9218
15032TIP3    H266588   0.826   4.872   5.590  0.5489 -0.3539 -1.5464
15033TIP3   OH266589   2.269   2.293  16.047 -0.0728  0.1667  0.6598
15033TIP3    H166590   2.345   2.349  16.059 -0.0058  0.7249 -1.9967
15033TIP3    H266591   2.201   2.352  16.012 -0.4254 -1.0862 -0.8444
15034TIP3   OH266592   3.579   1.663   5.824 -0.1483  0.0890 -0.0717
15034TIP3    H166593   3.569   1.579   5.870 -0.6879 -0.3548 -0.9807
15034TIP3    H266594   3.490   1.699   5.822 -0.3108 -0.3817 -1.6659
15035TIP3   OH266595   2.713   5.565   4.618 -0.2878 -0.1514  1.1590
15035TIP3    H166596   2.680   5.563   4.528  0.3732 -0.5354  0.9236
15035TIP3    H266597   2.803   5.598   4.610 -0.3191  0.0714  1.7060
15036TIP3   OH266598   4.305   2.616  15.140  0.2973  0.1578  0.0824
15036TIP3    H166599   4.326   2.535  15.187  0.5298 -0.0021 -0.3007
15036TIP3    H266600   4.351   2.609  15.057  1.9243  1.5744  0.8298
15037TIP3   OH266601   2.492   3.205   2.937 -0.1050  0.5676  0.0988
15037TIP3    H166602   2.471   3.164   2.852 -0.6444 -0.8651  0.9014
15037TIP3    H266603   2.587   3.217   2.935 -0.0978  0.4332 -0.6665
15038TIP3   OH266604   5.829   5.546   4.609  0.4274 -0.7031 -0.1574
15038TIP3    H166605   5.787   5.564   4.525 -0.1246 -0.6133  0.1329
15038TIP3    H266606   5.869   5.629   4.635 -1.5005 -0.0589  0.8389
15039TIP3   OH266607   2.531   3.811  15.477  0.5605 -0.9970  0.1611
15039TIP3    H166608   2.517   3.719  15.453 -0.2703 -0.5033 -1.3443
15039TIP3    H266609   2.449   3.836  15.521  0.0851 -0.5046 -0.9850
15040TIP3   OH266610   1.187   0.701  14.849 -0.7464 -0.8327  0.4401
15040TIP3    H166611   1.243   0.642  14.798  0.2757  0.7020 -0.2716
15040TIP3    H266612   1.188   0.665  14.937  1.5893 -0.7099  0.4972
15041TIP3   OH266613   4.738   3.895  17.011  0.4546 -0.2082  0.5500
15041TIP3    H166614   4.770   3.807  17.031  0.0562 -0.4148  0.2921
15041TIP3    H266615   4.721   3.934  17.096  2.2881  0.2463  0.7263
15042TIP3   OH266616   5.063   0.178  15.393  0.6114 -0.0325 -0.2421
15042TIP3    H166617   5.144   0.226  15.376  0.8609  0.6345  2.6098
15042TIP3    H266618   5.091   0.100  15.441 -0.4624  0.3924  1.1097
15043TIP3   OH266619   5.757   2.240   5.380  0.4500 -0.8933 -0.6748
15043TIP3    H166620   5.762   2.273   5.470  1.0745 -0.0853 -0.9979
15043TIP3    H266621   5.663   2.228   5.364  0.2746 -0.0804 -0.2540
15044TIP3   OH266622   1.592   6.800  12.068  0.0840  0.1377  0.4342
15044TIP3    H166623   1.616   6.849  11.990 -0.0838  0.3142  0.4959
15044TIP3    H266624   1.673   6.795  12.119 -0.1328  1.2036  0.8985
15045TIP3   OH266625   6.460   4.862   1.832 -0.4361  0.0539  0.7824
15045TIP3    H166626   6.548   4.832   1.812 -2.1026 -2.5013 -3.3842
15045TIP3    H266627   6.458   4.953   1.803  0.2095 -0.5729 -1.2856
15046TIP3   OH266628   1.957   2.519  11.864 -0.7414 -0.2105  0.6905
15046TIP3    H166629   1.925   2.429  11.863  0.8687 -0.7931 -0.3910
15046TIP3    H266630   1.894   2.567  11.810  0.1138 -1.3277 -1.3726
15047TIP3   OH266631   6.478   4.734   3.512  0.0952  0.2364 -0.2188
15047TIP3    H166632   6.458   4.677   3.586 -0.5316 -0.4657 -0.9144
15047TIP3    H266633   6.419   4.809   3.522  0.3427  0.3742  0.2422
15048TIP3   OH266634   6.129   2.099   1.195 -0.5615  0.3328  0.1653
15048TIP3    H166635   6.141   2.077   1.287  2.7624 -1.6427 -0.6212
15048TIP3    H266636   6.078   2.026   1.160  0.2095 -0.1469  0.0085
15049TIP3   OH266637   3.231   6.530   2.351  0.1770 -0.0137 -0.5416
15049TIP3    H166638   3.264   6.451   2.309 -0.9997  0.9921 -3.5052
15049TIP3    H266639   3.243   6.514   2.445  2.6911 -2.4325 -1.2055
15050TIP3   OH266640   4.462   2.337  13.413 -0.4542 -0.3382 -0.1751
15050TIP3    H166641   4.466   2.417  13.361  0.1559  0.4710  1.0885
15050TIP3    H266642   4.393   2.353  13.478  0.0177 -0.6356  0.4109
15051TIP3   OH266643   2.465   0.886   3.662 -0.2389 -0.0897 -0.1093
15051TIP3    H166644   2.526   0.891   3.735  0.2928 -2.1216 -0.3753
15051TIP3    H266645   2.428   0.974   3.655 -0.4129  0.1007  2.6911
15052TIP3   OH266646   1.739   2.379  15.406  0.3292 -0.2976 -0.7927
15052TIP3    H166647   1.656   2.331  15.411  0.1673 -0.0526 -1.1112
15052TIP3    H266648   1.778   2.350  15.323  1.0546 -1.2073 -0.1481
15053TIP3   OH266649   0.930   0.573   4.200  0.2062  0.1061 -0.4074
15053TIP3    H166650   0.915   0.492   4.250  0.0212  0.9437  0.9092
15053TIP3    H266651   0.849   0.623   4.210  1.0661  1.3470  0.4928
15054TIP3   OH266652   3.612   6.579  16.064 -0.7471 -0.0881  0.6555
15054TIP3    H166653   3.660   6.529  16.130  0.9214 -1.5316 -1.5576
15054TIP3    H266654   3.587   6.514  15.998 -1.9379  1.3854 -0.3952
15055TIP3   OH266655   2.659   3.463  15.596 -0.0327  0.0666  0.6626
15055TIP3    H166656   2.652   3.411  15.676 -0.1524  1.5783  1.6558
15055TIP3    H266657   2.677   3.551  15.627  0.4337  0.5709 -1.0118
15056TIP3   OH266658   6.265   0.367   4.208  0.3877  0.5247 -0.4300
15056TIP3    H166659   6.352   0.350   4.172  0.9572 -0.3127  1.3073
15056TIP3    H266660   6.279   0.375   4.302 -1.3802  0.6225 -0.1630
15057TIP3   OH266661   1.492   4.455  13.574 -0.0342  0.0818 -0.1194
15057TIP3    H166662   1.548   4.462  13.652  0.9185  0.4298 -0.8229
15057TIP3    H266663   1.550   4.476  13.501 -0.6468 -1.3322 -1.0343
15058TIP3   OH266664   2.902   3.057  16.939  0.0197 -0.5761  0.1525
15058TIP3    H166665   2.896   2.964  16.918  2.1117 -1.0780  1.5481
15058TIP3    H266666   2.992   3.068  16.971 -0.3079  1.8509  0.3162
15059TIP3   OH266667   0.210   2.883   1.117  0.0573  0.3554 -0.0616
15059TIP3    H166668   0.267   2.873   1.194  0.7773  2.5569 -0.2905
15059TIP3    H266669   0.123   2.859   1.149  0.6484 -0.5074  0.9581
15060TIP3   OH266670   2.124   5.176  15.452 -0.1777 -0.1132  0.0113
15060TIP3    H166671   2.123   5.251  15.392  1.0923 -2.3644 -2.9379
15060TIP3    H266672   2.045   5.127  15.430 -0.4140 -0.2597  1.1548
15061TIP3   OH266673   5.975   0.626  16.184 -0.4505 -0.5912  0.9654
15061TIP3    H166674   5.902   0.613  16.245 -1.9687 -0.4074 -0.7721
15061TIP3    H266675   5.960   0.713  16.148 -1.4935 -1.9662 -2.1209
15062TIP3   OH266676   4.202   3.226   5.938  0.7639  0.1961  0.2421
15062TIP3    H166677   4.107   3.237   5.933  0.7168 -0.0153  0.6892
15062TIP3    H266678   4.229   3.284   6.009  0.9001 -0.1967  0.5089
15063TIP3   OH266679   1.074   1.814  12.659 -0.1487  0.3394  0.7337
15063TIP3    H166680   1.097   1.889  12.713  1.2244  0.5404 -0.1304
15063TIP3    H266681   1.054   1.745  12.722  0.3181  0.9052  1.5127
15064TIP3   OH266682   4.597   2.482   4.913  0.3701  0.0480 -0.5891
15064TIP3    H166683   4.510   2.490   4.953  0.2998  0.8807 -0.9069
15064TIP3    H266684   4.647   2.430   4.976 -0.6774 -1.3738 -0.9147
15065TIP3   OH266685   1.971   3.271   5.719  0.2876 -0.2129 -0.0697
15065TIP3    H166686   1.988   3.186   5.678  2.2968 -0.7674  1.8053
15065TIP3    H266687   2.007   3.263   5.808  1.8177  3.0629 -0.3120
15066TIP3   OH266688   0.234   5.972  16.225 -0.2100 -0.1443  0.6882
15066TIP3    H166689   0.278   6.041  16.274 -2.5048  1.0712  1.0860
15066TIP3    H266690   0.248   5.893  16.277  1.5404  0.1834  0.7591
15067TIP3   OH266691   0.633   1.113   5.239  0.1924  0.3645 -0.6183
15067TIP3    H166692   0.562   1.139   5.180 -1.1537  0.5555  1.0559
15067TIP3    H266693   0.682   1.194   5.254 -0.2368  0.5945 -0.4403
15068TIP3   OH266694   6.220   6.712   2.562  0.3720 -0.1102  0.0450
15068TIP3    H166695   6.219   6.654   2.485  0.1500  0.9969 -0.7973
15068TIP3    H266696   6.167   6.666   2.627 -0.3874 -0.5299 -0.8647
15069TIP3   OH266697   0.738   4.616   1.320  0.0073  0.4096 -0.3452
15069TIP3    H166698   0.727   4.584   1.410 -0.2191  0.3246 -0.4033
15069TIP3    H266699   0.777   4.703   1.330 -2.4105  1.5054 -0.0582
15070TIP3   OH266700   6.269   3.295   1.754 -0.3318  0.3012 -0.4239
15070TIP3    H166701   6.291   3.374   1.803 -2.4296  0.0638  0.9611
15070TIP3    H266702   6.324   3.299   1.675 -1.2261  3.7268 -0.9482
15071TIP3   OH266703   5.751   6.696   1.385 -0.2803 -0.4217  0.1347
15071TIP3    H166704   5.784   6.744   1.308 -0.2817 -0.4007  0.1473
15071TIP3    H266705   5.743   6.763   1.453 -1.8186 -0.1390 -0.3126
15072TIP3   OH266706   6.702   3.730   3.851  0.3213 -0.3237 -0.4562
15072TIP3    H166707   6.680   3.759   3.940 -1.2051 -0.5787 -0.7315
15072TIP3    H266708   6.732   3.640   3.862 -0.5386 -0.5892 -0.2794
15073TIP3   OH266709   1.074   2.431   1.449 -0.4480  0.2588 -0.5396
15073TIP3    H166710   1.136   2.381   1.395  1.1050  2.1668 -0.6188
15073TIP3    H266711   0.989   2.391   1.432  0.4799 -1.1719 -1.9833
15074TIP3   OH266712   2.796   2.658  15.262 -0.4454  0.2457  0.8908
15074TIP3    H166713   2.792   2.666  15.167 -0.0237 -0.8566  0.7726
15074TIP3    H266714   2.840   2.737  15.292  1.1739 -0.2930  0.0076
15075TIP3   OH266715   6.196   6.189  15.555 -0.1759  0.4210  0.3531
15075TIP3    H166716   6.119   6.228  15.514  0.5776  2.2420  0.6332
15075TIP3    H266717   6.208   6.105  15.509 -0.6626  1.4060 -1.6210
15076TIP3   OH266718   3.059   0.859  11.371 -0.0860 -0.1921 -0.3242
15076TIP3    H166719   3.076   0.902  11.288  0.4982 -1.3144 -0.7990
15076TIP3    H266720   3.032   0.929  11.430 -1.3043  0.4946 -1.6780
15077TIP3   OH266721   1.771   6.319   2.494 -0.7961  0.0005  0.3126
15077TIP3    H166722   1.792   6.226   2.497 -0.7950 -0.0235 -0.4971
15077TIP3    H266723   1.757   6.338   2.401 -0.1339  0.9490  0.3959
15078TIP3   OH266724   4.052   0.531   0.743 -0.3861  0.1314 -0.4580
15078TIP3    H166725   3.980   0.503   0.687 -0.3674  0.7609 -0.8035
15078TIP3    H266726   4.130   0.492   0.704 -0.4884 -0.2054 -0.3261
15079TIP3   OH266727   1.949   1.426  11.480  0.1201 -0.1692 -0.1259
15079TIP3    H166728   1.924   1.473  11.401 -0.8220  1.7960  1.3117
15079TIP3    H266729   2.012   1.360  11.450  1.5569  2.0666 -2.1779
15080TIP3   OH266730   5.785   3.380  14.238 -0.0881  0.0174 -0.0683
15080TIP3    H166731   5.828   3.445  14.182 -1.1851 -0.2512 -1.2323
15080TIP3    H266732   5.711   3.428  14.276  1.1917  0.4808  1.9346
15081TIP3   OH266733   4.897   0.485   2.527 -0.2001  0.3435 -0.1576
15081TIP3    H166734   4.820   0.534   2.552  0.6140  1.3884  0.3326
15081TIP3    H266735   4.864   0.414   2.471 -1.7618 -0.6948  2.0432
15082TIP3   OH266736   4.612   5.274  12.161  0.4567 -0.4402 -0.2753
15082TIP3    H166737   4.550   5.238  12.224 -0.3389  1.6125  0.1510
15082TIP3    H266738   4.560   5.291  12.082 -0.0724  3.3242  0.7976
15083TIP3   OH266739   1.100   1.345   1.102  0.3224  0.0314  0.4677
15083TIP3    H166740   1.022   1.400   1.093  0.0682 -0.3794  0.1363
15083TIP3    H266741   1.072   1.272   1.158  0.6425  0.2020  0.8563
15084TIP3   OH266742   0.868   2.382   4.024  0.3390  0.2659 -0.3199
15084TIP3    H166743   0.916   2.401   4.104  0.2470  0.7730 -0.3804
15084TIP3    H266744   0.926   2.411   3.954  0.4591 -0.2640 -0.4415
15085TIP3   OH266745   3.077   2.720   0.879  0.0904 -0.3665 -0.2883
15085TIP3    H166746   3.064   2.643   0.933 -0.5002 -0.5542 -0.6834
15085TIP3    H266747   3.116   2.687   0.798  0.3784 -0.1754 -0.2264
15086TIP3   OH266748   0.992   0.893  13.409 -0.0896 -0.2490 -0.3162
15086TIP3    H166749   0.938   0.950  13.354  0.1854 -1.0806 -1.4664
15086TIP3    H266750   0.930   0.839  13.457 -0.3060 -0.4281 -0.7970
15087TIP3   OH266751   2.637   3.358   4.729 -0.0265 -0.1719 -0.2801
15087TIP3    H166752   2.710   3.388   4.675 -0.0647  0.6008  0.0930
15087TIP3    H266753   2.602   3.438   4.768 -1.6770 -0.4207 -1.1992
15088TIP3   OH266754   3.064   2.163  14.161 -0.2339 -0.1844  0.3452
15088TIP3    H166755   3.099   2.074  14.166 -0.4019 -0.2743 -0.0510
15088TIP3    H266756   3.136   2.215  14.125 -0.1362 -0.1614  0.5758
15089TIP3   OH266757   3.772   5.475   3.192 -0.0750  0.4379 -0.4862
15089TIP3    H166758   3.768   5.542   3.260  0.9624 -0.2374  0.2581
15089TIP3    H266759   3.778   5.392   3.240  0.7862 -0.0341 -1.3888
15090TIP3   OH266760   6.236   0.550   3.446 -0.3199 -0.9467  0.2578
15090TIP3    H166761   6.165   0.560   3.383 -0.7728 -1.0629  0.7419
15090TIP3    H266762   6.279   0.468   3.422  0.0352 -0.5744 -0.4081
15091TIP3   OH266763   0.888   1.816   3.946  0.2298  0.1312 -0.3389
15091TIP3    H166764   0.911   1.846   4.034  1.2039 -0.4633 -0.3854
15091TIP3    H266765   0.912   1.723   3.945 -0.5832 -0.0723 -0.9513
15092TIP3   OH266766   6.606   3.173   0.464 -0.3329  0.0371 -0.1178
15092TIP3    H166767   6.534   3.118   0.435  0.0783 -0.5365 -0.0614
15092TIP3    H266768   6.651   3.198   0.383  1.4649 -2.4616  0.0632
15093TIP3   OH266769   2.218   3.867  15.853  0.5989 -0.4332  0.3336
15093TIP3    H166770   2.140   3.829  15.815 -1.4205  2.4956  1.3383
15093TIP3    H266771   2.272   3.892  15.778 -0.4606 -0.4309 -0.4294
15094TIP3   OH266772   0.611   3.854   3.666 -0.4368 -0.1422 -0.0803
15094TIP3    H166773   0.650   3.811   3.742 -0.3662  0.1936  0.0765
15094TIP3    H266774   0.555   3.787   3.626  0.7106 -0.8055 -0.6214
15095TIP3   OH266775   6.414   2.199   5.574  0.2486 -0.0366  0.0295
15095TIP3    H166776   6.326   2.224   5.604 -0.1612 -0.7178 -0.6053
15095TIP3    H266777   6.432   2.259   5.502  0.1190 -0.1859 -0.1281
15096TIP3   OH266778   3.529   2.660  15.089  0.4168  0.1022 -0.3677
15096TIP3    H166779   3.485   2.603  15.153  1.0442 -0.0404 -0.0594
15096TIP3    H266780   3.538   2.605  15.011 -1.2037  0.5839 -0.9009
15097TIP3   OH266781   3.699   2.595  11.959  0.2425 -0.2833 -0.1912
15097TIP3    H166782   3.669   2.671  11.909  0.8939 -0.7864 -1.3523
15097TIP3    H266783   3.794   2.600  11.955  0.2918 -0.5043  0.7385
15098TIP3   OH266784   6.549   3.352   2.646  0.0584  0.1609 -0.7027
15098TIP3    H166785   6.517   3.268   2.614 -0.6982  0.1221  0.1480
15098TIP3    H266786   6.612   3.330   2.714 -1.7651  0.3006  1.0555
15099TIP3   OH266787   5.592   6.482  17.286 -0.2653 -0.6913  0.3476
15099TIP3    H166788   5.636   6.406  17.325  0.4423 -1.9013 -2.7097
15099TIP3    H266789   5.500   6.472  17.312  0.6217  0.3016  4.3370
15100TIP3   OH266790   2.361   0.446  17.146 -0.1627 -0.1196 -0.0715
15100TIP3    H166791   2.356   0.364  17.196  0.2943 -1.5185 -2.2209
15100TIP3    H266792   2.379   0.417  17.056 -0.5780  2.3339 -0.9682
15101TIP3   OH266793   1.017   0.363  16.090  0.3132  0.5339 -0.0397
15101TIP3    H166794   1.025   0.323  16.176  1.4971 -0.1421 -0.4551
15101TIP3    H266795   0.989   0.292  16.033 -1.0734  1.1208 -0.0999
15102TIP3   OH266796   3.586   2.645  11.330 -0.8075 -0.1835 -0.1657
15102TIP3    H166797   3.575   2.562  11.375  0.4349  0.0119  0.5149
15102TIP3    H266798   3.497   2.680  11.322 -1.4189 -1.8978 -1.1154
15103TIP3   OH266799   5.769   3.080   4.570 -0.4363 -0.1931  0.1687
15103TIP3    H166800   5.842   3.087   4.509  0.4446  0.6398  1.2959
15103TIP3    H266801   5.764   2.987   4.592  0.1967 -0.2739 -0.0294
15104TIP3   OH266802   0.574   1.781   5.932  0.4051  0.1913 -0.2144
15104TIP3    H166803   0.524   1.704   5.959 -1.7511  1.2646 -0.9704
15104TIP3    H266804   0.594   1.765   5.840  2.4101 -0.7140  0.3668
15105TIP3   OH266805   3.404   4.303  16.177  0.7322  0.4929  0.0826
15105TIP3    H166806   3.466   4.234  16.198  0.5338  0.2545 -0.1032
15105TIP3    H266807   3.449   4.384  16.200  1.6679  0.4049 -1.3967
15106TIP3   OH266808   0.347   5.340  13.772  1.3820  0.2074 -0.6657
15106TIP3    H166809   0.433   5.376  13.751  0.7143  1.9838 -0.4317
15106TIP3    H266810   0.288   5.380  13.709  0.4494  0.3122  0.2615
15107TIP3   OH266811   5.880   6.671   3.656  0.6063  0.3194  0.3794
15107TIP3    H166812   5.822   6.596   3.667  0.4205  0.3154 -0.5630
15107TIP3    H266813   5.968   6.635   3.665  0.4852  0.2067  1.1408
15108TIP3   OH266814   6.667   5.076   4.143 -0.2144 -0.4286  0.2752
15108TIP3    H166815   6.740   5.031   4.186 -0.7755 -1.1345  0.4830
15108TIP3    H266816   6.670   5.045   4.053  0.3709  0.3276  0.0234
15109TIP3   OH266817   0.160   0.381  10.493 -0.6197 -0.0528  0.1789
15109TIP3    H166818   0.161   0.475  10.474  1.1725 -0.3220 -1.1073
15109TIP3    H266819   0.085   0.348  10.443 -0.5624  0.5138 -0.2919
15110TIP3   OH266820   0.410   4.388   5.396  0.5353  0.7799 -0.5407
15110TIP3    H166821   0.471   4.451   5.359 -0.6543  0.3617 -3.3697
15110TIP3    H266822   0.404   4.319   5.330 -2.5364  0.5426 -0.0800
15111TIP3   OH266823   5.897   1.522   4.588 -0.1387  0.2450 -0.0198
15111TIP3    H166824   5.830   1.536   4.655  2.0803  1.5206  1.9913
15111TIP3    H266825   5.940   1.607   4.579  0.4275 -0.2359 -2.1920
15112TIP3   OH266826   1.170   0.532   3.327  0.1838 -0.0889 -0.2796
15112TIP3    H166827   1.256   0.496   3.349  0.4495  1.7204  1.7552
15112TIP3    H266828   1.184   0.626   3.318 -1.6124  0.2744  0.3451
15113TIP3   OH266829   2.193   6.503   0.901 -0.7047 -0.0726  0.0706
15113TIP3    H166830   2.109   6.477   0.937 -0.4609  1.5099  1.8399
15113TIP3    H266831   2.254   6.436   0.933 -1.1458 -0.7976 -0.5876
15114TIP3   OH266832   4.814   2.928  13.943 -0.1761  0.7051  0.3126
15114TIP3    H166833   4.909   2.933  13.936 -0.1658  0.8923  0.5663
15114TIP3    H266834   4.782   2.986  13.873 -0.1225 -0.4136 -0.6538
15115TIP3   OH266835   0.666   1.669  15.758 -0.2132 -0.0966  0.0524
15115TIP3    H166836   0.628   1.725  15.691  0.1957  0.9900  0.6997
15115TIP3    H266837   0.743   1.631  15.716 -0.2336  0.1943 -0.2586
15116TIP3   OH266838   4.669   1.010  14.733 -0.0561 -0.0812 -0.5036
15116TIP3    H166839   4.747   1.065  14.725 -0.0616  0.3077  1.7195
15116TIP3    H266840   4.642   1.020  14.825 -1.0754 -2.4396 -0.5138
15117TIP3   OH266841   0.469   5.617   6.572  0.2434  0.2722  0.4044
15117TIP3    H166842   0.453   5.692   6.630  0.3163 -1.0955  2.2476
15117TIP3    H266843   0.558   5.588   6.593  0.7457  0.5277 -1.3077
15118TIP3   OH266844   5.517   3.625   3.367 -0.2626 -0.7440  0.1774
15118TIP3    H166845   5.492   3.716   3.384 -2.1997 -1.2681  0.2601
15118TIP3    H266846   5.440   3.587   3.324  0.2071 -2.5703  0.9175
15119TIP3   OH266847   1.962   1.307  14.199  0.4878 -0.3788 -0.1767
15119TIP3    H166848   1.869   1.288  14.189  0.3762 -0.8002  1.5231
15119TIP3    H266849   1.988   1.345  14.115 -1.1433 -0.5361 -0.7652
15120TIP3   OH266850   3.646   3.979   3.524  0.3181 -0.1865 -0.3020
15120TIP3    H166851   3.674   3.932   3.446 -1.4933 -0.9455 -0.5016
15120TIP3    H266852   3.570   3.931   3.556 -0.9540  2.0096  0.0578
15121TIP3   OH266853   2.796   5.396   5.660 -0.1774 -0.3240  0.0403
15121TIP3    H166854   2.888   5.399   5.634 -0.1701  1.4382  0.2588
15121TIP3    H266855   2.747   5.385   5.579  0.1878 -0.9538 -0.1016
15122TIP3   OH266856   4.908   2.335  11.220 -0.0488 -0.3908  0.0205
15122TIP3    H166857   4.926   2.403  11.155 -0.7129  0.3381  0.5984
15122TIP3    H266858   4.988   2.332  11.273 -0.3077  0.4676  0.4670
15123TIP3   OH266859   3.640   4.205  14.106  0.3602 -0.4242 -0.0653
15123TIP3    H166860   3.606   4.284  14.063  0.0162 -1.2159 -1.2603
15123TIP3    H266861   3.630   4.136  14.041  4.1025 -0.7390 -0.4373
15124TIP3   OH266862   3.809   3.490   5.114  0.1946 -0.5517  0.0369
15124TIP3    H166863   3.890   3.496   5.065  0.7600  1.7138  1.2088
15124TIP3    H266864   3.819   3.551   5.187 -1.9487 -1.3564  1.0787
15125TIP3   OH266865   0.284   3.672   2.186 -0.4955 -0.4784 -0.0264
15125TIP3    H166866   0.343   3.726   2.134 -0.9517  0.1783  0.1279
15125TIP3    H266867   0.328   3.663   2.270  1.1042 -3.0572 -1.0756
15126TIP3   OH266868   0.148   6.668   1.441  0.6476  0.0574 -0.1904
15126TIP3    H166869   0.234   6.649   1.479 -0.0203 -1.2639  0.7336
15126TIP3    H266870   0.110   6.581   1.425 -0.0014  0.6349 -1.7783
15127TIP3   OH266871   3.831   1.031   0.443 -0.4536  0.5021  0.5315
15127TIP3    H166872   3.841   0.991   0.357 -2.1329  0.8342  0.1524
15127TIP3    H266873   3.920   1.053   0.470  0.0109  1.3589 -1.5858
15128TIP3   OH266874   4.980   6.764  12.765  0.2772 -0.2868  0.0975
15128TIP3    H166875   4.901   6.710  12.771 -0.7896  1.4680  2.7621
15128TIP3    H266876   4.955   6.837  12.708 -0.4682  0.9299  1.9424
15129TIP3   OH266877   2.975   2.369  11.453 -0.1889  0.3653  0.6218
15129TIP3    H166878   3.002   2.279  11.471  2.1491  1.5405  3.3176
15129TIP3    H266879   3.053   2.410  11.416 -0.6516  1.7696  1.1760
15130TIP3   OH266880   3.023   2.524  14.858  0.0376  0.7377 -0.1206
15130TIP3    H166881   2.990   2.453  14.805  1.6693  0.2147 -0.4736
15130TIP3    H266882   2.981   2.603  14.822 -0.1365  0.2007 -1.1026
15131TIP3   OH266883   2.494   6.071   4.103 -0.2115 -0.0166 -0.2428
15131TIP3    H166884   2.513   6.156   4.141 -2.4031  1.0177 -1.3651
15131TIP3    H266885   2.566   6.056   4.042  0.1806  1.0509 -0.0542
15132TIP3   OH266886   4.748   1.919   3.484  0.1800 -0.4364 -0.0401
15132TIP3    H166887   4.780   2.004   3.456 -0.3933 -0.2647 -0.1966
15132TIP3    H266888   4.825   1.863   3.488  0.3714 -0.2697 -1.2834
15133TIP3   OH266889   4.392   3.470  15.986  0.3195  0.2206  0.2227
15133TIP3    H166890   4.318   3.413  15.965 -0.1864  1.3988 -1.3260
15133TIP3    H266891   4.469   3.413  15.983 -0.1452 -0.3345 -1.5443
15134TIP3   OH266892   1.902   4.382   5.171  0.4853 -0.1295  0.5454
15134TIP3    H166893   1.994   4.400   5.154  1.0028 -2.3936  0.8480
15134TIP3    H266894   1.894   4.287   5.164 -2.4391  0.2522 -2.6001
15135TIP3   OH266895   3.520   1.663  14.085 -0.2171 -0.2121  0.0796
15135TIP3    H166896   3.558   1.749  14.103  0.1205  0.0512 -1.7747
15135TIP3    H266897   3.596   1.605  14.076 -0.3296 -0.2078 -1.0401
15136TIP3   OH266898   5.890   2.261   3.150 -0.0559  0.0405  0.1228
15136TIP3    H166899   5.951   2.214   3.207 -0.0614  2.0640  1.8591
15136TIP3    H266900   5.805   2.221   3.168  0.4247 -1.4275 -0.8048
15137TIP3   OH266901   5.636   1.538   2.582 -0.3567  0.0783  0.0096
15137TIP3    H166902   5.683   1.479   2.522  0.5364 -0.9172  1.6408
15137TIP3    H266903   5.546   1.538   2.550 -0.1020 -1.2123 -0.7509
15138TIP3   OH266904   4.417   2.891  16.051  0.1975 -0.1759  0.0032
15138TIP3    H166905   4.366   2.923  15.977  1.5019 -1.0494 -1.2891
15138TIP3    H266906   4.407   2.796  16.048  0.3720 -0.2270  0.8732
15139TIP3   OH266907   6.442   2.779   3.306  1.0573  0.2513 -0.2867
15139TIP3    H166908   6.357   2.750   3.339  1.9580 -3.3361 -0.9342
15139TIP3    H266909   6.467   2.850   3.365 -1.6865  0.3466  0.8331
15140TIP3   OH266910   1.930   4.336   0.664  0.6654 -0.1197 -0.0318
15140TIP3    H166911   2.021   4.324   0.637  0.4810 -0.6486 -0.4464
15140TIP3    H266912   1.911   4.261   0.720 -0.0488 -1.0052 -1.4114
15141TIP3   OH266913   1.443   0.285   1.546  0.3461  0.4476  0.0565
15141TIP3    H166914   1.393   0.283   1.627 -1.5621 -0.2307 -1.0990
15141TIP3    H266915   1.387   0.332   1.484  1.5156  0.4564 -1.0368
15142TIP3   OH266916   0.030   3.972   0.475 -0.9840  0.1865  0.2989
15142TIP3    H166917   0.113   4.015   0.456 -0.8510 -0.1977 -0.0011
15142TIP3    H266918   0.053   3.900   0.534 -1.3217  1.0452  1.5179
15143TIP3   OH266919   6.768   0.813  12.359  0.6398 -0.3438  0.0276
15143TIP3    H166920   6.818   0.878  12.407 -1.5805  1.0457  0.5270
15143TIP3    H266921   6.734   0.860  12.282 -0.1967 -1.1542 -0.1143
15144TIP3   OH266922   1.715   1.996  16.911  0.1403 -0.2575 -0.0753
15144TIP3    H166923   1.788   2.055  16.931  0.5869 -0.4452 -1.1058
15144TIP3    H266924   1.669   2.040  16.840  0.3375 -1.0331 -0.6858
15145TIP3   OH266925   1.711   5.414   3.140  0.1239 -0.7210 -0.0697
15145TIP3    H166926   1.748   5.355   3.075 -0.8652 -0.7393 -0.6316
15145TIP3    H266927   1.687   5.358   3.213  1.0854 -0.7245  0.2512
15146TIP3   OH266928   4.809   4.494   3.179  0.6160 -0.2140 -0.2516
15146TIP3    H166929   4.845   4.405   3.174  0.6554 -0.2375  0.4101
15146TIP3    H266930   4.773   4.500   3.267  0.4600  0.3731 -0.3529
15147TIP3   OH266931   1.802   3.268   2.490 -0.2984 -0.0982  0.1323
15147TIP3    H166932   1.872   3.233   2.434  0.2763 -1.5829  1.7330
15147TIP3    H266933   1.834   3.354   2.518 -0.0236  0.0975 -0.7726
15148TIP3   OH266934   3.963   0.653   5.060 -0.0223  0.9433  0.2741
15148TIP3    H166935   3.961   0.749   5.063  0.2943  0.9765 -0.3848
15148TIP3    H266936   3.909   0.630   4.984 -0.9944  0.5487  1.0711
15149TIP3   OH266937   3.313   0.015   4.448  0.3191 -0.1587  0.1124
15149TIP3    H166938   3.317   0.094   4.503 -0.8843  1.1058 -1.5410
15149TIP3    H266939   3.405  -0.005   4.429  0.7053 -0.0338  1.7403
15150TIP3   OH266940   5.221   3.905   2.743 -0.7173 -0.0437  0.0230
15150TIP3    H166941   5.174   3.989   2.747 -2.6667 -1.1785  2.3364
15150TIP3    H266942   5.195   3.860   2.823 -0.6662 -3.3705 -1.7492
15151TIP3   OH266943   0.963   4.706   0.675  0.2253 -0.1636 -0.1682
15151TIP3    H166944   1.031   4.654   0.719 -1.0091  0.4137  2.5617
15151TIP3    H266945   0.973   4.686   0.582  3.2421 -1.1287  0.3161
15152TIP3   OH266946   1.137   4.532  16.561  0.2530  1.0284 -0.1535
15152TIP3    H166947   1.134   4.529  16.656 -1.4221  1.6282 -0.1594
15152TIP3    H266948   1.177   4.616  16.541  2.0262  0.2422  0.0041
15153TIP3   OH266949   2.321   5.559  14.609 -0.1477 -0.5246 -0.5675
15153TIP3    H166950   2.279   5.513  14.536  1.2098  0.5470 -2.0641
15153TIP3    H266951   2.273   5.641  14.617 -0.0875 -0.4990 -0.4750
15154TIP3   OH266952   0.766   4.018  16.010 -0.7857 -0.2417  0.0776
15154TIP3    H166953   0.742   4.109  16.027  1.8676  0.5973 -0.4341
15154TIP3    H266954   0.770   3.977  16.097  0.8839  0.9101  0.5727
15155TIP3   OH266955   1.182   6.528  10.971 -0.3195 -0.3361  0.4282
15155TIP3    H166956   1.154   6.436  10.974  1.5299 -0.9770 -0.5194
15155TIP3    H266957   1.169   6.553  10.879 -0.3831  0.2014  0.5853
15156TIP3   OH266958   6.490   6.156   1.791  0.4823  0.6424  0.1174
15156TIP3    H166959   6.571   6.130   1.748  0.3729  1.2390 -0.4517
15156TIP3    H266960   6.516   6.226   1.851  0.2951  1.2328 -0.4871
15157TIP3   OH266961   3.120   6.778   4.747 -0.0193 -0.6039 -0.5517
15157TIP3    H166962   3.165   6.854   4.709 -0.5289 -0.4687 -0.8889
15157TIP3    H266963   3.083   6.810   4.829  0.9637 -0.8579 -0.0020
15158TIP3   OH266964   1.649   2.858  15.405  0.7766  0.0364 -0.8973
15158TIP3    H166965   1.560   2.832  15.382  1.4243 -0.8726 -2.5066
15158TIP3    H266966   1.685   2.782  15.451  0.9948  0.0537 -1.0357
15159TIP3   OH266967   4.633   4.817  14.502  0.3907 -0.2551  0.3275
15159TIP3    H166968   4.555   4.836  14.555  1.1451 -0.1907  1.4373
15159TIP3    H266969   4.623   4.725  14.478 -1.0857  0.3254 -1.3454
15160TIP3   OH266970   3.008   1.657  13.620  0.2061  0.2143  0.2230
15160TIP3    H166971   2.915   1.663  13.597  0.2165  0.6245  0.2880
15160TIP3    H266972   3.042   1.746  13.606  0.4189  0.2480  0.9521
15161TIP3   OH266973   3.100   6.251   5.208  0.5263 -0.0080  0.1391
15161TIP3    H166974   3.182   6.295   5.233 -0.1117  1.0421  0.4052
15161TIP3    H266975   3.112   6.228   5.116  0.4908  1.6024 -0.2775
15162TIP3   OH266976   3.353   6.223  12.037 -0.3059  0.2151  0.8156
15162TIP3    H166977   3.314   6.206  12.122 -1.5233 -0.7551  0.0742
15162TIP3    H266978   3.432   6.169  12.036  0.3323  1.1179  1.7734
15163TIP3   OH266979   5.174   2.367   5.918 -0.4249  0.6985 -0.1515
15163TIP3    H166980   5.107   2.300   5.931  0.2033  0.0694 -0.1385
15163TIP3    H266981   5.126   2.450   5.921 -1.4102  0.1963 -1.4326
15164TIP3   OH266982   2.158   5.680   0.672  0.4475 -0.2446  0.3827
15164TIP3    H166983   2.093   5.610   0.677  0.3491 -0.1718  0.1219
15164TIP3    H266984   2.203   5.677   0.757 -0.5901  0.3902  0.9633
15165TIP3   OH266985   1.312   1.739  12.232 -0.3294 -0.5035  0.3315
15165TIP3    H166986   1.256   1.792  12.175 -0.1448 -0.1239  0.5048
15165TIP3    H266987   1.333   1.796  12.305  3.4825  0.7375 -1.6008
15166TIP3   OH266988   2.648   2.808  17.196  0.2528 -0.4283  0.2065
15166TIP3    H166989   2.697   2.852  17.127  0.3761 -0.7557  0.0855
15166TIP3    H266990   2.563   2.853  17.198 -0.2571 -1.3200 -1.0911
15167TIP3   OH266991   0.457   3.311  13.714  0.8061 -0.5654 -0.2856
15167TIP3    H166992   0.369   3.290  13.746 -0.3614  1.5612 -1.9466
15167TIP3    H266993   0.464   3.264  13.631  1.4206 -1.1063  0.0691
15168TIP3   OH266994   4.567   2.433   4.631 -0.2039 -0.5160 -0.1090
15168TIP3    H166995   4.585   2.428   4.724 -0.3525 -1.5975 -0.1307
15168TIP3    H266996   4.596   2.348   4.596 -2.6306 -1.1782 -0.5985
15169TIP3   OH266997   2.419   3.678   2.489  0.0307  0.4903  0.7224
15169TIP3    H166998   2.367   3.719   2.419  0.4672  1.6193  1.0534
15169TIP3    H266999   2.498   3.646   2.445 -1.1447 -1.7189  0.1127
15170TIP3   OH267000   4.066   0.142   3.607 -0.5447 -0.4689  0.4953
15170TIP3    H167001   4.108   0.168   3.689 -0.9889 -1.6770  1.1121
15170TIP3    H267002   3.997   0.081   3.634  0.9234 -2.7990 -0.9870
15171TIP3   OH267003   4.955   3.771  14.151  0.0878  0.1139  0.2419
15171TIP3    H167004   5.045   3.802  14.137  0.4317 -1.8638 -2.1816
15171TIP3    H267005   4.960   3.676  14.142 -2.2358 -0.0394  0.1505
15172TIP3   OH267006   5.869   1.954  12.011 -0.5140  0.3366  0.4048
15172TIP3    H167007   5.899   1.924  11.926 -1.7789  0.6994 -0.1779
15172TIP3    H267008   5.942   1.936  12.070  1.1681  1.9222 -1.1222
15173TIP3   OH267009   6.250   2.056   6.393  0.1899 -0.3179  0.5193
15173TIP3    H167010   6.275   1.974   6.352  1.9068  0.2222  0.4312
15173TIP3    H267011   6.304   2.061   6.471  1.5134  1.6298 -0.4911
15174TIP3   OH267012   4.912   1.914  12.159  0.7148  0.2869 -0.3241
15174TIP3    H167013   4.934   1.927  12.067  0.4379 -0.7507 -0.5435
15174TIP3    H267014   4.836   1.971  12.173 -0.9732 -1.5996 -1.4757
15175TIP3   OH267015   1.801   5.641  13.344 -0.4252 -0.1464  0.1771
15175TIP3    H167016   1.709   5.622  13.361 -0.5566  0.8090  0.5808
15175TIP3    H267017   1.801   5.686  13.260 -0.5206  1.3942  0.9816
15176TIP3   OH267018   6.686   4.542   5.410  0.5723 -0.0438  0.0713
15176TIP3    H167019   6.780   4.527   5.405  0.5045 -0.2531 -0.6503
15176TIP3    H267020   6.673   4.588   5.494  1.1147 -1.4808  0.9621
15177TIP3   OH267021   1.771   6.685  15.204  0.0868  0.1388 -0.2131
15177TIP3    H167022   1.696   6.687  15.144  0.1753  0.2432 -0.3202
15177TIP3    H267023   1.752   6.751  15.270  0.0127  0.0575 -0.1540
15178TIP3   OH267024   4.657   1.317   5.888 -0.2952  0.3770 -0.2740
15178TIP3    H167025   4.715   1.393   5.891  0.8124 -0.5067  0.9118
15178TIP3    H267026   4.680   1.273   5.807 -1.2857  1.5473 -1.2226
15179TIP3   OH267027   6.524   3.212  16.819 -0.1684 -0.1900  0.4468
15179TIP3    H167028   6.519   3.151  16.892  2.0639  0.2947  1.0167
15179TIP3    H267029   6.616   3.211  16.792 -0.6075  0.9995 -1.1890
15180TIP3   OH267030   5.372   6.782  13.084 -0.3370 -0.3307 -0.3598
15180TIP3    H167031   5.341   6.757  13.171  0.0136 -1.6431 -0.5922
15180TIP3    H267032   5.463   6.806  13.096 -0.2166 -0.7557 -0.3928
15181TIP3   OH267033   6.676   1.450   0.283  0.4302 -0.3454  0.0189
15181TIP3    H167034   6.762   1.424   0.249  0.2446 -0.3585 -0.4333
15181TIP3    H267035   6.697   1.506   0.358  0.8354  0.0076 -0.3574
15182TIP3   OH267036   0.526   0.807  12.596  0.4780 -0.1969 -0.1623
15182TIP3    H167037   0.573   0.817  12.513  0.7875 -2.7652 -0.3377
15182TIP3    H267038   0.587   0.839  12.662 -0.0016  2.4674 -0.9266
15183TIP3   OH267039   3.366   6.623  14.803 -0.2021  0.2396  0.1075
15183TIP3    H167040   3.366   6.646  14.896  3.5389 -0.7363  0.4399
15183TIP3    H267041   3.365   6.527  14.803  0.1956  0.2360 -0.8444
15184TIP3   OH267042   3.102   5.127   5.420  0.3347  0.2367 -0.1147
15184TIP3    H167043   3.148   5.200   5.463  0.6894 -0.4593  0.7125
15184TIP3    H267044   3.087   5.064   5.491  1.7500 -1.3396 -1.1909
15185TIP3   OH267045   6.146   0.251  13.384  0.1492  0.3966 -0.1503
15185TIP3    H167046   6.099   0.328  13.352  0.0227 -0.2390 -1.5258
15185TIP3    H267047   6.236   0.282  13.398 -0.1345  1.0427  0.2808
15186TIP3   OH267048   2.309   0.772  15.684 -0.2223 -0.4801 -0.0348
15186TIP3    H167049   2.368   0.777  15.759  0.4277  0.1671 -0.5780
15186TIP3    H267050   2.237   0.830  15.705  0.5814  0.6930 -0.4423
15187TIP3   OH267051   2.060   3.973   4.298 -0.1726  0.1122 -0.6738
15187TIP3    H167052   1.977   4.018   4.314  0.9450  2.5264 -1.4495
15187TIP3    H267053   2.067   3.911   4.371 -1.3954  1.7264  0.8921
15188TIP3   OH267054   2.787   1.387   5.364  0.1176 -0.3785  0.5301
15188TIP3    H167055   2.694   1.372   5.377 -0.4462  1.8910 -0.6039
15188TIP3    H267056   2.798   1.397   5.270  1.4609 -0.3961  0.6678
15189TIP3   OH267057   3.509   6.680   5.588  0.3365 -0.5853 -0.0969
15189TIP3    H167058   3.475   6.752   5.642  0.4589 -1.7303  1.5524
15189TIP3    H267059   3.505   6.713   5.498  0.5045  1.5260  0.6456
15190TIP3   OH267060   5.962   5.009   0.704 -0.4798  0.0997  0.6591
15190TIP3    H167061   6.011   4.979   0.781 -0.0749 -0.0704  0.3334
15190TIP3    H267062   5.960   5.104   0.713 -0.9300  0.0418  1.1847
15191TIP3   OH267063   5.405   0.910   5.670  0.0264 -0.2488  0.5662
15191TIP3    H167064   5.447   0.824   5.677  0.4079 -0.1372 -0.4219
15191TIP3    H267065   5.456   0.966   5.729  0.3407 -0.4715  0.5072
15192TIP3   OH267066   5.247   4.036  12.996 -0.0780 -0.3810  0.3673
15192TIP3    H167067   5.218   4.109  12.941 -1.5947 -1.2941 -0.0779
15192TIP3    H267068   5.171   4.018  13.052  1.1553 -0.0138  2.1805
15193TIP3   OH267069   0.702   3.710   3.881  0.6893  0.0129 -0.0342
15193TIP3    H167070   0.782   3.661   3.897 -1.1288 -2.9091  0.3379
15193TIP3    H267071   0.634   3.664   3.930 -1.3468  2.1130 -0.7632
15194TIP3   OH267072   4.155   5.646   2.923  0.0114  0.7308  0.1815
15194TIP3    H167073   4.172   5.568   2.975  0.2603  0.2616 -0.5907
15194TIP3    H267074   4.076   5.625   2.873  0.9485  0.3719 -1.1835
15195TIP3   OH267075   1.631   2.173  11.165  0.1501 -0.2319 -0.8379
15195TIP3    H167076   1.667   2.200  11.081  0.8901 -0.8501 -0.7296
15195TIP3    H267077   1.638   2.078  11.164 -0.7788 -0.3064 -0.4910
15196TIP3   OH267078   0.401   4.471  12.787 -0.6549  0.0112 -0.1932
15196TIP3    H167079   0.394   4.557  12.829 -0.6048  0.9380 -2.0448
15196TIP3    H267080   0.398   4.409  12.860  0.2546  1.6119  1.2411
15197TIP3   OH267081   3.188   3.489  11.910  0.7745 -0.4664  0.2337
15197TIP3    H167082   3.272   3.532  11.925 -0.1422  1.4064  0.1137
15197TIP3    H267083   3.181   3.484  11.815  0.6731 -0.4604  0.2407
15198TIP3   OH267084   4.140   2.870  14.082 -0.2191 -0.4284  0.0000
15198TIP3    H167085   4.066   2.823  14.043 -0.5302 -1.2915  1.5802
15198TIP3    H267086   4.180   2.807  14.141  1.1935  0.3590 -0.0872
15199TIP3   OH267087   1.968   0.245   3.471 -0.3423  0.2795 -0.2623
15199TIP3    H167088   1.994   0.313   3.533  1.2415 -1.7362  1.3371
15199TIP3    H267089   2.016   0.266   3.391  0.8966  0.4628  0.5282
15200TIP3   OH267090   1.725   4.621   5.571  0.0308  0.4602  0.1363
15200TIP3    H167091   1.779   4.561   5.519 -1.0881 -1.5953  1.2955
15200TIP3    H267092   1.778   4.641   5.648 -0.8204 -1.5876  1.2943
15201TIP3   OH267093   6.722   3.572   5.461 -0.8442 -0.3017 -0.6124
15201TIP3    H167094   6.761   3.548   5.544 -1.4789  0.4871 -0.0770
15201TIP3    H267095   6.765   3.654   5.436 -2.7690  1.0793  0.4454
15202TIP3   OH267096   4.841   0.799   1.868  0.1713 -0.4469  0.1438
15202TIP3    H167097   4.847   0.706   1.849  0.7375 -0.0437 -1.8312
15202TIP3    H267098   4.758   0.826   1.828  0.8178  0.2092 -0.7703
15203TIP3   OH267099   0.214   1.908   1.548  0.1722 -0.5034 -0.1738
15203TIP3    H167100   0.306   1.889   1.530  0.5181  0.7701  0.1942
15203TIP3    H267101   0.171   1.904   1.463  0.8460  0.3633 -0.5594
15204TIP3   OH267102   0.231   3.634   3.074 -0.1373  0.1931 -0.1160
15204TIP3    H167103   0.310   3.580   3.069  2.3112  3.5986  0.1689
15204TIP3    H267104   0.214   3.660   2.983  0.0452  0.7394  0.0002
15205TIP3   OH267105   2.653   1.321  13.721  0.0066  0.1951 -0.5656
15205TIP3    H167106   2.566   1.334  13.685 -0.6448 -0.1472  0.8623
15205TIP3    H267107   2.713   1.343  13.649 -1.2558  0.0854 -1.6501
15206TIP3   OH267108   4.042   1.200  16.590  0.4477 -0.6508  0.3937
15206TIP3    H167109   4.117   1.152  16.553  1.2950 -0.1125  1.3676
15206TIP3    H267110   4.063   1.292  16.576 -1.9309 -0.5124 -2.9114
15207TIP3   OH267111   3.795   0.946   0.188  0.2895 -0.6560  0.4223
15207TIP3    H167112   3.841   0.902   0.117 -0.6066 -0.7252 -0.1225
15207TIP3    H267113   3.710   0.969   0.151  0.8808  1.9181  0.5458
15208TIP3   OH267114   5.972   4.599   4.152 -0.7319  0.1203  0.4429
15208TIP3    H167115   5.886   4.557   4.149  0.2722 -2.0557  1.0215
15208TIP3    H267116   6.000   4.590   4.243  0.3142  0.4077  0.1607
15209TIP3   OH267117   3.394   0.362   3.995 -0.4228  0.3612 -0.1757
15209TIP3    H167118   3.386   0.455   3.974 -2.7193  0.3840  0.6871
15209TIP3    H267119   3.369   0.355   4.087  2.3806 -0.7663  0.5606
15210TIP3   OH267120   0.447   2.003  13.429  0.8416  0.4347  0.0614
15210TIP3    H167121   0.405   1.983  13.345 -0.9789 -0.0668  1.0505
15210TIP3    H267122   0.416   2.090  13.452  0.8476  0.3207  0.5080
15211TIP3   OH267123   0.487   5.780  11.881  0.4533  0.3314 -0.0330
15211TIP3    H167124   0.394   5.791  11.863 -0.0728 -1.5113  1.3597
15211TIP3    H267125   0.504   5.834  11.957 -0.1925 -1.5949  1.5384
15212TIP3   OH267126   5.256   4.383   3.364 -0.0412 -0.4074  0.0895
15212TIP3    H167127   5.177   4.435   3.377  1.2789  2.3938 -2.3493
15212TIP3    H267128   5.226   4.301   3.327 -1.9204 -0.1002  0.8677
15213TIP3   OH267129   3.529   4.193  14.596  0.2465 -0.2393  0.4043
15213TIP3    H167130   3.444   4.212  14.636  0.6910  0.5835  0.9910
15213TIP3    H267131   3.555   4.110  14.635  0.1307 -0.0295  0.9449
15214TIP3   OH267132   5.865   5.388  16.466 -0.2988 -0.2244 -0.1538
15214TIP3    H167133   5.863   5.324  16.395 -1.0895  1.4180 -1.6681
15214TIP3    H267134   5.952   5.379  16.504 -0.7434 -2.9044  0.3585
15215TIP3   OH267135   2.137   6.437  15.914  0.8694  0.2516 -0.4565
15215TIP3    H167136   2.059   6.392  15.882  0.7250  0.5325 -0.5058
15215TIP3    H267137   2.148   6.511  15.853 -0.1970  1.5897  0.9434
15216TIP3   OH267138   1.192   4.239  12.395  0.6010 -0.3281 -0.7255
15216TIP3    H167139   1.121   4.179  12.419  1.1372 -0.2865  1.0402
15216TIP3    H267140   1.243   4.191  12.330  0.6405 -1.5441  0.1791
15217TIP3   OH267141   6.751   3.665  14.503  1.0947  0.2134 -0.0736
15217TIP3    H167142   6.659   3.644  14.520  0.9192  0.8872 -0.1739
15217TIP3    H267143   6.785   3.590  14.453  0.5343  0.0786 -0.2506
15218TIP3   OH267144   5.870   1.544   3.571  0.9115 -0.1169 -0.5879
15218TIP3    H167145   5.898   1.456   3.545  0.7556 -1.2990  2.9324
15218TIP3    H267146   5.775   1.538   3.578  0.9260  0.2460 -0.0613
15219TIP3   OH267147   4.071   5.843   2.686 -0.8069  0.0247  0.1332
15219TIP3    H167148   4.029   5.854   2.601 -0.9649 -0.0989  0.1950
15219TIP3    H267149   4.103   5.753   2.686  3.6758  1.4591 -1.8079
15220TIP3   OH267150   2.001   4.214   5.655  0.1148  0.5896  0.4515
15220TIP3    H167151   1.966   4.299   5.683  0.9323  0.6148  1.4270
15220TIP3    H267152   1.924   4.165   5.626 -0.2679  1.9347 -0.8536
15221TIP3   OH267153   3.900   0.575   0.392 -0.4126 -0.3908  0.0625
15221TIP3    H167154   3.995   0.583   0.385 -0.3878 -1.5664 -1.2381
15221TIP3    H267155   3.873   0.651   0.443  1.4582 -1.3070  2.4907
15222TIP3   OH267156   2.293   5.782   5.210 -0.7500 -0.7908  0.2214
15222TIP3    H167157   2.301   5.830   5.292 -0.6638 -0.9823  0.3259
15222TIP3    H267158   2.206   5.744   5.212 -0.8557 -0.5542  0.0917
15223TIP3   OH267159   4.044   5.741  13.413  0.2507 -0.0603  0.2537
15223TIP3    H167160   4.138   5.750  13.404  0.0417  0.5477 -1.6232
15223TIP3    H267161   4.027   5.756  13.506  2.0648 -0.8811  0.7276
15224TIP3   OH267162   4.117   1.769  13.128 -0.5894  0.0633  0.3115
15224TIP3    H167163   4.099   1.765  13.222  1.2236 -1.1050  0.6381
15224TIP3    H267164   4.107   1.861  13.105 -0.9683  0.3625  1.6538
15225TIP3   OH267165   5.527   2.804   4.218  0.4059 -0.0690 -0.5335
15225TIP3    H167166   5.533   2.736   4.285  2.1407  0.4949 -0.0846
15225TIP3    H267167   5.618   2.824   4.195 -0.1765 -0.4747 -3.3229
15226TIP3   OH267168   5.473   3.436  14.183  0.1210 -0.4323 -0.9907
15226TIP3    H167169   5.445   3.365  14.126 -1.0595  0.4541 -1.5308
15226TIP3    H267170   5.452   3.405  14.271 -1.7527 -0.1713 -1.3166
15227TIP3   OH267171   5.019   1.519  11.174 -0.1709  0.1343  0.3933
15227TIP3    H167172   4.957   1.530  11.246  1.5865 -0.6644  2.0835
15227TIP3    H267173   5.087   1.584  11.192 -0.1318  0.5099 -1.0436
15228TIP3   OH267174   3.931   0.770  16.432 -0.0419 -0.4433 -0.5575
15228TIP3    H167175   3.932   0.845  16.492  2.6669  0.2939 -1.4256
15228TIP3    H267176   3.889   0.700  16.481 -0.4123  0.9626  1.1703
15229TIP3   OH267177   1.381   1.605  11.427  0.2482 -0.1185 -0.4121
15229TIP3    H167178   1.439   1.618  11.352 -0.0915  0.5154 -0.5682
15229TIP3    H267179   1.304   1.658  11.407  1.1642  2.0368  1.5046
15230TIP3   OH267180   4.066   4.370  15.531 -0.0844  0.1538 -0.2832
15230TIP3    H167181   4.114   4.443  15.570  0.9134 -0.0898 -1.0096
15230TIP3    H267182   3.986   4.363  15.581  0.0725  1.4033  0.1447
15231TIP3   OH267183   1.272   2.757   4.686 -0.5104 -0.4991  0.1817
15231TIP3    H167184   1.346   2.819   4.688 -1.7927  1.0669  2.5556
15231TIP3    H267185   1.260   2.736   4.594  0.6402  2.0393 -0.6011
15232TIP3   OH267186   4.949   4.922   2.832 -0.6137  0.5435  0.4101
15232TIP3    H167187   5.038   4.953   2.846 -1.4522  1.9605  2.9547
15232TIP3    H267188   4.941   4.846   2.890 -0.6878 -0.3455 -0.7497
15233TIP3   OH267189   1.263   1.036   1.427 -0.7126 -0.0629 -0.5533
15233TIP3    H167190   1.181   1.084   1.420 -0.3142  0.9234  1.3571
15233TIP3    H267191   1.260   0.994   1.513  1.2545  0.9260  0.0382
15234TIP3   OH267192   5.163   5.639   6.000 -0.2134  0.2232 -0.0881
15234TIP3    H167193   5.174   5.544   6.007 -0.9554 -0.3294 -4.7705
15234TIP3    H267194   5.070   5.650   5.981  0.1168  1.8122 -0.7709
15235TIP3   OH267195   3.971   3.500   0.303 -0.6039  0.3376 -1.0738
15235TIP3    H167196   3.940   3.413   0.277  0.2822 -0.3885  0.1884
15235TIP3    H267197   3.926   3.517   0.386  0.5146  0.3172 -0.4487
15236TIP3   OH267198   2.463   3.846   2.999  0.1452  0.1361 -0.2280
15236TIP3    H167199   2.472   3.935   3.033  0.4541 -0.5296  1.4776
15236TIP3    H267200   2.545   3.803   3.021  0.0627 -0.5414 -1.1870
15237TIP3   OH267201   3.681   6.067  14.597 -0.2510 -0.4301  0.0629
15237TIP3    H167202   3.713   5.984  14.631 -0.8649 -0.2855  0.9976
15237TIP3    H267203   3.635   6.044  14.516  1.1914 -0.7713 -0.6753
15238TIP3   OH267204   6.741   0.042  12.661 -0.3701  0.0149 -0.8725
15238TIP3    H167205   6.739   0.134  12.634  1.0523 -0.6843 -3.5462
15238TIP3    H267206   6.721  -0.007  12.581  0.7596 -2.0618  0.0739
15239TIP3   OH267207   5.403   5.525  15.332  0.4079 -0.1650 -0.0894
15239TIP3    H167208   5.329   5.564  15.285  1.2768 -0.2528 -1.5400
15239TIP3    H267209   5.380   5.432  15.339 -0.1159 -0.0044  0.4354
15240TIP3   OH267210   6.738   5.211   2.610  0.3446 -0.5083 -0.0960
15240TIP3    H167211   6.701   5.264   2.540  0.5241 -1.2161 -0.7203
15240TIP3    H267212   6.678   5.224   2.684 -0.8965 -1.2903 -0.9636
15241TIP3   OH267213   1.833   1.326   3.862  0.5232  0.4095  0.3538
15241TIP3    H167214   1.759   1.266   3.858 -0.6388  1.9447 -2.6625
15241TIP3    H267215   1.826   1.367   3.948 -1.1813 -0.5936  0.7225
15242TIP3   OH267216   5.794   2.190   1.039  0.2274  0.1230 -0.2516
15242TIP3    H167217   5.759   2.225   1.121 -2.0753 -0.6045 -0.8785
15242TIP3    H267218   5.739   2.227   0.971  0.4675 -1.3259 -1.2661
15243TIP3   OH267219   6.196   4.601  15.069 -0.4450  0.0402 -0.0748
15243TIP3    H167220   6.219   4.526  15.125 -0.0829 -0.0841 -0.3917
15243TIP3    H267221   6.243   4.675  15.108 -1.3047  0.2311  0.6161
15244TIP3   OH267222   1.531   4.253   3.254 -0.2490 -0.4148 -0.8162
15244TIP3    H167223   1.508   4.160   3.258  0.8081 -0.7120 -1.3976
15244TIP3    H267224   1.447   4.299   3.256 -0.7675 -1.3635 -0.1534
15245TIP3   OH267225   6.566   0.655   3.560  0.5098  0.1186  0.2751
15245TIP3    H167226   6.519   0.689   3.636 -2.2262  0.3421 -1.4744
15245TIP3    H267227   6.581   0.732   3.504  2.7351  0.0008  0.6422
15246TIP3   OH267228   0.649   2.018   4.481 -0.1028 -0.4948  0.3183
15246TIP3    H167229   0.655   1.941   4.538 -2.3958  0.6202  2.1440
15246TIP3    H267230   0.577   1.997   4.421  0.0523 -0.2597  0.0517
15247TIP3   OH267231   6.805   6.196   4.653 -0.2954  0.0966 -0.4542
15247TIP3    H167232   6.767   6.276   4.619 -0.4780 -0.0905 -0.6961
15247TIP3    H267233   6.832   6.147   4.575 -3.6121 -1.7842 -0.5412
15248TIP3   OH267234   6.478   0.857   0.458 -0.1119 -0.1834 -0.1029
15248TIP3    H167235   6.480   0.804   0.378 -0.0276  0.5963 -0.6110
15248TIP3    H267236   6.410   0.815   0.512 -1.2459  0.2062 -1.2110
15249TIP3   OH267237   5.974   1.306  17.079  0.1910 -0.2299  0.0830
15249TIP3    H167238   5.958   1.326  17.171  1.4794  0.0126  0.2551
15249TIP3    H267239   6.025   1.225  17.081  0.5797  0.0054 -0.4112
15250TIP3   OH267240   5.885   0.963   0.699 -0.1740 -0.3469 -0.1314
15250TIP3    H167241   5.880   0.869   0.677 -0.0482 -0.1632 -0.9485
15250TIP3    H267242   5.899   1.006   0.616 -0.3333  0.4176  0.2374
15251TIP3   OH267243   3.604   3.951  14.730 -0.1736 -0.1624  0.1329
15251TIP3    H167244   3.600   3.857  14.746  4.1654 -0.7349 -1.2874
15251TIP3    H267245   3.629   3.989  14.815  1.5333 -0.7533 -0.0756
15252TIP3   OH267246   0.035   6.058  16.066 -0.4010 -0.0190 -0.4283
15252TIP3    H167247  -0.026   5.984  16.064  2.1953 -2.2031 -2.9793
15252TIP3    H267248   0.101   6.032  16.131 -0.1324  0.5989 -0.4541
15253TIP3   OH267249   0.302   6.321  11.582 -0.5281  0.1157  0.4092
15253TIP3    H167250   0.212   6.351  11.598 -0.7596 -0.0029 -0.6251
15253TIP3    H267251   0.352   6.401  11.565 -0.8113  0.0573 -0.7522
15254TIP3   OH267252   3.322   0.252   3.427  0.4127 -0.3546 -0.6522
15254TIP3    H167253   3.282   0.203   3.500  0.5646 -0.7199 -0.8107
15254TIP3    H267254   3.352   0.184   3.367  0.7221 -0.0636 -0.8269
15255TIP3   OH267255   4.684   6.577  12.579 -0.5763  0.7357  0.7649
15255TIP3    H167256   4.652   6.516  12.513  1.5361 -2.0877  2.2301
15255TIP3    H267257   4.766   6.611  12.542  0.4700 -0.6451  1.7472
15256TIP3   OH267258   0.715   6.630  17.037 -0.3467  0.1345 -0.0518
15256TIP3    H167259   0.666   6.642  16.956  0.3415 -0.4761 -0.5668
15256TIP3    H267260   0.773   6.556  17.019  0.6559  0.7556  0.5907
15257TIP3   OH267261   2.957   3.334  11.145  0.0431  0.2117 -0.6757
15257TIP3    H167262   2.964   3.289  11.061  3.2357  1.7635 -1.3312
15257TIP3    H267263   2.914   3.417  11.124 -0.1951  0.1060 -0.5982
15258TIP3   OH267264   0.374   5.086  11.964 -0.2509 -0.9250  0.0783
15258TIP3    H167265   0.468   5.088  11.981 -0.2317 -0.4357 -0.0550
15258TIP3    H267266   0.334   5.069  12.049 -0.1881  1.9512  0.7504
15259TIP3   OH267267   5.272   6.242  12.945  0.1642 -0.1008 -0.7638
15259TIP3    H167268   5.201   6.285  12.898 -0.9423 -1.6132 -0.5436
15259TIP3    H267269   5.288   6.162  12.895  1.3408 -0.0434 -0.4943
15260TIP3   OH267270   0.347   0.485  14.634 -0.2091 -0.2444 -0.2689
15260TIP3    H167271   0.318   0.487  14.725  0.4021  0.4624 -0.0888
15260TIP3    H267272   0.441   0.465  14.639 -0.0425  0.4007 -0.7081
15261TIP3   OH267273   1.778   6.182   1.453  0.6151  0.4532  0.0941
15261TIP3    H167274   1.750   6.274   1.456 -0.7840  0.1663 -2.8208
15261TIP3    H267275   1.787   6.162   1.360  1.6618 -2.1716  0.7126
15262TIP3   OH267276   6.276   5.851   3.178  0.2829  0.1157 -0.3543
15262TIP3    H167277   6.357   5.809   3.149  0.1581 -0.6690  0.4377
15262TIP3    H267278   6.305   5.914   3.244  0.1008 -1.2315  1.0368
15263TIP3   OH267279   3.387   1.573  12.780  0.2361 -0.2825  0.4282
15263TIP3    H167280   3.384   1.530  12.866  0.2795 -0.9450  0.1055
15263TIP3    H267281   3.474   1.611  12.775  0.7597 -1.5065  0.0866
15264TIP3   OH267282   5.185   6.134  13.266 -0.1580  0.2443 -0.0310
15264TIP3    H167283   5.147   6.080  13.335  0.1274 -2.2727 -1.7757
15264TIP3    H267284   5.118   6.137  13.198 -0.2903  2.3753  0.1640
15265TIP3   OH267285   2.670   5.587  13.147  0.6282  0.2514 -1.3036
15265TIP3    H167286   2.653   5.629  13.231 -1.3985 -1.1598 -1.0007
15265TIP3    H267287   2.765   5.580  13.143  0.7365 -0.0676  1.0647
15266TIP3   OH267288   2.240   4.449  15.191 -0.0278 -0.1430  0.2635
15266TIP3    H167289   2.279   4.371  15.230  2.1046 -0.3335 -2.1599
15266TIP3    H267290   2.191   4.490  15.263 -0.1567 -3.0222  1.8638
15267TIP3   OH267291   5.616   1.231   5.976 -0.0235 -0.2289 -0.2838
15267TIP3    H167292   5.672   1.275   5.913 -0.4716 -0.2955 -0.7364
15267TIP3    H267293   5.637   1.138   5.967  1.0580 -0.1022  0.8067
15268TIP3   OH267294   0.845   2.149   0.477  0.8090 -0.1545 -0.0939
15268TIP3    H167295   0.749   2.157   0.473  0.6214 -2.4228 -0.6047
15268TIP3    H267296   0.865   2.154   0.571  0.1153 -0.5478  0.0815
15269TIP3   OH267297   4.593   1.888   5.643 -0.1531  0.0100 -0.1910
15269TIP3    H167298   4.615   1.959   5.584  2.8555 -0.5025  0.2492
15269TIP3    H267299   4.640   1.812   5.609  1.3555 -0.3834  2.5617
15270TIP3   OH267300   1.966   4.042   0.447 -0.0461  0.3985 -0.6755
15270TIP3    H167301   2.006   4.128   0.459 -1.3922  0.7015  2.0731
15270TIP3    H267302   2.017   3.984   0.504 -2.2422  0.4206  1.3889
15271TIP3   OH267303   6.789   6.464  13.882 -0.0303  0.3602 -0.2791
15271TIP3    H167304   6.813   6.531  13.946  3.3350  0.3328 -1.3980
15271TIP3    H267305   6.778   6.385  13.934  0.4960  0.8118  0.5422
15272TIP3   OH267306   0.311   4.849  15.002 -0.4998  0.2138 -0.6695
15272TIP3    H167307   0.365   4.867  15.079 -0.2267  0.5625 -0.9370
15272TIP3    H267308   0.223   4.876  15.027 -0.6717 -0.9440 -0.0089
15273TIP3   OH267309   2.459   0.511  13.658  0.3782  0.0287  0.6149
15273TIP3    H167310   2.366   0.493  13.675 -0.2821  2.2698 -0.4424
15273TIP3    H267311   2.473   0.599  13.692  1.8682  0.0988 -0.1540
15274TIP3   OH267312   4.855   3.420  11.524 -0.6222  0.4065  0.1044
15274TIP3    H167313   4.838   3.485  11.456 -0.8661 -0.6548 -0.8773
15274TIP3    H267314   4.806   3.343  11.496  0.8082 -0.6714  0.4887
15275TIP3   OH267315   1.285   2.200  12.298 -0.3600  0.0696 -0.2849
15275TIP3    H167316   1.205   2.202  12.246 -0.1159 -1.0443 -0.7222
15275TIP3    H267317   1.309   2.292  12.308 -0.0984  0.3153 -2.6701
15276TIP3   OH267318   2.820   6.295   1.883 -0.5733  0.0239  0.2524
15276TIP3    H167319   2.908   6.275   1.850 -0.1024  0.4371  1.2335
15276TIP3    H267320   2.792   6.214   1.926 -0.4735  0.0475  0.3628
15277TIP3   OH267321   6.785   6.666  15.569  1.0263  0.4004 -0.3008
15277TIP3    H167322   6.803   6.689  15.478  0.0796 -0.4411 -0.7042
15277TIP3    H267323   6.723   6.594  15.564  1.5612 -0.1684  1.0001
15278TIP3   OH267324   2.639   4.834   4.577 -0.8046  0.4025  0.0237
15278TIP3    H167325   2.590   4.905   4.619 -0.8398 -0.0358  0.7318
15278TIP3    H267326   2.608   4.755   4.621 -1.0301 -0.0858 -1.0160
15279TIP3   OH267327   2.535   6.726   0.208 -0.0545  0.4305  0.6743
15279TIP3    H167328   2.559   6.637   0.181  1.9251  1.0591  0.3055
15279TIP3    H267329   2.588   6.743   0.285  0.4510  1.7275  0.0620
15280TIP3   OH267330   6.448   4.953   2.651  0.5184  0.1538  0.1602
15280TIP3    H167331   6.358   4.953   2.685  0.2005  1.4979 -0.6369
15280TIP3    H267332   6.491   5.025   2.698  1.2656 -0.6403  0.7204
15281TIP3   OH267333   1.609   6.476  16.861 -0.0465  0.0621  0.0230
15281TIP3    H167334   1.535   6.536  16.868 -0.3088 -0.4448  1.8932
15281TIP3    H267335   1.662   6.494  16.938 -0.1621 -2.1108  0.6604
15282TIP3   OH267336   1.202   6.505   4.830 -0.0166 -0.2755 -0.7141
15282TIP3    H167337   1.127   6.543   4.876 -0.2981 -0.1010 -1.3071
15282TIP3    H267338   1.226   6.428   4.881  0.3917  0.5524  0.3620
15283TIP3   OH267339   4.881   1.286  11.284 -0.2025 -0.0107 -0.1678
15283TIP3    H167340   4.809   1.296  11.221 -0.6804 -0.1142  0.3565
15283TIP3    H267341   4.958   1.270  11.230 -0.7911 -1.1158 -0.6966
15284TIP3   OH267342   3.099   5.472   1.895 -0.2914 -0.6357  0.7322
15284TIP3    H167343   3.170   5.533   1.914 -0.5236 -1.2171  3.8098
15284TIP3    H267344   3.143   5.390   1.874  0.0042  0.3153 -2.5211
15285TIP3   OH267345   5.853   1.411   1.530 -0.2132  0.3164 -0.8995
15285TIP3    H167346   5.799   1.423   1.452 -1.6134 -1.8173 -0.3132
15285TIP3    H267347   5.878   1.319   1.528  2.4267  1.0036 -0.4966
15286TIP3   OH267348   5.952   2.575   5.779  0.0048 -0.0194 -0.3469
15286TIP3    H167349   5.946   2.534   5.692  1.2523 -2.2561  0.5718
15286TIP3    H267350   5.949   2.501   5.840  0.2708  1.4533  1.4842
15287TIP3   OH267351   4.473   4.051  12.668 -0.3001 -0.0376 -0.0563
15287TIP3    H167352   4.406   4.018  12.608 -1.6881  1.0183  0.8636
15287TIP3    H267353   4.525   3.973  12.691  0.4966 -0.3655 -2.8747
15288TIP3   OH267354   4.434   4.905   3.276 -0.3447 -0.8421  0.5036
15288TIP3    H167355   4.469   4.850   3.206  0.3031 -1.1352  1.0532
15288TIP3    H267356   4.371   4.962   3.233  0.5702 -0.5358 -0.4319
15289TIP3   OH267357   0.341   5.916  13.280 -0.1090 -0.0704 -0.0893
15289TIP3    H167358   0.418   5.921  13.337 -0.2295 -1.4415  0.2130
15289TIP3    H267359   0.375   5.935  13.192  0.4501  0.0135  0.1448
15290TIP3   OH267360   2.559   4.898   2.438 -0.4360 -0.3612  0.3862
15290TIP3    H167361   2.465   4.915   2.425 -0.3606 -0.4836 -0.3653
15290TIP3    H267362   2.602   4.972   2.394 -0.1889 -0.0568  1.1433
15291TIP3   OH267363   3.545   5.157   2.347 -0.4205 -0.3121 -0.3994
15291TIP3    H167364   3.499   5.075   2.328 -2.8370  1.0098 -0.3785
15291TIP3    H267365   3.476   5.221   2.361  1.4234  1.4812  0.8263
15292TIP3   OH267366   4.903   2.294  12.358 -0.3023 -0.3644 -0.0729
15292TIP3    H167367   4.892   2.212  12.310 -3.2667 -0.9483  1.5172
15292TIP3    H267368   4.971   2.274  12.422  1.9311 -0.3059 -2.3431
15293TIP3   OH267369   3.521   2.412  15.805 -0.1433  0.0746 -0.6017
15293TIP3    H167370   3.435   2.424  15.845  2.1075  0.0970  4.6649
15293TIP3    H267371   3.544   2.321  15.824  1.0682  0.1201 -1.7601
15294TIP3   OH267372   4.314   0.382  13.177  0.8119  0.1248 -0.5886
15294TIP3    H167373   4.219   0.389  13.187  0.7624  0.5253 -1.2715
15294TIP3    H267374   4.345   0.344  13.259  0.1143  0.4619 -0.1669
15295TIP3   OH267375   5.449   4.718  15.844  0.5288  1.0245 -0.1834
15295TIP3    H167376   5.464   4.627  15.868 -1.2822  1.0145  0.9846
15295TIP3    H267377   5.518   4.738  15.781 -0.7908 -2.0354 -2.7308
15296TIP3   OH267378   1.232   5.629  16.987  0.8395  0.0934 -0.1690
15296TIP3    H167379   1.164   5.562  16.985 -0.1332  1.0464  0.2107
15296TIP3    H267380   1.296   5.601  16.922  0.9957 -1.7715  0.7605
15297TIP3   OH267381   5.035   2.476  13.175 -0.2568 -0.0563  0.3344
15297TIP3    H167382   5.095   2.475  13.101  1.1725  0.7853  1.4462
15297TIP3    H267383   4.948   2.473  13.136  0.4386  1.6589 -1.4241
15298TIP3   OH267384   3.078   1.836  14.666 -0.4422 -0.5239  0.0414
15298TIP3    H167385   3.094   1.755  14.620  1.8815  0.3533 -0.7416
15298TIP3    H267386   3.112   1.821  14.755  1.6177  0.1509 -0.6067
15299TIP3   OH267387   3.773   3.064  13.885 -0.3344 -0.3428  0.0144
15299TIP3    H167388   3.698   3.014  13.917  1.0554 -3.1730 -0.9967
15299TIP3    H267389   3.777   3.045  13.791 -0.6567  2.9372 -0.7370
15300TIP3   OH267390   3.833   4.665  12.574  0.0593 -0.5411 -0.0363
15300TIP3    H167391   3.860   4.584  12.530  0.4635  0.4752 -1.7135
15300TIP3    H267392   3.860   4.735  12.514 -0.1428  0.8546  1.4551
15301TIP3   OH267393   1.296   4.791  13.036 -0.0201  0.5283  0.8778
15301TIP3    H167394   1.322   4.878  13.067  1.7525  0.3320 -0.0370
15301TIP3    H267395   1.321   4.732  13.106 -0.0396  0.5893  0.9369
15302TIP3   OH267396   2.884   3.136  14.185 -0.0507  0.3589  0.1278
15302TIP3    H167397   2.827   3.213  14.190 -0.9284 -0.1714 -1.1850
15302TIP3    H267398   2.973   3.172  14.180 -0.3508  1.2367  0.9684
15303TIP3   OH267399   0.607   3.429   5.655 -0.1291 -0.5247  0.3679
15303TIP3    H167400   0.582   3.358   5.714  0.3146  0.5925  1.9424
15303TIP3    H267401   0.652   3.492   5.711  0.8757  0.2730 -1.3083
15304TIP3   OH267402   0.126   6.186  14.815 -0.3231 -0.3643  0.0026
15304TIP3    H167403   0.069   6.138  14.875  0.0801 -2.6875 -1.4161
15304TIP3    H267404   0.132   6.130  14.737  1.8178  1.0431 -0.8959
15305TIP3   OH267405   4.715   6.142   2.508  0.2055 -0.1619 -0.3162
15305TIP3    H167406   4.695   6.178   2.595  1.2482 -0.5218  0.0749
15305TIP3    H267407   4.653   6.186   2.449 -0.0789  0.5556  0.5124
15306TIP3   OH267408   5.680   1.633  15.850 -0.1266  0.0191  0.1450
15306TIP3    H167409   5.774   1.635  15.871 -0.4558  2.0274  1.5995
15306TIP3    H267410   5.639   1.597  15.928 -0.6278 -0.3937 -0.3060
15307TIP3   OH267411   3.379   6.359   4.637 -0.0058 -0.8298 -0.0951
15307TIP3    H167412   3.439   6.360   4.563  0.9115 -2.8328  0.5831
15307TIP3    H267413   3.300   6.316   4.605 -0.4692  0.3021 -0.5113
15308TIP3   OH267414   0.715   4.906  15.280  0.3822  0.1602 -0.1159
15308TIP3    H167415   0.711   4.827  15.225  0.8931  1.4450 -2.0716
15308TIP3    H267416   0.767   4.968  15.228  0.2918  1.6521  1.5507
15309TIP3   OH267417   1.041   5.917   0.551 -0.0327  0.2735  0.1938
15309TIP3    H167418   1.012   6.006   0.531  1.5685  1.3173  2.2937
15309TIP3    H267419   1.067   5.881   0.466  1.6425  2.6834 -0.3867
15310TIP3   OH267420   0.460   5.486   1.628  0.2136  0.0484 -0.0525
15310TIP3    H167421   0.444   5.409   1.573 -0.2819 -0.8388  1.3255
15310TIP3    H267422   0.525   5.458   1.692 -0.2890  0.6357  0.7383
15311TIP3   OH267423   1.428   2.324   4.689  0.1628 -0.4845  0.2485
15311TIP3    H167424   1.504   2.380   4.702 -0.6394  0.7783 -0.4078
15311TIP3    H267425   1.365   2.353   4.755  0.4578 -1.9150  1.1764
15312TIP3   OH267426   5.004   6.351  16.056  0.1708 -0.2714  0.0621
15312TIP3    H167427   5.095   6.334  16.036  0.5027  1.4796 -0.0123
15312TIP3    H267428   4.955   6.289  16.002  1.3750 -4.2187  3.2754
15313TIP3   OH267429   0.413   4.812  13.633  0.5763 -0.0012 -0.0093
15313TIP3    H167430   0.432   4.773  13.718  1.6248  1.0972  0.2706
15313TIP3    H267431   0.337   4.868  13.648  1.0972  0.6173  0.3345
15314TIP3   OH267432   3.235   6.307   2.880 -0.0547  0.2729 -0.1535
15314TIP3    H167433   3.227   6.395   2.918  1.7990  0.1523  0.5730
15314TIP3    H267434   3.146   6.285   2.853 -0.7975  1.8224  0.8997
15315TIP3   OH267435   5.647   0.945   5.984  0.0021 -0.4368  0.2339
15315TIP3    H167436   5.701   0.905   5.917 -0.8192  1.6154 -1.7094
15315TIP3    H267437   5.608   0.871   6.031  0.0307 -1.8974 -1.9885
15316TIP3   OH267438   2.822   4.196  12.918 -0.2013  0.2174 -0.6531
15316TIP3    H167439   2.789   4.181  13.007  1.1427  1.2903  0.0366
15316TIP3    H267440   2.777   4.275  12.889  1.9201  1.8464  0.3976
15317TIP3   OH267441   4.295   1.540  15.730  0.6866 -0.2415  0.3743
15317TIP3    H167442   4.245   1.466  15.765 -1.0607  0.7778  0.0842
15317TIP3    H267443   4.349   1.501  15.661 -0.1712 -1.2719  0.2521
15318TIP3   OH267444   3.162   3.103   5.336 -0.4577  0.0696 -0.1553
15318TIP3    H167445   3.105   3.028   5.315 -1.3877  0.6925  0.1163
15318TIP3    H267446   3.137   3.170   5.272 -1.5825  1.1136  1.3320
15319TIP3   OH267447   6.553   5.655  12.652  0.3315 -0.0504 -0.6049
15319TIP3    H167448   6.623   5.673  12.715 -1.2053  0.0464  1.1245
15319TIP3    H267449   6.524   5.741  12.624  0.1631 -0.0630 -0.4714
15320TIP3   OH267450   1.074   4.504  13.299  0.0956 -0.0917  0.1276
15320TIP3    H167451   1.139   4.498  13.368  2.2544 -0.8460 -1.9104
15320TIP3    H267452   1.014   4.431  13.315  0.7461 -0.4409  0.9986
15321TIP3   OH267453   6.371   3.659   3.388 -0.3500 -0.1918 -0.9186
15321TIP3    H167454   6.409   3.734   3.343  0.0169  0.4440  0.4249
15321TIP3    H267455   6.277   3.667   3.372 -0.6710  2.3089  1.7312
15322TIP3   OH267456   0.259   3.285  12.351 -0.0235  0.0584 -0.3978
15322TIP3    H167457   0.328   3.325  12.297 -0.2792 -1.3174 -1.7850
15322TIP3    H267458   0.251   3.196  12.317 -0.1914 -0.8499  1.9530
15323TIP3   OH267459   4.140   3.246   1.122 -0.1829 -0.2002  0.1548
15323TIP3    H167460   4.228   3.211   1.138  0.6130  1.9413  0.5900
15323TIP3    H267461   4.083   3.169   1.122  1.4923 -1.4637  1.2998
15324TIP3   OH267462   0.754   1.069  13.485 -0.1341  0.0875  0.0601
15324TIP3    H167463   0.796   1.012  13.549  0.9867  0.4290 -0.3590
15324TIP3    H267464   0.816   1.141  13.473 -0.9364  0.7084 -0.4123
15325TIP3   OH267465   5.841   1.850   5.349 -0.0539  0.2076  0.1192
15325TIP3    H167466   5.889   1.932   5.345  1.7780 -0.9287 -2.6905
15325TIP3    H267467   5.778   1.855   5.276 -1.3336 -0.0610  1.1802
15326TIP3   OH267468   5.486   4.232  11.755 -0.2677  0.2355  0.3676
15326TIP3    H167469   5.472   4.320  11.719  0.4271  0.3403  0.3544
15326TIP3    H267470   5.540   4.188  11.691 -0.2818 -0.0754  0.5699
15327TIP3   OH267471   0.705   2.048   3.561  0.1774  0.6615 -0.3179
15327TIP3    H167472   0.793   2.059   3.525  0.5002 -2.3515 -0.5867
15327TIP3    H267473   0.717   2.048   3.656  0.2606  1.5693 -0.3203
15328TIP3   OH267474   0.325   0.675   0.440  0.2862  0.1634 -0.4831
15328TIP3    H167475   0.344   0.736   0.368 -0.5891  1.0478  0.0261
15328TIP3    H267476   0.336   0.728   0.519 -1.7087 -0.0056 -0.0787
15329TIP3   OH267477   3.852   1.775   0.842  0.0646  0.6629 -0.0153
15329TIP3    H167478   3.870   1.826   0.763  0.7393  0.6675  0.1354
15329TIP3    H267479   3.828   1.688   0.810 -0.9399  1.0336 -0.2692
15330TIP3   OH267480   0.834   2.460   5.981 -0.4812 -0.2143  0.5525
15330TIP3    H167481   0.867   2.522   6.045 -1.5642 -0.0547  0.9657
15330TIP3    H267482   0.802   2.386   6.033  0.6121 -1.0388  0.0779
15331TIP3   OH267483   6.193   6.575  12.773 -0.5338 -0.3116 -0.1857
15331TIP3    H167484   6.231   6.590  12.686  0.2227  1.4032  0.4198
15331TIP3    H267485   6.267   6.583  12.833 -1.4642  0.9662  0.8312
15332TIP3   OH267486   0.148   0.656   3.997  0.2883  0.2102  0.2313
15332TIP3    H167487   0.086   0.623   3.932 -1.3348  0.9908  1.3310
15332TIP3    H267488   0.098   0.657   4.079  1.5304  1.5980  0.9957
15333TIP3   OH267489   1.020   1.842   1.309 -0.5307 -0.3352 -0.0767
15333TIP3    H167490   0.931   1.858   1.276 -1.3842 -1.4322  1.5833
15333TIP3    H267491   1.061   1.786   1.244 -0.4437  1.5761 -1.7138
15334TIP3   OH267492   0.290   6.378   4.677  0.2960  0.4488 -0.0095
15334TIP3    H167493   0.310   6.303   4.733  0.7527  0.7547  0.2375
15334TIP3    H267494   0.206   6.355   4.637 -0.1436  0.3224  0.9658
15335TIP3   OH267495   3.238   2.948   1.861 -0.6676 -0.0152  0.2745
15335TIP3    H167496   3.322   2.993   1.873  0.0109 -1.5970  1.4622
15335TIP3    H267497   3.195   2.955   1.945 -1.4963  0.2904 -0.1707
15336TIP3   OH267498   3.833   3.157  11.053 -0.3834 -0.3329 -0.6539
15336TIP3    H167499   3.833   3.198  11.139 -0.1858  3.2431 -2.2627
15336TIP3    H267500   3.921   3.120  11.044 -0.5238 -1.0489  0.7881
15337TIP3   OH267501   1.007   1.020  10.889 -0.4988 -0.0024 -0.4123
15337TIP3    H167502   0.966   1.085  10.946  0.6753  0.3052  0.0954
15337TIP3    H267503   1.001   1.058  10.801  2.6935  2.1491  0.2148
15338TIP3   OH267504   5.148   0.392  16.582 -0.1026 -0.1600 -0.1176
15338TIP3    H167505   5.076   0.454  16.573  0.9699  1.0296 -0.5445
15338TIP3    H267506   5.208   0.413  16.511  1.3861 -0.1764  1.1146
15339TIP3   OH267507   3.764   3.888  11.935  0.0678 -0.0542  0.9924
15339TIP3    H167508   3.852   3.924  11.928 -0.3223  0.8924  0.9873
15339TIP3    H267509   3.730   3.889  11.846 -0.4582  0.8496  1.2066
15340TIP3   OH267510   6.242   0.922   1.655  0.2021  0.7642 -0.2424
15340TIP3    H167511   6.174   0.868   1.614 -0.8270  1.5129  0.4478
15340TIP3    H267512   6.246   1.001   1.600 -1.9184  2.2319  1.6603
15341TIP3   OH267513   5.787   0.965  16.913 -0.7299  0.0107  0.2739
15341TIP3    H167514   5.706   1.016  16.907 -0.4663  0.2425 -1.7207
15341TIP3    H267515   5.769   0.900  16.981 -2.2911  0.5937  0.4454
15342TIP3   OH267516   0.614   3.199   0.779 -0.4031  0.1440 -0.1208
15342TIP3    H167517   0.614   3.193   0.874  0.9793  0.1376 -0.1072
15342TIP3    H267518   0.526   3.227   0.756 -1.7945 -3.1882  0.9280
15343TIP3   OH267519   2.333   0.650  11.670 -0.2447  0.0940 -0.2836
15343TIP3    H167520   2.239   0.635  11.669 -0.2051 -0.2229  0.4875
15343TIP3    H267521   2.348   0.708  11.745  0.4812 -2.1113  1.3473
15344TIP3   OH267522   0.778   6.763   0.491 -0.0722  0.4449  0.0290
15344TIP3    H167523   0.729   6.686   0.519 -0.2323  0.3084 -0.6195
15344TIP3    H267524   0.714   6.835   0.497 -0.7562  0.0533 -2.0582
15345TIP3   OH267525   6.017   4.101  16.668  0.3683 -0.2696  1.1105
15345TIP3    H167526   5.923   4.085  16.660  0.4969 -1.0326  1.0673
15345TIP3    H267527   6.040   4.154  16.591  0.0590 -0.4765  0.8750
15346TIP3   OH267528   3.570   3.581  16.059  0.2196  0.0942 -0.2283
15346TIP3    H167529   3.507   3.629  16.005 -0.3705 -1.4284 -0.9097
15346TIP3    H267530   3.580   3.636  16.137  0.4985  1.9177 -1.5315
15347TIP3   OH267531   2.615   4.611  16.822 -0.1629  0.8840  0.0867
15347TIP3    H167532   2.677   4.538  16.809 -2.8165 -1.6705  1.2581
15347TIP3    H267533   2.614   4.625  16.916 -1.0308  1.1804  0.0357
15348TIP3   OH267534   6.124   3.271  16.288  0.2971  0.3703 -0.0030
15348TIP3    H167535   6.114   3.291  16.194 -3.3055 -0.2548  0.1794
15348TIP3    H267536   6.075   3.340  16.332  2.2326  0.8273  1.4691
15349TIP3   OH267537   1.256   2.271   1.311  0.1350  0.4718  0.0827
15349TIP3    H167538   1.253   2.181   1.345  1.4510  1.0566  1.8066
15349TIP3    H267539   1.221   2.264   1.222 -0.2316 -1.6667  0.3664
15350TIP3   OH267540   3.584   1.926   2.562 -0.3742 -0.7849 -0.0952
15350TIP3    H167541   3.536   1.863   2.615  1.5386 -1.4228  0.9240
15350TIP3    H267542   3.610   1.876   2.484 -0.0165 -0.8779  0.0840
15351TIP3   OH267543   3.115   4.044  15.245 -0.3661  0.4972  0.2321
15351TIP3    H167544   3.106   4.048  15.340  2.2534  0.7247  0.5062
15351TIP3    H267545   3.208   4.024  15.230 -0.4820  1.6119 -2.2961
15352TIP3   OH267546   0.102   5.735   6.610  0.1627  0.0985 -0.0309
15352TIP3    H167547   0.099   5.669   6.679 -2.5483  0.9287  0.6982
15352TIP3    H267548   0.159   5.804   6.646  3.4240 -1.9517 -1.0043
15353TIP3   OH267549   4.838   1.224   4.626  0.3481  0.0069 -0.2812
15353TIP3    H167550   4.826   1.172   4.705 -0.2199 -1.1952 -1.1608
15353TIP3    H267551   4.915   1.279   4.646 -0.0287  0.0112  1.2430
15354TIP3   OH267552   3.977   6.680  11.114  0.8942 -0.8154 -0.3080
15354TIP3    H167553   4.039   6.721  11.052 -0.5134  2.2135  0.2031
15354TIP3    H267554   3.975   6.740  11.189 -2.3225 -1.0553 -0.1374
15355TIP3   OH267555   4.812   5.154  13.229  0.1518 -0.3118 -0.0540
15355TIP3    H167556   4.894   5.187  13.266  1.0524 -1.2354 -1.1694
15355TIP3    H267557   4.774   5.101  13.299  1.0813 -0.7901  0.1066
15356TIP3   OH267558   3.771   1.460  13.614  0.5315 -0.0592 -0.0675
15356TIP3    H167559   3.818   1.502  13.542  0.7056 -1.7554 -0.9678
15356TIP3    H267560   3.837   1.447  13.682  0.9123 -0.6183 -0.5408
15357TIP3   OH267561   3.455   0.132   2.881  0.4215 -0.3032 -0.3781
15357TIP3    H167562   3.471   0.047   2.841 -1.8091 -0.7146 -0.4712
15357TIP3    H267563   3.414   0.184   2.812 -0.1431  0.1656  0.2971
15358TIP3   OH267564   3.109   6.786  14.352  0.0222 -0.3044 -0.4667
15358TIP3    H167565   3.028   6.832  14.332 -0.2956 -0.5066  0.3236
15358TIP3    H267566   3.122   6.799  14.446  0.0732 -1.5816 -0.2782
15359TIP3   OH267567   1.593   5.700  14.314  0.2652 -0.2842  0.0995
15359TIP3    H167568   1.667   5.758  14.328 -0.7456  1.2951 -0.9439
15359TIP3    H267569   1.534   5.719  14.388 -0.1650  0.1914 -0.3609
15360TIP3   OH267570   1.441   5.221  11.918  0.2093 -0.7380  0.0812
15360TIP3    H167571   1.390   5.152  11.877 -0.6578 -0.9726  1.5398
15360TIP3    H267572   1.383   5.258  11.985  0.6255  1.4595 -0.7375
15361TIP3   OH267573   2.283   5.445  13.417 -0.6494  0.1094  0.1153
15361TIP3    H167574   2.215   5.472  13.356  0.0332  2.3631  0.3171
15361TIP3    H267575   2.351   5.405  13.362 -1.1760 -0.2353 -0.2948
15362TIP3   OH267576   1.381   5.352  13.208  0.2836 -0.2369  0.2982
15362TIP3    H167577   1.289   5.379  13.212  0.0399 -0.7354 -1.6088
15362TIP3    H267578   1.377   5.256  13.200  0.9859 -0.2830  0.4573
15363TIP3   OH267579   2.834   4.692   3.024 -0.1924 -0.0970 -0.0184
15363TIP3    H167580   2.898   4.748   3.067 -0.1890 -0.2587  0.1876
15363TIP3    H267581   2.759   4.690   3.083 -0.1075 -0.4862  0.0823
15364TIP3   OH267582   2.660   6.105  14.722  0.1715 -0.3426 -0.0177
15364TIP3    H167583   2.750   6.076  14.735  0.1303 -0.6999 -0.4980
15364TIP3    H267584   2.648   6.176  14.785  0.6194 -0.6508  0.4200
15365TIP3   OH267585   2.649   1.462  14.117 -0.6112  0.1364 -0.3692
15365TIP3    H167586   2.592   1.536  14.095 -1.0246 -0.7509 -2.3610
15365TIP3    H267587   2.673   1.425  14.032 -0.2824 -1.9305  0.6201
15366TIP3   OH267588   3.064   0.098  13.699 -0.4495 -0.3824  0.2332
15366TIP3    H167589   3.030   0.089  13.609  3.1544 -0.8641 -1.1567
15366TIP3    H267590   3.079   0.191  13.710 -1.7810 -0.2136  0.7087
15367TIP3   OH267591   4.002   5.757  11.255  0.4246  0.2307 -0.0117
15367TIP3    H167592   4.012   5.842  11.298  1.2093 -0.3149  0.9317
15367TIP3    H267593   4.090   5.718  11.259  0.0115 -0.7268 -0.1931
15368TIP3   OH267594   3.568   1.290   3.491  0.4335  0.1907  0.0276
15368TIP3    H167595   3.485   1.339   3.488  0.8145  0.9607  1.4380
15368TIP3    H267596   3.542   1.201   3.514  0.0490  0.6470  1.4469
15369TIP3   OH267597   2.978   0.148   5.936 -0.6310  0.1773  0.3859
15369TIP3    H167598   2.917   0.212   5.971 -1.9540 -0.3143 -0.9560
15369TIP3    H267599   2.984   0.080   6.003 -2.0239 -0.0468  0.2983
15370TIP3   OH267600   4.704   5.878  10.818 -0.1480  0.1394 -0.4047
15370TIP3    H167601   4.684   5.803  10.762 -1.1511  0.2922 -0.2565
15370TIP3    H267602   4.799   5.889  10.810 -0.0012 -1.1042 -0.4779
15371TIP3   OH267603   4.808   5.569   0.215 -0.2140 -0.2775 -0.7450
15371TIP3    H167604   4.867   5.536   0.147  0.8214 -0.5382  0.2752
15371TIP3    H267605   4.804   5.499   0.280 -0.5929  0.2781 -0.1604
15372TIP3   OH267606   4.091   4.555   0.679  0.1019 -0.6286 -0.0296
15372TIP3    H167607   4.143   4.626   0.642 -1.7063  0.5770 -0.3342
15372TIP3    H267608   4.106   4.560   0.773 -1.8968  1.7719  0.2200
15373TIP3   OH267609   5.382   1.478  13.773  0.0133 -0.0928  0.2461
15373TIP3    H167610   5.310   1.541  13.777 -1.5911 -1.9438  2.6274
15373TIP3    H267611   5.359   1.419  13.701  0.4172  0.7707 -0.5930
15374TIP3   OH267612   0.541   1.818  14.664 -0.1250 -0.1791  0.3345
15374TIP3    H167613   0.620   1.769  14.688 -1.1773 -0.9593  2.3423
15374TIP3    H267614   0.525   1.876  14.739  0.4386  2.4326 -1.5118
15375TIP3   OH267615   0.500   6.283   5.482 -0.2026 -0.2698 -0.3271
15375TIP3    H167616   0.476   6.206   5.533  1.2947 -0.2857  0.3601
15375TIP3    H267617   0.431   6.347   5.502 -1.2962 -1.3188 -0.6877
15376TIP3   OH267618   3.223   6.714  12.778 -0.3716  0.3278 -0.0524
15376TIP3    H167619   3.130   6.727  12.758 -0.3771  0.2451 -0.0791
15376TIP3    H267620   3.268   6.787  12.736 -0.4007  0.2473 -0.2194
15377TIP3   OH267621   5.125   4.155  15.254 -0.1375  0.0301 -0.1464
15377TIP3    H167622   5.155   4.243  15.279  1.0722 -0.4136  0.0174
15377TIP3    H267623   5.149   4.100  15.328 -0.1623 -0.5760 -0.5855
15378TIP3   OH267624   1.999   5.257   6.676  0.1781  0.3566 -0.2474
15378TIP3    H167625   2.010   5.162   6.667 -1.6561  0.0010  0.9606
15378TIP3    H267626   2.021   5.292   6.590  5.4467 -0.6848  0.4798
15379TIP3   OH267627   5.185   6.462   4.199 -0.1052  0.0028 -0.1686
15379TIP3    H167628   5.135   6.416   4.132  1.5791  0.3165 -1.6962
15379TIP3    H267629   5.276   6.439   4.181  0.3598 -0.1438  2.2192
15380TIP3   OH267630   2.100   5.111   2.759 -0.1048  0.0976  0.4520
15380TIP3    H167631   2.034   5.086   2.824  0.5919  0.8617  1.4701
15380TIP3    H267632   2.049   5.143   2.685 -0.8803  1.1142  1.4079
15381TIP3   OH267633   6.199   5.676  17.143 -0.5442  0.2487  0.4900
15381TIP3    H167634   6.229   5.723  17.220 -1.0496  1.1512  0.1398
15381TIP3    H267635   6.113   5.642  17.167 -0.1796 -0.5012  0.7410
15382TIP3   OH267636   5.972   3.806   2.687  0.0031 -0.3859  0.1514
15382TIP3    H167637   5.987   3.890   2.644 -0.9639  0.2298  0.9973
15382TIP3    H267638   5.895   3.770   2.643 -0.7155  0.0393  1.0309
15383TIP3   OH267639   2.452   5.012   0.795 -0.1566 -0.5924 -0.1672
15383TIP3    H167640   2.367   5.023   0.837  0.7901 -1.5740  2.0873
15383TIP3    H267641   2.437   4.945   0.727 -1.2025 -0.6611  0.1206
15384TIP3   OH267642   6.418   0.897   4.733  0.0557 -0.0354 -0.4861
15384TIP3    H167643   6.368   0.978   4.729 -0.8487 -0.5677 -0.2231
15384TIP3    H267644   6.458   0.897   4.819  1.1042  0.7345 -0.9671
15385TIP3   OH267645   2.724   5.567  15.521  0.3210  0.6300  0.0007
15385TIP3    H167646   2.728   5.523  15.606  2.1482 -1.4891 -1.1133
15385TIP3    H267647   2.655   5.520  15.473  0.7146  0.4333 -0.3864
15386TIP3   OH267648   1.231   4.578  15.262  0.3730 -0.0971 -0.2687
15386TIP3    H167649   1.161   4.569  15.198  0.0511 -1.1953  0.2207
15386TIP3    H267650   1.283   4.652  15.231 -1.1222  0.8665 -0.5105
15387TIP3   OH267651   2.253   3.506   4.553  0.3989 -0.1503 -0.2659
15387TIP3    H167652   2.326   3.455   4.518 -0.8946 -0.8797 -2.0102
15387TIP3    H267653   2.175   3.469   4.510 -0.9695  0.7395  1.3828
15388TIP3   OH267654   0.771   0.391   2.357 -0.5848  0.4832  0.1129
15388TIP3    H167655   0.797   0.452   2.287 -0.2693  0.6488  0.3733
15388TIP3    H267656   0.688   0.426   2.390 -0.5082  0.6574  0.1232
15389TIP3   OH267657   4.294   2.680  10.897  0.0840 -0.3543 -0.3212
15389TIP3    H167658   4.292   2.768  10.859 -0.3045 -0.1259  0.2259
15389TIP3    H267659   4.202   2.657  10.910  0.1397 -1.2248 -1.3301
15390TIP3   OH267660   4.562   1.456  14.802  0.7407 -0.3781  0.1634
15390TIP3    H167661   4.532   1.547  14.799  2.2705  0.0905 -2.0375
15390TIP3    H267662   4.572   1.437  14.896  0.2201  1.6527  0.6596
15391TIP3   OH267663   2.369   4.673  10.687  0.0349 -0.2696 -0.2168
15391TIP3    H167664   2.447   4.625  10.658  0.4794 -0.1568  0.7584
15391TIP3    H267665   2.320   4.691  10.607  0.7171 -0.8676 -0.7715
15392TIP3   OH267666   0.368   0.422  15.454 -0.2874  0.2404 -0.4270
15392TIP3    H167667   0.463   0.423  15.470 -0.3190 -1.1254 -0.0072
15392TIP3    H267668   0.357   0.364  15.378 -0.8747 -0.7573  0.3954
15393TIP3   OH267669   3.749   3.997   1.961  0.4008 -0.2587 -0.0711
15393TIP3    H167670   3.777   3.961   2.045 -1.5746  0.5475  0.9632
15393TIP3    H267671   3.654   3.989   1.961  0.3126  0.3967 -1.9336
15394TIP3   OH267672   1.493   3.119   1.240  0.3218 -0.1717 -0.3368
15394TIP3    H167673   1.489   3.039   1.186  1.4885  1.3220 -2.6886
15394TIP3    H267674   1.416   3.169   1.213 -0.1686 -0.2823  0.8303
15395TIP3   OH267675   4.247   3.718  16.523 -0.1055 -0.0017  0.1248
15395TIP3    H167676   4.242   3.758  16.436  0.4449  0.2038  0.1862
15395TIP3    H267677   4.245   3.624  16.506  0.6647  0.0288 -0.1546
15396TIP3   OH267678   4.933   5.501  15.184  0.7496  0.1583 -0.3475
15396TIP3    H167679   4.989   5.557  15.237  0.7770  1.0736 -1.3119
15396TIP3    H267680   4.912   5.555  15.107 -1.2178 -0.2624 -0.1394
15397TIP3   OH267681   5.774   5.624   0.637  0.3345  0.1570 -0.0071
15397TIP3    H167682   5.739   5.537   0.619  1.2025 -0.0844 -0.5560
15397TIP3    H267683   5.697   5.677   0.658 -0.4250 -0.2342 -1.7175
15398TIP3   OH267684   2.819   0.795   0.412  0.2060  0.1648  0.1358
15398TIP3    H167685   2.848   0.773   0.323  1.2209  0.9852  0.2487
15398TIP3    H267686   2.724   0.786   0.409  0.1768  0.7611 -1.2021
15399TIP3   OH267687   5.764   1.575  14.276  0.4876 -0.3574 -0.4178
15399TIP3    H167688   5.670   1.590  14.271  0.4595 -0.5100 -0.3313
15399TIP3    H267689   5.796   1.642  14.336  0.4238 -0.3545 -0.3870
15400TIP3   OH267690   5.431   0.582   0.022  0.2907  0.2081  0.1034
15400TIP3    H167691   5.389   0.600   0.106  0.0831 -2.8455  0.7144
15400TIP3    H267692   5.502   0.522   0.044 -1.3710 -2.7204 -2.1618
15401TIP3   OH267693   0.751   6.682   6.765 -0.1731  0.3702  0.2238
15401TIP3    H167694   0.727   6.702   6.675 -4.1081 -2.1031  0.5967
15401TIP3    H267695   0.758   6.768   6.808  1.0279  1.5348 -2.2164
15402TIP3   OH267696   2.523   5.581   3.576 -0.7955  0.0971  0.5597
15402TIP3    H167697   2.475   5.664   3.581 -1.2928 -0.2246  1.2499
15402TIP3    H267698   2.613   5.606   3.554 -0.5702  0.9392  2.4091
15403TIP3   OH267699   4.406   2.551   5.151 -0.3394  0.0267 -0.5439
15403TIP3    H167700   4.453   2.497   5.215  0.3153  0.5789 -0.5631
15403TIP3    H267701   4.407   2.639   5.187  1.1299  0.5869 -1.9150
15404TIP3   OH267702   5.759   5.810   3.841 -0.2080  0.2409  0.2097
15404TIP3    H167703   5.723   5.898   3.831 -1.7586 -0.4633 -0.5730
15404TIP3    H267704   5.757   5.773   3.753 -1.0805 -1.1480  0.7994
15405TIP3   OH267705   6.614   2.803   0.739 -0.0435  0.2276  0.0811
15405TIP3    H167706   6.602   2.733   0.804  1.4907 -0.2519 -0.1377
15405TIP3    H267707   6.526   2.821   0.707 -0.7096 -0.1622  1.6478
15406TIP3   OH267708   5.187   1.701  12.528 -0.2725  0.0010 -0.8745
15406TIP3    H167709   5.146   1.656  12.454  1.1815 -0.7628 -1.2523
15406TIP3    H267710   5.251   1.638  12.561 -1.0597  0.2559  1.1843
15407TIP3   OH267711   0.988   0.581   0.305 -0.0118 -0.3993  0.0785
15407TIP3    H167712   0.993   0.628   0.388 -0.5135 -0.1347 -0.0402
15407TIP3    H267713   0.926   0.509   0.322  0.0767 -0.4919  0.0079
15408TIP3   OH267714   4.501   6.489  16.852  0.2505  0.4345  0.4529
15408TIP3    H167715   4.429   6.552  16.849  0.6955  0.9236 -0.3557
15408TIP3    H267716   4.491   6.438  16.771 -0.6722 -1.1864  1.5653
15409TIP3   OH267717   2.460   4.489   5.040 -0.0090  0.4041  0.1190
15409TIP3    H167718   2.442   4.441   4.958 -1.5696  0.9596  0.1244
15409TIP3    H267719   2.532   4.441   5.080 -0.8510 -1.3358 -0.3964
15410TIP3   OH267720   2.747   4.069   2.839 -0.0892  0.6908  0.3126
15410TIP3    H167721   2.841   4.054   2.836  0.0415  1.7222 -1.3948
15410TIP3    H267722   2.714   4.033   2.756 -1.2006  0.3646  0.8826
15411TIP3   OH267723   4.096   4.271  15.042  0.7984 -0.4162 -0.1129
15411TIP3    H167724   4.154   4.196  15.030 -1.1800 -2.1520  1.0271
15411TIP3    H267725   4.121   4.307  15.128 -0.6408 -1.9389  0.9671
15412TIP3   OH267726   6.479   5.194   2.791 -0.0004  0.3749 -0.0010
15412TIP3    H167727   6.398   5.243   2.779 -0.0931 -0.2771 -2.2142
15412TIP3    H267728   6.471   5.155   2.878 -1.3938  1.5308  0.3948
15413TIP3   OH267729   3.361   2.297  14.863  0.6104 -0.4540 -0.7317
15413TIP3    H167730   3.282   2.275  14.815  1.0583 -1.2038 -1.1348
15413TIP3    H267731   3.350   2.255  14.948 -0.4241  1.3226  0.0450
15414TIP3   OH267732   1.650   6.342  12.870  0.0175  0.6799 -0.6602
15414TIP3    H167733   1.663   6.389  12.952  0.7692  1.6742 -1.3373
15414TIP3    H267734   1.642   6.410  12.804  1.0658 -0.1323 -1.6467
15415TIP3   OH267735   6.266   1.714   1.173 -0.6031 -0.1902  0.3766
15415TIP3    H167736   6.189   1.733   1.227  0.1184 -0.4523  1.5066
15415TIP3    H267737   6.319   1.793   1.179  0.4750 -1.0177  1.7641
15416TIP3   OH267738   5.663   2.004   4.877  0.6908 -0.1992  0.6718
15416TIP3    H167739   5.739   2.038   4.923  0.3202  0.0388  1.1063
15416TIP3    H267740   5.592   2.063   4.900  0.7682  0.6504 -1.1756
15417TIP3   OH267741   0.385   5.828  13.664  0.1378  0.0745  0.0059
15417TIP3    H167742   0.342   5.909  13.690  3.4982  0.8964  3.2422
15417TIP3    H267743   0.476   5.852  13.647  0.6607 -2.6083 -1.3189
15418TIP3   OH267744   1.039   2.655   0.312  0.2887  0.2009 -0.2803
15418TIP3    H167745   1.066   2.564   0.318  0.5345  0.3457  0.9785
15418TIP3    H267746   1.035   2.685   0.403  0.1265  1.4165 -0.6750
15419TIP3   OH267747   1.170   3.568  13.445  0.0643  0.0406 -0.1552
15419TIP3    H167748   1.138   3.644  13.494  1.3319  0.4693  0.0109
15419TIP3    H267749   1.097   3.544  13.389 -0.6255  0.8978  0.3627
15420TIP3   OH267750   4.980   6.368   5.614  0.5395  0.3501  0.3094
15420TIP3    H167751   4.915   6.395   5.679  0.7943 -0.1053  0.7529
15420TIP3    H267752   5.064   6.380   5.658  0.7087 -0.0613  0.0984
15421TIP3   OH267753   1.454   0.523   3.252  0.1548  0.0717  0.0199
15421TIP3    H167754   1.468   0.617   3.264  1.6557 -0.1377 -0.0114
15421TIP3    H267755   1.510   0.499   3.178 -1.5423 -0.5309 -1.1009
15422TIP3   OH267756   3.657   5.136   2.910 -0.3008 -0.5755  0.0683
15422TIP3    H167757   3.615   5.214   2.873 -0.2498 -0.3737  0.4295
15422TIP3    H267758   3.611   5.062   2.870  0.1856 -0.3640 -0.8819
15423TIP3   OH267759   6.592   1.784   0.346 -0.4552 -0.3008 -0.2031
15423TIP3    H167760   6.546   1.719   0.293  0.5862 -0.5846 -0.7671
15423TIP3    H267761   6.629   1.735   0.419  0.7568 -0.4308 -0.8986
15424TIP3   OH267762   0.210   4.871   5.071 -0.0488  0.3181 -0.6578
15424TIP3    H167763   0.268   4.859   4.996  0.1729  0.8334 -0.5671
15424TIP3    H267764   0.122   4.867   5.034  0.0534  0.1776 -0.8862
15425TIP3   OH267765   1.255   6.504   2.971 -0.2744  0.2652 -0.2392
15425TIP3    H167766   1.257   6.457   3.054 -0.1069 -0.5734 -0.7144
15425TIP3    H267767   1.222   6.440   2.908 -0.9690  1.0699 -0.7076
15426TIP3   OH267768   6.127   0.777   6.197  0.7742  0.3787 -0.1037
15426TIP3    H167769   6.194   0.816   6.253 -0.9305  0.8122  1.7020
15426TIP3    H267770   6.121   0.836   6.122  2.1482  0.5203 -0.1097
15427TIP3   OH267771   5.183   2.302  11.347 -0.0422  0.2041 -0.0166
15427TIP3    H167772   5.219   2.391  11.351  0.0584  0.2140 -1.0605
15427TIP3    H267773   5.246   2.249  11.396  0.1747  0.6207  0.1572
15428TIP3   OH267774   0.742   6.182   5.401  0.1871 -0.2001 -0.5626
15428TIP3    H167775   0.665   6.236   5.419  1.5890  1.1959  1.4857
15428TIP3    H267776   0.767   6.204   5.311 -0.5719  0.8834 -0.5091
15429TIP3   OH267777   4.600   4.816  15.310  0.6548 -0.0733 -0.3571
15429TIP3    H167778   4.658   4.776  15.374  1.0084 -0.7542 -1.0951
15429TIP3    H267779   4.589   4.906  15.340  0.8945 -0.3607  0.6021
15430TIP3   OH267780   3.436   0.231   0.246  0.1894 -0.0309 -0.1684
15430TIP3    H167781   3.341   0.223   0.252  0.0299  0.3640 -1.8383
15430TIP3    H267782   3.464   0.253   0.334 -1.2204 -0.6009  0.4398
15431TIP3   OH267783   2.464   4.546  16.126  0.3905  0.1826  0.1125
15431TIP3    H167784   2.534   4.587  16.177 -1.1473  1.8312  0.9866
15431TIP3    H267785   2.412   4.499  16.192 -0.2788  0.3772 -0.2744
15432TIP3   OH267786   6.173   5.320   1.368  0.2879  0.2464 -0.7790
15432TIP3    H167787   6.154   5.371   1.289 -0.2069  1.7052  0.2625
15432TIP3    H267788   6.267   5.334   1.382  0.3748 -0.0081 -1.1088
15433TIP3   OH267789   2.851   1.729   4.233  0.1012 -0.1721 -0.2378
15433TIP3    H167790   2.816   1.639   4.233 -2.5990  0.8391  0.6751
15433TIP3    H267791   2.938   1.720   4.192  0.0052 -3.2300  0.0681
15434TIP3   OH267792   1.621   5.063   2.975  0.4536  0.4277  0.7572
15434TIP3    H167793   1.535   5.019   2.976 -0.1485  1.5564 -0.2127
15434TIP3    H267794   1.672   5.013   2.912  0.5528 -0.3124  1.4126
15435TIP3   OH267795   3.394   6.029   5.360  0.7062  0.8464  0.1537
15435TIP3    H167796   3.346   6.005   5.281  1.7347  0.2060 -0.2841
15435TIP3    H267797   3.326   6.055   5.423 -0.2452 -0.6749 -0.2316
15436TIP3   OH267798   3.337   4.142   3.768  0.0185  0.1047 -0.1082
15436TIP3    H167799   3.320   4.132   3.861  0.7327  0.4713  0.0629
15436TIP3    H267800   3.314   4.233   3.748  3.1269  1.0764  0.4408
15437TIP3   OH267801   1.799   3.410   3.620  0.2097 -0.3920  0.1189
15437TIP3    H167802   1.723   3.460   3.591  0.4700 -0.0616  0.0078
15437TIP3    H267803   1.773   3.373   3.704  0.2058  0.3491  0.4465
15438TIP3   OH267804   6.557   3.349  13.780  0.1782  0.4771  0.2970
15438TIP3    H167805   6.558   3.413  13.851  0.3673  1.1634 -0.3208
15438TIP3    H267806   6.509   3.274  13.816  0.3491  0.7861  1.1768
15439TIP3   OH267807   1.542   4.134   5.167 -0.0367  0.7399  0.6546
15439TIP3    H167808   1.487   4.069   5.211 -1.6973  2.3890  1.1013
15439TIP3    H267809   1.497   4.217   5.182  1.2203  1.7951 -1.2124
15440TIP3   OH267810   4.072   4.265  14.167  0.1089  0.2713  0.0834
15440TIP3    H167811   4.021   4.313  14.101  0.3793 -0.2133 -0.4962
15440TIP3    H267812   4.100   4.331  14.229 -2.0028  0.4230  0.9243
15441TIP3   OH267813   3.971   5.281  11.456  0.0931 -0.2517 -0.1731
15441TIP3    H167814   3.964   5.372  11.428  0.1489 -0.4727 -0.9162
15441TIP3    H267815   3.880   5.250  11.461  0.1357 -0.6832 -1.7099
15442TIP3   OH267816   4.689   1.666   1.815 -0.5944 -0.2468 -0.1604
15442TIP3    H167817   4.600   1.696   1.834 -0.7034 -0.3135 -0.5694
15442TIP3    H267818   4.715   1.618   1.893 -0.7971  0.0482  0.0919
15443TIP3   OH267819   0.917   0.571   4.722 -0.3004 -0.7057  0.1249
15443TIP3    H167820   0.887   0.614   4.802  0.0864  0.5483 -0.3839
15443TIP3    H267821   0.870   0.487   4.721 -4.9364  1.6872 -1.3269
15444TIP3   OH267822   6.590   1.477   2.987  0.0694  0.3350 -0.0918
15444TIP3    H167823   6.514   1.536   2.991  0.5465  0.8848  0.9223
15444TIP3    H267824   6.615   1.464   3.078  1.5967  0.6770 -0.4445
15445TIP3   OH267825   0.612   0.992   4.399  0.1041  0.0832  0.3861
15445TIP3    H167826   0.694   1.036   4.377 -0.5400  2.3208  2.1442
15445TIP3    H267827   0.635   0.932   4.470  0.8311 -1.7958 -1.4238
15446TIP3   OH267828   2.480   6.135   4.774  0.6703 -0.5963  0.1997
15446TIP3    H167829   2.498   6.047   4.806 -0.4600 -1.2589 -0.9081
15446TIP3    H267830   2.425   6.175   4.841  1.1832 -0.7308  0.7028
15447TIP3   OH267831   0.483   2.728  11.762  0.4736 -0.0551  0.0436
15447TIP3    H167832   0.410   2.770  11.717  2.0836  1.3304 -1.3279
15447TIP3    H267833   0.499   2.783  11.838  0.0767 -0.3906  0.3758
15448TIP3   OH267834   1.183   4.681  12.642  0.1573 -0.2573  0.2118
15448TIP3    H167835   1.206   4.661  12.551  1.5410  3.2397 -0.2736
15448TIP3    H267836   1.088   4.681  12.643  0.1312 -1.0452 -1.0573
15449TIP3   OH267837   6.087   5.655  12.309 -0.3410 -0.0114  0.8199
15449TIP3    H167838   6.131   5.592  12.366  0.4795 -0.9122 -0.7878
15449TIP3    H267839   6.065   5.728  12.367  1.5549 -0.3889  2.0653
15450TIP3   OH267840   2.144   2.113  16.199 -0.0967  0.3725 -0.3218
15450TIP3    H167841   2.199   2.160  16.136 -0.4582  0.7866 -0.3300
15450TIP3    H267842   2.121   2.032  16.155  0.6699  0.1088 -0.2408
15451TIP3   OH267843   4.613   5.925   3.278  0.2538  0.1696  0.0969
15451TIP3    H167844   4.539   5.879   3.318  0.6791 -1.0701 -0.5219
15451TIP3    H267845   4.639   5.991   3.343 -1.0548  0.2609  0.5323
15452TIP3   OH267846   0.672   1.668  16.611 -0.3293 -0.1622 -0.9128
15452TIP3    H167847   0.746   1.684  16.669 -0.9442  0.9485 -0.4254
15452TIP3    H267848   0.614   1.743  16.623 -0.1740  0.4231 -3.4368
15453TIP3   OH267849   1.125   2.926   1.053 -0.1786 -0.3559 -0.0661
15453TIP3    H167850   1.062   2.972   0.997  1.2484  1.3447 -0.3312
15453TIP3    H267851   1.107   2.957   1.141 -0.1188 -0.3338 -0.0613
15454TIP3   OH267852   0.900   1.965  16.458 -0.1550  0.6921 -0.0195
15454TIP3    H167853   0.979   1.929  16.418  0.2579  0.8814  0.6281
15454TIP3    H267854   0.911   1.950  16.552 -0.8269  0.8388  0.0871
15455TIP3   OH267855   3.988   5.654   0.513 -0.8760 -0.0683 -0.0987
15455TIP3    H167856   4.057   5.617   0.458 -0.0896 -2.0057  2.0992
15455TIP3    H267857   3.923   5.584   0.521 -1.8257  0.8103  0.0126
15456TIP3   OH267858   4.087   2.609  14.554  0.5882  0.8176  0.3621
15456TIP3    H167859   4.034   2.640  14.627  0.9033  1.2748  0.3983
15456TIP3    H267860   4.156   2.675  14.544  1.2815  0.1161  0.4578
15457TIP3   OH267861   3.062   1.857  11.614  0.1293  0.4599  0.4647
15457TIP3    H167862   2.977   1.901  11.617 -0.5636 -0.7071 -1.0624
15457TIP3    H267863   3.051   1.781  11.672 -0.0249  0.0580 -0.0882
15458TIP3   OH267864   5.872   2.397  15.684 -0.8964 -0.0329 -0.0829
15458TIP3    H167865   5.821   2.317  15.674 -1.2482  0.0178  1.2204
15458TIP3    H267866   5.929   2.380  15.759  0.4899  0.1820 -1.0519
15459TIP3   OH267867   3.287   4.845  12.680 -0.5059  0.3322  0.3111
15459TIP3    H167868   3.221   4.909  12.652  0.2143  0.8340 -0.2502
15459TIP3    H267869   3.357   4.853  12.616  0.4782  0.3884  1.3786
15460TIP3   OH267870   3.623   4.276   2.149 -0.3487 -0.2592 -0.1528
15460TIP3    H167871   3.560   4.290   2.219  1.0977  0.2689  1.0792
15460TIP3    H267872   3.698   4.234   2.192  0.8137  0.6521 -1.2355
15461TIP3   OH267873   4.499   0.907  16.057 -0.1666 -0.2609 -0.9417
15461TIP3    H167874   4.485   0.993  16.098  0.3804 -1.1935  1.2730
15461TIP3    H267875   4.562   0.863  16.114 -0.1228 -1.9838 -2.2806
15462TIP3   OH267876   4.563   2.352   2.253 -0.5349 -0.2083  0.3237
15462TIP3    H167877   4.550   2.277   2.195 -0.6542  0.8857 -1.1201
15462TIP3    H267878   4.642   2.394   2.219  1.6518 -1.6921  3.3746
15463TIP3   OH267879   3.790   5.311   2.256 -0.1436  0.7566  0.3276
15463TIP3    H167880   3.744   5.356   2.184 -1.8946 -1.3950  0.0423
15463TIP3    H267881   3.727   5.246   2.287  1.4680  0.0969  2.3056
15464TIP3   OH267882   5.204   6.199   6.162 -0.4383 -0.2034 -0.3628
15464TIP3    H167883   5.139   6.184   6.231 -0.2437 -1.4316 -0.4381
15464TIP3    H267884   5.288   6.187   6.206 -0.3165 -1.0724 -0.8245
15465TIP3   OH267885   6.686   6.219  10.887 -0.2695  0.7295  0.1272
15465TIP3    H167886   6.609   6.220  10.944 -2.2934 -1.8777 -2.4037
15465TIP3    H267887   6.661   6.272  10.811  0.5693  0.1938 -0.5355
15466TIP3   OH267888   5.644   2.221   1.962  0.1899 -0.6820 -0.1713
15466TIP3    H167889   5.657   2.228   1.868  0.6120 -0.1189 -0.0694
15466TIP3    H267890   5.732   2.216   1.999  0.0182 -2.4750  0.0788
15467TIP3   OH267891   4.989   4.996   1.908 -0.0580 -0.5523  0.8581
15467TIP3    H167892   5.067   5.012   1.855 -1.5055 -1.5550 -1.6831
15467TIP3    H267893   4.955   5.083   1.928  1.2244 -0.1389  1.2340
15468TIP3   OH267894   5.787   2.512  13.763 -0.1925  0.4395 -0.3576
15468TIP3    H167895   5.765   2.573  13.693  1.5877  1.7807  0.2029
15468TIP3    H267896   5.782   2.564  13.843  0.8895 -0.2541  0.1762
15469TIP3   OH267897   4.481   1.617   3.635 -0.0452 -0.3878 -0.1784
15469TIP3    H167898   4.543   1.616   3.562 -0.5521 -2.4251 -0.6142
15469TIP3    H267899   4.501   1.538   3.684 -2.2202 -1.0428 -0.2775
15470TIP3   OH267900   5.502   0.881  17.210  0.3929 -0.1008  0.2766
15470TIP3    H167901   5.573   0.915  17.264  0.4626  0.0215  0.1075
15470TIP3    H267902   5.474   0.801  17.255 -1.0924  1.2229  1.7809
15471TIP3   OH267903   0.500   0.948  12.189  0.5691  0.1933 -0.2131
15471TIP3    H167904   0.517   1.042  12.183  0.7270  0.0234 -2.8382
15471TIP3    H267905   0.427   0.933  12.129 -0.3545 -1.1635  1.2147
15472TIP3   OH267906   3.515   4.642  15.161 -0.3978 -0.0771  0.0269
15472TIP3    H167907   3.552   4.611  15.078 -1.2541 -1.4168  0.1333
15472TIP3    H267908   3.521   4.567  15.219 -2.1037  0.0843  0.4348
15473TIP3   OH267909   0.372   5.347  14.995  0.9066  0.2307 -0.1792
15473TIP3    H167910   0.345   5.257  14.976 -0.3313  0.5901 -0.1198
15473TIP3    H267911   0.352   5.358  15.088  2.4442  0.0846  0.1862
15474TIP3   OH267912   6.716   4.498  12.141 -0.2133 -0.0079 -0.7792
15474TIP3    H167913   6.705   4.461  12.229  0.9296 -0.5414 -0.8599
15474TIP3    H267914   6.650   4.567  12.136  0.3140  0.6265  0.8270
15475TIP3   OH267915   5.479   4.679   4.584 -0.1526 -0.4198  0.0719
15475TIP3    H167916   5.460   4.586   4.573  0.8799 -0.5663 -0.5112
15475TIP3    H267917   5.404   4.713   4.633 -0.7019 -1.4850 -0.0144
15476TIP3   OH267918   4.983   6.037   6.055 -0.2483  0.5072 -0.2546
15476TIP3    H167919   5.075   6.038   6.081 -0.5517  2.5694  0.8708
15476TIP3    H267920   4.984   6.044   5.960  0.7640  2.3696 -0.1310
15477TIP3   OH267921   5.955   0.343  14.074 -0.1181 -0.3495  0.0105
15477TIP3    H167922   5.984   0.322  14.163  0.3557 -0.7886 -0.2427
15477TIP3    H267923   5.972   0.437  14.065  0.2603 -0.3949  0.2266
15478TIP3   OH267924   2.172   2.288   5.527  0.3366 -0.5407  0.5472
15478TIP3    H167925   2.237   2.358   5.530  0.0181 -0.2832  1.4080
15478TIP3    H267926   2.111   2.314   5.458 -0.0627  0.2690  1.2117
15479TIP3   OH267927   0.885   4.278   1.259 -0.2044 -0.5598  0.1078
15479TIP3    H167928   0.867   4.301   1.168  1.0409  1.3308  0.3092
15479TIP3    H267929   0.805   4.235   1.289 -1.4737  0.8154 -1.2349
15480TIP3   OH267930   2.121   1.603  12.353 -0.3721 -0.0555  0.2264
15480TIP3    H167931   2.173   1.650  12.418 -0.5589  0.3902  0.0504
15480TIP3    H267932   2.118   1.513  12.387 -0.3175  0.1336  0.7431
15481TIP3   OH267933   3.778   0.115   0.426  0.3087 -0.0552 -0.2426
15481TIP3    H167934   3.699   0.169   0.426 -0.1038 -0.4227 -5.1799
15481TIP3    H267935   3.849   0.177   0.408  0.6468 -0.3139  0.1882
15482TIP3   OH267936   0.014   1.579   0.510 -0.0979 -0.2791  0.0482
15482TIP3    H167937   0.067   1.616   0.440  2.7130  0.0869  2.3005
15482TIP3    H267938   0.008   1.486   0.489  0.6737 -0.1568 -0.7033
15483TIP3   OH267939   5.019   1.096  16.483 -0.0191  0.1007  0.1713
15483TIP3    H167940   4.954   1.100  16.413 -0.4258 -1.4500  0.4635
15483TIP3    H267941   4.968   1.089  16.563  0.4845  0.6551  0.5470
15484TIP3   OH267942   3.964   3.844  13.643 -0.2354  0.1885  0.7963
15484TIP3    H167943   4.027   3.915  13.641  0.6462 -0.5473 -4.1316
15484TIP3    H267944   4.005   3.777  13.697  1.5412  1.2021  0.7272
15485TIP3   OH267945   1.547   6.034   1.089 -0.1438  0.1398  0.6253
15485TIP3    H167946   1.474   6.096   1.095  2.5946  3.5879 -0.1708
15485TIP3    H267947   1.623   6.084   1.118  2.6453 -2.0121 -2.5714
15486TIP3   OH267948   4.256   5.217   1.358 -0.3342 -0.3723  0.3209
15486TIP3    H167949   4.197   5.290   1.341 -0.9095 -0.9399 -0.1384
15486TIP3    H267950   4.260   5.211   1.453 -0.3664  0.1859  0.3578
15487TIP3   OH267951   5.435   6.790   6.478 -0.7552 -0.8578 -0.4848
15487TIP3    H167952   5.510   6.847   6.463 -0.4911 -0.6956  1.4421
15487TIP3    H267953   5.472   6.708   6.510 -1.2055 -1.7968 -2.2959
15488TIP3   OH267954   6.223   2.426   3.859 -0.1011 -0.8047  0.2680
15488TIP3    H167955   6.261   2.420   3.771  0.3294  2.1579  0.1851
15488TIP3    H267956   6.214   2.520   3.874  0.5921 -1.2363  3.7301
15489TIP3   OH267957   3.405   4.835  17.229 -0.2265 -0.1564 -0.6194
15489TIP3    H167958   3.387   4.918  17.185  0.2262  0.0887 -0.3457
15489TIP3    H267959   3.327   4.817  17.281  0.1959  0.7626  0.3465
15490TIP3   OH267960   3.687   0.521   5.980 -0.0239 -0.6413  0.5778
15490TIP3    H167961   3.660   0.429   5.977  0.0641 -0.6109 -2.6712
15490TIP3    H267962   3.769   0.520   6.029 -0.1770 -2.2598  0.8210
15491TIP3   OH267963   6.589   0.976   2.343  0.0725 -0.0238  0.3412
15491TIP3    H167964   6.556   0.996   2.431  0.8603  1.5839  0.2831
15491TIP3    H267965   6.600   1.061   2.302  1.8247 -0.6616 -0.5459
15492TIP3   OH267966   3.112   5.007  11.477  0.0835  0.5538 -0.2151
15492TIP3    H167967   3.128   4.915  11.497  0.6083  0.9694  1.3236
15492TIP3    H267968   3.197   5.042  11.450  0.3093  1.0479  1.0988
15493TIP3   OH267969   5.255   6.692   4.631  0.0959  0.1156  0.1132
15493TIP3    H167970   5.212   6.641   4.700  0.2710 -0.1879  0.0021
15493TIP3    H267971   5.202   6.674   4.553 -0.9558  1.6106  0.4622
15494TIP3   OH267972   3.557   4.454   0.120 -0.6524  0.0077 -0.0127
15494TIP3    H167973   3.621   4.384   0.102  0.2334  0.6802  0.5104
15494TIP3    H267974   3.543   4.450   0.215  1.7048  2.5009  0.4882
15495TIP3   OH267975   3.808   4.934   5.290 -0.0660  0.0076  0.1375
15495TIP3    H167976   3.745   4.909   5.223 -0.1330 -1.4512  0.7132
15495TIP3    H267977   3.890   4.895   5.262  0.6540  2.1295 -0.7458
15496TIP3   OH267978   1.635   4.233  14.008  0.0799  0.1221 -0.8587
15496TIP3    H167979   1.587   4.225  13.926 -2.0207 -0.5730  0.3904
15496TIP3    H267980   1.660   4.325  14.012  0.3108  0.1360 -2.3286
15497TIP3   OH267981   1.374   0.113  12.737 -0.0058 -0.2187 -0.2780
15497TIP3    H167982   1.317   0.063  12.795 -1.6084  1.5410 -0.2996
15497TIP3    H267983   1.462   0.079  12.755 -0.5345 -0.1481  2.7134
15498TIP3   OH267984   6.190   0.699   3.673 -0.1919  0.0840 -0.0763
15498TIP3    H167985   6.210   0.638   3.602  1.9206 -0.1312  0.6479
15498TIP3    H267986   6.099   0.681   3.695 -0.5181 -0.6717 -1.9335
15499TIP3   OH267987   1.754   4.372  13.716 -0.4569  0.1691 -0.1806
15499TIP3    H167988   1.702   4.327  13.648 -0.2700 -0.4675  0.0902
15499TIP3    H267989   1.816   4.305  13.746 -0.0848  0.6570  0.1351
15500TIP3   OH267990   4.147   4.748  13.999 -0.2141 -0.4347 -0.1289
15500TIP3    H167991   4.135   4.681  13.932 -1.5437 -1.7578  1.4074
15500TIP3    H267992   4.108   4.827  13.960  0.6076 -0.7448 -1.6057
15501TIP3   OH267993   6.504   3.723   0.562  0.4657 -0.2087  0.1195
15501TIP3    H167994   6.516   3.643   0.511  1.4975 -0.3938  0.6424
15501TIP3    H267995   6.574   3.720   0.627  0.4844  1.1036  0.1631
15502TIP3   OH267996   3.369   4.514   1.024 -0.2979 -0.2750 -0.1451
15502TIP3    H167997   3.324   4.576   0.967  0.9239  0.3814 -0.4170
15502TIP3    H267998   3.461   4.519   0.996  0.2769 -0.0773  1.7527
15503TIP3   OH267999   1.485   3.181  11.862 -0.3125  0.3492  0.3761
15503TIP3    H168000   1.412   3.118  11.857 -2.0041  2.3411 -0.7463
15503TIP3    H268001   1.497   3.210  11.772  1.2129  0.8150  0.7236
15504TIP3   OH268002   0.674   4.981  16.908  0.1908 -0.0451 -0.1875
15504TIP3    H168003   0.633   4.918  16.849  0.3777  0.1119 -0.4898
15504TIP3    H268004   0.757   5.003  16.865  1.2827 -1.4568  1.1278
15505TIP3   OH268005   6.302   0.487   1.857  0.9306  0.6715 -0.3827
15505TIP3    H168006   6.382   0.489   1.909  0.9995  0.2815 -0.4736
15505TIP3    H268007   6.247   0.557   1.893  0.9045  0.2878  0.3241
15506TIP3   OH268008   5.233   5.252  14.958  0.1491  0.5941  0.1781
15506TIP3    H168009   5.175   5.252  15.033  0.4947  0.7898  0.4459
15506TIP3    H268010   5.302   5.315  14.980  0.8753 -0.1917  0.1881
15507TIP3   OH268011   3.053   5.408   2.276  0.1457  0.1174  0.7421
15507TIP3    H168012   3.038   5.430   2.368 -1.9493 -0.1842  0.4882
15507TIP3    H268013   2.977   5.442   2.230  1.4229  0.7155 -0.9748
15508TIP3   OH268014   6.425   2.593  12.558  0.1170  0.1331  0.2334
15508TIP3    H168015   6.509   2.617  12.597  0.5993 -0.7660 -0.2170
15508TIP3    H268016   6.371   2.567  12.633  0.7043 -0.6198  0.4072
15509TIP3   OH268017   3.711   5.719   2.943  0.4423 -0.4108  0.1161
15509TIP3    H168018   3.791   5.674   2.917  2.1050  0.8057  2.8276
15509TIP3    H268019   3.652   5.648   2.971  1.9481 -1.1494  1.5667
15510TIP3   OH268020   6.442   1.609   5.353 -0.3854 -0.1166  0.3742
15510TIP3    H168021   6.456   1.515   5.360 -1.6141 -0.2064  2.0730
15510TIP3    H268022   6.374   1.618   5.286  0.0143 -0.4084 -0.0730
15511TIP3   OH268023   2.599   2.241   1.657 -0.2027 -0.1539 -0.2783
15511TIP3    H168024   2.695   2.242   1.660 -0.2152 -2.1183  3.7129
15511TIP3    H268025   2.578   2.210   1.569  2.8666 -2.8163 -0.1495
15512TIP3   OH268026   1.337   1.468   0.816 -0.6240  0.2510  0.2934
15512TIP3    H168027   1.389   1.400   0.773 -1.1496 -1.1290  1.7971
15512TIP3    H268028   1.350   1.452   0.909 -3.0449  0.4239  0.6871
15513TIP3   OH268029   3.005   6.726   5.604 -0.1623 -0.0491 -0.3045
15513TIP3    H168030   2.996   6.811   5.560 -0.4249 -0.4299 -1.0112
15513TIP3    H268031   3.051   6.672   5.540 -1.3044 -0.8647 -0.4482
15514TIP3   OH268032   3.378   2.303   6.149  0.6918  0.2170  1.1146
15514TIP3    H168033   3.343   2.383   6.189 -1.2826 -1.4007  2.7584
15514TIP3    H268034   3.400   2.248   6.224  0.1706 -1.5413 -0.0162
15515TIP3   OH268035   4.452   5.533  15.801 -0.4240 -0.0059 -0.4285
15515TIP3    H168036   4.477   5.471  15.870  0.4191 -0.6575 -1.3123
15515TIP3    H268037   4.522   5.527  15.736 -1.1377  0.7115 -1.2770
15516TIP3   OH268038   5.032   3.198  14.165  0.3490 -0.1067 -0.1840
15516TIP3    H168039   5.115   3.152  14.178  0.2978  0.0947  0.8213
15516TIP3    H268040   5.041   3.237  14.078  1.3554  0.0077 -0.0397
15517TIP3   OH268041   5.092   0.005  15.815 -0.0025  0.0445  0.5720
15517TIP3    H168042   5.019  -0.017  15.873 -0.4169 -0.3935 -0.1132
15517TIP3    H268043   5.130   0.084  15.853 -0.5087 -0.0282  1.2279
15518TIP3   OH268044   0.801   0.811   1.916  0.0957 -0.3804  0.7088
15518TIP3    H168045   0.797   0.874   1.844 -0.4735 -0.9996  0.1926
15518TIP3    H268046   0.874   0.754   1.893 -0.7933 -1.2720  0.0333
15519TIP3   OH268047   2.001   2.916   1.907 -0.2038  0.0026 -0.3635
15519TIP3    H168048   2.015   2.826   1.875 -0.2473 -0.5117  1.0098
15519TIP3    H268049   1.911   2.937   1.882  0.4554  0.4242 -2.4508
15520TIP3   OH268050   1.270   0.234   0.991 -0.2890 -0.6542  0.4119
15520TIP3    H168051   1.327   0.184   0.932 -2.3711 -0.5111 -1.7803
15520TIP3    H268052   1.184   0.194   0.981 -1.3096  1.3598  1.0062
15521TIP3   OH268053   1.973   0.988  16.712  0.1350 -0.5942 -0.2613
15521TIP3    H168054   1.954   0.923  16.643  0.8828 -1.1228  0.0280
15521TIP3    H268055   2.068   0.988  16.720  0.1095  0.1670  0.1130
15522TIP3   OH268056   4.227   0.734  14.117  0.2936  0.4391  0.2761
15522TIP3    H168057   4.151   0.690  14.155  1.3828 -1.3145  0.4937
15522TIP3    H268058   4.282   0.756  14.192 -0.1164  1.9783  0.1457
15523TIP3   OH268059   1.171   2.705  13.155 -0.3853 -0.3561  0.0962
15523TIP3    H168060   1.192   2.764  13.228 -0.0081  0.3851 -0.6045
15523TIP3    H268061   1.077   2.690  13.163 -0.3148 -0.4197  0.8427
15524TIP3   OH268062   6.174   4.176  13.301 -0.0833 -0.0079 -0.1660
15524TIP3    H168063   6.147   4.264  13.327  1.1224 -0.1416  1.6539
15524TIP3    H268064   6.247   4.190  13.241 -1.4657  0.2680 -1.8000
15525TIP3   OH268065   2.078   3.562  13.350  0.3681 -0.4776  0.3276
15525TIP3    H168066   1.993   3.581  13.390 -0.1544 -0.0728 -0.9431
15525TIP3    H268067   2.134   3.635  13.377  0.2223 -0.5743  0.8935
15526TIP3   OH268068   1.388   5.354   2.856 -0.1408 -0.0252  0.2381
15526TIP3    H168069   1.416   5.312   2.937  2.2699  0.9054 -0.0899
15526TIP3    H268070   1.460   5.413   2.833 -1.4250  0.7905 -1.8107
15527TIP3   OH268071   3.443   0.708  16.218 -0.2968  0.1099  0.0728
15527TIP3    H168072   3.438   0.613  16.231  2.2390 -0.2299 -1.1774
15527TIP3    H268073   3.408   0.721  16.129  0.1934  0.2467 -0.0972
15528TIP3   OH268074   1.578   4.031   4.139 -0.1314  0.1991  0.1779
15528TIP3    H168075   1.585   3.953   4.083 -0.2782 -0.1455  0.6323
15528TIP3    H268076   1.498   4.075   4.109 -0.1051  0.1200 -0.0100
15529TIP3   OH268077   5.068   4.312   1.651  0.2117 -0.1490 -0.3798
15529TIP3    H168078   5.000   4.345   1.593 -1.1157  0.4934  1.5051
15529TIP3    H268079   5.042   4.223   1.671 -1.0546  0.6510  1.7198
15530TIP3   OH268080   0.325   5.694  12.909  0.1147  0.1046 -0.1674
15530TIP3    H168081   0.241   5.737  12.894  0.7766  1.1263 -1.0574
15530TIP3    H268082   0.383   5.765  12.938  0.5141 -0.6956  1.0320
15531TIP3   OH268083   1.639   4.575   1.403 -0.5931 -0.0253  0.3287
15531TIP3    H168084   1.547   4.564   1.380 -0.2583 -1.6733 -0.3019
15531TIP3    H268085   1.672   4.486   1.411  1.5861  0.5045 -2.0867
15532TIP3   OH268086   3.049   2.301   5.004  0.2086 -0.1860 -0.0044
15532TIP3    H168087   3.088   2.345   4.929 -0.2667 -1.9051 -1.2927
15532TIP3    H268088   3.120   2.294   5.068  0.6973  1.0153 -0.3985
15533TIP3   OH268089   6.171   1.853  11.130  0.3949  0.2609 -0.0052
15533TIP3    H168090   6.171   1.943  11.160 -2.2421  1.0587 -2.2217
15533TIP3    H268091   6.199   1.859  11.038  2.5754 -1.4606  0.5032
15534TIP3   OH268092   5.615   5.793  13.153 -0.5962  0.0839 -0.6280
15534TIP3    H168093   5.553   5.761  13.088  1.0417 -1.6996 -1.3423
15534TIP3    H268094   5.617   5.725  13.220  1.0974 -0.2048 -0.9519
15535TIP3   OH268095   0.470   6.209  12.665 -0.1846 -0.0823  0.1733
15535TIP3    H168096   0.538   6.194  12.730  2.3252  1.1211 -2.0581
15535TIP3    H268097   0.491   6.295  12.628 -3.5712  0.8300  0.1350
15536TIP3   OH268098   1.316   1.684   4.294  0.4880  0.0197 -0.3813
15536TIP3    H168099   1.352   1.612   4.347 -0.3177  1.2524  1.9119
15536TIP3    H268100   1.223   1.665   4.288  0.5426  0.0086 -1.1743
15537TIP3   OH268101   1.131   2.685  17.236 -0.3493  0.2684 -0.3796
15537TIP3    H168102   1.053   2.688  17.181  0.5790 -0.9079 -1.7859
15537TIP3    H268103   1.167   2.774  17.232 -0.4663  0.2768 -1.4362
15538TIP3   OH268104   1.554   3.461   0.659  0.1019 -0.3495 -0.1657
15538TIP3    H168105   1.621   3.470   0.727  1.3818 -0.6490 -1.3702
15538TIP3    H268106   1.471   3.476   0.705  1.0555  1.0598  1.1407
15539TIP3   OH268107   1.080   5.319  12.355  0.6682  0.2559 -0.1556
15539TIP3    H168108   1.044   5.246  12.305 -0.8301 -0.4326  1.8802
15539TIP3    H268109   1.174   5.314  12.340  0.5346 -1.7430 -0.5165
15540TIP3   OH268110   4.064   3.262  15.566  0.2863 -0.9767  0.5482
15540TIP3    H168111   3.977   3.280  15.602 -0.1089  0.3602 -1.0188
15540TIP3    H268112   4.051   3.188  15.507 -0.1051  0.2336 -0.8948
15541TIP3   OH268113   0.507   3.802   0.542  0.6702 -0.7788  0.2581
15541TIP3    H168114   0.463   3.767   0.619  2.0247 -0.3187  1.2532
15541TIP3    H268115   0.574   3.738   0.520  1.0071 -0.3848  0.1214
15542TIP3   OH268116   6.411   5.106   4.658 -0.2518 -0.3845  0.1125
15542TIP3    H168117   6.403   5.011   4.652  1.0237 -0.4991  0.1834
15542TIP3    H268118   6.322   5.136   4.675 -1.1565 -1.3436 -2.6858
15543TIP3   OH268119   6.252   2.493   0.151 -0.6463 -0.6560 -0.2498
15543TIP3    H168120   6.337   2.456   0.124 -0.2259 -0.4998  0.8586
15543TIP3    H268121   6.191   2.420   0.141  0.0044 -1.3927  0.9734
15544TIP3   OH268122   2.887   0.246   0.262  0.1155 -0.0776 -0.1299
15544TIP3    H168123   2.970   0.294   0.255  0.1967 -0.1741  0.1668
15544TIP3    H268124   2.821   0.314   0.271  0.1993 -0.0103 -0.0164
15545TIP3   OH268125   5.536   4.198   0.132  0.7731  0.2888  0.1526
15545TIP3    H168126   5.597   4.235   0.196  0.5325 -0.2157  0.6754
15545TIP3    H268127   5.451   4.235   0.156  0.3626 -1.3533  1.2759
15546TIP3   OH268128   0.271   2.511   1.755  0.1473  0.2448  0.1725
15546TIP3    H168129   0.223   2.590   1.731  2.0874  1.1728 -0.8094
15546TIP3    H268130   0.316   2.534   1.836  0.1699 -0.0819  0.2511
15547TIP3   OH268131   0.961   5.627   0.516 -0.5158  0.0597  0.4103
15547TIP3    H168132   0.877   5.654   0.554  0.2541  1.6614  1.0275
15547TIP3    H268133   0.979   5.694   0.449 -0.1376 -0.7524 -0.3020
15548TIP3   OH268134   4.008   5.539  12.520  0.7864 -0.1327  0.8363
15548TIP3    H168135   4.103   5.539  12.511  0.6940 -0.2240 -0.1463
15548TIP3    H268136   3.982   5.448  12.507  0.5603 -0.1041  1.0759
15549TIP3   OH268137   5.300   5.442  16.667  0.4639 -0.7261 -0.2844
15549TIP3    H168138   5.365   5.373  16.678  0.3268 -0.8687 -0.3757
15549TIP3    H268139   5.272   5.463  16.757  0.4710 -0.8236 -0.2584
15550TIP3   OH268140   4.549   5.477   1.704 -0.0610  0.1608 -0.2112
15550TIP3    H168141   4.468   5.460   1.655  0.6580  2.6621 -2.3862
15550TIP3    H268142   4.580   5.560   1.669  2.3144  0.3065  2.1593
15551TIP3   OH268143   0.295   1.882  16.917  0.0048 -0.0082 -0.1332
15551TIP3    H168144   0.238   1.848  16.986 -0.3713  0.0713 -0.4013
15551TIP3    H268145   0.366   1.927  16.964 -0.2261  0.0089  0.2018
15552TIP3   OH268146   2.594   4.486   6.158  0.1491 -0.2692  0.1916
15552TIP3    H168147   2.568   4.405   6.203  0.8179 -0.3564  0.4276
15552TIP3    H268148   2.642   4.536   6.224  1.6641 -0.6560 -0.5748
15553TIP3   OH268149   0.623   0.660  16.597 -0.0875  0.0405 -0.2498
15553TIP3    H168150   0.562   0.600  16.554 -3.4676  2.2353  1.3131
15553TIP3    H268151   0.703   0.608  16.609 -1.8434 -3.1474 -1.6873
15554TIP3   OH268152   1.830   3.050  15.496  0.2001 -0.5085  0.0537
15554TIP3    H168153   1.811   3.033  15.588 -0.0129  0.7168  0.2418
15554TIP3    H268154   1.792   2.975  15.450 -0.8906 -0.4510  0.8352
15555TIP3   OH268155   6.107   0.699  12.244  0.3076 -0.2653  0.3368
15555TIP3    H168156   6.089   0.705  12.150  2.2010  1.5153  0.0360
15555TIP3    H268157   6.157   0.618  12.254  4.4211  1.9054 -1.0468
15556TIP3   OH268158   3.415   5.856  17.107  0.4099  0.2563 -0.1743
15556TIP3    H168159   3.329   5.813  17.108 -0.0930  1.2305  0.4098
15556TIP3    H268160   3.396   5.946  17.136  1.9336 -0.1120  2.0943
15557TIP3   OH268161   0.637   4.757   3.473 -0.4887  0.1617 -0.6057
15557TIP3    H168162   0.607   4.729   3.559 -0.9370  1.3270 -0.3686
15557TIP3    H268163   0.557   4.768   3.421 -0.3216  0.8923 -0.7170
15558TIP3   OH268164   6.756   4.371  15.416 -0.0171  0.0621  0.6015
15558TIP3    H168165   6.843   4.347  15.446 -0.0613  0.6809  1.2626
15558TIP3    H268166   6.700   4.298  15.442  0.4050 -0.6267 -0.3941
15559TIP3   OH268167   1.490   1.984   5.406  0.0407  1.1419 -0.4552
15559TIP3    H168168   1.437   2.002   5.329 -1.4233  0.1921  0.3075
15559TIP3    H268169   1.463   2.051   5.469 -0.9862  0.0501  0.2781
15560TIP3   OH268170   6.482   0.789   1.420  0.3945  0.2731 -0.2497
15560TIP3    H168171   6.529   0.725   1.367  0.5292  0.8348 -0.8170
15560TIP3    H268172   6.411   0.820   1.363  0.7477  1.1388 -0.2361
15561TIP3   OH268173   5.140   6.504   3.318  0.7788 -0.5266  0.1418
15561TIP3    H168174   5.166   6.472   3.232 -1.3920 -0.6431 -0.4947
15561TIP3    H268175   5.049   6.477   3.327  0.5773  0.6774  1.9141
15562TIP3   OH268176   5.136   1.668   3.762  0.8666 -0.1009  0.1871
15562TIP3    H168177   5.177   1.585   3.789  0.1562 -1.6752 -3.3522
15562TIP3    H268178   5.183   1.694   3.683 -0.5088  1.6356 -0.0977
15563TIP3   OH268179   1.830   6.718   1.581  0.6116  0.2063  0.8410
15563TIP3    H168180   1.908   6.724   1.525  0.5086  2.3425  0.8861
15563TIP3    H268181   1.762   6.766   1.533 -0.1089  0.1306  1.7671
15564TIP3   OH268182   2.663   5.179   5.102 -0.3811 -0.1254 -0.1168
15564TIP3    H168183   2.632   5.089   5.114 -0.6885  0.1085  0.8597
15564TIP3    H268184   2.585   5.229   5.078 -0.4633  0.1404  0.6889
15565TIP3   OH268185   4.969   4.796  11.532 -0.1224  0.0147  0.6471
15565TIP3    H168186   5.049   4.758  11.566  0.3986  1.4022  1.0043
15565TIP3    H268187   4.936   4.851  11.603 -0.2694  1.0930 -0.2315
15566TIP3   OH268188   4.710   1.037   0.190 -0.1560 -0.0716 -0.1336
15566TIP3    H168189   4.673   1.018   0.277  2.5334  1.3269  1.3903
15566TIP3    H268190   4.793   0.990   0.189 -0.1426 -0.0203 -1.9527
15567TIP3   OH268191   0.383   6.497  13.710 -0.2350  0.0851  0.4352
15567TIP3    H168192   0.306   6.455  13.672 -0.8114  0.4120  1.2312
15567TIP3    H268193   0.391   6.458  13.797  1.2315 -0.8551 -0.1092
15568TIP3   OH268194   0.911   4.685  14.046 -0.0244  0.1501 -0.4907
15568TIP3    H168195   0.971   4.756  14.025 -0.4058  0.3889 -0.7850
15568TIP3    H268196   0.831   4.729  14.076 -0.6862 -0.1175 -1.8250
15569TIP3   OH268197   3.039   3.143  15.011 -0.1946  0.2390  0.0373
15569TIP3    H168198   3.024   3.135  14.917  1.8433 -0.0773 -0.2893
15569TIP3    H268199   2.953   3.133  15.051 -0.5740 -3.7577 -1.5644
15570TIP3   OH268200   2.423   5.120   2.105  0.2389 -0.2148 -0.8630
15570TIP3    H168201   2.356   5.176   2.144  1.2297  0.7708 -0.5249
15570TIP3    H268202   2.377   5.040   2.080 -0.9143  0.1637  0.0108
15571TIP3   OH268203   3.470   5.515  11.554 -0.2726 -0.0607 -0.3490
15571TIP3    H168204   3.402   5.479  11.611 -0.0935 -0.8899 -0.6573
15571TIP3    H268205   3.480   5.450  11.484 -0.3416  0.8487 -1.2133
15572TIP3   OH268206   2.019   3.293  12.261 -0.8578 -0.4562 -0.8834
15572TIP3    H168207   2.071   3.343  12.324 -0.9238 -0.2323 -1.0090
15572TIP3    H268208   1.981   3.358  12.203 -1.2799 -0.6192 -0.7917
15573TIP3   OH268209   1.273   4.349   1.407  0.4513 -0.0008 -0.3999
15573TIP3    H168210   1.205   4.331   1.471  1.2196  0.2312  0.4949
15573TIP3    H268211   1.228   4.393   1.335 -0.4309 -0.3511 -0.0676
15574TIP3   OH268212   5.730   6.473   4.030 -0.0917 -0.4547 -0.1560
15574TIP3    H168213   5.749   6.456   4.122 -1.2347 -0.6334  0.0514
15574TIP3    H268214   5.795   6.421   3.982  2.2676  1.7623  0.5533
15575TIP3   OH268215   3.021   2.160   2.338 -0.0175 -0.0388 -0.1817
15575TIP3    H168216   3.109   2.153   2.375 -0.2496 -0.1063  0.3686
15575TIP3    H268217   2.979   2.077   2.361 -1.3177  1.2716  2.4873
15576TIP3   OH268218   4.551   4.936  16.164  0.5951 -0.0912 -0.0536
15576TIP3    H168219   4.611   4.971  16.098 -0.5391  0.4342 -0.8167
15576TIP3    H268220   4.562   4.841  16.158  0.3113 -0.0654 -1.2005
15577TIP3   OH268221   1.675   6.819  15.670  0.1563 -0.8185 -0.1028
15577TIP3    H168222   1.693   6.741  15.723 -3.1573 -0.3796  1.8189
15577TIP3    H268223   1.687   6.892  15.730  0.4492 -0.0263 -1.1178
15578TIP3   OH268224   4.407   5.280   3.371  0.2059  0.4867 -0.3960
15578TIP3    H168225   4.448   5.315   3.450 -1.3302 -1.7277  1.4488
15578TIP3    H268226   4.316   5.308   3.377  0.3473  1.2980 -1.9950
15579TIP3   OH268227   3.911   1.998   5.733  0.1657  0.5572  0.0538
15579TIP3    H168228   3.912   1.982   5.638  0.4919 -1.0764  0.3297
15579TIP3    H268229   3.865   1.923   5.770  0.3241  1.0347  1.2240
15580TIP3   OH268230   1.031   1.532   0.055 -0.4652  0.1554  0.5093
15580TIP3    H168231   1.117   1.520   0.095 -1.9125 -2.3490  3.0470
15580TIP3    H268232   1.013   1.626   0.067  0.9783  0.2851  1.9069
15581TIP3   OH268233   2.528   4.699  15.888  0.7472 -0.0657  0.1518
15581TIP3    H168234   2.614   4.701  15.929 -0.3521 -0.1460  2.5581
15581TIP3    H268235   2.481   4.629  15.934  0.0568 -1.4447 -2.5519
15582TIP3   OH268236   2.002   0.029  12.351  0.7094 -0.0394  0.8109
15582TIP3    H168237   2.008   0.105  12.294  0.9384 -1.0418 -0.5113
15582TIP3    H268238   1.927   0.048  12.408  1.4210  1.6410  1.2247
15583TIP3   OH268239   6.123   0.335  14.316 -0.9655 -0.4675 -0.2947
15583TIP3    H168240   6.092   0.290  14.395 -1.7928 -2.5670 -1.7809
15583TIP3    H268241   6.151   0.421  14.348 -0.5159 -1.5444  2.4144
15584TIP3   OH268242   4.510   6.093   1.894  0.3510 -0.2712 -0.5118
15584TIP3    H168243   4.505   6.073   1.800  2.3529 -0.8955 -0.5187
15584TIP3    H268244   4.600   6.122   1.907  0.6609 -2.0329  1.5568
15585TIP3   OH268245   6.531   2.563   4.582 -0.3503 -0.5265 -0.4542
15585TIP3    H168246   6.607   2.616   4.604  0.3348 -0.9144 -1.8157
15585TIP3    H268247   6.563   2.473   4.583 -1.5255 -0.9558  1.9323
15586TIP3   OH268248   2.394   4.802   0.637 -0.2365  0.2600  0.4568
15586TIP3    H168249   2.344   4.732   0.679 -0.1445 -0.2816 -0.3229
15586TIP3    H268250   2.347   4.818   0.555 -0.4688  1.3721  0.7904
15587TIP3   OH268251   4.052   1.042   1.180 -0.4488 -0.2338 -0.0661
15587TIP3    H168252   4.106   0.972   1.145 -0.1873 -0.4495  0.7768
15587TIP3    H268253   3.962   1.011   1.167 -0.3141 -1.3004  1.4943
15588TIP3   OH268254   0.851   5.419   4.664 -0.2794 -0.1774  0.1670
15588TIP3    H168255   0.930   5.423   4.718 -0.9889  0.6838  1.1376
15588TIP3    H268256   0.780   5.442   4.723 -0.9626  1.6361 -1.3187
15589TIP3   OH268257   1.163   3.142  16.866 -0.0881  0.5009  0.1858
15589TIP3    H168258   1.123   3.186  16.941 -0.6077  0.3714 -0.0063
15589TIP3    H268259   1.138   3.195  16.791 -0.9524 -0.2651 -0.0798
15590TIP3   OH268260   0.962   1.836   2.164 -0.2941 -0.4891  0.5255
15590TIP3    H168261   0.951   1.748   2.201  1.9658 -0.9869  0.0794
15590TIP3    H268262   1.056   1.846   2.153 -0.5252  2.0142  0.5687
15591TIP3   OH268263   0.977   4.639   6.590 -0.2973  0.3891 -0.0791
15591TIP3    H168264   1.047   4.701   6.569 -0.0943 -0.0402 -0.6971
15591TIP3    H268265   0.896   4.685   6.571 -0.1066 -0.2018 -2.4423
15592TIP3   OH268266   0.546   2.225   5.309  0.0681 -0.4385 -0.0661
15592TIP3    H168267   0.589   2.227   5.223 -0.6646 -0.4040 -0.4439
15592TIP3    H268268   0.463   2.271   5.294 -0.0082 -0.3232  0.6968
15593TIP3   OH268269   5.047   3.967  15.769 -0.3567 -0.4154 -0.0885
15593TIP3    H168270   4.973   3.963  15.708 -0.4473 -1.4842  0.0967
15593TIP3    H268271   5.051   3.881  15.809 -0.4846  0.3652  1.6593
15594TIP3   OH268272   0.197   2.653  15.111 -0.2227  0.4796 -0.0038
15594TIP3    H168273   0.154   2.633  15.028  0.2890 -2.3270  0.3622
15594TIP3    H268274   0.151   2.599  15.175  1.9064 -0.3726  0.8603
15595TIP3   OH268275   5.510   4.297   4.257  0.1608  0.2261 -0.2073
15595TIP3    H168276   5.605   4.286   4.258  0.1328 -0.1055 -0.8429
15595TIP3    H268277   5.490   4.347   4.337  0.9248  0.7884 -0.3689
15596TIP3   OH268278   1.677   4.022  10.955 -0.0774 -0.4357 -0.1278
15596TIP3    H168279   1.701   4.104  10.998  0.4139  0.3278 -1.8027
15596TIP3    H268280   1.615   4.048  10.887 -0.3956 -1.5293 -0.2640
15597TIP3   OH268281   3.441   0.023  12.575  0.3424 -0.0382  0.2749
15597TIP3    H168282   3.517  -0.019  12.533  1.1180  2.5622 -1.0366
15597TIP3    H268283   3.372   0.016  12.509  0.0854 -0.4582  0.5921
15598TIP3   OH268284   1.561   4.702  14.728 -0.7544 -0.3159 -0.1492
15598TIP3    H168285   1.559   4.775  14.666  1.7927 -1.3126 -1.5234
15598TIP3    H268286   1.573   4.743  14.814 -1.3479  0.9663 -0.6703
15599TIP3   OH268287   0.125   4.792  14.698  0.0262 -0.1219 -0.0874
15599TIP3    H168288   0.205   4.832  14.664  0.3508 -0.6840 -0.0084
15599TIP3    H268289   0.054   4.827  14.644  0.6254 -1.7293 -2.0078
15600TIP3   OH268290   5.173   4.420  13.114 -0.2532  0.2905 -0.2482
15600TIP3    H168291   5.211   4.409  13.027 -1.7532 -1.1439 -0.7560
15600TIP3    H268292   5.105   4.487  13.102 -0.9888 -0.4671 -0.3698
15601TIP3   OH268293   6.117   5.202   3.958 -0.4688 -0.8323 -0.1753
15601TIP3    H168294   6.037   5.193   4.010 -0.0349 -1.2216  0.4405
15601TIP3    H268295   6.149   5.289   3.979 -1.7643  0.0835 -1.9243
15602TIP3   OH268296   3.469   0.851   0.409  0.6525 -0.6776  0.7534
15602TIP3    H168297   3.437   0.940   0.426  0.5981 -0.6693  0.6114
15602TIP3    H268298   3.390   0.797   0.405  0.6198 -0.5760 -0.0787
15603TIP3   OH268299   3.331   4.906  14.565 -0.3661 -0.1118  0.6183
15603TIP3    H168300   3.254   4.873  14.609 -1.0635 -2.2408 -2.0372
15603TIP3    H268301   3.389   4.830  14.557  0.9626  0.8992  0.4367
15604TIP3   OH268302   1.879   4.652   5.811 -0.2112 -0.0588  0.4451
15604TIP3    H168303   1.970   4.640   5.785  0.0813  0.3692  1.2732
15604TIP3    H268304   1.869   4.601   5.891 -0.5285  0.4146  0.7105
15605TIP3   OH268305   0.159   5.439   4.504 -0.2528 -0.1718 -0.4209
15605TIP3    H168306   0.107   5.503   4.457 -3.1681 -2.4757 -0.4964
15605TIP3    H268307   0.174   5.369   4.440 -0.6482 -1.4166  0.8191
15606TIP3   OH268308   5.894   6.093   1.307  0.0305  0.1239  0.3840
15606TIP3    H168309   5.990   6.092   1.311 -0.0170  1.3103  2.1137
15606TIP3    H268310   5.869   6.006   1.337  0.5507 -0.2399 -0.2001
15607TIP3   OH268311   2.402   0.772  12.854  0.0720  0.0485  0.2147
15607TIP3    H168312   2.365   0.858  12.873 -1.9766  0.0642 -3.3713
15607TIP3    H268313   2.488   0.790  12.816  0.2999  0.4001  0.8818
15608TIP3   OH268314   0.031   2.594  14.069 -0.7303 -0.1609 -0.4473
15608TIP3    H168315  -0.021   2.522  14.034  0.8289 -1.8253  0.5792
15608TIP3    H268316   0.043   2.572  14.162  0.3607  1.0432 -0.2907
15609TIP3   OH268317   6.748   2.633   2.902  0.4228 -0.4071  0.8018
15609TIP3    H168318   6.676   2.683   2.941 -0.7245 -1.4051  0.0204
15609TIP3    H268319   6.709   2.547   2.883  1.8581 -0.9899  0.4712
15610TIP3   OH268320   3.417   0.509  17.105  0.8184  0.5503  0.2983
15610TIP3    H168321   3.466   0.483  17.183  0.0651 -1.4852  0.1370
15610TIP3    H268322   3.484   0.527  17.039  1.4155  0.3458  0.8513
15611TIP3   OH268323   3.623   5.324   6.205 -0.3859  0.2142 -0.3652
15611TIP3    H168324   3.675   5.327   6.125 -0.4178  1.0119 -0.3597
15611TIP3    H268325   3.566   5.248   6.194 -0.3460  0.2854 -1.0749
15612TIP3   OH268326   5.879   6.657  11.758  0.6734 -0.2926 -0.1075
15612TIP3    H168327   5.966   6.624  11.782  0.2799 -0.1853  1.4726
15612TIP3    H268328   5.847   6.594  11.693  1.8130 -0.4771 -0.5103
15613TIP3   OH268329   5.376   5.185  16.097  0.2912  0.0413  0.1444
15613TIP3    H168330   5.304   5.190  16.034 -0.5534  1.3753  1.2043
15613TIP3    H268331   5.455   5.194  16.043 -0.4615  2.5855 -0.6264
15614TIP3   OH268332   4.600   3.038   4.914 -0.0477 -0.0686 -0.3969
15614TIP3    H168333   4.612   3.003   5.002  0.6547  1.0030 -0.0566
15614TIP3    H268334   4.572   2.963   4.862  1.3484 -1.1288  0.3297
15615TIP3   OH268335   6.702   2.818   5.962  0.1048 -0.8477  0.6266
15615TIP3    H168336   6.627   2.848   6.014  1.0595  2.4933  0.1722
15615TIP3    H268337   6.752   2.763   6.022 -0.5806  0.2191  2.2145
15616TIP3   OH268338   4.316   2.703   5.708  0.4024  0.3106 -0.1416
15616TIP3    H168339   4.285   2.655   5.785  2.6151 -3.4939 -1.4734
15616TIP3    H268340   4.382   2.762   5.742  1.2063 -1.1832  0.9623
15617TIP3   OH268341   6.600   2.001  13.797 -0.2712 -0.6481  0.0172
15617TIP3    H168342   6.646   1.923  13.829  1.1828  1.1481  2.4815
15617TIP3    H268343   6.669   2.057  13.763 -1.1844  0.0789 -0.6527
15618TIP3   OH268344   2.672   3.332  11.947  0.0925 -0.7634 -0.8148
15618TIP3    H168345   2.673   3.406  12.008 -2.4022  1.0802 -2.9364
15618TIP3    H268346   2.765   3.314  11.931  0.7848 -0.2230  2.1941
15619TIP3   OH268347   0.717   1.455  11.071  0.1795 -0.1878 -0.5937
15619TIP3    H168348   0.730   1.509  10.993 -2.5856 -0.9180 -1.6180
15619TIP3    H268349   0.684   1.517  11.137  0.6349  0.0661 -0.6017
15620TIP3   OH268350   1.273   6.713   0.416 -0.3715  0.5152 -0.0502
15620TIP3    H168351   1.262   6.697   0.510 -0.9865  1.9786  0.1246
15620TIP3    H268352   1.198   6.670   0.375  1.2408 -2.3619 -0.1189
15621TIP3   OH268353   3.973   2.549   4.842  0.3480  0.4223  0.0411
15621TIP3    H168354   3.929   2.631   4.864  0.8682  1.0513 -1.2410
15621TIP3    H268355   4.062   2.559   4.876  0.0738 -0.1114  0.9611
15622TIP3   OH268356   4.837   3.756  14.724  0.2724  0.1956 -0.2008
15622TIP3    H168357   4.892   3.834  14.735 -1.7003  1.5243  0.3186
15622TIP3    H268358   4.829   3.746  14.629  0.3496  0.7429 -0.2666
15623TIP3   OH268359   4.754   5.566   3.376 -0.0206  0.0792 -0.2267
15623TIP3    H168360   4.675   5.549   3.324 -0.0254  2.8275 -1.2179
15623TIP3    H268361   4.768   5.486   3.426 -2.8705 -0.8184 -0.7827
15624TIP3   OH268362   1.198   1.619  13.055  0.4690 -0.2469  0.4991
15624TIP3    H168363   1.250   1.691  13.090  2.4237 -1.2076 -0.3079
15624TIP3    H268364   1.250   1.586  12.981 -0.6738 -2.0974  0.4864
15625TIP3   OH268365   5.597   1.957  16.703  0.3284  0.1179 -0.9836
15625TIP3    H168366   5.540   1.936  16.629  1.5854 -1.4040 -1.5663
15625TIP3    H268367   5.557   1.914  16.778  1.2782 -1.9045 -1.6021
15626TIP3   OH268368   5.016   3.071   6.235  0.6977  0.6117 -0.1553
15626TIP3    H168369   5.071   3.130   6.184  1.6160  0.6823  0.8907
15626TIP3    H268370   5.071   3.045   6.309 -0.3045 -0.1722  0.3304
15627TIP3   OH268371   5.085   4.304  14.663  0.2999  0.1584 -0.2737
15627TIP3    H168372   5.128   4.270  14.742  0.7538  2.3610  0.4644
15627TIP3    H268373   4.996   4.323  14.691  0.4717  0.9775 -0.2630
15628TIP3   OH268374   1.201   6.764   1.437 -0.2726  0.1733  0.1554
15628TIP3    H168375   1.278   6.731   1.392 -0.4550  0.1837 -0.1617
15628TIP3    H268376   1.192   6.855   1.407 -0.5730  0.0842 -0.0211
15629TIP3   OH268377   5.385   3.388   4.221 -0.4716  0.1220 -0.9091
15629TIP3    H168378   5.461   3.431   4.183 -1.0652  0.9944 -1.1101
15629TIP3    H268379   5.413   3.297   4.235  0.7109  0.5243 -0.6514
15630TIP3   OH268380   3.454   3.622   4.246  0.0421  0.4942 -0.1517
15630TIP3    H168381   3.486   3.556   4.308  0.1726  0.6347 -0.0685
15630TIP3    H268382   3.458   3.704   4.294 -1.1407  0.4067  0.0950
15631TIP3   OH268383   4.381   4.389  13.401  0.7237  0.1990 -0.3661
15631TIP3    H168384   4.454   4.421  13.454  2.4801 -1.1977 -1.8851
15631TIP3    H268385   4.386   4.294  13.410  0.2157  0.0164 -1.9699
15632TIP3   OH268386   1.717   1.593   0.477  0.3045  0.2174  0.5707
15632TIP3    H168387   1.786   1.658   0.489  0.6911  0.7827 -3.8673
15632TIP3    H268388   1.764   1.510   0.468  0.3771  0.4566 -1.4182
15633TIP3   OH268389   4.190   1.324   6.368  0.5310 -0.3479 -0.3246
15633TIP3    H168390   4.190   1.393   6.434  1.6044 -0.0097 -0.6720
15633TIP3    H268391   4.097   1.303   6.355  0.1999  1.0851 -0.2940
15634TIP3   OH268392   5.904   0.152   5.520 -0.0572  0.3286  0.6653
15634TIP3    H168393   5.967   0.091   5.556 -0.0123 -0.3878 -0.5963
15634TIP3    H268394   5.939   0.239   5.541  2.5393 -0.0096 -1.9484
15635TIP3   OH268395   2.464   0.798  15.458 -0.5688  0.4612 -0.2208
15635TIP3    H168396   2.544   0.826  15.502  0.1732 -1.1271 -0.5173
15635TIP3    H268397   2.404   0.777  15.529 -1.8244  4.5284  0.0324
15636TIP3   OH268398   4.329   4.725  12.080 -0.7082 -0.1941  0.1295
15636TIP3    H168399   4.298   4.792  12.141  1.3180  0.7406  0.1444
15636TIP3    H268400   4.397   4.679  12.128 -1.5861 -1.8109 -0.1486
15637TIP3   OH268401   6.100   6.818   2.278 -0.8977  0.0098 -0.0601
15637TIP3    H168402   6.049   6.782   2.351 -0.9105 -0.6994 -0.4093
15637TIP3    H268403   6.073   6.765   2.203  0.8414 -0.7976 -0.1236
15638TIP3   OH268404   6.328   1.516  11.932 -0.0370  0.1611  0.3861
15638TIP3    H168405   6.413   1.505  11.890 -0.5329 -0.9455 -0.3635
15638TIP3    H268406   6.303   1.606  11.914 -0.2905 -0.3209 -1.8238
15639TIP3   OH268407   6.630   2.810   1.965 -0.3748 -0.4571 -0.3371
15639TIP3    H168408   6.624   2.860   2.047  0.1489 -1.2059  0.1702
15639TIP3    H268409   6.614   2.874   1.896 -0.1381  0.3216  0.3258
15640TIP3   OH268410   5.076   4.702   1.176 -0.2240  0.1599 -0.4410
15640TIP3    H168411   5.125   4.624   1.148 -0.4708 -0.1553 -0.0018
15640TIP3    H268412   5.056   4.685   1.268  1.2339  1.5152  0.1543
15641TIP3   OH268413   2.751   4.311   3.752 -0.5312 -0.1158 -0.0097
15641TIP3    H168414   2.839   4.335   3.724 -1.0883  1.2976 -0.5784
15641TIP3    H268415   2.737   4.224   3.714  0.1627  0.1595 -0.9102
15642TIP3   OH268416   4.477   1.995  13.799  0.5153 -0.0241  0.4447
15642TIP3    H168417   4.404   2.043  13.762  0.5846 -0.7182 -0.6068
15642TIP3    H268418   4.438   1.942  13.868 -0.0788 -0.8489 -0.5158
15643TIP3   OH268419   6.048   0.262   5.781 -0.6044  0.2398  0.3754
15643TIP3    H168420   6.126   0.285   5.831  1.2175 -1.2916 -1.6910
15643TIP3    H268421   6.050   0.321   5.705 -0.3999 -1.0560 -0.6478
15644TIP3   OH268422   2.847   6.121  12.318 -0.0858  0.4645  0.2762
15644TIP3    H168423   2.903   6.129  12.395  0.9458  2.0337 -0.6242
15644TIP3    H268424   2.778   6.185  12.332 -0.6793 -0.2149  0.5267
15645TIP3   OH268425   2.097   6.319   5.201 -0.5851 -0.6373  0.2293
15645TIP3    H168426   2.016   6.356   5.167 -0.0805 -0.0728 -0.3941
15645TIP3    H268427   2.159   6.392   5.201  0.0185 -1.1361  0.3654
15646TIP3   OH268428   2.844   6.360  16.260  0.1043  0.4302  0.3088
15646TIP3    H168429   2.868   6.300  16.190 -1.2437 -0.1793  0.3443
15646TIP3    H268430   2.905   6.433  16.251  1.6986 -0.8680  0.1859
15647TIP3   OH268431   1.527   1.907   4.953  0.2298 -0.2585  0.3399
15647TIP3    H168432   1.548   1.999   4.936  0.6192 -0.6434 -1.3007
15647TIP3    H268433   1.554   1.892   5.044 -1.2486  1.6555  1.1427
15648TIP3   OH268434   5.652   5.621   4.023 -0.1015  0.1851 -1.0606
15648TIP3    H168435   5.636   5.542   3.972  0.4803  0.4117 -1.5975
15648TIP3    H268436   5.656   5.691   3.958 -1.5684  0.8092 -0.5048
15649TIP3   OH268437   4.102   3.282  11.718 -0.2742 -0.7445  0.0592
15649TIP3    H168438   4.019   3.268  11.763  0.4904  0.8229  2.0292
15649TIP3    H268439   4.099   3.373  11.689  0.4296 -0.9147 -0.5742
15650TIP3   OH268440   4.422   1.520  16.605  0.1370  0.4222 -0.0890
15650TIP3    H168441   4.334   1.486  16.620 -1.3069  3.0515 -2.1182
15650TIP3    H268442   4.431   1.522  16.510  1.7619  1.7469  0.0641
15651TIP3   OH268443   0.812   0.064  16.729 -0.1746  0.4939 -0.1200
15651TIP3    H168444   0.760   0.080  16.808 -0.2537  0.8585 -0.2460
15651TIP3    H268445   0.755   0.089  16.657  0.5176  1.8433 -0.2266
15652TIP3   OH268446   4.701   3.722   5.442 -0.4355 -0.0133  0.2837
15652TIP3    H168447   4.691   3.817   5.436 -0.4364 -0.0726 -0.7556
15652TIP3    H268448   4.793   3.706   5.422 -0.9982 -0.4232 -2.1871
15653TIP3   OH268449   6.603   1.955  11.797  0.4221  0.3515 -0.1816
15653TIP3    H168450   6.626   1.927  11.709 -0.4843 -0.2815 -0.2244
15653TIP3    H268451   6.513   1.924  11.809  0.0266  1.7128  0.4253
15654TIP3   OH268452   2.755   0.766  12.593 -0.2500  0.0966  0.3056
15654TIP3    H168453   2.764   0.854  12.557 -0.8108 -0.4077 -1.0952
15654TIP3    H268454   2.743   0.709  12.516  2.0796 -1.4736  1.0165
15655TIP3   OH268455   6.345   3.819   2.112  0.1744 -0.1061 -0.1437
15655TIP3    H168456   6.264   3.849   2.071  0.5375  1.7581  0.4410
15655TIP3    H268457   6.319   3.743   2.164 -1.4524  1.2122  1.0378
15656TIP3   OH268458   3.842   1.770  15.904  0.0433 -0.4457  0.3854
15656TIP3    H168459   3.926   1.776  15.858  0.2973 -1.6136  0.6686
15656TIP3    H268460   3.856   1.702  15.970 -1.1116 -0.6349  0.4432
15657TIP3   OH268461   3.793   1.216   2.754  0.3038 -0.4513 -0.1962
15657TIP3    H168462   3.874   1.247   2.793 -0.9695  1.2965  1.1492
15657TIP3    H268463   3.798   1.244   2.662  1.3736 -0.6960 -0.2117
15658TIP3   OH268464   6.750   2.218  16.869  0.0741  0.0203 -0.0760
15658TIP3    H168465   6.711   2.217  16.956 -2.3035 -0.9491 -1.1010
15658TIP3    H268466   6.794   2.133  16.862  0.7635  0.3391  0.3953
15659TIP3   OH268467   3.787   3.104  12.128  0.0859 -0.1036 -0.2798
15659TIP3    H168468   3.738   3.130  12.206 -0.3698 -0.9656 -0.2778
15659TIP3    H268469   3.762   3.168  12.061  1.4157  1.3811  0.6201
15660TIP3   OH268470   2.711   1.540   6.317  0.4487 -0.2914 -0.4464
15660TIP3    H168471   2.652   1.558   6.391 -1.9925 -2.9909 -1.6633
15660TIP3    H268472   2.743   1.451   6.333  0.8923 -0.4215 -2.0192
15661TIP3   OH268473   4.037   0.973  16.789 -0.3463 -0.0238  0.0087
15661TIP3    H168474   3.984   1.052  16.780 -1.3167 -0.6692 -0.0423
15661TIP3    H268475   3.973   0.902  16.797  0.4865 -0.4676  3.3237
15662TIP3   OH268476   3.435   0.778   1.560  0.3220 -0.1890 -0.6374
15662TIP3    H168477   3.499   0.720   1.519  1.5845  0.9857 -0.3950
15662TIP3    H268478   3.397   0.726   1.631 -0.8095 -1.7251 -2.3312
15663TIP3   OH268479   2.375   1.497   0.338  0.5059  0.1365 -0.1351
15663TIP3    H168480   2.354   1.571   0.282  1.6014  0.4610 -0.1188
15663TIP3    H268481   2.301   1.436   0.325 -0.0039  0.8708 -0.7455
15664TIP3   OH268482   5.736   2.473  15.199 -0.0558 -0.0631  0.5156
15664TIP3    H168483   5.797   2.400  15.209  0.6470  0.6781  1.7894
15664TIP3    H268484   5.785   2.549  15.232 -0.7764  0.9770 -0.7713
15665TIP3   OH268485   2.988   0.757  14.752  0.4078 -0.6334 -0.3472
15665TIP3    H168486   3.064   0.809  14.777  1.3038 -1.9487 -0.2490
15665TIP3    H268487   3.025   0.671  14.729 -1.0426 -1.2764 -0.3116
15666TIP3   OH268488   2.312   1.613   0.604 -0.4688 -0.3011 -0.1337
15666TIP3    H168489   2.342   1.623   0.514  1.1272 -1.3146  0.2767
15666TIP3    H268490   2.268   1.528   0.605 -2.5831  0.7379 -0.4943
15667TIP3   OH268491   4.578   2.764   4.907  0.2313  0.5661 -0.0153
15667TIP3    H168492   4.589   2.669   4.896 -0.5654  0.4985 -0.2024
15667TIP3    H268493   4.544   2.774   4.996  1.0705  0.7365  0.2962
15668TIP3   OH268494   4.515   4.465   5.267  0.2490 -0.2035  0.9895
15668TIP3    H168495   4.519   4.539   5.205  0.3152 -1.5979 -0.7045
15668TIP3    H268496   4.603   4.461   5.305  0.5611 -0.0782  0.2906
15669TIP3   OH268497   3.720   3.807  15.771 -0.6170  0.8250  0.6016
15669TIP3    H168498   3.740   3.789  15.679 -0.2891  3.3086  0.1627
15669TIP3    H268499   3.624   3.808  15.775 -0.6292  1.0361  0.2325
15670TIP3   OH268500   0.003   0.816  16.124 -0.1795 -0.4477 -0.0361
15670TIP3    H168501   0.090   0.778  16.112  0.0458  0.7650 -2.6856
15670TIP3    H268502  -0.042   0.756  16.183  1.9012 -1.9675  0.0627
15671TIP3   OH268503   3.190   1.227   6.570  0.0727  0.0383 -0.5287
15671TIP3    H168504   3.112   1.174   6.550 -0.3038  0.6613 -0.7293
15671TIP3    H268505   3.161   1.317   6.556  0.2753  0.3946  1.2258
15672TIP3   OH268506   1.464   0.332   5.885 -0.0570 -0.3140 -0.1935
15672TIP3    H168507   1.426   0.346   5.971  1.6939 -1.0679  0.7264
15672TIP3    H268508   1.506   0.415   5.863 -0.9485  0.0451 -0.5594
15673TIP3   OH268509   6.689   5.843   1.632 -0.0483  0.1149 -0.2632
15673TIP3    H168510   6.635   5.920   1.612  2.5298  1.7727 -1.1737
15673TIP3    H268511   6.709   5.805   1.547  0.5494 -0.2415  0.0324
15674TIP3   OH268512   0.944   3.983   2.390 -0.6856 -0.2305  0.6128
15674TIP3    H168513   1.015   3.936   2.347 -1.6307 -1.9242  0.8355
15674TIP3    H268514   0.939   4.067   2.345  0.3464 -0.7724 -0.5216
15675TIP3   OH268515   6.634   1.260   3.935 -0.7306  0.4032  0.1047
15675TIP3    H168516   6.583   1.179   3.941  0.3627 -0.4094 -1.2910
15675TIP3    H268517   6.593   1.310   3.865 -0.5925  0.4572  0.0615
15676TIP3   OH268518   2.078   5.418  13.016  0.4749  0.2507  0.9768
15676TIP3    H168519   2.110   5.508  13.027  0.5744  0.2892  0.4130
15676TIP3    H268520   2.158   5.365  13.014  0.4638  0.2505  0.4278
15677TIP3   OH268521   0.065   3.990   4.670  0.5576 -0.2651  0.1678
15677TIP3    H168522   0.068   4.030   4.757  2.7850 -0.3223  0.1479
15677TIP3    H268523   0.112   3.907   4.680 -0.3554 -0.9110 -0.7830
15678TIP3   OH268524   0.840   6.105   2.084 -0.2249 -0.5122  0.3306
15678TIP3    H168525   0.911   6.080   2.143  0.4127 -0.7396 -0.5302
15678TIP3    H268526   0.849   6.046   2.009 -1.7295 -0.9987  0.5102
15679TIP3   OH268527   2.254   5.893  12.396  0.1128 -0.0690  0.7549
15679TIP3    H168528   2.208   5.811  12.411  1.8308 -0.4383  4.3549
15679TIP3    H268529   2.339   5.866  12.359  0.2351  0.1761  0.8572
15680TIP3   OH268530   6.808   2.153  15.519  0.4674  0.8203  0.1295
15680TIP3    H168531   6.814   2.174  15.612 -1.1438 -0.6205  0.5686
15680TIP3    H268532   6.717   2.171  15.496  0.2300 -1.1837 -0.5683
15681TIP3   OH268533   3.300   2.711   4.969  0.3777  0.1852  0.4974
15681TIP3    H168534   3.207   2.732   4.975  0.4506  0.4580  0.6992
15681TIP3    H268535   3.343   2.796   4.960  0.6994  0.1438  1.5935
15682TIP3   OH268536   1.078   2.475   4.557 -0.7050  0.0270 -0.6051
15682TIP3    H168537   1.028   2.512   4.630 -0.4544  0.1562 -0.4969
15682TIP3    H268538   1.130   2.549   4.524 -1.2116  0.0923 -1.2515
15683TIP3   OH268539   0.429   0.105  15.447  0.6002  0.5425 -0.6348
15683TIP3    H168540   0.520   0.131  15.463  0.3019  0.2220  1.7738
15683TIP3    H268541   0.431   0.010  15.449 -0.1285  0.5589  1.5746
15684TIP3   OH268542   4.423   6.297  13.704  0.4670 -0.1543  0.5895
15684TIP3    H168543   4.354   6.231  13.703  0.7893 -0.4948  0.3588
15684TIP3    H268544   4.396   6.360  13.771 -1.4327  1.1751 -1.3378
15685TIP3   OH268545   3.941   3.778  12.230 -0.1645  0.7517 -0.0255
15685TIP3    H168546   3.925   3.776  12.136  2.5813  0.1843 -0.4959
15685TIP3    H268547   3.899   3.699  12.263 -0.5578  0.6077 -0.8500
15686TIP3   OH268548   5.790   6.592   4.296 -0.4967 -0.2019 -0.3022
15686TIP3    H168549   5.784   6.685   4.274 -1.4083  0.3584  2.0827
15686TIP3    H268550   5.883   6.577   4.310 -0.4407  0.6141  0.2721
15687TIP3   OH268551   5.796   5.333   4.829  0.7674 -0.2428  0.1843
15687TIP3    H168552   5.858   5.404   4.809  1.0743 -0.2397  1.1121
15687TIP3    H268553   5.742   5.369   4.899  1.2725 -1.1220  1.0245
15688TIP3   OH268554   0.162   0.278  17.198  0.0448  0.1941  0.1206
15688TIP3    H168555   0.185   0.317  17.113 -1.6004  0.4498 -0.2086
15688TIP3    H268556   0.145   0.353  17.255  2.8954  0.0802  1.2165
15689TIP3   OH268557   6.814   1.814   0.651  0.2703  0.6085 -0.2513
15689TIP3    H168558   6.850   1.792   0.737  1.6285 -0.9628 -1.1620
15689TIP3    H268559   6.828   1.734   0.599 -0.2425  1.6288 -1.9999
15690TIP3   OH268560   4.860   0.639  14.647 -0.1904  0.6475  0.1158
15690TIP3    H168561   4.944   0.641  14.601  0.7353 -0.3408  1.7267
15690TIP3    H268562   4.801   0.593  14.587  1.2460 -1.4568  0.2745
15691TIP3   OH268563   5.062   3.977  16.977  0.1175 -0.7306 -0.3522
15691TIP3    H168564   5.087   3.990  16.886 -0.0674 -0.2131 -0.3271
15691TIP3    H268565   4.972   3.946  16.973  0.2639 -1.1678 -0.3645
15692TIP3   OH268566   6.112   6.635   0.729  0.0380 -0.0101  0.2282
15692TIP3    H168567   6.161   6.658   0.650  0.7958  0.5607  0.8565
15692TIP3    H268568   6.121   6.539   0.735  2.1561  0.1931  0.9962
15693TIP3   OH268569   3.679   2.359  16.823  0.0856 -0.5420 -0.1377
15693TIP3    H168570   3.640   2.365  16.910  0.3017 -0.9087 -0.0127
15693TIP3    H268571   3.612   2.392  16.764  0.5634  1.3194  0.3403
15694TIP3   OH268572   5.984   3.998  12.583 -0.0791  0.1924  0.0590
15694TIP3    H168573   5.944   3.916  12.611  1.6144 -0.9042 -0.6668
15694TIP3    H268574   6.032   4.028  12.660 -1.1071  0.7942  0.4858
15695TIP3   OH268575   6.075   1.004   4.631  0.7975  0.3934 -0.2653
15695TIP3    H168576   6.105   0.972   4.546  0.1520 -0.5386 -0.1495
15695TIP3    H268577   6.086   0.930   4.690  0.2735  0.7131  0.2424
15696TIP3   OH268578   0.677   0.397   1.245  0.0600  0.1571  0.3657
15696TIP3    H168579   0.704   0.379   1.336  0.0622  0.8030  0.4933
15696TIP3    H268580   0.618   0.325   1.224  1.8655 -1.2892  0.0829
15697TIP3   OH268581   1.401   0.958   2.398 -0.0496  0.2565 -0.3365
15697TIP3    H168582   1.407   0.929   2.307  0.5462  1.1127 -0.5802
15697TIP3    H268583   1.364   1.046   2.393  0.4592  0.5063  0.2140
15698TIP3   OH268584   1.679   6.489  13.240  0.3884 -0.1643 -0.2349
15698TIP3    H168585   1.733   6.461  13.314  0.5178  1.1695  0.2024
15698TIP3    H268586   1.589   6.470  13.268  0.3853  0.9572  0.5721
15699TIP3   OH268587   3.802   5.952   2.277 -0.0708  0.4862 -0.5562
15699TIP3    H168588   3.859   5.880   2.303 -1.3512  0.0576  1.1625
15699TIP3    H268589   3.823   6.022   2.339  0.7454  1.4133 -1.8453
15700TIP3   OH268590   6.214   2.665   1.515 -0.0764 -0.5189 -0.2996
15700TIP3    H168591   6.176   2.732   1.571 -0.4344 -0.2098 -0.9158
15700TIP3    H268592   6.278   2.711   1.461  3.3987 -1.4740  2.7299
15701TIP3   OH268593   1.719   6.598  14.807 -0.7056 -0.8272 -0.6979
15701TIP3    H168594   1.640   6.575  14.856 -0.0865  0.7870  1.0995
15701TIP3    H268595   1.686   6.634  14.725 -1.8003 -1.6711 -0.6418
15702TIP3   OH268596   1.396   3.585  16.157 -0.0517 -0.1645 -0.4262
15702TIP3    H168597   1.355   3.547  16.234 -0.3132  0.7191 -0.1220
15702TIP3    H268598   1.323   3.621  16.106  0.2810  0.9904 -0.1157
15703TIP3   OH268599   1.042   5.331   6.242 -0.6103  0.0164  0.2511
15703TIP3    H168600   0.983   5.334   6.167  0.5322  1.3775 -0.6195
15703TIP3    H268601   1.034   5.417   6.283  1.2840  0.4966 -0.3116
15704TIP3   OH268602   4.159   0.002  11.464 -0.5500  0.4630  0.1660
15704TIP3    H168603   4.210   0.066  11.514 -1.3300 -0.2979  1.9840
15704TIP3    H268604   4.111   0.055  11.400 -0.3185  1.5693  0.8915
15705TIP3   OH268605   2.410   3.543  14.123 -0.2249  0.6339 -0.2001
15705TIP3    H168606   2.494   3.588  14.111  0.9107 -1.2735  0.2958
15705TIP3    H268607   2.421   3.494  14.205 -1.6369 -0.0211 -0.3884
15706TIP3   OH268608   4.585   2.701  11.951 -0.1414 -0.4637  0.5366
15706TIP3    H168609   4.505   2.650  11.939  0.0459 -0.1905 -2.1365
15706TIP3    H268610   4.646   2.641  11.993 -1.4130 -0.9794  1.6731
15707TIP3   OH268611   0.288   3.646  15.739 -0.0793  0.8320 -0.1266
15707TIP3    H168612   0.223   3.627  15.671 -0.9248  3.0745  0.0185
15707TIP3    H268613   0.320   3.733  15.717  2.6761 -0.1199 -0.0040
15708TIP3   OH268614   4.608   1.185  14.464  0.4855  0.2029  0.0552
15708TIP3    H168615   4.658   1.209  14.387  0.9821  0.1984  0.3764
15708TIP3    H268616   4.648   1.104  14.495  0.7620  0.6036  0.7507
15709TIP3   OH268617   1.961   2.038  12.593  0.2788  0.1395 -0.2537
15709TIP3    H168618   2.040   2.023  12.645 -0.2128  2.5334  1.2593
15709TIP3    H268619   1.969   2.129  12.565 -1.0452 -0.1799 -1.6804
15710TIP3   OH268620   5.990   4.890  11.263 -0.2242  0.2037  0.2775
15710TIP3    H168621   5.945   4.950  11.203 -1.5155 -1.0237 -0.0211
15710TIP3    H268622   5.925   4.872  11.331  2.0259  3.4633  3.4432
15711TIP3   OH268623   6.377   3.830  15.116  0.1014  0.1520  0.2965
15711TIP3    H168624   6.341   3.754  15.164 -1.3336 -0.1140 -1.1675
15711TIP3    H268625   6.421   3.791  15.040 -2.0491  0.8614 -1.3407
15712TIP3   OH268626   4.732   4.407  10.835 -0.1725 -0.2968 -0.4823
15712TIP3    H168627   4.760   4.390  10.925 -0.2306  0.2288 -0.3640
15712TIP3    H268628   4.731   4.320  10.793  0.9409 -0.4020 -0.2948
15713TIP3   OH268629   0.430   0.446   4.793  0.0928 -0.4683  0.0342
15713TIP3    H168630   0.350   0.395   4.776  0.8304 -1.6309  0.0119
15713TIP3    H268631   0.491   0.383   4.829  0.8359  0.5426  0.5623
15714TIP3   OH268632   5.632   2.363  14.532 -0.4821  0.2468 -0.0066
15714TIP3    H168633   5.701   2.316  14.579 -0.3265  3.0928  2.7664
15714TIP3    H268634   5.677   2.406  14.459  0.0577 -0.5317 -0.1447
15715TIP3   OH268635   4.158   0.788  12.112  0.0290 -0.2524 -0.2064
15715TIP3    H168636   4.106   0.709  12.100 -1.3424  0.2502  2.1116
15715TIP3    H268637   4.094   0.857  12.131  1.4486  0.3237  2.9456
15716TIP3   OH268638   2.818   5.694  12.551  0.4066 -0.1494 -0.0274
15716TIP3    H168639   2.907   5.670  12.576  0.2677 -0.3795  0.2623
15716TIP3    H268640   2.763   5.643  12.611  0.0047 -2.6276 -2.4042
15717TIP3   OH268641   2.619   4.054  15.682 -0.7460  0.0661  0.2863
15717TIP3    H168642   2.640   3.987  15.617  0.3640 -0.0989  0.8013
15717TIP3    H268643   2.564   4.009  15.746 -0.4395 -0.2212  0.3517
15718TIP3   OH268644   1.425   0.903   0.434  0.5904 -0.4711  0.0710
15718TIP3    H168645   1.388   0.836   0.375 -0.0253 -0.4315  0.4148
15718TIP3    H268646   1.493   0.945   0.381 -0.8152  0.4333 -1.0703
15719TIP3   OH268647   1.901   5.424   5.685  0.1317  0.1380 -0.1238
15719TIP3    H168648   1.880   5.411   5.592  1.8119 -0.7420 -0.4123
15719TIP3    H268649   1.956   5.348   5.707  1.1669  1.2368  1.1273
15720TIP3   OH268650   0.093   2.151   0.630  0.5297 -0.6137  0.4240
15720TIP3    H168651   0.109   2.129   0.722 -1.8756 -2.8719  0.3559
15720TIP3    H268652   0.145   2.230   0.615  0.7249 -0.0164  3.8171
15721TIP3   OH268653   1.340   1.307   4.191 -0.2101 -0.0179 -0.5771
15721TIP3    H168654   1.433   1.330   4.193 -0.3530  0.5430 -0.3687
15721TIP3    H268655   1.331   1.252   4.112 -0.1223  1.7840 -1.8723
15722TIP3   OH268656   5.788   0.589  11.903  0.1311 -0.7218 -0.1901
15722TIP3    H168657   5.711   0.545  11.939 -0.2053  0.8789  1.0844
15722TIP3    H268658   5.820   0.529  11.836 -1.5399 -1.9468  0.0682
15723TIP3   OH268659   0.298   2.391  12.758 -0.0562 -0.2385  0.2001
15723TIP3    H168660   0.241   2.436  12.695 -1.4149  0.3271  1.7790
15723TIP3    H268661   0.386   2.407  12.726 -0.7090  0.3092 -1.3869
15724TIP3   OH268662   0.478   2.338   3.074  0.2148  0.8360 -0.0317
15724TIP3    H168663   0.409   2.344   3.007  1.7349  2.4721 -1.5053
15724TIP3    H268664   0.457   2.407   3.136  0.4596  1.2721 -0.4299
15725TIP3   OH268665   6.377   1.002  10.838 -0.4224  0.0424 -0.0093
15725TIP3    H168666   6.362   0.992  10.744  0.9674 -2.5208  0.0068
15725TIP3    H268667   6.394   0.913  10.870  2.2966  1.2347  2.1007
15726TIP3   OH268668   5.963   3.820   0.454  0.0445 -0.2951  0.2134
15726TIP3    H168669   6.012   3.796   0.532 -0.5358 -0.6715  0.4716
15726TIP3    H268670   5.960   3.740   0.402 -0.3041 -0.2854  0.2133
15727TIP3   OH268671   0.225   0.265  11.260 -0.0496 -0.3645  0.0228
15727TIP3    H168672   0.282   0.337  11.235 -1.0276 -0.4359 -2.5290
15727TIP3    H268673   0.158   0.305  11.315  0.4555  0.3442  0.1162
15728TIP3   OH268674   4.519   6.322  12.711  0.8193  0.4505 -0.3371
15728TIP3    H168675   4.470   6.327  12.629  1.3893 -0.5865 -0.7535
15728TIP3    H268676   4.496   6.236  12.747 -1.3853  1.8977  1.8667
15729TIP3   OH268677   0.798   4.959  12.635  0.0812  0.1425  0.1726
15729TIP3    H168678   0.833   4.909  12.708 -0.6479 -1.8285 -0.7768
15729TIP3    H268679   0.708   4.928  12.626 -0.1262  1.0306 -0.9568
15730TIP3   OH268680   1.312   4.313   5.554 -0.0600 -0.1867 -0.0911
15730TIP3    H168681   1.363   4.385   5.518 -0.8697  0.7560  0.6342
15730TIP3    H268682   1.328   4.317   5.648 -0.8560 -0.3622  0.0563
15731TIP3   OH268683   0.319   1.244   1.239 -0.1762 -0.0337  0.2573
15731TIP3    H168684   0.253   1.175   1.249 -1.2739  0.2827 -3.7436
15731TIP3    H268685   0.277   1.322   1.276 -0.3903 -0.6921  1.4425
15732TIP3   OH268686   6.382   5.978   6.007  0.0848 -0.3720  0.0845
15732TIP3    H168687   6.443   5.905   5.995 -0.1725 -1.0493  2.6769
15732TIP3    H268688   6.358   5.975   6.099 -0.5425  2.5322  0.0652
15733TIP3   OH268689   5.265   5.394   4.677 -0.7454 -0.0847 -0.5363
15733TIP3    H168690   5.234   5.456   4.743 -2.3870  0.1929 -1.5575
15733TIP3    H268691   5.265   5.310   4.723 -0.5756  0.3221  0.2233
15734TIP3   OH268692   1.042   1.003  11.550 -0.1708 -0.1682  0.4733
15734TIP3    H168693   1.040   1.072  11.617 -1.0573  0.3230 -0.0552
15734TIP3    H268694   0.998   0.929  11.591  0.2512 -0.2308  0.8223
15735TIP3   OH268695   5.751   2.919   0.781  0.1670  0.0202 -0.0675
15735TIP3    H168696   5.670   2.869   0.769 -0.1968  0.3299  0.9962
15735TIP3    H268697   5.762   2.924   0.876  1.1841  0.3955 -0.1906
15736TIP3   OH268698   1.059   5.935   5.672 -0.3329  0.2843  0.2848
15736TIP3    H168699   1.151   5.944   5.647 -0.7118 -1.1660 -1.7520
15736TIP3    H268700   1.020   6.020   5.650  0.3221  0.5875  0.2854
15737TIP3   OH268701   2.055   4.671   2.672 -0.3916 -0.0363  0.1453
15737TIP3    H168702   1.965   4.648   2.648 -0.5254 -0.5377  1.0861
15737TIP3    H268703   2.062   4.648   2.765  0.7896 -0.2419  0.0178
15738TIP3   OH268704   4.089   2.493   1.201  0.0509  0.1135 -0.6877
15738TIP3    H168705   4.049   2.580   1.199  1.6203  0.8755  0.1126
15738TIP3    H268706   4.067   2.458   1.287 -2.5855 -1.2744 -1.8891
15739TIP3   OH268707   5.871   6.250  14.689  0.1608 -0.3179  0.2861
15739TIP3    H168708   5.840   6.184  14.750  1.5239  0.3930  1.8027
15739TIP3    H268709   5.944   6.208  14.643 -0.3320 -0.5758 -0.2597
15740TIP3   OH268710   6.607   3.774  16.507 -0.1727  0.1145 -0.5213
15740TIP3    H168711   6.555   3.795  16.585  0.1347 -1.9815  0.3003
15740TIP3    H268712   6.587   3.682  16.490  0.4748  0.3068 -2.3776
15741TIP3   OH268713   5.180   5.583   4.833  0.0249 -0.1009  0.1577
15741TIP3    H168714   5.245   5.638   4.879 -0.3900 -0.3485  1.0467
15741TIP3    H268715   5.133   5.539   4.903  1.3303 -2.7452 -0.5819
15742TIP3   OH268716   1.138   0.039  13.917  0.3868  0.6686 -0.2205
15742TIP3    H168717   1.048   0.066  13.939 -0.4398 -1.5087 -0.8057
15742TIP3    H268718   1.131   0.003  13.829  1.8635  0.5152 -0.2822
15743TIP3   OH268719   0.419   3.647  12.280  0.4993 -0.1883 -0.1891
15743TIP3    H168720   0.481   3.708  12.239  1.3186 -1.5943 -1.0580
15743TIP3    H268721   0.427   3.567  12.229 -2.6950 -0.1356 -0.8679
15744TIP3   OH268722   3.723   5.782   4.714 -0.1338  0.2496  0.1311
15744TIP3    H168723   3.788   5.775   4.644  0.5148 -1.3222  0.8633
15744TIP3    H268724   3.638   5.779   4.670  0.2798  2.4884 -0.8502
15745TIP3   OH268725   4.813   0.493   1.035  0.3705  1.0419  0.4148
15745TIP3    H168726   4.781   0.404   1.054  0.0835  1.1568  0.4609
15745TIP3    H268727   4.772   0.548   1.102  0.5709  1.2083  0.4033
15746TIP3   OH268728   0.666   3.679   2.628 -0.2700 -0.2973  0.1248
15746TIP3    H168729   0.737   3.706   2.687  0.0235 -1.6495  0.4081
15746TIP3    H268730   0.693   3.712   2.542  0.6661 -0.7186  0.2492
15747TIP3   OH268731   2.291   5.402   0.500 -0.0804 -0.0462  0.6951
15747TIP3    H168732   2.356   5.471   0.484 -0.2168 -0.1877 -0.4799
15747TIP3    H268733   2.329   5.351   0.572  2.2087 -1.4911 -1.4635
15748TIP3   OH268734   5.353   6.466  14.501  0.2186 -0.1893 -0.6719
15748TIP3    H168735   5.344   6.503  14.413  0.8130 -0.5643 -0.8901
15748TIP3    H268736   5.269   6.422  14.517 -0.4587  1.1492 -0.4550
15749TIP3   OH268737   0.990   4.682  11.819  0.0064  0.2436 -0.1599
15749TIP3    H168738   1.027   4.769  11.804 -1.2058  0.8160  0.0919
15749TIP3    H268739   1.038   4.625  11.760  0.5921  1.1445 -0.5632
15750TIP3   OH268740   4.218   3.686   5.585  0.6263 -0.4746  0.3582
15750TIP3    H168741   4.212   3.772   5.627 -0.8906 -0.5980  0.4504
15750TIP3    H268742   4.225   3.624   5.658  0.1848 -0.5258  0.3630
15751TIP3   OH268743   2.312   1.913   1.945 -0.4548 -0.4983  0.1011
15751TIP3    H168744   2.301   1.933   2.037  0.1684 -2.4148  0.6142
15751TIP3    H268745   2.364   1.986   1.910 -1.4677  0.6912  1.0484
15752TIP3   OH268746   6.654   5.223   5.080  0.1834 -0.7480  0.1212
15752TIP3    H168747   6.642   5.168   5.157  0.7986 -0.4232  0.4531
15752TIP3    H268748   6.634   5.166   5.006  1.5650 -1.6456  0.4197
15753TIP3   OH268749   0.563   5.142   3.375 -0.1642 -0.6624 -0.0769
15753TIP3    H168750   0.536   5.232   3.356 -0.9330 -0.4438  1.9116
15753TIP3    H268751   0.488   5.104   3.421  0.6919 -1.8909  0.3290
15754TIP3   OH268752   3.625   4.220  12.426  0.2299  0.3540 -0.2505
15754TIP3    H168753   3.689   4.190  12.490 -0.1795 -0.4049 -0.1869
15754TIP3    H268754   3.674   4.277  12.367  0.7068  0.6746  0.4600
15755TIP3   OH268755   1.522   0.740  12.585 -0.4006  0.3361 -0.2654
15755TIP3    H168756   1.600   0.774  12.542  0.7776 -0.3073  1.2928
15755TIP3    H268757   1.450   0.789  12.547  0.6668  0.3315 -2.3748
15756TIP3   OH268758   6.604   5.027   3.391  0.3312  0.2929  0.6941
15756TIP3    H168759   6.640   4.991   3.472  1.5501 -0.4535 -0.1794
15756TIP3    H268760   6.564   4.952   3.346  0.0336  0.6275  0.3879
15757TIP3   OH268761   0.510   3.151   4.509 -0.0593 -0.3273 -0.0368
15757TIP3    H168762   0.571   3.213   4.550  0.7698 -2.3073  1.8175
15757TIP3    H268763   0.543   3.141   4.419  0.5761  0.8799  0.0468
15758TIP3   OH268764   0.377   5.574  13.298  0.2937 -0.2459 -0.2179
15758TIP3    H168765   0.326   5.639  13.251 -0.2303 -0.7143 -0.3124
15758TIP3    H268766   0.456   5.620  13.326  0.2696  0.2291 -0.9194
15759TIP3   OH268767   5.122   4.111  10.648  0.3630 -0.1500  0.1138
15759TIP3    H168768   5.184   4.176  10.682  1.5953 -0.5708 -1.2513
15759TIP3    H268769   5.168   4.027  10.655 -0.1631 -0.5105 -0.6400
15760TIP3   OH268770   4.038   2.451  16.025  0.1762  0.1170  0.6360
15760TIP3    H168771   4.074   2.532  16.062  0.8972  0.6983 -1.2753
15760TIP3    H268772   4.006   2.402  16.101  2.2658  0.9287  2.0906
15761TIP3   OH268773   0.476   3.991  17.119  0.0853  0.4806  0.0341
15761TIP3    H168774   0.449   3.913  17.070 -2.3840  0.7218  0.8873
15761TIP3    H268775   0.514   3.956  17.200 -0.9487  0.1262  0.3834
15762TIP3   OH268776   5.409   2.022   3.990 -0.1299 -0.5181  0.1479
15762TIP3    H168777   5.345   2.033   3.920  0.7620 -0.8669 -0.7396
15762TIP3    H268778   5.483   1.977   3.948  0.8572  0.2159  1.0598
15763TIP3   OH268779   2.671   4.328  17.270 -0.3913 -0.3814 -0.4763
15763TIP3    H168780   2.667   4.277  17.351 -0.5130 -0.0168 -0.2491
15763TIP3    H268781   2.765   4.331  17.248 -0.3054 -0.0328 -0.0577
15764TIP3   OH268782   5.412   5.231   2.651  0.6619  0.1433 -0.0623
15764TIP3    H168783   5.414   5.136   2.661  0.2906  0.0583 -0.7290
15764TIP3    H268784   5.387   5.264   2.737 -0.2895 -0.4268 -0.1111
15765TIP3   OH268785   6.312   2.720   4.668  0.5788  0.5211  0.1233
15765TIP3    H168786   6.388   2.670   4.639  0.8551  0.7351  0.4786
15765TIP3    H268787   6.316   2.717   4.763 -1.4573 -1.8769  0.1747
15766TIP3   OH268788   3.407   0.929   5.750 -0.6694 -0.7399 -0.5004
15766TIP3    H168789   3.328   0.943   5.802  0.3833  0.2857  0.8404
15766TIP3    H268790   3.445   0.848   5.786 -1.0505 -1.1953 -1.0996
15767TIP3   OH268791   2.835   5.706   0.842  0.3898 -0.1839  0.0760
15767TIP3    H168792   2.919   5.677   0.808  1.3883  2.0000  0.5761
15767TIP3    H268793   2.836   5.680   0.934  0.8722  0.5297  0.2791
15768TIP3   OH268794   6.533   3.405   5.302  0.3469 -0.4967 -0.0210
15768TIP3    H168795   6.566   3.471   5.363  0.6171  1.3695 -2.1013
15768TIP3    H268796   6.609   3.382   5.249 -0.7272  0.8546 -2.2183
15769TIP3   OH268797   5.259   4.495   1.360 -0.3811 -0.2399 -0.1010
15769TIP3    H168798   5.262   4.475   1.267 -0.2865 -0.4843 -0.0456
15769TIP3    H268799   5.260   4.410   1.403  0.5477 -0.1049  0.1455
15770TIP3   OH268800   1.686   0.953  15.252  0.0787  0.3619  0.4858
15770TIP3    H168801   1.627   1.026  15.234 -0.2052  0.0538  0.1515
15770TIP3    H268802   1.742   0.947  15.175 -0.2798 -0.1345  0.2568
15771TIP3   OH268803   3.625   1.768  16.272 -0.0904  0.3014  0.7083
15771TIP3    H168804   3.566   1.733  16.338 -0.0628  0.8713  1.0344
15771TIP3    H268805   3.638   1.860  16.296  0.0765  0.4657  0.0290
15772TIP3   OH268806   4.323   3.268  11.280  0.0426  0.2964 -0.6590
15772TIP3    H168807   4.366   3.242  11.361  0.8880  1.2829 -0.7849
15772TIP3    H268808   4.265   3.194  11.259 -1.4376  0.7265  1.6974
15773TIP3   OH268809   0.459   4.320  16.345  0.1185 -0.3266  0.3156
15773TIP3    H168810   0.416   4.402  16.371 -0.1840 -0.6891  0.9949
15773TIP3    H268811   0.544   4.322  16.390  0.4174 -0.0403 -0.2704
15774TIP3   OH268812   1.781   6.349  15.128 -0.0090  0.5765 -0.6381
15774TIP3    H168813   1.704   6.367  15.183 -0.5503 -0.4126 -1.0647
15774TIP3    H268814   1.856   6.366  15.185 -0.5582  0.2947  0.1759
15775TIP3   OH268815   4.192   1.410   0.605  0.5124  0.0250  0.0187
15775TIP3    H168816   4.214   1.331   0.654 -1.9547 -1.4099 -1.1056
15775TIP3    H268817   4.186   1.478   0.672 -0.2045 -1.3601  1.4120
15776TIP3   OH268818   5.166   2.239   1.596  0.5925 -0.0334 -0.0325
15776TIP3    H168819   5.249   2.258   1.641  0.9467 -2.1568  0.2824
15776TIP3    H268820   5.099   2.252   1.663  0.7798  0.5320  0.0481
15777TIP3   OH268821   4.882   3.907   3.906  0.1652  0.4263  0.2707
15777TIP3    H168822   4.832   3.880   3.983 -0.3324  1.1744  0.2199
15777TIP3    H268823   4.973   3.913   3.937  0.1172 -0.2319  0.5443
15778TIP3   OH268824   6.404   4.413  13.698  0.2735 -0.0046 -0.4748
15778TIP3    H168825   6.314   4.383  13.713  0.0466  0.3374 -1.0974
15778TIP3    H268826   6.438   4.432  13.785 -1.3765  2.9990 -0.4018
15779TIP3   OH268827   6.478   5.251  15.958 -0.0070 -0.5011  0.2182
15779TIP3    H168828   6.444   5.299  16.033 -0.0323  1.6041 -1.1006
15779TIP3    H268829   6.400   5.214  15.915 -0.1433 -0.2511  0.2506
15780TIP3   OH268830   0.311   5.990   2.092  0.4510  0.1220  0.3884
15780TIP3    H168831   0.351   6.076   2.108  0.9960  0.0936 -0.8106
15780TIP3    H268832   0.385   5.932   2.075 -0.0133 -0.2136 -0.4949
15781TIP3   OH268833   2.404   1.938  16.348 -0.2076 -0.4553 -0.2286
15781TIP3    H168834   2.340   1.869  16.368 -0.6941 -0.4115 -1.5587
15781TIP3    H268835   2.393   2.002  16.418 -4.2548  1.3908 -2.3438
15782TIP3   OH268836   4.240   6.672   4.577 -0.2407  0.0461 -0.5539
15782TIP3    H168837   4.302   6.624   4.522 -0.5533 -1.7188  0.5769
15782TIP3    H268838   4.284   6.681   4.661 -0.3224  1.4813 -0.6489
15783TIP3   OH268839   3.218   2.517  16.182 -0.1572  0.2265 -0.2980
15783TIP3    H168840   3.205   2.472  16.265  0.5364 -0.8301 -0.7362
15783TIP3    H268841   3.131   2.521  16.142 -0.5892  1.2667  0.7311
15784TIP3   OH268842   1.193   0.267  16.723  0.3696  0.0964  0.0662
15784TIP3    H168843   1.124   0.253  16.788  0.5052 -0.0902  0.1750
15784TIP3    H268844   1.147   0.292  16.643  0.2486  1.2630  0.4887
15785TIP3   OH268845   2.653   4.069  13.671  0.3064 -0.1950  0.4729
15785TIP3    H168846   2.633   3.978  13.695 -2.3702  0.6172  1.5040
15785TIP3    H268847   2.746   4.079  13.690  0.0852 -2.0063  2.7210
15786TIP3   OH268848   5.794   2.560  12.240 -0.8401  0.0312 -0.4822
15786TIP3    H168849   5.761   2.475  12.268 -1.8768  0.1438 -1.3184
15786TIP3    H268850   5.776   2.563  12.146  0.0190  0.8082 -0.6356
15787TIP3   OH268851   5.935   5.358   3.019 -0.3334  0.8116 -0.2648
15787TIP3    H168852   5.989   5.437   3.013 -0.1486  0.7101  0.0972
15787TIP3    H268853   5.877   5.363   2.942  0.6445  0.5747 -1.0187
15788TIP3   OH268854   6.611   4.396   5.187  0.4092 -0.5031 -0.5973
15788TIP3    H168855   6.602   4.468   5.249  1.9420 -0.1728 -0.7214
15788TIP3    H268856   6.652   4.326   5.238  1.0955 -0.4527 -1.0720
15789TIP3   OH268857   5.254   2.833  11.520 -0.5996  0.0416 -0.4009
15789TIP3    H168858   5.316   2.773  11.481 -0.2822 -0.1906  0.4532
15789TIP3    H268859   5.269   2.826  11.615 -0.1478  1.8943 -0.3163
15790TIP3   OH268860   2.077   1.593  13.166  0.2864 -0.4674  0.1930
15790TIP3    H168861   2.165   1.557  13.155  0.1298 -1.0075  0.7070
15790TIP3    H268862   2.073   1.621  13.257 -0.2092 -0.8278  0.2882
15791TIP3   OH268863   3.653   5.778   3.561 -0.5244  0.0836 -0.6021
15791TIP3    H168864   3.568   5.791   3.518 -0.9816  1.0060  0.5606
15791TIP3    H268865   3.634   5.782   3.655  0.4958 -1.7231 -0.2818
15792TIP3   OH268866   5.396   2.559   5.546  0.0190 -0.3783  0.0194
15792TIP3    H168867   5.430   2.605   5.623 -0.6327 -1.0289  0.7108
15792TIP3    H268868   5.472   2.546   5.490  0.6488 -0.5679  0.9057
15793TIP3   OH268869   2.793   3.633   4.411 -0.5849  0.5130  0.1034
15793TIP3    H168870   2.713   3.654   4.458 -1.5168  0.5258 -1.4295
15793TIP3    H268871   2.768   3.561   4.353  0.9757 -0.6679  0.8735
15794TIP3   OH268872   0.435   0.352  17.052  0.6945  0.5364  0.6793
15794TIP3    H168873   0.476   0.406  17.120  3.3447  0.4838 -0.8225
15794TIP3    H268874   0.427   0.266  17.092  2.5104  0.4301  0.8456
15795TIP3   OH268875   5.486   2.175   0.997  0.4429 -0.0009 -0.6415
15795TIP3    H168876   5.522   2.139   0.916  0.0813  1.4298 -1.4621
15795TIP3    H268877   5.431   2.104   1.032  1.1654 -0.8851 -1.2754
15796TIP3   OH268878   0.014   0.420   5.945 -0.0921 -0.2875 -0.0973
15796TIP3    H168879   0.053   0.507   5.950 -1.0967  0.2502 -1.3249
15796TIP3    H268880   0.057   0.378   5.871  0.7191 -1.0116  0.7743
15797TIP3   OH268881   1.699   3.557   0.897  0.1222 -0.1813  0.1503
15797TIP3    H168882   1.790   3.585   0.897  0.6676 -1.8383 -1.7276
15797TIP3    H268883   1.651   3.629   0.854  0.6055  0.4800  0.7189
15798TIP3   OH268884   4.685   1.852  15.357 -0.2013 -0.0895  0.0351
15798TIP3    H168885   4.689   1.905  15.277  1.3982  2.1652  1.5496
15798TIP3    H268886   4.664   1.764  15.326  0.3188  0.7470 -2.8673
15799TIP3   OH268887   3.094   6.812  14.635 -0.0086 -0.1692 -0.0186
15799TIP3    H168888   3.042   6.891  14.650  0.3700 -0.0669  0.8047
15799TIP3    H268889   3.182   6.837  14.662 -0.0055 -1.0580  0.7781
15800TIP3   OH268890   2.368   5.189   2.762 -0.2121 -0.4980  0.0478
15800TIP3    H168891   2.395   5.141   2.840  0.0549 -0.3246  0.0626
15800TIP3    H268892   2.275   5.168   2.752 -0.0953 -1.0375  0.0451
15801TIP3   OH268893   1.466   0.127  16.684  0.2338  0.2139  0.0986
15801TIP3    H168894   1.546   0.167  16.718  0.0975  0.9244 -0.3986
15801TIP3    H268895   1.433   0.190  16.620  0.1436 -0.8010 -0.8810
15802TIP3   OH268896   0.116   1.619   3.981  0.1288 -0.4051 -0.1451
15802TIP3    H168897   0.190   1.570   4.017  1.3506  0.8015 -0.9727
15802TIP3    H268898   0.039   1.565   4.002  0.7759  0.1949  4.1008
15803TIP3   OH268899   3.386   3.093   0.373 -0.3197  0.5708 -0.3045
15803TIP3    H168900   3.444   3.042   0.429 -0.8845 -0.4859 -0.6647
15803TIP3    H268901   3.303   3.096   0.421 -1.5193 -2.3120 -2.0924
15804TIP3   OH268902   1.435   2.741  14.665  0.2650 -0.1694  0.2228
15804TIP3    H168903   1.356   2.743  14.720 -0.8685  0.6046 -1.3959
15804TIP3    H268904   1.508   2.741  14.728 -1.0071 -1.2991  1.7493
15805TIP3   OH268905   3.445   6.407  11.515 -0.0936  0.1271  0.0257
15805TIP3    H168906   3.403   6.348  11.578 -0.2839  0.6759  0.4173
15805TIP3    H268907   3.494   6.349  11.456 -0.0873 -0.4055  0.5518
15806TIP3   OH268908   6.372   4.236   1.920 -0.0578  0.6981  0.3097
15806TIP3    H168909   6.310   4.204   1.986 -1.0573  0.9919 -0.4725
15806TIP3    H268910   6.318   4.256   1.844  0.9157  1.6567 -0.1440
15807TIP3   OH268911   4.775   0.849   3.079  0.6814  0.1681  0.1474
15807TIP3    H168912   4.798   0.758   3.095  1.5317  0.3178 -0.2004
15807TIP3    H268913   4.781   0.859   2.984  1.5183  0.8225  0.2646
15808TIP3   OH268914   4.702   2.552   3.205  0.3418 -0.2281 -0.0372
15808TIP3    H168915   4.639   2.592   3.144  0.3314 -0.2431 -0.0361
15808TIP3    H268916   4.667   2.570   3.292  1.0607  0.9607  0.0099
15809TIP3   OH268917   2.731   2.682   1.257 -0.0798  0.0859  0.2793
15809TIP3    H168918   2.765   2.770   1.271 -0.0115  0.1853 -0.4922
15809TIP3    H268919   2.809   2.627   1.246 -0.1197 -0.0918  0.8507
15810TIP3   OH268920   1.737   5.188  13.925 -0.2745 -0.3917  0.4947
15810TIP3    H168921   1.723   5.183  14.020  0.4065 -0.9686  0.5772
15810TIP3    H268922   1.737   5.281  13.905  1.2695 -0.2051  1.3313
15811TIP3   OH268923   3.370   4.831   4.529 -0.2793 -0.4621  0.4226
15811TIP3    H168924   3.377   4.793   4.617 -0.4110  0.0800  0.6677
15811TIP3    H268925   3.276   4.848   4.518 -0.1965 -0.0457  0.3769
15812TIP3   OH268926   4.418   1.469  15.420 -0.3468 -0.2551 -0.5583
15812TIP3    H168927   4.477   1.395  15.411  0.5549  0.2322  1.0999
15812TIP3    H268928   4.333   1.429  15.442  0.5659 -0.7776  2.2951
15813TIP3   OH268929   6.587   6.215  12.453  0.0119 -0.0087 -0.5105
15813TIP3    H168930   6.517   6.221  12.388 -0.5882  1.3208  0.2343
15813TIP3    H268931   6.571   6.133  12.499 -0.0828 -0.5181 -1.4316
15814TIP3   OH268932   4.820   4.598   5.198 -0.3461 -0.4161  0.2655
15814TIP3    H168933   4.741   4.561   5.159 -0.2892 -1.1833  0.8903
15814TIP3    H268934   4.789   4.655   5.268 -0.5061  1.7580 -1.5066
15815TIP3   OH268935   3.382   1.842  13.149 -0.1954 -0.0577 -0.2858
15815TIP3    H168936   3.336   1.849  13.065 -1.4623 -0.1896  0.3815
15815TIP3    H268937   3.452   1.778  13.132 -0.7297 -0.4379 -1.1242
15816TIP3   OH268938   6.332   3.354   5.623 -0.7823 -0.1193 -0.5168
15816TIP3    H168939   6.310   3.323   5.711 -0.7817 -1.0223 -0.8298
15816TIP3    H268940   6.374   3.279   5.581  0.4208  0.7257 -0.8470
15817TIP3   OH268941   5.713   6.210   2.267  0.2133 -0.2434  0.2781
15817TIP3    H168942   5.736   6.170   2.183  0.0875 -0.4669  0.3511
15817TIP3    H268943   5.721   6.139   2.331 -1.5155 -0.5379  0.1763
15818TIP3   OH268944   5.729   5.997  15.957  0.1711  0.9892  0.2158
15818TIP3    H168945   5.740   5.972  16.049 -0.5240 -1.9527 -0.4410
15818TIP3    H268946   5.815   5.980  15.917 -0.4142 -0.9229 -0.3173
15819TIP3   OH268947   0.321   1.257   4.150  0.0904 -0.1503  0.0648
15819TIP3    H168948   0.231   1.267   4.182 -0.4785 -1.4222 -1.1049
15819TIP3    H268949   0.322   1.173   4.105  1.4081  0.6370 -1.4518
15820TIP3   OH268950   1.564   3.690  15.145  0.3624  0.5481 -0.7152
15820TIP3    H168951   1.655   3.702  15.171  1.2138  0.4331 -3.4454
15820TIP3    H268952   1.548   3.759  15.080 -1.2779  0.1365 -0.7768
15821TIP3   OH268953   4.028   5.494   3.636 -0.5439  0.3982  0.0997
15821TIP3    H168954   4.012   5.499   3.542  1.0587 -1.6045 -0.3196
15821TIP3    H268955   3.949   5.532   3.676 -1.2071  1.3470 -2.0207
15822TIP3   OH268956   1.851   4.069  11.736 -0.1961  0.0657 -0.4629
15822TIP3    H168957   1.882   3.980  11.722 -0.5201  0.1124 -1.6020
15822TIP3    H268958   1.883   4.118  11.660  1.1215  1.2427  0.8136
15823TIP3   OH268959   6.286   2.346   0.547  0.0630  0.6126 -0.2679
15823TIP3    H168960   6.293   2.263   0.594 -1.5460  1.1639  0.9984
15823TIP3    H268961   6.342   2.335   0.470  0.4206 -1.3797  0.2504
15824TIP3   OH268962   3.377   3.493  13.318 -0.3232  0.1382 -0.5770
15824TIP3    H168963   3.462   3.486  13.275 -0.3878  0.9701 -0.8415
15824TIP3    H268964   3.365   3.408  13.361  1.4895  0.6645  1.0575
15825TIP3   OH268965   0.552   3.703  13.578  0.2982 -0.1363  0.7221
15825TIP3    H168966   0.621   3.636  13.570  0.2888 -0.2828  1.8284
15825TIP3    H268967   0.585   3.763  13.644  0.1166  0.7368  0.0286
15826TIP3   OH268968   0.885   1.077   4.027 -0.1277  0.2445 -0.3490
15826TIP3    H168969   0.879   1.014   4.100 -0.0052 -0.1220 -0.6523
15826TIP3    H268970   0.959   1.133   4.049 -0.6492  0.7090  0.2533
15827TIP3   OH268971   5.690   0.464  15.901 -0.2194  0.2392  0.5328
15827TIP3    H168972   5.742   0.402  15.952  0.5288  0.0317 -0.4654
15827TIP3    H268973   5.602   0.458  15.938  0.0826 -0.6593  1.1238
15828TIP3   OH268974   2.324   0.981   3.040 -0.2658 -0.4920  0.6914
15828TIP3    H168975   2.393   0.915   3.041  0.1737 -0.0377  0.4517
15828TIP3    H268976   2.297   0.986   2.948 -0.7770 -0.8324  0.8213
15829TIP3   OH268977   0.946   2.051  12.772 -0.3924  0.2589  0.2473
15829TIP3    H168978   0.959   1.980  12.835  1.1845  0.1397 -0.2123
15829TIP3    H268979   0.870   2.023  12.720  1.2091 -1.8864 -1.0065
15830TIP3   OH268980   2.116   4.222  16.429 -1.0464  0.0643  0.2480
15830TIP3    H168981   2.052   4.286  16.459 -1.2666 -0.6332  1.3093
15830TIP3    H268982   2.199   4.252  16.468 -1.1213 -0.1969  0.6156
15831TIP3   OH268983   6.817   4.250  12.987 -0.8802 -0.2055  0.0670
15831TIP3    H168984   6.796   4.328  13.039 -0.8521  0.0764 -0.3456
15831TIP3    H268985   6.820   4.179  13.051  0.5434  0.3825  0.6583
15832TIP3   OH268986   4.438   2.200   3.668  0.1957  0.0321 -0.0582
15832TIP3    H168987   4.370   2.264   3.648  0.5447 -0.3186 -2.5908
15832TIP3    H268988   4.400   2.116   3.642  0.7092 -0.4696  0.7875
15833TIP3   OH268989   0.770   1.667  14.691 -0.1228 -0.5509 -0.1446
15833TIP3    H168990   0.844   1.709  14.734  0.7376 -0.8177 -1.3695
15833TIP3    H268991   0.785   1.680  14.598 -0.2149 -2.9623 -0.5122
15834TIP3   OH268992   3.439   6.741   0.451 -0.3256 -0.6000  0.1093
15834TIP3    H168993   3.377   6.796   0.499 -0.2908 -1.6880  1.4495
15834TIP3    H268994   3.387   6.702   0.381 -0.3713  1.0327 -0.7904
15835TIP3   OH268995   5.776   3.739   0.676  0.3895  0.2682  0.4096
15835TIP3    H168996   5.830   3.802   0.628  0.0774  0.8275  0.7880
15835TIP3    H268997   5.781   3.659   0.624 -0.3744  1.0145 -0.8350
15836TIP3   OH268998   3.985   4.099  17.211 -0.5373 -0.3481 -0.2566
15836TIP3    H168999   3.976   4.130  17.121  1.0140 -0.2347 -0.3861
15836TIP3    H269000   3.984   4.178  17.264  1.1916 -0.1969 -0.4077
15837TIP3   OH269001   2.162   0.601  15.497  0.1746  0.0206 -0.1930
15837TIP3    H169002   2.223   0.666  15.533  0.4048 -0.4154  0.2175
15837TIP3    H269003   2.198   0.581  15.410 -1.0440  1.9558 -1.1864
15838TIP3   OH269004   4.824   3.789  14.444 -0.0856 -0.3978  0.0134
15838TIP3    H169005   4.904   3.840  14.458 -0.4687  0.3813 -0.5698
15838TIP3    H269006   4.841   3.741  14.363 -0.4571  0.2778 -0.4712
15839TIP3   OH269007   1.741   4.907   0.080 -0.3110  0.0070 -0.6685
15839TIP3    H169008   1.674   4.915   0.147  1.5806  1.2096  1.1284
15839TIP3    H269009   1.728   4.983   0.023 -0.3426  0.3429 -0.2089
15840TIP3   OH269010   4.276   2.642   1.441 -0.7529 -0.0045 -0.1181
15840TIP3    H169011   4.272   2.580   1.514 -0.3631 -1.0529 -0.9678
15840TIP3    H269012   4.243   2.592   1.366  1.9333 -0.0149 -1.3479
15841TIP3   OH269013   0.405   2.485   3.509 -0.1280  0.0064  0.2850
15841TIP3    H169014   0.368   2.485   3.597  1.8498  1.5881  1.1575
15841TIP3    H269015   0.478   2.423   3.514  0.2617  0.4331 -0.1320
15842TIP3   OH269016   1.944   0.386   2.895  0.1348  0.0270 -0.1010
15842TIP3    H169017   1.932   0.298   2.929 -0.8969  0.3127  0.3115
15842TIP3    H269018   1.873   0.396   2.831 -0.9469  1.2301  1.2565
15843TIP3   OH269019   3.544   5.469  15.914 -0.3068  0.3083 -0.7095
15843TIP3    H169020   3.470   5.436  15.965 -0.1647 -0.4622 -0.9989
15843TIP3    H269021   3.526   5.441  15.825  2.1709 -3.1824 -0.2093
15844TIP3   OH269022   5.458   6.043   5.596 -0.1025 -0.5730  0.7531
15844TIP3    H169023   5.549   6.042   5.566  0.4825 -2.2402  2.4099
15844TIP3    H269024   5.415   5.973   5.547  0.5107 -2.3709  2.6822
15845TIP3   OH269025   1.764   5.726  13.084 -0.4479 -0.0126 -0.6918
15845TIP3    H169026   1.786   5.656  13.022 -1.9577  0.3562 -1.6707
15845TIP3    H269027   1.670   5.740  13.071 -0.5182  0.9439  0.7952
15846TIP3   OH269028   5.294   1.260   1.516  0.7688  0.0220  0.1297
15846TIP3    H169029   5.378   1.214   1.506  0.2961 -0.4590 -1.9592
15846TIP3    H269030   5.268   1.242   1.606  1.7186 -1.9014  0.0546
15847TIP3   OH269031   4.751   1.925   2.505 -0.0497  0.3699 -1.3507
15847TIP3    H169032   4.768   1.985   2.433  0.5019  2.2182  0.2746
15847TIP3    H269033   4.810   1.953   2.575  0.2801 -2.1293 -0.5647
15848TIP3   OH269034   0.547   4.661   3.702 -0.1894  0.6395 -0.2210
15848TIP3    H169035   0.529   4.576   3.661 -0.4511  0.3031  0.5768
15848TIP3    H269036   0.609   4.642   3.772  0.1123  1.1805 -0.3367
15849TIP3   OH269037   0.145   0.355  14.210  0.8231  0.2542 -0.3426
15849TIP3    H169038   0.108   0.348  14.298  0.7233  0.5856 -0.3604
15849TIP3    H269039   0.087   0.415  14.163  1.6678  1.1927 -0.2091
15850TIP3   OH269040   3.649   2.420  12.435  0.3464 -0.7961 -0.2044
15850TIP3    H169041   3.644   2.481  12.361  0.0439 -0.0069  0.4511
15850TIP3    H269042   3.572   2.441  12.488  0.2702 -1.7237  0.0518
15851TIP3   OH269043   1.066   4.416  14.507 -0.0433 -0.4008 -0.7940
15851TIP3    H169044   1.151   4.433  14.466 -0.2454  0.6890 -0.7832
15851TIP3    H269045   1.011   4.383  14.436  0.2190 -0.5592 -0.9244
15852TIP3   OH269046   5.149   1.697   4.799 -0.7311  0.3593 -0.7217
15852TIP3    H169047   5.198   1.778   4.783  0.7222  0.5294  3.8112
15852TIP3    H269048   5.065   1.727   4.832 -0.1493  0.0722  1.0710
15853TIP3   OH269049   1.851   5.739   2.976  0.1416  0.1104 -0.4070
15853TIP3    H169050   1.900   5.685   3.038 -1.4400 -0.6305  0.2185
15853TIP3    H269051   1.859   5.828   3.011  0.0802 -0.1669  0.3181
15854TIP3   OH269052   4.202   2.802  10.508 -0.5525 -0.2410 -0.6659
15854TIP3    H169053   4.174   2.711  10.517 -0.6330 -0.1756 -0.2774
15854TIP3    H269054   4.210   2.814  10.413 -2.0490 -0.1910 -0.7977
15855TIP3   OH269055   2.819   2.993  15.545  0.3378  0.5206 -0.1114
15855TIP3    H169056   2.775   2.997  15.461 -1.4675 -2.3669  0.6298
15855TIP3    H269057   2.901   2.946  15.528 -0.1291 -0.2542 -0.2342
15856TIP3   OH269058   3.802   3.075   3.611  0.0531  0.6581 -0.1990
15856TIP3    H169059   3.716   3.083   3.651 -0.3039 -2.0422 -0.3333
15856TIP3    H269060   3.796   3.123   3.529 -0.7834  1.8907  0.5664
15857TIP3   OH269061   1.482   1.998  16.197  0.2026  0.1017 -0.1365
15857TIP3    H169062   1.434   2.022  16.118 -0.5974 -1.5458 -0.1768
15857TIP3    H269063   1.416   1.956  16.253  1.0055  0.2601  0.9380
15858TIP3   OH269064   3.745   0.327  11.933 -0.6789  0.1680  0.0998
15858TIP3    H169065   3.725   0.307  12.024  1.1311  0.6344  0.6269
15858TIP3    H269066   3.776   0.244  11.897  0.5681  0.4492  0.4909
15859TIP3   OH269067   2.001   0.895  12.861 -0.0634 -0.3007 -0.6043
15859TIP3    H169068   2.042   0.903  12.775  1.0517  1.3369  0.0514
15859TIP3    H269069   2.018   0.979  12.904 -2.3924 -0.3155  0.4531
15860TIP3   OH269070   0.090   3.150  14.222 -0.3341 -0.4005 -0.4440
15860TIP3    H169071   0.095   3.055  14.234  0.2877 -0.6663 -2.6509
15860TIP3    H269072  -0.003   3.170  14.230 -0.5956 -1.3487 -1.0169
15861TIP3   OH269073   0.121   3.011  17.108 -0.6600 -1.1823  0.5903
15861TIP3    H169074   0.059   3.084  17.112 -0.9178 -1.3676 -0.0146
15861TIP3    H269075   0.067   2.936  17.082 -0.1996 -1.3634  0.1565
15862TIP3   OH269076   5.582   0.851   2.113  0.4486  0.1416  0.4679
15862TIP3    H169077   5.639   0.902   2.055  0.8157  1.1134  1.6658
15862TIP3    H269078   5.579   0.902   2.194 -1.0801 -0.5678  0.8614
15863TIP3   OH269079   3.161   2.719  14.217  0.4905  0.2143 -0.3347
15863TIP3    H169080   3.170   2.810  14.243  1.2315  0.1269 -0.2878
15863TIP3    H269081   3.136   2.673  14.297  1.5865  0.1362 -0.0414
15864TIP3   OH269082   4.612   4.473  12.901 -0.0834 -0.3668  0.2584
15864TIP3    H169083   4.594   4.508  12.989  1.9080 -0.2945  0.6441
15864TIP3    H269084   4.640   4.383  12.916  0.2463 -0.3577 -0.3197
15865TIP3   OH269085   4.773   3.642  10.914 -0.4426 -0.1109 -0.4872
15865TIP3    H169086   4.815   3.577  10.970 -1.2092 -0.4127 -0.2543
15865TIP3    H269087   4.711   3.591  10.862 -0.8006  0.3884 -0.5488
15866TIP3   OH269088   5.219   5.833   2.240 -0.1499 -0.4171 -0.4122
15866TIP3    H169089   5.184   5.764   2.296 -0.7466 -1.0811 -1.5742
15866TIP3    H269090   5.222   5.793   2.153  0.8790  0.5541 -0.8287
15867TIP3   OH269091   0.441   3.305   3.536 -0.2933 -0.3283  0.2037
15867TIP3    H169092   0.453   3.293   3.630  0.7134  0.3496  0.1768
15867TIP3    H269093   0.412   3.220   3.504 -0.4768 -0.6077  1.1023
15868TIP3   OH269094   4.324   5.978  15.545  0.9005 -0.3541 -0.2784
15868TIP3    H169095   4.393   5.929  15.591  0.1481 -1.1395  0.0496
15868TIP3    H269096   4.278   5.912  15.493  1.1524  0.3742 -1.4400
15869TIP3   OH269097   6.609   5.254  11.716 -0.6803 -0.1591 -0.2422
15869TIP3    H169098   6.655   5.285  11.794  0.2804 -0.2359 -0.7731
15869TIP3    H269099   6.517   5.249  11.743 -0.1468 -1.7449  1.3907
15870TIP3   OH269100   6.490   0.016   1.146 -0.1329 -1.4445 -0.0355
15870TIP3    H169101   6.395   0.003   1.138 -0.0864 -0.9303 -1.6101
15870TIP3    H269102   6.500   0.111   1.152  0.2958 -1.4760 -0.2514
15871TIP3   OH269103   2.533   6.031   0.633  0.2149  0.4339 -0.6141
15871TIP3    H169104   2.490   5.953   0.597 -2.3112  0.8485  1.3864
15871TIP3    H269105   2.492   6.104   0.588  1.5298  0.6835 -1.4163
15872TIP3   OH269106   6.382   3.534   1.054 -0.2870  0.0670  0.0427
15872TIP3    H169107   6.370   3.611   1.108  0.6034 -0.2388  0.6960
15872TIP3    H269108   6.296   3.517   1.016 -0.2815  1.8867 -0.8106
15873TIP3   OH269109   0.026   4.227  14.848 -0.3317  0.2413 -0.1921
15873TIP3    H169110   0.039   4.245  14.941 -2.4724  1.4900 -0.0990
15873TIP3    H269111   0.108   4.255  14.807 -0.0192  1.3047  1.1162
15874TIP3   OH269112   2.133   4.735   1.301  0.1546  0.0124 -0.4710
15874TIP3    H169113   2.185   4.667   1.343 -0.2219 -0.4024 -0.6805
15874TIP3    H269114   2.066   4.758   1.366  0.2936  0.2039 -0.3920
15875TIP3   OH269115   2.883   5.071   4.955 -0.2255  0.6720 -0.3144
15875TIP3    H169116   2.828   5.146   4.979 -0.8917 -0.6219  2.4731
15875TIP3    H269117   2.945   5.064   5.027  0.9299 -0.4223 -1.4046
15876TIP3   OH269118   4.126   1.555   5.353  0.1607  0.2582  0.4765
15876TIP3    H169119   4.172   1.637   5.337  0.7856  0.3729  2.7068
15876TIP3    H269120   4.103   1.558   5.446  0.3251 -2.1505  0.6269
15877TIP3   OH269121   4.623   4.018  13.621 -0.3717 -0.3211 -0.0881
15877TIP3    H169122   4.583   4.061  13.697 -0.8044 -0.0020 -0.4954
15877TIP3    H269123   4.707   4.062  13.610  0.9865 -2.2526  1.9328
15878TIP3   OH269124   1.351   5.298  16.372  0.0261  0.0554  0.0532
15878TIP3    H169125   1.329   5.264  16.459  1.0504  2.4237  1.2954
15878TIP3    H269126   1.273   5.280  16.319 -1.3685  0.2384  1.9786
15879TIP3   OH269127   5.282   2.294   2.718  0.7004 -0.4359 -0.1353
15879TIP3    H169128   5.275   2.379   2.674 -0.5299 -1.5411 -2.1480
15879TIP3    H269129   5.346   2.245   2.667  0.4900 -1.1600  0.2874
15880TIP3   OH269130   3.981   3.585  13.749 -0.5237  0.3340  0.6433
15880TIP3    H169131   3.902   3.530  13.744 -0.1253 -0.3401  1.6528
15880TIP3    H269132   4.013   3.589  13.659  0.4352 -2.5650  0.7841
15881TIP3   OH269133   5.940   1.617   3.063  0.5227  0.2809  0.4745
15881TIP3    H169134   5.923   1.710   3.076 -0.0052  0.3468 -0.5738
15881TIP3    H269135   5.900   1.598   2.978 -0.7993 -1.2592  1.4289
15882TIP3   OH269136   2.764   4.594   4.116  0.0028  0.1070  0.8325
15882TIP3    H169137   2.715   4.536   4.174 -2.4818  0.9042 -0.3567
15882TIP3    H269138   2.704   4.610   4.043  1.2833  2.7660  0.2962
15883TIP3   OH269139   5.347   0.739  12.727 -0.0588 -0.7316  0.1213
15883TIP3    H169140   5.343   0.644  12.737  0.7439 -0.5762  2.3403
15883TIP3    H269141   5.422   0.766  12.781  1.1075  0.9610 -2.2438
15884TIP3   OH269142   5.378   4.731   3.571 -0.2861  0.7283 -0.3890
15884TIP3    H169143   5.393   4.638   3.555 -0.3305  0.9049 -1.4940
15884TIP3    H269144   5.400   4.744   3.664  0.9478 -0.1318 -0.5494
15885TIP3   OH269145   2.921   6.457  14.353  0.4060 -0.4163  0.2010
15885TIP3    H169146   2.983   6.480  14.283 -0.8459  0.1630 -0.7291
15885TIP3    H269147   2.859   6.529  14.355 -1.1956 -1.7545  0.0159
15886TIP3   OH269148   2.693   0.666   1.551 -0.9146 -0.2009 -0.2769
15886TIP3    H169149   2.736   0.657   1.466  0.1959  0.2712  0.2219
15886TIP3    H269150   2.627   0.734   1.537  1.7263  2.5706  0.1365
15887TIP3   OH269151   2.665   2.844  14.293 -0.0298  0.9422  1.2678
15887TIP3    H169152   2.711   2.873  14.214 -2.9064  1.1777 -0.4081
15887TIP3    H269153   2.653   2.749  14.281  2.3892  0.3782  3.0015
15888TIP3   OH269154   3.659   4.431  15.874 -0.0581  0.5199 -0.2554
15888TIP3    H169155   3.687   4.449  15.784 -0.5139 -0.7775 -0.6742
15888TIP3    H269156   3.740   4.417  15.922  0.1054 -1.9257 -1.1749
15889TIP3   OH269157   3.273   1.697   3.417 -0.8100 -0.3956 -0.5084
15889TIP3    H169158   3.353   1.712   3.366  0.6091 -2.3983  1.0913
15889TIP3    H269159   3.223   1.635   3.364 -0.2457 -0.9518 -0.3876
15890TIP3   OH269160   2.061   1.195   6.195 -0.2799  0.0513  0.4355
15890TIP3    H169161   2.013   1.138   6.257 -3.5158 -2.1707 -3.8196
15890TIP3    H269162   2.012   1.277   6.196  1.0681  0.8839  2.4204
15891TIP3   OH269163   2.894   5.275  15.638  0.2167  0.0019 -0.0453
15891TIP3    H169164   2.853   5.308  15.718 -0.2009 -1.3986  0.3432
15891TIP3    H269165   2.824   5.227  15.593  1.2724 -2.0924  0.4445
15892TIP3   OH269166   2.101   1.085   1.844 -0.2124 -0.4603  0.6267
15892TIP3    H169167   2.067   1.172   1.866  0.4088 -0.4281  1.4673
15892TIP3    H269168   2.195   1.091   1.861  0.0308 -0.9299 -0.4866
15893TIP3   OH269169   2.564   1.735   3.882 -0.1814  0.5255  0.0578
15893TIP3    H169170   2.543   1.829   3.876  0.5229  0.7024  0.2273
15893TIP3    H269171   2.618   1.718   3.804 -0.8202  0.1222 -0.2933
15894TIP3   OH269172   1.268   3.913  15.638 -0.1729  0.7822 -0.1342
15894TIP3    H169173   1.292   3.878  15.724  2.1596  1.5580 -0.4370
15894TIP3    H269174   1.256   4.006  15.653 -0.6411  0.7777 -0.4800
15895TIP3   OH269175   0.033   1.310   6.490  0.3264  0.5965 -0.6761
15895TIP3    H169176   0.063   1.362   6.563 -0.2193  1.3543 -0.9898
15895TIP3    H269177   0.031   1.220   6.523  0.8969  0.8275 -0.0275
15896TIP3   OH269178   4.978   3.399   4.779 -0.1211 -0.0405  0.3087
15896TIP3    H169179   5.067   3.369   4.797 -0.4441 -1.0449  0.2881
15896TIP3    H269180   4.924   3.355   4.846 -0.6551  0.1823  0.0303
15897TIP3   OH269181   1.537   4.596   3.877 -0.5510  0.0673 -0.2901
15897TIP3    H169182   1.544   4.688   3.851 -0.3738 -0.3548 -1.7680
15897TIP3    H269183   1.625   4.571   3.902 -1.0112  0.9287  2.3604
15898TIP3   OH269184   2.602   2.937  12.021  0.4496  0.0136  0.5063
15898TIP3    H169185   2.658   2.936  11.943  0.8010 -1.9741  0.7520
15898TIP3    H269186   2.598   3.029  12.047  1.1757  0.5547 -1.2535
15899TIP3   OH269187   0.105   1.404   1.892 -0.2991 -0.4349 -0.5902
15899TIP3    H169188   0.012   1.414   1.909 -0.9156 -3.2497 -2.0213
15899TIP3    H269189   0.131   1.326   1.941  1.2227  0.1366 -0.4540
15900TIP3   OH269190   5.007   3.432   0.298 -0.0322 -0.1366 -0.3645
15900TIP3    H169191   5.031   3.520   0.270 -1.4127  0.4482  0.2839
15900TIP3    H269192   5.047   3.374   0.232 -1.3017  1.1025 -2.2711
15901TIP3   OH269193   0.115   6.207   5.222 -0.0314 -0.1499  0.6574
15901TIP3    H169194   0.034   6.160   5.241 -1.6739  2.1755 -0.3719
15901TIP3    H269195   0.183   6.139   5.223 -2.3467 -2.6060 -1.1971
15902TIP3   OH269196   0.999   6.310  11.645 -0.0246  0.6766 -0.0339
15902TIP3    H169197   0.955   6.368  11.708  0.1836  1.6408 -0.7638
15902TIP3    H269198   0.976   6.222  11.674  0.5636  1.0847  1.7575
15903TIP3   OH269199   2.639   5.380   5.903 -0.4516 -0.3872  0.4294
15903TIP3    H169200   2.553   5.358   5.870 -0.9309  1.1657  0.5882
15903TIP3    H269201   2.692   5.395   5.825 -1.2239  1.9365  0.3080
15904TIP3   OH269202   1.935   2.463  16.214 -0.0660  0.5645 -0.1080
15904TIP3    H169203   1.914   2.465  16.121  0.2748 -0.1388 -0.2038
15904TIP3    H269204   2.031   2.454  16.217 -0.3088 -2.3596  0.2892
15905TIP3   OH269205   6.809   0.606   3.698  0.0871 -0.4460 -0.0314
15905TIP3    H169206   6.819   0.701   3.703  2.3844 -0.6420 -0.3378
15905TIP3    H269207   6.723   0.593   3.658 -0.6173  1.4787  0.7987
15906TIP3   OH269208   2.702   3.616  15.878  0.1980  0.0520  0.8012
15906TIP3    H169209   2.642   3.542  15.868  0.6267  0.0307 -2.1421
15906TIP3    H269210   2.779   3.579  15.921  0.7169 -1.4473 -1.3161
15907TIP3   OH269211   0.170   1.839   3.043  0.3195  0.3730  0.3462
15907TIP3    H169212   0.097   1.809   3.097  1.1489  1.3768  2.0685
15907TIP3    H269213   0.176   1.933   3.061  1.2744  0.5154 -0.6828
15908TIP3   OH269214   6.707   3.252   5.595 -0.4162 -0.5573 -0.2514
15908TIP3    H169215   6.789   3.208   5.616  1.4876  2.6137 -0.7677
15908TIP3    H269216   6.719   3.284   5.506 -1.8771  0.6550 -0.0328
15909TIP3   OH269217   0.096   0.636  14.535 -0.1829  0.2931 -0.1930
15909TIP3    H169218   0.155   0.710  14.552  1.0343 -0.5877 -0.5281
15909TIP3    H269219   0.152   0.559  14.543 -1.4285 -0.5937  0.0512
15910TIP3   OH269220   6.300   0.251   1.392 -0.6661 -0.2183 -0.0615
15910TIP3    H169221   6.288   0.335   1.437 -0.1107  0.1087 -0.5261
15910TIP3    H269222   6.213   0.230   1.358 -1.7160 -1.7215  3.3159
15911TIP3   OH269223   6.156   4.699   4.382  0.1354  0.3543 -0.4667
15911TIP3    H169224   6.196   4.616   4.407  1.5969  0.7345 -1.4944
15911TIP3    H269225   6.210   4.765   4.423  0.1204  0.8535 -1.2412
15912TIP3   OH269226   5.752   2.063   4.290  0.0059 -0.0994  0.1248
15912TIP3    H169227   5.767   2.108   4.206 -0.5221  1.1288  0.6796
15912TIP3    H269228   5.774   1.971   4.272 -1.7696 -0.1858 -1.8250
15913TIP3   OH269229   0.611   2.483   4.483  0.1360 -0.1402 -0.8437
15913TIP3    H169230   0.672   2.428   4.435  0.6840  0.3148 -0.6764
15913TIP3    H269231   0.570   2.538   4.417 -0.5739 -0.8932 -1.0411
15914TIP3   OH269232   2.535   0.434   4.080 -0.8434  0.4582  0.4540
15914TIP3    H169233   2.573   0.346   4.078 -0.3435  0.6362  1.8621
15914TIP3    H269234   2.464   0.431   4.016 -0.1110 -0.6347 -0.3231
15915TIP3   OH269235   0.074   1.780  15.996  0.1535 -0.1746  0.6711
15915TIP3    H169236   0.095   1.697  15.952 -1.2693 -1.0071  1.5155
15915TIP3    H269237  -0.017   1.797  15.971 -0.1018  0.2413  1.8892
15916TIP3   OH269238   4.467   2.851   2.046 -0.4679  0.1588 -0.3436
15916TIP3    H169239   4.491   2.836   2.137 -0.2511 -0.9967 -0.5884
15916TIP3    H269240   4.386   2.801   2.034 -2.0210  2.5303 -0.0315
15917TIP3   OH269241   0.486   2.030  14.843  0.3740 -0.0434  0.0060
15917TIP3    H169242   0.566   2.034  14.895 -0.1493 -1.6297  0.9596
15917TIP3    H269243   0.463   2.122  14.828  0.5645  0.4495  2.5443
15918TIP3   OH269244   6.771   3.185  16.477  0.2907 -0.0368 -0.0473
15918TIP3    H169245   6.864   3.164  16.489  0.5004  1.3740  0.9922
15918TIP3    H269246   6.740   3.205  16.565  0.3322  4.6756 -0.9404
15919TIP3   OH269247   4.385   2.136   1.260  0.3005  0.2843 -0.4404
15919TIP3    H169248   4.443   2.073   1.217 -0.4383 -0.4468 -0.3636
15919TIP3    H269249   4.432   2.219   1.254  1.8749 -0.5132  0.6054
15920TIP3   OH269250   6.276   6.056   4.054 -0.3425 -0.0806 -0.3011
15920TIP3    H169251   6.371   6.049   4.064 -0.5058 -0.1949  1.3262
15920TIP3    H269252   6.243   5.967   4.070 -0.7359  0.0157 -0.5757
15921TIP3   OH269253   6.001   4.161   4.678  0.3750  0.3898 -0.0524
15921TIP3    H169254   6.067   4.206   4.731  0.7886 -0.9065  0.5503
15921TIP3    H269255   5.918   4.189   4.715  0.6826 -1.6596  2.2970
15922TIP3   OH269256   6.367   4.887   0.125 -0.6237  0.5638 -0.4959
15922TIP3    H169257   6.283   4.845   0.107 -1.6289  1.5780  1.6036
15922TIP3    H269258   6.344   4.974   0.159  1.2534  0.6441  0.6768
15923TIP3   OH269259   1.562   3.761   0.778 -0.0827 -0.1385  0.4011
15923TIP3    H169260   1.468   3.777   0.790  0.0498  1.2088 -0.2799
15923TIP3    H269261   1.603   3.846   0.791  0.9258 -0.4670 -0.5211
15924TIP3   OH269262   2.340   5.695   2.717  0.0214  0.9856 -0.2747
15924TIP3    H169263   2.389   5.774   2.696  1.0585  0.0959 -1.3173
15924TIP3    H269264   2.393   5.650   2.783  0.0382  0.5963 -0.5468
15925TIP3   OH269265   0.594   0.141   0.545 -0.1315 -0.4533  0.1925
15925TIP3    H169266   0.577   0.107   0.633 -0.1759  1.8826  1.1300
15925TIP3    H269267   0.605   0.236   0.557 -0.2926 -0.0572 -2.3375
15926TIP3   OH269268   2.346   6.197  11.229  0.9820 -0.0964  0.2672
15926TIP3    H169269   2.371   6.215  11.138 -0.9454 -0.9744 -0.4550
15926TIP3    H269270   2.411   6.244  11.281  0.7520  2.3713 -1.5669
15927TIP3   OH269271   0.602   1.778   4.084  0.7902 -0.1924 -0.0667
15927TIP3    H169272   0.661   1.715   4.124 -1.0766 -0.3914  2.4721
15927TIP3    H269273   0.640   1.864   4.102  0.4205 -0.3301  1.4112
15928TIP3   OH269274   2.809   3.571   6.364  0.6343 -0.4713 -0.1689
15928TIP3    H169275   2.847   3.653   6.396 -0.7759 -0.4543  1.5368
15928TIP3    H269276   2.885   3.518   6.339  1.6104  0.8642 -0.0873
15929TIP3   OH269277   6.317   5.502  13.644  0.2043  0.3969  0.4989
15929TIP3    H169278   6.234   5.506  13.598  0.7454  0.7145 -0.4637
15929TIP3    H269279   6.296   5.524  13.735 -1.0038 -1.1100  0.6010
15930TIP3   OH269280   2.186   4.844   0.453 -0.8235  0.0160  0.4734
15930TIP3    H169281   2.099   4.858   0.492 -1.3221 -1.3136 -0.1194
15930TIP3    H269282   2.173   4.772   0.391  0.2660  1.1606 -1.1250
15931TIP3   OH269283   1.185   3.738   5.588 -0.0093 -0.4104 -0.6788
15931TIP3    H169284   1.099   3.700   5.569 -0.6114  0.1990  0.7228
15931TIP3    H269285   1.195   3.808   5.524 -0.5801 -0.4504 -0.8198
15932TIP3   OH269286   1.834   1.653  11.279 -0.1249 -0.3202 -0.1473
15932TIP3    H169287   1.786   1.717  11.226 -0.0062  1.0633  1.3791
15932TIP3    H269288   1.768   1.615  11.337  0.3947  0.8632  1.2621
15933TIP3   OH269289   2.781   4.245   1.861  0.3584  0.3395  0.2014
15933TIP3    H169290   2.724   4.316   1.891 -0.2751 -0.7604  1.6410
15933TIP3    H269291   2.839   4.228   1.935 -0.0230 -1.1953  0.1432
15934TIP3   OH269292   4.225   5.777  14.358  0.0761 -0.1828 -0.6463
15934TIP3    H169293   4.316   5.794  14.335  0.4234  1.5546  1.8170
15934TIP3    H269294   4.181   5.862  14.349 -1.3649 -1.0282 -1.9518
15935TIP3   OH269295   3.322   2.460   0.944  0.5450 -0.3190 -0.0699
15935TIP3    H169296   3.344   2.541   0.899  0.1861 -1.1769 -1.8017
15935TIP3    H269297   3.370   2.391   0.897 -0.3681 -1.3088  0.4066
15936TIP3   OH269298   3.974   3.771  16.715 -0.2624 -0.4482 -0.3358
15936TIP3    H169299   3.916   3.746  16.787 -0.4339 -0.9593 -0.6466
15936TIP3    H269300   4.023   3.691  16.696 -0.1789 -0.2980 -0.7510
15937TIP3   OH269301   3.397   2.584  17.100 -0.6064  0.4948 -0.2114
15937TIP3    H169302   3.380   2.662  17.047 -0.3405  0.9924  0.4341
15937TIP3    H269303   3.318   2.573  17.153 -0.8513  0.0291 -0.6741
15938TIP3   OH269304   2.382   0.140  12.155 -0.5417 -0.2215  1.0766
15938TIP3    H169305   2.292   0.170  12.142 -0.3286 -0.2714 -0.6318
15938TIP3    H269306   2.378   0.083  12.232 -2.8840 -3.9327 -1.6299
15939TIP3   OH269307   1.377   3.720  12.193  0.0366 -0.4529  0.2335
15939TIP3    H169308   1.362   3.634  12.153  1.1031 -0.9645  0.9274
15939TIP3    H269309   1.380   3.780  12.118 -0.7300 -1.0054 -0.2550
15940TIP3   OH269310   5.409   6.598  10.837  0.4703  0.3148 -0.1163
15940TIP3    H169311   5.344   6.647  10.786  0.1463  0.9783  0.9258
15940TIP3    H269312   5.392   6.507  10.815 -1.4863  0.3966  0.8899
15941TIP3   OH269313   3.465   5.851  15.571 -0.1034  0.2533  0.4807
15941TIP3    H169314   3.462   5.793  15.647 -1.2144  0.8620  0.9194
15941TIP3    H269315   3.554   5.841  15.536 -0.4374 -2.0723  0.2428
15942TIP3   OH269316   3.067   4.565  15.476  0.2085 -0.4644 -0.1454
15942TIP3    H169317   3.120   4.640  15.504 -0.3327  0.1989 -0.8545
15942TIP3    H269318   3.023   4.596  15.396  0.7981 -1.9045 -1.0401
15943TIP3   OH269319   3.996   1.118   6.349  0.1505 -0.2954 -0.4410
15943TIP3    H169320   4.049   1.038   6.351  1.3711  0.4533 -1.7802
15943TIP3    H269321   3.959   1.124   6.437  1.1669 -1.5933  0.0991
15944TIP3   OH269322   5.064   4.851   4.120  0.6182 -0.0485  0.0999
15944TIP3    H169323   5.035   4.939   4.096 -0.0272 -0.1600  0.4675
15944TIP3    H269324   5.057   4.848   4.215 -0.0504 -0.7297  0.0376
15945TIP3   OH269325   4.576   3.978  12.139  0.1129  0.2322 -0.7015
15945TIP3    H169326   4.657   3.996  12.188 -0.6872 -0.5411  0.9209
15945TIP3    H269327   4.525   4.058  12.149  0.8776  0.9117 -2.1494
15946TIP3   OH269328   2.735   6.581   5.696  0.1276 -0.2857  0.3512
15946TIP3    H169329   2.716   6.598   5.603 -0.0723 -0.1330  0.4191
15946TIP3    H269330   2.828   6.601   5.705 -0.3176  1.7271  0.6395
15947TIP3   OH269331   2.565   0.057   2.444  0.2319  0.3632 -0.3921
15947TIP3    H169332   2.612   0.021   2.369  0.9070 -0.0465  0.2188
15947TIP3    H269333   2.631   0.064   2.513 -0.8186 -1.3594  0.8565
15948TIP3   OH269334   1.572   3.087  14.684 -0.0016  0.5031 -0.0486
15948TIP3    H169335   1.502   3.034  14.647 -0.3833  1.7989 -1.2203
15948TIP3    H269336   1.651   3.055  14.641  0.1806 -1.0609  1.3839
15949TIP3   OH269337   2.779   3.472   5.064 -0.3084  0.4113  0.1994
15949TIP3    H169338   2.823   3.417   5.000 -2.0847  0.5184 -1.1399
15949TIP3    H269339   2.805   3.436   5.149  1.9340  0.1756 -0.5714
15950TIP3   OH269340   5.702   3.947  14.536  0.3174  0.0741 -0.1721
15950TIP3    H169341   5.682   3.958  14.443 -0.7855 -1.5531 -0.1334
15950TIP3    H269342   5.779   3.890  14.537  0.8539  0.7858 -0.0966
15951TIP3   OH269343   4.018   3.238  14.997 -1.0657 -0.6422 -0.0364
15951TIP3    H169344   4.004   3.332  14.982 -0.0784 -0.4469  0.2301
15951TIP3    H269345   3.930   3.203  15.012 -1.4261  0.2699  0.0105
15952TIP3   OH269346   3.639   6.476   1.016  0.2833 -0.0268  0.3761
15952TIP3    H169347   3.661   6.469   1.109 -0.1430  0.6477  0.5307
15952TIP3    H269348   3.579   6.402   1.001  0.2265 -0.0438  0.6760
15953TIP3   OH269349   0.115   4.277   1.402  0.6610 -0.2974  0.0830
15953TIP3    H169350   0.050   4.218   1.440 -0.0144 -0.5152 -1.3628
15953TIP3    H269351   0.184   4.282   1.468 -0.3704 -0.8249  1.2327
15954TIP3   OH269352   1.191   0.880  13.080 -0.4321 -0.3196  0.1185
15954TIP3    H169353   1.251   0.806  13.073 -1.4679 -1.2361  0.8488
15954TIP3    H269354   1.121   0.861  13.018 -1.0143 -0.2606  0.7528
15955TIP3   OH269355   4.643   5.622   3.869  0.4523  0.2309 -0.5969
15955TIP3    H169356   4.733   5.621   3.835 -0.2012  0.7464 -2.3919
15955TIP3    H269357   4.605   5.702   3.832 -0.5842  0.2894  0.5919
15956TIP3   OH269358   0.521   6.220  16.948 -0.7102  0.1976 -0.2294
15956TIP3    H169359   0.484   6.134  16.926 -2.0198  0.7710 -0.3286
15956TIP3    H269360   0.582   6.238  16.876 -0.7605 -0.4446 -0.4420
15957TIP3   OH269361   5.446   5.462   0.394  0.3103  0.5267  0.4112
15957TIP3    H169362   5.401   5.378   0.384  0.0324  0.6373  0.7482
15957TIP3    H269363   5.385   5.516   0.443  0.4342  0.9733  0.0695
15958TIP3   OH269364   4.120   1.463  12.363  0.0234 -0.1616  0.2435
15958TIP3    H169365   4.178   1.417  12.302 -1.9601 -1.9500 -0.3640
15958TIP3    H269366   4.113   1.552  12.327  0.6135 -0.5791 -0.9295
15959TIP3   OH269367   3.612   1.500   2.717 -0.1064 -0.2486 -0.0282
15959TIP3    H169368   3.700   1.532   2.701 -0.3937  0.8481  0.5337
15959TIP3    H269369   3.589   1.534   2.803 -1.5196  0.4861 -0.6747
15960TIP3   OH269370   1.245   6.652  15.436 -0.0955 -1.0715  0.1828
15960TIP3    H169371   1.166   6.607  15.463 -0.1017 -1.8294 -1.0421
15960TIP3    H269372   1.308   6.635  15.506 -1.6411  1.3921  2.2623
15961TIP3   OH269373   1.818   5.353  11.158 -0.1138 -0.2024 -0.1336
15961TIP3    H169374   1.800   5.265  11.125  0.8484 -0.2722 -0.4757
15961TIP3    H269375   1.819   5.343  11.254 -1.3784 -0.2884 -0.1210
15962TIP3   OH269376   2.572   4.766  11.563  0.2787 -0.4908  0.2387
15962TIP3    H169377   2.573   4.677  11.528 -2.1751 -0.1873 -0.6952
15962TIP3    H269378   2.492   4.805  11.529  1.6678  2.3465  0.0334
15963TIP3   OH269379   3.891   4.872   5.574  0.3775  0.1994  0.3380
15963TIP3    H169380   3.945   4.797   5.601  0.0902 -0.3110 -0.4859
15963TIP3    H269381   3.907   4.881   5.480  2.0097  2.5035  0.7980
15964TIP3   OH269382   0.666   3.994   3.287 -0.4694  0.0315  0.2024
15964TIP3    H169383   0.591   3.951   3.328  0.4140  0.4258  2.2955
15964TIP3    H269384   0.718   4.026   3.361  0.5771  1.7764 -1.2648
15965TIP3   OH269385   0.885   1.626  11.309 -0.3113 -0.6457 -0.2843
15965TIP3    H169386   0.794   1.641  11.284 -0.0136  0.4765 -0.7086
15965TIP3    H269387   0.935   1.646  11.231  0.2590 -1.8637 -0.2302
15966TIP3   OH269388   0.854   3.392  15.707 -0.1197 -0.1272  0.1026
15966TIP3    H169389   0.759   3.397  15.692 -0.1565  1.4755  0.8069
15966TIP3    H269390   0.889   3.470  15.665  0.6501  0.3409  1.5640
15967TIP3   OH269391   3.463   3.238   0.676 -0.3110  0.4318  0.4546
15967TIP3    H169392   3.466   3.296   0.752 -1.7320  0.7028  0.3280
15967TIP3    H269393   3.379   3.193   0.684 -0.1698 -0.0375 -0.5983
15968TIP3   OH269394   6.611   0.478  13.734  0.2853 -0.2145  0.2394
15968TIP3    H169395   6.649   0.410  13.679  0.6809  0.8913 -0.8833
15968TIP3    H269396   6.564   0.431  13.803  1.0841 -1.6029 -0.1601
15969TIP3   OH269397   0.798   4.669  12.888 -0.3899  0.3263 -0.0727
15969TIP3    H169398   0.813   4.649  12.796 -1.1190 -0.0955 -0.1032
15969TIP3    H269399   0.721   4.726  12.889 -0.0135  0.8378  0.2290
15970TIP3   OH269400   4.376   0.079  16.543  0.0343  0.2969  0.2654
15970TIP3    H169401   4.355   0.063  16.452 -0.3247  1.8026  0.0678
15970TIP3    H269402   4.364   0.173  16.554  1.8049  0.4103  1.4068
15971TIP3   OH269403   1.251   3.690   3.415 -0.2553  0.0893  0.4865
15971TIP3    H169404   1.212   3.638   3.486 -1.4824 -0.4512 -0.5693
15971TIP3    H269405   1.242   3.780   3.444 -0.6962 -0.1316  1.0507
15972TIP3   OH269406   3.702   4.502   3.989  0.0300  0.1214  0.3269
15972TIP3    H169407   3.766   4.470   3.925 -0.0714  0.4293  0.0677
15972TIP3    H269408   3.632   4.437   3.988  0.1258  0.0184  0.2788
15973TIP3   OH269409   0.635   0.245  12.266  0.0784  0.2776  0.5585
15973TIP3    H169410   0.582   0.254  12.345  0.8774 -1.7124  1.3785
15973TIP3    H269411   0.575   0.210  12.201 -0.7444  2.5381  0.0606
15974TIP3   OH269412   5.309   1.116  17.147  0.1066 -0.1828 -0.8296
15974TIP3    H169413   5.283   1.153  17.232 -0.8561 -1.2584 -0.6490
15974TIP3    H269414   5.393   1.073  17.165  0.7173  0.9996 -0.8065
15975TIP3   OH269415   6.407   1.068  11.915  0.4557 -0.2191 -0.4270
15975TIP3    H169416   6.363   0.987  11.889  3.0169 -1.9291  0.4175
15975TIP3    H269417   6.451   1.046  11.997  2.3858  1.5983 -0.9469
15976TIP3   OH269418   2.317   6.120  17.047  0.5645  0.6297  0.5074
15976TIP3    H169419   2.342   6.127  17.139  2.2273 -0.1810  0.1241
15976TIP3    H269420   2.223   6.139  17.046  0.3795 -0.1096  2.4713
15977TIP3   OH269421   5.181   2.315  10.204  0.4445 -0.4369  0.7426
15977TIP3    H169422   5.167   2.234  10.254 -2.2778 -0.7379 -0.3752
15977TIP3    H269423   5.245   2.364  10.254  0.1046 -2.1117  2.8832
15978TIP3   OH269424   6.772   5.805   3.828  0.1987 -0.5062  0.0031
15978TIP3    H169425   6.829   5.882   3.831  0.1088 -0.4731  1.5788
15978TIP3    H269426   6.832   5.730   3.830  0.2349 -0.4706  0.3381
15979TIP3   OH269427   2.256   2.484   3.155 -0.8205 -0.1924 -0.3864
15979TIP3    H169428   2.333   2.541   3.146 -1.2754  0.3205 -1.0317
15979TIP3    H269429   2.264   2.448   3.243  0.7048 -0.9285 -0.7972
15980TIP3   OH269430   1.535   3.792  16.918  0.1056  0.3019  0.0487
15980TIP3    H169431   1.630   3.787  16.924  0.0699  0.6894  1.0842
15980TIP3    H269432   1.509   3.708  16.880  0.7524 -0.4696  1.2663
15981TIP3   OH269433   3.538   3.796   5.108  0.1300 -0.0013 -0.1285
15981TIP3    H169434   3.600   3.736   5.149 -0.0918  0.6592  1.2097
15981TIP3    H269435   3.487   3.831   5.181 -1.4831 -0.1511 -1.1660
15982TIP3   OH269436   0.718   5.895   6.648  0.2660 -0.0914 -0.3794
15982TIP3    H169437   0.637   5.855   6.680 -0.3670  0.9055 -0.7132
15982TIP3    H269438   0.772   5.907   6.726 -1.3304  2.4872  0.3842
15983TIP3   OH269439   0.651   3.108   6.127  0.0876 -0.1900 -0.1480
15983TIP3    H169440   0.712   3.047   6.084  1.1598 -0.4503  1.6995
15983TIP3    H269441   0.707   3.167   6.176 -1.0913  0.6245  0.2336
15984TIP3   OH269442   5.010   5.279  13.377 -0.0955  0.1258 -0.1623
15984TIP3    H169443   5.030   5.315  13.463 -0.1934  0.9206 -0.4680
15984TIP3    H269444   5.086   5.301  13.323 -1.9394  3.7075 -1.4938
15985TIP3   OH269445   2.013   5.187  10.980 -0.4272  0.4364 -0.4269
15985TIP3    H169446   2.046   5.274  11.003 -2.2225  0.7163  1.3234
15985TIP3    H269447   2.043   5.130  11.051 -0.1137 -0.1741 -1.0423
15986TIP3   OH269448   5.575   5.199   1.907 -0.2629 -0.0285  0.0602
15986TIP3    H169449   5.653   5.147   1.885 -0.9949 -1.5496  0.9808
15986TIP3    H269450   5.508   5.134   1.928 -0.8163  1.2871  2.5364
15987TIP3   OH269451   5.494   4.489   1.135  0.2583 -0.4921  0.3608
15987TIP3    H169452   5.518   4.468   1.226 -1.9776 -0.1007  1.0713
15987TIP3    H269453   5.529   4.576   1.120  1.4725 -0.9397  0.5109
15988TIP3   OH269454   3.213   6.660  11.128 -0.0642  0.1604  0.1562
15988TIP3    H169455   3.231   6.570  11.156  1.6578  0.2351 -0.6495
15988TIP3    H269456   3.210   6.656  11.032  1.1378  1.1448  0.0641
15989TIP3   OH269457   5.277   6.449  15.844  0.1994  0.0459  0.3903
15989TIP3    H169458   5.303   6.511  15.775  0.0595  0.3758  0.6374
15989TIP3    H269459   5.242   6.504  15.914 -0.2086 -0.3310  0.4839
15990TIP3   OH269460   0.355   6.240   2.191  0.7922  1.1949 -0.3163
15990TIP3    H169461   0.320   6.281   2.270 -0.5845 -0.0048 -0.2892
15990TIP3    H269462   0.450   6.237   2.206  0.3181 -1.7349  2.6737
15991TIP3   OH269463   1.768   0.688  13.233  0.0914  0.7317 -0.0779
15991TIP3    H169464   1.731   0.760  13.285  0.9729 -0.2084  1.8931
15991TIP3    H269465   1.835   0.730  13.178 -0.4262  1.6384 -0.0388
15992TIP3   OH269466   1.649   5.012  12.711  0.3219  0.3016 -0.6067
15992TIP3    H169467   1.572   4.956  12.705 -0.4728  1.4316 -0.9567
15992TIP3    H269468   1.661   5.026  12.805 -0.7504  1.3017 -0.6164
15993TIP3   OH269469   5.231   5.113  14.442 -1.0555 -0.0301 -0.3258
15993TIP3    H169470   5.221   5.115  14.537 -0.6433  4.5905 -0.2780
15993TIP3    H269471   5.325   5.099  14.429 -0.6877  1.9594  0.0393
15994TIP3   OH269472   5.402   6.703   2.779  0.8710  0.1940  0.4966
15994TIP3    H169473   5.368   6.699   2.690 -0.6633 -1.8620  1.1316
15994TIP3    H269474   5.377   6.790   2.811  0.5111  0.5385 -0.7109
15995TIP3   OH269475   3.276   5.961   1.509  0.7799  0.4540  0.3253
15995TIP3    H169476   3.340   5.922   1.568  1.5302 -0.6454 -1.1811
15995TIP3    H269477   3.192   5.945   1.552  1.3205 -0.1483  1.1911
15996TIP3   OH269478   6.687   5.729  16.584 -0.3209 -0.8859 -0.0354
15996TIP3    H169479   6.609   5.775  16.552 -0.0045  0.2018  0.7142
15996TIP3    H269480   6.752   5.798  16.597  0.4125 -1.6459  0.3793
15997TIP3   OH269481   6.586   5.695   0.872 -0.7289  0.0875 -0.2870
15997TIP3    H169482   6.546   5.740   0.798  1.9769 -0.3788 -2.1093
15997TIP3    H269483   6.680   5.702   0.856 -0.1592 -2.7939  1.4536
15998TIP3   OH269484   1.268   6.301   4.522 -0.1871  0.3993 -0.0382
15998TIP3    H169485   1.343   6.326   4.576  0.2778  0.0434 -0.5147
15998TIP3    H269486   1.213   6.380   4.519  0.5189  0.8855 -0.2837
15999TIP3   OH269487   4.625   6.572  11.566  0.2029 -0.3672 -0.4497
15999TIP3    H169488   4.705   6.619  11.587 -0.3522 -0.1223  1.1455
15999TIP3    H269489   4.597   6.608  11.482  1.7103 -0.4041 -0.9751
16000TIP3   OH269490   3.854   4.920  12.693  0.1681  0.0759 -0.6191
16000TIP3    H169491   3.942   4.939  12.661  0.9663  0.1906  1.5467
16000TIP3    H269492   3.865   4.910  12.788 -1.7279 -2.5021 -0.6288
16001TIP3   OH269493   2.800   5.342   2.947  0.0278 -0.3897  0.6329
16001TIP3    H169494   2.710   5.346   2.979  0.3227  0.8092  1.3321
16001TIP3    H269495   2.848   5.296   3.015  0.3652  0.8858  1.2764
16002TIP3   OH269496   3.318   1.848   0.076 -0.0612  0.4518 -0.5101
16002TIP3    H169497   3.299   1.929   0.123 -2.4985  1.0883 -2.4685
16002TIP3    H269498   3.414   1.845   0.071  0.0881  2.5328  0.7532
16003TIP3   OH269499   2.065   6.420   3.529  0.2411  0.3806  0.0911
16003TIP3    H169500   2.115   6.377   3.598 -0.3493 -0.6319 -0.1008
16003TIP3    H269501   2.078   6.366   3.452 -0.7403  0.3878 -0.0879
16004TIP3   OH269502   5.456   2.910   5.435 -0.9977  0.1504 -0.0329
16004TIP3    H169503   5.462   2.968   5.358  0.4860  1.2421  0.8781
16004TIP3    H269504   5.379   2.855   5.418 -2.3930  2.3387 -0.9541
16005TIP3   OH269505   2.013   6.148  12.262  0.0802 -0.2409 -0.3518
16005TIP3    H169506   2.062   6.207  12.204  1.3127 -0.3366  0.5707
16005TIP3    H269507   1.956   6.099  12.204  0.8294  0.1329 -1.4118
16006TIP3   OH269508   0.445   4.492   1.682 -0.0258 -0.1421  0.0733
16006TIP3    H169509   0.378   4.557   1.701  0.1990  0.3815 -0.9015
16006TIP3    H269510   0.468   4.454   1.767 -1.5630 -0.3305  0.4090
16007TIP3   OH269511   2.858   4.350  15.446  0.3246 -0.1611  0.2025
16007TIP3    H169512   2.916   4.425  15.430 -1.7840  1.8154  1.4344
16007TIP3    H269513   2.834   4.319  15.359  2.4326 -0.4004 -0.3299
16008TIP3   OH269514   4.138   0.349   4.629  0.5727  0.6427  0.1444
16008TIP3    H169515   4.145   0.441   4.654 -2.1305  0.6308  1.1285
16008TIP3    H269516   4.053   0.321   4.663  0.0380 -1.4248 -2.6565
16009TIP3   OH269517   0.998   5.552  14.393  0.0461 -0.5879  0.3889
16009TIP3    H169518   1.050   5.525  14.317  0.4612  0.8607  0.1464
16009TIP3    H269519   0.998   5.647  14.389 -0.0790 -0.5046  2.1130
16010TIP3   OH269520   4.072   3.220  10.839  0.5562  0.3487 -0.1692
16010TIP3    H169521   4.160   3.244  10.811  0.7637 -0.9088 -0.6591
16010TIP3    H269522   4.046   3.151  10.778 -0.1015 -0.4551  1.0013
16011TIP3   OH269523   5.541   5.575  10.993 -0.0902 -0.2772 -0.0587
16011TIP3    H169524   5.452   5.540  11.004 -0.5118  1.2245  1.4221
16011TIP3    H269525   5.543   5.653  11.048  2.0092 -0.0352 -0.4542
16012TIP3   OH269526   2.685   6.342  16.760 -0.1215 -0.0469  0.8053
16012TIP3    H169527   2.705   6.425  16.715 -0.7411  0.2073  0.9855
16012TIP3    H269528   2.620   6.366  16.826  1.1905 -0.3227  2.2067
16013TIP3   OH269529   3.682   0.724   0.518 -0.1448 -0.6451  0.0967
16013TIP3    H169530   3.671   0.744   0.611  1.7149  1.5671 -0.1173
16013TIP3    H269531   3.619   0.780   0.474  0.0704 -0.5399 -0.0768
16014TIP3   OH269532   2.945   6.332   2.528 -0.2457 -0.1496  0.0375
16014TIP3    H169533   2.941   6.328   2.433 -0.2867  0.0359  0.0324
16014TIP3    H269534   2.893   6.257   2.558 -2.4695  1.3194 -0.0436
16015TIP3   OH269535   0.100   2.567  14.869 -0.1850  0.2844  0.1544
16015TIP3    H169536   0.031   2.632  14.857 -0.3921  0.0738  0.2123
16015TIP3    H269537   0.128   2.546  14.780  0.2382  0.8337  0.1534
16016TIP3   OH269538   4.984   0.879  14.780 -0.5736 -0.7560  0.9072
16016TIP3    H169539   5.056   0.833  14.821 -0.8182 -1.6589  0.3378
16016TIP3    H269540   4.920   0.811  14.760 -1.3283 -0.0498  0.8775
16017TIP3   OH269541   1.129   3.016  14.570  0.3532 -0.0327 -0.4005
16017TIP3    H169542   1.105   3.062  14.489 -2.8715 -1.2356 -0.1936
16017TIP3    H269543   1.084   3.064  14.639  1.7565 -0.0120  0.5311
16018TIP3   OH269544   3.213   5.592   4.625 -0.5043 -0.2705 -0.5128
16018TIP3    H169545   3.236   5.506   4.661  1.9457  0.7003  0.3265
16018TIP3    H269546   3.249   5.592   4.537  4.8171  1.9705  1.4594
16019TIP3   OH269547   4.590   0.035   1.279  0.3138  0.8104  0.7331
16019TIP3    H169548   4.584  -0.016   1.360 -0.4514  1.0204  0.8140
16019TIP3    H269549   4.530  -0.010   1.219  2.1001 -0.3102 -0.2436
16020TIP3   OH269550   3.659   3.357   0.379  0.4654  0.4275  0.3003
16020TIP3    H169551   3.631   3.431   0.433  0.8085 -0.2580  1.4267
16020TIP3    H269552   3.627   3.279   0.426  1.0110 -0.1939 -0.3394
16021TIP3   OH269553   3.796   2.084  12.783  0.1985  0.7155  0.2950
16021TIP3    H169554   3.808   2.177  12.764 -0.8380  1.1038  1.4876
16021TIP3    H269555   3.740   2.083  12.861 -0.4082 -0.9128 -0.1515
16022TIP3   OH269556   1.173   5.820   5.412  0.2163 -0.0406 -0.1285
16022TIP3    H169557   1.078   5.824   5.404  0.2336 -0.5185 -0.6716
16022TIP3    H269558   1.203   5.909   5.392 -0.0478 -0.1660 -1.1017
16023TIP3   OH269559   5.798   5.977   0.089 -0.2309 -0.1949  0.0603
16023TIP3    H169560   5.824   6.007   0.002  1.6695 -2.7960 -0.3364
16023TIP3    H269561   5.784   5.883   0.078 -0.7491 -0.4140  2.4015
16024TIP3   OH269562   0.967   0.830  14.754  0.3766  0.0531 -0.4552
16024TIP3    H169563   1.053   0.792  14.770  0.2037 -0.0145  0.3107
16024TIP3    H269564   0.907   0.778  14.807 -0.0303  0.5766 -0.3967
16025TIP3   OH269565   6.708   4.182   5.312  0.1359 -0.4557 -1.1238
16025TIP3    H169566   6.801   4.193   5.295 -0.0965  1.6686 -1.0948
16025TIP3    H269567   6.679   4.120   5.244  1.5841 -1.3115 -0.9918
16026TIP3   OH269568   6.354   6.496   6.267  0.3820 -0.5885 -0.0269
16026TIP3    H169569   6.432   6.469   6.316  0.7495 -0.9958 -0.8128
16026TIP3    H269570   6.342   6.426   6.202 -2.0735 -1.7887  1.6421
16027TIP3   OH269571   2.417   2.173   6.493  0.7087  0.5208 -0.3776
16027TIP3    H169572   2.502   2.144   6.524  0.1211 -0.1182  0.6832
16027TIP3    H269573   2.403   2.257   6.536  0.0197 -0.2317  0.9295
16028TIP3   OH269574   3.434   2.729  14.481 -0.0063  0.6389  0.1947
16028TIP3    H169575   3.360   2.731  14.542 -1.8242  1.0717 -1.9999
16028TIP3    H269576   3.468   2.640  14.486 -0.9026  0.3384  0.9152
16029TIP3   OH269577   5.486   0.871  16.895 -0.4077  0.2957 -0.3238
16029TIP3    H169578   5.497   0.947  16.951  0.7330 -0.3276  0.3201
16029TIP3    H269579   5.448   0.804  16.953  1.5247 -0.6055 -0.0482
16030TIP3   OH269580   2.735   1.356   5.736 -0.2628  0.3833  0.2910
16030TIP3    H169581   2.761   1.267   5.710 -1.4789  0.9107 -2.9212
16030TIP3    H269582   2.649   1.345   5.774 -0.7471  0.2499 -0.8133
16031TIP3   OH269583   2.911   3.640  11.926  0.4383 -0.1675 -0.7278
16031TIP3    H169584   2.900   3.633  12.021  0.1989 -1.6220 -0.8538
16031TIP3    H269585   2.968   3.567  11.903  0.6151  0.2655 -1.6908
16032TIP3   OH269586   6.243   2.366   3.300  0.2375  0.6258  0.7546
16032TIP3    H169587   6.175   2.299   3.289 -0.6285  1.4591  0.9316
16032TIP3    H269588   6.318   2.318   3.336  0.6346 -0.7724 -1.8245
16033TIP3   OH269589   0.942   0.435   1.873  0.1255 -0.4546  0.1963
16033TIP3    H169590   0.960   0.342   1.860  0.7827 -0.4892  1.2919
16033TIP3    H269591   0.852   0.447   1.844 -0.5292 -1.7793  1.6456
16034TIP3   OH269592   4.993   2.793   0.087  0.1114  0.2121  0.2191
16034TIP3    H169593   4.904   2.760   0.095 -0.0485  0.5699 -0.0670
16034TIP3    H269594   5.038   2.760   0.164 -0.7804  1.6909  1.4088
16035TIP3   OH269595   0.639   2.418   0.770 -0.5370  0.4446  0.3208
16035TIP3    H169596   0.638   2.499   0.720  0.5767  0.0128 -0.4280
16035TIP3    H269597   0.557   2.375   0.746  0.1923  0.0286 -1.5380
16036TIP3   OH269598   1.473   4.434   6.575  0.4280 -0.3936 -0.7338
16036TIP3    H169599   1.495   4.484   6.497 -0.5875  1.2106 -0.0253
16036TIP3    H269600   1.473   4.499   6.646 -1.3718 -1.2947  0.1296
16037TIP3   OH269601   6.684   4.998  11.340 -0.0033  0.3679 -0.9025
16037TIP3    H169602   6.696   4.978  11.248 -2.2716 -0.2645 -1.0827
16037TIP3    H269603   6.615   5.065  11.342  1.5345  1.9901  0.2187
16038TIP3   OH269604   6.261   4.686  12.155  0.4777 -0.0573 -0.0636
16038TIP3    H169605   6.345   4.700  12.111  0.4518 -0.4511 -0.2319
16038TIP3    H269606   6.269   4.600  12.196 -0.2590 -0.5884 -1.0179
16039TIP3   OH269607   2.270   2.440   2.435 -0.1544  0.1720 -0.1252
16039TIP3    H169608   2.259   2.515   2.376  0.3643  0.9178  0.7008
16039TIP3    H269609   2.213   2.460   2.509  0.1085 -0.1719  0.1693
16040TIP3   OH269610   0.232   5.215   0.973 -0.9050  0.8870 -0.2274
16040TIP3    H169611   0.147   5.214   1.017 -1.0327 -1.9500 -0.4715
16040TIP3    H269612   0.287   5.155   1.024  0.1620  0.6844 -1.5759
16041TIP3   OH269613   6.780   1.617   2.883  0.4191 -0.1741  0.3204
16041TIP3    H169614   6.867   1.586   2.909  0.3554  0.4290  1.2482
16041TIP3    H269615   6.719   1.559   2.928  0.3133  0.7201  1.3406
16042TIP3   OH269616   5.252   5.873   5.897 -0.1350 -0.7432  0.1285
16042TIP3    H169617   5.346   5.890   5.901 -0.3150  0.4333 -0.3832
16042TIP3    H269618   5.239   5.795   5.952  0.9723 -0.2155  1.1589
16043TIP3   OH269619   4.406   1.649   2.433 -0.0008 -0.1588 -0.1971
16043TIP3    H169620   4.480   1.614   2.382  0.4977 -1.4775  1.3664
16043TIP3    H269621   4.445   1.674   2.516 -1.2394 -0.4039  0.4607
16044TIP3   OH269622   0.459   2.484   5.791 -0.6631 -0.2010  0.0165
16044TIP3    H169623   0.486   2.396   5.766 -2.5628 -1.0260  0.8127
16044TIP3    H269624   0.438   2.527   5.708 -2.0567 -1.2996 -0.2194
16045TIP3   OH269625   4.676   3.087  15.399 -0.1308 -0.3971  0.1362
16045TIP3    H169626   4.675   3.022  15.328 -0.8825  0.4620 -0.6591
16045TIP3    H269627   4.643   3.041  15.475  2.7244 -1.9643  0.4938
16046TIP3   OH269628   4.867   4.156   4.767  0.1153 -0.0450  0.0525
16046TIP3    H169629   4.867   4.230   4.829  1.5914 -0.9633  1.1792
16046TIP3    H269630   4.781   4.160   4.726 -1.5362 -0.3489  3.3035
16047TIP3   OH269631   6.267   2.620  14.463  0.5944  0.1692 -0.3863
16047TIP3    H169632   6.221   2.660  14.389  2.2032 -2.2782 -2.7883
16047TIP3    H269633   6.336   2.683  14.485  0.1324  0.9008 -0.9867
16048TIP3   OH269634   1.187   3.789  14.458  0.0075 -0.0150  0.4951
16048TIP3    H169635   1.277   3.791  14.492 -0.1716 -1.0173  1.0657
16048TIP3    H269636   1.177   3.700  14.423 -1.0270 -0.1913  1.2166
16049TIP3   OH269637   4.343   2.294  16.020 -0.4354  0.0630  0.5734
16049TIP3    H169638   4.255   2.255  16.027 -1.0239  0.6823 -2.6430
16049TIP3    H269639   4.330   2.370  15.963  1.8334  1.3943  1.7931
16050TIP3   OH269640   6.612   1.234  16.310 -0.0348  0.0756 -0.3647
16050TIP3    H169641   6.651   1.190  16.386  0.1725  2.2231  0.8552
16050TIP3    H269642   6.684   1.245  16.249 -0.1644 -1.5366 -0.8157
16051TIP3   OH269643   2.933   2.797  12.860  0.3367 -0.7492 -0.4003
16051TIP3    H169644   2.958   2.871  12.804  1.7879 -1.4661 -0.7073
16051TIP3    H269645   2.852   2.826  12.901  0.4784  0.7205 -1.0996
16052TIP3   OH269646   5.354   0.165  16.715  0.4853 -0.1488 -0.3909
16052TIP3    H169647   5.368   0.161  16.809  1.6719 -0.3638 -0.5749
16052TIP3    H269648   5.265   0.200  16.706  0.6078  0.5071  0.7938
16053TIP3   OH269649   6.618   2.738  12.127 -0.1233  0.6430 -0.4688
16053TIP3    H169650   6.656   2.792  12.196 -1.0261  2.0040 -1.0267
16053TIP3    H269651   6.599   2.799  12.056  0.2056 -0.6338 -1.6934
16054TIP3   OH269652   1.636   5.847  12.830  0.2743 -0.0128  0.3703
16054TIP3    H169653   1.690   5.925  12.843 -0.6048  0.6776 -0.0652
16054TIP3    H269654   1.549   5.882  12.810  0.0329 -1.1022 -0.4888
16055TIP3   OH269655   4.649   0.281   0.627 -0.6295 -0.1512  0.4101
16055TIP3    H169656   4.650   0.350   0.694  2.8875  0.0876  0.2118
16055TIP3    H269657   4.650   0.329   0.544 -0.1459 -0.4292  0.2537
16056TIP3   OH269658   4.057   2.505   2.388  0.3546  0.3367  0.1713
16056TIP3    H169659   4.146   2.536   2.373  0.1955  0.4107 -0.6959
16056TIP3    H269660   4.005   2.585   2.397 -0.0383  0.3682 -1.9632
16057TIP3   OH269661   3.499   2.553  15.354  0.7596  0.6729 -0.0899
16057TIP3    H169662   3.552   2.483  15.316  1.0801  0.8677 -0.0044
16057TIP3    H269663   3.411   2.538  15.320  0.2285 -1.3722  2.0423
16058TIP3   OH269664   2.102   1.261  16.327 -0.1423 -0.2285  0.2035
16058TIP3    H169665   2.176   1.319  16.349  1.7792 -2.6127  0.1995
16058TIP3    H269666   2.047   1.262  16.405  0.4386  0.7408  0.6142
16059TIP3   OH269667   2.495   0.138  12.891 -0.1749 -0.3364  0.1835
16059TIP3    H169668   2.418   0.161  12.840  0.3463 -0.0633 -0.4811
16059TIP3    H269669   2.540   0.071  12.839  0.2768 -0.1721  0.3548
16060TIP3   OH269670   2.968   6.218  12.073 -0.1762 -0.5686 -0.8008
16060TIP3    H169671   2.915   6.213  12.152 -1.1614 -0.7877 -1.4636
16060TIP3    H269672   3.038   6.281  12.094  0.0536 -1.2455  0.5009
16061TIP3   OH269673   1.444   2.592   3.308  0.1515 -0.2273  0.2485
16061TIP3    H169674   1.422   2.677   3.271  0.1046  0.8724  2.7035
16061TIP3    H269675   1.539   2.592   3.313  0.1777 -0.5414 -0.2628
16062TIP3   OH269676   4.368   3.227  12.815  0.0659 -0.0182 -0.6489
16062TIP3    H169677   4.444   3.277  12.786 -1.1534  0.9157 -2.2619
16062TIP3    H269678   4.344   3.173  12.740 -2.2560  1.3846 -0.9438
16063TIP3   OH269679   3.681   2.725   0.344 -0.5281 -0.0402 -0.2034
16063TIP3    H169680   3.593   2.708   0.311 -0.4105 -1.3756  0.1505
16063TIP3    H269681   3.739   2.693   0.275 -0.3056 -0.2573  0.0828
16064TIP3   OH269682   5.822   6.505   0.994 -0.0781  0.1442  0.2682
16064TIP3    H169683   5.731   6.509   1.024 -0.4043 -0.8989 -0.5436
16064TIP3    H269684   5.851   6.596   0.992 -0.5755  0.3673  2.1246
16065TIP3   OH269685   4.142   1.314  13.936  0.1966  0.0156 -0.2052
16065TIP3    H169686   4.081   1.320  13.863 -0.2659 -0.0821  0.1723
16065TIP3    H269687   4.154   1.220  13.949  0.1859  0.0325 -0.0755
16066TIP3   OH269688   3.427   0.642   3.953  0.1998 -0.5478 -0.3110
16066TIP3    H169689   3.471   0.652   3.868  2.0228  0.2544  0.6990
16066TIP3    H269690   3.386   0.727   3.968 -0.1131 -0.6862 -0.3923
16067TIP3   OH269691   5.897   3.694  15.664 -0.5861 -0.2291 -0.0980
16067TIP3    H169692   5.938   3.608  15.656 -0.8846 -0.4082  0.2608
16067TIP3    H269693   5.843   3.688  15.743 -2.0270 -0.3113 -1.0684
16068TIP3   OH269694   3.503   0.268  12.418  0.2230 -0.3708 -0.6203
16068TIP3    H169695   3.595   0.265  12.391  0.1609 -0.2132 -0.8477
16068TIP3    H269696   3.471   0.179  12.404 -0.2606  0.1097 -2.6317
16069TIP3   OH269697   1.377   1.438   4.989 -0.4765 -0.0721 -0.1333
16069TIP3    H169698   1.418   1.460   5.072 -1.5406  0.9054  0.1424
16069TIP3    H269699   1.320   1.512   4.970 -0.0382 -0.1613 -1.8698
16070TIP3   OH269700   5.987   6.064  16.282 -0.2872 -0.3770 -0.9370
16070TIP3    H169701   6.041   6.095  16.355  1.2623  2.3143 -3.1496
16070TIP3    H269702   5.900   6.098  16.301 -0.1890 -0.7437  0.2488
16071TIP3   OH269703   1.606   1.600   5.733 -0.0622  0.0678  0.6705
16071TIP3    H169704   1.695   1.626   5.755  0.5729  0.0199 -1.6870
16071TIP3    H269705   1.571   1.672   5.680 -1.2373 -0.1405  1.1403
16072TIP3   OH269706   1.791   2.397   2.583 -0.0703 -0.3234  0.1079
16072TIP3    H169707   1.817   2.328   2.522  1.5857  0.4961 -0.1305
16072TIP3    H269708   1.782   2.476   2.528 -2.6048 -0.4461  0.2604
16073TIP3   OH269709   4.779   2.034  16.293 -0.9233 -0.0824 -0.3668
16073TIP3    H169710   4.775   2.013  16.386 -0.2611  0.0480 -0.3140
16073TIP3    H269711   4.850   2.097  16.285 -0.0926 -1.0988 -1.1482
16074TIP3   OH269712   2.676   4.365  14.133  0.2047 -0.1148  0.1262
16074TIP3    H169713   2.727   4.330  14.207  1.2352 -0.1472 -0.5866
16074TIP3    H269714   2.665   4.458  14.155 -0.2899 -0.3149  0.7580
16075TIP3   OH269715   3.411   3.600   2.221 -0.4495 -0.1163  0.3978
16075TIP3    H169716   3.413   3.575   2.313 -0.5599 -0.3301  0.3430
16075TIP3    H269717   3.377   3.689   2.221  1.3587  0.5786  0.7049
16076TIP3   OH269718   0.540   4.894  13.217  0.5581  0.1324  0.0768
16076TIP3    H169719   0.460   4.942  13.237 -1.7235 -2.6736 -1.9837
16076TIP3    H269720   0.552   4.836  13.292 -0.3655 -0.7106 -0.4161
16077TIP3   OH269721   1.093   1.673   2.889 -0.4182 -0.1657 -0.1314
16077TIP3    H169722   1.131   1.759   2.870  0.4659 -0.3579  0.7269
16077TIP3    H269723   1.005   1.677   2.852  0.1748  0.5555 -1.5121
16078TIP3   OH269724   0.839   4.323   4.075  0.1137  0.3024  0.5453
16078TIP3    H169725   0.758   4.328   4.024 -0.0015  1.1563  0.8059
16078TIP3    H269726   0.880   4.408   4.063  0.0311  0.5524  1.9582
16079TIP3   OH269727   4.488   6.562   1.300 -0.2058  0.1920  0.4345
16079TIP3    H169728   4.512   6.539   1.210  1.5972  1.7086  0.5061
16079TIP3    H269729   4.550   6.514   1.354  0.5452  1.5014  0.7488
16080TIP3   OH269730   0.272   0.212   0.288  0.9005  0.0830  1.0272
16080TIP3    H169731   0.195   0.180   0.241  1.0278  1.2444 -0.0006
16080TIP3    H269732   0.288   0.146   0.356 -0.9370 -0.1952  1.2000
16081TIP3   OH269733   3.091   4.473   0.076 -0.6997 -0.0446 -0.4170
16081TIP3    H169734   3.042   4.407   0.125 -0.1882 -0.0456  0.0924
16081TIP3    H269735   3.103   4.545   0.138 -0.8570  0.3338 -0.8273
16082TIP3   OH269736   4.536   2.982  12.223  0.0132 -0.2973  0.0061
16082TIP3    H169737   4.556   2.969  12.130  0.6330 -0.0725  0.1049
16082TIP3    H269738   4.443   3.004  12.225  0.2873  0.9784 -0.6778
16083TIP3   OH269739   1.176   3.173   0.848  0.0353  0.2625  0.3932
16083TIP3    H169740   1.229   3.248   0.820 -0.2512  0.1063 -0.5848
16083TIP3    H269741   1.241   3.106   0.872  0.3382 -0.5166 -2.3863
16084TIP3   OH269742   6.248   6.197   5.634 -0.3236 -0.3817 -0.0388
16084TIP3    H169743   6.208   6.115   5.660 -3.2384  0.7995 -0.6018
16084TIP3    H269744   6.208   6.217   5.549 -1.2480  2.6106  1.0432
16085TIP3   OH269745   1.400   3.166   3.758 -0.3267  0.4154  0.1283
16085TIP3    H169746   1.450   3.135   3.834  1.6362  2.0187 -0.4613
16085TIP3    H269747   1.466   3.178   3.690 -1.5757  2.3315 -0.7787
16086TIP3   OH269748   1.729   2.777  13.677  0.5422  0.4862  0.3482
16086TIP3    H169749   1.805   2.820  13.638  1.0554  0.4382  1.2690
16086TIP3    H269750   1.700   2.837  13.746  0.7433 -0.2455  1.0749
16087TIP3   OH269751   3.559   4.457  16.879  0.3348 -0.5728  0.1482
16087TIP3    H169752   3.618   4.523  16.843 -0.5006  1.1216  1.7693
16087TIP3    H269753   3.589   4.443  16.969 -0.2056 -1.5257  0.1889
16088TIP3   OH269754   5.974   4.037  14.222  0.3512 -0.0387 -0.4567
16088TIP3    H169755   6.051   4.049  14.166  1.4754 -1.1429  0.7999
16088TIP3    H269756   5.962   3.942  14.224 -0.7954  0.1126 -0.3002
16089TIP3   OH269757   1.074   5.585   1.420 -0.0454  0.3368 -0.3021
16089TIP3    H169758   1.053   5.550   1.507  0.2511  0.6408 -0.1087
16089TIP3    H269759   1.079   5.680   1.433 -0.7099  0.4351 -0.8016
16090TIP3   OH269760   3.102   4.841  13.982  0.2912  0.2359  0.2930
16090TIP3    H169761   3.151   4.770  14.025  0.3951 -0.4303 -0.8968
16090TIP3    H269762   3.037   4.796  13.929 -0.1511  1.0664  0.1267
16091TIP3   OH269763   5.226   1.795   6.561  0.4098 -0.5237  0.3449
16091TIP3    H169764   5.311   1.754   6.546 -0.2733 -1.3741 -1.3106
16091TIP3    H269765   5.162   1.727   6.537 -0.7350  1.1601 -1.5326
16092TIP3   OH269766   6.408   1.303  14.152  0.6356  0.2326 -0.1510
16092TIP3    H169767   6.365   1.238  14.208  1.3941 -0.1456 -0.0020
16092TIP3    H269768   6.374   1.286  14.064 -2.0259  2.0513  0.4589
16093TIP3   OH269769   6.265   0.838   3.387  0.2755  0.1312 -0.1787
16093TIP3    H169770   6.267   0.743   3.385  0.5743  0.0581  1.9886
16093TIP3    H269771   6.184   0.862   3.342 -0.5449 -1.2288  0.5418
16094TIP3   OH269772   5.365   3.585  13.121  0.4463  0.1852 -0.2061
16094TIP3    H169773   5.379   3.573  13.215 -3.0879 -0.4149  0.3097
16094TIP3    H269774   5.373   3.498  13.083 -2.9590 -0.4438  0.3217
16095TIP3   OH269775   1.219   4.107  13.523  0.7026  0.1801  0.1694
16095TIP3    H169776   1.280   4.145  13.460  1.1032 -0.7074  0.0018
16095TIP3    H269777   1.274   4.051  13.579  0.2241  0.2975  0.7649
16096TIP3   OH269778   1.738   3.623  13.353 -0.0549  0.7021  0.1907
16096TIP3    H169779   1.685   3.544  13.345  0.5205  0.3639 -0.3146
16096TIP3    H269780   1.718   3.673  13.274  2.8103 -0.9205 -1.6433
16097TIP3   OH269781   4.165   5.325   2.272 -0.0316  0.6531 -0.3011
16097TIP3    H169782   4.157   5.267   2.348  0.2987  2.7329  1.3629
16097TIP3    H269783   4.259   5.332   2.257 -0.0456  1.2075 -0.1389
16098TIP3   OH269784   1.793   4.807   3.576 -0.3220  0.2287  0.4705
16098TIP3    H169785   1.741   4.734   3.610 -0.5430 -0.6197 -1.6361
16098TIP3    H269786   1.759   4.822   3.488  2.4225  0.2265 -0.6337
16099TIP3   OH269787   1.581   3.891   4.864 -0.2081  0.7147  0.4174
16099TIP3    H169788   1.501   3.842   4.844  1.0039 -0.6897 -1.1870
16099TIP3    H269789   1.603   3.934   4.781  0.9285  0.7237  0.7195
16100TIP3   OH269790   6.475   1.397   2.533 -0.5641 -0.1281 -0.2263
16100TIP3    H169791   6.536   1.470   2.543 -1.9387  1.0535 -0.2308
16100TIP3    H269792   6.502   1.334   2.599  0.8974  0.1971 -0.4929
16101TIP3   OH269793   3.040   6.234   3.517 -0.2751  0.3715 -0.2504
16101TIP3    H169794   3.036   6.322   3.479 -0.4576  1.1372  1.4645
16101TIP3    H269795   3.066   6.249   3.608  1.1704 -1.4703 -0.3201
16102TIP3   OH269796   1.293   0.022  13.564 -0.5975  0.2348 -0.4510
16102TIP3    H169797   1.371   0.011  13.618 -1.9952  1.2219  1.8374
16102TIP3    H269798   1.304   0.108  13.524  0.9756 -0.9689 -2.6959
16103TIP3   OH269799   2.796   2.511  12.107 -0.2498  0.3823  0.0781
16103TIP3    H169800   2.738   2.435  12.098  0.5672 -0.6398  2.9335
16103TIP3    H269801   2.784   2.560  12.026 -1.8552 -2.0654 -1.2276
16104TIP3   OH269802   4.959   5.688   4.046  0.0721  0.3897 -0.1105
16104TIP3    H169803   4.900   5.630   4.094  1.5031 -2.0470 -1.1730
16104TIP3    H269804   4.940   5.671   3.954  2.3773 -0.4769 -0.4831
16105TIP3   OH269805   2.129   4.829  16.031 -0.4774  0.1709 -0.5364
16105TIP3    H169806   2.127   4.792  15.942 -0.9343  0.4589 -0.6496
16105TIP3    H269807   2.043   4.807  16.067  0.4350 -1.6956  0.5569
16106TIP3   OH269808   0.174   2.767   3.182 -0.1806 -0.5677  0.1311
16106TIP3    H169809   0.194   2.764   3.089 -0.3933 -0.7702  0.0929
16106TIP3    H269810   0.237   2.706   3.221 -0.2215 -0.6316  0.0975
16107TIP3   OH269811   2.223   2.657  16.391 -0.2311  0.4972  0.0386
16107TIP3    H169812   2.212   2.580  16.335  0.1594 -0.2215  0.9270
16107TIP3    H269813   2.162   2.642  16.464 -0.1934  1.0527  0.1851
16108TIP3   OH269814   2.465   4.283  12.779 -0.1205 -0.6511  0.3279
16108TIP3    H169815   2.468   4.190  12.801  1.2354 -0.4650  0.9682
16108TIP3    H269816   2.457   4.285  12.684 -0.6213 -1.4213  0.3454
16109TIP3   OH269817   4.848   3.686  12.387 -0.1915  0.2353  0.4589
16109TIP3    H169818   4.753   3.687  12.392 -0.2053  0.4784  0.1539
16109TIP3    H269819   4.874   3.777  12.398 -0.0421  0.2946 -0.3262
16110TIP3   OH269820   5.248   3.224   3.690 -0.3851 -0.2953  0.2184
16110TIP3    H169821   5.231   3.312   3.723 -0.7452 -0.6325  0.9343
16110TIP3    H269822   5.198   3.219   3.608 -0.8182 -0.0295  0.4646
16111TIP3   OH269823   3.420   5.832  16.369 -0.3524  0.5126  0.4025
16111TIP3    H169824   3.472   5.752  16.361 -1.1575  0.0867 -0.6767
16111TIP3    H269825   3.481   5.897  16.403  0.9475  0.0806 -1.0672
16112TIP3   OH269826   4.859   3.755   2.847  0.0946 -0.5792 -0.0834
16112TIP3    H169827   4.789   3.693   2.830 -0.2391  0.0601 -1.0727
16112TIP3    H269828   4.845   3.826   2.784  0.8597  0.1806  0.5774
16113TIP3   OH269829   2.063   4.006   3.358 -0.7792  0.0417 -0.1328
16113TIP3    H169830   2.121   3.982   3.431 -0.8216 -1.4228 -0.5541
16113TIP3    H269831   2.067   4.101   3.354  1.5386 -0.0063 -0.0790
16114TIP3   OH269832   0.632   6.398   0.185  0.0618 -0.3050 -0.6905
16114TIP3    H169833   0.549   6.436   0.154 -0.9581 -2.4832 -0.7197
16114TIP3    H269834   0.625   6.400   0.280 -0.6719 -1.8407 -0.7048
16115TIP3   OH269835   0.982   6.145  14.711 -0.1523  0.0194  0.3214
16115TIP3    H169836   1.023   6.097  14.639  0.4794  1.1575 -0.0753
16115TIP3    H269837   0.924   6.208  14.668 -1.1740 -0.5485  0.8488
16116TIP3   OH269838   0.101   6.310  15.737 -0.2415  0.0622 -0.6081
16116TIP3    H169839   0.010   6.320  15.765 -0.5129  0.2901 -1.5448
16116TIP3    H269840   0.152   6.352  15.807 -0.7095 -1.8544  0.9355
16117TIP3   OH269841   3.637   0.399  14.826 -0.4370  0.2120 -0.3906
16117TIP3    H169842   3.654   0.491  14.804 -0.8417 -0.0569 -1.9127
16117TIP3    H269843   3.724   0.360  14.835 -0.2371  1.1904  2.3384
16118TIP3   OH269844   5.611   1.478   3.577 -0.0556  0.4957 -0.5351
16118TIP3    H169845   5.560   1.492   3.657  3.0452 -0.8477  1.7542
16118TIP3    H269846   5.590   1.389   3.551  0.1857  0.3639 -0.2817
16119TIP3   OH269847   1.193   4.683  12.133 -0.1219  0.6346 -0.1439
16119TIP3    H169848   1.246   4.746  12.182  1.3064 -1.1585  0.6866
16119TIP3    H269849   1.103   4.705  12.156  0.3835  1.9428  0.6730
16120TIP3   OH269850   3.981   5.582   5.065  0.1325  0.2978 -0.6737
16120TIP3    H169851   3.914   5.545   5.007 -2.1184  1.3900  1.1313
16120TIP3    H269852   3.957   5.674   5.073  1.5933  0.5965  0.3998
16121TIP3   OH269853   2.884   6.509  15.856  0.2961  0.0424 -0.0732
16121TIP3    H169854   2.894   6.552  15.941  0.3787  1.5070 -0.8006
16121TIP3    H269855   2.794   6.530  15.829 -0.5412 -2.3885  0.6883
16122TIP3   OH269856   3.174   4.863   2.540  0.0001 -0.6290  0.1833
16122TIP3    H169857   3.109   4.907   2.486  0.6403 -0.1788 -0.2272
16122TIP3    H269858   3.141   4.872   2.630 -1.0797 -1.4192 -0.1268
16123TIP3   OH269859   1.158   5.994   3.585 -0.0010  0.4035 -0.6142
16123TIP3    H169860   1.167   5.900   3.595  0.8367  0.4417 -0.9771
16123TIP3    H269861   1.196   6.031   3.665 -1.7349  0.3931  0.2474
16124TIP3   OH269862   0.902   6.311   4.434 -0.0563  0.0881 -0.0100
16124TIP3    H169863   0.961   6.278   4.502 -0.5972  1.9070  1.4011
16124TIP3    H269864   0.895   6.405   4.452 -0.7882  0.4735 -2.1652
16125TIP3   OH269865   2.790   5.734  17.164  0.4366 -0.2846 -0.0440
16125TIP3    H169866   2.780   5.707  17.072 -1.5675  0.8136 -0.1808
16125TIP3    H269867   2.728   5.806  17.175  1.0331 -0.0485  2.0497
16126TIP3   OH269868   3.931   4.349   4.776  0.3488 -0.1550 -0.3352
16126TIP3    H169869   3.837   4.368   4.771  0.2490 -0.6047 -0.1732
16126TIP3    H269870   3.944   4.321   4.867  0.5089 -0.8131 -0.5664
16127TIP3   OH269871   0.952   2.908  14.782  0.2189  0.1704  0.3532
16127TIP3    H169872   0.907   2.830  14.750 -2.1254  0.7767  2.0553
16127TIP3    H269873   1.041   2.879  14.799  0.3094 -1.2608 -2.3105
16128TIP3   OH269874   5.672   6.227   3.043 -0.3584 -0.1529 -0.6815
16128TIP3    H169875   5.734   6.187   3.103 -0.6349 -1.0719 -1.0061
16128TIP3    H269876   5.690   6.321   3.049  1.0538 -0.4218 -0.7902
16129TIP3   OH269877   4.891   5.543   2.888  0.1939  0.1962 -0.1398
16129TIP3    H169878   4.896   5.594   2.969  3.2185  0.3205 -0.3373
16129TIP3    H269879   4.930   5.458   2.911 -0.6851 -0.4437 -0.9804
16130TIP3   OH269880   2.445   3.094   0.863  0.4570  0.2292  0.0348
16130TIP3    H169881   2.383   3.110   0.933 -1.2363  0.2024 -1.4264
16130TIP3    H269882   2.408   3.138   0.786  1.1514 -1.5815 -1.3886
16131TIP3   OH269883   2.114   1.719   0.798  0.1391 -0.2539 -0.7018
16131TIP3    H169884   2.162   1.639   0.819  0.5246 -0.4063 -2.1513
16131TIP3    H269885   2.127   1.775   0.875  2.5342 -0.3388 -0.9996
16132TIP3   OH269886   3.778   6.152   1.548 -0.4295  0.3381 -0.2921
16132TIP3    H169887   3.721   6.079   1.573  0.1714  0.3620  1.2186
16132TIP3    H269888   3.856   6.110   1.513 -0.1129  0.2447  0.5107
16133TIP3   OH269889   6.490   5.613  15.149 -0.1097 -0.3519 -0.4828
16133TIP3    H169890   6.541   5.685  15.111 -0.0356 -0.1506 -0.0055
16133TIP3    H269891   6.554   5.544  15.165  0.0510 -0.0189  0.3175
16134TIP3   OH269892   6.726   5.112   1.508 -0.4148 -0.8630 -0.2179
16134TIP3    H169893   6.633   5.115   1.530 -0.0719 -0.2618  1.1938
16134TIP3    H269894   6.729   5.131   1.414 -1.7104 -0.8800 -0.2767
16135TIP3   OH269895   2.704   4.336  16.279  0.1516 -0.1142 -0.2539
16135TIP3    H169896   2.744   4.352  16.365  0.5694  2.1722 -0.8390
16135TIP3    H269897   2.614   4.368  16.288  0.1347 -0.0645 -0.5986
16136TIP3   OH269898   3.279   2.968  11.075  0.2900 -0.7398 -0.5122
16136TIP3    H169899   3.318   2.977  10.988 -0.2997 -0.4748 -0.7527
16136TIP3    H269900   3.190   3.003  11.065  0.6466  0.5141  0.5052
16137TIP3   OH269901   5.126   1.606  11.950  0.1858  0.3469  0.7110
16137TIP3    H169902   5.164   1.561  11.875 -0.0515  1.2980  0.0162
16137TIP3    H269903   5.182   1.581  12.024  0.5846 -0.3643  0.1690
16138TIP3   OH269904   6.212   4.081  16.909 -0.7435 -0.5577 -0.2247
16138TIP3    H169905   6.118   4.092  16.926 -0.3604  0.8962  1.0673
16138TIP3    H269906   6.253   4.097  16.994  0.7651  0.2790 -1.0934
16139TIP3   OH269907   0.045   5.510   0.942  0.1994 -0.2292 -0.1343
16139TIP3    H169908   0.084   5.445   0.884 -1.3272 -0.2270 -1.1965
16139TIP3    H269909   0.038   5.589   0.889 -0.1252  0.1195  0.4157
16140TIP3   OH269910   2.024   6.138   1.299  0.6182  0.3036 -0.1080
16140TIP3    H169911   2.062   6.183   1.375 -1.8420  3.9117 -0.8726
16140TIP3    H269912   1.992   6.055   1.334  2.0123  0.6911  2.2061
16141TIP3   OH269913   5.542   4.238  13.758 -0.3705 -0.4779 -0.2559
16141TIP3    H169914   5.536   4.147  13.787 -0.0941 -0.3207  0.3208
16141TIP3    H269915   5.494   4.288  13.824 -1.7078 -0.3488 -1.3232
16142TIP3   OH269916   6.523   0.148  12.009  0.3529 -0.1038  0.2225
16142TIP3    H169917   6.436   0.114  11.990 -0.1517  0.4770  1.4739
16142TIP3    H269918   6.524   0.235  11.970  0.6313 -0.3926 -0.4246
16143TIP3   OH269919   2.987   5.556  17.266 -0.0004  0.5435  0.4496
16143TIP3    H169920   2.939   5.617  17.210  0.1152  1.3436  1.2122
16143TIP3    H269921   3.069   5.539  17.219 -0.0144  1.0136  0.2608
16144TIP3   OH269922   6.086   5.581  13.481 -0.6501 -0.8885 -0.3277
16144TIP3    H169923   6.065   5.561  13.390 -0.4106  1.8989 -1.0596
16144TIP3    H269924   6.018   5.644  13.507  1.4084  1.1454  0.2231
16145TIP3   OH269925   1.532   2.336  13.122  0.1696 -0.2177 -0.1938
16145TIP3    H169926   1.522   2.241  13.116  0.1928 -0.2710  0.5534
16145TIP3    H269927   1.578   2.361  13.041 -1.3577 -0.6149 -1.2015
16146TIP3   OH269928   3.750   0.788   6.092 -0.2608 -0.2881  0.7356
16146TIP3    H169929   3.741   0.703   6.135 -1.7050  0.5033  2.0398
16146TIP3    H269930   3.754   0.767   5.998 -0.0381 -1.8267  1.0856
16147TIP3   OH269931   2.737   1.576  15.774 -0.4024 -0.9253  0.4319
16147TIP3    H169932   2.727   1.594  15.867 -2.9563  1.5586 -0.2447
16147TIP3    H269933   2.815   1.521  15.768  2.0501  1.9808  3.7077
16148TIP3   OH269934   5.378   1.315  10.652  0.5123  0.1451 -0.3018
16148TIP3    H169935   5.381   1.346  10.561 -1.0036  1.1669 -0.0023
16148TIP3    H269936   5.295   1.269  10.659 -0.4329  2.0498  1.2138
16149TIP3   OH269937   1.236   5.193   3.097 -0.2084 -0.0567 -0.4508
16149TIP3    H169938   1.262   5.109   3.061  0.2035 -0.9014  1.8144
16149TIP3    H269939   1.140   5.191   3.095 -0.1966 -0.5295 -0.4545
16150TIP3   OH269940   4.113   2.587   5.216 -0.4855  0.1846  0.5470
16150TIP3    H169941   4.117   2.582   5.312  0.4667  0.6966  0.5418
16150TIP3    H269942   4.200   2.557   5.187 -0.6988  0.2347 -0.1420
16151TIP3   OH269943   2.900   0.195  11.511 -0.2506 -0.9817 -0.5611
16151TIP3    H169944   2.871   0.285  11.525 -3.0635 -1.8874 -0.2365
16151TIP3    H269945   2.961   0.177  11.583 -0.9807  0.1261  0.3419
16152TIP3   OH269946   2.193   4.427   4.593  0.4879 -0.4162 -0.3254
16152TIP3    H169947   2.163   4.362   4.529 -0.8607 -0.8111  0.6870
16152TIP3    H269948   2.166   4.511   4.556 -0.0481 -0.6221 -0.4099
16153TIP3   OH269949   6.298   4.112   5.409 -0.1670 -0.0529 -0.5507
16153TIP3    H169950   6.379   4.067   5.431  0.4738  1.7397  0.8046
16153TIP3    H269951   6.319   4.162   5.330 -0.3173 -0.5800 -0.9260
16154TIP3   OH269952   5.752   3.188   1.524 -0.0096  0.0177  0.2884
16154TIP3    H169953   5.772   3.198   1.431 -0.0082  0.2324  0.3130
16154TIP3    H269954   5.823   3.233   1.570 -0.4403  0.6118  0.3766
16155TIP3   OH269955   5.620   2.145   2.850  0.1256 -0.1643  0.3542
16155TIP3    H169956   5.686   2.086   2.889 -0.1784 -0.1919  0.8319
16155TIP3    H269957   5.662   2.178   2.771  1.9642  2.2051  2.2127
16156TIP3   OH269958   0.907   1.141  14.036 -0.2552 -0.0382  0.5907
16156TIP3    H169959   0.868   1.055  14.021 -1.3488  0.5260  0.1528
16156TIP3    H269960   1.001   1.126  14.033 -0.4448 -0.9835 -0.8385
16157TIP3   OH269961   3.831   4.667   5.022  0.6071 -0.2086  0.7946
16157TIP3    H169962   3.759   4.638   5.078  1.2687 -1.0680  1.2122
16157TIP3    H269963   3.796   4.658   4.933  0.2404 -0.7563  0.9857
16158TIP3   OH269964   6.209   0.287  15.622  0.8010  0.1775 -0.0857
16158TIP3    H169965   6.207   0.323  15.711  1.1718 -1.9169  0.7932
16158TIP3    H269966   6.117   0.275  15.600  0.7398 -1.5093  0.9689
16159TIP3   OH269967   1.215   4.073  11.796 -0.5472 -0.1781  0.0319
16159TIP3    H169968   1.187   4.006  11.734 -0.9733  0.2880 -0.2848
16159TIP3    H269969   1.190   4.156  11.755 -0.6896  0.1416  0.7515
16160TIP3   OH269970   4.593   1.232  12.495  0.1815 -0.5125  0.5606
16160TIP3    H169971   4.580   1.152  12.443 -0.3888  0.0156 -0.1197
16160TIP3    H269972   4.576   1.303  12.434  2.6522  0.1757  0.6297
16161TIP3   OH269973   0.419   5.968  13.006  0.0473  0.2601 -0.2105
16161TIP3    H169974   0.444   6.060  13.008  0.4436  0.1223  1.3988
16161TIP3    H269975   0.379   5.956  12.920 -0.2801  2.0025 -0.3070
16162TIP3   OH269976   3.774   0.338  15.559  0.0855  0.1051 -0.1830
16162TIP3    H169977   3.840   0.337  15.629 -0.4249  0.0072  0.2967
16162TIP3    H269978   3.799   0.266  15.501  0.2391 -0.1076  0.1492
16163TIP3   OH269979   0.946   4.813  12.469 -0.0717  0.5743 -0.2442
16163TIP3    H169980   0.905   4.746  12.413  0.5098  0.3429 -0.3927
16163TIP3    H269981   0.874   4.873  12.489 -0.8327 -0.6182  0.6922
16164TIP3   OH269982   3.135   5.199   1.419  0.4139  0.2286  0.2169
16164TIP3    H169983   3.091   5.143   1.482 -1.9987  1.3260 -0.4295
16164TIP3    H269984   3.081   5.278   1.415  2.4796  1.6428 -0.5866
16165TIP3   OH269985   3.638   3.857  15.191 -0.0193 -0.5182  0.1010
16165TIP3    H169986   3.640   3.762  15.186  1.7055 -0.4500 -1.0707
16165TIP3    H269987   3.726   3.881  15.221 -0.0383  0.7516 -0.8274
16166TIP3   OH269988   2.827   4.686  14.914 -0.1168 -0.2694  0.2938
16166TIP3    H169989   2.893   4.628  14.878  1.4889  1.9409 -0.3774
16166TIP3    H269990   2.747   4.633  14.915  1.3329 -2.5307 -0.1276
16167TIP3   OH269991   1.402   2.442   0.995 -0.5650  0.5343 -0.3926
16167TIP3    H169992   1.346   2.439   0.917 -0.7477 -1.6895 -0.2327
16167TIP3    H269993   1.388   2.528   1.033 -2.1489  0.8290 -1.6210
16168TIP3   OH269994   3.692   5.748  16.071 -0.1978  0.0011 -0.7164
16168TIP3    H169995   3.655   5.663  16.045 -1.0175  0.3204 -0.6294
16168TIP3    H269996   3.786   5.733  16.074 -0.3407 -0.9512 -0.5527
16169TIP3   OH269997   1.570   3.141   0.612  0.7481  0.1851 -0.2499
16169TIP3    H169998   1.530   3.075   0.670  1.9787 -0.2132  0.1646
16169TIP3    H269999   1.558   3.223   0.659  1.6143 -0.1163  0.5251
16170TIP3   OH270000   3.260   6.682   1.687 -0.0349 -0.1517 -0.2454
16170TIP3    H170001   3.247   6.709   1.596 -2.0587  0.3864  0.1780
16170TIP3    H270002   3.186   6.626   1.707  1.0967 -1.3500  0.6879
16171TIP3   OH270003   0.396   3.871   2.421  0.0822  0.0535  0.1852
16171TIP3    H170004   0.373   3.878   2.514 -2.1677  0.2247 -0.3692
16171TIP3    H270005   0.344   3.939   2.378  0.3909 -0.6572 -1.3441
16172TIP3   OH270006   6.751   4.172  13.886 -0.4027  0.1128  0.5837
16172TIP3    H170007   6.841   4.138  13.882  0.7324  2.8169  1.6448
16172TIP3    H270008   6.730   4.196  13.796  0.5953  1.0517  0.5943
16173TIP3   OH270009   5.141   3.799   0.779  0.3692  0.4994 -0.3574
16173TIP3    H170010   5.083   3.848   0.721  0.4044 -0.0090 -0.8235
16173TIP3    H270011   5.200   3.752   0.721 -1.6429 -2.5450 -0.0482
16174TIP3   OH270012   2.795   1.431  11.949  0.4594 -0.3275  0.0593
16174TIP3    H170013   2.877   1.477  11.969 -0.7477  1.5298  0.9787
16174TIP3    H270014   2.791   1.360  12.014  1.4868 -0.6172 -0.1909
16175TIP3   OH270015   6.550   6.725   6.349  0.0790  0.3794 -0.5213
16175TIP3    H170016   6.471   6.728   6.295 -0.7388 -3.5575  0.3294
16175TIP3    H270017   6.523   6.760   6.433 -0.9152 -1.2844 -0.1240
16176TIP3   OH270018   1.846   3.139  12.660 -0.4763  0.6362 -0.5888
16176TIP3    H170019   1.824   3.203  12.592 -1.8030 -0.2235 -0.9974
16176TIP3    H270020   1.764   3.091  12.675 -0.8091  2.1293  3.0569
16177TIP3   OH270021   3.180   5.792  16.256 -0.4921  0.4229 -0.0448
16177TIP3    H170022   3.270   5.801  16.285  0.1936 -1.7758 -1.3536
16177TIP3    H270023   3.136   5.743  16.326 -0.8341  1.9666  0.8408
16178TIP3   OH270024   2.794   0.418   2.776  0.1289 -0.1495 -0.2748
16178TIP3    H170025   2.823   0.500   2.815  0.6483 -0.5562  0.2068
16178TIP3    H270026   2.712   0.439   2.732 -0.7756  0.1940  1.5291
16179TIP3   OH270027   0.365   4.196   4.713  0.1628  0.2885 -0.0393
16179TIP3    H170028   0.330   4.149   4.789  0.0984  0.5735  0.1054
16179TIP3    H270029   0.367   4.287   4.739 -0.6682  0.5029 -0.6858
16180TIP3   OH270030   4.866   5.795  11.725  0.5104 -0.1370 -0.1078
16180TIP3    H170031   4.772   5.809  11.717 -0.1632 -3.8564  0.6276
16180TIP3    H270032   4.900   5.809  11.636 -0.8765  0.1647 -0.5920
16181TIP3   OH270033   5.481   4.176  15.856 -0.0962 -0.2456 -0.7196
16181TIP3    H170034   5.517   4.213  15.936  0.4775 -2.7421  0.2262
16181TIP3    H270035   5.387   4.165  15.875 -0.1315  0.0200 -0.7358
16182TIP3   OH270036   5.485   3.334  11.669  0.5686 -0.1088  0.1268
16182TIP3    H170037   5.528   3.384  11.599  0.9752 -0.8726 -0.1758
16182TIP3    H270038   5.406   3.384  11.689 -0.2178 -0.5399 -1.7832
16183TIP3   OH270039   4.407   1.801   4.000 -0.1318 -0.2311  0.1555
16183TIP3    H170040   4.332   1.766   3.952 -0.8912 -0.5930  1.5906
16183TIP3    H270041   4.388   1.895   4.009 -0.4689 -0.3462  0.6297
16184TIP3   OH270042   6.705   5.654   6.838 -0.1419 -0.1943 -0.0204
16184TIP3    H170043   6.717   5.699   6.922 -2.1605 -0.8024  0.6153
16184TIP3    H270044   6.782   5.598   6.830  0.8629  1.0412  0.6514
16185TIP3   OH270045   0.577   5.821   4.608  0.0928 -0.6793  0.3823
16185TIP3    H170046   0.661   5.796   4.569 -0.9154 -1.2771 -1.4746
16185TIP3    H270047   0.557   5.905   4.566  0.6540  0.4040  2.2342
16186TIP3   OH270048   4.163   0.797   5.475 -0.4475 -0.1967  0.1829
16186TIP3    H170049   4.090   0.858   5.487 -0.4623 -0.4615  1.4518
16186TIP3    H270050   4.181   0.799   5.381 -1.8189  0.1756 -0.0697
16187TIP3   OH270051   5.158   2.197   3.210 -0.6015  0.2541  0.2055
16187TIP3    H170052   5.205   2.273   3.244  0.7447 -0.9141  0.9977
16187TIP3    H270053   5.195   2.182   3.123  0.5665 -0.6964  0.8488
16188TIP3   OH270054   1.685   1.271   6.620  0.3213  0.1360  0.2313
16188TIP3    H170055   1.715   1.347   6.670  0.8513 -0.0236  0.1667
16188TIP3    H270056   1.590   1.272   6.628  0.2542  1.3185 -0.5051
16189TIP3   OH270057   2.830   6.174   0.200  0.6138  0.0493 -0.5625
16189TIP3    H170058   2.757   6.159   0.261  0.4046  1.6616 -0.3751
16189TIP3    H270059   2.901   6.204   0.256  0.5075  1.2784 -1.0674
16190TIP3   OH270060   3.385   1.577   4.678 -0.1050 -0.1172  0.0922
16190TIP3    H170061   3.339   1.578   4.593 -0.0418 -0.5271  0.0533
16190TIP3    H270062   3.410   1.486   4.690 -2.2242 -0.5177  1.6896
16191TIP3   OH270063   4.300   2.863  11.673  0.5596 -0.6003  0.0277
16191TIP3    H170064   4.224   2.810  11.647 -1.1863  1.6936  0.3230
16191TIP3    H270065   4.369   2.836  11.612 -0.1288 -3.5264  0.4496
16192TIP3   OH270066   1.148   3.469  15.711  0.2245  0.2917 -0.1064
16192TIP3    H170067   1.074   3.529  15.700 -0.7422 -0.8820 -0.2389
16192TIP3    H270068   1.225   3.524  15.709 -0.6335  1.4984 -0.4577
16193TIP3   OH270069   2.926   6.013  17.271  0.2892  0.1038  0.2943
16193TIP3    H170070   2.926   5.988  17.363 -0.5465 -0.7104  0.0731
16193TIP3    H270071   2.864   6.086  17.266 -1.3313 -1.2605  0.0106
16194TIP3   OH270072   4.619   2.763  16.509  0.3289  0.2553  0.1004
16194TIP3    H170073   4.617   2.683  16.456 -1.3595  0.3573 -0.0002
16194TIP3    H270074   4.634   2.833  16.446  0.0036  0.2092 -0.0242
16195TIP3   OH270075   4.073   2.547  13.069 -0.0727  0.2242 -0.0014
16195TIP3    H170076   4.042   2.464  13.107  0.9521 -0.3659 -0.4173
16195TIP3    H270077   4.052   2.540  12.976  0.0214  0.4262 -0.0375
16196TIP3   OH270078   6.735   2.207   5.600 -0.2970 -0.2949 -0.2048
16196TIP3    H170079   6.711   2.187   5.510  1.8670  0.6764 -1.0321
16196TIP3    H270080   6.676   2.279   5.625  1.2421  1.6509 -1.9893
16197TIP3   OH270081   4.227   5.801  14.688  0.1995  0.4360  0.3779
16197TIP3    H170082   4.289   5.844  14.629  1.5777  1.4903  2.5155
16197TIP3    H270083   4.143   5.845  14.670 -0.1390 -1.4388 -2.9761
16198TIP3   OH270084   2.197   4.844  15.429  0.8659 -0.9739 -0.2548
16198TIP3    H170085   2.268   4.790  15.462  1.6852  0.4512  0.3935
16198TIP3    H270086   2.152   4.875  15.508 -0.4785 -1.8461 -0.6562
16199TIP3   OH270087   2.602   2.902  15.387  0.0883  0.2064 -0.8578
16199TIP3    H170088   2.619   2.836  15.319 -1.6458  0.3561 -1.4739
16199TIP3    H270089   2.514   2.935  15.366 -1.2462 -0.9945  2.4953
16200TIP3   OH270090   4.797   5.464  11.683 -0.2801 -0.6495  0.6390
16200TIP3    H170091   4.765   5.394  11.739  0.7343  0.9874  3.3532
16200TIP3    H270092   4.831   5.530  11.743  1.7396  0.7680 -1.9338
16201TIP3   OH270093   2.209   3.851   4.788 -0.2779 -0.0965  0.2640
16201TIP3    H170094   2.125   3.838   4.743 -1.0357  2.9016  0.6855
16201TIP3    H270095   2.273   3.858   4.718 -1.0130  1.5815 -0.2710
16202TIP3   OH270096   6.589   3.552  11.405 -0.0829  0.3947 -0.7770
16202TIP3    H170097   6.672   3.570  11.449  1.4775  0.3843 -3.6236
16202TIP3    H270098   6.558   3.637  11.376 -1.2445  0.4326  0.5251
16203TIP3   OH270099   2.298   1.925   4.084 -0.2972 -0.5067  0.7776
16203TIP3    H170100   2.384   1.901   4.051  0.2842 -0.1636  2.0178
16203TIP3    H270101   2.277   2.007   4.040 -0.2100 -0.8347  0.1170
16204TIP3   OH270102   1.391   5.974   1.748 -0.1211  0.4221  0.6338
16204TIP3    H170103   1.374   6.068   1.751 -0.6432  0.3454  0.1434
16204TIP3    H270104   1.353   5.945   1.665  1.1114 -0.0070  0.1974
16205TIP3   OH270105   2.279   5.208  13.585  0.3605 -0.0957  0.2326
16205TIP3    H170106   2.195   5.173  13.613  0.5139  1.1150  2.3061
16205TIP3    H270107   2.256   5.271  13.516 -0.6759  1.9580  2.3936
16206TIP3   OH270108   5.639   1.868  12.365  0.3673 -0.4683  0.0560
16206TIP3    H170109   5.590   1.950  12.356  1.3803  0.2710  1.1780
16206TIP3    H270110   5.671   1.849  12.276  0.1925  0.3895 -0.1929
16207TIP3   OH270111   3.722   3.778  12.995 -0.0560 -0.1353 -0.1870
16207TIP3    H170112   3.671   3.798  12.916 -0.2082  1.2746  0.2450
16207TIP3    H270113   3.660   3.737  13.055 -1.3162  3.5542  1.1784
16208TIP3   OH270114   4.847   0.874  11.028  0.1418  0.1059 -0.0276
16208TIP3    H170115   4.857   0.795  11.082 -0.3709  0.6733  0.9221
16208TIP3    H270116   4.752   0.889  11.026  0.2751  1.0545  0.3445
16209TIP3   OH270117   2.055   5.275  13.861  0.1701 -0.1270 -0.8417
16209TIP3    H170118   2.039   5.307  13.773  0.6144 -0.8533 -1.1925
16209TIP3    H270119   1.997   5.200  13.871  0.2093 -0.1233 -0.5608
16210TIP3   OH270120   3.927   2.021  11.416  0.3078 -0.1267  0.5050
16210TIP3    H170121   3.946   1.928  11.429  0.6224 -0.2162 -0.5416
16210TIP3    H270122   3.976   2.044  11.337 -0.5314  0.7008  0.2222
16211TIP3   OH270123   5.176   6.108   3.038 -0.0234  0.0776 -0.2008
16211TIP3    H170124   5.090   6.140   3.011 -0.0139  1.8304  1.7189
16211TIP3    H270125   5.159   6.056   3.117  0.5478 -0.5525 -0.4861
16212TIP3   OH270126   0.826   6.151   0.334  0.1460 -0.7423 -0.2707
16212TIP3    H170127   0.733   6.128   0.340  0.8361 -3.0021  2.6558
16212TIP3    H270128   0.862   6.091   0.270 -0.0343 -1.1760  0.0339
16213TIP3   OH270129   4.386   4.587  13.786  0.1254  0.2864  0.2352
16213TIP3    H170130   4.306   4.586  13.734 -1.0952 -0.8138  2.0801
16213TIP3    H270131   4.356   4.579  13.877  2.2668  1.0172  1.0344
16214TIP3   OH270132   4.147   1.871  15.571 -0.0297  0.4204  0.3438
16214TIP3    H170133   4.161   1.845  15.662 -0.5807  1.0033  0.5984
16214TIP3    H270134   4.225   1.838  15.524  0.3876  0.3681  1.0684
16215TIP3   OH270135   0.686   6.211  15.569  0.1402  1.0043  0.2866
16215TIP3    H170136   0.608   6.201  15.623  0.6067  1.9094  1.1328
16215TIP3    H270137   0.758   6.217  15.631  0.8304  0.7083 -0.4754
16216TIP3   OH270138   4.683   4.295   3.847  0.0796 -0.0383 -0.3759
16216TIP3    H170139   4.762   4.309   3.795  1.1421  1.1101  1.4912
16216TIP3    H270140   4.674   4.374   3.900 -1.1824 -1.0021  0.9027
16217TIP3   OH270141   2.682   2.534   3.189  0.3112 -0.2046  0.1584
16217TIP3    H170142   2.636   2.462   3.145 -0.1720  0.5437 -0.5703
16217TIP3    H270143   2.774   2.506   3.191  0.4753  0.0874 -2.0555
16218TIP3   OH270144   0.141   6.680   2.326  0.2312  0.0680  0.1169
16218TIP3    H170145   0.212   6.657   2.386  0.5691 -0.2839 -0.4109
16218TIP3    H270146   0.068   6.624   2.353  0.9948 -1.5334 -1.0424
16219TIP3   OH270147   6.520   0.339  12.680  0.0738  0.4217 -0.0162
16219TIP3    H170148   6.446   0.288  12.712  0.9796 -0.9218 -0.0330
16219TIP3    H270149   6.516   0.421  12.729  0.0912 -0.6901  1.8632
16220TIP3   OH270150   6.547   2.786   2.580  0.0319  0.3541 -0.4604
16220TIP3    H170151   6.588   2.865   2.616 -0.2542 -0.0893  0.8496
16220TIP3    H270152   6.607   2.758   2.511 -0.8467  2.8213 -2.2823
16221TIP3   OH270153   0.594   2.414   3.856 -0.1373  0.2687  0.6660
16221TIP3    H170154   0.681   2.389   3.888  0.5272  0.9718 -0.5279
16221TIP3    H270155   0.552   2.331   3.834 -0.3700 -0.1782  2.7212
16222TIP3   OH270156   1.803   0.159  16.469  0.1031 -0.0159 -0.1178
16222TIP3    H170157   1.794   0.187  16.560  0.4957 -2.4436  0.6814
16222TIP3    H270158   1.761   0.073  16.466  0.6564 -0.2301 -2.0851
16223TIP3   OH270159   5.272   5.717   0.528  0.0257  0.6324  0.4475
16223TIP3    H170160   5.181   5.738   0.549  0.1095  2.8093 -1.1705
16223TIP3    H270161   5.291   5.639   0.581 -3.3372 -1.0311 -0.6391
16224TIP3   OH270162   5.337   3.420  15.363 -0.1576 -0.0176  0.1032
16224TIP3    H170163   5.280   3.474  15.417  0.2065  0.1768  0.2962
16224TIP3    H270164   5.279   3.381  15.297 -0.3024  1.1581 -0.4654
16225TIP3   OH270165   1.412   0.046   4.031 -0.6702 -0.1333  0.1073
16225TIP3    H170166   1.398   0.058   3.937  1.7137 -0.5623 -0.3477
16225TIP3    H270167   1.386  -0.044   4.048 -1.0447 -0.0755 -0.1516
16226TIP3   OH270168   1.934   4.009  12.418  0.1399  0.4327 -0.0330
16226TIP3    H170169   1.842   4.012  12.390 -0.4090 -0.5887  1.5645
16226TIP3    H270170   1.965   4.099  12.406 -1.0918  0.8067 -0.5419
16227TIP3   OH270171   5.659   4.188  12.501  0.0891 -0.5105 -0.0627
16227TIP3    H170172   5.593   4.125  12.530 -0.0287 -1.4242 -2.2350
16227TIP3    H270173   5.717   4.138  12.444  2.2206  0.4743  1.1992
16228TIP3   OH270174   3.041   1.873   1.635 -0.3130  0.2116 -0.1794
16228TIP3    H170175   2.975   1.818   1.593 -0.4619  1.3932 -1.5117
16228TIP3    H270176   3.124   1.827   1.620 -0.7396 -0.9914  1.0194
16229TIP3   OH270177   5.710   4.722  15.729 -0.3033  1.1875 -0.3924
16229TIP3    H170178   5.709   4.629  15.705  2.4311  0.8657  0.5750
16229TIP3    H270179   5.778   4.760  15.674 -0.7621  2.4420 -0.1048
16230TIP3   OH270180   4.700   1.199  14.204 -0.8839 -0.1330  0.1621
16230TIP3    H170181   4.668   1.260  14.137 -1.8324 -0.6989  0.0855
16230TIP3    H270182   4.795   1.197  14.192 -0.5985  2.8228  1.4356
16231TIP3   OH270183   0.381   4.085   1.381 -0.4057  0.3274 -0.2433
16231TIP3    H170184   0.351   4.064   1.293 -2.8853 -0.4374  0.7195
16231TIP3    H270185   0.316   4.043   1.438  0.2025  2.2407  1.9141
16232TIP3   OH270186   0.360   4.868  15.752 -0.0777  0.2964 -0.0454
16232TIP3    H170187   0.329   4.871  15.842  1.7003  0.8910  0.5580
16232TIP3    H270188   0.336   4.953  15.715  0.9017  0.8076  0.4633
16233TIP3   OH270189   1.538   2.668  15.065  0.2700  0.4424  0.4610
16233TIP3    H170190   1.608   2.667  15.000  0.6257 -0.2477  0.8430
16233TIP3    H270191   1.529   2.759  15.091  0.2331  0.6980 -0.4415
16234TIP3   OH270192   5.847   1.025  11.090  0.1833 -0.5257 -0.2227
16234TIP3    H170193   5.812   0.964  11.025  0.0404  0.8140 -1.4382
16234TIP3    H270194   5.772   1.079  11.116  0.1252 -1.4028  1.4754
16235TIP3   OH270195   0.298   5.047   0.036  0.8465 -0.0326  0.0182
16235TIP3    H170196   0.266   5.112  -0.026  0.2563  0.3480  0.7177
16235TIP3    H270197   0.232   5.045   0.105  1.6479 -0.2299  0.7855
16236TIP3   OH270198   4.974   3.180  12.116 -0.2103  0.1886  0.5028
16236TIP3    H170199   4.893   3.188  12.065 -0.0557 -0.8334  0.0787
16236TIP3    H270200   5.044   3.185  12.051 -0.0548 -2.9932  0.3210
16237TIP3   OH270201   2.915   6.024   2.804  0.3942 -0.7528  0.0392
16237TIP3    H170202   3.004   5.994   2.784  0.6055 -0.8925  1.1656
16237TIP3    H270203   2.902   6.099   2.746  1.2407 -0.7601 -0.1698
16238TIP3   OH270204   3.531   2.441   0.327 -0.6161 -0.0113  0.7512
16238TIP3    H170205   3.508   2.490   0.248  1.0602  0.5140  0.5743
16238TIP3    H270206   3.515   2.350   0.304 -0.2368  0.1498 -0.1801
16239TIP3   OH270207   2.202   1.383   2.679  0.4487 -0.2960 -0.0279
16239TIP3    H170208   2.184   1.350   2.767  2.4171 -1.4075  0.0065
16239TIP3    H270209   2.245   1.467   2.694 -2.0807  1.0480 -0.0443
16240TIP3   OH270210   1.517   0.194  14.438 -0.7911  0.1886 -0.7732
16240TIP3    H170211   1.496   0.270  14.385 -1.7804  0.4070 -0.0738
16240TIP3    H270212   1.449   0.191  14.506  1.6072  1.1227  1.7635
16241TIP3   OH270213   0.808   4.257   6.296 -0.2098  0.3818  0.1009
16241TIP3    H170214   0.856   4.257   6.214  1.6774  0.0125  1.1713
16241TIP3    H270215   0.863   4.308   6.356 -1.1485 -0.0599  1.3681
16242TIP3   OH270216   2.299   1.463  13.144  0.0568 -0.4902  0.1638
16242TIP3    H170217   2.368   1.529  13.153  0.3608 -0.8149  0.2194
16242TIP3    H270218   2.341   1.381  13.169 -0.0162 -0.8773 -0.9831
16243TIP3   OH270219   2.541   6.652  16.833  0.4084 -0.2836  0.2157
16243TIP3    H170220   2.456   6.687  16.861  1.4855  1.4156  1.4827
16243TIP3    H270221   2.531   6.557  16.838 -1.4889 -0.1061  0.1141
16244TIP3   OH270222   4.568   2.793   0.979 -0.4052  0.2406  0.0912
16244TIP3    H170223   4.585   2.834   0.894 -0.1653 -0.0975 -0.0218
16244TIP3    H270224   4.648   2.745   1.000 -1.4913 -2.0370 -0.8291
16245TIP3   OH270225   4.902   1.155  10.872  0.3525 -0.6059 -0.2690
16245TIP3    H170226   4.974   1.093  10.870  0.6394 -0.2760 -0.1196
16245TIP3    H270227   4.941   1.238  10.899  0.0454 -0.2592 -0.8727
16246TIP3   OH270228   4.557   3.091  16.930  0.6352  0.3327  0.3124
16246TIP3    H170229   4.622   3.068  16.864  0.0868 -0.9635  0.2058
16246TIP3    H270230   4.490   3.140  16.882  0.9858  0.7044  0.2035
16247TIP3   OH270231   6.272   0.810  16.291 -0.1001 -0.0113 -0.1566
16247TIP3    H170232   6.263   0.737  16.352  1.3971 -0.5746 -0.5707
16247TIP3    H270233   6.309   0.770  16.212  2.2646  1.4275  0.1734
16248TIP3   OH270234   6.094   2.547  16.821  0.2263 -0.3520 -0.4138
16248TIP3    H170235   6.054   2.627  16.787 -1.5048 -0.4689  1.2537
16248TIP3    H270236   6.155   2.520  16.753 -1.3101  0.7849 -2.2984
16249TIP3   OH270237   5.049   1.497   1.749  0.2375 -0.4234  0.1310
16249TIP3    H170238   5.123   1.492   1.689  0.4610  0.0625  0.3615
16249TIP3    H270239   4.973   1.504   1.692  0.5461  1.2248 -0.0977
16250TIP3   OH270240   2.662   3.940  12.356  0.0967  0.1791  0.3044
16250TIP3    H170241   2.701   3.908  12.437 -0.5141  0.2642  0.6387
16250TIP3    H270242   2.681   4.033  12.355  1.0444 -0.0123 -0.1930
16251TIP3   OH270243   4.447   5.144  16.311 -0.0447  0.5852 -0.0121
16251TIP3    H170244   4.493   5.176  16.388  0.0820 -0.1605  0.2199
16251TIP3    H270245   4.496   5.067  16.283  0.8008  1.6816 -1.7168
16252TIP3   OH270246   0.620   1.490  15.477  0.6792 -0.1502  0.1873
16252TIP3    H170247   0.699   1.458  15.522  0.3468  0.8506  1.5089
16252TIP3    H270248   0.647   1.574  15.440  0.6892 -0.5537 -0.7186
16253TIP3   OH270249   4.789   2.388   2.884  0.5033 -0.4111 -0.1788
16253TIP3    H170250   4.721   2.447   2.915  0.1573 -1.0281  0.2257
16253TIP3    H270251   4.780   2.309   2.937  0.5558 -1.0817 -1.1569
16254TIP3   OH270252   5.239   2.386   0.805  0.1092 -0.9101 -0.5121
16254TIP3    H170253   5.306   2.317   0.803  1.2797  0.2304 -2.1694
16254TIP3    H270254   5.274   2.455   0.749 -1.2193  0.8979  0.8416
16255TIP3   OH270255   6.668   6.473  14.246 -0.1516 -0.0021 -0.2827
16255TIP3    H170256   6.627   6.483  14.332  0.5086 -0.3515  0.0787
16255TIP3    H270257   6.595   6.470  14.184 -0.6280  0.2215  0.2715
16256TIP3   OH270258   2.296   1.062   0.742  0.2697 -0.9409  0.2094
16256TIP3    H170259   2.250   1.072   0.825  0.5910  0.2952  0.2472
16256TIP3    H270260   2.260   1.130   0.685  0.4656 -1.4012 -0.4842
16257TIP3   OH270261   2.694   6.549  16.589  0.0103  0.7540 -0.4149
16257TIP3    H170262   2.620   6.519  16.536 -0.1200  0.0046  0.1830
16257TIP3    H270263   2.709   6.639  16.561  0.4400  0.1193 -2.2866
16258TIP3   OH270264   6.796   2.362  16.598 -0.1631  0.2461  0.1327
16258TIP3    H170265   6.739   2.315  16.538 -0.7204 -0.8649  1.4960
16258TIP3    H270266   6.794   2.311  16.679 -0.1629  2.1894  1.4108
16259TIP3   OH270267   6.820   0.657  12.563  0.1541  0.0858  0.3683
16259TIP3    H170268   6.904   0.619  12.541 -0.2053 -0.8796  0.6364
16259TIP3    H270269   6.808   0.729  12.500  1.1110  0.1467  0.2560
16260TIP3   OH270270   6.305   5.414  11.166 -0.7612  0.5863  0.0367
16260TIP3    H170271   6.368   5.427  11.237  0.1146  0.1368 -0.6402
16260TIP3    H270272   6.333   5.474  11.097 -1.1158  0.4343 -0.2438
16261TIP3   OH270273   2.748   4.655  12.106  0.4326 -0.4358 -0.3395
16261TIP3    H170274   2.835   4.695  12.104  0.0073  0.5318  0.1487
16261TIP3    H270275   2.704   4.690  12.029  1.1710 -2.5718 -1.7805
16262TIP3   OH270276   4.565   0.071  11.720 -0.1701  0.4385 -0.1162
16262TIP3    H170277   4.614   0.132  11.775  2.8548 -0.2192 -1.9759
16262TIP3    H270278   4.627   0.001  11.701 -1.1977  0.5286 -4.1025
16263TIP3   OH270279   4.064   0.517  12.117 -0.3502 -0.3205  0.8956
16263TIP3    H170280   3.978   0.526  12.158  0.2573  0.5269  2.0159
16263TIP3    H270281   4.102   0.439  12.158 -0.5024 -0.5708  0.5580
16264TIP3   OH270282   3.882   0.439  16.920  0.4373  0.6397  0.1595
16264TIP3    H170283   3.805   0.398  16.879 -0.1337 -0.4801  2.2882
16264TIP3    H270284   3.956   0.388  16.888  0.2907  1.4539 -1.5658
16265TIP3   OH270285   3.840   5.016   3.584 -0.0119 -0.4998  0.6255
16265TIP3    H170286   3.782   4.965   3.640  2.1660 -3.8562 -0.0112
16265TIP3    H270287   3.928   4.991   3.612  1.1493  2.4440 -0.2124
16266TIP3   OH270288   3.437   5.672  11.143  0.0293  0.5184 -0.0079
16266TIP3    H170289   3.494   5.737  11.101  1.3407 -0.1484  0.7087
16266TIP3    H270290   3.495   5.598  11.162 -1.0597 -0.1395  0.8229
16267TIP3   OH270291   4.276   5.028   5.027 -0.0692 -0.0374  0.4821
16267TIP3    H170292   4.260   5.123   5.023  2.4654  0.5180  1.8221
16267TIP3    H270293   4.252   5.004   5.117  1.2270 -0.2335  0.7915
16268TIP3   OH270294   3.410   6.767   2.678 -0.0431  0.1034  0.4628
16268TIP3    H170295   3.414   6.860   2.656 -0.7666  0.0701  0.1949
16268TIP3    H270296   3.441   6.722   2.599 -2.3767 -0.0041 -0.4301
16269TIP3   OH270297   0.766   1.485   1.460 -0.2657  0.0564  0.6010
16269TIP3    H170298   0.713   1.545   1.407 -1.2231 -0.4341  0.9873
16269TIP3    H270299   0.787   1.534   1.539 -1.6708 -0.3458  1.2464
16270TIP3   OH270300   0.815   6.408  15.379  0.0629 -0.2854 -0.6974
16270TIP3    H170301   0.749   6.374  15.439  1.3397 -1.3509  0.1396
16270TIP3    H270302   0.783   6.384  15.292 -1.0678 -0.0363 -0.3594
16271TIP3   OH270303   4.202   3.973  15.591  0.5297  0.3096  0.2973
16271TIP3    H170304   4.232   3.888  15.560 -0.9109  0.0488 -0.3870
16271TIP3    H270305   4.183   3.959  15.684  1.1464  0.1258  0.4007
16272TIP3   OH270306   6.122   3.274   2.820  0.3397 -0.3444  0.0212
16272TIP3    H170307   6.055   3.207   2.807  0.1166 -0.4976  1.8631
16272TIP3    H270308   6.073   3.355   2.832  0.3438 -0.7900  3.4797
16273TIP3   OH270309   1.724   5.219   4.687  0.4662  0.5356  0.4261
16273TIP3    H170310   1.670   5.235   4.764  0.3457  0.6921  0.3077
16273TIP3    H270311   1.684   5.271   4.618 -0.0438 -0.4427 -0.0085
16274TIP3   OH270312   4.664   5.473  16.028 -0.2810  0.3932 -0.4306
16274TIP3    H170313   4.706   5.559  16.023  1.4867 -0.5031 -1.6264
16274TIP3    H270314   4.628   5.469  16.116  1.4815  1.5391  0.3788
16275TIP3   OH270315   6.062   5.570  11.555 -0.1236  0.0187  0.4610
16275TIP3    H170316   5.972   5.602  11.543 -0.0408 -0.0708 -0.4392
16275TIP3    H270317   6.072   5.504  11.487  0.9276  0.6637 -0.0164
16276TIP3   OH270318   0.112   5.219   2.910  0.1052  0.2260 -0.2771
16276TIP3    H170319   0.082   5.264   2.989 -0.0036 -1.5862  0.7372
16276TIP3    H270320   0.039   5.227   2.848 -0.5795  0.0002  0.4894
16277TIP3   OH270321   2.116   3.312   2.208  0.7321 -0.0052  0.0475
16277TIP3    H170322   2.160   3.379   2.260  0.8450  1.3614 -1.7757
16277TIP3    H270323   2.169   3.303   2.129 -0.4347 -0.7393 -0.6753
16278TIP3   OH270324   6.450   2.950  17.261 -0.4793 -0.1074 -0.1978
16278TIP3    H170325   6.447   3.025  17.320 -1.3317  1.4658 -2.1533
16278TIP3    H270326   6.398   2.882  17.305 -2.3786  1.5430  0.1877
16279TIP3   OH270327   1.941   4.475   4.249  0.6404  0.3511  0.6166
16279TIP3    H170328   1.890   4.503   4.326  2.3649  1.8094  1.2641
16279TIP3    H270329   1.979   4.391   4.276 -2.0122 -1.1933 -0.1807
16280TIP3   OH270330   5.647   2.634   3.987 -0.3805  0.0112 -0.2278
16280TIP3    H170331   5.608   2.716   4.016  0.4636  0.3673 -0.0987
16280TIP3    H270332   5.581   2.568   4.008 -0.2532  0.3994  1.5156
16281TIP3   OH270333   5.807   1.798   4.309  0.1534  0.0607 -0.0288
16281TIP3    H170334   5.854   1.727   4.267  1.2127  0.7217  0.0239
16281TIP3    H270335   5.847   1.807   4.396  1.0797  1.7040 -0.5887
16282TIP3   OH270336   1.542   3.964   6.021 -0.1345  0.9080 -0.3332
16282TIP3    H170337   1.487   3.902   6.069 -0.1257  0.4193 -0.9594
16282TIP3    H270338   1.503   4.049   6.038 -1.4545  0.5009 -1.2846
16283TIP3   OH270339   5.681   0.920  10.885  0.0636  0.0137  0.0327
16283TIP3    H170340   5.731   0.838  10.884  0.8021  0.4700 -1.3474
16283TIP3    H270341   5.601   0.899  10.836  0.4667  0.2326 -0.7358
16284TIP3   OH270342   3.836   3.822  10.604  1.1893  0.6477  0.5066
16284TIP3    H170343   3.926   3.847  10.583  1.3788  0.3216  0.9451
16284TIP3    H270344   3.783   3.889  10.560  1.5987  0.2559 -0.6164
16285TIP3   OH270345   5.181   1.348   0.157 -0.3792  0.2669  0.0955
16285TIP3    H170346   5.246   1.391   0.213  0.5168 -0.2150 -0.5702
16285TIP3    H270347   5.148   1.275   0.210 -1.8795  1.7158  1.2194
16286TIP3   OH270348   3.017   0.033   5.003  0.0175 -0.3450  0.0017
16286TIP3    H170349   3.057  -0.051   5.025  0.3177 -0.4990 -1.1040
16286TIP3    H270350   2.924   0.021   5.022 -0.1263 -1.3242 -1.2465
16287TIP3   OH270351   3.933   3.482   2.148 -0.0273  0.3506 -0.2682
16287TIP3    H170352   3.837   3.477   2.150 -0.2724  4.0131  0.6072
16287TIP3    H270353   3.962   3.394   2.171 -3.1968 -0.4074  1.0724
16288TIP3   OH270354   3.853   3.235   5.659  0.1222  0.5136 -0.7535
16288TIP3    H170355   3.839   3.183   5.738 -0.1490  0.1868 -1.0184
16288TIP3    H270356   3.769   3.231   5.613  0.3273  0.5854 -1.1314
16289TIP3   OH270357   3.099   0.308   4.399  0.8481  0.2521  0.1993
16289TIP3    H170358   3.094   0.281   4.491 -0.2920 -0.5109 -0.0719
16289TIP3    H270359   3.100   0.225   4.351 -1.3416  0.6398 -0.5940
16290TIP3   OH270360   2.716   4.084  17.102  0.3938  0.2993 -0.0106
16290TIP3    H170361   2.637   4.075  17.049  1.0190  2.3636 -1.3645
16290TIP3    H270362   2.701   4.164  17.153  0.6361 -0.5869  1.4724
16291TIP3   OH270363   6.143   1.653  11.332 -0.4110 -1.0688  0.0880
16291TIP3    H170364   6.155   1.731  11.278 -1.6661 -1.2870 -0.5119
16291TIP3    H270365   6.057   1.620  11.308 -0.2439 -2.1611  0.9613
16292TIP3   OH270366   5.571   6.276  12.330  0.7222 -0.0047 -0.1363
16292TIP3    H170367   5.631   6.204  12.312  0.4340 -0.1172 -0.6618
16292TIP3    H270368   5.543   6.306  12.243 -0.6145 -0.4844  0.1232
16293TIP3   OH270369   4.916   2.488   4.318  0.5802  0.1461 -0.7083
16293TIP3    H170370   4.989   2.463   4.262 -0.9964 -2.8794 -1.5108
16293TIP3    H270371   4.926   2.434   4.397  0.2352  1.0702 -0.0154
16294TIP3   OH270372   0.325   3.453  16.356  0.3152 -0.4929  0.3927
16294TIP3    H170373   0.330   3.383  16.292  1.2265 -1.1719  1.1806
16294TIP3    H270374   0.415   3.484  16.365  0.2185 -0.4709  1.4006
16295TIP3   OH270375   4.721   0.819  16.531 -0.0044 -0.4210  0.0719
16295TIP3    H170376   4.626   0.818  16.522 -0.0659 -1.1162  0.7073
16295TIP3    H270377   4.736   0.826  16.626  0.5802  0.9550 -0.1056
16296TIP3   OH270378   4.624   4.089   4.634 -0.0404 -0.3842 -0.0480
16296TIP3    H170379   4.537   4.126   4.621  0.2225  0.6901  1.2234
16296TIP3    H270380   4.651   4.060   4.547 -1.1621  0.3969 -0.6603
16297TIP3   OH270381   4.679   2.930   5.372  0.3495 -0.2645  0.0790
16297TIP3    H170382   4.732   3.002   5.338  0.4120 -1.2138 -1.9162
16297TIP3    H270383   4.742   2.872   5.415  0.4916  0.1406  0.4202
16298TIP3   OH270384   0.260   1.321  15.784 -0.7785  0.1108 -0.1344
16298TIP3    H170385   0.268   1.315  15.689 -0.8323  0.7010 -0.1771
16298TIP3    H270386   0.343   1.286  15.818 -1.5934 -2.1119 -0.3283
16299TIP3   OH270387   4.187   3.561   1.706  0.0353  0.1470 -0.0891
16299TIP3    H170388   4.175   3.476   1.663  0.3227 -0.3684  0.8284
16299TIP3    H270389   4.099   3.590   1.729 -0.2664  1.1614 -2.3789
16300TIP3   OH270390   4.006   5.929  11.470  0.2373 -0.1341  0.2841
16300TIP3    H170391   3.971   5.875  11.541  0.5069  0.6088  0.9892
16300TIP3    H270392   4.094   5.952  11.499  0.9378 -1.1059 -0.9956
16301TIP3   OH270393   6.576   0.207  16.684  0.5996  0.0174 -0.9324
16301TIP3    H170394   6.657   0.257  16.677  1.7370 -1.5758  0.4316
16301TIP3    H270395   6.600   0.129  16.735 -2.0220  0.0502  0.4697
16302TIP3   OH270396   6.300   5.121   4.993  0.5460 -0.1545 -0.2899
16302TIP3    H170397   6.323   5.202   5.039  0.3031  0.9684 -2.0833
16302TIP3    H270398   6.210   5.134   4.965 -0.8180 -2.6348  2.6501
16303TIP3   OH270399   5.465   0.168   0.961 -0.8840 -0.1754 -0.2408
16303TIP3    H170400   5.471   0.094   1.021  0.4507 -0.0014 -0.1475
16303TIP3    H270401   5.431   0.240   1.014 -0.8237 -0.3386  0.0188
16304TIP3   OH270402   2.398   2.915   0.570 -0.4557  0.1253 -0.4622
16304TIP3    H170403   2.364   2.998   0.537  0.2665 -0.1495 -1.9605
16304TIP3    H270404   2.492   2.931   0.582 -0.5723 -0.0390  0.6302
16305TIP3   OH270405   1.746   4.274   2.862 -0.1981  0.2584  0.2294
16305TIP3    H170406   1.790   4.225   2.792 -0.4457 -0.3350  0.4922
16305TIP3    H270407   1.815   4.290   2.927 -0.1357  0.1945  0.1784
16306TIP3   OH270408   1.966   5.494  12.661  0.3397 -0.0663 -0.5250
16306TIP3    H170409   1.890   5.438  12.647 -0.6606  1.1290 -0.0243
16306TIP3    H270410   2.038   5.433  12.677 -0.4711 -1.2200 -1.1840
16307TIP3   OH270411   0.174   6.141  11.299  0.7967 -0.6582  0.2062
16307TIP3    H170412   0.221   6.063  11.330  0.9369 -0.3000  0.9014
16307TIP3    H270413   0.239   6.189  11.247  1.1767 -0.2261  1.0654
16308TIP3   OH270414   6.141   6.396  12.344 -0.0012 -0.3331 -0.0473
16308TIP3    H170415   6.214   6.365  12.397  0.0060 -0.4416 -0.1210
16308TIP3    H270416   6.084   6.443  12.406  0.1402 -0.2304  0.0049
16309TIP3   OH270417   5.609   1.394  14.685  0.5407 -0.4751  0.2134
16309TIP3    H170418   5.594   1.324  14.622 -1.6123 -0.1315  0.2906
16309TIP3    H270419   5.701   1.417  14.675  0.5579 -1.3725 -1.8233
16310TIP3   OH270420   0.706   2.925  16.470 -0.2414  0.0901 -0.7241
16310TIP3    H170421   0.767   2.940  16.398 -2.0450 -1.1530 -2.6005
16310TIP3    H270422   0.755   2.875  16.534  1.0963  0.2853 -1.5796
16311TIP3   OH270423   4.336   5.651  13.399  0.0215  0.5120 -0.0435
16311TIP3    H170424   4.327   5.559  13.373 -2.7441  0.8459 -0.4052
16311TIP3    H270425   4.421   5.655  13.444  1.1133 -1.7839 -1.7853
16312TIP3   OH270426   5.196   4.906  10.952  0.4746 -0.0376  0.5909
16312TIP3    H170427   5.185   4.977  11.016  1.0012  0.2788  0.3318
16312TIP3    H270428   5.252   4.944  10.884 -2.5833  0.6522 -1.6371
16313TIP3   OH270429   2.132   2.652  12.037 -0.8071  0.3120 -0.6247
16313TIP3    H170430   2.096   2.668  12.124 -0.6920 -1.5590 -0.2141
16313TIP3    H270431   2.064   2.603  11.991  0.1941 -1.0262 -0.6926
16314TIP3   OH270432   4.669   2.662  15.938 -0.3850 -0.3163  0.3896
16314TIP3    H170433   4.598   2.651  15.876 -0.2804 -2.1399  0.5837
16314TIP3    H270434   4.705   2.749  15.917 -1.0377 -0.4427 -1.3779
16315TIP3   OH270435   2.756   4.708   1.484  0.2833  0.5870 -0.3525
16315TIP3    H170436   2.733   4.691   1.575 -0.0097  3.0897  0.0763
16315TIP3    H270437   2.850   4.695   1.480  0.1580 -0.4699  0.0906
16316TIP3   OH270438   1.902   2.088  15.418  0.0304 -0.0856 -0.3675
16316TIP3    H170439   1.938   2.174  15.437  0.1231 -0.0809 -0.5633
16316TIP3    H270440   1.901   2.083  15.323 -1.9851  0.5353 -0.3924
16317TIP3   OH270441   2.728   5.425   1.290 -0.5977  0.3086 -0.2845
16317TIP3    H170442   2.634   5.440   1.287 -0.8880 -1.4246 -0.1515
16317TIP3    H270443   2.744   5.357   1.225  0.4037 -0.2363  0.5150
16318TIP3   OH270444   5.693   4.895   3.899  0.0816 -0.0035 -0.1655
16318TIP3    H170445   5.718   4.819   3.846 -0.1116 -1.5454  1.9097
16318TIP3    H270446   5.736   4.880   3.983 -0.9837  1.5701  0.6628
16319TIP3   OH270447   5.522   4.184   5.456  0.5977 -0.6494  0.0223
16319TIP3    H170448   5.462   4.129   5.405 -0.3175 -0.2551  0.6634
16319TIP3    H270449   5.569   4.122   5.512 -0.2095 -0.8136  0.5208
16320TIP3   OH270450   3.783   6.786   4.176  0.3689  0.3394 -0.3023
16320TIP3    H170451   3.827   6.865   4.146 -0.9663  0.9615 -0.7026
16320TIP3    H270452   3.775   6.797   4.271 -0.4224  1.0257 -0.4382
16321TIP3   OH270453   3.341   2.786  10.699  0.3477  0.0021  0.2866
16321TIP3    H170454   3.318   2.874  10.730  1.3548  0.6529 -0.7727
16321TIP3    H270455   3.263   2.756  10.653 -0.5935 -0.3372  2.0453
16322TIP3   OH270456   4.317   6.180  14.261 -0.0235  0.1365  0.5382
16322TIP3    H170457   4.235   6.228  14.276 -0.4922 -0.4593 -0.1238
16322TIP3    H270458   4.296   6.115  14.195  0.9108 -0.2361  0.5935
16323TIP3   OH270459   1.301   1.576   3.987  0.6874  0.8741  0.1629
16323TIP3    H170460   1.367   1.507   3.977 -1.0462 -0.7419 -0.4353
16323TIP3    H270461   1.252   1.551   4.066 -1.2848  0.2433 -1.2269
16324TIP3   OH270462   4.871   6.624  16.490 -0.3746 -0.6054  0.1669
16324TIP3    H170463   4.811   6.639  16.563 -1.1612 -1.4412 -0.2912
16324TIP3    H270464   4.891   6.530  16.495 -0.6306 -0.7187 -0.8326
16325TIP3   OH270465   0.823   0.693   4.955 -0.1860  0.0381  0.0516
16325TIP3    H170466   0.732   0.722   4.950 -0.5521 -1.4590 -2.4290
16325TIP3    H270467   0.873   0.761   4.910 -0.3412 -0.2724 -0.5862
16326TIP3   OH270468   0.620   0.534   3.516  0.2361 -0.0845 -0.4268
16326TIP3    H170469   0.614   0.465   3.450 -0.3788  0.4879 -0.9720
16326TIP3    H270470   0.531   0.568   3.524 -0.0542 -1.2364  1.8909
16327TIP3   OH270471   2.452   1.898   1.017 -0.5738 -0.4507  0.3819
16327TIP3    H170472   2.357   1.903   1.029 -0.6790  0.1546 -0.6274
16327TIP3    H270473   2.464   1.840   0.942 -0.3448  2.2969 -1.8082
16328TIP3   OH270474   0.008   3.567   5.143 -0.3306  0.3835  0.1470
16328TIP3    H170475   0.045   3.582   5.056  1.4075 -1.3017  0.5772
16328TIP3    H270476   0.032   3.645   5.193  0.9343  0.1856 -0.1403
16329TIP3   OH270477   2.113   6.329   2.820  0.9355 -0.2934  0.6500
16329TIP3    H170478   2.192   6.373   2.787  2.1107 -0.3482  3.2919
16329TIP3    H270479   2.106   6.250   2.767  0.8772  1.2085 -1.6766
16330TIP3   OH270480   2.394   1.459   2.432 -0.7674 -0.1016  0.0897
16330TIP3    H170481   2.447   1.461   2.512 -0.2147 -4.0402 -0.0784
16330TIP3    H270482   2.309   1.496   2.459 -0.3652 -0.7205  2.3051
16331TIP3   OH270483   0.008   0.389   5.060 -0.2401 -0.0504  0.3838
16331TIP3    H170484   0.059   0.402   4.980 -2.1225 -3.4827 -1.4677
16331TIP3    H270485  -0.041   0.308   5.045 -0.3398 -1.0350  5.2075
16332TIP3   OH270486   1.642   0.569   5.986  0.0072  0.2961  0.1499
16332TIP3    H170487   1.547   0.562   5.976 -0.0488  0.9098  0.2484
16332TIP3    H270488   1.676   0.573   5.897 -0.1508  1.2959  0.1355
16333TIP3   OH270489   5.251   2.692  16.273 -0.0467 -0.7424  0.2075
16333TIP3    H170490   5.332   2.662  16.313  0.4053 -1.2451 -1.0733
16333TIP3    H270491   5.221   2.763  16.330  0.2927 -1.7963  1.7394
16334TIP3   OH270492   2.367   2.449  13.585  0.1678 -1.0152  1.0260
16334TIP3    H170493   2.379   2.356  13.567 -1.4798 -0.8894 -1.0738
16334TIP3    H270494   2.365   2.489  13.498  0.9611  0.9892  1.9179
16335TIP3   OH270495   6.582   3.042  17.033  0.4494  0.6682 -0.5649
16335TIP3    H170496   6.525   3.008  17.101 -1.1735  1.7314 -1.3525
16335TIP3    H270497   6.640   3.104  17.079 -0.1196  0.8034 -0.0207
16336TIP3   OH270498   1.918   5.544   4.610  0.1885 -0.4408 -0.2326
16336TIP3    H170499   1.875   5.562   4.527  0.7769 -0.3820 -0.5269
16336TIP3    H270500   1.856   5.488   4.657 -1.1529  1.3752  0.2331
16337TIP3   OH270501   3.167   1.351  14.115  0.2429 -0.2807 -0.1685
16337TIP3    H170502   3.084   1.340  14.068 -0.5844 -0.8936  1.3890
16337TIP3    H270503   3.145   1.334  14.207  1.2105  3.5939  0.8932
16338TIP3   OH270504   1.975   1.026   0.306  0.1847  0.3017  0.6137
16338TIP3    H170505   2.041   1.086   0.340  0.3923  0.4423 -0.0425
16338TIP3    H270506   1.909   1.021   0.375  0.0174  1.5145  0.5456
16339TIP3   OH270507   3.439   3.443  14.676  0.2665  0.8102 -0.5079
16339TIP3    H170508   3.477   3.500  14.609  0.4440  0.7679 -0.4442
16339TIP3    H270509   3.345   3.444  14.658  0.4726 -0.4734 -1.7324
16340TIP3   OH270510   1.803   2.629  15.483 -0.2634 -0.0938  0.3975
16340TIP3    H170511   1.760   2.552  15.446  0.6627 -1.3171  1.7941
16340TIP3    H270512   1.768   2.636  15.572 -0.9546  1.6015  0.0168
16341TIP3   OH270513   0.189   0.762  15.411 -0.3997  0.8798  0.3653
16341TIP3    H170514   0.258   0.829  15.414  0.8197 -0.4070  1.2639
16341TIP3    H270515   0.208   0.711  15.333  0.2411 -0.0664  1.1255
16342TIP3   OH270516   1.857   5.625  15.907 -0.1384 -0.2248 -0.2565
16342TIP3    H170517   1.902   5.693  15.957 -0.3299  0.4022 -0.9352
16342TIP3    H270518   1.920   5.597  15.841  0.7032 -2.1973  1.3221
16343TIP3   OH270519   2.541   5.967   1.052  0.0309 -0.0336 -0.0958
16343TIP3    H170520   2.474   5.967   0.985 -0.3297 -1.4921  0.2549
16343TIP3    H270521   2.547   6.059   1.080 -1.4061  0.1968 -0.5186
16344TIP3   OH270522   0.727   4.359  17.165 -0.2077 -0.0014  0.2683
16344TIP3    H170523   0.653   4.414  17.137  1.0179  1.6167  0.0949
16344TIP3    H270524   0.729   4.288  17.102 -0.4306  1.0026 -0.9001
16345TIP3   OH270525   4.302   6.535  14.907  0.3685  0.0848 -0.6030
16345TIP3    H170526   4.243   6.527  14.832  0.3021 -0.4478 -0.4948
16345TIP3    H270527   4.379   6.580  14.872 -0.9917  2.7749 -0.2390
16346TIP3   OH270528   6.331   4.097   6.326 -0.0806 -0.3559  0.0719
16346TIP3    H170529   6.258   4.050   6.367  0.7961 -0.1738  1.9160
16346TIP3    H270530   6.331   4.183   6.369  1.9310 -0.7789  0.9402
16347TIP3   OH270531   2.380   3.625  15.889  0.0195  0.0839  0.2177
16347TIP3    H170532   2.329   3.706  15.893  2.5816  1.8072 -0.7064
16347TIP3    H270533   2.446   3.634  15.958  0.8827 -0.8105 -0.4679
16348TIP3   OH270534   5.591   0.606  13.021  0.3818 -0.7984 -0.1329
16348TIP3    H170535   5.514   0.549  13.015  0.0440 -0.4578  0.9088
16348TIP3    H270536   5.558   0.693  12.999  0.3355 -0.5427  0.9363
16349TIP3   OH270537   1.396   2.590  16.696  0.4813  0.0707  0.3310
16349TIP3    H170538   1.432   2.584  16.608  2.1178 -2.3626  1.1222
16349TIP3    H270539   1.304   2.615  16.683  0.3538 -1.5695 -2.1195
16350TIP3   OH270540   3.459   1.816  15.914  0.4942  0.4071  0.1589
16350TIP3    H170541   3.510   1.843  15.990 -2.8190  0.8272  2.3717
16350TIP3    H270542   3.400   1.890  15.897 -0.5568 -0.7041 -1.1917
16351TIP3   OH270543   4.410   5.504   1.086  0.2690  0.6923 -0.2528
16351TIP3    H170544   4.421   5.469   1.174 -1.5555  1.1272  0.1667
16351TIP3    H270545   4.405   5.427   1.030 -0.9230  0.3481  0.3210
16352TIP3   OH270546   0.720   4.339   2.096  0.2480  0.8372 -0.0817
16352TIP3    H170547   0.791   4.321   2.158 -2.3253 -1.1979  2.4311
16352TIP3    H270548   0.704   4.255   2.053 -1.0497  1.1044 -0.1439
16353TIP3   OH270549   4.502   5.438  15.260  0.4800 -0.5065 -0.4540
16353TIP3    H170550   4.485   5.529  15.283 -1.1226 -1.4105  2.2950
16353TIP3    H270551   4.595   5.425  15.279  0.1142 -0.1100  1.8578
16354TIP3   OH270552   6.776   2.815  13.178 -0.4573  0.3957  0.3829
16354TIP3    H170553   6.688   2.786  13.152  0.6036 -1.9919 -0.7285
16354TIP3    H270554   6.793   2.891  13.123 -1.7557  0.7897  0.5016
16355TIP3   OH270555   6.431   2.068   2.266  0.3158  0.1016  0.1775
16355TIP3    H170556   6.473   2.065   2.180 -0.0883  0.8920 -0.0508
16355TIP3    H270557   6.499   2.098   2.326  0.3390  0.4737 -0.0337
16356TIP3   OH270558   2.857   3.081   3.808 -0.0812 -0.0133  0.1032
16356TIP3    H170559   2.909   3.062   3.729 -0.1179 -0.6859  0.2327
16356TIP3    H270560   2.850   3.176   3.810  1.5454  0.1288  0.3221
16357TIP3   OH270561   6.409   3.345  12.269  0.3822  0.4004  0.2899
16357TIP3    H170562   6.395   3.426  12.318 -2.3366  0.1998 -0.0705
16357TIP3    H270563   6.449   3.285  12.331  0.9080  1.4929  1.0199
16358TIP3   OH270564   1.519   2.209  11.902 -0.0777  0.1604  0.7364
16358TIP3    H170565   1.522   2.300  11.872  0.6058 -0.0649  0.0977
16358TIP3    H270566   1.608   2.189  11.928  0.4926 -1.2901 -2.0942
16359TIP3   OH270567   4.806   1.451  12.182  0.0406 -0.4813  0.1473
16359TIP3    H170568   4.799   1.388  12.110  2.0071  0.1862 -0.6753
16359TIP3    H270569   4.819   1.535  12.138 -0.2081  0.1543  1.2762
16360TIP3   OH270570   2.950   5.195  11.361  0.1638 -0.0603  0.3744
16360TIP3    H170571   3.007   5.126  11.394  2.8158  2.1138  0.5861
16360TIP3    H270572   3.003   5.275  11.369 -1.7741  1.5913 -2.3876
16361TIP3   OH270573   3.865   1.061  10.948 -0.6793  0.0584 -0.6172
16361TIP3    H170574   3.872   0.966  10.957 -0.5240  0.2959  2.0107
16361TIP3    H270575   3.770   1.077  10.944 -0.7170 -0.1786 -0.6818
16362TIP3   OH270576   5.971   2.691  15.727 -0.1505  0.1027 -0.9057
16362TIP3    H170577   5.934   2.638  15.657  0.0392  1.1584 -1.8208
16362TIP3    H270578   5.968   2.634  15.804  2.2133 -2.0992 -2.3571
16363TIP3   OH270579   5.232   2.971  10.263  0.2044 -0.0879  0.4798
16363TIP3    H170580   5.211   2.880  10.242 -0.0126  0.1176 -0.1842
16363TIP3    H270581   5.176   2.992  10.338  0.8606 -0.7637  1.1770
16364TIP3   OH270582   5.182   4.850  13.885  0.2551  0.4733 -0.1189
16364TIP3    H170583   5.116   4.855  13.954  0.4014  0.2909  0.0333
16364TIP3    H270584   5.153   4.779  13.828  1.2301 -0.7523  0.8964
16365TIP3   OH270585   0.460   0.050   0.833 -0.0487 -0.1629  0.3099
16365TIP3    H170586   0.515  -0.028   0.843  1.7520  0.7518 -2.0899
16365TIP3    H270587   0.502   0.116   0.889  0.2841  0.0060 -0.1334
16366TIP3   OH270588   1.375   5.687  13.790 -0.0366 -0.1629 -0.2807
16366TIP3    H170589   1.399   5.724  13.875  2.6277 -1.3339 -0.4678
16366TIP3    H270590   1.308   5.622  13.810 -0.7194  0.8262  0.6923
16367TIP3   OH270591   6.231   6.214  14.506  0.2987 -0.3069 -0.2587
16367TIP3    H170592   6.244   6.201  14.412 -0.9430  0.0373 -0.5017
16367TIP3    H270593   6.166   6.148  14.530 -0.6009  0.6546  0.0057
16368TIP3   OH270594   5.417   5.661   1.532 -0.6775  0.1593  0.3460
16368TIP3    H170595   5.386   5.721   1.600  1.2874  0.4468  1.0471
16368TIP3    H270596   5.408   5.574   1.571 -1.0918  0.1952  0.3326
16369TIP3   OH270597   4.404   2.868   1.404  0.6220  0.0175 -0.4754
16369TIP3    H170598   4.373   2.778   1.419 -0.2435  0.3791 -0.0324
16369TIP3    H270599   4.457   2.862   1.325  0.2912 -0.8240 -0.6423
16370TIP3   OH270600   2.263   0.416   0.413 -0.7282  0.0416  0.7862
16370TIP3    H170601   2.299   0.362   0.484  1.6440  0.0090 -0.3850
16370TIP3    H270602   2.211   0.356   0.360  0.7566 -0.8260  0.2768
16371TIP3   OH270603   3.257   6.503  11.776  0.2112 -0.0141 -0.3910
16371TIP3    H170604   3.299   6.418  11.784 -0.3186 -0.2602 -0.1366
16371TIP3    H270605   3.230   6.509  11.685  0.4083 -0.0405 -0.4516
16372TIP3   OH270606   4.027   5.317  14.547 -0.0300 -0.4295 -0.4810
16372TIP3    H170607   4.041   5.411  14.534  0.9848 -0.2115  1.8093
16372TIP3    H270608   4.108   5.276  14.517  0.1823 -0.4080  0.0515
16373TIP3   OH270609   3.856   6.327   4.199  0.1510  0.2358  0.3015
16373TIP3    H170610   3.925   6.390   4.181 -1.5137  2.0571  0.1251
16373TIP3    H270611   3.840   6.334   4.293  0.6252 -0.6289  0.4503
16374TIP3   OH270612   5.280   6.402   4.707  0.6846  0.1603  0.1190
16374TIP3    H170613   5.235   6.328   4.747  1.1278 -0.5599 -0.6796
16374TIP3    H270614   5.318   6.450   4.780  0.8025 -0.6712  0.6108
16375TIP3   OH270615   4.960   5.321   6.287 -0.6822  0.1747  0.3413
16375TIP3    H170616   4.877   5.274   6.276 -0.5864  0.0829  0.0205
16375TIP3    H270617   4.990   5.296   6.375 -1.0018  0.2197  0.4625
16376TIP3   OH270618   0.990   0.567  13.453  0.0835 -0.2424  0.1554
16376TIP3    H170619   0.997   0.646  13.399  0.1071 -1.4211 -1.6234
16376TIP3    H270620   0.914   0.582  13.508 -0.3584  0.7062 -0.6946
16377TIP3   OH270621   5.269   3.970   5.882 -0.3438  0.4605 -0.2615
16377TIP3    H170622   5.196   4.028   5.906 -0.6620 -0.1101  0.1441
16377TIP3    H270623   5.227   3.896   5.838 -0.1143 -0.4399  1.0087
16378TIP3   OH270624   2.773   3.746   1.504 -0.5210 -0.3426  0.5856
16378TIP3    H170625   2.782   3.717   1.413 -0.1977  0.6110  0.3079
16378TIP3    H270626   2.740   3.835   1.497  3.3524  1.2510  1.2972
16379TIP3   OH270627   2.806   0.636   6.599 -0.4369  0.6060 -0.0573
16379TIP3    H170628   2.716   0.657   6.571 -1.1242 -0.9734  0.8986
16379TIP3    H270629   2.843   0.720   6.624 -1.2437  1.4529 -1.5867
16380TIP3   OH270630   2.063   4.303  10.534 -0.1979  0.3651  0.2788
16380TIP3    H170631   2.035   4.377  10.588 -0.6867  0.2274  0.2099
16380TIP3    H270632   2.099   4.344  10.455  0.3848  0.5617  0.6388
16381TIP3   OH270633   0.722   3.785   1.336  0.2873 -0.3858  0.2911
16381TIP3    H170634   0.797   3.797   1.277 -0.2182 -0.2460 -0.3236
16381TIP3    H270635   0.722   3.863   1.391  1.2366 -0.8866  1.0177
16382TIP3   OH270636   5.427   5.997   6.205 -0.3733 -0.0418 -0.5044
16382TIP3    H170637   5.443   6.021   6.113 -0.7500  0.0731 -0.5405
16382TIP3    H270638   5.441   5.902   6.207 -0.7742 -0.1105 -0.7720
16383TIP3   OH270639   0.022   1.077   5.185  0.4103  0.1900  0.1935
16383TIP3    H170640  -0.032   1.004   5.215  1.7667 -0.7790  0.3153
16383TIP3    H270641   0.036   1.130   5.264 -1.8302  1.4441 -0.1920
16384TIP3   OH270642   2.158   3.521  13.934 -0.6978 -0.3109 -0.1577
16384TIP3    H170643   2.237   3.529  13.987  0.4468  0.2757 -1.9234
16384TIP3    H270644   2.108   3.600  13.954 -0.7546 -0.5698  0.7768
16385TIP3   OH270645   0.076   5.166   0.537  0.4675  0.4530 -0.9620
16385TIP3    H170646   0.129   5.231   0.583  0.7594  0.4268 -1.2657
16385TIP3    H270647   0.073   5.197   0.446  0.2473  0.2728 -1.0157
16386TIP3   OH270648   4.495   1.926   3.401 -0.2021  0.9313  0.0876
16386TIP3    H170649   4.590   1.940   3.405 -0.0955  0.1437  0.2411
16386TIP3    H270650   4.471   1.899   3.489 -0.3056 -0.5769 -0.3926
16387TIP3   OH270651   5.405   2.478  15.376  0.2349 -0.3178 -0.2876
16387TIP3    H170652   5.450   2.439  15.301  1.0524  2.4679 -1.3406
16387TIP3    H270653   5.470   2.479  15.446  1.0634  1.3864 -1.0382
16388TIP3   OH270654   0.713   5.403  11.613 -0.3189  0.2168 -0.8896
16388TIP3    H170655   0.757   5.331  11.568 -2.8503 -2.0130  0.0680
16388TIP3    H270656   0.716   5.380  11.706 -1.0055  1.4291 -0.5437
16389TIP3   OH270657   0.919   0.076   2.864 -0.2712 -0.6183  0.1092
16389TIP3    H170658   0.988   0.143   2.865  0.1672 -1.0684  0.6361
16389TIP3    H270659   0.928   0.031   2.948  0.0679 -1.9622 -0.6192
16390TIP3   OH270660   6.376   0.357  12.458  0.6948  0.2961 -0.1653
16390TIP3    H170661   6.444   0.384  12.396 -0.4604 -1.9549 -2.5036
16390TIP3    H270662   6.424   0.321  12.532  2.1067 -1.5035 -1.8880
16391TIP3   OH270663   6.210   1.659  13.131  0.7383 -0.5099  0.0619
16391TIP3    H170664   6.271   1.650  13.059  0.3810 -1.3715 -0.1451
16391TIP3    H270665   6.124   1.642  13.093  0.4993 -0.5312  0.5951
16392TIP3   OH270666   1.202   1.005  12.604  0.2462 -0.1697  0.2021
16392TIP3    H170667   1.108   1.001  12.623 -0.2494 -0.3133 -2.1279
16392TIP3    H270668   1.226   0.916  12.579  0.5417  0.3051 -1.2451
16393TIP3   OH270669   4.298   4.726  11.532  0.9924  0.0872 -0.0674
16393TIP3    H170670   4.232   4.775  11.484  1.0449  0.3268  0.1061
16393TIP3    H270671   4.286   4.635  11.503  1.4450  0.3207 -1.0194
16394TIP3   OH270672   4.923   0.797  12.177  0.2428 -0.2623  0.6450
16394TIP3    H170673   4.890   0.857  12.244 -0.3910  1.5928 -1.2540
16394TIP3    H270674   5.011   0.774  12.206 -0.6384 -0.8091  2.9454
16395TIP3   OH270675   4.152   6.244  15.469  0.0754 -0.5263 -0.6860
16395TIP3    H170676   4.180   6.161  15.428 -2.7916 -1.2303 -1.3398
16395TIP3    H270677   4.181   6.237  15.560  0.6163 -1.8807 -0.9493
16396TIP3   OH270678   3.675   0.237   5.555 -0.0446  0.4447  0.0100
16396TIP3    H170679   3.737   0.201   5.619  1.2077  0.6960 -1.0572
16396TIP3    H270680   3.729   0.265   5.482 -1.2021  2.6475 -0.0386
16397TIP3   OH270681   4.058   6.231   0.077 -0.1221 -0.5081  0.2575
16397TIP3    H170682   4.074   6.177   0.155 -1.5598 -3.0144 -1.1329
16397TIP3    H270683   4.143   6.234   0.033 -0.0438 -1.8152  0.2787
16398TIP3   OH270684   3.992   5.650   0.820 -0.0730 -0.0089 -0.1857
16398TIP3    H170685   4.019   5.640   0.729  0.9862 -0.8077  0.1939
16398TIP3    H270686   4.074   5.663   0.868 -0.3598 -2.1077  0.9516
16399TIP3   OH270687   3.282   1.494   3.067  0.1612  0.0921  0.3749
16399TIP3    H170688   3.214   1.519   3.004 -0.0669 -1.8093 -0.1759
16399TIP3    H270689   3.361   1.536   3.034 -0.1662 -0.0563 -0.6227
16400TIP3   OH270690   4.162   0.102  14.850  0.2178 -0.3069 -0.3686
16400TIP3    H170691   4.097   0.034  14.870 -1.1344  1.4317  1.4701
16400TIP3    H270692   4.231   0.089  14.915 -0.6019  0.7572  0.7410
16401TIP3   OH270693   3.308   3.031   3.774  0.0405  0.1013 -0.8769
16401TIP3    H170694   3.273   3.116   3.801 -2.1271 -0.5830 -1.4657
16401TIP3    H270695   3.334   2.989   3.856 -1.3223  0.2766 -0.3532
16402TIP3   OH270696   1.839   3.303  13.613 -0.3171 -0.0051 -0.4245
16402TIP3    H170697   1.766   3.364  13.627 -0.7234 -1.1380  2.5971
16402TIP3    H270698   1.811   3.250  13.538 -1.9210  0.5914 -0.2767
16403TIP3   OH270699   5.482   4.311  14.783  0.0026 -0.5797  0.1925
16403TIP3    H170700   5.519   4.227  14.811 -0.1815 -0.8356 -0.3390
16403TIP3    H270701   5.513   4.322  14.693  0.1622  0.0008  0.3179
16404TIP3   OH270702   4.634   2.159  13.582 -0.0615 -0.0465 -0.4504
16404TIP3    H170703   4.605   2.250  13.580  0.2623  0.0252 -1.9893
16404TIP3    H270704   4.567   2.113  13.633 -0.4682  0.9532 -0.0772
16405TIP3   OH270705   5.632   0.058   0.498  0.3336 -0.1301  0.5665
16405TIP3    H170706   5.589  -0.022   0.467  1.3894  0.0359 -1.3867
16405TIP3    H270707   5.699   0.027   0.559  0.6484 -0.7201 -0.0766
16406TIP3   OH270708   6.242   5.216   1.985  0.1243  0.6864 -0.2489
16406TIP3    H170709   6.292   5.178   2.057  0.6753  0.5946 -0.6728
16406TIP3    H270710   6.308   5.233   1.917 -0.4399  0.4682 -0.8544
16407TIP3   OH270711   6.588   1.880  15.618 -0.0174  0.3502 -0.4216
16407TIP3    H170712   6.565   1.948  15.555 -0.3300 -0.2668 -0.9892
16407TIP3    H270713   6.558   1.799  15.576 -1.3137  0.0527  1.0648
16408TIP3   OH270714   0.357   2.651   1.016 -0.3686 -0.0323 -0.3754
16408TIP3    H170715   0.273   2.696   1.027  0.1224  1.3531 -2.1504
16408TIP3    H270716   0.339   2.584   0.949 -0.0824  0.1868 -0.6697
16409TIP3   OH270717   5.940   2.878   2.185 -0.3478 -0.0195 -0.5485
16409TIP3    H170718   5.866   2.932   2.159 -1.6838 -0.4816  2.1238
16409TIP3    H270719   6.013   2.939   2.191 -0.1709  0.2622 -4.2703
16410TIP3   OH270720   6.064   0.566  11.091  0.4124 -0.5205  0.7398
16410TIP3    H170721   6.158   0.561  11.070 -0.1115  0.0972 -1.9288
16410TIP3    H270722   6.026   0.490  11.046 -0.5291 -0.1582  0.9322
16411TIP3   OH270723   4.746   3.459   0.437 -0.3986 -0.1455 -0.0902
16411TIP3    H170724   4.755   3.440   0.530 -1.6108 -1.5234 -0.2455
16411TIP3    H270725   4.809   3.400   0.395 -1.5671 -1.2763 -0.3000
16412TIP3   OH270726   3.492   6.287  17.097 -0.0747 -0.3748 -0.2803
16412TIP3    H170727   3.576   6.330  17.113  0.5029 -1.4832 -0.2807
16412TIP3    H270728   3.442   6.302  17.177  0.7027 -1.0121  0.3415
16413TIP3   OH270729   4.123   4.872   3.577 -0.2383 -0.1837 -0.2165
16413TIP3    H170730   4.211   4.911   3.572 -0.5889  1.2152  3.1774
16413TIP3    H270731   4.082   4.896   3.494  2.1751  0.1575 -1.3545
16414TIP3   OH270732   1.049   6.756  16.857 -0.3163 -0.2315  0.6547
16414TIP3    H170733   0.986   6.813  16.812 -0.1664  0.4675  1.3064
16414TIP3    H270734   1.089   6.813  16.923  1.6135 -0.4353 -0.2889
16415TIP3   OH270735   1.551   5.494   1.354  0.1077  0.1149  0.0081
16415TIP3    H170736   1.484   5.485   1.422 -0.0808  0.8510 -0.0820
16415TIP3    H270737   1.543   5.414   1.301 -1.8137  0.9497 -1.0025
16416TIP3   OH270738   0.732   3.006  14.890 -0.1234  0.0077  0.2485
16416TIP3    H170739   0.807   2.987  14.834  0.4972  0.3737  0.9391
16416TIP3    H270740   0.670   3.052  14.834  0.8941  1.2195  0.1005
16417TIP3   OH270741   0.440   3.060  13.550 -0.8778 -0.2715  0.2957
16417TIP3    H170742   0.421   3.109  13.470 -2.1314 -0.4078  0.4877
16417TIP3    H270743   0.455   2.971  13.520  4.0784  0.6653 -0.3464
16418TIP3   OH270744   3.795   5.161   3.163  0.2128  0.4599  0.3469
16418TIP3    H170745   3.760   5.132   3.079  0.5515 -1.8636  0.9892
16418TIP3    H270746   3.890   5.157   3.153  0.2682  1.0375  0.5668
16419TIP3   OH270747   2.278   1.158  14.892 -0.4583  0.5998  0.1634
16419TIP3    H170748   2.305   1.070  14.916  2.1925  1.0607 -0.9244
16419TIP3    H270749   2.275   1.206  14.975 -1.1468 -0.3185  0.6727
16420TIP3   OH270750   4.560   0.782  15.247  0.4678 -0.0984  0.2551
16420TIP3    H170751   4.630   0.847  15.243 -0.0518  0.4178 -0.8428
16420TIP3    H270752   4.594   0.706  15.200  0.8138 -0.3711  0.9386
16421TIP3   OH270753   4.450   2.315  10.921  0.8119  0.3781 -0.2794
16421TIP3    H170754   4.407   2.371  10.985  1.2935  0.2695  0.1414
16421TIP3    H270755   4.378   2.268  10.879  0.6239 -1.4081  1.9187
16422TIP3   OH270756   4.250   6.651   1.819  0.1784  0.7866  0.5888
16422TIP3    H170757   4.240   6.702   1.739  4.9159  0.4192 -0.3870
16422TIP3    H270758   4.193   6.575   1.807 -0.4509  1.5801 -1.6641
16423TIP3   OH270759   5.588   0.431  12.056  0.4061  0.5123  0.1438
16423TIP3    H170760   5.505   0.403  12.019 -0.3123  0.2117  1.9716
16423TIP3    H270761   5.565   0.479  12.136  2.1073 -2.2280  2.3662
16424TIP3   OH270762   2.481   4.881   6.504  0.2351 -0.1011  0.7574
16424TIP3    H170763   2.495   4.933   6.583  0.4745  0.6765  0.2110
16424TIP3    H270764   2.420   4.812   6.532 -1.3753  1.4126  1.1158
16425TIP3   OH270765   4.851   1.765   6.063  0.0161 -0.3202 -0.2473
16425TIP3    H170766   4.780   1.767   6.127 -0.2211 -0.2447 -0.5158
16425TIP3    H270767   4.915   1.705   6.101 -0.4559 -0.8472 -0.2906
16426TIP3   OH270768   0.571   4.153  12.714  0.0910 -0.2695  0.2968
16426TIP3    H170769   0.600   4.075  12.666 -0.2877  0.2550 -0.8073
16426TIP3    H270770   0.639   4.218  12.698  0.1835 -0.2313  0.8407
16427TIP3   OH270771   4.812   2.548   4.056 -0.1546 -0.3087 -0.3704
16427TIP3    H170772   4.751   2.503   4.114 -0.1608  0.8332  0.5383
16427TIP3    H270773   4.893   2.555   4.107 -0.0683  0.4376 -0.5967
16428TIP3   OH270774   5.146   0.431   1.985  0.1215 -0.5373  0.0371
16428TIP3    H170775   5.192   0.467   1.909  0.1942 -0.6549  0.0260
16428TIP3    H270776   5.197   0.354   2.010 -0.1434 -0.7407 -0.0526
16429TIP3   OH270777   6.507   2.105   4.819  0.2201 -0.6955 -0.3441
16429TIP3    H170778   6.538   2.077   4.733  1.4022  0.3293 -0.2609
16429TIP3    H270779   6.542   2.038   4.879 -0.3539 -1.2428 -0.6056
16430TIP3   OH270780   1.591   2.286   0.254 -0.1848 -0.5222  0.1757
16430TIP3    H170781   1.670   2.270   0.202  0.2804 -0.1500  0.7660
16430TIP3    H270782   1.568   2.200   0.288  0.7321 -0.4095  1.0902
16431TIP3   OH270783   5.967   0.023   5.924 -0.3112  0.0085  0.6614
16431TIP3    H170784   6.011   0.045   6.006  1.3160  1.4163 -0.5549
16431TIP3    H270785   5.957   0.107   5.879 -1.0383 -0.7734 -0.6552
16432TIP3   OH270786   6.151   5.785  12.673 -0.0952  0.3562 -0.5587
16432TIP3    H170787   6.164   5.691  12.674 -0.8533  0.2514  0.6511
16432TIP3    H270788   6.233   5.822  12.707 -0.1474  0.0880 -0.1450
16433TIP3   OH270789   0.221   2.235   6.503  0.6265  0.1494  0.4063
16433TIP3    H170790   0.144   2.243   6.446  0.3101  0.3816  0.8657
16433TIP3    H270791   0.295   2.235   6.443  0.2655 -0.0986 -0.0403
16434TIP3   OH270792   1.623   4.576   4.483 -1.0998 -0.1509 -0.3991
16434TIP3    H170793   1.682   4.502   4.496 -0.3752  0.7015  1.4457
16434TIP3    H270794   1.571   4.579   4.563 -2.2554  0.3247 -1.1634
16435TIP3   OH270795   6.536   1.800  10.939  0.3103 -0.5708 -0.5584
16435TIP3    H170796   6.565   1.891  10.929  1.0784 -0.9357 -1.8286
16435TIP3    H270797   6.440   1.804  10.930  0.3308  0.1289 -0.4694
16436TIP3   OH270798   5.025   1.576   6.190 -0.3288 -0.4169  0.1356
16436TIP3    H170799   5.060   1.561   6.102 -1.6564  1.1465 -0.6975
16436TIP3    H270800   5.096   1.619   6.237  0.6208 -1.8540  0.0474
16437TIP3   OH270801   3.662   5.697   2.202 -0.2334  0.6829  0.1733
16437TIP3    H170802   3.745   5.693   2.156 -0.9380 -0.3328 -1.0433
16437TIP3    H270803   3.655   5.787   2.233  1.3550  0.7430  0.3857
16438TIP3   OH270804   4.210   3.704  13.982  0.3940 -0.1265 -0.4797
16438TIP3    H170805   4.279   3.639  13.994  1.2239  0.8090 -0.0434
16438TIP3    H270806   4.192   3.703  13.888  0.5982 -0.7785 -0.5181
16439TIP3   OH270807   3.284   2.755  10.347  0.6193 -0.1839  0.3264
16439TIP3    H170808   3.375   2.729  10.336  1.0858  1.1668  0.9351
16439TIP3    H270809   3.284   2.850  10.338 -0.9819 -0.3101 -1.3012
16440TIP3   OH270810   3.528   2.634  10.268  0.0952  0.1892  0.0432
16440TIP3    H170811   3.467   2.561  10.260 -0.6329  0.7608  0.2477
16440TIP3    H270812   3.579   2.615  10.347 -0.2513  0.0204  0.2249
16441TIP3   OH270813   2.257   0.166   4.931  0.5042 -0.5466  0.1239
16441TIP3    H170814   2.216   0.169   4.845  1.4220  1.8051 -0.2679
16441TIP3    H270815   2.188   0.197   4.991 -0.8131 -4.1426  0.5685
16442TIP3   OH270816   4.675   3.924  16.562  0.2794 -0.2950  0.0743
16442TIP3    H170817   4.679   4.008  16.608  0.0213 -0.7191  0.8949
16442TIP3    H270818   4.638   3.864  16.627  0.0097 -0.9323 -0.6676
16443TIP3   OH270819   4.866   1.675   2.470 -0.1981 -0.4043  0.2819
16443TIP3    H170820   4.906   1.617   2.535  3.2157  1.7511  0.2776
16443TIP3    H270821   4.828   1.746   2.521 -1.6615 -1.0746  0.1372
16444TIP3   OH270822   2.003   5.461  13.300 -0.1603  0.1042  0.0098
16444TIP3    H170823   2.031   5.471  13.209 -1.0265  0.5934 -0.2099
16444TIP3    H270824   1.970   5.547  13.325  0.1597  0.0014  0.8242
16445TIP3   OH270825   2.241   0.788   5.665  0.1605 -0.1953  0.8254
16445TIP3    H170826   2.211   0.715   5.611 -0.8752 -0.2032  1.3865
16445TIP3    H270827   2.294   0.748   5.734 -0.9944 -0.5139  1.5504
16446TIP3   OH270828   4.822   2.737   4.723 -0.4116  0.6547  0.0407
16446TIP3    H170829   4.849   2.825   4.698 -0.1269  0.4220 -0.4660
16446TIP3    H270830   4.775   2.750   4.806  1.1333  1.0747  0.8652
16447TIP3   OH270831   4.721   3.726  15.881 -0.2076 -0.0000  0.6719
16447TIP3    H170832   4.710   3.808  15.833  0.7003  0.3860  1.1091
16447TIP3    H270833   4.662   3.734  15.956 -0.9897 -0.2480  0.0955
16448TIP3   OH270834   0.254   2.800   5.317 -0.4353  0.3917  0.1833
16448TIP3    H170835   0.305   2.881   5.319  1.3083 -0.6624  0.0949
16448TIP3    H270836   0.241   2.779   5.410  0.9979 -0.3384  0.2430
16449TIP3   OH270837   2.072   6.499  16.853  0.2145  0.1650 -0.0278
16449TIP3    H170838   2.077   6.407  16.878  1.2734  0.8412  2.3835
16449TIP3    H270839   1.981   6.512  16.829  0.3807 -1.8749 -1.9170
16450TIP3   OH270840   1.022   4.184  11.045  0.1407 -0.3429 -0.4559
16450TIP3    H170841   0.947   4.132  11.015  0.8375 -0.8370 -1.3862
16450TIP3    H270842   1.074   4.198  10.966  0.3522  1.1190 -0.0606
16451TIP3   OH270843   3.669   0.962  13.504 -0.1229  0.1316 -0.3846
16451TIP3    H170844   3.729   0.913  13.560  1.6851  2.6712 -0.0174
16451TIP3    H270845   3.595   0.984  13.561  1.4793  2.2713  0.9375
16452TIP3   OH270846   6.729   1.865  11.557  0.4081  0.4567  0.2073
16452TIP3    H170847   6.822   1.842  11.559  0.3588  0.2339 -0.0187
16452TIP3    H270848   6.720   1.922  11.481  0.3515  0.4294  0.1924
16453TIP3   OH270849   4.581   1.172   1.620  0.2571  0.5828  0.0065
16453TIP3    H170850   4.625   1.205   1.541 -0.7878 -0.8212 -1.1987
16453TIP3    H270851   4.542   1.250   1.660 -0.9327  1.0799 -2.0047
16454TIP3   OH270852   4.908   4.243  15.091 -0.3985 -0.5407  0.1420
16454TIP3    H170853   4.995   4.210  15.112  0.0680 -1.3780 -2.8827
16454TIP3    H270854   4.849   4.171  15.111 -0.1083 -0.8734 -0.2040
16455TIP3   OH270855   0.787   5.284  13.165 -0.0479  0.1279 -0.6774
16455TIP3    H170856   0.792   5.214  13.100 -0.7265 -0.1922 -0.3830
16455TIP3    H270857   0.759   5.241  13.245 -0.7708  0.7850 -0.5726
16456TIP3   OH270858   0.881   5.020  13.152  0.4827  0.3767 -0.4960
16456TIP3    H170859   0.880   4.928  13.176 -1.3081  0.2864 -0.8973
16456TIP3    H270860   0.877   5.020  13.056  0.2541  0.8870 -0.4887
16457TIP3   OH270861   5.024   4.154  16.160 -0.2862 -0.5937  0.2630
16457TIP3    H170862   5.107   4.170  16.204 -1.9544  1.2163  2.8682
16457TIP3    H270863   4.970   4.229  16.182 -2.2252 -1.1003 -2.4763
16458TIP3   OH270864   5.185   5.052  11.498 -0.5022 -0.1703  0.0863
16458TIP3    H170865   5.255   5.116  11.483 -0.5249  0.1261  1.2153
16458TIP3    H270866   5.153   5.032  11.411 -0.9919  1.9251 -0.2497
16459TIP3   OH270867   1.827   5.546  11.986 -0.4316  0.5426 -0.7240
16459TIP3    H170868   1.769   5.623  11.988  0.3451  1.1333 -0.7714
16459TIP3    H270869   1.769   5.472  12.004 -0.8349  1.3697  1.6331
16460TIP3   OH270870   4.173   0.580  11.169 -0.0032  0.6967 -0.4144
16460TIP3    H170871   4.114   0.630  11.112 -0.8127  0.1769 -0.0367
16460TIP3    H270872   4.133   0.585  11.255 -0.0456 -0.5419 -0.3556
16461TIP3   OH270873   1.588   1.181  13.612 -0.6452 -0.3898  0.0282
16461TIP3    H170874   1.593   1.255  13.551  0.0692 -0.4080  0.0680
16461TIP3    H270875   1.541   1.114  13.563 -0.0743 -0.4044 -0.5012
16462TIP3   OH270876   5.899   4.640   4.420 -0.2779 -0.1451  0.3285
16462TIP3    H170877   5.984   4.673   4.447  0.3197 -2.2873  1.1272
16462TIP3    H270878   5.841   4.716   4.426  1.0997  0.8111  1.8922
16463TIP3   OH270879   1.722   2.836   5.554 -0.0517 -0.1990 -0.3490
16463TIP3    H170880   1.741   2.760   5.610 -1.8040 -1.0493 -0.8817
16463TIP3    H270881   1.640   2.871   5.588 -0.4089  0.1057 -1.5085
16464TIP3   OH270882   2.425   3.776   6.217  0.8554 -0.1801  0.0345
16464TIP3    H170883   2.453   3.867   6.226  1.0233 -0.1439 -0.7692
16464TIP3    H270884   2.336   3.775   6.253  0.3803  0.5840 -1.0805
16465TIP3   OH270885   0.046   6.071  17.223  0.3806  0.0482  0.0096
16465TIP3    H170886   0.137   6.080  17.194  0.6176  0.6838  0.9228
16465TIP3    H270887   0.044   6.115  17.308 -0.7899  0.0586 -0.0222
16466TIP3   OH270888   0.188   0.992   1.223 -0.1119  0.3378 -0.3849
16466TIP3    H170889   0.208   0.930   1.293 -1.0575 -0.4364 -0.8015
16466TIP3    H270890   0.136   0.942   1.160 -1.1804  1.6399 -0.5534
16467TIP3   OH270891   5.622   4.225  16.912 -0.0606 -0.3345  0.7224
16467TIP3    H170892   5.665   4.280  16.978 -0.6465 -0.6157  1.3499
16467TIP3    H270893   5.570   4.163  16.963 -1.5629  0.2982 -0.0118
16468TIP3   OH270894   2.235   5.292   4.614 -0.1751 -0.3024  0.1485
16468TIP3    H170895   2.262   5.204   4.588 -0.2959  0.1149 -1.4214
16468TIP3    H270896   2.265   5.301   4.705  1.1183 -1.4264 -0.1600
16469TIP3   OH270897   1.641   1.136  15.614 -0.2237 -0.1708 -0.9554
16469TIP3    H170898   1.630   1.042  15.627  2.4895 -0.7418 -2.4133
16469TIP3    H270899   1.631   1.149  15.520  2.4473  0.5153 -1.1725
16470TIP3   OH270900   1.868   1.016  11.574  0.2723  0.1266  0.4287
16470TIP3    H170901   1.949   0.988  11.616  1.3221  0.2899 -1.4259
16470TIP3    H270902   1.849   1.102  11.610  0.4226 -0.2969  1.5302
16471TIP3   OH270903   1.265   2.658  15.070 -0.1589 -0.3322 -0.2509
16471TIP3    H170904   1.359   2.672  15.068 -0.0072 -1.3165 -0.5337
16471TIP3    H270905   1.255   2.571  15.109 -0.9330 -0.3574 -0.4990
16472TIP3   OH270906   6.057   6.085   3.776 -0.1502 -0.0814  0.0539
16472TIP3    H170907   5.990   6.075   3.844  0.8878 -0.8752  0.9777
16472TIP3    H270908   6.139   6.093   3.824  0.5221  0.0243 -1.0964
16473TIP3   OH270909   2.795   3.851   6.319 -0.0225 -0.3148  0.0197
16473TIP3    H170910   2.707   3.816   6.311 -0.9714  1.3603  2.5413
16473TIP3    H270911   2.784   3.932   6.369  2.9134  0.0122  0.2224
16474TIP3   OH270912   3.228   0.032   0.595  0.5532 -0.2197 -0.3095
16474TIP3    H170913   3.203  -0.036   0.657 -0.4349 -0.1199 -0.5792
16474TIP3    H270914   3.145   0.063   0.559  1.1472 -1.1510 -2.6172
16475TIP3   OH270915   3.903   4.872  14.581 -0.4930  0.0688  0.4934
16475TIP3    H170916   3.845   4.822  14.639 -0.1107 -0.6782  0.2422
16475TIP3    H270917   3.964   4.807  14.547  0.6907  0.8960  0.9884
16476TIP3   OH270918   4.678   3.373  10.618 -0.4579 -0.6493  0.4506
16476TIP3    H170919   4.651   3.401  10.531  1.6193 -0.9596 -0.3277
16476TIP3    H270920   4.773   3.367  10.612 -0.3031 -0.7299  2.7303
16477TIP3   OH270921   4.989   6.819   4.991 -0.5790  0.1190 -0.3461
16477TIP3    H170922   5.021   6.907   5.008 -0.1034 -0.4483  1.9235
16477TIP3    H270923   4.902   6.816   5.031 -1.1883 -0.0217 -1.6531
16478TIP3   OH270924   5.899   5.545  11.168 -0.0056  0.6515  0.0428
16478TIP3    H170925   5.817   5.554  11.216 -0.1587 -0.2578 -0.0457
16478TIP3    H270926   5.922   5.453  11.175  1.6884  1.1221  1.1655
16479TIP3   OH270927   5.974   1.596   0.270 -0.0326 -0.3974  0.2591
16479TIP3    H170928   6.035   1.641   0.211  1.7306 -0.4481  2.0095
16479TIP3    H270929   5.913   1.665   0.298  0.0584 -0.0438 -0.3967
16480TIP3   OH270930   3.548   3.905  11.689  0.1319 -0.5473 -0.1960
16480TIP3    H170931   3.463   3.882  11.727  0.6695 -1.9078  0.2422
16480TIP3    H270932   3.527   3.964  11.617 -0.9179  2.2754  2.2917
16481TIP3   OH270933   6.776   3.129  16.753 -0.1741 -0.3392 -0.3839
16481TIP3    H170934   6.739   3.050  16.793  0.2278 -1.0251 -1.3487
16481TIP3    H270935   6.860   3.142  16.798 -1.5029  1.1815  1.7625
16482TIP3   OH270936   5.510   4.536  11.790  0.5806 -0.0379 -0.1270
16482TIP3    H170937   5.432   4.588  11.808  0.8599  0.1700  0.4950
16482TIP3    H270938   5.551   4.580  11.715  0.6164  0.4202  0.1600
16483TIP3   OH270939   0.517   4.854   1.100  0.4424 -0.0263  0.3254
16483TIP3    H170940   0.597   4.884   1.057  0.2612 -1.2907 -0.9149
16483TIP3    H270941   0.464   4.933   1.108  2.0450  0.9559  1.7408
16484TIP3   OH270942   3.410   0.072   5.742 -0.4719 -0.5133 -0.2216
16484TIP3    H170943   3.394   0.159   5.704 -2.6628 -0.3302  1.0427
16484TIP3    H270944   3.324   0.042   5.770  0.5092 -2.4193  0.8321
16485TIP3   OH270945   5.967   3.068  13.288  0.5601  0.0377  0.7786
16485TIP3    H170946   6.025   3.117  13.345 -0.3697  3.2004 -0.8708
16485TIP3    H270947   5.998   3.087  13.199 -0.8023 -1.0878  0.0272
16486TIP3   OH270948   5.667   5.556  14.422 -0.5663  0.1558 -0.0963
16486TIP3    H170949   5.595   5.493  14.423  0.4109 -1.0133 -1.1105
16486TIP3    H270950   5.638   5.626  14.364 -0.4949 -0.8021 -1.3018
16487TIP3   OH270951   3.951   5.627   5.672 -0.2311  0.6427  0.1178
16487TIP3    H170952   3.999   5.561   5.720 -1.1497  1.1735  1.8102
16487TIP3    H270953   3.935   5.588   5.586  1.0113 -0.5056  0.4048
16488TIP3   OH270954   3.677   1.468  11.364 -0.1183 -0.4639 -0.3059
16488TIP3    H170955   3.722   1.399  11.412 -1.3559  0.0067  1.6042
16488TIP3    H270956   3.744   1.536  11.352  0.4540 -0.9792 -0.0751
16489TIP3   OH270957   5.237   5.945   4.898  0.6732  0.7258 -0.0753
16489TIP3    H170958   5.259   5.992   4.817 -1.0033 -0.7505 -1.4595
16489TIP3    H270959   5.272   5.857   4.884 -0.5913  0.1523  0.3265
16490TIP3   OH270960   5.911   0.274   4.549  0.4282  0.1749  0.5717
16490TIP3    H170961   5.938   0.183   4.532 -1.6543 -0.6626  1.5750
16490TIP3    H270962   5.865   0.300   4.469  0.3733  0.0757  0.5703
16491TIP3   OH270963   5.628   6.692  11.867  0.0020  0.0538 -0.7760
16491TIP3    H170964   5.710   6.674  11.820 -0.9320 -0.9735 -2.0493
16491TIP3    H270965   5.655   6.705  11.958  1.6302  0.1686 -1.2626
16492TIP3   OH270966   3.762   0.526   4.904  0.4795 -0.1536  0.2618
16492TIP3    H170967   3.671   0.544   4.925  0.1617 -1.4096  0.0103
16492TIP3    H270968   3.788   0.458   4.967  0.5710 -1.3909 -1.0925
16493TIP3   OH270969   5.311   2.334  12.304 -0.0818  0.5980  0.2280
16493TIP3    H170970   5.324   2.408  12.364 -1.7423  1.1746 -0.1004
16493TIP3    H270971   5.298   2.375  12.218  2.7806 -0.2510 -0.6373
16494TIP3   OH270972   2.856   0.990   3.819 -0.3724 -0.1388  0.3059
16494TIP3    H170973   2.772   0.970   3.861 -0.6232  0.0715 -0.0971
16494TIP3    H270974   2.913   0.918   3.846 -0.7804 -0.4724  0.2911
16495TIP3   OH270975   6.583   0.861  16.040  0.3022  0.3468 -0.0795
16495TIP3    H170976   6.555   0.916  16.113 -0.4573 -0.8782  0.5757
16495TIP3    H270977   6.676   0.842  16.059 -0.3597 -1.4770  1.5882
16496TIP3   OH270978   0.962   5.930  12.459  0.5694 -0.2768 -0.2703
16496TIP3    H170979   0.961   5.834  12.457 -0.8269 -0.2737 -0.0498
16496TIP3    H270980   0.962   5.953  12.552 -0.5701 -0.0646 -0.3130
16497TIP3   OH270981   1.355   4.008  11.480 -0.0547 -0.0945 -0.2946
16497TIP3    H170982   1.445   3.995  11.448 -0.0752  0.3832 -0.5418
16497TIP3    H270983   1.351   4.100  11.505 -0.7483  0.1003 -1.1220
16498TIP3   OH270984   6.088   0.868  14.263  0.2527 -0.1123 -0.1666
16498TIP3    H170985   6.003   0.825  14.261  0.3774 -0.4450  1.3367
16498TIP3    H270986   6.147   0.804  14.303  1.0108  0.4563 -0.3581
16499TIP3   OH270987   0.106   4.282  11.732  0.2144 -0.6652  0.2495
16499TIP3    H170988   0.070   4.330  11.807  0.5963 -1.0150  0.6693
16499TIP3    H270989   0.080   4.191  11.747  0.7968 -0.8319  0.2741
16500TIP3   OH270990   4.920   5.847  11.460 -0.2416  0.4406 -0.7667
16500TIP3    H170991   4.825   5.852  11.473 -0.0889  0.6305  0.2864
16500TIP3    H270992   4.943   5.934  11.426 -0.1330  1.1238  1.0313
16501TIP3   OH270993   3.892   2.023   2.306  0.5553 -0.3862 -0.5065
16501TIP3    H170994   3.887   2.118   2.315 -2.2206 -0.3462 -2.0260
16501TIP3    H270995   3.908   1.991   2.395 -0.7843  1.3583  0.3876
16502TIP3   OH270996   4.991   3.271   3.949  0.5554  0.8866 -0.1708
16502TIP3    H170997   4.957   3.251   4.037 -0.4515  2.0878 -0.2628
16502TIP3    H270998   5.056   3.203   3.932  0.7876  0.6617  1.5278
16503TIP3   OH270999   3.470   0.212  17.251 -0.5896 -0.1187 -0.9128
16503TIP3    H171000   3.467   0.257  17.336 -0.9405 -0.3006 -0.8267
16503TIP3    H271001   3.388   0.164  17.247 -1.8823  2.1644 -2.6157
16504TIP3   OH271002   0.912   0.521  14.056 -0.1710 -0.2493 -0.0788
16504TIP3    H171003   0.880   0.611  14.049  0.4505 -0.0358 -0.2739
16504TIP3    H271004   0.854   0.479  14.119 -1.0447  0.0297 -0.6880
16505TIP3   OH271005   0.594   1.758  13.838  0.2054 -0.3366  0.3700
16505TIP3    H171006   0.630   1.672  13.818  0.4584 -0.1056 -0.1652
16505TIP3    H271007   0.597   1.763  13.934  0.6033 -0.7459  0.3828
16506TIP3   OH271008   2.915   6.160  16.060  0.6252 -0.6595 -0.1724
16506TIP3    H171009   2.906   6.066  16.043  0.2973 -0.0930 -3.3081
16506TIP3    H271010   2.825   6.193  16.059  0.7500 -0.2603  0.8134
16507TIP3   OH271011   2.767   6.146   2.593  0.9214  0.2212  0.2153
16507TIP3    H171012   2.705   6.176   2.659  1.4566 -0.8339  1.2242
16507TIP3    H271013   2.720   6.080   2.543  0.7104  0.5842 -0.0646
16508TIP3   OH271014   4.457   3.886  14.583 -0.8414 -0.6451  0.5401
16508TIP3    H171015   4.464   3.841  14.498  1.6061  0.6093  0.0208
16508TIP3    H271016   4.454   3.815  14.647  1.2001 -1.6192 -0.3762
16509TIP3   OH271017   1.145   1.601  10.820 -0.0809  0.0730  0.5299
16509TIP3    H171018   1.068   1.655  10.805 -0.7926 -0.6193  1.6519
16509TIP3    H271019   1.186   1.639  10.898 -0.1716 -0.5413  0.8793
16510TIP3   OH271020   3.834   5.552  13.042 -0.3061  0.3044  0.3692
16510TIP3    H171021   3.860   5.633  13.086 -0.5463  0.8323 -0.4691
16510TIP3    H271022   3.739   5.556  13.038 -0.3414 -0.2120  0.6966
16511TIP3   OH271023   4.020   3.022   5.326 -0.1408  0.0117  0.1090
16511TIP3    H171024   4.104   2.978   5.337  0.7081  1.6256  0.2117
16511TIP3    H271025   4.023   3.058   5.237 -1.0099 -0.4943 -0.1332
16512TIP3   OH271026   6.299   5.382  16.910  0.0578  0.3958  0.0359
16512TIP3    H171027   6.305   5.468  16.953  1.9331 -0.0780  0.7644
16512TIP3    H271028   6.365   5.385  16.841  0.9779 -0.8628  0.8285
16513TIP3   OH271029   1.427   2.221   2.299 -0.2839  0.0455 -0.4990
16513TIP3    H171030   1.453   2.129   2.312  0.2049  0.1037 -1.0745
16513TIP3    H271031   1.454   2.241   2.210 -2.7793 -0.0436 -1.3065
16514TIP3   OH271032   4.936   6.267   1.484  0.0052 -0.3105  0.3221
16514TIP3    H171033   4.895   6.225   1.408  1.1378 -0.7521 -0.0571
16514TIP3    H271034   5.029   6.272   1.462  0.1753  0.6251  1.1949
16515TIP3   OH271035   5.333   1.956   1.090  0.2898  0.9130 -0.0557
16515TIP3    H171036   5.305   1.952   1.181 -0.9609 -1.5493 -0.5148
16515TIP3    H271037   5.257   1.927   1.039  1.9780 -0.8508 -1.6553
16516TIP3   OH271038   2.295   1.732  12.014 -0.4872  0.0449  0.1627
16516TIP3    H171039   2.298   1.710  11.922 -1.2355 -0.3862  0.2329
16516TIP3    H271040   2.232   1.670  12.052 -0.3593  0.3621  0.9116
16517TIP3   OH271041   5.926   5.751  13.289  0.6841  0.5568 -0.7299
16517TIP3    H171042   6.021   5.744  13.286  0.7205  1.3367 -2.1055
16517TIP3    H271043   5.904   5.805  13.213 -0.8027  0.9479 -0.0437
16518TIP3   OH271044   4.502   0.594   1.741 -0.2497 -0.2321  0.5955
16518TIP3    H171045   4.492   0.643   1.822 -0.2199 -1.8101  1.5746
16518TIP3    H271046   4.597   0.588   1.728 -0.2680  0.8401 -0.0717
16519TIP3   OH271047   0.998   2.101   5.450 -0.6695 -0.2310 -0.5987
16519TIP3    H171048   0.935   2.172   5.454 -1.6965 -1.1795  0.4653
16519TIP3    H271049   1.079   2.142   5.419 -1.0066  1.5539  0.8364
16520TIP3   OH271050   0.011   6.680  11.503 -0.2664 -0.2043 -1.0364
16520TIP3    H171051  -0.063   6.625  11.528  0.0759 -0.2801 -0.1708
16520TIP3    H271052   0.088   6.627  11.522  0.0099 -0.1467 -1.9848
16521TIP3   OH271053   2.378   1.192   2.337 -0.0520  0.2251 -0.3684
16521TIP3    H171054   2.379   1.284   2.365 -0.2567 -0.2260  1.1776
16521TIP3    H271055   2.464   1.158   2.365 -0.4325 -0.3472  0.1238
16522TIP3   OH271056   1.896   4.801  11.122 -0.5605  0.1011 -0.5931
16522TIP3    H171057   1.854   4.722  11.158 -0.6349 -0.3203 -1.5838
16522TIP3    H271058   1.860   4.873  11.174 -1.8157 -0.3470 -0.8081
16523TIP3   OH271059   0.609   5.731   6.252 -0.3369 -0.1552  0.0547
16523TIP3    H171060   0.687   5.721   6.307 -0.1865 -0.3783 -0.1991
16523TIP3    H271061   0.643   5.744   6.164 -0.5385  1.7583  0.2269
16524TIP3   OH271062   3.832   0.850  13.697 -0.1715  0.2186 -0.6023
16524TIP3    H171063   3.858   0.768  13.740 -1.9558  0.6708  1.4780
16524TIP3    H271064   3.914   0.896  13.682  0.6521 -0.6802  0.9257
16525TIP3   OH271065   4.452   6.584   2.030  0.3427 -0.3658 -0.1328
16525TIP3    H171066   4.412   6.519   2.087 -0.0293 -0.3148 -0.3318
16525TIP3    H271067   4.392   6.591   1.956 -0.3797  1.2836  0.5843
16526TIP3   OH271068   2.447   2.889   0.154  0.5332 -0.1208 -0.2185
16526TIP3    H171069   2.514   2.841   0.203 -0.7629 -2.4393 -0.6443
16526TIP3    H271070   2.367   2.880   0.206 -0.0246  0.4869 -0.9441
16527TIP3   OH271071   1.523   6.240   4.869  0.0431 -0.4703  0.3846
16527TIP3    H171072   1.593   6.189   4.911  0.2106 -1.4134 -1.0273
16527TIP3    H271073   1.565   6.283   4.795 -0.8069 -0.7728 -0.2772
16528TIP3   OH271074   3.734   1.245   3.276  0.0952 -0.4251 -0.1251
16528TIP3    H171075   3.697   1.207   3.196 -0.1972  0.8179 -0.5918
16528TIP3    H271076   3.662   1.241   3.339  0.6479 -2.3780  0.4135
16529TIP3   OH271077   4.128   6.147  12.836 -0.0497  0.1906 -0.2734
16529TIP3    H171078   4.221   6.133  12.820 -0.1059 -0.1457 -0.2964
16529TIP3    H271079   4.117   6.129  12.929  0.1197  1.3357 -0.0236
16530TIP3   OH271080   6.188   2.898  16.943 -0.0628  0.6273  0.0820
16530TIP3    H171081   6.254   2.843  16.902  1.4675  0.2444  2.9353
16530TIP3    H271082   6.217   2.988  16.925 -0.0344  0.4782 -0.6242
16531TIP3   OH271083   3.913   2.413   5.127 -0.3709  0.0801 -0.5840
16531TIP3    H171084   3.852   2.480   5.095 -0.8269  0.3500  0.7905
16531TIP3    H271085   3.991   2.462   5.153 -1.0591  0.2359  1.3169
16532TIP3   OH271086   4.064   1.736   0.031 -0.3146  1.4591  0.2486
16532TIP3    H171087   4.049   1.659   0.085  0.0811 -0.7113 -2.5691
16532TIP3    H271088   3.985   1.789   0.040 -1.9898 -0.9030 -0.3194
16533TIP3   OH271089   3.890   6.223  12.081 -0.4523 -0.6072  0.1575
16533TIP3    H171090   3.816   6.174  12.117  1.0654 -2.7893  0.3909
16533TIP3    H271091   3.880   6.215  11.986 -2.5187  2.2200  0.0742
16534TIP3   OH271092   2.029   2.717   2.515  0.2553  0.0071 -0.1854
16534TIP3    H171093   2.053   2.668   2.593 -1.4009  0.2238  0.5022
16534TIP3    H271094   1.993   2.799   2.549 -0.1582  0.2489 -1.1811
16535TIP3   OH271095   6.557   5.840   3.493 -0.0714 -0.4007  0.4528
16535TIP3    H171096   6.647   5.850   3.463 -0.2595 -0.5814 -0.1711
16535TIP3    H271097   6.560   5.764   3.552 -0.0135 -1.0448 -0.3790
16536TIP3   OH271098   2.916   1.955   1.319  0.5370 -0.2891 -0.1828
16536TIP3    H171099   2.882   1.897   1.388  0.2230 -1.1419 -1.0422
16536TIP3    H271100   2.851   1.949   1.249 -0.0983  2.0344  0.1838
16537TIP3   OH271101   5.330   1.887   4.596 -0.3900  0.0910  0.0531
16537TIP3    H171102   5.377   1.888   4.512 -1.7281  1.3517 -0.7234
16537TIP3    H271103   5.241   1.914   4.573 -1.4228 -1.9823  1.5380
16538TIP3   OH271104   1.869   6.392   5.084  0.3148 -0.1461  0.0955
16538TIP3    H171105   1.844   6.457   5.019  0.0839 -0.2255  0.1016
16538TIP3    H271106   1.786   6.369   5.127  0.7773  1.5146  1.9219
16539TIP3   OH271107   5.838   6.754   4.042 -0.0301 -0.2622  0.3445
16539TIP3    H171108   5.770   6.806   4.086 -0.5178  0.5672 -1.3556
16539TIP3    H271109   5.802   6.666   4.038 -1.7665  0.5031 -2.0439
16540TIP3   OH271110   5.569   6.339  13.797 -0.1861 -0.0924  0.0146
16540TIP3    H171111   5.479   6.305  13.797  0.3018 -1.4213 -0.0363
16540TIP3    H271112   5.559   6.433  13.808 -1.5569 -0.3376  1.0802
16541TIP3   OH271113   4.896   1.548   3.373 -0.2739  0.1578  0.0493
16541TIP3    H171114   4.984   1.567   3.405  0.2749 -0.0665 -1.3142
16541TIP3    H271115   4.909   1.511   3.286 -1.6431 -1.0065  0.3039
16542TIP3   OH271116   4.738   0.091   5.104  0.1398  0.1707 -0.2277
16542TIP3    H171117   4.696   0.099   5.018 -0.0028 -0.4734 -0.2155
16542TIP3    H271118   4.672   0.051   5.160  0.8019 -0.9661 -0.2401
16543TIP3   OH271119   5.842   2.773  13.145  0.2252 -0.2126  0.0964
16543TIP3    H171120   5.835   2.797  13.052  1.2873  0.7919  0.2655
16543TIP3    H271121   5.885   2.847  13.186  0.0766 -0.8003  1.3449
16544TIP3   OH271122   5.750   6.287   3.353 -0.5053  0.2463 -0.4859
16544TIP3    H171123   5.755   6.259   3.444 -0.8948  1.3915 -0.1059
16544TIP3    H271124   5.797   6.370   3.350  0.6399 -0.4161 -1.6021
16545TIP3   OH271125   0.540   3.906  16.673 -0.0030 -0.2913 -0.4594
16545TIP3    H171126   0.558   3.967  16.744  2.0964 -0.6153 -0.6782
16545TIP3    H271127   0.456   3.936  16.636 -0.5783  0.5176  1.4403
16546TIP3   OH271128   4.150   1.208  15.103  0.2910 -0.3206 -0.7754
16546TIP3    H171129   4.182   1.119  15.119 -1.6891 -1.1242 -1.0699
16546TIP3    H271130   4.189   1.233  15.019 -0.1299 -1.4150 -1.3092
16547TIP3   OH271131   2.977   3.335  13.125  0.8200  0.1364 -0.2503
16547TIP3    H171132   2.983   3.431  13.121  1.0472  0.1519  0.3926
16547TIP3    H271133   3.046   3.304  13.067  0.0302  0.3596 -1.3373
16548TIP3   OH271134   3.478   6.562   1.831 -0.1203  0.1445  0.8431
16548TIP3    H171135   3.548   6.578   1.768 -0.6315  1.4625  0.5801
16548TIP3    H271136   3.400   6.597   1.788 -0.8717 -0.9453  1.2943
16549TIP3   OH271137   2.815   1.128  14.059 -0.2096  0.7352  0.1148
16549TIP3    H171138   2.722   1.105  14.053  0.1386 -0.3408 -1.5323
16549TIP3    H271139   2.855   1.056  14.107 -0.2943  1.4663  1.3118
16550TIP3   OH271140   2.213   5.482   1.305 -0.2690  0.2692  0.3076
16550TIP3    H171141   2.179   5.438   1.383  0.2761  0.9996  0.9608
16550TIP3    H271142   2.189   5.574   1.316 -0.6550  0.2866 -0.6438
16551TIP3   OH271143   3.419   2.129   3.804  0.1156  0.1327 -0.4102
16551TIP3    H171144   3.355   2.062   3.828 -1.3403  1.3997 -0.5981
16551TIP3    H271145   3.406   2.199   3.869  2.1427 -0.0802  0.2514
16552TIP3   OH271146   0.787   4.705  14.680 -0.1051  0.4790  0.1841
16552TIP3    H171147   0.800   4.610  14.678 -0.4264  0.4525 -1.2804
16552TIP3    H271148   0.716   4.718  14.743 -2.5374 -0.6109 -2.1964
16553TIP3   OH271149   3.955   1.218  13.555  0.3942 -0.2169 -0.2554
16553TIP3    H171150   3.984   1.303  13.521  1.6165 -0.0883  1.0571
16553TIP3    H271151   3.943   1.232  13.649 -1.6031 -0.9314 -0.3838
16554TIP3   OH271152   5.521   1.976   4.400 -0.2810 -0.8970 -0.1667
16554TIP3    H171153   5.506   2.001   4.309  1.0046  0.8023  0.0502
16554TIP3    H271154   5.579   2.045   4.434 -0.3218 -1.7942  1.7786
16555TIP3   OH271155   6.566   3.447   2.023 -0.0331 -0.2271  0.2006
16555TIP3    H171156   6.563   3.365   2.071 -0.5774  0.9422  2.1930
16555TIP3    H271157   6.593   3.513   2.087  1.7440  0.9628 -1.6630
16556TIP3   OH271158   5.413   3.101  11.187  0.2377 -0.6787  0.0854
16556TIP3    H171159   5.498   3.084  11.227 -0.0925 -0.6146  0.8298
16556TIP3    H271160   5.433   3.155  11.111  0.8061 -0.1611  0.5925
16557TIP3   OH271161   0.014   3.381  11.545  0.2723 -0.1516 -0.5269
16557TIP3    H171162  -0.008   3.328  11.622  1.7674  1.3660  0.9734
16557TIP3    H271163   0.060   3.457  11.580 -0.3202  1.3109 -2.8108
16558TIP3   OH271164   0.930   3.104   5.126 -0.5983 -0.3843 -0.3525
16558TIP3    H171165   0.977   3.023   5.147 -0.4083 -0.6777 -1.8192
16558TIP3    H271166   0.995   3.173   5.135 -0.5510 -0.4858  0.1064
16559TIP3   OH271167   1.125   6.527   4.484 -0.0225  0.6614  0.1947
16559TIP3    H171168   1.070   6.552   4.409  1.3545  1.3943 -0.5959
16559TIP3    H271169   1.193   6.594   4.486  1.2011 -0.5917  0.7673
16560TIP3   OH271170   2.583   2.660  12.692 -0.0356  0.2724  0.0081
16560TIP3    H171171   2.534   2.579  12.677 -1.6083  0.9317  1.4343
16560TIP3    H271172   2.630   2.645  12.773 -0.5034  0.8603  0.3945
16561TIP3   OH271173   2.992   0.802   1.529 -0.0858  0.3823  0.5146
16561TIP3    H171174   2.978   0.845   1.444  2.2659 -1.8883 -1.1117
16561TIP3    H271175   3.000   0.709   1.507  0.3677 -0.2578  3.2747
16562TIP3   OH271176   3.862   1.785   3.403  0.3988  0.2050  0.0413
16562TIP3    H171177   3.890   1.746   3.486 -2.2174 -0.9653  0.4544
16562TIP3    H271178   3.780   1.830   3.425 -0.7651 -0.8073 -2.0245
16563TIP3   OH271179   2.608   6.301  11.705  0.0328 -0.4597  0.1438
16563TIP3    H171180   2.575   6.388  11.685 -0.2853 -0.6392 -0.1189
16563TIP3    H271181   2.622   6.302  11.800 -0.0799 -0.1630  0.1576
16564TIP3   OH271182   3.803   4.514   1.262  0.3861 -0.4642 -0.1140
16564TIP3    H171183   3.756   4.521   1.179 -1.5084 -3.2830  0.6534
16564TIP3    H271184   3.883   4.564   1.249 -0.2168 -0.2702 -3.3856
16565TIP3   OH271185   5.724   3.525   3.036  0.4898 -0.2383  0.0331
16565TIP3    H171186   5.752   3.614   3.059  0.0786  0.6785 -2.7726
16565TIP3    H271187   5.643   3.538   2.987  0.9170 -2.1008 -1.1858
16566TIP3   OH271188   0.978   5.920   5.069 -0.1697  0.0588 -0.4765
16566TIP3    H171189   1.037   5.851   5.040 -0.5012 -0.2630 -0.3909
16566TIP3    H271190   0.994   5.928   5.163 -1.3547 -1.0935 -0.1676
16567TIP3   OH271191   2.590   6.683   4.245  0.6778  0.3753 -0.0904
16567TIP3    H171192   2.660   6.628   4.209 -0.1473 -0.2321 -0.7857
16567TIP3    H271193   2.590   6.761   4.189  0.9742  0.4919  0.0734
16568TIP3   OH271194   0.180   4.955   3.151  0.1131 -0.2890 -0.2466
16568TIP3    H171195   0.137   4.996   3.225 -0.4802 -1.9375  0.3392
16568TIP3    H271196   0.241   5.022   3.118 -0.5300  0.8869  0.9262
16569TIP3   OH271197   1.660   5.736   5.136 -0.3858 -0.7028 -0.4877
16569TIP3    H171198   1.743   5.712   5.096  0.3927  1.9268 -0.4919
16569TIP3    H271199   1.680   5.747   5.229 -0.9768 -1.1873 -0.2970
16570TIP3   OH271200   5.870   3.981  16.162 -0.5176  0.8592 -0.5844
16570TIP3    H171201   5.821   3.934  16.229  0.7534  0.8340  0.3380
16570TIP3    H271202   5.826   3.959  16.080 -0.6774 -0.9581 -0.0273
16571TIP3   OH271203   5.877   2.429  12.835  0.1644  0.3277  0.5507
16571TIP3    H171204   5.859   2.474  12.753  0.9599  0.3508  0.3829
16571TIP3    H271205   5.795   2.386  12.858 -0.4442  1.4047  0.4191
16572TIP3   OH271206   1.551   5.304  16.631 -0.4797  0.1795 -0.0443
16572TIP3    H171207   1.581   5.214  16.643 -0.0644 -0.0642 -2.5611
16572TIP3    H271208   1.572   5.324  16.540 -1.9426  2.3086  0.0439
16573TIP3   OH271209   5.832   1.849  16.582  0.0084  0.0026 -0.0600
16573TIP3    H171210   5.756   1.903  16.602 -1.0765 -0.9823 -1.4653
16573TIP3    H271211   5.907   1.904  16.603 -1.0826  1.4671  0.0371
16574TIP3   OH271212   3.218   1.111  16.037  0.8263 -0.0897  0.3374
16574TIP3    H171213   3.261   1.137  15.955  0.3214 -1.2168 -0.3110
16574TIP3    H271214   3.290   1.092  16.097  1.2826 -2.2199 -0.8181
16575TIP3   OH271215   5.264   5.498  12.492 -0.1237 -0.1937  0.1323
16575TIP3    H171216   5.250   5.562  12.422  0.8069 -1.0978 -0.9016
16575TIP3    H271217   5.307   5.424  12.449  2.0767 -0.0604  1.9918
16576TIP3   OH271218   2.017   4.445  12.415 -0.5052 -0.3103 -0.1835
16576TIP3    H171219   1.975   4.439  12.501 -0.8788 -0.3870 -0.3660
16576TIP3    H271220   1.959   4.395  12.357 -1.3581  1.4481 -0.8833
16577TIP3   OH271221   5.450   0.239   0.582 -0.0342 -0.4009 -0.1027
16577TIP3    H171222   5.524   0.198   0.538 -0.1945 -0.8130  0.0157
16577TIP3    H271223   5.413   0.170   0.637  0.5696  0.2747  1.1988
16578TIP3   OH271224   6.610   6.443   4.494  0.8099 -0.2530 -0.2383
16578TIP3    H171225   6.598   6.477   4.582 -0.2149  0.4855 -0.6557
16578TIP3    H271226   6.545   6.489   4.441  2.0407  0.0038 -1.5640
16579TIP3   OH271227   5.294   4.107   1.730  0.5439 -0.3979 -0.3389
16579TIP3    H171228   5.378   4.152   1.721  1.7377 -2.3272  0.8845
16579TIP3    H271229   5.290   4.048   1.655 -0.4710  0.8046 -1.2658
16580TIP3   OH271230   1.761   3.340  14.381 -0.0930 -0.0201 -0.1816
16580TIP3    H171231   1.741   3.316  14.291  1.0662  2.2989 -1.1251
16580TIP3    H271232   1.676   3.350  14.424 -0.6436 -1.0162 -1.0387
16581TIP3   OH271233   2.932   0.075   0.477  0.3862 -0.4410 -0.6591
16581TIP3    H171234   2.925   0.122   0.394 -2.4920 -1.0118 -0.7956
16581TIP3    H271235   2.905   0.140   0.543  2.4729 -0.0474 -0.1735
16582TIP3   OH271236   5.203   5.240  12.909 -0.4309 -0.1772  0.2738
16582TIP3    H171237   5.201   5.305  12.839 -0.6923 -1.7692 -1.2109
16582TIP3    H271238   5.117   5.248  12.951 -0.2468  0.8217  0.4891
16583TIP3   OH271239   4.871   4.853   5.054  0.5916 -0.6241 -0.0643
16583TIP3    H171240   4.786   4.813   5.074  1.6727 -2.2732  1.2843
16583TIP3    H271241   4.857   4.897   4.970 -2.3470  1.3677  1.3548
16584TIP3   OH271242   6.340   0.563   1.478  0.0187  0.3584 -0.2179
16584TIP3    H171243   6.423   0.524   1.452  0.3900 -1.1390  2.9881
16584TIP3    H271244   6.362   0.655   1.494  0.9035  0.1470 -0.1500
16585TIP3   OH271245   6.805   0.019   1.285 -0.2374 -0.1303  0.0551
16585TIP3    H171246   6.751   0.088   1.323 -0.3026  0.9002 -1.8915
16585TIP3    H271247   6.836  -0.031   1.361 -0.8770  1.5000  1.4165
16586TIP3   OH271248   0.581   5.494   4.884  0.5652  0.9275  0.0367
16586TIP3    H171249   0.613   5.421   4.938 -0.4378 -1.1008 -2.0031
16586TIP3    H271250   0.490   5.472   4.865  1.0591  1.2374 -2.9707
16587TIP3   OH271251   0.822   5.111   2.888 -0.2819 -0.5586  0.2384
16587TIP3    H171252   0.834   5.206   2.893  0.9935 -0.6802 -0.3225
16587TIP3    H271253   0.785   5.087   2.973 -1.8513  0.6112 -0.0991
16588TIP3   OH271254   0.190   3.980   1.543  0.0778  0.0374  1.1857
16588TIP3    H171255   0.126   4.046   1.568  2.4067  2.5621  0.6306
16588TIP3    H271256   0.231   3.954   1.626 -0.5320 -0.4356  1.3486
16589TIP3   OH271257   4.361   1.849  12.142  0.3791 -0.4486  0.1869
16589TIP3    H171258   4.357   1.930  12.092 -2.1333 -1.4994 -1.3755
16589TIP3    H271259   4.316   1.785  12.088  0.0619 -2.2950  2.5684
16590TIP3   OH271260   3.763   3.366  15.298 -0.2854 -0.2310 -0.1106
16590TIP3    H171261   3.824   3.421  15.348  1.8811  0.4940 -3.3422
16590TIP3    H271262   3.813   3.286  15.279 -0.7212 -0.1183 -1.8084
16591TIP3   OH271263   1.844   1.341   4.851 -0.0839 -0.2620  0.2432
16591TIP3    H171264   1.807   1.256   4.826 -1.8648  0.2253  1.1340
16591TIP3    H271265   1.778   1.380   4.908  1.9133  0.5653  2.0683
16592TIP3   OH271266   4.911   6.683   5.588  0.0997 -0.0474 -0.4151
16592TIP3    H171267   4.849   6.632   5.641  0.4371  0.9059  0.9249
16592TIP3    H271268   4.868   6.767   5.575  1.0824  0.6187  0.5148
16593TIP3   OH271269   0.414   1.255  11.920  0.0902  0.5353 -0.3424
16593TIP3    H171270   0.421   1.304  12.002  1.0500 -2.9639  1.8091
16593TIP3    H271271   0.324   1.221  11.920  0.4089 -0.3384 -0.1644
16594TIP3   OH271272   1.527   2.711   5.150 -0.2931  0.0514 -0.1667
16594TIP3    H171273   1.514   2.744   5.061  1.9816  1.9560  0.1619
16594TIP3    H271274   1.454   2.747   5.200 -1.4259 -0.7966 -1.1731
16595TIP3   OH271275   2.019   5.571  16.344 -0.5379  0.3488  0.1088
16595TIP3    H171276   2.028   5.545  16.252 -0.2725  0.9023 -0.0231
16595TIP3    H271277   1.937   5.620  16.347  0.0190  1.2910 -0.0487
16596TIP3   OH271278   3.836   0.113   4.480  0.4616 -0.0275 -0.1561
16596TIP3    H171279   3.918   0.062   4.484  0.2127 -0.3869  0.3568
16596TIP3    H271280   3.848   0.183   4.544  0.7528  0.4957 -0.7725
16597TIP3   OH271281   4.190   6.295   0.497  0.0484 -0.2251  0.0420
16597TIP3    H171282   4.249   6.234   0.541  1.4783  0.1842 -1.2970
16597TIP3    H271283   4.152   6.245   0.425 -1.9064 -0.7344  1.3592
16598TIP3   OH271284   1.047   6.176   6.050 -0.0072  0.2158  0.2234
16598TIP3    H171285   1.065   6.195   5.958  0.7865 -2.4149 -0.1825
16598TIP3    H271286   1.131   6.190   6.095  0.1230 -0.5652  0.2186
16599TIP3   OH271287   0.008   5.926  14.336 -0.4303  0.1870 -0.4181
16599TIP3    H171288   0.016   5.838  14.298  2.1054 -0.1919  0.8723
16599TIP3    H271289  -0.069   5.921  14.392 -2.4271 -0.1257 -3.1026
16600TIP3   OH271290   5.758   3.572   0.216  0.0115 -0.2344 -0.9037
16600TIP3    H171291   5.851   3.593   0.206 -0.2390  1.5010  0.2372
16600TIP3    H271292   5.757   3.495   0.271  0.6877  1.7611  2.0060
16601TIP3   OH271293   5.695   0.797  14.517  0.6073  0.2525 -0.0148
16601TIP3    H171294   5.609   0.834  14.538  1.4320  1.4735  1.2963
16601TIP3    H271295   5.739   0.864  14.465  1.1285  0.0325  0.1309
16602TIP3   OH271296   6.177   3.734   1.822  0.2852 -0.2763  0.2308
16602TIP3    H171297   6.233   3.656   1.823  0.2500 -0.2955  0.4982
16602TIP3    H271298   6.090   3.702   1.844 -0.0756 -0.4377 -1.3233
16603TIP3   OH271299   4.022   2.582   2.021 -0.1118  0.1531  0.6716
16603TIP3    H171300   3.956   2.602   2.088 -1.0066  1.0403 -0.4552
16603TIP3    H271301   3.971   2.562   1.942  0.9302 -1.0933  0.2944
16604TIP3   OH271302   0.144   0.547  11.200 -0.1627 -0.4471 -0.0526
16604TIP3    H171303   0.218   0.606  11.218 -0.1639 -0.6493  0.6513
16604TIP3    H271304   0.126   0.506  11.285 -2.0973  0.7489  0.1463
16605TIP3   OH271305   3.411   3.994   4.647 -0.4234  0.2092 -0.7698
16605TIP3    H171306   3.433   4.072   4.597  1.3762 -0.8980 -1.7322
16605TIP3    H271307   3.419   4.021   4.739  1.3829  0.8368 -1.0963
16606TIP3   OH271308   2.567   1.447  11.822 -0.5381 -0.0154 -0.0604
16606TIP3    H171309   2.561   1.376  11.757 -0.2277 -1.2272  1.2092
16606TIP3    H271310   2.649   1.429  11.869 -1.8248 -0.3916  2.0937
16607TIP3   OH271311   1.812   1.462  14.614 -0.4783 -0.1806  0.2171
16607TIP3    H171312   1.891   1.426  14.655  0.9627  1.9304 -0.6438
16607TIP3    H271313   1.789   1.397  14.547 -0.3793 -1.5520  1.4811
16608TIP3   OH271314   6.676   6.388   6.175  0.2819  0.1128 -0.8790
16608TIP3    H171315   6.707   6.471   6.212  1.1226  0.5715 -2.5630
16608TIP3    H271316   6.685   6.325   6.247 -0.3317  1.4586  0.4028
16609TIP3   OH271317   3.123   4.178   3.416  0.1072  0.8997  0.5638
16609TIP3    H171318   3.094   4.105   3.471 -3.2138  2.0059  0.4187
16609TIP3    H271319   3.205   4.207   3.456 -1.0379  0.2029  3.5676
16610TIP3   OH271320   2.294   5.959  14.040 -0.0258 -0.6221  0.2148
16610TIP3    H171321   2.379   5.982  14.077  0.5622 -2.8882  0.3081
16610TIP3    H271322   2.311   5.948  13.946  0.2800 -3.3258  0.5659
16611TIP3   OH271323   2.006   6.510   0.400  0.6530  0.1121  0.0222
16611TIP3    H171324   2.046   6.545   0.479  2.5255 -0.0881 -0.7955
16611TIP3    H271325   2.068   6.443   0.370 -0.8035 -0.9301 -0.7462
16612TIP3   OH271326   4.424   0.285   4.533 -0.0192  0.1147  0.0938
16612TIP3    H171327   4.509   0.324   4.552  0.5723 -0.4175 -1.4013
16612TIP3    H271328   4.362   0.357   4.544  0.6269  0.5490  1.0199
16613TIP3   OH271329   5.339   3.493   2.447 -0.5073 -0.1267 -0.4844
16613TIP3    H171330   5.292   3.428   2.498 -1.3505  0.3051 -0.7005
16613TIP3    H271331   5.348   3.454   2.360 -0.6843 -0.1110 -0.5098
16614TIP3   OH271332   4.482   2.107  16.726 -0.2764  0.0746 -1.0315
16614TIP3    H171333   4.455   2.025  16.684 -0.4214 -0.6417  0.4235
16614TIP3    H271334   4.408   2.131  16.782 -0.0636  0.9816 -1.1306
16615TIP3   OH271335   3.358   5.874   5.976 -0.6234  0.2765 -0.2476
16615TIP3    H171336   3.399   5.950   6.018 -0.4271  0.1528 -0.2163
16615TIP3    H271337   3.411   5.800   6.004 -1.1204  0.0610  0.1335
16616TIP3   OH271338   1.564   2.219   0.537  0.0298 -0.1091  0.2685
16616TIP3    H171339   1.468   2.221   0.530  0.0081 -1.2364  0.1316
16616TIP3    H271340   1.593   2.294   0.485 -0.7536 -0.2095 -0.3267
16617TIP3   OH271341   4.965   1.159   3.474  0.6731 -0.2624 -0.4217
16617TIP3    H171342   4.957   1.226   3.542  2.3416 -0.1445 -0.3152
16617TIP3    H271343   4.937   1.203   3.394 -0.3530 -0.1013  0.0243
16618TIP3   OH271344   1.108   3.069   4.455  0.4162 -0.6564  0.0995
16618TIP3    H171345   1.166   3.084   4.379 -0.7590 -0.7437 -0.8302
16618TIP3    H271346   1.168   3.064   4.529  1.5092  0.6634 -0.6502
16619TIP3   OH271347   3.621   1.457  17.131  0.2352 -0.5418 -1.1612
16619TIP3    H171348   3.611   1.474  17.225 -2.6391 -1.7913 -1.1842
16619TIP3    H271349   3.709   1.422  17.122  1.5552  2.1639  0.6585
16620TIP3   OH271350   6.440   2.684  16.188 -0.4312  0.1764 -0.5072
16620TIP3    H171351   6.412   2.629  16.115 -1.7136  0.9038 -0.5817
16620TIP3    H271352   6.433   2.628  16.265 -1.2904  0.0921 -0.6435
16621TIP3   OH271353   5.409   4.910   2.738 -0.2604 -0.3128  0.0881
16621TIP3    H171354   5.487   4.855   2.741 -0.3824 -0.4444  0.9647
16621TIP3    H271355   5.349   4.863   2.679 -0.2598 -0.9959  0.6163
16622TIP3   OH271356   5.935   2.840   6.478 -0.8465  0.5038  0.6760
16622TIP3    H171357   5.979   2.770   6.526  0.6292  0.7144 -0.3532
16622TIP3    H271358   5.888   2.889   6.546 -1.2188 -0.9733  1.5083
16623TIP3   OH271359   2.624   6.351  13.318  0.1630 -0.9379  0.6499
16623TIP3    H171360   2.532   6.341  13.292 -0.0082  0.5148  0.6752
16623TIP3    H271361   2.673   6.340  13.237 -0.0216 -1.9024  0.6660
16624TIP3   OH271362   5.232   1.745   3.520  0.2418  0.3443 -0.2937
16624TIP3    H171363   5.240   1.819   3.461  1.3212 -0.1712 -0.8020
16624TIP3    H271364   5.245   1.668   3.465 -2.9589 -0.3643 -0.1943
16625TIP3   OH271365   0.547   1.363  17.050  0.2777 -0.1931 -0.2857
16625TIP3    H171366   0.453   1.372  17.038  0.0634 -1.2900  0.4644
16625TIP3    H271367   0.577   1.451  17.072 -0.3245  0.4735 -2.0689
16626TIP3   OH271368   4.955   1.674   6.494  0.3333  0.4420  0.1830
16626TIP3    H171369   4.885   1.658   6.558 -0.9903  1.2356 -1.0253
16626TIP3    H271370   4.933   1.618   6.420 -0.6356  2.7570 -1.3447
16627TIP3   OH271371   3.041   3.116  14.747  0.6197 -0.5581  0.0974
16627TIP3    H171372   3.132   3.143  14.743  0.7589 -1.0018  0.1918
16627TIP3    H271373   2.992   3.190  14.711  1.0233 -0.3625 -0.0534
16628TIP3   OH271374   4.139   6.771  14.069 -0.0098 -0.0718  0.2210
16628TIP3    H171375   4.228   6.796  14.044  0.1788  0.6155  1.5819
16628TIP3    H271376   4.107   6.843  14.122 -1.2782 -0.4585  0.0140
16629TIP3   OH271377   4.601   2.811  13.662  0.5686  0.7911 -0.1299
16629TIP3    H171378   4.655   2.873  13.712  1.2487  0.2447 -0.1831
16629TIP3    H271379   4.536   2.867  13.619  0.2506  1.3081  1.0026
16630TIP3   OH271380   4.310   6.767  15.947 -0.2232 -0.2593  0.4608
16630TIP3    H171381   4.363   6.689  15.927 -0.9454 -0.4620 -0.7040
16630TIP3    H271382   4.371   6.840  15.938  0.1802 -0.5955  0.4193
16631TIP3   OH271383   1.999   5.548  15.282  0.2148 -0.1970 -0.4793
16631TIP3    H171384   1.957   5.619  15.331  1.0621  0.5173 -0.7834
16631TIP3    H271385   1.935   5.476  15.285 -0.4371  0.4016  0.2546
16632TIP3   OH271386   2.888   2.180  14.763 -0.0987  0.3282 -0.5320
16632TIP3    H171387   2.813   2.234  14.739 -0.0290  0.0135 -1.4860
16632TIP3    H271388   2.868   2.094  14.726  0.1735 -0.0855  0.2595
16633TIP3   OH271389   6.414   2.966   6.072  0.1216 -0.3227  0.1814
16633TIP3    H171390   6.408   2.907   6.148 -0.7439  0.3445  0.6478
16633TIP3    H271391   6.341   3.027   6.084  0.2675  0.0785 -0.9500
16634TIP3   OH271392   4.146   2.843   0.510  0.6792 -0.1605 -0.5343
16634TIP3    H171393   4.084   2.906   0.546  1.8599  0.5186  0.3622
16634TIP3    H271394   4.142   2.856   0.415 -1.5564 -1.1101 -0.6174
16635TIP3   OH271395   3.569   6.078  11.960  0.7105  0.0243 -0.1212
16635TIP3    H171396   3.611   6.154  11.920 -0.5407  0.6696 -0.2288
16635TIP3    H271397   3.641   6.017  11.977  1.6986  1.1570 -0.1882
16636TIP3   OH271398   1.121   6.179  16.805  0.4446 -0.3450  0.0522
16636TIP3    H171399   1.149   6.092  16.831  1.7229  0.0292 -0.0284
16636TIP3    H271400   1.088   6.168  16.716 -0.0622 -0.8678  0.3010
16637TIP3   OH271401   2.268   4.126   0.229 -0.7266 -0.0414 -0.2424
16637TIP3    H171402   2.223   4.160   0.306  0.6625  2.7412 -0.6160
16637TIP3    H271403   2.347   4.180   0.221 -0.8376 -0.2842 -3.6256
16638TIP3   OH271404   6.714   6.620  14.984  0.0303 -0.4494  0.2915
16638TIP3    H171405   6.670   6.693  15.028 -0.5285 -0.5876 -0.0466
16638TIP3    H271406   6.801   6.655  14.962 -0.2660  0.1411  0.0563
16639TIP3   OH271407   6.277   4.944  11.928  0.2555  0.1184  0.4068
16639TIP3    H171408   6.188   4.938  11.963 -0.0536  0.0317 -0.3877
16639TIP3    H271409   6.278   4.883  11.854  1.4015 -0.9603  1.2971
16640TIP3   OH271410   5.101   2.624  14.801  0.1483  0.0241 -0.7579
16640TIP3    H171411   5.129   2.618  14.710 -0.0207 -0.6697 -0.7677
16640TIP3    H271412   5.168   2.577  14.850  0.1056  0.1758 -0.5492
16641TIP3   OH271413   1.615   1.644   4.353 -0.1850  0.3944  0.6847
16641TIP3    H171414   1.529   1.657   4.394  0.2076 -1.3514  2.1310
16641TIP3    H271415   1.677   1.680   4.416  0.3009 -0.6340  0.8012
16642TIP3   OH271416   3.406   3.626  11.098 -0.1226 -0.0094  0.7287
16642TIP3    H171417   3.369   3.559  11.040  0.5279 -0.1997  0.5243
16642TIP3    H271418   3.457   3.577  11.162  0.4443  0.2978  0.5157
16643TIP3   OH271419   5.178   1.270  15.535  0.0695  0.7369  0.3450
16643TIP3    H171420   5.192   1.362  15.513 -1.2382  1.0495  0.7555
16643TIP3    H271421   5.134   1.273  15.620  0.8221 -0.2961  0.7736
16644TIP3   OH271422   3.460   5.205  16.895 -0.5658  0.1807 -0.2607
16644TIP3    H171423   3.524   5.253  16.947 -0.2951 -0.6710  0.2140
16644TIP3    H271424   3.448   5.258  16.816 -0.6931  1.2889  0.4891
16645TIP3   OH271425   6.307   0.119   3.024 -0.0726 -0.2666 -0.3075
16645TIP3    H171426   6.372   0.186   3.001 -1.3774  1.4034  0.7852
16645TIP3    H271427   6.353   0.061   3.085  0.7555  0.2100 -0.4662
16646TIP3   OH271428   0.330   1.399   0.532  0.0011  0.5680  0.4717
16646TIP3    H171429   0.308   1.482   0.576 -0.9588  1.7328 -2.0927
16646TIP3    H271430   0.252   1.377   0.482  1.9745  0.7850 -2.8320
16647TIP3   OH271431   2.719   5.802  14.542 -1.1489  0.4555 -0.2775
16647TIP3    H171432   2.654   5.749  14.588  1.2090 -0.9045  1.6197
16647TIP3    H271433   2.739   5.753  14.463 -1.9970  0.6039 -0.5924
16648TIP3   OH271434   2.876   2.306  13.582  0.2759 -0.0132 -0.0268
16648TIP3    H171435   2.793   2.281  13.540 -0.4724  0.5313  1.1027
16648TIP3    H271436   2.866   2.399  13.600  0.7830 -0.1375  0.9171
16649TIP3   OH271437   0.129   0.538   0.589 -0.3975 -0.4775  0.1095
16649TIP3    H171438   0.211   0.577   0.560 -0.3309 -1.5775 -1.1988
16649TIP3    H271439   0.061   0.596   0.552 -0.2240  2.0371  3.4840
16650TIP3   OH271440   3.911   0.183  16.098  0.3733 -0.0611  0.1501
16650TIP3    H171441   3.826   0.139  16.104 -0.1910  1.1486  1.2661
16650TIP3    H271442   3.975   0.112  16.094 -0.5088 -0.9860  1.9756
16651TIP3   OH271443   6.495   5.978   2.773 -0.1884 -0.3129  0.3831
16651TIP3    H171444   6.500   5.973   2.678  3.1762 -1.7736  0.5494
16651TIP3    H271445   6.508   6.071   2.793  0.0460 -0.1353 -0.5687
16652TIP3   OH271446   4.346   4.813  17.034 -0.7051 -0.2845  0.8027
16652TIP3    H171447   4.328   4.906  17.048 -0.3884 -0.1003  0.0291
16652TIP3    H271448   4.273   4.783  16.979 -0.3527 -0.2914  0.3384
16653TIP3   OH271449   6.362   3.705   2.489  0.7728 -0.4242 -0.2816
16653TIP3    H171450   6.380   3.774   2.554  0.3190 -1.1643  0.6363
16653TIP3    H271451   6.439   3.649   2.492  0.4369 -0.8659  0.1447
16654TIP3   OH271452   1.705   1.878  11.136  0.1211 -0.3749 -0.2869
16654TIP3    H171453   1.782   1.914  11.093 -0.0415 -1.9388 -1.9373
16654TIP3    H271454   1.632   1.900  11.077 -0.7194  1.0876  1.2451
16655TIP3   OH271455   1.593   4.785  15.354  0.6063 -0.0170 -0.1664
16655TIP3    H171456   1.586   4.689  15.355 -0.6890  0.0181 -2.5746
16655TIP3    H271457   1.503   4.816  15.356  1.0176  1.1649  0.4807
16656TIP3   OH271458   0.309   3.959  15.705  0.5843  0.2643 -0.2570
16656TIP3    H171459   0.387   3.950  15.761  0.9016 -1.9198 -1.0058
16656TIP3    H271460   0.340   4.006  15.628  1.5439 -1.9069 -1.2262
16657TIP3   OH271461   6.610   6.286  14.871 -0.1408  0.2373  0.0179
16657TIP3    H171462   6.665   6.208  14.876  0.0388  0.3557 -0.1055
16657TIP3    H271463   6.552   6.270  14.797 -1.6035 -0.7405  1.3294
16658TIP3   OH271464   5.417   1.861   0.575 -0.1961 -0.0951  0.1108
16658TIP3    H171465   5.458   1.809   0.645  0.6891  1.7288  0.9880
16658TIP3    H271466   5.323   1.852   0.590 -0.0148  0.5629  1.7834
16659TIP3   OH271467   6.008   4.404   0.318 -0.4547  0.4882  0.1521
16659TIP3    H171468   5.925   4.384   0.361 -1.0354  1.7140 -0.3946
16659TIP3    H271469   6.069   4.340   0.355 -1.4805 -0.0026  1.0458
16660TIP3   OH271470   1.732   6.449   1.477  0.2483 -0.1905 -0.5771
16660TIP3    H171471   1.805   6.474   1.533  0.3807 -0.3021 -0.6976
16660TIP3    H271472   1.748   6.493   1.394  0.9569 -1.3698 -1.0792
16661TIP3   OH271473   6.533   4.608   4.292  0.3749 -0.1984 -1.0573
16661TIP3    H171474   6.437   4.608   4.291  0.3319 -1.6962  1.0972
16661TIP3    H271475   6.556   4.691   4.335  0.0376 -0.0452 -1.1673
16662TIP3   OH271476   5.618   5.094  15.463 -0.0254 -0.2524  0.6920
16662TIP3    H171477   5.694   5.152  15.468  0.3883 -0.6087 -0.9119
16662TIP3    H271478   5.636   5.025  15.527  1.0034 -0.3258  0.3389
16663TIP3   OH271479   1.860   0.875  11.041  0.3314 -0.1582  0.0717
16663TIP3    H171480   1.822   0.810  10.982 -0.8105 -0.8455  1.5155
16663TIP3    H271481   1.920   0.824  11.096  0.9108  0.3569 -0.0865
16664TIP3   OH271482   3.792   2.042  10.679 -0.0926 -0.0003  0.0152
16664TIP3    H171483   3.720   2.084  10.630 -0.5286  0.4099  1.0027
16664TIP3    H271484   3.754   1.960  10.711  0.0643 -0.0651  0.0322
16665TIP3   OH271485   5.300   0.433   3.134 -0.0953  0.1017 -1.1876
16665TIP3    H171486   5.347   0.373   3.193 -3.2942  0.3310  1.7829
16665TIP3    H271487   5.357   0.509   3.126  2.2033 -1.6267 -1.7113
16666TIP3   OH271488   0.736   3.750   3.062 -0.1478 -0.4452  0.2498
16666TIP3    H171489   0.817   3.793   3.035  0.2289 -1.1288  0.2897
16666TIP3    H271490   0.762   3.694   3.134 -0.3215 -2.0495 -0.9190
16667TIP3   OH271491   1.411   4.983   1.754 -0.6552  0.3008 -0.2250
16667TIP3    H171492   1.408   4.971   1.659  0.6276 -0.3349 -0.1990
16667TIP3    H271493   1.401   5.077   1.767  0.8902  0.6137 -1.1028
16668TIP3   OH271494   1.062   4.911  13.690 -0.2089 -0.4054 -0.3718
16668TIP3    H171495   1.032   4.828  13.727 -0.6762  0.2116  0.6496
16668TIP3    H271496   1.091   4.888  13.602 -1.3342 -1.4752 -0.4916
16669TIP3   OH271497   0.316   0.628   1.829 -0.2743 -0.6527  0.6019
16669TIP3    H171498   0.411   0.638   1.827 -0.3733  0.1366 -0.3959
16669TIP3    H271499   0.287   0.683   1.901 -0.1260  0.3957 -0.1379
16670TIP3   OH271500   3.415   0.120  15.478  0.6309  0.1659  0.0147
16670TIP3    H171501   3.437   0.067  15.402 -2.8282 -1.5686  0.1256
16670TIP3    H271502   3.455   0.074  15.552 -1.7554 -1.9926  0.0240
16671TIP3   OH271503   1.528   5.340  16.919 -0.0281  0.8290 -0.1921
16671TIP3    H171504   1.553   5.355  16.828 -1.0852  0.6148 -0.5334
16671TIP3    H271505   1.554   5.420  16.964  0.8413  0.7843 -0.6071
16672TIP3   OH271506   4.830   2.645   1.098 -0.0506 -0.2503  0.5686
16672TIP3    H171507   4.909   2.599   1.069 -1.5659 -2.0084 -0.9331
16672TIP3    H271508   4.820   2.619   1.189 -0.0188 -1.6670  0.1822
16673TIP3   OH271509   5.173   4.887   5.033  0.5916 -0.2472 -0.4613
16673TIP3    H171510   5.256   4.882   5.080  0.4806 -2.5624 -0.4806
16673TIP3    H271511   5.197   4.874   4.941  0.3107  0.0167 -0.5713
16674TIP3   OH271512   1.970   4.432  17.199 -0.1547 -0.3311 -0.3700
16674TIP3    H171513   1.962   4.522  17.231 -0.8082 -1.4547  2.7550
16674TIP3    H271514   1.879   4.402  17.189  0.0597 -1.4476  0.9847
16675TIP3   OH271515   6.554   2.263  16.505  0.0489  0.0350  0.2941
16675TIP3    H171516   6.555   2.187  16.447 -2.7707 -0.2221  0.4843
16675TIP3    H271517   6.518   2.229  16.588 -1.3481  1.5704  0.3377
16676TIP3   OH271518   1.504   6.034  17.167 -0.0446 -0.1838  0.1478
16676TIP3    H171519   1.481   5.943  17.150  1.1508 -0.3448 -0.6354
16676TIP3    H271520   1.446   6.084  17.110  0.0301 -0.4942 -0.1995
16677TIP3   OH271521   3.979   1.321   1.840 -0.3010  0.5514  0.3715
16677TIP3    H171522   3.953   1.331   1.931 -0.0738 -0.7728  0.5939
16677TIP3    H271523   3.915   1.372   1.790  0.0259  1.9140  1.3157
16678TIP3   OH271524   1.272   4.758   0.443 -0.0674  0.1321 -0.1543
16678TIP3    H171525   1.184   4.727   0.419 -0.9329  3.1781 -1.1472
16678TIP3    H271526   1.329   4.727   0.374 -0.3761 -1.7571  0.4238
16679TIP3   OH271527   6.206   5.743   0.576 -0.2232  0.1097  0.7868
16679TIP3    H171528   6.146   5.764   0.504  1.1892 -0.3163 -0.5242
16679TIP3    H271529   6.150   5.744   0.654 -1.6411  1.2095 -0.2206
16680TIP3   OH271530   3.849   4.853  13.251  0.3247 -0.4298 -0.1228
16680TIP3    H171531   3.908   4.923  13.281  0.0540  0.2761 -1.2105
16680TIP3    H271532   3.763   4.895  13.247  0.3801 -0.4640 -2.0158
16681TIP3   OH271533   2.375   6.809  14.954  0.1545  0.3786  0.5711
16681TIP3    H171534   2.402   6.897  14.980 -0.0012  0.3450  0.8567
16681TIP3    H271535   2.365   6.762  15.037  0.2190  0.0963  0.4212
16682TIP3   OH271536   1.300   6.226  11.938 -0.0011  1.0056  0.4584
16682TIP3    H171537   1.227   6.164  11.940 -0.3506  1.3272 -1.4018
16682TIP3    H271538   1.316   6.247  12.030 -0.9250 -0.6233  1.0046
16683TIP3   OH271539   1.858   2.435  14.024  0.2897  0.2699 -0.8294
16683TIP3    H171540   1.907   2.383  14.087  1.6202  1.5146 -0.7974
16683TIP3    H271541   1.924   2.494  13.986 -0.9230  1.0294 -1.7777
16684TIP3   OH271542   0.475   4.257  12.403 -0.4767 -0.5271 -0.4851
16684TIP3    H171543   0.506   4.264  12.313 -0.1420 -1.9006 -0.4931
16684TIP3    H271544   0.411   4.186  12.401 -0.0411 -0.9616  0.4569
16685TIP3   OH271545   0.912   4.397  15.292 -0.0390  0.5449 -0.2726
16685TIP3    H171546   0.833   4.390  15.345 -0.4616 -0.0968 -0.9785
16685TIP3    H271547   0.909   4.485  15.255  0.5586  1.2151  1.2272
16686TIP3   OH271548   0.625   0.673   0.551 -0.7083  0.1527  0.2548
16686TIP3    H171549   0.627   0.708   0.462 -0.3840  0.5831  0.4288
16686TIP3    H271550   0.567   0.597   0.546 -0.5210  0.0485 -0.3714
16687TIP3   OH271551   2.456   5.502  12.989  0.3389  0.1991  0.2024
16687TIP3    H171552   2.378   5.492  13.044 -0.0200 -1.5765 -0.6004
16687TIP3    H271553   2.528   5.475  13.046  0.0171 -1.2036 -0.0354
16688TIP3   OH271554   3.921   2.415  12.074 -0.5034  0.1848  0.5160
16688TIP3    H171555   3.941   2.496  12.026 -0.3810 -0.1736 -0.0510
16688TIP3    H271556   3.913   2.349  12.005  0.3468 -0.4767  1.0380
16689TIP3   OH271557   1.118   6.373  16.452 -0.1459 -0.3022  0.2041
16689TIP3    H171558   1.067   6.309  16.501  0.3715 -1.4907 -0.7667
16689TIP3    H271559   1.111   6.454  16.502  0.0090 -1.3736  1.9869
16690TIP3   OH271560   3.872   1.185   6.579 -0.0647 -0.2079  0.4799
16690TIP3    H171561   3.824   1.263   6.608 -0.7942 -0.4022 -0.2012
16690TIP3    H271562   3.812   1.112   6.595  0.5190 -0.6068  0.8713
16691TIP3   OH271563   5.576   1.188  11.585 -0.0765  0.2082  0.2920
16691TIP3    H171564   5.531   1.181  11.501  1.9254 -0.3109 -0.7685
16691TIP3    H271565   5.662   1.225  11.564 -0.5660  2.7848  2.4775
16692TIP3   OH271566   0.825   5.066   4.512 -0.2558 -0.1545 -0.1526
16692TIP3    H171567   0.910   5.023   4.509  0.6447  1.6405 -1.2233
16692TIP3    H271568   0.845   5.160   4.506 -2.2812  0.3111 -0.0273
16693TIP3   OH271569   1.787   6.769   1.867 -0.2705  0.3166 -0.0073
16693TIP3    H171570   1.809   6.761   1.775 -0.4925  1.0475 -0.1217
16693TIP3    H271571   1.752   6.857   1.877 -0.5774  0.1227  0.7060
16694TIP3   OH271572   3.113   1.349  12.071 -0.5010 -0.3162 -0.3655
16694TIP3    H171573   3.174   1.353  12.144  0.1155 -0.4171 -0.8721
16694TIP3    H271574   3.059   1.428  12.081 -1.7366 -1.3378  1.3203
16695TIP3   OH271575   6.486   5.494  11.360 -0.3352  0.1824  0.3070
16695TIP3    H171576   6.511   5.548  11.434  2.2680 -2.0954  1.1950
16695TIP3    H271577   6.546   5.519  11.290 -0.2752 -0.3031  0.1792
16696TIP3   OH271578   6.689   0.030  15.844  0.0549 -0.1375 -0.1867
16696TIP3    H171579   6.702   0.043  15.750  0.6764 -1.0194 -0.2276
16696TIP3    H271580   6.596   0.008  15.853 -0.3937  1.6132 -0.4055
16697TIP3   OH271581   3.442   6.411   1.512 -0.4762 -0.0775 -0.2795
16697TIP3    H171582   3.467   6.503   1.500  1.8962 -0.3157  2.1817
16697TIP3    H271583   3.475   6.367   1.434  3.0212  0.4044  0.8220
16698TIP3   OH271584   3.795   2.591  16.366 -0.1988 -0.4651 -0.1405
16698TIP3    H171585   3.845   2.573  16.446  0.4705 -0.2074 -0.4907
16698TIP3    H271586   3.792   2.507  16.320 -1.1073 -0.7574  0.4361
16699TIP3   OH271587   3.141   0.816  15.175  0.2397  0.6039  0.1823
16699TIP3    H171588   3.132   0.724  15.201  0.2118  1.1350  2.1791
16699TIP3    H271589   3.235   0.831  15.173  0.2736  0.2863 -1.1261
16700TIP3   OH271590   3.822   0.289  14.157 -0.4659 -0.6918  1.0491
16700TIP3    H171591   3.849   0.277  14.248  0.2084  0.0115  0.9499
16700TIP3    H271592   3.831   0.383  14.142 -0.3519 -0.8371  0.1926
16701TIP3   OH271593   5.714   0.701  15.088 -0.2609 -0.2036  0.0714
16701TIP3    H171594   5.707   0.796  15.094 -0.7983 -0.3043  1.2363
16701TIP3    H271595   5.712   0.682  14.994  0.7668  0.9954 -0.2015
16702TIP3   OH271596   4.093   1.584  15.018 -0.4259  0.5719  0.5153
16702TIP3    H171597   4.133   1.582  15.105  1.3424 -3.1919 -0.2888
16702TIP3    H271598   4.003   1.556  15.033  0.4248 -2.0358  0.9083
16703TIP3   OH271599   5.650   0.376   0.102  0.2531  0.1939  0.0283
16703TIP3    H171600   5.698   0.330   0.171  2.0943  0.5336 -0.9958
16703TIP3    H271601   5.588   0.312   0.068 -0.3997 -0.0940  1.7126
16704TIP3   OH271602   4.330   0.252  16.076 -0.0107  0.5479  0.2014
16704TIP3    H171603   4.412   0.263  16.028  0.7573 -0.2189  1.3031
16704TIP3    H271604   4.334   0.317  16.146 -1.2552  1.8558 -0.9299
16705TIP3   OH271605   0.383   0.209  14.188  0.1256 -0.4599 -0.2020
16705TIP3    H171606   0.398   0.188  14.096 -0.1809  0.4595 -0.4608
16705TIP3    H271607   0.305   0.264  14.187  0.5977  0.2167  0.5448
16706TIP3   OH271608   4.133   6.139   5.411  0.1445 -0.1947 -0.4043
16706TIP3    H171609   4.110   6.079   5.482  0.1302  1.3839  0.9452
16706TIP3    H271610   4.091   6.101   5.333  0.2650 -2.0047  0.3777
16707TIP3   OH271611   1.288   5.483   5.998  0.0524  0.6907  0.6534
16707TIP3    H171612   1.305   5.466   5.905 -0.7570 -1.2134  0.8356
16707TIP3    H271613   1.375   5.499   6.035  0.4063  1.2085 -0.3830
16708TIP3   OH271614   6.288   1.547  16.560  0.2793  0.0587 -0.1664
16708TIP3    H171615   6.347   1.511  16.494  0.1726  0.6429 -0.5920
16708TIP3    H271616   6.267   1.474  16.617  1.8858 -0.0206  0.3346
16709TIP3   OH271617   4.803   2.124  12.672 -0.1689 -0.1675 -0.1428
16709TIP3    H171618   4.888   2.090  12.698  0.1668  0.1306 -0.8294
16709TIP3    H271619   4.765   2.160  12.752  0.6270  0.2793  0.0366
16710TIP3   OH271620   4.671   4.586  14.865  0.3717  0.3490  0.2665
16710TIP3    H171621   4.741   4.631  14.817 -0.9877  1.4429 -0.6900
16710TIP3    H271622   4.687   4.610  14.957  1.7791 -0.1295  0.1596
16711TIP3   OH271623   3.954   0.748  14.869 -0.3030 -0.0964 -0.3674
16711TIP3    H171624   3.947   0.660  14.830  1.2920  0.5226 -2.1450
16711TIP3    H271625   3.986   0.803  14.797  0.0428  1.6720  1.1147
16712TIP3   OH271626   6.521   1.673  12.486 -0.4722 -0.6139 -0.0645
16712TIP3    H171627   6.540   1.674  12.393  0.1828  2.6875  0.0621
16712TIP3    H271628   6.557   1.589  12.517  1.3356 -0.7207 -2.3445
16713TIP3   OH271629   5.865   1.054  15.437 -0.1776 -0.5001  0.4678
16713TIP3    H171630   5.808   1.127  15.461  0.2176 -0.3350  0.8968
16713TIP3    H271631   5.947   1.071  15.484  1.0173  0.4592 -1.8664
16714TIP3   OH271632   5.736   5.083  17.111  0.3578 -0.2615 -0.0653
16714TIP3    H171633   5.705   5.031  17.185  0.9227 -0.7010 -0.1283
16714TIP3    H271634   5.657   5.112  17.066  0.0425 -1.7274 -0.4806
16715TIP3   OH271635   3.355   0.263   5.353 -0.3332  0.4108 -0.5002
16715TIP3    H171636   3.296   0.228   5.286 -0.7608 -0.3655  0.2837
16715TIP3    H271637   3.425   0.306   5.302 -1.1009  0.5766 -1.4332
16716TIP3   OH271638   1.906   2.026  11.006  0.1960 -0.0093 -0.0165
16716TIP3    H171639   1.991   1.981  11.006 -0.2354 -0.8351  0.1298
16716TIP3    H271640   1.886   2.039  10.914 -0.1794 -1.0760 -0.0856
16717TIP3   OH271641   2.199   4.992   3.877  0.3485  0.1634  0.5083
16717TIP3    H171642   2.122   4.989   3.820  0.7535 -1.3963  0.0111
16717TIP3    H271643   2.183   5.067   3.935 -1.3277  0.1361  0.1184
16718TIP3   OH271644   5.575   4.412   1.980  0.4066  0.1057 -0.4720
16718TIP3    H171645   5.666   4.381   1.984  0.0572 -0.8183  0.3189
16718TIP3    H271646   5.583   4.506   1.963  1.4996 -0.0775 -1.0444
16719TIP3   OH271647   1.839   4.637  15.620  0.1531  0.1980 -0.3535
16719TIP3    H171648   1.809   4.547  15.611  1.1235 -0.2912  1.1752
16719TIP3    H271649   1.845   4.651  15.715  0.6390  1.6546 -0.5843
16720TIP3   OH271650   2.696   2.935  11.735  0.4977 -0.5862 -0.1163
16720TIP3    H171651   2.647   3.016  11.729  0.6349 -0.5533 -0.8634
16720TIP3    H271652   2.642   2.870  11.689  0.4164 -0.9064  0.4216
16721TIP3   OH271653   4.269   1.347   1.436  0.5523 -0.6979 -0.1940
16721TIP3    H171654   4.248   1.285   1.506  0.5998 -2.0805 -1.3857
16721TIP3    H271655   4.363   1.338   1.423  0.1482 -2.4159 -2.2367
16722TIP3   OH271656   1.724   5.889  15.893  0.1174  0.4742  0.1647
16722TIP3    H171657   1.749   5.801  15.921 -0.5711  0.5694  1.1091
16722TIP3    H271658   1.633   5.880  15.864  1.0267  0.2238 -2.7934
16723TIP3   OH271659   3.329   2.867   0.837  0.7907 -0.7112  0.0440
16723TIP3    H171660   3.250   2.857   0.783  0.8627  1.7695 -0.5854
16723TIP3    H271661   3.296   2.893   0.923  0.9144 -0.0236 -0.1189
16724TIP3   OH271662   4.173   4.894  15.736  0.0993 -0.1220  0.5952
16724TIP3    H171663   4.236   4.962  15.757 -1.1442  1.5471 -0.9390
16724TIP3    H271664   4.155   4.905  15.643 -1.7639 -1.1439  0.7985
16725TIP3   OH271665   2.135   2.499   1.325  0.1958 -0.0460  0.2177
16725TIP3    H171666   2.134   2.573   1.264  0.7039 -1.1252 -1.1458
16725TIP3    H271667   2.228   2.485   1.343  0.0835 -0.1771  0.6882
16726TIP3   OH271668   6.619   2.454   5.643 -0.2396 -0.0244  0.1386
16726TIP3    H171669   6.615   2.502   5.560  1.6495  1.2613  0.7643
16726TIP3    H271670   6.539   2.480   5.689 -2.5373 -2.5989 -2.2054
16727TIP3   OH271671   1.951   0.489   3.204 -0.5414  0.5791 -0.3593
16727TIP3    H171672   2.003   0.418   3.241  1.0055  1.4705 -0.7786
16727TIP3    H271673   1.934   0.462   3.114 -1.3378  0.0111 -0.0455
16728TIP3   OH271674   3.396   2.138   5.072 -0.7935  0.2093  0.1726
16728TIP3    H171675   3.475   2.163   5.025 -0.6000  1.0762  0.9363
16728TIP3    H271676   3.343   2.089   5.008  0.2658 -0.2039 -0.3934
16729TIP3   OH271677   2.550   4.755  13.810  0.1738  0.1821  0.1647
16729TIP3    H171678   2.619   4.699  13.775 -1.5735 -1.7327 -0.3468
16729TIP3    H271679   2.487   4.764  13.738 -1.2019  0.0287  1.3214
16730TIP3   OH271680   5.413   2.023  13.364  0.3239  0.0650 -0.1340
16730TIP3    H171681   5.469   2.086  13.319  0.7395 -1.0937 -1.2524
16730TIP3    H271682   5.473   1.968  13.413  0.1494 -0.8443 -0.9197
16731TIP3   OH271683   3.966   1.512   4.564 -0.0657  0.1287 -0.5602
16731TIP3    H171684   3.939   1.422   4.549 -0.1695 -0.0728  0.8058
16731TIP3    H271685   4.040   1.505   4.624  0.1864  0.9391 -0.7663
16732TIP3   OH271686   1.887   0.460   6.034 -0.1168 -0.8374 -0.2203
16732TIP3    H171687   1.860   0.369   6.047 -1.4744 -0.6629 -1.6967
16732TIP3    H271688   1.810   0.512   6.057  1.1435  0.0620  2.1642
16733TIP3   OH271689   4.933   1.504  14.298 -0.1247  0.6903  0.5095
16733TIP3    H171690   4.968   1.511  14.209  0.1241  0.8747  0.6238
16733TIP3    H271691   4.968   1.580  14.344 -0.2579  0.5967  0.7656
16734TIP3   OH271692   1.379   1.228   1.720  0.3617 -0.3476  0.4600
16734TIP3    H171693   1.345   1.230   1.810  0.5288  0.8731  0.5138
16734TIP3    H271694   1.308   1.191   1.668 -1.0949  2.1506  0.5796
16735TIP3   OH271695   5.145   2.093  10.812 -0.3127  0.0970 -0.1341
16735TIP3    H171696   5.052   2.087  10.791 -0.5717  2.1038  0.3395
16735TIP3    H271697   5.155   2.179  10.852  1.5777 -0.4994  0.7333
16736TIP3   OH271698   4.243   3.102  16.607 -0.6772  0.0005 -0.0792
16736TIP3    H171699   4.247   3.121  16.514 -0.6424  2.8585  0.4569
16736TIP3    H271700   4.328   3.064  16.628 -0.1608  0.6453 -0.9681
16737TIP3   OH271701   4.703   2.058  15.634  0.0292 -0.7078 -0.2314
16737TIP3    H171702   4.627   2.081  15.687  0.6557 -0.1973  0.4636
16737TIP3    H271703   4.696   2.112  15.556  0.6617  0.7284  0.6792
16738TIP3   OH271704   2.919   5.119   3.847  0.5346  0.4210  0.5162
16738TIP3    H171705   3.009   5.138   3.874  1.0198 -1.5666  0.3910
16738TIP3    H271706   2.927   5.094   3.755 -0.0584 -0.3768  0.6779
16739TIP3   OH271707   1.196   2.654  14.322  0.2112 -0.6444  0.1395
16739TIP3    H171708   1.146   2.670  14.402  0.7589 -0.5000  0.4533
16739TIP3    H271709   1.275   2.609  14.352 -0.7653 -2.9776 -0.5875
16740TIP3   OH271710   0.777   4.313   3.367  0.0559 -0.4417  0.8291
16740TIP3    H171711   0.811   4.396   3.334 -0.1529 -0.4455  0.6052
16740TIP3    H271712   0.683   4.319   3.356  0.2887 -2.3224 -3.0427
16741TIP3   OH271713   6.417   2.241   2.939 -0.3052  0.2716 -0.0538
16741TIP3    H171714   6.345   2.296   2.968 -1.2687 -1.7642  1.5438
16741TIP3    H271715   6.491   2.266   2.993 -0.9413 -0.4855  1.1842
16742TIP3   OH271716   2.025   0.684  13.034 -0.2179 -0.5084  0.2692
16742TIP3    H171717   1.984   0.768  13.015  0.1151 -0.4319 -0.1188
16742TIP3    H271718   2.086   0.670  12.961  1.8728  0.3080  1.8297
16743TIP3   OH271719   1.640   4.770  13.929  0.4631  0.1863  0.2761
16743TIP3    H171720   1.567   4.713  13.905 -1.1067  2.5320 -0.7977
16743TIP3    H271721   1.668   4.810  13.847  1.2971  1.1729  1.0214
16744TIP3   OH271722   5.800   3.243  12.863  0.7798  0.3118  0.8583
16744TIP3    H171723   5.745   3.316  12.891 -0.7733  0.5645 -2.5219
16744TIP3    H271724   5.767   3.168  12.911 -1.2628  0.8337  0.3012
16745TIP3   OH271725   1.314   3.281  15.810 -0.1304  0.2807  0.5033
16745TIP3    H171726   1.273   3.367  15.807  0.9622  0.7985  0.2738
16745TIP3    H271727   1.398   3.293  15.766  1.4859 -0.1217  3.3881
16746TIP3   OH271728   6.542   4.050   1.800  0.7378  0.1098 -0.1925
16746TIP3    H171729   6.497   4.131   1.825 -0.9235 -0.8941  0.1223
16746TIP3    H271730   6.550   4.001   1.882 -0.4526 -1.1064 -0.7926
16747TIP3   OH271731   4.899   6.644   3.936  0.1445 -0.0657  0.0829
16747TIP3    H171732   4.819   6.637   3.884  0.6381 -1.1663 -0.5356
16747TIP3    H271733   4.942   6.724   3.904 -0.1752 -0.0566 -0.3234
16748TIP3   OH271734   5.316   3.563  11.626 -0.2522 -0.1802 -0.1034
16748TIP3    H171735   5.230   3.587  11.660  0.2060  0.8038  0.4119
16748TIP3    H271736   5.329   3.622  11.551 -1.3125 -2.4301 -2.1080
16749TIP3   OH271737   1.757   2.217   2.869 -0.1793 -0.0481  0.0761
16749TIP3    H171738   1.671   2.194   2.904  1.0838 -1.6505  2.2663
16749TIP3    H271739   1.779   2.145   2.810  0.4071 -0.5427  0.8888
16750TIP3   OH271740   5.027   2.596   5.931 -0.2864  0.0103 -0.1042
16750TIP3    H171741   4.978   2.677   5.919 -1.9333 -0.9159  0.1813
16750TIP3    H271742   4.969   2.541   5.984  1.2546 -0.9509  0.5923
16751TIP3   OH271743   0.757   3.744   2.376  0.0522 -0.6351  0.0839
16751TIP3    H171744   0.793   3.696   2.302 -2.8525  0.5340 -2.1941
16751TIP3    H271745   0.810   3.824   2.381  1.7167 -1.7661  0.7442
16752TIP3   OH271746   0.639   2.615   0.259 -0.3510 -0.2454 -0.3654
16752TIP3    H171747   0.623   2.533   0.305  1.4374  0.7224  2.0971
16752TIP3    H271748   0.712   2.596   0.200  1.4112  0.0473  1.6644
16753TIP3   OH271749   0.822   2.683  14.669 -0.5511 -0.5303  0.3417
16753TIP3    H171750   0.731   2.692  14.700 -1.2169  0.2221 -1.7440
16753TIP3    H271751   0.814   2.641  14.583  1.1662 -1.3761  0.5766
16754TIP3   OH271752   5.049   1.403   2.498  0.5720  0.1787  0.2936
16754TIP3    H171753   5.067   1.407   2.404  0.4528 -1.2305  0.2028
16754TIP3    H271754   5.062   1.311   2.521  0.1299  0.4247  1.5627
16755TIP3   OH271755   5.598   6.785  15.246 -0.4540  0.1652 -0.3414
16755TIP3    H171756   5.592   6.851  15.178  0.6605  0.5505 -0.0779
16755TIP3    H271757   5.688   6.752  15.240 -0.4831 -0.1118  0.6407
16756TIP3   OH271758   1.776   4.559   2.616 -0.2379  0.0484  0.2905
16756TIP3    H171759   1.788   4.469   2.585 -0.0401  0.3288 -0.4630
16756TIP3    H271760   1.708   4.553   2.684  0.8620 -0.8980  1.3423
16757TIP3   OH271761   4.234   5.372  16.675 -0.6827  0.6482  0.9787
16757TIP3    H171762   4.171   5.313  16.716 -1.8492 -0.0073 -1.6298
16757TIP3    H271763   4.187   5.455  16.664 -0.6535  0.5815  0.2991
16758TIP3   OH271764   4.673   6.267  15.704  0.2917  0.0957  0.0456
16758TIP3    H171765   4.604   6.247  15.641  0.7798 -2.3045  0.2138
16758TIP3    H271766   4.645   6.349  15.745 -0.6457  1.0565 -2.3986
16759TIP3   OH271767   3.584   1.170  17.107 -0.3636 -0.2097  0.8189
16759TIP3    H171768   3.658   1.161  17.167 -2.0302 -1.8422  2.6736
16759TIP3    H271769   3.572   1.265  17.098  2.2581  0.0952  0.0372
16760TIP3   OH271770   3.745   1.066   6.139  0.3539  0.2688  0.2131
16760TIP3    H171771   3.655   1.053   6.111  1.7130 -1.9603 -3.5644
16760TIP3    H271772   3.775   0.978   6.164  1.8575  0.7699  0.2435
16761TIP3   OH271773   4.082   2.187  17.067  0.1379  0.5854 -0.9887
16761TIP3    H171774   4.007   2.177  17.127 -0.6977 -1.3248 -2.2859
16761TIP3    H271775   4.057   2.259  17.009  0.3900  1.5822  0.1142
16762TIP3   OH271776   1.520   1.450   3.813  0.0870 -0.2020  0.0314
16762TIP3    H171777   1.537   1.357   3.828  1.2487 -0.2968 -1.7589
16762TIP3    H271778   1.475   1.454   3.729 -0.6212  0.8081  0.4394
16763TIP3   OH271779   3.877   6.695   0.557  0.5940  0.2240  0.0887
16763TIP3    H171780   3.837   6.769   0.511  0.4279  0.9465  1.3730
16763TIP3    H271781   3.860   6.713   0.649  1.2399 -1.0261  0.4537
16764TIP3   OH271782   4.346   2.517  13.030  0.2673  0.4704  0.7430
16764TIP3    H171783   4.253   2.536  13.047 -0.4124 -1.0913 -0.9459
16764TIP3    H271784   4.376   2.591  12.978 -0.4298  0.3497  0.1496
16765TIP3   OH271785   4.276   4.972   4.503 -0.5243  0.0548  0.6637
16765TIP3    H171786   4.249   4.887   4.468 -0.7694  0.4704 -0.1674
16765TIP3    H271787   4.218   4.986   4.578 -1.3493  0.0655  0.0361
16766TIP3   OH271788   5.557   1.439   1.438  0.1680  0.6085  0.3955
16766TIP3    H171789   5.576   1.359   1.487  1.0075 -1.5409 -3.2361
16766TIP3    H271790   5.492   1.485   1.491 -1.3249 -3.1295  1.9539
16767TIP3   OH271791   1.976   1.625   1.212  0.4113 -0.2606  0.3772
16767TIP3    H171792   2.041   1.575   1.162  0.2664  1.1652 -1.2969
16767TIP3    H271793   1.938   1.562   1.273  1.7044 -1.6725 -0.2511
16768TIP3   OH271794   1.935   4.717  13.652 -0.2202  0.3254 -0.1608
16768TIP3    H171795   1.986   4.741  13.574  0.0799 -3.2281 -1.1327
16768TIP3    H271796   1.844   4.735  13.627 -0.1579 -1.0328 -1.4803
16769TIP3   OH271797   3.053   1.047  13.888  0.2759 -0.0965  0.1450
16769TIP3    H171798   2.981   1.043  13.951  0.6067  0.9550  0.6153
16769TIP3    H271799   3.012   1.038  13.802 -0.2906 -0.5570  0.4626
16770TIP3   OH271800   0.163   3.779  11.797 -0.8484  0.2167  0.0301
16770TIP3    H171801   0.207   3.822  11.725 -1.3927  1.4500  0.4253
16770TIP3    H271802   0.232   3.730  11.842 -0.4376 -0.2180 -1.0633
16771TIP3   OH271803   5.136   2.084  12.766 -0.4515 -0.1389 -0.3050
16771TIP3    H171804   5.152   2.112  12.675  1.4233 -1.1699 -0.3208
16771TIP3    H271805   5.185   2.003  12.775 -1.5397 -0.6327  1.3184
16772TIP3   OH271806   2.698   0.803   2.653 -0.2413 -0.6446  0.3734
16772TIP3    H171807   2.769   0.861   2.682 -0.4946 -1.3837  2.5287
16772TIP3    H271808   2.723   0.778   2.564  1.7489 -0.1795  0.7727
16773TIP3   OH271809   5.915   3.331   3.093 -0.0389 -0.2226  0.2505
16773TIP3    H171810   5.849   3.384   3.048  0.5387 -0.4037 -0.8164
16773TIP3    H271811   5.978   3.394   3.127  0.2110 -0.1822 -0.3023
16774TIP3   OH271812   6.718   2.786  16.063  0.2427 -0.3268  0.0401
16774TIP3    H171813   6.738   2.708  16.114 -2.4510 -1.7652 -1.0568
16774TIP3    H271814   6.623   2.791  16.062  0.3536  2.3808 -0.8077
16775TIP3   OH271815   0.787   3.437   4.232  0.1799 -0.3336 -0.3636
16775TIP3    H171816   0.846   3.377   4.277  1.6853  2.9396  2.1931
16775TIP3    H271817   0.833   3.461   4.152  0.6965 -0.5562 -0.1329
16776TIP3   OH271818   5.237   3.626   5.877 -0.1614  0.2501 -0.0771
16776TIP3    H171819   5.193   3.698   5.832 -0.0739  1.0774  1.1659
16776TIP3    H271820   5.236   3.650   5.969  0.7003 -0.8994  0.2454
16777TIP3   OH271821   4.348   5.414  13.632  0.2774  0.1021 -0.3197
16777TIP3    H171822   4.428   5.451  13.596  1.2832 -0.2163  1.4905
16777TIP3    H271823   4.324   5.474  13.703 -1.3270  0.4263 -1.1213
16778TIP3   OH271824   6.429   4.878   0.530  0.5895 -0.4501 -0.3854
16778TIP3    H171825   6.359   4.942   0.540 -0.1841 -1.0740 -1.5851
16778TIP3    H271826   6.488   4.917   0.466  0.8866 -0.3002 -0.0207
16779TIP3   OH271827   2.454   2.731  12.102  0.2999  0.2125 -0.2566
16779TIP3    H171828   2.513   2.783  12.047  0.6621 -0.7554 -0.7883
16779TIP3    H271829   2.492   2.737  12.190  0.5142  0.5795 -0.3722
16780TIP3   OH271830   3.377   3.287  12.700 -0.0647 -0.1460  0.0393
16780TIP3    H171831   3.290   3.320  12.681 -0.2773 -0.7952 -0.1045
16780TIP3    H271832   3.425   3.363  12.733 -0.6478  0.2332  0.0039
16781TIP3   OH271833   2.713   0.124   0.733  0.4874 -0.2547 -0.1919
16781TIP3    H171834   2.763   0.042   0.736  0.6549 -0.0873  1.7348
16781TIP3    H271835   2.687   0.140   0.823 -1.0474  0.9100 -0.8257
16782TIP3   OH271836   4.488   0.424  14.061  0.1345  0.1230 -0.1396
16782TIP3    H171837   4.550   0.452  13.994 -1.7251 -0.0621 -1.9878
16782TIP3    H271838   4.519   0.337  14.087  0.2732 -0.2617 -1.5460
16783TIP3   OH271839   6.384   1.837   5.759  0.6563 -0.2156  0.2953
16783TIP3    H171840   6.300   1.816   5.719  0.3315 -0.1607  0.9289
16783TIP3    H271841   6.436   1.876   5.689  0.5477 -1.2674 -0.3821
16784TIP3   OH271842   0.831   0.791   5.230 -0.5135 -0.1718  0.1007
16784TIP3    H171843   0.902   0.735   5.263  1.2583  0.9616 -1.6329
16784TIP3    H271844   0.820   0.765   5.139 -0.7436  1.2240 -0.2911
16785TIP3   OH271845   6.366   0.691   0.904  0.2638  0.6751  0.2410
16785TIP3    H171846   6.327   0.775   0.927  1.4817  0.9910  1.2502
16785TIP3    H271847   6.364   0.641   0.986  0.3722  0.0583 -0.1295
16786TIP3   OH271848   2.785   1.664  13.048  0.4062  0.0966 -0.2400
16786TIP3    H171849   2.863   1.708  13.015 -0.3484  1.2429 -0.5237
16786TIP3    H271850   2.775   1.588  12.991  0.7476  0.4882 -0.8311
16787TIP3   OH271851   1.086   3.703  16.489  0.1775 -0.9058  0.5907
16787TIP3    H171852   1.110   3.629  16.434  1.4876 -0.9027  1.1408
16787TIP3    H271853   1.163   3.719  16.544  0.6764  2.1719 -0.9118
16788TIP3   OH271854   1.281   4.983  16.788 -0.1786 -0.0528 -0.1434
16788TIP3    H171855   1.240   5.027  16.714 -1.1928 -0.5967  0.0868
16788TIP3    H271856   1.215   4.986  16.857  0.7713  0.4857  0.7671
16789TIP3   OH271857   2.924   2.667  11.530  0.3690  0.6464 -0.4760
16789TIP3    H171858   2.850   2.719  11.499 -0.9474 -0.4031  0.7890
16789TIP3    H271859   2.933   2.596  11.466  0.3393  0.8371 -0.6900
16790TIP3   OH271860   3.456   3.909  12.382 -0.1426 -0.4729 -0.2762
16790TIP3    H171861   3.503   3.868  12.454 -0.0624  0.6737  0.3414
16790TIP3    H271862   3.511   3.895  12.305  0.3356 -0.6967  0.1115
16791TIP3   OH271863   3.725   0.577  11.813 -0.4864 -0.3272  0.2869
16791TIP3    H171864   3.701   0.495  11.855 -0.2763 -0.3671  0.3305
16791TIP3    H271865   3.815   0.592  11.840 -0.2928 -0.4429 -0.2962
16792TIP3   OH271866   2.674   5.177  15.291  0.4456  0.4741 -0.5818
16792TIP3    H171867   2.657   5.179  15.386  0.9061  2.2847 -0.4998
16792TIP3    H271868   2.588   5.165  15.251  0.3976 -1.5844  0.0853
16793TIP3   OH271869   6.376   5.893  13.331 -0.4226 -0.3252 -0.2912
16793TIP3    H171870   6.374   5.849  13.416 -0.4439 -1.1910 -0.7405
16793TIP3    H271871   6.468   5.913  13.316 -0.5448  0.8672  0.4639
16794TIP3   OH271872   1.531   4.436   2.838  0.3331  0.5828 -1.3385
16794TIP3    H171873   1.531   4.483   2.921 -0.7162  1.9739 -2.0936
16794TIP3    H271874   1.609   4.382   2.840  0.7008  1.1661  0.2437
16795TIP3   OH271875   0.479   4.445  13.809  0.4810 -0.0687 -0.0853
16795TIP3    H171876   0.537   4.378  13.772  0.0622 -0.5641  0.1394
16795TIP3    H271877   0.411   4.458  13.742  0.9459  0.6439 -0.4275
16796TIP3   OH271878   5.639   3.073  16.593  0.5310 -0.1774 -0.6046
16796TIP3    H171879   5.563   3.131  16.592  0.1967 -0.5764  0.7918
16796TIP3    H271880   5.697   3.108  16.526  0.1260  1.4826 -0.0917
16797TIP3   OH271881   4.600   3.111   3.855  0.4744 -0.3151  0.5555
16797TIP3    H171882   4.615   3.126   3.948 -2.1256  1.0072  0.7981
16797TIP3    H271883   4.648   3.182   3.812  2.0926 -1.2190  0.8350
16798TIP3   OH271884   6.280   5.453  14.472 -0.8249 -0.0970  0.0300
16798TIP3    H171885   6.319   5.405  14.398  0.3952  0.8291  0.0503
16798TIP3    H271886   6.206   5.399  14.499 -0.0123 -1.5349 -0.5212
16799TIP3   OH271887   3.382   2.695   2.410 -0.0586 -0.4536 -0.3956
16799TIP3    H171888   3.448   2.755   2.374 -1.8910  1.8289 -0.0293
16799TIP3    H271889   3.431   2.643   2.474  1.6695  0.3137 -1.0403
16800TIP3   OH271890   2.616   6.620  13.709 -0.3755 -0.2315  0.4229
16800TIP3    H171891   2.643   6.637  13.618 -0.6284  1.8771  0.7026
16800TIP3    H271892   2.521   6.634  13.708 -0.2283  0.9163  1.2247
16801TIP3   OH271893   3.822   2.877  14.242  0.2811  0.2746 -0.6826
16801TIP3    H171894   3.896   2.903  14.297  0.7024 -3.8857  0.8931
16801TIP3    H271895   3.745   2.910  14.288  0.8847  0.4305  0.2144
16802TIP3   OH271896   0.999   2.296   5.081 -0.2223  0.3261 -0.0779
16802TIP3    H171897   0.981   2.284   4.987 -0.2519  0.5539 -0.1031
16802TIP3    H271898   1.093   2.317   5.084 -0.1585  0.0337 -0.0301
16803TIP3   OH271899   6.251   1.098   1.461 -0.4126  0.3009  0.1700
16803TIP3    H171900   6.339   1.132   1.443 -0.5552  0.6160  0.0786
16803TIP3    H271901   6.207   1.098   1.376 -0.5103  0.1689  0.2205
16804TIP3   OH271902   1.343   6.401   5.808  0.1484 -0.3879 -0.1395
16804TIP3    H171903   1.383   6.344   5.874  0.3885 -0.4515 -0.3414
16804TIP3    H271904   1.374   6.489   5.830 -1.4143 -0.1107  1.0868
16805TIP3   OH271905   2.832   0.348   6.055  0.4724  0.1632  0.3215
16805TIP3    H171906   2.874   0.424   6.095  0.9998  0.1263 -0.1428
16805TIP3    H271907   2.770   0.317   6.120  0.8568  0.4921  0.8496
16806TIP3   OH271908   6.081   1.881   2.239  0.1285  0.0758 -0.2837
16806TIP3    H171909   6.173   1.867   2.261  0.1909  2.3438  1.0732
16806TIP3    H271910   6.083   1.918   2.151  0.6764  1.6724  0.3653
16807TIP3   OH271911   1.868   6.298   6.515 -0.1493  0.4807 -0.1580
16807TIP3    H171912   1.896   6.214   6.551  0.0606  0.4758 -0.3375
16807TIP3    H271913   1.946   6.335   6.473 -0.5520  0.1932 -1.1709
16808TIP3   OH271914   5.867   2.145  13.149  0.1975  0.1311  0.0368
16808TIP3    H171915   5.836   2.219  13.202 -1.7177 -0.5801 -0.0570
16808TIP3    H271916   5.937   2.182  13.095  1.8388  0.9982  2.6507
16809TIP3   OH271917   2.076   3.611   2.933  0.1241 -0.3554 -0.7339
16809TIP3    H171918   2.121   3.643   2.855 -0.2654 -0.3396 -0.9525
16809TIP3    H271919   2.058   3.690   2.985 -0.3101 -0.2840 -0.9941
16810TIP3   OH271920   1.175   4.643   5.131 -0.4956  0.5672  0.3981
16810TIP3    H171921   1.089   4.665   5.169  0.5679  0.7954  2.7738
16810TIP3    H271922   1.179   4.547   5.137 -0.2130  0.6224  1.1572
16811TIP3   OH271923   6.683   5.398  17.078 -0.5061 -0.3761 -0.3973
16811TIP3    H171924   6.615   5.460  17.103 -0.6839 -1.3892  1.7405
16811TIP3    H271925   6.765   5.445  17.092 -0.6523 -0.4729  0.8096
16812TIP3   OH271926   6.255   4.999  16.546  0.4784  0.1399  0.1051
16812TIP3    H171927   6.160   5.011  16.552  0.4973  1.3525 -1.7748
16812TIP3    H271928   6.265   4.917  16.498  0.3789 -0.1538  0.5851
16813TIP3   OH271929   3.636   6.547  13.455  0.5005 -0.5506 -0.4876
16813TIP3    H171930   3.586   6.525  13.534  2.1629 -0.9002  0.4784
16813TIP3    H271931   3.584   6.614  13.412  0.4750  0.9949  1.8615
16814TIP3   OH271932   5.954   2.277  14.443 -0.2655  0.5512  0.3907
16814TIP3    H171933   5.941   2.320  14.359  1.6692 -0.6385 -0.5442
16814TIP3    H271934   6.010   2.337  14.493  0.9628 -0.0243 -0.2595
16815TIP3   OH271935   6.228   6.077   2.302  0.2793 -0.1826 -0.1667
16815TIP3    H171936   6.152   6.062   2.359  0.0770 -1.0561 -0.6550
16815TIP3    H271937   6.223   6.170   2.280  1.5949  0.6971  3.0054
16816TIP3   OH271938   6.032   4.803  14.651 -0.5109  0.4794 -0.3446
16816TIP3    H171939   6.000   4.861  14.719 -0.7531  0.3624 -0.3589
16816TIP3    H271940   6.067   4.728  14.698  0.7054  1.0764 -0.2796
16817TIP3   OH271941   1.420   5.035   1.101 -0.2657 -0.5685 -0.4043
16817TIP3    H171942   1.389   4.945   1.110 -0.9320 -0.1731  1.6147
16817TIP3    H271943   1.513   5.027   1.080  0.2159 -1.7498  1.9792
16818TIP3   OH271944   4.348   3.067  12.581 -0.1942  0.0311  0.0810
16818TIP3    H171945   4.419   3.017  12.622 -1.4600 -0.6122  1.5418
16818TIP3    H271946   4.332   3.023  12.498 -0.0977 -0.9265  0.5680
16819TIP3   OH271947   5.768   3.510   1.434 -0.7682 -0.1501  0.1884
16819TIP3    H171948   5.846   3.545   1.479 -0.8204 -0.8843  0.8597
16819TIP3    H271949   5.698   3.521   1.498 -1.0800 -0.1124 -0.1656
16820TIP3   OH271950   2.496   0.581   3.191 -0.1243  0.0408  0.0523
16820TIP3    H171951   2.448   0.633   3.127 -1.1854 -0.8999  0.0625
16820TIP3    H271952   2.475   0.621   3.275 -0.7842 -0.2705  0.0419
16821TIP3   OH271953   4.197   2.788  12.097  0.8039 -0.2781 -0.2329
16821TIP3    H171954   4.271   2.760  12.151  0.7388  3.8783  2.2486
16821TIP3    H271955   4.123   2.739  12.133  1.3245  0.0285  1.3031
16822TIP3   OH271956   0.086   5.609   1.637 -0.7278 -0.4275  0.0516
16822TIP3    H171957   0.001   5.604   1.594  0.2187  1.2676 -2.0961
16822TIP3    H271958   0.075   5.676   1.704 -1.3422 -0.9195  0.4527
16823TIP3   OH271959   0.192   0.087   0.510 -0.4439  0.0660 -0.3806
16823TIP3    H171960   0.222   0.149   0.577 -1.3628  0.5738 -0.4242
16823TIP3    H271961   0.236   0.005   0.531 -0.7869  0.2022  0.8890
16824TIP3   OH271962   0.033   5.010  16.884 -0.6073  0.3847 -0.6004
16824TIP3    H171963   0.053   5.085  16.828  0.4644  1.4352  1.1263
16824TIP3    H271964  -0.055   5.028  16.917 -0.5864  0.5997 -0.6604
16825TIP3   OH271965   5.445   1.430   0.690  0.0846  0.4722 -0.2211
16825TIP3    H171966   5.406   1.481   0.618  0.9037 -0.6517 -1.4882
16825TIP3    H271967   5.371   1.409   0.747 -0.7972  0.2685 -1.4265
16826TIP3   OH271968   2.838   2.764  15.896  0.1871 -0.2213 -0.7074
16826TIP3    H171969   2.899   2.811  15.953  0.5333  0.2096 -1.4244
16826TIP3    H271970   2.873   2.776  15.808 -0.0689 -1.2993 -0.9706
16827TIP3   OH271971   0.610   4.465   4.481  0.4967 -0.2752 -0.3393
16827TIP3    H171972   0.554   4.540   4.503 -0.4351 -0.9428 -0.4182
16827TIP3    H271973   0.643   4.484   4.393  0.9799  0.4554 -0.0114
16828TIP3   OH271974   6.511   4.630  13.248  0.0160  0.3798  0.2690
16828TIP3    H171975   6.476   4.719  13.241  2.4043  1.4070  0.7212
16828TIP3    H271976   6.470   4.594  13.326  0.7746  1.9447  1.4182
16829TIP3   OH271977   4.991   5.026   5.465 -0.2214  0.1207  0.5507
16829TIP3    H171978   4.964   5.117   5.475 -0.2498  0.0315  1.3010
16829TIP3    H271979   4.970   4.985   5.549  1.7640 -0.0584  0.9827
16830TIP3   OH271980   5.223   5.536   3.963 -0.0201  0.1269 -0.2944
16830TIP3    H171981   5.161   5.609   3.972  0.1937  0.0528  2.0944
16830TIP3    H271982   5.306   5.570   3.997 -0.2632 -1.6008  2.2282
16831TIP3   OH271983   1.161   0.311  11.834 -0.4145 -0.2120  0.0704
16831TIP3    H171984   1.204   0.327  11.750 -0.6848  1.0146  0.1503
16831TIP3    H271985   1.220   0.350  11.899  0.1422 -1.7789  0.5313
16832TIP3   OH271986   6.621   4.525  13.024 -0.4622  0.2255 -0.1881
16832TIP3    H171987   6.629   4.603  12.969  0.4611 -0.1473 -0.5770
16832TIP3    H271988   6.564   4.553  13.096 -0.3411  1.1913 -0.4605
16833TIP3   OH271989   2.038   5.116   2.110  0.2894  0.3791 -0.3031
16833TIP3    H171990   2.108   5.109   2.045 -0.4458 -0.9701 -0.9641
16833TIP3    H271991   2.024   5.027   2.139 -0.6485  0.7489  0.3834
16834TIP3   OH271992   4.021   1.371   2.844 -0.0889 -0.0061 -0.3285
16834TIP3    H171993   3.990   1.455   2.810  0.9467 -0.1898 -1.7810
16834TIP3    H271994   4.112   1.386   2.867 -0.3578 -0.3039  0.9325
16835TIP3   OH271995   0.030   5.147  14.394 -0.3507  0.1930  0.2727
16835TIP3    H171996  -0.063   5.126  14.389 -0.7130  1.1481  2.5451
16835TIP3    H271997   0.049   5.187  14.309 -1.9875 -0.0901 -0.2558
16836TIP3   OH271998   2.077   1.926   2.388  0.4633  0.5544  0.0038
16836TIP3    H171999   2.127   1.988   2.440 -0.0840 -0.5484  1.9081
16836TIP3    H272000   1.985   1.946   2.410  0.2897 -0.9172  0.6385
16837TIP3   OH272001   2.464   4.536  11.115 -0.1276  0.4822  0.4537
16837TIP3    H172002   2.478   4.624  11.079 -1.2089 -0.7728 -3.2470
16837TIP3    H272003   2.403   4.495  11.054  0.5570 -2.9641  2.0004
16838TIP3   OH272004   5.347   3.173   3.095  0.0828 -0.0498 -0.5428
16838TIP3    H172005   5.295   3.150   3.018  1.3023  2.2364 -2.0998
16838TIP3    H272006   5.438   3.167   3.065  0.5527  1.5201  0.5328
16839TIP3   OH272007   5.274   4.583   4.336 -0.1350 -0.3315 -0.1240
16839TIP3    H172008   5.369   4.591   4.327  0.1942 -2.0377  1.4511
16839TIP3    H272009   5.253   4.640   4.410 -0.1200 -1.0710  0.4577
16840TIP3   OH272010   0.105   2.816  15.830 -0.1147  0.2075 -0.0126
16840TIP3    H172011   0.133   2.885  15.770 -1.6014  0.4725 -0.3985
16840TIP3    H272012   0.069   2.748  15.773 -1.6757  0.5296  0.5821
16841TIP3   OH272013   1.310   1.704   4.875  0.1130 -0.1999  0.1357
16841TIP3    H172014   1.233   1.758   4.858  0.4933 -0.0101 -1.0006
16841TIP3    H272015   1.350   1.744   4.953 -0.3019  0.3859  0.0496
16842TIP3   OH272016   4.036   0.339  16.541 -0.3836 -0.3176 -0.3599
16842TIP3    H172017   4.051   0.349  16.447  0.2996  1.3247 -0.0789
16842TIP3    H272018   3.949   0.375  16.556 -0.5056 -0.6088 -0.3660
16843TIP3   OH272019   4.513   6.522  16.413  0.4209  0.3713 -0.0854
16843TIP3    H172020   4.590   6.473  16.441 -0.3339  0.3616  2.0564
16843TIP3    H272021   4.441   6.487  16.465 -1.3248 -0.4673 -2.9094
16844TIP3   OH272022   4.320   2.477  16.908 -0.0194  0.4320  0.2997
16844TIP3    H172023   4.254   2.535  16.946 -0.8512  0.6612 -1.4576
16844TIP3    H272024   4.341   2.516  16.824  1.2957 -0.4360  0.2109
16845TIP3   OH272025   4.152   4.701  12.544  0.7078 -0.4901  0.4681
16845TIP3    H172026   4.196   4.772  12.498  0.2589  0.8560  2.0611
16845TIP3    H272027   4.118   4.644  12.475  2.5306 -0.0655 -0.8041
16846TIP3   OH272028   5.693   6.180   5.059  0.1383 -0.3669 -0.1994
16846TIP3    H172029   5.775   6.175   5.009  0.3015  0.0941  0.0243
16846TIP3    H272030   5.630   6.218   4.997 -0.0697 -1.3091 -0.5742
16847TIP3   OH272031   2.099   2.113  15.838 -0.2247  0.0030 -0.6827
16847TIP3    H172032   2.142   2.034  15.803 -0.7176 -0.7342  0.3700
16847TIP3    H272033   2.164   2.152  15.896 -0.1982  0.0502 -0.7434
16848TIP3   OH272034   3.508   2.001   4.793 -0.6278  0.3110 -0.6313
16848TIP3    H172035   3.545   2.053   4.863  0.3538 -0.5318 -0.5178
16848TIP3    H272036   3.415   1.996   4.813 -0.9295  2.8605 -1.1868
16849TIP3   OH272037   3.048   4.865  17.085 -0.0395  0.3280  0.0156
16849TIP3    H172038   3.074   4.866  17.177  0.0650 -0.4945  0.0070
16849TIP3    H272039   3.030   4.772  17.066  0.9913  0.3369 -1.0784
16850TIP3   OH272040   1.425   5.780   4.955  0.0748  0.4758 -0.3812
16850TIP3    H172041   1.400   5.860   5.001  0.2179  0.9120 -1.0502
16850TIP3    H272042   1.500   5.747   5.004 -1.4588 -0.5704  1.3330
16851TIP3   OH272043   6.587   6.628   4.163 -0.6289  0.4915 -0.2758
16851TIP3    H172044   6.615   6.677   4.240  2.2236  0.3907 -1.2076
16851TIP3    H272045   6.509   6.580   4.192  1.5081 -1.0893  3.1491
16852TIP3   OH272046   5.076   0.400   3.653  0.2676  0.1404  0.1654
16852TIP3    H172047   5.115   0.316   3.628 -0.8149  0.2069 -1.8451
16852TIP3    H272048   5.011   0.418   3.585 -0.1909  2.1511  1.0865
16853TIP3   OH272049   5.790   5.987  14.519  0.2085  0.2850 -0.1885
16853TIP3    H172050   5.729   6.032  14.461 -1.6422 -0.3613  1.2045
16853TIP3    H272051   5.747   5.987  14.604  1.2288 -1.9932  0.3715
16854TIP3   OH272052   1.009   5.164   0.099 -0.3660 -0.0927 -0.4982
16854TIP3    H172053   1.006   5.093   0.163  0.9769 -2.0304 -2.5124
16854TIP3    H272054   0.917   5.181   0.079 -0.7509 -0.3939  0.9470
16855TIP3   OH272055   5.907   1.611  16.699  0.3845  0.5942 -0.2282
16855TIP3    H172056   5.890   1.532  16.648 -0.7867 -0.8734  2.3714
16855TIP3    H272057   5.861   1.680  16.651 -0.4413 -0.6732 -1.3197
16856TIP3   OH272058   0.659   5.383   2.582  0.2712 -0.1962  0.2287
16856TIP3    H172059   0.583   5.325   2.596 -0.1064 -0.3168 -2.1180
16856TIP3    H272060   0.634   5.465   2.624 -0.4829 -0.7588  0.9088
16857TIP3   OH272061   1.802   2.054  14.018  0.8231 -0.4546 -0.0074
16857TIP3    H172062   1.807   2.122  14.085  0.4920 -0.2828 -0.1521
16857TIP3    H272063   1.747   2.093  13.950  1.7045 -0.3755 -0.6743
16858TIP3   OH272064   6.513   3.987  16.335  0.3435  0.5401  0.3225
16858TIP3    H172065   6.488   3.920  16.399  0.1968 -1.3839 -1.6535
16858TIP3    H272066   6.588   4.031  16.374 -0.7336  0.5154  2.5045
16859TIP3   OH272067   4.311   5.931  14.063 -0.0769  0.2967  0.6376
16859TIP3    H172068   4.273   5.908  13.978  1.4296  0.6315 -0.1298
16859TIP3    H272069   4.235   5.953  14.117 -1.0646 -0.1172 -0.5469
16860TIP3   OH272070   2.747   3.387   2.152 -0.0475  0.3299  0.2344
16860TIP3    H172071   2.830   3.434   2.164  0.4803 -0.2560 -1.1103
16860TIP3    H272072   2.731   3.389   2.058 -1.6981  0.6379  0.4878
16861TIP3   OH272073   6.577   0.171  15.434  0.1962 -0.4682  0.5477
16861TIP3    H172074   6.663   0.152  15.470 -0.3836  0.0993  2.3038
16861TIP3    H272075   6.517   0.116  15.484 -0.4613 -0.8826 -0.6776
16862TIP3   OH272076   3.889   0.762   2.152  0.3151 -0.2394 -0.2113
16862TIP3    H172077   3.881   0.796   2.063  0.9582 -0.3079 -0.2956
16862TIP3    H272078   3.878   0.667   2.143  1.0370 -0.3176 -0.3077
16863TIP3   OH272079   1.459   6.683  14.529  0.5391  0.1421  0.5500
16863TIP3    H172080   1.495   6.729  14.604 -0.6964  0.1799  1.1236
16863TIP3    H272081   1.456   6.749  14.459 -0.4720  0.7207  1.1344
16864TIP3   OH272082   2.508   1.819   0.361 -1.0955 -0.2640 -0.7324
16864TIP3    H172083   2.444   1.889   0.371 -1.3356 -0.5874  0.0237
16864TIP3    H272084   2.482   1.774   0.281 -0.4006  1.0610 -1.7429
16865TIP3   OH272085   3.744   4.911   2.104  0.3230 -0.6892 -0.3066
16865TIP3    H172086   3.717   4.822   2.129 -0.1246 -1.1965 -2.4549
16865TIP3    H272087   3.798   4.898   2.026  2.4718  0.7404  0.9064
16866TIP3   OH272088   0.215   0.006  13.550 -0.2891  0.2042 -0.6789
16866TIP3    H172089   0.282   0.069  13.524 -0.1320  0.0827 -0.5716
16866TIP3    H272090   0.147   0.014  13.484 -0.2735  0.4931 -0.6597
16867TIP3   OH272091   4.716   3.332  16.832 -0.1518 -0.3494 -0.9001
16867TIP3    H172092   4.717   3.241  16.860  2.7613 -0.2848 -0.6801
16867TIP3    H272093   4.785   3.338  16.766  0.2047  1.8463 -0.3624
16868TIP3   OH272094   2.995   5.026  12.289  0.0598  0.3916 -0.0723
16868TIP3    H172095   2.919   5.083  12.276  0.4258  1.6056  2.7770
16868TIP3    H272096   3.060   5.082  12.332  1.3819 -1.4988  0.4546
16869TIP3   OH272097   3.085   2.167   3.542  0.0269  0.1717  0.4008
16869TIP3    H172098   3.046   2.220   3.611  0.6355  0.4501  0.5402
16869TIP3    H272099   3.123   2.092   3.589  0.5501  0.4242  0.3884
16870TIP3   OH272100   1.049   3.440   1.445  0.2902  0.0707 -0.1751
16870TIP3    H172101   1.104   3.517   1.457 -0.1980  0.7019 -1.7677
16870TIP3    H272102   0.974   3.472   1.393 -0.9634 -1.0226  0.9260
16871TIP3   OH272103   4.897   2.126  14.008  0.1142  0.0045 -0.6320
16871TIP3    H172104   4.824   2.154  13.954 -0.2447  0.7151  0.2023
16871TIP3    H272105   4.959   2.198  14.004  0.7861 -0.6099 -1.3608
16872TIP3   OH272106   6.749   5.283  10.918 -0.7110 -0.5020  0.3483
16872TIP3    H172107   6.682   5.238  10.970 -2.0064  1.1749  0.1543
16872TIP3    H272108   6.700   5.343  10.862  0.7850 -1.1756 -1.7326
16873TIP3   OH272109   5.799   1.461  13.013 -0.1170 -0.1577 -0.1149
16873TIP3    H172110   5.727   1.495  13.065 -1.4604 -0.0681 -1.9670
16873TIP3    H272111   5.815   1.373  13.048 -0.7220  0.0613  0.7122
16874TIP3   OH272112   5.469   4.683  16.676  0.2096 -0.0058  0.0532
16874TIP3    H172113   5.477   4.593  16.708 -0.9755 -0.6524 -1.4094
16874TIP3    H272114   5.548   4.697  16.624  0.0400 -0.4674 -0.3334
16875TIP3   OH272115   3.543   1.410   1.493 -0.0323  0.2272  0.0208
16875TIP3    H172116   3.552   1.437   1.585  0.0817 -0.9477  0.3586
16875TIP3    H272117   3.628   1.429   1.454 -0.1619  0.9691  0.0868
16876TIP3   OH272118   0.464   4.291  12.104  0.2174  0.3441  0.6045
16876TIP3    H172119   0.515   4.361  12.064  1.6882  0.0073  1.8562
16876TIP3    H272120   0.373   4.319  12.093  0.6759  1.2026 -1.1821
16877TIP3   OH272121   3.343   0.698  14.936 -0.0093 -0.6221  0.1339
16877TIP3    H172122   3.275   0.631  14.946  1.7487 -2.3390  1.1624
16877TIP3    H272123   3.412   0.670  14.997  1.7182  0.9040 -1.0730
16878TIP3   OH272124   0.654   4.834   5.607  0.0195 -0.5079  0.0243
16878TIP3    H172125   0.640   4.798   5.519  0.7766 -0.3437 -0.1615
16878TIP3    H272126   0.611   4.919   5.604  1.6870  0.3254 -0.7924
16879TIP3   OH272127   4.323   6.534   2.445  0.1771  0.2186 -0.6075
16879TIP3    H172128   4.374   6.570   2.518  1.2042 -0.6555 -0.8818
16879TIP3    H272129   4.240   6.507   2.485 -0.3295  2.2306 -0.2738
16880TIP3   OH272130   4.985   0.952  13.135 -0.4188 -0.0311  0.2793
16880TIP3    H172131   4.952   0.985  13.218  1.5586 -0.3610  1.1998
16880TIP3    H272132   4.988   1.029  13.078 -0.5235  0.4270  0.8959
16881TIP3   OH272133   2.339   4.878  11.451 -0.4882  0.6365  0.3681
16881TIP3    H172134   2.263   4.935  11.459 -0.5807  0.6539 -0.5621
16881TIP3    H272135   2.308   4.803  11.400  0.2954  1.0032 -0.6736
16882TIP3   OH272136   0.799   1.270   3.688 -0.3108 -0.2834  0.7782
16882TIP3    H172137   0.874   1.252   3.632  0.8674  0.1858  2.1654
16882TIP3    H272138   0.781   1.186   3.732  0.0897 -0.1257  1.2473
16883TIP3   OH272139   4.767   0.615   1.678 -0.5491 -0.1427 -0.7274
16883TIP3    H172140   4.825   0.574   1.742 -0.3153 -1.7025 -1.9011
16883TIP3    H272141   4.826   0.666   1.622 -0.4438 -0.7488 -1.1772
16884TIP3   OH272142   0.779   1.977  15.631  0.0623  0.0561 -0.4708
16884TIP3    H172143   0.717   1.978  15.703  0.4817 -2.5514 -0.0137
16884TIP3    H272144   0.850   1.921  15.661  1.0314  0.2852 -2.2592
16885TIP3   OH272145   4.789   6.647   4.629 -0.3783 -0.0941 -0.8928
16885TIP3    H172146   4.745   6.568   4.662  0.1835 -0.1773 -0.3347
16885TIP3    H272147   4.754   6.659   4.541 -1.4851 -0.1928 -0.4760
16886TIP3   OH272148   5.737   6.185  16.887 -0.0852  0.2664  0.3966
16886TIP3    H172149   5.713   6.140  16.806 -1.0473  1.9283 -0.2698
16886TIP3    H272150   5.771   6.270  16.858 -1.5302  1.3527  1.7605
16887TIP3   OH272151   1.314   2.874   4.169  0.0196  0.3422  0.0088
16887TIP3    H172152   1.225   2.846   4.146  0.1729  0.5431 -0.8794
16887TIP3    H272153   1.306   2.968   4.183  0.4931  0.7506 -2.2652
16888TIP3   OH272154   1.756   0.575  15.513 -0.8124 -0.0700  0.6598
16888TIP3    H172155   1.807   0.656  15.513  0.7372 -0.9958  3.0194
16888TIP3    H272156   1.819   0.507  15.490 -0.7942 -1.2787  3.9850
16889TIP3   OH272157   1.375   4.274  15.402  0.2346  0.1370  0.4620
16889TIP3    H172158   1.433   4.349  15.412  2.2226 -0.9288 -2.5776
16889TIP3    H272159   1.417   4.204  15.452 -0.1609  0.2643  0.9777
16890TIP3   OH272160   1.659   6.609   0.900 -0.1062  0.4037  0.7904
16890TIP3    H172161   1.731   6.670   0.882 -0.3277  0.4027 -0.0966
16890TIP3    H272162   1.703   6.524   0.914  0.0273  0.2859 -0.3152
16891TIP3   OH272163   1.493   6.432  11.804 -0.4717 -0.0692  0.1706
16891TIP3    H172164   1.431   6.366  11.834 -0.0164 -0.5512  0.0798
16891TIP3    H272165   1.536   6.463  11.884  0.1253 -0.7244  0.1175
16892TIP3   OH272166   5.188   3.304   4.421 -0.4807  0.4171 -0.3487
16892TIP3    H172167   5.224   3.227   4.466 -1.6105  0.7185  1.1279
16892TIP3    H272168   5.247   3.319   4.347  0.6786 -0.8874  0.2907
16893TIP3   OH272169   2.128   4.889  15.166 -0.1405 -0.5269 -0.2146
16893TIP3    H172170   2.153   4.856  15.252 -1.1017 -4.3866 -1.3360
16893TIP3    H272171   2.042   4.930  15.180 -0.0647 -0.6799  0.7503
16894TIP3   OH272172   3.129   3.214  17.022 -0.8435  0.2444  1.0477
16894TIP3    H172173   3.085   3.250  16.946 -1.7294 -0.5575  1.1656
16894TIP3    H272174   3.079   3.248  17.097  1.5102  3.0898  1.4374
16895TIP3   OH272175   5.324   5.741  14.592  0.4818 -0.4222  0.0948
16895TIP3    H172176   5.312   5.786  14.509  1.3907  1.5035  0.9758
16895TIP3    H272177   5.235   5.728  14.625  0.1946  2.2971  0.5847
16896TIP3   OH272178   1.209   1.643   1.802 -0.5786  0.7173  0.1330
16896TIP3    H172179   1.167   1.693   1.733 -0.0441 -2.5114 -2.6486
16896TIP3    H272180   1.289   1.609   1.762  0.0928 -0.6776  2.5378
16897TIP3   OH272181   0.279   1.393   3.504 -0.3259  0.2288 -0.2374
16897TIP3    H172182   0.261   1.303   3.529 -1.3232  0.6622  0.6122
16897TIP3    H272183   0.368   1.410   3.537  0.4283 -0.8817 -1.6443
16898TIP3   OH272184   6.139   0.812  10.960  0.1163 -0.5494  0.3726
16898TIP3    H172185   6.235   0.814  10.963  0.1764 -1.4374 -0.8034
16898TIP3    H272186   6.116   0.868  10.886 -0.2608 -0.7074  0.3694
16899TIP3   OH272187   6.535   2.977  14.733  0.3101  0.4185  0.0817
16899TIP3    H172188   6.532   3.053  14.674  1.1324  0.4908  0.1227
16899TIP3    H272189   6.580   3.009  14.811 -0.5547  0.2511  0.6544
16900TIP3   OH272190   5.088   5.094  16.949 -0.0900  0.6906  0.5763
16900TIP3    H172191   5.066   5.001  16.945  0.0813  0.6136  1.2516
16900TIP3    H272192   5.070   5.119  17.040  0.3649  1.1927  0.5338
16901TIP3   OH272193   5.456   2.990  15.387 -0.3197 -0.0129  0.6797
16901TIP3    H172194   5.371   2.975  15.345  0.3417 -0.5950 -0.4861
16901TIP3    H272195   5.519   2.945  15.330  0.6482 -0.4983  2.1098
16902TIP3   OH272196   1.614   6.012  13.334 -0.2196  0.0353  0.8228
16902TIP3    H172197   1.702   6.005  13.370 -0.5418 -1.7297  1.3562
16902TIP3    H272198   1.565   6.062  13.400  0.1465  0.1436  1.0128
16903TIP3   OH272199   2.397   3.913   2.713 -0.8119  0.2652 -0.3259
16903TIP3    H172200   2.479   3.886   2.671 -1.2136 -2.8369  0.7236
16903TIP3    H272201   2.418   3.913   2.807 -2.3866 -2.1940  0.0782
16904TIP3   OH272202   4.238   2.005   5.508  0.0312 -0.7021 -0.4338
16904TIP3    H172203   4.143   1.991   5.511 -0.5655  2.9000  0.3683
16904TIP3    H272204   4.255   2.036   5.419  0.4937 -1.4076 -0.5992
16905TIP3   OH272205   2.194   3.047   3.117 -0.2517  0.3009 -0.4949
16905TIP3    H172206   2.223   3.001   3.039  1.6627  0.3602  0.1641
16905TIP3    H272207   2.254   3.019   3.186 -0.9285  1.4665  0.5995
16906TIP3   OH272208   2.869   3.239   1.611  0.4213  0.0047  0.2380
16906TIP3    H172209   2.877   3.331   1.637 -0.2365  0.3492 -0.7056
16906TIP3    H272210   2.911   3.236   1.525 -1.5557 -0.0701 -0.7539
16907TIP3   OH272211   0.510   3.096  15.396 -0.5438  0.6825 -0.2288
16907TIP3    H172212   0.470   3.181  15.380 -2.4752 -0.2023 -0.2559
16907TIP3    H272213   0.556   3.075  15.315 -0.2946  1.5613 -0.3204
16908TIP3   OH272214   0.676   1.420  12.421 -0.0691 -0.2076 -0.3663
16908TIP3    H172215   0.757   1.414  12.472  0.4776  0.9933 -1.0754
16908TIP3    H272216   0.704   1.445  12.333 -1.3617  2.5245 -0.0703
16909TIP3   OH272217   5.264   3.617  16.597 -0.0123 -0.0029  0.4667
16909TIP3    H172218   5.353   3.592  16.622  0.1786 -1.1330 -1.2250
16909TIP3    H272219   5.277   3.691  16.537 -0.2092 -0.1127  0.2882
16910TIP3   OH272220   0.967   0.417  15.528 -0.0839  0.2662  0.2220
16910TIP3    H172221   1.027   0.444  15.459 -0.0543  1.8552  0.8269
16910TIP3    H272222   0.897   0.371  15.483  0.6828 -0.0264 -0.6861
16911TIP3   OH272223   4.159   4.211  16.922 -0.1764 -0.1918  0.2164
16911TIP3    H172224   4.213   4.208  16.844 -0.4531  0.3091 -0.0007
16911TIP3    H272225   4.197   4.282  16.975 -1.1904  0.8362 -0.3863
16912TIP3   OH272226   3.479   0.274   4.760  0.5855 -0.5267  0.1160
16912TIP3    H172227   3.454   0.241   4.847 -0.0081 -0.0482  0.1311
16912TIP3    H272228   3.543   0.210   4.728  1.4404 -0.2613  1.2537
16913TIP3   OH272229   3.064   1.953  10.826  0.0807  0.1766  0.2227
16913TIP3    H172230   3.068   1.921  10.736 -1.6003 -0.2019  0.2750
16913TIP3    H272231   3.091   1.878  10.880 -0.3167 -0.0363  0.1235
16914TIP3   OH272232   2.388   5.809   0.565 -0.0580 -0.4243 -0.0536
16914TIP3    H172233   2.374   5.800   0.471  0.9918 -1.0596 -0.1576
16914TIP3    H272234   2.315   5.761   0.604 -1.4486  1.2624 -0.5116
16915TIP3   OH272235   5.684   1.381   3.250 -0.7773 -0.5172 -0.2061
16915TIP3    H172236   5.691   1.294   3.212 -0.1900 -1.5812  2.2538
16915TIP3    H272237   5.774   1.406   3.273 -0.9673  0.6239 -0.6548
16916TIP3   OH272238   0.757   3.605   1.556  0.3438  0.3975 -0.0168
16916TIP3    H172239   0.822   3.637   1.618 -1.2103  0.4696  1.5989
16916TIP3    H272240   0.742   3.679   1.497  1.6382  0.4077 -0.3544
16917TIP3   OH272241   2.884   6.813   1.133 -0.3614 -0.1821 -0.1063
16917TIP3    H172242   2.937   6.741   1.169 -0.2565 -0.0429  0.0193
16917TIP3    H272243   2.807   6.770   1.095  0.4631 -0.4923 -1.4382
16918TIP3   OH272244   2.003   1.405  13.945  0.2827 -0.0724  0.0961
16918TIP3    H172245   2.084   1.455  13.939 -0.2190  0.8180  0.6371
16918TIP3    H272246   1.939   1.457  13.897 -0.0052 -0.7003 -0.2050
16919TIP3   OH272247   0.624   2.894   0.873 -0.3569 -0.3795 -0.0131
16919TIP3    H172248   0.545   2.948   0.882 -0.0420 -0.0366  0.7883
16919TIP3    H272249   0.592   2.804   0.880 -0.6520 -0.2338  0.6423
16920TIP3   OH272250   0.821   4.339   0.425  0.3652  0.0844 -0.4525
16920TIP3    H172251   0.915   4.340   0.442  0.6751 -0.6043 -2.0851
16920TIP3    H272252   0.801   4.427   0.394  0.4306  0.3017  0.1292
16921TIP3   OH272253   6.286   6.423   4.923 -0.2568 -0.0727  0.4070
16921TIP3    H172254   6.280   6.406   5.017  0.1481  0.7192  0.5832
16921TIP3    H272255   6.323   6.342   4.887  0.5744 -0.0072  1.0735
16922TIP3   OH272256   5.112   2.964  13.845  0.3596 -0.7848  0.1948
16922TIP3    H172257   5.145   2.995  13.760 -0.0828  0.7555  0.5629
16922TIP3    H272258   5.143   3.030  13.907 -1.7009 -0.3756  0.8300
16923TIP3   OH272259   4.323   3.661  12.508 -0.0312  0.5585 -0.0511
16923TIP3    H172260   4.289   3.572  12.514 -1.8164  1.1125 -1.3456
16923TIP3    H272261   4.287   3.706  12.584 -1.3136  0.8402 -0.8044
16924TIP3   OH272262   0.658   2.766  11.301 -0.0267 -0.6451 -0.1914
16924TIP3    H172263   0.590   2.717  11.346  0.6530 -0.3507  1.1779
16924TIP3    H272264   0.615   2.800  11.222 -1.3018 -0.9333  0.3696
16925TIP3   OH272265   1.427   6.754   5.618 -0.8673 -0.1891  0.7142
16925TIP3    H172266   1.466   6.815   5.680 -1.1008  0.2815  0.4009
16925TIP3    H272267   1.490   6.682   5.612  0.2752  0.8908 -0.3007
16926TIP3   OH272268   6.111   2.947   2.868  0.5821  0.1015  0.4249
16926TIP3    H172269   6.185   2.949   2.807  0.1286  1.1360 -0.0891
16926TIP3    H272270   6.146   2.983   2.949  0.6316  0.6497  0.1621
16927TIP3   OH272271   0.896   3.101  15.408  0.1427 -0.0934  0.4494
16927TIP3    H172272   0.942   3.142  15.482 -0.9582  0.9624  0.5596
16927TIP3    H272273   0.886   3.172  15.344  0.3007 -0.7815 -0.3377
16928TIP3   OH272274   5.421   6.753  16.967 -0.0236  0.3485 -0.6175
16928TIP3    H172275   5.364   6.830  16.964 -0.8732 -0.2600 -0.0602
16928TIP3    H272276   5.469   6.762  17.049 -1.8730 -0.9448  0.6514
16929TIP3   OH272277   0.689   6.257  15.157 -0.1923 -0.0522 -0.3580
16929TIP3    H172278   0.734   6.245  15.073 -1.7897 -1.8396 -1.0039
16929TIP3    H272279   0.671   6.168  15.187 -0.0646  0.5756  1.6657
16930TIP3   OH272280   1.142   0.916  16.470  0.3131 -0.3008 -0.0766
16930TIP3    H172281   1.109   0.826  16.462  1.6550 -0.9777  1.6759
16930TIP3    H272282   1.102   0.948  16.550  0.3236  0.4530 -0.3761
16931TIP3   OH272283   5.933   4.697  17.165  0.4069  0.1529 -0.4784
16931TIP3    H172284   5.970   4.644  17.235 -0.1294  0.0971 -0.2354
16931TIP3    H272285   5.956   4.787  17.188 -0.6290  0.2289  0.3067
16932TIP3   OH272286   1.364   5.558  11.221  0.9612  0.0044 -0.0699
16932TIP3    H172287   1.362   5.464  11.236  0.1163 -0.1365 -1.0253
16932TIP3    H272288   1.454   5.576  11.192  1.3841 -0.3556  1.0125
16933TIP3   OH272289   1.245   4.528   3.459 -0.3007 -0.0879  0.2596
16933TIP3    H172290   1.301   4.485   3.523  0.4516  0.4383 -0.0289
16933TIP3    H272291   1.172   4.564   3.510 -1.9884 -3.3518  0.2460
16934TIP3   OH272292   3.804   1.930   4.474 -0.2823 -0.2062 -0.1154
16934TIP3    H172293   3.762   1.997   4.527 -1.4421 -0.9047 -0.1261
16934TIP3    H272294   3.811   1.968   4.387  1.7306  0.9885  0.5385
16935TIP3   OH272295   4.629   5.332   3.203 -0.4938  0.2534  0.1612
16935TIP3    H172296   4.547   5.291   3.230 -0.8712  1.1985  0.4864
16935TIP3    H272297   4.605   5.423   3.183  0.9181  1.2251  2.6958
16936TIP3   OH272298   5.004   1.937   0.692  0.0721 -0.3285  0.2571
16936TIP3    H172299   5.049   1.939   0.607 -0.0718  1.8294  0.1947
16936TIP3    H272300   4.921   1.893   0.675 -0.6774  1.5854 -1.1051
16937TIP3   OH272301   2.635   6.477   1.226  0.1416  0.5807 -0.0267
16937TIP3    H172302   2.622   6.542   1.157 -1.2541  1.3253  0.8996
16937TIP3    H272303   2.616   6.525   1.307 -0.0552 -0.7536  0.7250
16938TIP3   OH272304   4.966   4.347   4.109  0.3360 -0.5042 -0.0965
16938TIP3    H172305   4.992   4.396   4.187  1.7828 -2.3964  0.6447
16938TIP3    H272306   4.984   4.255   4.131  0.1801 -1.1314 -2.4350
16939TIP3   OH272307   3.058   6.486   1.719  0.5908 -0.1470  0.3031
16939TIP3    H172308   2.970   6.469   1.687 -0.5619  0.1157  3.1188
16939TIP3    H272309   3.051   6.476   1.814  3.0968  2.0667  0.7787
16940TIP3   OH272310   6.632   2.122   2.467 -0.3643  0.2611  0.1349
16940TIP3    H172311   6.634   2.136   2.562  0.0378  0.7703  0.0551
16940TIP3    H272312   6.600   2.205   2.432  2.6861  1.2744 -0.3980
16941TIP3   OH272313   5.880   5.941  16.551  0.1336  0.2491  0.2775
16941TIP3    H172314   5.945   5.876  16.577  0.4478 -0.2634 -1.7601
16941TIP3    H272315   5.822   5.895  16.490 -0.5007  1.4694 -0.0687
16942TIP3   OH272316   1.449   0.755  15.367 -0.1485  0.8783  0.5514
16942TIP3    H172317   1.419   0.668  15.394  1.0751  0.0228 -0.7343
16942TIP3    H272318   1.472   0.800  15.448  0.7593 -0.6008  1.1244
16943TIP3   OH272319   0.853   0.763  15.293  0.2604 -0.5092 -0.2953
16943TIP3    H172320   0.830   0.672  15.272  0.2503 -0.1019 -2.0580
16943TIP3    H272321   0.946   0.759  15.316  0.4600 -0.8447 -1.1383
16944TIP3   OH272322   4.712   4.190   4.233  0.5961  0.0624 -0.2349
16944TIP3    H172323   4.712   4.116   4.294 -0.4617  0.3033  0.0496
16944TIP3    H272324   4.718   4.268   4.289 -0.0865  0.2707 -0.4524
16945TIP3   OH272325   4.450   1.088  17.269 -0.0076 -0.5094 -0.3645
16945TIP3    H172326   4.472   1.140  17.347 -2.0145  0.8762 -0.6941
16945TIP3    H272327   4.534   1.056  17.238  1.1545  1.5228  0.5672
16946TIP3   OH272328   2.830   3.157   4.358  0.4002  0.5864  0.2746
16946TIP3    H172329   2.774   3.081   4.369  0.0666  0.9040  0.7725
16946TIP3    H272330   2.911   3.122   4.320 -0.0203  0.0923 -0.1572
16947TIP3   OH272331   3.747   4.438  16.278  0.5152  0.1815  0.5606
16947TIP3    H172332   3.755   4.414  16.371  0.8113  1.7879  0.9684
16947TIP3    H272333   3.655   4.465  16.269  0.4959  0.0589  0.3759
16948TIP3   OH272334   6.584   3.936   1.508  0.1101 -0.5897 -0.0208
16948TIP3    H172335   6.592   3.992   1.585  1.9540  0.6045 -1.0483
16948TIP3    H272336   6.532   3.988   1.446 -0.3697 -1.0765 -0.0329
16949TIP3   OH272337   4.403   2.998  13.069  0.0112 -0.3974 -0.1164
16949TIP3    H172338   4.435   2.992  13.160 -0.4255  1.4119  0.1654
16949TIP3    H272339   4.435   3.082  13.038  0.7877 -1.3255 -1.9195
16950TIP3   OH272340   2.850   6.612   2.601 -0.2689  0.6037 -0.4548
16950TIP3    H172341   2.931   6.644   2.641  0.3779 -1.3505 -0.1528
16950TIP3    H272342   2.780   6.661   2.645  0.6405  0.9399  0.6235
16951TIP3   OH272343   0.606   1.362   2.507 -0.2881  0.3361  0.1153
16951TIP3    H172344   0.641   1.323   2.587  0.0887 -0.9408 -0.6510
16951TIP3    H272345   0.617   1.456   2.519 -0.1348  0.1465  1.5148
16952TIP3   OH272346   0.018   0.535  12.807 -0.3510  0.2416 -0.4908
16952TIP3    H172347   0.005   0.570  12.895  2.8240  0.2583  0.0129
16952TIP3    H272348  -0.018   0.602  12.749 -0.5869  1.1562  0.6893
16953TIP3   OH272349   5.764   6.709  16.146 -0.1857 -0.5208 -0.3362
16953TIP3    H172350   5.834   6.750  16.196  0.3737 -0.0486 -1.4825
16953TIP3    H272351   5.744   6.772  16.076 -1.1716 -1.0252 -0.5205
16954TIP3   OH272352   3.623   4.906  12.989 -0.5915  0.1879  0.0506
16954TIP3    H172353   3.586   4.934  13.073 -2.4225  3.2854 -1.6996
16954TIP3    H272354   3.548   4.903  12.930  1.0021  0.2194 -2.0295
16955TIP3   OH272355   2.310   1.309   4.634  0.4524  0.0355  0.1177
16955TIP3    H172356   2.236   1.251   4.652  0.2749 -0.0666 -0.9470
16955TIP3    H272357   2.345   1.330   4.721 -0.9275  0.2195  0.6475
16956TIP3   OH272358   5.704   4.534   1.618  0.0543 -0.2985 -0.2368
16956TIP3    H172359   5.717   4.561   1.709 -1.9053  1.6292 -0.4762
16956TIP3    H272360   5.612   4.557   1.600  0.8401  0.7241 -3.1482
16957TIP3   OH272361   4.794   2.653   1.567 -0.0361  0.1841  0.1945
16957TIP3    H172362   4.765   2.579   1.513  0.0765  0.1761  0.1460
16957TIP3    H272363   4.887   2.639   1.581  0.1914  0.8079 -0.6018
16958TIP3   OH272364   4.539   0.553   2.885 -0.1670  0.5370 -0.2038
16958TIP3    H172365   4.506   0.581   2.971 -0.9315  0.3206 -0.4217
16958TIP3    H272366   4.575   0.632   2.846  1.8845  0.2814  1.0660
16959TIP3   OH272367   3.233   4.256  16.398  0.0973  0.0196  0.3664
16959TIP3    H172368   3.292   4.243  16.324  0.3259  2.3968  0.1039
16959TIP3    H272369   3.277   4.321  16.453 -0.8787 -0.4239  1.6950
16960TIP3   OH272370   1.309   4.707   5.624 -0.3518  0.1904  0.0659
16960TIP3    H172371   1.363   4.769   5.673 -1.6399  0.3248  1.3779
16960TIP3    H272372   1.282   4.643   5.690 -0.3087 -0.8812 -0.9525
16961TIP3   OH272373   6.577   5.200  11.137  0.1465  0.0148 -0.0951
16961TIP3    H172374   6.522   5.232  11.208 -0.1451  0.3925 -0.4871
16961TIP3    H272375   6.545   5.112  11.119  1.9042 -1.0791  1.9701
16962TIP3   OH272376   0.784   1.393   1.119 -0.1197 -1.1425  0.1273
16962TIP3    H172377   0.704   1.427   1.160 -0.3731 -0.6455 -0.7731
16962TIP3    H272378   0.811   1.321   1.176 -0.5190 -0.5168  1.1236
16963TIP3   OH272379   1.660   5.597  16.683  0.0824  0.6208  0.1859
16963TIP3    H172380   1.680   5.539  16.756 -0.8914  0.1163  0.0513
16963TIP3    H272381   1.720   5.671  16.694  0.8871 -0.1057  0.7129
16964TIP3   OH272382   5.540   0.640  11.451  0.6803 -0.0425 -0.5773
16964TIP3    H172383   5.567   0.644  11.359 -0.2894 -1.7508 -0.9530
16964TIP3    H272384   5.505   0.727  11.469 -0.6378 -0.1822 -2.3199
16965TIP3   OH272385   0.705   1.819   2.375  0.6095 -0.1129  0.1938
16965TIP3    H172386   0.697   1.762   2.298  1.7723  1.9197 -1.5012
16965TIP3    H272387   0.796   1.809   2.403  0.4723 -0.0525  0.6613
16966TIP3   OH272388   4.696   6.581  13.947  0.0115 -0.2954  0.3310
16966TIP3    H172389   4.704   6.515  13.878  0.5773 -0.4269  0.5152
16966TIP3    H272390   4.617   6.556  13.995  1.1644 -1.8532  1.4557
16967TIP3   OH272391   5.813   0.664   4.144  0.4439  0.4547  0.4593
16967TIP3    H172392   5.811   0.745   4.092  0.4971  0.6586  0.7773
16967TIP3    H272393   5.906   0.646   4.156  0.4322  0.2449  0.2308
16968TIP3   OH272394   1.380   3.606   3.931  0.7396 -0.0698 -0.5444
16968TIP3    H172395   1.403   3.521   3.893  1.1843  0.1093 -0.6652
16968TIP3    H272396   1.325   3.648   3.864  0.3819 -0.3254 -0.4183
16969TIP3   OH272397   0.876   2.757  14.056  0.1680 -0.3743  0.5639
16969TIP3    H172398   0.871   2.673  14.010 -0.5734 -0.5006  0.8617
16969TIP3    H272399   0.789   2.767  14.096  0.3001  0.4685  0.6402
16970TIP3   OH272400   0.662   1.864   2.699  0.3825  0.1274  0.2314
16970TIP3    H172401   0.707   1.891   2.779 -0.5948 -0.1266  0.8806
16970TIP3    H272402   0.623   1.945   2.665  1.3139  0.3443 -0.3231
16971TIP3   OH272403   2.475   5.923  12.032  0.1697  0.2451 -0.5573
16971TIP3    H172404   2.453   5.874  12.111  0.3697  1.5772  0.3515
16971TIP3    H272405   2.546   5.874  11.992  0.3062 -0.2541  0.2811
16972TIP3   OH272406   6.713   4.936  16.156  0.3205 -0.4241  0.3884
16972TIP3    H172407   6.670   4.894  16.082 -1.2784 -0.2001  1.1720
16972TIP3    H272408   6.776   4.871  16.188  0.6462 -0.7140 -0.8260
16973TIP3   OH272409   5.591   1.806   2.669  0.1767  1.1287  0.0137
16973TIP3    H172410   5.625   1.877   2.615  1.6772  0.3266 -0.1157
16973TIP3    H272411   5.621   1.726   2.626  0.8142  0.4666  1.6499
16974TIP3   OH272412   6.818   0.693  10.998 -0.2805  0.2780  0.0212
16974TIP3    H172413   6.731   0.655  11.012  0.1075 -0.3173  0.9262
16974TIP3    H272414   6.877   0.634  11.045  0.9912 -1.0590 -3.1599
16975TIP3   OH272415   3.655   2.761  12.650  0.4640  0.5386  0.1130
16975TIP3    H172416   3.608   2.841  12.673 -1.7164 -0.1502 -1.7309
16975TIP3    H272417   3.586   2.699  12.624  2.1090 -1.9071  1.3511
16976TIP3   OH272418   1.062   6.644   5.921 -0.1688 -0.6346  0.2127
16976TIP3    H172419   1.062   6.716   5.858  1.5108 -0.3716  0.4972
16976TIP3    H272420   1.146   6.652   5.967 -1.5608 -0.5274  2.8300
16977TIP3   OH272421   4.436   1.379   0.479 -0.0122 -0.0917 -0.1288
16977TIP3    H172422   4.492   1.339   0.545 -0.7587  0.8571  1.0884
16977TIP3    H272423   4.362   1.415   0.528  0.1728  1.9430 -1.2912
16978TIP3   OH272424   1.215   6.543  11.860  0.6877  0.1559 -0.1517
16978TIP3    H172425   1.206   6.604  11.787 -0.3775 -1.6489 -1.5631
16978TIP3    H272426   1.255   6.465  11.822 -0.1610 -0.9150  1.1154
16979TIP3   OH272427   1.740   2.374   2.126 -0.7003  0.1712  0.6421
16979TIP3    H172428   1.647   2.365   2.106 -1.0809  1.9630  1.4907
16979TIP3    H272429   1.760   2.466   2.106  0.9223 -0.2365  0.3315
16980TIP3   OH272430   6.809   0.582   6.259  0.8273  0.1074 -0.7574
16980TIP3    H172431   6.836   0.623   6.341  2.2390  1.1995 -1.7367
16980TIP3    H272432   6.845   0.639   6.191 -0.1354 -0.9009 -2.1344
16981TIP3   OH272433   3.519   5.574  13.025  0.3235  0.1667  0.3656
16981TIP3    H172434   3.456   5.645  13.033 -1.3956 -1.4228  1.1716
16981TIP3    H272435   3.524   5.535  13.113  2.3806  0.2249  0.3032
16982TIP3   OH272436   1.167   0.863   2.488  0.4794  0.3985  0.3444
16982TIP3    H172437   1.246   0.908   2.460  0.5045  0.1863  0.0614
16982TIP3    H272438   1.197   0.777   2.518  0.4475  0.6206  1.0096
16983TIP3   OH272439   5.452   5.977  13.486  0.0974  0.0012  0.0260
16983TIP3    H172440   5.398   6.042  13.532  1.9131  1.3183  0.3661
16983TIP3    H272441   5.404   5.895  13.497  0.6068  0.1774  4.6713
16984TIP3   OH272442   6.518   2.677   3.745  0.0890  0.1870  0.0471
16984TIP3    H172443   6.458   2.651   3.675  0.2842  0.2296 -0.1358
16984TIP3    H272444   6.603   2.642   3.719 -0.0769 -0.8363  0.8611
16985TIP3   OH272445   4.257   5.488  15.588  0.2003  0.6060  0.3694
16985TIP3    H172446   4.308   5.526  15.659 -0.1636  0.2729  0.8074
16985TIP3    H272447   4.167   5.517  15.604  0.1529  0.7236 -0.0856
16986TIP3   OH272448   4.498   5.010   4.111  0.2138  0.1164  0.2038
16986TIP3    H172449   4.519   5.103   4.102  0.9503 -0.0766 -0.0998
16986TIP3    H272450   4.489   4.997   4.206  0.8184  0.3515  0.3006
16987TIP3   OH272451   5.476   4.197  15.551 -0.4817  0.3915  0.2797
16987TIP3    H172452   5.399   4.254  15.543 -0.3952  0.4094 -0.4538
16987TIP3    H272453   5.503   4.206  15.642 -1.8122 -0.2176  0.7456
16988TIP3   OH272454   6.447   2.851   1.719  0.4481  0.4256 -0.0695
16988TIP3    H172455   6.467   2.938   1.684  0.5523  0.3961 -0.0839
16988TIP3    H272456   6.353   2.854   1.738  0.8508  1.2394  1.9181
16989TIP3   OH272457   5.657   4.639  11.591  0.7934  0.4715  0.1425
16989TIP3    H172458   5.602   4.636  11.513 -0.6373 -0.0067  1.1501
16989TIP3    H272459   5.747   4.636  11.557  0.2185  1.4961 -1.5304
16990TIP3   OH272460   1.001   4.870   2.974  0.6022 -0.3124  0.2870
16990TIP3    H172461   0.976   4.962   2.958 -0.1583 -0.4281  0.7609
16990TIP3    H272462   0.956   4.821   2.905  0.4837 -0.3926  0.4191
16991TIP3   OH272463   6.515   4.197  15.107  0.5525  0.4801 -0.4000
16991TIP3    H172464   6.456   4.221  15.179  1.5963 -1.0897  1.0074
16991TIP3    H272465   6.457   4.163  15.039 -0.4455  1.9605 -0.3147
16992TIP3   OH272466   1.223   0.337   4.687  0.3781  0.3740  0.4447
16992TIP3    H172467   1.283   0.409   4.666 -1.7562  2.2188  0.5535
16992TIP3    H272468   1.179   0.318   4.604 -0.0450  0.1115  0.7270
16993TIP3   OH272469   4.499   0.440   4.228  0.5778  0.1246 -0.1456
16993TIP3    H172470   4.578   0.386   4.234  0.2361 -0.4166 -0.4589
16993TIP3    H272471   4.479   0.462   4.319  0.2639 -0.9509  0.0617
16994TIP3   OH272472   2.355   6.399  15.420  0.1222 -0.0003  0.7063
16994TIP3    H172473   2.282   6.339  15.403 -0.4958  0.5355  1.4096
16994TIP3    H272474   2.393   6.367  15.502  0.3864 -0.0075  0.5787
16995TIP3   OH272475   0.125   2.049   0.929 -0.3825 -0.4694  0.1942
16995TIP3    H172476   0.045   2.097   0.951  0.3071  1.2291 -0.8930
16995TIP3    H272477   0.195   2.099   0.971  0.3817 -0.2826 -1.2633
16996TIP3   OH272478   0.589   2.314  14.812  0.0710 -0.6904  0.5082
16996TIP3    H172479   0.525   2.377  14.778 -0.3888 -0.4538  1.7980
16996TIP3    H272480   0.665   2.324  14.754 -0.7795 -0.4609 -0.5967
16997TIP3   OH272481   5.209   6.269   5.731 -0.0238  0.0015 -0.4017
16997TIP3    H172482   5.279   6.220   5.775  0.2727  2.9114  2.6007
16997TIP3    H272483   5.249   6.302   5.651  1.4016 -0.1398  0.2398
16998TIP3   OH272484   6.346   5.112   3.397 -0.3849  0.5455  0.3371
16998TIP3    H172485   6.370   5.023   3.371  1.7268  0.4524  2.4447
16998TIP3    H272486   6.377   5.167   3.325 -1.3142 -0.3645 -0.7795
16999TIP3   OH272487   5.733   0.083  14.836 -0.0508 -0.8758  0.2951
16999TIP3    H172488   5.828   0.079  14.829  0.2480  1.1522  2.2594
16999TIP3    H272489   5.707  -0.005  14.862  1.4080 -1.1976  0.7168
17000TIP3   OH272490   2.858   1.319  17.092  0.2980 -0.1115  0.0484
17000TIP3    H172491   2.950   1.294  17.082  0.4355 -0.0703  1.1238
17000TIP3    H272492   2.815   1.240  17.126 -0.1341 -0.2365 -0.7747
17001TIP3   OH272493   1.266   5.152   3.375 -0.1968  0.1864 -0.2571
17001TIP3    H172494   1.265   5.181   3.284  0.8961 -2.9535 -1.3334
17001TIP3    H272495   1.312   5.068   3.373  0.5852  0.4503  3.3244
17002TIP3   OH272496   2.033   1.350   1.909  0.0259 -0.5449  0.6763
17002TIP3    H172497   2.049   1.354   2.004  2.8981 -1.0339  0.2740
17002TIP3    H272498   2.009   1.440   1.885  0.2234 -0.2068  1.7265
17003TIP3   OH272499   4.007   1.005   1.643  0.0089  0.4628 -0.4577
17003TIP3    H172500   4.050   1.080   1.603  1.6294  0.3090  0.9317
17003TIP3    H272501   4.051   0.929   1.605 -0.0833  0.2665 -0.1729
17004TIP3   OH272502   0.940   4.085  12.439 -0.5481  0.0593 -0.9070
17004TIP3    H172503   0.984   4.032  12.506 -1.4483 -1.4773 -1.5073
17004TIP3    H272504   0.886   4.147  12.489  1.4804  1.2915 -0.1794
17005TIP3   OH272505   5.859   1.876   5.707  0.4116  0.2082 -0.2305
17005TIP3    H172506   5.866   1.938   5.780 -0.0170  0.3982 -0.3529
17005TIP3    H272507   5.788   1.909   5.654 -0.6062 -1.0339  0.3204
17006TIP3   OH272508   2.227   2.062  13.952  0.1767 -0.4091  0.7810
17006TIP3    H172509   2.281   1.995  13.994  0.7242  0.6525  1.7874
17006TIP3    H272510   2.188   2.111  14.025  0.9178  1.2738  0.0699
17007TIP3   OH272511   2.615   5.185  14.525  0.1461 -0.6177 -0.1024
17007TIP3    H172512   2.525   5.216  14.519  0.4387  0.9088  2.4641
17007TIP3    H272513   2.610   5.092  14.506 -2.1364 -0.7613  1.0539
17008TIP3   OH272514   6.685   2.033  15.135 -0.2866  0.1349  0.0848
17008TIP3    H172515   6.773   2.032  15.174 -0.3779 -1.0781  0.2864
17008TIP3    H272516   6.644   2.112  15.169  1.0718  1.2280 -0.7757
17009TIP3   OH272517   6.600   3.796   5.877  0.1193 -0.0599 -0.8705
17009TIP3    H172518   6.574   3.729   5.815 -0.8857  0.4015 -0.9606
17009TIP3    H272519   6.686   3.825   5.847 -0.6426  0.6294 -2.4642
17010TIP3   OH272520   2.956   6.506  17.241 -0.0754 -0.2191  0.3621
17010TIP3    H172521   3.006   6.472  17.315  2.4932 -0.9069 -1.6257
17010TIP3    H272522   2.974   6.600  17.240 -0.7845 -0.0706  1.0883
17011TIP3   OH272523   4.274   3.911   0.704 -0.2516  0.0713 -0.1167
17011TIP3    H172524   4.220   3.888   0.779  1.7783 -0.0201  1.3563
17011TIP3    H272525   4.338   3.974   0.738 -0.2914  1.2347 -2.1312
17012TIP3   OH272526   2.948   3.312  13.870 -0.0077  0.0516 -0.4962
17012TIP3    H172527   2.945   3.354  13.956  0.0942  0.1761 -0.5520
17012TIP3    H272528   2.972   3.383  13.810  1.1871 -0.3090 -0.4547
17013TIP3   OH272529   0.513   5.561  17.017 -0.0211 -0.0611  0.0253
17013TIP3    H172530   0.511   5.499  17.090  1.0043  1.5885  1.4951
17013TIP3    H272531   0.421   5.580  17.000 -0.2720 -0.4368  0.9213
17014TIP3   OH272532   1.977   1.729  15.811 -0.5306  0.1727  0.4409
17014TIP3    H172533   1.943   1.679  15.885 -2.0438 -0.5807 -0.7557
17014TIP3    H272534   2.021   1.665  15.756 -0.5481  0.5210  0.0156
17015TIP3   OH272535   5.362   1.104   2.073 -0.0255  0.1297  0.3367
17015TIP3    H172536   5.297   1.119   2.005  0.5586  1.5357  0.0644
17015TIP3    H272537   5.340   1.018   2.109 -0.0663 -0.8303 -1.9061
17016TIP3   OH272538   2.968   6.420   4.034 -0.3889  1.0887  0.2658
17016TIP3    H172539   2.929   6.428   3.947  1.1747  1.0150 -0.4650
17016TIP3    H272540   3.039   6.484   4.035 -0.7942  1.5280  1.7200
17017TIP3   OH272541   2.314   0.274   4.519 -0.3164  0.2280  0.0857
17017TIP3    H172542   2.272   0.297   4.436  0.3829 -0.0517 -0.3450
17017TIP3    H272543   2.372   0.202   4.497 -2.5483 -2.0778  1.4413
17018TIP3   OH272544   1.012   0.172   3.149 -0.4744 -0.1474 -0.4763
17018TIP3    H172545   0.977   0.196   3.235  1.5700  0.1836  0.2950
17018TIP3    H272546   0.995   0.078   3.141 -1.6925  0.0458 -0.2125
17019TIP3   OH272547   2.034   6.016  16.625 -0.4058 -0.5192  0.2666
17019TIP3    H172548   1.944   6.024  16.594 -0.1091  0.9752 -0.2699
17019TIP3    H272549   2.044   5.924  16.648 -1.7763 -0.8810 -0.5597
17020TIP3   OH272550   4.963   4.054   0.444 -0.6913 -0.3544 -0.2294
17020TIP3    H172551   4.905   4.112   0.394 -3.6883 -1.7933  1.4684
17020TIP3    H272552   4.964   3.972   0.394  0.3081 -0.1813 -0.5059
17021TIP3   OH272553   0.849   0.280   4.651  0.1814 -0.2437  0.6578
17021TIP3    H172554   0.781   0.216   4.627  0.9038 -1.0988  0.8481
17021TIP3    H272555   0.873   0.257   4.741  1.0222 -0.2296  0.4428
17022TIP3   OH272556   2.376   1.523  14.225 -0.1329  0.5576 -0.5312
17022TIP3    H172557   2.370   1.460  14.297 -1.9418 -0.5457 -1.5964
17022TIP3    H272558   2.468   1.551  14.224  0.3449 -0.9120  0.9394
17023TIP3   OH272559   5.208   5.320  16.898  0.4166  0.2200 -0.4051
17023TIP3    H172560   5.125   5.362  16.918  0.6916  0.7208 -0.2947
17023TIP3    H272561   5.187   5.228  16.889 -0.3343  0.4935 -1.4726
17024TIP3   OH272562   3.004   5.419   6.166  0.5011  0.1601 -0.5614
17024TIP3    H172563   3.068   5.486   6.189 -0.3828  0.6571  0.4947
17024TIP3    H272564   3.008   5.414   6.071  1.2575  1.0279 -0.5869
17025TIP3   OH272565   5.259   2.732   6.023 -0.0622  0.2602 -0.1059
17025TIP3    H172566   5.230   2.755   6.111 -0.6663  1.4951 -0.6197
17025TIP3    H272567   5.189   2.677   5.988  1.9689 -3.6987  1.6039
17026TIP3   OH272568   0.618   6.551   2.421 -0.1259 -0.2424 -0.1090
17026TIP3    H172569   0.533   6.573   2.459 -1.4694 -2.0116 -1.9880
17026TIP3    H272570   0.642   6.468   2.463  1.4165  0.9810  1.5074
17027TIP3   OH272571   2.358   5.673  15.652  0.4988 -0.2715 -0.0624
17027TIP3    H172572   2.404   5.721  15.584 -1.7076  1.0240 -0.7014
17027TIP3    H272573   2.344   5.737  15.722  0.4391 -0.8706  0.4774
17028TIP3   OH272574   2.879   2.933  11.182  0.1875  0.0789  0.5957
17028TIP3    H172575   2.903   2.841  11.170  2.1662  0.5940  0.4491
17028TIP3    H272576   2.937   2.981  11.123 -1.1127  1.4058  0.3540
17029TIP3   OH272577   1.089   2.962   1.337  0.5672 -0.0159 -0.6337
17029TIP3    H172578   1.083   2.880   1.386  2.9433  0.0391 -0.1507
17029TIP3    H272579   1.013   3.013   1.364 -0.0293 -1.4011  0.3313
17030TIP3   OH272580   0.046   2.110   3.139 -0.0933 -0.6047  0.4587
17030TIP3    H172581   0.095   2.152   3.209 -0.1384  1.4630 -0.7069
17030TIP3    H272582   0.005   2.034   3.180  2.0337 -0.9363  2.0168
17031TIP3   OH272583   0.102   1.620  16.831  0.3548  0.2545  0.2470
17031TIP3    H172584   0.167   1.644  16.766  0.5792  0.2022  0.4494
17031TIP3    H272585   0.027   1.588  16.780  0.3041  0.7711  0.0026
17032TIP3   OH272586   1.489   5.844   3.543 -0.0610  0.5436 -0.1472
17032TIP3    H172587   1.433   5.768   3.559  1.6766 -0.8342 -0.4551
17032TIP3    H272588   1.507   5.879   3.631 -1.4508  1.0621 -0.0492
17033TIP3   OH272589   5.715   6.006   5.535 -0.0797 -0.4400  0.1721
17033TIP3    H172590   5.736   6.040   5.448  0.4821 -1.8214 -0.2337
17033TIP3    H272591   5.733   5.912   5.530 -1.7118 -0.8346  1.2554
17034TIP3   OH272592   6.695   1.156   0.010  0.5351 -0.0045  0.1456
17034TIP3    H172593   6.698   1.122   0.100  0.7513 -0.3339  0.0152
17034TIP3    H272594   6.714   1.249   0.018  0.4130 -0.0072  0.4587
17035TIP3   OH272595   3.516   5.885  16.833  0.3495 -0.6860 -0.2045
17035TIP3    H172596   3.572   5.954  16.870 -1.3460  2.5811 -3.3648
17035TIP3    H272597   3.459   5.860  16.905 -1.0842  3.5566  0.2964
17036TIP3   OH272598   5.594   6.636  14.882 -0.0886 -0.6082  0.4147
17036TIP3    H172599   5.521   6.603  14.934 -1.0228 -0.2737 -0.6309
17036TIP3    H272600   5.574   6.607  14.793  1.0965 -0.5608  0.1310
17037TIP3   OH272601   6.074   4.904   5.350  0.5443 -0.8674 -0.4307
17037TIP3    H172602   6.076   4.810   5.367  0.3188 -0.8334 -0.2057
17037TIP3    H272603   6.028   4.913   5.267  1.0182 -0.9912 -0.7038
17038TIP3   OH272604   5.802   1.715   1.258 -0.6402  0.4256 -0.4164
17038TIP3    H172605   5.768   1.785   1.202 -0.6874 -0.0571 -0.9967
17038TIP3    H272606   5.785   1.744   1.347 -1.8619  0.5411 -0.6912
17039TIP3   OH272607   3.487   5.245   5.031  0.3375  0.1880 -0.1919
17039TIP3    H172608   3.582   5.255   5.017  0.9033 -0.5724  2.8631
17039TIP3    H272609   3.470   5.152   5.018  0.1513  0.1787  0.1216
17040TIP3   OH272610   5.147   3.348  15.205  0.8518  0.1914  0.0354
17040TIP3    H172611   5.101   3.316  15.282  0.3229  3.2517  1.0859
17040TIP3    H272612   5.101   3.309  15.131  0.9209 -2.2299  1.2464
17041TIP3   OH272613   4.112   4.328   3.405 -0.2624  0.0346  0.0711
17041TIP3    H172614   4.094   4.270   3.479 -0.4315  1.4534  1.1790
17041TIP3    H272615   4.058   4.293   3.334 -0.6064 -0.9700  0.8083
17042TIP3   OH272616   2.419   6.068  14.410  0.3330 -0.4206 -0.4719
17042TIP3    H172617   2.440   5.975  14.399 -0.0609 -0.7670  1.4371
17042TIP3    H272618   2.495   6.104  14.456 -1.2721 -0.7229  2.5150
17043TIP3   OH272619   2.171   5.746   2.472  0.3092 -0.1071  0.5907
17043TIP3    H172620   2.079   5.720   2.475 -0.0390  1.1230  0.8459
17043TIP3    H272621   2.211   5.703   2.547  0.0114 -0.9300  0.2747
17044TIP3   OH272622   3.581   6.235   2.198  0.4110 -0.2757  0.1418
17044TIP3    H172623   3.625   6.298   2.142  1.9560  0.4608  2.1223
17044TIP3    H272624   3.612   6.150   2.167  2.0344  0.1732  0.4899
17045TIP3   OH272625   3.823   1.729   4.777  0.4998 -0.3331  0.4217
17045TIP3    H172626   3.733   1.732   4.809 -0.5218  0.1506 -2.3487
17045TIP3    H272627   3.862   1.655   4.823 -1.1849 -0.3125  1.9529
17046TIP3   OH272628   4.195   0.430  14.607  0.1047 -0.0172  0.3012
17046TIP3    H172629   4.254   0.495  14.569  0.5184  0.0053  0.9785
17046TIP3    H272630   4.177   0.370  14.535  1.8750 -0.6773  0.3712
17047TIP3   OH272631   0.267   3.764  14.354 -0.3518  0.7494 -0.2601
17047TIP3    H172632   0.236   3.767  14.445 -3.1108 -1.4425 -1.0595
17047TIP3    H272633   0.356   3.729  14.361  0.4224  2.9464  1.7621
17048TIP3   OH272634   3.013   3.178  12.104  0.0930 -0.1110 -0.3121
17048TIP3    H172635   2.928   3.136  12.112 -0.7003  1.5011 -0.0866
17048TIP3    H272636   3.075   3.106  12.100 -1.1064 -1.2754  1.5303
17049TIP3   OH272637   4.395   4.835   5.898  0.5153  0.6317  0.1551
17049TIP3    H172638   4.329   4.874   5.841  0.7307  1.1967  0.2819
17049TIP3    H272639   4.361   4.749   5.920  0.8243  0.0617 -1.5157
17050TIP3   OH272640   3.367   2.763   0.299 -0.1095 -0.2045 -0.3104
17050TIP3    H172641   3.375   2.813   0.381  1.1296 -0.5386 -0.2322
17050TIP3    H272642   3.324   2.682   0.325  0.5692 -0.4464  0.0684
17051TIP3   OH272643   5.116   1.211   4.401 -0.5565  0.3069 -0.5454
17051TIP3    H172644   5.185   1.260   4.354 -1.1275  2.8818  1.2045
17051TIP3    H272645   5.148   1.207   4.491 -1.3184 -1.1511 -0.3355
17052TIP3   OH272646   1.386   0.713  15.839 -0.5287  0.0112 -0.1312
17052TIP3    H172647   1.375   0.777  15.910 -0.9006 -0.9188  0.6700
17052TIP3    H272648   1.333   0.638  15.867  0.6621 -1.0158 -0.5887
17053TIP3   OH272649   0.339   6.782   1.779  0.1142 -0.3339  0.6138
17053TIP3    H172650   0.377   6.870   1.773  1.2588 -0.8860 -0.3483
17053TIP3    H272651   0.248   6.793   1.751  1.0375  0.0263 -2.4248
17054TIP3   OH272652   5.678   5.733   0.149  0.2785  0.5491 -0.8741
17054TIP3    H172653   5.651   5.793   0.219 -0.3114  1.1280 -1.5880
17054TIP3    H272654   5.614   5.661   0.154  1.3137 -0.3157  0.3385
17055TIP3   OH272655   3.374   0.867   0.019 -0.0035  0.4885  0.3855
17055TIP3    H172656   3.370   0.943   0.077  2.1149  1.8308 -1.1449
17055TIP3    H272657   3.458   0.825   0.040 -0.5808 -0.7148  0.3402
17056TIP3   OH272658   2.146   5.071  16.521  0.7079  0.0023 -0.1120
17056TIP3    H172659   2.178   5.056  16.610 -0.6917  2.0649  0.7895
17056TIP3    H272660   2.119   4.985  16.490  1.1672 -0.7320  1.4733
17057TIP3   OH272661   0.872   4.148   0.660  0.4121 -0.1821 -0.1128
17057TIP3    H172662   0.801   4.122   0.602  0.5851  0.9857 -0.8666
17057TIP3    H272663   0.856   4.241   0.676  1.2723 -0.1243  0.4349
17058TIP3   OH272664   2.871   0.292   1.879 -0.2762 -0.5227  0.0305
17058TIP3    H172665   2.869   0.320   1.971  1.0261  1.1226 -0.4127
17058TIP3    H272666   2.786   0.316   1.845  0.7229  2.8143 -0.2692
17059TIP3   OH272667   3.710   4.504  17.152  0.2846  0.1680  0.0684
17059TIP3    H172668   3.668   4.514  17.237 -1.5148 -1.2029 -0.6384
17059TIP3    H272669   3.703   4.590  17.111 -0.3107  0.3887  0.6333
17060TIP3   OH272670   1.276   4.061  10.766  0.1141  0.3208  0.2848
17060TIP3    H172671   1.361   4.105  10.763  1.1232 -1.6307 -2.2149
17060TIP3    H272672   1.297   3.967  10.764 -2.0745 -0.1876 -1.7444
17061TIP3   OH272673   1.044   5.948  13.181 -0.0582  0.5991 -0.2455
17061TIP3    H172674   1.123   5.908  13.217 -1.7285 -0.8767  1.9758
17061TIP3    H272675   0.986   5.873  13.164 -2.0671  1.8397  0.9733
17062TIP3   OH272676   3.183   4.057  12.595  0.2922  0.0696 -0.5027
17062TIP3    H172677   3.261   4.113  12.602 -0.2448  0.7161  0.3392
17062TIP3    H272678   3.215   3.977  12.552  1.3295  0.5093 -0.5616
17063TIP3   OH272679   0.703   5.245  15.446 -0.6759  0.1011 -0.0686
17063TIP3    H172680   0.751   5.321  15.413 -0.8850  0.5294  0.6224
17063TIP3    H272681   0.645   5.220  15.374 -0.1442  0.1966 -0.5341
17064TIP3   OH272682   5.666   3.473  15.742  0.3656 -0.4293  0.0984
17064TIP3    H172683   5.636   3.507  15.658  0.6941 -0.4920 -0.0441
17064TIP3    H272684   5.591   3.484  15.800  0.4040  0.3444  0.0030
17065TIP3   OH272685   3.187   3.382   1.663  0.4227  0.7738 -0.3092
17065TIP3    H172686   3.244   3.437   1.717 -1.1631  0.7290  1.4722
17065TIP3    H272687   3.126   3.341   1.726 -0.5034 -0.4728 -1.9625
17066TIP3   OH272688   0.079   3.816   1.860 -0.3244 -0.2640  0.4530
17066TIP3    H172689   0.023   3.869   1.916 -0.3789 -0.5746  0.6910
17066TIP3    H272690   0.167   3.852   1.873 -0.1519 -1.1221  1.6680
17067TIP3   OH272691   6.733   2.161   1.046  0.0284  0.0868  0.3936
17067TIP3    H172692   6.638   2.172   1.052 -0.0159 -0.5152  0.7413
17067TIP3    H272693   6.769   2.235   1.096 -0.2442  0.6251 -0.1923
17068TIP3   OH272694   5.286   5.489  15.879 -0.2530  0.3422  0.2351
17068TIP3    H172695   5.362   5.467  15.933 -0.2394 -0.3615 -0.0594
17068TIP3    H272696   5.277   5.584  15.888  0.2969  0.3527  0.7488
17069TIP3   OH272697   3.181   1.644  14.489 -0.2191  0.0279  0.5041
17069TIP3    H172698   3.264   1.657  14.535  0.2267  1.9720 -0.7869
17069TIP3    H272699   3.198   1.574  14.426  0.2894  0.0716  0.5916
17070TIP3   OH272700   0.362   3.419   4.631 -0.2366  0.1213  0.0585
17070TIP3    H172701   0.413   3.347   4.666  2.2131  1.5698 -0.4350
17070TIP3    H272702   0.298   3.440   4.699  0.1606 -1.3759  0.8935
17071TIP3   OH272703   0.959   3.841   1.189 -0.0106 -0.3550 -0.5961
17071TIP3    H172704   1.050   3.837   1.219 -0.4616  1.3823  1.1441
17071TIP3    H272705   0.951   3.772   1.124  2.1930 -1.4094  0.2331
17072TIP3   OH272706   0.708   4.902  12.274  0.6174 -0.2057  0.5665
17072TIP3    H172707   0.739   4.991  12.287  0.2246  0.2904 -1.5690
17072TIP3    H272708   0.643   4.888  12.342 -1.7752  2.3752 -1.0948
17073TIP3   OH272709   0.050   2.855  14.513 -0.4635 -0.1016 -0.1990
17073TIP3    H172710   0.134   2.831  14.474 -0.2898 -0.5058  0.4196
17073TIP3    H272711  -0.015   2.833  14.446  0.0441  1.8411 -1.3840
17074TIP3   OH272712   6.007   2.414   2.871  0.1668 -0.1378  0.1012
17074TIP3    H172713   5.996   2.505   2.900 -0.3868 -0.0324 -0.4165
17074TIP3    H272714   5.929   2.397   2.817  1.2610 -0.2787 -1.4511
17075TIP3   OH272715   6.179   3.703  15.428  0.5308 -0.8037  0.2495
17075TIP3    H172716   6.237   3.637  15.390  0.3343 -0.0406 -1.3946
17075TIP3    H272717   6.100   3.699  15.375  0.1971  0.1836  0.6602
17076TIP3   OH272718   0.471   5.314   2.029 -0.0151  0.3700 -0.4109
17076TIP3    H172719   0.524   5.391   2.007 -0.4111  1.7703  3.1132
17076TIP3    H272720   0.533   5.241   2.027  1.3194  1.4625  0.2919
17077TIP3   OH272721   4.003   5.998   3.132  0.1359  0.1435  0.1987
17077TIP3    H172722   4.026   6.051   3.056  0.7398  0.2240  0.4332
17077TIP3    H272723   3.911   5.973   3.118 -0.2571  1.5130  0.2297
17078TIP3   OH272724   0.189   0.519  11.918  0.8435  0.5479 -0.0715
17078TIP3    H172725   0.230   0.540  11.834 -1.5254 -0.3418 -1.4920
17078TIP3    H272726   0.153   0.431  11.905 -0.4125  0.8130  1.5654
17079TIP3   OH272727   2.009   6.589   3.928 -0.2183  0.6800 -0.0692
17079TIP3    H172728   2.007   6.496   3.904  1.4559  0.6542 -0.1508
17079TIP3    H272729   1.919   6.619   3.913 -1.2393 -1.3369  1.6404
17080TIP3   OH272730   4.426   4.439  14.310 -0.1423 -0.5337  0.4193
17080TIP3    H172731   4.410   4.352  14.274 -0.8839 -0.0546 -0.4546
17080TIP3    H272732   4.463   4.488  14.237 -0.6417  0.1503  0.6133
17081TIP3   OH272733   4.334   3.068  17.178  0.1231  0.4583  0.2266
17081TIP3    H172734   4.381   2.999  17.130 -1.9298 -0.4108 -0.5799
17081TIP3    H272735   4.262   3.023  17.221 -1.2543  2.1040 -0.3119
17082TIP3   OH272736   0.992   6.062   0.099 -0.2410 -0.0625  0.7309
17082TIP3    H172737   1.063   6.072   0.035 -0.7439  0.1740  0.2085
17082TIP3    H272738   0.914   6.095   0.055 -1.1215 -2.3117  0.5093
17083TIP3   OH272739   4.436   4.280  16.226 -0.2736 -0.7809 -0.3264
17083TIP3    H172740   4.416   4.194  16.263  0.2649  0.2900  2.6249
17083TIP3    H272741   4.517   4.267  16.177 -0.7484 -2.1632 -0.7552
17084TIP3   OH272742   4.257   3.889   3.967 -0.2447  0.2154  0.1094
17084TIP3    H172743   4.272   3.827   4.038 -1.8619  0.2742  0.5195
17084TIP3    H272744   4.204   3.958   4.006 -1.2298  0.2036 -1.1770
17085TIP3   OH272745   2.485   0.816  17.146  0.4086  0.2307 -0.7004
17085TIP3    H172746   2.416   0.836  17.083  0.2026  1.3437 -0.1400
17085TIP3    H272747   2.491   0.894  17.201  2.5823  0.4481 -1.1689
17086TIP3   OH272748   0.887   2.805   5.108 -0.2876  0.4850 -0.2543
17086TIP3    H172749   0.805   2.759   5.089 -0.9303  0.9388  1.3615
17086TIP3    H272750   0.954   2.752   5.064 -1.5016  0.5149 -2.2306
17087TIP3   OH272751   1.752   0.909  12.511 -0.0727 -0.3824 -0.6690
17087TIP3    H172752   1.837   0.869  12.527 -0.2780 -0.4443  0.2881
17087TIP3    H272753   1.762   0.956  12.428  1.2021  0.4937 -0.0208
17088TIP3   OH272754   5.592   3.197  15.643  0.0656  0.4276 -0.5517
17088TIP3    H172755   5.547   3.224  15.563 -0.2108  1.1881 -0.1424
17088TIP3    H272756   5.616   3.279  15.686  1.2115  0.0283 -0.4110
17089TIP3   OH272757   3.401   4.915   2.385  0.8353 -0.7984 -0.5415
17089TIP3    H172758   3.425   4.831   2.347  1.7289 -0.5708 -0.4977
17089TIP3    H272759   3.306   4.911   2.395  0.9066 -1.8957 -0.2980
17090TIP3   OH272760   2.048   6.297  17.179  0.6505  0.6387 -0.8841
17090TIP3    H172761   2.021   6.230  17.116 -0.5139 -0.6588  0.9716
17090TIP3    H272762   1.966   6.329  17.217  1.3973  0.5380  0.8439
17091TIP3   OH272763   0.325   5.999  12.749 -0.2705  0.1043 -0.5693
17091TIP3    H172764   0.328   5.932  12.681 -2.0428 -0.2579 -0.3178
17091TIP3    H272765   0.373   6.073  12.713  0.1605 -0.6518 -1.5677
17092TIP3   OH272766   2.316   3.179   0.558 -0.7199  0.1619  0.0127
17092TIP3    H172767   2.271   3.210   0.479 -0.4831 -1.3200 -0.7326
17092TIP3    H272768   2.246   3.154   0.618 -0.9001  0.5524 -0.0370
17093TIP3   OH272769   6.050   5.033  15.693  0.1742 -0.1180  0.3929
17093TIP3    H172770   5.984   4.990  15.639  1.6182 -0.1841 -1.3666
17093TIP3    H272771   6.132   4.990  15.669  0.8874  0.0575  2.4420
17094TIP3   OH272772   4.186   4.220   5.392  0.4334 -0.5651 -0.2686
17094TIP3    H172773   4.184   4.131   5.356 -2.8149 -0.6765  0.0631
17094TIP3    H272774   4.196   4.208   5.486 -0.4382 -0.6187 -0.1769
17095TIP3   OH272775   0.934   1.126  16.759  0.2503  0.0051 -0.3351
17095TIP3    H172776   0.878   1.120  16.682  0.2407  0.5698 -0.3698
17095TIP3    H272777   1.022   1.137  16.724  0.3260 -0.3869 -0.2729
17096TIP3   OH272778   5.468   1.244  16.628  0.6025 -0.1851 -0.4244
17096TIP3    H172779   5.486   1.246  16.534  0.3892  1.0121 -0.4554
17096TIP3    H272780   5.483   1.335  16.657  2.4319 -0.9087  1.0371
17097TIP3   OH272781   1.853   5.542   2.777  0.0015 -0.5176 -0.0733
17097TIP3    H172782   1.848   5.609   2.845 -0.0039 -3.0917  2.5474
17097TIP3    H272783   1.924   5.485   2.805 -1.2246 -2.6757 -1.2612
17098TIP3   OH272784   0.767   2.937  11.073 -0.9679  0.0642 -0.2670
17098TIP3    H172785   0.677   2.958  11.101 -1.5245 -0.8838 -1.3074
17098TIP3    H272786   0.756   2.882  10.995  0.5136 -0.4606 -0.1243
17099TIP3   OH272787   5.482   6.061  13.235 -0.5189 -0.4408 -0.3525
17099TIP3    H172788   5.465   6.045  13.327  0.5022 -1.6808 -0.3805
17099TIP3    H272789   5.524   5.981  13.203 -1.0314 -0.0994 -1.9332
17100TIP3   OH272790   3.547   1.835  14.351 -0.0813  0.2529 -0.2934
17100TIP3    H172791   3.545   1.747  14.389  0.6974 -0.6598 -2.3110
17100TIP3    H272792   3.565   1.892  14.425  0.5485 -1.3980  0.8697
17101TIP3   OH272793   6.637   0.254   1.845  0.3725  0.0191 -0.6425
17101TIP3    H172794   6.614   0.310   1.918  1.9758 -0.0796 -0.0498
17101TIP3    H272795   6.721   0.215   1.869 -0.0525 -1.5946 -1.6319
17102TIP3   OH272796   3.449   4.440   5.022  0.4742  0.4108 -0.2099
17102TIP3    H172797   3.420   4.511   4.964 -0.2294 -1.1714 -1.8388
17102TIP3    H272798   3.504   4.483   5.087  1.0526  2.2897 -1.8838
17103TIP3   OH272799   6.070   0.663   1.969 -0.1420  0.0064  0.4753
17103TIP3    H172800   6.002   0.702   1.914 -0.3687 -0.2009  0.6057
17103TIP3    H272801   6.114   0.737   2.009  1.0744  0.2384 -1.2167
17104TIP3   OH272802   3.808   1.134  12.048 -0.1646  0.0797  0.8517
17104TIP3    H172803   3.776   1.187  11.975  0.2946  0.0951  0.6621
17104TIP3    H272804   3.730   1.088  12.080 -0.2070 -0.6331 -0.2351
17105TIP3   OH272805   3.254   1.406   3.855  0.3461  1.0050 -0.0445
17105TIP3    H172806   3.281   1.420   3.764  0.2228 -0.4392 -0.3263
17105TIP3    H272807   3.319   1.453   3.907 -0.1085  2.6217 -0.8978
17106TIP3   OH272808   0.669   6.437   2.874  0.0756  0.4881  0.2226
17106TIP3    H172809   0.725   6.468   2.802  1.2531  0.8203  1.2684
17106TIP3    H272810   0.645   6.348   2.849  0.3875  0.6424 -0.6465
17107TIP3   OH272811   4.216   5.765  15.401 -0.1206  0.3087 -0.5399
17107TIP3    H172812   4.286   5.796  15.344 -0.9810  0.5594 -1.4685
17107TIP3    H272813   4.239   5.674  15.420  0.5000  0.4164 -0.7668
17108TIP3   OH272814   4.397   6.209   6.010  0.0652 -0.0816 -0.4554
17108TIP3    H172815   4.417   6.230   5.918 -2.5749 -0.7022 -1.2118
17108TIP3    H272816   4.358   6.122   6.006 -0.1625 -0.0681  1.2764
17109TIP3   OH272817   6.668   0.737  14.579  0.0068 -0.5258  0.1735
17109TIP3    H172818   6.710   0.740  14.665  1.2065  0.8742 -0.4344
17109TIP3    H272819   6.724   0.679  14.527 -1.2653 -2.1626  0.6021
17110TIP3   OH272820   6.381   0.974   5.674 -0.0533  0.3966 -0.1121
17110TIP3    H172821   6.308   1.024   5.639  0.3085 -0.6271 -2.4515
17110TIP3    H272822   6.456   1.001   5.620  0.6297 -0.8795  0.1872
17111TIP3   OH272823   1.833   2.959  14.330 -0.0880 -0.9376 -0.8216
17111TIP3    H172824   1.827   2.972  14.235 -1.5942  2.8722 -0.2949
17111TIP3    H272825   1.743   2.971  14.361  1.1502  2.5922  1.5671
17112TIP3   OH272826   1.070   2.038  15.761 -0.3654  0.4507  0.3584
17112TIP3    H172827   1.159   2.004  15.770 -0.2270  0.4943 -0.7723
17112TIP3    H272828   1.015   1.972  15.803 -0.0814 -1.1164 -1.6284
17113TIP3   OH272829   1.599   1.619   3.188 -0.3000 -0.0256 -0.3035
17113TIP3    H172830   1.671   1.682   3.185 -0.1427 -0.2061 -0.3415
17113TIP3    H272831   1.557   1.635   3.273 -0.3703  0.2488 -0.3881
17114TIP3   OH272832   0.537   0.726   4.917  0.3542 -0.1606  0.7972
17114TIP3    H172833   0.463   0.707   4.975  0.3260  0.9186  1.1179
17114TIP3    H272834   0.513   0.684   4.835 -0.2134 -0.5796  1.1661
17115TIP3   OH272835   0.101   1.609  12.900 -0.2282 -0.4120 -0.3638
17115TIP3    H172836   0.112   1.628  12.807  0.0725 -1.4922 -0.5607
17115TIP3    H272837   0.105   1.513  12.905 -0.5854 -0.3728  0.7150
17116TIP3   OH272838   1.548   2.801  16.378  1.0818 -0.3304 -0.0304
17116TIP3    H172839   1.545   2.890  16.413  0.2157 -1.2801  2.4749
17116TIP3    H272840   1.460   2.784  16.346  1.1207 -0.4349 -0.0837
17117TIP3   OH272841   4.345   6.223   2.498 -0.2455 -0.5904  0.5717
17117TIP3    H172842   4.401   6.258   2.428  1.3199  1.6882  2.8941
17117TIP3    H272843   4.335   6.130   2.476  2.3966 -0.5003 -1.2655
17118TIP3   OH272844   2.557   3.179  14.212  0.1943  0.0565 -0.0771
17118TIP3    H172845   2.566   3.127  14.291  0.8297  0.2036 -0.0514
17118TIP3    H272846   2.487   3.136  14.163  0.7267 -0.8376 -0.0634
17119TIP3   OH272847   0.726   4.115   4.744 -0.3359 -0.3102 -0.1769
17119TIP3    H172848   0.745   4.168   4.667 -1.0638 -2.5844 -1.9958
17119TIP3    H272849   0.802   4.127   4.801  0.0331  1.7173 -1.0627
17120TIP3   OH272850   1.748   4.386  15.269  0.6630  0.7542 -0.2867
17120TIP3    H172851   1.784   4.353  15.186  1.3815 -1.0219  0.7106
17120TIP3    H272852   1.656   4.405  15.249  0.3980 -1.2514 -1.0855
17121TIP3   OH272853   5.544   1.486   1.178 -0.1077  0.0993 -0.4578
17121TIP3    H172854   5.554   1.462   1.270 -1.8863 -0.8851 -0.4796
17121TIP3    H272855   5.601   1.425   1.131  0.2064  0.0888 -0.0654
17122TIP3   OH272856   5.176   2.983  17.036  0.1502  0.8879  0.1174
17122TIP3    H172857   5.192   3.030  17.118 -1.6412  0.7625  0.5679
17122TIP3    H272858   5.089   2.945  17.047  0.5339 -0.4396 -1.2421
17123TIP3   OH272859   1.264   0.739   1.405  0.1473  0.2031  0.5352
17123TIP3    H172860   1.245   0.818   1.356  2.6311 -0.4715 -1.6513
17123TIP3    H272861   1.252   0.763   1.497 -3.2879  1.8655 -0.2921
17124TIP3   OH272862   4.484   2.020  15.087  0.4163  0.5936 -0.2266
17124TIP3    H172863   4.440   2.104  15.071 -0.6391  0.0223 -0.3058
17124TIP3    H272864   4.416   1.954  15.077  1.6929 -0.4727 -2.3247
17125TIP3   OH272865   5.142   1.468   5.963 -0.3033  0.9597 -0.1845
17125TIP3    H172866   5.111   1.503   5.881  0.0165  1.5391 -0.0588
17125TIP3    H272867   5.115   1.376   5.962  3.1766 -0.1477 -2.7433
17126TIP3   OH272868   2.744   1.220   0.767 -0.2897 -0.8794 -0.1844
17126TIP3    H172869   2.735   1.176   0.683  3.1945  0.3786 -1.3128
17126TIP3    H272870   2.666   1.275   0.773 -0.8611 -1.3816 -2.3431
17127TIP3   OH272871   2.927   3.296  12.397  0.0317  0.1275  0.3353
17127TIP3    H172872   2.835   3.270  12.397 -0.2663  1.1298  0.5368
17127TIP3    H272873   2.970   3.234  12.338 -0.0578 -2.6748  3.1099
17128TIP3   OH272874   1.481   4.852  12.079 -0.4385 -0.2370  0.4132
17128TIP3    H172875   1.426   4.868  12.002  0.8684  0.5034 -0.3928
17128TIP3    H272876   1.570   4.850  12.044  0.3115  1.6604  2.1158
17129TIP3   OH272877   2.193   5.010   4.294 -0.3552 -0.5788 -0.4937
17129TIP3    H172878   2.198   5.069   4.219  0.1369  0.1447  0.1082
17129TIP3    H272879   2.210   4.923   4.257  1.9741  0.0171 -0.8935
17130TIP3   OH272880   2.190   6.645   4.144 -0.3313 -0.4490 -0.5863
17130TIP3    H172881   2.149   6.610   4.065  0.6584 -1.1369 -0.7972
17130TIP3    H272882   2.253   6.709   4.112 -3.1938  2.7780 -0.1623
17131TIP3   OH272883   5.750   6.754   0.888 -0.1842 -0.2397  0.1450
17131TIP3    H172884   5.771   6.814   0.816  0.6991 -0.8919 -0.1507
17131TIP3    H272885   5.654   6.750   0.889 -0.2852  1.7157  0.6225
17132TIP3   OH272886   1.153   3.523  16.293  0.0938 -0.5690  0.7524
17132TIP3    H172887   1.072   3.524  16.242  1.2281  1.7494 -1.1111
17132TIP3    H272888   1.172   3.430  16.307 -1.0393 -1.2151 -1.7781
17133TIP3   OH272889   5.317   6.814  14.994  0.2609  0.0698 -0.3428
17133TIP3    H172890   5.329   6.742  14.932  2.0405  0.7540 -0.8039
17133TIP3    H272891   5.400   6.861  14.993  0.1736  0.3160  2.2866
17134TIP3   OH272892   3.562   4.912  11.031  0.1228  0.7759  0.7281
17134TIP3    H172893   3.497   4.981  11.020  0.2495  1.2458  2.7797
17134TIP3    H272894   3.633   4.937  10.970 -0.5397  1.5665  0.2664
17135TIP3   OH272895   3.308   3.750  16.861  0.3994  0.0204 -0.1784
17135TIP3    H172896   3.368   3.679  16.839  1.5338  0.0448  2.6745
17135TIP3    H272897   3.361   3.830  16.854 -0.1268  0.3370 -0.6347
17136TIP3   OH272898   6.725   5.570   6.117  0.4075 -0.5110  0.1966
17136TIP3    H172899   6.770   5.519   6.050  0.0728 -0.3413 -0.1553
17136TIP3    H272900   6.795   5.610   6.168  0.6858 -1.6534  0.7269
17137TIP3   OH272901   1.736   2.692   3.090 -0.8760 -0.6977  0.4670
17137TIP3    H172902   1.752   2.784   3.111  1.2210 -1.3330  1.8472
17137TIP3    H272903   1.696   2.657   3.170 -0.2228 -1.3235  0.5221
17138TIP3   OH272904   6.367   1.768  14.035  0.3406  0.1998 -0.3282
17138TIP3    H172905   6.370   1.707  14.108 -1.0481 -0.9372 -1.1978
17138TIP3    H272906   6.312   1.841  14.065 -1.1344 -0.7829 -0.6131
17139TIP3   OH272907   1.016   5.998   3.354 -0.0821  0.6076 -0.4050
17139TIP3    H172908   1.077   5.988   3.280 -0.5782  1.2597 -0.9085
17139TIP3    H272909   1.073   6.010   3.430  0.5201 -2.9742 -0.1833
17140TIP3   OH272910   4.885   2.374  10.654  0.2693  0.0275 -0.3579
17140TIP3    H172911   4.825   2.348  10.724  2.1938  1.1781  1.8079
17140TIP3    H272912   4.961   2.411  10.700  2.4276 -0.9168 -2.9971
17141TIP3   OH272913   6.705   4.478  10.792 -0.2149 -0.0502  0.1604
17141TIP3    H172914   6.767   4.539  10.832 -0.8923 -1.6069  3.8518
17141TIP3    H272915   6.748   4.392  10.798 -2.3047 -1.0288  2.0415
17142TIP3   OH272916   5.479   5.672  12.598 -0.5508  0.0165  0.7061
17142TIP3    H172917   5.519   5.602  12.649 -0.5206 -1.4899 -1.3227
17142TIP3    H272918   5.471   5.745  12.660 -0.5318 -1.7348  2.8328
17143TIP3   OH272919   2.352   2.779  17.034  0.5467  0.6601 -0.0776
17143TIP3    H172920   2.411   2.708  17.061 -1.1975 -0.7900 -0.0472
17143TIP3    H272921   2.410   2.842  16.989  1.9739 -1.1647 -0.8445
17144TIP3   OH272922   5.998   3.237  16.040  0.3940 -0.3010  0.0015
17144TIP3    H172923   5.922   3.256  16.095  1.1674 -0.1265  1.0248
17144TIP3    H272924   5.961   3.204  15.958 -0.7613 -0.9866  0.7878
17145TIP3   OH272925   5.669   1.649   0.461  0.1222  0.3643 -0.0550
17145TIP3    H172926   5.757   1.667   0.494  0.7710 -1.2566 -0.8559
17145TIP3    H272927   5.611   1.679   0.531  1.3947 -0.5835  1.4537
17146TIP3   OH272928   3.626   4.461  14.640 -0.1711 -0.5875  0.2448
17146TIP3    H172929   3.613   4.366  14.641 -0.8424 -0.4962  0.1911
17146TIP3    H272930   3.713   4.472  14.602 -0.6562 -1.1169 -1.0401
17147TIP3   OH272931   0.647   2.644  15.741  0.0149 -0.3038  0.8607
17147TIP3    H172932   0.659   2.550  15.730  0.0822 -0.2947  0.8543
17147TIP3    H272933   0.581   2.652  15.810 -3.1258 -0.4221 -2.0021
17148TIP3   OH272934   6.523   4.528  11.692 -0.8323 -0.5180 -0.3175
17148TIP3    H172935   6.569   4.448  11.666  1.9682  1.3642 -1.3668
17148TIP3    H272936   6.449   4.534  11.631  0.2764 -1.0817 -1.7493
17149TIP3   OH272937   3.659   1.681   4.159  0.6287  0.2269 -0.2615
17149TIP3    H172938   3.607   1.655   4.083  0.5079 -0.2587 -0.0144
17149TIP3    H272939   3.636   1.772   4.174 -0.9360 -0.2715  0.4738
17150TIP3   OH272940   6.716   5.338   3.424  0.4183  0.3314 -0.1848
17150TIP3    H172941   6.753   5.398   3.359 -1.2175  1.3728 -0.1726
17150TIP3    H272942   6.622   5.344   3.412  0.0976  0.1946  1.9801
17151TIP3   OH272943   0.462   6.121   4.138 -0.3263  0.3698  0.2216
17151TIP3    H172944   0.542   6.145   4.185  1.5472 -0.8880 -2.2176
17151TIP3    H272945   0.462   6.025   4.136 -1.4058  0.3707 -0.6086
17152TIP3   OH272946   3.316   4.800  11.737  0.3600 -1.0189 -0.3747
17152TIP3    H172947   3.371   4.787  11.659  0.8016  0.6593 -0.3574
17152TIP3    H272948   3.227   4.783  11.706  0.9102 -4.4868 -0.2310
17153TIP3   OH272949   5.078   4.887   3.793  0.2158 -0.1775  0.1908
17153TIP3    H172950   5.113   4.951   3.731 -0.1802  0.2942  0.4564
17153TIP3    H272951   5.153   4.863   3.848  0.7717 -1.2357 -1.0144
17154TIP3   OH272952   5.433   2.501  13.551  0.3152  0.5884 -0.6862
17154TIP3    H172953   5.346   2.463  13.545  0.7591 -0.3554 -1.3391
17154TIP3    H272954   5.421   2.582  13.600 -0.8204  0.1465 -0.2248
17155TIP3   OH272955   4.149   1.777   4.612 -0.5030  0.0709 -0.5532
17155TIP3    H172956   4.173   1.857   4.659  0.9527  0.2914 -1.6293
17155TIP3    H272957   4.227   1.723   4.615 -1.1176 -0.8398 -0.8035
17156TIP3   OH272958   2.394   4.940   1.533 -0.1844  0.5625  0.2303
17156TIP3    H172959   2.387   5.028   1.571  1.5247 -0.1503  2.3275
17156TIP3    H272960   2.461   4.949   1.465  0.6769  0.7057  1.0814
17157TIP3   OH272961   4.677   4.178  11.788  0.0276  0.5043  0.1532
17157TIP3    H172962   4.731   4.150  11.714  0.1228 -2.1577  1.1850
17157TIP3    H272963   4.709   4.266  11.808  1.4003  0.4607 -1.6582
17158TIP3   OH272964   3.261   5.926  10.786  0.0882 -0.0922  0.1593
17158TIP3    H172965   3.187   5.960  10.837 -1.2797  0.4782 -2.1453
17158TIP3    H272966   3.281   5.842  10.826  0.3128  1.1684  2.8504
17159TIP3   OH272967   1.484   6.736  14.078  0.1837 -0.2008 -0.3734
17159TIP3    H172968   1.431   6.754  14.155 -0.4857  1.2701 -1.1560
17159TIP3    H272969   1.552   6.804  14.079  0.8874 -0.8937 -0.4367
17160TIP3   OH272970   5.023   5.107   2.348  0.3828 -0.2070 -0.3849
17160TIP3    H172971   4.942   5.153   2.325 -0.3375 -0.1942  1.9771
17160TIP3    H272972   5.088   5.176   2.359 -0.0866  0.0583  0.7728
17161TIP3   OH272973   4.881   3.727  12.859 -0.1011 -0.6072  0.2187
17161TIP3    H172974   4.886   3.819  12.834  0.6121 -0.5891  0.4204
17161TIP3    H272975   4.966   3.708  12.900  0.0335 -1.5364 -0.4514
17162TIP3   OH272976   1.805   0.192  13.126 -0.1003  0.5670  0.1425
17162TIP3    H172977   1.742   0.130  13.163  0.4830  0.2068  0.5462
17162TIP3    H272978   1.756   0.239  13.059 -1.3783  1.7877  1.9115
17163TIP3   OH272979   1.764   0.560  14.485 -0.0893 -0.5012 -0.1386
17163TIP3    H172980   1.698   0.543  14.417 -0.2824 -0.3866  0.0183
17163TIP3    H272981   1.835   0.499  14.465  1.1909  1.6227 -2.2210
17164TIP3   OH272982   4.720   5.053   2.267  0.0564  0.5677  0.3478
17164TIP3    H172983   4.676   5.112   2.328 -3.2487 -0.9711 -0.4533
17164TIP3    H272984   4.745   4.977   2.321  2.4291  1.7385  0.9452
17165TIP3   OH272985   5.055   2.019   3.906  0.2305 -0.4751  0.3487
17165TIP3    H172986   5.115   2.014   3.832 -1.2066 -1.2959 -0.7980
17165TIP3    H272987   4.994   1.947   3.892 -1.1040  0.4219  1.4008
17166TIP3   OH272988   1.565   1.650   0.229 -0.4610 -0.1476  0.6108
17166TIP3    H172989   1.611   1.731   0.252 -0.0580  0.0646 -0.9014
17166TIP3    H272990   1.613   1.581   0.275 -0.5710  0.4100  1.5930
17167TIP3   OH272991   3.392   6.613  14.498 -0.3630  0.2958  0.2238
17167TIP3    H172992   3.350   6.674  14.437  0.4673  0.8269  0.1676
17167TIP3    H272993   3.482   6.645  14.504  0.9862 -2.7530 -2.2637
17168TIP3   OH272994   0.288   3.907  13.016  0.3127  0.3277 -0.0391
17168TIP3    H172995   0.207   3.952  13.042  1.7738  2.4056  1.0609
17168TIP3    H272996   0.334   3.892  13.099  1.0482 -0.8689 -0.6538
17169TIP3   OH272997   3.789   6.745  16.381  0.1801 -0.2266  0.3128
17169TIP3    H172998   3.875   6.727  16.418  0.5514 -0.3994 -0.6016
17169TIP3    H272999   3.778   6.678  16.313 -0.1675  0.5098 -0.3735
17170TIP3   OH273000   4.061   0.509   6.551  0.2483  0.1031  0.1181
17170TIP3    H173001   4.093   0.461   6.628  0.4064  0.4857  0.2891
17170TIP3    H273002   4.129   0.498   6.486 -0.6441 -1.6882 -0.5688
17171TIP3   OH273003   4.239   0.588  13.544  0.2966  0.1042 -0.5392
17171TIP3    H173004   4.312   0.567  13.487  1.2152  0.4122  0.5008
17171TIP3    H273005   4.276   0.586  13.633 -0.7815  0.9523 -0.0522
17172TIP3   OH273006   4.946   6.687  11.847 -0.6589 -0.1316 -0.5132
17172TIP3    H173007   4.993   6.741  11.911 -2.5081 -0.7018  1.4036
17172TIP3    H273008   4.961   6.597  11.878 -2.4013 -0.3518 -0.2836
17173TIP3   OH273009   5.713   5.087   0.469 -0.1758 -0.1521  0.1237
17173TIP3    H173010   5.740   5.051   0.553 -0.9121  0.1577  0.4968
17173TIP3    H273011   5.730   5.017   0.406 -0.6283 -0.7741  0.6892
17174TIP3   OH273012   0.975   0.128  13.424  0.3751  0.2262 -0.6647
17174TIP3    H173013   1.009   0.112  13.336  1.1123  0.8714 -0.5008
17174TIP3    H273014   1.050   0.161  13.473 -0.5510  1.9604 -0.3710
17175TIP3   OH273015   0.642   3.677  11.670  0.4271  0.1544 -0.3702
17175TIP3    H173016   0.578   3.744  11.645  1.4514  1.5285  0.6333
17175TIP3    H273017   0.673   3.642  11.587 -0.9464  0.1151 -0.8840
17176TIP3   OH273018   2.144   4.533   5.747  0.0131 -0.0297  0.1778
17176TIP3    H173019   2.184   4.492   5.823  1.1775  0.2124 -0.2907
17176TIP3    H273020   2.114   4.460   5.693  3.0053 -0.3536 -1.1469
17177TIP3   OH273021   3.400   5.963  14.859 -0.3784 -0.2937 -0.6985
17177TIP3    H173022   3.463   6.035  14.855 -1.8016  0.9263 -1.1256
17177TIP3    H273023   3.351   5.978  14.940 -1.6622  0.0487 -1.5333
17178TIP3   OH273024   3.148   4.349  15.625 -0.1604  0.1675  0.2347
17178TIP3    H173025   3.113   4.407  15.557  0.1167  1.5765  1.2758
17178TIP3    H273026   3.230   4.390  15.651 -0.1366 -0.5089  1.2272
17179TIP3   OH273027   3.025   4.956  14.704 -0.6538  0.1893  0.2542
17179TIP3    H173028   3.021   5.051  14.696  1.6724  0.4717  1.7948
17179TIP3    H273029   3.091   4.941  14.772  0.1634 -2.5558 -1.0822
17180TIP3   OH273030   6.110   0.132   3.533 -0.0484  0.0364  0.4564
17180TIP3    H173031   6.174   0.196   3.565  0.7403 -0.3756 -0.2688
17180TIP3    H273032   6.075   0.172   3.453 -1.0453  0.4716  1.1053
17181TIP3   OH273033   0.515   4.591   1.015 -0.2895  0.3902  0.4358
17181TIP3    H173034   0.470   4.578   0.931 -0.4697 -0.3674  0.6504
17181TIP3    H273035   0.511   4.685   1.029 -0.1887  0.5343 -0.4509
17182TIP3   OH273036   1.232   2.621  16.946 -0.1633 -0.6431 -0.2854
17182TIP3    H173037   1.187   2.680  17.006 -0.2577 -0.9644 -0.0391
17182TIP3    H273038   1.162   2.582  16.893 -0.5203 -3.4048  2.0862
17183TIP3   OH273039   5.079   2.969  11.762  0.2960 -0.6349  0.0867
17183TIP3    H173040   5.123   3.016  11.691  0.7241 -1.2972 -0.0920
17183TIP3    H273041   5.039   3.038  11.815  0.3658 -0.1098 -0.5388
17184TIP3   OH273042   2.906   5.078   2.805 -0.3636  0.3557 -0.3982
17184TIP3    H173043   2.823   5.030   2.798 -0.3722  0.1870  0.7735
17184TIP3    H273044   2.902   5.120   2.891  1.1307 -0.3415  0.0200
17185TIP3   OH273045   4.904   1.808   4.876  0.1728  0.5562  0.0917
17185TIP3    H173046   4.882   1.866   4.804 -0.9614  0.4094  0.3150
17185TIP3    H273047   4.820   1.781   4.912  0.7157  0.4384  1.3165
17186TIP3   OH273048   2.389   2.119  16.559  0.2784  0.1199 -0.1896
17186TIP3    H173049   2.413   2.122  16.652 -0.6192 -2.1689  0.1325
17186TIP3    H273050   2.308   2.169  16.553 -0.8554 -1.6045  0.6493
17187TIP3   OH273051   5.094   1.004  15.064  0.2030 -0.0749  0.2076
17187TIP3    H173052   5.130   0.926  15.021 -0.8765 -0.6655  0.3555
17187TIP3    H273053   5.143   1.077  15.026 -0.8106 -0.5715 -2.1404
17188TIP3   OH273054   5.162   6.514   0.641  0.3984  0.6773  0.1880
17188TIP3    H173055   5.255   6.512   0.662  0.4780  1.0011 -0.1380
17188TIP3    H273056   5.132   6.600   0.670  0.3585  0.8549 -0.3801
17189TIP3   OH273057   4.955   5.847  12.650 -0.1903  0.2766 -0.2565
17189TIP3    H173058   4.937   5.936  12.623 -0.0080  0.1144 -0.9102
17189TIP3    H273059   4.970   5.799  12.569 -0.7958 -0.4620  0.0611
17190TIP3   OH273060   2.807   3.725  11.369  0.8648  0.5041 -0.1567
17190TIP3    H173061   2.781   3.805  11.415 -1.0835  1.0015 -2.0329
17190TIP3    H273062   2.852   3.756  11.290  0.0418 -0.2394 -0.9295
17191TIP3   OH273063   3.668   2.795   0.611  0.3553  0.1200 -0.4273
17191TIP3    H173064   3.762   2.807   0.620  0.2388  1.1395 -0.4630
17191TIP3    H273065   3.657   2.755   0.525  0.7535  0.0100 -0.4285
17192TIP3   OH273066   5.997   5.213   3.713 -0.3801 -0.4194 -0.1909
17192TIP3    H173067   6.032   5.183   3.797 -0.0258  1.3296  0.2971
17192TIP3    H273068   6.032   5.151   3.649  1.0006 -0.5797  0.7021
17193TIP3   OH273069   1.828   2.506  13.713  0.1742  0.1001 -0.4804
17193TIP3    H173070   1.766   2.464  13.654  0.3214 -1.6804  0.6174
17193TIP3    H273071   1.800   2.598  13.715 -0.0323  0.1279 -3.0372
17194TIP3   OH273072   5.181   1.421  15.141  0.9321  0.4405  0.0597
17194TIP3    H173073   5.116   1.470  15.192 -1.8382 -1.5599 -1.4050
17194TIP3    H273074   5.243   1.488  15.111 -2.1778  2.9497 -1.0821
17195TIP3   OH273075   1.999   5.003  11.945 -0.3123  0.4838  0.5768
17195TIP3    H173076   2.078   4.952  11.930 -0.3022  0.9106 -0.9087
17195TIP3    H273077   1.992   5.060  11.869 -1.7223  0.8784  0.9744
17196TIP3   OH273078   1.844   5.925   5.863 -0.0661  0.1086 -0.2884
17196TIP3    H173079   1.894   6.006   5.857  0.3864 -0.0703  0.8445
17196TIP3    H273080   1.908   5.860   5.894 -0.7921 -0.3116  0.3439
17197TIP3   OH273081   5.624   4.778   1.111 -0.6395  0.2574  0.0733
17197TIP3    H173082   5.677   4.857   1.110  1.3762 -1.0259  1.6745
17197TIP3    H273083   5.549   4.799   1.055 -1.4908  4.1861  2.4591
17198TIP3   OH273084   4.112   0.739  12.410 -0.2440 -0.3183 -0.4768
17198TIP3    H173085   4.147   0.757  12.323  1.4200 -1.5561 -0.0903
17198TIP3    H273086   4.020   0.717  12.396 -0.4176  1.1404 -1.7230
17199TIP3   OH273087   2.675   0.074  14.762  0.8685  0.6461 -0.4069
17199TIP3    H173088   2.661   0.160  14.722  0.2617  1.2985  1.1801
17199TIP3    H273089   2.734   0.090  14.835 -1.4570  0.2009  1.6276
17200TIP3   OH273090   5.491   6.379   5.623  0.0606  0.4588 -0.0634
17200TIP3    H173091   5.572   6.339   5.656 -1.5818 -1.5802  1.5761
17200TIP3    H273092   5.474   6.451   5.684 -0.4318 -0.3741  0.7974
17201TIP3   OH273093   1.215   4.826  13.455  0.0614 -0.2805  0.0909
17201TIP3    H173094   1.226   4.731  13.459  1.0936 -0.1181  1.5156
17201TIP3    H273095   1.293   4.861  13.497 -0.4778  1.1980 -0.1074
17202TIP3   OH273096   4.072   6.503  14.035  0.4254  0.5986  0.5039
17202TIP3    H173097   4.072   6.598  14.027  1.2210  0.7145  1.7487
17202TIP3    H273098   4.102   6.487  14.124  1.7341 -0.8620 -0.1777
17203TIP3   OH273099   6.729   1.496   6.291  0.2701  0.3702 -0.1374
17203TIP3    H173100   6.773   1.581   6.292  0.7880  0.0969  0.4932
17203TIP3    H273101   6.780   1.441   6.350  0.4344 -0.6358 -1.1797
17204TIP3   OH273102   5.969   3.097  11.989  0.0674 -1.0212 -0.1985
17204TIP3    H173103   5.994   3.172  11.935  1.5188 -1.5718 -0.3150
17204TIP3    H273104   6.039   3.090  12.054 -1.3293 -0.7672  1.3553
17205TIP3   OH273105   3.424   2.429   0.611  0.3400  0.9728  0.5841
17205TIP3    H173106   3.441   2.409   0.519 -0.1199 -0.7880  0.8722
17205TIP3    H273107   3.502   2.400   0.657  0.5630  1.8394  0.7738
17206TIP3   OH273108   3.508   5.163   5.941 -0.6324  0.0158  0.3187
17206TIP3    H173109   3.465   5.241   5.976 -0.4279 -0.1139  0.8606
17206TIP3    H273110   3.492   5.096   6.006  0.5126 -0.0018  0.5870
17207TIP3   OH273111   4.039   5.482  15.842  0.2616  0.0569  0.4915
17207TIP3    H173112   4.079   5.405  15.803 -0.6765 -0.0938 -0.1616
17207TIP3    H273113   4.026   5.458  15.934  0.7268 -0.2609  0.4765
17208TIP3   OH273114   6.563   1.535  10.199  0.1899 -0.0304 -0.0004
17208TIP3    H173115   6.583   1.459  10.254  0.3098  0.7578  1.0560
17208TIP3    H273116   6.629   1.600  10.221 -0.1047  0.5047 -0.6620
17209TIP3   OH273117   6.440   3.330  11.090  0.9030 -0.0853 -0.0361
17209TIP3    H173118   6.497   3.407  11.095 -0.3617  1.0523 -2.0913
17209TIP3    H273119   6.500   3.256  11.081  2.1140  0.7450  0.9572
17210TIP3   OH273120   1.205   4.325   4.124  0.1771  0.5032  0.0854
17210TIP3    H173121   1.293   4.338   4.088  0.4015  2.1613  1.2182
17210TIP3    H273122   1.149   4.380   4.069 -0.0319  0.1570 -0.0526
17211TIP3   OH273123   3.938   1.181  11.701  0.3037  0.0336 -0.7800
17211TIP3    H173124   3.961   1.094  11.733  0.6822 -0.3516 -2.0716
17211TIP3    H273125   4.008   1.238  11.734 -0.6265  0.1010  1.1617
17212TIP3   OH273126   1.339   0.961   5.252 -0.0787 -0.6482  0.0966
17212TIP3    H173127   1.361   0.995   5.339 -0.5881  0.0781 -0.0520
17212TIP3    H273128   1.346   1.038   5.195 -1.9250 -0.6344 -0.1321
17213TIP3   OH273129   0.858   2.010  11.403 -0.2809  0.5362  0.4714
17213TIP3    H173130   0.923   2.027  11.335 -1.4095  0.1512 -0.7175
17213TIP3    H273131   0.910   1.975  11.476  0.7949 -0.3719 -0.6801
17214TIP3   OH273132   2.719   3.252   1.056  0.3795 -0.0246 -0.4245
17214TIP3    H173133   2.625   3.264   1.074  0.7043  1.2542  0.5052
17214TIP3    H273134   2.732   3.290   0.969 -0.1881 -1.2943 -1.0683
17215TIP3   OH273135   2.704   3.476   5.421  0.3946 -0.1853  0.6407
17215TIP3    H173136   2.650   3.556   5.424 -0.4199 -0.6700 -0.5233
17215TIP3    H273137   2.736   3.465   5.510 -2.4264 -0.5426  1.6639
17216TIP3   OH273138   2.644   1.096   0.520  0.2357 -0.3397  0.0546
17216TIP3    H173139   2.627   1.005   0.545  0.6779  0.2807  2.7995
17216TIP3    H273140   2.564   1.124   0.476 -0.3225 -1.7381  0.1471
17217TIP3   OH273141   0.603   6.173   2.817  0.4529  0.3544 -0.2620
17217TIP3    H173142   0.669   6.141   2.879  1.4254  1.6526 -0.5966
17217TIP3    H273143   0.554   6.095   2.791  1.4676 -0.5363  0.4654
17218TIP3   OH273144   1.592   3.757   2.444 -0.1992 -0.2224 -0.1983
17218TIP3    H173145   1.534   3.691   2.483 -0.1720 -0.4317 -0.5047
17218TIP3    H273146   1.675   3.746   2.491 -0.0411 -0.7559 -0.5952
17219TIP3   OH273147   0.521   3.119  12.591  0.6984  0.3504  0.0249
17219TIP3    H173148   0.455   3.060  12.553 -1.1959  2.5951 -0.2746
17219TIP3    H273149   0.565   3.156  12.515 -0.9874  2.4877  0.0518
17220TIP3   OH273150   1.760   1.854   0.279 -0.2009 -0.1220  0.1730
17220TIP3    H173151   1.840   1.820   0.237 -0.7316 -1.7434  0.4406
17220TIP3    H273152   1.793   1.908   0.351  0.6809  0.9958 -1.0421
17221TIP3   OH273153   6.799   6.783  10.525  0.1961 -0.5142  0.1541
17221TIP3    H173154   6.819   6.776  10.432 -1.5793 -1.5000 -0.1801
17221TIP3    H273155   6.732   6.852  10.530 -1.1803 -1.8281  0.4241
17222TIP3   OH273156   3.990   6.521  10.492 -0.0469 -0.0592  0.8299
17222TIP3    H173157   4.082   6.538  10.471 -0.4965  0.7752 -0.5375
17222TIP3    H273158   3.963   6.598  10.542 -0.0938 -0.1305  0.9120
17223TIP3   OH273159   3.034   1.255   1.329  0.2455 -0.5667  0.0102
17223TIP3    H173160   3.087   1.304   1.392  0.3257 -1.1561  0.3970
17223TIP3    H273161   3.017   1.318   1.259  1.6621 -0.4517 -0.2345
17224TIP3   OH273162   1.460   3.477  13.351  0.1166  0.0014 -0.0671
17224TIP3    H173163   1.416   3.552  13.392  0.5934  0.7772 -0.9784
17224TIP3    H273164   1.389   3.415  13.333 -0.7188  1.5168 -2.1066
17225TIP3   OH273165   3.183   1.897   1.261 -0.0526  0.1488  0.0777
17225TIP3    H173166   3.096   1.919   1.296  0.7276  1.3461  1.2988
17225TIP3    H273167   3.209   1.974   1.211  0.9082  0.3666  0.8940
17226TIP3   OH273168   2.136   6.203   4.868 -0.8040  0.4375 -0.1232
17226TIP3    H173169   2.084   6.175   4.944 -1.9990  0.4147 -0.9332
17226TIP3    H273170   2.186   6.279   4.900  0.4428 -0.9529  1.3227
17227TIP3   OH273171   4.368   0.794  13.191 -0.6034  0.3717 -0.1834
17227TIP3    H173172   4.277   0.766  13.203  0.3753 -2.9007  0.2048
17227TIP3    H273173   4.365   0.857  13.120 -3.1436  0.0035 -0.4414
17228TIP3   OH273174   2.561   5.617   4.908  0.5819  0.2632  0.3126
17228TIP3    H173175   2.540   5.594   4.818  0.7672 -0.0400  0.3459
17228TIP3    H273176   2.627   5.553   4.934 -0.8822 -0.8719  1.3086
17229TIP3   OH273177   5.950   2.442   0.476  0.1423  0.2667  0.1937
17229TIP3    H173178   5.857   2.431   0.497  0.0645 -0.2137 -0.4036
17229TIP3    H273179   5.960   2.401   0.391  0.9969 -0.0763  0.4602
17230TIP3   OH273180   3.384   0.378   1.526 -0.2515 -0.1022 -0.3658
17230TIP3    H173181   3.340   0.455   1.563  1.1134  0.4199  0.1763
17230TIP3    H273182   3.323   0.306   1.542 -0.8966  0.6058  0.4224
17231TIP3   OH273183   6.686   3.511   5.804  0.0829  0.0878  0.0833
17231TIP3    H173184   6.637   3.453   5.747 -0.4684  0.0195  0.6243
17231TIP3    H273185   6.725   3.453   5.870  1.2666  0.0855 -0.6111
17232TIP3   OH273186   4.652   5.068   5.635 -0.0608 -0.6761  0.4440
17232TIP3    H173187   4.715   4.996   5.638  0.6867 -0.0154  0.7019
17232TIP3    H273188   4.677   5.126   5.706  0.1812  0.5226 -0.5900
17233TIP3   OH273189   3.466   2.416  16.613 -0.0589 -0.0135  0.2913
17233TIP3    H173190   3.419   2.346  16.660  0.4557 -0.4138  0.2131
17233TIP3    H273191   3.447   2.495  16.663 -0.0364 -0.3349  0.8105
17234TIP3   OH273192   0.456   6.713   4.522  0.4393  0.1364  0.2860
17234TIP3    H173193   0.481   6.729   4.431  0.0063  0.8327  0.2915
17234TIP3    H273194   0.508   6.636   4.547  0.0862 -0.4609 -0.7477
17235TIP3   OH273195   4.253   2.012   6.469  0.2048 -0.1547 -0.7495
17235TIP3    H173196   4.307   1.990   6.392  0.8932 -1.4915  0.0803
17235TIP3    H273197   4.317   2.026   6.539 -0.5245 -2.1945  0.3535
17236TIP3   OH273198   6.692   0.178  15.010  0.7469 -0.5514  0.0009
17236TIP3    H173199   6.645   0.113  15.062  0.6757 -0.3310  0.2114
17236TIP3    H273200   6.624   0.224  14.962  0.5336  1.2492  1.9706
17237TIP3   OH273201   2.352   0.260   2.772  0.9861  0.1581 -0.1031
17237TIP3    H173202   2.425   0.290   2.827  3.3150  0.4643 -3.1823
17237TIP3    H273203   2.360   0.164   2.774  2.0403  0.2051 -1.0621
17238TIP3   OH273204   5.806   0.880   6.428  0.4671 -0.4133  0.2551
17238TIP3    H173205   5.898   0.864   6.450  0.0825 -0.0023  2.2877
17238TIP3    H273206   5.758   0.847   6.504 -0.9497  1.1374  0.0416
17239TIP3   OH273207   6.364   0.036   4.092 -0.1999 -1.1455 -0.5164
17239TIP3    H173208   6.446   0.007   4.133 -1.1162 -0.7473  1.6738
17239TIP3    H273209   6.372   0.131   4.087 -0.3636 -1.1414 -0.7148
17240TIP3   OH273210   6.289   2.517  16.015 -0.1460  0.7530 -0.2090
17240TIP3    H173211   6.258   2.465  15.941  1.0250 -2.8652  1.7329
17240TIP3    H273212   6.209   2.550  16.056 -0.9870 -0.4415 -0.8615
17241TIP3   OH273213   1.991   2.409   0.353  0.2795  0.0710  0.1567
17241TIP3    H173214   1.906   2.452   0.352  0.5067  0.5116 -0.0909
17241TIP3    H273215   2.020   2.416   0.444  0.8887  1.5649 -0.1489
17242TIP3   OH273216   0.636   4.215   0.083  0.1957  0.2165 -0.9188
17242TIP3    H173217   0.723   4.190   0.114 -0.2170  0.0944  0.1366
17242TIP3    H273218   0.654   4.275   0.010  1.1635  2.6727  1.2653
17243TIP3   OH273219   5.395   5.356  17.104  0.2371  0.0909 -0.6099
17243TIP3    H173220   5.313   5.335  17.058  0.6310 -1.6475 -0.5504
17243TIP3    H273221   5.435   5.424  17.051  0.1596 -1.1163 -2.2585
17244TIP3   OH273222   1.443   3.474   1.063 -0.3274  0.8797 -0.6057
17244TIP3    H173223   1.516   3.482   1.003  0.4345 -1.1000  0.0085
17244TIP3    H273224   1.483   3.447   1.146 -1.4943  2.1942  0.4084
17245TIP3   OH273225   3.323   3.041   5.538  0.1819  0.1801 -0.0624
17245TIP3    H173226   3.371   2.974   5.490 -0.1416  0.9358 -1.4709
17245TIP3    H273227   3.253   3.068   5.479 -0.7658  0.5199  1.1793
17246TIP3   OH273228   4.628   5.754   1.673 -0.0542  0.2914 -0.3517
17246TIP3    H173229   4.545   5.789   1.706 -0.6713 -0.4343 -1.0731
17246TIP3    H273230   4.692   5.821   1.691 -0.8470  0.9507  0.0498
17247TIP3   OH273231   5.018   4.562   4.247  0.4529  0.0902  0.3522
17247TIP3    H173232   5.103   4.594   4.277  0.4601 -1.0373  1.5740
17247TIP3    H273233   4.958   4.634   4.268  1.2169  1.2261 -1.2609
17248TIP3   OH273234   4.768   0.687   5.075  0.0412  0.3210 -0.3033
17248TIP3    H173235   4.716   0.767   5.074  0.2262  0.4394 -1.4280
17248TIP3    H273236   4.850   0.712   5.117  0.4828  0.9778 -1.5297
17249TIP3   OH273237   1.562   4.205   6.452  0.2137 -0.0371 -0.0947
17249TIP3    H173238   1.545   4.296   6.475  0.9798  0.0134  0.2938
17249TIP3    H273239   1.529   4.155   6.527  2.3581  0.1026  0.9839
17250TIP3   OH273240   0.158   5.240   4.265  0.1665  0.5603  0.1606
17250TIP3    H173241   0.136   5.274   4.178 -0.4965  2.2327  0.9469
17250TIP3    H273242   0.248   5.211   4.257 -0.2445 -0.3413 -1.3844
17251TIP3   OH273243   0.966   6.439  14.564  1.1077 -0.2307 -0.3016
17251TIP3    H173244   1.046   6.480  14.598  1.0136  0.5672 -1.0230
17251TIP3    H273245   0.977   6.442  14.469 -0.3051  0.9376 -0.4411
17252TIP3   OH273246   1.082   4.112   1.115 -0.1598  0.0091 -0.6271
17252TIP3    H173247   1.033   4.056   1.054 -1.0228  3.6516 -3.4888
17252TIP3    H273248   1.015   4.147   1.174 -0.0775  0.1098 -0.5929
17253TIP3   OH273249   3.367   1.381  16.288  0.0973 -0.4840  0.1045
17253TIP3    H173250   3.408   1.467  16.287  2.2512 -1.4746 -0.3196
17253TIP3    H273251   3.302   1.384  16.218  0.6714  0.5658 -0.3982
17254TIP3   OH273252   0.973   3.404  14.031  0.0211  0.3535  0.4679
17254TIP3    H173253   0.988   3.429  14.122 -0.0822  0.3978  0.4726
17254TIP3    H273254   0.897   3.454  14.004 -0.0930  0.1615  0.4290
17255TIP3   OH273255   2.999   6.124  12.533  0.0776 -0.0755 -0.3209
17255TIP3    H173256   3.036   6.207  12.563  0.4721 -0.0882 -0.7573
17255TIP3    H273257   2.913   6.119  12.574  0.9955 -0.5603  1.5993
17256TIP3   OH273258   1.430   6.452  11.191 -0.1903  0.7008 -0.2656
17256TIP3    H173259   1.428   6.487  11.102  1.4056  0.4366 -0.4176
17256TIP3    H273260   1.400   6.361  11.182 -1.8519  1.2236 -0.2400
17257TIP3   OH273261   2.672   0.668   2.033  0.2232 -0.8057 -0.1289
17257TIP3    H173262   2.745   0.715   2.075  0.6381  0.6732 -2.3815
17257TIP3    H273263   2.696   0.667   1.940 -3.1632  0.7864 -1.0903
17258TIP3   OH273264   1.537   5.180   6.680  0.6224  0.1242  0.0892
17258TIP3    H173265   1.572   5.122   6.613  2.4972  1.2675  0.0338
17258TIP3    H273266   1.612   5.232   6.709 -0.2717  0.0794  2.6613
17259TIP3   OH273267   1.985   5.607  11.399 -0.3080 -0.0456 -0.0977
17259TIP3    H173268   2.071   5.564  11.397 -0.2822  0.0538 -2.4879
17259TIP3    H273269   1.925   5.538  11.426  0.2788 -0.5970 -0.1827
17260TIP3   OH273270   2.101   2.749  16.913 -0.3200 -0.5650 -0.4850
17260TIP3    H173271   2.049   2.709  16.983 -0.8384  1.5984  0.3924
17260TIP3    H273272   2.190   2.753  16.948 -0.4294 -0.1873 -0.2518
17261TIP3   OH273273   3.570   5.838   5.360  0.2892  0.2937 -0.0341
17261TIP3    H173274   3.484   5.879   5.350  0.9102  1.7498  0.3857
17261TIP3    H273275   3.567   5.796   5.446 -0.1582 -0.0509 -0.2184
17262TIP3   OH273276   5.909   2.732  11.035 -0.3533 -0.3410  0.4953
17262TIP3    H173277   6.004   2.740  11.028 -0.2196 -0.5967  1.9571
17262TIP3    H273278   5.878   2.822  11.038 -0.2305 -0.2445 -0.8102
17263TIP3   OH273279   4.589   0.309   3.073  0.0718 -0.4382  0.0783
17263TIP3    H173280   4.596   0.347   2.985  1.2459 -1.1977 -0.1639
17263TIP3    H273281   4.498   0.278   3.078  0.0733 -0.6402 -0.9673
17264TIP3   OH273282   1.456   0.396   4.360 -0.1520  0.0140  0.7103
17264TIP3    H173283   1.438   0.304   4.337  0.0111  0.6792 -2.2755
17264TIP3    H273284   1.380   0.444   4.326  1.2928  1.3414 -0.7472
17265TIP3   OH273285   3.702   2.237  11.227  0.8913  0.5254  0.3924
17265TIP3    H173286   3.698   2.253  11.132  1.9876  0.7414  0.3749
17265TIP3    H273287   3.732   2.146  11.235 -1.3305 -0.2261  0.5280
17266TIP3   OH273288   6.049   3.255   3.442 -0.8338  0.0736  0.5351
17266TIP3    H173289   6.109   3.187   3.474  1.3225  0.4141 -2.5113
17266TIP3    H273290   6.068   3.332   3.495 -0.6442 -0.6623  1.5408
17267TIP3   OH273291   6.527   4.969  13.435  0.3688 -0.0060  0.5686
17267TIP3    H173292   6.596   5.009  13.383  1.1757 -1.3685  0.5619
17267TIP3    H273293   6.476   4.917  13.372 -1.8185  2.4554  0.2310
17268TIP3   OH273294   3.963   2.923  11.081 -0.6718  0.2642 -0.6493
17268TIP3    H173295   3.902   2.851  11.098 -1.0203  0.3758 -1.4510
17268TIP3    H273296   4.010   2.898  11.002 -0.4943  0.7298 -0.6955
17269TIP3   OH273297   3.732   3.509  14.014  0.0758  0.3753  0.9837
17269TIP3    H173298   3.818   3.506  14.054  0.1001 -0.1853  0.9055
17269TIP3    H273299   3.710   3.602  14.008  1.1323  0.5683  0.0233
17270TIP3   OH273300   0.760   1.729  12.502  0.5467 -0.0819  0.2064
17270TIP3    H173301   0.690   1.664  12.488  1.4667 -1.1687  0.6129
17270TIP3    H273302   0.831   1.679  12.542  0.9178  1.3901  1.3772
17271TIP3   OH273303   2.252   6.458   5.816  0.3624 -0.0127 -0.2619
17271TIP3    H173304   2.289   6.480   5.731  0.4224 -1.9807 -0.7798
17271TIP3    H273305   2.316   6.489   5.880  0.9778  0.2105 -0.9895
17272TIP3   OH273306   1.769   4.521  13.973  0.5256 -0.2378  0.5481
17272TIP3    H173307   1.781   4.516  13.878  0.1919 -0.2709  0.5074
17272TIP3    H273308   1.738   4.611  13.988 -0.3215 -0.5268  0.5257
17273TIP3   OH273309   5.399   2.543  12.439 -0.0668 -0.0568  0.0197
17273TIP3    H173310   5.307   2.549  12.465  0.2255 -2.2312  1.7926
17273TIP3    H273311   5.445   2.603  12.498 -0.1194 -0.5503  0.5712
17274TIP3   OH273312   5.428   5.586  16.981  0.1073 -0.1194  0.0089
17274TIP3    H173313   5.378   5.628  17.052  0.1728  1.4583 -0.8462
17274TIP3    H273314   5.387   5.618  16.901  0.1885 -1.7049 -0.6855
17275TIP3   OH273315   4.722   0.148   3.570  0.5025  0.0109  0.1357
17275TIP3    H173316   4.708   0.197   3.490  1.7252 -2.2116 -1.4991
17275TIP3    H273317   4.753   0.062   3.541  2.8616 -0.2211  3.0030
17276TIP3   OH273318   0.400   5.740   1.542 -0.2105 -0.7172  0.6132
17276TIP3    H173319   0.381   5.758   1.450 -0.6987  0.5278  0.9366
17276TIP3    H273320   0.371   5.650   1.556 -4.2814  0.4780  0.6289
17277TIP3   OH273321   2.612   0.392  14.313 -0.0494  0.0049  0.3094
17277TIP3    H173322   2.702   0.382  14.282  0.3420 -0.1838  1.4844
17277TIP3    H273323   2.576   0.304  14.313 -0.0782  0.0166  0.3036
17278TIP3   OH273324   2.664   3.694  14.545  0.1784  0.0458  0.3698
17278TIP3    H173325   2.681   3.651  14.629  0.9965  1.6271  1.0207
17278TIP3    H273326   2.573   3.723  14.550 -0.3096 -1.3818  0.0161
17279TIP3   OH273327   1.445   1.312  12.652  0.2167 -0.2051  0.2101
17279TIP3    H173328   1.398   1.311  12.569  0.9602  1.0343 -0.2285
17279TIP3    H273329   1.521   1.257  12.638 -0.1923 -0.8313  0.3998
17280TIP3   OH273330   4.289   1.021  15.865 -0.3231 -0.1469  0.3271
17280TIP3    H173331   4.380   1.038  15.839 -0.0508  0.6226  1.7634
17280TIP3    H273332   4.243   1.009  15.782  0.8434  0.7037 -0.4655
17281TIP3   OH273333   5.269   2.195   4.160 -0.7243 -0.3180  0.2028
17281TIP3    H173334   5.352   2.228   4.195 -0.6752 -1.3612  1.0732
17281TIP3    H273335   5.290   2.108   4.126 -0.8561  0.4953 -2.0881
17282TIP3   OH273336   3.764   2.188   0.493 -0.0990  0.0543 -0.7876
17282TIP3    H173337   3.707   2.250   0.538 -0.5643 -0.7153 -0.3085
17282TIP3    H273338   3.742   2.103   0.530  2.0039 -0.1537  0.0751
17283TIP3   OH273339   6.550   3.211   2.169 -0.4856 -0.3999  0.4793
17283TIP3    H173340   6.544   3.121   2.200 -0.3830 -0.7669 -0.5273
17283TIP3    H273341   6.474   3.255   2.206  0.5378 -0.3835  2.6079
17284TIP3   OH273342   0.325   5.492   1.018 -0.5366 -0.2819 -0.8324
17284TIP3    H173343   0.271   5.513   1.094 -0.5387 -0.5808 -0.7498
17284TIP3    H273344   0.304   5.400   0.998 -1.0001 -0.0155 -1.5744
17285TIP3   OH273345   2.028   1.822  14.871  0.5877 -0.2214  0.1476
17285TIP3    H173346   1.940   1.792  14.894  0.9760 -0.4218  1.4446
17285TIP3    H273347   2.086   1.763  14.919  1.4083  0.5518  0.1106
17286TIP3   OH273348   2.676   4.593   3.549  0.0266 -0.1763  0.0778
17286TIP3    H173349   2.744   4.638   3.598  0.7937 -0.6624 -0.5410
17286TIP3    H273350   2.718   4.513   3.516 -1.3177 -1.3672  1.1909
17287TIP3   OH273351   6.407   2.923  12.923 -0.1828 -0.0443 -0.4869
17287TIP3    H173352   6.349   2.961  12.857 -2.6276 -1.7793  0.5590
17287TIP3    H273353   6.418   2.993  12.988 -0.8556  0.4206 -0.8613
17288TIP3   OH273354   5.526   1.130   1.506  0.1406  0.2086  0.0341
17288TIP3    H173355   5.566   1.064   1.450  1.2163  0.6594  0.2565
17288TIP3    H273356   5.532   1.092   1.594  1.5450  0.9686  0.2734
17289TIP3   OH273357   1.838   2.101  15.789 -0.2024  0.2664 -0.5744
17289TIP3    H173358   1.933   2.091  15.800 -0.5887 -2.4337  0.7959
17289TIP3    H273359   1.823   2.084  15.696  0.5844 -0.2416 -0.6174
17290TIP3   OH273360   2.673   2.028   6.471 -0.2416  0.6455  0.1574
17290TIP3    H173361   2.692   1.999   6.561  0.1361  1.1697  0.2517
17290TIP3    H273362   2.737   1.982   6.417  0.3732  1.3178  0.3095
17291TIP3   OH273363   3.825   1.386   5.462 -0.1706 -0.1198  0.3822
17291TIP3    H173364   3.919   1.391   5.447 -0.1701  1.1009  0.7304
17291TIP3    H273365   3.817   1.345   5.549  0.0435 -0.0277  0.4455
17292TIP3   OH273366   0.400   4.730  16.833 -0.1683 -0.9037 -0.0083
17292TIP3    H173367   0.351   4.808  16.857  1.4377  0.1185  0.0082
17292TIP3    H273368   0.381   4.667  16.903 -0.5155 -0.1079  0.6228
17293TIP3   OH273369   3.321   0.099   4.012  0.2761 -0.8384  0.2078
17293TIP3    H173370   3.357   0.183   3.981 -0.4949 -0.9915 -1.1618
17293TIP3    H273371   3.394   0.057   4.056  0.5086  0.8238  1.4887
17294TIP3   OH273372   2.126   1.989  13.164 -0.1710 -0.1435 -1.6389
17294TIP3    H173373   2.064   2.038  13.109  0.3455 -0.6335 -2.6565
17294TIP3    H273374   2.073   1.961  13.239 -0.1927  3.0225 -0.4072
17295TIP3   OH273375   1.802   2.108   3.123 -0.2349 -0.0768 -0.5839
17295TIP3    H173376   1.792   2.153   3.039 -1.9351  1.7038  0.5377
17295TIP3    H273377   1.840   2.174   3.181 -0.2544 -0.9091  0.3827
17296TIP3   OH273378   5.675   3.704  16.552  0.1253 -0.1873  0.3735
17296TIP3    H173379   5.728   3.639  16.507 -0.6762 -1.1334  0.7875
17296TIP3    H273380   5.624   3.654  16.616 -0.3232  0.8687  0.8631
17297TIP3   OH273381   3.155   0.320  14.352  0.0904  0.2032  0.7944
17297TIP3    H173382   3.209   0.334  14.430 -0.2321  1.3181  0.8385
17297TIP3    H273383   3.071   0.289  14.387  0.2095 -0.0599  0.8412
17298TIP3   OH273384   3.134   0.870   4.368  0.2209 -0.4040 -0.3490
17298TIP3    H173385   3.205   0.912   4.416 -0.9527  0.6101  0.5492
17298TIP3    H273386   3.111   0.794   4.422 -0.0082 -0.1925 -0.1474
17299TIP3   OH273387   6.501   1.845  12.806  0.0244  0.7198 -0.8245
17299TIP3    H173388   6.412   1.879  12.806 -0.6984 -0.9384  3.0409
17299TIP3    H273389   6.554   1.916  12.769 -2.8804  1.5874 -3.4988
17300TIP3   OH273390   5.965   0.548   4.950 -0.5761 -0.3409 -0.6558
17300TIP3    H173391   6.008   0.555   5.035 -1.9785 -2.1109  0.2432
17300TIP3    H273392   5.907   0.624   4.947 -0.8994 -0.5423  0.2141
17301TIP3   OH273393   1.835   1.003   3.020 -0.0972  0.1298 -0.5514
17301TIP3    H173394   1.780   0.998   2.942  0.9217  0.4334 -1.2895
17301TIP3    H273395   1.870   0.915   3.031  1.5699  0.6313 -1.7564
17302TIP3   OH273396   0.208   4.422   0.527  0.5959  0.1412 -0.5144
17302TIP3    H173397   0.210   4.517   0.516  2.3818  0.0413 -1.3047
17302TIP3    H273398   0.285   4.391   0.479  0.4977 -1.6395  0.4414
17303TIP3   OH273399   1.868   0.139  12.098 -0.1197 -0.1774  0.0076
17303TIP3    H173400   1.856   0.055  12.054  0.7491 -0.4303  0.2281
17303TIP3    H273401   1.814   0.134  12.177  1.8109 -1.5158  1.2978
17304TIP3   OH273402   6.457   1.928  14.637 -0.1563 -0.4597 -0.2334
17304TIP3    H173403   6.366   1.947  14.660 -0.1871 -2.3403  1.3790
17304TIP3    H273404   6.508   1.962  14.710  0.3128 -0.7080 -0.4461
17305TIP3   OH273405   6.045   6.271  14.285 -0.1427 -0.5082 -0.6265
17305TIP3    H173406   6.057   6.326  14.362  0.5403 -1.2863 -0.1695
17305TIP3    H273407   6.026   6.333  14.214 -1.0748  0.1846  0.2207
17306TIP3   OH273408   2.531   5.564   4.391 -0.3297 -0.0409 -0.0672
17306TIP3    H173409   2.544   5.620   4.315 -0.0803 -0.1890 -0.1342
17306TIP3    H273410   2.462   5.503   4.365  0.2554 -0.5587 -0.4343
17307TIP3   OH273411   3.557   5.506  16.814 -0.1656 -0.0498  0.4710
17307TIP3    H173412   3.466   5.532  16.800 -0.3460 -1.2144 -0.5813
17307TIP3    H273413   3.584   5.554  16.893 -1.2102  1.4616 -0.0792
17308TIP3   OH273414   0.823   6.110   2.941  0.1433  0.1272  0.4986
17308TIP3    H173415   0.857   6.156   3.017 -0.4814 -0.4509  1.1270
17308TIP3    H273416   0.862   6.023   2.946 -2.0034 -0.7795  1.6257
17309TIP3   OH273417   2.461   5.320  13.256 -0.1951  0.4113 -0.3028
17309TIP3    H173418   2.534   5.258  13.267 -0.3919  0.1573 -0.4409
17309TIP3    H273419   2.393   5.270  13.212  0.0620  1.0437 -1.4395
17310TIP3   OH273420   6.712   0.382   3.395  0.0318 -0.3699 -0.0162
17310TIP3    H173421   6.670   0.297   3.407  0.7286 -0.3060  3.2034
17310TIP3    H273422   6.696   0.428   3.477  2.8263  1.2156 -0.3226
17311TIP3   OH273423   5.620   6.528  12.744  1.0998 -0.0583  0.3803
17311TIP3    H173424   5.685   6.542  12.814 -0.5241  1.4903  1.6346
17311TIP3    H273425   5.536   6.528  12.789  0.0863 -0.0674 -1.4612
17312TIP3   OH273426   0.848   4.296   5.068 -0.2242  0.2788  0.0588
17312TIP3    H173427   0.871   4.351   4.994  0.3201 -0.0303 -0.0035
17312TIP3    H273428   0.758   4.321   5.090 -0.2796  0.5817 -0.5119
17313TIP3   OH273429   0.627   5.497   2.240 -0.0171  0.2386  0.3076
17313TIP3    H173430   0.652   5.406   2.255 -0.5294 -0.3888 -2.3662
17313TIP3    H273431   0.709   5.542   2.222  0.0700 -0.0133  0.0819
17314TIP3   OH273432   5.622   2.784   2.401  0.0499 -0.4538 -0.5282
17314TIP3    H173433   5.605   2.773   2.308  0.4809 -0.5323 -0.5987
17314TIP3    H273434   5.619   2.879   2.415 -2.8760 -0.5628 -0.0691
17315TIP3   OH273435   4.274   6.560  15.163 -0.0761 -0.0747  0.1588
17315TIP3    H173436   4.198   6.505  15.181 -1.0887  0.8414 -1.2461
17315TIP3    H273437   4.305   6.531  15.077  0.6032  0.2158  0.2977
17316TIP3   OH273438   4.930   0.301  13.325  0.3109  0.1429  0.0934
17316TIP3    H173439   4.946   0.356  13.402  0.2299 -0.7388  0.7529
17316TIP3    H273440   4.835   0.293  13.320  0.3630 -1.1185  0.8642
17317TIP3   OH273441   0.133   2.063  13.926  0.4086  0.8394 -0.0264
17317TIP3    H173442   0.074   2.062  14.001 -0.8070 -1.4214 -0.9734
17317TIP3    H273443   0.081   2.096  13.854  0.6987  0.2156 -0.5335
17318TIP3   OH273444   5.512   3.173   5.972  0.2921  0.5636  0.3362
17318TIP3    H173445   5.496   3.100   6.031 -1.5596  1.9466  1.5597
17318TIP3    H273446   5.457   3.155   5.896  0.5229  0.2563  0.2358
17319TIP3   OH273447   5.864   1.725   0.804 -0.7232 -0.1093 -0.3051
17319TIP3    H173448   5.848   1.762   0.716  0.2519 -1.5280 -1.0899
17319TIP3    H273449   5.812   1.645   0.806  0.1478 -0.6620  0.0139
17320TIP3   OH273450   4.756   2.973   2.040  0.0268  0.1596  0.4230
17320TIP3    H173451   4.661   2.969   2.051 -0.0820  0.1652 -0.4720
17320TIP3    H273452   4.789   2.896   2.086 -0.7176 -1.9963 -2.4692
17321TIP3   OH273453   0.816   2.553  14.429  0.0296 -0.1587 -0.6021
17321TIP3    H173454   0.762   2.615  14.379 -0.7741  0.1936  0.6610
17321TIP3    H273455   0.893   2.538  14.375 -1.3922 -0.7568 -2.5159
17322TIP3   OH273456   5.340   1.137  14.955  0.4829 -0.4875  0.1567
17322TIP3    H173457   5.403   1.144  15.027 -1.0085  0.2412  1.4458
17322TIP3    H273458   5.344   1.222  14.911  1.5110 -0.9893 -0.7366
17323TIP3   OH273459   3.682   3.920   5.674 -0.2203 -0.0013  0.0267
17323TIP3    H173460   3.704   4.002   5.718  0.0260 -0.5506  0.9422
17323TIP3    H273461   3.615   3.880   5.730 -0.9551 -0.0295 -0.8631
17324TIP3   OH273462   5.447   2.688   3.472  0.3146  0.3662  0.3398
17324TIP3    H173463   5.450   2.770   3.422 -0.1641 -0.2387 -0.7194
17324TIP3    H273464   5.524   2.691   3.528  1.4166  0.6217 -1.1590
17325TIP3   OH273465   6.513   4.171   3.054  0.2405  0.0786 -0.4095
17325TIP3    H173466   6.501   4.079   3.033 -0.2359  0.1623 -0.5170
17325TIP3    H273467   6.492   4.178   3.147 -1.0052  0.3017 -0.7002
17326TIP3   OH273468   6.189   1.127  14.231  0.0736 -0.4420  0.3553
17326TIP3    H173469   6.143   1.050  14.265 -0.2850  0.5650  2.2404
17326TIP3    H273470   6.242   1.158  14.305 -0.3337  1.5338 -0.1533
17327TIP3   OH273471   5.550   6.249  15.708  0.7223 -0.3667  0.2408
17327TIP3    H173472   5.630   6.204  15.735  0.2266 -2.4242 -1.5393
17327TIP3    H273473   5.574   6.297  15.629  0.7960  1.0588  1.1139
17328TIP3   OH273474   1.619   6.328   6.432 -0.4093 -0.2376 -0.5852
17328TIP3    H173475   1.711   6.335   6.458 -0.4084  0.7953 -0.8437
17328TIP3    H273476   1.595   6.417   6.406 -1.2188 -0.6874 -1.4064
17329TIP3   OH273477   6.758   1.073   4.556 -0.0473 -0.4840 -0.0397
17329TIP3    H173478   6.725   1.013   4.623 -0.8920 -0.9122 -0.8218
17329TIP3    H273479   6.701   1.150   4.563  0.3286 -0.2245  0.2133
17330TIP3   OH273480   2.933   2.955  16.068 -1.3904 -0.7306 -0.3070
17330TIP3    H173481   3.017   2.947  16.022 -2.4054 -1.1477 -2.1659
17330TIP3    H273482   2.926   3.048  16.089 -1.4989 -0.2693 -2.2514
17331TIP3   OH273483   3.989   5.953   4.647 -0.5068  0.2553 -0.4980
17331TIP3    H173484   3.940   6.024   4.689 -1.4918 -0.9925  0.5064
17331TIP3    H273485   4.017   5.897   4.720  1.1173  0.1419 -1.1996
17332TIP3   OH273486   1.082   4.861  16.939  0.4051 -0.4667 -0.5284
17332TIP3    H173487   1.016   4.880  16.873  1.0776  1.2192 -0.7525
17332TIP3    H273488   1.057   4.914  17.015  2.5604  1.7971 -1.3134
17333TIP3   OH273489   6.450   5.823  14.321  0.2763 -0.2382  0.5175
17333TIP3    H173490   6.484   5.853  14.236  0.6434 -3.3701 -0.5050
17333TIP3    H273491   6.369   5.871  14.332  0.7932  1.0683 -1.0861
17334TIP3   OH273492   2.956   5.829  16.092  0.1886 -0.0203 -0.6996
17334TIP3    H173493   3.028   5.821  16.154  0.8197 -0.3683 -1.4743
17334TIP3    H273494   2.978   5.769  16.021 -1.0210 -0.3625 -0.7950
17335TIP3   OH273495   4.568   6.033  16.321  0.0267  0.0970 -0.1885
17335TIP3    H173496   4.636   5.973  16.349  1.1140  1.1403 -0.5266
17335TIP3    H273497   4.567   6.024  16.225  1.3946  1.8390 -0.3943
17336TIP3   OH273498   5.530   6.351   0.317 -0.3358 -0.1811 -0.4079
17336TIP3    H173499   5.479   6.415   0.367  0.2089  0.7055 -0.9713
17336TIP3    H273500   5.613   6.344   0.364  0.2978  0.8824 -1.3218
17337TIP3   OH273501   5.449   2.203  14.737 -0.3289  0.2936  0.2672
17337TIP3    H173502   5.379   2.140  14.721  0.1351 -0.1817  0.0970
17337TIP3    H273503   5.475   2.233  14.650  0.1626 -0.0632  0.2892
17338TIP3   OH273504   5.487   3.369  17.242  0.9151 -0.4166 -0.0247
17338TIP3    H173505   5.570   3.416  17.246 -0.2489  1.7010 -0.1739
17338TIP3    H273506   5.446   3.400  17.161  0.4693 -2.3110 -0.5493
17339TIP3   OH273507   4.088   1.147   2.527  0.0628 -0.5526 -0.3830
17339TIP3    H173508   4.126   1.067   2.490  1.5137  0.4970 -1.2068
17339TIP3    H273509   4.152   1.215   2.507 -1.4961  0.9598 -0.3021
17340TIP3   OH273510   2.143   4.104  12.233  0.2906 -0.7576  0.5333
17340TIP3    H173511   2.130   4.105  12.138 -2.6859 -1.0836  0.8962
17340TIP3    H273512   2.211   4.038  12.248  2.2955  0.7509 -1.4959
17341TIP3   OH273513   6.601   3.761  13.389  0.4378 -0.1500 -0.4967
17341TIP3    H173514   6.572   3.837  13.339 -1.6639  0.1177  1.0399
17341TIP3    H273515   6.531   3.697  13.379  0.5190 -0.5176  1.1266
17342TIP3   OH273516   1.240   1.146  14.136 -0.0911  0.0585 -0.1815
17342TIP3    H173517   1.276   1.229  14.105 -0.7784 -0.2141 -1.7663
17342TIP3    H273518   1.194   1.168  14.217  0.3481  1.0948 -0.2146
17343TIP3   OH273519   2.906   1.674   4.838 -0.1033 -0.6597 -0.0317
17343TIP3    H173520   2.842   1.741   4.861  1.1350 -0.0150  1.6598
17343TIP3    H273521   2.984   1.723   4.812 -0.3651 -1.4308 -2.3696
17344TIP3   OH273522   1.616   1.724  15.710  0.7689  0.0988 -0.3865
17344TIP3    H173523   1.596   1.813  15.739  0.4226 -0.0581 -0.1370
17344TIP3    H273524   1.658   1.735  15.625  2.1667  0.5971  0.3383
17345TIP3   OH273525   4.116   1.922  16.085  0.2843  0.1963  0.1779
17345TIP3    H173526   4.068   1.914  16.167 -0.1403 -1.0987 -0.1861
17345TIP3    H273527   4.103   2.013  16.058 -0.9038  0.2000  0.7342
17346TIP3   OH273528   2.346   6.195   0.434 -0.2206 -0.1581 -0.2286
17346TIP3    H173529   2.261   6.167   0.399 -0.0801  0.6056 -1.1925
17346TIP3    H273530   2.325   6.239   0.516 -0.8321  0.7767 -0.8812
17347TIP3   OH273531   6.782   4.133   5.034  0.7814 -0.2657  0.2554
17347TIP3    H173532   6.789   4.196   4.963 -2.5679  0.1461  0.1948
17347TIP3    H273533   6.771   4.048   4.991 -0.6459 -0.0931  0.2543
17348TIP3   OH273534   1.306   0.429  15.781  0.3739 -0.2583 -0.0996
17348TIP3    H173535   1.319   0.340  15.813  1.9779 -0.1336 -0.3670
17348TIP3    H273536   1.245   0.468  15.844 -0.0497 -1.4137  0.2281
17349TIP3   OH273537   4.000   1.112  12.862 -0.0367 -0.0796  0.0954
17349TIP3    H173538   4.026   1.108  12.954 -0.8307  2.2928  0.4591
17349TIP3    H273539   4.043   1.037  12.822 -2.5944 -3.2729  3.0877
17350TIP3   OH273540   1.051   3.998   4.638  0.0029 -1.0023 -0.1069
17350TIP3    H173541   0.993   3.982   4.712  0.3433 -0.9496  0.1736
17350TIP3    H273542   0.995   3.988   4.561 -1.0137  1.5869  0.2235
17351TIP3   OH273543   4.144   5.973   5.690 -0.2473  0.7397  0.3780
17351TIP3    H173544   4.239   5.974   5.677 -0.3333 -1.1520 -0.4551
17351TIP3    H273545   4.127   5.894   5.741 -1.6406 -0.2836 -1.6225
17352TIP3   OH273546   1.639   1.606  17.258 -0.1314  0.4960 -0.0917
17352TIP3    H173547   1.592   1.668  17.203 -0.2076 -0.9041 -1.6324
17352TIP3    H273548   1.633   1.643  17.346 -4.2861  0.2904 -0.1905
17353TIP3   OH273549   0.856   5.961   0.752  0.2192 -0.4299  0.5563
17353TIP3    H173550   0.912   5.968   0.829 -0.0181  0.6037  0.6424
17353TIP3    H273551   0.915   5.935   0.682  0.7520  0.3069  0.7233
17354TIP3   OH273552   0.974   2.892  12.448 -0.0461 -0.4856  0.0043
17354TIP3    H173553   0.954   2.913  12.357  1.9672 -2.4324 -0.9250
17354TIP3    H273554   0.899   2.926  12.497 -1.8725 -0.7203 -2.5115
17355TIP3   OH273555   0.736   4.393   5.916  0.3445  0.1024 -0.3939
17355TIP3    H173556   0.806   4.424   5.859 -1.5790  1.3007 -2.1886
17355TIP3    H273557   0.664   4.373   5.857 -0.6310 -1.7519  1.3494
17356TIP3   OH273558   1.564   2.378   3.479 -0.2282 -0.0873 -0.8103
17356TIP3    H173559   1.497   2.441   3.454 -0.0137  0.9141  1.0497
17356TIP3    H273560   1.611   2.420   3.551 -0.4698 -2.6304  0.8766
17357TIP3   OH273561   4.708   4.317  12.217 -0.2611 -0.4100 -0.4831
17357TIP3    H173562   4.784   4.283  12.264 -0.8235  0.8948  1.4145
17357TIP3    H273563   4.638   4.255  12.237 -0.3326 -0.2199 -0.1455
17358TIP3   OH273564   2.092   5.801  11.013  0.1484 -0.2143 -0.7793
17358TIP3    H173565   2.070   5.736  10.947 -0.9183 -0.1140 -0.5294
17358TIP3    H273566   2.169   5.846  10.978  0.7730 -1.4691 -1.0397
17359TIP3   OH273567   2.051   2.771  11.165  0.1479 -0.2851  0.6883
17359TIP3    H173568   2.099   2.688  11.165  0.8740  0.1188 -0.2750
17359TIP3    H273569   2.080   2.816  11.244  2.0044  0.3096 -0.3008
17360TIP3   OH273570   4.469   5.356  16.517  0.0411 -0.4119  0.3813
17360TIP3    H173571   4.442   5.283  16.573 -2.3595  1.3249  1.5886
17360TIP3    H273572   4.429   5.433  16.557  1.1340  1.3606 -1.8105
17361TIP3   OH273573   6.668   0.861  15.728  0.1983 -0.3245  0.5361
17361TIP3    H173574   6.595   0.922  15.717 -1.0279 -1.2881  2.8518
17361TIP3    H273575   6.725   0.902  15.793  0.9311 -0.2832 -0.1257
17362TIP3   OH273576   1.762   2.142  12.257  0.1341 -0.0798 -0.2127
17362TIP3    H173577   1.750   2.172  12.346 -1.1710  0.0810 -0.4247
17362TIP3    H273578   1.689   2.081  12.242 -0.1183  0.4834 -1.4036
17363TIP3   OH273579   2.583   4.652  13.293 -0.2073 -0.2829 -0.0880
17363TIP3    H173580   2.502   4.619  13.253  1.2048 -3.1260 -0.6996
17363TIP3    H273581   2.652   4.594  13.260  2.0719  1.8964  0.6624
17364TIP3   OH273582   0.085   3.892  11.053  0.1261 -0.0142 -0.2093
17364TIP3    H173583   0.129   3.977  11.045  0.6575 -0.2349  0.3738
17364TIP3    H273584   0.146   3.829  11.015  0.2368 -0.2966  0.4332
17365TIP3   OH273585   1.416   0.428   3.748 -0.2097  0.4181  0.3262
17365TIP3    H173586   1.341   0.486   3.736 -0.3931  0.3480  1.1174
17365TIP3    H273587   1.434   0.393   3.660 -1.3721  0.0960  0.2103
17366TIP3   OH273588   1.011   3.770  15.894 -0.6725 -0.2373 -0.1921
17366TIP3    H173589   1.023   3.856  15.855  0.0961 -0.2435  0.0262
17366TIP3    H273590   0.934   3.734  15.849 -0.4675  0.2032 -0.8988
17367TIP3   OH273591   2.214   0.464   4.224 -0.0423 -0.0891 -0.5152
17367TIP3    H173592   2.182   0.419   4.146  0.6194 -0.1974 -0.7221
17367TIP3    H273593   2.308   0.469   4.212 -0.1577  1.7559 -0.7026
17368TIP3   OH273594   5.936   2.657   0.739 -0.2272 -0.0525  0.2619
17368TIP3    H173595   5.883   2.648   0.818  0.6946 -0.5067  0.8289
17368TIP3    H273596   5.982   2.740   0.749  0.3321 -0.3850  0.4706
17369TIP3   OH273597   5.598   0.647  13.710  0.1629 -0.1381  0.1515
17369TIP3    H173598   5.624   0.722  13.656  1.5563 -0.3469  0.5246
17369TIP3    H273599   5.680   0.613  13.746 -0.6102 -0.8627  1.2792
17370TIP3   OH273600   2.999   6.312   5.708 -0.8040 -0.2241  0.4693
17370TIP3    H173601   2.933   6.261   5.754  1.1117 -1.0415  2.3963
17370TIP3    H273602   3.024   6.381   5.770  1.7942 -1.3294  0.6846
17371TIP3   OH273603   0.362   3.158  17.076 -0.0881 -0.3164  0.4027
17371TIP3    H173604   0.368   3.204  17.159  1.3465 -0.0394  0.1491
17371TIP3    H273605   0.278   3.112  17.081 -0.7778  0.9789  1.3380
17372TIP3   OH273606   6.141   3.619   2.817  0.2258  0.0630 -0.0890
17372TIP3    H173607   6.081   3.656   2.752  1.9519  0.0901 -1.7052
17372TIP3    H273608   6.143   3.683   2.888 -0.0645  1.0453 -0.9523
17373TIP3   OH273609   4.333   3.278  10.744 -0.0371  0.1012  1.0003
17373TIP3    H173610   4.349   3.311  10.832 -0.4374 -2.2277  1.9831
17373TIP3    H273611   4.404   3.216  10.729 -1.8290 -2.0079  1.0245
17374TIP3   OH273612   3.008   5.474  12.623  0.2943 -0.1137  0.0864
17374TIP3    H173613   3.070   5.436  12.686 -0.1465  0.7333  1.0562
17374TIP3    H273614   3.006   5.412  12.551  0.4045 -1.3763  1.1483
17375TIP3   OH273615   6.208   0.136   4.967 -0.1739  0.0863 -0.5155
17375TIP3    H173616   6.187   0.222   4.930  2.9533  1.2454  0.2281
17375TIP3    H273617   6.127   0.108   5.009 -1.2583  2.6820 -0.7676
17376TIP3   OH273618   2.606   5.519  13.535  0.5354 -0.4885 -0.0610
17376TIP3    H173619   2.571   5.459  13.600 -1.1547  1.6345  1.0618
17376TIP3    H273620   2.532   5.536  13.476  0.9697  0.5025 -0.3264
17377TIP3   OH273621   0.796   6.487  11.794  0.3014 -0.0880 -0.4650
17377TIP3    H173622   0.781   6.485  11.699  1.8078 -0.9033 -0.7082
17377TIP3    H273623   0.796   6.580  11.816 -0.5706  0.0891 -1.1739
17378TIP3   OH273624   0.737   5.273  15.036 -0.1700  0.4155 -0.3337
17378TIP3    H173625   0.701   5.301  14.952 -0.2248  0.6432 -0.2348
17378TIP3    H273626   0.803   5.340  15.057 -0.9138  0.9513  0.3257
17379TIP3   OH273627   5.831   0.905  14.728  0.6537  0.1132 -0.2998
17379TIP3    H173628   5.766   0.868  14.668 -0.2279 -1.1101  1.3573
17379TIP3    H273629   5.915   0.877  14.692  0.0454 -2.7063  0.3204
17380TIP3   OH273630   6.343   3.691  13.810 -0.1683 -0.3003  0.7308
17380TIP3    H173631   6.307   3.632  13.745 -0.0046  0.1143  0.2564
17380TIP3    H273632   6.417   3.733  13.766  0.2470 -0.3724  1.3440
17381TIP3   OH273633   2.946   0.194  17.167  0.5563 -0.0231  0.6394
17381TIP3    H173634   2.997   0.245  17.103  0.0633 -0.0746  0.1991
17381TIP3    H273635   2.859   0.233  17.164  0.6908  0.3789  1.7517
17382TIP3   OH273636   3.711   1.400   6.650 -0.1420 -0.1332  0.1414
17382TIP3    H173637   3.714   1.422   6.744 -0.4771 -0.6699  0.2780
17382TIP3    H273638   3.660   1.471   6.611 -0.4003 -0.1553  0.4366
17383TIP3   OH273639   4.452   3.904   4.237  0.0090 -0.1297  0.5115
17383TIP3    H173640   4.479   3.880   4.326  1.4387  0.1539  0.1704
17383TIP3    H273641   4.409   3.988   4.247 -1.5560 -0.9979  1.1895
17384TIP3   OH273642   3.352   4.564  16.505 -0.3950 -0.1121 -0.4031
17384TIP3    H173643   3.291   4.618  16.456 -0.2295  0.2310 -0.2380
17384TIP3    H273644   3.354   4.604  16.592 -0.5750 -0.6259 -0.1638
17385TIP3   OH273645   6.026   6.819   1.420  0.4011  0.8319 -1.0812
17385TIP3    H173646   6.049   6.853   1.506  0.4745 -0.0094 -0.7657
17385TIP3    H273647   5.956   6.756   1.436  0.2322  0.8649 -1.6640
17386TIP3   OH273648   3.120   6.267  15.746 -0.6471 -0.2849  0.0659
17386TIP3    H173649   3.117   6.320  15.666 -1.9422 -1.4930 -0.7054
17386TIP3    H273650   3.193   6.304  15.796 -1.1712  1.8883 -0.6900
17387TIP3   OH273651   2.804   1.533  14.341 -0.0777  0.3436 -0.0438
17387TIP3    H173652   2.746   1.495  14.276  0.1618  0.6506 -0.4421
17387TIP3    H273653   2.822   1.621  14.308  2.1766 -0.4136 -0.9431
17388TIP3   OH273654   3.920   1.265  16.032 -0.1680 -0.1610 -0.0415
17388TIP3    H173655   3.937   1.172  16.042  2.6673  0.4875  1.5955
17388TIP3    H273656   3.833   1.269  15.991  0.2511 -3.5178 -1.4240
17389TIP3   OH273657   2.203   5.788  16.372 -0.2973  0.6058  0.3038
17389TIP3    H173658   2.145   5.713  16.381  0.0172  0.1235 -1.5106
17389TIP3    H273659   2.205   5.827  16.459 -1.1358 -0.9829  1.0596
17390TIP3   OH273660   5.725   2.112  11.838 -0.3173  0.4302 -0.4798
17390TIP3    H173661   5.793   2.055  11.874 -2.5326 -1.7129  0.4241
17390TIP3    H273662   5.700   2.168  11.911 -1.5739 -0.7893  0.0396
17391TIP3   OH273663   2.593   3.882   3.647 -0.3013  0.5190  0.5454
17391TIP3    H173664   2.532   3.907   3.717 -0.8414 -1.8411  0.9751
17391TIP3    H273665   2.576   3.789   3.633  1.6571  0.3495 -0.9049
17392TIP3   OH273666   5.189   6.284   2.136 -0.3251 -0.2665 -0.1399
17392TIP3    H173667   5.156   6.354   2.193 -1.7148 -0.8214 -0.2566
17392TIP3    H273668   5.215   6.215   2.197 -1.1040 -0.5613 -0.1426
17393TIP3   OH273669   5.715   4.619   4.711 -0.0037 -0.5165  0.0306
17393TIP3    H173670   5.654   4.591   4.643 -0.7900 -0.6998  0.8089
17393TIP3    H273671   5.660   4.637   4.787  0.9692 -1.2253  0.9136
17394TIP3   OH273672   2.162   1.428  16.087  0.0446 -0.7002 -0.1955
17394TIP3    H173673   2.159   1.346  16.137 -2.0163 -0.7783 -0.4005
17394TIP3    H273674   2.132   1.404  16.000  1.5552 -0.1374 -0.8818
17395TIP3   OH273675   5.811   0.673  15.795  0.2245  0.1454  0.5594
17395TIP3    H173676   5.772   0.592  15.828 -0.2910 -0.0448 -0.4953
17395TIP3    H273677   5.742   0.713  15.741  1.7135 -0.6060 -1.9984
17396TIP3   OH273678   0.089   3.504  12.247 -0.6355  0.0154  0.3504
17396TIP3    H173679   0.139   3.424  12.266  0.1878  0.3259 -0.4913
17396TIP3    H273680   0.105   3.521  12.154 -3.0676 -0.4094 -0.1805
17397TIP3   OH273681   2.520   3.868  11.246  0.1588  0.2593  0.3472
17397TIP3    H173682   2.593   3.863  11.309  0.6508 -0.3769 -0.2702
17397TIP3    H273683   2.471   3.945  11.273  0.5215  0.1473  1.3560
17398TIP3   OH273684   4.198   0.457   1.834 -0.6819 -0.2843  0.3647
17398TIP3    H173685   4.265   0.447   1.766  1.7521  0.8609  2.5087
17398TIP3    H273686   4.221   0.392   1.900 -0.5099  1.4343  2.0333
17399TIP3   OH273687   5.178   2.381   2.188 -0.1643 -0.1238 -0.1293
17399TIP3    H173688   5.156   2.288   2.192 -0.2009 -0.1120 -0.0428
17399TIP3    H273689   5.199   2.397   2.096 -0.0632 -0.2380 -0.1253
17400TIP3   OH273690   2.439   0.522  16.836 -0.0559 -0.3608  0.0340
17400TIP3    H173691   2.433   0.483  16.749 -0.3367  2.1603 -1.1380
17400TIP3    H273692   2.368   0.586  16.838  1.0978  0.9202  1.4055
17401TIP3   OH273693   3.289   3.784   5.959  1.2038  0.2593 -0.0958
17401TIP3    H173694   3.297   3.708   6.017  0.6974 -0.6359 -1.1914
17401TIP3    H273695   3.200   3.780   5.926  1.6901  0.3902 -1.4467
17402TIP3   OH273696   5.721   4.052   5.167  0.0845  0.0282  0.0046
17402TIP3    H173697   5.733   4.091   5.080  1.0888  0.8391  0.4979
17402TIP3    H273698   5.747   4.121   5.228 -0.0413 -0.7423  0.9376
17403TIP3   OH273699   1.166   4.702   3.111 -0.2778 -0.2782 -0.2396
17403TIP3    H173700   1.198   4.672   3.026 -1.0283  0.6522 -0.8581
17403TIP3    H273701   1.101   4.769   3.090 -1.7165 -1.2575  1.0412
17404TIP3   OH273702   3.525   6.171   4.852 -0.2854 -0.2443 -0.0785
17404TIP3    H173703   3.486   6.240   4.798 -0.2087 -0.0221  0.1497
17404TIP3    H273704   3.576   6.218   4.918 -0.0291 -0.5240 -0.0770
17405TIP3   OH273705   3.350   0.311   2.032 -0.1556  0.2931 -0.2192
17405TIP3    H173706   3.436   0.343   2.059  0.0904 -1.1110  0.7048
17405TIP3    H273707   3.367   0.258   1.955 -0.0950 -0.5470  0.3654
17406TIP3   OH273708   3.066   0.472   1.838 -0.0763 -0.1843  0.1174
17406TIP3    H173709   3.009   0.396   1.855 -0.5667  0.0055 -0.6485
17406TIP3    H273710   3.010   0.548   1.855  0.2793 -0.0007  0.4483
17407TIP3   OH273711   1.366   4.743   0.925  0.3983 -0.0542  0.1333
17407TIP3    H173712   1.376   4.659   0.970  0.0739  0.0473  0.3943
17407TIP3    H273713   1.453   4.783   0.931  0.1750  0.2800  1.3235
17408TIP3   OH273714   5.232   4.322  13.730  0.2964 -0.1247  0.1442
17408TIP3    H173715   5.141   4.324  13.759 -0.4328  0.3652 -2.0809
17408TIP3    H273716   5.234   4.254  13.663  1.6296 -0.2885  0.3431
17409TIP3   OH273717   2.704   4.268   1.603  0.4080  0.3375 -0.4622
17409TIP3    H173718   2.750   4.249   1.685 -0.7675  1.4471  0.4725
17409TIP3    H273719   2.623   4.218   1.608 -0.0914  1.1366 -0.5291
17410TIP3   OH273720   5.805   6.575   4.648  0.1870 -0.1582 -0.1351
17410TIP3    H173721   5.792   6.560   4.555 -1.4541 -0.2002  0.0934
17410TIP3    H273722   5.717   6.585   4.684  0.8123  0.1134  1.3678
17411TIP3   OH273723   6.740   2.867   4.294 -0.3772 -0.1700  0.3312
17411TIP3    H173724   6.708   2.936   4.351 -1.9442 -0.3061 -0.3552
17411TIP3    H273725   6.705   2.889   4.208  0.1770 -1.1253 -0.1463
17412TIP3   OH273726   5.063   5.930   1.088  1.2484  0.6705 -0.9818
17412TIP3    H173727   5.126   5.890   1.028  1.6873 -0.9584  0.5070
17412TIP3    H273728   5.010   5.856   1.118  1.3612  1.3747  1.0039
17413TIP3   OH273729   5.742   2.613   0.158 -0.1241  0.7495  0.1377
17413TIP3    H173730   5.820   2.669   0.166  2.4992 -2.5871 -0.9813
17413TIP3    H273731   5.738   2.591   0.065 -1.6124 -0.2500  0.4200
17414TIP3   OH273732   0.201   5.475  13.018 -0.2473  0.1847 -0.2915
17414TIP3    H173733   0.256   5.553  13.015 -0.1513  0.1032 -0.7645
17414TIP3    H273734   0.119   5.501  12.978 -0.7585  0.4600  0.9258
17415TIP3   OH273735   3.483   6.146  14.113 -0.3272  0.6763  0.2181
17415TIP3    H173736   3.434   6.153  14.031  1.4529 -0.7832 -1.0144
17415TIP3    H273737   3.568   6.109  14.088  0.0590 -0.3481  2.7861
17416TIP3   OH273738   5.136   1.180  13.393 -0.1739  0.3095  0.2751
17416TIP3    H173739   5.103   1.244  13.330 -2.3707 -2.5974 -1.6865
17416TIP3    H273740   5.058   1.145  13.435  0.6476 -3.2005 -0.9070
17417TIP3   OH273741   1.546   2.810  12.807 -0.0440 -0.3264  0.1325
17417TIP3    H173742   1.529   2.783  12.897  2.3355  0.1745  0.7675
17417TIP3    H273743   1.460   2.807  12.764 -1.1453 -0.8845  2.3130
17418TIP3   OH273744   0.635   3.979  16.256  0.0686  0.1133 -0.7398
17418TIP3    H173745   0.540   3.969  16.243  0.1879 -1.3790 -0.4727
17418TIP3    H273746   0.650   3.953  16.347  0.5784  1.4960 -0.4120
17419TIP3   OH273747   1.008   6.541   1.504 -0.4713  0.2422  0.7857
17419TIP3    H173748   0.994   6.540   1.599 -1.7177  0.2848  0.6142
17419TIP3    H273749   1.072   6.610   1.490 -1.0204  0.9093  1.5049
17420TIP3   OH273750   3.758   1.200   0.037  0.0284 -0.8590  0.0330
17420TIP3    H173751   3.848   1.230   0.020  0.1810 -1.2909  0.0730
17420TIP3    H273752   3.767   1.133   0.104 -0.0455 -2.6637 -1.7058
17421TIP3   OH273753   4.261   2.062   4.636 -0.9181 -0.0984 -0.0809
17421TIP3    H173754   4.317   2.078   4.559  0.4173  2.6248  1.3850
17421TIP3    H273755   4.182   2.112   4.618 -1.4443 -1.0809 -0.5509
17422TIP3   OH273756   1.778   0.835   3.866 -0.4832 -0.0950  0.5172
17422TIP3    H173757   1.839   0.785   3.920 -1.1759 -1.1687  0.3140
17422TIP3    H273758   1.728   0.769   3.819  0.0501  0.8137 -1.3885
17423TIP3   OH273759   2.022   5.144  11.716  0.2389  0.5192  0.8705
17423TIP3    H173760   2.087   5.183  11.657 -0.7897  1.4772  0.3723
17423TIP3    H273761   1.945   5.199  11.707 -0.8289 -0.9232  1.0664
17424TIP3   OH273762   5.101   2.851  14.956  0.9079 -0.0192 -0.1101
17424TIP3    H173763   5.134   2.766  14.926 -2.6842 -1.8617  0.8941
17424TIP3    H273764   5.054   2.887  14.881 -0.6030 -0.5906  0.5453
17425TIP3   OH273765   0.073   0.411   4.566 -0.4499 -0.1286  0.1850
17425TIP3    H173766   0.058   0.380   4.655  0.5220 -0.2699  0.2992
17425TIP3    H273767   0.167   0.402   4.552 -0.2391  2.1447 -0.0053
17426TIP3   OH273768   0.738   5.273  16.134  0.3424  0.5004  0.0630
17426TIP3    H173769   0.793   5.195  16.125 -1.5216 -0.7342 -0.7499
17426TIP3    H273770   0.766   5.312  16.217  0.3673 -1.7741  1.1497
17427TIP3   OH273771   4.350   2.882  15.436 -0.5653 -0.2740 -0.0998
17427TIP3    H173772   4.343   2.977  15.445 -1.4258 -0.3589  0.1831
17427TIP3    H273773   4.323   2.864  15.346 -0.1365 -0.2265 -0.2393
17428TIP3   OH273774   6.397   3.566  10.695  0.5979  0.5636 -0.4764
17428TIP3    H173775   6.303   3.548  10.703  0.5239  1.2793  0.3032
17428TIP3    H273776   6.417   3.549  10.603  0.4802 -3.2365  0.1225
17429TIP3   OH273777   1.290   2.715  16.212  0.3540  0.0983  0.7297
17429TIP3    H173778   1.212   2.660  16.208 -0.6741  1.6085 -0.8095
17429TIP3    H273779   1.314   2.728  16.120 -1.0272  4.3831  0.8818
17430TIP3   OH273780   4.433   0.295   3.492 -0.6490  0.0102  0.6007
17430TIP3    H173781   4.344   0.317   3.467 -0.1142 -0.6024 -1.9604
17430TIP3    H273782   4.442   0.202   3.472 -0.1768 -0.5530  3.1561
17431TIP3   OH273783   3.597   2.013   2.137  0.4115 -0.1170  0.0542
17431TIP3    H173784   3.517   2.053   2.170  1.0405  1.8389 -0.6825
17431TIP3    H273785   3.631   2.076   2.073  1.9710 -1.4022 -0.4455
17432TIP3   OH273786   5.381   1.646  12.169  0.2737  0.0522  0.3468
17432TIP3    H173787   5.429   1.575  12.127  2.8105 -0.8885  4.5005
17432TIP3    H273788   5.429   1.725  12.144  1.7979 -0.4982  1.4437
17433TIP3   OH273789   5.116   2.127  11.138  0.1418  0.3240  0.2540
17433TIP3    H173790   5.155   2.182  11.207 -1.8503  2.6408 -0.3966
17433TIP3    H273791   5.104   2.186  11.064 -1.0076 -1.2953 -0.8857
17434TIP3   OH273792   1.353   0.352   6.126  0.6518  0.7086 -0.5165
17434TIP3    H173793   1.387   0.397   6.204  0.7697 -0.3313  0.0503
17434TIP3    H273794   1.316   0.271   6.160 -0.2929  0.7514 -1.4280
17435TIP3   OH273795   0.864   6.165  14.076 -0.7300 -0.0185  0.0019
17435TIP3    H173796   0.862   6.117  14.159 -2.2890  1.0503  0.6013
17435TIP3    H273797   0.824   6.250  14.096  0.5440  0.9500 -1.4139
17436TIP3   OH273798   1.706   6.409  15.530 -0.1804 -0.0986 -0.0624
17436TIP3    H173799   1.749   6.325  15.517  0.6365  0.4850 -1.2320
17436TIP3    H273800   1.648   6.418  15.454 -1.5246 -0.3699  0.9216
17437TIP3   OH273801   4.510   0.827   5.442  0.3546  0.1376  0.0826
17437TIP3    H173802   4.584   0.770   5.422 -0.2388 -0.7435  0.3451
17437TIP3    H273803   4.447   0.809   5.372  0.0348  0.2323  0.3460
17438TIP3   OH273804   0.906   4.286   2.285  0.2057 -0.0505  0.0514
17438TIP3    H173805   0.983   4.340   2.265  0.9530 -1.3953 -0.7834
17438TIP3    H273806   0.915   4.266   2.378  1.4221 -1.0300 -0.2582
17439TIP3   OH273807   5.782   6.566   3.301  0.3415 -0.4549  0.0806
17439TIP3    H173808   5.843   6.633   3.331 -0.7639 -0.8639  3.4043
17439TIP3    H273809   5.701   6.583   3.348 -1.0531 -2.0416 -1.6509
17440TIP3   OH273810   1.846   0.593   5.008  0.3146  0.0848  0.4760
17440TIP3    H173811   1.771   0.577   4.951 -2.0509  1.2373  3.1024
17440TIP3    H273812   1.850   0.688   5.016  2.3048  0.0450  0.0640
17441TIP3   OH273813   4.772   5.667   5.352  0.2037 -0.3150 -0.1389
17441TIP3    H173814   4.683   5.700   5.365  0.1353 -0.5811  0.0782
17441TIP3    H273815   4.827   5.745   5.350 -0.3420  0.0462 -2.8989
17442TIP3   OH273816   5.873   4.938  15.495  0.2126 -0.2612  0.7206
17442TIP3    H173817   5.923   4.861  15.469  0.3552  0.0126  0.1908
17442TIP3    H273818   5.845   4.978  15.413  1.0812  0.8747  0.9548
17443TIP3   OH273819   1.051   4.702   1.047 -0.6021  0.1834  0.1265
17443TIP3    H173820   1.071   4.759   0.973 -1.0317 -0.0068 -0.1425
17443TIP3    H273821   0.977   4.648   1.016 -0.4504 -0.2489  0.5111
17444TIP3   OH273822   2.263   6.798  14.488 -0.2916  0.2070  0.5677
17444TIP3    H173823   2.233   6.721  14.438 -1.2398  0.9036  0.0419
17444TIP3    H273824   2.330   6.764  14.547  1.2325 -0.5577 -1.5527
17445TIP3   OH273825   2.488   2.573  17.112 -0.3425 -0.0921  0.2797
17445TIP3    H173826   2.558   2.629  17.145  0.4309 -2.1562  2.2280
17445TIP3    H273827   2.524   2.485  17.113 -2.7785 -1.1333  0.7877
17446TIP3   OH273828   5.231   5.856   3.183  0.6043  0.4916 -0.1383
17446TIP3    H173829   5.147   5.819   3.210 -0.2153  1.2162 -1.6924
17446TIP3    H273830   5.279   5.781   3.147  0.8806 -0.0467  1.3152
17447TIP3   OH273831   3.178   2.115   3.279  0.0509 -0.0130  0.3352
17447TIP3    H173832   3.146   2.121   3.369  1.7919  0.7415  0.9386
17447TIP3    H273833   3.163   2.202   3.242  2.9704  0.9325  1.2155
17448TIP3   OH273834   3.521   5.114   3.409 -0.2961  0.1727 -0.6705
17448TIP3    H173835   3.476   5.074   3.334  0.7053 -1.0769 -0.6338
17448TIP3    H273836   3.453   5.123   3.475 -1.3238  1.8553 -1.9364
17449TIP3   OH273837   5.697   3.948  16.980  0.2868  0.1317 -0.0508
17449TIP3    H173838   5.743   3.910  17.054 -1.2355 -0.3653  0.6602
17449TIP3    H273839   5.623   3.995  17.018 -1.1300 -1.0193 -1.3098
17450TIP3   OH273840   3.143   3.300   2.819  0.6419  0.2803  0.2249
17450TIP3    H173841   3.222   3.346   2.791  0.4369  0.3682 -0.2116
17450TIP3    H273842   3.078   3.319   2.751  0.5192 -0.5618  0.0963
17451TIP3   OH273843   4.583   1.494  13.194  0.4510 -0.3814  0.1371
17451TIP3    H173844   4.600   1.575  13.241  0.8981 -0.2872 -0.1790
17451TIP3    H273845   4.621   1.509  13.107 -0.3968 -0.5342 -0.2588
17452TIP3   OH273846   2.024   3.278   3.532  0.7793  0.2428  0.0171
17452TIP3    H173847   1.951   3.335   3.554  0.2085 -0.6069  0.3531
17452TIP3    H273848   2.089   3.336   3.491  0.3380  1.1760  0.6276
17453TIP3   OH273849   0.838   2.290  13.259 -0.0077 -0.9224 -0.4849
17453TIP3    H173850   0.764   2.253  13.212 -0.4624 -0.7437  0.0732
17453TIP3    H273851   0.822   2.266  13.351 -0.4133  0.7788 -0.0809
17454TIP3   OH273852   1.522   6.673   1.986  0.2504  0.2305 -0.2027
17454TIP3    H173853   1.563   6.754   2.014  1.1547 -0.1148 -0.4905
17454TIP3    H273854   1.487   6.692   1.899 -0.3150  0.5621  0.0945
17455TIP3   OH273855   3.260   3.265  15.427  0.0344 -0.4365  0.7181
17455TIP3    H173856   3.231   3.239  15.340 -1.1461  1.9926  0.3547
17455TIP3    H273857   3.355   3.253  15.426  0.0993  0.1443 -1.1153
17456TIP3   OH273858   4.712   2.125   1.420 -0.3914 -0.0920 -0.4962
17456TIP3    H173859   4.669   2.171   1.492 -2.0104 -0.4246 -1.2381
17456TIP3    H273860   4.691   2.177   1.342  2.7196  1.2076 -0.5763
17457TIP3   OH273861   4.508   1.430  12.064  0.2178 -0.3093  0.5549
17457TIP3    H173862   4.552   1.478  12.135  0.4686 -0.5594  0.5701
17457TIP3    H273863   4.531   1.338  12.080  0.6677 -0.3170 -0.1296
17458TIP3   OH273864   2.972   5.570   1.046  0.1984 -0.5795 -0.2381
17458TIP3    H173865   3.066   5.585   1.057  0.2035 -1.4214  0.8250
17458TIP3    H273866   2.964   5.476   1.032 -0.6275 -0.7059  1.0999
17459TIP3   OH273867   4.880   2.031  10.695  0.5923  0.4595 -0.7289
17459TIP3    H173868   4.815   2.099  10.714  0.2633  0.0669 -0.4308
17459TIP3    H273869   4.828   1.954  10.674  0.8825 -0.6786  2.3782
17460TIP3   OH273870   6.454   2.550   1.837  0.0649 -0.6493  0.5377
17460TIP3    H173871   6.547   2.571   1.846  0.7853 -2.4615 -2.0487
17460TIP3    H273872   6.413   2.633   1.814  1.3479 -0.1896 -0.1549
17461TIP3   OH273873   3.551   4.485  12.250 -0.3111 -0.1914  0.3559
17461TIP3    H173874   3.635   4.506  12.290 -0.2447 -0.5808  0.4149
17461TIP3    H273875   3.548   4.539  12.171  0.1172 -0.3970  0.2017
17462TIP3   OH273876   1.786   3.356  14.111  0.0090 -0.3592 -0.0308
17462TIP3    H173877   1.723   3.368  14.039  1.0094  1.4426 -0.6304
17462TIP3    H273878   1.857   3.306  14.072 -0.1052 -0.6286  0.1039
17463TIP3   OH273879   1.652   0.404   2.794 -0.5783 -0.3026  0.0938
17463TIP3    H173880   1.629   0.312   2.804 -2.6605 -0.0217 -1.7058
17463TIP3    H273881   1.681   0.411   2.703 -2.6806  1.2409 -0.4962
17464TIP3   OH273882   0.977   3.913   1.995  0.2270  0.2464  0.0642
17464TIP3    H173883   0.927   3.838   1.965 -0.5462  1.9200 -3.0002
17464TIP3    H273884   1.025   3.880   2.071 -1.7633 -2.7126  0.1456
17465TIP3   OH273885   4.929   0.594  11.152  0.7776 -0.0673 -0.4530
17465TIP3    H173886   4.991   0.524  11.134 -0.1093 -0.7791 -0.7926
17465TIP3    H273887   4.843   0.553  11.144  0.2794  0.3992  2.0877
17466TIP3   OH273888   0.460   6.724  15.110 -0.0194  0.3695  0.2147
17466TIP3    H173889   0.545   6.765  15.102 -0.4299  0.7904 -2.2572
17466TIP3    H273890   0.479   6.631  15.118  0.6481  0.1963 -2.6905
17467TIP3   OH273891   2.388   3.385  17.061  0.1044 -0.1155  0.0594
17467TIP3    H173892   2.394   3.468  17.108  0.4713 -0.0715 -0.0691
17467TIP3    H273893   2.438   3.399  16.981  0.3797 -0.5402  0.1559
17468TIP3   OH273894   1.315   3.291  13.208  0.0387 -0.0363  0.0079
17468TIP3    H173895   1.390   3.240  13.239 -0.2890  0.2931  1.3764
17468TIP3    H273896   1.246   3.227  13.195 -0.3406  0.0039  1.6249
17469TIP3   OH273897   6.816   0.305   0.631 -0.0846 -0.6453 -0.3075
17469TIP3    H173898   6.818   0.268   0.543 -0.4244 -1.1404 -0.1092
17469TIP3    H273899   6.874   0.381   0.627  0.4995 -1.1094 -0.7635
17470TIP3   OH273900   4.326   0.927   2.011 -0.3857 -0.5116  0.4090
17470TIP3    H173901   4.305   1.002   2.066 -1.6355 -1.0137  0.6201
17470TIP3    H273902   4.251   0.868   2.020  1.1551 -2.3927  1.2899
17471TIP3   OH273903   3.031   0.818   2.048  0.1453 -0.9382 -0.1121
17471TIP3    H173904   2.988   0.779   1.972  0.5877  0.8365 -1.2681
17471TIP3    H273905   2.986   0.901   2.062  1.4813 -0.2647  0.2594
17472TIP3   OH273906   0.839   6.700   0.839  0.3735 -0.4910  0.2043
17472TIP3    H173907   0.756   6.654   0.827  0.4745 -0.5328 -0.3806
17472TIP3    H273908   0.895   6.637   0.883 -0.1227 -0.2191  1.2291
17473TIP3   OH273909   6.442   3.536   5.001 -0.4035 -0.1884 -0.4188
17473TIP3    H173910   6.369   3.596   4.991  0.8008  1.6341  1.3452
17473TIP3    H273911   6.514   3.591   5.034  1.1283 -2.3156 -0.1184
17474TIP3   OH273912   3.103   6.792   3.485  0.1924  0.0219 -0.2427
17474TIP3    H173913   3.181   6.766   3.535 -0.2136  2.7822  1.9025
17474TIP3    H273914   3.036   6.728   3.511  1.2977 -1.4559 -0.9558
17475TIP3   OH273915   0.901   2.142  15.299 -0.4435 -0.2289 -1.0315
17475TIP3    H173916   0.846   2.074  15.337  1.0470 -1.6840 -1.4409
17475TIP3    H273917   0.945   2.100  15.226 -1.7016  1.9838 -3.1319
17476TIP3   OH273918   4.803   6.675  15.265  0.4316 -0.2839 -0.0389
17476TIP3    H173919   4.788   6.656  15.358 -1.7196 -0.6546 -0.4243
17476TIP3    H273920   4.816   6.589  15.225  4.0742  0.0423  0.3114
17477TIP3   OH273921   4.097   4.435   2.500 -0.5749  0.0218 -0.0865
17477TIP3    H173922   4.053   4.387   2.569 -0.9541  0.8408  0.2547
17477TIP3    H273923   4.047   4.415   2.421 -1.6497  1.0433  0.3191
17478TIP3   OH273924   1.575   2.537   6.263  0.1755  0.3606 -0.5114
17478TIP3    H173925   1.527   2.455   6.269  0.6316  0.2668  2.5661
17478TIP3    H273926   1.509   2.602   6.240 -0.9943 -0.1809  1.2265
17479TIP3   OH273927   3.786   5.162   1.049  0.3768  0.5465 -0.3689
17479TIP3    H173928   3.749   5.213   0.977  1.2015  2.0656  0.2657
17479TIP3    H273929   3.733   5.185   1.125 -0.9516 -1.6034 -0.6003
17480TIP3   OH273930   5.829   5.396   3.598 -0.4942 -0.1652 -0.5392
17480TIP3    H173931   5.858   5.402   3.507 -0.7224  0.7476 -0.5568
17480TIP3    H273932   5.884   5.328   3.636 -1.2853 -1.4835 -1.6968
17481TIP3   OH273933   0.677   0.448  11.061 -0.3766 -0.2912  0.0060
17481TIP3    H173934   0.678   0.527  11.007 -0.5514 -0.6568 -0.5356
17481TIP3    H273935   0.759   0.404  11.041 -0.1929 -0.1539  0.4513
17482TIP3   OH273936   2.981   3.748  14.840  0.2297  0.2563  0.1293
17482TIP3    H173937   3.014   3.748  14.930 -0.4454  1.8678  0.3875
17482TIP3    H273938   3.028   3.676  14.797  1.3308  0.1599  1.4724
17483TIP3   OH273939   6.505   4.330   4.461 -0.4660  0.4019  0.0978
17483TIP3    H173940   6.585   4.378   4.480  0.0087 -0.2557 -0.2295
17483TIP3    H273941   6.442   4.363   4.525 -0.2335  1.6582 -0.2973
17484TIP3   OH273942   1.081   4.471  14.771  0.7190  0.3385  0.3010
17484TIP3    H173943   1.020   4.401  14.794 -0.8253  1.9395  1.2114
17484TIP3    H273944   1.083   4.472  14.676  0.8631 -1.0289  0.2813
17485TIP3   OH273945   4.492   4.337   3.650 -0.3465  0.7526  0.5231
17485TIP3    H173946   4.576   4.307   3.684 -0.7608  1.4681  2.2431
17485TIP3    H273947   4.444   4.257   3.631 -0.2652  0.3132  2.0759
17486TIP3   OH273948   3.634   0.873  11.540  0.1352 -0.2077  0.4724
17486TIP3    H173949   3.646   0.873  11.635  0.1907  0.6392  0.4726
17486TIP3    H273950   3.691   0.943  11.509  1.3522 -1.5295 -0.3583
17487TIP3   OH273951   1.193   2.505   4.007 -0.4862 -0.2517 -0.2535
17487TIP3    H173952   1.187   2.437   3.941  2.8198 -0.1427 -0.7447
17487TIP3    H273953   1.190   2.458   4.091  0.7332 -0.9177 -0.5764
17488TIP3   OH273954   0.503   6.551  11.608  0.4558 -0.7786  0.0672
17488TIP3    H173955   0.513   6.599  11.690 -0.2676 -0.9378  0.2493
17488TIP3    H273956   0.592   6.544  11.574  0.5458  0.8022 -0.0307
17489TIP3   OH273957   0.367   0.304   5.613  0.1503  0.6316 -0.4429
17489TIP3    H173958   0.322   0.226   5.583 -0.7829  0.1976  1.9901
17489TIP3    H273959   0.454   0.273   5.638  0.2328  0.6287 -0.7268
17490TIP3   OH273960   2.494   0.802  15.882 -0.0452  0.2206  0.1180
17490TIP3    H173961   2.573   0.855  15.895 -0.8480  1.6848 -0.8798
17490TIP3    H273962   2.517   0.716  15.917  1.7086  0.8725  0.6052
17491TIP3   OH273963   4.468   6.202  14.473 -0.2398 -0.5734 -0.1954
17491TIP3    H173964   4.422   6.187  14.390 -1.2739 -0.9777  0.4344
17491TIP3    H273965   4.523   6.278  14.456 -1.0536 -0.1450 -1.0200
17492TIP3   OH273966   1.779   6.113  12.076 -0.1199  0.3058  0.2197
17492TIP3    H173967   1.688   6.131  12.100 -0.0700  1.5171 -0.4474
17492TIP3    H273968   1.786   6.143  11.985  1.1970  1.1073  0.5716
17493TIP3   OH273969   0.610   5.464   1.266 -0.0654 -0.4571 -0.2868
17493TIP3    H173970   0.615   5.455   1.171 -1.1614 -0.1855 -0.3864
17493TIP3    H273971   0.551   5.393   1.293  0.9087 -1.0602  0.2902
17494TIP3   OH273972   1.918   2.327   0.741  0.2208 -0.2946  0.2939
17494TIP3    H173973   1.929   2.398   0.805  1.8414  0.0582 -0.3648
17494TIP3    H273974   1.896   2.250   0.793 -1.6310  0.6881  1.0185
17495TIP3   OH273975   0.279   2.813  12.101  0.3307 -0.1572  0.2234
17495TIP3    H173976   0.275   2.721  12.128 -1.3540  0.0607  0.7963
17495TIP3    H273977   0.227   2.817  12.021  2.1007 -0.0659 -0.9501
17496TIP3   OH273978   0.829   5.159   4.790  0.5047  0.0045  0.0805
17496TIP3    H173979   0.828   5.205   4.705 -0.2396  1.4225  0.8416
17496TIP3    H273980   0.922   5.143   4.807  0.6188 -1.0155 -1.3748
17497TIP3   OH273981   4.750   0.930   3.367 -0.1088  0.7443 -0.2661
17497TIP3    H173982   4.726   1.020   3.348  2.9290  1.3746 -1.4001
17497TIP3    H273983   4.765   0.890   3.281 -1.4948 -0.8797  0.2120
17498TIP3   OH273984   2.741   1.403  16.486 -0.3595 -0.1629 -0.1766
17498TIP3    H173985   2.683   1.394  16.411  0.5539  0.4316 -0.9547
17498TIP3    H273986   2.771   1.313  16.504 -0.8450 -0.3512 -0.3035
17499TIP3   OH273987   6.413   1.403   0.262 -0.3657 -0.2257 -0.7868
17499TIP3    H173988   6.403   1.308   0.253  1.0039 -0.4093 -0.3820
17499TIP3    H273989   6.507   1.417   0.271 -0.8420  0.8045  3.5548
17500TIP3   OH273990   3.804   0.113  16.614  0.8202  0.2503  0.4841
17500TIP3    H173991   3.785   0.039  16.556  1.6649  0.6652 -0.3540
17500TIP3    H273992   3.868   0.078  16.676  2.6253  0.7399 -1.0420
17501TIP3   OH273993   1.909   1.433  16.740 -0.3789  0.0145 -0.4710
17501TIP3    H173994   1.849   1.478  16.681 -0.9176 -0.3018 -0.1615
17501TIP3    H273995   1.895   1.474  16.825 -0.3026 -0.1993 -0.3542
17502TIP3   OH273996   2.289   2.184   1.164  0.3491 -0.6293 -0.1845
17502TIP3    H173997   2.306   2.091   1.178 -0.0098 -0.5577  0.7653
17502TIP3    H273998   2.352   2.228   1.220  0.9129 -0.2819 -1.0764
17503TIP3   OH273999   3.094   2.359   4.369  0.1655  0.0006 -0.3282
17503TIP3    H174000   3.170   2.322   4.415 -1.2650 -0.4653  1.7229
17503TIP3    H274001   3.086   2.447   4.406 -0.4722 -0.0706 -0.3007
17504TIP3   OH274002   2.787   2.561  12.505  0.3486  0.2470 -0.0826
17504TIP3    H174003   2.831   2.507  12.439 -0.9809  0.5275 -1.2415
17504TIP3    H274004   2.842   2.554  12.583  1.9933 -0.0642 -1.2364
17505TIP3   OH274005   4.246   5.362  15.166  0.4736  0.3129 -0.1354
17505TIP3    H174006   4.280   5.341  15.079  1.0624 -2.6012  0.7537
17505TIP3    H274007   4.323   5.380  15.219  0.2741 -0.5496  0.4471
17506TIP3   OH274008   2.127   2.500   2.676  0.3957  0.2754 -0.3474
17506TIP3    H174009   2.114   2.551   2.756  1.6465  0.8444 -0.4994
17506TIP3    H274010   2.121   2.409   2.704 -0.5320  0.4753  0.1484
17507TIP3   OH274011   0.407   3.845  16.320 -0.0169 -0.0175  0.0473
17507TIP3    H174012   0.351   3.834  16.243 -1.7058 -0.3200  1.2695
17507TIP3    H274013   0.370   3.784  16.384  2.6510 -1.2960  0.4025
17508TIP3   OH274014   4.954   2.007   1.347 -0.2075  0.0847  0.0268
17508TIP3    H174015   4.987   1.978   1.431 -0.5374 -2.0176 -0.5430
17508TIP3    H274016   4.897   2.082   1.367  0.7908  0.4555  1.5066
17509TIP3   OH274017   1.653   3.640   5.491  0.3586  0.1731  0.2708
17509TIP3    H174018   1.684   3.597   5.572  0.3524  0.6303  0.5162
17509TIP3    H274019   1.616   3.723   5.521  1.1500  0.7341 -0.2975
17510TIP3   OH274020   3.063   4.531  16.185 -0.3262  0.2322  0.1334
17510TIP3    H174021   2.985   4.492  16.146 -0.2718 -0.7874  1.0346
17510TIP3    H274022   3.135   4.502  16.128 -0.3083 -0.8580  0.6912
17511TIP3   OH274023   5.427   3.093   4.191 -0.3164 -0.1101  0.0964
17511TIP3    H174024   5.351   3.036   4.179 -0.2817  0.4726 -3.2547
17511TIP3    H274025   5.498   3.032   4.213 -1.3646 -0.8145  1.6249
17512TIP3   OH274026   2.237   0.582   0.183  0.0976  0.7335  0.1626
17512TIP3    H174027   2.145   0.606   0.196 -0.0135  1.8534 -2.4297
17512TIP3    H274028   2.257   0.524   0.257 -2.6297  0.6019  0.8590
17513TIP3   OH274029   5.826   4.771   2.068  0.6931  0.1545  0.3164
17513TIP3    H174030   5.904   4.796   2.117 -0.2564  0.5807  1.6522
17513TIP3    H274031   5.756   4.768   2.134 -0.8922  1.9921 -1.2222
17514TIP3   OH274032   6.735   4.723   5.626 -0.6379 -0.2398  0.0165
17514TIP3    H174033   6.651   4.766   5.609 -0.8840 -0.0701  1.6015
17514TIP3    H274034   6.784   4.786   5.680  0.4932 -0.3619 -0.8501
17515TIP3   OH274035   1.774   1.666  11.976 -0.2214  0.1452  1.1056
17515TIP3    H174036   1.835   1.698  12.042  0.3342  1.4367  0.0042
17515TIP3    H274037   1.779   1.731  11.906 -0.9396 -1.1013 -0.1186
17516TIP3   OH274038   1.915   2.143   4.242  1.1288  0.0562  0.6282
17516TIP3    H174039   1.865   2.224   4.252  1.8996  0.4694  1.1897
17516TIP3    H274040   2.004   2.172   4.222  0.8818 -0.6772 -1.7886
17517TIP3   OH274041   2.421   1.172   0.964 -0.2666 -0.2908 -0.0459
17517TIP3    H174042   2.430   1.091   1.014 -1.8531  0.6836  1.8476
17517TIP3    H274043   2.408   1.142   0.874  1.2372 -2.0762  0.2843
17518TIP3   OH274044   2.212   3.103   5.909  0.2007  0.1352  0.1064
17518TIP3    H174045   2.242   3.056   5.986 -0.3437  0.0638  0.2771
17518TIP3    H274046   2.123   3.132   5.931 -0.4585 -1.0100 -0.9822
17519TIP3   OH274047   6.772   3.340   3.618  0.2812 -0.1377  0.0250
17519TIP3    H174048   6.730   3.425   3.600 -1.0325 -0.5494  1.0847
17519TIP3    H274049   6.776   3.298   3.532 -0.7151  0.2714 -0.2417
17520TIP3   OH274050   0.017   5.033  10.728  0.2982 -0.1737 -0.7000
17520TIP3    H174051   0.096   4.985  10.751 -0.0434 -0.2432  0.3568
17520TIP3    H274052   0.010   5.101  10.794 -0.5936 -0.2486 -0.7033
17521TIP3   OH274053   1.684   0.004   6.673 -0.0181 -0.4162 -0.6087
17521TIP3    H174054   1.632   0.084   6.678  0.7318  0.0985 -1.0052
17521TIP3    H274055   1.641  -0.056   6.734 -0.8009  0.1593 -0.5875
17522TIP3   OH274056   2.759   0.585  14.813 -0.0274 -0.0554  0.0061
17522TIP3    H174057   2.793   0.673  14.801 -0.4424  0.2718  1.1041
17522TIP3    H274058   2.751   0.549  14.725  0.0357  1.0510 -0.4521
17523TIP3   OH274059   3.707   3.927  13.719 -0.4191  0.3610  0.0054
17523TIP3    H174060   3.794   3.889  13.704  0.6057  2.2758  0.8850
17523TIP3    H274061   3.665   3.926  13.633 -0.2194 -2.2069 -0.1011
17524TIP3   OH274062   2.622   3.725   4.649 -0.1481  0.2208 -0.0537
17524TIP3    H174063   2.559   3.694   4.714  0.7648 -1.8109 -0.0928
17524TIP3    H274064   2.670   3.795   4.694 -0.6107 -0.0563  0.8860
17525TIP3   OH274065   2.191   3.694  15.322 -0.0063 -0.6037 -0.5245
17525TIP3    H174066   2.181   3.658  15.234  0.9964 -4.8028  0.9299
17525TIP3    H274067   2.276   3.659  15.351 -0.7674 -0.0584  2.4342
17526TIP3   OH274068   0.471   1.667  17.044 -0.2531  0.1622 -0.0027
17526TIP3    H174069   0.442   1.737  16.985 -1.5668  0.1590  0.6096
17526TIP3    H274070   0.565   1.682  17.055 -0.0298  0.3121 -1.8801
17527TIP3   OH274071   5.764   4.275   4.755 -0.2239  0.5566 -0.2844
17527TIP3    H174072   5.733   4.188   4.777  0.7773  0.0590 -0.8301
17527TIP3    H274073   5.685   4.330   4.757 -1.0139 -0.5505 -0.9646
17528TIP3   OH274074   0.580   6.037   1.453  0.0072 -0.4775 -0.5860
17528TIP3    H174075   0.484   6.026   1.455  0.0002 -0.6957 -1.5333
17528TIP3    H274076   0.608   6.018   1.542 -0.8548 -0.2541 -0.2579
17529TIP3   OH274077   2.458   0.868  14.636 -0.0738 -0.0432 -0.0236
17529TIP3    H174078   2.506   0.803  14.584 -0.0982 -1.3057  1.4718
17529TIP3    H274079   2.396   0.907  14.574  1.0505 -0.2985 -1.3395
17530TIP3   OH274080   5.407   2.087   2.028 -0.4144  0.7809 -0.3519
17530TIP3    H174081   5.489   2.126   1.996 -0.1715 -1.2617 -2.3632
17530TIP3    H274082   5.430   2.050   2.113  1.3526 -1.4839 -1.7336
17531TIP3   OH274083   5.247   4.214  17.150  0.0344 -0.3574  0.0416
17531TIP3    H174084   5.193   4.194  17.073 -0.4206  2.5887 -0.4304
17531TIP3    H274085   5.183   4.226  17.221  0.3416 -0.9709  0.4296
17532TIP3   OH274086   5.891   2.416  11.512 -0.0236  0.8943 -0.2340
17532TIP3    H174087   5.947   2.465  11.572 -0.1742  0.2732  0.4173
17532TIP3    H274088   5.917   2.447  11.425  2.9263 -0.9738 -0.1021
17533TIP3   OH274089   2.505   0.762  13.778 -0.2435  0.3068 -0.0214
17533TIP3    H174090   2.501   0.853  13.809 -0.9309 -0.2535  1.5971
17533TIP3    H274091   2.599   0.742  13.776 -0.1290  0.7745  0.4612
17534TIP3   OH274092   3.270   3.320   3.884  0.0536  0.4718 -0.4009
17534TIP3    H174093   3.241   3.318   3.975 -1.1902  0.6677 -0.7869
17534TIP3    H274094   3.362   3.347   3.889 -0.1279  0.9112  0.7688
17535TIP3   OH274095   6.550   2.497  11.584 -0.3913 -0.5172  0.2931
17535TIP3    H174096   6.471   2.512  11.635 -1.6434 -2.8298 -0.8818
17535TIP3    H274097   6.521   2.502  11.493  1.7176  3.1216 -0.2719
17536TIP3   OH274098   1.705   6.682  12.409 -0.2379  0.1392 -0.5053
17536TIP3    H174099   1.640   6.612  12.401  1.5363 -1.3999 -1.9461
17536TIP3    H274100   1.765   6.668  12.336  0.1849  3.1816 -0.8086
17537TIP3   OH274101   0.443   1.301   4.586  0.5338 -0.1995  0.2626
17537TIP3    H174102   0.458   1.361   4.659  2.1871 -1.0379  0.6202
17537TIP3    H274103   0.358   1.260   4.606 -0.9048  2.3790 -0.2599
17538TIP3   OH274104   3.758   5.126   0.419 -0.5596 -0.6817 -0.3065
17538TIP3    H174105   3.794   5.072   0.490 -0.8890 -2.0506 -1.1497
17538TIP3    H274106   3.671   5.089   0.403 -0.6364 -0.1486 -1.1695
17539TIP3   OH274107   0.252   1.620  14.086  0.0014  0.5731 -0.1893
17539TIP3    H174108   0.313   1.559  14.044 -0.4523  0.3361 -0.5226
17539TIP3    H274109   0.266   1.703  14.041  0.7950  0.7705  0.4336
17540TIP3   OH274110   0.732   3.097   3.074  0.3433  0.2528 -0.1736
17540TIP3    H174111   0.687   3.014   3.055 -1.6660  1.0481  0.9344
17540TIP3    H274112   0.760   3.129   2.989 -1.3495 -0.2185 -0.9317
17541TIP3   OH274113   0.552   5.501  13.684  0.0764 -0.3132 -0.1549
17541TIP3    H174114   0.645   5.478  13.689  0.4912  1.1651 -0.7353
17541TIP3    H274115   0.549   5.575  13.624 -1.4800 -0.3209 -0.1071
17542TIP3   OH274116   5.004   0.216   4.729  0.0851 -0.1591 -0.3177
17542TIP3    H174117   4.974   0.214   4.820 -0.6340 -0.9074 -0.5679
17542TIP3    H274118   4.933   0.176   4.679  0.5544  0.0756 -1.1911
17543TIP3   OH274119   2.543   5.024  16.832  0.2229 -0.3279  0.5371
17543TIP3    H174120   2.486   4.950  16.813 -0.1209  0.5295 -1.9561
17543TIP3    H274121   2.625   4.984  16.864  0.2814 -1.8252 -1.3950
17544TIP3   OH274122   2.049   6.171   3.038 -0.7871  0.1063  0.0846
17544TIP3    H174123   2.132   6.128   3.057 -1.3717 -0.4177  1.5133
17544TIP3    H274124   2.064   6.216   2.954  0.9266  0.0268  0.3232
17545TIP3   OH274125   0.060   6.380   6.440 -0.4050  0.7093  0.6590
17545TIP3    H174126  -0.004   6.441   6.477  0.8281  1.0277  2.3408
17545TIP3    H274127   0.137   6.388   6.497 -0.3009 -2.5962  1.1023
17546TIP3   OH274128   0.077   0.022  17.137  0.6267  0.5872 -0.0725
17546TIP3    H174129   0.095   0.115  17.149 -1.2104  0.9845 -0.3026
17546TIP3    H274130   0.140  -0.022  17.195  1.8406  1.9349 -0.3365
17547TIP3   OH274131   3.365   5.959  10.545  0.2299  0.3783 -0.1547
17547TIP3    H174132   3.297   5.938  10.481  0.1413  1.5691 -0.4674
17547TIP3    H274133   3.324   5.941  10.630 -0.4954  1.0848 -0.3378
17548TIP3   OH274134   6.245   4.417  17.182 -0.3183  0.5564 -0.1591
17548TIP3    H174135   6.192   4.468  17.120  0.1847  0.9821 -0.2452
17548TIP3    H274136   6.335   4.424  17.148  0.4706  3.3437  2.2488
17549TIP3   OH274137   0.932   5.520   3.289  1.0857  0.3621 -0.0021
17549TIP3    H174138   0.945   5.556   3.201 -2.1165 -1.6737 -1.3977
17549TIP3    H274139   0.979   5.436   3.288 -0.1319 -0.3411 -0.3197
17550TIP3   OH274140   0.668   4.830  14.099  0.1831  0.0693  0.1251
17550TIP3    H174141   0.599   4.797  14.157 -0.1438  0.1024 -0.2378
17550TIP3    H274142   0.636   4.811  14.011  1.4611 -1.5327 -0.0198
17551TIP3   OH274143   4.260   0.133   4.310 -0.4266 -0.3598  0.2897
17551TIP3    H174144   4.327   0.182   4.358 -0.7418 -0.3275  0.7016
17551TIP3    H274145   4.193   0.114   4.375 -0.3398 -1.2867  0.1132
17552TIP3   OH274146   4.660   2.929  16.305  0.1906 -0.4681 -0.2294
17552TIP3    H174147   4.712   2.881  16.242  2.1587  1.5332 -0.1829
17552TIP3    H274148   4.588   2.967  16.253  1.7292  1.0691 -1.2842
17553TIP3   OH274149   5.888   5.083  14.441 -0.0536 -0.3683  0.0938
17553TIP3    H174150   5.937   5.136  14.503 -0.5103  1.4956 -1.0730
17553TIP3    H274151   5.798   5.082  14.475  0.1886 -1.3646  0.7154
17554TIP3   OH274152   2.608   1.140   5.276  0.2413 -0.0919  0.3091
17554TIP3    H174153   2.534   1.136   5.215 -0.4782  1.2934  1.0648
17554TIP3    H274154   2.567   1.147   5.363  1.2473  1.1220  0.7035
17555TIP3   OH274155   6.402   6.490   3.042  0.0730 -0.1625  0.1674
17555TIP3    H174156   6.431   6.405   3.077 -0.8499  0.1815  1.8261
17555TIP3    H274157   6.471   6.514   2.980  0.5658 -1.9162 -0.0131
17556TIP3   OH274158   1.675   5.597   2.204 -0.1121  0.2108  0.9286
17556TIP3    H174159   1.621   5.673   2.181 -1.7622 -0.9781  0.8193
17556TIP3    H274160   1.732   5.585   2.128 -1.4073 -0.0360 -0.0206
17557TIP3   OH274161   2.970   3.514  11.487  0.1302  0.1370  0.9483
17557TIP3    H174162   2.885   3.470  11.488  0.3150 -0.4103 -2.4702
17557TIP3    H274163   2.952   3.602  11.454  0.9580 -0.1602 -0.3175
17558TIP3   OH274164   2.571   3.286  11.465  0.0046 -0.2583  0.7110
17558TIP3    H174165   2.647   3.243  11.505 -0.0071  1.0098  2.1618
17558TIP3    H274166   2.602   3.373  11.440 -0.5233 -0.3419 -0.2453
17559TIP3   OH274167   1.363   2.897  16.718 -0.3665  0.2187 -0.7328
17559TIP3    H174168   1.319   2.823  16.678 -0.9513 -0.3630  0.9267
17559TIP3    H274169   1.389   2.865  16.805  0.2525  1.6389 -0.3843
17560TIP3   OH274170   6.288   6.333   4.082 -0.1708  0.4850  0.3491
17560TIP3    H174171   6.355   6.339   4.150  1.5106 -0.9943 -1.1105
17560TIP3    H274172   6.250   6.245   4.094  0.0828  0.2478 -0.5630
17561TIP3   OH274173   5.962   1.087  15.196 -0.4435  0.0575 -0.3879
17561TIP3    H174174   5.906   1.164  15.195  2.7715  2.5329 -0.4278
17561TIP3    H274175   5.949   1.048  15.282 -2.8455  0.0514 -0.7377
17562TIP3   OH274176   1.944   4.122   0.820 -0.0291  0.7339 -0.0163
17562TIP3    H174177   1.985   4.162   0.897 -2.1666  1.8575  0.5560
17562TIP3    H274178   2.005   4.053   0.794  0.2278 -0.3604  3.3271
17563TIP3   OH274179   2.922   1.805  12.750 -0.3198 -0.3942 -0.2118
17563TIP3    H174180   2.861   1.823  12.678 -0.3565  0.4188  0.0158
17563TIP3    H274181   2.897   1.718  12.782 -2.1790  0.4595  0.6983
17564TIP3   OH274182   4.324   3.924  13.083  0.0952  0.5786  0.4037
17564TIP3    H174183   4.356   3.993  13.024  3.5997 -0.3336  1.1010
17564TIP3    H274184   4.239   3.899  13.047 -0.6809  4.3228 -0.6429
17565TIP3   OH274185   3.092   5.852   5.902  0.3147 -0.0694 -0.3371
17565TIP3    H174186   3.186   5.858   5.919  0.2518  0.6351 -0.2111
17565TIP3    H274187   3.052   5.894   5.978 -0.0722  0.5247 -0.8648
17566TIP3   OH274188   0.507   4.689   4.096 -0.1296 -0.0308 -0.0126
17566TIP3    H174189   0.469   4.651   4.176 -1.3813 -3.1459 -1.9712
17566TIP3    H274190   0.446   4.663   4.026  0.9535  2.5672 -2.0136
17567TIP3   OH274191   5.906   5.496   0.395  0.3171 -0.3353  0.0402
17567TIP3    H174192   5.834   5.475   0.335  1.5279 -1.9421 -0.8919
17567TIP3    H274193   5.871   5.479   0.482 -1.1325  1.0329 -0.2578
17568TIP3   OH274194   2.639   5.147  17.125 -0.1446 -0.1086 -0.0730
17568TIP3    H174195   2.717   5.158  17.070  2.0914  1.5673  3.2725
17568TIP3    H274196   2.580   5.217  17.096  1.1260  0.9571 -0.1749
17569TIP3   OH274197   6.267   3.206   0.705  0.3732  0.2583 -0.2609
17569TIP3    H174198   6.234   3.276   0.761  0.0682 -1.4789  1.7952
17569TIP3    H274199   6.194   3.187   0.645 -0.4556  0.0247  0.7992
17570TIP3   OH274200   3.438   0.462  16.023 -0.2202  0.2640  0.1206
17570TIP3    H174201   3.523   0.470  15.980  0.0176 -0.3523  0.4783
17570TIP3    H274202   3.391   0.542  15.998  0.6825  0.8970  0.4133
17571TIP3   OH274203   4.815   1.674   4.158 -0.5759 -0.1588 -0.4369
17571TIP3    H174204   4.903   1.694   4.125 -0.8345  1.3314 -0.2370
17571TIP3    H274205   4.831   1.631   4.242 -0.0662  2.1298  0.6754
17572TIP3   OH274206   2.949   5.487   0.629  0.0921 -0.0669 -0.2425
17572TIP3    H174207   2.859   5.465   0.605  0.0723 -1.1864  0.7989
17572TIP3    H274208   2.999   5.473   0.549 -0.8667  1.9691 -1.2341
17573TIP3   OH274209   2.518   3.242  12.969  0.1667 -0.2364  0.1843
17573TIP3    H174210   2.489   3.323  13.012 -0.0198 -0.2573  0.0958
17573TIP3    H274211   2.462   3.174  13.006  0.7990 -0.4393  0.7996
17574TIP3   OH274212   4.500   2.855  11.460 -0.4024  0.4958  0.1440
17574TIP3    H174213   4.433   2.867  11.393 -1.5798 -0.6578  1.0976
17574TIP3    H274214   4.512   2.943  11.497 -0.0159  1.0635 -1.2902
17575TIP3   OH274215   0.743   5.497   0.126 -0.0510  0.1906 -0.1545
17575TIP3    H174216   0.728   5.425   0.064 -0.1232  0.1761 -0.1204
17575TIP3    H274217   0.827   5.477   0.167  0.7113  0.9639 -1.2977
17576TIP3   OH274218   0.614   1.095  10.958 -0.4008 -0.8101 -0.5064
17576TIP3    H174219   0.670   1.018  10.968 -1.1461 -1.4197 -1.0500
17576TIP3    H274220   0.595   1.122  11.048  0.0137 -1.1416 -0.3182
17577TIP3   OH274221   4.413   1.685  10.673 -0.2500 -0.1149 -0.1759
17577TIP3    H174222   4.360   1.661  10.749 -2.6199  1.0962 -1.4215
17577TIP3    H274223   4.489   1.626  10.678 -0.8340 -0.7071  2.5722
17578TIP3   OH274224   3.633   3.420  12.388  0.2161  0.0783 -0.2503
17578TIP3    H174225   3.558   3.472  12.359  0.6532  0.1858 -1.1921
17578TIP3    H274226   3.595   3.335  12.411 -0.0721 -0.2069 -1.6893
17579TIP3   OH274227   5.808   3.597   3.293 -0.1626  0.6822 -0.4179
17579TIP3    H174228   5.762   3.556   3.220  0.5340 -0.6819 -0.1073
17579TIP3    H274229   5.739   3.626   3.352 -0.6706  0.0444 -0.6997
17580TIP3   OH274230   2.380   2.684   5.095 -0.2724  0.5168  0.3621
17580TIP3    H174231   2.417   2.722   5.175 -3.2279  1.8665  1.1556
17580TIP3    H274232   2.416   2.595   5.091  1.2619  1.0330  2.2483
17581TIP3   OH274233   6.560   6.193  14.475 -0.2186 -0.1312 -0.1640
17581TIP3    H174234   6.624   6.203  14.405  2.0302  1.9927  2.0714
17581TIP3    H274235   6.494   6.260  14.458  0.6673  0.8078  0.0694
17582TIP3   OH274236   2.852   3.913  15.422  0.1307  0.0308  0.4653
17582TIP3    H174237   2.940   3.895  15.457 -0.5842 -2.6186  0.9558
17582TIP3    H274238   2.798   3.841  15.453 -2.5278  2.2084  1.1044
17583TIP3   OH274239   5.459   1.693  12.503 -0.1854  0.2300 -0.4091
17583TIP3    H174240   5.384   1.753  12.509 -1.6987 -1.4082 -2.4222
17583TIP3    H274241   5.531   1.749  12.473  0.0164  2.2533  3.4681
17584TIP3   OH274242   3.671   0.643  16.491 -0.4558 -0.1503  0.0004
17584TIP3    H174243   3.632   0.621  16.576 -1.6303 -2.0558 -1.0151
17584TIP3    H274244   3.686   0.559  16.449  1.5721  0.7026 -1.0763
17585TIP3   OH274245   6.473   6.201  11.463 -0.1961 -0.9769 -0.4416
17585TIP3    H174246   6.561   6.186  11.428 -0.9442 -1.7127 -2.0637
17585TIP3    H274247   6.422   6.232  11.388 -1.1170  0.3145  0.6863
17586TIP3   OH274248   2.926   3.539   1.655  0.2947 -0.0875 -0.5354
17586TIP3    H174249   2.895   3.581   1.575  0.8667  3.0090  0.7796
17586TIP3    H274250   2.883   3.587   1.726 -0.1505 -2.7156  1.0616
17587TIP3   OH274251   6.151   0.030   1.973 -0.1531 -0.0964  0.1692
17587TIP3    H174252   6.144  -0.060   1.940 -0.8093 -0.4636  1.2897
17587TIP3    H274253   6.243   0.041   1.994 -0.3247 -1.0447  1.4883
17588TIP3   OH274254   5.018   0.272   5.012 -0.2615 -0.3322  0.3689
17588TIP3    H174255   4.953   0.335   4.979 -0.9301 -1.3273 -0.2335
17588TIP3    H274256   5.076   0.325   5.067 -0.5960  0.8863 -0.4198
17589TIP3   OH274257   5.309   5.944   3.426  0.3398  0.0622  0.6138
17589TIP3    H174258   5.292   5.913   3.337 -0.5109  1.2525  0.3498
17589TIP3    H274259   5.268   5.879   3.483  2.0436 -1.4380  0.2000
17590TIP3   OH274260   4.259   2.277   3.145 -0.6308 -0.3137  0.3498
17590TIP3    H174261   4.256   2.185   3.121 -0.8092  0.1684 -1.6562
17590TIP3    H274262   4.206   2.284   3.224 -1.6062 -1.7266 -0.1675
17591TIP3   OH274263   3.616   3.918   6.311  0.1422  0.5386  0.2536
17591TIP3    H174264   3.629   3.979   6.384  2.6237 -0.7729  0.9699
17591TIP3    H274265   3.645   3.966   6.234  1.2317  0.6097  0.6954
17592TIP3   OH274266   0.964   4.420   1.523  0.1788  0.3499 -0.0487
17592TIP3    H174267   0.945   4.429   1.430  0.1788 -0.1116 -0.0941
17592TIP3    H274268   0.879   4.428   1.566 -0.1532 -1.6934 -0.2493
17593TIP3   OH274269   2.486   0.146  14.369  0.0085  0.3576 -0.1700
17593TIP3    H174270   2.420   0.164  14.302  0.0944 -1.6536 -0.8361
17593TIP3    H274271   2.479   0.051  14.384  1.4608  0.4395  1.1104
17594TIP3   OH274272   1.289   2.302  17.112 -0.8570 -0.5783 -0.0388
17594TIP3    H174273   1.325   2.346  17.035 -1.7523  1.2194  0.5445
17594TIP3    H274274   1.214   2.252  17.078 -1.9195  1.0740 -0.1876
17595TIP3   OH274275   0.124   3.364  14.390  0.5825 -0.0120 -0.2797
17595TIP3    H174276   0.047   3.352  14.445  0.9049 -0.5470  0.0602
17595TIP3    H274277   0.132   3.282  14.341  1.0075 -0.0083 -0.2179
17596TIP3   OH274278   2.377   5.614   4.634  0.1397  0.2672 -0.3871
17596TIP3    H174279   2.364   5.709   4.628  1.0942  0.4837  0.6536
17596TIP3    H274280   2.415   5.590   4.550  0.3035  0.8848 -0.4935
17597TIP3   OH274281   2.233   5.232   3.022 -0.2692 -0.0735  0.1731
17597TIP3    H174282   2.320   5.209   2.991 -1.0666 -1.9003 -0.8430
17597TIP3    H274283   2.201   5.153   3.066 -2.5126 -0.4601 -2.0152
17598TIP3   OH274284   0.415   6.604   2.828  0.2858  0.2391 -0.2478
17598TIP3    H174285   0.466   6.675   2.790  0.9345 -0.6375 -1.0419
17598TIP3    H274286   0.475   6.529   2.828 -0.5794 -0.4573  0.0250
17599TIP3   OH274287   3.101   3.703   2.101  0.0711  0.0005  0.4781
17599TIP3    H174288   3.018   3.748   2.087 -0.7019 -1.3588  0.6378
17599TIP3    H274289   3.164   3.753   2.049 -1.4284 -0.8034 -2.2027
17600TIP3   OH274290   5.249   1.357  10.414  0.1469 -0.1844 -0.0232
17600TIP3    H174291   5.203   1.290  10.363 -1.0970  1.4049 -1.0139
17600TIP3    H274292   5.187   1.381  10.483  0.7632 -0.3453  0.5916
17601TIP3   OH274293   3.627   2.119   0.957  0.1677  0.1126 -0.2877
17601TIP3    H174294   3.600   2.034   0.993 -1.2313  0.9221  0.6215
17601TIP3    H274295   3.652   2.171   1.033  1.1291  0.4824 -0.8540
17602TIP3   OH274296   4.522   4.540   2.112 -0.1266  0.5336 -0.1154
17602TIP3    H174297   4.581   4.473   2.078 -0.2940  0.7557 -0.8535
17602TIP3    H274298   4.572   4.621   2.105 -0.7876  0.8419 -1.4776
17603TIP3   OH274299   2.058   3.347   6.299  0.0649  0.1922 -0.0732
17603TIP3    H174300   2.029   3.438   6.297 -0.9583 -0.0428  2.2306
17603TIP3    H274301   2.154   3.353   6.300  0.0185  1.3975  2.8347
17604TIP3   OH274302   2.171   5.311  12.681  0.1516 -0.3480  0.1883
17604TIP3    H174303   2.174   5.305  12.585  1.7436 -0.0001  0.1956
17604TIP3    H274304   2.260   5.334  12.706 -0.0903 -1.0755  1.8086
17605TIP3   OH274305   6.414   0.962   5.146 -0.0845  0.0183  0.2942
17605TIP3    H174306   6.467   0.952   5.068  0.3387  0.5483  0.5096
17605TIP3    H274307   6.452   1.037   5.192  0.8596 -1.4375  1.9777
17606TIP3   OH274308   6.232   2.703  11.247 -0.1166  0.0262 -0.7785
17606TIP3    H174309   6.275   2.781  11.281  1.6990 -1.5494  0.6204
17606TIP3    H274310   6.230   2.715  11.153 -0.3224  1.9996 -0.5264
17607TIP3   OH274311   4.961   3.154   2.168 -0.1097 -0.0433  0.2472
17607TIP3    H174312   4.891   3.097   2.136  0.0539  0.3949 -0.9048
17607TIP3    H274313   4.973   3.219   2.099  1.5362 -0.1947  0.3714
17608TIP3   OH274314   3.411   3.962   4.924  0.4953 -0.4026 -0.5132
17608TIP3    H174315   3.458   3.895   4.974 -1.3592 -1.3902 -0.0351
17608TIP3    H274316   3.412   4.039   4.981 -0.0607 -0.9791  0.2862
17609TIP3   OH274317   3.022   5.159   6.227  0.3096  0.1601  0.1373
17609TIP3    H174318   3.086   5.134   6.295 -0.4932  2.7666  1.9565
17609TIP3    H274319   3.035   5.253   6.217 -2.1786  0.4340 -0.6263
17610TIP3   OH274320   0.787   3.848  16.854  0.5224 -0.0266  0.2848
17610TIP3    H174321   0.813   3.861  16.945 -0.4416  0.2320  0.5277
17610TIP3    H274322   0.691   3.851  16.855  0.5386  1.5600 -0.9733
17611TIP3   OH274323   3.117   4.958  13.626 -0.2396  0.1813  0.4115
17611TIP3    H174324   3.195   5.002  13.593 -0.7271  2.6507  2.3741
17611TIP3    H274325   3.054   4.966  13.555  1.2224 -1.7031 -1.1323
17612TIP3   OH274326   2.728   3.177  13.563 -0.2087  0.4462 -0.1252
17612TIP3    H174327   2.723   3.265  13.599  0.2598  0.4454 -0.0460
17612TIP3    H274328   2.646   3.135  13.589  0.1929  0.3964  1.0829
17613TIP3   OH274329   1.367   0.601   5.933 -1.1144  0.1186 -0.4005
17613TIP3    H174330   1.310   0.656   5.879 -0.4116  0.2705 -1.0114
17613TIP3    H274331   1.308   0.558   5.994 -1.9751 -0.2883 -1.4877
17614TIP3   OH274332   4.979   2.238  16.306  0.5127 -0.3825 -0.3931
17614TIP3    H174333   5.053   2.185  16.277  1.4535  1.4002 -1.3345
17614TIP3    H274334   5.016   2.325  16.321 -1.0129  0.0400  1.0401
17615TIP3   OH274335   0.906   0.956   4.264  0.0989 -0.5134  0.5440
17615TIP3    H174336   0.920   0.872   4.307 -1.7378 -0.5431  1.1226
17615TIP3    H274337   0.938   1.021   4.326 -0.4677 -0.6789  1.0146
17616TIP3   OH274338   5.128   4.198   4.760 -0.1362  0.3080  0.2532
17616TIP3    H174339   5.136   4.291   4.782  0.5097  0.1966  0.5095
17616TIP3    H274340   5.034   4.180   4.764 -0.3674  1.2137 -0.8928
17617TIP3   OH274341   4.549   0.136   2.190 -0.6779  0.2998  0.4184
17617TIP3    H174342   4.583   0.085   2.116 -0.8378 -0.5858  0.9500
17617TIP3    H274343   4.627   0.172   2.232 -0.6492  2.0425 -1.0358
17618TIP3   OH274344   6.008   3.966   1.714 -0.2066  0.3075  0.1157
17618TIP3    H174345   6.099   3.996   1.724 -0.2019  1.1270 -2.2202
17618TIP3    H274346   6.016   3.880   1.674 -0.4626  0.6199 -0.6172
17619TIP3   OH274347   4.939   3.429   4.209 -0.1798 -0.6090  0.0063
17619TIP3    H174348   5.022   3.457   4.170 -0.4911  0.3429  0.0241
17619TIP3    H274349   4.957   3.422   4.302 -0.2467  0.0739  0.0731
17620TIP3   OH274350   0.368   0.470   0.716 -0.7878  0.5796 -0.3074
17620TIP3    H174351   0.322   0.389   0.697 -1.0784  1.0836 -1.8882
17620TIP3    H274352   0.300   0.528   0.751 -0.7868  0.4424 -0.0810
17621TIP3   OH274353   3.066   4.224  15.859  0.2513 -0.2886 -0.3563
17621TIP3    H174354   2.980   4.202  15.895  0.0113  2.0348  0.6472
17621TIP3    H274355   3.047   4.266  15.775  0.2664  1.4762  0.4889
17622TIP3   OH274356   6.258   3.274  13.441  0.4317  0.5294  0.2665
17622TIP3    H174357   6.166   3.279  13.468  0.7464  2.3082  1.0634
17622TIP3    H274358   6.302   3.230  13.514  1.0584  4.1831  2.1755
17623TIP3   OH274359   0.011   2.950   6.572 -0.1772 -0.3347 -0.2910
17623TIP3    H174360   0.030   2.924   6.663  2.2942 -0.9288 -0.9437
17623TIP3    H274361  -0.067   2.901   6.549  0.6685 -2.1853  0.6771
17624TIP3   OH274362   3.420   1.093   4.233  0.2268  0.3473  0.7137
17624TIP3    H174363   3.356   1.138   4.287  1.2481  1.7771  0.7819
17624TIP3    H274364   3.394   1.113   4.143 -1.6539 -2.2877  0.6220
17625TIP3   OH274365   3.221   3.289   4.161  0.4256 -0.3379 -0.0026
17625TIP3    H174366   3.209   3.330   4.246 -1.7809  0.6835 -0.7715
17625TIP3    H274367   3.236   3.196   4.181  0.1303 -0.0688  1.5032
17626TIP3   OH274368   4.652   5.462  16.318  0.0300  0.0013 -0.1989
17626TIP3    H174369   4.736   5.449  16.361  0.2562  2.5918  0.2046
17626TIP3    H274370   4.587   5.449  16.388  0.1544 -0.3552 -0.1471
17627TIP3   OH274371   2.896   2.164   0.307  0.9330  0.1156 -0.0349
17627TIP3    H174372   2.890   2.255   0.280 -1.5308 -0.2028 -0.6456
17627TIP3    H274373   2.820   2.122   0.267  2.4737 -2.3816 -0.4286
17628TIP3   OH274374   4.033   5.075   6.224 -0.1765 -0.0246  0.3735
17628TIP3    H174375   3.962   5.108   6.279  1.1381  1.2475  1.3610
17628TIP3    H274376   4.079   5.012   6.280  0.0213 -0.1679  0.0545
17629TIP3   OH274377   0.061   2.147   3.434 -0.3457  0.3123  0.1198
17629TIP3    H174378   0.153   2.163   3.413 -0.4958  1.2021  0.1178
17629TIP3    H274379   0.063   2.084   3.505  0.3368  1.8797  1.5297
17630TIP3   OH274380   1.166   0.293  12.658  0.2741  0.1280  0.0122
17630TIP3    H174381   1.248   0.247  12.676  0.9157  1.4242  0.4685
17630TIP3    H274382   1.137   0.258  12.574  0.8529 -0.9495  0.2535
17631TIP3   OH274383   6.309   3.924   1.675 -0.2388 -0.2885 -0.2390
17631TIP3    H174384   6.392   3.938   1.721 -0.4563 -1.0672  0.4196
17631TIP3    H274385   6.273   3.845   1.716 -0.3835 -1.0741 -1.8359
17632TIP3   OH274386   1.250   4.822   3.927  0.1383 -0.6568 -0.4043
17632TIP3    H174387   1.220   4.912   3.916  0.7281 -0.6395 -2.0062
17632TIP3    H274388   1.187   4.769   3.878  0.2662 -1.0268 -0.1715
17633TIP3   OH274389   2.578   6.459   0.486 -0.1897 -0.0130  0.1492
17633TIP3    H174390   2.607   6.545   0.455  0.0393 -0.6351 -1.3896
17633TIP3    H274391   2.591   6.400   0.411  0.7108 -1.6226  1.5225
17634TIP3   OH274392   1.573   0.808   4.937 -0.3845  0.1474 -0.1222
17634TIP3    H174393   1.614   0.869   4.998 -0.8493  0.8135 -0.4663
17634TIP3    H274394   1.641   0.790   4.872  0.2015 -0.7841  0.7434
17635TIP3   OH274395   0.371   4.821   2.072  0.2224  0.2536 -0.2283
17635TIP3    H174396   0.292   4.771   2.097  0.2950  0.9793  1.5531
17635TIP3    H274397   0.336   4.901   2.031  0.0505  0.1494 -0.2885
17636TIP3   OH274398   1.927   1.447  12.716 -0.2957  0.6324  0.3739
17636TIP3    H174399   1.978   1.463  12.636 -0.3138  1.6493  0.5687
17636TIP3    H274400   1.869   1.522  12.723 -0.3366  0.5121  1.3231
17637TIP3   OH274401   0.068   5.446  13.258  0.1294 -0.3187  0.6763
17637TIP3    H174402   0.135   5.464  13.324  0.4100 -3.8930  1.4810
17637TIP3    H274403   0.114   5.457  13.174  1.2887 -1.0805  1.1920
17638TIP3   OH274404   2.163   2.989   2.566 -0.1147  0.0690  0.1991
17638TIP3    H174405   2.109   3.045   2.510 -1.5749  0.2792  1.7841
17638TIP3    H274406   2.207   3.049   2.625  1.6281 -0.1312 -0.8686
17639TIP3   OH274407   2.282   5.215   1.303 -0.4054 -0.0337  0.3680
17639TIP3    H174408   2.211   5.230   1.365 -0.7615 -0.6777  0.1247
17639TIP3    H274409   2.299   5.301   1.265 -0.4720  0.2849  1.0442
17640TIP3   OH274410   4.786   4.390  11.939  0.1458 -0.5133 -0.4278
17640TIP3    H174411   4.739   4.392  12.023 -0.4956 -1.2044 -0.7662
17640TIP3    H274412   4.877   4.371  11.963 -0.0247 -0.6556  0.1167
17641TIP3   OH274413   1.095   2.429  13.030 -0.3317 -0.5210 -0.4966
17641TIP3    H174414   1.174   2.377  13.040  0.5251  0.5870 -1.3836
17641TIP3    H274415   1.096   2.487  13.106  0.3738  0.3380 -1.1481
17642TIP3   OH274416   1.517   0.372   2.451  0.0888  0.0108  0.1530
17642TIP3    H174417   1.529   0.459   2.489  1.1408 -0.1024  0.0775
17642TIP3    H274418   1.447   0.333   2.503  0.8583  0.2213  1.3594
17643TIP3   OH274419   1.529   2.276   1.755  0.0586 -0.3116 -0.1372
17643TIP3    H174420   1.521   2.355   1.702  2.0352 -0.5719 -0.8566
17643TIP3    H274421   1.535   2.205   1.691  0.1265 -0.8580  0.4678
17644TIP3   OH274422   5.510   0.850  14.859 -0.0160  0.7111 -0.6654
17644TIP3    H174423   5.416   0.843  14.876  0.3692  0.0082  1.3418
17644TIP3    H274424   5.545   0.897  14.935  1.4801 -0.5262 -0.5463
17645TIP3   OH274425   6.549   2.526  15.912  0.3135  0.5702 -0.0094
17645TIP3    H174426   6.463   2.490  15.934  0.7007 -1.0380 -1.0459
17645TIP3    H274427   6.589   2.547  15.997 -0.4704 -0.1679  0.5472
17646TIP3   OH274428   6.611   2.344  14.437 -0.3531 -0.1726 -0.5414
17646TIP3    H174429   6.612   2.249  14.436  0.1304 -0.1745  0.0199
17646TIP3    H274430   6.527   2.368  14.398  0.5982 -0.7944 -3.1368
17647TIP3   OH274431   2.378   1.705   3.639 -0.3352 -0.0995 -0.2002
17647TIP3    H174432   2.473   1.702   3.652 -0.2375  2.3565 -0.2506
17647TIP3    H274433   2.355   1.615   3.617  1.8928 -0.8548  0.3960
17648TIP3   OH274434   6.210   0.997  16.653  0.2804 -0.2800  0.4606
17648TIP3    H174435   6.250   0.987  16.739  1.7895 -1.3227 -0.3301
17648TIP3    H274436   6.203   0.908  16.619 -0.4620  0.1002 -0.4167
17649TIP3   OH274437   5.594   5.465   1.026  0.3489 -0.9513 -0.0548
17649TIP3    H174438   5.559   5.382   1.059 -0.6508 -1.0624 -1.3925
17649TIP3    H274439   5.666   5.485   1.087 -1.6484 -0.9873  2.3985
17650TIP3   OH274440   6.798   6.755   3.040  0.4769  1.1593  0.0274
17650TIP3    H174441   6.845   6.728   2.961 -1.5766  1.2474 -1.2484
17650TIP3    H274442   6.835   6.700   3.109  1.3085  0.0734 -1.2465
17651TIP3   OH274443   3.216   5.449   5.202  0.1066  0.4159  0.4876
17651TIP3    H174444   3.178   5.457   5.114 -0.5288  0.0464  0.7264
17651TIP3    H274445   3.140   5.438   5.260  0.4611  1.5334  1.1930
17652TIP3   OH274446   5.084   1.309  13.801 -0.0689  0.1001  0.1456
17652TIP3    H174447   5.025   1.323  13.875 -1.4572 -0.7608 -0.7675
17652TIP3    H274448   5.034   1.339  13.725  0.8225 -0.2947 -0.6048
17653TIP3   OH274449   1.128   6.345  15.963 -1.2857 -0.7154  0.5420
17653TIP3    H174450   1.050   6.314  16.011 -2.2118 -1.4063 -1.3832
17653TIP3    H274451   1.106   6.332  15.871  0.8707 -0.2853 -0.0423
17654TIP3   OH274452   0.575   1.228  12.763  0.5181 -0.1438  0.4856
17654TIP3    H174453   0.591   1.218  12.670  2.8952  0.3799  0.7857
17654TIP3    H274454   0.540   1.317  12.772  0.1862 -0.2351  0.0705
17655TIP3   OH274455   5.354   0.452  13.042 -0.0873  0.3579  0.1327
17655TIP3    H174456   5.367   0.382  12.978  0.6644  0.7958 -0.2067
17655TIP3    H274457   5.373   0.412  13.126 -1.4774 -0.3287  0.1207
17656TIP3   OH274458   6.714   2.948  12.263  1.3697  0.0081  0.0639
17656TIP3    H174459   6.809   2.959  12.259  1.4143 -1.0304 -2.3350
17656TIP3    H274460   6.679   3.022  12.214  0.9283  0.3913  0.9469
17657TIP3   OH274461   0.852   3.341  16.182 -0.3363 -0.8627  0.1113
17657TIP3    H174462   0.884   3.331  16.272  1.4539 -0.4701 -0.4695
17657TIP3    H274463   0.879   3.430  16.158 -2.8622 -0.0932 -0.0138
17658TIP3   OH274464   0.752   0.170  15.713  0.1461 -0.0767  0.0983
17658TIP3    H174465   0.743   0.199  15.623  2.6049 -0.0514 -0.1890
17658TIP3    H274466   0.663   0.165  15.747 -0.6641  2.3734 -1.5645
17659TIP3   OH274467   3.957   5.836  13.670 -0.0554  0.1462 -0.4745
17659TIP3    H174468   3.895   5.903  13.641 -0.0541  0.8245  1.0941
17659TIP3    H274469   3.903   5.766  13.706 -0.0731 -0.8550 -2.3457
17660TIP3   OH274470   1.445   3.948  11.958 -0.7740 -0.2844  0.0526
17660TIP3    H174471   1.513   3.930  11.893 -0.7483  1.9946 -0.5606
17660TIP3    H274472   1.371   3.982  11.908 -0.3293  2.6471  1.2969
17661TIP3   OH274473   2.732   1.397   3.534 -0.4688  0.4556 -0.2982
17661TIP3    H174474   2.814   1.375   3.490 -0.0861  0.6736  0.3138
17661TIP3    H274475   2.702   1.315   3.572  0.5974  0.8219  1.3747
17662TIP3   OH274476   4.236   2.693   3.699  0.1502  0.1729  0.0670
17662TIP3    H174477   4.186   2.711   3.778 -0.2144  1.7030 -0.4895
17662TIP3    H274478   4.308   2.637   3.728 -0.0417  0.6374  1.4514
17663TIP3   OH274479   5.210   0.908  13.437 -0.2296  0.3143 -0.5283
17663TIP3    H174480   5.176   0.994  13.461  0.5744  0.4013  0.3402
17663TIP3    H274481   5.251   0.875  13.518  1.0465 -0.1106 -1.3297
17664TIP3   OH274482   1.882   1.890  14.242 -0.1577  0.4750 -0.0486
17664TIP3    H174483   1.836   1.923  14.165  1.8098 -2.5113 -2.6015
17664TIP3    H274484   1.883   1.795  14.231  3.7175  0.2268  1.5452
17665TIP3   OH274485   4.654   0.952  11.347 -0.4361  0.7743 -0.4081
17665TIP3    H174486   4.747   0.944  11.328 -0.3415  0.8915 -0.0038
17665TIP3    H274487   4.647   0.931  11.440 -0.4359  3.5960  0.2729
17666TIP3   OH274488   2.924   0.534  15.109 -0.4002 -0.1755 -0.7703
17666TIP3    H174489   2.899   0.565  15.022 -1.8149  0.4881 -0.1444
17666TIP3    H274490   3.010   0.493  15.096 -1.0182 -0.9532 -2.6630
17667TIP3   OH274491   5.691   1.601  12.642 -0.0891 -0.5510 -0.5601
17667TIP3    H174492   5.598   1.616  12.626 -0.1523 -0.7883 -0.4158
17667TIP3    H274493   5.707   1.641  12.728 -0.0415 -0.4380 -0.6220
17668TIP3   OH274494   4.406   5.929   5.669  0.5654 -0.8506  0.0443
17668TIP3    H174495   4.471   5.928   5.599 -0.8086 -1.7986 -1.2731
17668TIP3    H274496   4.393   5.837   5.690 -0.2107 -0.6638  0.4003
17669TIP3   OH274497   1.801   1.371   6.390  0.9069  0.0106 -0.7280
17669TIP3    H174498   1.796   1.331   6.477  0.6254  2.7585  0.5623
17669TIP3    H274499   1.715   1.355   6.352  0.2539  0.7790  0.4067
17670TIP3   OH274500   4.443   2.372  13.914  0.0505  0.0979  0.0951
17670TIP3    H174501   4.385   2.379  13.838  1.3804 -0.7679 -1.0330
17670TIP3    H274502   4.501   2.448  13.908 -0.5913  0.6535  0.8952
17671TIP3   OH274503   1.571   3.252  15.778 -0.4573  0.0249 -0.1581
17671TIP3    H174504   1.605   3.293  15.698 -0.0755 -0.9611 -0.5009
17671TIP3    H274505   1.601   3.309  15.849  1.5009 -0.5749 -0.4926
17672TIP3   OH274506   2.401   4.595   6.014  0.6538 -0.3044 -0.1284
17672TIP3    H174507   2.479   4.563   6.059  0.9079  0.3801 -0.0706
17672TIP3    H274508   2.342   4.520   6.011  1.4817 -0.9506 -0.5433
17673TIP3   OH274509   4.295   2.970   2.819  0.3959 -0.4949  0.5561
17673TIP3    H174510   4.203   2.945   2.828  0.2456 -0.3713 -0.5429
17673TIP3    H274511   4.341   2.889   2.799  0.4611 -0.4912  0.6922
17674TIP3   OH274512   6.280   6.137   1.115  0.4807  0.7144  0.2095
17674TIP3    H174513   6.342   6.065   1.115 -0.2166  0.1135  0.3314
17674TIP3    H274514   6.206   6.107   1.168 -0.7862  0.6530 -1.5129
17675TIP3   OH274515   1.656   3.443  13.889 -0.8028  0.1810 -0.2739
17675TIP3    H174516   1.666   3.538  13.900  0.5621  0.0411 -0.1991
17675TIP3    H274517   1.624   3.433  13.799 -0.5346  0.6892 -0.4324
17676TIP3   OH274518   0.121   5.185   5.138  0.7844 -0.4467  0.3059
17676TIP3    H174519   0.039   5.152   5.100  1.0408 -0.6859 -0.0417
17676TIP3    H274520   0.124   5.277   5.112  0.1858 -0.2016  1.0732
17677TIP3   OH274521   6.726   3.964  15.536  0.6260 -0.2338  0.0636
17677TIP3    H174522   6.655   3.905  15.561  1.5244 -0.6815  1.6372
17677TIP3    H274523   6.684   4.050  15.526 -0.1452 -0.4903  0.9882
17678TIP3   OH274524   5.537   5.623   5.860 -0.3014  0.0777  0.1174
17678TIP3    H174525   5.525   5.716   5.838  0.7251  0.0158 -0.7117
17678TIP3    H274526   5.599   5.623   5.932  0.9027 -0.0350 -0.8995
17679TIP3   OH274527   5.217   4.767   2.371 -0.4014 -0.9709  0.0249
17679TIP3    H174528   5.308   4.753   2.397 -0.0242  1.0580 -0.1893
17679TIP3    H274529   5.178   4.816   2.444  0.2097  3.2096 -2.3166
17680TIP3   OH274530   1.853   0.004   5.072 -0.2700  0.0450 -0.0972
17680TIP3    H174531   1.812  -0.043   5.145 -0.6440 -1.1676 -1.0658
17680TIP3    H274532   1.780   0.034   5.018  0.0330  0.1595 -0.4504
17681TIP3   OH274533   0.387   2.841  15.133 -0.1880  0.1691  0.1493
17681TIP3    H174534   0.383   2.827  15.227  1.8189 -0.5788  0.1474
17681TIP3    H274535   0.326   2.778  15.096 -1.7125  1.1313  0.9961
17682TIP3   OH274536   6.400   1.198  16.023 -0.4264 -0.0073 -0.4373
17682TIP3    H174537   6.384   1.276  16.076  3.0480  0.6611 -0.2625
17682TIP3    H274538   6.441   1.136  16.084  0.0452 -0.6838 -1.4331
17683TIP3   OH274539   0.088   3.730   2.808 -0.1218  0.2356 -0.3394
17683TIP3    H174540   0.142   3.672   2.754 -0.4806 -2.3012  1.9386
17683TIP3    H274541   0.004   3.686   2.815 -0.7788  1.5797  0.5376
17684TIP3   OH274542   0.816   6.038  15.803 -0.3447 -0.3266  0.9269
17684TIP3    H174543   0.844   5.947  15.809  1.3370  0.2771  2.4810
17684TIP3    H274544   0.861   6.083  15.874  0.7354  2.2239 -1.2589
17685TIP3   OH274545   1.323   6.481  15.217  0.8674 -0.1352  0.5108
17685TIP3    H174546   1.243   6.436  15.190  0.9462  0.0337 -0.0102
17685TIP3    H274547   1.297   6.533  15.293  0.5575 -0.3341  0.5418
17686TIP3   OH274548   3.513   5.461  14.872 -0.1418 -0.2017  0.7061
17686TIP3    H174549   3.509   5.555  14.887  3.3307  0.2654 -0.7195
17686TIP3    H274550   3.584   5.431  14.929  0.2532 -1.5554 -0.4563
17687TIP3   OH274551   1.251   3.452   3.628  0.3954  0.4732 -0.0727
17687TIP3    H174552   1.204   3.371   3.648  0.1154  0.4770 -0.6973
17687TIP3    H274553   1.209   3.519   3.682  1.5831 -0.0691  1.5517
17688TIP3   OH274554   5.268   2.781  11.856  0.3473  0.5953  0.0291
17688TIP3    H174555   5.183   2.807  11.820 -0.6550 -2.2399  0.2129
17688TIP3    H274556   5.253   2.774  11.950  0.6860 -0.3395  0.0120
17689TIP3   OH274557   0.598   3.914   4.493  0.2412  0.4037  0.2508
17689TIP3    H174558   0.689   3.884   4.498  0.5425  1.2121 -0.3292
17689TIP3    H274559   0.604   4.008   4.481 -0.6242  0.2414 -1.6850
17690TIP3   OH274560   3.244   1.316   4.942 -0.3348 -0.2261  0.0298
17690TIP3    H174561   3.311   1.336   5.008  0.7589 -0.8649 -0.8767
17690TIP3    H274562   3.291   1.321   4.858 -1.5521 -0.1275 -0.6509
17691TIP3   OH274563   6.548   3.777   6.500  0.5340 -0.1405 -0.1112
17691TIP3    H174564   6.592   3.693   6.488  1.6058  0.3082  0.6718
17691TIP3    H274565   6.619   3.840   6.515 -0.2912  0.8093 -0.1459
17692TIP3   OH274566   2.947   6.078  13.797  0.4395 -0.5743 -0.2417
17692TIP3    H174567   2.975   6.167  13.817 -0.3877 -0.5419  0.7730
17692TIP3    H274568   3.029   6.030  13.782  0.9288  0.0903  0.2930
17693TIP3   OH274569   0.427   3.410   0.019  0.6863 -0.1064 -0.0651
17693TIP3    H174570   0.385   3.490  -0.013 -0.6860 -1.1545 -0.9600
17693TIP3    H274571   0.355   3.360   0.058  1.3089 -1.4657 -0.6529
17694TIP3   OH274572   1.589   3.922   0.123  0.1757 -0.4875 -1.0158
17694TIP3    H174573   1.651   3.871   0.071 -0.5476 -1.2171 -1.1555
17694TIP3    H274574   1.645   3.972   0.183  0.8581 -2.0042 -0.3507
17695TIP3   OH274575   5.167   6.695   1.920  0.3578  0.4542 -0.5437
17695TIP3    H174576   5.149   6.776   1.872 -0.5629  1.4711  1.4792
17695TIP3    H274577   5.128   6.626   1.865 -0.7652  1.5912 -1.2082
17696TIP3   OH274578   5.915   0.163  16.594 -0.1002  0.2838 -0.0614
17696TIP3    H174579   5.877   0.228  16.653 -0.5875  1.4348 -1.6126
17696TIP3    H274580   5.840   0.120  16.554  0.2107  0.4016 -0.7854
17697TIP3   OH274581   3.378   6.213  15.923  0.0607 -0.0276  0.0833
17697TIP3    H174582   3.345   6.149  15.987 -0.5385 -0.3964 -0.5901
17697TIP3    H274583   3.395   6.161  15.844  1.2469  0.3452  0.0832
17698TIP3   OH274584   2.092   2.188   0.245 -0.3588  0.0638 -0.0531
17698TIP3    H174585   2.089   2.111   0.302 -1.0025 -0.4582 -0.7805
17698TIP3    H274586   2.063   2.260   0.300  1.9574  0.1215  1.1526
17699TIP3   OH274587   1.320   5.693   0.647  0.3166  0.0938 -0.2147
17699TIP3    H174588   1.415   5.691   0.633  0.2019 -2.5107 -0.7161
17699TIP3    H274589   1.285   5.635   0.580 -1.8951  3.0931 -1.7881
17700TIP3   OH274590   1.784   6.052   3.368  0.3417  0.0152 -0.0545
17700TIP3    H174591   1.838   5.998   3.426 -0.9898 -1.1750  0.0984
17700TIP3    H274592   1.694   6.026   3.388 -0.1769  0.2667 -2.0096
17701TIP3   OH274593   6.531   6.034   4.065 -0.0656  0.5139  0.4858
17701TIP3    H174594   6.618   6.011   4.099  0.1539 -0.2259 -0.5376
17701TIP3    H274595   6.529   5.995   3.978 -0.5245  2.5804 -0.4467
17702TIP3   OH274596   2.323   3.399   6.229  0.4087  0.4282 -0.5711
17702TIP3    H174597   2.267   3.445   6.167 -1.5834 -0.1517  0.7679
17702TIP3    H274598   2.412   3.426   6.205 -0.5402  2.8249 -1.5338
17703TIP3   OH274599   2.345   5.444  14.035  0.1272  0.0709  0.1512
17703TIP3    H174600   2.251   5.462  14.028 -0.4012 -2.2386  0.9002
17703TIP3    H274601   2.358   5.424  14.128  1.3254  0.1321 -0.0011
17704TIP3   OH274602   4.082   5.968   0.890  0.2035  0.2481 -0.2955
17704TIP3    H174603   4.151   5.940   0.831  1.2810 -0.6751  1.3539
17704TIP3    H274604   4.013   6.001   0.833  1.1906 -0.6545 -2.0494
17705TIP3   OH274605   5.079   3.385  16.982  0.5477  0.6769 -0.1690
17705TIP3    H174606   5.048   3.470  16.949  1.1067  0.9311 -0.0535
17705TIP3    H274607   5.160   3.369  16.935  0.9959  0.7197  0.5674
17706TIP3   OH274608   3.989   3.799  11.283 -0.0272 -0.4263 -0.0507
17706TIP3    H174609   4.055   3.729  11.283  1.0116  0.4797 -3.5229
17706TIP3    H274610   3.939   3.784  11.203 -0.1810  2.4373 -0.5293
17707TIP3   OH274611   4.530   2.278   1.572 -0.6812 -0.3890  0.1333
17707TIP3    H174612   4.516   2.369   1.547 -3.4595 -0.3419  1.7042
17707TIP3    H274613   4.580   2.283   1.654 -0.2100 -0.3117 -0.1555
17708TIP3   OH274614   5.647   2.207   1.632  0.2307  0.3790  0.0403
17708TIP3    H174615   5.679   2.126   1.670  0.2824 -0.1336 -1.0824
17708TIP3    H274616   5.717   2.235   1.573 -0.8182 -0.0733 -1.4495
17709TIP3   OH274617   2.012   0.738   0.495 -0.4378  0.2450 -0.1783
17709TIP3    H174618   1.990   0.676   0.425  0.7482 -0.5336  0.1217
17709TIP3    H274619   1.943   0.727   0.560 -1.1666  0.4730 -0.9070
17710TIP3   OH274620   1.212   3.638   1.107  0.4512  0.2388 -0.5462
17710TIP3    H174621   1.142   3.601   1.054 -1.5472 -0.9421  2.7208
17710TIP3    H274622   1.278   3.568   1.112  1.2126  0.8051 -2.4093
17711TIP3   OH274623   5.416   6.671  11.592  0.8612  0.7829  0.8177
17711TIP3    H174624   5.405   6.723  11.672  1.0628  1.4719  0.4096
17711TIP3    H274625   5.332   6.678  11.547  0.5521 -0.0943  1.2478
17712TIP3   OH274626   5.105   1.693  14.429  0.2880  0.4472  0.1547
17712TIP3    H174627   5.116   1.759  14.497 -0.4939  0.2539  0.4728
17712TIP3    H274628   5.173   1.628  14.448 -0.6506 -0.1759  1.4294
17713TIP3   OH274629   6.403   0.384   5.612 -0.1277 -0.4230  0.4495
17713TIP3    H174630   6.345   0.364   5.686 -2.9657  1.0442 -1.2739
17713TIP3    H274631   6.409   0.480   5.612 -0.7815 -0.3617 -1.6228
17714TIP3   OH274632   5.304   5.209   0.472 -0.4725 -0.2452 -0.0725
17714TIP3    H174633   5.356   5.188   0.549 -2.1190  0.5559  1.2890
17714TIP3    H274634   5.214   5.213   0.504 -0.8183  3.7663 -1.2335
17715TIP3   OH274635   5.861   2.011   0.435 -0.3073  0.4672  0.3069
17715TIP3    H174636   5.799   2.083   0.441 -0.9128 -0.0959  0.8404
17715TIP3    H274637   5.891   2.013   0.344  0.4913  2.0476  0.5818
17716TIP3   OH274638   5.198   4.952   0.753 -0.0052 -0.6405 -0.0200
17716TIP3    H174639   5.108   4.952   0.785  0.0900 -0.1101  0.2456
17716TIP3    H274640   5.207   4.868   0.707 -0.4177 -0.9989  0.5534
17717TIP3   OH274641   1.076   2.332  15.707  0.1195 -0.9779  0.2844
17717TIP3    H174642   1.103   2.244  15.734 -0.2689 -1.4825 -0.9381
17717TIP3    H274643   0.983   2.337  15.727  0.3652 -0.4563  1.3349
17718TIP3   OH274644   6.243   5.262  15.121  0.1380  0.2377 -0.6301
17718TIP3    H174645   6.259   5.190  15.060 -0.0982  0.0791 -0.5061
17718TIP3    H274646   6.149   5.278  15.115  0.0923  0.1328 -0.2125
17719TIP3   OH274647   6.705   4.170   6.021  0.2266  0.1871  0.0065
17719TIP3    H174648   6.734   4.174   5.930 -1.9215 -1.4621 -0.7959
17719TIP3    H274649   6.774   4.123   6.067  0.1230 -1.2632 -1.3059
17720TIP3   OH274650   5.584   4.140  15.313 -0.1271  0.3103 -0.0866
17720TIP3    H174651   5.535   4.143  15.396 -0.5499  1.2812 -0.3589
17720TIP3    H274652   5.668   4.181  15.334  1.4220 -3.1756  0.9004
17721TIP3   OH274653   3.442   0.167  16.093 -0.6095 -0.2199 -0.0367
17721TIP3    H174654   3.458   0.253  16.054 -1.4102 -0.0236  0.0548
17721TIP3    H274655   3.442   0.184  16.188 -2.6168  0.0246 -0.0592
17722TIP3   OH274656   2.991   4.748  12.369 -0.0955  0.3672 -0.0011
17722TIP3    H174657   3.055   4.703  12.313 -0.4625 -0.7248  0.4336
17722TIP3    H274658   2.996   4.840  12.342  0.3821  0.0062 -1.1948
17723TIP3   OH274659   5.733   2.631   3.215 -0.2590 -0.3908 -0.7145
17723TIP3    H174660   5.655   2.678   3.245 -0.5224 -1.6292  0.5933
17723TIP3    H274661   5.807   2.684   3.247 -0.5302  0.7766 -1.9458
17724TIP3   OH274662   4.938   0.137  12.284  0.3687  0.0306  0.7821
17724TIP3    H174663   4.986   0.077  12.341 -3.4691 -0.2775  3.9549
17724TIP3    H274664   4.971   0.224  12.307  1.1299 -0.3626  1.1756
17725TIP3   OH274665   3.274   4.954  13.336  0.2328  0.4568 -0.5827
17725TIP3    H174666   3.264   5.023  13.270 -0.0495  0.4581 -0.5429
17725TIP3    H274667   3.184   4.932  13.361  0.3501  1.0058  0.3602
17726TIP3   OH274668   3.053   5.347  16.237  0.1172  0.1570 -1.1312
17726TIP3    H174669   3.113   5.273  16.248  0.6805  0.3572 -2.7205
17726TIP3    H274670   3.060   5.370  16.144  0.1034  2.3464 -0.6091
17727TIP3   OH274671   3.651   5.783   3.850  0.0931  0.5357 -0.0988
17727TIP3    H174672   3.559   5.807   3.862  0.3647 -0.0688  3.7872
17727TIP3    H274673   3.700   5.850   3.898  1.6824  0.3347 -1.3590
17728TIP3   OH274674   0.929   6.413  13.871 -0.1895 -0.0495 -0.3794
17728TIP3    H174675   0.963   6.327  13.895 -1.3369 -0.0729  1.2201
17728TIP3    H274676   0.999   6.453  13.819  0.8189 -1.4854 -0.1392
17729TIP3   OH274677   5.357   4.768   3.859  0.0837 -0.1539 -0.6752
17729TIP3    H174678   5.369   4.681   3.897  0.8572 -0.5583 -1.8152
17729TIP3    H274679   5.426   4.821   3.900 -1.1717  0.2446  0.9519
17730TIP3   OH274680   0.326   4.475   0.186  0.1468 -0.3968  0.8288
17730TIP3    H174681   0.384   4.400   0.203 -0.2027 -0.8787 -0.0651
17730TIP3    H274682   0.351   4.504   0.098 -0.2149  0.0988  0.8890
17731TIP3   OH274683   4.991   0.985   1.617 -0.7014  0.0501  0.0881
17731TIP3    H174684   5.079   1.000   1.585 -0.4914  0.9617  1.0759
17731TIP3    H274685   4.940   1.059   1.584 -0.7765  0.2866  0.7280
17732TIP3   OH274686   5.362   5.506   0.681  0.4022  0.3296 -0.6408
17732TIP3    H174687   5.393   5.418   0.705 -0.6935 -0.4228 -1.9109
17732TIP3    H274688   5.296   5.527   0.748  0.8404  0.2892 -0.1924
17733TIP3   OH274689   3.590   2.747  11.764  0.3215 -0.2437 -0.0608
17733TIP3    H174690   3.645   2.778  11.693 -1.2880  0.7034 -0.9295
17733TIP3    H274691   3.522   2.814  11.774 -0.4583 -1.1803  1.2324
17734TIP3   OH274692   4.350   1.118   6.344 -0.1640  0.0255  0.0094
17734TIP3    H174693   4.312   1.048   6.398  2.7430  0.1646  2.3054
17734TIP3    H274694   4.286   1.189   6.350 -1.6773 -1.2935  0.1481
17735TIP3   OH274695   4.606   1.284  15.404 -0.3077  0.8496  0.4851
17735TIP3    H174696   4.544   1.212  15.414 -1.4737  1.4425 -2.0922
17735TIP3    H274697   4.689   1.249  15.435 -1.3265 -0.8406  1.3886
17736TIP3   OH274698   6.425   4.650  15.266 -0.8669 -0.1337  0.5937
17736TIP3    H174699   6.399   4.558  15.277 -1.3003  0.0542  1.1795
17736TIP3    H274700   6.475   4.651  15.184 -3.7525 -0.3035 -1.2494
17737TIP3   OH274701   1.996   2.570   0.882  0.5698 -0.4892  0.4832
17737TIP3    H174702   2.019   2.647   0.830 -0.3202 -0.2002  0.5041
17737TIP3    H274703   2.027   2.590   0.970  1.4249 -0.6692  0.2231
17738TIP3   OH274704   1.178   3.034  12.544  0.3540 -0.1004 -0.2086
17738TIP3    H174705   1.206   3.077  12.464  0.5305  1.2348  0.5545
17738TIP3    H274706   1.102   2.982  12.519 -2.1236  3.5040 -0.4353
17739TIP3   OH274707   1.553   3.097   3.535 -0.2651 -0.1094  0.0978
17739TIP3    H174708   1.471   3.113   3.488 -0.4259  0.1048  0.4518
17739TIP3    H274709   1.622   3.120   3.472 -0.4803  0.2497 -0.0035
17740TIP3   OH274710   2.943   3.452  13.409 -0.2695 -0.1390 -0.3233
17740TIP3    H174711   2.853   3.473  13.383 -1.1423 -0.5794  2.2123
17740TIP3    H274712   2.937   3.366  13.450  1.4502 -0.5202 -0.8393
17741TIP3   OH274713   3.384   3.101   1.262  0.0366 -0.3965 -0.1892
17741TIP3    H174714   3.389   3.113   1.357  0.6611  0.2926 -0.3116
17741TIP3    H274715   3.450   3.034   1.243  1.1791  0.7752 -0.3720
17742TIP3   OH274716   2.552   6.451  15.210 -0.3166 -0.0462 -0.1378
17742TIP3    H174717   2.611   6.377  15.223  0.4352  0.4547 -0.6501
17742TIP3    H274718   2.478   6.433  15.268  1.5346  0.5998  2.5186
17743TIP3   OH274719   5.703   0.758  16.655  0.3974  0.3804 -0.2096
17743TIP3    H174720   5.773   0.819  16.680  0.4240  0.9428 -1.6359
17743TIP3    H274721   5.643   0.810  16.602 -0.1182 -0.5856 -0.5855
17744TIP3   OH274722   6.686   6.277  11.865 -0.3737 -0.4595 -0.5102
17744TIP3    H174723   6.593   6.290  11.848 -0.1135  0.1870 -1.5079
17744TIP3    H274724   6.691   6.256  11.958 -1.4305  0.4361 -0.2447
17745TIP3   OH274725   4.715   1.231  11.052  0.4106  0.3156 -0.1290
17745TIP3    H174726   4.668   1.155  11.085  0.2026  0.3795 -0.2823
17745TIP3    H274727   4.786   1.194  10.999  0.7322  0.2137  0.3713
17746TIP3   OH274728   3.811   4.536   0.696  0.2635  0.2234  0.2182
17746TIP3    H174729   3.798   4.464   0.635 -0.2766  0.9424 -0.5338
17746TIP3    H274730   3.906   4.542   0.707  0.3524 -0.0709 -0.3625
17747TIP3   OH274731   5.857   2.667  14.381 -0.7667  0.0039  0.1062
17747TIP3    H174732   5.814   2.592  14.339 -1.4293 -0.1125  0.9500
17747TIP3    H274733   5.949   2.658  14.359 -0.7392 -1.4482  0.7260
17748TIP3   OH274734   4.333   4.084   4.664 -0.0077 -0.1574  0.6089
17748TIP3    H174735   4.298   3.995   4.662 -0.8382  0.1316  1.6711
17748TIP3    H274736   4.302   4.120   4.747  1.2163  0.7670  0.6734
17749TIP3   OH274737   5.213   6.102   3.854  0.1187  0.1797 -0.4499
17749TIP3    H174738   5.152   6.124   3.784  0.3401 -0.3407 -0.8140
17749TIP3    H274739   5.208   6.007   3.861 -0.6541  0.3238  0.9419
17750TIP3   OH274740   4.884   5.350   6.574 -0.1488  0.1979 -0.0123
17750TIP3    H174741   4.917   5.290   6.641 -1.6799 -1.0100 -0.3045
17750TIP3    H274742   4.844   5.421   6.624  0.4080  0.2680  0.3398
17751TIP3   OH274743   2.519   4.433  15.537 -0.2879  0.4640 -0.1020
17751TIP3    H174744   2.595   4.379  15.559 -0.2505  0.6301  0.1835
17751TIP3    H274745   2.557   4.516  15.505 -0.3481  0.5545  0.0593
17752TIP3   OH274746   0.774   2.862  15.411  0.1743  0.4834  0.1403
17752TIP3    H174747   0.816   2.947  15.398 -0.5830  0.7204 -0.7947
17752TIP3    H274748   0.819   2.824  15.486  1.6237  1.0059 -0.4588
17753TIP3   OH274749   2.661   5.666   0.598  0.1939  0.2057 -0.2546
17753TIP3    H174750   2.710   5.731   0.648 -0.8336  1.1031 -0.3875
17753TIP3    H274751   2.578   5.656   0.646  0.0926 -0.5532 -0.5716
17754TIP3   OH274752   0.705   5.066  13.765 -0.1369  0.4163  0.3021
17754TIP3    H174753   0.611   5.054  13.752  0.1586 -1.2835 -0.4128
17754TIP3    H274754   0.735   5.106  13.684 -0.1767  0.5050  0.3308
17755TIP3   OH274755   3.120   0.977   3.095  0.3416 -0.0654 -0.0376
17755TIP3    H174756   3.136   0.927   3.175 -0.4357 -0.1311  0.0818
17755TIP3    H274757   3.027   0.998   3.098  0.4671  0.5883 -0.5506
17756TIP3   OH274758   2.772   2.165  14.468  0.5295 -0.2551 -0.2891
17756TIP3    H174759   2.788   2.084  14.516 -0.1255 -0.7018 -0.8077
17756TIP3    H274760   2.818   2.154  14.385  3.0103  1.1812  0.8559
17757TIP3   OH274761   2.087   6.358   1.497 -0.2431 -0.7590  0.8653
17757TIP3    H174762   2.066   6.449   1.514  2.2291 -0.3518  1.9434
17757TIP3    H274763   2.074   6.314   1.581 -1.4602 -1.4212  0.3460
17758TIP3   OH274764   3.832   2.695  16.922 -0.5604 -0.0637  0.3172
17758TIP3    H174765   3.926   2.678  16.912 -0.2784  2.4758 -2.0171
17758TIP3    H274766   3.811   2.660  17.009  2.7937  0.3346  1.3793
17759TIP3   OH274767   4.766   0.410  14.534  0.3166  0.7532 -0.2608
17759TIP3    H174768   4.859   0.391  14.545 -0.0877 -0.7198  0.7375
17759TIP3    H274769   4.734   0.340  14.477 -0.5448  0.1787  0.8975
17760TIP3   OH274770   6.167   1.199   1.210  0.1674 -0.3535 -0.3343
17760TIP3    H174771   6.221   1.172   1.137  2.1301 -0.8293  1.2414
17760TIP3    H274772   6.201   1.285   1.235  0.6437 -0.9173  1.0475
17761TIP3   OH274773   4.313   0.906  11.925 -0.1293 -0.2685  0.1527
17761TIP3    H174774   4.385   0.844  11.914 -0.2883 -0.0092 -2.5456
17761TIP3    H274775   4.253   0.862  11.986  1.6951 -0.9853  1.5097
17762TIP3   OH274776   1.330   5.319   2.370 -0.3416 -0.7811  0.7646
17762TIP3    H174777   1.237   5.316   2.390 -0.3721 -0.7237  0.6340
17762TIP3    H274778   1.370   5.256   2.430 -0.2367  0.4111  1.9687
17763TIP3   OH274779   5.050   0.811  12.739 -0.2654 -0.2812 -0.3189
17763TIP3    H174780   5.022   0.862  12.814  1.4496 -0.6806  0.6259
17763TIP3    H274781   5.137   0.777  12.764 -0.6948 -2.3607 -1.5215
17764TIP3   OH274782   0.844   2.041   5.836 -0.1031  0.2322  0.3742
17764TIP3    H174783   0.767   2.028   5.781 -0.7057  3.4358  0.4087
17764TIP3    H274784   0.809   2.063   5.922  0.8193  2.3812  0.2320
17765TIP3   OH274785   1.144   1.714   0.830 -0.3530 -0.1725 -0.2801
17765TIP3    H174786   1.185   1.784   0.881 -1.3377 -0.4434  0.9296
17765TIP3    H274787   1.208   1.643   0.830  0.5953  0.6725 -1.3995
17766TIP3   OH274788   0.424   2.641   2.827 -0.2580  0.1071  0.3743
17766TIP3    H174789   0.478   2.709   2.868  0.6870 -0.9593  0.9405
17766TIP3    H274790   0.335   2.677   2.829  0.2892  1.5275  0.2203
17767TIP3   OH274791   4.973   4.950  14.058  0.6061 -0.1411  0.2030
17767TIP3    H174792   4.899   4.993  14.101 -0.3983 -1.3979 -0.2518
17767TIP3    H274793   5.019   4.905  14.129  0.3604 -0.1903  0.3321
17768TIP3   OH274794   1.414   6.407  14.482 -0.4086 -0.2870 -0.1209
17768TIP3    H174795   1.371   6.374  14.561 -1.6272  0.8786 -0.2761
17768TIP3    H274796   1.418   6.502  14.495 -1.5253  0.0261 -1.8905
17769TIP3   OH274797   1.834   5.031  14.828 -0.1106  0.7912  0.2579
17769TIP3    H174798   1.880   4.948  14.815 -1.0400  0.5508 -1.6532
17769TIP3    H274799   1.825   5.067  14.740 -0.8893  2.2857  0.9426
17770TIP3   OH274800   2.033   4.574   2.921 -0.0842  0.5547  0.5535
17770TIP3    H174801   2.028   4.489   2.964 -1.9274  1.6132  2.5175
17770TIP3    H274802   2.017   4.638   2.990 -0.5312  2.4315 -1.2127
17771TIP3   OH274803   6.105   3.837  13.173 -0.0600 -0.2708 -0.0106
17771TIP3    H174804   6.155   3.812  13.096  1.1385 -0.7961  0.9204
17771TIP3    H274805   6.050   3.909  13.143  1.4565  0.5084 -0.9910
17772TIP3   OH274806   3.911   0.851  14.336  0.4288 -0.1668 -0.3477
17772TIP3    H174807   3.855   0.846  14.258  0.8286  0.1388 -0.6589
17772TIP3    H274808   3.904   0.943  14.364  1.6776  0.1499 -1.0615
17773TIP3   OH274809   5.998   1.314  14.845 -0.4822  0.6606 -0.4059
17773TIP3    H174810   5.915   1.311  14.797 -0.7374 -0.3044  0.0816
17773TIP3    H274811   6.055   1.253  14.797 -0.9093 -0.7249  0.8079
17774TIP3   OH274812   4.413   2.079   1.920  0.1262  0.0358  0.0610
17774TIP3    H174813   4.336   2.029   1.949 -0.1009 -0.1240 -0.7941
17774TIP3    H274814   4.382   2.127   1.843  1.1396 -0.7801 -0.8707
17775TIP3   OH274815   5.709   1.243  11.938  0.3396 -0.2901 -0.3936
17775TIP3    H174816   5.670   1.253  12.025 -0.7208  0.4508 -0.9358
17775TIP3    H274817   5.713   1.149  11.925  1.5221 -0.4327  0.8964
17776TIP3   OH274818   2.889   3.704   3.065  0.1433  0.8947  0.0642
17776TIP3    H174819   2.978   3.708   3.029 -0.1810  1.0934 -0.7152
17776TIP3    H274820   2.895   3.752   3.148  0.9937  0.0392  0.5021
17777TIP3   OH274821   6.207   4.172   1.187 -0.0177 -0.2445 -0.0452
17777TIP3    H174822   6.212   4.123   1.269  0.7253 -1.0686 -0.5829
17777TIP3    H274823   6.212   4.264   1.214 -1.5991 -0.4269  0.9758
17778TIP3   OH274824   2.134   1.283   2.929 -0.1635 -0.2851  0.1646
17778TIP3    H174825   2.064   1.345   2.948 -1.2056 -2.2781  3.2450
17778TIP3    H274826   2.213   1.324   2.965  0.1955  1.5858 -2.5756
17779TIP3   OH274827   5.302   3.160   1.349  0.2983 -1.1202 -0.4703
17779TIP3    H174828   5.356   3.235   1.376  1.6489 -1.8132 -1.1992
17779TIP3    H274829   5.223   3.200   1.313  1.7216  0.0566 -2.4136
17780TIP3   OH274830   3.814   3.630  12.746  0.2411  0.8524 -0.2390
17780TIP3    H174831   3.825   3.623  12.651 -0.0657  0.7772 -0.2685
17780TIP3    H274832   3.900   3.607  12.782  0.1933  0.2906 -0.4753
17781TIP3   OH274833   2.541   5.427  11.660 -0.4257 -0.1118  0.0659
17781TIP3    H174834   2.634   5.442  11.642 -0.4597  0.2802  0.2052
17781TIP3    H274835   2.522   5.482  11.736 -0.6812 -0.4836  0.2695
17782TIP3   OH274836   0.021   1.307   2.588  0.2933  0.4358 -0.0451
17782TIP3    H174837  -0.006   1.240   2.524 -2.5435  1.1798  0.2891
17782TIP3    H274838   0.018   1.389   2.539 -0.0075  0.7773  0.5470
17783TIP3   OH274839   5.389   6.708   3.982  0.1838  0.4446 -0.5905
17783TIP3    H174840   5.341   6.694   3.900 -0.9008 -0.9395  0.2595
17783TIP3    H274841   5.390   6.622   4.024 -0.4494  1.4190  1.4765
17784TIP3   OH274842   3.857   3.943   5.193 -0.3953  0.2396  0.4054
17784TIP3    H174843   3.934   3.997   5.176  0.3953 -1.1498 -0.5434
17784TIP3    H274844   3.790   3.977   5.134 -0.5144  1.4248  1.2023
17785TIP3   OH274845   5.951   3.644  15.246  0.3916  0.4407  0.2988
17785TIP3    H174846   5.947   3.550  15.264  0.1456 -0.0259 -1.9394
17785TIP3    H274847   6.004   3.651  15.167  2.0066  2.3801  1.5167
17786TIP3   OH274848   3.272   6.201   0.030 -0.5809  0.3423 -0.2609
17786TIP3    H174849   3.231   6.143  -0.034  1.4471  0.1526 -1.4301
17786TIP3    H274850   3.359   6.165   0.043 -1.0422  0.2038  2.8855
17787TIP3   OH274851   2.079   5.703   2.005  0.0701 -0.2411  0.1314
17787TIP3    H174852   2.063   5.609   2.019 -0.6201 -0.0845  0.4213
17787TIP3    H274853   1.997   5.736   1.969  1.0447 -0.1686 -2.1327
17788TIP3   OH274854   0.524   1.216  12.236 -0.3127 -0.1794  0.3650
17788TIP3    H174855   0.593   1.271  12.273  1.4480 -1.0768 -1.5172
17788TIP3    H274856   0.463   1.278  12.195  0.4992  0.4880  0.1657
17789TIP3   OH274857   5.049   5.257   3.470 -0.7012  0.2087  0.4542
17789TIP3    H174858   5.072   5.187   3.531  0.4432 -0.6159 -0.8781
17789TIP3    H274859   4.968   5.294   3.504  0.0912 -0.0326  2.6354
17790TIP3   OH274860   2.657   2.995  16.146  1.2562 -0.4285  0.5053
17790TIP3    H174861   2.669   3.045  16.065  0.0425 -2.6995 -1.1221
17790TIP3    H274862   2.726   2.930  16.144 -0.2080 -2.0062  0.0790
17791TIP3   OH274863   1.977   5.522  11.029  0.5565  0.7941  0.4773
17791TIP3    H174864   1.931   5.532  10.946 -0.7562  1.6498  1.2793
17791TIP3    H274865   1.930   5.451  11.073  3.0504 -1.6558 -0.6744
17792TIP3   OH274866   2.698   6.440   0.723 -0.0406 -0.5660  0.1149
17792TIP3    H174867   2.793   6.441   0.712  0.3438  0.6937  3.0297
17792TIP3    H274868   2.663   6.442   0.634  2.6763  1.5575 -0.9605
17793TIP3   OH274869   0.839   5.563   1.867 -0.0616 -0.4792 -0.4543
17793TIP3    H174870   0.899   5.517   1.808  1.4030 -1.2842  1.5918
17793TIP3    H274871   0.755   5.520   1.855  0.0104 -0.1017 -2.5095
17794TIP3   OH274872   1.516   0.600   2.912  0.1004 -0.1817  0.0582
17794TIP3    H174873   1.425   0.584   2.887  0.1701  0.5865 -0.6915
17794TIP3    H274874   1.563   0.524   2.879 -0.1195 -0.1275 -0.3841
17795TIP3   OH274875   6.507   6.490   2.448  0.0447 -0.2540 -0.4128
17795TIP3    H174876   6.414   6.510   2.435 -0.4055 -1.8093  0.2563
17795TIP3    H274877   6.508   6.429   2.522  1.6820  0.4644  0.1657
17796TIP3   OH274878   4.326   0.426   0.652  0.3028 -0.4718  0.1687
17796TIP3    H174879   4.327   0.495   0.585 -1.7189 -0.3497  0.2343
17796TIP3    H274880   4.333   0.344   0.602  0.1705 -0.3250 -0.0937
17797TIP3   OH274881   3.649   5.250   1.942 -0.6898  0.3914  0.1955
17797TIP3    H174882   3.603   5.168   1.963 -0.3803  0.4511  1.1294
17797TIP3    H274883   3.627   5.308   2.015  0.4050  0.6065  0.3589
17798TIP3   OH274884   2.832   0.022  14.387  0.1755  0.0862 -0.4605
17798TIP3    H174885   2.788  -0.056  14.419 -0.5983  1.8241  2.8415
17798TIP3    H274886   2.773   0.058  14.321 -1.5580  0.2784  1.1638
17799TIP3   OH274887   0.982   2.556   2.396 -0.1704  0.3543 -0.0427
17799TIP3    H174888   1.073   2.528   2.386  0.5866  2.7521 -0.0525
17799TIP3    H274889   0.943   2.541   2.310  0.9360  1.8596 -0.8096
17800TIP3   OH274890   0.329   0.152   3.961  0.2633 -0.2477  0.8341
17800TIP3    H174891   0.284   0.229   3.996  2.0391 -0.4982  3.9056
17800TIP3    H274892   0.283   0.078   4.001 -1.0622 -0.8228 -1.6479
17801TIP3   OH274893   3.388   3.547  13.792  0.3331 -0.0941 -0.4556
17801TIP3    H174894   3.402   3.592  13.875 -1.4673 -0.3244 -0.0057
17801TIP3    H274895   3.423   3.459  13.806 -1.3175 -0.5974  0.5592
17802TIP3   OH274896   4.069   0.902  14.664  0.6316  0.4003 -0.0875
17802TIP3    H174897   4.064   0.962  14.590  0.6861  2.5941  1.6266
17802TIP3    H274898   4.160   0.873  14.665  0.3363 -0.6059 -1.5993
17803TIP3   OH274899   3.613   0.132  17.031  1.1135  0.4859 -0.1540
17803TIP3    H174900   3.679   0.085  17.083 -0.5209 -1.6576  0.0420
17803TIP3    H274901   3.566   0.184  17.096  2.4300  1.8431 -0.2630
17804TIP3   OH274902   6.282   2.424  12.300 -0.0915 -0.6450  0.0815
17804TIP3    H174903   6.333   2.465  12.231  1.4277 -1.4830  0.6955
17804TIP3    H274904   6.306   2.471  12.379 -1.6122  0.1254  0.0979
17805TIP3   OH274905   6.158   3.336  13.934 -0.1496  0.4766  0.1216
17805TIP3    H174906   6.217   3.373  14.000 -0.4154  0.3346  0.4393
17805TIP3    H274907   6.127   3.412  13.884  0.7079  0.5003 -0.3793
17806TIP3   OH274908   0.970   4.363   6.511  0.8576  0.6359 -0.2878
17806TIP3    H174909   0.960   4.452   6.544 -0.2480  0.3230  0.2565
17806TIP3    H274910   0.940   4.307   6.584 -0.8649 -0.0834 -1.5112
17807TIP3   OH274911   6.665   1.684  13.448 -0.1005 -0.7658  0.0158
17807TIP3    H174912   6.590   1.704  13.504  0.5437 -0.2521  0.7091
17807TIP3    H274913   6.724   1.759  13.460  0.6902 -1.3493 -0.2275
17808TIP3   OH274914   0.433   5.981  16.863 -0.3507  0.2507  0.1977
17808TIP3    H174915   0.365   6.000  16.798  0.4269  1.0322 -0.4048
17808TIP3    H274916   0.432   5.886  16.872 -0.2332  0.1071 -1.2194
17809TIP3   OH274917   6.501   2.190  15.787 -0.0380  0.0503 -0.2813
17809TIP3    H174918   6.597   2.191  15.789  0.0402  1.1956 -2.5967
17809TIP3    H274919   6.476   2.133  15.859  2.3380  1.1292  1.4748
17810TIP3   OH274920   1.533   4.070  14.218  0.3177  0.2909  0.3034
17810TIP3    H174921   1.570   4.120  14.144 -0.8856  0.6444 -0.0610
17810TIP3    H274922   1.589   4.094  14.292  1.2540  0.2953 -0.3833
17811TIP3   OH274923   3.493   4.685  10.647 -0.5795  0.4438 -0.0415
17811TIP3    H174924   3.543   4.641  10.716  0.1522  2.2574  0.6126
17811TIP3    H274925   3.429   4.738  10.694  0.6730  2.5741 -0.7025
17812TIP3   OH274926   5.054   6.022   5.783  0.4154 -0.6673 -0.0949
17812TIP3    H174927   5.092   6.107   5.760 -0.6743 -0.2086 -0.2145
17812TIP3    H274928   5.127   5.973   5.821  0.5740  1.0367  1.8617
17813TIP3   OH274929   6.701   5.620   2.135 -0.2107 -0.8355  0.0398
17813TIP3    H174930   6.606   5.631   2.136 -0.2776 -1.1661 -1.0599
17813TIP3    H274931   6.718   5.569   2.055  0.7928 -1.6872  0.7807
17814TIP3   OH274932   1.412   0.475  12.255  0.1111 -0.1051  0.2382
17814TIP3    H174933   1.460   0.483  12.338 -0.1976  0.2496  0.3848
17814TIP3    H274934   1.419   0.383  12.232 -1.7867 -0.6802  1.8495
17815TIP3   OH274935   2.780   0.921  14.309 -0.2379 -0.4115 -0.7903
17815TIP3    H174936   2.815   0.917  14.399 -0.3608 -1.3066 -0.7851
17815TIP3    H274937   2.686   0.912  14.319 -0.3557  0.5321 -0.9356
17816TIP3   OH274938   1.556   0.640   2.563  0.2792  0.5753 -0.6352
17816TIP3    H174939   1.603   0.663   2.643 -0.3957  2.8868 -0.8771
17816TIP3    H274940   1.465   0.666   2.580 -0.7360 -2.7404 -0.6271
17817TIP3   OH274941   2.764   3.449  17.100 -0.5670 -0.0218  0.5369
17817TIP3    H174942   2.819   3.464  17.176  0.2440 -0.7685  0.1044
17817TIP3    H274943   2.711   3.528  17.092  2.4830  1.9413 -0.7758
17818TIP3   OH274944   4.755   2.085   2.286 -0.5106  0.1726 -0.3390
17818TIP3    H174945   4.663   2.081   2.260 -0.7468  0.0959  0.4885
17818TIP3    H274946   4.786   2.169   2.253 -1.0002  0.4023 -0.2200
17819TIP3   OH274947   5.739   3.750  11.303  0.0965  0.3013  0.3155
17819TIP3    H174948   5.743   3.785  11.213  1.9209 -0.3063  0.1216
17819TIP3    H274949   5.785   3.666  11.297 -0.0810  0.1005  1.7585
17820TIP3   OH274950   0.028   4.144  12.745 -0.7191  0.0741 -0.8500
17820TIP3    H174951  -0.009   4.192  12.819 -1.0789  0.6452 -1.4006
17820TIP3    H274952   0.115   4.183  12.732  1.1075 -2.7738  1.8985
17821TIP3   OH274953   0.094   5.852  14.753  0.2231 -0.4271  0.2738
17821TIP3    H174954   0.104   5.796  14.830  1.3935  1.1350  1.3014
17821TIP3    H274955   0.061   5.794  14.685  0.0675 -2.0470  1.6964
17822TIP3   OH274956   0.297   1.323  11.225  0.4392 -0.1697 -0.0378
17822TIP3    H174957   0.367   1.376  11.265  0.1543  2.5251 -2.9305
17822TIP3    H274958   0.227   1.386  11.207 -1.7741 -2.4127  0.5877
17823TIP3   OH274959   0.457   4.447   5.835 -0.1396 -0.2922  0.2744
17823TIP3    H174960   0.389   4.445   5.903 -1.7382  0.0098 -1.2661
17823TIP3    H274961   0.475   4.540   5.822  0.4047 -0.3641  0.5167
17824TIP3   OH274962   6.725   6.189   4.916  0.0025 -0.0829  0.0432
17824TIP3    H174963   6.773   6.208   4.835 -0.4582  0.8011 -0.0221
17824TIP3    H274964   6.758   6.103   4.944  1.2762  0.2969 -0.2627
17825TIP3   OH274965   0.772   3.425   6.561 -0.1885 -0.0642  0.6644
17825TIP3    H174966   0.784   3.415   6.466 -2.9386  0.0503  0.2720
17825TIP3    H274967   0.685   3.462   6.570 -0.0574 -0.3269  3.2745
17826TIP3   OH274968   2.299   1.747   1.730 -0.1520 -0.2906 -0.0912
17826TIP3    H174969   2.285   1.797   1.810  3.5752  0.9709 -0.1338
17826TIP3    H274970   2.244   1.789   1.665 -1.7096 -0.1074  1.3367
17827TIP3   OH274971   4.602   4.132  14.014  0.8846  0.1960  0.2692
17827TIP3    H174972   4.695   4.124  14.035  1.0036  1.5546  0.2875
17827TIP3    H274973   4.600   4.177  13.929  0.2750 -0.9820 -0.3600
17828TIP3   OH274974   2.736   3.797  16.134 -0.4097 -0.2414  0.3462
17828TIP3    H174975   2.691   3.881  16.133 -1.1458 -0.6107  1.4644
17828TIP3    H274976   2.666   3.732  16.123 -0.0160 -0.7619  0.8859
17829TIP3   OH274977   5.830   2.079  12.321  0.0475  0.3949 -0.1036
17829TIP3    H174978   5.804   2.001  12.272 -1.6704  1.3174 -0.6933
17829TIP3    H274979   5.837   2.048  12.412  3.1439 -1.2927 -0.8488
17830TIP3   OH274980   0.502   5.604  16.720 -0.3736 -0.0909  0.3410
17830TIP3    H174981   0.438   5.664  16.757 -0.5061  1.1388 -1.7885
17830TIP3    H274982   0.472   5.588  16.631  1.5507 -0.5389 -0.2670
17831TIP3   OH274983   2.791   6.019   5.610 -0.0552 -0.5339  0.0837
17831TIP3    H174984   2.877   5.986   5.587  0.4512 -0.0048  1.1863
17831TIP3    H274985   2.765   6.073   5.536  0.6997 -0.4417 -0.1120
17832TIP3   OH274986   6.203   4.037  13.719  0.2393  0.0235  0.1095
17832TIP3    H174987   6.274   3.989  13.678  0.0159 -0.8202  0.7025
17832TIP3    H274988   6.223   4.036  13.812 -1.9598 -2.6471  0.6225
17833TIP3   OH274989   2.142   0.487   5.912  0.2372  0.2653 -1.2480
17833TIP3    H174990   2.076   0.496   5.980  0.9883 -2.2379 -0.1011
17833TIP3    H274991   2.092   0.468   5.832 -0.4871 -2.6571 -0.1884
17834TIP3   OH274992   2.617   3.618   3.098 -0.2055  0.6634 -0.5491
17834TIP3    H174993   2.573   3.534   3.089 -1.8761  1.2447  1.5964
17834TIP3    H274994   2.710   3.599   3.088 -0.5077 -1.5506  0.6562
17835TIP3   OH274995   5.139   1.944  13.667  0.5630 -0.3415 -0.3836
17835TIP3    H174996   5.073   1.969  13.732  1.4299  0.2649  0.2783
17835TIP3    H274997   5.152   2.022  13.614  0.7782 -0.4402 -0.4806
17836TIP3   OH274998   5.601   3.408  14.709  0.3796  0.5621  0.3741
17836TIP3    H174999   5.506   3.395  14.702  0.6303 -1.5876  0.7142
17836TIP3    H275000   5.639   3.328  14.674  2.1699  2.4077 -2.1482
17837TIP3   OH275001   0.814   2.692   4.276  0.0770 -0.5815 -0.0375
17837TIP3    H175002   0.905   2.689   4.303  0.6940 -1.6469 -2.1528
17837TIP3    H275003   0.787   2.600   4.272 -0.1831 -0.4280 -2.3560
17838TIP3   OH275004   6.145   2.079  12.823  0.4365 -0.3374 -0.2665
17838TIP3    H175005   6.102   2.133  12.890  2.6904  0.5945  0.4791
17838TIP3    H275006   6.145   1.991  12.860 -1.6701 -0.5573 -0.7128
17839TIP3   OH275007   1.141   5.579  11.741  0.1037  0.0085 -0.1401
17839TIP3    H175008   1.176   5.617  11.660  2.4894 -1.0172  0.3775
17839TIP3    H275009   1.121   5.654  11.796 -1.1143  0.7024 -1.4811
17840TIP3   OH275010   1.341   0.561  17.163  0.2877  0.2725  0.0010
17840TIP3    H175011   1.278   0.489  17.161 -0.4840  0.9633 -1.6513
17840TIP3    H275012   1.332   0.603  17.077  1.6500  1.5389  0.4576
17841TIP3   OH275013   1.390   4.900  15.767 -0.3653 -0.4488  0.6036
17841TIP3    H175014   1.320   4.942  15.816 -0.0397  1.4764 -0.5411
17841TIP3    H275015   1.443   4.856  15.833 -0.4554  1.3481  1.9060
17842TIP3   OH275016   3.650   3.537   1.860 -0.4717  0.3079 -0.0721
17842TIP3    H175017   3.698   3.589   1.797 -0.5801  1.3644  0.7144
17842TIP3    H275018   3.655   3.586   1.942  1.2805 -1.9455  1.2386
17843TIP3   OH275019   5.419   0.754  11.996 -0.3429 -0.3505 -0.5247
17843TIP3    H175020   5.455   0.802  11.921  0.8355 -2.1007 -1.0981
17843TIP3    H275021   5.409   0.820  12.064  0.2955  0.9039 -1.6273
17844TIP3   OH275022   3.749   6.645  15.432  0.0945  0.3068  0.6243
17844TIP3    H175023   3.708   6.615  15.351 -1.0360 -1.8702  1.9462
17844TIP3    H275024   3.837   6.608  15.429  0.4410  1.1712 -0.1108
17845TIP3   OH275025   4.706   2.252  13.262 -0.5279  0.0352  0.6528
17845TIP3    H175026   4.663   2.181  13.215 -0.4767  0.1805  0.3864
17845TIP3    H275027   4.643   2.277  13.330 -1.4496  1.1743 -0.6122
17846TIP3   OH275028   0.588   6.211  14.436 -0.1846  0.6927 -0.2149
17846TIP3    H175029   0.675   6.176  14.420 -0.4069 -0.2027  0.4648
17846TIP3    H275030   0.542   6.141  14.483 -1.6634  0.6647 -1.6326
17847TIP3   OH275031   1.569   0.416  15.950  0.9039  0.1288 -0.4453
17847TIP3    H175032   1.496   0.394  15.892 -0.3714  1.1200  0.7310
17847TIP3    H275033   1.530   0.419  16.037  2.3380  0.7917  0.1930
17848TIP3   OH275034   1.634   0.023  13.234  0.2181 -0.0669  0.2528
17848TIP3    H175035   1.551  -0.006  13.195 -0.2634 -0.2887  1.4290
17848TIP3    H275036   1.623   0.007  13.328  1.0232  1.3054  0.5890
17849TIP3   OH275037   0.381   2.328  12.273 -0.2916 -0.3540  0.0433
17849TIP3    H175038   0.326   2.313  12.350  0.1575  2.1441  0.9021
17849TIP3    H275039   0.451   2.262  12.281  0.1889  0.3610  2.2193
17850TIP3   OH275040   6.521   6.516  15.276  0.7136  0.4444 -0.2153
17850TIP3    H175041   6.581   6.578  15.235  0.1000  1.7400  0.8080
17850TIP3    H275042   6.465   6.485  15.204 -1.0810  3.5226 -0.2132
17851TIP3   OH275043   4.983   2.098   5.370  0.4493  0.3057  0.0720
17851TIP3    H175044   4.979   2.082   5.276 -0.3396  1.2625 -0.0673
17851TIP3    H275045   5.057   2.159   5.381 -0.3386  1.3073 -0.1013
17852TIP3   OH275046   1.475   4.054  12.572 -0.3390 -0.6489  0.0537
17852TIP3    H175047   1.502   4.107  12.498 -0.0834 -1.6978 -0.6132
17852TIP3    H275048   1.428   3.980  12.533 -2.6667  0.2167  1.0851
17853TIP3   OH275049   3.979   2.580  10.208 -0.4382 -0.4245 -0.0482
17853TIP3    H175050   3.950   2.538  10.127  0.7816  0.7829 -1.1476
17853TIP3    H275051   3.971   2.512  10.274  1.4546 -2.3803 -1.7563
17854TIP3   OH275052   5.909   3.700  13.323  0.1703 -0.1457 -0.0167
17854TIP3    H175053   5.986   3.756  13.325  0.8514 -1.0614 -0.1678
17854TIP3    H275054   5.890   3.688  13.230 -1.3557  1.6753  0.0270
17855TIP3   OH275055   0.512   6.754  11.812  0.4033  0.3631  0.5059
17855TIP3    H175056   0.544   6.844  11.808  0.7119  0.2068 -0.7118
17855TIP3    H275057   0.508   6.734  11.906 -2.2941  2.5682  0.9155
17856TIP3   OH275058   3.106   2.915  15.346  0.4625 -0.1896 -0.4688
17856TIP3    H175059   3.083   2.868  15.266  2.5163  1.9052 -2.3586
17856TIP3    H275060   3.152   2.993  15.316 -0.0751  1.4439  2.7151
17857TIP3   OH275061   0.784   5.676   2.602  0.6202  0.0858  0.1505
17857TIP3    H175062   0.833   5.661   2.682  1.0692 -0.9357 -0.3108
17857TIP3    H275063   0.692   5.679   2.630  0.7353 -0.7932  0.6232
17858TIP3   OH275064   4.526   0.226  13.676 -0.0739  0.3593  0.5405
17858TIP3    H175065   4.545   0.319  13.671  1.5763 -0.0428 -1.2142
17858TIP3    H275066   4.609   0.186  13.700  0.1512 -0.9749 -2.2500
17859TIP3   OH275067   0.950   4.759   4.642 -0.0936 -0.8133  0.1912
17859TIP3    H175068   0.876   4.814   4.666  0.7149  0.9950 -1.2680
17859TIP3    H275069   0.912   4.687   4.592 -0.9240 -0.2429  0.0031
17860TIP3   OH275070   3.498   2.972   1.695  0.4390  0.8114 -0.6508
17860TIP3    H175071   3.478   2.923   1.615 -1.3495 -0.4139  0.5209
17860TIP3    H275072   3.515   2.904   1.760 -1.8328  1.7430  0.9409
17861TIP3   OH275073   2.601   0.939  11.576  0.2169  0.2704 -0.4815
17861TIP3    H175074   2.556   0.882  11.514  1.8203 -0.9095 -0.5953
17861TIP3    H275075   2.658   0.880  11.625  1.6331  1.7143 -0.3562
17862TIP3   OH275076   3.050   6.710   4.486 -0.2583  0.1317  0.0467
17862TIP3    H175077   3.137   6.745   4.471  0.2421 -1.4928 -0.9725
17862TIP3    H275078   3.030   6.733   4.577  0.0467  2.9647 -0.5526
17863TIP3   OH275079   6.752   6.564   2.540  0.2766 -0.0030  0.0784
17863TIP3    H175080   6.668   6.569   2.493  0.3766 -0.4560 -0.1516
17863TIP3    H275081   6.757   6.647   2.588 -0.7893 -0.4197  0.9244
17864TIP3   OH275082   5.744   2.108  14.692  0.3372 -0.4838 -0.0321
17864TIP3    H175083   5.684   2.134  14.762  0.8326 -0.4332  0.3748
17864TIP3    H275084   5.711   2.023  14.663  1.2105 -1.3762  1.5265
17865TIP3   OH275085   1.362   4.699  15.591 -0.8491 -0.3576  0.1386
17865TIP3    H175086   1.334   4.748  15.513 -1.2229  0.1813  0.5974
17865TIP3    H275087   1.374   4.767  15.658 -0.2791 -0.7894  0.4739
17866TIP3   OH275088   1.340   2.743   6.598 -0.1118 -0.8102  0.5560
17866TIP3    H175089   1.378   2.829   6.582  1.0911 -1.6572 -1.2825
17866TIP3    H275090   1.409   2.681   6.576 -1.6645 -2.3110 -0.2301
17867TIP3   OH275091   6.423   6.789  12.772  0.0203 -0.0112  0.6483
17867TIP3    H175092   6.368   6.868  12.781 -1.8123 -1.2451  0.5694
17867TIP3    H275093   6.484   6.810  12.701 -0.6603  1.2220  0.4083
17868TIP3   OH275094   3.748   5.697  13.823  0.1749  0.3885  0.1276
17868TIP3    H175095   3.673   5.752  13.846  0.0121  0.4983 -0.6716
17868TIP3    H275096   3.789   5.677  13.908 -0.2958  0.9754  0.5029
17869TIP3   OH275097   0.590   1.967  16.086  0.2684  0.0279 -0.1202
17869TIP3    H175098   0.616   2.040  16.029 -1.2694  0.7803  0.1351
17869TIP3    H275099   0.497   1.980  16.101  0.0042 -1.9310  0.0390
17870TIP3   OH275100   4.011   1.782  13.655 -0.1956 -0.0092 -0.0136
17870TIP3    H175101   3.993   1.875  13.668 -1.8293 -0.4481  1.0938
17870TIP3    H275102   3.937   1.737  13.697 -0.3795 -1.7732 -2.0936
17871TIP3   OH275103   5.347   6.234   4.981  0.1126  0.2523 -0.0505
17871TIP3    H175104   5.363   6.140   4.994  1.4753  0.7126  1.8425
17871TIP3    H275105   5.287   6.258   5.052 -1.6859  0.4574 -1.6158
17872TIP3   OH275106   0.477   2.470  13.251  0.6870 -0.0366 -0.9150
17872TIP3    H175107   0.417   2.430  13.189 -0.7397  1.1407 -0.3199
17872TIP3    H275108   0.545   2.510  13.196  0.9324 -1.3357 -1.5844
17873TIP3   OH275109   2.501   1.002   1.169 -0.8289  0.4596  0.1100
17873TIP3    H175110   2.596   0.987   1.175 -0.8310  0.3709 -0.0707
17873TIP3    H275111   2.469   0.985   1.257 -0.5400  1.4780  0.4091
17874TIP3   OH275112   0.969   0.866  15.840  0.6473 -0.4275 -0.3164
17874TIP3    H175113   0.979   0.958  15.865  1.0968 -0.3403 -0.7988
17874TIP3    H275114   0.932   0.824  15.917  1.4121 -0.0384  0.2727
17875TIP3   OH275115   5.005   0.334  16.877  0.2458  0.1526 -0.1640
17875TIP3    H175116   5.060   0.306  16.950 -1.5828  1.4868  1.7558
17875TIP3    H275117   5.064   0.388  16.823  1.4869 -0.4876  0.5167
17876TIP3   OH275118   0.037   3.808   2.212 -0.1888 -0.7834 -0.3790
17876TIP3    H175119   0.046   3.881   2.151  2.5006  0.9843  2.0128
17876TIP3    H275120   0.118   3.758   2.201 -1.2939 -2.5228 -0.8107
17877TIP3   OH275121   5.730   4.804  16.778  0.0362 -0.0740 -0.4313
17877TIP3    H175122   5.789   4.872  16.810  1.5077 -1.2926 -0.5040
17877TIP3    H275123   5.730   4.815  16.683  0.3373 -0.2277 -0.4488
17878TIP3   OH275124   4.331   3.580   0.001  0.5147 -0.4895  0.6188
17878TIP3    H175125   4.342   3.538  -0.085 -0.3001 -0.6816  0.6099
17878TIP3    H275126   4.237   3.595   0.009  0.9059  2.7543 -0.0595
17879TIP3   OH275127   0.245   1.683  15.523  0.6692  0.5522 -0.4843
17879TIP3    H175128   0.178   1.638  15.471  1.4904 -0.6741 -0.5031
17879TIP3    H275129   0.201   1.761  15.556 -1.1552 -0.8613  0.5135
17880TIP3   OH275130   2.443   3.392   3.149  0.1659  0.1073  0.4421
17880TIP3    H175131   2.362   3.440   3.162  0.3353  0.9729 -1.4854
17880TIP3    H275132   2.421   3.324   3.085  0.4219 -1.0906  1.6056
17881TIP3   OH275133   6.601   3.185  15.692  0.0793 -0.1763  0.2446
17881TIP3    H175134   6.591   3.162  15.600 -0.8074  0.8276  0.0796
17881TIP3    H275135   6.567   3.109  15.740  0.2962 -0.5899 -0.2514
17882TIP3   OH275136   0.403   0.258  12.063  0.2344 -0.0826 -0.0017
17882TIP3    H175137   0.387   0.230  11.973  0.9620  0.8038 -0.4164
17882TIP3    H275138   0.376   0.349  12.065  1.4084  0.2703  0.3391
17883TIP3   OH275139   4.457   4.479  13.143  0.0926 -0.0145 -0.7842
17883TIP3    H175140   4.391   4.546  13.126 -0.7655 -1.1836 -2.2855
17883TIP3    H275141   4.439   4.450  13.232 -2.5109 -1.4242 -1.6950
17884TIP3   OH275142   6.053   2.351  17.009 -0.3166  0.0414 -0.7244
17884TIP3    H175143   6.137   2.309  17.028 -0.8851 -0.4219  0.8253
17884TIP3    H275144   6.074   2.419  16.945  0.9619 -1.1789 -1.6259
17885TIP3   OH275145   6.630   0.578   1.308 -0.1800  0.5258  0.0807
17885TIP3    H175146   6.674   0.509   1.358 -1.6952 -0.6946 -0.2437
17885TIP3    H275147   6.696   0.607   1.245  0.9241  0.3282  1.1261
17886TIP3   OH275148   6.736   4.165  16.398 -0.7537  0.3346  0.3935
17886TIP3    H175149   6.681   4.207  16.465 -0.0118  1.7154  0.1348
17886TIP3    H275150   6.825   4.178  16.429 -0.4476  0.2165 -0.4422
17887TIP3   OH275151   1.359   1.624   4.567 -0.6019 -0.8202 -0.4550
17887TIP3    H175152   1.395   1.647   4.653 -1.2857 -1.3267 -0.0253
17887TIP3    H275153   1.284   1.568   4.587 -2.0075  0.6984 -1.3027
17888TIP3   OH275154   5.600   3.291   5.638  0.0983  0.0250 -0.0189
17888TIP3    H175155   5.695   3.303   5.630  0.0737  1.6042  1.6278
17888TIP3    H275156   5.590   3.205   5.679  0.8203 -0.2249 -0.3700
17889TIP3   OH275157   3.131   4.707  16.385  0.2050  0.5244  0.0153
17889TIP3    H175158   3.065   4.777  16.385 -1.8071 -1.2903  0.4603
17889TIP3    H275159   3.102   4.647  16.316  1.9694  0.1896 -0.4396
17890TIP3   OH275160   1.231   5.379   6.447  0.4267  0.5909 -0.6647
17890TIP3    H175161   1.304   5.342   6.398  0.2358 -0.5190 -0.1185
17890TIP3    H275162   1.269   5.402   6.532  0.0239 -0.4353 -0.2111
17891TIP3   OH275163   6.447   1.528   3.464 -0.4297  0.0163  0.0579
17891TIP3    H175164   6.430   1.467   3.392 -1.5524  0.2404  0.1132
17891TIP3    H275165   6.529   1.570   3.441  0.5464 -1.7725  0.1914
17892TIP3   OH275166   0.108   2.399  12.231  0.5385 -0.3341  0.0469
17892TIP3    H175167   0.145   2.322  12.188 -1.2801 -0.4293 -1.3733
17892TIP3    H275168   0.179   2.464  12.228  1.3231 -1.2131 -0.7082
17893TIP3   OH275169   2.490   1.298  12.964  0.3430  0.6663  0.3185
17893TIP3    H175170   2.424   1.361  12.935 -0.7344 -0.9681 -0.8916
17893TIP3    H275171   2.466   1.278  13.054 -1.6888 -0.9368 -0.5356
17894TIP3   OH275172   2.917   3.482  15.990  0.5145 -0.0578 -0.0246
17894TIP3    H175173   2.888   3.417  16.054 -1.1737 -1.6395 -2.3362
17894TIP3    H275174   2.982   3.436  15.936  2.7425  1.5771  1.1399
17895TIP3   OH275175   2.548   6.229  13.549 -1.0467  0.2751 -0.5511
17895TIP3    H175176   2.614   6.251  13.614  0.1293 -3.2641 -0.4364
17895TIP3    H275177   2.568   6.285  13.474  1.4793 -0.0784 -0.1739
17896TIP3   OH275178   6.336   2.924  11.474  0.1114 -0.2810 -0.4123
17896TIP3    H175179   6.417   2.925  11.525  0.6683 -0.0382 -1.2956
17896TIP3    H275180   6.280   2.990  11.516 -0.2690 -1.5794  1.1990
17897TIP3   OH275181   2.559   5.220   1.434 -0.3987 -0.0141  0.1586
17897TIP3    H175182   2.513   5.161   1.374  0.7153  1.2047 -1.9325
17897TIP3    H275183   2.646   5.181   1.444 -0.0106  0.7047 -0.3929
17898TIP3   OH275184   4.804   0.825   5.771  0.1328  0.2386  0.0251
17898TIP3    H175185   4.882   0.874   5.748 -1.5903  1.8429 -2.7216
17898TIP3    H275186   4.763   0.877   5.840  0.2220  0.7217 -0.2799
17899TIP3   OH275187   2.007   6.420  12.371  0.5849  0.0180 -0.5243
17899TIP3    H175188   1.959   6.412  12.454  0.1840  1.1929 -0.6406
17899TIP3    H275189   2.011   6.330  12.338  0.0429 -0.3493  0.3733
17900TIP3   OH275190   6.606   5.746  15.510  0.1667 -0.6183  0.5050
17900TIP3    H175191   6.649   5.822  15.471  0.5795 -0.5491  1.0929
17900TIP3    H275192   6.512   5.765  15.503  0.2632 -0.1512  0.4596
17901TIP3   OH275193   3.508   2.556  14.844  0.0395  0.3211  0.1134
17901TIP3    H175194   3.587   2.567  14.792  1.1391 -1.0776  1.4346
17901TIP3    H275195   3.470   2.473  14.814 -1.9114  1.8054 -1.7215
17902TIP3   OH275196   4.302   3.366  12.510 -0.3573  0.4397  0.0388
17902TIP3    H175197   4.295   3.272  12.494 -0.6011  0.1743  1.6400
17902TIP3    H275198   4.382   3.375  12.563 -0.6833  1.0652  0.4261
17903TIP3   OH275199   3.231   6.671  12.226 -0.8844  0.0260 -0.0526
17903TIP3    H175200   3.299   6.633  12.281 -0.9539 -0.5541 -0.3644
17903TIP3    H275201   3.255   6.763  12.220 -0.2312 -0.1324 -0.0015
17904TIP3   OH275202   2.353   2.974  11.603 -0.0393  0.2181  0.1259
17904TIP3    H175203   2.406   3.033  11.656 -0.3451  0.4021  0.2204
17904TIP3    H275204   2.294   2.932  11.665  0.0467 -0.0487  0.0299
17905TIP3   OH275205   1.700   4.547   3.042 -0.2410 -0.2071 -0.2051
17905TIP3    H175206   1.629   4.505   3.091  1.6454 -1.1797  1.7519
17905TIP3    H275207   1.780   4.517   3.084  1.2996  2.7359 -0.8629
17906TIP3   OH275208   3.471   0.637  14.531 -0.1339  0.2712  0.4475
17906TIP3    H175209   3.527   0.648  14.608  2.8220 -2.3408 -1.1955
17906TIP3    H275210   3.515   0.687  14.462 -2.0557  1.5053  0.0696
17907TIP3   OH275211   5.264   5.453   1.682 -0.4912 -0.6306  0.2321
17907TIP3    H175212   5.196   5.430   1.618 -1.3625  0.0108  0.9175
17907TIP3    H275213   5.239   5.406   1.761 -0.2354 -0.2475  0.5424
17908TIP3   OH275214   3.767   5.836  12.328 -0.3285 -0.1189 -0.0399
17908TIP3    H175215   3.830   5.812  12.396  0.2751  1.1617 -0.1310
17908TIP3    H275216   3.683   5.841  12.375  0.0777  0.7142  0.6289
17909TIP3   OH275217   6.077   5.181  16.887 -0.0516 -0.8460 -0.0902
17909TIP3    H175218   6.024   5.215  16.815  0.5917 -0.1525 -0.2485
17909TIP3    H275219   6.143   5.249  16.903 -0.1831 -0.9877  1.1473
17910TIP3   OH275220   0.016   5.229  15.060 -0.0441  0.3676 -0.7073
17910TIP3    H175221  -0.017   5.238  14.970  0.1046 -2.2036 -1.0300
17910TIP3    H275222  -0.051   5.178  15.105  0.4605  0.6244  0.3331
17911TIP3   OH275223   1.386   2.936   1.643 -0.1749 -0.9567 -0.1031
17911TIP3    H175224   1.361   3.008   1.585  0.0062 -1.1927 -0.4742
17911TIP3    H275225   1.478   2.954   1.664 -0.2059 -0.9378  0.0181
17912TIP3   OH275226   2.847   6.040   1.593 -0.1330 -0.1253  0.0535
17912TIP3    H175227   2.794   6.120   1.596 -0.6132 -0.4384 -0.0005
17912TIP3    H275228   2.785   5.971   1.571  0.5376 -0.2965 -1.3275
17913TIP3   OH275229   3.346   3.862  14.954  0.2831 -0.3052 -0.4134
17913TIP3    H175230   3.312   3.853  14.865  0.0844 -0.7618 -0.2969
17913TIP3    H275231   3.430   3.815  14.952 -0.1507 -1.1009 -0.1290
17914TIP3   OH275232   1.820   4.219   3.242 -0.4018  0.3733  0.2188
17914TIP3    H175233   1.836   4.253   3.330 -0.2095  2.1095 -0.4754
17914TIP3    H275234   1.731   4.246   3.221 -0.8643 -1.0304  0.3099
17915TIP3   OH275235   3.626   4.272   5.760 -0.4688  0.3614  0.4575
17915TIP3    H175236   3.659   4.257   5.849 -1.4254  1.1487  0.9463
17915TIP3    H275237   3.701   4.309   5.713  0.3859 -1.1072  0.6166
17916TIP3   OH275238   5.412   4.343  13.965 -0.1029  0.1631  0.8223
17916TIP3    H175239   5.341   4.364  13.904  0.1587  2.9342  1.4348
17916TIP3    H275240   5.370   4.294  14.035 -1.0393  0.0146  0.1623
17917TIP3   OH275241   1.790   0.501  12.256 -0.2014  0.1343 -0.0514
17917TIP3    H175242   1.802   0.590  12.289 -0.3521  0.8784 -1.9300
17917TIP3    H275243   1.727   0.461  12.317  2.6292  0.0670  2.9323
17918TIP3   OH275244   6.772   4.989  12.966  0.6072 -0.0306  0.2206
17918TIP3    H175245   6.717   5.042  12.908  0.0956  0.0444  0.7667
17918TIP3    H275246   6.842   5.048  12.993  1.5909 -0.4451 -1.3497
17919TIP3   OH275247   4.434   1.927  17.041  0.5269  0.4458 -0.3667
17919TIP3    H175248   4.375   1.974  16.982 -1.7682 -0.2632  1.3229
17919TIP3    H275249   4.404   1.951  17.129 -0.7139 -4.0981  0.5558
17920TIP3   OH275250   2.660   5.763  11.893  0.2404 -0.4575  0.1658
17920TIP3    H175251   2.722   5.724  11.954  2.3810  2.0265 -0.3647
17920TIP3    H275252   2.700   5.752  11.807  0.1166  1.4867 -0.1476
17921TIP3   OH275253   1.059   3.361  11.067 -0.5122  0.0694  0.1163
17921TIP3    H175254   0.986   3.299  11.078  0.3235 -0.9111  0.2535
17921TIP3    H275255   1.022   3.446  11.091 -1.6013 -0.4223  0.2233
17922TIP3   OH275256   6.787   2.619   3.548 -0.3441 -0.2424 -0.3434
17922TIP3    H175257   6.853   2.573   3.496 -1.0899  0.8588 -2.3211
17922TIP3    H275258   6.824   2.623   3.636  1.4285 -1.1933 -1.0257
17923TIP3   OH275259   4.328   6.672  10.612  0.1397  0.0871  0.5883
17923TIP3    H175260   4.316   6.702  10.522  0.5416 -1.1573  0.1000
17923TIP3    H275261   4.299   6.580  10.610 -1.2079  0.4529  2.0480
17924TIP3   OH275262   2.275   5.574  12.309 -0.2990  0.1750  0.3944
17924TIP3    H175263   2.327   5.530  12.376  0.2575 -0.4184 -0.4251
17924TIP3    H275264   2.189   5.587  12.350 -0.8701 -2.7623  0.2629
17925TIP3   OH275265   3.663   0.053   2.541 -0.5570  0.1902 -0.2742
17925TIP3    H175266   3.616   0.125   2.584  0.8596  1.2551 -0.4754
17925TIP3    H275267   3.710   0.009   2.612 -3.6325 -2.3522  0.3199
17926TIP3   OH275268   3.948   4.558   5.813  0.3359 -0.3832 -0.2292
17926TIP3    H175269   4.021   4.608   5.777 -1.0292  0.2489 -2.2057
17926TIP3    H275270   3.945   4.479   5.760  1.3782 -1.7932  1.7453
17927TIP3   OH275271   0.166   4.200   5.305  0.5517  0.2059  0.3879
17927TIP3    H175272   0.157   4.293   5.324 -1.5973  0.0641  0.2339
17927TIP3    H275273   0.230   4.168   5.368  0.7431  1.6341  0.9329
17928TIP3   OH275274   1.430   1.801  14.998 -0.6626  0.6138  0.3347
17928TIP3    H175275   1.425   1.709  15.024 -2.1866  0.2312 -1.2297
17928TIP3    H275276   1.359   1.843  15.045  0.9610  1.3410  2.2404
17929TIP3   OH275277   0.788   5.100   1.637  0.4829  0.5160 -0.0336
17929TIP3    H175278   0.723   5.045   1.595 -0.3187  1.3892  0.0483
17929TIP3    H275279   0.842   5.040   1.688 -0.6364 -0.1256  0.3861
17930TIP3   OH275280   5.494   2.795  10.336 -0.1985  0.6994 -0.1584
17930TIP3    H175281   5.399   2.797  10.326 -0.4546 -2.2721  1.3491
17930TIP3    H275282   5.514   2.705  10.361  2.9305  1.4989  0.3971
17931TIP3   OH275283   5.428   5.507  13.580 -0.4227  0.2168  0.6861
17931TIP3    H175284   5.359   5.493  13.645 -0.1814 -1.0844  0.6712
17931TIP3    H275285   5.506   5.467  13.619 -0.3995 -1.0621 -0.6265
17932TIP3   OH275286   1.471   0.596  16.351  0.0351 -0.3559  0.3974
17932TIP3    H175287   1.522   0.629  16.425  0.7675  0.2588 -0.3696
17932TIP3    H275288   1.512   0.636  16.274 -0.5125 -1.2530 -0.3669
17933TIP3   OH275289   2.795   5.276   2.647  0.0744  0.7669  0.1168
17933TIP3    H175290   2.773   5.188   2.617  0.9336 -0.2491  2.3226
17933TIP3    H275291   2.783   5.272   2.742  0.2025  3.0112  0.2432
17934TIP3   OH275292   3.496   1.430   5.960  0.0534  0.8888  0.3603
17934TIP3    H175293   3.443   1.435   6.039  0.0880 -0.6098  0.5031
17934TIP3    H275294   3.447   1.371   5.902 -0.1186  2.1982 -0.8473
17935TIP3   OH275295   0.369   4.536  17.225  0.3946 -0.0821 -0.1308
17935TIP3    H175296   0.329   4.506  17.144 -1.6103  1.0340  0.4053
17935TIP3    H275297   0.445   4.587  17.198 -0.3649  0.4377 -1.3347
17936TIP3   OH275298   3.373   2.916  14.764 -0.2631  0.4296 -0.1797
17936TIP3    H175299   3.345   3.004  14.738 -0.2406 -0.6555 -4.3091
17936TIP3    H275300   3.467   2.914  14.746  0.1916  0.2421  2.0755
17937TIP3   OH275301   2.034   5.609  17.248 -0.0086  0.8968 -0.3590
17937TIP3    H175302   2.053   5.574  17.160  0.3461 -0.8012  0.3828
17937TIP3    H275303   1.970   5.549  17.285  0.1070  1.4057  0.6844
17938TIP3   OH275304   3.528   6.640  16.886 -0.0821 -0.2049  0.5061
17938TIP3    H175305   3.541   6.594  16.803  0.0110  0.7205 -0.0009
17938TIP3    H275306   3.613   6.677  16.906 -0.4226  0.6883  0.3296
17939TIP3   OH275307   1.587   3.918   4.394  0.3591 -0.0206 -0.3781
17939TIP3    H175308   1.577   3.941   4.302  0.0442  0.3830 -0.2469
17939TIP3    H275309   1.509   3.866   4.415  1.5227 -2.0418 -0.9158
17940TIP3   OH275310   3.874   1.937   0.062  0.0212  0.4243 -0.3238
17940TIP3    H175311   3.848   2.017   0.017  0.3900  0.3918 -0.6015
17940TIP3    H275312   3.799   1.913   0.115  0.5076  1.9048  1.0882
17941TIP3   OH275313   3.238   3.171   3.238  0.0767 -0.3716  0.2369
17941TIP3    H175314   3.299   3.109   3.279  0.8160  0.8041  0.9445
17941TIP3    H275315   3.212   3.229   3.309 -1.2061 -0.3197 -0.2585
17942TIP3   OH275316   6.697   6.771   1.837  0.5379 -0.0534  0.1468
17942TIP3    H175317   6.642   6.777   1.759 -0.4168  0.3626  0.8401
17942TIP3    H275318   6.662   6.695   1.884 -0.1988  0.9051  1.1601
17943TIP3   OH275319   1.676   2.779  10.941 -0.0998 -0.0453  0.0166
17943TIP3    H175320   1.628   2.857  10.915  0.7083 -0.1603 -1.9292
17943TIP3    H275321   1.626   2.706  10.904 -0.5718 -0.4212  1.3810
17944TIP3   OH275322   0.510   4.226  14.486  0.3276  0.4846 -0.4574
17944TIP3    H175323   0.434   4.215  14.429 -0.0651 -1.8952  0.4895
17944TIP3    H275324   0.576   4.168  14.450  0.4749 -0.1594  0.8065
17945TIP3   OH275325   1.276   3.374   2.182  0.1659  0.7398 -0.3498
17945TIP3    H175326   1.302   3.367   2.090  0.1271  1.1905 -0.3963
17945TIP3    H275327   1.324   3.304   2.226 -0.7739 -0.2854 -0.9205
17946TIP3   OH275328   6.049   2.927  17.190 -0.3549  0.1268  0.3427
17946TIP3    H175329   6.027   2.839  17.220  1.0769 -0.5990 -0.6596
17946TIP3    H275330   6.093   2.913  17.106 -3.1270  2.0391 -1.4918
17947TIP3   OH275331   5.345   2.301  11.898  0.4079  0.0173  0.5051
17947TIP3    H175332   5.427   2.350  11.894  0.3671 -0.0370 -1.6084
17947TIP3    H275333   5.288   2.354  11.953  1.0045  1.3936 -0.1617
17948TIP3   OH275334   2.337   6.386  14.058 -0.2484  0.5148 -0.1625
17948TIP3    H175335   2.306   6.324  13.992  0.6955 -0.6301  0.4502
17948TIP3    H275336   2.417   6.346  14.092 -0.7732  1.0606  1.7244
17949TIP3   OH275337   3.982   1.689   2.906  0.5394  0.2097 -0.2272
17949TIP3    H175338   3.971   1.695   3.001 -1.4465 -0.4568 -0.3774
17949TIP3    H275339   3.909   1.739   2.871  1.0457  0.1204 -1.4122
17950TIP3   OH275340   0.629   3.533  15.377  0.6300  0.9025  0.2937
17950TIP3    H175341   0.591   3.539  15.289  3.5423  1.5218 -0.9627
17950TIP3    H275342   0.620   3.622  15.413  2.8190  1.6108 -0.8506
17951TIP3   OH275343   2.010   3.744  14.045  0.3275 -0.1824  0.3831
17951TIP3    H175344   1.961   3.696  14.113  0.0427  0.0682  0.3535
17951TIP3    H275345   1.953   3.816  14.020  1.3413  1.0144  1.4439
17952TIP3   OH275346   5.923   0.533  14.532  0.8269  0.1295  0.1906
17952TIP3    H175347   6.015   0.539  14.558  1.2049  1.4184 -1.3407
17952TIP3    H275348   5.915   0.593  14.458 -0.9810 -0.8649 -0.4598
17953TIP3   OH275349   2.818   2.232   2.858  0.3266 -0.5362  0.5481
17953TIP3    H175350   2.760   2.269   2.791  1.4950 -1.5275 -1.0469
17953TIP3    H275351   2.775   2.253   2.941 -1.0038  0.9778 -0.4852
17954TIP3   OH275352   6.153   6.644  16.045 -0.3228 -0.6526 -0.8037
17954TIP3    H175353   6.140   6.707  16.116 -0.9131 -2.3993  0.6618
17954TIP3    H275354   6.068   6.637  16.003  0.1569  0.7821 -2.0415
17955TIP3   OH275355   2.258   4.837   1.934  0.6222 -0.8231  0.1753
17955TIP3    H175356   2.219   4.818   2.020  0.0735 -0.4742  0.0064
17955TIP3    H275357   2.302   4.755   1.910  0.3472 -1.0887  0.5586
17956TIP3   OH275358   4.224   2.142  13.286 -0.1642 -0.1726 -0.1158
17956TIP3    H175359   4.177   2.131  13.369  0.6575  1.1450  0.5505
17956TIP3    H275360   4.316   2.124  13.308  0.0731  0.2924 -0.7224
17957TIP3   OH275361   4.146   3.502  13.092  0.0506  0.1986  0.6522
17957TIP3    H175362   4.069   3.549  13.124 -0.9325 -1.4303  0.7710
17957TIP3    H275363   4.206   3.570  13.063 -0.7920  1.5582  2.0154
17958TIP3   OH275364   6.636   6.696  16.514  0.0075  0.0528  0.0308
17958TIP3    H175365   6.672   6.734  16.435 -0.5490 -0.3904 -0.4464
17958TIP3    H275366   6.584   6.622  16.483 -0.6187  0.1763  0.7651
17959TIP3   OH275367   3.554   4.234   4.337 -0.3695  0.0644  0.2808
17959TIP3    H175368   3.517   4.153   4.303 -0.4132 -0.1992  0.9400
17959TIP3    H275369   3.636   4.246   4.289 -0.4960 -0.2284 -0.0053
17960TIP3   OH275370   4.459   6.006   4.365 -0.6726 -0.9494 -0.2052
17960TIP3    H175371   4.517   6.021   4.290 -1.9740  0.5076 -0.9370
17960TIP3    H275372   4.411   5.927   4.343 -0.9441 -0.6056 -0.8320
17961TIP3   OH275373   5.046   2.839  12.292  0.3394 -0.1295  0.1790
17961TIP3    H175374   5.020   2.916  12.342  0.9641 -0.5956  1.2523
17961TIP3    H275375   5.142   2.839  12.295  0.3754 -0.3440 -0.7458
17962TIP3   OH275376   0.442   0.475   4.079 -0.3864 -0.7376  0.1775
17962TIP3    H175377   0.397   0.400   4.116 -2.0738  0.1286 -0.0641
17962TIP3    H275378   0.387   0.550   4.103  1.9288  0.5893  1.5547
17963TIP3   OH275379   1.918   1.494   0.249  0.3024 -0.0152  0.0869
17963TIP3    H175380   1.839   1.442   0.236  0.8715 -0.8995  0.1171
17963TIP3    H275381   1.990   1.430   0.250  1.1496  0.8935 -1.1373
17964TIP3   OH275382   4.528   2.886   5.146  0.4834  0.1026  0.4751
17964TIP3    H175383   4.433   2.883   5.158  0.4391 -0.0335  0.0977
17964TIP3    H275384   4.563   2.884   5.235  0.2068 -2.7341  0.5705
17965TIP3   OH275385   1.205   5.215  12.954  0.0604  0.2027 -0.4644
17965TIP3    H175386   1.263   5.148  12.989 -0.7815 -0.2843 -0.0206
17965TIP3    H275387   1.263   5.269  12.899  1.1773  0.4132  0.8983
17966TIP3   OH275388   5.588   1.635   3.938 -0.0311 -0.1361  0.2823
17966TIP3    H175389   5.552   1.686   4.011  1.1319 -0.6366  1.2316
17966TIP3    H275390   5.660   1.585   3.977  1.8060  0.9413 -1.5569
17967TIP3   OH275391   0.571   6.606   0.869  0.2072  0.6857  0.3219
17967TIP3    H175392   0.505   6.545   0.835  3.1605 -2.8470  0.6094
17967TIP3    H275393   0.555   6.607   0.964 -0.1233  0.6679  0.2669
17968TIP3   OH275394   0.181   1.991   3.614 -0.4112  0.6728  0.5621
17968TIP3    H175395   0.236   1.994   3.693 -1.2279  0.4364  1.1410
17968TIP3    H275396   0.148   1.901   3.612  0.5550  0.3344 -0.7005
17969TIP3   OH275397   1.650   0.968   2.157  0.1192  0.2532  0.0496
17969TIP3    H175398   1.635   0.876   2.177 -0.9010  0.4806  0.3709
17969TIP3    H275399   1.629   0.976   2.064  0.6727  0.0698 -0.0936
17970TIP3   OH275400   0.355   2.826   6.326 -0.2810 -0.0817 -0.3946
17970TIP3    H175401   0.261   2.833   6.337 -0.6152 -2.2746 -1.7032
17970TIP3    H275402   0.376   2.737   6.352  1.0674 -0.4399 -2.5977
17971TIP3   OH275403   2.427   3.310  16.455 -0.1950 -0.0351  0.0191
17971TIP3    H175404   2.472   3.393  16.475  0.6466 -0.3094 -0.7320
17971TIP3    H275405   2.414   3.269  16.541  0.8323  0.1252  0.2607
17972TIP3   OH275406   2.965   2.605   5.110 -0.0483 -0.1216 -0.3592
17972TIP3    H175407   2.870   2.590   5.111 -0.0399 -0.1316  0.3689
17972TIP3    H275408   2.979   2.664   5.036 -0.8673  1.4894  0.7664
17973TIP3   OH275409   1.269   1.229  12.458  0.3676 -0.3746 -0.0527
17973TIP3    H175410   1.191   1.224  12.403 -0.4393  0.0472  1.0215
17973TIP3    H275411   1.250   1.171  12.532  1.2185 -0.5497  0.0346
17974TIP3   OH275412   2.563   0.366   1.228  0.3755  0.3881  0.2512
17974TIP3    H175413   2.643   0.323   1.260 -0.5962 -2.6271 -1.2587
17974TIP3    H275414   2.596   0.436   1.172  2.0038 -1.2543 -0.9185
17975TIP3   OH275415   4.512   2.837   2.331 -0.1151  0.2606  0.2887
17975TIP3    H175416   4.605   2.831   2.353 -0.5123  0.1119  1.9925
17975TIP3    H275417   4.482   2.917   2.375 -0.7531  0.4244 -0.4259
17976TIP3   OH275418   2.895   5.357  12.304 -0.0565 -0.1427  0.4065
17976TIP3    H175419   2.894   5.313  12.389  0.8739  0.7802  0.8924
17976TIP3    H275420   2.861   5.291  12.244 -1.0993 -0.6728  1.5484
17977TIP3   OH275421   5.502   5.242  12.948  0.0676  0.7559  0.1099
17977TIP3    H175422   5.408   5.240  12.963  0.0352  1.2656 -0.0425
17977TIP3    H275423   5.539   5.208  13.030 -0.1641  2.4449  0.9348
17978TIP3   OH275424   5.122   2.456   4.159  0.7428  0.0914  0.2619
17978TIP3    H175425   5.208   2.422   4.133  0.2307 -0.7500 -0.4033
17978TIP3    H275426   5.096   2.513   4.087  0.4186 -0.2590  0.0952
17979TIP3   OH275427   6.246   2.574  14.962  0.3579 -0.2821 -0.4482
17979TIP3    H175428   6.159   2.600  14.992  0.2050 -0.8579 -0.3887
17979TIP3    H275429   6.299   2.653  14.970 -0.7269  0.7274 -2.6929
17980TIP3   OH275430   1.048   3.800   4.998 -0.5551 -0.1556  0.6400
17980TIP3    H175431   1.053   3.708   4.971  0.5999 -0.1913  0.9519
17980TIP3    H275432   1.088   3.802   5.085  0.3151  0.8070  0.2231
17981TIP3   OH275433   0.957   4.542  16.808 -0.2533  0.0171 -0.5063
17981TIP3    H175434   0.882   4.594  16.781 -0.0075 -0.3481 -1.9980
17981TIP3    H275435   0.926   4.451  16.803  0.7602 -0.2469 -2.8787
17982TIP3   OH275436   0.824   2.998   0.147  0.3137  0.1352  0.1950
17982TIP3    H175437   0.911   2.979   0.183  1.1359  1.6657 -0.9277
17982TIP3    H275438   0.764   2.947   0.201  2.0221 -1.9512  0.1848
17983TIP3   OH275439   4.587   2.912   1.221 -0.1031  0.1665  0.5584
17983TIP3    H175440   4.672   2.885   1.257  0.5841  0.9382 -0.4776
17983TIP3    H275441   4.582   2.869   1.136 -0.1011  1.2660 -0.0117
17984TIP3   OH275442   3.043   0.643   0.504 -0.1257 -1.2062 -0.0892
17984TIP3    H175443   3.075   0.656   0.415 -0.2560 -1.3308 -0.1543
17984TIP3    H275444   2.979   0.713   0.517  0.6832 -0.5228  0.2905
17985TIP3   OH275445   4.265   1.374   5.751 -1.0275 -0.3752 -0.1399
17985TIP3    H175446   4.240   1.429   5.825 -0.2230 -0.3571  0.1240
17985TIP3    H275447   4.272   1.286   5.788  0.1668 -0.2348 -0.0126
17986TIP3   OH275448   5.263   3.917   2.096  0.0833  0.0833  0.4984
17986TIP3    H175449   5.227   3.941   2.011 -0.0634 -2.4159 -0.1909
17986TIP3    H275450   5.211   3.841   2.123  1.1875 -0.1448  2.0733
17987TIP3   OH275451   3.175   3.985  16.493  0.0936  0.1101  0.0042
17987TIP3    H175452   3.222   3.944  16.421 -1.2897 -0.1237 -0.7812
17987TIP3    H275453   3.207   4.075  16.494 -0.1226  0.2017 -1.1081
17988TIP3   OH275454   5.425   0.879  11.526 -0.5119  0.2386 -1.1400
17988TIP3    H175455   5.459   0.933  11.597 -2.1115  0.1186 -0.2646
17988TIP3    H275456   5.451   0.925  11.446 -2.4493  2.6737 -0.4070
17989TIP3   OH275457   4.483   3.821   2.660  0.2971 -0.0304 -0.0105
17989TIP3    H175458   4.551   3.800   2.594  0.2522 -1.2175  0.3090
17989TIP3    H275459   4.529   3.873   2.726  0.5027  0.5922 -0.6388
17990TIP3   OH275460   2.867   0.439   3.135  0.3953 -0.0464 -0.0336
17990TIP3    H175461   2.950   0.399   3.111  0.5644  0.4421 -0.2657
17990TIP3    H275462   2.804   0.407   3.070  0.3386 -0.6581  0.3255
17991TIP3   OH275463   4.489   1.533   5.118  0.2164 -0.1389  0.0943
17991TIP3    H175464   4.538   1.488   5.187 -0.5974 -2.5340 -0.8302
17991TIP3    H275465   4.555   1.563   5.056  0.6775 -1.3684 -0.0112
17992TIP3   OH275466   1.838   0.818  15.397  0.3609  0.0702 -0.0375
17992TIP3    H175467   1.915   0.872  15.379 -0.1739  1.0805  0.6371
17992TIP3    H275468   1.773   0.846  15.332  0.2402 -0.0912  0.0139
17993TIP3   OH275469   3.020   0.966   1.314 -0.4816 -0.6102  0.3463
17993TIP3    H175470   3.113   0.946   1.330 -0.0184  0.5597 -0.7706
17993TIP3    H275471   3.019   1.061   1.300 -1.7255 -0.7529 -0.5617
17994TIP3   OH275472   3.370   1.838  12.494  0.4602  0.0498  0.2249
17994TIP3    H175473   3.363   1.861  12.587  0.0486 -0.6290  0.3587
17994TIP3    H275474   3.393   1.921  12.452  1.4430  0.2038  1.0272
17995TIP3   OH275475   2.932   2.639   4.080  0.4466  0.7115 -0.0607
17995TIP3    H175476   2.921   2.575   4.150  2.1551  1.7049  1.1640
17995TIP3    H275477   2.987   2.594   4.016  0.7908  0.6007  0.3100
17996TIP3   OH275478   1.809   2.188   0.117 -0.5001  0.1601 -0.5176
17996TIP3    H175479   1.901   2.187   0.144 -0.9471 -1.0971  1.0162
17996TIP3    H275480   1.807   2.134   0.038 -0.0860 -0.5931 -0.0135
17997TIP3   OH275481   4.314   0.094  13.834 -0.2448 -0.6299  0.1499
17997TIP3    H175482   4.267   0.150  13.896  0.1505 -1.8828  1.6083
17997TIP3    H275483   4.378   0.153  13.792 -0.4097  0.1910  1.0411
17998TIP3   OH275484   2.377   1.289   1.216 -0.0710  0.3337  0.0857
17998TIP3    H175485   2.446   1.245   1.265  0.6028  1.9590  0.6480
17998TIP3    H275486   2.337   1.221   1.163  0.0424 -1.2182  1.9286
17999TIP3   OH275487   6.336   3.442  14.301 -1.0076 -0.1546 -0.4045
17999TIP3    H175488   6.287   3.492  14.236 -1.1145  1.3846  0.8260
17999TIP3    H275489   6.274   3.376  14.332 -1.3610 -0.0813 -0.9406
18000TIP3   OH275490   4.765   1.110  13.264 -0.2490  0.2094  0.4836
18000TIP3    H175491   4.809   1.187  13.301  0.2576  0.7874 -1.2535
18000TIP3    H275492   4.760   1.048  13.337 -0.2129  1.6964  1.7779
18001TIP3   OH275493   4.944   1.091  12.884  0.6733  0.1994  0.3867
18001TIP3    H175494   5.034   1.092  12.853  0.2267  2.2789 -0.9757
18001TIP3    H275495   4.891   1.098  12.805 -0.5944  2.2660  1.3697
18002TIP3   OH275496   1.252   2.422   2.943  0.0001  0.2191  0.1979
18002TIP3    H175497   1.302   2.480   2.885 -2.8115  1.8347 -0.6808
18002TIP3    H275498   1.236   2.344   2.890  2.0543 -0.5732  0.6934
18003TIP3   OH275499   3.545   6.221   0.943 -0.4728  0.1997 -0.7029
18003TIP3    H175500   3.520   6.157   0.877  2.5250 -2.0728  0.2654
18003TIP3    H275501   3.546   6.171   1.025  1.9132  1.4607  0.0783
18004TIP3   OH275502   2.594   0.370  15.828  0.3623  0.4119  0.4692
18004TIP3    H175503   2.510   0.399  15.792 -0.4738 -0.7984  1.3912
18004TIP3    H275504   2.588   0.391  15.921  1.7994  1.9204  0.2316
18005TIP3   OH275505   3.590   1.974   6.161  0.4444 -0.3311 -0.0705
18005TIP3    H175506   3.616   1.998   6.250  0.9439 -1.5100  0.1067
18005TIP3    H275507   3.530   2.044   6.134  2.5800  1.6176  0.0836
18006TIP3   OH275508   3.668   4.234   0.707  0.0764  0.0377  0.0499
18006TIP3    H175509   3.750   4.217   0.753  0.0134  0.6256  0.3802
18006TIP3    H275510   3.646   4.151   0.665  0.3946 -0.3510  0.6614
18007TIP3   OH275511   4.107   4.637  11.942 -0.1628 -0.2980 -0.3939
18007TIP3    H175512   4.080   4.598  12.025  0.3578 -1.2804 -0.6834
18007TIP3    H275513   4.202   4.648  11.950 -0.0753 -0.6491 -0.9749
18008TIP3   OH275514   4.272   0.502   6.402  0.0206 -0.9731 -0.1187
18008TIP3    H175515   4.348   0.554   6.374 -0.8035  0.2829 -0.0360
18008TIP3    H275516   4.285   0.417   6.359  0.5426 -0.1767 -1.5912
18009TIP3   OH275517   4.245   3.180   5.244 -0.1002 -0.0039 -0.1555
18009TIP3    H175518   4.291   3.114   5.295 -0.1582 -0.0489 -0.1610
18009TIP3    H275519   4.240   3.256   5.302  1.0773  0.4281 -0.6009
18010TIP3   OH275520   1.007   1.208  11.760 -0.6912 -0.0356  0.1207
18010TIP3    H175521   0.934   1.242  11.709  0.0634  0.1126 -0.8764
18010TIP3    H275522   1.076   1.273  11.750 -0.0605 -0.6849  0.1910
18011TIP3   OH275523   0.392   3.757   4.542 -0.1481 -0.0796  1.0443
18011TIP3    H175524   0.429   3.737   4.628 -0.2115  0.2881  1.1573
18011TIP3    H275525   0.461   3.803   4.496 -0.6554  1.1077  1.4561
18012TIP3   OH275526   4.473   3.126  16.179 -0.5267 -0.2036 -0.3074
18012TIP3    H175527   4.466   3.048  16.123 -2.1515  0.5595 -1.1799
18012TIP3    H275528   4.387   3.136  16.219  0.0537  0.4010  0.8246
18013TIP3   OH275529   5.215   4.538  16.756 -0.2949 -0.1886  0.4499
18013TIP3    H175530   5.257   4.459  16.723 -1.8260 -1.2692  1.0011
18013TIP3    H275531   5.283   4.604  16.756  0.5687 -1.0535 -1.6956
18014TIP3   OH275532   4.024   4.807  14.953  0.0576  0.4811 -0.8000
18014TIP3    H175533   3.977   4.768  14.879 -2.1290 -0.2109  0.8929
18014TIP3    H275534   3.973   4.781  15.030  2.9778  0.1254  1.0943
18015TIP3   OH275535   6.461   3.526  12.502  0.1843 -0.3550  0.0879
18015TIP3    H175536   6.537   3.581  12.483  0.4349 -0.0144  1.9397
18015TIP3    H275537   6.493   3.463  12.567 -1.0897 -0.2218  0.8651
18016TIP3   OH275538   1.683   3.350   1.561  0.4096  0.0234 -0.2263
18016TIP3    H175539   1.760   3.305   1.527  0.6257  0.5059 -0.3927
18016TIP3    H275540   1.659   3.412   1.491 -0.1870 -0.1971 -0.2177
18017TIP3   OH275541   0.589   6.779   1.495 -0.0751  0.1143  0.3341
18017TIP3    H175542   0.566   6.866   1.529  0.3896 -0.0685  1.1313
18017TIP3    H275543   0.665   6.752   1.547 -1.4236 -1.6004  1.4659
18018TIP3   OH275544   4.850   1.805  12.492  0.3711 -0.1226  0.1345
18018TIP3    H175545   4.789   1.878  12.489 -0.5721 -0.9871 -3.2633
18018TIP3    H275546   4.936   1.846  12.482  0.1554  0.7795  1.6662
18019TIP3   OH275547   1.313   1.655  16.171 -0.2293 -0.0205 -0.1683
18019TIP3    H175548   1.281   1.581  16.223  1.7382 -0.7835  0.0101
18019TIP3    H275549   1.314   1.728  16.233  1.3647 -0.7418  0.7004
18020TIP3   OH275550   1.542   0.862  13.845  0.4593 -0.0506  0.2886
18020TIP3    H175551   1.564   0.789  13.787  0.0544 -0.0995  0.1931
18020TIP3    H275552   1.476   0.912  13.797  0.4632  0.1710  0.5090
18021TIP3   OH275553   4.219   6.444   1.560 -0.0248 -0.4939 -0.0841
18021TIP3    H175554   4.219   6.499   1.482 -0.7395  1.4493  1.2428
18021TIP3    H275555   4.134   6.459   1.600  0.1634 -1.8175  0.8455
18022TIP3   OH275556   6.188   0.680   0.417 -0.0170  0.6445 -0.3399
18022TIP3    H175557   6.251   0.656   0.485  0.0979  0.5715 -0.4734
18022TIP3    H275558   6.110   0.628   0.438  0.5760 -0.6196 -1.2227
18023TIP3   OH275559   3.694   2.631   1.739 -0.1859  0.1483  0.1653
18023TIP3    H175560   3.733   2.545   1.756 -0.6325  0.4172  2.6837
18023TIP3    H275561   3.622   2.612   1.679  1.2607 -0.8840 -1.2768
18024TIP3   OH275562   6.790   2.453  13.455  0.5155 -0.1522 -0.5095
18024TIP3    H175563   6.743   2.436  13.374  1.3004  0.4157 -1.0915
18024TIP3    H275564   6.791   2.549  13.462 -0.7042 -0.2165  0.8596
18025TIP3   OH275565   6.089   2.740   3.698 -0.4484 -0.3833 -0.1323
18025TIP3    H175566   5.999   2.772   3.692  0.3042  1.5282 -1.5121
18025TIP3    H275567   6.106   2.700   3.613 -0.2998 -1.5927  0.4596
18026TIP3   OH275568   0.080   4.569  16.740  0.2939 -0.1876 -0.3037
18026TIP3    H175569   0.055   4.657  16.713  0.0938 -0.2867 -0.4439
18026TIP3    H275570   0.076   4.517  16.660  2.6534  0.1546 -0.6872
18027TIP3   OH275571   2.149   3.355  16.436  0.0976 -0.0213 -0.4818
18027TIP3    H175572   2.108   3.285  16.487 -0.2285  1.5125  1.4481
18027TIP3    H275573   2.241   3.352  16.461 -0.2297  1.3408  0.9884
18028TIP3   OH275574   2.813   3.378   5.659  0.2947 -0.5644 -0.0135
18028TIP3    H175575   2.802   3.355   5.752 -1.1991  1.4714  0.3461
18028TIP3    H275576   2.870   3.454   5.660 -0.4897  0.0388 -0.6935
18029TIP3   OH275577   1.100   1.276  10.524  0.1618  0.3597  0.0626
18029TIP3    H175578   1.082   1.309  10.612  0.4918  2.6031 -0.6948
18029TIP3    H275579   1.187   1.311  10.502  1.1652 -2.1996 -0.2068
18030TIP3   OH275580   4.071   3.015  10.596  0.1410  0.5583  0.0518
18030TIP3    H175581   4.069   3.095  10.543  1.1369 -0.1915 -1.1122
18030TIP3    H275582   4.113   2.950  10.541 -0.2796 -0.6731  1.1615
18031TIP3   OH275583   4.874   4.212  17.108 -0.0157 -0.1535  0.0521
18031TIP3    H175584   4.884   4.122  17.138  0.7164 -0.0477  0.1519
18031TIP3    H275585   4.853   4.262  17.186  1.6272  0.0809  0.3714
18032TIP3   OH275586   4.974   4.730  15.850 -0.3199 -0.4494 -0.2922
18032TIP3    H175587   4.957   4.742  15.757  0.2335  0.3253 -0.2999
18032TIP3    H275588   5.063   4.765  15.863 -0.5176 -0.2491  0.5757
18033TIP3   OH275589   5.408   1.502   5.955 -0.2632  0.1474 -0.1822
18033TIP3    H175590   5.313   1.507   5.967 -0.4941 -0.5245 -1.6483
18033TIP3    H275591   5.442   1.480   6.042 -1.4679  0.1428  0.2965
18034TIP3   OH275592   3.236   3.382  14.409 -0.0784  0.4562  0.4853
18034TIP3    H175593   3.189   3.382  14.493  0.4362  1.2124  0.7734
18034TIP3    H275594   3.305   3.447  14.420  0.6239 -0.1677 -0.1765
18035TIP3   OH275595   6.346   3.154  13.824 -0.5891 -0.3342 -0.2709
18035TIP3    H175596   6.280   3.200  13.875 -2.2946 -0.0132 -2.7156
18035TIP3    H275597   6.327   3.061  13.837 -0.1969 -0.2928  0.6829
18036TIP3   OH275598   5.158   0.519   2.468 -0.4052  0.6524 -0.6552
18036TIP3    H175599   5.126   0.559   2.549  2.0446 -1.4904  1.4785
18036TIP3    H275600   5.079   0.485   2.425 -1.5931  0.4274  1.6364
18037TIP3   OH275601   4.893   4.774   4.372 -0.2443 -0.3317 -0.3907
18037TIP3    H175602   4.931   4.855   4.405  0.1327  0.0699 -1.7757
18037TIP3    H275603   4.838   4.742   4.444  1.5009 -0.1258  1.0589
18038TIP3   OH275604   0.492   3.947  15.251  0.3553  0.3220 -0.4314
18038TIP3    H175605   0.424   3.880  15.243 -0.6701  1.1716  1.0158
18038TIP3    H275606   0.552   3.928  15.178 -0.9673 -0.9508 -1.2315
18039TIP3   OH275607   1.284   2.909   3.771  0.0632  0.4303  0.2362
18039TIP3    H175608   1.312   3.000   3.773  0.2964  0.3933 -1.0360
18039TIP3    H275609   1.319   2.875   3.689  0.8946 -1.1061  1.1893
18040TIP3   OH275610   0.029   6.201   2.097  0.7886  0.2423  0.3118
18040TIP3    H175611   0.058   6.112   2.117 -2.6336 -1.1451 -0.6146
18040TIP3    H275612  -0.033   6.222   2.167  0.2447  1.2420 -0.4646
18041TIP3   OH275613   0.923   3.623  13.294  0.0889 -0.1706  0.1713
18041TIP3    H175614   0.939   3.562  13.222 -0.6411  0.3550 -0.4447
18041TIP3    H275615   0.886   3.700  13.252 -1.2276 -0.2198  1.2158
18042TIP3   OH275616   3.580   3.449   2.906 -0.1252 -0.9367  0.5484
18042TIP3    H175617   3.504   3.502   2.883 -0.6604 -1.0924  1.9260
18042TIP3    H275618   3.566   3.365   2.861 -0.9549 -1.0996  1.1127
18043TIP3   OH275619   0.078   0.085   2.701  0.1479 -0.4485 -0.0968
18043TIP3    H175620   0.058   0.090   2.607  0.0806 -0.2206 -0.0711
18043TIP3    H275621   0.111   0.172   2.723  0.4774 -0.6020  0.0201
18044TIP3   OH275622   5.568   3.827  14.989 -0.4104  0.4974 -0.3961
18044TIP3    H175623   5.586   3.750  14.935  0.2414 -0.7264  1.5429
18044TIP3    H275624   5.490   3.804  15.039  0.1260  0.8529  0.6260
18045TIP3   OH275625   3.148   6.328   3.744  0.0835  0.4142 -0.1390
18045TIP3    H175626   3.148   6.304   3.836  1.4772  1.1962  0.0870
18045TIP3    H275627   3.134   6.423   3.744  4.1710  1.1180 -0.4597
18046TIP3   OH275628   5.647   6.386  15.476  0.1130 -0.0966 -0.1419
18046TIP3    H175629   5.590   6.423  15.409 -0.2552  1.3925  0.9752
18046TIP3    H275630   5.734   6.421  15.454 -0.2944  1.7507  1.1176
18047TIP3   OH275631   2.846   5.167  15.097 -0.3178 -0.5740  0.2417
18047TIP3    H175632   2.832   5.080  15.058  1.8369 -0.6352 -0.4331
18047TIP3    H275633   2.773   5.177  15.158 -2.2699 -1.6013 -1.8338
18048TIP3   OH275634   5.260   6.446  16.721 -0.0240 -0.3163  0.1006
18048TIP3    H175635   5.288   6.527  16.677  0.6161 -0.1832  0.7421
18048TIP3    H275636   5.279   6.462  16.814  0.1534 -1.2226  0.2217
18049TIP3   OH275637   4.926   0.083   2.599  0.0728  0.2696 -0.2422
18049TIP3    H175638   4.885   0.144   2.660 -0.5672  0.2637 -0.6566
18049TIP3    H275639   5.019   0.087   2.619 -0.0592  0.7784  0.2727
18050TIP3   OH275640   6.486   4.566   4.697  0.4323 -0.1870  0.0143
18050TIP3    H175641   6.546   4.518   4.754 -0.4375  0.7315  1.7265
18050TIP3    H275642   6.403   4.518   4.703 -0.1860  0.9810  1.0192
18051TIP3   OH275643   4.225   1.931  14.943  0.2100  0.9331 -0.1431
18051TIP3    H175644   4.169   2.003  14.912 -1.5108 -0.0477  0.6402
18051TIP3    H275645   4.176   1.892  15.015  1.5015 -0.5474 -0.0484
18052TIP3   OH275646   3.365   0.663  10.752  0.4695  0.1844  0.0886
18052TIP3    H175647   3.397   0.639  10.665 -1.1956  2.1948 -1.1112
18052TIP3    H275648   3.273   0.638  10.752  0.8664 -1.4366  1.9335
18053TIP3   OH275649   6.424   1.611  11.338  0.2552  0.0913  0.6840
18053TIP3    H175650   6.329   1.620  11.342  0.1838 -0.8260  1.0673
18053TIP3    H275651   6.439   1.526  11.297  0.9011  0.1009  0.8902
18054TIP3   OH275652   5.891   3.524  11.155  0.3674 -0.3587  0.2581
18054TIP3    H175653   5.851   3.448  11.197 -0.1865 -0.2826 -0.1149
18054TIP3    H275654   5.984   3.519  11.177  0.1492 -0.5374  1.1517
18055TIP3   OH275655   5.450   1.199   0.897 -0.3863  0.1704  0.0698
18055TIP3    H175656   5.476   1.291   0.898  1.5491 -0.3230 -1.3232
18055TIP3    H275657   5.531   1.151   0.914 -1.0509 -1.3356 -0.9271
18056TIP3   OH275658   3.544   3.234  13.576 -0.3226 -0.3478 -0.1732
18056TIP3    H175659   3.595   3.262  13.499 -0.7233 -1.3592 -0.8159
18056TIP3    H275660   3.459   3.209  13.539 -0.7640 -0.1320  0.7013
18057TIP3   OH275661   3.548   4.313   0.386 -0.2098 -0.3593  0.1105
18057TIP3    H175662   3.607   4.388   0.388  0.9635 -1.2428 -0.2342
18057TIP3    H275663   3.484   4.329   0.455  0.5035  0.5750  0.5531
18058TIP3   OH275664   3.124   4.418   5.517 -0.1776  0.2111  0.2550
18058TIP3    H175665   3.042   4.446   5.555 -0.2361 -1.3633  1.3701
18058TIP3    H275666   3.190   4.475   5.556 -0.7941  1.8831 -1.1143
18059TIP3   OH275667   3.246   1.827   3.807  0.1392  0.7331 -0.4990
18059TIP3    H175668   3.173   1.845   3.748  1.1233  1.5179 -1.5089
18059TIP3    H275669   3.323   1.830   3.750  1.0554  1.0554  0.7519
18060TIP3   OH275670   5.313   6.166  14.735 -0.3040 -0.1180 -0.0968
18060TIP3    H175671   5.291   6.227  14.665  1.2527 -0.6089 -1.0373
18060TIP3    H275672   5.248   6.097  14.729 -1.3841  0.8485  0.2436
18061TIP3   OH275673   1.454   2.379  16.165  0.6777  0.1499  0.0701
18061TIP3    H175674   1.374   2.410  16.123 -0.2319 -1.0198  0.8985
18061TIP3    H275675   1.478   2.300  16.117 -0.3873 -1.2178  1.7158
18062TIP3   OH275676   3.785   6.348  15.072 -0.5818 -0.2796  0.8701
18062TIP3    H175677   3.755   6.368  15.161 -0.2202 -0.6627  1.0759
18062TIP3    H275678   3.787   6.253  15.069  3.1105 -0.3091  1.6950
18063TIP3   OH275679   0.630   3.321  14.254  0.4546 -0.2707  0.2952
18063TIP3    H175680   0.577   3.371  14.192 -0.0616  0.4843  1.3277
18063TIP3    H275681   0.569   3.297  14.324  0.9341 -1.4703  0.3111
18064TIP3   OH275682   5.219   0.565   1.720 -0.1781  0.4080 -0.0959
18064TIP3    H175683   5.309   0.568   1.754 -0.1916 -0.7295  0.0903
18064TIP3    H275684   5.228   0.576   1.626  0.1048  0.8701 -0.0165
18065TIP3   OH275685   3.012   1.605   3.639  0.1497 -0.2855  0.1389
18065TIP3    H175686   2.960   1.566   3.711 -0.2629 -0.6028 -0.3240
18065TIP3    H275687   3.050   1.529   3.594  1.3983 -0.0355  0.7480
18066TIP3   OH275688   6.608   3.882   6.127  0.0642  0.0321  0.1995
18066TIP3    H175689   6.680   3.820   6.136 -0.0525  0.0103  1.1334
18066TIP3    H275690   6.570   3.863   6.042 -0.2635 -1.5161  0.6705
18067TIP3   OH275691   3.250   2.379  16.416  0.1636  0.0379  0.2704
18067TIP3    H175692   3.177   2.326  16.448 -0.8427  1.3370  0.1830
18067TIP3    H275693   3.307   2.391  16.492 -1.2819  1.5779  1.1553
18068TIP3   OH275694   4.329   4.171   4.372  0.2929  0.4935  0.3092
18068TIP3    H175695   4.357   4.143   4.459  1.9584  0.8807 -0.0857
18068TIP3    H275696   4.365   4.259   4.362  1.8496 -0.3326 -1.5635
18069TIP3   OH275697   4.981   5.607  12.797 -0.1494  0.0065 -0.1590
18069TIP3    H175698   4.946   5.679  12.744 -1.0111  1.3286  2.1654
18069TIP3    H275699   5.056   5.645  12.842 -1.5415 -0.0738  2.2779
18070TIP3   OH275700   3.824   1.481   4.892  0.4569 -0.5021  0.5203
18070TIP3    H175701   3.771   1.431   4.829  1.7680  0.0613 -1.0678
18070TIP3    H275702   3.849   1.418   4.958 -1.0453 -1.0927  0.5453
18071TIP3   OH275703   2.923   0.515   4.634 -0.3612  0.1532  0.2535
18071TIP3    H175704   2.885   0.590   4.680 -0.9145  0.1264 -0.1586
18071TIP3    H275705   2.854   0.449   4.633 -0.7549  0.5646 -1.5996
18072TIP3   OH275706   4.266   2.804  14.519 -0.0728 -0.2461 -0.3706
18072TIP3    H175707   4.273   2.799  14.424 -1.0206  0.8450 -0.5171
18072TIP3    H275708   4.325   2.875  14.544 -0.3518 -0.0592 -0.2286
18073TIP3   OH275709   4.415   6.223   5.726  0.1732  0.2824  0.6187
18073TIP3    H175710   4.482   6.282   5.692  0.3809  0.8065  1.8816
18073TIP3    H275711   4.423   6.144   5.674 -1.9514  2.3393 -3.0217
18074TIP3   OH275712   4.664   4.251  15.700 -0.3842 -0.0657  0.0106
18074TIP3    H175713   4.754   4.284  15.706 -1.2235  2.8610 -2.1501
18074TIP3    H275714   4.623   4.276  15.783  0.6700 -1.0827  0.8497
18075TIP3   OH275715   5.767   1.685   1.593 -0.1454 -0.6488 -0.2259
18075TIP3    H175716   5.813   1.604   1.573  0.6546 -0.4355  0.7116
18075TIP3    H275717   5.727   1.670   1.678 -0.1916 -0.1405 -0.1536
18076TIP3   OH275718   4.396   0.266  17.202  0.0469  0.0526 -0.1893
18076TIP3    H175719   4.466   0.297  17.259 -0.8914  0.2793  0.8409
18076TIP3    H275720   4.437   0.261  17.115  1.7747 -1.3461  0.6858
18077TIP3   OH275721   1.113   1.617  12.469 -0.2666 -0.0605 -0.0256
18077TIP3    H175722   1.098   1.685  12.535  1.4552  0.3655 -0.0410
18077TIP3    H275723   1.199   1.582  12.490 -0.3267 -0.9274 -1.1842
18078TIP3   OH275724   4.432   6.742  14.224  0.1202 -0.6263  0.2127
18078TIP3    H175725   4.390   6.742  14.310 -0.0875  0.2210  0.1142
18078TIP3    H275726   4.374   6.689  14.169 -0.2819 -0.3185  0.3389
18079TIP3   OH275727   3.715   5.089  16.617 -0.2713 -0.2438  0.1621
18079TIP3    H175728   3.780   5.156  16.594  0.3196 -0.7228  0.4145
18079TIP3    H275729   3.666   5.128  16.689  0.2360 -0.1736  0.4771
18080TIP3   OH275730   1.153   0.240   2.895 -0.2626 -0.3031 -1.0152
18080TIP3    H175731   1.128   0.204   2.980 -1.6664  2.0893 -0.3569
18080TIP3    H275732   1.247   0.251   2.900 -0.3605  0.0045  0.3039
18081TIP3   OH275733   2.820   3.620   0.620  0.1636 -0.0639  0.1787
18081TIP3    H175734   2.887   3.574   0.570  0.2134  0.6996 -0.4566
18081TIP3    H275735   2.739   3.573   0.601  0.2873 -0.1547 -0.1196
18082TIP3   OH275736   3.857   2.277  12.294 -0.0923  0.0429 -0.8600
18082TIP3    H175737   3.877   2.323  12.213 -1.3338 -0.5470 -1.5098
18082TIP3    H275738   3.805   2.339  12.345  1.4710  0.7592 -0.1048
18083TIP3   OH275739   5.711   4.425  15.638  0.3218 -0.0461 -0.4182
18083TIP3    H175740   5.754   4.417  15.723  1.5683  1.8884 -0.8256
18083TIP3    H275741   5.719   4.338  15.599  0.4998 -0.7283  1.0891
18084TIP3   OH275742   0.265   4.013  16.653 -0.0222  0.3029  0.2648
18084TIP3    H175743   0.203   3.944  16.679 -1.5061  0.9611 -1.3607
18084TIP3    H275744   0.253   4.082  16.717 -0.5883  0.1919  0.2835
18085TIP3   OH275745   0.372   6.384  16.739  0.0973  0.2739 -0.6736
18085TIP3    H175746   0.350   6.349  16.825 -0.7891  1.8477 -0.2569
18085TIP3    H275747   0.465   6.406  16.745  0.3744 -0.8894 -0.5691
18086TIP3   OH275748   4.741   3.355   2.613 -0.3760  0.3841 -0.2758
18086TIP3    H175749   4.796   3.418   2.567  0.8828  0.0071  0.6794
18086TIP3    H275750   4.743   3.383   2.704 -1.6515  0.2724 -0.2072
18087TIP3   OH275751   3.441   3.411   5.334 -0.6456  0.1889  0.1947
18087TIP3    H175752   3.377   3.432   5.403 -0.2978 -0.6174  0.7770
18087TIP3    H275753   3.426   3.477   5.266  0.5321  2.4658  2.0393
18088TIP3   OH275754   6.598   6.149   0.958 -0.9300  0.1703 -0.3143
18088TIP3    H175755   6.641   6.154   1.044 -0.5285  0.0131 -0.5053
18088TIP3    H275756   6.541   6.072   0.964 -0.4597 -0.1845 -0.3879
18089TIP3   OH275757   6.452   2.116  14.067  0.0605 -0.0207  0.5269
18089TIP3    H175758   6.392   2.099  14.140 -1.4114 -1.6435 -1.0268
18089TIP3    H275759   6.517   2.046  14.073  0.1491  0.0598  0.5010
18090TIP3   OH275760   2.991   1.475  14.856  0.0470  0.2260 -0.4434
18090TIP3    H175761   2.960   1.485  14.766 -1.4011 -2.6559 -0.3335
18090TIP3    H275762   2.964   1.555  14.900 -3.0150 -0.1275 -1.5699
18091TIP3   OH275763   4.388   2.559   4.193  0.4172 -0.3387  0.5126
18091TIP3    H175764   4.410   2.646   4.227  0.3937 -0.6854  1.4101
18091TIP3    H275765   4.454   2.501   4.231 -0.2153 -0.8884  0.7724
18092TIP3   OH275766   5.148   4.751  12.153  0.4489  0.6010 -0.4517
18092TIP3    H175767   5.215   4.819  12.161  0.6333  0.7184 -2.9049
18092TIP3    H275768   5.195   4.669  12.168  1.4786  0.5656 -3.6791
18093TIP3   OH275769   1.976   2.852  11.876  0.5556  0.6095  0.1900
18093TIP3    H175770   1.954   2.786  11.810  1.3947 -0.6261  1.1294
18093TIP3    H275771   1.925   2.826  11.953  0.5333  1.3331  0.4162
18094TIP3   OH275772   2.723   4.382   0.450 -0.0302 -0.1061  0.0556
18094TIP3    H175773   2.638   4.343   0.469  0.0973  0.5163  2.0759
18094TIP3    H275774   2.752   4.419   0.534  0.6103  2.8402 -1.3905
18095TIP3   OH275775   3.957   4.035  12.737  0.2911 -0.2655 -0.7136
18095TIP3    H175776   3.894   4.076  12.796 -1.7874 -2.5294 -1.2542
18095TIP3    H275777   3.940   4.076  12.652  1.0822  0.6977 -0.4152
18096TIP3   OH275778   2.931   6.032  14.823  1.1361 -0.3640  0.3518
18096TIP3    H175779   3.010   6.035  14.878  2.0083  0.0341 -0.9109
18096TIP3    H275780   2.931   5.943  14.787  0.8575 -0.4482  0.5545
18097TIP3   OH275781   1.926   2.767  16.009 -0.4683 -0.0478 -0.1712
18097TIP3    H175782   1.848   2.782  16.062 -0.8727 -1.5147 -0.3272
18097TIP3    H275783   1.991   2.829  16.043 -1.3866  0.4871  0.6201
18098TIP3   OH275784   4.164   2.591   4.483  0.5683 -0.3967 -0.3286
18098TIP3    H175785   4.163   2.535   4.405 -0.5827  0.4105 -0.9042
18098TIP3    H275786   4.089   2.562   4.535 -1.0179  1.6587 -1.4057
18099TIP3   OH275787   2.188   4.498   4.094 -0.3604 -0.1039 -0.2442
18099TIP3    H175788   2.263   4.461   4.141 -0.6354  0.7808  0.8935
18099TIP3    H275789   2.113   4.449   4.125 -0.3293 -0.6485 -1.0123
18100TIP3   OH275790   6.064   1.848  12.155 -0.2184 -0.2365  0.2038
18100TIP3    H175791   6.047   1.759  12.185  0.6286 -0.4007  0.2189
18100TIP3    H275792   6.135   1.880  12.212 -0.3040  0.3327 -0.0008
18101TIP3   OH275793   0.041   3.949  10.388 -0.2564 -0.1695  0.4259
18101TIP3    H175794  -0.035   3.971  10.441 -2.8542 -0.9292 -2.8188
18101TIP3    H275795   0.069   3.863  10.421 -0.7997  0.1037  1.6257
18102TIP3   OH275796   1.601   4.801  11.697 -0.5088 -0.1825 -0.2208
18102TIP3    H175797   1.523   4.776  11.747  1.2205  0.9589  3.2502
18102TIP3    H275798   1.656   4.723  11.697 -0.7257 -0.3339 -0.7681
18103TIP3   OH275799   0.085   3.846  12.852  0.0948  0.1361  0.3995
18103TIP3    H175800   0.096   3.941  12.848 -0.0112  0.1611  0.7727
18103TIP3    H275801   0.153   3.816  12.912  0.0778 -0.0172  0.3425
18104TIP3   OH275802   0.421   4.422   3.619 -0.1803 -0.0311 -0.2228
18104TIP3    H175803   0.439   4.418   3.525  0.1906 -0.0646 -0.1512
18104TIP3    H275804   0.330   4.394   3.627 -0.1145 -0.3360 -0.5376
18105TIP3   OH275805   3.017   0.562  13.143  0.1191 -0.2566  0.2510
18105TIP3    H175806   2.987   0.570  13.053  0.6431 -1.7109 -0.0593
18105TIP3    H275807   2.940   0.530  13.191  0.1154 -0.4090  0.1426
18106TIP3   OH275808   1.180   6.609   3.752  0.0029  0.1303  0.2608
18106TIP3    H175809   1.132   6.660   3.818  2.2672 -0.8313  2.7240
18106TIP3    H275810   1.143   6.521   3.759 -0.7865  0.3636 -0.8397
18107TIP3   OH275811   2.525   4.925  12.634  0.3161  0.0269 -0.0938
18107TIP3    H175812   2.557   5.003  12.679 -0.1766  0.2175 -0.0675
18107TIP3    H275813   2.440   4.951  12.599  0.0377 -0.5761  0.1270
18108TIP3   OH275814   5.348   2.915  12.325 -0.3930 -0.1756 -0.2916
18108TIP3    H175815   5.327   2.892  12.415 -0.1242  2.2803  0.4294
18108TIP3    H275816   5.443   2.924  12.323 -0.2276 -1.7501 -1.2403
18109TIP3   OH275817   3.918   0.112   1.782 -0.3542  0.0230  0.4756
18109TIP3    H175818   3.989   0.110   1.717 -1.0868  0.7377 -0.3645
18109TIP3    H275819   3.961   0.141   1.863  0.0722  1.7892 -0.3534
18110TIP3   OH275820   0.680   5.312   1.783 -0.3575  0.3418 -0.1271
18110TIP3    H175821   0.635   5.273   1.858  2.7777  1.3258  2.3751
18110TIP3    H275822   0.683   5.242   1.717 -0.3528 -1.5985  1.8981
18111TIP3   OH275823   6.074   2.983  16.219 -0.3284  0.0062 -0.0891
18111TIP3    H175824   6.060   2.940  16.304 -0.1741  0.8876  0.4010
18111TIP3    H275825   6.120   3.064  16.242  2.7708 -1.3399 -1.3370
18112TIP3   OH275826   2.474   5.520   3.278  0.4582  0.6265  0.4806
18112TIP3    H175827   2.382   5.504   3.299  0.3976  0.3015 -0.0136
18112TIP3    H275828   2.513   5.549   3.360 -0.1177  0.9010  0.6556
18113TIP3   OH275829   2.089   6.122   0.860 -0.0376  0.5536 -0.0007
18113TIP3    H175830   2.055   6.190   0.918  0.8147  0.6545  0.3925
18113TIP3    H275831   2.021   6.111   0.793 -0.9599  0.5310  0.9336
18114TIP3   OH275832   1.751   1.018  14.380 -0.3282 -0.0598 -0.3721
18114TIP3    H175833   1.743   0.950  14.446 -0.9956  0.5598  0.1798
18114TIP3    H275834   1.844   1.015  14.355 -0.7269 -2.4795 -1.7722
18115TIP3   OH275835   5.196   0.623   0.169  0.0461  0.1339  0.0925
18115TIP3    H175836   5.150   0.605   0.251 -2.4729  0.5346 -1.1986
18115TIP3    H275837   5.191   0.718   0.159  0.2994  0.0775 -0.5526
18116TIP3   OH275838   6.694   0.365  13.121 -1.2909 -0.3439  0.1972
18116TIP3    H175839   6.609   0.371  13.078 -0.6747  3.2502 -0.7272
18116TIP3    H275840   6.749   0.316  13.059 -2.2902 -1.4030  0.1454
18117TIP3   OH275841   4.384   2.914  13.495  0.9295 -0.5401 -0.4886
18117TIP3    H175842   4.337   2.997  13.496  2.3643  0.2854  1.2753
18117TIP3    H275843   4.466   2.934  13.448  0.2844 -1.5611 -2.1131
18118TIP3   OH275844   4.624   4.175  15.439  0.5327 -1.3378 -0.1212
18118TIP3    H175845   4.542   4.215  15.410  1.3498  0.0120 -0.6285
18118TIP3    H275846   4.627   4.192  15.533 -0.9175 -3.5151  0.3423
18119TIP3   OH275847   0.731   3.433   3.501 -0.4285 -0.3814 -0.2099
18119TIP3    H175848   0.663   3.367   3.489 -1.1940  0.3520 -0.0269
18119TIP3    H275849   0.768   3.414   3.588 -0.3105 -0.8600 -0.3634
18120TIP3   OH275850   0.561   3.941   5.031 -0.0349 -0.1891 -0.5271
18120TIP3    H175851   0.518   3.930   4.947  0.9479 -0.2616 -1.0206
18120TIP3    H275852   0.543   3.860   5.079 -0.4624 -0.2095 -0.7228
18121TIP3   OH275853   0.420   1.617   4.235 -0.0051  0.0861  0.1454
18121TIP3    H175854   0.407   1.530   4.272  1.0075 -1.1150 -2.2938
18121TIP3    H275855   0.493   1.608   4.175 -0.2450  2.5035 -0.5714
18122TIP3   OH275856   6.575   2.372   2.709  0.4073 -0.3308 -0.0770
18122TIP3    H175857   6.515   2.429   2.758  0.7278  0.1635 -0.2458
18122TIP3    H275858   6.568   2.287   2.751  0.7246  0.0996  0.8792
18123TIP3   OH275859   1.000   5.451   1.638 -0.0713  0.2343  0.1814
18123TIP3    H175860   1.023   5.364   1.605  1.8669  1.2607 -1.3152
18123TIP3    H275861   0.921   5.475   1.591 -0.8395 -0.8748  0.8982
18124TIP3   OH275862   5.911   2.658   4.033 -0.4464  0.8779  0.2973
18124TIP3    H175863   5.822   2.631   4.010 -0.2786 -0.8100  1.5290
18124TIP3    H275864   5.918   2.640   4.127  1.5747 -0.1340 -0.0256
18125TIP3   OH275865   3.694   2.423   4.455  0.2076  0.4470 -0.4920
18125TIP3    H175866   3.638   2.421   4.532  1.0930 -1.1020  0.1310
18125TIP3    H275867   3.781   2.445   4.488 -0.1850  3.8701 -1.5837
18126TIP3   OH275868   1.394   6.684  10.696 -0.3410  0.3881 -0.0176
18126TIP3    H175869   1.485   6.668  10.672 -0.2096  1.0146  0.0492
18126TIP3    H275870   1.395   6.770  10.737 -0.8158 -0.0037  0.8206
18127TIP3   OH275871   6.010   1.482   0.590 -0.1895  0.2731 -0.3441
18127TIP3    H175872   5.983   1.512   0.503  0.8535  0.7190 -0.5237
18127TIP3    H275873   6.047   1.395   0.575  1.6026  1.0588 -0.6325
18128TIP3   OH275874   0.659   3.006  13.331  0.4706 -0.7220  0.0003
18128TIP3    H175875   0.720   2.942  13.368  0.2540  0.2434  2.1013
18128TIP3    H275876   0.647   3.071  13.401 -1.9363 -0.1938 -0.8705
18129TIP3   OH275877   1.573   3.316   2.333 -0.5466 -0.1193  0.7135
18129TIP3    H175878   1.536   3.376   2.398  0.0910  0.8110  0.2387
18129TIP3    H275879   1.663   3.300   2.363 -0.6001 -0.5488  0.6488
18130TIP3   OH275880   0.362   2.777  17.213 -0.3559 -0.1480 -0.0658
18130TIP3    H175881   0.407   2.828  17.146  0.4690 -1.7098 -0.7184
18130TIP3    H275882   0.275   2.816  17.219 -0.0030  0.8118 -1.1345
18131TIP3   OH275883   1.503   4.625  16.324  0.1241 -0.3598 -0.4811
18131TIP3    H175884   1.584   4.636  16.274 -0.3765 -0.8542 -1.4047
18131TIP3    H275885   1.449   4.700  16.299  0.2241 -0.1139  0.0208
18132TIP3   OH275886   3.076   3.087   0.504  0.1113  0.1134  0.0375
18132TIP3    H175887   3.068   2.998   0.538  1.7409 -0.8238 -1.9060
18132TIP3    H275888   2.996   3.101   0.453  0.7547 -1.0178 -1.3106
18133TIP3   OH275889   4.146   4.577   0.942  0.4399 -0.6044  0.0909
18133TIP3    H175890   4.071   4.546   0.992  0.5279  1.2111  1.3946
18133TIP3    H275891   4.176   4.655   0.989  2.2323 -0.4514 -1.2423
18134TIP3   OH275892   5.927   0.572  11.334 -0.0545  0.3590  0.2258
18134TIP3    H175893   5.950   0.656  11.374 -1.2733  0.4656  0.7106
18134TIP3    H275894   5.964   0.577  11.246 -1.5067  2.0740 -0.3177
18135TIP3   OH275895   3.789   5.295   3.818 -0.1315  0.5653 -0.2256
18135TIP3    H175896   3.802   5.276   3.911 -0.5256  1.7451  0.0798
18135TIP3    H275897   3.830   5.381   3.806 -1.4264  1.1018 -0.8077
18136TIP3   OH275898   1.311   3.507  11.512  0.0953 -0.0642  0.0933
18136TIP3    H175899   1.378   3.468  11.456  1.6113  0.2954  1.6351
18136TIP3    H275900   1.308   3.599  11.484  3.3543  0.9844  2.8789
18137TIP3   OH275901   5.022   6.607   5.318  0.0213 -0.3247 -0.3900
18137TIP3    H175902   4.948   6.584   5.261  0.4560 -1.7142 -0.4185
18137TIP3    H275903   4.982   6.635   5.400 -0.5667  0.1487 -0.8349
18138TIP3   OH275904   6.611   4.989  16.998 -0.5491  0.1769 -0.5519
18138TIP3    H175905   6.520   5.009  16.977 -1.0089  0.5488  1.6720
18138TIP3    H275906   6.606   4.927  17.070  0.9291  1.6902  0.9195
18139TIP3   OH275907   3.081   2.127   3.810  0.2614  0.5714 -0.8640
18139TIP3    H175908   3.149   2.115   3.877 -1.0667  1.1637  0.6330
18139TIP3    H275909   3.024   2.195   3.846 -1.3425 -0.1927 -1.9054
18140TIP3   OH275910   5.045   1.021   1.023 -0.3156  0.2447  0.0993
18140TIP3    H175911   4.987   1.052   1.092 -0.6123 -1.2224  0.5292
18140TIP3    H275912   5.133   1.037   1.056 -0.4401  2.3879 -0.5134
18141TIP3   OH275913   4.832   4.742   3.830 -0.8960  0.0100  0.0288
18141TIP3    H175914   4.768   4.811   3.813 -1.9819 -0.6145  1.4520
18141TIP3    H275915   4.917   4.785   3.825 -1.5972  1.6012  1.6292
18142TIP3   OH275916   1.899   3.409  11.831  0.3134 -0.0752  0.2354
18142TIP3    H175917   1.903   3.314  11.824  0.1055 -0.3167  2.8586
18142TIP3    H275918   1.948   3.429  11.912 -2.0523  1.7956  1.2584
18143TIP3   OH275919   0.804   4.700  17.264 -0.4524  0.5487  0.0965
18143TIP3    H175920   0.811   4.791  17.294 -1.9865  0.4994  0.6765
18143TIP3    H275921   0.829   4.648  17.340 -2.0013  0.4638  0.5743
18144TIP3   OH275922   4.059   2.358  12.459  0.6384 -0.0084  0.4174
18144TIP3    H175923   4.005   2.318  12.391  0.5528 -0.2324  0.6157
18144TIP3    H275924   4.089   2.285  12.512  0.2497  0.2166  0.9514
18145TIP3   OH275925   2.593   6.344   2.175  0.1898 -0.1596  0.1026
18145TIP3    H175926   2.552   6.429   2.159  1.4496  0.5117  0.3445
18145TIP3    H275927   2.617   6.347   2.268  1.8246 -0.0662 -0.3139
18146TIP3   OH275928   1.656   1.877  15.133  0.1098  0.1887  0.0330
18146TIP3    H175929   1.652   1.972  15.150 -0.3152  0.4337 -1.3916
18146TIP3    H275930   1.581   1.860  15.077  0.3216 -0.9726  0.1036
18147TIP3   OH275931   5.399   3.132  16.280  0.3484 -1.0767  0.2313
18147TIP3    H175932   5.427   3.203  16.338  0.0847 -0.4542 -0.3982
18147TIP3    H275933   5.364   3.065  16.339  1.2264 -0.9817  0.8785
18148TIP3   OH275934   2.277   2.580  12.499  0.0246  0.1566 -0.3508
18148TIP3    H175935   2.200   2.538  12.461 -0.6215  1.4050 -0.4394
18148TIP3    H275936   2.343   2.579  12.429  0.1426 -1.0298 -0.2328
18149TIP3   OH275937   0.062   1.340   1.464  0.1746  0.8642 -0.4490
18149TIP3    H175938   0.127   1.323   1.532 -1.2389  1.5727  1.0905
18149TIP3    H275939   0.100   1.411   1.413  1.4848 -0.0308 -0.7725
18150TIP3   OH275940   4.018   1.171   4.214  0.0987 -0.5939  0.5427
18150TIP3    H175941   3.924   1.158   4.226 -0.3516  1.1482 -0.8812
18150TIP3    H275942   4.059   1.096   4.258 -2.0166 -2.3889 -0.4940
18151TIP3   OH275943   4.347   5.804   0.063  0.5598  0.4522  0.3949
18151TIP3    H175944   4.375   5.884   0.018  0.4210  1.1569  1.5452
18151TIP3    H275945   4.385   5.733   0.010  1.8704  1.3094  0.1435
18152TIP3   OH275946   2.421   3.393   4.341  0.6460 -0.8204  0.3762
18152TIP3    H175947   2.515   3.374   4.345  0.6536 -1.0662 -0.9850
18152TIP3    H275948   2.415   3.469   4.285  0.1874  0.4076  2.0526
18153TIP3   OH275949   1.405   4.988  10.751 -0.2588 -0.3425 -0.1886
18153TIP3    H175950   1.500   4.991  10.760 -0.4076  0.6196  1.3857
18153TIP3    H275951   1.373   5.040  10.825 -1.9767  0.2923 -1.3526
18154TIP3   OH275952   3.976   5.479   2.374  0.4167 -0.2803  0.2480
18154TIP3    H175953   3.902   5.444   2.324  0.8691  0.8832 -1.2753
18154TIP3    H275954   4.051   5.429   2.344  0.5716 -0.0887  0.3204
18155TIP3   OH275955   1.825   0.824   1.869  0.2790  0.3021  0.0614
18155TIP3    H175956   1.741   0.869   1.871  0.8965  1.4183  1.2161
18155TIP3    H275957   1.875   0.861   1.942  0.2062 -3.4116  2.1165
18156TIP3   OH275958   6.649   1.880  12.089  0.5224  0.0913 -0.4850
18156TIP3    H175959   6.685   1.891  12.001  0.9563 -3.3486 -0.8318
18156TIP3    H275960   6.557   1.904  12.080  0.8652  1.0496 -1.5655
18157TIP3   OH275961   4.979   1.037   3.075 -0.3519  0.2344  0.2472
18157TIP3    H175962   4.970   1.117   3.025 -1.4721 -0.8923 -1.4000
18157TIP3    H275963   4.889   1.011   3.095  0.0791  1.1453  3.6577
18158TIP3   OH275964   5.559   5.918   1.745 -0.1296 -0.2434 -0.2712
18158TIP3    H175965   5.541   5.895   1.654 -1.7917  1.0666 -0.2906
18158TIP3    H275966   5.484   5.885   1.794  1.3691 -2.1195  0.8405
18159TIP3   OH275967   1.471   0.299  16.468 -0.3787  0.2351 -0.0760
18159TIP3    H175968   1.505   0.245  16.396  0.0901  1.9913 -1.2109
18159TIP3    H275969   1.457   0.385  16.428  0.3955  1.3825  2.0928
18160TIP3   OH275970   0.345   3.030  11.344  0.6533  0.3062  0.1898
18160TIP3    H175971   0.377   2.960  11.287 -0.1466  0.6317 -0.6694
18160TIP3    H275972   0.273   3.071  11.295  1.3452  1.9712  0.5069
18161TIP3   OH275973   1.988   1.708   5.156  0.4342 -0.3480 -0.0478
18161TIP3    H175974   2.061   1.715   5.093 -1.1665  1.3688 -1.7869
18161TIP3    H275975   1.923   1.770   5.123 -1.9994 -2.1691  1.2419
18162TIP3   OH275976   4.146   0.020  10.945  0.9478  0.6603  0.6808
18162TIP3    H175977   4.103   0.081  10.885  0.6217  1.1745  1.4317
18162TIP3    H275978   4.222  -0.012  10.896 -0.1641 -0.1000 -0.5767
18163TIP3   OH275979   2.528   4.528  11.408 -0.0051 -0.0198  0.1112
18163TIP3    H175980   2.524   4.513  11.314 -0.5481  1.6686 -0.1541
18163TIP3    H275981   2.593   4.466  11.440  0.7281 -0.0872 -1.4814
18164TIP3   OH275982   5.339   5.308   3.142 -0.6675 -0.5936  0.3145
18164TIP3    H175983   5.345   5.230   3.196  1.2208  0.0379  1.0794
18164TIP3    H275984   5.423   5.311   3.096 -0.4355  1.3099  0.8053
18165TIP3   OH275985   1.447   2.096  14.030  0.2074 -0.1848 -0.3237
18165TIP3    H175986   1.524   2.152  14.038  0.1592 -0.0286 -0.9595
18165TIP3    H275987   1.441   2.052  14.115  0.9044 -0.0768 -0.2126
18166TIP3   OH275988   3.095   5.092   1.154 -0.4054  0.0846  0.2953
18166TIP3    H175989   3.123   5.113   1.243 -0.0999 -3.0317  0.9829
18166TIP3    H275990   3.049   5.009   1.162 -2.1416  0.7362 -2.1835
18167TIP3   OH275991   6.347   3.834  11.262 -0.2800  0.0089 -0.6107
18167TIP3    H175992   6.328   3.927  11.250  0.9297  0.5436  1.4044
18167TIP3    H275993   6.415   3.814  11.198 -0.3289  0.5848 -0.8433
18168TIP3   OH275994   2.042   0.176  16.562  0.1642 -0.3515  0.8610
18168TIP3    H175995   1.978   0.180  16.491  0.4813 -0.0523  0.5835
18168TIP3    H275996   2.008   0.110  16.622 -0.1805 -0.5052  0.4996
18169TIP3   OH275997   1.281   3.980   0.177 -0.4552 -0.1484 -0.0413
18169TIP3    H175998   1.343   4.051   0.190 -1.4916  0.4869  1.5957
18169TIP3    H275999   1.324   3.921   0.116  1.4887  0.5989  0.5794
18170TIP3   OH276000   4.985   4.625  14.261 -0.2352 -0.0988 -0.3526
18170TIP3    H176001   4.951   4.699  14.311 -0.8460 -0.8240  0.3287
18170TIP3    H276002   4.977   4.550  14.321  2.9470 -0.2376 -0.0166
18171TIP3   OH276003   0.736   1.221   1.802 -0.3027  0.2296  0.3229
18171TIP3    H176004   0.777   1.307   1.814  1.2680 -0.5144  0.3581
18171TIP3    H276005   0.706   1.222   1.711 -1.5568  1.3298  0.7186
18172TIP3   OH276006   1.831   2.017   1.625 -0.0048  0.1856  0.2086
18172TIP3    H176007   1.900   2.075   1.657 -0.4469  1.0530 -0.3970
18172TIP3    H276008   1.877   1.937   1.600  1.0495  1.4142 -1.8860
18173TIP3   OH276009   0.375   5.977  14.371  0.1380 -0.0746 -0.0018
18173TIP3    H176010   0.351   5.901  14.318  0.5682 -0.0723 -0.1963
18173TIP3    H276011   0.464   5.998  14.345 -0.0010  0.5352  0.0080
18174TIP3   OH276012   1.254   3.563   2.811  0.2285 -0.3526 -0.4065
18174TIP3    H176013   1.297   3.642   2.778 -0.3275  0.4549  0.7451
18174TIP3    H276014   1.161   3.576   2.791  0.3879 -1.6474 -2.0225
18175TIP3   OH276015   5.800   5.093  12.012  0.1154  0.1747  0.4688
18175TIP3    H176016   5.872   5.041  11.975  0.2822  0.2618  0.6763
18175TIP3    H276017   5.778   5.155  11.943 -2.7848 -2.7631 -1.4269
18176TIP3   OH276018   5.158   0.935   2.691  0.0845  0.3164 -0.0011
18176TIP3    H176019   5.214   0.871   2.646  2.4979  1.5195  1.2219
18176TIP3    H276020   5.076   0.888   2.704  1.2448 -2.0057 -0.6092
18177TIP3   OH276021   3.808   4.002   4.590 -0.4238  0.2934  0.2194
18177TIP3    H176022   3.855   3.937   4.642  0.8240  1.3095  0.3825
18177TIP3    H276023   3.774   3.954   4.515  1.2017 -0.3670 -0.0970
18178TIP3   OH276024   3.844   6.760   3.110  0.2682 -0.7379 -0.3500
18178TIP3    H176025   3.786   6.702   3.061 -2.2814  1.9996 -0.7451
18178TIP3    H276026   3.791   6.790   3.184  0.9495  2.1640 -0.9622
18179TIP3   OH276027   6.169   4.587   3.531  0.2854 -0.6605 -0.0563
18179TIP3    H176028   6.144   4.641   3.456  1.1343 -1.1178 -0.6779
18179TIP3    H276029   6.223   4.517   3.494  0.1064 -1.3113  0.8847
18180TIP3   OH276030   0.387   5.124   3.063  0.7979 -0.5409  0.3036
18180TIP3    H176031   0.438   5.045   3.078 -0.1514 -1.5014 -1.2967
18180TIP3    H276032   0.413   5.153   2.976 -0.4946 -0.3900 -0.0525
18181TIP3   OH276033   0.360   5.402  14.342  0.1006  0.6249 -0.0230
18181TIP3    H176034   0.370   5.385  14.249 -1.3799 -1.6667  0.2131
18181TIP3    H276035   0.287   5.346  14.370  3.2765 -2.1119  3.3806
18182TIP3   OH276036   1.704   4.362  17.238  0.3340 -0.4082  0.9580
18182TIP3    H176037   1.651   4.441  17.228 -0.2050 -0.7120  1.3956
18182TIP3    H276038   1.687   4.312  17.158  1.8982  0.6301 -0.0503
18183TIP3   OH276039   5.289   5.893  12.599  0.6207  0.3488  0.2004
18183TIP3    H176040   5.202   5.928  12.579  1.3578  2.6990  0.9958
18183TIP3    H276041   5.299   5.818  12.540 -2.1023 -0.2184  0.4123
18184TIP3   OH276042   3.846   0.591  13.039 -0.3796 -0.3242 -0.5078
18184TIP3    H176043   3.846   0.618  12.947  0.1482  0.2844 -0.3330
18184TIP3    H276044   3.762   0.547  13.051  0.0360 -1.4503 -1.5873
18185TIP3   OH276045   2.394   3.660  13.681 -0.1784  0.3645  0.7156
18185TIP3    H176046   2.300   3.677  13.673 -0.2054  0.6661  1.6110
18185TIP3    H276047   2.401   3.591  13.747  0.3001  1.4057  1.7886
18186TIP3   OH276048   4.577   6.395  17.290 -0.2272 -0.0596  0.3993
18186TIP3    H176049   4.489   6.403  17.252  0.0350  0.6286 -0.0721
18186TIP3    H276050   4.605   6.485  17.305  0.2743 -0.2874  0.8440
18187TIP3   OH276051   3.852   4.437  16.543  0.2826 -0.4562 -0.0861
18187TIP3    H176052   3.814   4.492  16.612 -1.2148 -1.7222  0.1425
18187TIP3    H276053   3.934   4.405  16.581  0.7804  0.9725  0.0710
18188TIP3   OH276054   4.195   2.091   6.100  0.0398  0.2110 -0.2931
18188TIP3    H176055   4.150   2.109   6.183 -2.9317  1.0735 -2.0048
18188TIP3    H276056   4.265   2.030   6.123 -0.7022  0.4632  2.8434
18189TIP3   OH276057   4.202   0.914   4.052  0.6310 -0.5588  0.0882
18189TIP3    H176058   4.206   1.009   4.050 -0.6744 -0.4999 -1.9107
18189TIP3    H276059   4.151   0.891   3.974 -0.8361 -2.7814  1.6296
18190TIP3   OH276060   5.002   6.605  16.919  0.4854  0.4923 -0.5156
18190TIP3    H176061   5.000   6.646  17.006  1.3146  0.8457 -0.6558
18190TIP3    H276062   5.064   6.533  16.927 -1.4565 -1.1937 -0.0957
18191TIP3   OH276063   5.236   0.870   2.097  0.4279 -0.2845  1.1315
18191TIP3    H176064   5.194   0.851   2.013  0.5005  0.1472  0.9979
18191TIP3    H276065   5.234   0.787   2.144  1.6668 -0.8822  0.1510
18192TIP3   OH276066   2.087   6.214  16.848  0.5255  0.5136  0.4707
18192TIP3    H176067   2.112   6.201  16.756  0.3930  0.3800  0.4501
18192TIP3    H276068   2.076   6.125  16.882 -0.1396  0.5704  0.4190
18193TIP3   OH276069   0.113   5.651  15.633  0.6343 -0.2144  0.2229
18193TIP3    H176070   0.141   5.576  15.685  0.0484 -1.1090 -0.7168
18193TIP3    H276071   0.048   5.695  15.687  1.1133 -0.2731  0.8576
18194TIP3   OH276072   4.783   5.906  13.038 -0.0779 -0.3936 -0.4132
18194TIP3    H176073   4.806   5.998  13.052 -0.9992 -0.1571 -0.3666
18194TIP3    H276074   4.864   5.858  13.051  0.5006  0.4548 -0.8473
18195TIP3   OH276075   3.329   0.581   1.746  0.2094 -0.0168 -0.0031
18195TIP3    H176076   3.341   0.653   1.808  1.0463 -0.1327 -0.0211
18195TIP3    H276077   3.244   0.544   1.769  0.9363 -0.6847  1.7329
18196TIP3   OH276078   4.981   1.261  16.864 -0.1515 -0.9541  0.0573
18196TIP3    H176079   5.024   1.285  16.946  0.3610  3.0675 -1.2633
18196TIP3    H276080   5.052   1.244  16.803 -0.4930 -1.4946 -0.1920
18197TIP3   OH276081   3.832   1.088   5.865  0.4025  0.7690  0.2548
18197TIP3    H176082   3.802   1.121   5.950 -0.5954 -0.4993  0.4005
18197TIP3    H276083   3.788   1.144   5.801 -2.0784 -0.8496  0.4725
18198TIP3   OH276084   1.892   5.066   4.916 -0.2554 -0.0172  0.1634
18198TIP3    H176085   1.864   5.063   4.824  1.7053  1.9214 -0.5425
18198TIP3    H276086   1.979   5.027   4.916  0.3943  1.3896  0.9109
18199TIP3   OH276087   5.612   3.522   3.638 -0.0813  0.9121  0.2842
18199TIP3    H176088   5.578   3.533   3.550  0.6065  1.8392  0.1299
18199TIP3    H276089   5.675   3.451   3.631 -0.6348  0.4191  0.2086
18200TIP3   OH276090   1.228   5.383   4.594  0.0742  0.7238 -0.0197
18200TIP3    H176091   1.287   5.336   4.534 -1.9749 -1.1185 -0.6701
18200TIP3    H276092   1.251   5.475   4.583  2.5553  0.0872 -0.5315
18201TIP3   OH276093   5.129   4.908   3.411 -0.7558 -0.6206  0.1479
18201TIP3    H176094   5.048   4.858   3.405 -0.7419 -0.8780  1.8140
18201TIP3    H276095   5.197   4.843   3.426 -0.5076 -0.2608  0.6261
18202TIP3   OH276096   2.008   1.755   0.170 -0.0041 -0.4249 -0.6638
18202TIP3    H176097   1.988   1.666   0.197  1.5787 -0.3250  0.9235
18202TIP3    H276098   1.998   1.754   0.075  0.6829 -2.4600 -0.7296
18203TIP3   OH276099   6.237   3.464   4.662 -0.4952  0.4347  0.6338
18203TIP3    H176100   6.292   3.486   4.588  0.8473  0.4864  1.6175
18203TIP3    H276101   6.291   3.404   4.715 -2.3702 -1.6357  0.2844
18204TIP3   OH276102   3.500   3.417  14.168  0.3002  0.7109  0.4955
18204TIP3    H176103   3.516   3.323  14.158 -0.7229  0.6588 -0.7413
18204TIP3    H276104   3.579   3.458  14.132  1.4827  0.3316  2.5358
18205TIP3   OH276105   1.906   6.732   0.976  0.1862  0.2036  0.3000
18205TIP3    H176106   1.941   6.752   0.890  0.0794  0.3019  0.2795
18205TIP3    H276107   1.844   6.803   0.994  1.5915  1.2157  1.2630
18206TIP3   OH276108   6.624   5.258   5.483 -0.6688  0.2601 -0.1736
18206TIP3    H176109   6.563   5.255   5.558 -0.9182  1.7381 -0.2883
18206TIP3    H276110   6.567   5.273   5.407 -0.0791  3.3153 -0.0870
18207TIP3   OH276111   1.835   5.788  16.714 -0.3653  0.5115  0.1949
18207TIP3    H176112   1.817   5.790  16.808  0.7097 -0.2975  0.4306
18207TIP3    H276113   1.928   5.763  16.708 -0.9015 -1.2502 -1.1358
18208TIP3   OH276114   1.927   6.161   6.195  0.4525  0.0784  0.4868
18208TIP3    H176115   1.946   6.068   6.181 -1.2708 -0.0945 -0.9422
18208TIP3    H276116   1.975   6.184   6.274  1.2068 -1.9411  0.6385
18209TIP3   OH276117   6.276   2.036   2.771 -0.6974  0.3243 -0.0316
18209TIP3    H176118   6.327   2.087   2.834  1.3211 -0.5021 -0.9852
18209TIP3    H276119   6.222   1.978   2.826  0.3249  0.2949  0.9497
18210TIP3   OH276120   5.104   3.989   4.991  0.5032  0.2664 -0.8039
18210TIP3    H176121   5.065   4.042   5.061 -1.5344 -0.0462 -1.6550
18210TIP3    H276122   5.102   4.046   4.914  0.0901 -0.3543 -1.2621
18211TIP3   OH276123   0.625   1.571   3.245  0.2805 -0.0920 -0.3720
18211TIP3    H176124   0.671   1.606   3.322 -0.7255  0.5560 -0.0611
18211TIP3    H276125   0.583   1.647   3.205  0.1906 -0.5466 -1.1534
18212TIP3   OH276126   6.785   6.378  16.743 -0.3262  0.6414  0.3216
18212TIP3    H176127   6.741   6.456  16.777 -1.0720 -0.4228  1.8400
18212TIP3    H276128   6.800   6.397  16.650 -0.3493  2.6497  0.7133
18213TIP3   OH276129   5.267   6.148  16.724 -0.0618 -0.2862 -0.1109
18213TIP3    H176130   5.245   6.146  16.631 -0.5060 -0.2108 -0.0054
18213TIP3    H276131   5.315   6.230  16.735 -1.2694  0.4093  0.0157
18214TIP3   OH276132   6.108   4.088   5.728  1.2011 -0.2213  0.5353
18214TIP3    H176133   6.192   4.044   5.713  1.3414 -0.4686  1.9058
18214TIP3    H276134   6.103   4.097   5.824 -0.7378 -1.0173  0.5384
18215TIP3   OH276135   6.443   0.095   1.977  0.0885 -0.2133  0.5103
18215TIP3    H176136   6.475   0.007   1.959  1.2294  0.2261  0.3289
18215TIP3    H276137   6.474   0.115   2.066  1.1472  0.5714 -0.0216
18216TIP3   OH276138   1.901   4.595  11.534 -0.7043 -0.4749  0.1153
18216TIP3    H176139   1.912   4.688  11.553 -1.1720 -0.5221  0.6491
18216TIP3    H276140   1.968   4.575  11.469 -0.4337  0.1763  0.1929
18217TIP3   OH276141   0.172   6.441  17.087 -0.1324  0.0466 -0.1117
18217TIP3    H176142   0.104   6.474  17.145 -0.3098 -0.9186  0.2506
18217TIP3    H276143   0.181   6.507  17.019 -0.0391  1.1077  0.9282
18218TIP3   OH276144   6.047   6.703  15.009 -0.4295 -0.3865 -0.3238
18218TIP3    H176145   6.087   6.683  15.094 -0.5530  0.4858 -0.0609
18218TIP3    H276146   6.073   6.793  14.991 -0.7495 -0.4320 -1.0228
18219TIP3   OH276147   2.074   3.005  15.711  0.3600 -0.2295 -0.1943
18219TIP3    H176148   2.020   3.083  15.718 -0.0152 -0.5915  1.0771
18219TIP3    H276149   2.125   3.018  15.631 -1.9119 -0.0808 -1.6379
18220TIP3   OH276150   5.385   1.743   2.189  0.3776  0.0587  0.0605
18220TIP3    H176151   5.347   1.655   2.193  0.4777  0.0769  2.6381
18220TIP3    H276152   5.317   1.800   2.226  1.0601  0.7839  0.2095
18221TIP3   OH276153   3.205   1.718   4.849 -0.3683 -0.3936  0.0894
18221TIP3    H176154   3.224   1.664   4.925  0.1466 -1.3169 -0.6772
18221TIP3    H276155   3.247   1.672   4.776  0.6892  1.4028 -0.4798
18222TIP3   OH276156   5.335   6.613  14.768 -0.4734  0.0202  0.3928
18222TIP3    H176157   5.252   6.614  14.719  0.6407  1.4409 -1.5229
18222TIP3    H276158   5.400   6.587  14.704  0.8024  0.4266  1.5098
18223TIP3   OH276159   3.226   4.223  13.389 -0.2807  0.1317  0.4346
18223TIP3    H176160   3.309   4.180  13.371 -0.2153  0.8952 -1.2246
18223TIP3    H276161   3.163   4.179  13.333 -1.0275 -0.4919  1.7361
18224TIP3   OH276162   4.019   5.799   5.872  0.7028  0.5743 -0.2913
18224TIP3    H176163   3.981   5.785   5.785 -0.0627  1.3073 -0.0762
18224TIP3    H276164   4.066   5.717   5.891 -1.7646 -0.8409 -0.0424
18225TIP3   OH276165   0.179   6.109   1.129 -0.2759 -0.0709  0.1325
18225TIP3    H176166   0.264   6.123   1.087  0.4874  0.0316  1.6831
18225TIP3    H276167   0.127   6.185   1.103  0.0089 -0.2695 -1.0487
18226TIP3   OH276168   3.063   5.526  11.914 -0.1787  0.3161  0.5985
18226TIP3    H176169   3.068   5.566  12.000  4.9434  1.5739 -0.1442
18226TIP3    H276170   3.097   5.437  11.926 -1.0721 -0.0918  0.1762
18227TIP3   OH276171   1.478   2.109  17.212  0.1312 -0.1698 -0.3675
18227TIP3    H176172   1.400   2.153  17.179 -0.2260 -0.4314  0.1258
18227TIP3    H276173   1.550   2.152  17.166 -0.1441  1.5581  0.7409
18228TIP3   OH276174   1.148   5.074  14.684 -0.0289  0.1894 -0.0967
18228TIP3    H176175   1.062   5.067  14.644 -0.1499 -3.1175  0.6356
18228TIP3    H276176   1.201   5.121  14.619 -1.6895 -0.0999 -1.6956
18229TIP3   OH276177   2.973   4.954   3.589 -0.3403 -0.6457  0.0758
18229TIP3    H176178   3.010   4.885   3.534 -0.9559  0.1844 -1.4154
18229TIP3    H276179   2.948   5.023   3.527  0.3636  0.9668  1.5268
18230TIP3   OH276180   0.605   2.754   4.767 -0.3687 -0.3073  0.7358
18230TIP3    H176181   0.648   2.700   4.833  1.5032 -2.8885 -2.4548
18230TIP3    H276182   0.521   2.711   4.751  0.2725 -1.1591 -0.3779
18231TIP3   OH276183   4.569   4.486  16.771 -0.0919  0.5596  0.2643
18231TIP3    H176184   4.609   4.439  16.698 -0.8259  0.0925  0.1643
18231TIP3    H276185   4.630   4.473  16.844 -0.4401 -0.7949  0.3134
18232TIP3   OH276186   4.171   3.931   2.864  0.2371  0.0749  0.3501
18232TIP3    H176187   4.165   4.005   2.925  0.8573  1.0745 -0.7789
18232TIP3    H276188   4.147   3.968   2.780 -0.1689 -1.1970 -0.0999
18233TIP3   OH276189   5.028   6.738   0.722  0.0569 -0.4841 -0.0148
18233TIP3    H176190   5.075   6.815   0.754  1.6967 -2.1416  1.7376
18233TIP3    H276191   4.961   6.721   0.789 -1.5439  0.5013 -1.3389
18234TIP3   OH276192   4.053   3.857   1.855  0.7471  0.3618 -0.0195
18234TIP3    H176193   4.019   3.774   1.821  2.4047  0.2009 -1.3437
18234TIP3    H276194   4.070   3.841   1.947 -1.9026  0.1883  0.4818
18235TIP3   OH276195   3.336   0.712  15.951 -0.0569 -0.4211  0.2733
18235TIP3    H176196   3.348   0.689  15.859 -0.7390  1.3361 -0.2778
18235TIP3    H276197   3.263   0.774  15.951  0.5694  0.3586  1.8806
18236TIP3   OH276198   2.694   6.565   6.100 -0.2341  0.3488  0.4119
18236TIP3    H176199   2.628   6.537   6.164 -0.5179  0.7176  0.2829
18236TIP3    H276200   2.644   6.597   6.026  0.0763  1.3738  0.6335
18237TIP3   OH276201   3.316   5.703   5.099  0.0637 -0.6238 -0.1114
18237TIP3    H176202   3.382   5.688   5.031  0.8338 -2.8344  1.0633
18237TIP3    H276203   3.284   5.616   5.121  1.1471 -0.1945  3.5818
18238TIP3   OH276204   5.295   0.289   4.859  0.1849 -0.5282  0.2961
18238TIP3    H176205   5.278   0.383   4.862  0.9025 -0.4321  1.3690
18238TIP3    H276206   5.210   0.249   4.876  0.5193 -0.0562  3.2439
18239TIP3   OH276207   4.797   0.879   2.266 -0.5385 -0.2704  0.3270
18239TIP3    H176208   4.875   0.911   2.312 -0.3966  1.3470 -0.9825
18239TIP3    H276209   4.823   0.794   2.231 -0.0258 -0.6480  1.5847
18240TIP3   OH276210   5.532   4.437   0.466 -0.0788 -0.9699  0.1368
18240TIP3    H176211   5.448   4.482   0.450  0.0899 -1.0042 -0.9062
18240TIP3    H276212   5.508   4.345   0.473 -0.3539 -0.7856  1.6959
18241TIP3   OH276213   0.287   2.011  11.731 -0.2953 -0.3160 -0.6234
18241TIP3    H176214   0.235   2.075  11.780  0.7145  1.0849 -1.3694
18241TIP3    H276215   0.223   1.966  11.675 -1.0144 -0.0317 -0.0455
18242TIP3   OH276216   0.978   2.597   1.143  0.5315 -0.8667  0.6301
18242TIP3    H176217   1.006   2.517   1.188  1.5973 -0.7917  0.1121
18242TIP3    H276218   1.035   2.666   1.178 -0.6980 -0.2283  1.4355
18243TIP3   OH276219   5.931   2.793   4.410  0.3782 -0.3541  0.4643
18243TIP3    H176220   5.892   2.801   4.498 -0.3669  0.8812  0.0322
18243TIP3    H276221   6.003   2.730   4.422 -0.6533 -1.3516  1.6387
18244TIP3   OH276222   5.563   3.395   5.155  0.3466 -0.1120  0.1690
18244TIP3    H176223   5.520   3.354   5.230  2.3953  0.5047  1.7279
18244TIP3    H276224   5.531   3.485   5.155  1.6447  0.3573  1.3525
18245TIP3   OH276225   4.423   5.464  14.258  0.2439 -0.1060  0.0253
18245TIP3    H176226   4.438   5.540  14.203  3.0382  0.8915  2.0524
18245TIP3    H276227   4.450   5.389  14.204 -0.2489  0.5544 -1.1335
18246TIP3   OH276228   0.686   4.701   3.038  0.1017 -0.0147  0.2365
18246TIP3    H176229   0.756   4.701   2.972 -0.3977  2.7876 -0.3330
18246TIP3    H276230   0.731   4.720   3.121 -0.0957  3.1155 -0.3226
18247TIP3   OH276231   3.631   6.605  12.744  0.3480 -0.0653  0.5600
18247TIP3    H176232   3.713   6.655  12.751  1.1012 -1.3643  1.3515
18247TIP3    H276233   3.652   6.535  12.683 -0.1517 -0.4587  0.8439
18248TIP3   OH276234   2.530   1.789   6.312  0.7822  0.1208 -0.4722
18248TIP3    H176235   2.557   1.878   6.337  0.5025 -0.2429  1.1262
18248TIP3    H276236   2.545   1.736   6.390 -0.0021 -1.0516 -1.1067
18249TIP3   OH276237   4.560   3.105  10.734 -0.1230  0.1184  0.0839
18249TIP3    H176238   4.635   3.063  10.777 -1.4896 -0.7250  1.6933
18249TIP3    H276239   4.580   3.099  10.640  1.0972 -1.4896  0.4222
18250TIP3   OH276240   3.035   4.528   3.134 -0.4930  0.4777 -0.9841
18250TIP3    H176241   3.047   4.618   3.103 -0.5796  0.9712  0.3957
18250TIP3    H276242   2.989   4.485   3.062 -0.9908  1.6943 -1.4221
18251TIP3   OH276243   3.411   3.880  10.711  0.6157 -0.3480  1.2040
18251TIP3    H176244   3.405   3.976  10.716  0.3046 -0.3812  1.4522
18251TIP3    H276245   3.321   3.851  10.697  0.4293 -0.7235  3.0851
18252TIP3   OH276246   4.722   2.220  12.913  0.4500 -0.6050 -0.2196
18252TIP3    H176247   4.713   2.177  12.998  1.2856 -0.9436 -0.2978
18252TIP3    H276248   4.732   2.313  12.934  2.0846 -0.8442  0.1408
18253TIP3   OH276249   5.790   2.015   1.781  0.2132 -0.3314 -0.6388
18253TIP3    H176250   5.830   2.034   1.696 -0.2422  1.6590 -0.4252
18253TIP3    H276251   5.859   1.972   1.831  1.2880  0.7815 -1.1456
18254TIP3   OH276252   5.347   3.462  12.484  0.3657  0.0350  0.6626
18254TIP3    H176253   5.431   3.417  12.477  1.4738  2.0378  0.6139
18254TIP3    H276254   5.310   3.458  12.396  0.0019 -1.5684  0.8689
18255TIP3   OH276255   5.621   4.492   0.748 -0.4249 -0.0739 -0.2179
18255TIP3    H176256   5.632   4.471   0.655  0.5501 -1.6258  0.2322
18255TIP3    H276257   5.687   4.559   0.765  1.1509 -1.6170 -0.0706
18256TIP3   OH276258   1.525   5.864   3.855 -0.3699  0.3698 -0.0613
18256TIP3    H176259   1.601   5.901   3.811  0.6380  0.7873  1.9816
18256TIP3    H276260   1.510   5.920   3.931 -2.7494  0.3203 -0.4272
18257TIP3   OH276261   5.504   0.976  15.887  0.1346 -0.1435  0.1488
18257TIP3    H176262   5.448   0.900  15.873  0.3071 -0.2893  0.2512
18257TIP3    H276263   5.486   1.033  15.812  1.2511 -1.0350 -0.8160
18258TIP3   OH276264   1.640   5.152   3.549  0.0168 -0.0653 -0.3111
18258TIP3    H176265   1.668   5.203   3.625  0.9513 -0.6623 -0.2465
18258TIP3    H276266   1.721   5.122   3.509 -0.5162 -1.5856 -0.2847
18259TIP3   OH276267   4.298   5.723  15.965 -0.4654  0.6862  0.4312
18259TIP3    H176268   4.285   5.695  16.056  1.1970 -0.3133  0.3841
18259TIP3    H276269   4.344   5.650  15.924 -1.7983  0.8514 -1.4057
18260TIP3   OH276270   0.532   5.169   4.768  0.3959 -0.0593 -0.2801
18260TIP3    H176271   0.500   5.189   4.856  0.5226  2.1713 -0.7006
18260TIP3    H276272   0.626   5.156   4.778  0.0588 -2.2334  0.2696
18261TIP3   OH276273   2.603   2.602  12.959 -0.5379  0.5743  0.1404
18261TIP3    H176274   2.663   2.558  13.020 -0.6101  0.2882  0.0048
18261TIP3    H276275   2.516   2.588  12.996 -0.6537 -0.2375 -0.4160
18262TIP3   OH276276   5.994   3.462  16.465 -0.2029 -0.2331 -0.3682
18262TIP3    H176277   5.934   3.406  16.513  0.8157  0.3087  1.5913
18262TIP3    H276278   5.937   3.520  16.414 -1.2834 -1.4015 -0.5018
18263TIP3   OH276279   6.340   3.735   6.682  0.1317  0.3187 -0.6017
18263TIP3    H176280   6.400   3.780   6.623  1.3624 -0.0563  0.3502
18263TIP3    H276281   6.276   3.801   6.705 -0.7739  0.2934 -2.8792
18264TIP3   OH276282   5.495   6.297   3.704  0.3923  0.2407  0.1949
18264TIP3    H176283   5.461   6.278   3.617  1.0590 -1.0101  0.1868
18264TIP3    H276284   5.418   6.317   3.757 -0.3237 -1.9019  0.0217
18265TIP3   OH276285   1.475   1.846   5.976 -0.2062 -0.0481  0.2300
18265TIP3    H176286   1.416   1.897   6.031 -2.1412 -1.7448 -0.1966
18265TIP3    H276287   1.480   1.894   5.893 -1.7527 -0.3445 -0.0514
18266TIP3   OH276288   3.582   5.404   4.702 -0.4398  0.0619  0.4421
18266TIP3    H176289   3.511   5.390   4.640 -0.5922  2.0398  0.1295
18266TIP3    H276290   3.647   5.455   4.653 -0.4247  1.3613  1.7709
18267TIP3   OH276291   2.608   0.173   0.987 -0.0574 -0.4907 -0.0903
18267TIP3    H176292   2.514   0.190   0.974  0.5610  2.1816 -1.4736
18267TIP3    H276293   2.619   0.174   1.082 -1.4605 -0.9802  0.0936
18268TIP3   OH276294   5.645   2.072  14.391  0.1096  0.2871 -0.0355
18268TIP3    H176295   5.735   2.096  14.417  0.2996  0.2617 -0.6755
18268TIP3    H276296   5.593   2.150  14.411 -0.3268 -0.7718  3.3997
18269TIP3   OH276297   4.751   5.130   2.802 -0.3656  0.2596 -0.0857
18269TIP3    H176298   4.802   5.050   2.797 -1.0919 -0.1617 -0.7734
18269TIP3    H276299   4.660   5.102   2.795 -0.6603  1.0687  0.4265
18270TIP3   OH276300   0.293   4.710   5.500  0.0199 -0.3639  0.3054
18270TIP3    H176301   0.265   4.746   5.416  1.4698 -2.2807 -1.0657
18270TIP3    H276302   0.386   4.692   5.488  0.2332 -0.6691  2.3268
18271TIP3   OH276303   3.630   5.107  12.605  0.4787 -0.2176 -0.4804
18271TIP3    H176304   3.691   5.180  12.589  0.9585 -0.3661  0.6160
18271TIP3    H276305   3.687   5.034  12.628 -0.1570 -0.1044  1.5043
18272TIP3   OH276306   5.056   3.423  14.329  0.1703  0.0174 -0.4218
18272TIP3    H176307   5.065   3.342  14.279  1.8252 -2.0094  3.0164
18272TIP3    H276308   5.132   3.475  14.305  0.8218 -0.8276 -0.1837
18273TIP3   OH276309   5.521   2.301  17.229  0.7837 -0.0983 -0.0511
18273TIP3    H176310   5.507   2.396  17.236 -0.0104 -0.0501 -2.1453
18273TIP3    H276311   5.601   2.286  17.280  1.5474  1.8721 -0.6080
18274TIP3   OH276312   2.742   6.286   2.885 -0.1915 -0.2090 -0.5327
18274TIP3    H176313   2.700   6.288   2.971 -1.5243 -0.6943 -1.1455
18274TIP3    H276314   2.817   6.345   2.893 -0.0605 -0.5714  1.0721
18275TIP3   OH276315   4.674   5.891  11.526 -0.2438  0.8026 -0.1563
18275TIP3    H176316   4.616   5.860  11.456  0.5106  1.3360 -1.0254
18275TIP3    H276317   4.619   5.950  11.577 -0.2953  1.8187 -1.3614
18276TIP3   OH276318   0.623   2.000   0.995 -0.0583  0.3374  0.2420
18276TIP3    H176319   0.573   2.081   0.986 -0.6019  0.2050  1.7865
18276TIP3    H276320   0.657   1.982   0.908 -2.8508  0.3752 -0.9284
18277TIP3   OH276321   4.103   4.935  13.646 -0.0946 -0.0132  0.1210
18277TIP3    H176322   4.038   4.982  13.594 -1.2461 -0.7984  0.8272
18277TIP3    H276323   4.154   5.004  13.689 -1.4772  0.5978  0.8000
18278TIP3   OH276324   4.881   5.143   5.983 -0.6006 -0.5755  0.0950
18278TIP3    H176325   4.809   5.081   5.970 -1.3594 -0.0171  1.4786
18278TIP3    H276326   4.888   5.152   6.078  1.0120 -0.2774 -0.0376
18279TIP3   OH276327   3.774   1.508   3.094  0.1205  0.3676 -0.2937
18279TIP3    H176328   3.743   1.461   3.171  0.3468 -1.3948 -1.2481
18279TIP3    H276329   3.851   1.557   3.125 -0.6418  0.8305  0.9090
18280TIP3   OH276330   4.112   4.478  15.232  0.1673  0.0600  0.9981
18280TIP3    H176331   4.030   4.509  15.270 -0.5046 -1.2679  0.6616
18280TIP3    H276332   4.147   4.553  15.184 -1.2233  0.4228  0.5481
18281TIP3   OH276333   3.113   6.321  13.757 -0.3132 -0.1420  0.0230
18281TIP3    H176334   3.186   6.372  13.722 -0.9706 -0.2776 -1.5950
18281TIP3    H276335   3.042   6.384  13.768 -0.3077 -0.2191  0.4892
18282TIP3   OH276336   2.433   4.135  12.054  0.4540  0.8159 -0.0552
18282TIP3    H176337   2.339   4.149  12.050  0.1964 -0.1916  1.9491
18282TIP3    H276338   2.466   4.208  12.107  0.7696  0.9440 -0.4183
18283TIP3   OH276339   1.902   2.990   0.267  0.3996  0.0443  0.6870
18283TIP3    H176340   1.966   2.922   0.247  1.0531  0.6836  0.6244
18283TIP3    H276341   1.863   2.962   0.349  0.7497 -0.3500  0.7197
18284TIP3   OH276342   2.419   0.839   2.698  0.0039  0.3323  0.5544
18284TIP3    H176343   2.513   0.827   2.690 -0.0251  0.8836 -0.9928
18284TIP3    H276344   2.404   0.930   2.672 -1.2361 -0.5953 -2.2553
18285TIP3   OH276345   4.498   0.032   4.611 -0.3697  0.0534  0.2702
18285TIP3    H176346   4.431   0.098   4.591  0.6885  0.9860 -0.2122
18285TIP3    H276347   4.547   0.021   4.530 -0.7662 -1.6306  0.2334
18286TIP3   OH276348   6.316   0.360   2.192  0.0632  0.0623 -0.0890
18286TIP3    H176349   6.306   0.402   2.107 -0.1091 -0.9263 -0.5581
18286TIP3    H276350   6.229   0.326   2.213 -0.1435  1.1813  0.9615
18287TIP3   OH276351   2.084   0.245   0.247 -0.5921  0.2674 -0.4386
18287TIP3    H176352   2.123   0.265   0.162  1.2701 -1.6510 -0.0792
18287TIP3    H276353   2.039   0.162   0.234 -1.2147  0.5057  0.1711
18288TIP3   OH276354   0.131   6.123  15.205  0.3296  0.0068  0.3133
18288TIP3    H176355   0.106   6.087  15.120  0.3473 -1.7557  1.0466
18288TIP3    H276356   0.049   6.154  15.244  0.4513  1.7290 -0.7411
18289TIP3   OH276357   3.380   0.601  13.515 -0.2007  0.6645 -0.0451
18289TIP3    H176358   3.380   0.598  13.610  1.2746  0.6633 -0.0368
18289TIP3    H276359   3.290   0.624  13.491 -1.2446 -1.8691  1.2632
18290TIP3   OH276360   4.743   5.416   2.658 -0.6298  0.1685 -0.3846
18290TIP3    H176361   4.778   5.495   2.699 -2.7139  1.0211 -0.1619
18290TIP3    H276362   4.780   5.344   2.708  0.1868  1.0606  0.3046
18291TIP3   OH276363   5.979   1.960  14.624  0.2359  0.1977  0.1557
18291TIP3    H176364   5.933   2.031  14.668  0.0494 -0.0414  0.3476
18291TIP3    H276365   5.999   1.994  14.536 -1.4307 -0.1530 -0.3718
18292TIP3   OH276366   2.760   4.877  14.657 -0.5873 -0.2560  0.4025
18292TIP3    H176367   2.735   4.905  14.745 -0.0149  1.3125  0.0920
18292TIP3    H276368   2.855   4.892  14.653 -0.8243  1.0347 -0.9311
18293TIP3   OH276369   6.516   3.887   0.989 -0.2089 -0.4571 -0.4062
18293TIP3    H176370   6.504   3.969   0.941  1.5794 -0.2448 -0.5034
18293TIP3    H276371   6.430   3.846   0.987 -1.3212  1.7413  0.2415
18294TIP3   OH276372   0.994   3.057  17.211 -0.1897  0.1479 -0.1529
18294TIP3    H176373   1.070   3.004  17.234 -1.0723 -1.2083 -0.3414
18294TIP3    H276374   0.922   3.022  17.262 -1.4004 -0.6782 -2.3390
18295TIP3   OH276375   6.077   1.455  15.063 -0.5135  0.4340 -0.0173
18295TIP3    H176376   6.058   1.393  14.992 -0.9004 -0.4739  0.8746
18295TIP3    H276377   6.042   1.413  15.141 -0.3629  1.5781  0.6671
18296TIP3   OH276378   3.178   5.883  14.175 -0.1444 -1.3804  0.0670
18296TIP3    H176379   3.086   5.894  14.153  0.0932  0.8901  0.0281
18296TIP3    H276380   3.180   5.888  14.271 -0.1033 -1.8795  0.0949
18297TIP3   OH276381   3.016   3.741  14.051 -0.9132 -0.0860  0.6066
18297TIP3    H176382   2.963   3.800  14.105 -3.1365 -0.4084 -1.1543
18297TIP3    H276383   3.055   3.798  13.985  1.2056  0.1937  2.0684
18298TIP3   OH276384   6.662   6.598  13.657 -0.9636 -0.0228 -0.3093
18298TIP3    H176385   6.604   6.527  13.632 -1.3290  0.1741 -0.0248
18298TIP3    H276386   6.700   6.571  13.740  0.6400 -0.9040 -1.3061
18299TIP3   OH276387   5.991   3.301  14.804  0.1115 -0.4930  0.2180
18299TIP3    H176388   6.058   3.302  14.873 -0.0587 -2.0986  0.4223
18299TIP3    H276389   5.910   3.279  14.850 -0.4005  0.5211 -0.1771
18300TIP3   OH276390   3.549   5.623  16.543  0.1853 -0.4608 -0.4118
18300TIP3    H176391   3.585   5.656  16.625  0.0890 -1.4209  0.0250
18300TIP3    H276392   3.454   5.626  16.556  0.1744 -0.8218 -0.3978
18301TIP3   OH276393   4.033   2.118   6.323 -0.1502  0.1136 -0.4385
18301TIP3    H176394   3.973   2.052   6.357 -0.7203  0.4449 -0.7813
18301TIP3    H276395   4.115   2.104   6.371 -0.6688  0.0139  0.4322
18302TIP3   OH276396   4.360   6.771  17.037  0.3246 -0.4208 -0.3649
18302TIP3    H176397   4.450   6.762  17.006  0.7993 -1.8218  1.2840
18302TIP3    H276398   4.370   6.803  17.127 -0.8255 -0.6689 -0.1522
18303TIP3   OH276399   3.253   1.500  15.238  0.3182 -0.0266 -0.5653
18303TIP3    H176400   3.312   1.564  15.198  0.0805 -0.1433 -1.1154
18303TIP3    H276401   3.206   1.461  15.164  0.7109 -1.0862 -0.2741
18304TIP3   OH276402   6.817   4.764  17.053  0.5309  0.1871  0.4946
18304TIP3    H176403   6.796   4.830  16.986  0.1117  0.1463  0.5825
18304TIP3    H276404   6.826   4.815  17.134  0.8791  0.2166  0.4351
18305TIP3   OH276405   4.341   6.747  11.765  0.0875 -0.1886 -0.0829
18305TIP3    H176406   4.326   6.760  11.859  2.0738 -0.2466  0.2764
18305TIP3    H276407   4.415   6.804  11.745  0.2508 -0.8499 -1.4224
18306TIP3   OH276408   1.511   4.586   6.336  0.2414  0.1116  0.0779
18306TIP3    H176409   1.561   4.541   6.268 -3.4462 -1.6014 -1.6597
18306TIP3    H276410   1.481   4.667   6.294 -1.1651 -0.4565 -0.0508
18307TIP3   OH276411   1.309   5.310  15.558 -0.5105  0.3399 -0.0550
18307TIP3    H176412   1.282   5.288  15.468 -1.1981  0.2646  0.1657
18307TIP3    H276413   1.245   5.375  15.587 -1.8447 -1.5234  1.2988
18308TIP3   OH276414   6.745   5.421  12.462  0.5344  0.2040  0.0906
18308TIP3    H176415   6.817   5.482  12.479  1.8354 -1.3709  0.3524
18308TIP3    H276416   6.783   5.354  12.405 -0.5025 -1.0671  0.8517
18309TIP3   OH276417   2.361   2.628  13.344  0.1034 -0.2157 -0.8042
18309TIP3    H176418   2.402   2.687  13.406  0.8602 -0.2456 -1.2732
18309TIP3    H276419   2.270   2.658  13.339  0.4144  0.7312 -0.8239
18310TIP3   OH276420   1.495   0.110   5.234 -0.2927  0.6306  0.4698
18310TIP3    H176421   1.486   0.027   5.187 -1.1325  1.9117 -1.7723
18310TIP3    H276422   1.414   0.117   5.285 -0.3402  0.1953  0.4583
18311TIP3   OH276423   4.097   5.159   3.110 -0.1635  0.6178  0.3130
18311TIP3    H176424   4.170   5.124   3.058  0.8069  0.1873  1.9402
18311TIP3    H276425   4.080   5.246   3.072 -0.0496 -0.0346 -1.2684
18312TIP3   OH276426   2.427   4.478   3.587  0.0871  0.2150 -0.3668
18312TIP3    H176427   2.375   4.558   3.579 -1.9027 -1.1452 -1.3533
18312TIP3    H276428   2.518   4.508   3.577 -0.5814  2.4084 -0.2106
18313TIP3   OH276429   4.022   2.979  12.622  0.1342 -0.2451  0.4170
18313TIP3    H176430   4.096   2.919  12.616 -1.3053 -2.3539  2.7774
18313TIP3    H276431   3.956   2.941  12.564 -0.3863 -0.4058  1.0978
18314TIP3   OH276432   2.307   0.684   3.709 -0.1029  0.1272 -0.0963
18314TIP3    H176433   2.368   0.622   3.669 -1.2810 -0.1554 -1.4960
18314TIP3    H276434   2.359   0.763   3.722  0.2065  0.3759 -2.6140
18315TIP3   OH276435   3.134   4.888   0.037  0.3877  0.1676  0.3893
18315TIP3    H176436   3.078   4.864   0.110  0.2384  0.8730  0.5015
18315TIP3    H276437   3.187   4.960   0.069  1.2060 -0.3389  0.2104
18316TIP3   OH276438   1.503   3.201  13.565  0.5065  0.5512 -0.0320
18316TIP3    H176439   1.563   3.147  13.513  1.5903 -0.7830  2.5309
18316TIP3    H276440   1.418   3.159  13.555  1.1946 -1.2095  1.2912
18317TIP3   OH276441   3.689   6.759   3.808  0.6642 -0.3163 -0.2793
18317TIP3    H176442   3.637   6.690   3.768 -1.6809  1.2209  0.0301
18317TIP3    H276443   3.632   6.796   3.876  1.3179  2.8147 -1.3458
18318TIP3   OH276444   3.445   6.788  10.999 -0.9444  0.4623  0.0491
18318TIP3    H176445   3.529   6.742  11.001  0.1518  2.3001 -1.8974
18318TIP3    H276446   3.393   6.744  11.067  0.7486 -2.2497 -0.2972
18319TIP3   OH276447   2.790   5.519  12.021  0.1740 -0.0561  0.1147
18319TIP3    H176448   2.836   5.469  11.955  0.3000  0.1573  0.0393
18319TIP3    H276449   2.718   5.462  12.049 -0.4311  0.2154 -0.8616
18320TIP3   OH276450   6.045   0.614  14.114  0.1661  0.1134  0.4789
18320TIP3    H176451   6.057   0.645  14.024 -0.5814  0.2160  0.4165
18320TIP3    H276452   6.134   0.593  14.143  0.3156 -0.8849 -0.6329
18321TIP3   OH276453   3.681   5.899   5.707 -0.2109  0.5422 -0.6356
18321TIP3    H176454   3.671   5.958   5.782  0.9650  0.5329 -0.4630
18321TIP3    H276455   3.653   5.814   5.740  0.4387  0.5076 -0.1556
18322TIP3   OH276456   1.353   6.802  13.128  0.0090 -0.2724 -0.0873
18322TIP3    H176457   1.326   6.814  13.037  0.3431 -4.7197 -0.8808
18322TIP3    H276458   1.272   6.808  13.178 -0.3754  0.7962 -0.8228
18323TIP3   OH276459   3.750   6.596   0.797 -0.2452 -0.1996 -0.1079
18323TIP3    H176460   3.709   6.569   0.880 -0.1289  0.6784  0.2362
18323TIP3    H276461   3.686   6.572   0.730 -0.4905 -0.5895  0.2632
18324TIP3   OH276462   1.500   2.079   6.404 -0.1857  0.1039 -0.2333
18324TIP3    H176463   1.475   1.986   6.403 -0.3001  0.1352 -0.2970
18324TIP3    H276464   1.575   2.084   6.345  0.7834 -0.2170  0.9282
18325TIP3   OH276465   3.226   0.519  16.778  0.7487 -0.9154 -0.0538
18325TIP3    H176466   3.288   0.583  16.743  1.0893 -1.6446 -0.8149
18325TIP3    H276467   3.152   0.524  16.718 -0.6158  1.0493  1.7218
18326TIP3   OH276468   6.465   4.200   1.057 -0.2569 -0.2844  0.2603
18326TIP3    H176469   6.526   4.177   1.127 -0.0145 -1.1611 -0.2397
18326TIP3    H276470   6.380   4.172   1.090 -0.3277  0.4495  0.7283
18327TIP3   OH276471   3.441   3.191   4.634  0.4370  0.2263  0.3875
18327TIP3    H176472   3.501   3.258   4.667  0.0202  1.1209 -0.6542
18327TIP3    H276473   3.499   3.123   4.599  0.8676 -0.2476  1.9467
18328TIP3   OH276474   0.147   2.756   5.583  0.3486 -0.4756 -0.3373
18328TIP3    H176475   0.071   2.804   5.617  0.5310  0.2283 -0.9042
18328TIP3    H276476   0.176   2.702   5.656 -0.8027 -0.8762 -0.1672
18329TIP3   OH276477   2.537   6.419   4.839  0.2438 -0.8721  0.0221
18329TIP3    H176478   2.479   6.383   4.772 -0.8513  1.2366 -0.2151
18329TIP3    H276479   2.624   6.386   4.816 -0.2392 -0.8344 -1.9870
18330TIP3   OH276480   1.996   4.413  11.756 -0.1845 -0.5673  0.4637
18330TIP3    H176481   1.983   4.429  11.662 -3.0077  0.4501  0.9880
18330TIP3    H276482   2.087   4.384  11.763  1.4320  3.5061 -2.0647
18331TIP3   OH276483   1.520   0.654  14.347  0.1112  0.5520 -0.5906
18331TIP3    H176484   1.544   0.727  14.290 -1.3069  1.9204  0.5231
18331TIP3    H276485   1.495   0.695  14.429 -0.4985 -1.2206  0.1334
18332TIP3   OH276486   6.456   4.768   3.968  0.2638  0.2534 -0.1308
18332TIP3    H176487   6.528   4.829   3.985  1.3197 -0.5443 -1.5597
18332TIP3    H276488   6.499   4.685   3.948 -1.0379 -0.1047 -1.5554
18333TIP3   OH276489   1.819   1.328   2.464 -0.5680 -0.0864  0.2748
18333TIP3    H176490   1.803   1.322   2.558 -0.0076 -0.0863  0.3741
18333TIP3    H276491   1.839   1.421   2.449 -1.4103  0.0563  0.0322
18334TIP3   OH276492   5.131   3.916  12.096 -0.0414 -0.3592  0.2264
18334TIP3    H176493   5.092   3.834  12.067  0.3969  0.0067 -1.4593
18334TIP3    H276494   5.189   3.942  12.024  0.6138  0.8943  1.1797
18335TIP3   OH276495   1.239   2.679   4.432  0.5111  0.2112  0.2141
18335TIP3    H176496   1.263   2.692   4.340  1.4320  1.7283  0.6550
18335TIP3    H276497   1.167   2.740   4.447 -0.4051 -0.8400  0.2241
18336TIP3   OH276498   3.988   4.512  11.691 -0.5551  0.4656 -0.0856
18336TIP3    H176499   3.995   4.580  11.624  1.3568  0.1969 -0.1990
18336TIP3    H276500   4.044   4.542  11.763 -2.5566  0.7284  1.3968
18337TIP3   OH276501   4.510   3.822  13.252 -0.2841 -0.1098 -0.1118
18337TIP3    H176502   4.430   3.839  13.204  0.7176  1.4703 -1.2618
18337TIP3    H276503   4.578   3.870  13.205  0.7471  1.5322  2.8502
18338TIP3   OH276504   2.102   6.241   1.778  0.2726  0.1471 -0.1775
18338TIP3    H176505   2.133   6.169   1.722  2.6843 -0.7126  2.1718
18338TIP3    H276506   2.072   6.198   1.858 -1.8398  1.4821 -0.2088
18339TIP3   OH276507   1.990   3.230   6.002 -0.1652  0.5418  0.0751
18339TIP3    H176508   1.981   3.141   6.033 -0.9750  0.5387 -0.1542
18339TIP3    H276509   1.926   3.280   6.053 -0.3388  0.8260 -0.4146
18340TIP3   OH276510   1.334   6.807  14.312 -0.2852  0.0382 -0.1881
18340TIP3    H176511   1.262   6.783  14.370 -0.8407  0.2228 -0.7983
18340TIP3    H276512   1.328   6.902  14.304  0.7161  0.1837  0.6559
18341TIP3   OH276513   3.223   5.823  10.304 -0.6945 -0.6015  0.3361
18341TIP3    H176514   3.164   5.880  10.353 -0.2164 -0.6588  0.9967
18341TIP3    H276515   3.186   5.735  10.315 -1.3196 -0.4433 -0.5128
18342TIP3   OH276516   5.439   2.957   4.904  0.2256 -0.2793 -0.4597
18342TIP3    H176517   5.484   3.029   4.859 -0.8509  0.3796 -0.5123
18342TIP3    H276518   5.398   2.907   4.833 -0.8104  0.3012 -0.2835
18343TIP3   OH276519   4.513   4.917   4.383 -0.0720 -0.6070  0.1894
18343TIP3    H176520   4.586   4.938   4.441  0.9703 -0.9453 -0.9839
18343TIP3    H276521   4.435   4.940   4.433  0.7442 -2.3233  2.3332
18344TIP3   OH276522   5.456   5.071  12.446  0.0070 -0.1702 -0.0946
18344TIP3    H176523   5.372   5.070  12.399 -0.7322 -0.0912  1.2095
18344TIP3    H276524   5.511   5.130  12.394 -1.1105  0.7064 -0.3233
18345TIP3   OH276525   6.306   6.277   6.111 -0.6370  0.0388 -0.6172
18345TIP3    H176526   6.360   6.208   6.149  0.8936  0.6163 -1.6835
18345TIP3    H276527   6.313   6.263   6.016 -1.5098  0.7577 -0.7895
18346TIP3   OH276528   4.747   3.931   2.046  0.2768 -0.0649  0.2720
18346TIP3    H176529   4.731   3.883   1.964  1.5790  0.3559 -0.2364
18346TIP3    H276530   4.814   3.995   2.024  1.3196 -0.5577  1.8931
18347TIP3   OH276531   4.028   0.365  11.750  0.1928  0.1855  0.5320
18347TIP3    H176532   3.981   0.408  11.821 -0.0779  1.0476 -0.1585
18347TIP3    H276533   4.087   0.304  11.794 -0.1048  0.5748  1.4885
18348TIP3   OH276534   1.780   5.175  14.210 -0.2212 -0.5363 -0.3269
18348TIP3    H176535   1.709   5.192  14.272 -0.3785 -3.7592  0.4797
18348TIP3    H276536   1.858   5.211  14.253 -0.8829  0.3611  0.1504
18349TIP3   OH276537   1.778   4.592  14.600  0.0140  0.3138  0.1230
18349TIP3    H176538   1.815   4.593  14.689  1.3470  1.0328 -0.4234
18349TIP3    H276539   1.689   4.625  14.611 -0.0048 -0.0935  1.2646
18350TIP3   OH276540   5.079   1.927   3.236 -0.1059 -0.1731  0.1928
18350TIP3    H176541   5.166   1.887   3.227  0.5964  1.0501  1.3206
18350TIP3    H276542   5.094   2.020   3.219 -1.2875 -0.0191 -0.0480
18351TIP3   OH276543   4.489   1.494   4.221  0.1675  0.0429 -0.4394
18351TIP3    H176544   4.498   1.470   4.129  1.3325  0.1987 -0.3783
18351TIP3    H276545   4.529   1.421   4.268 -1.8641 -0.8137  0.0378
18352TIP3   OH276546   6.810   3.710  14.964  0.0246  0.4472 -0.1800
18352TIP3    H176547   6.867   3.783  14.988  0.9234  0.2973 -1.7873
18352TIP3    H276548   6.868   3.648  14.920 -0.6201 -1.4960  1.6397
18353TIP3   OH276549   5.279   4.788  16.236  0.3449 -0.3267 -0.0951
18353TIP3    H176550   5.315   4.870  16.270 -2.4719  0.4950  1.0248
18353TIP3    H276551   5.286   4.726  16.309 -1.9803  0.3128  0.7175
18354TIP3   OH276552   0.235   4.641   5.227  0.1131 -0.0570 -0.1890
18354TIP3    H176553   0.215   4.729   5.195  0.1690 -0.0729 -0.2703
18354TIP3    H276554   0.291   4.604   5.158  1.1106  0.2853  0.4189
18355TIP3   OH276555   3.383   2.516   4.360 -0.0264  0.2803  0.4249
18355TIP3    H176556   3.381   2.421   4.367  0.1390  0.3285  1.1578
18355TIP3    H276557   3.476   2.539   4.362  0.0625  0.3166 -1.9275
18356TIP3   OH276558   1.631   1.006   2.605 -0.2971  0.0155  0.0348
18356TIP3    H176559   1.556   1.019   2.547 -0.9526 -1.2824  0.5866
18356TIP3    H276560   1.600   0.945   2.672  0.9340  0.2744  0.8651
18357TIP3   OH276561   2.255   4.350  12.317 -0.0492  0.6921  0.0637
18357TIP3    H176562   2.183   4.407  12.346  0.0783 -0.0013  1.8220
18357TIP3    H276563   2.214   4.264  12.304  0.7769 -0.2013  3.0109
18358TIP3   OH276564   1.810   2.461  15.949  0.0436 -0.4111  0.0148
18358TIP3    H176565   1.774   2.447  15.861 -1.2777  1.4110  0.2384
18358TIP3    H276566   1.741   2.507  15.996  1.2533 -0.1986  1.6031
18359TIP3   OH276567   4.855   0.268  15.194 -0.2141  0.3868  0.3392
18359TIP3    H176568   4.892   0.216  15.266 -0.1779 -0.1506 -0.0599
18359TIP3    H276569   4.760   0.260  15.205 -0.2101  0.9846  0.8064
18360TIP3   OH276570   1.360   2.259  14.968 -0.3623 -0.0737 -0.4006
18360TIP3    H176571   1.389   2.306  15.046 -0.8357 -1.6591  0.7582
18360TIP3    H276572   1.265   2.256  14.975 -0.3759 -0.6682 -0.7780
18361TIP3   OH276573   4.729   1.264   6.151  0.0057  0.4558 -0.1465
18361TIP3    H176574   4.741   1.171   6.172 -0.5866  0.5619  0.6964
18361TIP3    H276575   4.727   1.267   6.055 -0.4296 -0.4591 -0.1734
18362TIP3   OH276576   4.663   1.951  10.354  0.2393  0.3395  0.3142
18362TIP3    H176577   4.736   2.012  10.367 -0.1599  0.5844  1.4418
18362TIP3    H276578   4.600   1.974  10.422 -1.4465  0.9114 -1.4098
18363TIP3   OH276579   5.351   5.755   5.411 -0.2172  0.0367 -0.1450
18363TIP3    H176580   5.269   5.721   5.376  0.2445  0.5596 -1.7578
18363TIP3    H276581   5.367   5.704   5.490 -1.5559 -0.7719 -0.3928
18364TIP3   OH276582   4.505   3.470  15.737  0.2942 -0.0747 -0.3988
18364TIP3    H176583   4.473   3.486  15.827 -0.8186  1.1976 -0.9973
18364TIP3    H276584   4.522   3.557  15.703  2.9765 -0.6734 -0.6481
18365TIP3   OH276585   1.478   3.796  12.724 -0.4740 -0.5421  0.2849
18365TIP3    H176586   1.436   3.731  12.667 -0.5720  0.5755 -0.9541
18365TIP3    H276587   1.449   3.881  12.690 -2.1794  0.1542  3.2937
18366TIP3   OH276588   5.924   3.784  14.126 -0.3156 -0.3349 -0.2501
18366TIP3    H176589   5.938   3.693  14.100 -0.1681 -0.4211  0.1320
18366TIP3    H276590   5.964   3.835  14.056  1.2385 -0.5758  0.4340
18367TIP3   OH276591   5.727   4.327  13.579  0.5733 -0.2980  0.0697
18367TIP3    H176592   5.792   4.257  13.584  0.4826 -0.3755  0.1590
18367TIP3    H276593   5.659   4.302  13.641  0.1527 -0.5327 -0.4779
18368TIP3   OH276594   2.504   2.418   0.690 -0.5348  0.4360  0.2951
18368TIP3    H176595   2.582   2.447   0.737 -0.9302  0.1749  1.1322
18368TIP3    H276596   2.444   2.493   0.695  0.2032  1.2059 -1.6579
18369TIP3   OH276597   2.105   1.633   4.056  0.4171 -0.4263  0.6044
18369TIP3    H176598   2.118   1.546   4.092  2.2529 -0.9821 -1.2739
18369TIP3    H276599   2.167   1.638   3.982  0.6444  2.5975  0.9263
18370TIP3   OH276600   4.674   5.300  13.048 -0.3487  0.1993  0.0458
18370TIP3    H176601   4.713   5.239  13.111  0.2948  1.5328  0.9370
18370TIP3    H276602   4.612   5.246  12.999 -0.6133 -0.9315  1.5900
18371TIP3   OH276603   3.443   4.408   3.186 -0.0813 -0.5843  0.2688
18371TIP3    H176604   3.351   4.408   3.159  0.0819 -0.4653 -0.2823
18371TIP3    H276605   3.442   4.370   3.274 -0.4663 -2.0453 -0.3611
18372TIP3   OH276606   1.822   1.690  14.992 -0.0259 -0.0042  0.0535
18372TIP3    H176607   1.734   1.663  14.963  0.3276  0.7483 -1.8229
18372TIP3    H276608   1.808   1.732  15.077 -1.2991 -1.0795  0.3915
18373TIP3   OH276609   6.322   0.382   5.872 -0.4777  0.4322 -0.0171
18373TIP3    H176610   6.342   0.450   5.936 -0.1406  1.1243 -0.8410
18373TIP3    H276611   6.281   0.312   5.922 -1.6888  1.6315  0.7062
18374TIP3   OH276612   3.234   0.790   3.571  0.9213  0.0917  0.4288
18374TIP3    H176613   3.205   0.849   3.502 -2.0879  2.5207  3.5975
18374TIP3    H276614   3.317   0.826   3.601  1.6158 -0.2699 -0.9821
18375TIP3   OH276615   5.723   6.738  13.641 -0.0345  0.2761  0.1299
18375TIP3    H176616   5.719   6.745  13.546  1.4060 -0.0149  0.0351
18375TIP3    H276617   5.647   6.787  13.672  0.5376  1.9734 -1.0983
18376TIP3   OH276618   2.365   0.055   5.475 -0.3235  0.0232  0.9241
18376TIP3    H176619   2.388   0.126   5.415 -4.0008  0.2859 -0.3037
18376TIP3    H276620   2.413  -0.021   5.443 -0.9866  0.5646 -1.4172
18377TIP3   OH276621   3.790   5.391  14.968 -0.1853 -0.4430 -0.6067
18377TIP3    H176622   3.815   5.299  14.973  0.5217 -0.1932  0.7727
18377TIP3    H276623   3.860   5.438  15.015 -0.1623  0.8645 -1.9008
18378TIP3   OH276624   6.743   2.562  15.661  0.2527  0.3506 -0.0363
18378TIP3    H176625   6.712   2.652  15.672 -0.1200  0.0503  1.5604
18378TIP3    H276626   6.668   2.515  15.625  0.8580  0.9428 -2.1049
18379TIP3   OH276627   0.184   4.271   2.810  0.0270 -0.2489  0.0191
18379TIP3    H176628   0.178   4.366   2.822 -0.5450  0.0387 -2.2093
18379TIP3    H276629   0.114   4.236   2.866 -2.7855  1.0083 -2.5346
18380TIP3   OH276630   6.606   1.406  13.439 -0.2766  0.2407  0.6280
18380TIP3    H176631   6.652   1.349  13.500 -1.6824 -0.1324  1.3731
18380TIP3    H276632   6.631   1.495  13.465 -0.9597  0.0919  1.8532
18381TIP3   OH276633   4.538   1.687   0.049  0.0970 -0.2409 -0.4005
18381TIP3    H176634   4.551   1.621   0.118 -2.2951 -0.8898 -0.5201
18381TIP3    H276635   4.585   1.764   0.081 -1.1519 -0.4590  2.0857
18382TIP3   OH276636   4.058   0.487  14.210 -0.0576  0.1607  0.1086
18382TIP3    H176637   3.982   0.490  14.151 -1.0173 -1.7218  1.1905
18382TIP3    H276638   4.041   0.556  14.275  0.0691  0.9546 -0.6883
18383TIP3   OH276639   2.835   5.399   1.629  0.2573  0.2845 -0.0950
18383TIP3    H176640   2.806   5.325   1.682  2.0475 -1.5949 -1.6770
18383TIP3    H276641   2.754   5.445   1.607 -1.0785 -2.1025 -0.3810
18384TIP3   OH276642   0.973   5.580   6.321 -0.2853  0.2533  0.1634
18384TIP3    H176643   0.995   5.611   6.233 -0.4665 -1.1009 -0.3623
18384TIP3    H276644   0.911   5.645   6.354 -1.9010 -0.3715 -1.5401
18385TIP3   OH276645   4.822   3.423  17.149 -0.4086  0.1721  0.2242
18385TIP3    H176646   4.746   3.373  17.178  0.4384 -1.1038  0.2812
18385TIP3    H276647   4.844   3.387  17.063  1.0016 -0.4804  0.8354
18386TIP3   OH276648   6.640   4.290  16.174 -0.4518  0.5135 -0.2461
18386TIP3    H176649   6.656   4.213  16.228 -0.5456  1.3387  0.9893
18386TIP3    H276650   6.578   4.262  16.108 -0.0623 -0.6101 -0.1364
18387TIP3   OH276651   6.296   4.789  11.667 -0.5712  0.1683 -0.4210
18387TIP3    H176652   6.364   4.846  11.631 -2.1190  1.6852 -1.0144
18387TIP3    H276653   6.312   4.704  11.625  2.0698 -0.0297  0.8566
18388TIP3   OH276654   4.283   3.810  14.236 -0.3463 -0.1312  1.3166
18388TIP3    H176655   4.283   3.724  14.279  0.9617 -0.9326 -0.2547
18388TIP3    H276656   4.228   3.798  14.159  2.6568 -0.5727 -0.8269
18389TIP3   OH276657   1.965   0.501   1.397 -0.3934  0.0175  0.1761
18389TIP3    H176658   2.053   0.511   1.433 -0.0255 -2.8047  0.1684
18389TIP3    H276659   1.979   0.490   1.303 -0.6802 -1.2682  0.2794
18390TIP3   OH276660   1.885   0.675  12.662  0.0475 -0.5245 -0.1668
18390TIP3    H176661   1.834   0.594  12.665 -0.8010 -0.0040 -0.6600
18390TIP3    H276662   1.897   0.699  12.754 -1.3711 -0.1488 -0.0815
18391TIP3   OH276663   3.256   3.911   1.908 -0.2359  0.1112 -0.8717
18391TIP3    H176664   3.235   3.870   1.824  2.8702 -1.6094 -0.8507
18391TIP3    H276665   3.271   4.003   1.885 -1.7425  0.1666 -1.7779
18392TIP3   OH276666   4.763   5.509   1.072  0.0088 -0.3002  0.6522
18392TIP3    H176667   4.780   5.539   1.161  1.1662  1.8897 -0.2936
18392TIP3    H276668   4.689   5.561   1.043  1.6618  1.2706 -0.7936
18393TIP3   OH276669   2.055   3.475  15.888 -0.2540 -0.8010  0.4205
18393TIP3    H176670   2.135   3.423  15.875  0.5637  0.7022 -0.7224
18393TIP3    H276671   2.056   3.539  15.817 -2.4389 -0.6859  0.4536
18394TIP3   OH276672   6.043   6.283   5.142  0.0400  0.2953 -0.1509
18394TIP3    H176673   6.020   6.240   5.224  0.2692  1.3044  0.4523
18394TIP3    H276674   6.123   6.332   5.162 -0.5464  1.4777 -0.6592
18395TIP3   OH276675   2.922   4.953   0.671  0.1980 -0.4637  0.3625
18395TIP3    H176676   2.935   5.043   0.700 -2.3574  0.2011 -0.4376
18395TIP3    H276677   2.864   4.915   0.737 -1.8194 -0.3484 -1.2863
18396TIP3   OH276678   5.069   3.673  16.280  0.0061  0.2003  0.4054
18396TIP3    H176679   5.005   3.744  16.266  0.0486  0.0381 -0.5852
18396TIP3    H276680   5.142   3.716  16.324  0.0417  0.7730 -0.2163
18397TIP3   OH276681   2.902   3.975  16.919 -0.1926 -0.4786  0.0874
18397TIP3    H176682   2.944   4.043  16.866  1.9049 -1.3373  0.5988
18397TIP3    H276683   2.832   4.021  16.965 -0.5090  0.7740 -1.5895
18398TIP3   OH276684   2.453   5.894   5.470 -0.4655  0.4689  0.3458
18398TIP3    H176685   2.469   5.979   5.511  1.8792 -0.5475  1.6394
18398TIP3    H276686   2.533   5.875   5.422 -0.0819 -1.9558  1.8462
18399TIP3   OH276687   0.474   0.646  12.094 -0.5310 -0.4171 -0.2235
18399TIP3    H176688   0.559   0.602  12.101 -0.5468 -0.0539  2.9195
18399TIP3    H276689   0.490   0.734  12.127 -2.2344 -0.5158  0.9156
18400TIP3   OH276690   1.931   1.857   3.384 -0.1495  0.1117  0.1792
18400TIP3    H176691   1.865   1.871   3.452  0.0139  0.4243  0.2738
18400TIP3    H276692   2.012   1.841   3.431 -0.2974 -1.0204  0.0687
18401TIP3   OH276693   1.994   3.051  12.101  0.1827 -0.2580 -0.4716
18401TIP3    H176694   1.999   3.106  12.179  0.8746  2.3669 -2.2713
18401TIP3    H276695   1.951   2.971  12.129  1.0773  0.3402  2.7386
18402TIP3   OH276696   6.136   0.986  12.696 -0.1017 -0.1313 -0.8476
18402TIP3    H176697   6.067   1.004  12.632 -0.3408  0.4517 -0.4281
18402TIP3    H276698   6.172   0.901  12.670 -1.3075 -0.6690 -0.7741
18403TIP3   OH276699   4.105   0.611   3.937 -0.0461 -0.0172  0.2218
18403TIP3    H176700   4.085   0.530   3.890 -2.0351 -0.5710  1.9248
18403TIP3    H276701   4.154   0.582   4.014  1.9513  0.7330 -0.7547
18404TIP3   OH276702   4.096   5.752  15.800 -0.7891  0.0871  0.5790
18404TIP3    H176703   4.063   5.662  15.791  0.6560 -0.4601  0.6629
18404TIP3    H276704   4.183   5.742  15.839 -0.4755  1.5139  0.2596
18405TIP3   OH276705   4.340   2.235  14.971  0.2576 -0.2835  0.3984
18405TIP3    H176706   4.358   2.226  14.877 -1.0055 -1.2649  0.2420
18405TIP3    H276707   4.314   2.327  14.981 -0.2589 -0.3395 -0.3425
18406TIP3   OH276708   6.248   5.108  14.556  0.4731  0.2260  0.0208
18406TIP3    H176709   6.257   5.175  14.489  0.0903 -1.0232 -1.3105
18406TIP3    H276710   6.182   5.142  14.616 -0.0008  0.8461 -0.8559
18407TIP3   OH276711   2.134   1.946   5.723  0.2885 -0.5168 -0.7937
18407TIP3    H176712   2.170   1.942   5.634  1.9170 -0.2181 -0.1638
18407TIP3    H276713   2.173   1.870   5.767  2.5721  1.4780  0.7604
18408TIP3   OH276714   4.552   0.029   5.330 -0.0738  0.1638  0.3867
18408TIP3    H176715   4.565   0.029   5.425 -0.6950 -0.7095  0.4764
18408TIP3    H276716   4.528   0.120   5.310  2.1955  0.8674  0.7514
18409TIP3   OH276717   0.588   4.404   6.607 -0.3836  0.7409 -0.3371
18409TIP3    H176718   0.505   4.407   6.655 -1.1057 -1.6957 -1.3646
18409TIP3    H276719   0.649   4.365   6.669 -0.8111 -0.4778 -0.6683
18410TIP3   OH276720   3.547   2.639  10.813  0.2954 -0.2004  0.3300
18410TIP3    H176721   3.476   2.678  10.763  0.3583 -2.2923 -1.4677
18410TIP3    H276722   3.545   2.547  10.790  3.2226 -0.4091  0.6928
18411TIP3   OH276723   6.343   6.413  16.106 -0.1870  0.6426 -0.9526
18411TIP3    H176724   6.299   6.331  16.084 -0.3120  0.6019 -0.5543
18411TIP3    H276725   6.280   6.481  16.081 -0.1280  0.6109 -1.1842
18412TIP3   OH276726   6.531   4.747  15.689 -0.0853 -0.1104  0.3794
18412TIP3    H176727   6.458   4.776  15.635 -0.3158 -2.9769 -0.9317
18412TIP3    H276728   6.497   4.670  15.735  0.8730  0.8779  2.8624
18413TIP3   OH276729   3.633   5.876   1.623  0.7370  0.4514  0.6610
18413TIP3    H176730   3.683   5.897   1.544 -0.1380 -1.5402 -0.4450
18413TIP3    H276731   3.566   5.815   1.593  0.3706 -0.3002  2.9509
18414TIP3   OH276732   3.529   1.931   0.419  0.4377 -0.0641  0.2117
18414TIP3    H176733   3.608   1.879   0.435  0.0031 -0.0328  2.6527
18414TIP3    H276734   3.470   1.908   0.491 -1.8855 -0.2474 -1.6610
18415TIP3   OH276735   6.402   1.664   6.050 -0.1701 -0.4071 -0.3584
18415TIP3    H176736   6.397   1.572   6.023  3.2620 -0.9145  0.5391
18415TIP3    H276737   6.432   1.711   5.973  1.0050 -0.5256  0.0126
18416TIP3   OH276738   3.642   1.433   1.743  0.2030  0.0252  0.1659
18416TIP3    H176739   3.729   1.469   1.723  0.4971 -0.4793  0.5317
18416TIP3    H276740   3.653   1.389   1.827 -0.1485 -0.9625 -0.3029
18417TIP3   OH276741   1.430   2.913  11.312 -0.3396 -0.2404 -0.3924
18417TIP3    H176742   1.480   2.930  11.232 -0.3863 -0.4267 -0.4594
18417TIP3    H276743   1.429   2.998  11.356  0.7732 -0.4309  0.0264
18418TIP3   OH276744   0.610   6.343   6.059 -0.6389  1.3526  0.0417
18418TIP3    H176745   0.564   6.411   6.010 -2.6530  0.2023  0.3096
18418TIP3    H276746   0.617   6.378   6.148 -3.1748  0.5442  0.5984
18419TIP3   OH276747   1.096   1.258   4.969 -0.0489 -0.0582  0.1803
18419TIP3    H176748   1.051   1.207   5.037 -1.1042 -0.0672 -0.5067
18419TIP3    H276749   1.054   1.229   4.887  1.7970 -0.6784 -0.5608
18420TIP3   OH276750   2.336   0.233  11.407 -0.1612  0.5408 -0.3332
18420TIP3    H176751   2.377   0.176  11.341 -1.5821 -1.0683  0.1428
18420TIP3    H276752   2.246   0.244  11.377 -0.1535  1.7944  0.0822
18421TIP3   OH276753   6.749   4.446   4.521 -0.8419 -0.5051  0.5604
18421TIP3    H176754   6.823   4.391   4.546  0.1398  1.3589  1.9473
18421TIP3    H276755   6.754   4.521   4.581 -2.0504  1.1482 -1.3432
18422TIP3   OH276756   0.007   4.063  12.462  0.1063 -0.3943 -0.0763
18422TIP3    H176757   0.058   4.086  12.540  1.1419  0.8832 -1.0907
18422TIP3    H276758  -0.001   3.968  12.465 -0.8495 -0.2561  2.1772
18423TIP3   OH276759   1.041   0.028   5.742 -0.4325 -0.6253 -0.0867
18423TIP3    H176760   0.972   0.049   5.679 -0.5835 -1.1695 -0.1036
18423TIP3    H276761   1.043   0.103   5.801  1.3989  1.0677 -2.2027
18424TIP3   OH276762   2.533   3.709  13.393 -0.2543 -0.6207 -0.3484
18424TIP3    H176763   2.505   3.656  13.468  0.1881 -2.3464 -1.3808
18424TIP3    H276764   2.513   3.799  13.419 -1.5194 -1.3251  1.2197
18425TIP3   OH276765   5.720   2.434   2.970  0.5229 -0.4411  0.5702
18425TIP3    H176766   5.725   2.519   3.013  1.2635 -0.2494  0.1113
18425TIP3    H276767   5.779   2.378   3.020 -1.2915 -1.1734  1.9518
18426TIP3   OH276768   4.793   0.126  13.711  0.1055 -0.1290 -0.5509
18426TIP3    H176769   4.840   0.089  13.786 -0.5037  0.2964  0.0577
18426TIP3    H276770   4.861   0.147  13.648  0.5183 -1.5705 -0.5918
18427TIP3   OH276771   6.661   6.000  14.646 -0.1143 -0.4675  0.0110
18427TIP3    H176772   6.640   6.080  14.598 -0.5697 -0.3881  0.3309
18427TIP3    H276773   6.751   5.981  14.623 -0.2640 -0.3192 -0.7116
18428TIP3   OH276774   0.347   5.234  14.705 -0.1536 -0.6887  0.1660
18428TIP3    H176775   0.430   5.280  14.710  0.0584 -1.2739  2.7260
18428TIP3    H276776   0.337   5.192  14.791 -3.7996  0.6281  0.4730
18429TIP3   OH276777   5.100   2.926   0.825  0.5508  0.5124 -0.0462
18429TIP3    H176778   5.168   2.973   0.873  1.3161 -1.5541  0.9390
18429TIP3    H276779   5.019   2.972   0.848  1.1651  0.7970  1.6398
18430TIP3   OH276780   5.501   0.580   4.298  0.2750  0.1315  0.3974
18430TIP3    H176781   5.433   0.634   4.339  0.7719  0.9073  0.2011
18430TIP3    H276782   5.583   0.609   4.339  0.4785 -0.8764  0.7106
18431TIP3   OH276783   1.124   5.287  14.474  0.1246 -0.0210  0.1023
18431TIP3    H176784   1.071   5.360  14.442 -0.3621 -0.0280  0.8914
18431TIP3    H276785   1.124   5.224  14.402 -1.9062 -0.5250  0.5224
18432TIP3   OH276786   2.674   1.469   4.197  0.3180 -0.3408 -0.5918
18432TIP3    H176787   2.698   1.480   4.289 -2.6369  0.6279  0.1377
18432TIP3    H276788   2.644   1.379   4.189  0.6238 -0.4400 -0.6242
18433TIP3   OH276789   5.134   6.273  15.317 -0.1854  0.0699 -0.1288
18433TIP3    H176790   5.097   6.361  15.318  1.6927  0.9084 -1.3336
18433TIP3    H276791   5.093   6.230  15.242 -0.5289  0.1756 -0.0001
18434TIP3   OH276792   5.662   0.136  16.025  0.2240  0.3864  0.0400
18434TIP3    H176793   5.746   0.180  16.038  1.0554 -0.8208 -1.1824
18434TIP3    H276794   5.638   0.157  15.935 -0.4039  0.0899  0.1389
18435TIP3   OH276795   6.035   1.133  13.533  0.4002  0.3382 -0.4825
18435TIP3    H176796   6.006   1.166  13.448 -1.6760 -0.1255  0.0068
18435TIP3    H276797   6.106   1.192  13.559 -0.7253  2.1144 -1.3314
18436TIP3   OH276798   0.962   0.362   2.751 -0.3456  0.4496 -0.6491
18436TIP3    H176799   0.928   0.292   2.695 -1.7215  0.8249 -0.3167
18436TIP3    H276800   1.038   0.324   2.794 -1.3905 -1.0187 -0.0590
18437TIP3   OH276801   6.531   2.349  10.855  0.7200 -0.1714  0.1412
18437TIP3    H176802   6.622   2.378  10.857  0.7291 -0.2211  0.9396
18437TIP3    H276803   6.509   2.341  10.763  1.1158  1.1330 -0.0753
18438TIP3   OH276804   2.391   4.142  13.580 -0.3414 -0.2796 -0.2072
18438TIP3    H176805   2.475   4.112  13.614 -0.0284  1.3236  0.4382
18438TIP3    H276806   2.336   4.154  13.657 -1.1736 -1.3178 -0.6254
18439TIP3   OH276807   2.973   3.900   5.720  0.4493 -0.4150  0.1072
18439TIP3    H176808   3.049   3.957   5.703 -0.9674  0.5185 -3.6268
18439TIP3    H276809   2.916   3.952   5.776  0.0786  1.1637 -1.6580
18440TIP3   OH276810   3.720   2.031   1.807 -0.2052 -0.7479 -0.1211
18440TIP3    H176811   3.662   2.093   1.761  0.1880  0.3321  0.8115
18440TIP3    H276812   3.792   2.085   1.839  0.4170 -1.7907  0.2531
18441TIP3   OH276813   3.432   1.593  14.582 -0.4234  0.0101  0.6852
18441TIP3    H176814   3.451   1.510  14.538 -0.8683  1.0633 -1.5634
18441TIP3    H276815   3.467   1.582  14.671  0.8297 -2.0292 -0.0333
18442TIP3   OH276816   5.967   5.932  14.294 -0.4495  0.0176 -0.0010
18442TIP3    H176817   5.906   6.006  14.299 -1.8686 -1.2012  1.2776
18442TIP3    H276818   5.938   5.883  14.217  0.6113  0.8536 -0.9633
18443TIP3   OH276819   3.935   0.381  15.783  0.7022  0.9348  0.1775
18443TIP3    H176820   3.903   0.291  15.781 -0.7677  1.4409 -1.3648
18443TIP3    H276821   4.026   0.374  15.810  0.2437 -0.8875  1.3574
18444TIP3   OH276822   1.270   6.160   3.817  0.8552  0.1451  0.3251
18444TIP3    H176823   1.323   6.202   3.749  1.3627 -0.5560  0.2898
18444TIP3    H276824   1.333   6.127   3.880  0.4818 -0.9395  0.1432
18445TIP3   OH276825   3.545   4.078   1.167 -0.3992  0.0655  0.1166
18445TIP3    H176826   3.624   4.109   1.124 -0.2162  1.2485  1.2709
18445TIP3    H276827   3.481   4.148   1.155 -0.4040  0.3234  1.5841
18446TIP3   OH276828   1.472   5.759   5.812 -0.9182  0.1900 -0.2295
18446TIP3    H176829   1.567   5.770   5.809 -1.0176  1.0580 -0.3803
18446TIP3    H276830   1.456   5.671   5.779 -0.1353 -0.0930  0.1522
18447TIP3   OH276831   4.618   0.829   4.436 -0.2249  0.3481 -0.0439
18447TIP3    H176832   4.594   0.823   4.343 -3.1675 -0.0559  0.6999
18447TIP3    H276833   4.691   0.768   4.446  0.1516  0.4209 -2.0834
18448TIP3   OH276834   0.900   4.303  13.378 -0.0387 -0.0557 -0.0665
18448TIP3    H176835   0.823   4.247  13.374  1.2548 -1.9376  0.5849
18448TIP3    H276836   0.935   4.289  13.466  0.3950  1.6696  0.0550
18449TIP3   OH276837   0.776   1.141   6.974 -0.2202  0.1943 -0.3335
18449TIP3    H176838   0.775   1.229   7.013  2.5480  0.5784 -1.0482
18449TIP3    H276839   0.688   1.131   6.936 -0.8237  2.3503  0.4160
18450TIP3   OH276840   3.665   4.133   6.497  0.0969 -0.4768  0.0320
18450TIP3    H176841   3.745   4.185   6.496  0.6080 -1.2597 -0.7655
18450TIP3    H276842   3.598   4.192   6.532  0.9390  0.3007  0.3479
18451TIP3   OH276843   5.964   0.234  11.569 -0.0865  0.3397 -0.0026
18451TIP3    H176844   5.950   0.200  11.657 -0.7634  0.4783 -0.0517
18451TIP3    H276845   5.909   0.313  11.565 -1.8646 -0.9165 -1.3019
18452TIP3   OH276846   5.530   3.180   4.679  0.1091 -0.0524  0.3953
18452TIP3    H176847   5.552   3.273   4.680 -0.1474  0.0229 -0.3573
18452TIP3    H276848   5.601   3.140   4.629 -0.6043 -0.0334 -0.6493
18453TIP3   OH276849   2.525   3.043  16.442 -0.3819 -0.0191  0.2048
18453TIP3    H176850   2.492   3.131  16.461  0.5551  0.2482  0.5950
18453TIP3    H276851   2.538   3.043  16.347 -0.6747  0.1573  0.1611
18454TIP3   OH276852   0.033   3.525  12.870  0.0757 -0.3954 -0.0001
18454TIP3    H176853   0.104   3.559  12.815  0.9546 -1.3180  0.5503
18454TIP3    H276854  -0.046   3.536  12.817  0.3664  2.3085  0.0873
18455TIP3   OH276855   5.767   4.575   5.334  0.1898 -0.1786 -0.0186
18455TIP3    H176856   5.807   4.543   5.252 -0.1559  0.7025 -0.5415
18455TIP3    H276857   5.676   4.546   5.329  0.0128  0.4059 -0.2393
18456TIP3   OH276858   6.613   2.817  14.041  0.0462  0.0253 -0.5747
18456TIP3    H176859   6.660   2.819  13.957 -0.8128 -2.2935 -1.1474
18456TIP3    H276860   6.662   2.755  14.095 -1.1190 -0.8325 -0.4631
18457TIP3   OH276861   4.191   6.627  10.347 -0.3644  0.1489 -0.4031
18457TIP3    H176862   4.221   6.561  10.284 -0.3417  0.0413 -0.2792
18457TIP3    H276863   4.113   6.664  10.307 -1.4898 -1.2939  0.3850
18458TIP3   OH276864   6.482   4.074  15.762 -0.1858  0.3309 -0.5636
18458TIP3    H176865   6.538   4.005  15.799 -0.0654 -0.1784 -1.6755
18458TIP3    H276866   6.504   4.152  15.811  0.5776 -0.1579 -0.1244
18459TIP3   OH276867   5.581   5.123  11.610  0.2103 -0.0134  0.3462
18459TIP3    H176868   5.632   5.204  11.602  1.1623 -0.7235 -1.0032
18459TIP3    H276869   5.500   5.141  11.563  0.4411  0.1673  0.0054
18460TIP3   OH276870   1.065   3.132  11.821  0.3317  0.5241  0.1340
18460TIP3    H176871   1.088   3.169  11.736 -1.0390  2.6622  0.6420
18460TIP3    H276872   0.991   3.186  11.851  0.8726 -0.1151  2.7169
18461TIP3   OH276873   5.179   6.037  16.458 -0.3280  0.7475 -0.0212
18461TIP3    H176874   5.260   6.080  16.432  0.3975  0.3146  1.4210
18461TIP3    H276875   5.127   6.032  16.378  0.9028  1.3887 -0.8763
18462TIP3   OH276876   3.756   4.209  11.849  0.9696  0.1391 -0.1398
18462TIP3    H176877   3.838   4.178  11.811  0.5149 -0.9367 -0.2777
18462TIP3    H276878   3.776   4.223  11.942  1.6808  1.3030 -0.4532
18463TIP3   OH276879   1.005   2.234  17.030  0.5134 -0.1103  1.3875
18463TIP3    H176880   0.996   2.319  16.987  1.9773  0.1755  1.6188
18463TIP3    H276881   0.920   2.218  17.072  0.4797  1.5803  1.9731
18464TIP3   OH276882   6.048   2.567  13.175  0.2918 -0.0856  0.7556
18464TIP3    H176883   5.974   2.624  13.196  1.3893  0.7863  2.3381
18464TIP3    H276884   6.118   2.627  13.149 -0.3023 -1.0195 -3.3409
18465TIP3   OH276885   5.206   1.140  12.799 -0.1610 -0.1746  0.4213
18465TIP3    H176886   5.202   1.204  12.871  0.8754 -0.6113  0.8777
18465TIP3    H276887   5.295   1.106  12.802 -0.9266 -2.2219  0.6818
18466TIP3   OH276888   3.676   6.325  14.257 -0.1301 -0.1427 -0.9439
18466TIP3    H176889   3.643   6.406  14.219 -2.0467 -0.7722 -0.6637
18466TIP3    H276890   3.603   6.264  14.250  0.6040 -1.2385  0.7074
18467TIP3   OH276891   0.446   5.946  15.097  0.2726  0.1152 -0.4320
18467TIP3    H176892   0.497   5.994  15.162  1.4047 -0.3690 -0.9447
18467TIP3    H276893   0.463   5.992  15.015  2.1589 -1.7087 -1.1117
18468TIP3   OH276894   0.210   0.239   4.765 -0.2873 -0.6568 -0.0210
18468TIP3    H176895   0.207   0.177   4.692  3.3985 -0.1519 -0.7041
18468TIP3    H276896   0.254   0.191   4.836  0.2967  0.3568  0.3128
18469TIP3   OH276897   3.136   0.856  13.593 -0.6096  0.3024  0.0266
18469TIP3    H176898   3.229   0.876  13.604 -0.6735  0.2332  0.7157
18469TIP3    H276899   3.095   0.941  13.578 -0.3421  0.2601 -0.9897
18470TIP3   OH276900   4.781   5.174  16.551  0.3631 -0.0807  0.1479
18470TIP3    H176901   4.692   5.139  16.538 -0.3119  2.0256 -1.1907
18470TIP3    H276902   4.780   5.211  16.639  0.3984 -1.3812  0.7133
18471TIP3   OH276903   3.075   5.567  14.384  0.3611 -0.0322  0.1738
18471TIP3    H176904   3.089   5.549  14.477 -0.7935  0.8828  0.5420
18471TIP3    H276905   3.076   5.662  14.378 -1.8166 -0.0088 -0.3681
18472TIP3   OH276906   4.640   5.876  14.782  0.4142  0.2947  0.0979
18472TIP3    H176907   4.564   5.856  14.835  0.3138  2.2329  0.7471
18472TIP3    H276908   4.605   5.891  14.694  0.3640 -1.1882 -0.1463
18473TIP3   OH276909   0.533   3.941  11.623  0.6359 -0.2647 -0.5355
18473TIP3    H176910   0.500   3.983  11.544 -1.5508 -0.2200  0.3921
18473TIP3    H276911   0.481   3.977  11.694  1.1096 -1.8990  0.6794
18474TIP3   OH276912   3.213   2.637   0.008  0.4650 -0.7369  0.2148
18474TIP3    H176913   3.188   2.730   0.009 -0.0571 -0.8796  1.4305
18474TIP3    H276914   3.139   2.593  -0.033  0.5606 -0.6530 -0.0455
18475TIP3   OH276915   4.972   2.529  11.046  0.6385 -0.0433 -0.1224
18475TIP3    H176916   4.913   2.566  10.980  1.0123 -1.1888 -1.1245
18475TIP3    H276917   4.972   2.593  11.117 -2.5635 -0.4478  0.3501
18476TIP3   OH276918   6.307   6.533  14.618  0.1464 -0.5111 -0.1250
18476TIP3    H176919   6.278   6.522  14.708  0.5346  2.3723  0.4118
18476TIP3    H276920   6.312   6.444  14.583 -2.0699 -1.5499  2.0251
18477TIP3   OH276921   1.572   3.131   4.498  0.0559  0.7000 -0.6498
18477TIP3    H176922   1.624   3.165   4.570 -0.1851 -1.0353  0.3693
18477TIP3    H276923   1.482   3.155   4.520 -0.0182  0.1661 -0.3501
18478TIP3   OH276924   1.473   4.557  12.717  0.2712  0.4759 -0.0688
18478TIP3    H176925   1.433   4.524  12.797  0.5901  0.8130  0.2311
18478TIP3    H276926   1.451   4.492  12.650  2.0280 -1.0377  0.8027
18479TIP3   OH276927   1.163   5.224  13.493  0.1346  0.1446  0.3589
18479TIP3    H176928   1.148   5.177  13.411  1.7643  0.4521 -0.1501
18479TIP3    H276929   1.259   5.233  13.498  0.1790 -1.3249  3.1361
18480TIP3   OH276930   0.109   1.649   4.405  0.3854 -0.0138  0.8189
18480TIP3    H176931   0.017   1.661   4.381 -0.2806 -0.3134  3.1427
18480TIP3    H276932   0.125   1.555   4.393  1.5589  0.5950 -3.3847
18481TIP3   OH276933   2.547   6.148   3.326 -0.0110  0.0714 -0.1278
18481TIP3    H176934   2.579   6.059   3.310 -1.5433 -0.6413  0.7017
18481TIP3    H276935   2.583   6.200   3.254 -2.0070 -1.9196 -2.6252
18482TIP3   OH276936   3.369   4.263  12.549  0.1467  0.7030  0.2546
18482TIP3    H176937   3.455   4.253  12.507  0.8319  2.5611  1.1583
18482TIP3    H276938   3.332   4.341  12.509 -0.3764  0.9007  1.1303
18483TIP3   OH276939   4.719   1.459  16.472  0.1087  0.3047  0.6852
18483TIP3    H176940   4.762   1.528  16.522 -1.2249  0.8650  1.0779
18483TIP3    H276941   4.633   1.449  16.514 -0.9406  0.6137 -1.3283
18484TIP3   OH276942   3.678   1.642   1.289  0.3692  0.2256 -0.1590
18484TIP3    H176943   3.654   1.614   1.201  0.4543  0.7287 -0.3435
18484TIP3    H276944   3.771   1.618   1.297  0.4425  0.4499 -0.3172
18485TIP3   OH276945   0.750   1.559  17.063  1.0458  0.3192  0.1891
18485TIP3    H176946   0.777   1.485  17.118 -1.6335 -0.7107  0.2373
18485TIP3    H276947   0.733   1.519  16.977  0.5632  1.0508 -0.0575
18486TIP3   OH276948   0.201   5.290   5.782 -0.4134 -0.4052 -0.8016
18486TIP3    H176949   0.202   5.385   5.767  1.9556 -0.5454 -1.7745
18486TIP3    H276950   0.171   5.253   5.700 -2.0275 -0.4984 -0.1935
18487TIP3   OH276951   5.191   2.089  16.264 -0.4840  0.1645  0.3567
18487TIP3    H176952   5.225   2.074  16.175 -0.4521 -0.1104  0.4134
18487TIP3    H276953   5.270   2.101  16.317 -0.4955  0.1113  0.3845
18488TIP3   OH276954   3.005   1.254  15.558  0.1969 -0.1767 -0.0255
18488TIP3    H176955   3.073   1.308  15.518  0.5296  0.1072  0.9266
18488TIP3    H276956   2.923   1.285  15.517  0.4009  0.9283  0.3833
18489TIP3   OH276957   0.829   0.437   5.296 -0.4263 -0.5240  0.6788
18489TIP3    H176958   0.816   0.441   5.202  0.7396 -1.4151  0.4715
18489TIP3    H276959   0.921   0.414   5.307  0.1371  2.1420  2.0588
18490TIP3   OH276960   5.431   2.020   0.347  0.0926 -0.6255 -0.0965
18490TIP3    H176961   5.406   2.099   0.394 -0.7663 -0.7959 -0.2533
18490TIP3    H276962   5.471   1.964   0.414 -0.7818 -0.7120  0.3526
18491TIP3   OH276963   0.675   6.586   3.132 -0.9346 -0.8133 -0.3804
18491TIP3    H176964   0.583   6.573   3.153 -0.9685 -0.8089 -0.5234
18491TIP3    H276965   0.691   6.530   3.056 -0.9855 -0.3258 -0.7599
18492TIP3   OH276966   6.770   3.964   4.429 -0.5772 -0.5128  0.6018
18492TIP3    H176967   6.703   4.028   4.404 -2.3413 -2.0610  1.3209
18492TIP3    H276968   6.796   3.991   4.517  0.5782  0.7303 -0.0841
18493TIP3   OH276969   2.692   1.052  11.338  0.0002 -0.1837 -0.1231
18493TIP3    H176970   2.696   1.013  11.425  1.0237  2.8252  1.2748
18493TIP3    H276971   2.599   1.051  11.314 -0.0610 -2.7449  0.1466
18494TIP3   OH276972   3.392   2.860  15.750 -0.5103 -0.2186 -0.3575
18494TIP3    H176973   3.297   2.853  15.761 -0.5510 -0.9039 -1.0702
18494TIP3    H276974   3.417   2.777  15.709  0.5978 -0.6382  1.1491
18495TIP3   OH276975   6.361   6.426   5.479  0.2862  0.4756  0.1553
18495TIP3    H176976   6.327   6.342   5.510 -0.9799  0.7104 -0.5486
18495TIP3    H276977   6.392   6.470   5.557  2.0153 -1.1148  0.4013
18496TIP3   OH276978   4.508   0.825   4.174 -0.5359  0.0587  0.1491
18496TIP3    H176979   4.423   0.797   4.140 -0.1845 -0.6229 -0.1844
18496TIP3    H276980   4.560   0.846   4.096 -0.4866  0.7306  0.3605
18497TIP3   OH276981   0.211   0.198   2.039 -0.3958  0.0378 -0.2000
18497TIP3    H176982   0.127   0.158   2.015 -0.5560  0.6060 -0.6134
18497TIP3    H276983   0.191   0.255   2.112 -0.7177  1.5118 -1.4097
18498TIP3   OH276984   5.780   6.442   5.865  0.0949  0.4591 -0.3987
18498TIP3    H176985   5.845   6.408   5.803 -0.1500  0.4133 -0.6313
18498TIP3    H276986   5.736   6.511   5.817 -0.9185 -0.3881 -0.6933
18499TIP3   OH276987   4.024   4.994   2.708  0.0119 -0.4862  0.7471
18499TIP3    H176988   3.992   4.925   2.767 -1.0948  1.3009  2.3197
18499TIP3    H276989   4.015   5.074   2.759  0.8767  0.8817 -1.2000
18500TIP3   OH276990   1.557   5.391   4.522  0.2195  0.0441 -0.5960
18500TIP3    H176991   1.479   5.361   4.475 -1.0021  3.2089 -0.7093
18500TIP3    H276992   1.607   5.441   4.456  0.3540  1.3651  0.4848
18501TIP3   OH276993   0.811   3.464  13.783  0.3591  0.4347 -0.1711
18501TIP3    H176994   0.816   3.470  13.688  1.2277 -2.4929 -0.3691
18501TIP3    H276995   0.902   3.466  13.812  0.0974  1.4285  0.6397
18502TIP3   OH276996   0.762   3.771   0.327  0.1111 -0.1032 -0.3171
18502TIP3    H176997   0.840   3.729   0.290  0.6458  0.6165 -0.0195
18502TIP3    H276998   0.692   3.752   0.265  0.7812  0.2163 -1.1728
18503TIP3   OH276999   5.984   5.331  15.340 -0.2933 -0.1057 -0.1251
18503TIP3    H177000   5.923   5.356  15.409 -0.7429  2.4940 -1.4267
18503TIP3    H277001   6.062   5.301  15.387 -1.7254 -1.3431  1.5231
18504TIP3   OH277002   6.075   0.773   0.950 -0.2107 -0.9062  0.2324
18504TIP3    H177003   6.085   0.744   0.859 -0.4282 -0.7700  0.1650
18504TIP3    H277004   6.043   0.863   0.943 -0.6595 -1.0465  0.4430
18505TIP3   OH277005   4.548   3.326  15.373  0.0153 -0.2287 -0.1417
18505TIP3    H177006   4.608   3.253  15.361  0.6694  0.2904 -0.0576
18505TIP3    H277007   4.602   3.396  15.410 -0.5594  0.3629 -0.4047
18506TIP3   OH277008   2.240   5.474   2.595  0.2803 -0.1577 -0.2995
18506TIP3    H177009   2.278   5.559   2.617  0.3682 -0.1365 -0.5392
18506TIP3    H277010   2.312   5.412   2.606  0.5344 -0.0452 -1.3054
18507TIP3   OH277011   5.200   5.093  14.712  0.4912  0.4135  0.9825
18507TIP3    H177012   5.152   5.144  14.777 -0.3070  0.2306  0.5440
18507TIP3    H277013   5.175   5.002  14.730 -2.0378  0.5519 -1.3843
18508TIP3   OH277014   5.073   6.623   4.410 -0.6413 -0.3700 -0.3774
18508TIP3    H177015   5.121   6.613   4.328 -1.5417 -0.5625 -0.8830
18508TIP3    H277016   5.043   6.535   4.431  0.9480 -0.6027  1.0036
18509TIP3   OH277017   6.687   1.400  12.625 -0.3806  0.3464  0.1819
18509TIP3    H177018   6.665   1.455  12.700  3.1705  2.2182 -0.0263
18509TIP3    H277019   6.703   1.313  12.663  0.1845  0.9804  1.4185
18510TIP3   OH277020   4.180   6.153  13.723 -0.2541  0.2565  0.0247
18510TIP3    H177021   4.191   6.113  13.637 -2.9355 -0.8938  0.1600
18510TIP3    H277022   4.109   6.217  13.711 -1.4014 -0.6819  1.5750
18511TIP3   OH277023   1.862   1.400   0.573 -0.0669 -0.4380  0.3762
18511TIP3    H177024   1.844   1.341   0.646  0.2022 -0.6568  0.2690
18511TIP3    H277025   1.814   1.363   0.499 -0.0088 -0.4480  0.3428
18512TIP3   OH277026   6.220   5.275   2.849  0.2836  0.2201  0.2646
18512TIP3    H177027   6.213   5.321   2.932 -0.6580  0.7047 -0.0795
18512TIP3    H277028   6.199   5.341   2.782 -1.7862 -0.8465 -0.1906
18513TIP3   OH277029   3.681   2.955   4.608 -0.1179 -0.0314  0.1057
18513TIP3    H177030   3.753   2.926   4.552  0.4769 -2.9036  2.2122
18513TIP3    H277031   3.721   3.016   4.670 -0.2509  1.1167 -0.9187
18514TIP3   OH277032   1.789   5.746  14.757 -0.1156 -0.2129 -0.5481
18514TIP3    H177033   1.865   5.796  14.728 -0.1695  0.2295  0.0755
18514TIP3    H277034   1.793   5.665  14.706  1.5035 -0.7773  0.4462
18515TIP3   OH277035   4.634   3.136  11.020 -0.5475 -0.2329  0.1587
18515TIP3    H177036   4.567   3.077  11.054 -1.0270 -0.5215 -1.2490
18515TIP3    H277037   4.717   3.095  11.045 -0.8785 -1.1913 -0.2722
18516TIP3   OH277038   2.108   3.494   1.055  0.0764  0.3187 -0.2397
18516TIP3    H177039   2.146   3.581   1.041  1.9543 -0.2998  0.8434
18516TIP3    H277040   2.057   3.477   0.976  0.3916  2.0422 -0.8310
18517TIP3   OH277041   5.253   4.197   1.392 -0.7637  0.2330 -0.2377
18517TIP3    H177042   5.257   4.164   1.302  0.9241  0.7179 -0.3621
18517TIP3    H277043   5.261   4.119   1.447  1.3303  0.2089 -0.5295
18518TIP3   OH277044   4.764   2.047   3.754 -0.6089 -0.1688  0.2018
18518TIP3    H177045   4.687   1.993   3.740  0.8077 -2.7843  2.2221
18518TIP3    H277046   4.838   1.993   3.725  0.8338  0.7305  2.0475
18519TIP3   OH277047   2.168   2.459  14.460  0.4570  0.5284 -0.5230
18519TIP3    H177048   2.196   2.501  14.542  1.0093 -1.1049  0.1379
18519TIP3    H277049   2.127   2.530  14.410  1.8365  1.9862  0.3488
18520TIP3   OH277050   0.034   4.862   5.984  0.7037  0.5932  0.5580
18520TIP3    H177051   0.107   4.833   5.928  0.8215 -0.2496  1.1297
18520TIP3    H277052   0.055   4.826   6.071 -0.0741  0.8803  0.8671
18521TIP3   OH277053   2.243   0.473   1.511 -0.3388  0.4468 -0.6435
18521TIP3    H177054   2.262   0.538   1.578  0.8003  1.4552 -1.9364
18521TIP3    H277055   2.307   0.404   1.526 -0.6773  0.2379 -0.1299
18522TIP3   OH277056   3.667   4.470   0.942 -0.3219  0.8159 -0.3287
18522TIP3    H177057   3.692   4.390   0.990  2.5960  2.6602  1.3518
18522TIP3    H277058   3.721   4.468   0.863  0.6264  1.7009  0.2906
18523TIP3   OH277059   3.250   2.819  13.245 -0.4616 -0.1502  0.1999
18523TIP3    H177060   3.338   2.788  13.226  0.1381  1.1755  0.7797
18523TIP3    H277061   3.227   2.778  13.329  0.6234  1.5637  1.3413
18524TIP3   OH277062   2.575   1.141   6.173  0.2165 -0.1460  0.1846
18524TIP3    H177063   2.580   1.073   6.240 -1.0837  1.2697  1.7584
18524TIP3    H277064   2.488   1.179   6.183  1.0796  2.0552 -0.3459
18525TIP3   OH277065   6.797   5.083  13.947 -0.2773 -0.1251 -0.0765
18525TIP3    H177066   6.771   5.167  13.910 -0.4312 -1.6209 -3.5602
18525TIP3    H277067   6.889   5.094  13.971 -0.7661  1.5283  1.1240
18526TIP3   OH277068   3.204   3.358   3.446 -0.3267 -0.3970 -0.5534
18526TIP3    H177069   3.114   3.390   3.447 -0.4506 -0.6506 -2.0690
18526TIP3    H277070   3.256   3.433   3.475 -1.0809 -0.4806  1.0526
18527TIP3   OH277071   5.716   6.660   5.654  0.5226 -0.6715 -0.2229
18527TIP3    H177072   5.629   6.688   5.625  1.2010  1.0244 -0.6571
18527TIP3    H277073   5.764   6.643   5.573  0.5928 -1.6771  0.0181
18528TIP3   OH277074   5.087   0.085  16.279  0.3475  0.2425  0.3477
18528TIP3    H177075   5.059   0.120  16.364 -0.2471  0.6678 -0.0186
18528TIP3    H277076   5.164   0.033  16.299 -0.1943 -0.2302  1.2548
18529TIP3   OH277077   2.186   4.618  14.513 -0.3666  0.4895  0.6481
18529TIP3    H177078   2.237   4.538  14.498 -1.6190  0.0022 -1.1799
18529TIP3    H277079   2.096   4.593  14.492 -0.9111  2.1639  0.9111
18530TIP3   OH277080   4.913   2.050  17.241 -0.6245 -0.0992  0.1880
18530TIP3    H177081   4.963   2.132  17.232  1.8733 -1.6426 -0.5126
18530TIP3    H277082   4.877   2.035  17.153  2.5039 -1.9185 -0.8650
18531TIP3   OH277083   5.371   2.787   0.313  0.8859 -0.2271 -0.3586
18531TIP3    H177084   5.334   2.835   0.387 -2.9997 -2.1016 -0.9708
18531TIP3    H277085   5.333   2.828   0.235  1.0341 -1.3918 -1.0703
18532TIP3   OH277086   3.999   6.036   1.396 -0.0993 -0.1596  0.1400
18532TIP3    H177087   3.995   6.011   1.304  0.4988  0.5107 -0.0732
18532TIP3    H277088   4.086   6.074   1.408 -1.2929  2.6930  0.1893
18533TIP3   OH277089   6.765   4.500  17.112  0.3979 -0.1656 -0.6430
18533TIP3    H177090   6.809   4.491  17.196  1.1571  0.1972 -1.0043
18533TIP3    H277091   6.790   4.586  17.080  0.2244 -0.3604 -1.3150
18534TIP3   OH277092   1.916   6.099   0.650 -0.2602 -0.3399  0.0136
18534TIP3    H177093   1.987   6.052   0.606 -0.0462  3.1233 -3.6249
18534TIP3    H277094   1.836   6.066   0.608 -0.1175  2.2756 -2.4601
18535TIP3   OH277095   2.085   1.182  15.327  0.0731 -0.3469  0.1634
18535TIP3    H177096   2.171   1.225  15.331 -0.9898  1.7902  0.9055
18535TIP3    H277097   2.052   1.203  15.239  0.4191 -1.4076 -0.2256
18536TIP3   OH277098   4.085   2.522   4.103  0.2559 -0.3408  0.3431
18536TIP3    H177099   4.039   2.452   4.151 -0.1393 -0.1675  0.2235
18536TIP3    H277100   4.166   2.535   4.151 -0.0043 -0.3781  0.7935
18537TIP3   OH277101   0.827   0.917   0.437 -0.3321 -0.2759  0.4499
18537TIP3    H177102   0.782   0.952   0.514 -0.1558 -0.4884  0.6473
18537TIP3    H277103   0.873   0.840   0.469  1.3730  0.7592  0.5883
18538TIP3   OH277104   2.101   3.176   2.847 -0.2022  0.4106  0.7999
18538TIP3    H177105   2.020   3.189   2.799  0.8909  3.9170 -0.2744
18538TIP3    H277106   2.089   3.224   2.929  0.8826  1.3638  0.4312
18539TIP3   OH277107   0.057   6.529  14.558  0.2002 -0.0645 -0.7535
18539TIP3    H177108  -0.015   6.538  14.620 -0.2202 -1.8129 -0.9574
18539TIP3    H277109   0.104   6.451  14.587  1.1080  0.1849 -1.5255
18540TIP3   OH277110   2.837   6.074  14.462 -0.3548  0.2146 -0.3368
18540TIP3    H177111   2.771   6.143  14.474 -0.5024 -0.1126  0.7460
18540TIP3    H277112   2.789   5.992  14.475  0.8477  0.0305  3.4344
18541TIP3   OH277113   0.699   4.857   5.901 -0.3120  0.6177  0.5770
18541TIP3    H177114   0.668   4.831   5.814 -0.3597 -1.6608  1.2379
18541TIP3    H277115   0.694   4.953   5.900 -1.1177  0.6010 -1.6230
18542TIP3   OH277116   5.740   2.188   0.037  0.0441  0.2749  0.1004
18542TIP3    H177117   5.770   2.189  -0.054 -0.6894  0.5571 -0.1439
18542TIP3    H277118   5.794   2.122   0.080 -0.8958 -1.2204 -0.9862
18543TIP3   OH277119   5.079   0.455   4.364  0.6014 -0.3403 -0.3320
18543TIP3    H177120   5.113   0.377   4.320 -0.1860  0.1467 -1.8408
18543TIP3    H277121   5.101   0.527   4.305 -0.7008  0.2986 -0.0562
18544TIP3   OH277122   0.961   0.135   0.009  0.0483  0.4312  0.0153
18544TIP3    H177123   0.921   0.115   0.094  0.0183  1.3016  0.2134
18544TIP3    H277124   0.955   0.053  -0.040  1.1738 -0.4250  1.2807
18545TIP3   OH277125   5.782   0.345   3.383 -0.1571 -0.2070 -0.1712
18545TIP3    H177126   5.698   0.384   3.361  1.2256  1.3566 -2.9580
18545TIP3    H277127   5.772   0.252   3.366 -1.7991 -0.2938  1.1616
18546TIP3   OH277128   0.603   1.131  14.252 -0.1504 -0.2176 -0.4353
18546TIP3    H177129   0.589   1.067  14.182  0.0939 -0.1694 -0.5274
18546TIP3    H277130   0.531   1.116  14.313  0.6960 -1.5562  0.2614
18547TIP3   OH277131   1.628   4.127  15.384  0.1036  0.2309 -0.1698
18547TIP3    H177132   1.654   4.123  15.292 -0.0949 -0.2168 -0.2050
18547TIP3    H277133   1.697   4.082  15.431 -1.7314 -3.0654 -0.4882
18548TIP3   OH277134   6.473   1.821  16.994 -0.2072 -0.0302  0.9335
18548TIP3    H177135   6.424   1.743  17.022 -1.6543 -0.3164 -2.1709
18548TIP3    H277136   6.563   1.790  16.985 -0.0045 -0.3245  3.5306
18549TIP3   OH277137   5.397   3.016  11.784 -0.3084  0.0471 -0.2049
18549TIP3    H177138   5.388   3.104  11.820 -2.4612  0.0960 -0.7855
18549TIP3    H277139   5.334   2.963  11.834 -0.2015 -0.8066 -0.9620
18550TIP3   OH277140   2.825   1.802  14.225 -0.2345 -0.6464 -0.7697
18550TIP3    H177141   2.905   1.797  14.173  0.3169 -1.0720  0.1010
18550TIP3    H277142   2.837   1.878  14.281 -0.1654 -1.0777 -0.1950
18551TIP3   OH277143   0.141   5.855  15.059  0.0591  0.4116 -0.1437
18551TIP3    H177144   0.163   5.910  15.134  0.8431  0.3417 -0.3184
18551TIP3    H277145   0.218   5.859  15.003 -0.5350  0.4868 -0.9619
18552TIP3   OH277146   4.494   5.012  13.282 -0.1566  0.2112  0.5686
18552TIP3    H177147   4.461   4.936  13.329 -1.0158 -0.3738 -0.9245
18552TIP3    H277148   4.434   5.083  13.305 -0.9310 -0.2192 -0.0850
18553TIP3   OH277149   4.051   5.778   4.837  0.6626  0.0888 -0.3190
18553TIP3    H177150   4.082   5.691   4.859  3.0668  0.9455 -0.2333
18553TIP3    H277151   3.978   5.793   4.898  0.1437 -1.8619 -0.4113
18554TIP3   OH277152   0.615   1.172  15.568  0.3750 -0.1506 -0.3793
18554TIP3    H177153   0.649   1.082  15.570  1.2278  0.1886  0.4504
18554TIP3    H277154   0.602   1.195  15.660 -1.4944 -0.0241 -0.6425
18555TIP3   OH277155   3.322   2.731  16.312  0.4756 -0.5341 -0.0685
18555TIP3    H177156   3.398   2.770  16.270 -0.0276  0.2724 -0.2440
18555TIP3    H277157   3.297   2.659  16.255 -1.4177  1.7840 -2.2751
18556TIP3   OH277158   6.555   2.765   3.052 -0.5595  0.6012  0.0335
18556TIP3    H177159   6.545   2.858   3.036  0.1710  0.7071  0.1652
18556TIP3    H277160   6.530   2.754   3.144 -0.7884  0.6461 -0.0244
18557TIP3   OH277161   1.116   3.276   2.697 -0.1676 -0.0761 -0.1661
18557TIP3    H177162   1.082   3.364   2.713 -0.2309 -0.0448 -0.4695
18557TIP3    H277163   1.099   3.229   2.779 -1.6992 -0.2979 -0.5949
18558TIP3   OH277164   0.977   2.071   4.277 -0.1044 -0.0859 -0.1597
18558TIP3    H177165   1.063   2.032   4.260 -0.2732  0.0931 -1.4915
18558TIP3    H277166   0.994   2.142   4.339  1.0920  1.6033 -2.3658
18559TIP3   OH277167   1.855   1.186   5.261 -0.1106  0.1830  0.2368
18559TIP3    H177168   1.823   1.276   5.253 -0.1150  0.0525 -1.5339
18559TIP3    H277169   1.779   1.136   5.290 -0.5350  0.4964 -0.3204
18560TIP3   OH277170   6.317   6.634   1.639 -0.3930 -0.5273  0.1077
18560TIP3    H177171   6.381   6.705   1.637 -0.4809 -0.3082  3.0341
18560TIP3    H277172   6.296   6.618   1.547  1.8996  1.1659 -0.7524
18561TIP3   OH277173   5.927   4.091  15.905  0.2842 -0.0419 -0.0827
18561TIP3    H177174   5.987   4.144  15.958  0.5059  0.9176 -1.2760
18561TIP3    H277175   5.961   4.002  15.914  0.8083  0.2270  0.7185
18562TIP3   OH277176   2.528   4.990   4.253 -0.0874 -0.0018 -0.5418
18562TIP3    H177177   2.529   5.006   4.158  0.4286 -1.2700 -0.7667
18562TIP3    H277178   2.482   5.065   4.289  1.4073  1.4972 -1.6116
18563TIP3   OH277179   6.570   4.312   0.786  0.0772 -0.1337 -0.1752
18563TIP3    H177180   6.624   4.322   0.864  0.7974  0.8353 -0.7929
18563TIP3    H277181   6.611   4.241   0.736 -1.9353 -2.6588  1.5981
18564TIP3   OH277182   1.733   3.762  13.600  0.4353  0.0529 -0.2791
18564TIP3    H177183   1.640   3.769  13.577  0.4708  1.9208  0.1023
18564TIP3    H277184   1.778   3.749  13.516 -0.0849 -0.0612 -0.5423
18565TIP3   OH277185   6.444   2.560   2.903  0.1552 -0.0587 -0.3505
18565TIP3    H177186   6.365   2.512   2.927 -2.1772  2.5625 -2.3592
18565TIP3    H277187   6.444   2.636   2.961  0.7150  0.4175 -0.9662
18566TIP3   OH277188   3.330   1.737   6.810 -0.3749 -0.3491  0.4482
18566TIP3    H177189   3.295   1.673   6.871  1.9184 -1.9075  0.2146
18566TIP3    H277190   3.323   1.695   6.724 -1.3394  0.8311 -0.0696
18567TIP3   OH277191   6.781   4.883   4.910 -0.0224  0.2762 -0.1075
18567TIP3    H177192   6.803   4.870   4.818  0.4368  1.2222 -0.1384
18567TIP3    H277193   6.688   4.905   4.910 -0.2100 -0.5063 -0.2696
18568TIP3   OH277194   3.678   5.090  17.234 -0.2780 -0.1522  0.2154
18568TIP3    H177195   3.669   5.170  17.182  2.8495  0.8406  1.0816
18568TIP3    H277196   3.641   5.113  17.319 -0.9574 -0.1987 -0.0672
18569TIP3   OH277197   5.702   6.326  16.400  0.0833 -0.5431  0.7121
18569TIP3    H177198   5.740   6.397  16.452 -1.4405  0.4804  0.4524
18569TIP3    H277199   5.712   6.355  16.309  1.6708 -1.7958  0.4472
18570TIP3   OH277200   4.302   2.066   2.448  0.2354  0.2606 -0.3507
18570TIP3    H177201   4.242   2.053   2.522  0.2041 -0.4753 -0.5006
18570TIP3    H277202   4.305   2.161   2.436  0.0172  0.3710  0.4125
18571TIP3   OH277203   1.684   4.828   1.280  0.0530 -0.0947  0.2762
18571TIP3    H177204   1.663   4.882   1.356  0.2224 -2.5241  2.1149
18571TIP3    H277205   1.669   4.738   1.310  0.4837 -1.1175 -2.4610
18572TIP3   OH277206   1.967   6.118  15.022  0.0569 -0.4994 -0.8036
18572TIP3    H177207   1.948   6.067  15.101  0.4497 -1.2996 -1.2225
18572TIP3    H277208   2.031   6.183  15.049  0.5328 -1.0681 -0.5708
18573TIP3   OH277209   4.769   2.629  16.724  0.1375 -0.3783 -0.1108
18573TIP3    H177210   4.712   2.660  16.654 -0.7198  0.6703  1.0168
18573TIP3    H277211   4.713   2.572  16.777  0.6428 -0.7863 -0.0104
18574TIP3   OH277212   0.034   6.593  15.824  0.2124 -0.4855  0.4001
18574TIP3    H177213   0.074   6.665  15.872 -0.7118  1.0571 -1.0782
18574TIP3    H277214   0.002   6.633  15.743  0.0643 -2.6479 -0.6492
18575TIP3   OH277215   3.091   6.626   3.737 -0.1041  0.3642 -0.5595
18575TIP3    H177216   3.160   6.605   3.675  0.2095  0.8331 -0.3762
18575TIP3    H277217   3.017   6.654   3.683 -0.4789 -1.0487 -0.7974
18576TIP3   OH277218   2.451   5.756  12.231  0.8087  0.0261 -0.6597
18576TIP3    H177219   2.534   5.733  12.275  1.2909 -0.8743 -2.0005
18576TIP3    H277220   2.396   5.679  12.243  0.7572 -0.0207 -1.1886
18577TIP3   OH277221   0.559   0.591  15.830 -0.6739  0.3602 -0.2030
18577TIP3    H177222   0.643   0.628  15.800 -1.0110  1.5076  0.2447
18577TIP3    H277223   0.543   0.518  15.770  2.2843 -2.0212  1.7195
18578TIP3   OH277224   0.555   4.304  14.745  0.7256  0.8594  0.3123
18578TIP3    H177225   0.539   4.257  14.663  2.0785 -0.0302  0.5430
18578TIP3    H277226   0.475   4.292  14.796  0.7795 -0.6254  0.0754
18579TIP3   OH277227   3.798   5.545  16.384 -0.4186 -0.0787  0.5832
18579TIP3    H177228   3.787   5.487  16.309 -1.2513  0.4140  0.3159
18579TIP3    H277229   3.720   5.600  16.383  0.1580  0.7511  1.0895
18580TIP3   OH277230   5.348   6.587  12.883 -0.0152 -0.3506 -0.2436
18580TIP3    H177231   5.367   6.654  12.949  0.4989  2.0208 -2.6866
18580TIP3    H277232   5.281   6.532  12.924 -0.1099  1.3674  2.0480
18581TIP3   OH277233   6.121   2.057  13.747 -0.5807 -0.1245  0.1093
18581TIP3    H177234   6.145   2.123  13.682 -0.1086 -1.2387 -0.8647
18581TIP3    H277235   6.195   1.998  13.750  0.0369  0.6983  2.7468
18582TIP3   OH277236   1.489   2.945  15.087 -0.2549  0.4978 -0.4616
18582TIP3    H177237   1.547   3.010  15.128 -0.5339  0.5957 -0.2225
18582TIP3    H277238   1.441   2.994  15.021 -0.1258  0.4339 -0.6037
18583TIP3   OH277239   3.936   1.852   2.113 -0.2454 -0.4506  0.2400
18583TIP3    H177240   3.851   1.831   2.073  0.1501  1.4111 -1.6992
18583TIP3    H277241   3.916   1.919   2.178 -0.1609  0.7383 -0.9343
18584TIP3   OH277242   5.007   6.745  17.166  0.4866 -0.0868  0.0044
18584TIP3    H177243   4.970   6.824  17.206 -1.7375 -1.3450  0.5423
18584TIP3    H277244   5.035   6.692  17.241 -1.2895 -1.3287 -0.2001
18585TIP3   OH277245   4.102   5.567  17.213  0.2129 -0.2657  0.2130
18585TIP3    H177246   4.184   5.524  17.240 -0.6284 -1.2802  1.1973
18585TIP3    H277247   4.042   5.551  17.286 -0.8412  0.5500 -0.4745
18586TIP3   OH277248   0.210   2.318   5.858  0.4007 -0.1159 -0.2116
18586TIP3    H177249   0.293   2.360   5.838 -0.0625  0.4332 -1.0090
18586TIP3    H277250   0.214   2.299   5.951  0.1325  2.8106  0.4464
18587TIP3   OH277251   5.238   3.000  16.758 -0.9674  0.2986  0.2803
18587TIP3    H177252   5.211   3.017  16.849 -0.6144 -1.7982  0.8049
18587TIP3    H277253   5.313   2.941  16.766 -0.7126  0.3804 -1.3753
18588TIP3   OH277254   5.250   6.175  16.125 -0.1910 -0.7510  0.4652
18588TIP3    H177255   5.304   6.163  16.046 -0.6873 -0.3273  0.0565
18588TIP3    H277256   5.279   6.260  16.160  0.0028 -0.9211  0.7237
18589TIP3   OH277257   0.563   1.060  15.114  0.7873 -0.3749 -0.0444
18589TIP3    H177258   0.517   1.144  15.107  0.6844 -0.3431  0.8397
18589TIP3    H277259   0.609   1.051  15.031 -0.3134 -0.1094 -0.7027
18590TIP3   OH277260   3.367   5.932   4.562  0.2735  0.1279 -0.2236
18590TIP3    H177261   3.363   5.888   4.647 -1.6483  0.3044 -0.1906
18590TIP3    H277262   3.445   5.988   4.567  0.0391  0.3199  1.5284
18591TIP3   OH277263   4.273   1.559  11.325  0.7712  0.0194  0.1995
18591TIP3    H177264   4.238   1.537  11.238 -0.3915  0.2510  0.6007
18591TIP3    H277265   4.340   1.492  11.341 -1.2271 -1.9704  0.4952
18592TIP3   OH277266   0.926   2.955  12.954 -0.0041 -0.0878  0.3061
18592TIP3    H177267   0.948   3.014  13.027  0.3491 -0.4548  0.4944
18592TIP3    H277268   0.858   2.898  12.990  1.4342 -1.4457  0.9160
18593TIP3   OH277269   2.657   2.581   4.468 -0.2813 -0.3286 -0.1719
18593TIP3    H177270   2.590   2.545   4.410 -1.3040  0.4089  0.5287
18593TIP3    H277271   2.735   2.528   4.451 -1.3492 -1.9288 -0.1804
18594TIP3   OH277272   2.821   0.191   5.728  0.7016 -0.2549  0.2587
18594TIP3    H177273   2.873   0.150   5.798  0.8520  1.4940  1.2099
18594TIP3    H277274   2.884   0.248   5.683 -0.3076  1.6985  1.2648
18595TIP3   OH277275   2.562   1.145   2.107 -0.1748 -0.5936 -0.1043
18595TIP3    H177276   2.551   1.137   2.202  1.6516 -1.9079  0.0161
18595TIP3    H277277   2.624   1.218   2.096 -0.1346 -0.6522 -0.2662
18596TIP3   OH277278   1.866   5.624   0.522 -0.0627  0.3150 -0.0664
18596TIP3    H177279   1.775   5.610   0.495 -0.1869 -0.1400  0.5424
18596TIP3    H277280   1.917   5.620   0.441 -0.5264  0.0023 -0.3460
18597TIP3   OH277281   1.753   1.521   6.769 -0.3002 -0.4230 -0.0072
18597TIP3    H177282   1.693   1.510   6.843  0.5523  0.9238  0.9092
18597TIP3    H277283   1.834   1.478   6.797  0.1368  0.3855 -0.0018
18598TIP3   OH277284   1.457   4.127  13.079  0.4784 -0.4162 -0.0788
18598TIP3    H177285   1.429   4.176  13.156  1.8888 -0.2004  0.3107
18598TIP3    H277286   1.439   4.035  13.101 -2.6584 -0.0953 -1.0206
18599TIP3   OH277287   1.714   1.454  14.343 -0.1550 -0.3123 -0.5095
18599TIP3    H177288   1.799   1.494  14.363 -0.0809  0.0761 -1.5581
18599TIP3    H277289   1.732   1.397  14.268 -0.1050 -2.9531  1.4418
18600TIP3   OH277290   3.590   2.755  16.528 -0.4917  0.2075 -0.7164
18600TIP3    H177291   3.613   2.770  16.620 -3.2707  1.8848 -0.2370
18600TIP3    H277292   3.625   2.668  16.508  1.3052  0.3776  1.5301
18601TIP3   OH277293   0.881   4.676  12.201 -0.4003 -0.3142  0.3131
18601TIP3    H177294   0.846   4.623  12.129 -1.4957 -2.6923  2.5096
18601TIP3    H277295   0.812   4.739  12.220  0.0191  0.5291 -0.8961
18602TIP3   OH277296   0.768   3.562  16.430 -0.0485  0.1893  0.0399
18602TIP3    H177297   0.697   3.555  16.365 -0.0121 -0.2860  0.0515
18602TIP3    H277298   0.782   3.657  16.439 -0.2335  0.2672 -0.4527
18603TIP3   OH277299   3.825   3.035   3.880 -0.5984  0.7288  0.6106
18603TIP3    H177300   3.839   3.056   3.788  0.4925 -4.2460 -0.5427
18603TIP3    H277301   3.908   3.058   3.923 -0.5336  1.5639  0.0509
18604TIP3   OH277302   1.833   2.045   0.499  0.5538  0.2263  0.3049
18604TIP3    H177303   1.759   2.094   0.536  1.1787  0.6852  0.9565
18604TIP3    H277304   1.904   2.109   0.494  0.7417 -0.0714 -0.8455
18605TIP3   OH277305   1.747   5.384   6.700 -0.4045  0.4988 -0.0650
18605TIP3    H177306   1.742   5.472   6.738  0.6124  1.4633 -2.0498
18605TIP3    H277307   1.839   5.358   6.712  0.0574  1.0213 -2.2086
18606TIP3   OH277308   2.810   1.735  16.885  0.3558 -0.2124 -0.4390
18606TIP3    H177309   2.750   1.671  16.923  0.2325 -0.5749 -1.2204
18606TIP3    H277310   2.831   1.699  16.799  0.3454  0.7609 -0.8526
18607TIP3   OH277311   2.719   3.892   3.981 -0.5749 -0.8550  0.0485
18607TIP3    H177312   2.713   3.850   4.066 -0.9375 -2.4537 -0.7426
18607TIP3    H277313   2.712   3.820   3.918 -0.4457  0.3086 -1.3315
18608TIP3   OH277314   3.768   3.573  14.322 -0.2424  0.1147  0.2123
18608TIP3    H177315   3.794   3.481  14.317 -1.0258 -0.0630 -0.5462
18608TIP3    H277316   3.851   3.621  14.317  0.2405 -0.5533  1.3415
18609TIP3   OH277317   3.359   5.975   2.014 -0.6651  0.2790 -0.0367
18609TIP3    H177318   3.440   6.004   1.971 -0.8684  0.2121 -0.4672
18609TIP3    H277319   3.383   5.966   2.106  0.3697 -1.8170 -0.4923
18610TIP3   OH277320   5.350   4.031  14.596 -0.0008 -0.3451  0.2364
18610TIP3    H177321   5.370   4.106  14.540 -1.6081 -0.1526 -0.1032
18610TIP3    H277322   5.398   4.047  14.677  0.8232  0.3156 -0.3786
18611TIP3   OH277323   2.162   1.117  12.916  0.2719 -0.0273  0.1924
18611TIP3    H177324   2.213   1.109  12.835  0.7241  1.2541  0.3439
18611TIP3    H277325   2.138   1.209  12.920 -1.2879 -0.4351  0.6057
18612TIP3   OH277326   1.852   0.855   2.345 -0.1539  0.3373 -0.5023
18612TIP3    H177327   1.903   0.918   2.395 -1.5654  1.4138 -0.3784
18612TIP3    H277328   1.812   0.907   2.275  1.0540 -0.9699 -2.2094
18613TIP3   OH277329   5.102   2.284   2.484  0.1297  0.5162 -0.3293
18613TIP3    H177330   5.106   2.334   2.403 -0.0494 -0.3880 -0.9119
18613TIP3    H277331   5.072   2.346   2.550  1.1635  1.4840 -0.7691
18614TIP3   OH277332   3.437   6.573   5.021 -0.3077  0.0700  0.0067
18614TIP3    H177333   3.506   6.552   4.958 -0.2747  1.7290 -0.5330
18614TIP3    H277334   3.373   6.624   4.971 -1.9403 -1.4605  0.4960
18615TIP3   OH277335   5.724   3.980   4.859  0.1385  0.4577 -0.8180
18615TIP3    H177336   5.693   3.910   4.917  1.1368  0.1443 -0.6492
18615TIP3    H277337   5.691   3.956   4.772  0.5182 -0.2629 -0.7695
18616TIP3   OH277338   2.657   2.255  13.154 -0.0270  0.3173  0.1119
18616TIP3    H177339   2.675   2.348  13.143 -2.6541  1.0027  1.3169
18616TIP3    H277340   2.637   2.245  13.247 -1.1107 -1.2121 -0.2689
18617TIP3   OH277341   1.765   3.423   6.324  0.3393  0.6140  0.2639
18617TIP3    H177342   1.848   3.465   6.300  0.8905 -0.6523 -0.0555
18617TIP3    H277343   1.790   3.346   6.374 -0.6919  0.8457  1.1663
18618TIP3   OH277344   2.068   5.239  14.302 -0.8398  0.2480  0.1569
18618TIP3    H177345   2.123   5.198  14.235 -1.8704  1.4299 -1.4376
18618TIP3    H277346   2.121   5.237  14.382  0.9947  0.2254 -1.0567
18619TIP3   OH277347   5.230   2.261  16.700 -0.1546  0.0152 -0.0159
18619TIP3    H177348   5.159   2.212  16.659 -0.1339  0.3472 -0.4553
18619TIP3    H277349   5.186   2.319  16.762 -0.2346 -0.0693  0.0061
18620TIP3   OH277350   2.174   3.548  16.242 -0.1426  0.0675  0.8222
18620TIP3    H177351   2.111   3.485  16.278 -0.3528 -0.9587 -1.2323
18620TIP3    H277352   2.257   3.502  16.245 -0.1924 -0.0942 -0.1371
18621TIP3   OH277353   4.004   5.127   2.118 -0.0291  0.2505  0.1663
18621TIP3    H177354   3.983   5.200   2.176 -1.7117  1.8882 -2.3757
18621TIP3    H277355   3.929   5.069   2.124  1.1260 -1.1196  1.8688
18622TIP3   OH277356   3.482   4.543  16.261  0.1044  0.2876 -0.4607
18622TIP3    H177357   3.494   4.631  16.226 -3.3879  0.6775 -0.8332
18622TIP3    H277358   3.441   4.557  16.346  0.4726 -0.9681 -0.0683
18623TIP3   OH277359   4.192   3.934  12.638 -0.1503 -0.3514  0.0870
18623TIP3    H177360   4.161   3.958  12.551  2.1766  0.4758 -0.5601
18623TIP3    H277361   4.116   3.947  12.695 -1.8537 -1.3841 -1.8657
18624TIP3   OH277362   5.367   6.009  12.829  0.4771  0.0802 -0.1447
18624TIP3    H177363   5.325   5.983  12.747 -0.9646  0.5726  0.4196
18624TIP3    H277364   5.454   6.039  12.803  0.4547 -0.8608 -1.3491
18625TIP3   OH277365   2.246   2.675  13.669  0.0092  0.4031 -0.3585
18625TIP3    H177366   2.331   2.690  13.628  0.8680  1.4298  1.7396
18625TIP3    H277367   2.245   2.582  13.689  1.9259  0.8888  2.2905
18626TIP3   OH277368   0.287   6.069   3.076  0.2029 -0.4283 -0.4481
18626TIP3    H177369   0.278   6.012   3.000  0.1877 -0.3088 -0.5375
18626TIP3    H277370   0.375   6.050   3.110  0.8368  0.6280 -1.4247
18627TIP3   OH277371   2.801   3.687   1.841  0.0736 -1.0331  0.4638
18627TIP3    H177372   2.808   3.686   1.936  2.2948 -0.0607  0.3424
18627TIP3    H277373   2.800   3.780   1.818 -1.2145 -1.2528 -0.4344
18628TIP3   OH277374   1.614   1.986   4.091  0.2576 -0.2283  0.5487
18628TIP3    H177375   1.650   2.001   4.004  1.3722  1.6021  1.2926
18628TIP3    H277376   1.529   1.944   4.075 -0.2234  1.4413 -1.4571
18629TIP3   OH277377   5.793   6.388  15.227 -0.7675  0.3737 -0.5987
18629TIP3    H177378   5.873   6.338  15.207 -1.6439 -1.7291  0.8959
18629TIP3    H277379   5.796   6.463  15.167  2.9593  1.0523  0.2865
18630TIP3   OH277380   2.943   3.709  13.492  0.2964 -0.0011 -0.1843
18630TIP3    H177381   3.037   3.711  13.474  0.5852 -2.4144  0.7749
18630TIP3    H277382   2.923   3.616  13.499 -1.7918  0.5369  1.4416
18631TIP3   OH277383   5.309   0.197  15.199  0.2303 -0.0929 -0.5850
18631TIP3    H177384   5.329   0.158  15.284 -1.0444 -2.0242 -1.1293
18631TIP3    H277385   5.376   0.264  15.186  2.4011 -1.9974  0.4645
18632TIP3   OH277386   0.367   3.022   0.943 -0.3996 -0.4170  0.0027
18632TIP3    H177387   0.325   2.959   1.001 -0.3846 -0.1988  0.2503
18632TIP3    H277388   0.332   3.107   0.969 -0.9608 -0.3937 -0.8001
18633TIP3   OH277389   4.539   3.939  11.890 -0.3557  0.6056 -0.5378
18633TIP3    H177390   4.591   4.015  11.864  0.1357  0.0478 -1.2070
18633TIP3    H277391   4.563   3.924  11.982  0.8171  0.2413 -0.8887
18634TIP3   OH277392   6.580   0.984  13.738 -0.0103  0.3543  0.2345
18634TIP3    H177393   6.644   0.913  13.747 -0.3066  0.0383 -0.1089
18634TIP3    H277394   6.498   0.939  13.716 -0.3385  0.7579  0.6249
18635TIP3   OH277395   0.138   1.545   0.262  0.0548 -1.1786 -0.8637
18635TIP3    H177396   0.185   1.626   0.246  1.4888 -1.7240  0.4422
18635TIP3    H277397   0.204   1.476   0.253 -0.4996 -1.9714  0.8931
18636TIP3   OH277398   4.557   5.620   4.431  1.0245  0.0067  0.3386
18636TIP3    H177399   4.549   5.525   4.436 -0.2136  0.1596  1.5961
18636TIP3    H277400   4.556   5.639   4.337  1.0970 -1.1920  0.0825
18637TIP3   OH277401   3.403   5.511  12.180  0.3668 -0.5116 -0.0953
18637TIP3    H177402   3.380   5.493  12.271  0.6613 -1.5212 -0.2110
18637TIP3    H277403   3.488   5.555  12.185  0.6516 -1.0819  0.0873
18638TIP3   OH277404   0.253   0.952   2.523 -0.2542  0.2055 -0.7369
18638TIP3    H177405   0.160   0.947   2.545  0.1721  0.9436  1.2533
18638TIP3    H277406   0.267   0.878   2.464 -1.5658 -1.4342  0.9565
18639TIP3   OH277407   1.858   4.334   1.599 -0.3942  0.3227 -0.0173
18639TIP3    H177408   1.771   4.332   1.560 -0.4896 -0.4385  0.2234
18639TIP3    H277409   1.917   4.310   1.528 -0.4426  0.2320 -0.0273
18640TIP3   OH277410   6.021   2.365  15.024 -0.3268  0.3645 -0.0826
18640TIP3    H177411   6.087   2.315  14.976 -1.5552 -1.6130  0.2549
18640TIP3    H277412   5.994   2.307  15.095 -1.0077  1.9331  0.9669
18641TIP3   OH277413   1.200   2.757  14.813 -0.4645 -0.8011  0.2491
18641TIP3    H177414   1.155   2.689  14.764 -1.0010 -0.0819 -0.2594
18641TIP3    H277415   1.242   2.711  14.886 -2.5998 -1.3625  1.1332
18642TIP3   OH277416   6.818   4.160  15.151  0.0954 -0.6973  0.3714
18642TIP3    H177417   6.812   4.254  15.169  1.3363 -0.7075  0.8755
18642TIP3    H277418   6.729   4.127  15.167 -0.7773  0.6574 -1.4556
18643TIP3   OH277419   6.556   4.723  12.088  0.4518  0.2758 -0.5910
18643TIP3    H177420   6.578   4.722  11.995  1.6771  0.0118 -0.3128
18643TIP3    H277421   6.616   4.787  12.127 -0.8446  1.2476 -0.1641
18644TIP3   OH277422   2.943   1.060  12.672 -0.0318  0.6701 -0.4135
18644TIP3    H177423   2.902   1.119  12.736 -2.9509  0.1968 -1.7617
18644TIP3    H277424   2.943   0.975  12.715 -0.7121  0.6276 -0.4875
18645TIP3   OH277425   5.729   5.324  14.630  0.4970 -0.2017 -0.2190
18645TIP3    H177426   5.727   5.290  14.719  0.5400 -0.6935 -0.4041
18645TIP3    H277427   5.668   5.268  14.582  1.1546 -0.5015 -0.7007
18646TIP3   OH277428   4.025   6.083  14.806  0.3585  0.6254  0.0677
18646TIP3    H177429   4.119   6.081  14.786  0.0186 -1.4715 -1.5020
18646TIP3    H277430   4.018   6.046  14.894  0.8754 -0.7428 -0.4578
18647TIP3   OH277431   0.909   3.416   2.904 -0.4556 -0.2819 -0.2520
18647TIP3    H177432   0.945   3.486   2.849 -0.3471 -1.5300 -1.8214
18647TIP3    H277433   0.816   3.436   2.911 -0.0696  1.1386  1.0434
18648TIP3   OH277434   4.234   1.175   0.727  0.2984 -0.0155 -0.4649
18648TIP3    H177435   4.252   1.165   0.820  0.3876 -0.2629 -0.5076
18648TIP3    H277436   4.289   1.108   0.685  0.8910  0.6503 -0.7548
18649TIP3   OH277437   6.084   2.375  11.026 -0.3122 -0.5403 -0.2528
18649TIP3    H177438   6.176   2.396  11.038 -0.4011  0.1398 -0.7195
18649TIP3    H277439   6.067   2.302  11.085 -0.2674  1.3894  2.2308
18650TIP3   OH277440   5.038   2.724   3.651 -0.0249  0.6559 -0.1776
18650TIP3    H177441   5.074   2.795   3.598  2.8562 -1.0221 -0.5283
18650TIP3    H277442   5.103   2.654   3.646 -1.3472 -0.8605  2.7306
18651TIP3   OH277443   0.100   5.944   3.214  0.1442  0.4533 -0.4531
18651TIP3    H177444   0.015   5.978   3.186 -0.2748 -0.5909 -0.5114
18651TIP3    H277445   0.164   5.995   3.166 -0.5348 -0.7736 -2.7612
18652TIP3   OH277446   6.461   3.097   0.943  0.0869  0.0910  0.0173
18652TIP3    H177447   6.445   3.148   1.022  1.3927 -0.3272  0.5682
18652TIP3    H277448   6.487   3.162   0.877  0.4073  0.2961  0.3417
18653TIP3   OH277449   5.130   4.938   4.495  0.2255  0.2625  0.3339
18653TIP3    H177450   5.199   4.934   4.428 -0.3347  0.1841 -0.2471
18653TIP3    H277451   5.175   4.915   4.576  0.8687  0.1154 -0.0529
18654TIP3   OH277452   6.060   4.956  14.980  0.5173 -0.1012 -0.0059
18654TIP3    H177453   6.017   5.042  14.979  0.7971  0.0835  1.8588
18654TIP3    H277454   5.989   4.893  14.971  0.1650  0.2927  0.0061
18655TIP3   OH277455   1.627   3.510   4.701 -0.0507 -0.0937 -0.1137
18655TIP3    H177456   1.533   3.520   4.690  0.1469  1.2146 -0.7660
18655TIP3    H277457   1.640   3.416   4.716 -1.6921  0.0553  2.5915
18656TIP3   OH277458   6.432   2.570   4.313 -0.7366  0.5741 -0.1126
18656TIP3    H177459   6.396   2.512   4.379 -0.2902  0.7393  0.2783
18656TIP3    H277460   6.527   2.555   4.316 -0.6074  1.4053  0.0744
18657TIP3   OH277461   1.809   2.234   1.452  0.2195  0.5000  0.5911
18657TIP3    H177462   1.855   2.259   1.532  0.3553 -1.3611  1.1148
18657TIP3    H277463   1.803   2.139   1.457 -0.4247  0.4334 -1.2642
18658TIP3   OH277464   3.126   6.425  12.109  0.9693 -0.1573 -0.3762
18658TIP3    H177465   3.209   6.408  12.064  0.5082  1.6259 -1.9353
18658TIP3    H277466   3.142   6.506  12.158 -0.0956  0.6545 -1.3476
18659TIP3   OH277467   5.026   2.076   1.099  0.4045  0.2811 -0.0483
18659TIP3    H177468   5.099   2.135   1.122 -0.3441  1.5825 -0.9620
18659TIP3    H277469   5.003   2.034   1.182 -0.3473  2.7556  1.0610
18660TIP3   OH277470   6.227   3.991  12.905 -0.2773 -0.1772 -0.6204
18660TIP3    H177471   6.280   4.053  12.855  2.8236 -1.6566  0.6486
18660TIP3    H277472   6.216   3.916  12.845  0.3068 -0.4404 -0.4067
18661TIP3   OH277473   4.920   1.118   4.892  0.5570  0.3282  0.5480
18661TIP3    H177474   5.010   1.089   4.911  0.8250  0.3212 -0.6983
18661TIP3    H277475   4.873   1.038   4.873  1.0680  0.5691 -1.9495
18662TIP3   OH277476   0.618   4.813  16.635  0.3891 -0.5440 -0.0324
18662TIP3    H177477   0.566   4.892  16.647  1.4225  0.1586 -0.0773
18662TIP3    H277478   0.584   4.773  16.555  1.9173  1.5393 -1.7970
18663TIP3   OH277479   3.435   1.300   2.133  0.2395 -0.2707  0.0259
18663TIP3    H177480   3.495   1.284   2.206  2.2257  1.1856 -1.2318
18663TIP3    H277481   3.404   1.390   2.146 -1.2329 -0.7983  0.3191
18664TIP3   OH277482   0.834   4.099  11.876 -0.2202  0.4507  0.1013
18664TIP3    H177483   0.759   4.150  11.847  1.9843  3.7137 -0.1383
18664TIP3    H277484   0.834   4.022  11.819 -3.4788  0.2606  0.3007
18665TIP3   OH277485   0.837   6.467   5.405 -0.5592 -0.0192 -0.1371
18665TIP3    H177486   0.909   6.514   5.447 -0.1680  0.9110 -1.7895
18665TIP3    H277487   0.802   6.411   5.473  0.9794  0.3905  1.0240
18666TIP3   OH277488   6.604   2.282  15.192  0.2716  0.1077  0.3347
18666TIP3    H177489   6.525   2.333  15.207  0.9672  1.3276 -0.0370
18666TIP3    H277490   6.675   2.340  15.219  1.0180 -1.2015  1.2711
18667TIP3   OH277491   3.622   0.990  13.197 -0.3052 -0.2406 -0.3980
18667TIP3    H177492   3.654   1.049  13.265  0.7342 -0.6749 -0.4835
18667TIP3    H277493   3.565   0.929  13.244  0.0986 -0.3027  0.0287
18668TIP3   OH277494   2.743   6.276  13.084 -0.3534 -0.0862 -0.0951
18668TIP3    H177495   2.719   6.337  13.014  0.5275 -1.1809 -1.3688
18668TIP3    H277496   2.668   6.217  13.090  0.0423 -0.6859 -0.9140
18669TIP3   OH277497   1.445   0.990  17.184 -0.1016  0.0787 -0.1362
18669TIP3    H177498   1.437   0.994  17.089 -2.6214 -4.0727 -0.1942
18669TIP3    H277499   1.362   1.025  17.216  0.1804  0.1389  0.5371
18670TIP3   OH277500   4.598   1.235  16.685 -0.2365 -0.0903 -0.1190
18670TIP3    H177501   4.513   1.192  16.673 -0.3514  0.1375 -0.1209
18670TIP3    H277502   4.595   1.269  16.775  0.2256 -0.9049  0.2049
18671TIP3   OH277503   6.450   6.220   4.833 -0.0818 -0.0440  0.0820
18671TIP3    H177504   6.531   6.192   4.875  0.0015 -0.1288 -0.1306
18671TIP3    H277505   6.475   6.238   4.742 -0.5998 -1.5021 -0.3611
18672TIP3   OH277506   6.005   0.962   5.212  0.6315 -0.7845  0.3195
18672TIP3    H177507   5.977   0.954   5.303  0.1213 -0.1387  0.2249
18672TIP3    H277508   5.982   1.051   5.187  0.9900 -0.8751 -0.3704
18673TIP3   OH277509   6.509   4.163   4.004  0.6117  0.5048  0.0145
18673TIP3    H177510   6.500   4.159   4.099  1.2361 -2.3283  0.0078
18673TIP3    H277511   6.603   4.163   3.988  0.5643 -2.3778 -0.6233
18674TIP3   OH277512   5.712   6.188  13.972  0.3502  0.8812  0.5783
18674TIP3    H177513   5.662   6.231  13.902  0.9765 -0.8341 -0.9614
18674TIP3    H277514   5.645   6.142  14.023  0.1784 -0.4168 -0.7637
18675TIP3   OH277515   0.557   1.189  13.866  0.6091 -0.0681 -0.6117
18675TIP3    H177516   0.481   1.239  13.895  0.1936 -1.0172 -0.0462
18675TIP3    H277517   0.538   1.167  13.775 -0.9172 -2.3676  0.2225
18676TIP3   OH277518   5.687   0.403   2.415  0.0739  0.0060  0.1504
18676TIP3    H177519   5.602   0.389   2.373  0.6791 -1.4633 -0.6035
18676TIP3    H277520   5.693   0.498   2.425 -0.5036  0.3315 -2.2763
18677TIP3   OH277521   5.582   2.195  11.071  0.1197 -0.1066 -0.0514
18677TIP3    H177522   5.563   2.255  10.998  0.0055  1.2152  1.0588
18677TIP3    H277523   5.572   2.108  11.033  1.7298  0.5428 -2.0901
18678TIP3   OH277524   4.355   2.202  12.502  0.3892 -0.1104  0.0560
18678TIP3    H177525   4.272   2.157  12.515  0.2147 -0.4217 -2.0069
18678TIP3    H277526   4.401   2.193  12.586 -1.7129  0.2235  1.2621
18679TIP3   OH277527   5.086   1.944  11.585 -0.2547  0.3399  0.1345
18679TIP3    H177528   5.150   2.015  11.583  0.4781 -0.2678  1.5555
18679TIP3    H277529   5.106   1.892  11.507 -0.8982  1.7705 -0.9987
18680TIP3   OH277530   5.851   1.435   0.049  0.4698  0.1768 -0.0276
18680TIP3    H177531   5.768   1.455   0.093 -0.0812  3.7988 -2.5493
18680TIP3    H277532   5.918   1.468   0.109 -0.1269  1.7949 -0.2288
18681TIP3   OH277533   2.739   0.275  12.334 -0.6339  0.2008 -0.0827
18681TIP3    H177534   2.728   0.197  12.388  0.6612  0.2323  0.2451
18681TIP3    H277535   2.686   0.342  12.378  0.1470  0.1379  0.9776
18682TIP3   OH277536   1.027   4.199   3.330  0.2195  0.4132  0.0302
18682TIP3    H177537   1.039   4.193   3.425  0.6694 -0.6919 -0.0812
18682TIP3    H277538   0.939   4.236   3.318  0.3551  1.0076  0.8733
18683TIP3   OH277539   5.186   0.394   5.225 -0.3789 -0.3864 -0.5195
18683TIP3    H177540   5.258   0.419   5.282 -0.1058 -0.1604 -0.9552
18683TIP3    H277541   5.111   0.443   5.258 -0.8273 -2.1874  1.2004
18684TIP3   OH277542   5.797   6.652  15.547  0.6147 -0.0246 -0.9377
18684TIP3    H177543   5.721   6.598  15.569  2.1931 -2.2549 -0.7928
18684TIP3    H277544   5.804   6.714  15.620  1.7267 -2.9168  1.5248
18685TIP3   OH277545   0.768   5.046   3.145 -0.1767  0.0182  0.0007
18685TIP3    H177546   0.692   5.059   3.202 -0.5341 -0.3879 -0.3781
18685TIP3    H277547   0.809   4.966   3.177 -0.0766  0.0746  0.0146
18686TIP3   OH277548   6.190   5.161  11.117  1.1379  0.3181  0.0898
18686TIP3    H177549   6.111   5.215  11.118  1.7024  1.1606 -0.1356
18686TIP3    H277550   6.258   5.219  11.151  1.5918 -0.5158  0.6313
18687TIP3   OH277551   3.465   5.515   4.941 -0.4287  0.2042 -0.2919
18687TIP3    H177552   3.454   5.444   5.004 -0.7601  0.2979 -0.2422
18687TIP3    H277553   3.543   5.492   4.891 -0.5598 -0.2170 -0.3034
18688TIP3   OH277554   5.077   3.291   0.524 -0.2578 -0.0402 -0.1062
18688TIP3    H177555   5.073   3.337   0.608  1.8926  1.4075 -0.7456
18688TIP3    H277556   5.052   3.357   0.460 -0.5242 -0.7473 -0.7364
18689TIP3   OH277557   0.186   0.325   0.994  0.1791 -0.2179  0.4602
18689TIP3    H177558   0.262   0.321   1.053 -0.2612 -1.0871  0.9767
18689TIP3    H277559   0.162   0.418   0.993 -0.0083 -0.2323  1.9284
18690TIP3   OH277560   1.227   2.348  16.618  0.2205 -0.1309 -0.0879
18690TIP3    H177561   1.160   2.337  16.550  2.0432  0.0974 -1.9620
18690TIP3    H277562   1.310   2.350  16.570  1.7861 -2.6508  2.3773
18691TIP3   OH277563   5.313   0.008   3.733 -0.2530 -0.2056  0.2125
18691TIP3    H177564   5.397   0.054   3.736 -0.5888  0.3055  3.3760
18691TIP3    H277565   5.324  -0.058   3.665  1.6717  1.8018 -1.5214
18692TIP3   OH277566   3.060   6.020  13.204  0.4553  0.1211  0.1341
18692TIP3    H177567   2.972   6.052  13.225 -0.0785 -0.5380 -1.0451
18692TIP3    H277568   3.069   6.033  13.109  1.7118  0.3849  0.2766
18693TIP3   OH277569   6.774   0.530   2.177  0.9579 -0.2324 -0.5606
18693TIP3    H177570   6.750   0.595   2.243 -1.7099 -0.4784 -1.2458
18693TIP3    H277571   6.816   0.459   2.228 -0.0554  0.0746  0.7342
18694TIP3   OH277572   0.610   3.479   3.240 -0.0505  0.3904  0.1665
18694TIP3    H177573   0.624   3.391   3.274 -0.6473  0.4961  0.7110
18694TIP3    H277574   0.587   3.531   3.317  0.5459  1.0814 -0.1097
18695TIP3   OH277575   2.536   2.613   2.031 -0.2166  0.3311 -0.2341
18695TIP3    H177576   2.442   2.599   2.018 -0.3485  0.3341  0.6861
18695TIP3    H277577   2.578   2.551   1.972 -0.7901  0.6669 -1.0164
18696TIP3   OH277578   0.349   6.681   2.523  0.0738 -0.1914  0.4414
18696TIP3    H177579   0.421   6.723   2.570 -1.3773  2.0747  0.6973
18696TIP3    H277580   0.282   6.665   2.590 -0.1616 -1.1668 -0.0173
18697TIP3   OH277581   4.748   6.209   1.964  0.0594  0.0396  0.4858
18697TIP3    H177582   4.741   6.299   1.930  0.6362  0.7628  2.2152
18697TIP3    H277583   4.842   6.191   1.964 -0.0635 -0.6109  0.0336
18698TIP3   OH277584   0.593   6.789   2.663 -0.1519  0.3256 -0.3767
18698TIP3    H177585   0.592   6.838   2.581  1.1801  0.4220 -0.3430
18698TIP3    H277586   0.684   6.759   2.672  0.0770  1.5787  1.8113
18699TIP3   OH277587   0.059   6.463   4.556 -0.1958  0.1378 -0.3976
18699TIP3    H177588   0.080   6.541   4.606 -1.0354 -1.4034  2.4435
18699TIP3    H277589  -0.036   6.467   4.544 -0.5155 -1.3573  1.4162
18700TIP3   OH277590   2.250   4.205   3.071 -0.2941  0.5724 -0.1037
18700TIP3    H177591   2.287   4.267   3.134 -2.1822 -0.4071  2.0096
18700TIP3    H277592   2.312   4.132   3.070 -0.7157  0.1810  1.3288
18701TIP3   OH277593   0.958   3.630   5.511  0.0931  0.1127 -0.2546
18701TIP3    H177594   0.883   3.684   5.488  1.0997  1.6164 -0.0762
18701TIP3    H277595   0.976   3.578   5.433 -0.0408  1.0422 -0.9060
18702TIP3   OH277596   2.398   6.257   5.402 -0.2493 -0.2655  0.4681
18702TIP3    H177597   2.455   6.243   5.478  0.2906 -0.4115  0.0465
18702TIP3    H277598   2.450   6.313   5.344 -0.7653  0.0654  0.3263
18703TIP3   OH277599   3.621   6.316   6.386  0.2775 -0.0680 -0.4726
18703TIP3    H177600   3.609   6.360   6.470 -0.0135  0.2220 -0.6684
18703TIP3    H277601   3.547   6.256   6.379 -0.1113  0.4639 -0.8781
18704TIP3   OH277602   2.963   2.361   5.721  0.6070 -0.4296 -0.1364
18704TIP3    H177603   2.989   2.351   5.812  0.0309  1.9183  0.3195
18704TIP3    H277604   2.973   2.454   5.703 -0.3260 -0.6869 -2.1484
18705TIP3   OH277605   6.592   6.371   1.209 -0.2684 -0.5818  0.2941
18705TIP3    H177606   6.547   6.338   1.131 -2.1123  0.0266  1.0491
18705TIP3    H277607   6.620   6.459   1.185  0.7522 -1.0681 -0.2768
18706TIP3   OH277608   3.415   4.350  16.686 -0.1499  0.4162 -0.1798
18706TIP3    H177609   3.449   4.368  16.774  0.4605 -0.5083 -0.2160
18706TIP3    H277610   3.450   4.421  16.632 -1.6320  1.7503  0.5660
18707TIP3   OH277611   0.818   6.078  14.980  0.3206  0.2911 -0.3746
18707TIP3    H177612   0.878   6.096  14.908  0.7956  0.3551  0.0306
18707TIP3    H277613   0.870   6.027  15.043 -0.1386  0.0842 -0.1590
18708TIP3   OH277614   0.575   3.473   4.014  0.1433 -0.0523 -0.4517
18708TIP3    H177615   0.534   3.387   4.002 -2.5508  0.8829  1.7440
18708TIP3    H277616   0.647   3.456   4.075  0.2457 -0.9070 -0.7947
18709TIP3   OH277617   6.390   0.337  13.467 -0.2212  0.0988 -0.1876
18709TIP3    H177618   6.390   0.310  13.559 -0.5515  0.7021 -0.0089
18709TIP3    H277619   6.470   0.300  13.431 -0.8238 -1.3922 -0.0295
18710TIP3   OH277620   6.216   6.515  14.861  0.3288  0.4835 -0.4286
18710TIP3    H177621   6.157   6.441  14.872 -0.1167  1.0831  1.4762
18710TIP3    H277622   6.177   6.585  14.914  2.1810  1.2191  0.0273
18711TIP3   OH277623   0.816   3.965  10.651 -0.0871  0.2866  0.0492
18711TIP3    H177624   0.852   3.900  10.711 -1.5178 -0.7970 -0.2589
18711TIP3    H277625   0.892   3.998  10.603  0.6310 -1.2493  0.1114
18712TIP3   OH277626   2.486   5.798   4.207  0.5225  0.3745  0.4624
18712TIP3    H177627   2.471   5.885   4.170  0.4308  0.5527  0.9108
18712TIP3    H277628   2.480   5.738   4.133 -1.5379  0.5295  0.4937
18713TIP3   OH277629   5.707   3.395   1.098  0.0140  0.0516 -0.0012
18713TIP3    H177630   5.644   3.361   1.161  0.5439 -0.7004  0.1240
18713TIP3    H277631   5.689   3.489   1.095 -0.6459 -0.0542  0.5583
18714TIP3   OH277632   1.046   1.586  16.361 -0.7358 -0.3583 -0.8835
18714TIP3    H177633   1.042   1.669  16.315  1.2770 -0.3939 -1.1388
18714TIP3    H277634   1.096   1.605  16.441 -0.8888 -1.1581 -0.5878
18715TIP3   OH277635   3.279   6.416  14.044  1.0290 -0.2380 -0.8725
18715TIP3    H177636   3.227   6.341  14.073  1.0657  0.4038  0.9130
18715TIP3    H277637   3.241   6.491  14.088  2.4184  0.4819 -0.8575
18716TIP3   OH277638   2.604   3.898  10.612  0.0782 -0.5469 -0.1654
18716TIP3    H177639   2.653   3.897  10.529  0.8463  0.0572  0.2729
18716TIP3    H277640   2.669   3.925  10.677 -0.9673  0.7391  0.3530
18717TIP3   OH277641   5.955   5.254  15.092  0.1882 -0.5175 -0.1203
18717TIP3    H177642   5.943   5.271  15.186 -1.9885 -3.1888  0.1449
18717TIP3    H277643   5.868   5.266  15.054  1.0480  0.4824 -1.8246
18718TIP3   OH277644   6.594   4.487  12.387 -0.2990  0.1324  0.1569
18718TIP3    H177645   6.568   4.552  12.453  1.1818 -0.6860  1.5840
18718TIP3    H277646   6.686   4.470  12.406 -0.9913 -3.3336  0.6629
18719TIP3   OH277647   6.770   0.516  13.992  0.5121 -0.1630 -0.0425
18719TIP3    H177648   6.677   0.500  14.001  0.4880  0.6982  1.3528
18719TIP3    H277649   6.802   0.444  13.938 -1.1426  0.1565 -1.5094
18720TIP3   OH277650   6.397   4.111  13.892 -0.3245 -1.1072 -0.4100
18720TIP3    H177651   6.444   4.195  13.881 -1.9837 -0.3746 -2.2907
18720TIP3    H277652   6.439   4.070  13.967  2.1241  0.3525 -0.9023
18721TIP3   OH277653   4.359   1.533  12.583  0.0515 -0.5856  0.2542
18721TIP3    H177654   4.282   1.522  12.526  0.5637 -1.0612 -0.3530
18721TIP3    H277655   4.387   1.444  12.603 -0.3006 -0.4207  1.5100
18722TIP3   OH277656   2.800   4.903   4.359 -0.1205  0.3041 -0.0990
18722TIP3    H177657   2.735   4.913   4.290  1.1327 -1.4072 -1.5888
18722TIP3    H277658   2.751   4.870   4.434 -1.1543  0.2021 -0.8158
18723TIP3   OH277659   2.459   5.684  12.791 -0.3721 -0.6190 -0.5574
18723TIP3    H177660   2.371   5.720  12.799 -0.3177 -0.8377  1.3904
18723TIP3    H277661   2.465   5.621  12.863  0.5992 -2.2553 -2.0347
18724TIP3   OH277662   3.814   0.682   3.985  0.0427  0.1188 -0.6113
18724TIP3    H177663   3.893   0.656   3.937  0.4498 -1.6035  0.9535
18724TIP3    H277664   3.847   0.731   4.060 -0.2841 -1.3786  0.5431
18725TIP3   OH277665   4.384   4.209  10.822 -0.1817 -0.3715 -0.0428
18725TIP3    H177666   4.352   4.135  10.771 -1.5079  0.0398  0.1864
18725TIP3    H277667   4.340   4.285  10.785  0.1344  0.1383  0.6128
18726TIP3   OH277668   0.796   2.238   2.914  0.4141  0.1029 -0.2798
18726TIP3    H177669   0.794   2.290   2.995 -0.0369 -0.4801  0.0897
18726TIP3    H277670   0.711   2.252   2.874 -0.2898 -1.5663  0.6036
18727TIP3   OH277671   6.132   3.501   3.137 -0.1185 -0.1095  0.1850
18727TIP3    H177672   6.124   3.595   3.153 -0.4767 -0.0646 -0.2476
18727TIP3    H277673   6.217   3.490   3.096  0.1190 -0.0289  0.6573
18728TIP3   OH277674   3.096   0.178  12.942 -0.3925 -0.1438  0.5596
18728TIP3    H177675   3.044   0.251  12.977  0.1844  0.4696  0.1552
18728TIP3    H277676   3.065   0.168  12.852 -0.1035 -0.0578  0.4512
18729TIP3   OH277677   3.067   2.754   5.339  0.3996 -0.2992 -0.8750
18729TIP3    H177678   2.995   2.705   5.300 -0.2113  0.2246 -0.4038
18729TIP3    H277679   3.146   2.714   5.301 -0.1134 -1.1778 -1.0341
18730TIP3   OH277680   5.049   2.851  13.432 -0.1160 -0.6309  0.1217
18730TIP3    H177681   5.039   2.757  13.415 -0.5098 -0.7560  0.9999
18730TIP3    H277682   5.128   2.876  13.384 -0.0423 -1.3979 -0.1675
18731TIP3   OH277683   4.006   2.181   1.712 -0.1914  0.6858 -0.4441
18731TIP3    H177684   3.999   2.094   1.750  1.0059 -0.5852 -3.0012
18731TIP3    H277685   4.099   2.204   1.723 -0.8575  2.4217  1.8175
18732TIP3   OH277686   2.859   6.207   0.553  0.3335 -0.6137  0.0354
18732TIP3    H177687   2.766   6.195   0.532  0.2525 -1.3566  0.7871
18732TIP3    H277688   2.879   6.136   0.614  1.3939 -0.4458 -0.1077
18733TIP3   OH277689   5.017   0.754  13.647  0.2784 -0.8057 -0.5544
18733TIP3    H177690   5.111   0.743  13.660  0.2036  0.3671  1.0211
18733TIP3    H277691   4.978   0.715  13.725 -0.3696  2.2498  0.6902
18734TIP3   OH277692   0.845   0.127  13.770  0.7665 -0.3118  0.0471
18734TIP3    H177693   0.881   0.216  13.778 -1.3206  0.7814 -1.9714
18734TIP3    H277694   0.912   0.080  13.721  2.5463 -0.2968  2.3804
18735TIP3   OH277695   1.938   4.965   1.299 -0.2680 -0.1751  0.1303
18735TIP3    H177696   1.914   5.056   1.283  0.3671 -0.4775 -2.8301
18735TIP3    H277697   1.888   4.916   1.233  1.6586 -1.6407 -0.2646
18736TIP3   OH277698   4.479   5.360   4.484 -0.5375 -0.0376 -0.2545
18736TIP3    H177699   4.567   5.323   4.476 -0.3285  0.1069  1.2496
18736TIP3    H277700   4.430   5.323   4.410  0.7787 -0.1322 -1.0792
18737TIP3   OH277701   1.618   5.934   1.923  0.0372  0.2047 -0.0291
18737TIP3    H177702   1.549   5.931   1.857  0.7298 -0.2415 -0.7482
18737TIP3    H277703   1.674   6.007   1.897  1.0841 -0.8216 -0.7436
18738TIP3   OH277704   6.342   3.037  10.941  0.2900 -0.2697 -0.4141
18738TIP3    H177705   6.411   3.056  10.877  0.2859 -0.1890 -0.3945
18738TIP3    H277706   6.388   3.003  11.017  0.3096 -0.1803 -0.3868
18739TIP3   OH277707   0.621   5.517   2.930 -0.0833 -0.6291 -0.3949
18739TIP3    H177708   0.565   5.440   2.943 -0.5811 -0.3046 -0.5823
18739TIP3    H277709   0.709   5.482   2.921 -0.3715 -1.2132 -0.9781
18740TIP3   OH277710   4.771   5.670   4.953  0.2884 -0.4440 -0.0378
18740TIP3    H177711   4.775   5.761   4.981  0.9800 -0.3884 -0.3311
18740TIP3    H277712   4.766   5.674   4.858 -0.6664 -0.6834 -0.0042
18741TIP3   OH277713   3.601   4.883  11.290 -0.2353  0.1154  0.0713
18741TIP3    H177714   3.601   4.910  11.198  2.0339  0.4729  0.1253
18741TIP3    H277715   3.605   4.788  11.287 -0.9315  0.0938 -0.1986
18742TIP3   OH277716   6.288   3.590   2.245  0.5563  0.3896 -0.1109
18742TIP3    H177717   6.318   3.499   2.248 -0.0701  0.1755 -0.3718
18742TIP3    H277718   6.317   3.628   2.328  1.5836  0.1940 -0.3707
18743TIP3   OH277719   0.067   2.753   0.058 -0.5088 -0.5770 -0.3294
18743TIP3    H177720   0.058   2.747  -0.037  1.0155  2.1137 -0.6955
18743TIP3    H277721   0.026   2.837   0.080  0.8616 -0.2834  1.1548
18744TIP3   OH277722   2.634   5.445  15.759  0.0600 -0.3533  0.0103
18744TIP3    H177723   2.672   5.358  15.772 -0.8493 -0.7525  0.0016
18744TIP3    H277724   2.547   5.440  15.798  1.1429  1.4853  2.8604
18745TIP3   OH277725   6.716   1.643   2.194  0.5079 -0.8217 -0.5790
18745TIP3    H177726   6.785   1.649   2.261 -0.4195 -1.1851  0.4139
18745TIP3    H277727   6.707   1.733   2.162  0.5417 -0.5337  0.2076
18746TIP3   OH277728   0.792   0.834   2.340  0.0249  0.3077 -0.0311
18746TIP3    H177729   0.845   0.913   2.342  0.7843 -0.1920 -0.3027
18746TIP3    H277730   0.838   0.773   2.397 -0.0765 -0.2387 -0.5313
18747TIP3   OH277731   0.176   4.353   5.076  0.5490 -0.2535  0.2970
18747TIP3    H177732   0.269   4.332   5.077  0.1332 -2.1848  0.3632
18747TIP3    H277733   0.135   4.283   5.127 -0.9622  0.4513  0.0813
18748TIP3   OH277734   0.497   5.515  14.585  0.5403  0.1077 -0.1480
18748TIP3    H177735   0.455   5.452  14.527 -0.6880 -1.4934  2.3704
18748TIP3    H277736   0.569   5.551  14.534 -0.8533 -0.7948 -2.8364
18749TIP3   OH277737   0.337   0.524   4.544  0.3356  0.3762 -0.3851
18749TIP3    H177738   0.294   0.578   4.610  0.3281  1.3274 -1.1490
18749TIP3    H277739   0.418   0.496   4.585  0.6708  1.5452 -0.2191
18750TIP3   OH277740   1.607   5.014  13.250 -0.2131 -0.2142  0.2386
18750TIP3    H177741   1.647   5.094  13.215  0.9983 -0.1357  1.7356
18750TIP3    H277742   1.678   4.950  13.251 -0.7311 -0.7891  0.6791
18751TIP3   OH277743   4.279   2.677   2.101  0.1965 -0.2722  0.9155
18751TIP3    H177744   4.266   2.651   2.192  2.4097 -1.9635  0.7900
18751TIP3    H277745   4.206   2.639   2.054  1.0621 -2.6355  1.4320
18752TIP3   OH277746   3.127   3.539   3.097  0.2030 -1.0943  0.4441
18752TIP3    H177747   3.205   3.506   3.140  0.1081 -1.4143  0.3711
18752TIP3    H277748   3.160   3.600   3.031  0.5069 -2.7460 -0.9614
18753TIP3   OH277749   1.644   2.550  14.577  0.2806 -0.2264 -0.3964
18753TIP3    H177750   1.609   2.638  14.562 -0.5656 -0.5607 -0.4147
18753TIP3    H277751   1.611   2.525  14.663  2.4781  0.4039  0.6766
18754TIP3   OH277752   6.391   6.354  14.249  0.2912 -0.4119  0.5698
18754TIP3    H177753   6.373   6.304  14.170  1.1601 -2.5887  1.7067
18754TIP3    H277754   6.388   6.445  14.221 -0.7890 -1.1053 -1.6655
18755TIP3   OH277755   6.108   3.812   3.028  0.5291 -0.5502  0.1553
18755TIP3    H177756   6.037   3.815   3.092 -1.3747  0.3173 -1.9372
18755TIP3    H277757   6.113   3.901   2.993  1.2245 -1.1176 -1.2403
18756TIP3   OH277758   2.282   2.457   3.489  0.0294  0.3328 -0.2462
18756TIP3    H177759   2.347   2.524   3.509 -0.9899  1.1011  0.5900
18756TIP3    H277760   2.333   2.380   3.462  1.2843  0.7623  0.8514
18757TIP3   OH277761   0.260   5.299  17.168  0.4758  0.2579  0.1531
18757TIP3    H177762   0.325   5.360  17.203  0.9040  0.4207 -0.9205
18757TIP3    H277763   0.290   5.281  17.079 -1.1767  0.6315 -0.4854
18758TIP3   OH277764   3.643   5.654  17.029  0.5516 -0.5311  0.2890
18758TIP3    H177765   3.582   5.720  17.063 -0.6060 -1.2265 -0.4078
18758TIP3    H277766   3.717   5.705  16.995  1.2437  0.2241  2.8508
18759TIP3   OH277767   4.584   3.755  13.536 -0.5638 -0.0346  0.2441
18759TIP3    H177768   4.603   3.844  13.566  2.6280 -0.4794 -0.3468
18759TIP3    H277769   4.571   3.763  13.441  1.0799 -0.3941 -0.0163
18760TIP3   OH277770   0.726   5.585  14.465  0.1832  0.1762  0.3383
18760TIP3    H177771   0.751   5.673  14.437  0.0148 -0.3624 -1.5679
18760TIP3    H277772   0.807   5.535  14.460  0.2469  0.1766  1.2790
18761TIP3   OH277773   3.768   4.215   1.027 -0.1496  0.2824  0.4291
18761TIP3    H177774   3.814   4.186   0.948 -1.7606 -0.3886 -0.3012
18761TIP3    H277775   3.837   4.225   1.093  1.0948 -0.1563 -0.7733
18762TIP3   OH277776   1.235   2.028  11.322  0.1501 -0.1870 -0.2307
18762TIP3    H177777   1.277   2.011  11.406  0.3637  1.6496  0.0419
18762TIP3    H277778   1.281   1.972  11.260 -1.1997 -2.9508  1.1546
18763TIP3   OH277779   4.443   5.959  14.593  0.3854  0.0679  0.0150
18763TIP3    H177780   4.467   6.048  14.565  0.6472 -0.8703 -2.9315
18763TIP3    H277781   4.462   5.904  14.517 -2.7927 -2.0386  0.6294
18764TIP3   OH277782   4.000   4.531  11.285  0.3166 -0.0904 -0.6292
18764TIP3    H177783   4.062   4.465  11.319 -1.9099 -1.7080  0.4030
18764TIP3    H277784   4.016   4.533  11.191  2.8145  0.4622 -0.2356
18765TIP3   OH277785   6.017   1.116  12.032 -0.2842 -0.2433 -0.2062
18765TIP3    H177786   5.966   1.195  12.051  0.5731 -0.0298  1.2067
18765TIP3    H277787   5.957   1.044  12.050 -0.0644  0.0057  1.5531
18766TIP3   OH277788   2.084   0.686   4.336  0.6033  0.4551  0.1445
18766TIP3    H177789   2.133   0.623   4.282 -0.4164  0.3779 -0.7126
18766TIP3    H277790   2.099   0.658   4.426  1.7404  0.1443 -0.1390
18767TIP3   OH277791   3.388   6.615  15.640 -0.1443  0.2382  0.3293
18767TIP3    H177792   3.431   6.529  15.630  0.1108  0.3696  0.2884
18767TIP3    H277793   3.460   6.674  15.662 -0.1173  0.6975 -0.9513
18768TIP3   OH277794   1.667   5.089   1.533 -0.3103 -0.1286 -0.0112
18768TIP3    H177795   1.704   5.003   1.551  3.1957  0.6870 -2.7341
18768TIP3    H277796   1.658   5.130   1.619 -1.7937 -3.0631  1.2909
18769TIP3   OH277797   4.413   6.528  12.906  0.2049  0.0628 -0.1189
18769TIP3    H177798   4.320   6.507  12.910  0.0137  0.7343 -0.8679
18769TIP3    H277799   4.452   6.459  12.852 -0.2761  1.1353 -1.8632
18770TIP3   OH277800   3.525   6.256  11.329  0.3140 -0.2553  0.0550
18770TIP3    H177801   3.528   6.164  11.356 -0.2439 -0.0375  0.8688
18770TIP3    H277802   3.447   6.262  11.274 -0.0415 -0.1244  0.5655
18771TIP3   OH277803   4.384   0.994   6.106 -0.0971  0.3407  0.1243
18771TIP3    H177804   4.296   0.956   6.096  0.6599 -1.3271 -0.4453
18771TIP3    H277805   4.382   1.037   6.191 -0.8567 -1.4556  1.0512
18772TIP3   OH277806   3.119   4.879   4.554  0.1841 -0.0974 -0.0707
18772TIP3    H177807   3.066   4.856   4.478 -0.6342  0.1018  0.4338
18772TIP3    H277808   3.057   4.880   4.627  0.8195  0.4668  0.4651
18773TIP3   OH277809   0.678   5.864  12.924 -0.1639 -0.3504 -0.4910
18773TIP3    H177810   0.670   5.955  12.897  0.1630  0.3961  1.8186
18773TIP3    H277811   0.600   5.847  12.976  0.1944 -1.1355 -0.1924
18774TIP3   OH277812   6.562   6.053   2.126 -0.2375  0.2595  0.4085
18774TIP3    H177813   6.560   6.137   2.081  0.6793  1.0650  1.8445
18774TIP3    H277814   6.470   6.028   2.135 -0.5317  1.3313  0.3946
18775TIP3   OH277815   1.009   1.777   3.604 -0.1872  0.1385  0.0951
18775TIP3    H177816   1.101   1.760   3.623  0.8871  1.0346 -3.7648
18775TIP3    H277817   0.963   1.700   3.638  1.8675 -0.0033  2.6963
18776TIP3   OH277818   3.484   1.025   6.122  0.1075 -0.4329  0.4023
18776TIP3    H177819   3.402   1.065   6.153  0.4790  2.2088 -1.8037
18776TIP3    H277820   3.456   0.952   6.068 -0.9072  1.5223 -1.7746
18777TIP3   OH277821   0.423   1.496   0.107 -0.5032  0.0198 -0.6054
18777TIP3    H177822   0.360   1.510   0.036  0.6248  1.5294 -1.3437
18777TIP3    H277823   0.473   1.419   0.079 -0.4529  0.2493 -1.1593
18778TIP3   OH277824   6.262   3.128  16.851  0.2809  0.5124  0.4155
18778TIP3    H177825   6.180   3.129  16.801  0.3483 -0.3458  0.2723
18778TIP3    H277826   6.329   3.151  16.787  0.3311 -0.2994  0.1645
18779TIP3   OH277827   3.447   3.826  15.769  0.4238 -0.3924 -0.4243
18779TIP3    H177828   3.375   3.887  15.788 -0.2509 -0.9227 -1.2741
18779TIP3    H277829   3.404   3.746  15.740  1.3304 -1.0826  0.1024
18780TIP3   OH277830   6.127   4.965  10.916  0.3021  0.2463  0.4846
18780TIP3    H177831   6.177   5.035  10.957  0.8653  0.3222 -0.3184
18780TIP3    H277832   6.055   4.948  10.976  1.7087 -0.3884  2.0497
18781TIP3   OH277833   5.716   4.012   3.458 -0.1028  0.2677  0.2109
18781TIP3    H177834   5.668   4.090   3.432 -1.6968 -0.4669  0.9223
18781TIP3    H277835   5.790   4.008   3.397  0.3647  2.6643  0.5650
18782TIP3   OH277836   1.122   6.719   1.112  0.0038  0.0505  0.0487
18782TIP3    H177837   1.097   6.680   1.027  0.2119 -0.8606  0.3969
18782TIP3    H277838   1.216   6.706   1.117 -0.0441 -0.1216  0.5241
18783TIP3   OH277839   4.295   2.633  14.757  0.4391 -0.5026  0.0333
18783TIP3    H177840   4.374   2.631  14.811  0.1197 -0.8766  0.4869
18783TIP3    H277841   4.297   2.720  14.716  0.3234  0.0441  1.1833
18784TIP3   OH277842   6.161   4.809  16.790 -0.1624  0.4486  0.3267
18784TIP3    H177843   6.071   4.835  16.769  0.1609  2.3471  1.1729
18784TIP3    H277844   6.206   4.809  16.706 -0.3809  1.8672  0.1972
18785TIP3   OH277845   0.988   3.859   0.096  0.3988 -0.0153 -0.6172
18785TIP3    H177846   0.927   3.928   0.118  0.5115  0.4830 -1.8500
18785TIP3    H277847   0.965   3.787   0.156 -1.7048 -0.0230 -1.4063
18786TIP3   OH277848   6.392   4.662   1.988 -0.0624  0.7788 -0.3748
18786TIP3    H177849   6.423   4.743   1.949 -1.2267  2.4900  2.1433
18786TIP3    H277850   6.303   4.682   2.017 -1.3576 -2.2076 -2.1037
18787TIP3   OH277851   1.627   4.090   1.822 -0.1400 -0.1537  0.0731
18787TIP3    H177852   1.665   4.159   1.876 -2.2416  1.5310 -0.5029
18787TIP3    H277853   1.587   4.030   1.885 -0.2989  0.3896  0.4956
18788TIP3   OH277854   5.958   4.180  16.944  0.0262  0.3924  0.5028
18788TIP3    H177855   5.874   4.147  16.912  0.0661  1.7019 -1.0337
18788TIP3    H277856   5.934   4.251  17.004  0.0347  0.6866  0.1561
18789TIP3   OH277857   1.773   0.744   4.535 -0.0610 -0.2073 -0.0782
18789TIP3    H177858   1.796   0.788   4.453 -1.9044  1.9342  0.5077
18789TIP3    H277859   1.769   0.651   4.513  1.5898  0.1377 -1.9014
18790TIP3   OH277860   1.051   6.380   5.848 -0.6048 -0.2265  0.1985
18790TIP3    H177861   1.042   6.464   5.893  0.7167  1.0611 -1.8786
18790TIP3    H277862   1.145   6.370   5.833 -0.9272 -1.1181 -1.3598
18791TIP3   OH277863   1.202   5.559  15.736 -0.4948  0.1261 -0.8076
18791TIP3    H177864   1.234   5.641  15.772  0.1669 -0.4263 -0.1269
18791TIP3    H277865   1.175   5.581  15.646  0.1593  0.9696 -0.8007
18792TIP3   OH277866   3.241   6.320  16.430  0.3586  0.4233 -0.1384
18792TIP3    H177867   3.147   6.331  16.445  0.3737 -0.4751  0.6858
18792TIP3    H277868   3.278   6.307  16.517  1.0709 -0.5056 -0.5693
18793TIP3   OH277869   5.473   6.182  12.562  0.4838 -0.2636  0.8496
18793TIP3    H177870   5.520   6.219  12.487 -0.9972  0.6861  0.3741
18793TIP3    H277871   5.500   6.090  12.564  1.5742  0.0307 -0.0287
18794TIP3   OH277872   6.741   1.614  15.257 -0.1235  0.5203  0.0833
18794TIP3    H177873   6.790   1.573  15.328 -0.5213 -1.2240 -0.6230
18794TIP3    H277874   6.805   1.620  15.185 -0.5231 -0.4126 -0.3584
18795TIP3   OH277875   4.026   4.329   5.042 -0.1800 -0.3800 -0.0010
18795TIP3    H177876   4.080   4.381   5.102 -0.7871  1.4231 -0.9667
18795TIP3    H277877   3.937   4.360   5.059 -0.5836 -1.3598 -0.3679
18796TIP3   OH277878   6.068   3.980  15.123  0.1810 -0.0109  0.2556
18796TIP3    H177879   6.109   3.894  15.124  1.1741  0.4099 -1.7868
18796TIP3    H277880   5.975   3.962  15.112  0.1378 -0.8699  1.9136
18797TIP3   OH277881   0.288   6.481   0.345 -0.1596  0.0532  0.8836
18797TIP3    H177882   0.382   6.478   0.359  0.0091 -0.4450 -0.2474
18797TIP3    H277883   0.276   6.545   0.275 -0.5022 -0.9481 -0.0053
18798TIP3   OH277884   2.774   3.950  15.070  0.2478 -0.2619  0.7126
18798TIP3    H177885   2.783   4.030  15.122 -0.0984  0.3903 -0.2301
18798TIP3    H277886   2.770   3.980  14.980 -1.4961 -1.2132  0.4460
18799TIP3   OH277887   4.288   2.169   1.642 -0.1423 -0.5006 -0.0460
18799TIP3    H177888   4.236   2.115   1.583 -1.2825  0.8780 -0.3523
18799TIP3    H277889   4.360   2.202   1.589  0.6194 -1.8049  0.1749
18800TIP3   OH277890   0.556   6.214  16.077  0.5725 -0.0846 -0.6446
18800TIP3    H177891   0.566   6.148  16.145  0.6102 -0.2481 -0.8082
18800TIP3    H277892   0.517   6.167  16.003  1.3122 -0.1112 -1.0353
18801TIP3   OH277893   3.919   2.230  10.900 -0.0627 -0.2920  0.5323
18801TIP3    H177894   3.865   2.179  10.840 -0.2727  0.7287 -0.1618
18801TIP3    H277895   3.977   2.280  10.843  0.2630  0.1104  1.2124
18802TIP3   OH277896   0.918   5.992  12.206 -0.5790 -0.0458  0.3001
18802TIP3    H177897   0.922   6.084  12.233 -0.3885 -0.2799  1.0928
18802TIP3    H277898   0.914   5.943  12.288 -0.4191 -0.7603 -0.1094
18803TIP3   OH277899   1.437   2.852   2.116 -0.3850  0.4170 -0.0666
18803TIP3    H177900   1.456   2.935   2.072 -0.1601  0.7286  0.6158
18803TIP3    H277901   1.376   2.807   2.057  1.7173 -0.1991 -1.8437
18804TIP3   OH277902   5.069   4.398  11.372  0.1736 -0.4702  0.0731
18804TIP3    H177903   5.064   4.305  11.353 -2.4873  0.0973 -2.3129
18804TIP3    H277904   4.981   4.421  11.403  0.5562  1.3861 -0.1389
18805TIP3   OH277905   6.184   2.622   4.412 -0.0592  0.5312  0.0237
18805TIP3    H177906   6.229   2.645   4.493  0.1249 -1.9635  0.6777
18805TIP3    H277907   6.252   2.629   4.345 -0.0806  2.0833  0.1497
18806TIP3   OH277908   4.810   6.534  16.115 -0.0620  0.1059  0.3905
18806TIP3    H177909   4.879   6.470  16.099  0.2498  0.7450 -0.9104
18806TIP3    H277910   4.732   6.481  16.135  0.6217 -0.6280  1.1367
18807TIP3   OH277911   6.808   1.596  14.703  0.0324 -0.3805  0.1291
18807TIP3    H177912   6.830   1.689  14.697 -2.2561  0.2603  1.1097
18807TIP3    H277913   6.841   1.558  14.622  0.4250  1.4034 -0.5732
18808TIP3   OH277914   6.248   3.807   0.910  0.1160  0.1664 -0.0279
18808TIP3    H177915   6.221   3.898   0.922  1.6474  0.4202  1.6498
18808TIP3    H277916   6.234   3.790   0.817 -0.8954  1.8712 -0.2111
18809TIP3   OH277917   6.758   6.399   0.575 -0.0903  0.1561 -0.4699
18809TIP3    H177918   6.727   6.308   0.582  0.5524 -0.0696 -0.4949
18809TIP3    H277919   6.838   6.401   0.628  0.6679  0.3556 -1.6005
18810TIP3   OH277920   1.447   2.229  12.649 -0.1528  0.0425  0.0834
18810TIP3    H177921   1.361   2.191  12.667  0.2092 -0.5560  0.5648
18810TIP3    H277922   1.428   2.306  12.596 -0.9442 -0.4410 -0.3553
18811TIP3   OH277923   6.650   1.591   4.455 -0.4004  0.0672 -0.0365
18811TIP3    H177924   6.565   1.547   4.447  1.1531 -2.9224 -1.0973
18811TIP3    H277925   6.676   1.579   4.546 -0.2348 -0.7512 -0.1904
18812TIP3   OH277926   2.837   1.510  14.638  1.0474  0.2742 -0.3160
18812TIP3    H177927   2.772   1.572  14.605  1.3347  0.6764 -0.1358
18812TIP3    H277928   2.875   1.471  14.559  0.5932  0.0489 -0.4212
18813TIP3   OH277929   3.606   1.987   5.861 -0.5381 -0.0661  0.1299
18813TIP3    H177930   3.685   1.933   5.855 -0.6307 -0.0312 -1.6747
18813TIP3    H277931   3.635   2.066   5.906  0.5319  0.0542 -0.7348
18814TIP3   OH277932   3.944   0.483   3.429  0.4694  0.0454 -0.6128
18814TIP3    H177933   3.915   0.426   3.358  1.4195  0.1737 -1.1157
18814TIP3    H277934   3.898   0.451   3.506 -2.5774  1.5372 -1.7491
18815TIP3   OH277935   1.686   2.263  10.917  0.6752  0.4975  0.8564
18815TIP3    H177936   1.710   2.348  10.881  3.2645 -0.4342  0.2844
18815TIP3    H277937   1.734   2.200  10.864 -1.8787 -1.4037  0.7298
18816TIP3   OH277938   4.388   0.905  14.702  0.0712 -0.1608  0.5142
18816TIP3    H177939   4.449   0.859  14.644  0.3332  1.9973 -0.9646
18816TIP3    H277940   4.422   0.890  14.790 -0.1361 -3.1944  0.1460
18817TIP3   OH277941   3.119   6.433   4.904 -0.2935 -0.2038  0.3665
18817TIP3    H177942   3.200   6.483   4.893 -0.7167  0.6420  1.0364
18817TIP3    H277943   3.148   6.342   4.907  0.5805  0.0513  0.0783
18818TIP3   OH277944   2.071   2.518   4.199 -0.1047 -0.1919 -0.1141
18818TIP3    H177945   2.146   2.577   4.187 -0.2004 -0.1751 -0.6282
18818TIP3    H277946   1.999   2.560   4.152 -0.7477  0.3703  1.3451
18819TIP3   OH277947   4.715   6.215  12.337 -0.9515  0.7816 -0.2837
18819TIP3    H177948   4.754   6.275  12.401 -1.5149 -0.1145  0.9145
18819TIP3    H277949   4.622   6.236  12.338 -1.4044 -1.1386  1.2969
18820TIP3   OH277950   2.014   3.003  16.843  0.1110  0.2708 -0.7141
18820TIP3    H177951   2.030   2.908  16.850 -0.2287  0.3881  2.2443
18820TIP3    H277952   1.921   3.010  16.823 -0.4492  0.0084  1.6887
18821TIP3   OH277953   6.487   1.090  17.113 -0.6013 -0.6346  0.2146
18821TIP3    H177954   6.551   1.081  17.184  0.1830 -1.8041 -0.6092
18821TIP3    H277955   6.471   1.000  17.084 -1.9228 -0.2673 -0.1975
18822TIP3   OH277956   5.488   4.414  16.737 -0.7018 -0.2140 -0.0413
18822TIP3    H177957   5.462   4.376  16.821  0.4754 -0.0785  0.4052
18822TIP3    H277958   5.578   4.383  16.724  0.9784  3.7697  1.2266
18823TIP3   OH277959   5.811   2.132  15.562  0.0886  0.1241 -0.4622
18823TIP3    H177960   5.782   2.104  15.475 -0.2421 -0.5797 -0.1311
18823TIP3    H277961   5.752   2.087  15.622  1.3659 -0.7176  0.1831
18824TIP3   OH277962   4.391   1.513  16.327 -0.0483  0.2767 -0.1930
18824TIP3    H177963   4.444   1.541  16.253 -0.7463  0.5722 -0.5775
18824TIP3    H277964   4.353   1.429  16.299 -0.1910  0.3127 -0.1067
18825TIP3   OH277965   4.053   5.883  12.755  0.3130 -0.2216  0.2293
18825TIP3    H177966   4.127   5.911  12.701 -0.2118  1.0489  0.1516
18825TIP3    H277967   4.075   5.913  12.843  0.0540 -0.1544  0.2715
18826TIP3   OH277968   0.123   1.766   0.894  1.2251 -0.7042 -0.2530
18826TIP3    H177969   0.105   1.742   0.985 -1.1999 -1.5702 -0.9498
18826TIP3    H277970   0.134   1.862   0.896  1.1372 -0.7118  0.9152
18827TIP3   OH277971   2.555   1.051  12.861 -0.3361 -0.0264  0.0049
18827TIP3    H177972   2.533   1.141  12.885 -0.5697 -0.4192  1.3014
18827TIP3    H277973   2.641   1.035  12.901 -0.8248 -0.7651  0.7679
18828TIP3   OH277974   2.459   5.298   2.513 -0.0955  0.3973 -0.6851
18828TIP3    H177975   2.528   5.253   2.464 -1.0296 -0.9314 -0.8354
18828TIP3    H277976   2.445   5.244   2.591 -0.3024  1.1705 -0.1778
18829TIP3   OH277977   3.584   3.180   2.431  0.2672  0.2579 -0.4348
18829TIP3    H177978   3.493   3.208   2.433  0.3617  0.5924  3.4924
18829TIP3    H277979   3.635   3.260   2.418  0.0403  0.0971 -2.4181
18830TIP3   OH277980   3.225   0.663   4.745 -0.7665  0.5151  0.1471
18830TIP3    H177981   3.209   0.632   4.656 -0.1518 -0.3510  0.3355
18830TIP3    H277982   3.140   0.694   4.775 -0.4156  3.6892 -1.8377
18831TIP3   OH277983   2.521   5.710   3.070  0.4518  0.6196  0.0233
18831TIP3    H177984   2.507   5.633   3.125 -3.8248  0.4351 -1.1337
18831TIP3    H277985   2.547   5.676   2.985  3.2104  0.7406  0.7654
18832TIP3   OH277986   2.551   6.707  12.774  0.4936  0.4030  0.1742
18832TIP3    H177987   2.460   6.705  12.804  0.8411  1.8697  1.4002
18832TIP3    H277988   2.561   6.628  12.721 -1.0063 -0.6659  1.4573
18833TIP3   OH277989   2.638   6.193  15.227  0.3018  0.7415 -0.1182
18833TIP3    H177990   2.713   6.163  15.175 -1.3073 -0.4075 -1.8100
18833TIP3    H277991   2.628   6.126  15.295 -0.6972 -0.4097 -1.3777
18834TIP3   OH277992   1.718   3.469   5.005  0.7847  0.1398 -0.2866
18834TIP3    H177993   1.698   3.495   4.915  0.5540 -0.5624 -0.4369
18834TIP3    H277994   1.736   3.552   5.050 -0.7131  0.6354 -0.5724
18835TIP3   OH277995   3.248   5.743  15.994 -0.4131 -0.0120  0.3978
18835TIP3    H177996   3.224   5.747  16.086 -0.0053 -0.1350  0.5090
18835TIP3    H277997   3.171   5.706  15.950  0.0574 -1.6483  0.9271
18836TIP3   OH277998   1.173   2.789  12.277  0.0580 -0.1780 -0.0967
18836TIP3    H177999   1.205   2.822  12.193 -2.0008 -1.7480 -1.5436
18836TIP3    H278000   1.098   2.845  12.298 -0.8492 -1.2076 -0.4890
18837TIP3   OH278001   5.741   6.720  11.363  0.2082  0.3472  0.1989
18837TIP3    H178002   5.831   6.717  11.396  0.1964  2.4765  0.4826
18837TIP3    H278003   5.750   6.708  11.269  0.7231 -0.1371  0.3039
18838TIP3   OH278004   6.398   1.797   0.064 -0.0385 -0.3321 -0.6641
18838TIP3    H178005   6.469   1.734   0.078 -0.0901 -0.3078 -0.2947
18838TIP3    H278006   6.320   1.754   0.099 -0.4114 -0.8067 -2.0473
18839TIP3   OH278007   2.202   3.534   0.164 -0.3367  0.1451  0.1180
18839TIP3    H178008   2.257   3.456   0.168 -0.0823  0.3316  0.2909
18839TIP3    H278009   2.209   3.573   0.251  0.6195  1.0829 -0.3556
18840TIP3   OH278010   6.496   4.343  12.850  0.0054 -0.3890 -0.0144
18840TIP3    H178011   6.533   4.406  12.912  2.0691 -1.5116 -0.0550
18840TIP3    H278012   6.432   4.393  12.800 -0.1180  1.0731  1.5469
18841TIP3   OH278013   1.089   5.739  14.960  0.7523 -0.1574  0.8384
18841TIP3    H178014   1.060   5.823  14.998 -0.4722 -0.8054  1.3753
18841TIP3    H278015   1.183   5.749  14.949  0.5188  1.5631  0.2352
18842TIP3   OH278016   4.085   5.070   3.377 -0.1839 -0.3583 -0.4838
18842TIP3    H178017   4.087   5.093   3.284  1.6861  1.6035  0.0117
18842TIP3    H278018   4.162   5.112   3.415 -1.0259 -0.9404  2.0227
18843TIP3   OH278019   0.050   2.760  16.751  0.0132 -0.0614  0.1065
18843TIP3    H178020   0.132   2.809  16.741 -0.0573  0.2603  1.1345
18843TIP3    H278021   0.027   2.736  16.661  0.4629  1.1039 -0.3356
18844TIP3   OH278022   3.024   5.241  14.658  0.3554 -0.2176  0.0508
18844TIP3    H178023   2.953   5.299  14.632  0.5512 -0.4034 -0.8928
18844TIP3    H278024   3.085   5.297  14.706 -0.2201  0.0214  0.5137
18845TIP3   OH278025   1.892   6.562  14.135 -0.4658 -0.0334 -0.3878
18845TIP3    H178026   1.827   6.510  14.087 -0.1037 -0.7495 -0.0980
18845TIP3    H278027   1.943   6.498  14.185  2.3256  0.1996 -2.7799
18846TIP3   OH278028   1.073   4.048  14.446 -0.1467 -0.0111 -0.0204
18846TIP3    H178029   1.082   4.078  14.537 -0.9729  1.9063 -0.5453
18846TIP3    H278030   1.124   3.967  14.443  0.5208  0.2881  1.9637
18847TIP3   OH278031   1.947   6.591   2.211  0.4597 -0.3627 -0.2133
18847TIP3    H178032   1.922   6.615   2.301  1.4144  1.2503 -0.3527
18847TIP3    H278033   2.042   6.604   2.209  0.3150  0.5202 -1.7189
18848TIP3   OH278034   3.444   4.558   2.308  0.0045  0.7601 -0.0379
18848TIP3    H178035   3.414   4.581   2.221  0.1270  0.8063 -0.0685
18848TIP3    H278036   3.370   4.579   2.366 -0.1400  0.5637 -0.1511
18849TIP3   OH278037   6.523   4.954  12.611 -0.5295 -0.3215  0.3368
18849TIP3    H178038   6.537   5.016  12.540 -1.3873 -0.6618 -0.1333
18849TIP3    H278039   6.556   4.999  12.689 -1.5577  0.9201  0.0738
18850TIP3   OH278040   0.309   4.175  15.190 -0.6142 -0.2840  0.4571
18850TIP3    H178041   0.349   4.096  15.226 -0.4812  0.8543  2.9135
18850TIP3    H278042   0.216   4.165  15.208 -0.9577 -1.0915 -1.6552
18851TIP3   OH278043   2.850   5.745   6.263 -0.4409  0.1131  0.0456
18851TIP3    H178044   2.930   5.696   6.280 -0.6718 -0.4416 -0.4690
18851TIP3    H278045   2.792   5.723   6.335  0.1500  1.1419  0.8589
18852TIP3   OH278046   0.545   4.299  15.240  0.5824  0.0193 -0.2093
18852TIP3    H178047   0.585   4.229  15.293  0.9399 -0.8887 -1.6267
18852TIP3    H278048   0.467   4.258  15.202  0.4868  0.5709 -0.6106
18853TIP3   OH278049   3.549   0.432   1.322  0.3498 -0.3485 -0.5817
18853TIP3    H178050   3.475   0.492   1.316 -0.5329 -1.5147 -1.5654
18853TIP3    H278051   3.520   0.364   1.382  0.3554 -1.1671 -1.4909
18854TIP3   OH278052   1.181   5.511  13.957 -0.9409  0.3275  0.0233
18854TIP3    H178053   1.199   5.460  13.878  0.2103 -1.3768  1.3375
18854TIP3    H278054   1.114   5.461  14.004 -0.3139  0.3547  0.9817
18855TIP3   OH278055   4.546   6.602  10.257 -0.2258 -0.0827  0.3652
18855TIP3    H178056   4.473   6.581  10.199 -0.4032 -1.2853  1.0009
18855TIP3    H278057   4.557   6.524  10.311  2.6302 -0.6046 -0.8455
18856TIP3   OH278058   1.673   1.537   2.946  0.3190  0.3683  0.6545
18856TIP3    H178059   1.602   1.540   2.881  1.5474 -1.1318 -0.8117
18856TIP3    H278060   1.632   1.566   3.027 -1.3909  1.7970 -0.6646
18857TIP3   OH278061   5.539   5.249  16.411 -0.2616  0.3950  0.3200
18857TIP3    H178062   5.574   5.231  16.499  1.1087  0.7583 -0.1359
18857TIP3    H278063   5.565   5.340  16.393 -1.1843  0.5691 -0.1660
18858TIP3   OH278064   3.196   5.215  13.554  0.3183 -0.4729  0.2163
18858TIP3    H178065   3.128   5.220  13.487  1.2082 -0.2588 -0.6940
18858TIP3    H278066   3.187   5.296  13.605  0.9932  0.3850 -0.9973
18859TIP3   OH278067   2.144   6.558   3.210 -0.3134 -0.0839 -0.1048
18859TIP3    H178068   2.097   6.588   3.132  0.8932 -2.5217 -1.8317
18859TIP3    H278069   2.103   6.474   3.232  0.4747 -0.2184  0.8720
18860TIP3   OH278070   4.170   3.276  15.228  0.2366 -0.1823 -0.0973
18860TIP3    H178071   4.213   3.205  15.274 -0.2874 -0.5877 -0.2288
18860TIP3    H278072   4.121   3.234  15.157  0.1716  0.3304 -0.3649
18861TIP3   OH278073   6.753   6.138   3.421 -0.7681  0.2693  0.0535
18861TIP3    H178074   6.706   6.122   3.503 -0.2537  3.3483  1.0312
18861TIP3    H278075   6.843   6.110   3.439 -1.3508 -2.1146 -0.5812
18862TIP3   OH278076   5.260   1.334  11.031 -0.0099  0.2702  0.2381
18862TIP3    H178077   5.289   1.244  11.022 -1.3754 -0.2860  1.2852
18862TIP3    H278078   5.198   1.347  10.959 -0.2808  0.1762  0.4532
18863TIP3   OH278079   2.719   5.030   5.465  0.4723  0.2301  0.1759
18863TIP3    H178080   2.758   5.014   5.379  0.2653  2.7264 -0.4307
18863TIP3    H278081   2.639   4.978   5.465 -0.7213  1.9928 -2.0778
18864TIP3   OH278082   5.494   2.275   4.274 -0.4935 -0.1409 -0.0440
18864TIP3    H178083   5.469   2.356   4.318 -0.1118 -0.2461  0.3672
18864TIP3    H278084   5.587   2.265   4.294 -0.7621 -1.1898  0.7121
18865TIP3   OH278085   5.271   5.109   3.774 -0.0174  0.0800  0.0890
18865TIP3    H178086   5.270   5.167   3.698  0.1508  0.5424  0.4371
18865TIP3    H278087   5.364   5.100   3.797 -0.0993  0.4132  0.5864
18866TIP3   OH278088   4.268   5.235  12.713 -0.0662 -0.5173  0.4081
18866TIP3    H178089   4.189   5.289  12.702  0.1584  0.0256  1.3915
18866TIP3    H278090   4.335   5.278  12.661 -0.4748 -1.1051 -0.6122
18867TIP3   OH278091   5.581   6.663   6.062  0.5612  0.6354 -0.4912
18867TIP3    H178092   5.539   6.701   5.984  0.5321 -0.1398 -0.8580
18867TIP3    H278093   5.552   6.720   6.134 -0.2462  0.7541 -0.8943
18868TIP3   OH278094   2.477   2.968   3.678 -0.1054 -0.4419 -0.1443
18868TIP3    H178095   2.383   2.970   3.692 -0.0169 -1.8863  0.7713
18868TIP3    H278096   2.494   3.037   3.613 -1.5984  0.7836  0.7299
18869TIP3   OH278097   1.622   3.937  11.756 -0.4010 -0.0079  0.1389
18869TIP3    H178098   1.658   3.895  11.678 -1.7212  0.1997 -0.5919
18869TIP3    H278099   1.686   4.004  11.779 -1.0873  1.4675 -2.1292
18870TIP3   OH278100   6.252   4.448  15.274 -0.1533 -0.2979 -0.6797
18870TIP3    H178101   6.232   4.354  15.267  0.3986 -0.3374 -1.7694
18870TIP3    H278102   6.237   4.468  15.367  1.0805 -1.7955 -0.1126
18871TIP3   OH278103   4.300   5.587  13.102 -0.1483 -0.6708 -0.1139
18871TIP3    H178104   4.384   5.593  13.147  1.3174 -2.1415 -2.5515
18871TIP3    H278105   4.282   5.676  13.071  0.6810 -0.4464  0.0505
18872TIP3   OH278106   6.259   6.306   2.139  0.1847 -0.5062  0.1070
18872TIP3    H178107   6.341   6.353   2.153 -0.5718  0.4713  1.3130
18872TIP3    H278108   6.279   6.244   2.069  1.6979  0.3445 -0.2313
18873TIP3   OH278109   0.058   2.999   1.621 -0.2486  0.4700 -0.4021
18873TIP3    H178110   0.093   3.059   1.555  3.0219 -0.5947  0.2918
18873TIP3    H278111   0.001   3.053   1.675  1.2094  2.5509 -0.9018
18874TIP3   OH278112   5.392   6.687   0.800  0.5273 -0.2874  1.0661
18874TIP3    H178113   5.354   6.646   0.878  2.0901 -1.2406  1.3627
18874TIP3    H278114   5.457   6.623   0.770  0.8633  0.6680 -0.2448
18875TIP3   OH278115   4.884   5.724   3.135 -0.2171 -0.3459 -0.7663
18875TIP3    H178116   4.804   5.772   3.115 -0.1064  0.6485  1.0964
18875TIP3    H278117   4.861   5.668   3.210  0.5922 -0.6795 -0.7519
18876TIP3   OH278118   6.162   4.938  11.452 -0.6997 -0.7437 -0.0881
18876TIP3    H178119   6.220   4.866  11.428  0.9040 -0.3348  2.4152
18876TIP3    H278120   6.100   4.944  11.379  1.5433 -2.0885 -2.1920
18877TIP3   OH278121   0.023   2.901  15.294  0.1918 -0.3295  0.5303
18877TIP3    H178122   0.085   2.963  15.255 -0.7829  0.9049  0.8807
18877TIP3    H278123  -0.021   2.861  15.219  1.0961 -0.8794  0.2912
18878TIP3   OH278124   6.731   2.961   0.152  0.2679 -0.1892  0.6078
18878TIP3    H178125   6.753   3.054   0.157  1.6303 -0.6211  3.9534
18878TIP3    H278126   6.639   2.957   0.178  0.0183  0.2919 -0.1976
18879TIP3   OH278127   2.217   6.554   4.685 -0.2238 -0.4811 -0.6070
18879TIP3    H178128   2.231   6.643   4.651  1.3170  0.0827  1.3982
18879TIP3    H278129   2.284   6.501   4.641  0.6228 -0.1060  0.2237
18880TIP3   OH278130   3.042   5.836  13.441 -0.0441  0.1679 -0.1603
18880TIP3    H178131   3.070   5.872  13.357  1.2040 -1.1644 -0.3524
18880TIP3    H278132   3.020   5.745  13.421 -2.9876  0.7231  0.3329
18881TIP3   OH278133   5.286   0.488   0.615 -0.0253  0.5777  0.1139
18881TIP3    H178134   5.311   0.410   0.565  0.1289  0.6403  0.0932
18881TIP3    H278135   5.244   0.453   0.693  1.5002  0.4221  0.8996
18882TIP3   OH278136   2.863   2.866   4.214  0.7487  0.6387  0.6612
18882TIP3    H178137   2.864   2.947   4.163  0.4317  0.8123  0.9241
18882TIP3    H278138   2.898   2.799   4.155  3.4491  1.4537  1.2830
18883TIP3   OH278139   2.308   6.254   0.679 -0.4494  0.6074 -0.1594
18883TIP3    H178140   2.241   6.215   0.735 -1.9546  4.5202  0.9286
18883TIP3    H278141   2.377   6.281   0.740 -0.0016  0.7655 -0.7295
18884TIP3   OH278142   1.928   5.093   1.730 -0.1075 -0.0830 -0.9376
18884TIP3    H178143   1.958   5.030   1.664  3.4337  1.3191 -0.7339
18884TIP3    H278144   2.001   5.101   1.791 -1.7578  1.8146  0.8611
18885TIP3   OH278145   5.442   2.386   5.873 -0.2178  0.2759  0.2047
18885TIP3    H178146   5.349   2.399   5.891 -0.3534  0.5323 -0.6391
18885TIP3    H278147   5.474   2.333   5.946 -1.6651 -2.2541 -0.9395
18886TIP3   OH278148   3.350   5.380   6.033 -0.8631  0.2755 -0.5636
18886TIP3    H178149   3.366   5.429   6.114  1.1106 -0.6072 -0.3749
18886TIP3    H278150   3.349   5.447   5.964 -0.1029  0.7906 -0.0885
18887TIP3   OH278151   1.266   4.801   1.211  0.2102 -0.1712  0.0627
18887TIP3    H178152   1.323   4.729   1.236  0.3799 -0.3045 -0.6901
18887TIP3    H278153   1.190   4.758   1.171  0.7474  0.0914 -1.2732
18888TIP3   OH278154   5.158   3.153  16.078 -0.6983  0.0048 -0.2398
18888TIP3    H178155   5.226   3.132  16.141 -0.6939  1.5114  0.2824
18888TIP3    H278156   5.199   3.215  16.018 -0.7406 -1.3221 -1.6678
18889TIP3   OH278157   3.507   1.908   4.442 -0.3952  0.1039  0.0774
18889TIP3    H178158   3.562   1.830   4.444  0.6493  0.8431  0.2557
18889TIP3    H278159   3.516   1.946   4.530 -0.2009  0.9181 -0.2922
18890TIP3   OH278160   3.935   0.181  13.944 -0.3923 -0.7210 -0.5291
18890TIP3    H178161   3.893   0.236  13.877 -0.4662  0.0392  0.1287
18890TIP3    H278162   3.880   0.193  14.022  0.0460 -1.1157 -0.1600
18891TIP3   OH278163   6.750   5.551   3.660 -0.2347  0.3611  0.2451
18891TIP3    H178164   6.739   5.492   3.586  0.9860 -0.9770  1.0996
18891TIP3    H278165   6.666   5.548   3.706 -1.4530  2.2419 -1.7992
18892TIP3   OH278166   3.355   5.457  10.373  0.3047  0.1371  0.3244
18892TIP3    H178167   3.264   5.472  10.346  0.2681 -0.7920 -0.1093
18892TIP3    H278168   3.348   5.389  10.441  0.7230 -0.3707 -0.1395
18893TIP3   OH278169   6.409   5.904  12.687 -1.2223 -0.1923 -0.1568
18893TIP3    H178170   6.465   5.952  12.749 -1.6375 -0.9521  0.8299
18893TIP3    H278171   6.463   5.895  12.609  0.0068 -0.7808  0.7280
18894TIP3   OH278172   4.402   3.655   3.602  0.0128 -0.5730  0.2350
18894TIP3    H178173   4.312   3.645   3.569  0.2362 -0.1163 -0.5140
18894TIP3    H278174   4.397   3.727   3.665 -0.2479 -0.8961  0.5884
18895TIP3   OH278175   5.443   2.994   2.667 -0.0684 -0.0741 -0.5816
18895TIP3    H178176   5.407   2.926   2.725 -0.8452  0.0676 -0.8976
18895TIP3    H278177   5.496   2.946   2.604 -1.4752 -0.4951 -1.4572
18896TIP3   OH278178   4.299   5.205  13.382 -0.1851  0.0696 -0.1394
18896TIP3    H178179   4.321   5.281  13.329 -1.6782 -0.5247 -1.6786
18896TIP3    H278180   4.279   5.240  13.469 -0.7425  1.4199 -0.8081
18897TIP3   OH278181   3.084   6.657   4.011  0.2802  0.2809 -0.2762
18897TIP3    H178182   3.156   6.649   4.074  0.6183 -1.1049 -0.8289
18897TIP3    H278183   3.128   6.667   3.926 -0.1633  2.8171 -0.2565
18898TIP3   OH278184   4.382   3.842  11.329  0.0343 -0.2639  0.5166
18898TIP3    H178185   4.297   3.837  11.373  0.7197  0.1892  1.9500
18898TIP3    H278186   4.387   3.932  11.297  0.1222 -0.1777  0.7670
18899TIP3   OH278187   1.920   3.196  13.079 -0.2810 -0.3270 -0.4277
18899TIP3    H178188   1.987   3.159  13.021  1.1381 -0.2283  1.1066
18899TIP3    H278189   1.883   3.269  13.030  1.1582 -0.0091 -1.0566
18900TIP3   OH278190   4.567   4.013   1.107 -0.2768 -0.7687 -0.0433
18900TIP3    H178191   4.640   3.961   1.141  1.2701 -0.2953 -2.4390
18900TIP3    H278192   4.610   4.089   1.066 -2.1581 -0.1898 -0.9924
18901TIP3   OH278193   0.780   0.606  14.474 -0.9973  0.8694  0.0234
18901TIP3    H178194   0.839   0.663  14.424 -0.4806  0.3706  0.0607
18901TIP3    H278195   0.751   0.540  14.410  0.2368 -0.1998  0.5589
18902TIP3   OH278196   3.744   2.602  14.110 -0.0203 -0.1064 -0.1642
18902TIP3    H178197   3.651   2.614  14.130  0.0906  1.0002 -0.2687
18902TIP3    H278198   3.783   2.578  14.194 -0.3650 -0.3953 -0.0816
18903TIP3   OH278199   5.189   1.916   2.321 -0.2525  1.0017  0.2107
18903TIP3    H178200   5.144   1.939   2.403 -2.0155  0.3412 -0.5354
18903TIP3    H278201   5.136   1.845   2.285  1.6574 -0.0540 -0.5297
18904TIP3   OH278202   5.996   3.376   6.036 -0.1556  0.0328 -0.0809
18904TIP3    H178203   5.920   3.320   6.018  0.7285 -0.7804 -1.3699
18904TIP3    H278204   6.017   3.358   6.127  0.1893 -1.8626 -0.5039
18905TIP3   OH278205   3.209   4.507   4.634  0.3761 -0.1923 -0.5098
18905TIP3    H178206   3.229   4.487   4.543  1.3829  0.3409 -0.4118
18905TIP3    H278207   3.275   4.461   4.684  1.0297  1.1106 -0.1501
18906TIP3   OH278208   2.274   4.573  14.767 -0.1815 -0.2237  0.0396
18906TIP3    H178209   2.238   4.605  14.684  0.9618 -0.3323 -0.5115
18906TIP3    H278210   2.222   4.496  14.787 -1.4109  0.6326  0.1626
18907TIP3   OH278211   3.632   3.590  15.204  0.5411  0.7514  0.5856
18907TIP3    H178212   3.680   3.514  15.235  1.8442  0.9176 -1.0071
18907TIP3    H278213   3.550   3.554  15.169  0.7061  0.1931  0.7683
18908TIP3   OH278214   5.829   5.959  13.125  0.2811  0.3107 -0.1433
18908TIP3    H178215   5.749   5.908  13.135  0.4016  0.3601  1.1056
18908TIP3    H278216   5.860   5.938  13.037  1.4667 -3.4167  1.0837
18909TIP3   OH278217   4.860   1.034   1.998 -0.3826 -0.2275 -0.1525
18909TIP3    H178218   4.839   1.020   2.090  1.3567 -1.8139  0.0337
18909TIP3    H278219   4.838   0.950   1.955 -1.2675  0.5221 -1.2090
18910TIP3   OH278220   0.885   3.219   4.474 -0.0734  0.0712  0.2159
18910TIP3    H178221   0.872   3.213   4.569 -2.8818 -2.1140 -0.2478
18910TIP3    H278222   0.960   3.162   4.457 -0.1623 -0.2958  1.0252
18911TIP3   OH278223   1.080   2.734  14.550 -0.2546  0.4861  0.0271
18911TIP3    H178224   1.097   2.826  14.573 -0.4724  0.7317 -0.7773
18911TIP3    H278225   1.002   2.711  14.600  0.8387  0.1905  1.6287
18912TIP3   OH278226   5.150   6.594   5.080  0.0218 -0.1861 -0.0676
18912TIP3    H178227   5.116   6.553   5.160 -2.0257  0.7009 -0.4443
18912TIP3    H278228   5.091   6.668   5.064  1.0111  0.2452 -1.8474
18913TIP3   OH278229   6.551   2.591   6.074  0.0852  0.3621 -0.0371
18913TIP3    H178230   6.616   2.523   6.093  0.1596  0.6348  0.6866
18913TIP3    H278231   6.558   2.652   6.148 -0.2725  0.9363 -0.4755
18914TIP3   OH278232   6.784   5.652   0.435  0.5228  0.0885 -0.3464
18914TIP3    H178233   6.698   5.620   0.409  1.1283 -0.0399 -2.2361
18914TIP3    H278234   6.838   5.573   0.442  0.6978  0.2407  0.0490
18915TIP3   OH278235   4.396   1.727  14.587 -0.5000 -0.8277 -0.3932
18915TIP3    H178236   4.425   1.758  14.501  0.0164 -0.3764 -0.0587
18915TIP3    H278237   4.406   1.803  14.645 -0.8831 -1.1182  0.0559
18916TIP3   OH278238   5.651   6.230   2.720 -0.2870  0.2231 -0.3877
18916TIP3    H178239   5.696   6.314   2.713 -1.4497  1.1639  2.6103
18916TIP3    H278240   5.721   6.165   2.715  0.6776  1.3691 -2.2135
18917TIP3   OH278241   0.615   6.191   1.923 -0.3195  0.1269  0.1528
18917TIP3    H178242   0.675   6.250   1.970 -0.8562  1.3503 -0.6548
18917TIP3    H278243   0.604   6.116   1.981  2.0554 -0.1463  0.2857
18918TIP3   OH278244   1.042   6.516  16.715 -0.1267  0.7153  0.2211
18918TIP3    H178245   1.042   6.596  16.768  0.0552  0.5100  0.5394
18918TIP3    H278246   1.087   6.451  16.771  0.8850  0.7387 -0.5504
18919TIP3   OH278247   1.077   3.830  13.522 -0.0338  0.8056 -0.5459
18919TIP3    H178248   1.117   3.917  13.515 -1.9475  1.7682  0.1289
18919TIP3    H278249   0.988   3.842  13.489  0.0307 -1.1764 -1.5312
18920TIP3   OH278250   2.671   4.760   0.677  0.4353  0.5970  0.1769
18920TIP3    H178251   2.578   4.779   0.666  0.2129 -0.3746  0.3198
18920TIP3    H278252   2.694   4.800   0.761  0.1374  0.7850  0.1692
18921TIP3   OH278253   5.760   0.335   4.778 -0.3481 -0.1425 -0.5871
18921TIP3    H178254   5.674   0.301   4.755 -1.2858  1.3990  0.5263
18921TIP3    H278255   5.817   0.308   4.706 -1.2561 -3.0968 -0.2597
18922TIP3   OH278256   1.176   5.903   3.165  0.1060  0.3089 -0.4208
18922TIP3    H178257   1.152   5.876   3.076 -0.8360  0.0410 -0.0946
18922TIP3    H278258   1.181   5.820   3.213 -2.0361  0.6462  0.4080
18923TIP3   OH278259   4.929   1.124   0.564 -0.0532 -0.1391  0.2841
18923TIP3    H178260   4.921   1.218   0.549 -0.5777 -0.3902 -1.0860
18923TIP3    H278261   4.991   1.117   0.636  3.1036  1.1447 -2.1601
18924TIP3   OH278262   0.521   0.187  11.411 -0.3371 -0.4496  0.5128
18924TIP3    H178263   0.520   0.273  11.454  0.0766 -0.3146  0.2624
18924TIP3    H278264   0.452   0.192  11.346 -0.6449 -0.4819  0.8358
18925TIP3   OH278265   5.556   6.319   2.076 -0.3678  0.5359 -0.3756
18925TIP3    H178266   5.591   6.312   2.165 -1.2222  0.0856 -0.0616
18925TIP3    H278267   5.629   6.352   2.023  0.6285 -0.7354  0.1841
18926TIP3   OH278268   1.989   6.471  15.220  0.1122  0.4163 -0.2410
18926TIP3    H178269   2.031   6.549  15.182  1.4020  0.3613  1.0136
18926TIP3    H278270   2.054   6.401  15.210 -0.9808 -0.4680 -1.2283
18927TIP3   OH278271   1.019   1.441   5.318  0.2014 -0.3515 -0.5661
18927TIP3    H178272   0.957   1.463   5.387  0.0823 -1.6567 -0.2321
18927TIP3    H278273   1.101   1.422   5.365 -0.4253 -3.2626 -0.5690
18928TIP3   OH278274   3.997   3.632   1.402 -0.3696 -0.1054 -0.5903
18928TIP3    H178275   4.064   3.597   1.344 -0.4590 -1.4640  0.1005
18928TIP3    H278276   3.958   3.555   1.443 -3.2916  0.5300 -1.9701
18929TIP3   OH278277   6.714   5.541   0.114  0.1463  0.1869  0.1961
18929TIP3    H178278   6.702   5.621   0.063 -1.8044 -1.7544 -2.5162
18929TIP3    H278279   6.808   5.540   0.134  0.7609  1.6600 -2.3148
18930TIP3   OH278280   2.577   4.690   3.898 -0.1643 -0.3652 -0.2147
18930TIP3    H178281   2.561   4.780   3.929  0.8357 -0.2590  0.0032
18930TIP3    H278282   2.614   4.702   3.810 -0.7334 -0.5891 -0.4846
18931TIP3   OH278283   5.599   2.256   3.172  0.3949  0.4916 -0.5917
18931TIP3    H178284   5.562   2.300   3.249  1.8294 -1.5474  1.3613
18931TIP3    H278285   5.536   2.271   3.102 -2.7829 -0.6346  1.9362
18932TIP3   OH278286   2.531   6.421   0.204 -0.2038 -0.0504  0.1058
18932TIP3    H178287   2.548   6.326   0.204  0.9678  0.1558  0.6985
18932TIP3    H278288   2.540   6.446   0.112 -1.4706 -0.6638 -0.2089
18933TIP3   OH278289   3.436   4.170   5.116  0.0901  0.4024  0.1780
18933TIP3    H178290   3.437   4.261   5.088 -1.6415  1.1432  2.3948
18933TIP3    H278291   3.492   4.168   5.194  1.3183 -0.7474 -0.7095
18934TIP3   OH278292   4.947   4.976   0.539 -0.8201  0.3982  0.0238
18934TIP3    H178293   4.858   4.940   0.539 -1.7239  2.4821  2.6248
18934TIP3    H278294   4.984   4.951   0.623  0.4129  1.0758 -0.2992
18935TIP3   OH278295   5.871   2.145  10.681 -0.2544 -0.6981  0.6155
18935TIP3    H178296   5.905   2.063  10.644 -1.1466 -0.3974 -0.9420
18935TIP3    H278297   5.943   2.207  10.672 -0.1279 -0.8917  0.2674
18936TIP3   OH278298   3.171   3.578  11.642  0.1431  0.4660 -0.5283
18936TIP3    H178299   3.086   3.542  11.620  0.1516  0.0281  0.1491
18936TIP3    H278300   3.198   3.626  11.563 -1.6921  2.4348 -0.0011
18937TIP3   OH278301   2.756   4.006  14.811  0.0961  0.1043  0.6482
18937TIP3    H178302   2.661   4.005  14.822  0.2238 -0.7795  1.8052
18937TIP3    H278303   2.775   3.929  14.758  0.2333 -0.2102  1.1434
18938TIP3   OH278304   0.741   4.678  16.077  0.4166  0.2935  0.2687
18938TIP3    H178305   0.821   4.625  16.073  0.2719  0.1138 -0.2380
18938TIP3    H278306   0.695   4.659  15.995  0.4396  1.3150  0.0148
18939TIP3   OH278307   1.452   2.145  13.434 -0.7494  0.0603  0.4681
18939TIP3    H178308   1.440   2.052  13.419 -2.3032  0.2994  0.1218
18939TIP3    H278309   1.433   2.157  13.527 -0.0021 -0.0413  0.6406
18940TIP3   OH278310   1.192   6.181   3.029  0.3972 -0.2479 -0.2702
18940TIP3    H178311   1.189   6.219   2.942  1.1576  1.1776  0.3135
18940TIP3    H278312   1.108   6.202   3.068  0.5470  0.2371 -0.2032
18941TIP3   OH278313   6.649   4.301  11.594  0.5289 -0.7059 -0.2674
18941TIP3    H178314   6.666   4.208  11.607 -2.3957 -1.2954 -0.3594
18941TIP3    H278315   6.716   4.329  11.532  1.4529 -2.7549 -0.2166
18942TIP3   OH278316   4.824   2.731   5.482  0.0448  0.3597  0.0349
18942TIP3    H178317   4.805   2.684   5.564  3.9052  1.4809  1.6515
18942TIP3    H278318   4.869   2.667   5.427 -0.5099  0.2818 -0.3343
18943TIP3   OH278319   5.212   4.596  11.789  1.2596 -0.8170  0.2932
18943TIP3    H178320   5.177   4.680  11.821  2.1181 -0.4566  0.2977
18943TIP3    H278321   5.219   4.542  11.868 -0.0331 -1.1744  0.1792
18944TIP3   OH278322   4.703   2.653   1.908  0.5229  0.4127  0.1425
18944TIP3    H178323   4.797   2.635   1.897  0.5217  0.5977 -0.1702
18944TIP3    H278324   4.698   2.703   1.989  0.4857 -1.3209  1.2448
18945TIP3   OH278325   4.681   1.935   0.104  0.1204 -0.0285 -0.0354
18945TIP3    H178326   4.732   1.996   0.050 -1.0738 -1.7458 -3.2246
18945TIP3    H278327   4.619   1.991   0.150  2.3824  1.6839  1.0386
18946TIP3   OH278328   0.487   4.106   6.090 -0.7985  0.5134  0.3307
18946TIP3    H178329   0.430   4.177   6.118 -1.7770  0.3558 -1.2125
18946TIP3    H278330   0.501   4.121   5.996  0.5141 -0.2645  0.3842
18947TIP3   OH278331   4.037   1.243  12.537  0.2337 -0.4931 -0.1033
18947TIP3    H178332   4.011   1.317  12.482  0.2661  0.4899  1.1796
18947TIP3    H278333   4.130   1.232  12.520 -0.1719 -1.5072 -1.7668
18948TIP3   OH278334   1.343   0.545  15.500  0.4483  0.1629 -0.4580
18948TIP3    H178335   1.294   0.538  15.582  3.3559  2.1796  1.5610
18948TIP3    H278336   1.396   0.466  15.497 -0.6222 -0.5312 -1.0522
18949TIP3   OH278337   2.303   6.763   0.078 -0.3196  0.0069 -0.1835
18949TIP3    H178338   2.378   6.749   0.135  0.3515 -0.3181 -1.1407
18949TIP3    H278339   2.247   6.687   0.093  0.7421 -1.0240 -1.3306
18950TIP3   OH278340   1.402   4.468   1.943 -0.5195 -0.2365  0.1628
18950TIP3    H178341   1.440   4.555   1.934 -0.7826 -0.2138 -0.7709
18950TIP3    H278342   1.435   4.420   1.867 -0.9200 -0.7528  0.3140
18951TIP3   OH278343   2.764   0.806  13.792 -0.3444 -0.2323 -0.0918
18951TIP3    H178344   2.786   0.876  13.732  0.5843  1.5898  2.2894
18951TIP3    H278345   2.840   0.747  13.788 -1.2409 -1.3050 -2.2846
18952TIP3   OH278346   2.318   1.676   3.084 -0.0600  0.3599 -0.5856
18952TIP3    H178347   2.224   1.659   3.078  0.1628 -0.8825 -0.5274
18952TIP3    H278348   2.346   1.634   3.166  0.7611 -0.3038 -1.1939
18953TIP3   OH278349   5.726   3.831   2.551 -0.1514 -0.2825 -0.3815
18953TIP3    H178350   5.713   3.909   2.605  1.6852  0.8399 -1.5412
18953TIP3    H278351   5.721   3.863   2.461  1.7981 -1.2924 -0.8646
18954TIP3   OH278352   5.846   1.776  14.433 -0.4544  0.0489  0.2926
18954TIP3    H178353   5.899   1.792  14.511 -1.7148  1.8206  0.8378
18954TIP3    H278354   5.864   1.851  14.376 -1.4300  0.0571 -0.0203
18955TIP3   OH278355   0.894   4.646   2.843  0.0454 -0.0209 -0.7606
18955TIP3    H178356   0.967   4.589   2.868  0.4509  0.6124 -0.4605
18955TIP3    H278357   0.894   4.644   2.748  0.5698  0.1084 -0.7684
18956TIP3   OH278358   2.959   4.861  13.011 -0.0601  0.0593  0.2625
18956TIP3    H178359   2.949   4.955  13.028  1.7101  0.2063  0.6656
18956TIP3    H278360   2.991   4.825  13.094  1.4080 -0.5088 -0.5195
18957TIP3   OH278361   2.121   5.098  15.926  0.3236 -0.0972  0.3108
18957TIP3    H178362   2.199   5.153  15.922  1.0363 -1.1075  0.0730
18957TIP3    H278363   2.155   5.011  15.947 -0.4862 -1.0745 -2.3197
18958TIP3   OH278364   5.355   5.780  16.405 -0.4991 -0.1162 -0.4160
18958TIP3    H178365   5.311   5.697  16.387  1.0969 -1.3134  1.0228
18958TIP3    H278366   5.298   5.825  16.467  0.0736 -1.4780  1.1263
18959TIP3   OH278367   4.364   2.439  12.368  0.0185  0.0145 -0.1899
18959TIP3    H178368   4.361   2.354  12.413  0.4680  0.1335  0.0663
18959TIP3    H278369   4.291   2.488  12.406  1.1513  0.5652  1.3251
18960TIP3   OH278370   1.375   6.400   0.107 -0.4854  0.5193  0.3165
18960TIP3    H178371   1.376   6.425   0.199 -0.5674 -0.2568  0.5328
18960TIP3    H278372   1.459   6.356   0.093 -0.2525  1.0890 -0.1095
18961TIP3   OH278373   1.451   0.034   0.098 -0.6956 -0.0423 -0.2370
18961TIP3    H178374   1.413  -0.042   0.054 -0.3978  0.4223 -1.2861
18961TIP3    H278375   1.376   0.094   0.111 -0.6578  0.1033 -0.6957
18962TIP3   OH278376   0.322   1.359  12.149  0.2158 -0.2797  0.5756
18962TIP3    H178377   0.291   1.269  12.157  0.4596 -0.2007  2.6485
18962TIP3    H278378   0.253   1.412  12.190  1.7327  0.1371  2.7123
18963TIP3   OH278379   0.897   4.207  14.808 -0.0614  0.1009  0.3728
18963TIP3    H178380   0.870   4.129  14.760 -0.4653  0.6314 -0.2779
18963TIP3    H278381   0.847   4.204  14.890  0.2919 -0.5764  0.5631
18964TIP3   OH278382   5.954   1.944   4.745  0.0562  0.1668  0.3051
18964TIP3    H178383   5.869   1.972   4.779 -0.2110  2.1467 -1.9421
18964TIP3    H278384   5.940   1.928   4.652  2.2277  1.0087 -0.2150
18965TIP3   OH278385   0.954   2.981   3.876 -0.4218 -0.1704  0.4027
18965TIP3    H178386   1.004   2.901   3.868 -1.4828 -0.7818 -0.2071
18965TIP3    H278387   1.020   3.051   3.882  0.4914 -0.6826 -2.9063
18966TIP3   OH278388   5.563   4.314   2.728 -0.0492 -0.3509  0.2229
18966TIP3    H178389   5.500   4.348   2.664 -1.3392 -1.7114  0.7473
18966TIP3    H278390   5.536   4.352   2.811  2.3609  2.3894 -0.1805
18967TIP3   OH278391   0.451   5.767   1.277  0.9929  0.3039  0.2188
18967TIP3    H178392   0.529   5.733   1.320  2.1652  1.1805 -1.1573
18967TIP3    H278393   0.481   5.792   1.189 -0.5373  1.8829  0.1166
18968TIP3   OH278394   1.071   1.353   6.688 -0.2409 -0.1935 -0.0153
18968TIP3    H178395   1.080   1.315   6.776 -1.0725 -3.4301 -1.2785
18968TIP3    H278396   0.980   1.337   6.664  0.0333  0.4769 -1.5455
18969TIP3   OH278397   3.151   5.422  13.300 -0.2087  0.3368  0.2883
18969TIP3    H178398   3.168   5.450  13.390 -2.5227  1.5255  0.3837
18969TIP3    H278399   3.209   5.478  13.247 -0.6852  1.4031  0.8683
18970TIP3   OH278400   4.701   4.650  15.127  0.7094 -0.6123  0.0905
18970TIP3    H178401   4.670   4.727  15.175 -0.2349 -0.7008 -0.3729
18970TIP3    H278402   4.771   4.614  15.183  0.6735  0.1625  0.6517
18971TIP3   OH278403   1.933   5.281   4.343  0.1146  0.3759 -0.3196
18971TIP3    H178404   1.919   5.204   4.289  0.1814  1.3186 -1.7089
18971TIP3    H278405   1.986   5.250   4.417 -1.0514 -1.1820 -0.1092
18972TIP3   OH278406   4.754   3.191  15.068 -0.2443  0.6226  1.0992
18972TIP3    H178407   4.667   3.205  15.032 -1.0256 -0.6127  2.4540
18972TIP3    H278408   4.739   3.166  15.159  1.4779 -0.2503  1.1711
18973TIP3   OH278409   2.350   1.888   6.034 -0.1812 -0.0525  0.2084
18973TIP3    H178410   2.393   1.932   5.961 -0.3926 -0.6941 -0.3027
18973TIP3    H278411   2.378   1.796   6.027 -0.3365 -0.1532  0.8348
18974TIP3   OH278412   1.591   0.570   3.515 -0.5678  0.1407  0.6237
18974TIP3    H178413   1.590   0.506   3.444  2.0863  1.9265 -1.1680
18974TIP3    H278414   1.524   0.634   3.491  0.3155  0.7342 -0.3251
18975TIP3   OH278415   1.710   4.419   5.895 -0.3339  0.6464  0.3855
18975TIP3    H178416   1.687   4.453   5.982  1.6773  0.0960  1.1787
18975TIP3    H278417   1.803   4.395   5.904 -0.2922 -0.0089 -1.7363
18976TIP3   OH278418   5.829   5.441  15.543  0.7684  0.3401 -0.3398
18976TIP3    H178419   5.845   5.510  15.607  1.1867  0.3319 -0.4366
18976TIP3    H278420   5.733   5.435  15.538  0.6896  1.9021 -1.3742
18977TIP3   OH278421   2.378   2.271   2.212 -0.1212  0.3025 -0.4143
18977TIP3    H178422   2.352   2.300   2.300  1.1528 -1.2923  0.5063
18977TIP3    H278423   2.473   2.280   2.211 -0.1779  0.8887 -1.8670
18978TIP3   OH278424   3.390   2.561  15.622 -0.0614  0.3702  0.3172
18978TIP3    H178425   3.425   2.507  15.693 -0.8813 -1.3960 -0.5677
18978TIP3    H278426   3.450   2.546  15.549 -0.3926  0.5110  0.0148
18979TIP3   OH278427   4.849   0.412   4.506 -0.3209  0.1623  0.0350
18979TIP3    H178428   4.922   0.435   4.450 -0.3382 -0.5506 -0.2874
18979TIP3    H278429   4.882   0.339   4.559 -1.1303 -0.8717 -0.8550
18980TIP3   OH278430   5.129   4.589   3.680  0.0143  0.7869  0.0311
18980TIP3    H178431   5.101   4.610   3.770  0.6431  1.0591  0.1684
18980TIP3    H278432   5.195   4.655   3.660  0.6898  0.0410 -0.2209
18981TIP3   OH278433   0.835   2.115  13.894 -0.4839 -0.8055 -0.2244
18981TIP3    H178434   0.846   2.037  13.949  1.7330  1.4588  2.6913
18981TIP3    H278435   0.756   2.157  13.927  0.1069 -0.1414  0.3474
18982TIP3   OH278436   2.366   0.883   5.432  0.4554 -0.0165  0.1174
18982TIP3    H178437   2.314   0.877   5.512 -0.2646 -1.1472 -0.4335
18982TIP3    H278438   2.452   0.847   5.456  0.4222  0.1860  0.5359
18983TIP3   OH278439   6.621   3.133  11.039 -0.2550 -0.2268  0.4826
18983TIP3    H178440   6.701   3.148  11.089  0.6153 -0.4670 -0.8165
18983TIP3    H278441   6.636   3.050  10.995 -1.2660 -0.3173  0.3042
18984TIP3   OH278442   5.906   4.118   2.131  0.8588 -0.5638  0.3377
18984TIP3    H178443   5.870   4.153   2.212  1.8184  1.3826 -0.0503
18984TIP3    H278444   5.867   4.172   2.062  1.6280 -0.8576 -0.3389
18985TIP3   OH278445   5.772   4.231   2.360  0.1990 -0.5673 -0.2101
18985TIP3    H178446   5.693   4.279   2.383  1.3095  1.3073 -0.2465
18985TIP3    H278447   5.840   4.298   2.350  2.0085 -2.1993  0.6802
18986TIP3   OH278448   6.115   1.887  15.733  0.3749  0.0875  0.6330
18986TIP3    H178449   6.051   1.848  15.673  0.6628 -0.6678  0.8145
18986TIP3    H278450   6.183   1.923  15.676 -0.2976  1.0734  0.4272
18987TIP3   OH278451   6.791   0.481  13.352  0.4401 -0.4005 -0.3639
18987TIP3    H178452   6.759   0.404  13.399  1.3011 -0.9428 -0.6554
18987TIP3    H278453   6.766   0.465  13.261  2.5551 -1.4095 -0.8086
18988TIP3   OH278454   3.078   5.931  11.700 -0.3436  0.4783 -0.1333
18988TIP3    H178455   3.060   5.935  11.794 -1.8659  1.8337 -0.4750
18988TIP3    H278456   3.174   5.925  11.695 -0.3166 -0.7658  1.5211
18989TIP3   OH278457   6.750   4.560   0.364 -0.0071  0.3946 -0.1059
18989TIP3    H178458   6.694   4.607   0.303 -0.4161  0.9461  0.6790
18989TIP3    H278459   6.716   4.583   0.451  0.7059 -0.1868  0.3395
18990TIP3   OH278460   5.895   4.774   2.982 -0.5237 -0.3467 -0.0252
18990TIP3    H178461   5.822   4.712   2.976 -1.1723  0.2956  1.0013
18990TIP3    H278462   5.897   4.800   3.074 -1.0104  2.0350 -0.6534
18991TIP3   OH278463   4.653   3.435   4.242  0.2169 -0.8760 -0.1415
18991TIP3    H178464   4.746   3.444   4.264  0.0626  0.6807 -0.0540
18991TIP3    H278465   4.609   3.492   4.306 -0.6874 -0.6638 -0.9567
18992TIP3   OH278466   2.801   6.759  17.031 -0.3272 -0.8058  0.3098
18992TIP3    H178467   2.782   6.828  17.094  0.6902 -0.5597  0.3527
18992TIP3    H278468   2.736   6.691  17.050  0.3570 -0.9999  2.0361
18993TIP3   OH278469   0.736   0.202   0.192  0.0887  0.7840 -0.6148
18993TIP3    H178470   0.735   0.269   0.124  1.3333  1.2135 -0.2128
18993TIP3    H278471   0.751   0.120   0.145 -0.4022  0.9120 -0.9971
18994TIP3   OH278472   2.270   3.832  10.388  0.2920 -0.1972 -0.1183
18994TIP3    H178473   2.299   3.902  10.446 -0.9441 -1.1747  1.7129
18994TIP3    H278474   2.198   3.870  10.338 -0.1436 -0.0497  0.6191
18995TIP3   OH278475   4.237   3.490   3.887  0.3739 -0.0581  0.0806
18995TIP3    H178476   4.271   3.406   3.918 -1.6231 -0.9712 -0.1471
18995TIP3    H278477   4.257   3.551   3.958  2.6064 -0.4956 -0.1031
18996TIP3   OH278478   0.789   2.499  11.171  0.0546 -0.1187 -0.5829
18996TIP3    H178479   0.846   2.434  11.131 -1.7441 -1.0282 -1.7390
18996TIP3    H278480   0.746   2.542  11.098 -1.2977  0.0226  0.2775
18997TIP3   OH278481   3.540   4.675   4.879  0.0527 -0.0737  0.9346
18997TIP3    H178482   3.616   4.733   4.868  0.2805 -0.7478 -1.2958
18997TIP3    H278483   3.465   4.731   4.858  0.0790  0.0463  1.1521
18998TIP3   OH278484   0.787   3.745  12.638 -0.0748  0.9896  0.1367
18998TIP3    H178485   0.821   3.671  12.689  0.2382  0.8276 -0.3113
18998TIP3    H278486   0.782   3.712  12.548 -0.9235  1.1730  0.1113
18999TIP3   OH278487   5.225   6.375   3.089  0.0776  0.6100 -0.3106
18999TIP3    H178488   5.232   6.410   3.001  2.0272  1.0658  0.0033
18999TIP3    H278489   5.212   6.281   3.076 -0.5912  0.8090 -1.0937
19000TIP3   OH278490   4.346   5.843   3.374 -0.6910  0.0497  0.3210
19000TIP3    H178491   4.252   5.854   3.361 -0.5206 -0.3449 -1.2676
19000TIP3    H278492   4.360   5.867   3.466 -2.0400  1.9592  0.0438
19001TIP3   OH278493   1.070   1.509  17.009  0.0252 -0.2371  0.2122
19001TIP3    H178494   1.082   1.496  17.103  3.1691 -1.6450 -0.3443
19001TIP3    H278495   1.040   1.424  16.977  0.2887 -0.1489 -0.2676
19002TIP3   OH278496   4.300   4.104   2.616  0.0092  0.0213 -0.3701
19002TIP3    H178497   4.330   4.018   2.644 -0.4827  0.4868  1.6706
19002TIP3    H278498   4.355   4.166   2.664 -1.7024  0.8580  0.5584
19003TIP3   OH278499   0.271   5.713  14.339 -0.4004 -0.1025 -0.0662
19003TIP3    H178500   0.282   5.750  14.427 -1.2727 -1.1287  0.4803
19003TIP3    H278501   0.293   5.621  14.349  0.2866 -0.0518 -1.1048
19004TIP3   OH278502   0.243   5.159  12.414  0.1849  0.0337 -0.0063
19004TIP3    H178503   0.236   5.156  12.509 -1.1046  1.3744 -0.0370
19004TIP3    H278504   0.301   5.234  12.397  0.7635 -0.4727 -0.2589
19005TIP3   OH278505   1.078   6.205   5.064 -0.2405 -0.4088 -0.2042
19005TIP3    H178506   1.160   6.199   5.014  0.6820  0.7413  1.1440
19005TIP3    H278507   1.035   6.121   5.049  1.6746 -1.4398 -0.1131
19006TIP3   OH278508   2.704   1.750   5.411  0.5580 -0.1314 -0.6918
19006TIP3    H178509   2.795   1.724   5.397  0.5145  0.7122 -2.7336
19006TIP3    H278510   2.676   1.701   5.488  2.7019 -0.4863 -0.1258
19007TIP3   OH278511   2.093   2.622  16.671 -0.1565 -0.6297  0.2686
19007TIP3    H178512   2.116   2.679  16.744 -0.5731 -1.1950  0.8477
19007TIP3    H278513   2.014   2.661  16.634  0.2364 -0.1635 -0.0799
19008TIP3   OH278514   2.753   2.131   4.994 -0.2052  0.1192  0.1036
19008TIP3    H178515   2.817   2.063   5.017  0.5798  1.4702  1.9858
19008TIP3    H278516   2.756   2.193   5.066 -0.1600  2.7261 -2.0464
19009TIP3   OH278517   2.268   2.860  12.507  0.2093  0.2463  0.5516
19009TIP3    H178518   2.180   2.874  12.472  0.3802  2.9727  1.1278
19009TIP3    H278519   2.279   2.765  12.505 -2.9107 -0.1878  0.9053
19010TIP3   OH278520   4.584   4.355  12.635  0.6350  0.2956 -1.2356
19010TIP3    H178521   4.521   4.289  12.609  0.1896 -0.9953  2.8693
19010TIP3    H278522   4.669   4.312  12.626  0.3011 -1.1931  2.1668
19011TIP3   OH278523   3.535   6.138   1.200 -0.3542  0.4015  1.1445
19011TIP3    H178524   3.592   6.201   1.243 -1.8008  3.3757 -1.1123
19011TIP3    H278525   3.453   6.142   1.249 -0.7536  0.9815  0.4374
19012TIP3   OH278526   3.143   2.258  14.680  0.1621 -0.2854 -0.5071
19012TIP3    H178527   3.126   2.206  14.602  0.1616  0.1674 -0.8085
19012TIP3    H278528   3.062   2.250  14.732 -0.3238  0.4445 -1.1358
19013TIP3   OH278529   5.350   3.532   1.262  0.1118 -0.1851  0.3537
19013TIP3    H178530   5.382   3.568   1.179 -2.0762 -3.0018 -1.8088
19013TIP3    H278531   5.409   3.459   1.281 -1.7692 -2.1201 -0.9475
19014TIP3   OH278532   5.089   6.709  13.015 -0.0389  0.2950  0.4451
19014TIP3    H178533   5.139   6.783  13.048  1.8405 -0.4075 -0.7368
19014TIP3    H278534   5.063   6.734  12.926  3.0299 -1.4997 -1.0481
19015TIP3   OH278535   2.861   4.306  14.323 -0.3726  0.8308  0.2894
19015TIP3    H178536   2.839   4.395  14.352  0.5174  1.0902  0.2005
19015TIP3    H278537   2.924   4.275  14.389  1.0238  1.1156 -0.8829
19016TIP3   OH278538   0.210   4.503  14.954  0.2236 -0.3366  0.2342
19016TIP3    H178539   0.152   4.519  14.879  0.6779  0.9481  0.1307
19016TIP3    H278540   0.153   4.512  15.030  0.2289  0.7087  0.1242
19017TIP3   OH278541   3.405   3.975   4.310 -0.0800  0.1093 -0.5365
19017TIP3    H178542   3.319   3.999   4.276  0.1316  1.1216 -0.3853
19017TIP3    H278543   3.435   3.904   4.253 -0.6135  0.3906 -1.1699
19018TIP3   OH278544   0.355   5.733  16.285 -0.1042  0.1076 -0.2611
19018TIP3    H178545   0.447   5.739  16.312 -0.0570 -2.5815  0.3186
19018TIP3    H278546   0.357   5.689  16.200 -0.9286 -1.6908  0.6137
19019TIP3   OH278547   1.269   5.846   2.760  0.1321 -0.7826 -0.0324
19019TIP3    H178548   1.340   5.895   2.803  1.5759 -1.9016 -1.1052
19019TIP3    H278549   1.288   5.853   2.667 -1.8630 -0.0884 -0.4116
19020TIP3   OH278550   0.872   6.077  11.706 -0.4928 -0.3161 -0.0669
19020TIP3    H178551   0.795   6.028  11.735 -0.4716 -1.4289 -1.8476
19020TIP3    H278552   0.915   6.021  11.642  0.7975  1.0685 -0.4636
19021TIP3   OH278553   4.846   0.117  17.280  0.2988 -0.2224  0.4635
19021TIP3    H178554   4.799   0.186  17.233 -0.6310 -1.8991 -1.1488
19021TIP3    H278555   4.804   0.112  17.365  0.3296  1.1495  0.5635
19022TIP3   OH278556   0.552   6.592   3.708 -0.0856 -0.3751 -0.1781
19022TIP3    H178557   0.522   6.632   3.627  0.9598  1.5204  0.3341
19022TIP3    H278558   0.540   6.661   3.774  3.3934 -0.2506  0.4098
19023TIP3   OH278559   4.517   4.556   3.138  0.0531 -0.2433  0.8706
19023TIP3    H178560   4.612   4.550   3.144  0.1761 -1.5003 -1.9084
19023TIP3    H278561   4.484   4.484   3.193  0.7868 -1.8454 -0.7609
19024TIP3   OH278562   3.119   3.751   2.933  0.3345 -0.1404 -0.6068
19024TIP3    H178563   3.068   3.832   2.926  0.1624  0.1281  3.0661
19024TIP3    H278564   3.208   3.778   2.910  0.1438  0.9596 -0.1162
19025TIP3   OH278565   6.385   0.546   0.029  0.1598 -0.4679 -0.2466
19025TIP3    H178566   6.435   0.477  -0.015 -1.5660 -2.2368  0.4673
19025TIP3    H278567   6.389   0.620  -0.031 -0.0836 -2.0391 -2.2777
19026TIP3   OH278568   5.234   6.503   1.455  0.1271  0.5001  0.4281
19026TIP3    H178569   5.156   6.519   1.402  0.5842 -1.5347 -0.9215
19026TIP3    H278570   5.306   6.533   1.400  0.4826 -0.1331  0.5422
19027TIP3   OH278571   1.020   5.444   2.219  0.9804 -0.2000  0.0192
19027TIP3    H178572   0.944   5.500   2.203  0.5279 -0.8072  0.0244
19027TIP3    H278573   1.084   5.502   2.259  0.4014  0.2416  0.3143
19028TIP3   OH278574   0.469   5.565  16.109 -0.1648 -0.2347  0.8806
19028TIP3    H178575   0.526   5.567  16.186 -0.1160 -1.5374  0.8923
19028TIP3    H278576   0.526   5.532  16.039 -0.4664  0.0185  0.5195
19029TIP3   OH278577   4.933   0.445   1.453 -0.1285  0.2064 -0.4054
19029TIP3    H178578   4.844   0.420   1.478  0.4836 -0.8389  0.7456
19029TIP3    H278579   4.942   0.534   1.485 -0.6169  0.1716 -0.1556
19030TIP3   OH278580   3.083   2.844   6.144  0.6677 -0.2789  0.2115
19030TIP3    H178581   3.078   2.917   6.082 -0.1801 -0.9219 -0.4973
19030TIP3    H278582   3.014   2.863   6.208 -1.0572 -1.5806 -1.2262
19031TIP3   OH278583   0.353   1.075   5.421 -0.3452  0.1681 -0.5464
19031TIP3    H178584   0.446   1.054   5.427 -0.3489  0.7123  1.9301
19031TIP3    H278585   0.314   0.998   5.380  1.2227  0.0788 -1.9209
19032TIP3   OH278586   2.188   5.479   3.239  0.4018  0.6270 -0.2245
19032TIP3    H178587   2.108   5.488   3.291  0.8722 -2.6388  1.2184
19032TIP3    H278588   2.186   5.389   3.207  2.6235  1.0453 -1.6426
19033TIP3   OH278589   0.559   3.851  14.608 -0.1418 -0.6189 -0.2497
19033TIP3    H178590   0.579   3.763  14.640  1.3888 -0.3662 -0.4686
19033TIP3    H278591   0.527   3.898  14.685 -0.7791 -1.2954 -0.0886
19034TIP3   OH278592   2.523   5.523  15.351 -0.0857 -0.1117 -0.3719
19034TIP3    H178593   2.583   5.539  15.279  0.4646 -0.0769  0.0954
19034TIP3    H278594   2.445   5.575  15.329  0.9603  1.7261  0.1881
19035TIP3   OH278595   5.347   0.345   2.547  0.5986  0.0372 -0.3545
19035TIP3    H178596   5.394   0.356   2.630  0.5591 -0.7161 -0.2329
19035TIP3    H278597   5.292   0.423   2.541 -0.1177 -0.3707  0.7951
19036TIP3   OH278598   2.796   6.010   0.777  0.3366  1.0032 -0.0588
19036TIP3    H178599   2.708   6.033   0.748  0.2673 -1.6270 -2.1793
19036TIP3    H278600   2.785   5.928   0.826  1.4144  1.5226  1.0897
19037TIP3   OH278601   1.870   5.994  15.228 -0.3898  0.4622 -0.5010
19037TIP3    H178602   1.862   6.042  15.310 -0.5251 -1.0278  0.3909
19037TIP3    H278603   1.883   5.903  15.255  1.5017  0.2246 -2.1144
19038TIP3   OH278604   5.167   0.692   4.158 -0.6673  0.5295  0.4619
19038TIP3    H178605   5.122   0.658   4.080 -1.3928 -0.4650  1.3093
19038TIP3    H278606   5.124   0.775   4.176 -1.1241  0.3187  0.3530
19039TIP3   OH278607   5.019   3.385   2.828 -0.4083 -0.1732 -0.6261
19039TIP3    H178608   4.964   3.346   2.896 -1.1989  0.5968 -0.8121
19039TIP3    H278609   4.957   3.415   2.761  0.1824  1.3813 -0.4988
19040TIP3   OH278610   5.445   2.627  11.715  0.1124 -0.0506  0.0355
19040TIP3    H178611   5.382   2.662  11.778  0.5381 -0.9426  0.9669
19040TIP3    H278612   5.524   2.680  11.728 -0.4498  1.1352 -1.2009
19041TIP3   OH278613   1.508   2.199  11.444  0.4440  0.5595 -0.0008
19041TIP3    H178614   1.582   2.203  11.505 -0.7337 -0.5484  1.5352
19041TIP3    H278615   1.503   2.107  11.418 -0.3986  0.6224 -0.0727
19042TIP3   OH278616   5.106   6.205   4.811  0.4466  0.0975 -0.4278
19042TIP3    H178617   5.073   6.125   4.771  1.8441 -0.4953 -0.4331
19042TIP3    H278618   5.127   6.180   4.901  0.8032  0.4636 -0.4044
19043TIP3   OH278619   3.864   3.286   3.372  0.6608 -1.1593 -0.0728
19043TIP3    H178620   3.876   3.322   3.284 -0.9122 -2.2266 -0.7429
19043TIP3    H278621   3.947   3.243   3.392  1.4540  0.1302 -0.5172
19044TIP3   OH278622   3.788   3.722   4.434 -0.8523  0.6628 -0.0419
19044TIP3    H178623   3.692   3.712   4.433 -0.8998  1.1428 -0.1543
19044TIP3    H278624   3.809   3.741   4.525 -0.5577 -2.4275  0.6079
19045TIP3   OH278625   3.256   3.056  11.584  0.9922  0.4369  0.2423
19045TIP3    H178626   3.286   3.011  11.505  0.3526 -0.3479  0.4373
19045TIP3    H278627   3.192   2.996  11.623  1.5592  0.6531  1.5507
19046TIP3   OH278628   6.479   3.713  12.254 -0.2001 -0.3485  0.2470
19046TIP3    H178629   6.555   3.659  12.273  0.5999  0.9553  0.8416
19046TIP3    H278630   6.511   3.777  12.190  0.0085  2.0426  2.6766
19047TIP3   OH278631   4.770   2.520  14.065 -0.2890  0.1931  0.1521
19047TIP3    H178632   4.775   2.526  13.970  1.3340  2.9688  0.3192
19047TIP3    H278633   4.846   2.467  14.089 -0.5242 -0.2554 -0.1003
19048TIP3   OH278634   5.787   1.914   1.468  0.8975 -0.4873 -0.5490
19048TIP3    H178635   5.791   1.842   1.531 -2.4159 -0.1766  0.1147
19048TIP3    H278636   5.820   1.990   1.516  0.8720 -0.7937 -0.0369
19049TIP3   OH278637   1.656   6.043   0.523  0.6419 -0.0271 -0.4168
19049TIP3    H178638   1.588   5.976   0.516  2.6805 -2.2688  0.5221
19049TIP3    H278639   1.632   6.094   0.601 -0.7289  0.1444 -0.9356
19050TIP3   OH278640   6.671   1.741  14.357  0.3710 -0.2920  0.2493
19050TIP3    H178641   6.696   1.658  14.317 -0.9998 -0.5608 -0.0853
19050TIP3    H278642   6.672   1.724  14.451  0.4831 -0.5738  0.1970
19051TIP3   OH278643   6.142   0.670  17.140 -0.4664  0.5738  0.1831
19051TIP3    H178644   6.235   0.651  17.126 -0.4207 -0.2455  1.4882
19051TIP3    H278645   6.137   0.697  17.232 -1.3853  1.5402 -0.1411
19052TIP3   OH278646   0.744   0.612  13.684  0.0635  0.3719 -0.3181
19052TIP3    H178647   0.719   0.636  13.595 -1.3186  1.4857  0.3574
19052TIP3    H278648   0.677   0.549  13.711  0.9390 -0.5777 -0.3541
19053TIP3   OH278649   3.755   2.394  12.694 -0.2298  0.7358 -0.1439
19053TIP3    H178650   3.688   2.418  12.757  0.3429  0.4909  0.5647
19053TIP3    H278651   3.709   2.392  12.610 -1.8693 -2.5067  0.7165
19054TIP3   OH278652   0.390   5.399   6.342 -0.0103  0.4159  0.4951
19054TIP3    H178653   0.485   5.394   6.347  0.0998  2.8061  0.9574
19054TIP3    H278654   0.367   5.484   6.378 -2.4859 -0.8940  2.2342
19055TIP3   OH278655   1.361   0.805  15.100 -0.6865  0.0208  0.1335
19055TIP3    H178656   1.383   0.799  15.193  0.7229 -0.1428 -0.1935
19055TIP3    H278657   1.415   0.876  15.067 -0.9681 -0.1068 -0.6158
19056TIP3   OH278658   6.248   2.395   5.758  0.4903  0.2216 -0.2420
19056TIP3    H178659   6.323   2.447   5.785  0.6681  0.3570 -0.9864
19056TIP3    H278660   6.232   2.336   5.832  1.6842 -0.1998 -0.3079
19057TIP3   OH278661   2.348   3.862  11.559 -0.5522  0.4595 -0.2021
19057TIP3    H178662   2.432   3.815  11.559 -0.3698  0.7232  2.0687
19057TIP3    H278663   2.372   3.954  11.551 -0.5715  0.5813  1.0336
19058TIP3   OH278664   3.021   1.838  14.066 -0.7316  0.2998  0.8623
19058TIP3    H178665   3.084   1.768  14.048 -1.1744 -0.3018  1.6118
19058TIP3    H278666   2.973   1.849  13.985  0.0665  0.4893  0.4060
19059TIP3   OH278667   3.135   5.363  13.862  0.1318  0.1123 -0.3646
19059TIP3    H178668   3.084   5.283  13.860 -0.7669  0.6756 -0.2333
19059TIP3    H278669   3.203   5.348  13.927  0.7875 -1.0318 -1.2923
19060TIP3   OH278670   6.131   0.996   3.671  0.2355  0.0217  0.5501
19060TIP3    H178671   6.151   0.917   3.621 -0.2935  0.5014 -0.4416
19060TIP3    H278672   6.104   0.963   3.758 -1.4944 -0.9977 -0.3337
19061TIP3   OH278673   6.119   4.293  13.697 -0.1668  0.2886 -0.1339
19061TIP3    H178674   6.144   4.208  13.732 -1.1943 -0.4317 -1.1231
19061TIP3    H278675   6.044   4.321  13.749 -0.4450  0.1351 -0.4493
19062TIP3   OH278676   3.846   4.192  14.371 -0.3415  0.3859 -0.0964
19062TIP3    H178677   3.928   4.198  14.322 -0.2173  0.4779  0.1258
19062TIP3    H278678   3.841   4.100  14.397 -0.9505  0.0804 -1.2279
19063TIP3   OH278679   0.336   2.790   3.942  0.2560  0.1005  0.0651
19063TIP3    H178680   0.394   2.761   3.871  1.8962  0.1953  1.3237
19063TIP3    H278681   0.396   2.811   4.014 -1.2628  1.6015  0.9193
19064TIP3   OH278682   1.277   0.640  13.592  0.2281  0.6973 -0.4925
19064TIP3    H178683   1.186   0.665  13.572 -0.0369  0.4469  0.3668
19064TIP3    H278684   1.278   0.630  13.687  0.7576 -0.9088 -0.6557
19065TIP3   OH278685   1.868   2.755  16.571 -0.3961  0.5180 -0.1094
19065TIP3    H178686   1.871   2.825  16.506  2.2613 -1.3870 -2.1257
19065TIP3    H278687   1.810   2.689  16.532 -0.5743  0.3165  0.4956
19066TIP3   OH278688   6.794   0.120   4.173  0.0831 -0.0166  0.2501
19066TIP3    H178689   6.797   0.035   4.216  0.5024 -0.9596 -1.6232
19066TIP3    H278690   6.734   0.109   4.099 -1.1357  1.7684  0.9119
19067TIP3   OH278691   2.907   5.114   0.453 -0.3011  0.6767 -0.2504
19067TIP3    H178692   2.983   5.171   0.465  0.4622 -0.0859 -1.3825
19067TIP3    H278693   2.916   5.046   0.519  0.2957  0.2725 -0.7515
19068TIP3   OH278694   3.341   2.857   3.572  0.4097 -0.0860  0.0295
19068TIP3    H178695   3.331   2.931   3.632 -1.0195 -0.7752  0.6676
19068TIP3    H278696   3.375   2.896   3.492  3.1720  0.7531  1.5236
19069TIP3   OH278697   5.714   5.354  11.607 -0.1464  0.2321  0.6181
19069TIP3    H178698   5.643   5.379  11.547  0.4747  0.4272 -0.0397
19069TIP3    H278699   5.760   5.435  11.625  0.6718 -0.0988  0.0492
19070TIP3   OH278700   1.229   3.388  12.837  0.5417  0.4123 -0.5696
19070TIP3    H178701   1.321   3.367  12.821  1.0086  1.0122  1.2699
19070TIP3    H278702   1.185   3.303  12.839  1.5200 -0.0895  1.2971
19071TIP3   OH278703   1.283   2.728  11.444 -0.5102  0.4241  0.0291
19071TIP3    H178704   1.340   2.790  11.397 -0.0495 -2.0754 -2.8722
19071TIP3    H278705   1.197   2.739  11.404 -0.7291  0.1222  0.4101
19072TIP3   OH278706   6.171   4.747   2.925  0.0173 -0.1278 -0.6433
19072TIP3    H178707   6.081   4.739   2.893  0.5146 -0.1996 -2.0557
19072TIP3    H278708   6.212   4.810   2.865  1.4202 -1.4918 -1.1449
19073TIP3   OH278709   1.083   0.116   4.060  0.3440  0.8086  0.1185
19073TIP3    H178710   1.030   0.120   4.140  0.6694 -0.8367  0.4371
19073TIP3    H278711   1.126   0.201   4.055 -1.5470  1.7988  0.4007
19074TIP3   OH278712   0.673   4.973   0.261  0.2333  0.2369 -0.6448
19074TIP3    H178713   0.592   4.940   0.300  1.0718 -0.4212  0.5783
19074TIP3    H278714   0.698   5.047   0.316  1.0046 -0.2007 -0.3972
19075TIP3   OH278715   2.074   2.485   6.340  0.1373  0.0713  0.8012
19075TIP3    H178716   2.048   2.495   6.432 -1.6365  1.6816  0.1687
19075TIP3    H278717   2.083   2.575   6.308  2.6724 -0.4670 -0.0994
19076TIP3   OH278718   5.196   4.484  15.951  0.1840  0.3831  0.1475
19076TIP3    H178719   5.157   4.456  16.034 -0.9301 -0.4536 -0.6542
19076TIP3    H278720   5.290   4.473  15.964  0.0059  0.1753  1.2682
19077TIP3   OH278721   5.412   5.004   1.981 -0.2327 -0.6690  0.2315
19077TIP3    H178722   5.341   4.984   2.042  0.0768 -0.9414  0.4989
19077TIP3    H278723   5.483   4.945   2.006  0.7188  0.7985  1.0815
19078TIP3   OH278724   0.700   0.107  14.037 -0.2662  0.5471  0.4118
19078TIP3    H178725   0.672   0.016  14.037  1.6570 -0.0765 -1.2508
19078TIP3    H278726   0.715   0.128  13.945  0.4098  2.1985  0.8752
19079TIP3   OH278727   1.820   4.958   5.587  0.0682  0.3471 -0.5424
19079TIP3    H178728   1.796   4.950   5.679  0.1859 -2.0200 -0.7021
19079TIP3    H278729   1.743   4.928   5.539  0.5806  0.0489 -1.1835
19080TIP3   OH278730   5.432   2.244  10.771  0.0982 -0.3248  0.0133
19080TIP3    H178731   5.527   2.253  10.777  0.1045  0.8514 -1.5574
19080TIP3    H278732   5.408   2.297  10.695 -1.9304  0.1701  0.9809
19081TIP3   OH278733   3.511   4.685   3.242 -0.0116 -0.0948  0.4917
19081TIP3    H178734   3.510   4.592   3.222  1.5270  0.0373 -0.2668
19081TIP3    H278735   3.480   4.690   3.333 -1.3003 -1.2170  0.1281
19082TIP3   OH278736   0.230   6.396  13.368 -0.3561  0.4411 -0.3936
19082TIP3    H178737   0.302   6.333  13.366 -1.8923 -1.3535 -2.9902
19082TIP3    H278738   0.194   6.389  13.456  1.1061 -0.4338  0.1501
19083TIP3   OH278739   3.323   4.695  12.988  0.0844  0.7021 -0.0018
19083TIP3    H178740   3.309   4.682  13.081  0.9695  1.1540  0.2060
19083TIP3    H278741   3.321   4.790  12.976 -0.0999  0.6462 -0.4516
19084TIP3   OH278742   2.164   3.080  13.420  0.1955 -0.3817  0.6392
19084TIP3    H178743   2.164   3.061  13.326  1.2481  0.7275  0.4008
19084TIP3    H278744   2.221   3.157  13.429 -0.7126  0.1503  2.0589
19085TIP3   OH278745   6.271   2.930   0.980 -0.0842 -0.0177 -0.2096
19085TIP3    H178746   6.322   3.006   0.952  0.7169 -0.1233  0.9279
19085TIP3    H278747   6.203   2.921   0.913 -0.0259  1.5337 -0.5032
19086TIP3   OH278748   5.247   3.919   1.479  0.1309 -0.0408 -0.5647
19086TIP3    H178749   5.236   3.843   1.536 -2.3274  0.0467 -0.8745
19086TIP3    H278750   5.291   3.884   1.401 -2.2613 -1.4579 -1.3128
19087TIP3   OH278751   1.815   3.401   3.185  0.1668  0.1364 -0.0840
19087TIP3    H178752   1.880   3.331   3.193  0.4789  0.3875 -0.4375
19087TIP3    H278753   1.746   3.376   3.246  0.5336 -0.2000  0.1954
19088TIP3   OH278754   6.576   1.609   0.070  0.0844 -0.4896  0.0156
19088TIP3    H178755   6.576   1.579  -0.021  1.3307 -0.6646  0.0766
19088TIP3    H278756   6.605   1.533   0.121 -0.0932 -0.2290  0.5152
19089TIP3   OH278757   0.823   0.789  16.094  0.5540  0.3928  0.0088
19089TIP3    H178758   0.866   0.840  16.162  0.8046 -0.7244  0.6919
19089TIP3    H278759   0.803   0.705  16.135 -0.2515  0.0895 -0.9740
19090TIP3   OH278760   4.160   6.552  13.211  0.4832  0.0145  0.1642
19090TIP3    H178761   4.187   6.604  13.287 -1.6961 -0.5740  1.3993
19090TIP3    H278762   4.089   6.603  13.171  1.5392  0.2601 -1.4403
19091TIP3   OH278763   4.783   2.580  13.775  0.2345  0.0487 -0.4169
19091TIP3    H178764   4.753   2.551  13.689  1.3730  0.0508 -0.8239
19091TIP3    H278765   4.813   2.669  13.761 -0.6100  0.4446  0.2333
19092TIP3   OH278766   1.943   1.547  11.790  0.2217 -0.3443 -0.3379
19092TIP3    H178767   1.874   1.582  11.846 -0.1884  0.1484 -1.1445
19092TIP3    H278768   1.918   1.573  11.702  1.2330 -0.5111 -0.6829
19093TIP3   OH278769   2.840   1.465   2.566  0.2287  0.0610  0.2003
19093TIP3    H178770   2.919   1.454   2.619 -0.8511 -0.0675  1.8155
19093TIP3    H278771   2.844   1.556   2.536  2.6004 -0.8388 -2.4334
19094TIP3   OH278772   2.838   0.294  13.021 -0.4277 -0.0239  0.1137
19094TIP3    H178773   2.744   0.308  13.024 -0.3986 -0.1573  3.4397
19094TIP3    H278774   2.866   0.339  12.941 -3.4636 -1.2603 -1.7266
19095TIP3   OH278775   3.326   0.436   3.156 -0.1555 -0.2440  0.3788
19095TIP3    H178776   3.357   0.428   3.246 -0.6731 -0.2271  0.5626
19095TIP3    H278777   3.308   0.529   3.145 -2.2834 -0.5521  1.0098
19096TIP3   OH278778   5.220   0.889   4.654  0.0787 -0.3295  0.2258
19096TIP3    H178779   5.143   0.839   4.680 -0.7682  1.7722  1.9554
19096TIP3    H278780   5.293   0.828   4.662 -0.7966 -1.0921  3.2054
19097TIP3   OH278781   5.223   5.148   0.125 -0.2868 -0.4983  0.3813
19097TIP3    H178782   5.236   5.079   0.191 -1.9259 -0.3631  0.8614
19097TIP3    H278783   5.207   5.100   0.044 -1.9312 -0.6923  0.8162
19098TIP3   OH278784   2.978   0.189   3.410  0.4893 -0.6992  0.4938
19098TIP3    H178785   3.015   0.101   3.417  0.4111 -0.6447  1.7005
19098TIP3    H278786   2.956   0.213   3.500 -2.8895 -0.9100 -0.2152
19099TIP3   OH278787   4.506   6.053  11.667 -0.0674 -0.1998  0.2662
19099TIP3    H178788   4.414   6.033  11.646 -0.1614  1.8150 -1.4177
19099TIP3    H278789   4.523   6.135  11.621  3.0516 -1.3533 -0.7196
19100TIP3   OH278790   3.982   1.811  11.831  0.1428  0.0600  0.1706
19100TIP3    H178791   3.974   1.737  11.771  1.1335 -0.2919  0.4643
19100TIP3    H278792   3.908   1.867  11.810 -0.0024 -0.4878 -0.7914
19101TIP3   OH278793   1.218   0.227  15.496  0.2277 -0.6013  0.5681
19101TIP3    H178794   1.289   0.287  15.473  0.5354 -1.2900 -0.3162
19101TIP3    H278795   1.253   0.174  15.568  1.2455 -2.0909 -1.0007
19102TIP3   OH278796   3.603   5.116   5.373  0.2601 -0.2605  0.1414
19102TIP3    H178797   3.677   5.057   5.358  0.5213 -0.1743  1.0685
19102TIP3    H278798   3.572   5.093   5.461 -0.8594 -0.3417 -0.2680
19103TIP3   OH278799   3.239   4.020  11.377 -0.2824 -0.0987 -0.1446
19103TIP3    H178800   3.158   3.997  11.423 -0.3526  0.5196  0.0428
19103TIP3    H278801   3.267   3.938  11.336 -0.4583 -0.5537  0.6250
19104TIP3   OH278802   5.918   4.627   1.416  0.4708 -0.1914 -0.1410
19104TIP3    H178803   5.842   4.671   1.453  0.6984  1.0006 -1.0594
19104TIP3    H278804   5.993   4.669   1.457  0.7000  0.5669 -1.3274
19105TIP3   OH278805   0.915   6.515   2.690  0.1595 -0.0374 -0.1724
19105TIP3    H178806   1.009   6.535   2.687  0.1152  0.2729  0.3767
19105TIP3    H278807   0.873   6.589   2.647  0.2527 -0.8548 -1.7143
19106TIP3   OH278808   0.876   1.324  14.249  0.3320 -0.0555  0.2038
19106TIP3    H178809   0.866   1.262  14.177  0.1242  0.4937 -0.2464
19106TIP3    H278810   0.968   1.352  14.243 -0.0691  1.1247 -0.7971
19107TIP3   OH278811   3.418   6.119  15.594 -0.6085  0.9257  0.1890
19107TIP3    H178812   3.433   6.024  15.593  1.0793  1.1814  0.2578
19107TIP3    H278813   3.395   6.140  15.503  3.7714  1.1371 -0.9789
19108TIP3   OH278814   2.211   4.392   0.623  0.8960  0.1064 -0.2226
19108TIP3    H178815   2.277   4.324   0.640  1.1533  0.4673  0.2458
19108TIP3    H278816   2.238   4.465   0.678 -0.2221  0.0526  0.4237
19109TIP3   OH278817   1.467   3.984  17.110 -0.1619  0.0326 -0.4998
19109TIP3    H178818   1.531   3.928  17.155  0.1418 -0.6729 -1.8020
19109TIP3    H278819   1.445   3.937  17.030 -2.0808  0.4274 -0.2291
19110TIP3   OH278820   5.871   1.807  10.676 -0.2988 -0.0510 -0.0619
19110TIP3    H178821   5.941   1.772  10.732 -1.4089  0.2134  1.5160
19110TIP3    H278822   5.873   1.750  10.598  1.1061 -0.5720  0.3317
19111TIP3   OH278823   1.652   0.959  11.875  0.2013  0.3660  0.3559
19111TIP3    H178824   1.581   0.993  11.819 -1.1251 -0.6644  1.3635
19111TIP3    H278825   1.608   0.939  11.958  2.1539  1.9406  1.8105
19112TIP3   OH278826   0.639   0.171  11.736  0.1299 -0.1191 -0.3415
19112TIP3    H178827   0.678   0.245  11.783  1.5487  0.0825 -1.8168
19112TIP3    H278828   0.551   0.200  11.714  0.3329  0.7488 -0.0313
19113TIP3   OH278829   0.412   5.710  15.736  0.9954  0.5891 -0.3083
19113TIP3    H178830   0.410   5.620  15.768  0.5306  0.1527 -1.5353
19113TIP3    H278831   0.463   5.706  15.655 -0.0697  1.2062 -1.0255
19114TIP3   OH278832   0.401   6.772  13.752 -0.2217  0.3259 -0.5015
19114TIP3    H178833   0.414   6.679  13.732  0.0945  0.3939 -0.6236
19114TIP3    H278834   0.345   6.804  13.681  1.1151  0.6263 -1.4591
19115TIP3   OH278835   0.248   3.186   0.518  0.1034  0.2653  0.2867
19115TIP3    H178836   0.197   3.182   0.599  0.5153  3.2332  0.7675
19115TIP3    H278837   0.185   3.168   0.449 -0.7973  0.1388  1.1305
19116TIP3   OH278838   1.576   2.836  12.499 -0.1529 -0.3141 -0.1141
19116TIP3    H178839   1.569   2.772  12.428  0.9407 -0.5236 -0.0476
19116TIP3    H278840   1.505   2.814  12.558 -0.3703 -0.8708 -0.5771
19117TIP3   OH278841   5.483   5.721   5.184 -0.1878 -0.1177 -0.6132
19117TIP3    H178842   5.564   5.766   5.157 -0.6900  0.3158 -1.4372
19117TIP3    H278843   5.474   5.742   5.277  0.5197  0.0282 -0.5682
19118TIP3   OH278844   2.958   4.519   3.956 -0.0714 -0.3526  0.4366
19118TIP3    H178845   2.972   4.431   3.990 -1.1214 -0.2178  1.2294
19118TIP3    H278846   2.880   4.551   4.001 -0.6713  0.3692 -1.0624
19119TIP3   OH278847   4.044   0.761   1.538  0.0088  0.5974 -0.4636
19119TIP3    H178848   4.043   0.734   1.630  0.1481  1.0777 -0.3180
19119TIP3    H278849   4.126   0.725   1.503  1.0366  2.2656  0.1745
19120TIP3   OH278850   2.622   1.211  14.342  0.0849 -0.3156 -0.1408
19120TIP3    H178851   2.587   1.254  14.264  0.5401 -0.5865 -0.4894
19120TIP3    H278852   2.586   1.123  14.340  1.8500 -1.0270 -1.2098
19121TIP3   OH278853   1.907   3.775  10.976  0.4407 -0.0627  0.1636
19121TIP3    H178854   2.001   3.781  10.957  0.8517 -2.5179  1.2249
19121TIP3    H278855   1.875   3.709  10.914 -0.7187  1.1866 -0.5897
19122TIP3   OH278856   0.150   0.868  10.432 -0.1374 -0.5390 -0.7452
19122TIP3    H178857   0.131   0.949  10.479  0.2053 -0.2707 -1.0639
19122TIP3    H278858   0.238   0.882  10.395  0.2859 -1.3892 -0.0828
19123TIP3   OH278859   4.594   1.212  16.998 -0.0261 -0.3711  0.4801
19123TIP3    H178860   4.543   1.292  17.004 -0.6115 -0.7996  1.3138
19123TIP3    H278861   4.639   1.205  17.083  2.9279  0.9862 -0.8840
19124TIP3   OH278862   0.981   0.889   3.561 -0.3263 -0.2084 -0.6624
19124TIP3    H178863   0.921   0.844   3.501  0.0090 -1.0386 -0.3777
19124TIP3    H278864   0.925   0.928   3.627 -0.8612  2.1271 -2.3995
19125TIP3   OH278865   5.195   5.061   1.743 -0.0288 -0.0922 -0.6818
19125TIP3    H178866   5.278   5.013   1.751 -0.2585 -0.6178 -1.4710
19125TIP3    H278867   5.213   5.146   1.784  0.0573 -1.2297  1.6937
19126TIP3   OH278868   4.692   0.436   0.333 -0.2232  0.3887  0.0691
19126TIP3    H178869   4.706   0.507   0.270  0.2550  1.0004  0.8658
19126TIP3    H278870   4.738   0.361   0.295 -1.4751  0.2406 -1.2160
19127TIP3   OH278871   0.992   1.692  11.821  0.2661  0.2604  0.1327
19127TIP3    H178872   0.920   1.655  11.771 -0.4035  2.2141 -0.4056
19127TIP3    H278873   0.951   1.747  11.887  1.1817 -1.5085  2.2436
19128TIP3   OH278874   0.445   6.721   0.295 -0.0871  0.7281  0.5325
19128TIP3    H178875   0.503   6.659   0.338 -0.7345 -0.7190 -0.6425
19128TIP3    H278876   0.472   6.806   0.330  1.1628 -0.1340  1.7660
19129TIP3   OH278877   1.565   1.041  15.970  0.1460  0.2747  0.5111
19129TIP3    H178878   1.538   1.103  16.038 -0.8199  0.1887  0.2234
19129TIP3    H278879   1.498   0.972  15.973  0.5038 -0.1020 -0.0304
19130TIP3   OH278880   0.854   2.301   3.492  0.4334  0.0333 -0.1626
19130TIP3    H178881   0.873   2.330   3.581  0.3479 -0.2528 -0.0526
19130TIP3    H278882   0.940   2.291   3.451  0.4715  0.2019 -0.1248
19131TIP3   OH278883   4.564   3.890   0.370 -0.1149 -0.0398 -0.3169
19131TIP3    H178884   4.583   3.843   0.451  0.7575  1.7106  0.5364
19131TIP3    H278885   4.540   3.822   0.307 -2.5147 -1.3194  1.8684
19132TIP3   OH278886   2.061   5.463  14.038  0.2777 -0.1752  0.8465
19132TIP3    H178887   2.060   5.386  13.980 -1.1129 -0.3852  1.1233
19132TIP3    H278888   2.006   5.437  14.112  1.7603  0.2244  2.1019
19133TIP3   OH278889   2.411   2.207  11.750  0.0415  0.3913 -0.9155
19133TIP3    H178890   2.500   2.171  11.751 -0.6601 -1.4015 -0.4027
19133TIP3    H278891   2.365   2.155  11.684 -0.9707  0.4204 -0.2434
19134TIP3   OH278892   6.247   1.355   0.015 -0.3442  0.8152 -0.2443
19134TIP3    H178893   6.212   1.292  -0.048  1.0540 -0.2357  0.0133
19134TIP3    H278894   6.288   1.301   0.082  0.1179  1.9965  0.4290
19135TIP3   OH278895   1.742   2.561  13.099 -0.5331 -0.5037 -0.5355
19135TIP3    H178896   1.660   2.609  13.088 -0.0381  0.5852  0.4561
19135TIP3    H278897   1.734   2.519  13.185 -0.5255 -1.3555 -0.9440
19136TIP3   OH278898   3.268   2.042  15.883  0.2135  0.0203 -0.0708
19136TIP3    H178899   3.276   2.065  15.975  0.8413 -0.9641  0.1258
19136TIP3    H278900   3.175   2.050  15.864  0.1693  0.8869  0.4611
19137TIP3   OH278901   0.996   1.704  15.283  0.6552 -0.4220 -0.0059
19137TIP3    H178902   0.914   1.663  15.259  0.0846  1.0951 -0.7390
19137TIP3    H278903   0.992   1.713  15.378  0.1863 -0.7796  0.0091
19138TIP3   OH278904   3.840   0.486   4.471  0.2013  0.1092 -0.4563
19138TIP3    H178905   3.921   0.536   4.460  0.3211  0.1401  0.4997
19138TIP3    H278906   3.862   0.399   4.439  0.5733  0.1507 -0.3238
19139TIP3   OH278907   5.927   1.692  15.181  0.6509 -0.4266 -0.0854
19139TIP3    H178908   5.851   1.663  15.130  1.0256 -1.0336 -0.3026
19139TIP3    H278909   6.002   1.675  15.124  0.9177  0.5367 -0.0228
19140TIP3   OH278910   1.626   0.522   4.842 -0.5365 -0.0551 -0.1140
19140TIP3    H178911   1.588   0.471   4.914 -2.1027  2.9941  1.3019
19140TIP3    H278912   1.553   0.536   4.781  0.5242 -1.6986 -1.8241
19141TIP3   OH278913   5.301   6.636   3.528  0.1197  0.3883 -0.8431
19141TIP3    H178914   5.231   6.616   3.590 -0.2961  3.4537 -0.2188
19141TIP3    H278915   5.268   6.606   3.444 -1.1520  0.0648 -0.2458
19142TIP3   OH278916   5.121   4.014   3.934  0.0820 -0.0782 -0.0860
19142TIP3    H178917   5.174   4.057   4.001 -1.9463  0.5813  1.1584
19142TIP3    H278918   5.184   3.981   3.870  1.8826  2.0339  0.5400
19143TIP3   OH278919   0.256   6.485   6.209  0.2328 -0.0330 -0.0504
19143TIP3    H178920   0.254   6.519   6.298  2.3941  0.0907 -0.0207
19143TIP3    H278921   0.201   6.546   6.159 -0.4386  0.2819  1.0657
19144TIP3   OH278922   2.417   2.434   1.352  0.5589 -0.1631 -0.0375
19144TIP3    H178923   2.494   2.377   1.354  0.9823  0.4206  0.8585
19144TIP3    H278924   2.428   2.487   1.273  2.6395  1.9903  1.6078
19145TIP3   OH278925   6.571   1.269   4.656 -0.0709 -0.7614  0.3334
19145TIP3    H178926   6.507   1.269   4.727  0.7343 -0.0361  1.0776
19145TIP3    H278927   6.633   1.339   4.679  0.1268 -0.4133 -1.1526
19146TIP3   OH278928   4.346   5.833   3.071  0.4746 -0.0495  0.3738
19146TIP3    H178929   4.278   5.788   3.021  0.1349 -1.0299  1.6768
19146TIP3    H278930   4.332   5.804   3.161  1.6913  0.9080  0.8826
19147TIP3   OH278931   0.960   4.377   2.580  0.2630  0.0912  0.7093
19147TIP3    H178932   0.943   4.462   2.540  2.5086  0.6598  0.8744
19147TIP3    H278933   0.900   4.373   2.655 -2.0250  0.1826 -1.0912
19148TIP3   OH278934   1.406   1.325   6.623  0.2108  0.0566 -0.4499
19148TIP3    H178935   1.359   1.259   6.676  0.2224 -0.0714 -0.5973
19148TIP3    H278936   1.343   1.348   6.554 -0.2518  1.1025  0.3098
19149TIP3   OH278937   1.286   0.850   4.623  0.5675  0.4626  0.0225
19149TIP3    H178938   1.364   0.860   4.677 -0.2222  1.2436  1.0421
19149TIP3    H278939   1.241   0.934   4.631 -0.5322 -0.0880 -0.2986
19150TIP3   OH278940   0.697   6.242  16.595  0.2369  0.0169  0.0396
19150TIP3    H178941   0.654   6.157  16.605  3.2880 -1.7650 -1.3080
19150TIP3    H278942   0.693   6.261  16.501  0.8542  0.6350  0.1301
19151TIP3   OH278943   1.328   1.072  12.258  0.2364 -0.0024  1.2474
19151TIP3    H178944   1.324   1.137  12.328  0.0565  1.1953  0.1326
19151TIP3    H278945   1.331   1.123  12.177  3.9612 -1.2704  0.4685
19152TIP3   OH278946   3.585   4.562  13.253 -0.4360  0.0565 -0.3931
19152TIP3    H178947   3.493   4.537  13.260 -0.2442 -0.3973  0.5250
19152TIP3    H278948   3.627   4.523  13.330 -0.1982  3.4330  1.3116
19153TIP3   OH278949   1.582   5.347  16.223 -0.5502 -0.3913 -0.4229
19153TIP3    H178950   1.501   5.324  16.269 -0.2938 -1.6992 -0.5984
19153TIP3    H278951   1.633   5.395  16.287 -1.5177  0.5650 -0.3495
19154TIP3   OH278952   1.971   3.437  11.271  0.2125  0.4698 -0.4441
19154TIP3    H178953   2.041   3.465  11.212  1.8581 -0.7147  0.8826
19154TIP3    H278954   1.922   3.372  11.221  0.3120  0.9992 -1.2369
19155TIP3   OH278955   0.725   0.269   3.081 -0.0788  0.7049  0.0366
19155TIP3    H178956   0.797   0.316   3.040 -1.1409  2.2676 -0.1140
19155TIP3    H278957   0.671   0.238   3.008 -1.3358  2.4593  0.1818
19156TIP3   OH278958   0.278   3.469   0.475 -0.3937 -0.2742  0.1502
19156TIP3    H178959   0.274   3.375   0.496 -1.6793  0.3878  3.0451
19156TIP3    H278960   0.296   3.512   0.559 -0.2133  2.1124 -1.0700
19157TIP3   OH278961   4.522   2.584  14.196  0.1071  0.1925 -0.5825
19157TIP3    H178962   4.552   2.667  14.160  2.4182 -0.0277  0.7445
19157TIP3    H278963   4.571   2.518  14.148 -0.2812 -0.3068 -0.2922
19158TIP3   OH278964   2.303   4.481  10.878 -0.0117  0.0898  0.6098
19158TIP3    H178965   2.285   4.564  10.833  1.2373 -0.7921 -1.6153
19158TIP3    H278966   2.366   4.436  10.821  1.2453 -1.3162  3.0267
19159TIP3   OH278967   4.703   3.749  10.557  0.7926 -0.0321 -0.1464
19159TIP3    H178968   4.636   3.817  10.560  0.7076 -0.1542  0.7432
19159TIP3    H278969   4.723   3.731  10.649  3.3722  1.3233 -0.3873
19160TIP3   OH278970   5.928   2.000   0.143  0.2521 -0.2593 -1.2557
19160TIP3    H178971   5.888   1.918   0.112  2.1408 -1.3304 -0.9200
19160TIP3    H278972   6.020   1.979   0.156  0.4534  1.4858  0.4476
19161TIP3   OH278973   2.498   0.454   5.393 -0.1120 -0.0407  0.1605
19161TIP3    H178974   2.438   0.395   5.348 -1.8002  0.6796  1.4296
19161TIP3    H278975   2.570   0.398   5.422  0.3292 -0.7445 -2.1985
19162TIP3   OH278976   2.293   0.834   1.888  0.5016  0.8083 -0.0716
19162TIP3    H178977   2.240   0.893   1.942 -0.8660 -0.2500 -0.2487
19162TIP3    H278978   2.365   0.808   1.946 -0.7958 -0.0930  1.1926
19163TIP3   OH278979   0.856   3.499  12.713  0.2055  0.0165  0.2227
19163TIP3    H178980   0.769   3.477  12.746  0.0388  1.5170  0.8342
19163TIP3    H278981   0.855   3.470  12.622 -0.6688 -0.6897  0.4554
19164TIP3   OH278982   1.914   1.145   1.360  0.2268 -0.7764  0.0559
19164TIP3    H178983   1.984   1.105   1.307  1.0677  0.2615  0.3716
19164TIP3    H278984   1.954   1.156   1.447 -0.4749 -0.5646  0.3487
19165TIP3   OH278985   5.426   5.005   1.295 -0.3846 -0.1430  0.2025
19165TIP3    H178986   5.415   5.064   1.369  0.1316  0.0763  0.1047
19165TIP3    H278987   5.519   4.982   1.296 -0.7559 -1.7426  0.8441
19166TIP3   OH278988   0.501   6.348   4.370  0.4856  0.5181  0.1009
19166TIP3    H178989   0.582   6.312   4.334  0.2090  0.0615 -0.0716
19166TIP3    H278990   0.527   6.390   4.452  0.2923 -3.0192  2.0832
19167TIP3   OH278991   1.548   6.195  14.529  0.8502  0.1026 -0.0736
19167TIP3    H178992   1.504   6.276  14.503 -0.7442 -0.3117  1.2694
19167TIP3    H278993   1.630   6.225  14.570  0.7764  0.9732 -0.5358
19168TIP3   OH278994   1.104   5.041   3.845 -0.5843  0.2738 -0.2067
19168TIP3    H178995   1.052   5.116   3.876  2.1001  2.2161 -0.2254
19168TIP3    H278996   1.123   5.061   3.754  0.7895 -0.0608 -0.0006
19169TIP3   OH278997   0.513   0.903   1.531 -0.1485  0.5230 -0.0608
19169TIP3    H178998   0.447   0.961   1.569 -0.2765 -0.1656  0.7534
19169TIP3    H278999   0.545   0.952   1.455 -1.8042  0.7405 -0.6560
19170TIP3   OH279000   6.268   1.257  16.646  0.8783  0.4831  0.0562
19170TIP3    H179001   6.239   1.166  16.641  0.1091  0.6511  1.2195
19170TIP3    H279002   6.362   1.252  16.660  0.8148 -0.1416  0.2723
19171TIP3   OH279003   3.393   5.404   4.509  0.3628  0.0361  0.1168
19171TIP3    H179004   3.432   5.400   4.422 -1.1719 -0.3222 -0.5677
19171TIP3    H279005   3.360   5.315   4.524 -1.3075  0.6434  0.1488
19172TIP3   OH279006   6.000   2.641  15.043 -0.2937  0.6238  0.1991
19172TIP3    H179007   5.962   2.668  15.127 -0.3693  0.3802  0.2465
19172TIP3    H279008   5.991   2.545  15.043  0.9355  0.5044  0.5038
19173TIP3   OH279009   5.807   1.860  16.965  0.2147 -0.6658  0.2621
19173TIP3    H179010   5.871   1.789  16.971  2.4511  1.3136  0.8943
19173TIP3    H279011   5.846   1.931  17.016 -2.0293  0.9636 -0.2265
19174TIP3   OH279012   1.614   1.175   0.999  0.1578 -0.1963 -0.4069
19174TIP3    H179013   1.664   1.095   0.985 -0.2467 -0.2863 -1.4098
19174TIP3    H279014   1.661   1.222   1.068 -0.2004 -1.7803  0.9237
19175TIP3   OH279015   5.898   4.781  13.043  0.2714 -0.1023 -0.1322
19175TIP3    H179016   5.921   4.776  12.950  0.2300  0.6833 -0.1932
19175TIP3    H279017   5.812   4.740  13.049  0.0694  0.2487 -0.5268
19176TIP3   OH279018   2.268   3.798  14.893 -0.5730  0.3337 -0.9316
19176TIP3    H179019   2.231   3.740  14.959 -1.6263  2.0082 -0.0361
19176TIP3    H279020   2.217   3.780  14.814  0.1880 -1.1240 -1.1045
19177TIP3   OH279021   4.985   1.216  16.025  0.8235  0.2522 -0.1132
19177TIP3    H179022   4.984   1.276  16.100  0.2933 -0.4694  0.4688
19177TIP3    H279023   4.900   1.229  15.983  0.4522 -0.5212  0.3764
19178TIP3   OH279024   6.116   5.621   2.994  0.6860 -0.8582  0.1672
19178TIP3    H179025   6.064   5.689   2.950 -0.4143 -0.5325  1.9456
19178TIP3    H279026   6.167   5.581   2.923 -0.4643  0.1922 -1.2890
19179TIP3   OH279027   0.920   6.176  13.268  0.7137 -0.0484  0.4398
19179TIP3    H179028   0.961   6.096  13.236 -0.4196 -0.4132 -0.1281
19179TIP3    H279029   0.951   6.244  13.207  0.8156 -0.2365  0.2805
19180TIP3   OH279030   6.152   2.855   3.290 -0.5223 -0.0868  0.4071
19180TIP3    H179031   6.154   2.934   3.345 -4.2925  0.2373  0.2318
19180TIP3    H279032   6.143   2.889   3.201 -0.6208 -0.7038  0.1839
19181TIP3   OH279033   1.272   6.736  16.622  0.2895 -0.2817 -0.4258
19181TIP3    H179034   1.353   6.781  16.645 -0.3824  0.4915  0.4395
19181TIP3    H279035   1.211   6.756  16.693 -1.7013  1.8266 -2.5709
19182TIP3   OH279036   0.189   2.554  14.588  0.0651 -0.0882  0.4678
19182TIP3    H179037   0.213   2.645  14.572  0.4149 -0.4668 -1.2568
19182TIP3    H279038   0.170   2.518  14.501  1.3870 -2.0483  0.9417
19183TIP3   OH279039   5.977   1.181   1.560  0.1000  0.1459  0.4998
19183TIP3    H179040   6.069   1.204   1.547  0.2617 -1.1530 -0.7721
19183TIP3    H279041   5.956   1.123   1.487 -1.0123 -1.6504  2.1899
19184TIP3   OH279042   1.762   0.826  14.553  0.1909  0.6053 -0.2304
19184TIP3    H179043   1.722   0.835  14.639 -1.1898 -0.5191 -0.7399
19184TIP3    H279044   1.774   0.732  14.542 -0.0002  0.7151 -1.4277
19185TIP3   OH279045   6.278   4.699   1.310  0.3178 -0.1136 -0.3428
19185TIP3    H179046   6.211   4.736   1.368  0.2205  0.8940 -1.0823
19185TIP3    H279047   6.361   4.715   1.356  0.2174  0.3954 -0.3402
19186TIP3   OH279048   0.752   5.088  15.672 -0.0366 -0.4769 -0.1626
19186TIP3    H179049   0.840   5.108  15.704  0.4020 -1.0089 -1.0290
19186TIP3    H279050   0.743   5.139  15.591 -0.0093 -1.4788 -0.8039
19187TIP3   OH279051   6.269   3.741   3.765 -0.2798  0.6950 -0.4500
19187TIP3    H179052   6.296   3.832   3.753 -0.1679  0.5645 -1.2003
19187TIP3    H279053   6.214   3.743   3.844  0.8417  1.1806  0.3335
19188TIP3   OH279054   4.189   1.869   1.994 -0.4171  0.2034  0.1554
19188TIP3    H179055   4.235   1.873   2.078  0.8977  0.0339 -0.5457
19188TIP3    H279056   4.097   1.857   2.017 -0.1023  0.4890  1.5787
19189TIP3   OH279057   5.936   0.913  13.200 -0.1531 -0.0142 -0.1319
19189TIP3    H179058   6.002   0.859  13.156  1.6410  1.6336  0.4568
19189TIP3    H279059   5.944   0.889  13.292 -0.7105 -0.1358 -0.1120
19190TIP3   OH279060   5.421   0.715   1.931  0.0163  0.2019 -0.1648
19190TIP3    H179061   5.451   0.798   1.968 -0.1802 -0.0815  0.6252
19190TIP3    H279062   5.325   0.724   1.928  0.0430  0.3072 -0.8034
19191TIP3   OH279063   6.619   6.042  13.306  0.5350 -0.5188  0.0408
19191TIP3    H179064   6.588   6.095  13.233  1.0607 -0.6812 -0.3101
19191TIP3    H279065   6.638   6.104  13.376  1.6125 -0.1859 -0.5321
19192TIP3   OH279066   1.588   4.013  11.307  0.0963  0.1220  0.3405
19192TIP3    H179067   1.672   4.058  11.308  0.9079 -1.3024 -0.9594
19192TIP3    H279068   1.606   3.928  11.266 -1.7882 -0.5825  0.8840
19193TIP3   OH279069   0.197   2.597  12.598  0.1341 -0.1995 -0.3266
19193TIP3    H179070   0.125   2.630  12.544  0.0720  1.3525  0.6784
19193TIP3    H279071   0.274   2.601  12.542  0.1867  1.9882 -0.1175
19194TIP3   OH279072   5.261   5.424  13.799 -0.1206  0.2523  0.3578
19194TIP3    H179073   5.311   5.345  13.818 -0.1054  0.1644 -0.0396
19194TIP3    H279074   5.215   5.444  13.880 -1.1460 -0.9153  0.0802
19195TIP3   OH279075   6.790   3.940   6.516  0.5531 -0.5825 -0.7138
19195TIP3    H179076   6.855   3.931   6.446  0.4041  2.0335 -1.2547
19195TIP3    H279077   6.802   4.030   6.548 -2.1869 -0.3597 -0.1929
19196TIP3   OH279078   0.681   4.100   5.365  0.8731 -0.0673  0.5036
19196TIP3    H179079   0.732   4.038   5.418  1.0973  0.1900  0.5930
19196TIP3    H279080   0.714   4.087   5.276  1.2541  0.2518  0.5944
19197TIP3   OH279081   6.036   4.615  11.537 -0.0116  0.3143 -0.2532
19197TIP3    H179082   6.052   4.565  11.457  4.7990  1.7268 -0.3643
19197TIP3    H279083   6.066   4.557  11.607 -2.2872 -0.1207  0.3949
19198TIP3   OH279084   1.536   1.847   0.508  0.3736 -0.2271  0.6215
19198TIP3    H179085   1.598   1.882   0.443 -1.1231 -0.1318 -0.7746
19198TIP3    H279086   1.469   1.914   0.516  0.1473 -0.5809  1.7251
19199TIP3   OH279087   2.213   1.495  11.289  0.0139 -0.2661 -0.0037
19199TIP3    H179088   2.268   1.569  11.315  0.3980  0.1259 -1.9111
19199TIP3    H279089   2.142   1.534  11.239  0.3250 -1.1999 -1.1885
19200TIP3   OH279090   3.970   4.942   4.213  0.6685 -0.6563 -0.0506
19200TIP3    H179091   3.939   4.870   4.159  1.0661 -0.6506 -0.2914
19200TIP3    H279092   3.924   4.932   4.296 -0.1789 -0.4839 -0.4930
19201TIP3   OH279093   2.156   5.017  16.822 -0.2945  0.0752 -0.2342
19201TIP3    H179094   2.190   4.951  16.882  0.1291 -0.4734 -1.0613
19201TIP3    H279095   2.172   5.101  16.865 -2.0710 -0.4202  1.4386
19202TIP3   OH279096   1.723   6.674   6.122  0.1024 -0.1034 -0.0703
19202TIP3    H179097   1.658   6.661   6.192 -0.7080  1.5717 -0.4857
19202TIP3    H279098   1.690   6.749   6.072  1.2645 -0.5671 -1.5777
19203TIP3   OH279099   2.299   4.461  12.916  0.9294 -0.7460  0.3355
19203TIP3    H179100   2.212   4.425  12.936 -0.1733 -0.1550 -3.0824
19203TIP3    H279101   2.344   4.391  12.869  1.7937 -0.5006  0.7825
19204TIP3   OH279102   4.924   1.619   1.068  0.1316 -0.5824  0.2514
19204TIP3    H179103   4.950   1.664   0.987 -0.1853 -2.3064 -0.8225
19204TIP3    H279104   4.924   1.688   1.134 -0.9131  1.1259 -1.4800
19205TIP3   OH279105   1.410   1.253  15.778  0.0002 -0.0856 -0.0095
19205TIP3    H179106   1.466   1.180  15.805 -0.6852 -0.8467 -0.5914
19205TIP3    H279107   1.322   1.215  15.775 -0.5276  1.0583  0.7827
19206TIP3   OH279108   2.367   2.268  15.575 -0.2870  0.1587  0.7798
19206TIP3    H179109   2.420   2.332  15.527 -0.8699 -0.1034 -0.2163
19206TIP3    H279110   2.401   2.272  15.665  0.9466  0.5066  0.3104
19207TIP3   OH279111   2.459   5.050   2.969 -0.7148 -0.2764  0.1936
19207TIP3    H179112   2.491   4.960   2.979  1.7590  0.4939 -0.5290
19207TIP3    H279113   2.498   5.097   3.043 -1.3146  0.3952  0.0884
19208TIP3   OH279114   3.761   3.141   5.920  0.5541  0.2020 -0.0225
19208TIP3    H179115   3.676   3.152   5.879  0.9027  0.2028 -0.7585
19208TIP3    H279116   3.754   3.060   5.970  0.9589 -1.2704 -2.2527
19209TIP3   OH279117   4.759   3.486  15.461 -0.1188  0.4490  0.3825
19209TIP3    H179118   4.747   3.509  15.553 -0.2462  0.0962  0.4556
19209TIP3    H279119   4.805   3.561  15.423  2.0770 -0.3997  1.2673
19210TIP3   OH279120   1.226   4.334  12.057  0.2335  0.7959  0.5336
19210TIP3    H179121   1.164   4.401  12.027 -0.9611 -0.4861  0.1294
19210TIP3    H279122   1.310   4.380  12.062 -0.4875  2.2150 -0.1714
19211TIP3   OH279123   3.534   5.798   0.860  0.4665  0.6445 -0.2740
19211TIP3    H179124   3.510   5.706   0.860 -0.9314  0.9790  1.3517
19211TIP3    H279125   3.453   5.844   0.835  1.0098  1.4498 -0.5750
19212TIP3   OH279126   6.709   1.549  16.652  0.1516  0.5707  0.4370
19212TIP3    H179127   6.647   1.622  16.643  1.9627  2.2928  1.4652
19212TIP3    H279128   6.757   1.548  16.569 -0.9703 -0.5209 -0.2127
19213TIP3   OH279129   4.831   5.926  15.614 -0.8590 -1.0476 -0.4671
19213TIP3    H179130   4.813   5.993  15.549  0.5055  1.4672  1.6528
19213TIP3    H279131   4.925   5.908  15.604 -0.2634  0.5671  1.8355
19214TIP3   OH279132   3.674   0.536   1.825  0.2424 -0.0342 -0.1821
19214TIP3    H179133   3.608   0.574   1.883  1.5975  1.0192  0.7093
19214TIP3    H279134   3.648   0.565   1.738  0.4860  1.8519  0.3396
19215TIP3   OH279135   2.914   2.803   2.076 -0.2508  0.1233  0.1506
19215TIP3    H179136   2.910   2.708   2.066  2.6887  0.0415 -0.8128
19215TIP3    H279137   2.889   2.837   1.990 -1.4940  0.2227  0.5531
19216TIP3   OH279138   5.354   0.806   1.283 -0.3712 -0.0784 -0.3009
19216TIP3    H179139   5.413   0.733   1.263  0.0227 -0.6823  2.8438
19216TIP3    H279140   5.270   0.780   1.243  0.3087 -1.2968 -0.9727
19217TIP3   OH279141   2.299   2.513   1.013 -0.1915  0.0999 -0.5702
19217TIP3    H179142   2.383   2.539   1.050  0.5028 -2.2093 -0.4481
19217TIP3    H279143   2.235   2.569   1.057  0.9693 -0.2354  1.6136
19218TIP3   OH279144   6.305   6.603  12.525 -0.3986 -0.2348  0.6963
19218TIP3    H179145   6.372   6.542  12.496 -0.1989 -0.0992  0.8741
19218TIP3    H279146   6.349   6.688  12.526 -0.6543 -0.1004  0.5188
19219TIP3   OH279147   6.625   4.568  16.598  0.3321 -0.6385  0.0240
19219TIP3    H179148   6.543   4.519  16.604  0.2278 -0.4176  0.3924
19219TIP3    H279149   6.598   4.659  16.585  0.4991 -0.4057  1.2577
19220TIP3   OH279150   5.231   4.818  15.974 -0.4588  0.6258 -0.0112
19220TIP3    H179151   5.227   4.791  16.065 -0.2620 -1.4075 -0.5770
19220TIP3    H279152   5.311   4.777  15.940 -1.2248  0.2299 -1.4136
19221TIP3   OH279153   2.375   1.432  12.592  0.5920  0.1424  0.0989
19221TIP3    H179154   2.411   1.465  12.674 -1.7259  3.6593 -0.2024
19221TIP3    H279155   2.332   1.350  12.617  1.9999 -0.0941  1.8922
19222TIP3   OH279156   5.958   5.718  14.479 -0.2075  0.2035  0.1360
19222TIP3    H179157   6.034   5.733  14.535 -0.9519  0.6022  1.0600
19222TIP3    H279158   5.935   5.804  14.446  0.2220 -0.0313 -0.7748
19223TIP3   OH279159   5.979   5.589  15.167 -0.2704  0.3463  0.1920
19223TIP3    H179160   5.939   5.531  15.232 -0.5627  1.0487  0.6329
19223TIP3    H279161   6.060   5.618  15.208  1.3414 -2.0478 -1.1795
19224TIP3   OH279162   2.588   0.545   4.310  0.2371  0.6460  0.0701
19224TIP3    H179163   2.546   0.493   4.241  0.2406 -1.8179  1.8491
19224TIP3    H279164   2.627   0.480   4.369  1.3391  2.7199  1.7194
19225TIP3   OH279165   6.337   4.402   3.024  0.3668  0.2167 -0.6855
19225TIP3    H179166   6.385   4.462   3.081  0.8558  1.0810 -1.9855
19225TIP3    H279167   6.396   4.327   3.013 -1.3652 -1.8325  3.1922
19226TIP3   OH279168   3.947   4.588   4.598 -0.1926  0.4763 -0.4851
19226TIP3    H179169   3.877   4.568   4.536  0.1494  0.2759 -0.8108
19226TIP3    H279170   3.932   4.529   4.671  0.9199 -1.1162 -1.5259
19227TIP3   OH279171   0.269   1.146  11.437  0.2492 -0.1579 -0.0141
19227TIP3    H179172   0.213   1.191  11.501  2.9944 -0.6410  2.8691
19227TIP3    H279173   0.266   1.203  11.359 -1.0372  1.9063  1.4784
19228TIP3   OH279174   6.473   3.075  13.291 -0.0990 -0.0883  0.2157
19228TIP3    H179175   6.564   3.096  13.268 -0.2594  0.7709  0.3628
19228TIP3    H279176   6.460   3.115  13.377 -1.0780  1.0614 -0.4583
19229TIP3   OH279177   1.222   3.315   5.055  0.1774  0.0974 -0.3766
19229TIP3    H179178   1.275   3.389   5.083 -0.0045 -0.6022  1.9006
19229TIP3    H279179   1.207   3.264   5.134 -1.1977 -1.4408 -1.5727
19230TIP3   OH279180   4.743   3.112   6.145 -0.0495 -0.2549 -0.3029
19230TIP3    H179181   4.702   3.133   6.229 -1.1626 -1.1158 -0.6165
19230TIP3    H279182   4.824   3.067   6.168 -0.9820 -1.6423  0.3094
19231TIP3   OH279183   3.010   5.924   0.395  0.0782 -0.0043  0.3783
19231TIP3    H179184   3.015   5.977   0.474 -0.2127 -1.3546  1.3184
19231TIP3    H279185   2.916   5.913   0.379  0.1324 -1.4382  1.0156
19232TIP3   OH279186   4.735   2.941  15.843  0.1560 -0.6003 -0.1745
19232TIP3    H179187   4.790   2.970  15.916 -1.0684  0.3761  0.3761
19232TIP3    H279188   4.656   2.994  15.851  0.0795 -0.3710 -2.3141
19233TIP3   OH279189   6.650   1.773   3.907 -0.4018  0.0475 -0.0025
19233TIP3    H179190   6.684   1.717   3.976  1.3457  0.0828 -0.7948
19233TIP3    H279191   6.615   1.850   3.952 -0.0424 -0.3172  0.8947
19234TIP3   OH279192   0.515   5.503   5.584 -0.9100 -0.5571 -0.4772
19234TIP3    H179193   0.457   5.538   5.652 -0.6637 -1.0917  0.0103
19234TIP3    H279194   0.462   5.438   5.539 -0.0112 -2.6483  1.3941
19235TIP3   OH279195   4.511   4.365   0.498 -0.0958 -0.3237 -0.4786
19235TIP3    H179196   4.503   4.303   0.425 -0.9918  0.5062 -1.1044
19235TIP3    H279197   4.438   4.344   0.555 -0.2384 -0.0227 -0.5512
19236TIP3   OH279198   1.653   3.722  13.918 -0.0936  0.1438  0.0892
19236TIP3    H179199   1.668   3.735  14.011  2.8452 -0.6537 -0.2028
19236TIP3    H279200   1.705   3.791  13.876 -0.4588 -0.2278 -0.9840
19237TIP3   OH279201   1.844   4.664  15.880  0.2829 -0.0559  0.0550
19237TIP3    H179202   1.910   4.613  15.926 -1.0527 -1.0495  0.8824
19237TIP3    H279203   1.840   4.747  15.928  1.5009  0.3448 -0.4998
19238TIP3   OH279204   5.701   4.565   2.337  0.5732  1.0927 -0.2713
19238TIP3    H179205   5.795   4.556   2.322  0.5700  0.3143  0.1415
19238TIP3    H279206   5.679   4.650   2.300  1.4393  1.2738 -0.3861
19239TIP3   OH279207   6.536   0.186   2.598 -0.4115  0.2113  0.1663
19239TIP3    H179208   6.533   0.266   2.651 -0.9883 -0.3970  1.0697
19239TIP3    H279209   6.515   0.216   2.509 -0.7495  1.0464  0.5177
19240TIP3   OH279210   5.945   6.809  12.864 -0.0268  0.3851 -0.3348
19240TIP3    H179211   5.856   6.843  12.869 -0.2165 -0.2080  0.5864
19240TIP3    H279212   5.980   6.844  12.782 -0.9248  1.0495 -0.4463
19241TIP3   OH279213   5.531   0.524  11.083  0.0593 -0.2138  0.0874
19241TIP3    H179214   5.464   0.468  11.044 -1.3459  1.6255 -0.2364
19241TIP3    H279215   5.612   0.500  11.038 -0.7999 -0.9190 -1.1105
19242TIP3   OH279216   1.907   5.257   2.989  0.2313  0.4123 -0.2753
19242TIP3    H179217   1.914   5.165   2.963 -0.4698 -0.0173  1.0094
19242TIP3    H279218   1.993   5.294   2.970  1.0182 -0.8946  0.6700
19243TIP3   OH279219   1.894   5.254   0.605 -0.0789 -0.5353  0.0513
19243TIP3    H179220   1.806   5.222   0.625  0.0498 -0.8367  0.1425
19243TIP3    H279221   1.952   5.179   0.625  0.2394 -0.1891  0.4449
19244TIP3   OH279222   2.289   1.039  16.261 -0.3129 -1.1647  0.1653
19244TIP3    H179223   2.268   1.107  16.326 -2.6950 -2.7484  1.1011
19244TIP3    H279224   2.252   1.072  16.179  1.8073  0.3598 -0.2415
19245TIP3   OH279225   3.471   1.661  15.198 -0.9820 -0.1595  0.2857
19245TIP3    H179226   3.550   1.662  15.252 -1.3207  1.1217  0.7887
19245TIP3    H279227   3.503   1.654  15.108 -0.2559  1.0758  0.4382
19246TIP3   OH279228   5.706   4.499  15.227 -0.2170 -0.3688 -0.1172
19246TIP3    H179229   5.732   4.591  15.225 -0.6432 -0.2276  0.5756
19246TIP3    H279230   5.610   4.501  15.224 -0.2594 -0.7524  0.6874
19247TIP3   OH279231   5.161   0.742  13.209 -0.3653  0.3921 -0.2430
19247TIP3    H179232   5.192   0.762  13.297 -2.5507 -0.0427  0.6628
19247TIP3    H279233   5.116   0.821  13.181  1.5419  1.0478 -1.5795
19248TIP3   OH279234   0.466   2.661   1.266 -0.0993  0.2843  0.6595
19248TIP3    H179235   0.478   2.753   1.286  0.8926  0.1830  0.5550
19248TIP3    H279236   0.438   2.659   1.174  0.8822  0.4197  0.3589
19249TIP3   OH279237   1.481   1.517   5.218 -0.7669 -0.6768  0.6516
19249TIP3    H179238   1.451   1.607   5.232  1.4683  0.0439  1.1279
19249TIP3    H279239   1.499   1.484   5.305  1.4086 -0.4776  0.3034
19250TIP3   OH279240   6.338   5.232  13.452 -0.0994 -0.1607  0.0727
19250TIP3    H179241   6.289   5.215  13.532  0.2140  0.8558  0.4958
19250TIP3    H279242   6.409   5.168  13.453 -0.1499 -0.2121  0.5708
19251TIP3   OH279243   6.528   5.677   1.813 -0.8026 -0.0868  0.2308
19251TIP3    H179244   6.571   5.742   1.757 -0.8333 -1.3436 -1.2964
19251TIP3    H279245   6.595   5.611   1.830 -1.6182 -1.1910 -0.7558
19252TIP3   OH279246   1.262   1.597  13.970  0.2516  0.2174  0.0316
19252TIP3    H179247   1.245   1.662  14.039 -0.8886  0.1049 -0.1274
19252TIP3    H279248   1.330   1.540  14.007 -1.1929 -0.5647  1.5742
19253TIP3   OH279249   2.138   3.839   4.083 -0.0131 -0.4375  0.3806
19253TIP3    H179250   2.101   3.882   4.160  0.2350 -1.2259  0.9487
19253TIP3    H279251   2.231   3.829   4.103 -0.0670 -1.2283  0.2541
19254TIP3   OH279252   1.049   0.918   2.115  0.0791 -0.0353 -1.1744
19254TIP3    H179253   1.043   0.986   2.182  0.5321 -1.5436  0.4357
19254TIP3    H279254   0.961   0.910   2.080 -1.1043 -2.0265  2.0842
19255TIP3   OH279255   3.353   2.779  13.737 -0.4859  0.5014 -0.2124
19255TIP3    H179256   3.318   2.733  13.813  0.3874 -1.5395 -1.0218
19255TIP3    H279257   3.323   2.869  13.748 -1.1605  0.0274  2.0546
19256TIP3   OH279258   4.750   2.553  15.070 -0.1091 -0.6400 -0.2258
19256TIP3    H179259   4.798   2.615  15.124  0.4318 -1.8610  0.7361
19256TIP3    H279260   4.813   2.525  15.004 -0.1463 -0.6484 -0.2582
19257TIP3   OH279261   4.779   0.959  15.239  0.2745  0.3621 -0.0686
19257TIP3    H179262   4.782   1.036  15.296  0.8855  0.8122 -0.7038
19257TIP3    H279263   4.856   0.907  15.264  1.0118  0.9749 -1.0621
19258TIP3   OH279264   4.560   4.801  16.484  0.3489 -0.1350 -0.1290
19258TIP3    H179265   4.545   4.799  16.578 -0.9310 -0.0268 -0.3213
19258TIP3    H279266   4.543   4.711  16.454  0.9960 -0.2298 -0.2299
19259TIP3   OH279267   5.926   4.339   2.933  0.0995  0.0610  0.0226
19259TIP3    H179268   6.009   4.362   2.891 -0.1843  0.3617 -0.3823
19259TIP3    H279269   5.950   4.315   3.022  0.5224  1.0297  0.1783
19260TIP3   OH279270   5.642   2.729   3.670 -0.1310 -0.1432  0.5786
19260TIP3    H179271   5.737   2.727   3.661 -0.1030 -1.3777  1.0414
19260TIP3    H279272   5.624   2.684   3.753 -0.9599  2.5849  1.9280
19261TIP3   OH279273   6.102   0.421   2.491  0.2394 -0.4916 -0.3816
19261TIP3    H179274   6.121   0.423   2.397 -0.6564 -0.5783 -0.5650
19261TIP3    H279275   6.059   0.337   2.505  0.2393 -0.4153  0.0791
19262TIP3   OH279276   3.193   6.039  12.274 -0.1890 -0.4237 -0.4170
19262TIP3    H179277   3.098   6.036  12.264 -0.2453  1.1955 -0.5287
19262TIP3    H279278   3.223   5.951  12.249 -1.6227 -0.8575 -0.6515
19263TIP3   OH279279   5.982   0.336   3.753 -0.0472 -0.5236  0.1821
19263TIP3    H179280   5.928   0.257   3.746 -0.2716 -0.2990 -0.6040
19263TIP3    H279281   6.072   0.303   3.752 -0.1458 -0.7928  0.1527
19264TIP3   OH279282   1.750   2.610   5.841 -0.6689  0.0326  0.5275
19264TIP3    H179283   1.805   2.608   5.919 -0.2515  0.1956  0.2370
19264TIP3    H279284   1.676   2.665   5.865 -0.5227  0.1086  0.7978
19265TIP3   OH279285   1.626   4.616   5.011  0.1868  0.5779 -0.0461
19265TIP3    H179286   1.633   4.680   4.940  0.7831 -0.6338 -1.0993
19265TIP3    H279287   1.692   4.644   5.074  1.8264 -0.1016 -1.4143
19266TIP3   OH279288   4.318   6.794  14.461  0.6819 -0.0870  0.0658
19266TIP3    H179289   4.377   6.841  14.519  0.1376  0.9279 -0.1875
19266TIP3    H279290   4.231   6.818  14.491  0.3995 -0.6544 -0.2978
19267TIP3   OH279291   3.230   1.742   2.718 -0.1674  0.1927  0.1505
19267TIP3    H179292   3.170   1.679   2.760 -0.5548  0.5115  0.0728
19267TIP3    H279293   3.173   1.805   2.675  0.1818  1.5736  1.6454
19268TIP3   OH279294   1.769   1.075   4.792  0.3033 -0.5616  0.5265
19268TIP3    H179295   1.820   1.000   4.824  1.1447  0.0941  0.7566
19268TIP3    H279296   1.757   1.058   4.699 -0.9813 -1.8148  0.8958
19269TIP3   OH279297   0.023   1.528  14.222 -0.7887  0.0785  0.2214
19269TIP3    H179298   0.101   1.560  14.177 -1.5471  0.0457 -1.1692
19269TIP3    H279299   0.008   1.441  14.185 -1.2052 -0.1057  0.8176
19270TIP3   OH279300   5.920   1.506  11.253 -0.5564 -0.3045 -0.3928
19270TIP3    H179301   5.842   1.543  11.294  0.2158  1.5644 -0.5560
19270TIP3    H279302   5.930   1.556  11.172  2.7434  1.9407  1.2701
19271TIP3   OH279303   1.696   6.793   0.452  0.2718 -0.2647 -0.2431
19271TIP3    H179304   1.674   6.812   0.361  0.2702 -0.0391 -0.1967
19271TIP3    H279305   1.672   6.701   0.464  1.9986 -0.8377 -1.0032
19272TIP3   OH279306   6.112   5.248  16.488 -0.6262  0.3918  0.2270
19272TIP3    H179307   6.200   5.237  16.525 -0.0790  1.3985 -0.7589
19272TIP3    H279308   6.107   5.181  16.419 -1.2942 -0.8406  1.4359
19273TIP3   OH279309   0.377   6.554   1.575  0.0932 -0.4878  1.0395
19273TIP3    H179310   0.435   6.484   1.604  0.7206 -1.9994 -3.4039
19273TIP3    H279311   0.431   6.633   1.582  1.2903 -1.2663  0.8999
19274TIP3   OH279312   1.060   1.222  12.253 -0.4866 -0.0374 -0.3970
19274TIP3    H179313   1.101   1.299  12.213 -0.8949 -0.0463 -0.8289
19274TIP3    H279314   1.083   1.149  12.195 -0.7653 -0.1124 -0.4120
19275TIP3   OH279315   2.869   1.195  12.419  0.2915  0.7721  0.4217
19275TIP3    H179316   2.901   1.163  12.503 -1.3423  0.3249  0.8701
19275TIP3    H279317   2.902   1.285  12.415 -0.8085  1.2781  2.1813
19276TIP3   OH279318   2.385   3.320   5.804  0.0052 -0.1307 -0.2897
19276TIP3    H179319   2.354   3.344   5.716  0.4742 -0.4766 -0.5577
19276TIP3    H279320   2.319   3.260   5.838 -0.9636  1.2216  0.2191
19277TIP3   OH279321   3.136   2.666   5.818 -0.0593  0.1625 -0.4166
19277TIP3    H179322   3.191   2.698   5.746  1.8743 -0.5259  0.7292
19277TIP3    H279323   3.184   2.591   5.853 -1.2605  0.1493  1.2399
19278TIP3   OH279324   2.687   4.698  16.282  0.3440 -0.2088 -0.3540
19278TIP3    H179325   2.630   4.761  16.326  2.2971  1.6122 -0.3921
19278TIP3    H279326   2.716   4.639  16.351 -0.9409 -0.6962 -0.2006
19279TIP3   OH279327   6.224   1.827   6.227 -0.1446 -0.3522  0.6430
19279TIP3    H179328   6.247   1.760   6.291  0.6410 -0.6808  0.0253
19279TIP3    H279329   6.275   1.804   6.149 -1.2045 -0.0519 -0.1533
19280TIP3   OH279330   0.507   5.107  14.001 -0.2909  0.4063  0.1066
19280TIP3    H179331   0.575   5.174  13.992  0.3806 -0.4695 -1.5724
19280TIP3    H279332   0.551   5.025  13.980 -1.5222 -0.3614  0.4722
19281TIP3   OH279333   1.759   1.677  16.692  0.2988  0.4834  0.1289
19281TIP3    H179334   1.774   1.692  16.598  4.2418 -0.2233  0.5900
19281TIP3    H279335   1.782   1.760  16.733  0.8847  0.0483  0.6773
19282TIP3   OH279336   2.502   2.217  14.417 -0.1055 -0.0608  0.2639
19282TIP3    H179337   2.595   2.200  14.401 -0.3465 -0.7363 -0.4661
19282TIP3    H279338   2.500   2.262  14.501  0.8245 -0.7128  0.6409
19283TIP3   OH279339   1.005   0.406   0.776  0.1246  0.4723 -0.4675
19283TIP3    H179340   1.084   0.459   0.763 -0.7028  1.1623 -2.9898
19283TIP3    H279341   0.998   0.353   0.697 -0.9509 -0.9487  0.5434
19284TIP3   OH279342   5.024   6.317  13.629  0.0042 -0.4355 -0.8821
19284TIP3    H179343   5.116   6.333  13.611 -0.1270 -0.3642 -1.4865
19284TIP3    H279344   4.981   6.319  13.543 -0.2697 -2.3260 -0.8105
19285TIP3   OH279345   0.031   3.978  13.150  0.2927 -0.4387  0.0179
19285TIP3    H179346  -0.064   3.977  13.160  0.2426 -3.6671 -0.2776
19285TIP3    H279347   0.065   4.010  13.234 -0.9368 -3.1594  1.5938
19286TIP3   OH279348   6.541   4.345  13.921 -0.5098 -0.1254 -0.4465
19286TIP3    H179349   6.631   4.312  13.931 -0.6666 -0.4626 -0.1689
19286TIP3    H279350   6.542   4.429  13.967 -0.4755 -0.3716  0.0033
19287TIP3   OH279351   3.635   2.715   4.421  0.5354 -0.1175  0.6287
19287TIP3    H179352   3.618   2.628   4.456  1.0746 -1.6321 -2.7035
19287TIP3    H279353   3.730   2.725   4.424  0.5663 -0.1479 -0.1152
19288TIP3   OH279354   2.219   3.466  10.275  0.3959 -0.1847  0.2624
19288TIP3    H179355   2.169   3.399  10.229  2.1869 -1.8986  0.7404
19288TIP3    H279356   2.211   3.544  10.220 -0.3018 -1.2637 -1.2046
19289TIP3   OH279357   1.199   1.711   5.856 -0.5025 -0.4022 -0.4837
19289TIP3    H179358   1.208   1.788   5.912 -0.9867 -0.5968 -0.1391
19289TIP3    H279359   1.285   1.700   5.816 -0.2853  0.0039 -0.1291
19290TIP3   OH279360   6.212   3.430   0.036  0.3443  0.7585 -0.1082
19290TIP3    H179361   6.225   3.363  -0.032  1.6037  1.3549 -0.4800
19290TIP3    H279362   6.125   3.465   0.018  0.7246  1.0164 -1.5341
19291TIP3   OH279363   6.004   5.645   5.614 -0.4781  0.8562 -0.2268
19291TIP3    H179364   6.057   5.565   5.616 -0.1958  1.0516  0.0662
19291TIP3    H279365   5.980   5.660   5.705 -0.3159  1.2522 -0.2490
19292TIP3   OH279366   2.441   5.340   0.970  0.7187  0.0776 -0.0176
19292TIP3    H179367   2.524   5.295   0.982 -1.3329 -3.8119  0.5107
19292TIP3    H279368   2.423   5.383   1.054  0.6872 -1.7786  0.9340
19293TIP3   OH279369   4.387   2.633  13.608  0.2758 -0.3766  0.2263
19293TIP3    H179370   4.458   2.646  13.671  0.9428  0.8459 -0.7494
19293TIP3    H279371   4.367   2.721  13.575 -2.1553 -0.6165  0.9709
19294TIP3   OH279372   3.186   0.071  17.008 -0.1853 -0.2892  0.1067
19294TIP3    H179373   3.231   0.154  16.994  1.7423 -1.6586 -2.2560
19294TIP3    H279374   3.224   0.036  17.089  1.2241 -0.2600 -0.5264
19295TIP3   OH279375   1.932   2.361   5.391  0.4497 -0.0420  0.2885
19295TIP3    H179376   1.930   2.437   5.332 -1.0069 -0.1045  0.2314
19295TIP3    H279377   1.937   2.400   5.478 -0.0964  0.1225  0.2500
19296TIP3   OH279378   3.207   6.332   1.030  0.2187 -0.5067 -0.2528
19296TIP3    H179379   3.188   6.238   1.033  0.1096 -0.4146  3.3132
19296TIP3    H279380   3.132   6.374   1.070  0.4600  1.1245 -1.4443
19297TIP3   OH279381   2.460   4.138  16.981  0.6628 -1.0029  0.5429
19297TIP3    H179382   2.391   4.140  17.048 -0.4383  0.7676 -0.5874
19297TIP3    H279383   2.465   4.229  16.951  0.6491 -1.9130 -2.2801
19298TIP3   OH279384   3.275   1.275  13.707 -0.1055 -0.7804 -0.7049
19298TIP3    H179385   3.197   1.306  13.753  0.0014 -0.8203 -0.4961
19298TIP3    H279386   3.298   1.347  13.648  0.0937 -0.4945 -0.2781
19299TIP3   OH279387   5.748   1.003  10.619  0.6529 -0.1352 -0.4446
19299TIP3    H179388   5.754   0.909  10.605  1.1499 -0.3519  1.1317
19299TIP3    H279389   5.655   1.018  10.639  0.4763 -0.2043 -1.1827
19300TIP3   OH279390   6.022   5.486   5.144 -0.4473  0.3435  0.2788
19300TIP3    H179391   5.937   5.515   5.177 -0.5712  0.6070 -0.2729
19300TIP3    H279392   6.027   5.394   5.171 -1.1886  0.1413 -0.2279
19301TIP3   OH279393   2.463   2.512   4.242 -0.1206 -0.5421 -0.1056
19301TIP3    H179394   2.425   2.600   4.236 -1.1607 -1.0918 -2.0826
19301TIP3    H279395   2.396   2.460   4.286  0.3208 -0.4439  0.6851
19302TIP3   OH279396   1.798   3.802  11.541 -0.4955  0.2337 -0.2657
19302TIP3    H179397   1.749   3.823  11.462  0.6143  1.1120 -0.7279
19302TIP3    H279398   1.889   3.817  11.517  0.2456 -3.3850 -0.0882
19303TIP3   OH279399   0.260   3.007   4.559 -0.6012  0.0908 -0.4763
19303TIP3    H179400   0.200   3.068   4.603 -1.0881 -1.1914  0.6632
19303TIP3    H279401   0.346   3.049   4.568 -0.9347  0.6441  0.2668
19304TIP3   OH279402   1.911   1.595   1.849 -0.4910  0.2126  0.1411
19304TIP3    H179403   1.836   1.598   1.909 -0.3104  2.6546  0.2962
19304TIP3    H279404   1.975   1.654   1.889  2.0648 -2.8507  0.6836
19305TIP3   OH279405   2.453   1.401   4.865  0.3317 -0.2049  0.6546
19305TIP3    H179406   2.520   1.335   4.845  0.8871  0.4715  0.2868
19305TIP3    H279407   2.417   1.373   4.949  1.5213 -0.2066  1.1723
19306TIP3   OH279408   0.473   1.438  11.727  0.6772 -0.2195  0.0805
19306TIP3    H179409   0.466   1.371  11.795  2.1695 -0.4613 -0.0020
19306TIP3    H279410   0.558   1.423  11.686 -0.8297 -1.0323 -2.8717
19307TIP3   OH279411   0.020   5.076   4.519  0.2381 -0.2540  0.0503
19307TIP3    H179412  -0.015   5.149   4.570  1.7181 -0.2924  1.1500
19307TIP3    H279413   0.073   5.118   4.451  1.9642 -0.3106  1.3367
19308TIP3   OH279414   3.507   0.208  14.476 -0.0386 -0.5137  0.2021
19308TIP3    H179415   3.564   0.161  14.416  0.3250 -0.6779  0.6734
19308TIP3    H279416   3.472   0.280  14.424  0.4632 -0.5135 -0.1377
19309TIP3   OH279417   6.266   0.332   3.697  0.1817  0.4232 -0.8436
19309TIP3    H179418   6.315   0.334   3.779  0.3707  0.5141 -0.9595
19309TIP3    H279419   6.332   0.344   3.629  0.1090 -0.3749 -1.0482
19310TIP3   OH279420   2.711   4.026   4.309  0.1017  0.1931 -0.2036
19310TIP3    H179421   2.782   4.058   4.364  0.0049 -0.6763  0.4362
19310TIP3    H279422   2.707   4.088   4.237  1.6395  0.1381 -0.3569
19311TIP3   OH279423   4.004   3.896  11.802 -0.0645  0.4083 -0.0433
19311TIP3    H179424   4.075   3.838  11.830  0.4083  0.8489 -0.3335
19311TIP3    H279425   3.973   3.858  11.720 -1.4077 -0.8491  1.0188
19312TIP3   OH279426   4.670   3.826  16.288 -1.0018  0.1432  0.0173
19312TIP3    H179427   4.761   3.833  16.260 -1.3055 -2.1258 -1.7096
19312TIP3    H279428   4.675   3.821  16.384  0.5203  1.9683  0.0642
19313TIP3   OH279429   1.236   1.073  16.229  0.1943  0.4579  0.7572
19313TIP3    H179430   1.191   1.154  16.254 -0.1112  0.0774  1.4626
19313TIP3    H279431   1.217   1.012  16.300 -0.9899 -0.7757 -0.5960
19314TIP3   OH279432   3.519   6.135   5.618 -0.6445  0.1523  0.3555
19314TIP3    H179433   3.476   6.055   5.587 -1.0787  0.7605 -0.6248
19314TIP3    H279434   3.556   6.110   5.703 -2.6981 -0.4594  1.1009
19315TIP3   OH279435   4.189   0.679  15.869  0.3788 -0.0481  0.0500
19315TIP3    H179436   4.267   0.716  15.828 -0.2066  1.6411  0.4094
19315TIP3    H279437   4.215   0.592  15.898  1.7072 -0.0439 -1.1074
19316TIP3   OH279438   4.772   1.541  12.613 -0.2725  0.1460  0.2034
19316TIP3    H179439   4.797   1.632  12.598 -2.7925  0.9356  0.5325
19316TIP3    H279440   4.686   1.532  12.572 -0.0309 -2.1188  0.1170
19317TIP3   OH279441   4.834   5.742   5.613 -0.2241  0.2409 -0.0756
19317TIP3    H179442   4.781   5.667   5.588  0.2241 -0.3569  0.7647
19317TIP3    H279443   4.903   5.746   5.546  0.5352 -0.9005  0.6322
19318TIP3   OH279444   1.341   3.175   4.631 -0.0153  0.5393 -0.5886
19318TIP3    H179445   1.318   3.183   4.723  2.3349 -1.4759  0.2145
19318TIP3    H279446   1.341   3.265   4.598  0.8814  1.4555  1.8267
19319TIP3   OH279447   2.294   5.662   1.015  0.5175 -0.1045 -0.0870
19319TIP3    H179448   2.294   5.745   0.969  0.3861  0.9214  1.6984
19319TIP3    H279449   2.377   5.661   1.063  0.9939 -1.4870 -0.9089
19320TIP3   OH279450   3.968   6.207   3.610 -0.6599 -0.1496  0.2886
19320TIP3    H179451   3.976   6.210   3.515  1.0537  1.1105  0.4491
19320TIP3    H279452   3.892   6.263   3.629  0.5727  1.7277 -0.1875
19321TIP3   OH279453   0.802   3.468   4.617  0.1351  0.2232  0.1966
19321TIP3    H179454   0.861   3.540   4.596  1.0101 -0.0844  1.5218
19321TIP3    H279455   0.810   3.407   4.544  2.5376 -0.4835  1.0186
19322TIP3   OH279456   1.692   0.516   2.038 -0.4830 -0.2180 -0.2726
19322TIP3    H179457   1.724   0.440   2.085 -0.8706 -0.1217  0.1500
19322TIP3    H279458   1.673   0.581   2.106  0.2408  0.4129 -0.6509
19323TIP3   OH279459   3.768   1.370   4.229 -0.4474 -0.0036  0.4452
19323TIP3    H179460   3.679   1.365   4.193 -0.0061 -0.1518 -0.6324
19323TIP3    H279461   3.766   1.310   4.304 -1.0791 -0.5023  0.0381
19324TIP3   OH279462   6.132   4.883   3.307 -0.3824  0.1893 -0.9555
19324TIP3    H179463   6.156   4.968   3.268  1.3012  0.0285 -0.3016
19324TIP3    H279464   6.173   4.818   3.251 -1.5207 -0.1982 -1.3480
19325TIP3   OH279465   0.666   6.452  12.043  0.2311  0.9990  0.1057
19325TIP3    H179466   0.740   6.404  12.080 -0.9419 -1.1316 -0.2153
19325TIP3    H279467   0.691   6.469  11.952 -0.1677 -0.8988 -0.3973
19326TIP3   OH279468   5.968   5.422  14.366  0.6707 -0.4964  0.2136
19326TIP3    H179469   5.986   5.338  14.323  0.6045 -0.1177 -0.5625
19326TIP3    H279470   6.000   5.487  14.304 -0.2485  0.0813  0.3446
19327TIP3   OH279471   4.968   0.434  12.061  0.7061  0.3359  0.3419
19327TIP3    H179472   4.981   0.523  12.029 -1.2740  0.1644 -1.0000
19327TIP3    H279473   4.894   0.440  12.121  0.6549 -0.3701  0.3591
19328TIP3   OH279474   4.428   0.271   2.587 -0.3392 -0.2919  0.1093
19328TIP3    H179475   4.461   0.345   2.536 -0.0098 -0.5119  0.0001
19328TIP3    H279476   4.496   0.204   2.579 -1.9608 -1.7091 -2.1986
19329TIP3   OH279477   4.241   4.700  15.919 -0.5382 -0.6985 -0.1495
19329TIP3    H179478   4.220   4.776  15.864  3.3022 -0.7598 -1.9431
19329TIP3    H279479   4.228   4.730  16.009 -0.7243  1.5303 -0.8939
19330TIP3   OH279480   1.544   3.085   3.968 -0.1441  0.4166  0.2015
19330TIP3    H179481   1.554   2.992   3.989 -1.0537  0.2154 -0.2142
19330TIP3    H279482   1.537   3.128   4.053 -1.6048 -0.1287  0.3669
19331TIP3   OH279483   2.406   0.310   5.873 -0.7222  0.1866 -0.5809
19331TIP3    H179484   2.345   0.292   5.803  1.6160 -2.7488 -1.9543
19331TIP3    H279485   2.471   0.369   5.834 -0.3387 -0.1163 -0.4101
19332TIP3   OH279486   5.539   1.368  12.670  0.4529 -0.4022  0.2794
19332TIP3    H179487   5.519   1.451  12.712  2.6548  0.8220 -0.9918
19332TIP3    H279488   5.494   1.373  12.586 -1.8252 -1.7618  1.3842
19333TIP3   OH279489   4.138   1.387  15.461  0.1292 -0.5563  0.9354
19333TIP3    H179490   4.172   1.311  15.508 -1.3449 -0.5621  2.0377
19333TIP3    H279491   4.080   1.430  15.524  0.9323  1.4899  0.3277
19334TIP3   OH279492   0.263   5.686  17.247 -1.4755  0.1628  0.2047
19334TIP3    H179493   0.291   5.697  17.338 -1.4884  1.3668  0.0651
19334TIP3    H279494   0.193   5.750  17.235 -0.8077  0.7043 -0.9366
19335TIP3   OH279495   4.210   1.739  16.458  0.1546  0.3229 -0.2555
19335TIP3    H179496   4.125   1.781  16.445  0.5705  1.0159 -0.8226
19335TIP3    H279497   4.230   1.698  16.374  0.5910  0.5803 -0.2837
19336TIP3   OH279498   1.742   4.169   6.061 -0.0265 -0.5766  0.5912
19336TIP3    H179499   1.732   4.108   5.988 -0.9153 -1.6788  1.6111
19336TIP3    H279500   1.764   4.253   6.020 -0.0922 -1.2820 -0.9048
19337TIP3   OH279501   0.453   5.249   1.363  0.1765  0.2467 -0.4058
19337TIP3    H179502   0.378   5.221   1.416 -0.3969 -1.0181 -1.8441
19337TIP3    H279503   0.502   5.168   1.346  1.3569  0.9266 -0.2650
19338TIP3   OH279504   1.658   1.112  13.906  0.5999 -0.2532  0.0257
19338TIP3    H179505   1.634   1.171  13.834 -1.4660  1.2182  1.8597
19338TIP3    H279506   1.610   1.031  13.888  0.2882  0.0233 -0.4048
19339TIP3   OH279507   3.251   1.700  11.480  0.0390  0.1529  0.1313
19339TIP3    H179508   3.167   1.732  11.514 -0.1060 -1.7991  1.6996
19339TIP3    H279509   3.265   1.751  11.400 -2.3002  0.9931  0.2042
19340TIP3   OH279510   5.783   3.242   5.285  0.1663  0.7140 -0.1130
19340TIP3    H179511   5.716   3.264   5.220  0.3879 -0.7918 -0.8665
19340TIP3    H279512   5.857   3.298   5.262  0.1983  0.2787 -1.0867
19341TIP3   OH279513   1.852   6.504   1.977 -0.4599 -0.3610 -0.5490
19341TIP3    H179514   1.905   6.541   2.047 -0.8646 -3.1182  1.2760
19341TIP3    H279515   1.816   6.581   1.931  0.7108  1.4881  1.5396
19342TIP3   OH279516   3.501   1.966   4.119  0.3393 -0.0392 -0.0202
19342TIP3    H179517   3.518   2.003   4.206  4.3930  0.0183 -0.7243
19342TIP3    H279518   3.408   1.981   4.104 -0.2410  0.7514  3.9344
19343TIP3   OH279519   0.251   4.817  16.012  0.4324  0.0483  0.1516
19343TIP3    H179520   0.263   4.815  16.107  2.3935 -0.4472 -0.0732
19343TIP3    H279521   0.172   4.767  15.996  1.5081 -2.1082  1.3550
19344TIP3   OH279522   2.485   4.669  17.078 -0.3948  0.1019 -0.3879
19344TIP3    H179523   2.465   4.614  17.154  0.8714  0.4279  0.1897
19344TIP3    H279524   2.541   4.738  17.112  0.6536 -0.0707 -1.7238
19345TIP3   OH279525   5.961   1.394   4.862 -0.0221 -0.6202  0.0987
19345TIP3    H179526   5.934   1.315   4.814 -2.2384  0.7565 -1.0085
19345TIP3    H279527   5.963   1.463   4.796 -1.0952  0.8919  1.5903
19346TIP3   OH279528   2.349   1.174   4.272  0.3920 -0.3948  0.3415
19346TIP3    H179529   2.352   1.088   4.315  0.2687 -1.0817 -1.0032
19346TIP3    H279530   2.257   1.200   4.275  0.4100 -0.3590  0.6321
19347TIP3   OH279531   3.706   3.049   0.981 -0.6102  0.5247 -0.2538
19347TIP3    H179532   3.614   3.049   0.956 -0.5834 -0.5563 -0.3632
19347TIP3    H279533   3.738   3.135   0.953 -1.5522  0.8658 -0.3099
19348TIP3   OH279534   1.059   5.319   5.216 -0.3985  0.7072 -0.2565
19348TIP3    H179535   0.986   5.350   5.269 -1.0790 -0.8717 -0.2521
19348TIP3    H279536   1.021   5.253   5.157  0.8878  0.3266 -0.6974
19349TIP3   OH279537   3.720   5.341  17.108 -0.1364 -0.4642  0.1270
19349TIP3    H179538   3.749   5.373  17.193 -1.6319 -2.3476  1.3822
19349TIP3    H279539   3.758   5.402  17.045 -0.6730  2.1227  2.2544
19350TIP3   OH279540   6.029   3.283   1.616  0.0276 -0.2106  0.4480
19350TIP3    H179541   6.112   3.268   1.662  1.4346  1.0917 -1.6074
19350TIP3    H279542   6.034   3.225   1.540 -1.0459 -0.2701  0.4282
19351TIP3   OH279543   1.819   3.486  16.881  0.3216 -0.3176  0.5256
19351TIP3    H179544   1.896   3.509  16.830 -0.6654 -1.6833 -1.6563
19351TIP3    H279545   1.852   3.429  16.950  1.2643 -0.9367 -0.4229
19352TIP3   OH279546   6.463   5.093   1.558  0.3204  0.2233  0.1735
19352TIP3    H179547   6.482   5.073   1.466  2.2421 -2.0157  0.9950
19352TIP3    H279548   6.368   5.089   1.564  0.2388 -0.9419 -1.4646
19353TIP3   OH279549   3.038   0.155  12.689 -0.0494 -0.0187 -0.1622
19353TIP3    H179550   2.989   0.075  12.712  1.2104 -0.6995  0.2082
19353TIP3    H279551   3.091   0.130  12.614  0.5079  0.4075  0.0851
19354TIP3   OH279552   3.888   1.261  12.285 -0.1158 -0.1536  0.2327
19354TIP3    H179553   3.859   1.226  12.201  0.0560 -0.1885  0.1885
19354TIP3    H279554   3.958   1.322  12.262 -0.6005  0.4269  0.2875
19355TIP3   OH279555   1.401   2.264  14.640 -0.0606 -0.0900  0.6342
19355TIP3    H179556   1.460   2.290  14.710  0.1383 -1.3824  0.9523
19355TIP3    H279557   1.363   2.181  14.669  0.6160 -1.0519 -1.1361
19356TIP3   OH279558   1.253   0.243  11.578  0.1268 -0.2313  0.0425
19356TIP3    H179559   1.194   0.304  11.534 -0.1221  0.6856  1.6170
19356TIP3    H279560   1.281   0.183  11.509 -0.4812  0.9989 -1.2999
19357TIP3   OH279561   4.759   3.069  16.753 -0.1189 -0.1522  0.2940
19357TIP3    H179562   4.771   3.111  16.668  1.0193  0.1347  0.5904
19357TIP3    H279563   4.820   2.995  16.752  1.3492  1.0083  1.6096
19358TIP3   OH279564   0.240   1.176  14.013 -0.0809  0.3118 -0.2875
19358TIP3    H179565   0.315   1.234  14.025 -0.0673  0.4949 -1.2146
19358TIP3    H279566   0.209   1.157  14.102  1.1914  0.0599  0.1087
19359TIP3   OH279567   3.028   1.308   0.743 -0.2797  0.3207  0.2376
19359TIP3    H179568   2.935   1.290   0.759 -0.9747  3.0067 -0.4746
19359TIP3    H279569   3.040   1.398   0.774  1.8958  0.2907 -0.4444
19360TIP3   OH279570   3.486   2.239  13.696 -0.4443  0.3060 -0.7906
19360TIP3    H179571   3.558   2.179  13.714 -1.1580 -1.5147 -3.6771
19360TIP3    H279572   3.407   2.188  13.717 -0.9789  1.1754 -0.6876
19361TIP3   OH279573   2.326   1.785  13.192  0.0872  0.2504 -0.0455
19361TIP3    H179574   2.315   1.828  13.276  1.6744  0.5316  0.0426
19361TIP3    H279575   2.258   1.822  13.136  1.1721  2.5864  0.1449
19362TIP3   OH279576   2.608   6.289  10.784  0.2337 -0.1851 -0.2403
19362TIP3    H179577   2.692   6.254  10.812  0.2522  0.9792  1.2515
19362TIP3    H279578   2.619   6.384  10.786 -1.2040 -0.0092  0.2833
19363TIP3   OH279579   4.386   1.501  11.795  0.3771  0.2313  0.3490
19363TIP3    H179580   4.451   1.528  11.730  0.1059  3.0836  1.2259
19363TIP3    H279581   4.433   1.502  11.878 -0.0499 -0.5882  0.6136
19364TIP3   OH279582   5.229   0.042   6.287 -0.3274 -0.3750 -0.1793
19364TIP3    H179583   5.292   0.012   6.352  0.3093 -0.5760 -0.8925
19364TIP3    H279584   5.145   0.004   6.316 -0.1914  0.1699  0.9469
19365TIP3   OH279585   4.243   6.076  10.818  0.3055  0.2391 -0.1099
19365TIP3    H179586   4.290   6.073  10.901  0.1093 -1.6674 -0.0389
19365TIP3    H279587   4.241   5.985  10.788 -2.0203  0.4925 -0.8331
19366TIP3   OH279588   1.963   2.733  14.017  0.1373  0.2194 -0.0205
19366TIP3    H179589   1.998   2.727  13.928  0.5703 -0.5984  0.1940
19366TIP3    H279590   1.936   2.824  14.026  1.9932  0.8233 -0.2948
19367TIP3   OH279591   1.197   5.369  15.263  0.4376 -0.7602 -0.1833
19367TIP3    H179592   1.104   5.379  15.244  0.6117  1.5280  0.0614
19367TIP3    H279593   1.239   5.362  15.177  0.2121 -0.0048 -0.3578
19368TIP3   OH279594   2.669   2.909  10.995 -0.0685 -0.2418  0.1629
19368TIP3    H179595   2.732   2.858  11.046 -1.3956  0.6103  2.7463
19368TIP3    H279596   2.722   2.950  10.925  1.4847 -2.7782 -0.2080
19369TIP3   OH279597   3.519   3.757   4.500  0.4031 -0.3442  0.0825
19369TIP3    H179598   3.509   3.738   4.593  1.0366  0.1914  0.2562
19369TIP3    H279599   3.474   3.841   4.488  1.4928  0.2548  0.1644
19370TIP3   OH279600   1.855   1.511  13.061  0.0256  0.1900 -0.3703
19370TIP3    H179601   1.925   1.569  13.092 -0.3072  1.9660 -2.7777
19370TIP3    H279602   1.789   1.571  13.025 -0.8855 -1.6381 -1.8199
19371TIP3   OH279603   6.054   0.642  11.927  0.4637 -0.4212  0.2642
19371TIP3    H179604   6.105   0.572  11.886  0.4009 -0.7134  0.6842
19371TIP3    H279605   5.964   0.624  11.900  0.2593 -1.3044  1.4945
19372TIP3   OH279606   1.623   2.678  14.043  0.1463  0.0437  0.0873
19372TIP3    H179607   1.605   2.771  14.031  0.3910 -0.1630 -2.3295
19372TIP3    H279608   1.718   2.671  14.034 -0.0237 -0.6181 -1.5890
19373TIP3   OH279609   0.025   6.359  12.750 -0.5706 -0.0319 -0.4161
19373TIP3    H179610   0.107   6.338  12.795  0.7260 -0.6787 -2.9917
19373TIP3    H279611   0.035   6.451  12.725  0.1034 -0.5453 -2.1383
19374TIP3   OH279612   3.223   6.294  13.279 -0.3032 -0.1678 -0.4476
19374TIP3    H179613   3.252   6.204  13.267  1.0149  0.3209 -1.0257
19374TIP3    H279614   3.130   6.293  13.253 -0.5318 -1.5184  0.3754
19375TIP3   OH279615   4.998   1.403  10.939  0.5153  0.0576 -0.2562
19375TIP3    H179616   4.985   1.438  11.027  0.0741 -0.6341 -0.0338
19375TIP3    H279617   4.950   1.462  10.882  0.2390  0.1361  0.0530
19376TIP3   OH279618   3.833   6.014  14.271 -0.0715  0.4343  0.7139
19376TIP3    H179619   3.797   6.041  14.187  1.7512 -2.2417 -1.0081
19376TIP3    H279620   3.780   5.938  14.296  1.0459 -0.3733  0.6667
19377TIP3   OH279621   1.216   1.398   4.713 -0.3653 -0.0217 -0.2579
19377TIP3    H179622   1.275   1.366   4.780 -0.6836 -1.3315 -0.6014
19377TIP3    H279623   1.164   1.322   4.687 -0.8667  0.6735 -1.3414
19378TIP3   OH279624   4.595   2.799   0.179 -0.0256 -0.0450  0.6398
19378TIP3    H179625   4.652   2.763   0.247  0.3485 -0.6272  0.0079
19378TIP3    H279626   4.628   2.764   0.097 -1.3827 -0.5153  0.2730
19379TIP3   OH279627   3.104   4.959  15.613  0.0234  0.1223  0.2907
19379TIP3    H179628   3.152   4.889  15.569 -0.0704  0.7048 -0.7487
19379TIP3    H279629   3.012   4.933  15.604  0.0475 -0.1375  0.7984
19380TIP3   OH279630   2.300   4.794   3.153  0.2950  0.4010 -0.3227
19380TIP3    H179631   2.356   4.804   3.076  1.4708 -0.9066  0.3359
19380TIP3    H279632   2.275   4.702   3.152 -2.4763  1.1197 -1.0019
19381TIP3   OH279633   4.965   5.273   2.932  0.4438  0.1394  0.0504
19381TIP3    H179634   4.901   5.214   2.892 -1.4431  2.2982 -0.1875
19381TIP3    H279635   4.968   5.246   3.024 -0.4982 -0.2594 -0.0264
19382TIP3   OH279636   2.666   3.974  16.733 -0.7084 -0.0370 -0.5673
19382TIP3    H179637   2.571   3.974  16.738 -0.7019  1.0228 -0.3227
19382TIP3    H279638   2.693   3.894  16.780 -1.4618 -0.3012 -0.5798
19383TIP3   OH279639   6.084   1.476   2.279  0.6696 -0.2526 -0.3864
19383TIP3    H179640   6.123   1.483   2.366 -1.2938 -2.6933  0.7593
19383TIP3    H279641   6.024   1.551   2.272  1.1787  0.2025  0.1792
19384TIP3   OH279642   2.577   5.646   0.194 -0.0439 -0.0081  0.1353
19384TIP3    H179643   2.549   5.594   0.269 -0.2657  0.1180  0.1405
19384TIP3    H279644   2.571   5.586   0.119 -1.3291  0.3142 -0.0257
19385TIP3   OH279645   3.168   2.011  16.364 -0.7855 -0.1659 -0.4801
19385TIP3    H179646   3.080   2.049  16.369 -0.5159  0.5387 -0.9963
19385TIP3    H279647   3.161   1.944  16.296 -0.8272  0.1461 -0.7841
19386TIP3   OH279648   1.195   0.381   4.986 -0.2122  0.2342  0.8237
19386TIP3    H179649   1.165   0.362   4.897 -0.0529  0.9285  0.6234
19386TIP3    H279650   1.135   0.447   5.018  0.5932  1.0241  0.7217
19387TIP3   OH279651   6.051   4.481   0.953 -0.0214 -0.1082 -0.1092
19387TIP3    H179652   6.020   4.556   1.003  0.8429  0.3437 -0.2522
19387TIP3    H279653   6.107   4.518   0.885  0.4811 -0.8816 -0.1283
19388TIP3   OH279654   2.964   3.940  10.499  0.2294  0.4852  0.0751
19388TIP3    H179655   2.908   3.875  10.456  0.5142 -0.1035  0.5836
19388TIP3    H279656   2.909   4.018  10.508  0.6343  1.1243 -2.7169
19389TIP3   OH279657   0.931   0.458   5.966 -0.3544  0.1992 -0.6795
19389TIP3    H179658   0.926   0.486   6.058 -1.7054  0.7838 -0.9125
19389TIP3    H279659   1.021   0.477   5.940  0.5656 -1.6360  1.0417
19390TIP3   OH279660   3.930   5.791  12.535 -0.3099  0.4470  0.6149
19390TIP3    H179661   3.962   5.814  12.622  2.4283 -0.1343 -0.1792
19390TIP3    H279662   3.960   5.701  12.521  1.6436  1.4139 -1.9245
19391TIP3   OH279663   2.637   0.640   2.409 -0.3597  0.5066 -0.6154
19391TIP3    H179664   2.555   0.598   2.435 -0.0408 -0.4348 -1.0967
19391TIP3    H279665   2.610   0.716   2.357 -0.9235  0.0855 -0.9407
19392TIP3   OH279666   0.011   3.498   3.955  0.1151 -0.0071  0.2324
19392TIP3    H179667   0.048   3.437   4.019 -1.0036 -0.8822  0.0682
19392TIP3    H279668  -0.083   3.498   3.973 -0.2520 -0.4173 -1.5061
19393TIP3   OH279669   2.689   6.536   1.873  0.0820 -0.0819 -0.4218
19393TIP3    H179670   2.755   6.605   1.865 -0.0220  0.3642  2.1194
19393TIP3    H279671   2.738   6.454   1.866  0.7795  0.2586  0.3338
19394TIP3   OH279672   2.686   1.292   4.757 -0.0057  0.0394  0.2239
19394TIP3    H179673   2.705   1.242   4.837  0.9558  2.9129  1.8600
19394TIP3    H279674   2.683   1.226   4.688  0.9728 -2.3090  2.3309
19395TIP3   OH279675   4.454   1.562  14.043  0.3856 -0.0792 -0.0461
19395TIP3    H179676   4.445   1.470  14.068 -0.5915 -0.0691 -0.3401
19395TIP3    H279677   4.525   1.595  14.098  1.3640 -1.2370 -0.5801
19396TIP3   OH279678   1.130   4.996   5.174  0.1980 -0.2889  0.5482
19396TIP3    H179679   1.153   4.975   5.264  0.8133  2.0204  0.9623
19396TIP3    H279680   1.210   4.982   5.124  0.5916  1.0135  0.8125
19397TIP3   OH279681   2.329   1.355   1.523 -0.6518 -0.2144 -0.6289
19397TIP3    H179682   2.396   1.320   1.464  0.7335 -0.1299  0.8523
19397TIP3    H279683   2.328   1.449   1.505 -0.5273 -0.2501 -0.8240
19398TIP3   OH279684   0.272   6.484   5.515 -0.7464  0.0869 -0.0217
19398TIP3    H179685   0.201   6.425   5.538 -1.0196 -1.0881 -3.5630
19398TIP3    H279686   0.239   6.532   5.439  1.1380  1.6711  0.1301
19399TIP3   OH279687   4.657   6.788  16.869 -0.5635  0.5694  0.6016
19399TIP3    H179688   4.659   6.766  16.776  2.3113 -2.3144  1.2385
19399TIP3    H279689   4.690   6.878  16.873 -1.3325  0.9479 -1.2062
19400TIP3   OH279690   2.401   6.012   2.202  0.3887 -0.4048 -0.0075
19400TIP3    H179691   2.309   5.985   2.194  0.4343 -0.8093  0.7697
19400TIP3    H279692   2.445   5.936   2.239  1.0862 -0.2839 -0.5715
19401TIP3   OH279693   1.481   4.648  13.215  0.0364  0.0026  0.1935
19401TIP3    H179694   1.568   4.651  13.176  0.4099 -1.5921  0.8559
19401TIP3    H279695   1.490   4.588  13.290 -1.4342  0.4452  0.7466
19402TIP3   OH279696   0.882   2.396  10.343  0.1833 -0.2487 -0.2727
19402TIP3    H179697   0.837   2.395  10.427 -0.1608  1.0099 -0.4301
19402TIP3    H279698   0.812   2.391  10.278  0.3966 -0.3692 -0.4949
19403TIP3   OH279699   1.747   1.720   4.120  0.6929  0.8350  0.0741
19403TIP3    H179700   1.695   1.681   4.190 -1.3874 -1.2481 -2.5159
19403TIP3    H279701   1.708   1.807   4.107 -1.9992 -0.5352 -1.5318
19404TIP3   OH279702   3.517   2.417  13.974 -0.1119 -0.2620  0.2325
19404TIP3    H179703   3.506   2.512  13.963 -1.3634 -0.2586  1.4055
19404TIP3    H279704   3.533   2.385  13.885  0.5698  1.0775 -0.1431
19405TIP3   OH279705   2.204   0.181  13.318  0.2008 -0.0691  0.0709
19405TIP3    H179706   2.205   0.251  13.252 -0.4485  0.3522  0.5088
19405TIP3    H279707   2.215   0.100  13.267  0.5280  0.3175 -0.4749
19406TIP3   OH279708   6.056   1.686  14.195 -0.0706 -0.2625 -0.6926
19406TIP3    H179709   5.974   1.639  14.183  0.6434 -1.4749 -0.8947
19406TIP3    H279710   6.040   1.772  14.158 -1.3335 -0.4053 -0.5012
19407TIP3   OH279711   2.411   1.927   4.384 -0.3229  0.1490 -0.2386
19407TIP3    H179712   2.491   1.931   4.437 -1.0865  0.7212  0.8829
19407TIP3    H279713   2.439   1.884   4.303  1.0038 -0.1475  0.3537
19408TIP3   OH279714   3.287   0.709   3.203  0.0587  0.0099  0.0151
19408TIP3    H179715   3.277   0.750   3.117  2.2008  1.4757  0.4402
19408TIP3    H279716   3.198   0.682   3.227 -0.4046 -1.5944 -3.1978
19409TIP3   OH279717   3.515   3.117  15.675 -0.5045 -0.1816  0.1252
19409TIP3    H179718   3.605   3.083  15.670 -0.4144  0.0302  0.2749
19409TIP3    H279719   3.462   3.042  15.700  0.0991  0.4237  3.4015
19410TIP3   OH279720   5.452   2.147   5.335 -0.2700 -0.4016  0.4151
19410TIP3    H179721   5.379   2.201   5.365 -0.0786 -0.2026  0.5264
19410TIP3    H279722   5.450   2.071   5.393 -0.7487 -0.6792  0.0387
19411TIP3   OH279723   1.184   0.812   3.381 -0.3196 -0.1953  0.5934
19411TIP3    H179724   1.143   0.845   3.462  0.9271  2.4363  0.2104
19411TIP3    H279725   1.125   0.840   3.311 -0.2212 -0.4483  0.4082
19412TIP3   OH279726   2.582   0.886   3.251  0.1671  0.2958  0.2335
19412TIP3    H179727   2.625   0.970   3.268 -0.8353  0.6900  0.8813
19412TIP3    H279728   2.629   0.849   3.177  0.6446  1.4173 -0.0328
19413TIP3   OH279729   5.465   6.792   5.548  0.4767  0.7884  0.1982
19413TIP3    H179730   5.382   6.838   5.563  0.1139  0.6082 -1.1699
19413TIP3    H279731   5.458   6.759   5.458  1.2033 -0.9869  0.7779
19414TIP3   OH279732   2.782   0.231   1.338 -0.4256  0.5239  0.2145
19414TIP3    H179733   2.780   0.189   1.425  0.6685 -1.7047 -0.8017
19414TIP3    H279734   2.863   0.282   1.338  1.1098 -1.8166 -0.5023
19415TIP3   OH279735   2.433   4.401   0.336  0.1846  0.1234 -0.3370
19415TIP3    H179736   2.464   4.491   0.351  1.6712  0.0609 -2.7572
19415TIP3    H279737   2.430   4.362   0.424 -0.2361  2.4580  0.7097
19416TIP3   OH279738   1.395   3.603  15.729  0.1048  0.4523  0.2205
19416TIP3    H179739   1.489   3.594  15.744 -0.1505  0.8979  2.2538
19416TIP3    H279740   1.369   3.678  15.782 -1.7807 -1.0344  1.4970
19417TIP3   OH279741   4.460   6.512  13.360  0.1623 -0.9330 -0.2640
19417TIP3    H179742   4.420   6.467  13.286  1.3488 -0.0570 -1.4369
19417TIP3    H279743   4.385   6.536  13.416 -0.7592 -1.2342 -1.3577
19418TIP3   OH279744   1.486   4.165   0.608 -0.4391  0.0839  0.4075
19418TIP3    H179745   1.390   4.166   0.612 -0.4948  0.9186 -0.6539
19418TIP3    H279746   1.509   4.076   0.583 -0.9656 -0.0258  0.3164
19419TIP3   OH279747   2.155   5.395  15.056  0.3131 -0.4146 -0.2926
19419TIP3    H179748   2.079   5.347  15.024 -0.3131  0.4463 -0.1215
19419TIP3    H279749   2.118   5.463  15.113  1.3627 -1.4868  1.7044
19420TIP3   OH279750   0.069   1.079  17.117  0.4980  0.1618  0.3736
19420TIP3    H179751   0.009   1.039  17.054 -0.5747  0.3187  1.2665
19420TIP3    H279752   0.013   1.136  17.170  1.4162  0.1951  1.3233
19421TIP3   OH279753   3.982   5.434  13.983 -0.4907 -0.4431  0.7368
19421TIP3    H179754   4.004   5.411  14.073  1.2603  0.7473  0.6609
19421TIP3    H279755   3.991   5.529  13.980 -0.1782 -0.5003 -0.7597
19422TIP3   OH279756   3.535   6.579  13.027  0.5967 -0.0084 -0.2959
19422TIP3    H179757   3.607   6.536  13.073 -0.3746 -1.2288  0.1171
19422TIP3    H279758   3.551   6.561  12.935  0.8863 -0.1522 -0.2189
19423TIP3   OH279759   6.166   5.824  14.645 -0.3020  0.5498 -0.1836
19423TIP3    H179760   6.147   5.785  14.730 -0.3148 -1.1068 -0.9328
19423TIP3    H279761   6.252   5.864  14.655  0.9088 -1.9859 -0.1647
19424TIP3   OH279762   0.448   2.186   0.863 -0.4164  0.1674 -0.4506
19424TIP3    H179763   0.406   2.201   0.948 -0.4840 -1.1034 -0.2590
19424TIP3    H279764   0.406   2.250   0.805 -1.8626 -0.3693 -0.0132
19425TIP3   OH279765   2.008   6.808  14.104 -0.4139 -0.5618  0.9616
19425TIP3    H179766   2.101   6.788  14.117 -0.6328 -0.1878  3.3641
19425TIP3    H279767   1.963   6.724  14.113 -0.4950 -0.4161  1.9743
19426TIP3   OH279768   3.740   6.546  13.875 -0.0790 -0.3853  1.0931
19426TIP3    H179769   3.767   6.467  13.923  1.3999 -0.5457  0.0333
19426TIP3    H279770   3.656   6.522  13.835  0.4410 -1.5028  0.6299
19427TIP3   OH279771   3.293   2.011  12.918 -0.4853 -0.1331 -0.3440
19427TIP3    H179772   3.328   2.086  12.964 -0.8310 -0.3141  0.2174
19427TIP3    H279773   3.198   2.022  12.921 -0.6141 -1.3630  1.0908
19428TIP3   OH279774   1.099   0.223  16.325  0.5530  0.3022  0.0902
19428TIP3    H179775   1.178   0.260  16.362  1.4255  0.2900 -1.6994
19428TIP3    H279776   1.101   0.131  16.351  1.3982  0.1848 -0.3696
19429TIP3   OH279777   6.529   0.541  15.859 -0.5291  0.6242  0.1157
19429TIP3    H179778   6.487   0.464  15.822 -1.0282  0.3058  1.3028
19429TIP3    H279779   6.605   0.507  15.906  0.3156  1.0613 -0.9175
19430TIP3   OH279780   1.257   1.600   2.315 -0.3519 -0.0169  0.3823
19430TIP3    H179781   1.221   1.662   2.252  0.7619  0.4245  0.1794
19430TIP3    H279782   1.211   1.518   2.296  0.4889 -0.0794 -1.4906
19431TIP3   OH279783   3.437   1.020  14.094 -0.0539  0.1513 -0.1751
19431TIP3    H179784   3.490   0.963  14.038 -0.1591  0.5547 -0.6865
19431TIP3    H279785   3.444   0.980  14.181  1.7509  0.6513 -0.0673
19432TIP3   OH279786   6.507   2.661  12.905  0.0275  0.0171 -0.3181
19432TIP3    H179787   6.442   2.730  12.916 -0.0620 -0.1783  0.4232
19432TIP3    H279788   6.456   2.582  12.893  0.0775 -0.4582  2.2228
19433TIP3   OH279789   6.710   3.577  15.765  0.2910 -0.0862 -0.0190
19433TIP3    H179790   6.635   3.579  15.824 -1.4108 -1.3260 -2.0701
19433TIP3    H279791   6.684   3.630  15.690  1.5857 -0.2506 -0.6078
19434TIP3   OH279792   2.585   4.617  12.329 -0.6011  0.1347  0.3331
19434TIP3    H179793   2.571   4.695  12.382 -1.5458 -0.7830  1.4589
19434TIP3    H279794   2.667   4.634  12.282 -1.1027  2.0377  0.1091
19435TIP3   OH279795   5.633   1.430   5.107 -0.1547  0.1874  0.0144
19435TIP3    H179796   5.628   1.367   5.034  0.7388 -0.2778  0.3479
19435TIP3    H279797   5.700   1.394   5.164 -0.3927  0.9041  0.7435
19436TIP3   OH279798   0.143   3.940   1.247 -0.2091 -0.8105  0.1316
19436TIP3    H179799   0.118   3.848   1.240  0.9878 -1.2432  1.1676
19436TIP3    H279800   0.150   3.956   1.341 -0.4785  0.3663 -0.0353
19437TIP3   OH279801   2.518   4.219   3.449 -0.2394 -0.0993  0.3781
19437TIP3    H179802   2.466   4.264   3.515  1.9843  0.3493  1.8849
19437TIP3    H279803   2.608   4.230   3.478  0.6895 -1.1093 -2.0062
19438TIP3   OH279804   5.767   3.660   3.822 -0.0963 -0.1033 -0.5246
19438TIP3    H179805   5.718   3.605   3.760 -2.0345 -0.3167  1.1387
19438TIP3    H279806   5.821   3.716   3.767 -1.6089 -0.4536 -2.4140
19439TIP3   OH279807   5.484   6.630   1.698  0.2734  0.7145  0.7892
19439TIP3    H179808   5.461   6.623   1.605 -0.6211  0.4423  1.0214
19439TIP3    H279809   5.483   6.724   1.715 -0.7697  0.7144  0.8025
19440TIP3   OH279810   5.910   6.088   4.021  0.1015  0.1941 -0.3192
19440TIP3    H179811   5.854   6.127   4.089 -1.6795  0.5855 -1.9728
19440TIP3    H279812   5.906   5.994   4.037  0.7075  0.3555  0.8688
19441TIP3   OH279813   0.981   6.816   3.404 -0.0768  0.6598  0.4399
19441TIP3    H179814   0.938   6.901   3.395  0.7970  0.8345 -2.5027
19441TIP3    H279815   0.911   6.756   3.430 -1.1279  1.8603  0.4305
19442TIP3   OH279816   0.876   1.724   0.636 -0.1282 -0.4522 -0.2773
19442TIP3    H179817   0.893   1.719   0.542 -0.8090  0.8475 -0.4757
19442TIP3    H279818   0.952   1.770   0.672  0.1210 -0.9285 -0.1814
19443TIP3   OH279819   0.873   5.828  14.057  0.8447  0.3061 -0.3397
19443TIP3    H179820   0.965   5.833  14.084  0.8152  1.4962 -0.4441
19443TIP3    H279821   0.853   5.915  14.022 -0.5960  0.3537  0.5664
19444TIP3   OH279822   5.529   2.124   1.376 -0.3381  0.8598 -0.4439
19444TIP3    H179823   5.462   2.058   1.361  2.5446 -2.0511 -0.9535
19444TIP3    H279824   5.521   2.146   1.469 -1.0005 -0.5418 -0.1537
19445TIP3   OH279825   2.588   4.154   3.027  0.2492  0.5517  0.6121
19445TIP3    H179826   2.651   4.116   2.966 -0.6800  0.0007 -0.0328
19445TIP3    H279827   2.531   4.207   2.972 -1.8709 -1.5933  0.6307
19446TIP3   OH279828   2.087   2.727  13.324 -0.2228  0.6600  0.4022
19446TIP3    H179829   2.013   2.735  13.264  0.5754 -0.2872 -0.7344
19446TIP3    H279830   2.060   2.661  13.388 -1.1494  1.8101  1.2280
19447TIP3   OH279831   0.422   2.046  11.210  0.2212  0.2651  0.2390
19447TIP3    H179832   0.365   1.975  11.178  1.3731 -1.0054  0.9436
19447TIP3    H279833   0.365   2.123  11.211 -1.3864 -0.8763  0.4733
19448TIP3   OH279834   3.437   2.302   1.880 -0.2278 -0.3861 -0.4846
19448TIP3    H179835   3.407   2.225   1.929  0.2783 -1.0947 -1.2724
19448TIP3    H279836   3.359   2.355   1.867 -0.9220 -1.6420 -1.4848
19449TIP3   OH279837   3.973   1.356  14.847 -0.1478  1.0168 -0.1585
19449TIP3    H179838   4.069   1.359  14.848 -0.0569 -1.0736 -0.1418
19449TIP3    H279839   3.946   1.404  14.925  0.9033  0.9129  0.2763
19450TIP3   OH279840   3.714   3.613  14.620  0.3505  0.4070 -0.0146
19450TIP3    H179841   3.744   3.684  14.677  2.1198  0.3705 -0.8890
19450TIP3    H279842   3.794   3.575  14.584 -0.6509 -1.0210 -0.7954
19451TIP3   OH279843   0.121   0.041  15.932 -0.6223 -0.2260  0.2802
19451TIP3    H179844   0.148   0.133  15.938 -0.9694  0.0903 -2.3265
19451TIP3    H279845   0.029   0.044  15.905 -0.3485 -1.3327 -0.8216
19452TIP3   OH279846   0.091   1.023   4.336  0.0310  0.3194  0.1006
19452TIP3    H179847   0.174   0.985   4.364 -0.2978 -0.2050  0.3749
19452TIP3    H279848   0.047   1.049   4.417 -1.5540 -2.5213  0.2123
19453TIP3   OH279849   2.177   4.380  11.090 -0.1792 -0.7399  0.1680
19453TIP3    H179850   2.168   4.286  11.077 -0.2372 -0.6155 -0.6751
19453TIP3    H279851   2.200   4.414  11.004 -2.7982  0.3603 -0.1333
19454TIP3   OH279852   4.775   3.136  16.470 -0.1044 -0.5430  0.6517
19454TIP3    H179853   4.854   3.156  16.421  0.4487 -1.4920  1.1262
19454TIP3    H279854   4.732   3.066  16.420 -0.7159  0.0684  0.3202
19455TIP3   OH279855   2.405   1.664   4.795  0.2398 -0.0724  0.1573
19455TIP3    H179856   2.436   1.664   4.705 -1.7003  0.3944 -0.5462
19455TIP3    H279857   2.441   1.584   4.833 -1.4531 -1.9219 -1.9785
19456TIP3   OH279858   6.781   2.209  13.731 -0.1399  0.1001  0.2863
19456TIP3    H179859   6.727   2.284  13.705  0.3987 -0.2199 -1.8672
19456TIP3    H279860   6.871   2.239  13.715  0.0278 -1.5356 -2.2489
19457TIP3   OH279861   5.491   4.745  14.913  0.4995 -0.0739 -0.1652
19457TIP3    H179862   5.415   4.699  14.948  1.2545 -0.3965  1.0655
19457TIP3    H279863   5.561   4.680  14.913  0.6219  0.0379 -1.8964
19458TIP3   OH279864   4.751   0.207   1.465  0.7032 -0.4958  0.6704
19458TIP3    H179865   4.712   0.181   1.382  4.1119 -0.1011 -1.1504
19458TIP3    H279866   4.836   0.163   1.466  1.6141  1.2277  2.9394
19459TIP3   OH279867   0.458   5.466  17.274 -0.0150  0.5753  0.5955
19459TIP3    H179868   0.521   5.441  17.342  0.8159  1.7087  0.2654
19459TIP3    H279869   0.429   5.554  17.301  0.8169  1.3086 -0.8534
19460TIP3   OH279870   0.768   1.240   4.230  0.1443 -0.0507 -0.9308
19460TIP3    H179871   0.739   1.150   4.220 -1.7224  0.4045  0.0602
19460TIP3    H279872   0.737   1.285   4.152  2.8700 -0.6474 -2.4409
19461TIP3   OH279873   2.265   2.542   1.980 -0.6310 -0.3030 -0.4825
19461TIP3    H179874   2.285   2.496   1.898 -3.1304 -1.4679 -0.4823
19461TIP3    H279875   2.219   2.477   2.033  0.5098  0.6027  1.6731
19462TIP3   OH279876   1.860   5.818   5.532  0.3002 -0.0348  0.2686
19462TIP3    H179877   1.852   5.859   5.618 -1.6174 -0.5726  0.3797
19462TIP3    H279878   1.869   5.892   5.471 -2.9603  0.6390  0.4875
19463TIP3   OH279879   5.112   4.854  16.505  0.5440  0.7925 -0.5245
19463TIP3    H179880   5.173   4.919  16.469  0.1712  1.1431 -0.5376
19463TIP3    H279881   5.128   4.775  16.454  2.5515  0.2027  0.9496
19464TIP3   OH279882   5.698   1.573  11.373 -0.5298  0.0651  0.6729
19464TIP3    H179883   5.605   1.574  11.395 -0.3136 -1.7181  1.7801
19464TIP3    H279884   5.739   1.629  11.439 -0.7998  0.7960  0.2250
19465TIP3   OH279885   2.647   3.735  12.178 -0.6533 -0.2699 -0.2568
19465TIP3    H179886   2.627   3.806  12.239 -0.0714  0.6247 -1.1087
19465TIP3    H279887   2.622   3.656  12.226 -1.4036  0.5035  0.6572
19466TIP3   OH279888   1.642   0.629   3.794  0.3682  0.4535 -0.4248
19466TIP3    H179889   1.622   0.607   3.703  2.0590  1.1580 -0.9888
19466TIP3    H279890   1.638   0.545   3.840  0.4948 -0.0673 -1.3466
19467TIP3   OH279891   6.109   4.835   0.198  0.4346  0.3502  0.1939
19467TIP3    H179892   6.086   4.830   0.291  0.1510 -0.5424  0.0746
19467TIP3    H279893   6.082   4.923   0.171 -1.8261 -0.2741  0.3197
19468TIP3   OH279894   1.910   0.269  12.500  0.3167  0.9049  0.4089
19468TIP3    H179895   1.930   0.291  12.591 -1.3027  2.9644  0.2980
19468TIP3    H279896   1.887   0.353  12.459 -0.6630 -0.2373 -1.4541
19469TIP3   OH279897   0.174   2.118  12.574  0.2203 -0.2362  0.1792
19469TIP3    H179898   0.263   2.124  12.609 -0.0354  1.1094  0.6361
19469TIP3    H279899   0.128   2.191  12.615 -1.0592 -0.8502 -0.1657
19470TIP3   OH279900   2.142   4.842   0.154 -0.1992  0.4737 -0.1877
19470TIP3    H179901   2.119   4.910   0.218  0.0003  0.1566  0.2187
19470TIP3    H279902   2.118   4.760   0.197 -0.0989  0.2628 -0.5364
19471TIP3   OH279903   1.750   0.176  13.660  0.3458  0.0865  0.0662
19471TIP3    H179904   1.761   0.093  13.613  0.6548 -1.3543  2.5745
19471TIP3    H279905   1.831   0.185  13.711  0.1118  1.7131  0.1700
19472TIP3   OH279906   5.465   0.937   4.889 -0.3976  0.1699 -0.5659
19472TIP3    H179907   5.482   0.857   4.840 -0.0031  0.2046 -0.4822
19472TIP3    H279908   5.472   1.007   4.824 -0.5766  0.1542 -0.6042
19473TIP3   OH279909   1.271   1.402  16.495 -0.6053 -0.1915 -0.4924
19473TIP3    H179910   1.365   1.391  16.485 -0.6195 -1.8233  0.8719
19473TIP3    H279911   1.262   1.468  16.564 -0.5094  1.9719 -2.4651
19474TIP3   OH279912   6.309   6.428  16.967 -0.6146  0.1794  0.2616
19474TIP3    H179913   6.223   6.386  16.959 -1.3987  1.9238 -0.9507
19474TIP3    H279914   6.344   6.426  16.878  0.7293 -0.7561  0.7973
19475TIP3   OH279915   3.113   5.655   3.569  0.3943 -0.4268 -0.3108
19475TIP3    H179916   3.087   5.564   3.583 -0.2611 -0.1738  0.1479
19475TIP3    H279917   3.042   5.693   3.518 -0.2554  0.3173  1.1023
19476TIP3   OH279918   0.787   3.539  14.459 -0.5435  0.0191  0.1674
19476TIP3    H179919   0.692   3.546  14.471 -0.9414 -0.7723 -2.2249
19476TIP3    H279920   0.799   3.539  14.364  1.8686  0.2337  0.4506
19477TIP3   OH279921   3.504   6.260  15.100 -0.5383  0.6150  0.0664
19477TIP3    H179922   3.537   6.220  15.020 -2.5824  2.0178 -1.5472
19477TIP3    H279923   3.576   6.315  15.131 -0.3099  1.3867 -1.7758
19478TIP3   OH279924   5.770   1.233   2.139  0.0267 -0.1476  0.4774
19478TIP3    H179925   5.691   1.281   2.165 -1.2815 -1.8488 -0.2223
19478TIP3    H279926   5.757   1.144   2.174  0.3761 -1.1802 -1.9168
19479TIP3   OH279927   5.506   4.708   4.906  0.1417 -0.1542 -0.0143
19479TIP3    H179928   5.417   4.705   4.870 -0.6426  0.5172  1.7910
19479TIP3    H279929   5.513   4.629   4.959  0.4101  0.0675  0.2861
19480TIP3   OH279930   4.654   3.830  12.692  0.2765 -0.2629 -0.6200
19480TIP3    H179931   4.704   3.897  12.737 -2.6486  2.1221 -0.7904
19480TIP3    H279932   4.669   3.750  12.743  1.2995  1.2024  1.4213
19481TIP3   OH279933   3.776   5.550  11.941 -0.1753  0.2855 -0.2395
19481TIP3    H179934   3.867   5.522  11.954 -0.4264  0.1746  1.4716
19481TIP3    H279935   3.734   5.476  11.898  0.0163 -0.5751  1.0257
19482TIP3   OH279936   5.751   4.913   0.244  0.7504  0.1962  0.0087
19482TIP3    H179937   5.728   4.829   0.284  0.4752 -0.2599 -1.0844
19482TIP3    H279938   5.846   4.910   0.235  0.7117 -0.1622 -0.3483
19483TIP3   OH279939   4.624   4.381   0.225 -0.0026 -0.1572 -0.2175
19483TIP3    H179940   4.573   4.459   0.205 -0.8816 -1.5315 -3.5638
19483TIP3    H279941   4.559   4.315   0.249  0.7398  0.0750  2.6314
19484TIP3   OH279942   1.120   0.561  15.337  0.2879 -0.3609  0.5419
19484TIP3    H179943   1.162   0.558  15.251  0.1541  0.7982  0.4219
19484TIP3    H279944   1.191   0.546  15.399  0.3304 -1.5188  0.2108
19485TIP3   OH279945   1.585   1.569  16.291  0.1741  0.2978  0.2510
19485TIP3    H179946   1.535   1.633  16.341 -0.7116  0.2122 -0.4852
19485TIP3    H279947   1.546   1.572  16.203 -1.3915 -2.7763  0.7501
19486TIP3   OH279948   2.765   0.934  13.489 -0.0822  0.2507 -0.7639
19486TIP3    H179949   2.819   0.918  13.411  1.5688  1.6963  0.0302
19486TIP3    H279950   2.690   0.877  13.478 -0.2156  0.8883 -3.7541
19487TIP3   OH279951   2.852   5.672   0.194  0.1493 -0.2956  0.1313
19487TIP3    H179952   2.886   5.654   0.106  0.1649 -0.2729  0.1325
19487TIP3    H279953   2.758   5.660   0.186  0.2965 -1.7153  0.4720
19488TIP3   OH279954   3.420   0.217   2.601  0.1830  0.2892 -0.0580
19488TIP3    H179955   3.443   0.196   2.510 -0.9881  0.4514 -0.4012
19488TIP3    H279956   3.339   0.267   2.594 -0.5922 -0.7753  1.1735
19489TIP3   OH279957   5.176   4.949  13.041 -0.2620 -0.6161 -0.1149
19489TIP3    H179958   5.081   4.937  13.046 -0.2269 -0.8102  0.1212
19489TIP3    H279959   5.192   4.977  12.951 -0.6218  0.1109  0.0367
19490TIP3   OH279960   3.559   6.553   0.619  0.0945  0.0434  0.2992
19490TIP3    H179961   3.513   6.624   0.575  1.2234  2.0701  2.2907
19490TIP3    H279962   3.501   6.525   0.690 -0.4734 -1.2605 -0.6501
19491TIP3   OH279963   2.272   0.992  15.841  0.3670 -0.6034  0.4458
19491TIP3    H179964   2.333   0.924  15.869  0.2509 -0.9683 -0.1979
19491TIP3    H279965   2.321   1.044  15.777  0.2513 -0.4483  0.4835
19492TIP3   OH279966   5.438   4.213   4.839  0.1839 -0.2692  0.4227
19492TIP3    H179967   5.357   4.176   4.805  1.3331 -1.4963 -1.0338
19492TIP3    H279968   5.462   4.281   4.776  0.4268 -0.0886  0.7066
19493TIP3   OH279969   5.380   1.907  13.788 -0.0437  1.0662 -0.2693
19493TIP3    H179970   5.298   1.910  13.738 -0.2086  1.5479  0.0302
19493TIP3    H279971   5.360   1.954  13.868  0.0812 -0.0854  0.4530
19494TIP3   OH279972   2.608   6.178   1.629 -0.0498 -0.1405 -0.3932
19494TIP3    H179973   2.570   6.135   1.706  0.0484  1.2259  0.4341
19494TIP3    H279974   2.577   6.268   1.634 -1.1831 -0.3624 -2.7317
19495TIP3   OH279975   2.406   3.285   3.718  0.2523 -0.4592 -0.3540
19495TIP3    H179976   2.411   3.243   3.804  0.3809 -1.0613 -0.6554
19495TIP3    H279977   2.489   3.264   3.676  0.0784 -0.3934 -0.7338
19496TIP3   OH279978   4.251   5.226   5.766 -0.3998 -0.8058  0.3843
19496TIP3    H179979   4.260   5.296   5.702  0.2141 -1.0372  0.2185
19496TIP3    H279980   4.230   5.271   5.848  3.2182 -0.1404  1.0347
19497TIP3   OH279981   3.288   4.861   1.348 -0.4372  0.3900 -0.4936
19497TIP3    H179982   3.367   4.914   1.338  0.9531 -1.5054  0.0017
19497TIP3    H279983   3.271   4.825   1.261  0.6812 -1.1061 -0.1236
19498TIP3   OH279984   5.134   0.767  15.657  0.3168  0.4639  0.0784
19498TIP3    H179985   5.130   0.854  15.619  0.2717 -1.1712 -3.8670
19498TIP3    H279986   5.043   0.742  15.669  0.3167  0.5782  0.3212
19499TIP3   OH279987   4.610   0.312   5.295  0.1718  0.0788 -0.7747
19499TIP3    H179988   4.704   0.298   5.304  0.0601 -0.2799 -0.1446
19499TIP3    H279989   4.603   0.386   5.235  0.8541  0.0866 -0.8563
19500TIP3   OH279990   5.972   6.483  12.575 -0.4619  0.3847 -0.1888
19500TIP3    H179991   5.895   6.515  12.529  0.7781  1.2479 -1.7209
19500TIP3    H279992   5.991   6.550  12.640 -0.5001  0.6076 -0.4041
19501TIP3   OH279993   3.531   4.339  15.593 -0.0882 -0.1091 -0.2253
19501TIP3    H179994   3.477   4.395  15.648 -0.5484 -0.8039  0.0311
19501TIP3    H279995   3.525   4.252  15.633 -0.0848 -0.5304 -1.1290
19502TIP3   OH279996   2.800   4.875   3.318  0.4730 -0.0614 -0.2688
19502TIP3    H179997   2.844   4.790   3.307 -0.3639 -0.6113  0.6439
19502TIP3    H279998   2.868   4.939   3.295  1.1609 -0.9633 -0.8163
19503TIP3   OH279999   3.437   6.288  16.228 -0.2876  0.3949 -0.7611
19503TIP3    H180000   3.385   6.313  16.304 -1.3457  0.0822 -1.3615
19503TIP3    H280001   3.374   6.287  16.155  0.1198 -2.0188 -1.1288
19504TIP3   OH280002   0.484   3.194   4.083 -0.2330  0.1376  0.2347
19504TIP3    H180003   0.575   3.178   4.110  0.0207  0.6113 -0.3515
19504TIP3    H280004   0.439   3.113   4.106  0.2954 -0.0324  0.7072
19505TIP3   OH280005   2.218   1.680  14.993 -0.2074  0.3381  0.7012
19505TIP3    H180006   2.284   1.737  15.034 -0.3454  0.6775  0.4550
19505TIP3    H280007   2.230   1.596  15.036  2.4925 -0.4964 -1.4946
19506TIP3   OH280008   3.495   6.717   2.397 -0.0546 -0.0067  0.0487
19506TIP3    H180009   3.567   6.774   2.423 -0.4235  0.6643 -0.4032
19506TIP3    H280010   3.479   6.738   2.305  0.1982 -1.2532 -0.2872
19507TIP3   OH280011   4.821   1.417  15.099  0.5401  0.0091 -0.6291
19507TIP3    H180012   4.795   1.482  15.165 -0.6394 -1.7771  0.7405
19507TIP3    H280013   4.828   1.467  15.018 -1.5208  1.6561  0.1406
19508TIP3   OH280014   2.731   4.375   5.041 -0.2107 -0.4722  0.1580
19508TIP3    H180015   2.820   4.346   5.061  0.8085  1.2055 -1.7517
19508TIP3    H280016   2.692   4.299   4.997  0.3433 -1.1245  0.7627
19509TIP3   OH280017   0.219   5.193  12.686 -0.1847 -0.7750  0.5663
19509TIP3    H180018   0.246   5.164  12.773  1.4099  0.1754  0.4002
19509TIP3    H280019   0.155   5.262  12.703  1.3250  0.5509  1.0378
19510TIP3   OH280020   6.571   3.538  16.290  0.5416 -0.3777  0.0670
19510TIP3    H180021   6.667   3.541  16.290  0.5788 -1.5516  0.2776
19510TIP3    H280022   6.550   3.447  16.271 -0.5503  0.2264 -1.7400
19511TIP3   OH280023   4.135   2.543  13.589 -0.3819 -0.6972  0.4558
19511TIP3    H180024   4.219   2.587  13.602  0.0860 -0.6280 -2.4857
19511TIP3    H280025   4.158   2.453  13.567 -1.0967 -0.7002 -0.2981
19512TIP3   OH280026   2.423   3.776   1.624 -0.4499  0.0487  0.4176
19512TIP3    H180027   2.445   3.698   1.675 -1.6582 -1.2777 -1.0428
19512TIP3    H280028   2.384   3.837   1.688  1.5292 -0.0667  1.7809
19513TIP3   OH280029   1.401   4.533   3.106 -0.1696  0.3026 -0.3631
19513TIP3    H180030   1.330   4.588   3.138  1.5475  1.0928  2.2056
19513TIP3    H280031   1.371   4.443   3.123 -1.8189  0.4635 -2.1404
19514TIP3   OH280032   6.515   6.783  15.100 -0.2100  0.1567 -0.3143
19514TIP3    H180033   6.450   6.763  15.168 -0.0786 -0.3722 -0.3396
19514TIP3    H280034   6.463   6.798  15.021 -0.4170  1.6001  0.0751
19515TIP3   OH280035   6.785   5.795  17.242  0.9983  0.0583 -0.4491
19515TIP3    H180036   6.708   5.797  17.186  2.1194 -0.6269 -2.0798
19515TIP3    H280037   6.803   5.887  17.261 -1.4992  0.1318  1.8253
19516TIP3   OH280038   6.698   1.318  11.756 -0.0173 -0.5641 -0.2190
19516TIP3    H180039   6.668   1.409  11.751 -1.8094 -0.9599  2.4836
19516TIP3    H280040   6.644   1.272  11.691  1.7925  0.4848 -2.5271
19517TIP3   OH280041   1.247   6.321  10.626  0.4631  0.2035 -0.1586
19517TIP3    H180042   1.218   6.408  10.655 -0.0625 -0.8831  2.7639
19517TIP3    H280043   1.342   6.323  10.636  0.4402  0.4256  0.0218
19518TIP3   OH280044   6.347   4.214   5.165  0.3161 -0.3557  0.3067
19518TIP3    H180045   6.362   4.152   5.094 -2.0005 -1.2609  0.5722
19518TIP3    H280046   6.364   4.300   5.126 -1.4377 -0.8100 -1.4882
19519TIP3   OH280047   6.472   3.504  13.333 -0.7256  0.2707  0.1694
19519TIP3    H180048   6.506   3.500  13.244 -0.5845  0.9861  0.1871
19519TIP3    H280049   6.531   3.448  13.384 -0.6682  0.0497 -0.1419
19520TIP3   OH280050   6.499   4.145   1.353  0.3949  0.3826 -0.2460
19520TIP3    H180051   6.530   4.220   1.403  1.2387  0.0091 -0.1978
19520TIP3    H280052   6.577   4.114   1.305  0.3225 -1.1199  0.5864
19521TIP3   OH280053   5.597   5.648   6.359 -0.3592  0.7470  0.4952
19521TIP3    H180054   5.677   5.682   6.399  0.5457  0.1291 -0.7816
19521TIP3    H280055   5.542   5.623   6.434  1.5850 -1.0242  1.3808
19522TIP3   OH280056   3.244   6.798  17.279  0.0491  0.5837 -0.2951
19522TIP3    H180057   3.172   6.740  17.303 -1.2866  2.4350  0.3204
19522TIP3    H280058   3.308   6.741  17.236 -2.7983 -0.7503 -2.9974
19523TIP3   OH280059   0.188   5.929  12.122  0.2762  0.1962  0.3233
19523TIP3    H180060   0.158   6.015  12.092 -0.7807 -0.2326  0.1213
19523TIP3    H280061   0.283   5.935  12.120  0.2386  1.8894  1.7944
19524TIP3   OH280062   3.209   2.297  12.347 -0.3063 -0.3182 -0.5282
19524TIP3    H180063   3.212   2.393  12.345  0.6718 -0.3700 -1.8988
19524TIP3    H280064   3.121   2.277  12.381  0.6707  1.0592  3.1315
19525TIP3   OH280065   5.709   4.356   3.711  0.3976  0.1429 -0.3050
19525TIP3    H180066   5.766   4.303   3.767  0.4906 -0.2354 -0.7531
19525TIP3    H280067   5.624   4.353   3.755  0.5532  0.1270 -0.0046
19526TIP3   OH280068   5.679   2.499  15.470 -0.7249  0.6148 -0.5449
19526TIP3    H180069   5.681   2.522  15.377  0.0739  2.2422 -0.1374
19526TIP3    H280070   5.771   2.504  15.498 -1.2885  3.2134  1.0360
19527TIP3   OH280071   4.544   1.720   0.586  0.4745  0.6676  0.5297
19527TIP3    H180072   4.481   1.741   0.654 -3.0076 -4.3041 -0.8647
19527TIP3    H280073   4.500   1.743   0.504  1.6689 -0.1092 -0.3540
19528TIP3   OH280074   4.963   3.697   3.124  0.3599  0.4021  0.3005
19528TIP3    H180075   4.922   3.731   3.044 -0.2086  1.1249  0.8956
19528TIP3    H280076   5.056   3.717   3.114  0.1605  1.3214  0.2271
19529TIP3   OH280077   0.432   3.850   3.378 -0.1881  0.0721  0.0988
19529TIP3    H180078   0.457   3.758   3.371  2.1221  0.5725  1.1943
19529TIP3    H280079   0.336   3.849   3.378 -0.1900 -2.2909 -0.3026
19530TIP3   OH280080   2.458   1.600   5.171 -0.0859 -0.1549 -0.5215
19530TIP3    H180081   2.401   1.535   5.130 -0.7136  1.7827 -2.8613
19530TIP3    H280082   2.539   1.596   5.120 -0.0682  0.7691 -0.5726
19531TIP3   OH280083   2.028   6.468   2.485  0.0333  0.1640 -0.4982
19531TIP3    H180084   1.945   6.420   2.486 -0.1764  0.5345  1.1233
19531TIP3    H280085   2.092   6.405   2.450 -0.6662 -0.5616 -0.4819
19532TIP3   OH280086   0.734   1.254   4.500  0.3450  0.0849 -0.2136
19532TIP3    H180087   0.760   1.252   4.408  0.8326  3.0066 -0.1796
19532TIP3    H280088   0.638   1.259   4.498  0.2874 -1.0337 -0.5244
19533TIP3   OH280089   1.017   5.609   3.860 -0.3078 -0.3214  0.0990
19533TIP3    H180090   0.964   5.534   3.887  0.2929 -0.0977  1.9242
19533TIP3    H280091   1.058   5.639   3.940  0.5821  1.0893 -0.8808
19534TIP3   OH280092   6.454   6.327  12.855 -0.5105 -0.1517 -0.2127
19534TIP3    H180093   6.484   6.263  12.920 -0.9540 -0.5447 -0.3903
19534TIP3    H280094   6.421   6.273  12.783 -0.1885  0.2829 -0.6848
19535TIP3   OH280095   2.006   2.488  11.482  0.5357 -0.3786 -0.4244
19535TIP3    H180096   2.090   2.443  11.470 -0.5997 -2.3395 -1.2263
19535TIP3    H280097   2.030   2.577  11.507  2.8569 -1.1096  0.0855
19536TIP3   OH280098   0.766   6.791   4.379 -0.8549 -0.7797  0.3566
19536TIP3    H180099   0.830   6.857   4.352 -0.9147 -0.7328  0.3281
19536TIP3    H280100   0.818   6.713   4.399 -0.6398 -0.2957  1.7499
19537TIP3   OH280101   5.603   6.598   5.082 -0.0151  0.1109  0.1468
19537TIP3    H180102   5.591   6.544   5.160  0.3244  0.3514  0.3663
19537TIP3    H280103   5.651   6.542   5.021 -0.0216  0.0248  0.2217
19538TIP3   OH280104   3.850   3.593  12.459 -0.1865  0.7428 -0.1343
19538TIP3    H180105   3.932   3.544  12.452  0.3301  1.4408  0.8551
19538TIP3    H280106   3.784   3.536  12.419  0.6014 -0.2692 -0.0128
19539TIP3   OH280107   0.004   2.838   3.410 -0.6160 -0.0495 -0.0941
19539TIP3    H180108  -0.030   2.760   3.454  0.2627 -0.8012 -0.7078
19539TIP3    H280109   0.048   2.804   3.332  1.2791  0.8955  0.5076
19540TIP3   OH280110   0.870   0.572   2.178 -0.4727 -0.4718  0.3128
19540TIP3    H180111   0.920   0.652   2.189  1.0324 -1.4190  0.5608
19540TIP3    H280112   0.905   0.532   2.098 -2.1682 -0.2124 -0.6005
19541TIP3   OH280113   6.794   5.964   2.797  0.8377  0.3597 -0.1046
19541TIP3    H180114   6.786   5.974   2.702 -0.4163  2.3818  0.1917
19541TIP3    H280115   6.707   5.937   2.826  1.0209  0.5013  0.5809
19542TIP3   OH280116   2.105   0.263   2.599  0.1835 -0.2859 -0.1180
19542TIP3    H180117   2.174   0.256   2.665  2.8035  1.8551 -2.4908
19542TIP3    H280118   2.031   0.302   2.646  0.6391 -2.2938  2.3950
19543TIP3   OH280119   4.155   0.093  12.795  0.1456 -0.4351  0.7935
19543TIP3    H180120   4.168   0.173  12.846 -2.7942 -0.3687  1.5230
19543TIP3    H280121   4.175   0.023  12.856  3.0375 -0.2926  0.0614
19544TIP3   OH280122   2.892   3.356  14.638 -0.0750 -0.3104 -0.4983
19544TIP3    H180123   2.885   3.375  14.544 -1.0858  0.2670 -0.3067
19544TIP3    H280124   2.969   3.406  14.666 -1.6036  2.0648 -0.3946
19545TIP3   OH280125   4.506   1.165  12.114  0.3364  0.2546 -0.0050
19545TIP3    H180126   4.481   1.115  12.192  2.1991  0.7725  0.9456
19545TIP3    H280127   4.600   1.154  12.108  0.1989  0.1979 -2.2371
19546TIP3   OH280128   0.895   5.803  14.483 -0.0776 -0.0039  0.3346
19546TIP3    H180129   0.981   5.829  14.449  0.2225 -0.0178  1.0703
19546TIP3    H280130   0.912   5.777  14.574 -0.6392 -1.2703  0.0912
19547TIP3   OH280131   4.874   2.525  14.439  0.1333 -0.4413  0.2088
19547TIP3    H180132   4.894   2.579  14.515  1.2331 -0.1774 -0.2582
19547TIP3    H280133   4.845   2.588  14.372 -2.1283 -0.7927  0.8024
19548TIP3   OH280134   5.917   3.523   1.715  0.0114  0.7240  0.4916
19548TIP3    H180135   5.929   3.529   1.810  1.9083  0.6436  0.2938
19548TIP3    H280136   5.946   3.434   1.692 -0.8014  0.6082 -0.1099
19549TIP3   OH280137   0.198   3.407   5.583 -0.3074 -0.2639 -0.2583
19549TIP3    H180138   0.168   3.350   5.654 -1.2372 -0.1372 -0.5426
19549TIP3    H280139   0.207   3.493   5.623  0.2443 -0.4226 -0.0372
19550TIP3   OH280140   1.999   3.805   5.524 -0.2653 -0.0271 -0.2639
19550TIP3    H180141   2.041   3.740   5.580 -2.0525 -0.9150  0.0944
19550TIP3    H280142   2.005   3.769   5.435 -0.4806 -0.2568 -0.1837
19551TIP3   OH280143   4.674   5.714  15.281 -0.1927  0.0522  0.0286
19551TIP3    H180144   4.654   5.681  15.193  0.1241 -1.7307  0.5917
19551TIP3    H280145   4.721   5.796  15.266 -1.3837  0.5001 -1.4249
19552TIP3   OH280146   0.010   3.465  17.054  0.3797 -0.1944 -0.1895
19552TIP3    H180147   0.072   3.472  16.982  0.1881  2.0599 -0.1627
19552TIP3    H280148  -0.076   3.474  17.012  0.1759 -0.8372  0.0856
19553TIP3   OH280149   5.998   0.782   3.280  0.9703 -0.4681 -0.4010
19553TIP3    H180150   5.958   0.821   3.358  1.0183  0.3689 -0.7888
19553TIP3    H280151   5.990   0.688   3.293  0.6200 -0.3243  0.4317
19554TIP3   OH280152   4.834   0.254   6.164 -0.2361 -0.0240  0.2121
19554TIP3    H180153   4.831   0.174   6.217  3.0880 -1.1452 -1.1580
19554TIP3    H280154   4.746   0.291   6.172 -1.1626 -2.5632  2.7755
19555TIP3   OH280155   1.836   0.609  14.105 -0.7321  0.3538  0.2888
19555TIP3    H180156   1.918   0.655  14.122  0.3846 -1.0879 -1.1279
19555TIP3    H280157   1.778   0.676  14.069  0.3682  1.0084 -0.2970
19556TIP3   OH280158   5.310   0.738   3.860  0.2054 -0.4164  0.3616
19556TIP3    H180159   5.249   0.665   3.848  0.7995 -0.4130 -3.1641
19556TIP3    H280160   5.397   0.699   3.846  0.7832  0.3757  1.5841
19557TIP3   OH280161   6.026   1.340   0.985  0.1841  0.6565  1.0026
19557TIP3    H180162   6.112   1.352   0.944 -0.3137 -1.1461 -0.6967
19557TIP3    H280163   6.042   1.281   1.058  0.6034  1.4782  1.5843
19558TIP3   OH280164   0.309   2.537   6.424 -0.0017  0.0455  0.2135
19558TIP3    H180165   0.272   2.476   6.488  2.2872 -0.4881  1.0993
19558TIP3    H280166   0.396   2.501   6.405  1.3556  2.9431  0.6610
19559TIP3   OH280167   3.624   4.766   0.928  0.2134  0.3321 -0.2804
19559TIP3    H180168   3.631   4.681   0.973 -2.7041  0.7515  1.0594
19559TIP3    H280169   3.696   4.818   0.964  1.7414 -1.3815 -0.7653
19560TIP3   OH280170   6.416   4.840   4.692 -0.0278  0.8498 -0.3702
19560TIP3    H180171   6.447   4.749   4.690 -0.4230  0.7329 -1.6191
19560TIP3    H280172   6.324   4.834   4.718 -0.4832  0.7563 -1.9525
19561TIP3   OH280173   6.092   3.003  11.169  0.4640  0.0462 -0.3131
19561TIP3    H180174   6.001   2.986  11.194 -0.3037  3.4033 -0.6759
19561TIP3    H280175   6.088   3.024  11.076  1.7175 -0.5289 -0.5013
19562TIP3   OH280176   1.454   1.819  14.737  0.5966  0.3022 -0.4811
19562TIP3    H180177   1.445   1.812  14.832  0.9410 -0.4589 -0.5067
19562TIP3    H280178   1.538   1.778  14.717  1.7997  2.8177 -0.8312
19563TIP3   OH280179   3.910   5.387  15.370 -0.2941  0.3672 -0.0175
19563TIP3    H180180   3.939   5.442  15.443 -1.2638 -1.9070  2.1427
19563TIP3    H280181   3.986   5.332  15.349 -1.1711 -1.6416  1.8786
19564TIP3   OH280182   4.406   0.800   3.577 -0.3031 -0.3692 -0.4390
19564TIP3    H180183   4.317   0.773   3.553 -0.6520  0.2769  0.1075
19564TIP3    H280184   4.443   0.724   3.622 -0.3396 -0.8767 -1.2537
19565TIP3   OH280185   6.702   5.332   4.210  0.0054 -0.3545  0.6573
19565TIP3    H180186   6.655   5.373   4.137 -1.1132 -2.2421  0.2819
19565TIP3    H280187   6.701   5.239   4.189 -0.8098 -0.9951  3.3501
19566TIP3   OH280188   3.153   1.175   4.263 -0.2905  0.3099  0.9156
19566TIP3    H180189   3.091   1.104   4.244  2.6548 -2.3521  0.9937
19566TIP3    H280190   3.144   1.234   4.188 -1.7592 -0.8666  0.1224
19567TIP3   OH280191   6.408   4.874  13.195  0.2614  0.0536 -0.3784
19567TIP3    H180192   6.368   4.959  13.178  2.2503  0.7944 -1.4854
19567TIP3    H280193   6.389   4.822  13.116  2.9505  0.9866 -1.6691
19568TIP3   OH280194   5.537   3.784   1.455 -0.1861 -0.3186 -0.2879
19568TIP3    H180195   5.632   3.795   1.454 -0.2478  0.6710  1.9257
19568TIP3    H280196   5.524   3.690   1.466  0.5514 -0.3388  0.4374
19569TIP3   OH280197   0.411   4.750  12.871  0.3441  0.1854 -0.7940
19569TIP3    H180198   0.480   4.805  12.908  0.1250  0.4411 -0.7691
19569TIP3    H280199   0.373   4.803  12.801 -0.3794  0.3651 -0.2597
19570TIP3   OH280200   6.383   0.048  14.884 -0.1285  0.8983 -0.3695
19570TIP3    H180201   6.344   0.005  14.807 -2.0540 -0.1687  1.1395
19570TIP3    H280202   6.319   0.114  14.909 -0.2987  0.1487  1.2497
19571TIP3   OH280203   1.793   0.763   3.299 -0.0291 -0.2281  0.3049
19571TIP3    H180204   1.753   0.840   3.339 -2.0326 -0.7125 -0.6738
19571TIP3    H280205   1.735   0.741   3.226  1.9840 -1.0605 -1.0968
19572TIP3   OH280206   3.851   2.269  15.402 -0.1745  0.0063  0.4097
19572TIP3    H180207   3.897   2.186  15.389  0.8898  0.8530 -1.5087
19572TIP3    H280208   3.905   2.317  15.465  0.2316  0.0048  0.0632
19573TIP3   OH280209   2.379   3.534   0.802 -0.6265  0.0253  0.3640
19573TIP3    H180210   2.375   3.477   0.726 -1.9814  0.4130  0.1383
19573TIP3    H280211   2.429   3.610   0.773  1.6072 -1.2231  0.8049
19574TIP3   OH280212   5.691   1.124   3.166  0.3035 -0.2976  0.0865
19574TIP3    H180213   5.776   1.080   3.156  0.3591 -0.2480  0.3529
19574TIP3    H280214   5.641   1.067   3.225 -0.1812 -0.8096 -0.7946
19575TIP3   OH280215   5.959   4.442   2.328  0.5548  0.2091 -0.4254
19575TIP3    H180216   5.993   4.479   2.409 -1.0968  0.3665  0.2188
19575TIP3    H280217   6.014   4.478   2.259  1.9629  0.0784  0.6293
19576TIP3   OH280218   2.550   4.020  11.839  0.2070  0.3920 -0.5303
19576TIP3    H180219   2.517   4.037  11.928 -1.6074  1.1346 -1.3275
19576TIP3    H280220   2.570   3.926  11.839  1.8910  0.7120  1.1792
19577TIP3   OH280221   5.271   2.061   5.633  0.2935 -0.5312 -0.3840
19577TIP3    H180222   5.248   1.977   5.674  0.3617 -1.1628 -1.6134
19577TIP3    H280223   5.192   2.113   5.639  0.4446 -0.4444  0.9691
19578TIP3   OH280224   5.254   1.613  10.999  0.1963 -0.5300  0.1234
19578TIP3    H180225   5.280   1.533  11.045 -0.2732 -0.3359  0.7348
19578TIP3    H280226   5.266   1.683  11.064 -0.0198 -0.1884 -0.2002
19579TIP3   OH280227   3.481   1.292   5.153 -0.1197  0.3697  0.1627
19579TIP3    H180228   3.439   1.210   5.126 -0.1721  0.0572  1.1792
19579TIP3    H280229   3.575   1.276   5.142 -0.0304 -0.3878  1.8510
19580TIP3   OH280230   2.510   6.745  12.048  0.2017 -0.2006 -1.0223
19580TIP3    H180231   2.556   6.788  11.976 -1.1158  0.3944 -1.5173
19580TIP3    H280232   2.455   6.814  12.086  0.4357 -0.6584  0.1748
19581TIP3   OH280233   0.853   0.906   1.018 -0.0827 -0.2576  0.5027
19581TIP3    H180234   0.870   0.813   1.033  0.2038 -0.2088  0.4720
19581TIP3    H280235   0.899   0.926   0.936 -2.0741 -0.6632 -0.7555
19582TIP3   OH280236   4.891   5.991  14.510 -0.0485 -0.2523 -0.5300
19582TIP3    H180237   4.928   6.007  14.423 -1.9075 -1.1361 -1.5006
19582TIP3    H280238   4.888   5.896  14.518 -0.1760 -0.1758  0.3942
19583TIP3   OH280239   3.796   4.539   3.216  0.0025 -0.3953  0.3198
19583TIP3    H180240   3.760   4.450   3.208  0.6468 -0.7158  0.9157
19583TIP3    H280241   3.827   4.544   3.306 -0.7085  0.6993  0.5106
19584TIP3   OH280242   1.489   6.656   5.161 -0.3778 -0.0255 -0.1750
19584TIP3    H180243   1.504   6.593   5.090 -0.8483 -0.8848  0.4763
19584TIP3    H280244   1.397   6.644   5.185 -0.3712  0.6466  0.2077
19585TIP3   OH280245   2.756   5.416   4.952  0.0535 -0.0159  0.1800
19585TIP3    H180246   2.848   5.415   4.927  0.4664 -0.4882  1.6642
19585TIP3    H280247   2.742   5.333   4.996 -0.6961  0.6995  1.3266
19586TIP3   OH280248   6.316   0.867   1.211 -0.0813 -0.2166  0.6588
19586TIP3    H180249   6.263   0.924   1.155  1.8061 -0.5201 -1.5132
19586TIP3    H280250   6.390   0.841   1.156  0.3978 -2.7773  2.4006
19587TIP3   OH280251   1.812   6.345  16.559  0.9862  0.2711 -0.1313
19587TIP3    H180252   1.823   6.250  16.562  1.1525  0.2343 -1.6361
19587TIP3    H280253   1.730   6.357  16.510  1.3163  0.9196 -0.5209
19588TIP3   OH280254   5.136   2.048   3.467 -0.0966 -0.2357  0.3636
19588TIP3    H180255   5.204   2.115   3.460 -2.3862  2.2433  1.0770
19588TIP3    H280256   5.126   2.013   3.379  0.5007  1.0046 -0.1975
19589TIP3   OH280257   4.029   2.569  15.791 -0.4798  0.2099  0.3235
19589TIP3    H180258   4.031   2.534  15.879  1.0902 -0.8177 -0.0990
19589TIP3    H280259   4.027   2.664  15.803 -0.1619  0.0805  1.4468
19590TIP3   OH280260   3.641   3.467   0.112  0.3276 -0.4520 -0.3332
19590TIP3    H180261   3.693   3.543   0.084  1.6262 -0.9188  0.7909
19590TIP3    H280262   3.681   3.439   0.194 -2.2229 -0.3286  0.9875
19591TIP3   OH280263   0.480   3.641  13.320 -0.1189  0.1804  0.4191
19591TIP3    H180264   0.516   3.648  13.409  0.8290 -0.1485  0.0702
19591TIP3    H280265   0.389   3.669  13.329  0.0207  0.3391  1.4595
19592TIP3   OH280266   5.591   0.037   5.208  0.0782  0.3549  0.0954
19592TIP3    H180267   5.561   0.098   5.141 -0.7842  1.0463  1.1055
19592TIP3    H280268   5.615  -0.042   5.159 -0.7132  0.7901 -1.0073
19593TIP3   OH280269   4.098   3.980  12.364  0.0441  0.7884 -0.4359
19593TIP3    H180270   4.056   3.907  12.319  2.0039 -1.0972  0.6948
19593TIP3    H280271   4.182   3.990  12.320  0.3386  1.4637  0.2736
19594TIP3   OH280272   3.883   0.279  14.857 -0.2936  0.2537  0.2704
19594TIP3    H180273   3.960   0.259  14.910 -1.0751  1.1748  1.7748
19594TIP3    H280274   3.907   0.357  14.808 -0.6702  1.1922  1.5821
19595TIP3   OH280275   1.975   0.596  15.954 -0.0809  0.2885 -0.3555
19595TIP3    H180276   1.911   0.632  15.893 -0.0738  0.7639 -0.0829
19595TIP3    H280277   2.042   0.556  15.899 -0.4731  0.0336 -0.6447
19596TIP3   OH280278   6.655   5.607  16.297  0.3607 -0.7803  0.0486
19596TIP3    H180279   6.689   5.684  16.343  1.9437 -2.3846  1.6408
19596TIP3    H280280   6.602   5.561  16.362 -0.2010 -1.2848 -0.7564
19597TIP3   OH280281   2.791   3.300  15.210  0.1146  0.6804 -0.4366
19597TIP3    H180282   2.870   3.348  15.186  1.0922 -0.9643 -0.5984
19597TIP3    H280283   2.803   3.280  15.303  0.5878 -0.8296 -0.8077
19598TIP3   OH280284   6.486   0.988  13.119 -0.4958  0.1348 -0.2126
19598TIP3    H180285   6.463   0.960  13.030  0.6795 -1.7745  0.0484
19598TIP3    H280286   6.401   1.000  13.163 -1.0685  0.5723 -1.4403
19599TIP3   OH280287   0.574   6.067  14.877  0.2360  0.3793  0.3306
19599TIP3    H180288   0.564   6.032  14.789  1.1820  0.8010  0.0474
19599TIP3    H280289   0.667   6.057  14.897  0.3316  1.7335  0.6495
19600TIP3   OH280290   2.876   3.724  12.522  0.2770  0.2078  0.4027
19600TIP3    H180291   2.922   3.729  12.606  2.5754 -0.4242 -0.7668
19600TIP3    H280292   2.946   3.719  12.457 -1.4426 -1.6725 -1.3927
19601TIP3   OH280293   1.829   4.506  11.120  0.1414 -0.1698  0.5760
19601TIP3    H180294   1.800   4.499  11.029 -0.8022  0.7576  0.7928
19601TIP3    H280295   1.909   4.557  11.116 -0.5193  0.8740  0.3598
19602TIP3   OH280296   0.603   2.351  14.096 -0.0941  0.2604 -0.1814
19602TIP3    H180297   0.518   2.307  14.091  0.1824 -0.4657  1.1630
19602TIP3    H280298   0.608   2.383  14.186  1.8623 -1.3962  0.3200
19603TIP3   OH280299   1.279   5.054  15.155 -0.3621  0.0223 -0.3689
19603TIP3    H180300   1.316   5.015  15.075  0.0254 -0.8955  0.2450
19603TIP3    H280301   1.223   5.125  15.124 -0.0135 -0.1694 -1.4451
19604TIP3   OH280302   4.839   4.863  16.684  0.0933 -0.3278  0.3503
19604TIP3    H180303   4.751   4.870  16.721 -0.4073 -0.9256 -0.7244
19604TIP3    H280304   4.873   4.781  16.720  0.7043  0.5339  1.7805
19605TIP3   OH280305   3.821   0.599  15.168 -0.2608  0.1117 -0.2823
19605TIP3    H180306   3.810   0.664  15.238 -0.4963  1.7791 -1.8130
19605TIP3    H280307   3.870   0.645  15.100  0.7009 -1.7509 -0.8797
19606TIP3   OH280308   4.012   4.898  16.442  0.1656 -0.0064  0.0416
19606TIP3    H180309   3.935   4.846  16.418 -0.1346  1.3128 -1.9745
19606TIP3    H280310   4.086   4.848  16.410 -0.0661  0.3654 -1.0764
19607TIP3   OH280311   3.609   4.587   5.221  0.3352  0.8037 -0.1117
19607TIP3    H180312   3.563   4.669   5.205  0.3692  0.6971 -0.7475
19607TIP3    H280313   3.601   4.573   5.316  0.0707  1.3821 -0.0506
19608TIP3   OH280314   2.890   6.498  13.913 -0.8059  0.1157  0.0985
19608TIP3    H180315   2.920   6.588  13.925  0.2117 -0.1237 -0.6112
19608TIP3    H280316   2.845   6.476  13.995 -2.5558  1.8409 -0.3626
19609TIP3   OH280317   4.281   2.403   3.580  0.4098 -0.0939 -0.1046
19609TIP3    H180318   4.244   2.466   3.641  2.0518  0.1535  0.6749
19609TIP3    H280319   4.347   2.454   3.531 -0.2319 -0.5184 -1.4259
19610TIP3   OH280320   6.360   1.719   1.659  0.3202 -1.0542 -0.4220
19610TIP3    H180321   6.271   1.716   1.624  0.1713 -0.6999 -0.0819
19610TIP3    H280322   6.363   1.649   1.725 -0.5788  0.7000  1.5576
19611TIP3   OH280323   1.984   6.612   0.704 -0.0522 -0.4230  0.3507
19611TIP3    H180324   1.903   6.658   0.682  0.2529 -0.3285 -0.5926
19611TIP3    H280325   1.957   6.524   0.729 -0.6255  0.2027  1.9859
19612TIP3   OH280326   0.405   0.940  10.443  0.5425  0.0205  0.2051
19612TIP3    H180327   0.472   0.886  10.400  2.5349  0.9732  2.0095
19612TIP3    H280328   0.415   1.026  10.402 -0.4193 -0.1319 -0.3633
19613TIP3   OH280329   5.990   6.011  12.206 -0.2452  0.8765 -0.3102
19613TIP3    H180330   5.964   5.942  12.145  0.7833 -0.3107  0.5952
19613TIP3    H280331   5.997   5.968  12.291  0.8354  1.9954  0.1815
19614TIP3   OH280332   6.274   3.343  13.138 -0.0991  0.6270 -0.1348
19614TIP3    H180333   6.283   3.324  13.231  1.1184 -0.3428 -0.4406
19614TIP3    H280334   6.273   3.439  13.133 -2.7311  0.6810  1.0931
19615TIP3   OH280335   2.213   3.956   1.663 -0.2590 -0.4150 -0.1582
19615TIP3    H180336   2.164   3.987   1.740 -0.2074 -2.2288  0.6326
19615TIP3    H280337   2.166   3.878   1.635  0.2003 -0.2176 -1.4946
19616TIP3   OH280338   1.396   5.922   6.031 -0.2145  0.3642 -0.0256
19616TIP3    H180339   1.488   5.911   6.056 -0.5587  0.2239  1.2332
19616TIP3    H280340   1.380   5.852   5.968  0.4602  0.2087 -0.0344
19617TIP3   OH280341   3.047   3.861   6.234 -0.1068 -0.6158 -0.3471
19617TIP3    H180342   3.055   3.834   6.142 -1.8938 -0.3118 -0.6076
19617TIP3    H280343   2.955   3.847   6.255 -0.1587  1.2218  0.7905
19618TIP3   OH280344   1.123   0.840   1.176  0.6402  0.3209  1.0952
19618TIP3    H180345   1.083   0.820   1.261 -0.8040  0.6149  0.4956
19618TIP3    H280346   1.072   0.791   1.113 -0.0058  2.2138  0.1131
19619TIP3   OH280347   2.536   2.378   3.695  0.4843  0.3911  0.2929
19619TIP3    H180348   2.577   2.292   3.705 -0.1103  0.0740  0.0108
19619TIP3    H280349   2.524   2.409   3.785  1.5705  0.5975  0.3680
19620TIP3   OH280350   5.161   2.345  15.635  0.5334 -0.1833 -0.2636
19620TIP3    H180351   5.147   2.387  15.551  0.6875  0.3713 -0.0096
19620TIP3    H280352   5.073   2.320  15.664  0.3955  0.4053 -0.1797
19621TIP3   OH280353   0.790   4.591   1.046 -0.0448 -0.5848  0.2152
19621TIP3    H180354   0.770   4.620   1.135 -0.3347 -0.5954  0.1531
19621TIP3    H280355   0.714   4.540   1.020 -0.3205  0.0961 -0.3374
19622TIP3   OH280356   5.869   6.657  17.188  0.1979  0.7879 -0.1724
19622TIP3    H180357   5.832   6.704  17.263 -1.0287  0.8811 -0.8295
19622TIP3    H280358   5.846   6.710  17.112 -2.3293 -1.4847 -1.0698
19623TIP3   OH280359   4.106   3.498  12.785  0.1697  0.2690 -0.2957
19623TIP3    H180360   4.091   3.430  12.719  1.5214 -0.0990 -0.2320
19623TIP3    H280361   4.195   3.483  12.816 -0.7428 -0.1317  2.2930
19624TIP3   OH280362   4.647   2.225  15.417  0.5271  0.0027  0.2233
19624TIP3    H180363   4.661   2.237  15.323  1.7758  0.4910  0.4552
19624TIP3    H280364   4.567   2.173  15.424 -0.3367  1.1432 -1.0601
19625TIP3   OH280365   5.636   5.973  12.718 -0.7964  0.8931 -0.0936
19625TIP3    H180366   5.643   5.956  12.624 -0.1854 -0.8278  0.2511
19625TIP3    H280367   5.688   6.052  12.732 -0.9155  1.1795 -1.2012
19626TIP3   OH280368   1.403   5.735  10.911 -0.0071 -0.2848  0.4573
19626TIP3    H180369   1.420   5.829  10.906 -0.3658 -0.2953 -1.2682
19626TIP3    H280370   1.476   5.694  10.864 -0.1781 -0.8310  0.6626
19627TIP3   OH280371   5.311   5.289   3.603  0.1530 -0.1880  0.7003
19627TIP3    H180372   5.274   5.314   3.519 -1.3705 -0.2721  1.3179
19627TIP3    H280373   5.405   5.302   3.594  0.1324 -1.3476 -1.3933
19628TIP3   OH280374   5.525   1.875   3.046  0.2301  0.0431 -0.0382
19628TIP3    H180375   5.514   1.793   2.998 -0.3272  0.0518  0.0756
19628TIP3    H280376   5.480   1.941   2.992  0.1108  0.1584  0.2011
19629TIP3   OH280377   4.567   4.157   4.974 -0.3815 -0.1012  0.3116
19629TIP3    H180378   4.586   4.148   4.881 -1.7687  1.5615 -0.1537
19629TIP3    H280379   4.484   4.109   4.986  0.0649 -0.7670  0.8111
19630TIP3   OH280380   0.693   1.981  15.365  0.2177  0.0636  0.2666
19630TIP3    H180381   0.717   1.989  15.457 -0.0369 -2.9020  0.6177
19630TIP3    H280382   0.602   2.009  15.361  0.7887  2.0702  0.5435
19631TIP3   OH280383   4.750   0.072  11.379  0.5323  0.4880  0.6716
19631TIP3    H180384   4.667   0.029  11.401  0.7381 -0.2523  0.0388
19631TIP3    H280385   4.753   0.149  11.435  0.5093 -0.7311  2.3901
19632TIP3   OH280386   2.005   6.224  14.450  0.3558  0.1366  0.2951
19632TIP3    H180387   1.961   6.216  14.534  1.1647 -0.6771  0.6489
19632TIP3    H280388   2.053   6.142  14.439  0.3226  0.2621 -0.9250
19633TIP3   OH280389   3.060   4.471  11.592 -0.6224 -0.1332 -0.6213
19633TIP3    H180390   2.984   4.454  11.536 -1.0588 -0.1786 -0.0202
19633TIP3    H280391   3.095   4.384  11.611  0.9010 -0.0330 -2.6707
19634TIP3   OH280392   3.248   5.616   1.030 -0.6652  0.3114 -0.3261
19634TIP3    H180393   3.288   5.618   1.117 -1.3205  0.2972 -0.0142
19634TIP3    H280394   3.268   5.701   0.991 -0.4846  0.3689 -0.1070
19635TIP3   OH280395   0.835   2.930   3.324 -0.5135 -0.0549 -0.2155
19635TIP3    H180396   0.793   2.951   3.407  1.3226  2.7745  0.0952
19635TIP3    H280397   0.789   2.985   3.260 -1.1650 -1.3700 -0.8890
19636TIP3   OH280398   5.608   0.577  12.641  0.6977  0.2152 -0.5272
19636TIP3    H180399   5.514   0.558  12.644  0.5581  1.0933  1.1999
19636TIP3    H280400   5.644   0.509  12.586 -0.8836 -0.4832 -0.7284
19637TIP3   OH280401   6.365   1.238   4.161 -0.1566 -0.8582  0.1248
19637TIP3    H180402   6.364   1.280   4.075 -0.0328 -1.2258 -0.0572
19637TIP3    H280403   6.454   1.204   4.170  0.3679  0.7128  1.1472
19638TIP3   OH280404   4.542   3.139   2.504 -0.0498 -0.6913 -0.0612
19638TIP3    H180405   4.451   3.156   2.528 -0.2020 -1.9472  0.3008
19638TIP3    H280406   4.593   3.201   2.556 -0.5618 -1.5240  1.4710
19639TIP3   OH280407   4.035   3.573  15.708 -0.6777  0.3826 -0.1801
19639TIP3    H180408   4.128   3.553  15.722 -0.7877  0.3495  0.5210
19639TIP3    H280409   4.002   3.596  15.795 -0.8472  2.4095 -0.7416
19640TIP3   OH280410   4.797   1.975  11.645  0.0904  0.2383  0.1483
19640TIP3    H180411   4.891   1.962  11.640  0.3416  1.3403  1.5541
19640TIP3    H280412   4.780   2.053  11.592 -0.2688 -0.9109 -1.4537
19641TIP3   OH280413   1.781   4.381  15.545  0.1776  0.1483  0.0124
19641TIP3    H180414   1.727   4.302  15.548 -1.2002  1.1335  2.3864
19641TIP3    H280415   1.770   4.414  15.455 -0.4567 -1.5093 -0.5315
19642TIP3   OH280416   1.776   5.162  10.855  0.1801  0.4576 -0.5409
19642TIP3    H180417   1.865   5.163  10.888  0.4437 -0.9881 -1.1885
19642TIP3    H280418   1.769   5.081  10.805 -0.8623  1.5332 -2.2108
19643TIP3   OH280419   5.863   4.667  13.985  0.4397 -0.2748  0.4975
19643TIP3    H180420   5.904   4.702  14.063 -0.8185  0.1484  0.9830
19643TIP3    H280421   5.846   4.744  13.930 -1.2394 -0.2109  1.0505
19644TIP3   OH280422   0.650   4.556  16.788  0.5377 -0.1100  0.5503
19644TIP3    H180423   0.624   4.622  16.724 -0.4801 -1.3568 -0.3297
19644TIP3    H280424   0.618   4.591  16.872 -1.0005 -0.0018 -0.0607
19645TIP3   OH280425   2.637   2.964   3.899 -0.0801 -0.1240 -0.4065
19645TIP3    H180426   2.716   3.017   3.883 -0.1453  0.1172  0.0824
19645TIP3    H280427   2.592   2.964   3.814  0.8927 -1.0136 -0.9398
19646TIP3   OH280428   2.049   6.124   3.764  0.2915  0.8153 -0.2854
19646TIP3    H180429   2.075   6.058   3.700 -0.2978  1.2488 -0.9766
19646TIP3    H280430   2.117   6.191   3.759  0.3935  0.7125 -0.2642
19647TIP3   OH280431   4.665   0.934   5.167 -0.5263 -0.5770 -0.0519
19647TIP3    H180432   4.632   0.973   5.086  0.4943  0.9069  0.2227
19647TIP3    H280433   4.758   0.959   5.169 -0.3898 -1.1560  1.2448
19648TIP3   OH280434   3.789   1.743  15.578 -0.1598  0.1951 -0.1359
19648TIP3    H180435   3.714   1.685  15.591 -0.9217  1.2122  0.1304
19648TIP3    H280436   3.864   1.694  15.613 -0.9878 -0.1255  1.2334
19649TIP3   OH280437   1.704   2.644   0.334  0.1796 -0.4491  0.2901
19649TIP3    H180438   1.759   2.678   0.404 -0.2676  0.3727  0.2467
19649TIP3    H280439   1.643   2.585   0.378  1.9584 -2.4633  0.1682
19650TIP3   OH280440   5.836   4.357   4.494  0.6116 -0.5728 -0.4681
19650TIP3    H180441   5.812   4.365   4.587 -0.3584 -0.7679 -0.6964
19650TIP3    H280442   5.864   4.445   4.469  4.1686 -1.2710  0.8968
19651TIP3   OH280443   3.105   0.412  16.467  0.0441  0.5221  0.2403
19651TIP3    H180444   3.191   0.423  16.426 -0.7583 -0.0948 -1.6656
19651TIP3    H280445   3.057   0.355  16.407 -1.0303 -0.7831  2.3102
19652TIP3   OH280446   1.138   4.439   0.400  0.5482  0.0837  0.0127
19652TIP3    H180447   1.228   4.412   0.419  1.1943  2.0668 -0.1533
19652TIP3    H280448   1.131   4.434   0.304 -0.2557 -2.2419  0.1448
19653TIP3   OH280449   6.450   3.522  15.874 -0.3736  0.0781 -0.3203
19653TIP3    H180450   6.401   3.541  15.954 -1.6093 -0.7396 -0.8766
19653TIP3    H280451   6.391   3.547  15.804 -0.1193 -1.2601 -1.0072
19654TIP3   OH280452   4.178   4.049  16.177  0.1433  0.3286  0.2497
19654TIP3    H180453   4.151   4.128  16.225 -2.2205  0.1883 -0.7601
19654TIP3    H280454   4.099   4.022  16.129  1.5497 -1.3741 -1.1843
19655TIP3   OH280455   5.321   0.569   3.606 -0.5687  0.0681 -0.5557
19655TIP3    H180456   5.395   0.509   3.591 -0.6784  0.3558 -2.3967
19655TIP3    H280457   5.243   0.516   3.589 -0.8480 -0.3575  1.8205
19656TIP3   OH280458   1.445   0.808   3.456  0.0317  0.1949 -0.6912
19656TIP3    H180459   1.498   0.868   3.403 -0.1975 -0.1636 -1.3374
19656TIP3    H280460   1.360   0.806   3.412 -0.3958  0.4572  0.1156
19657TIP3   OH280461   4.493   2.057  16.353 -0.0305  0.3691  0.2454
19657TIP3    H180462   4.583   2.065  16.322 -0.3862  2.3123 -0.3189
19657TIP3    H280463   4.500   2.018  16.440  1.2491 -0.8338 -0.3740
19658TIP3   OH280464   0.217   2.205   2.528  0.0377  0.4271 -0.4400
19658TIP3    H180465   0.164   2.265   2.580 -0.7847 -0.0541 -0.7190
19658TIP3    H280466   0.261   2.150   2.593  0.1736  0.7984 -0.2115
19659TIP3   OH280467   4.399   0.240   1.813  0.2159 -0.0726  0.4966
19659TIP3    H180468   4.460   0.300   1.769  1.9266 -1.5093  0.8436
19659TIP3    H280469   4.383   0.280   1.898  1.4419 -0.1513  0.7727
19660TIP3   OH280470   5.482   2.219   5.660  0.0586 -0.9248  0.0214
19660TIP3    H180471   5.463   2.271   5.738 -1.4338 -2.0163  0.4060
19660TIP3    H280472   5.405   2.163   5.649 -0.0997 -0.2347 -2.6813
19661TIP3   OH280473   5.517   2.694   4.691 -0.3056 -0.3127 -0.0456
19661TIP3    H180474   5.442   2.751   4.709 -1.4814 -1.9338  0.3095
19661TIP3    H280475   5.489   2.608   4.719  0.7685 -1.4399 -2.2599
19662TIP3   OH280476   4.185   2.173  16.315 -0.2731 -0.5739  0.6096
19662TIP3    H180477   4.121   2.107  16.341  0.0336 -1.4876 -0.8686
19662TIP3    H280478   4.270   2.132  16.332 -0.0686 -1.0398 -1.3570
19663TIP3   OH280479   0.885   4.260  15.585  0.2099 -0.2522  0.4897
19663TIP3    H180480   0.968   4.292  15.552  0.0030 -0.4153 -0.1999
19663TIP3    H280481   0.835   4.339  15.606 -0.4398 -0.1055 -1.5547
19664TIP3   OH280482   5.029   4.573   3.433  0.3986  0.1779 -0.3870
19664TIP3    H180483   4.945   4.618   3.431 -1.0123 -2.3758 -0.8316
19664TIP3    H280484   5.053   4.571   3.526 -0.1088  0.8029 -0.2401
19665TIP3   OH280485   2.101   6.790   5.557  0.7102 -0.2201 -0.8215
19665TIP3    H180486   2.073   6.801   5.466  1.0520 -1.0505 -1.0302
19665TIP3    H280487   2.196   6.793   5.554  0.6973  1.3205 -0.2738
19666TIP3   OH280488   1.907   1.197   3.182 -0.3043 -0.1266  0.0554
19666TIP3    H180489   1.858   1.132   3.130 -1.3505  1.3232 -0.8335
19666TIP3    H280490   1.926   1.267   3.119  1.6238  0.0020  0.7771
19667TIP3   OH280491   4.543   0.293   6.143  0.4960  0.4420 -0.5892
19667TIP3    H180492   4.533   0.366   6.083  1.8168  1.5069  0.4416
19667TIP3    H280493   4.465   0.296   6.198  0.3078  0.7708 -0.8732
19668TIP3   OH280494   0.969   6.645  11.468 -0.3898 -0.1823 -0.7796
19668TIP3    H180495   1.039   6.614  11.409  1.5784  1.4728  0.6133
19668TIP3    H280496   0.958   6.737  11.446 -0.6786  0.0748  0.4190
19669TIP3   OH280497   1.651   3.589   3.389  0.0148  0.2167  0.2093
19669TIP3    H180498   1.621   3.659   3.332 -0.6098  0.4171  0.7866
19669TIP3    H280499   1.741   3.613   3.411 -0.0101  0.5454 -0.0474
19670TIP3   OH280500   3.034   5.711  16.975 -0.2357  0.7410  0.2812
19670TIP3    H180501   2.986   5.747  17.050  0.1480 -0.5363  1.1490
19670TIP3    H280502   3.014   5.771  16.903 -0.6425  1.9582  1.3894
19671TIP3   OH280503   6.127   2.411  13.676  0.2202  0.5460 -0.2723
19671TIP3    H180504   6.111   2.371  13.590 -0.7053  1.5766 -0.5884
19671TIP3    H280505   6.216   2.446  13.669  0.9704 -1.2504 -0.0564
19672TIP3   OH280506   2.731   6.533   5.083  0.3690 -0.4464 -0.0296
19672TIP3    H180507   2.791   6.496   5.019 -0.1685 -1.7083  0.1679
19672TIP3    H280508   2.719   6.463   5.148 -1.1167 -0.1426  0.0487
19673TIP3   OH280509   5.690   0.528   6.043  0.0499  0.4657  0.5023
19673TIP3    H180510   5.633   0.604   6.035 -1.3601 -0.7703 -1.7176
19673TIP3    H280511   5.663   0.486   6.125 -1.0889  0.8058  0.3089
19674TIP3   OH280512   4.876   4.819  16.104 -0.1153 -0.0491 -0.0935
19674TIP3    H180513   4.890   4.779  16.018 -3.5944 -0.4284 -0.5653
19674TIP3    H280514   4.897   4.912  16.091  2.3043 -0.6305 -0.5269
19675TIP3   OH280515   3.259   3.330   4.447  0.0522  0.2117  0.1937
19675TIP3    H180516   3.282   3.242   4.475  0.0060  0.2410  0.3236
19675TIP3    H280517   3.342   3.378   4.450 -0.1994  0.5929  1.6868
19676TIP3   OH280518   6.405   2.797  15.076 -0.2101 -0.1304 -0.3085
19676TIP3    H180519   6.490   2.771  15.111  0.4579 -0.0253 -1.8061
19676TIP3    H280520   6.401   2.892  15.092  0.4937  0.0767 -1.3448
19677TIP3   OH280521   0.236   1.323   5.432 -0.1974  0.8470 -0.1206
19677TIP3    H180522   0.294   1.250   5.411  0.9903  1.9994 -0.8792
19677TIP3    H280523   0.236   1.326   5.528 -0.6524 -0.4525 -0.0649
19678TIP3   OH280524   4.036   5.380  14.243  0.0839 -0.1544 -0.2376
19678TIP3    H180525   3.943   5.358  14.239  0.1816 -0.6163  0.0113
19678TIP3    H280526   4.081   5.297  14.228  0.4545 -0.4458  2.3441
19679TIP3   OH280527   4.689   0.587   2.648 -0.2145 -0.3643 -0.2199
19679TIP3    H180528   4.673   0.523   2.718 -0.2070  0.1709  0.2741
19679TIP3    H280529   4.602   0.624   2.629  0.0017  0.5551  0.5407
19680TIP3   OH280530   3.045   1.393   1.875  0.6815 -0.4506 -0.4377
19680TIP3    H180531   3.095   1.348   1.807  1.2062 -1.3229  0.5003
19680TIP3    H280532   3.030   1.325   1.942  0.6905  0.5389  0.5769
19681TIP3   OH280533   0.457   2.205   3.787  0.6220 -0.3827  0.3825
19681TIP3    H180534   0.454   2.167   3.699  0.1580  0.8707 -0.1460
19681TIP3    H280535   0.408   2.143   3.842  0.0592 -0.6516 -0.4262
19682TIP3   OH280536   2.025   1.418  13.566  0.1549  0.1110 -0.4945
19682TIP3    H180537   2.060   1.337  13.600 -1.1800 -1.0179 -1.7103
19682TIP3    H280538   1.990   1.464  13.642  0.7026 -0.5675  0.1652
19683TIP3   OH280539   1.109   2.934   3.407  0.0379  0.3715  0.1048
19683TIP3    H180540   1.020   2.926   3.371  0.2145  2.5565 -0.9215
19683TIP3    H280541   1.096   2.979   3.491  0.1477  0.4215  0.0942
19684TIP3   OH280542   0.634   0.688   1.689  0.5492 -0.6387 -0.5339
19684TIP3    H180543   0.716   0.736   1.692  0.2869 -0.1051 -1.6128
19684TIP3    H280544   0.587   0.725   1.614 -0.7987 -0.7380  0.2484
19685TIP3   OH280545   6.539   1.072  14.659  0.8806 -0.8522 -0.8524
19685TIP3    H180546   6.481   1.140  14.692  2.2508  0.9333 -2.0799
19685TIP3    H280547   6.504   1.049  14.573  1.2760 -0.6604 -1.0648
19686TIP3   OH280548   1.355   1.411  13.436  0.4127  0.4702  0.0471
19686TIP3    H180549   1.312   1.366  13.509 -0.8119  0.1080 -0.9035
19686TIP3    H280550   1.330   1.362  13.358  2.4447  0.3274 -0.5435
19687TIP3   OH280551   6.182   6.439  11.478  0.2079  0.2706  0.1351
19687TIP3    H180552   6.248   6.436  11.547  1.0862 -1.0351 -0.7304
19687TIP3    H280553   6.230   6.471  11.401 -0.0484 -1.0883 -0.6071
19688TIP3   OH280554   6.469   3.385   3.345 -0.1884 -0.0827  0.2169
19688TIP3    H180555   6.429   3.464   3.381 -2.9811 -1.2655 -0.2273
19688TIP3    H280556   6.535   3.360   3.410  0.4459  2.3384  0.5604
19689TIP3   OH280557   0.211   2.475  16.622 -0.3423  0.0130  0.2484
19689TIP3    H180558   0.128   2.427  16.623 -0.2257 -0.1784  0.8551
19689TIP3    H280559   0.260   2.438  16.695  0.7896 -0.7796 -0.9055
19690TIP3   OH280560   5.716   5.318  14.912 -0.2453 -0.4551 -0.2820
19690TIP3    H180561   5.635   5.297  14.867 -0.2782 -0.4258 -0.2364
19690TIP3    H280562   5.689   5.339  15.002 -0.2310 -0.0380 -0.3777
19691TIP3   OH280563   1.466   6.219  13.434  0.0390 -0.2612  0.0527
19691TIP3    H180564   1.483   6.240  13.526 -4.8480 -0.9106  1.2399
19691TIP3    H280565   1.454   6.304  13.392  3.6501  0.0979 -0.3417
19692TIP3   OH280566   1.537   4.409  14.466  0.3147  0.2092 -0.5662
19692TIP3    H180567   1.574   4.462  14.396  1.2098 -0.4268 -0.5782
19692TIP3    H280568   1.451   4.448  14.482  0.7288  1.3048 -0.9601
19693TIP3   OH280569   5.356   6.637   2.522 -0.0484  0.0198  0.6714
19693TIP3    H180570   5.335   6.553   2.561  0.1357 -0.3291  0.0292
19693TIP3    H280571   5.349   6.623   2.428 -1.8769  1.2187  0.5954
19694TIP3   OH280572   5.964   1.193  13.279  0.6399  0.6062  0.5382
19694TIP3    H180573   5.885   1.184  13.226 -1.0266  2.0558  2.6949
19694TIP3    H280574   6.030   1.141  13.233 -2.1725 -2.5948 -0.0621
19695TIP3   OH280575   4.179   6.081   0.299  0.5955  0.0197 -0.2466
19695TIP3    H180576   4.144   5.993   0.314  0.4754 -0.3084 -2.2385
19695TIP3    H280577   4.273   6.067   0.286  0.5625  0.1736 -0.6422
19696TIP3   OH280578   2.283   2.241   0.908  0.8024 -0.2463  0.7202
19696TIP3    H180579   2.242   2.218   0.992 -0.2029 -1.0038  0.0409
19696TIP3    H280580   2.257   2.332   0.894 -1.8294 -1.0933 -0.3258
19697TIP3   OH280581   5.327   4.952  17.221  0.4663  0.3787  0.5363
19697TIP3    H180582   5.374   4.982  17.143  0.5223 -1.7837 -0.3039
19697TIP3    H280583   5.392   4.957  17.291  0.1790  3.1537  0.6625
19698TIP3   OH280584   5.854   4.930  13.808 -0.4434 -0.2819  0.2152
19698TIP3    H180585   5.853   4.970  13.720 -0.8663 -0.8876 -0.0526
19698TIP3    H280586   5.794   4.984  13.859  0.9108  0.9855  0.5414
19699TIP3   OH280587   6.769   0.084   2.065 -0.0499  0.1216 -0.4573
19699TIP3    H180588   6.739   0.035   1.988 -0.9710  0.0831 -0.0769
19699TIP3    H280589   6.691   0.094   2.119  0.5218  0.4541  0.3137
19700TIP3   OH280590   3.326   1.738   0.868  0.5692  0.1471  0.5673
19700TIP3    H180591   3.275   1.658   0.877  0.3018 -0.0985 -2.5053
19700TIP3    H280592   3.264   1.808   0.888 -0.0274 -0.2936  0.2900
19701TIP3   OH280593   6.016   0.315  12.727  0.4167 -0.1443 -0.3095
19701TIP3    H180594   5.936   0.324  12.779  0.7594  2.3355 -0.1650
19701TIP3    H280595   5.988   0.267  12.648 -0.4714 -2.2855  1.2445
19702TIP3   OH280596   3.102   2.369  13.234  0.1663 -0.0562 -0.4255
19702TIP3    H180597   3.101   2.464  13.231  0.1270 -0.0814 -1.3701
19702TIP3    H280598   3.194   2.345  13.225  0.3019 -0.0877  0.8920
19703TIP3   OH280599   2.782   2.311  12.808  0.4382 -0.8330  0.3566
19703TIP3    H180600   2.698   2.357  12.802  0.8995 -0.0744 -0.3364
19703TIP3    H280601   2.848   2.379  12.795  1.2278 -1.0883  2.8365
19704TIP3   OH280602   0.431   4.561   5.009 -0.5135  0.3082  0.6606
19704TIP3    H180603   0.380   4.508   4.948 -2.6108 -0.0999  2.6710
19704TIP3    H280604   0.445   4.644   4.962 -1.4112 -0.2708 -0.6769
19705TIP3   OH280605   4.854   5.587  16.791  0.0147 -0.3311 -0.5094
19705TIP3    H180606   4.843   5.673  16.751  0.5424 -0.4089 -0.8294
19705TIP3    H280607   4.892   5.533  16.722 -0.7981 -0.9618 -0.4644
19706TIP3   OH280608   5.659   2.869  15.233 -0.5017  0.7063 -0.2177
19706TIP3    H180609   5.737   2.814  15.245 -0.8484  0.1001 -0.7278
19706TIP3    H280610   5.605   2.820  15.171 -1.1743  1.2491 -0.0571
19707TIP3   OH280611   2.705   3.436  13.686  0.7010 -0.5556 -0.4122
19707TIP3    H180612   2.634   3.452  13.748  0.2428 -1.7444 -0.6057
19707TIP3    H280613   2.774   3.497  13.712  0.7046 -1.3383  1.5825
19708TIP3   OH280614   2.438   6.704   0.729  0.2780 -0.5561  0.7837
19708TIP3    H180615   2.503   6.635   0.716  1.5906  0.7742  0.0750
19708TIP3    H280616   2.457   6.738   0.817  0.3872 -0.3384  0.6772
19709TIP3   OH280617   1.685   4.038  10.567  0.2111  0.1854  0.3434
19709TIP3    H180618   1.750   3.968  10.572  1.5692  1.3530 -0.5955
19709TIP3    H280619   1.605   3.994  10.537  0.5580 -1.2544  1.4684
19710TIP3   OH280620   4.576   4.987  11.398  0.2154  0.4110 -0.2007
19710TIP3    H180621   4.585   4.894  11.419  0.5779  0.8835  1.8867
19710TIP3    H280622   4.491   4.994  11.355 -0.6741 -0.6264  1.3365
19711TIP3   OH280623   5.401   5.214   1.464  0.0064  0.0315  0.0429
19711TIP3    H180624   5.431   5.298   1.430  0.2475 -0.5623 -1.2341
19711TIP3    H280625   5.372   5.233   1.553  1.1771  1.2356  0.1761
19712TIP3   OH280626   3.566   5.122   4.085 -0.6241 -0.5655 -1.1394
19712TIP3    H180627   3.545   5.216   4.083  2.4051  0.2292  0.7288
19712TIP3    H280628   3.498   5.084   4.142 -1.3149  0.6564 -1.1165
19713TIP3   OH280629   3.629   0.590  13.398 -0.2080 -0.0030  0.8252
19713TIP3    H180630   3.537   0.606  13.418 -0.5558 -0.4843 -0.3689
19713TIP3    H280631   3.676   0.657  13.447 -1.3243  1.6305 -0.2848
19714TIP3   OH280632   3.307   4.116   2.457 -0.5664  0.0043  0.8075
19714TIP3    H180633   3.354   4.191   2.493 -0.8671  0.7257 -0.2707
19714TIP3    H280634   3.287   4.142   2.367 -0.0647 -1.6474  0.2057
19715TIP3   OH280635   0.918   4.168   3.066  0.1188 -0.1942 -0.1165
19715TIP3    H180636   0.956   4.147   2.981  0.1740 -1.9641  0.3183
19715TIP3    H280637   0.991   4.165   3.128 -0.2552 -0.9518  0.3028
19716TIP3   OH280638   3.343   3.290  11.665 -0.0716 -0.4194  0.1338
19716TIP3    H180639   3.330   3.202  11.629 -0.2754  0.5745 -2.3553
19716TIP3    H280640   3.258   3.332  11.658  0.6767  0.9050 -1.4019
19717TIP3   OH280641   1.418   5.645   2.038  0.3209 -0.1149 -0.1285
19717TIP3    H180642   1.386   5.733   2.060  2.7241  0.3339  1.8229
19717TIP3    H280643   1.371   5.588   2.099  0.5423  0.1103  0.2568
19718TIP3   OH280644   1.178   1.486  16.731  0.0002 -0.1205 -0.0933
19718TIP3    H180645   1.262   1.472  16.774  0.2748  1.8239  0.0335
19718TIP3    H280646   1.116   1.502  16.803 -0.3044 -0.6498 -0.2360
19719TIP3   OH280647   0.850   4.654   2.546 -0.2707 -0.1603  0.4838
19719TIP3    H180648   0.763   4.694   2.556 -1.1619 -1.7426 -0.6887
19719TIP3    H280649   0.897   4.713   2.487 -1.4909 -0.6779 -1.0380
19720TIP3   OH280650   3.016   5.526  14.670  0.6546 -0.4851  0.2129
19720TIP3    H180651   3.039   5.555  14.758  1.7229  1.8785 -0.7785
19720TIP3    H280652   2.924   5.503  14.675  0.2133  1.4295  1.5202
19721TIP3   OH280653   3.985   5.358   4.835 -0.4101  0.5899 -0.2088
19721TIP3    H180654   4.015   5.285   4.781 -0.4876  1.7405 -1.8697
19721TIP3    H280655   4.012   5.436   4.786  1.1654  1.7163  2.3492
19722TIP3   OH280656   1.374   3.714   2.267  0.3378 -0.5977 -0.3585
19722TIP3    H180657   1.353   3.630   2.308  0.3312  0.3966  1.7655
19722TIP3    H280658   1.449   3.747   2.317 -0.9966  1.6256  0.2680
19723TIP3   OH280659   0.119   0.704   1.997 -0.4882 -0.0504  0.3459
19723TIP3    H180660   0.102   0.787   2.042  2.5506  0.0468  1.4256
19723TIP3    H280661   0.083   0.637   2.054 -3.0803  0.4889 -0.5922
19724TIP3   OH280662   6.476   1.332  11.275 -0.6474  0.4333  0.5017
19724TIP3    H180663   6.406   1.268  11.286  0.3229 -0.5402  1.0543
19724TIP3    H280664   6.521   1.305  11.195  0.3716 -0.1664  1.2690
19725TIP3   OH280665   6.708   1.160   3.294  0.3395 -0.0059 -0.0299
19725TIP3    H180666   6.780   1.167   3.230 -0.3400 -0.9278 -0.9185
19725TIP3    H280667   6.743   1.101   3.362  1.1171  1.0921  0.5362
19726TIP3   OH280668   6.498   1.745  16.576 -0.2534  0.3980  0.1620
19726TIP3    H180669   6.416   1.696  16.576 -0.7038  1.1188 -0.8777
19726TIP3    H280670   6.474   1.831  16.542  1.1901  0.1759 -1.4591
19727TIP3   OH280671   6.819   3.160   3.794 -0.1432  0.2206 -0.1668
19727TIP3    H180672   6.835   3.215   3.717  3.1662  2.6437  2.1003
19727TIP3    H280673   6.732   3.186   3.824 -0.7219  0.5310 -2.0765
19728TIP3   OH280674   2.873   1.984   5.343 -0.4506  0.2973 -0.5944
19728TIP3    H180675   2.788   1.970   5.385  0.5018  0.5854  1.5053
19728TIP3    H280676   2.905   2.065   5.383  0.4959  0.5579 -1.8837
19729TIP3   OH280677   5.271   1.689   1.569 -0.2969 -0.2013 -0.4675
19729TIP3    H180678   5.193   1.744   1.575 -0.5670 -0.7854  1.7622
19729TIP3    H280679   5.246   1.618   1.511 -0.6324  0.8939 -1.6796
19730TIP3   OH280680   1.184   0.644  14.232 -0.1285 -0.2347 -0.1170
19730TIP3    H180681   1.216   0.733  14.239 -0.2322 -0.1071 -1.2317
19730TIP3    H280682   1.210   0.615  14.145  1.1472 -1.7817  0.7455
19731TIP3   OH280683   6.599   2.343  14.893  0.4674 -0.3743  0.3346
19731TIP3    H180684   6.602   2.380  14.981  1.9950  1.0885 -0.3117
19731TIP3    H280685   6.542   2.266  14.901  0.6325 -0.2867  2.5948
19732TIP3   OH280686   4.238   1.576   1.631  0.7115 -0.1634 -0.4272
19732TIP3    H180687   4.224   1.488   1.596 -1.3903  0.2511 -0.6436
19732TIP3    H280688   4.218   1.569   1.724  2.0496 -0.2489 -0.1296
19733TIP3   OH280689   1.820   3.770  16.891  0.4332 -0.1761 -0.1455
19733TIP3    H180690   1.893   3.798  16.946  2.0642 -0.3550 -2.1579
19733TIP3    H280691   1.817   3.675  16.902  0.8170 -0.2223 -0.4246
19734TIP3   OH280692   4.284   1.869  10.459 -0.6999 -0.2434  0.3081
19734TIP3    H180693   4.325   1.859  10.373 -0.3086  2.1614  0.1836
19734TIP3    H280694   4.287   1.781  10.497  0.6549 -0.9888 -1.4330
19735TIP3   OH280695   2.107   0.180   4.711  0.7609 -0.6265  0.1479
19735TIP3    H180696   2.053   0.258   4.699  0.9404 -0.2332  1.7888
19735TIP3    H280697   2.061   0.111   4.662  0.0251  0.2457 -0.3999
19736TIP3   OH280698   5.814   2.013  12.584  0.2453  0.3012 -0.1542
19736TIP3    H180699   5.849   1.925  12.596 -1.1834 -0.3319 -0.6169
19736TIP3    H280700   5.811   2.050  12.672  0.2535 -0.3360  0.1107
19737TIP3   OH280701   4.798   0.768  12.959  0.4018 -0.4006  0.3877
19737TIP3    H180702   4.807   0.849  13.009  1.1023  0.4216 -1.0439
19737TIP3    H280703   4.866   0.711  12.995  2.5905  1.0721 -1.2725
19738TIP3   OH280704   1.449   3.605   6.506 -0.0608 -0.1865 -0.2684
19738TIP3    H180705   1.534   3.646   6.526 -0.9390  1.2810  0.5219
19738TIP3    H280706   1.465   3.553   6.427  1.8379 -0.7784  0.4683
19739TIP3   OH280707   1.816   4.700  16.786 -0.2617 -0.3479 -0.5848
19739TIP3    H180708   1.876   4.674  16.857 -1.8872 -1.5808  0.3661
19739TIP3    H280709   1.814   4.796  16.792 -1.2742 -0.4771  1.8189
19740TIP3   OH280710   5.520   5.845  11.322  0.2718 -0.3049  0.0450
19740TIP3    H180711   5.448   5.847  11.259 -0.2649 -1.6649  0.5949
19740TIP3    H280712   5.594   5.884  11.275 -0.9233  1.5474 -0.3671
19741TIP3   OH280713   1.924   4.134   1.851 -0.4845  0.0475 -0.0661
19741TIP3    H180714   1.920   4.131   1.755 -0.2180  1.5193 -0.1380
19741TIP3    H280715   1.866   4.206   1.875 -0.8572 -0.5671  0.9122
19742TIP3   OH280716   5.122   0.820  11.158 -0.0659 -0.4671  0.1805
19742TIP3    H180717   5.210   0.836  11.124  0.3771 -1.2653  0.9316
19742TIP3    H280718   5.092   0.741  11.113 -0.5257 -0.0220 -0.3041
19743TIP3   OH280719   4.025   4.956  15.491 -0.0113 -0.7072 -0.1276
19743TIP3    H180720   4.052   5.015  15.420  1.3616 -1.2644 -0.0761
19743TIP3    H280721   3.970   5.011  15.547  1.8625  0.7629  0.3190
19744TIP3   OH280722   1.830   2.978   1.365 -0.0251 -0.1915  0.1485
19744TIP3    H180723   1.893   2.994   1.435 -1.4370  2.3319  0.8909
19744TIP3    H280724   1.754   3.030   1.389 -1.3712 -1.0523 -2.1355
19745TIP3   OH280725   0.582   3.290   4.773 -0.1162 -0.0593  0.2376
19745TIP3    H180726   0.565   3.212   4.826  0.7464 -1.6240 -1.7117
19745TIP3    H280727   0.677   3.302   4.778  0.0202 -0.4756 -1.2834
19746TIP3   OH280728   0.573   3.978  15.799 -0.2017 -0.6221 -0.1377
19746TIP3    H180729   0.569   4.063  15.844  0.2922 -0.1689 -0.9427
19746TIP3    H280730   0.633   3.925  15.852  0.2199 -0.1600 -0.1510
19747TIP3   OH280731   4.260   2.484   1.661  0.0910  0.0068 -0.2452
19747TIP3    H180732   4.232   2.439   1.741  0.4892  2.0862  1.0939
19747TIP3    H280733   4.351   2.508   1.677 -0.7050  3.0878 -0.0782
19748TIP3   OH280734   0.977   6.424  14.276  0.4384 -0.1917 -0.2288
19748TIP3    H180735   1.061   6.420  14.230  0.3557  1.3662 -0.5264
19748TIP3    H280736   0.937   6.506  14.248  0.3411  0.7554  2.5024
19749TIP3   OH280737   5.637   5.962  11.792  0.1700  0.1884 -0.2735
19749TIP3    H180738   5.653   6.021  11.719  1.0522  1.2682  0.7857
19749TIP3    H280739   5.595   5.885  11.752 -0.3010  1.1991 -1.7536
19750TIP3   OH280740   1.625   2.463   0.837  0.0209 -0.0547 -0.6069
19750TIP3    H180741   1.541   2.486   0.876  0.5390 -0.9772  1.0554
19750TIP3    H280742   1.687   2.464   0.910  1.0005 -1.7568 -1.3892
19751TIP3   OH280743   0.159   3.345   4.389 -0.0769 -0.3194  0.3102
19751TIP3    H180744   0.192   3.400   4.460 -0.2470 -1.5123  1.3293
19751TIP3    H280745   0.125   3.267   4.433  1.2414 -1.7649 -1.2017
19752TIP3   OH280746   1.271   5.158   0.764 -0.3095  0.0995 -0.3125
19752TIP3    H180747   1.317   5.226   0.813  0.7496  0.3034 -1.5363
19752TIP3    H280748   1.237   5.203   0.687  0.9698 -0.8550 -1.4739
19753TIP3   OH280749   2.250   3.479  11.669 -0.4402 -0.5756 -0.2722
19753TIP3    H180750   2.346   3.485  11.671 -0.4878  1.1279 -1.8197
19753TIP3    H280751   2.225   3.477  11.762  1.1341 -2.1635  0.1468
19754TIP3   OH280752   1.176   0.550   6.112  0.1561 -0.6989 -0.0526
19754TIP3    H180753   1.229   0.472   6.124  1.1135 -0.0173  0.1976
19754TIP3    H280754   1.106   0.542   6.176 -0.7560 -2.1972 -1.1952
19755TIP3   OH280755   1.393   4.069  15.212  0.3693 -0.1449  0.1515
19755TIP3    H180756   1.404   4.137  15.278  0.8742 -0.0518 -0.0316
19755TIP3    H280757   1.403   3.987  15.261  1.4233 -0.0713  0.0730
19756TIP3   OH280758   3.830   6.208  16.338 -0.0937 -0.2939 -0.1985
19756TIP3    H180759   3.784   6.229  16.419  1.2755  2.4386 -0.0663
19756TIP3    H280760   3.775   6.142  16.295 -1.8025 -0.3707  2.0337
19757TIP3   OH280761   1.831   2.991   0.806  0.2690  0.0376  0.1067
19757TIP3    H180762   1.893   3.058   0.834 -0.3629  0.0954  1.4080
19757TIP3    H280763   1.746   3.024   0.833 -0.0249 -1.3918  0.9924
19758TIP3   OH280764   4.173   3.441   1.314  0.7200 -0.2343 -0.1167
19758TIP3    H180765   4.173   3.387   1.393 -0.6531  1.6189  1.1866
19758TIP3    H280766   4.140   3.383   1.245  0.5510 -1.4367  0.9700
19759TIP3   OH280767   0.533   3.283  11.559  0.0355 -0.1697  0.0633
19759TIP3    H180768   0.510   3.369  11.523  1.2236 -0.4196 -1.2983
19759TIP3    H280769   0.547   3.227  11.483  1.1092 -1.0928  0.9252
19760TIP3   OH280770   5.577   2.343   3.760 -0.3262  0.0756  0.0045
19760TIP3    H180771   5.631   2.265   3.746 -1.2547 -0.5282 -0.2293
19760TIP3    H280772   5.588   2.364   3.852 -0.2900 -0.4952  0.1329
19761TIP3   OH280773   1.801   1.020   0.525  0.4401 -0.2669 -0.6150
19761TIP3    H180774   1.805   1.096   0.583 -0.2990 -0.8117  0.1518
19761TIP3    H280775   1.741   0.959   0.568  0.9834 -1.2693 -1.2498
19762TIP3   OH280776   3.953   0.505  14.707 -0.2721 -0.4033 -0.3678
19762TIP3    H180777   3.903   0.538  14.632 -1.2663 -0.0594  0.4320
19762TIP3    H280778   4.040   0.487  14.672 -0.4614  0.6315 -1.3949
19763TIP3   OH280779   4.874   3.107   5.316  0.1165 -0.0422  0.0824
19763TIP3    H180780   4.902   3.186   5.361 -0.4741 -0.3317  0.9769
19763TIP3    H280781   4.922   3.108   5.234  1.6146  0.2240  0.9406
19764TIP3   OH280782   2.365   1.124   5.151 -0.6201  0.0724 -0.0968
19764TIP3    H180783   2.284   1.099   5.194 -0.3114 -0.4008  0.2229
19764TIP3    H280784   2.348   1.210   5.114 -1.1472  0.1341  0.2896
19765TIP3   OH280785   3.144   3.816  10.663 -0.6895 -0.3605  0.3852
19765TIP3    H180786   3.074   3.872  10.630 -0.2434  1.1048  1.8804
19765TIP3    H280787   3.146   3.742  10.602 -1.6153  0.9884 -1.3233
19766TIP3   OH280788   0.831   3.284   5.383 -0.1369 -0.0317  0.2079
19766TIP3    H180789   0.742   3.303   5.414  0.1896  0.8972  0.6080
19766TIP3    H280790   0.825   3.197   5.344 -1.4097  0.3672 -0.5163
19767TIP3   OH280791   4.719   2.782  11.708 -0.4438  0.5366 -0.1435
19767TIP3    H180792   4.792   2.731  11.742 -0.9880 -0.5359 -0.5860
19767TIP3    H280793   4.650   2.773  11.772 -1.1806 -0.8054 -1.1148
19768TIP3   OH280794   3.296   3.925   1.601  0.2866  0.0911 -0.2451
19768TIP3    H180795   3.237   3.852   1.621  1.3611 -0.3371  1.5628
19768TIP3    H280796   3.238   3.996   1.574 -0.8300 -1.2097 -1.3562
19769TIP3   OH280797   6.557   4.341   4.897 -0.0620 -0.1408 -0.1335
19769TIP3    H180798   6.611   4.375   4.969  0.7827  0.2031 -0.9286
19769TIP3    H280799   6.469   4.334   4.935  0.1458  1.1154  0.6090
19770TIP3   OH280800   3.607   6.335  15.914 -0.4193 -0.9439 -0.1933
19770TIP3    H180801   3.530   6.287  15.943 -0.4131 -1.9698 -1.7988
19770TIP3    H280802   3.679   6.273  15.923 -0.1372 -0.6968 -0.7185
19771TIP3   OH280803   4.509   5.816   4.641 -0.3250  0.6434 -0.0364
19771TIP3    H180804   4.495   5.770   4.724  0.7887  0.4742  0.0543
19771TIP3    H280805   4.503   5.747   4.575  1.7832  0.2753  0.1316
19772TIP3   OH280806   1.552   5.454  13.878  0.6338 -0.2584  0.0494
19772TIP3    H180807   1.491   5.526  13.895  1.0138 -0.3481  1.9379
19772TIP3    H280808   1.639   5.496  13.876  0.9772 -0.7826  2.3419
19773TIP3   OH280809   1.635   2.750   0.782  0.5068  0.0320  0.5340
19773TIP3    H180810   1.645   2.746   0.877 -3.7446 -3.8658  1.0299
19773TIP3    H280811   1.684   2.674   0.750  0.2454  0.1440 -0.1483
19774TIP3   OH280812   1.960   2.977  13.608 -0.2539  0.3622 -0.2376
19774TIP3    H180813   2.013   2.930  13.672 -0.2192  1.4768  0.5650
19774TIP3    H280814   2.019   2.991  13.534 -0.0065 -0.0771 -0.1275
19775TIP3   OH280815   4.583   1.254  13.893  0.5159  0.2746 -0.5829
19775TIP3    H180816   4.539   1.174  13.922  0.9753  0.4296  0.5485
19775TIP3    H280817   4.520   1.295  13.834 -0.1772 -0.3541 -0.2912
19776TIP3   OH280818   3.321   2.974   2.695  0.7600 -0.0739  0.3469
19776TIP3    H180819   3.260   2.918   2.743 -3.5131  0.3413 -4.1722
19776TIP3    H280820   3.365   2.915   2.634  0.5269  0.5582 -0.4402
19777TIP3   OH280821   5.272   1.026   0.740  0.2812 -0.4060 -0.2675
19777TIP3    H180822   5.212   1.099   0.726 -0.3351 -0.2515  2.8544
19777TIP3    H280823   5.340   1.062   0.798  1.0926 -1.7584 -0.3592
19778TIP3   OH280824   2.192   5.416   3.666  0.2858  0.0210  0.1298
19778TIP3    H180825   2.159   5.327   3.655 -2.3818  0.8510  1.0486
19778TIP3    H280826   2.283   5.405   3.693  0.2575 -2.3971 -0.6413
19779TIP3   OH280827   3.122   2.849   2.916 -0.0104  0.0796  0.0377
19779TIP3    H180828   3.085   2.937   2.919  0.9597  0.4499  1.9699
19779TIP3    H280829   3.077   2.807   2.843 -0.4560  2.1785 -0.9309
19780TIP3   OH280830   4.713   4.138   5.228 -0.0305 -0.0322  0.3413
19780TIP3    H180831   4.675   4.165   5.144  1.5759 -0.4861 -0.5670
19780TIP3    H280832   4.747   4.218   5.267 -0.6936  0.1656  0.5230
19781TIP3   OH280833   4.537   6.419  14.104  0.7648 -0.0082  0.1104
19781TIP3    H180834   4.449   6.385  14.085  0.6041  1.0409 -1.0776
19781TIP3    H280835   4.553   6.394  14.195 -0.2836 -1.2398 -0.0223
19782TIP3   OH280836   5.212   1.760   2.626  0.5292 -0.4740  0.2960
19782TIP3    H180837   5.187   1.849   2.601 -1.0314 -0.0321  3.2112
19782TIP3    H280838   5.130   1.710   2.622  0.9092 -1.1845  1.1364
19783TIP3   OH280839   1.294   1.233   4.444 -0.0012 -0.0740 -0.5621
19783TIP3    H180840   1.370   1.247   4.500 -0.0103  1.5954 -0.9436
19783TIP3    H280841   1.318   1.273   4.361 -1.2035  0.2530 -0.7603
19784TIP3   OH280842   1.648   4.430   6.158 -0.3746 -0.2513  0.1786
19784TIP3    H180843   1.579   4.365   6.153 -0.4732 -0.1433  0.1415
19784TIP3    H280844   1.709   4.396   6.224  1.2426 -1.9880 -2.1178
19785TIP3   OH280845   2.233   5.642  12.013  0.2195 -0.2852 -0.8419
19785TIP3    H180846   2.244   5.586  12.089  3.2352 -0.4709 -1.3643
19785TIP3    H280847   2.190   5.720  12.046 -1.0718 -1.5288  0.4920
19786TIP3   OH280848   4.523   6.440  10.483 -0.9521 -0.3390 -0.0173
19786TIP3    H180849   4.568   6.414  10.563 -0.9605  0.8323  0.3798
19786TIP3    H280850   4.433   6.457  10.511 -0.7161  1.0511 -0.0771
19787TIP3   OH280851   6.816   4.203  17.166 -0.1934 -0.0513 -0.3592
19787TIP3    H180852   6.796   4.287  17.124 -1.4980  0.6241  1.5818
19787TIP3    H280853   6.773   4.138  17.110 -0.7052  0.7267 -0.8849
19788TIP3   OH280854   5.971   4.444  16.522  0.1563 -0.0540  0.2783
19788TIP3    H180855   5.992   4.418  16.612 -0.0532  0.4196  0.4645
19788TIP3    H280856   6.055   4.469  16.484  0.0525  1.1202  0.7919
19789TIP3   OH280857   3.259   5.584  17.042  0.3750 -0.2001 -0.0429
19789TIP3    H180858   3.177   5.631  17.025  0.2036  0.1263  1.6760
19789TIP3    H280859   3.265   5.521  16.970 -2.3942 -1.5632  0.8425
19790TIP3   OH280860   3.974   3.822   3.650  0.1278  0.6174  0.5600
19790TIP3    H180861   3.979   3.865   3.736  2.7078  2.1603 -0.3004
19790TIP3    H280862   3.949   3.893   3.590 -4.4072 -0.9770  0.3167
19791TIP3   OH280863   5.396   0.475   2.849 -0.0718 -0.2288  0.2334
19791TIP3    H180864   5.491   0.459   2.855 -0.3576 -2.3102 -0.6453
19791TIP3    H280865   5.384   0.558   2.896  1.8296 -1.2312  2.6275
19792TIP3   OH280866   4.683   5.466  11.439 -0.3987  0.4913 -0.3806
19792TIP3    H180867   4.703   5.390  11.385 -2.9966 -0.4053 -0.1274
19792TIP3    H280868   4.724   5.446  11.524 -0.6362 -0.3989 -0.4700
19793TIP3   OH280869   4.455   1.575  13.476  0.0162  0.1365 -0.2242
19793TIP3    H180870   4.415   1.630  13.543 -0.4640 -0.5670  0.0719
19793TIP3    H280871   4.497   1.637  13.416  0.4438  0.7726  0.7184
19794TIP3   OH280872   1.603   5.021  14.974 -0.5425  0.4795 -0.2620
19794TIP3    H180873   1.613   5.038  15.068 -1.7692 -1.6874  0.2994
19794TIP3    H280874   1.693   5.019  14.940 -0.0947  1.3330  0.8464
19795TIP3   OH280875   5.820   5.692   3.627  0.2090  0.6082 -0.4189
19795TIP3    H180876   5.821   5.598   3.607  0.9829  0.6149 -0.4079
19795TIP3    H280877   5.782   5.732   3.548  1.8739  0.4889 -1.2931
19796TIP3   OH280878   2.251   5.824  17.247  0.0790  0.2200  0.0478
19796TIP3    H180879   2.193   5.748  17.249  0.1002  0.2077  0.3302
19796TIP3    H280880   2.324   5.797  17.192  0.2007 -0.0505  0.3347
19797TIP3   OH280881   2.587   1.361  16.261  0.2696 -0.6229  0.5027
19797TIP3    H180882   2.534   1.338  16.185  0.3097 -1.6298  0.7675
19797TIP3    H280883   2.536   1.329  16.336 -0.1645  1.0870  0.9657
19798TIP3   OH280884   1.679   1.166  12.577 -0.1142  0.6765 -0.6979
19798TIP3    H180885   1.694   1.073  12.563  0.2079  0.6332 -0.0520
19798TIP3    H280886   1.722   1.186  12.660 -2.1804  0.9056  0.3649
19799TIP3   OH280887   5.564   0.168  15.788  0.0947  0.4567  0.1806
19799TIP3    H180888   5.536   0.250  15.746 -1.1534 -1.0411 -1.9784
19799TIP3    H280889   5.483   0.118  15.798  1.2028 -1.6413 -1.0318
19800TIP3   OH280890   2.892   5.480   3.962 -0.4339  0.3768 -0.0639
19800TIP3    H180891   2.921   5.569   3.942 -2.3053  1.0544  0.1254
19800TIP3    H280892   2.971   5.426   3.954  0.1262  1.5707 -3.1988
19801TIP3   OH280893   0.156   3.430   1.310 -0.9525 -0.3145 -0.0451
19801TIP3    H180894   0.169   3.337   1.294  1.1429 -0.2083  0.7735
19801TIP3    H280895   0.195   3.473   1.234 -1.3618 -0.1080 -0.1351
19802TIP3   OH280896   6.624   0.108  14.345 -0.5103 -0.2666 -0.6647
19802TIP3    H180897   6.615   0.081  14.437 -1.7793 -1.0780 -1.0075
19802TIP3    H280898   6.673   0.038  14.304  4.2157  2.2390  0.3156
19803TIP3   OH280899   6.305   1.870  13.381 -0.2468  0.2882  0.2731
19803TIP3    H180900   6.209   1.862  13.384 -0.1525 -0.3192  2.7218
19803TIP3    H280901   6.332   1.811  13.311 -1.4582 -1.9993  1.6864
19804TIP3   OH280902   3.713   5.244  13.328  0.1400 -0.4903  0.1328
19804TIP3    H180903   3.657   5.303  13.379  0.0469 -1.4271  1.1244
19804TIP3    H280904   3.651   5.191  13.277  0.0497 -2.2565  2.0278
19805TIP3   OH280905   4.140   5.919   6.278  0.4187 -0.4078  0.0031
19805TIP3    H180906   4.074   5.849   6.276 -1.1232  0.8644  3.0420
19805TIP3    H280907   4.211   5.882   6.330 -0.0424 -0.0461  0.9054
19806TIP3   OH280908   6.585   5.102   0.790 -0.4842  0.2313 -0.0939
19806TIP3    H180909   6.649   5.173   0.784 -0.5354  0.3556  0.7234
19806TIP3    H280910   6.615   5.050   0.865 -0.7851 -0.2736 -0.3196
19807TIP3   OH280911   4.932   2.436   6.510  0.3822  0.2300 -0.0361
19807TIP3    H180912   4.844   2.475   6.505 -0.9079 -2.5580 -0.1043
19807TIP3    H280913   4.958   2.448   6.601 -0.3634  0.4676  0.1549
19808TIP3   OH280914   4.088   0.857   0.919  0.1961 -0.6149  0.5283
19808TIP3    H180915   4.033   0.795   0.967  1.4084  0.3802  3.2902
19808TIP3    H280916   4.167   0.806   0.897  0.5186 -0.4992  1.4086
19809TIP3   OH280917   1.612   6.225   4.326 -0.2072 -0.6383 -0.8610
19809TIP3    H180918   1.569   6.145   4.356 -1.3163  0.4756  0.5768
19809TIP3    H280919   1.553   6.261   4.260 -1.2486  0.5951  0.7099
19810TIP3   OH280920   6.500   6.381  12.204 -0.0188  0.2004  0.4029
19810TIP3    H180921   6.578   6.344  12.246 -0.4672  0.3228  1.3546
19810TIP3    H280922   6.503   6.474  12.224 -0.8119  0.0826  1.0910
19811TIP3   OH280923   2.673   1.566   0.051  0.0996 -0.1997 -0.5103
19811TIP3    H180924   2.733   1.499   0.018 -0.5724  0.0167 -2.1839
19811TIP3    H280925   2.589   1.522   0.057 -0.2331  0.3498 -1.1110
19812TIP3   OH280926   2.367   4.352   3.261 -0.0057  0.3090 -0.2854
19812TIP3    H180927   2.415   4.385   3.186 -0.7773  0.2366 -0.8226
19812TIP3    H280928   2.433   4.312   3.317  0.5920  0.4836 -0.8628
19813TIP3   OH280929   0.592   0.229   3.733  0.3749  0.0543  0.2298
19813TIP3    H180930   0.602   0.158   3.797 -0.2811 -0.7237 -0.5229
19813TIP3    H280931   0.582   0.184   3.649 -0.0271  1.0430 -0.2553
19814TIP3   OH280932   4.573   4.612   1.600 -0.0584 -0.0369  0.3662
19814TIP3    H180933   4.621   4.557   1.661 -0.9182 -1.0127  0.1662
19814TIP3    H280934   4.632   4.621   1.525  1.2789  1.7022  1.5601
19815TIP3   OH280935   2.985   3.864  11.145 -0.3803 -0.0457  0.3482
19815TIP3    H180936   3.005   3.789  11.089  2.5342  0.4526  0.6091
19815TIP3    H280937   3.033   3.937  11.104 -0.0772  0.8142  2.1974
19816TIP3   OH280938   5.676   0.731  11.197  0.0799  0.0611  0.4439
19816TIP3    H180939   5.621   0.666  11.154 -0.4604  0.8251 -0.0419
19816TIP3    H280940   5.756   0.735  11.145  0.0419 -0.0903  0.3748
19817TIP3   OH280941   0.074   2.424  17.084 -0.5896 -0.5357  0.3409
19817TIP3    H180942   0.137   2.483  17.126 -0.9871  0.9129 -1.0333
19817TIP3    H280943   0.105   2.336  17.106  2.6114  0.0894 -1.2496
19818TIP3   OH280944   0.724   0.559   3.993 -0.3600 -0.2006  0.6235
19818TIP3    H180945   0.637   0.562   4.034 -0.0162  0.8131  1.2931
19818TIP3    H280946   0.722   0.626   3.926  0.6070  1.3224  2.0806
19819TIP3   OH280947   4.837   6.702   4.195 -0.3946  0.4529 -0.0332
19819TIP3    H180948   4.869   6.671   4.110 -2.1331  0.1288 -0.5756
19819TIP3    H280949   4.862   6.795   4.197 -1.4920  0.7951 -1.4762
19820TIP3   OH280950   4.638   2.305  14.874 -0.5788  0.4347 -0.0628
19820TIP3    H180951   4.703   2.343  14.815 -0.9572  0.6070 -0.3744
19820TIP3    H280952   4.577   2.260  14.816 -0.9304  0.5679  0.2020
19821TIP3   OH280953   3.712   0.985   3.531  0.1603  0.0133 -0.3415
19821TIP3    H180954   3.747   0.917   3.473  2.0929 -0.0955  0.8884
19821TIP3    H280955   3.790   1.023   3.572 -1.0687  1.2256  0.9082
19822TIP3   OH280956   3.230   5.126   3.496  0.7394 -0.3809  0.0336
19822TIP3    H180957   3.158   5.176   3.457 -1.0182 -1.1092  2.2234
19822TIP3    H280958   3.210   5.035   3.476  2.1444 -0.4673 -1.0520
19823TIP3   OH280959   0.737   3.847  12.932  1.0536  0.1099  0.3252
19823TIP3    H180960   0.658   3.797  12.916  1.5382 -1.0520  1.4638
19823TIP3    H280961   0.774   3.863  12.845 -1.0845  1.7856 -0.3156
19824TIP3   OH280962   0.994   4.127   3.958 -0.0817  0.3133 -0.1553
19824TIP3    H180963   0.927   4.065   3.987  1.3020 -1.0956  0.0607
19824TIP3    H280964   0.968   4.210   3.998 -1.2980 -0.3711  0.5157
19825TIP3   OH280965   5.121   0.277   6.193 -0.4445 -1.0712  0.6002
19825TIP3    H180966   5.137   0.184   6.209  0.1855 -1.1791 -0.6228
19825TIP3    H280967   5.026   0.284   6.183 -0.2831 -2.0328 -1.9624
19826TIP3   OH280968   6.720   0.768  13.779 -0.3483  0.7733 -0.5606
19826TIP3    H180969   6.683   0.680  13.769 -0.1124  0.5877  0.2243
19826TIP3    H280970   6.814   0.756  13.771 -0.3333  1.0003 -0.7409
19827TIP3   OH280971   1.926   0.815  13.733 -0.7234  0.3787  0.6150
19827TIP3    H180972   1.957   0.749  13.671 -0.9502  0.1287  0.7657
19827TIP3    H280973   1.920   0.895  13.682  0.4377  0.4968  0.6491
19828TIP3   OH280974   4.945   1.339  15.707 -0.0472 -1.1298  0.1735
19828TIP3    H180975   4.999   1.365  15.781  2.1124 -1.6047 -1.1777
19828TIP3    H280976   4.914   1.421  15.669 -0.1152 -0.8502  0.8327
19829TIP3   OH280977   4.161   3.194   1.796  0.0426 -0.8077 -0.3887
19829TIP3    H180978   4.107   3.119   1.822  0.4155 -0.9884 -0.1216
19829TIP3    H280979   4.248   3.173   1.830  0.1081 -0.1667 -0.1449
19830TIP3   OH280980   0.774   0.500  15.241 -0.4300 -0.5517 -0.2853
19830TIP3    H180981   0.846   0.452  15.199 -1.6242 -1.4110 -1.3734
19830TIP3    H280982   0.748   0.443  15.314 -1.2986 -1.1761 -1.0770
19831TIP3   OH280983   1.071   1.519   5.067  0.2940  0.1858 -0.2726
19831TIP3    H180984   1.064   1.489   5.158  1.5925  1.1274  0.1575
19831TIP3    H280985   1.085   1.439   5.017  0.9544 -0.2183  0.5303
19832TIP3   OH280986   5.701   2.509  16.506 -0.4506  0.2109  0.9393
19832TIP3    H180987   5.618   2.464  16.523  0.5795 -1.7917  0.7511
19832TIP3    H280988   5.710   2.571  16.579 -1.8464  0.0687  1.2427
19833TIP3   OH280989   4.531   1.422   4.574 -0.1412 -0.3535 -0.0188
19833TIP3    H180990   4.528   1.330   4.548  3.0386 -1.2391  2.3453
19833TIP3    H280991   4.600   1.460   4.519 -0.7742  0.3799 -0.3092
19834TIP3   OH280992   1.879   1.868   4.343  0.2820  0.2149  0.0098
19834TIP3    H180993   1.969   1.843   4.364 -0.1783 -3.8330 -2.3497
19834TIP3    H280994   1.887   1.954   4.303  2.8689  0.7349  1.5349
19835TIP3   OH280995   1.227   4.175   1.659  0.1688 -0.2618  0.3704
19835TIP3    H180996   1.147   4.177   1.607 -0.0453 -1.7743  0.6327
19835TIP3    H280997   1.208   4.117   1.732  1.5330 -0.7616  0.3593
19836TIP3   OH280998   3.836   3.726  11.051  0.3191  0.0398  0.0438
19836TIP3    H180999   3.871   3.680  10.975  0.1592 -0.7172  0.4230
19836TIP3    H281000   3.758   3.772  11.019 -1.5520 -2.7707  0.4136
19837TIP3   OH281001   1.369   2.963  11.750 -0.0063 -0.0812 -0.2700
19837TIP3    H181002   1.284   2.925  11.770 -0.6761  0.3729 -2.1248
19837TIP3    H281003   1.361   2.992  11.659  1.5927  1.4504  0.0535
19838TIP3   OH281004   1.154   6.293   3.489  0.2324  0.0230 -0.1353
19838TIP3    H181005   1.082   6.243   3.528 -0.6799  2.4408  1.3742
19838TIP3    H281006   1.215   6.308   3.561  1.9816 -1.4247 -1.2558
19839TIP3   OH281007   2.108   2.347  16.590  0.1913  0.3154  0.4233
19839TIP3    H181008   2.119   2.434  16.628  1.4644  0.1452  0.4840
19839TIP3    H281009   2.023   2.317  16.621 -0.0297  1.3319  0.8150
19840TIP3   OH281010   5.174   0.807  12.321  0.0334 -0.2430 -0.8314
19840TIP3    H181011   5.151   0.877  12.382  1.0729 -0.0958 -0.5862
19840TIP3    H281012   5.270   0.811  12.316  0.0277 -0.9511 -1.6463
19841TIP3   OH281013   1.610   2.592  16.080  0.6182 -0.2219 -0.3236
19841TIP3    H181014   1.548   2.541  16.132  1.0034 -0.0584  0.2976
19841TIP3    H281015   1.557   2.660  16.038  0.3772 -0.0776  0.2137
19842TIP3   OH281016   2.803   0.834   2.289  0.6067 -0.2944  0.6406
19842TIP3    H181017   2.840   0.868   2.370  1.9782 -0.6966  0.1955
19842TIP3    H281018   2.786   0.912   2.235 -2.2021  0.1353  2.0706
19843TIP3   OH281019   2.061   0.405  14.669 -0.1875  0.2634 -0.0795
19843TIP3    H181020   2.034   0.365  14.586  1.0949  0.3504 -0.5509
19843TIP3    H281021   2.156   0.393  14.672 -0.0439  1.4882  0.7283
19844TIP3   OH281022   1.423   5.993  15.369 -0.1683 -0.7082 -0.3978
19844TIP3    H181023   1.472   6.046  15.306 -1.0203  0.1287 -0.3837
19844TIP3    H281024   1.389   6.057  15.432  0.1984 -1.4714  0.5901
19845TIP3   OH281025   0.746   1.940   1.238 -0.1805  0.2071 -0.7695
19845TIP3    H181026   0.746   2.031   1.268  0.5254  0.4029 -1.3390
19845TIP3    H281027   0.717   1.945   1.147  2.0395  0.1191 -1.5040
19846TIP3   OH281028   1.574   1.417  11.734 -0.1419 -0.4171  0.2309
19846TIP3    H181029   1.534   1.504  11.733  0.1924 -0.2561  0.7745
19846TIP3    H281030   1.560   1.385  11.823 -0.0970 -0.8413  0.0858
19847TIP3   OH281031   5.970   5.322  12.141 -0.1529  0.5400 -0.0833
19847TIP3    H181032   6.064   5.333  12.127 -0.1882  1.2853  0.2545
19847TIP3    H281033   5.951   5.234  12.108  0.8487 -0.0189  0.7907
19848TIP3   OH281034   2.436   1.455   0.923 -0.4747 -0.5701 -0.4154
19848TIP3    H181035   2.471   1.366   0.920  0.3845 -0.2105 -2.0506
19848TIP3    H281036   2.343   1.445   0.904  0.1664 -0.8995 -3.8750
19849TIP3   OH281037   1.859   6.731   3.150  0.4482 -0.2460 -0.1238
19849TIP3    H181038   1.875   6.636   3.149  0.5907 -0.2168 -0.8231
19849TIP3    H281039   1.837   6.750   3.241  0.4558 -0.9475  0.0320
19850TIP3   OH281040   3.247   6.641  15.385  0.1796 -0.0985 -0.5671
19850TIP3    H181041   3.274   6.560  15.343 -2.6751 -1.3105 -0.1329
19850TIP3    H281042   3.272   6.630  15.477  1.3112  0.2371 -0.8237
19851TIP3   OH281043   4.463   0.005  15.500 -0.1152 -0.7214 -0.2693
19851TIP3    H181044   4.431   0.058  15.427 -0.5584 -1.8396 -0.8979
19851TIP3    H281045   4.452   0.061  15.577 -1.0431 -0.0817 -0.8599
19852TIP3   OH281046   1.363   3.492  14.113 -0.0204  0.6489  0.3016
19852TIP3    H181047   1.301   3.564  14.107  1.3904  1.8744 -0.0061
19852TIP3    H281048   1.421   3.516  14.186  0.9592  0.2458 -0.3282
19853TIP3   OH281049   2.873   0.785   1.121  0.1423 -0.3788 -0.0834
19853TIP3    H181050   2.906   0.848   1.185 -2.0054  1.1375 -0.4028
19853TIP3    H281051   2.845   0.839   1.047  0.0693 -1.8882 -1.1772
19854TIP3   OH281052   4.877   6.450   0.743 -0.9010  0.1277  0.8235
19854TIP3    H181053   4.971   6.463   0.730 -1.3055  0.9288 -1.5087
19854TIP3    H281054   4.855   6.507   0.816  0.5813 -0.7597  1.9972
19855TIP3   OH281055   4.947   5.880   5.368 -0.0644  0.4353  0.5385
19855TIP3    H181056   4.954   5.891   5.273 -0.9943 -1.0495  0.2833
19855TIP3    H281057   4.962   5.968   5.403  0.9159  0.8780 -0.9410
19856TIP3   OH281058   1.214   0.305  17.253 -0.7893  0.4896 -0.6885
19856TIP3    H181059   1.161   0.230  17.280 -0.3166  0.3664 -0.0996
19856TIP3    H281060   1.170   0.381  17.291 -0.5434  0.3859 -0.1892
19857TIP3   OH281061   3.623   4.844  16.629  0.1963  0.3985  0.3552
19857TIP3    H181062   3.545   4.879  16.585 -0.1035 -1.4994 -0.6618
19857TIP3    H281063   3.678   4.921  16.643 -1.9082  1.8186  1.2315
19858TIP3   OH281064   0.353   2.134  16.731  0.3378 -0.0820  0.3320
19858TIP3    H181065   0.306   2.066  16.779 -1.1257  1.2982  0.8902
19858TIP3    H281066   0.332   2.215  16.776  4.9658  0.3962  1.8623
19859TIP3   OH281067   6.065   6.634   4.304  0.0807  0.8513 -0.1800
19859TIP3    H181068   6.069   6.709   4.244  0.6651  0.2663 -0.8940
19859TIP3    H281069   6.053   6.558   4.246  2.6377  0.0458  0.2451
19860TIP3   OH281070   0.991   3.253   1.112 -0.1267 -0.2555 -0.1714
19860TIP3    H181071   0.988   3.219   1.022 -0.9067 -1.3038  0.2382
19860TIP3    H281072   0.902   3.286   1.128 -0.1501 -0.6105  0.4227
19861TIP3   OH281073   4.031   2.811   1.498 -0.4003 -0.3973  0.3921
19861TIP3    H181074   4.062   2.901   1.488 -2.1410  0.2148  0.4156
19861TIP3    H281075   4.108   2.757   1.480  0.7569  1.0986  0.7742
19862TIP3   OH281076   1.300   2.497  14.538  0.5026  0.2336  0.2899
19862TIP3    H181077   1.374   2.546  14.501 -0.5460  0.1504 -1.9949
19862TIP3    H281078   1.339   2.414  14.568  1.0016 -0.8270 -3.0982
19863TIP3   OH281079   4.967   5.274   1.993 -0.0159  0.1088  0.0935
19863TIP3    H181080   4.936   5.279   2.083 -1.0457  1.2293 -0.3090
19863TIP3    H281081   4.899   5.318   1.942 -0.6298 -2.6144 -1.5435
19864TIP3   OH281082   3.016   0.478  11.885  0.1307  0.4287  0.0594
19864TIP3    H181083   2.988   0.391  11.913  3.5725  0.0411  2.6010
19864TIP3    H281084   3.061   0.464  11.802  2.8022 -0.6669  1.6210
19865TIP3   OH281085   1.319   6.206   5.599  0.8214 -0.3386  0.6406
19865TIP3    H181086   1.341   6.120   5.635 -1.2109 -0.2443  2.1817
19865TIP3    H281087   1.314   6.263   5.676 -2.8231  0.0582  0.2058
19866TIP3   OH281088   6.362   1.208  14.422 -0.1752  0.3074 -0.8094
19866TIP3    H181089   6.450   1.238  14.399 -0.5223  1.1732 -1.0033
19866TIP3    H281090   6.321   1.283  14.464 -1.0796  0.1463 -1.3820
19867TIP3   OH281091   3.002   1.987  15.945  0.2839  0.3793  0.2403
19867TIP3    H181092   2.974   1.997  16.036 -0.6485  0.8352 -0.0913
19867TIP3    H281093   2.921   1.991  15.894  0.7890  0.0436 -0.6085
19868TIP3   OH281094   5.832   2.373  13.329  0.1740 -0.4084  0.0025
19868TIP3    H181095   5.744   2.411  13.323  0.4511  0.0295 -1.4253
19868TIP3    H281096   5.882   2.439  13.377  0.0375 -0.0732 -0.3078
19869TIP3   OH281097   3.188   2.971  14.330  1.0253 -0.1643 -0.2864
19869TIP3    H181098   3.109   2.982  14.383  0.7128 -1.8444 -0.3714
19869TIP3    H281099   3.216   3.060  14.310 -1.3802  0.4698 -1.0351
19870TIP3   OH281100   1.178   1.148  14.818  0.7609  0.0255 -0.1702
19870TIP3    H181101   1.149   1.216  14.756  0.1865 -0.6404 -0.6446
19870TIP3    H281102   1.257   1.184  14.858 -0.2972  1.5589  0.5871
19871TIP3   OH281103   6.777   2.157  15.801  0.1421  0.3324  0.6395
19871TIP3    H181104   6.792   2.244  15.838  0.3964  0.2310  0.7722
19871TIP3    H281105   6.754   2.103  15.876 -1.8316  0.6924  0.3392
19872TIP3   OH281106   5.622   4.916   0.009  0.4765 -0.7283  0.5362
19872TIP3    H181107   5.674   4.936   0.087  0.9595 -0.5739  0.1726
19872TIP3    H281108   5.621   4.821   0.005  0.3160 -0.7398  0.8219
19873TIP3   OH281109   1.275   4.495  11.434  0.1000 -0.1695 -0.0299
19873TIP3    H181110   1.243   4.451  11.355  0.3079 -0.0109 -0.2032
19873TIP3    H281111   1.324   4.570  11.401 -2.0429  1.4274  0.3049
19874TIP3   OH281112   1.466   1.090  15.101 -0.0399 -0.0860 -0.1196
19874TIP3    H181113   1.528   1.112  15.032  0.8951 -0.6257  0.5461
19874TIP3    H281114   1.425   1.173  15.124  1.0280  0.4087  0.0148
19875TIP3   OH281115   0.263   4.679  12.496 -0.2353 -0.0862  0.1600
19875TIP3    H181116   0.345   4.631  12.505 -1.1095 -1.3356  1.9613
19875TIP3    H281117   0.249   4.686  12.401  2.3973  0.9923 -0.1651
19876TIP3   OH281118   3.333   5.255  10.587 -0.1024 -0.0470  0.4326
19876TIP3    H181119   3.238   5.254  10.574  0.1833 -1.6731 -1.7216
19876TIP3    H281120   3.354   5.167  10.618  0.8657 -0.1279 -0.4321
19877TIP3   OH281121   6.561   4.109   3.604  0.5312 -0.1247  0.0037
19877TIP3    H181122   6.644   4.136   3.645  0.8800 -0.2466 -0.6132
19877TIP3    H281123   6.563   4.013   3.608 -0.3059 -0.1010  1.4036
19878TIP3   OH281124   3.714   2.251  13.231 -0.2424  0.0875 -0.2308
19878TIP3    H181125   3.686   2.240  13.322  2.7545  0.5736  0.8036
19878TIP3    H281126   3.769   2.330  13.232  0.1898 -0.1547 -2.3896
19879TIP3   OH281127   4.934   4.020   2.270  0.6853 -0.4243  0.7384
19879TIP3    H181128   4.929   4.021   2.175 -0.7717 -0.0953  0.8113
19879TIP3    H281129   4.929   3.927   2.293  0.2452 -0.4568  0.5248
19880TIP3   OH281130   2.707   5.898   4.336  0.1534  0.2314 -0.0835
19880TIP3    H181131   2.625   5.864   4.303 -0.6861  2.0520  0.0542
19880TIP3    H281132   2.692   5.911   4.430  2.4909 -4.8536  1.1608
19881TIP3   OH281133   6.515   6.572   0.951 -0.4985  0.4210 -0.5804
19881TIP3    H181134   6.583   6.596   1.014 -0.3600  0.6238 -0.8034
19881TIP3    H281135   6.458   6.512   0.998 -0.1873  0.2843 -0.3781
19882TIP3   OH281136   6.521   0.336  16.407 -0.2822  0.1186 -0.1493
19882TIP3    H181137   6.554   0.268  16.467 -0.0948 -0.6376 -1.0904
19882TIP3    H281138   6.600   0.372  16.367 -0.5156 -1.1458 -1.8200
19883TIP3   OH281139   1.484   2.617   1.854  0.1298  0.4923  0.5641
19883TIP3    H181140   1.541   2.595   1.780 -0.8728  0.2353 -0.1371
19883TIP3    H281141   1.544   2.633   1.927  1.0284 -1.0784  0.1726
19884TIP3   OH281142   4.158   1.737   2.535  0.0785  0.3051 -0.0409
19884TIP3    H181143   4.194   1.824   2.550  0.0432  0.6218 -1.7191
19884TIP3    H281144   4.232   1.687   2.499  0.3935 -0.6722  1.8969
19885TIP3   OH281145   1.594   2.251   1.076  0.4904  0.1089  0.4081
19885TIP3    H181146   1.540   2.322   1.041 -1.6326 -2.0490 -0.7864
19885TIP3    H281147   1.604   2.190   1.004  0.2911 -1.9716  2.0969
19886TIP3   OH281148   4.308   3.605  14.428 -0.0287 -0.2931  0.0047
19886TIP3    H181149   4.306   3.638  14.518  0.9422  2.9414 -1.0867
19886TIP3    H281150   4.401   3.605  14.405 -0.3534 -0.1165 -1.3336
19887TIP3   OH281151   6.327   4.826  14.068  0.3948 -0.7486  0.1138
19887TIP3    H181152   6.391   4.897  14.077 -0.9044  0.2892  1.3255
19887TIP3    H281153   6.252   4.866  14.024 -0.9950 -0.9021  2.2381
19888TIP3   OH281154   6.623   0.609   5.040 -0.0747  0.0490 -0.5368
19888TIP3    H181155   6.581   0.593   5.125  0.4977 -0.7507 -0.4028
19888TIP3    H281156   6.708   0.566   5.047  0.1186  0.2964 -1.3902
19889TIP3   OH281157   1.162   4.605  16.212 -0.1502 -0.2481  0.7241
19889TIP3    H181158   1.224   4.676  16.225  1.8861 -1.1283 -3.2769
19889TIP3    H281159   1.200   4.530  16.257 -0.5007  0.2850  1.9138
19890TIP3   OH281160   6.374   3.551  15.202  0.1248 -0.7476 -0.6185
19890TIP3    H181161   6.393   3.461  15.227  1.9283 -0.8576 -2.2908
19890TIP3    H281162   6.378   3.551  15.107 -4.4607  0.1374 -0.9417
19891TIP3   OH281163   5.154   1.345  17.055  0.1259  0.9889 -0.2467
19891TIP3    H181164   5.228   1.286  17.067 -0.7682  0.1015  1.0338
19891TIP3    H281165   5.161   1.407  17.128  0.4927  1.8579 -1.0158
19892TIP3   OH281166   2.306   4.571   1.924  0.1578 -0.0885  0.4764
19892TIP3    H181167   2.259   4.544   2.003 -1.6065  0.6484 -0.2731
19892TIP3    H281168   2.278   4.508   1.858  1.9652 -0.9673  0.5263
19893TIP3   OH281169   6.412   4.898   3.214  0.0031  0.3969  0.1334
19893TIP3    H181170   6.345   4.833   3.191 -0.9039  0.5998  2.0795
19893TIP3    H281171   6.464   4.908   3.134 -0.8387 -1.5160 -0.6903
19894TIP3   OH281172   2.535   5.057  11.013  0.1526  0.5696  0.3957
19894TIP3    H181173   2.571   5.142  10.991 -3.9876  2.5809  0.8110
19894TIP3    H281174   2.475   5.037  10.942 -1.7079 -0.1765  2.1177
19895TIP3   OH281175   0.771   5.498  12.945  0.1914 -0.4032 -0.0775
19895TIP3    H181176   0.681   5.474  12.923 -0.6785  2.1709  0.4845
19895TIP3    H281177   0.794   5.440  13.019 -1.1297 -0.8094  0.0273
19896TIP3   OH281178   5.083   1.487  15.924  0.4085 -0.3941 -0.3063
19896TIP3    H181179   5.047   1.504  16.011 -0.0005  1.4489 -0.8043
19896TIP3    H281180   5.158   1.545  15.917  1.1684 -1.4111 -0.7515
19897TIP3   OH281181   3.167   4.815  14.280  0.1183 -0.0419  0.5808
19897TIP3    H181182   3.158   4.818  14.375 -1.0246  0.8106  0.4537
19897TIP3    H281183   3.083   4.847  14.247  1.1866  1.4662 -0.7094
19898TIP3   OH281184   1.420   6.585  15.905  0.0433 -0.2454  0.1036
19898TIP3    H181185   1.489   6.519  15.909 -1.4759 -1.8788 -0.0937
19898TIP3    H281186   1.399   6.592  15.812  0.8823  1.2766  0.0088
19899TIP3   OH281187   3.468   4.092  11.499 -0.0195  0.2344  0.6137
19899TIP3    H181188   3.489   4.181  11.471 -0.8651  0.1749 -0.2191
19899TIP3    H281189   3.387   4.070  11.452 -0.8615 -0.2745  2.2651
19900TIP3   OH281190   4.766   6.409  13.755  0.0194 -0.0193  0.1240
19900TIP3    H181191   4.715   6.427  13.676 -0.6338  0.9926  0.7681
19900TIP3    H281192   4.854   6.390  13.722 -0.3619 -0.0817 -0.8815
19901TIP3   OH281193   4.344   2.337   5.503 -0.1530  0.5458  0.1348
19901TIP3    H181194   4.361   2.263   5.444 -1.2319 -0.3993  0.9770
19901TIP3    H281195   4.404   2.324   5.576  0.0226  0.7932  0.0336
19902TIP3   OH281196   4.804   0.922  16.875  0.1272 -1.2396 -0.2315
19902TIP3    H181197   4.810   0.992  16.810  0.6962 -1.3073 -0.2529
19902TIP3    H281198   4.711   0.918  16.897 -0.1293 -1.4447 -1.2976
19903TIP3   OH281199   4.414   6.756  10.858  0.1030  0.2204 -0.6229
19903TIP3    H181200   4.500   6.715  10.868  0.9184  1.8402 -0.8312
19903TIP3    H281201   4.382   6.725  10.773  0.9798  0.5190 -1.0653
19904TIP3   OH281202   0.914   6.657  13.433 -0.7332  0.2056 -0.2647
19904TIP3    H181203   0.850   6.707  13.382 -1.0124 -1.7934 -1.9401
19904TIP3    H281204   0.887   6.566  13.422  1.9954 -0.6283 -0.4355
19905TIP3   OH281205   4.899   0.849   2.588  0.3427 -0.2843 -0.1904
19905TIP3    H181206   4.832   0.782   2.574 -0.7322  0.5874  0.7420
19905TIP3    H281207   4.938   0.861   2.501  0.9980 -2.5714 -0.2492
19906TIP3   OH281208   3.899   4.778  15.662  0.9797  0.1149 -0.0251
19906TIP3    H181209   3.908   4.817  15.576  0.7227  1.6367  0.6246
19906TIP3    H281210   3.970   4.816  15.714  0.9133 -0.5174  0.5427
19907TIP3   OH281211   1.353   0.840   2.146 -0.0431  0.3746  0.4982
19907TIP3    H181212   1.270   0.868   2.108 -1.2647 -2.0564  1.2754
19907TIP3    H281213   1.334   0.756   2.187  2.5439  0.3072  1.6896
19908TIP3   OH281214   1.005   4.687  15.097 -0.7952 -0.0731  0.2190
19908TIP3    H181215   1.036   4.735  15.021 -1.3641  0.4202  0.2913
19908TIP3    H281216   0.909   4.695  15.092 -0.8534 -0.4723  0.7001
19909TIP3   OH281217   0.012   4.247   2.405 -0.2364 -0.0318 -0.4403
19909TIP3    H181218  -0.048   4.219   2.473 -0.4331  2.9391  0.6866
19909TIP3    H281219  -0.027   4.216   2.323 -0.3999 -2.9237  0.7113
19910TIP3   OH281220   4.146   0.851   6.130 -0.6417  0.5227  0.0487
19910TIP3    H181221   4.127   0.785   6.064 -0.0745  1.7448 -1.3678
19910TIP3    H281222   4.128   0.808   6.214  0.1197 -1.5396 -0.8279
19911TIP3   OH281223   5.783   5.040   1.950  0.1987 -0.2750  0.4747
19911TIP3    H181224   5.873   5.071   1.937  0.1326 -0.2268  0.1285
19911TIP3    H281225   5.793   4.957   1.997  0.3771  0.2979  1.4653
19912TIP3   OH281226   2.268   2.982   6.140 -0.3166 -0.0522  0.4693
19912TIP3    H181227   2.210   2.968   6.215 -1.5672  0.1857 -0.4440
19912TIP3    H281228   2.338   3.038   6.174 -0.4101 -0.6492  1.6741
19913TIP3   OH281229   0.803   2.838   1.300 -0.2916  0.3505 -0.2399
19913TIP3    H181230   0.828   2.926   1.274  0.0542  0.7635  1.3997
19913TIP3    H281231   0.759   2.850   1.385 -0.2617 -1.0425 -0.0193
19914TIP3   OH281232   3.390   0.114   4.984  0.1769 -0.3845 -0.1469
19914TIP3    H181233   3.320   0.163   5.027 -1.0984 -0.1894 -2.4116
19914TIP3    H281234   3.469   0.141   5.031 -0.8465  1.7160  0.4530
19915TIP3   OH281235   4.388   5.936  13.268 -0.2664  0.5145 -0.1485
19915TIP3    H181236   4.481   5.951  13.286 -0.1339  0.1495 -0.5315
19915TIP3    H281237   4.369   5.852  13.310 -0.1845  0.1183 -0.8965
19916TIP3   OH281238   1.531   6.185  16.601 -0.0173  0.0335  0.4091
19916TIP3    H181239   1.471   6.243  16.648  0.7487  1.0695  0.1411
19916TIP3    H281240   1.481   6.156  16.524 -0.1698  0.9137  0.1738
19917TIP3   OH281241   3.805   4.808   1.389  0.2710  0.0759 -0.3598
19917TIP3    H181242   3.876   4.822   1.326  1.4485 -2.4423  0.3557
19917TIP3    H281243   3.756   4.734   1.354 -0.6215  0.3219  0.3619
19918TIP3   OH281244   2.376   1.230  13.629 -0.0809 -0.2511 -0.4146
19918TIP3    H181245   2.387   1.250  13.536 -0.1782  0.4463 -0.2835
19918TIP3    H281246   2.299   1.174  13.633 -0.9319  0.8819 -0.6232
19919TIP3   OH281247   3.833   3.953   0.103  0.0904  0.3343 -0.2969
19919TIP3    H181248   3.793   4.032   0.137 -0.3046 -0.1919  0.4915
19919TIP3    H281249   3.898   3.983   0.040 -2.3342  1.1556 -2.4547
19920TIP3   OH281250   2.837   6.664  11.874  0.3967  0.5075 -0.3916
19920TIP3    H181251   2.860   6.583  11.830 -1.0207  0.1992 -0.5950
19920TIP3    H281252   2.878   6.733  11.821  0.3584  0.0136 -1.0625
19921TIP3   OH281253   3.294   3.555   2.711 -0.3129 -0.5249  0.4219
19921TIP3    H181254   3.320   3.624   2.771  0.0135 -1.2090  1.0797
19921TIP3    H281255   3.199   3.565   2.703 -0.2128  0.2494  0.1859
19922TIP3   OH281256   3.537   1.565   0.375  0.1122 -0.3145  0.0495
19922TIP3    H181257   3.588   1.541   0.297 -0.8347  1.8175 -1.2493
19922TIP3    H281258   3.446   1.560   0.346 -0.2844 -0.6273  1.3556
19923TIP3   OH281259   1.494   4.296   3.688  0.4107 -0.0814 -0.5219
19923TIP3    H181260   1.429   4.228   3.671  1.1674 -1.1941  0.9362
19923TIP3    H281261   1.575   4.248   3.705  1.0321  1.1938  0.1916
19924TIP3   OH281262   6.197   0.511  14.561 -0.2566  0.2220 -0.6844
19924TIP3    H181263   6.207   0.427  14.607 -1.2627 -0.4675 -1.7024
19924TIP3    H281264   6.285   0.550  14.564 -0.2916  0.1777  1.7705
19925TIP3   OH281265   6.023   5.604  10.933  0.3537  0.1099 -0.5987
19925TIP3    H181266   5.991   5.553  11.007  1.8855 -1.0745 -0.7486
19925TIP3    H281267   5.943   5.627  10.884 -0.5158 -0.4174  0.5543
19926TIP3   OH281268   6.548   5.217  10.554  0.0928  0.0984 -0.4390
19926TIP3    H181269   6.616   5.158  10.587 -1.2378  0.0464  2.3537
19926TIP3    H281270   6.503   5.248  10.632 -1.1682  2.5033 -2.0613
19927TIP3   OH281271   0.525   4.185   4.502  0.1487 -0.1906  0.5285
19927TIP3    H181272   0.584   4.261   4.496  0.0617 -0.2654 -1.8250
19927TIP3    H281273   0.480   4.196   4.586 -1.5113  3.6118 -0.7489
19928TIP3   OH281274   6.638   0.512  11.702  0.0707 -0.1630 -0.4375
19928TIP3    H181275   6.592   0.568  11.765 -0.7721 -0.1588 -1.0516
19928TIP3    H281276   6.699   0.461  11.756 -0.3396  0.1481  0.3341
19929TIP3   OH281277   2.047   0.103   6.005 -0.0026 -0.3883 -0.2380
19929TIP3    H181278   1.981   0.158   6.047  0.7736 -0.0587  0.5456
19929TIP3    H281279   2.131   0.140   6.031  0.5142 -1.3470 -0.4972
19930TIP3   OH281280   6.142   1.922   3.471  0.2731  0.3063 -0.2099
19930TIP3    H181281   6.126   1.830   3.449 -0.9165  0.4078  0.1659
19930TIP3    H281282   6.177   1.919   3.560  1.4608  0.1438 -0.6707
19931TIP3   OH281283   6.731   3.248   0.209  0.3258 -0.0939 -0.3264
19931TIP3    H181284   6.663   3.293   0.159 -0.2004 -0.0234  0.4511
19931TIP3    H281285   6.807   3.306   0.202 -0.3250  0.8898  0.6065
19932TIP3   OH281286   4.860   3.776   0.644 -0.5582 -0.6457 -0.0861
19932TIP3    H181287   4.876   3.856   0.694 -0.5724 -0.1686 -0.8513
19932TIP3    H281288   4.767   3.756   0.661 -0.3452 -0.9539  0.7543
19933TIP3   OH281289   0.641   1.660   5.658 -0.2389  0.2798  0.9334
19933TIP3    H181290   0.638   1.720   5.584 -2.5485  1.0462  1.6279
19933TIP3    H281291   0.563   1.605   5.649  0.2493 -0.6212  1.9665
19934TIP3   OH281292   6.563   4.759  16.362 -0.0292  0.3571  0.1679
19934TIP3    H181293   6.593   4.829  16.303 -0.4874  1.1950  0.9037
19934TIP3    H281294   6.595   4.678  16.322  2.4805  1.1411  0.4659
19935TIP3   OH281295   6.252   6.111   0.824 -0.1156 -0.2129  0.2107
19935TIP3    H181296   6.251   6.016   0.835 -1.2549  0.0250  2.6129
19935TIP3    H281297   6.247   6.145   0.914 -0.5963  2.1041 -0.6583
19936TIP3   OH281298   3.019   1.717  15.656  0.6550 -0.1850 -0.0165
19936TIP3    H181299   3.026   1.644  15.595  0.3078 -0.8799  0.7597
19936TIP3    H281300   2.984   1.678  15.737 -1.4032  1.1552 -0.2083
19937TIP3   OH281301   1.437   0.610  14.849 -0.0959  0.3747 -0.3480
19937TIP3    H181302   1.529   0.605  14.823 -0.1654 -1.7088 -0.1981
19937TIP3    H281303   1.428   0.698  14.886  2.5604 -0.4013  2.3759
19938TIP3   OH281304   0.091   0.509   2.542  0.2471  0.2751  0.0356
19938TIP3    H181305   0.014   0.471   2.584 -0.1458 -0.2791 -1.1631
19938TIP3    H281306   0.147   0.536   2.615 -1.6842  1.9874  0.9415
19939TIP3   OH281307   2.917   2.271  11.784  0.1617  0.0453 -0.0198
19939TIP3    H181308   2.898   2.364  11.798  0.6749 -0.2324  2.8764
19939TIP3    H281309   3.012   2.268  11.768  0.5756 -0.1664  2.2803
19940TIP3   OH281310   6.791   1.173  16.848 -0.0968  0.1464  0.1787
19940TIP3    H181311   6.778   1.081  16.871 -0.5990  0.4095  0.9552
19940TIP3    H281312   6.724   1.220  16.897  0.3032  0.9556 -0.0379
19941TIP3   OH281313   4.933   4.579  16.737  0.3588  0.1870  0.1967
19941TIP3    H181314   5.020   4.542  16.725  0.0586 -0.8801  1.1794
19941TIP3    H281315   4.890   4.519  16.797 -0.3581  1.8322  1.3542
19942TIP3   OH281316   1.068   5.316  11.902  0.4388  0.2476  0.3843
19942TIP3    H181317   1.022   5.398  11.880 -0.4696 -0.1774  0.6811
19942TIP3    H281318   1.139   5.343  11.960 -0.7013  0.6662  1.6137
19943TIP3   OH281319   0.158   0.811   3.130  0.4086  0.2351  0.4810
19943TIP3    H181320   0.068   0.815   3.096  0.3102 -2.7345  0.2495
19943TIP3    H281321   0.192   0.900   3.118 -0.5821  0.0796 -4.8872
19944TIP3   OH281322   0.928   1.673  14.058  0.1187 -0.4112 -0.1864
19944TIP3    H181323   0.970   1.741  14.004  1.1793 -0.4423  0.5903
19944TIP3    H281324   0.942   1.592  14.010  0.2067 -0.2977 -0.3528
19945TIP3   OH281325   0.287   6.656   0.568 -0.8435 -0.6126 -0.0223
19945TIP3    H181326   0.371   6.641   0.610 -1.1121 -1.0725  0.3448
19945TIP3    H281327   0.278   6.584   0.505 -0.6759 -0.2116 -0.5148
19946TIP3   OH281328   2.622   3.740  14.197  0.3940  0.1616 -0.2949
19946TIP3    H181329   2.695   3.697  14.244  0.2315 -1.7286 -1.7188
19946TIP3    H281330   2.657   3.825  14.173  1.5072 -0.0030  0.6499
19947TIP3   OH281331   5.901   2.279  12.132  0.2847  0.1388 -0.7602
19947TIP3    H181332   5.964   2.315  12.194  0.7920 -0.2292 -1.0602
19947TIP3    H281333   5.854   2.212  12.181  1.0444 -0.5187 -0.9256
19948TIP3   OH281334   5.470   6.454   4.119 -0.4357  0.1232 -0.0302
19948TIP3    H181335   5.453   6.375   4.066  3.1471 -1.6506  1.3212
19948TIP3    H281336   5.553   6.487   4.086  0.5196  0.5148  2.6932
19949TIP3   OH281337   6.125   3.883  16.455 -0.3149  0.0162  0.2211
19949TIP3    H181338   6.102   3.856  16.367 -2.5101 -0.0068  0.7701
19949TIP3    H281339   6.137   3.801  16.503  0.5918  0.0292  0.0257
19950TIP3   OH281340   6.423   1.744  13.591 -0.3026  0.0063 -0.4101
19950TIP3    H181341   6.406   1.779  13.503 -0.7832  1.4211  0.2202
19950TIP3    H281342   6.387   1.811  13.650 -0.7156 -1.3073  0.8533
19951TIP3   OH281343   3.834   3.024  11.469  0.7064  0.1204  0.1900
19951TIP3    H181344   3.829   3.092  11.402 -1.2412 -0.1371  0.0309
19951TIP3    H281345   3.926   3.022  11.495  0.7282  3.1718  0.5559
19952TIP3   OH281346   1.905   6.723  13.184  0.4983 -0.1952 -0.0013
19952TIP3    H181347   1.871   6.736  13.272 -0.2761 -1.8301 -0.0280
19952TIP3    H281348   1.834   6.751  13.126 -0.1386 -1.8554 -0.0654
19953TIP3   OH281349   4.936   0.601  16.525 -0.2007  0.1579  0.3298
19953TIP3    H181350   4.946   0.641  16.611  0.3805 -0.3239  0.4947
19953TIP3    H281351   4.981   0.661  16.466 -0.4276  0.3888  0.3919
19954TIP3   OH281352   4.061   5.816   0.014  0.2093  0.2480 -0.3711
19954TIP3    H181353   4.152   5.829   0.039  0.0820  1.5276 -0.5025
19954TIP3    H281354   4.060   5.737  -0.039  0.8605 -1.1654  1.6885
19955TIP3   OH281355   0.404   3.370   5.025 -0.4505  0.0461 -0.0024
19955TIP3    H181356   0.467   3.347   4.957  0.3719 -1.0891  1.1359
19955TIP3    H281357   0.318   3.353   4.985 -0.0148  0.4386 -1.1238
19956TIP3   OH281358   3.851   3.577   2.925  0.5103 -0.3026  0.6914
19956TIP3    H181359   3.873   3.490   2.957  1.1929 -0.0560  0.8970
19956TIP3    H281360   3.758   3.572   2.904  0.5163 -1.0385  0.8388
19957TIP3   OH281361   0.001   1.073   0.565 -0.6173  0.3413  0.1807
19957TIP3    H181362  -0.061   1.010   0.600  0.0053 -0.5987 -0.3803
19957TIP3    H281363   0.039   1.116   0.642 -1.6662  0.6437  0.5338
19958TIP3   OH281364   3.469   5.163   6.513  0.0832  0.6299  0.0707
19958TIP3    H181365   3.513   5.084   6.483 -0.1873  1.0478 -1.4784
19958TIP3    H281366   3.394   5.132   6.563  0.0016 -0.0817 -0.4961
19959TIP3   OH281367   1.284   4.526  15.799  0.2138 -0.4939  0.0281
19959TIP3    H181368   1.306   4.607  15.752 -1.4770 -0.0350 -0.0165
19959TIP3    H281369   1.365   4.476  15.799  0.6531  0.1376 -2.1259
19960TIP3   OH281370   0.115   1.605   2.615  0.4175 -0.2796  0.3378
19960TIP3    H181371   0.166   1.526   2.634  0.8893 -0.0910 -0.1478
19960TIP3    H281372   0.145   1.669   2.679 -0.0831 -0.5408  0.8392
19961TIP3   OH281373   3.699   2.127   4.627 -0.3728 -0.1661 -0.5079
19961TIP3    H181374   3.647   2.092   4.699  0.0118 -2.8170 -1.4509
19961TIP3    H281375   3.668   2.217   4.616 -2.7136 -0.7674  0.8481
19962TIP3   OH281376   5.891   1.460   1.207  0.6355  0.2334  0.2857
19962TIP3    H181377   5.875   1.555   1.206 -0.2581  0.1047  1.1912
19962TIP3    H281378   5.986   1.452   1.196  0.6962  1.2226 -0.0280
19963TIP3   OH281379   1.567   6.243   0.700 -0.3731  0.1279  0.7344
19963TIP3    H181380   1.488   6.297   0.705 -0.7389 -0.4421  1.1940
19963TIP3    H281381   1.637   6.305   0.682 -0.3464  1.1611  4.0997
19964TIP3   OH281382   6.662   0.943  10.923 -0.2018 -0.0064  0.3728
19964TIP3    H181383   6.675   0.965  10.831 -1.1540 -0.8923  0.0046
19964TIP3    H281384   6.703   0.857  10.933  0.0810  0.1837  0.8183
19965TIP3   OH281385   2.502   6.481  15.653 -0.0451  0.0994  0.5870
19965TIP3    H181386   2.457   6.410  15.700  0.6735 -0.7704 -0.0233
19965TIP3    H281387   2.548   6.530  15.722  1.9910 -1.8855  0.6969
19966TIP3   OH281388   0.007   2.177  14.802  0.4121  0.7240  0.1494
19966TIP3    H181389   0.061   2.188  14.881  0.5266 -0.6374  0.2830
19966TIP3    H281390  -0.054   2.251  14.803  0.2079  0.5485  1.6907
19967TIP3   OH281391   0.067   0.680  17.045 -0.0476  0.6120  0.7993
19967TIP3    H181392   0.089   0.637  17.127  1.3673  0.8403  0.5432
19967TIP3    H281393   0.005   0.620  17.002  0.6538 -0.3861  1.1714
19968TIP3   OH281394   2.551   4.850   6.246 -0.0046  0.1932  0.0428
19968TIP3    H181395   2.621   4.786   6.254  0.2545  0.6633  1.6300
19968TIP3    H281396   2.527   4.872   6.336 -0.7245  1.6266 -0.4743
19969TIP3   OH281397   1.760   1.937  13.146  0.1759  0.2715 -0.4476
19969TIP3    H181398   1.786   2.025  13.118  1.5910  0.2554  0.7445
19969TIP3    H281399   1.810   1.922  13.226 -0.7263 -1.2767 -0.1598
19970TIP3   OH281400   4.307   5.776  11.824  0.4742  0.5610 -0.0468
19970TIP3    H181401   4.309   5.863  11.864 -0.0888 -0.3891  2.1293
19970TIP3    H281402   4.339   5.717  11.892 -0.1836 -1.0704 -1.1114
19971TIP3   OH281403   2.287   4.788  16.249 -0.7773  0.3082  0.0845
19971TIP3    H181404   2.377   4.806  16.223 -0.9342 -0.5648 -1.0765
19971TIP3    H281405   2.233   4.825  16.180 -1.3417  1.1855  0.9728
19972TIP3   OH281406   6.493   5.380   0.009  0.5286  0.3670 -0.1754
19972TIP3    H181407   6.561   5.380   0.076  0.3328 -0.0142  0.0252
19972TIP3    H281408   6.524   5.442  -0.057  1.6718 -0.7478 -0.6982
19973TIP3   OH281409   5.858   3.940  12.830  0.4260 -0.0158  0.1419
19973TIP3    H181410   5.924   3.971  12.892 -0.0523 -0.3089  0.8121
19973TIP3    H281411   5.812   3.871  12.878 -1.6714  1.5237  0.4237
19974TIP3   OH281412   6.539   1.088   2.592  0.0741 -1.0586  0.4505
19974TIP3    H181413   6.560   1.144   2.666  0.3368 -2.1330  1.2082
19974TIP3    H281414   6.446   1.101   2.577  0.2696  0.0890  0.1696
19975TIP3   OH281415   4.420   5.035   2.538  0.5243 -0.0307 -0.1006
19975TIP3    H181416   4.416   5.114   2.484  0.4267 -0.9113 -1.4176
19975TIP3    H281417   4.422   4.963   2.474  0.3681 -1.0955  1.0788
19976TIP3   OH281418   1.927   4.875  11.560 -0.2874 -0.2025 -0.3118
19976TIP3    H181419   1.966   4.948  11.609 -1.9717 -0.2992  1.2231
19976TIP3    H281420   1.885   4.917  11.485 -0.4986  0.3153  0.0914
19977TIP3   OH281421   2.458   2.091  16.848 -0.1370  0.2097 -0.0003
19977TIP3    H181422   2.431   2.094  16.940 -0.4821 -2.1851  0.0041
19977TIP3    H281423   2.526   2.158  16.841  1.3967 -1.0168  2.4944
19978TIP3   OH281424   4.082   0.009  14.592  0.2543 -0.0571  0.8057
19978TIP3    H181425   4.071   0.062  14.671  0.5224 -2.4156  2.4777
19978TIP3    H281426   4.094  -0.080  14.625 -1.4855 -1.3785 -1.9625
19979TIP3   OH281427   4.983   0.540   2.961 -0.2560 -0.2596  0.1668
19979TIP3    H181428   5.037   0.474   3.005 -0.2999 -1.3225 -1.3220
19979TIP3    H281429   4.915   0.561   3.025  0.7307 -0.4271  1.2874
19980TIP3   OH281430   1.446   6.709  11.299  0.0367  0.2786 -0.5268
19980TIP3    H181431   1.510   6.697  11.369 -0.5220 -1.4545 -0.2777
19980TIP3    H281432   1.415   6.620  11.280 -1.1358  0.9304 -1.7299
19981TIP3   OH281433   3.116   2.888   2.403 -0.1384 -0.0157  0.0795
19981TIP3    H181434   3.196   2.887   2.455 -0.7298  2.1431  1.0744
19981TIP3    H281435   3.145   2.912   2.315  0.4234 -0.1971  0.2155
19982TIP3   OH281436   5.382   6.638   2.250 -0.4312  0.2582  0.2900
19982TIP3    H181437   5.338   6.720   2.231 -1.0246 -0.2422 -0.5323
19982TIP3    H281438   5.378   6.588   2.168  0.4422 -0.3536  0.5981
19983TIP3   OH281439   2.925   1.026  15.177 -0.4787  0.2506  0.3484
19983TIP3    H181440   2.927   1.056  15.086  3.1120  1.5142  0.7934
19983TIP3    H281441   2.976   0.945  15.177 -0.9818 -0.0744  1.1421
19984TIP3   OH281442   3.452   4.927  16.889 -0.3117  0.1040 -0.3176
19984TIP3    H181443   3.451   5.013  16.930 -1.7809 -0.0681  0.0331
19984TIP3    H281444   3.409   4.941  16.805 -1.4200 -0.4780  0.1487
19985TIP3   OH281445   3.521   3.627  12.180 -0.6967 -0.2299 -0.1892
19985TIP3    H181446   3.483   3.610  12.094 -1.0039  0.6532 -0.2275
19985TIP3    H281447   3.492   3.715  12.203  1.3314  0.4760 -0.2252
19986TIP3   OH281448   1.316   4.739   1.515  0.2445 -0.6499  0.8377
19986TIP3    H181449   1.358   4.818   1.482 -1.2786 -0.2739 -0.2287
19986TIP3    H281450   1.341   4.670   1.454 -1.3208 -0.2651 -0.2494
19987TIP3   OH281451   2.675   2.696  15.558  0.1046  0.2794  0.1262
19987TIP3    H181452   2.612   2.648  15.505  1.0428  0.6692 -1.3863
19987TIP3    H281453   2.665   2.787  15.532  1.4394  0.3172 -0.3292
19988TIP3   OH281454   6.205   6.420  16.359 -0.7096  0.2679  0.5935
19988TIP3    H181455   6.279   6.371  16.324 -0.6690  0.3447  0.5705
19988TIP3    H281456   6.245   6.491  16.409 -0.7831  1.1244 -0.5709
19989TIP3   OH281457   5.278   5.186   0.915  0.1271  0.4708  0.1199
19989TIP3    H181458   5.273   5.107   0.861 -0.9637  1.9982 -2.0998
19989TIP3    H281459   5.189   5.196   0.950  0.4997  0.2210  1.1615
19990TIP3   OH281460   1.688   6.593  12.984 -0.0541  0.1247 -0.0029
19990TIP3    H181461   1.628   6.667  12.975 -0.0388  0.0503 -0.7093
19990TIP3    H281462   1.692   6.578  13.079  1.0233  1.9123  0.2638
19991TIP3   OH281463   1.820   6.565   4.866  0.1393 -0.0124 -0.3092
19991TIP3    H181464   1.859   6.648   4.894 -2.5836  0.9582  0.7107
19991TIP3    H281465   1.782   6.584   4.781  1.5811 -0.8919 -1.1744
19992TIP3   OH281466   6.447   1.451   4.332 -0.0124 -0.0121  0.1202
19992TIP3    H181467   6.389   1.375   4.332 -1.4873  1.0397  2.6102
19992TIP3    H281468   6.410   1.510   4.266  0.7291 -1.1381 -1.3210
19993TIP3   OH281469   0.174   4.928  14.199  0.1102 -0.2221 -0.3355
19993TIP3    H181470   0.193   4.967  14.284 -1.2072  0.0875 -0.1732
19993TIP3    H281471   0.081   4.908  14.202  0.2168 -0.9347 -1.4176
19994TIP3   OH281472   0.949   2.499  10.870 -0.0280 -0.2663  0.0466
19994TIP3    H181473   0.894   2.496  10.792  0.6284 -0.4728 -0.4177
19994TIP3    H281474   0.922   2.424  10.922 -1.2928  0.5494  0.5890
19995TIP3   OH281475   2.313   6.334  14.358 -0.1604 -0.5835  0.2326
19995TIP3    H181476   2.285   6.384  14.435  0.0444  0.6355 -0.4786
19995TIP3    H281477   2.350   6.254  14.395 -1.7661 -0.8650  1.3235
19996TIP3   OH281478   5.549   5.497  16.310 -0.2150 -0.2046 -0.1927
19996TIP3    H181479   5.612   5.565  16.334  0.3105 -1.1616  1.1883
19996TIP3    H281480   5.546   5.500  16.214 -0.4079  1.9432 -0.1552
19997TIP3   OH281481   1.407   6.731   1.694 -0.0840 -0.1076  0.1494
19997TIP3    H181482   1.469   6.795   1.658  0.5321 -0.9926 -0.3776
19997TIP3    H281483   1.406   6.660   1.630  1.0541 -1.7175  1.8668
19998TIP3   OH281484   0.109   2.836  11.883 -0.4278 -0.6262  0.0124
19998TIP3    H181485   0.041   2.897  11.854 -0.8590 -1.4405 -0.6897
19998TIP3    H281486   0.078   2.750  11.857 -0.7635 -1.3895  2.7230
19999TIP3   OH281487   6.666   4.938   0.991 -0.4254  0.0872 -0.2426
19999TIP3    H181488   6.669   4.842   0.991 -1.7656  0.0376 -0.4140
19999TIP3    H281489   6.754   4.965   1.017 -0.7525 -1.2159  2.3810
20000TIP3   OH281490   2.444   6.725   1.014  0.0175 -0.0366 -0.2293
20000TIP3    H181491   2.500   6.774   1.074  0.5510 -0.8720 -0.0353
20000TIP3    H281492   2.407   6.655   1.068 -0.1952 -0.2608 -0.6637
20001TIP3   OH281493   2.194   3.544   6.043  0.5414 -0.0682  0.1913
20001TIP3    H181494   2.140   3.600   6.098 -0.6036 -1.2571  0.2858
20001TIP3    H281495   2.135   3.512   5.975  1.2895 -0.8024 -0.1194
20002TIP3   OH281496   1.772   1.372  12.393 -0.1384  0.6667  0.5031
20002TIP3    H181497   1.864   1.371  12.418  0.2582 -1.1832 -0.9601
20002TIP3    H281498   1.733   1.301  12.443 -0.4115  0.3361 -0.1762
20003TIP3   OH281499   5.653   4.665  13.012  0.4374 -0.4341  0.2203
20003TIP3    H181500   5.658   4.583  12.962 -0.5528 -0.9967  1.0276
20003TIP3    H281501   5.578   4.712  12.975 -0.6292 -1.0904  1.4983
20004TIP3   OH281502   3.639   5.202   5.679  0.2560 -0.2208  0.1636
20004TIP3    H181503   3.589   5.192   5.760  0.5210 -0.1965  0.3298
20004TIP3    H281504   3.715   5.144   5.690  1.1590  1.0146  0.6153
20005TIP3   OH281505   6.560   3.110   3.915  0.0040 -0.0202 -0.1777
20005TIP3    H181506   6.619   3.056   3.968 -1.6162 -0.0408  1.6808
20005TIP3    H281507   6.485   3.052   3.897 -1.1732  1.1806  0.7645
20006TIP3   OH281508   6.510   5.351  10.813  0.0308  0.1013 -0.3725
20006TIP3    H181509   6.442   5.412  10.840  2.8912  1.4426  4.2637
20006TIP3    H281510   6.486   5.268  10.855 -1.5906 -1.0110 -3.2864
20007TIP3   OH281511   0.796   0.980   2.606 -0.0631  0.9940  0.4201
20007TIP3    H181512   0.710   0.984   2.648 -1.4755 -0.8260 -2.1849
20007TIP3    H281513   0.809   0.888   2.587  0.7963  1.6763 -2.5397
20008TIP3   OH281514   0.489   3.065   0.132 -0.4334  0.0900  0.2545
20008TIP3    H181515   0.576   3.072   0.171 -0.9289  1.1480  1.1925
20008TIP3    H281516   0.454   2.982   0.166 -0.0420 -0.0230  0.3842
20009TIP3   OH281517   5.250   2.804   5.659  0.2589  0.9689  0.1367
20009TIP3    H181518   5.235   2.764   5.573  4.1136  1.3451 -0.8270
20009TIP3    H281519   5.294   2.736   5.709 -0.0701  1.4721  1.1149
20010TIP3   OH281520   5.332   3.936   4.562 -0.2366  0.0078 -0.0141
20010TIP3    H181521   5.280   3.872   4.513  0.3234 -1.8517  1.7462
20010TIP3    H281522   5.295   4.021   4.538 -0.9702 -0.9433 -2.4400
20011TIP3   OH281523   0.269   3.789  16.084 -0.2553 -0.7610  0.3625
20011TIP3    H181524   0.220   3.723  16.035 -0.7593  1.5043 -2.3542
20011TIP3    H281525   0.320   3.835  16.017  0.3092  1.3849  2.2081
20012TIP3   OH281526   3.975   5.845  16.018 -0.3753  0.3125 -0.4913
20012TIP3    H181527   3.981   5.939  16.002  0.3411  0.2788 -0.4659
20012TIP3    H281528   3.997   5.805  15.934 -1.1711  0.1729 -0.6298
20013TIP3   OH281529   4.530   3.412  12.628  0.3182 -0.8362 -0.0403
20013TIP3    H181530   4.604   3.372  12.583 -0.2165 -0.6884 -1.0756
20013TIP3    H281531   4.567   3.449  12.708  1.3102 -0.9698 -0.4360
20014TIP3   OH281532   0.753   1.924  11.114  0.2672  0.0039  0.1010
20014TIP3    H181533   0.814   1.994  11.135  0.4091  0.8120 -2.8493
20014TIP3    H281534   0.790   1.882  11.037 -0.5918 -2.3845  0.9456
20015TIP3   OH281535   3.969   1.219   4.584 -0.3952 -0.2624 -0.4142
20015TIP3    H181536   3.959   1.124   4.570 -0.8560 -0.4580  1.0789
20015TIP3    H281537   4.063   1.233   4.584 -0.1935 -1.1918  1.9511
20016TIP3   OH281538   2.884   4.530   5.638  0.1065 -0.2306  0.3934
20016TIP3    H181539   2.825   4.514   5.711 -0.6160 -1.9835 -0.5353
20016TIP3    H281540   2.874   4.624   5.619 -3.0346 -0.6598 -0.2927
20017TIP3   OH281541   5.660   1.271   4.890 -0.0318 -0.2291 -0.2842
20017TIP3    H181542   5.624   1.282   4.802 -0.2081 -1.9453 -0.4378
20017TIP3    H281543   5.754   1.269   4.877 -0.0492 -0.2811 -0.4090
20018TIP3   OH281544   3.102   1.247   0.338  0.2559  0.1526  0.3798
20018TIP3    H181545   3.139   1.319   0.287 -0.8225  2.3783  2.6742
20018TIP3    H281546   3.008   1.251   0.322  0.1647 -0.6133  0.6985
20019TIP3   OH281547   1.547   4.765  15.945 -0.6147  0.2877  0.3191
20019TIP3    H181548   1.581   4.710  15.874 -1.5459 -1.2694  1.0382
20019TIP3    H281549   1.625   4.806  15.983 -0.0791  0.8728 -1.3698
20020TIP3   OH281550   1.175   5.634   1.820 -0.4717 -0.2346 -0.1780
20020TIP3    H181551   1.160   5.553   1.869 -1.0628 -0.8903 -1.4171
20020TIP3    H281552   1.172   5.607   1.728 -1.2944  1.2880 -0.6166
20021TIP3   OH281553   1.487   2.176  15.507  0.7747  0.5219  0.0816
20021TIP3    H181554   1.421   2.112  15.482  0.8369  0.5065 -0.0429
20021TIP3    H281555   1.566   2.124  15.525  1.6900  0.7842 -2.8746
20022TIP3   OH281556   3.165   5.748  11.184 -0.3944  0.5490  0.0023
20022TIP3    H181557   3.249   5.705  11.165 -0.4357  0.5165 -0.1023
20022TIP3    H281558   3.163   5.754  11.280 -2.4648 -3.8514  0.3566
20023TIP3   OH281559   2.240   0.989  16.681  0.0026 -0.3902  0.6482
20023TIP3    H181560   2.295   1.065  16.699 -0.9076  0.3021  0.5856
20023TIP3    H281561   2.288   0.938  16.616  0.7413 -0.0017  0.8867
20024TIP3   OH281562   1.888   3.500  12.135  0.6869  0.1062 -0.5101
20024TIP3    H181563   1.795   3.511  12.120 -0.3059 -1.2145  3.8275
20024TIP3    H281564   1.925   3.587  12.120 -1.8567  1.5468  1.1705
20025TIP3   OH281565   4.013   0.958  13.412  0.0442  0.1892  0.1227
20025TIP3    H181566   3.930   0.927  13.376  0.5916 -1.1346 -0.0188
20025TIP3    H281567   3.992   1.043  13.452 -1.3295 -0.0532 -0.0774
20026TIP3   OH281568   4.798   1.641   2.957 -0.3584 -0.0879 -0.0977
20026TIP3    H181569   4.724   1.679   3.003 -0.2010 -3.1198  2.8003
20026TIP3    H281570   4.855   1.715   2.938 -1.3408  1.4824  2.8919
20027TIP3   OH281571   0.641   0.132  16.535 -0.0701 -1.2899  0.7255
20027TIP3    H181572   0.593   0.056  16.501 -0.5568  0.0894 -1.7927
20027TIP3    H281573   0.573   0.192  16.565  0.1866 -0.5886 -0.0778
20028TIP3   OH281574   3.735   5.836  14.725 -0.2779  0.2534 -0.2425
20028TIP3    H181575   3.706   5.744  14.727 -0.0232  0.1383 -1.2739
20028TIP3    H281576   3.817   5.836  14.775 -0.4286 -0.0247  0.0068
20029TIP3   OH281577   3.252   1.362   1.440  0.5775  0.9087 -0.2655
20029TIP3    H181578   3.332   1.364   1.491 -0.9208  0.7772  2.1754
20029TIP3    H281579   3.228   1.454   1.427  2.2037  1.0135 -2.8310
20030TIP3   OH281580   6.217   4.165   0.395  0.1556 -0.4416  0.5329
20030TIP3    H181581   6.277   4.239   0.403 -2.8722  2.1998 -0.5296
20030TIP3    H281582   6.230   4.115   0.475  3.1063  0.5473  0.7252
20031TIP3   OH281583   6.751   0.190   3.104  0.1372 -0.3317  0.0890
20031TIP3    H181584   6.723   0.237   3.025  0.2747 -0.6689 -0.1604
20031TIP3    H281585   6.755   0.098   3.077 -0.8255 -0.5837  0.7626
20032TIP3   OH281586   0.719   2.561   1.343  0.2332 -0.0989 -0.0075
20032TIP3    H181587   0.627   2.581   1.356 -0.1498 -0.7552 -1.5849
20032TIP3    H281588   0.763   2.645   1.352 -0.8382  0.7031 -1.9617
20033TIP3   OH281589   0.362   0.121   5.873  0.0498  0.5867 -0.5289
20033TIP3    H181590   0.304   0.134   5.798  1.0834  0.0663 -1.4235
20033TIP3    H281591   0.449   0.143   5.841  0.3441  1.5476  0.8669
20034TIP3   OH281592   6.100   6.497   3.470  0.3102 -0.3522  0.6710
20034TIP3    H181593   6.165   6.428   3.484 -0.3638 -1.1619 -0.1882
20034TIP3    H281594   6.084   6.497   3.376  0.3992  1.0772  0.6342
20035TIP3   OH281595   3.738   3.570   3.466  0.1211  0.6307 -0.3990
20035TIP3    H181596   3.780   3.499   3.515 -1.0911 -0.8446 -1.4751
20035TIP3    H281597   3.688   3.618   3.532  0.3674  0.0623  0.2053
20036TIP3   OH281598   1.435   5.977   5.152 -0.3258  0.2456 -0.1457
20036TIP3    H181599   1.357   5.990   5.205 -0.2599 -1.4284  0.3948
20036TIP3    H281600   1.508   5.981   5.214 -0.2901 -2.2927  0.0285
20037TIP3   OH281601   2.838   4.755  11.851  0.6225 -0.0399 -0.4096
20037TIP3    H181602   2.797   4.813  11.787  1.0262  0.1289 -0.5142
20037TIP3    H281603   2.819   4.667  11.819 -0.7429  0.0113  0.2148
20038TIP3   OH281604   4.720   6.700  14.589  0.0440 -0.1566 -0.5360
20038TIP3    H181605   4.727   6.680  14.495  0.2769 -1.1300 -0.3183
20038TIP3    H281606   4.717   6.614  14.631 -0.4977  0.2840  0.3178
20039TIP3   OH281607   5.857   4.756  14.931 -1.0024  0.3975  0.2199
20039TIP3    H181608   5.929   4.694  14.926 -0.6565  0.7332  0.9541
20039TIP3    H281609   5.787   4.717  14.878 -0.6895 -0.4866  0.4566
20040TIP3   OH281610   0.739   2.717   1.077 -0.1397  0.5739  0.0573
20040TIP3    H181611   0.828   2.680   1.077  0.2788  1.5589 -0.0021
20040TIP3    H281612   0.728   2.752   1.165 -0.7644 -0.2287  0.3029
20041TIP3   OH281613   0.731   3.610  15.891 -0.1251 -0.0547 -0.1158
20041TIP3    H181614   0.693   3.527  15.862  0.1353 -0.1389 -0.2123
20041TIP3    H281615   0.728   3.667  15.814  1.8983 -0.7398 -0.7206
20042TIP3   OH281616   1.357   1.156   0.544 -0.0051  0.2037  0.6425
20042TIP3    H181617   1.390   1.155   0.634 -1.0517  0.1200  1.0234
20042TIP3    H281618   1.365   1.065   0.515 -0.1564  0.1323  0.8248
20043TIP3   OH281619   5.384   0.125  15.457  0.4343 -0.1029 -0.2430
20043TIP3    H181620   5.479   0.110  15.457  0.4327 -0.1269  0.2080
20043TIP3    H281621   5.353   0.081  15.536  0.3139  1.5255  0.6388
20044TIP3   OH281622   3.329   0.699   0.969  0.0174 -0.0551  0.6002
20044TIP3    H181623   3.250   0.659   0.933  0.6662  0.5811 -1.6270
20044TIP3    H281624   3.306   0.791   0.981  0.4444  0.1623 -0.1931
20045TIP3   OH281625   5.121   2.347   0.137 -0.7650  0.4628  0.0639
20045TIP3    H181626   5.181   2.293   0.084 -0.4870 -0.3001  1.1484
20045TIP3    H281627   5.135   2.436   0.104 -1.6553 -0.1872 -2.1351
20046TIP3   OH281628   5.883   4.158  15.649 -0.0855 -0.2184  0.2581
20046TIP3    H181629   5.882   4.075  15.602 -1.7154 -0.4747  0.7220
20046TIP3    H281630   5.922   4.138  15.734  1.3917 -0.0792 -0.3707
20047TIP3   OH281631   0.035   1.436   5.004 -0.4941 -0.0483 -0.2942
20047TIP3    H181632  -0.012   1.415   5.084  0.1096 -1.2035 -0.2409
20047TIP3    H281633   0.113   1.382   5.007 -0.4335 -0.0500 -1.6307
20048TIP3   OH281634   4.745   3.390  13.257  0.0357 -0.4066  0.2744
20048TIP3    H181635   4.824   3.425  13.214  1.5878 -2.2265  1.5363
20048TIP3    H281636   4.675   3.406  13.194  1.5493  0.6032 -1.2096
20049TIP3   OH281637   6.248   0.910  15.122 -0.2707  0.4826  0.0837
20049TIP3    H181638   6.217   0.860  15.198 -1.6998  0.7505 -0.3215
20049TIP3    H281639   6.191   0.885  15.050  0.7367  0.6460 -0.7932
20050TIP3   OH281640   4.019   4.260  16.324 -0.6823 -0.6008 -0.4630
20050TIP3    H181641   3.953   4.191  16.330 -1.3589  0.0917  0.1792
20050TIP3    H281642   3.971   4.338  16.298 -0.0435 -0.1955 -0.4602
20051TIP3   OH281643   5.847   2.936  16.032 -0.3818  0.5633  0.5465
20051TIP3    H181644   5.895   2.942  16.115 -0.4856  0.8397  0.5863
20051TIP3    H281645   5.790   2.860  16.043  1.2075 -0.7709 -0.0880
20052TIP3   OH281646   2.634   6.353   2.438 -0.1000 -0.6036 -0.1303
20052TIP3    H181647   2.638   6.396   2.524  1.6294 -0.1541 -0.4171
20052TIP3    H281648   2.702   6.285   2.443 -0.4438 -1.0027 -0.9210
20053TIP3   OH281649   6.396   3.135  14.510  0.7299 -0.0009 -0.2216
20053TIP3    H181650   6.364   3.219  14.476 -1.0067  0.1682  1.7248
20053TIP3    H281651   6.446   3.097  14.438 -0.4821  1.6138 -1.9578
20054TIP3   OH281652   3.893   3.095  14.113  0.2024 -0.7922 -0.3003
20054TIP3    H181653   3.880   3.007  14.147 -1.0913 -0.0739  1.1838
20054TIP3    H281654   3.862   3.091  14.022 -3.1972 -1.0664  0.7929
20055TIP3   OH281655   5.266   5.062  15.492 -0.4295 -0.2600  0.5401
20055TIP3    H181656   5.170   5.068  15.494 -0.4380 -0.6104  1.7336
20055TIP3    H281657   5.285   4.975  15.527  0.2506 -1.0348 -1.6798
20056TIP3   OH281658   3.138   1.893   6.684  1.0821 -0.4272  0.1704
20056TIP3    H181659   3.111   1.827   6.620 -0.7030  1.0498 -0.6600
20056TIP3    H281660   3.204   1.850   6.737  2.3699 -1.8233 -2.4457
20057TIP3   OH281661   1.856   0.128   6.392 -0.3240  0.4792  0.2001
20057TIP3    H181662   1.797   0.121   6.317  1.3950 -0.1044 -1.1217
20057TIP3    H281663   1.858   0.222   6.411 -0.0130  0.7570 -1.1278
20058TIP3   OH281664   0.167   6.325   6.854  0.4554 -0.0758 -0.5648
20058TIP3    H181665   0.145   6.413   6.885 -0.0100 -0.8686  1.3885
20058TIP3    H281666   0.198   6.339   6.764  0.8617  2.1416 -0.1205
20059TIP3   OH281667   2.603   3.647  12.586  0.5855  0.1063 -0.1677
20059TIP3    H181668   2.684   3.677  12.544  1.1379  1.3514  1.7136
20059TIP3    H281669   2.611   3.552  12.588  1.4329  0.1456 -1.1046
20060TIP3   OH281670   5.391   1.618  15.488  0.1142 -0.0977 -0.2122
20060TIP3    H181671   5.428   1.648  15.570 -0.3227  0.1632 -0.1049
20060TIP3    H281672   5.297   1.612  15.505  0.0457 -0.2428 -0.6291
20061TIP3   OH281673   2.032   2.934   2.178 -0.8485 -0.3295 -0.4685
20061TIP3    H181674   2.122   2.919   2.206 -0.5409  0.6538 -0.9077
20061TIP3    H281675   2.035   2.933   2.083 -1.2666 -0.1029 -0.4874
20062TIP3   OH281676   6.141   6.257  15.974 -0.2114 -0.3595 -0.1250
20062TIP3    H181677   6.213   6.229  15.917 -0.0820 -1.2924  0.4832
20062TIP3    H281678   6.063   6.250  15.920 -0.0591 -1.0232 -0.2645
20063TIP3   OH281679   0.120   1.211   3.132 -0.3800  0.3354  0.0715
20063TIP3    H181680   0.136   1.300   3.164 -0.6033  0.3918  0.0290
20063TIP3    H281681   0.205   1.181   3.100 -0.3604  0.6333 -0.1577
20064TIP3   OH281682   4.197   0.308  13.479  0.0360  0.2807 -0.5072
20064TIP3    H181683   4.116   0.258  13.467 -0.1795  0.4080  0.3115
20064TIP3    H281684   4.167   0.392  13.516  0.4458  0.7683 -1.2843
20065TIP3   OH281685   4.293   3.731  15.513  0.1869 -0.3981 -0.0105
20065TIP3    H181686   4.334   3.707  15.596  0.1585  0.1591  0.1634
20065TIP3    H281687   4.236   3.657  15.492 -0.2368 -0.2888  0.7459
20066TIP3   OH281688   3.560   4.729  17.038  0.2656  0.1825  0.3791
20066TIP3    H181689   3.501   4.733  17.113  0.8642  0.0486  0.8563
20066TIP3    H281690   3.530   4.799  16.980 -0.9634 -0.4851  0.1730
20067TIP3   OH281691   3.825   5.625   3.416  0.5216 -0.0376 -0.8055
20067TIP3    H181692   3.891   5.689   3.387 -0.1961  0.8613 -0.4663
20067TIP3    H281693   3.759   5.677   3.460  1.1510 -1.3082  1.7109
20068TIP3   OH281694   3.802   1.893   1.077  0.4271 -0.4936 -0.7304
20068TIP3    H181695   3.824   1.847   0.996  1.4801 -1.4933  0.1126
20068TIP3    H281696   3.710   1.873   1.092  0.3264 -0.6074 -1.4786
20069TIP3   OH281697   0.689   2.843   1.565  0.3837 -0.3903 -0.0137
20069TIP3    H181698   0.744   2.797   1.628 -1.0868 -0.8627  0.9364
20069TIP3    H281699   0.601   2.835   1.599 -0.2940  0.3644 -1.5302
20070TIP3   OH281700   3.674   4.341   1.417 -0.0178 -0.2196  0.1837
20070TIP3    H181701   3.718   4.403   1.359  0.0294 -0.8751 -0.4844
20070TIP3    H281702   3.731   4.264   1.419 -2.2060 -2.0425 -2.6059
20071TIP3   OH281703   4.565   4.627   0.404  0.4231  0.4972 -0.1672
20071TIP3    H181704   4.556   4.621   0.309 -0.1338 -0.1098 -0.0788
20071TIP3    H281705   4.549   4.538   0.435  2.8376  0.1844  0.3239
20072TIP3   OH281706   1.774   5.098   3.833 -0.6413 -0.0401  0.6958
20072TIP3    H181707   1.691   5.073   3.873 -0.7445 -0.2548  0.3531
20072TIP3    H281708   1.771   5.194   3.829 -1.3723 -0.0901 -0.3545
20073TIP3   OH281709   0.674   2.366   4.224 -0.6394 -0.7371 -0.0964
20073TIP3    H181710   0.749   2.362   4.165 -0.2679  1.6783  0.1703
20073TIP3    H281711   0.700   2.314   4.300  0.3126 -0.8296 -0.4830
20074TIP3   OH281712   3.200   6.001   1.095 -0.3884  0.4025  0.2617
20074TIP3    H181713   3.247   6.066   1.148 -0.3013 -0.8311  1.7417
20074TIP3    H281714   3.107   6.019   1.112 -0.3623  0.0868  0.7429
20075TIP3   OH281715   5.629   3.699  13.802  0.5378  0.0747 -0.2261
20075TIP3    H181716   5.694   3.676  13.736 -1.2160 -0.8239 -1.7063
20075TIP3    H281717   5.545   3.681  13.759 -0.6594  0.4829  1.8940
20076TIP3   OH281718   5.089   4.606   3.975 -0.7782 -0.1981 -0.1948
20076TIP3    H181719   5.078   4.538   4.041 -2.9536 -1.2932 -1.6619
20076TIP3    H281720   5.072   4.688   4.023  1.0733 -0.6798  1.3773
20077TIP3   OH281721   6.716   1.558  15.691  0.0045  0.0618  0.1911
20077TIP3    H181722   6.807   1.574  15.719  0.4187 -1.2862 -0.3243
20077TIP3    H281723   6.677   1.512  15.765  0.2090 -0.7787 -0.2207
20078TIP3   OH281724   4.388   6.079  12.779  0.1464 -0.2182  0.2244
20078TIP3    H181725   4.448   6.049  12.847  0.8003 -0.7548 -0.5802
20078TIP3    H281726   4.372   6.001  12.725  0.5918  0.5020 -0.9494
20079TIP3   OH281727   1.834   6.388   0.027 -0.2837  0.1372  0.2823
20079TIP3    H181728   1.775   6.313   0.020 -0.1668  0.1213 -0.6494
20079TIP3    H281729   1.838   6.407   0.121 -3.4530  1.5085  0.2017
20080TIP3   OH281730   0.702   1.523   4.212 -0.2803  0.2281  0.2446
20080TIP3    H181731   0.748   1.543   4.294 -1.4533  1.4980  0.6149
20080TIP3    H281732   0.648   1.447   4.233  0.2091 -0.0868  0.3575
20081TIP3   OH281733   5.747   5.000   1.208 -0.2352 -0.0413 -0.1584
20081TIP3    H181734   5.838   4.969   1.211  0.2372  1.3703  1.0166
20081TIP3    H281735   5.746   5.065   1.138 -0.2631  0.1333  0.0020
20082TIP3   OH281736   2.192   1.558   3.365  0.1338 -0.0055  0.2019
20082TIP3    H181737   2.155   1.581   3.450 -0.1405 -1.5647  0.5140
20082TIP3    H281738   2.286   1.551   3.382  0.2070  0.7295  0.1294
20083TIP3   OH281739   2.153   1.517  17.043  0.0723  0.1512 -0.3999
20083TIP3    H181740   2.135   1.487  17.132  0.4605  0.2072 -0.3020
20083TIP3    H281741   2.075   1.491  16.993 -0.5227  0.8731  0.1303
20084TIP3   OH281742   0.027   4.379   0.715  0.5260 -0.1066  0.1272
20084TIP3    H181743  -0.050   4.436   0.707 -1.3925 -2.8035 -1.5725
20084TIP3    H281744   0.086   4.410   0.646 -0.6497 -0.3990 -1.0252
20085TIP3   OH281745   4.211   5.258   5.346  0.3376 -0.4071  0.7111
20085TIP3    H181746   4.145   5.197   5.380 -0.8992  1.4165  1.6854
20085TIP3    H281747   4.164   5.309   5.280  0.9883  0.3925  0.8696
20086TIP3   OH281748   2.547   3.415   4.029  0.2212 -0.1141 -0.3642
20086TIP3    H181749   2.513   3.329   4.005  0.5736  0.1470 -1.9034
20086TIP3    H281750   2.470   3.472   4.031 -0.0162 -0.4581  0.6873
20087TIP3   OH281751   0.074   6.478   0.071  0.1385  0.6866 -0.1771
20087TIP3    H181752   0.013   6.543   0.106 -0.9479 -0.2152 -0.3410
20087TIP3    H281753   0.027   6.394   0.082  1.1638  0.0360 -0.7334
20088TIP3   OH281754   1.012   6.376   2.414 -0.3311  0.1560  0.3586
20088TIP3    H181755   1.002   6.464   2.452 -2.3737  2.1161 -4.2540
20088TIP3    H281756   0.994   6.316   2.486 -0.1879  3.5144  3.3406
20089TIP3   OH281757   1.561   2.774  11.832 -0.1327  0.3152 -0.2374
20089TIP3    H181758   1.571   2.838  11.902 -1.0780  0.3435 -0.1161
20089TIP3    H281759   1.511   2.819  11.764 -1.4874 -0.5132  0.1758
20090TIP3   OH281760   3.511   5.938   2.287 -0.5130 -0.2086  0.5421
20090TIP3    H181761   3.601   5.968   2.304 -0.9634  1.5043 -0.0224
20090TIP3    H281762   3.461   5.967   2.363 -0.8464 -0.0098  0.2485
20091TIP3   OH281763   5.071   1.505   5.477 -0.9505 -0.2315 -0.1204
20091TIP3    H181764   5.032   1.496   5.390 -1.7566 -0.2615  0.2331
20091TIP3    H281765   5.163   1.526   5.461 -1.2807  0.5870 -0.9764
20092TIP3   OH281766   2.626   2.443  15.366 -0.3129  0.0879 -0.6300
20092TIP3    H181767   2.709   2.476  15.330 -0.3637  2.2858  1.1010
20092TIP3    H281768   2.559   2.482  15.311 -0.2811  1.0124 -0.0372
20093TIP3   OH281769   5.793   3.712   0.968  0.5364  0.0692 -0.4476
20093TIP3    H181770   5.794   3.706   0.872  0.1558 -0.1548 -0.4358
20093TIP3    H281771   5.789   3.806   0.985 -0.3382  0.0803 -0.6626
20094TIP3   OH281772   4.761   3.609  16.804 -0.2605  0.2413 -0.1817
20094TIP3    H181773   4.675   3.638  16.835 -0.9224 -2.0109  0.1952
20094TIP3    H281774   4.759   3.513  16.814  2.0362  0.0982 -0.8161
20095TIP3   OH281775   0.696   1.934   5.192 -0.4105 -0.0119  0.6076
20095TIP3    H181776   0.774   1.879   5.193 -0.7677 -0.6145 -1.4436
20095TIP3    H281777   0.713   1.998   5.123 -0.5217  1.6722  2.1315
20096TIP3   OH281778   0.330   5.134   4.585  0.2973 -0.2613  0.5519
20096TIP3    H181779   0.403   5.166   4.639 -0.2046  0.0470  1.0550
20096TIP3    H281780   0.258   5.123   4.647 -0.4440  0.6257 -0.1376
20097TIP3   OH281781   1.175   1.152   4.030 -0.0706 -0.2949  0.0726
20097TIP3    H181782   1.201   1.067   4.066 -0.8616 -0.5764 -0.0046
20097TIP3    H281783   1.175   1.139   3.935  2.2043  0.5015 -0.0652
20098TIP3   OH281784   2.717   0.856  16.448 -0.0160 -0.1817  0.1392
20098TIP3    H181785   2.756   0.769  16.439 -0.8349 -0.5846  0.3913
20098TIP3    H281786   2.695   0.881  16.358 -1.2329 -0.9326  0.2043
20099TIP3   OH281787   1.995   0.916   1.666  0.1420  0.8686 -1.1000
20099TIP3    H181788   1.924   0.869   1.709  1.7898 -0.1208  0.6187
20099TIP3    H281789   2.032   0.971   1.734  1.6125  0.6675 -1.7151
20100TIP3   OH281790   1.989   6.240  14.742 -0.3743 -0.3588  0.1678
20100TIP3    H181791   1.946   6.313  14.786  1.5591  1.6314 -1.1401
20100TIP3    H281792   2.079   6.242  14.777 -0.0323 -1.4713 -0.6452
20101TIP3   OH281793   0.104   0.246  16.919  0.0736 -0.0088  0.5946
20101TIP3    H181794   0.192   0.224  16.888 -0.3724 -0.5547 -0.3250
20101TIP3    H281795   0.069   0.162  16.950 -0.2942  0.1151  0.5120
20102TIP3   OH281796   0.511   5.592  11.227  0.6240  0.1043 -0.3116
20102TIP3    H181797   0.548   5.503  11.226 -0.6935 -0.4481 -0.7651
20102TIP3    H281798   0.511   5.618  11.135  0.2866  0.2667 -0.2650
20103TIP3   OH281799   2.653   6.452  11.929 -0.2400 -0.0346 -0.4997
20103TIP3    H181800   2.715   6.494  11.988  0.9719 -1.3061 -0.8483
20103TIP3    H281801   2.623   6.522  11.871  1.6143  0.3825 -0.9606
20104TIP3   OH281802   5.164   0.514   4.609  0.0617 -0.0706 -0.6263
20104TIP3    H181803   5.220   0.436   4.610  0.8360  0.4846  0.0357
20104TIP3    H281804   5.123   0.513   4.523  2.7519  0.6600 -1.9697
20105TIP3   OH281805   3.172   5.281  12.729 -0.3768 -0.7325  0.3357
20105TIP3    H181806   3.196   5.220  12.659 -0.8871 -1.3565  0.6970
20105TIP3    H281807   3.256   5.310  12.765 -0.1251 -1.6085  0.4812
20106TIP3   OH281808   4.217   1.596   3.932 -0.5818 -0.0735  0.6713
20106TIP3    H181809   4.138   1.560   3.975 -1.0158 -0.7377 -0.6520
20106TIP3    H281810   4.251   1.522   3.881  0.9127  0.2157  1.2410
20107TIP3   OH281811   3.092   1.302  14.621  0.2271  0.1031  0.0484
20107TIP3    H181812   3.044   1.266  14.695 -0.7201  1.4582  0.1219
20107TIP3    H281813   3.177   1.326  14.657  0.3981 -0.8584  0.2881
20108TIP3   OH281814   6.410   0.638  16.798 -0.2148  0.1158  0.6728
20108TIP3    H181815   6.422   0.564  16.858  4.1306  1.2144  1.3699
20108TIP3    H281816   6.414   0.716  16.855 -0.4484  1.0214 -0.5371
20109TIP3   OH281817   1.585   0.297  12.967  0.4267  0.7682  0.0218
20109TIP3    H181818   1.643   0.359  13.012  0.2160 -0.1974  1.6698
20109TIP3    H281819   1.531   0.352  12.910  0.7137  2.0384  0.9563
20110TIP3   OH281820   1.785   1.552   6.051  0.1259  0.2706 -0.4076
20110TIP3    H181821   1.867   1.529   6.094  0.2700 -1.3215 -1.4976
20110TIP3    H281822   1.810   1.565   5.959 -0.3553  2.5878 -0.2496
20111TIP3   OH281823   5.564   2.348   4.625  0.3679 -0.6400 -0.3080
20111TIP3    H181824   5.547   2.263   4.666  1.5974  0.6156  3.0114
20111TIP3    H281825   5.492   2.360   4.563 -1.9849 -2.3764  1.9631
20112TIP3   OH281826   3.978   0.697  16.865 -0.6990  0.4329  0.6900
20112TIP3    H181827   3.957   0.604  16.870 -1.1858  0.4323 -1.0595
20112TIP3    H281828   3.911   0.740  16.919 -1.6798 -0.0741 -0.1106
20113TIP3   OH281829   3.481   2.415  11.739 -0.2978 -0.0385 -0.2222
20113TIP3    H181830   3.503   2.323  11.750  1.1500  0.3608  0.2087
20113TIP3    H281831   3.532   2.461  11.805 -0.4237  1.1543 -0.9306
20114TIP3   OH281832   6.778   3.609   3.116  0.0650  0.3924 -0.1253
20114TIP3    H181833   6.854   3.648   3.073  1.3278 -1.8057  0.0541
20114TIP3    H281834   6.724   3.575   3.045 -0.5142  1.4598 -0.2186
20115TIP3   OH281835   6.624   2.326   3.099  0.0519 -0.6265 -0.7453
20115TIP3    H181836   6.608   2.390   3.169  0.6895  1.5303 -2.5216
20115TIP3    H281837   6.714   2.297   3.114 -1.0825 -3.1722  1.6338
20116TIP3   OH281838   3.352   5.372  15.294  0.0354  0.5901  0.6313
20116TIP3    H181839   3.395   5.286  15.294 -2.2807 -0.6463 -1.6031
20116TIP3    H281840   3.279   5.362  15.355 -1.8911  0.0089 -1.6748
20117TIP3   OH281841   1.054   5.797   0.285 -0.4052 -0.4581  0.4290
20117TIP3    H181842   1.129   5.746   0.254 -1.8295 -1.8397 -0.8126
20117TIP3    H281843   1.064   5.883   0.243 -1.3464 -1.7302 -2.4996
20118TIP3   OH281844   4.699   2.574   5.660 -0.0020  0.4700 -0.1803
20118TIP3    H181845   4.768   2.508   5.659  0.5971  1.0733  0.4777
20118TIP3    H281846   4.696   2.605   5.750 -1.3680  0.2166 -0.1256
20119TIP3   OH281847   2.233   4.751  13.149 -0.2178 -0.4046  0.1413
20119TIP3    H181848   2.258   4.661  13.170  0.4862 -0.0725  0.7224
20119TIP3    H281849   2.145   4.743  13.112  1.0970 -1.6949 -2.8618
20120TIP3   OH281850   6.784   5.989  11.625  0.3513 -0.3557  0.4865
20120TIP3    H181851   6.838   5.917  11.592  0.2534 -0.1533 -0.1310
20120TIP3    H281852   6.744   6.026  11.546 -2.6821 -2.1011  1.1428
20121TIP3   OH281853   3.205   5.828  12.101  0.0098  0.3964 -0.1416
20121TIP3    H181854   3.239   5.802  12.016 -1.1838 -0.9206 -0.2222
20121TIP3    H281855   3.137   5.765  12.121 -0.9120  1.7149  1.0133
20122TIP3   OH281856   1.049   2.058   6.294  0.3392 -0.0856 -0.3446
20122TIP3    H181857   1.110   1.984   6.299  2.1208  1.4703  1.4991
20122TIP3    H281858   0.993   2.049   6.371  1.7859  1.4973  0.9332
20123TIP3   OH281859   5.257   1.021  14.722 -0.1566 -0.5625  0.3486
20123TIP3    H181860   5.187   0.958  14.736  0.1035 -0.6301  1.3817
20123TIP3    H281861   5.301   1.028  14.806  0.8623 -0.2498 -0.1958
20124TIP3   OH281862   1.267   5.439   0.796 -0.0269  0.2762  0.2584
20124TIP3    H181863   1.274   5.451   0.890  1.5453 -0.4886  0.2362
20124TIP3    H281864   1.281   5.526   0.759 -0.3246  0.5110  0.6985
20125TIP3   OH281865   6.072   1.521  12.050  0.3370  0.3224 -0.8671
20125TIP3    H181866   6.132   1.467  11.999 -0.2806 -0.8683 -0.3568
20125TIP3    H281867   5.990   1.520  11.999 -0.9721 -2.6640  1.1553
20126TIP3   OH281868   5.218   4.474   4.718  0.4317  0.3611 -0.3176
20126TIP3    H181869   5.233   4.560   4.757  0.1989  1.5381 -2.7255
20126TIP3    H281870   5.304   4.447   4.684  0.4864 -0.3126  0.3531
20127TIP3   OH281871   4.333   0.833   1.754 -0.9853 -0.7192 -0.3658
20127TIP3    H181872   4.349   0.898   1.822 -2.1941 -1.0068  0.2029
20127TIP3    H281873   4.346   0.880   1.672 -1.0057  0.0242  0.0576
20128TIP3   OH281874   3.326   4.985  15.888 -0.0441 -0.0606  0.1445
20128TIP3    H181875   3.270   4.983  15.965  0.6581  0.0342  0.6597
20128TIP3    H281876   3.320   4.897  15.852 -0.2186 -0.1615  0.4178
20129TIP3   OH281877   6.811   4.469   1.790  0.8042  0.5294  0.2959
20129TIP3    H181878   6.793   4.467   1.697  0.4961  0.0818  0.3646
20129TIP3    H281879   6.726   4.480   1.832  0.7982 -0.4660  0.5688
20130TIP3   OH281880   4.327   4.432  16.955 -0.0112 -0.0302 -0.1406
20130TIP3    H181881   4.258   4.485  16.916 -0.0427 -0.2500 -0.3885
20130TIP3    H281882   4.402   4.443  16.897  0.4516  0.9597  0.6460
20131TIP3   OH281883   2.437   4.695   3.384 -0.5524  0.4235 -0.6837
20131TIP3    H181884   2.414   4.788   3.376 -0.8573  0.6803  2.5458
20131TIP3    H281885   2.357   4.648   3.362 -0.7593  0.9487 -1.0693
20132TIP3   OH281886   0.237   3.269  10.795  0.2260  0.0003  0.2015
20132TIP3    H181887   0.150   3.268  10.753  0.2531 -2.3797  0.1266
20132TIP3    H281888   0.269   3.358  10.781 -0.6276 -0.1379 -3.0759
20133TIP3   OH281889   2.661   3.681  17.001  0.1777 -0.1865  0.3108
20133TIP3    H181890   2.574   3.697  16.966  0.2585  0.7265  0.5263
20133TIP3    H281891   2.719   3.687  16.925  0.0237 -1.0651  0.1234
20134TIP3   OH281892   1.181   1.265  13.601 -0.3489 -0.2266  0.2251
20134TIP3    H181893   1.213   1.176  13.584  0.1451  0.1896 -1.0539
20134TIP3    H281894   1.122   1.284  13.528 -1.0305  0.2267  0.8819
20135TIP3   OH281895   5.961   5.393  13.267  0.1838  0.6440 -0.6403
20135TIP3    H181896   5.872   5.360  13.282  0.3568  0.2911 -0.3847
20135TIP3    H281897   6.018   5.331  13.314  0.4850  1.5024  0.1432
20136TIP3   OH281898   3.763   5.912   3.140  0.0229  0.0845 -0.0768
20136TIP3    H181899   3.682   5.917   3.190  1.2762 -1.7088  2.2187
20136TIP3    H281900   3.746   5.843   3.075 -0.1958 -0.5499  0.6390
20137TIP3   OH281901   1.450   5.982   2.918 -0.3139  0.0353 -0.5051
20137TIP3    H181902   1.495   6.056   2.878  0.1286  1.7706  3.0187
20137TIP3    H281903   1.519   5.921   2.942 -0.3231  0.2770  0.1367
20138TIP3   OH281904   0.102   6.021  16.733 -0.3100 -0.0958  0.8362
20138TIP3    H181905   0.041   5.987  16.798 -1.3276  1.2600  0.5997
20138TIP3    H281906   0.121   6.111  16.762  0.4340 -0.0082  0.1071
20139TIP3   OH281907   0.944   6.383   1.993  0.1799 -0.3118 -0.0500
20139TIP3    H181908   0.867   6.405   2.044  0.1935  0.3292 -0.2951
20139TIP3    H281909   0.946   6.287   1.991 -1.2943 -0.3317 -1.0738
20140TIP3   OH281910   0.099   2.976  13.564 -0.0018 -0.2558  0.5227
20140TIP3    H181911   0.161   2.940  13.628  1.9696  0.9752 -0.6319
20140TIP3    H281912   0.042   3.033  13.616  1.3051  0.4089  1.2597
20141TIP3   OH281913   0.106   0.940  15.825 -0.2070 -0.0548  0.3877
20141TIP3    H181914   0.120   1.019  15.877 -0.8988  0.3797 -0.0829
20141TIP3    H281915   0.189   0.928  15.778 -1.2306  2.3583 -2.1789
20142TIP3   OH281916   2.694   3.395   1.883 -0.3969  0.2086  0.4743
20142TIP3    H181917   2.665   3.304   1.881  1.0406 -0.2629  0.4359
20142TIP3    H281918   2.681   3.427   1.794  1.1079 -0.6183 -0.0570
20143TIP3   OH281919   6.130   6.639  15.255  0.2259 -0.2619 -0.1628
20143TIP3    H181920   6.119   6.544  15.265  1.0337 -0.1417  2.1365
20143TIP3    H281921   6.213   6.658  15.298 -0.3647  1.6114  0.1709
20144TIP3   OH281922   5.063   5.346   4.506  0.2513  0.3501 -0.3497
20144TIP3    H181923   5.090   5.393   4.427 -2.1399  0.7638 -0.9691
20144TIP3    H281924   5.133   5.363   4.570  0.7142  2.5597 -1.3988
20145TIP3   OH281925   1.004   5.468   1.203 -0.1832  0.1634 -0.4802
20145TIP3    H181926   0.991   5.542   1.145  1.2881  0.6938 -0.1491
20145TIP3    H281927   1.022   5.507   1.289  1.3817 -0.5379 -0.4649
20146TIP3   OH281928   0.765   5.005   3.494 -0.2668  0.6718 -0.1024
20146TIP3    H181929   0.710   5.059   3.437 -0.9455  1.6119  1.3937
20146TIP3    H281930   0.716   4.924   3.505 -0.6481  0.9162  0.0134
20147TIP3   OH281931   3.613   3.042  12.405 -0.0064 -0.1430 -0.6054
20147TIP3    H181932   3.539   3.099  12.427  0.1584  1.0626 -3.0160
20147TIP3    H281933   3.653   3.022  12.489 -1.5203  1.3300  0.5125
20148TIP3   OH281934   5.099   0.656   5.946  0.0463  0.2616 -0.0441
20148TIP3    H181935   5.122   0.651   5.853  2.8086 -0.9572  0.6606
20148TIP3    H281936   5.104   0.749   5.967 -0.2872  0.5082 -1.0294
20149TIP3   OH281937   3.233   5.442  15.627 -0.1032  0.2243 -0.4468
20149TIP3    H181938   3.208   5.350  15.618 -0.7083  0.3676 -0.2401
20149TIP3    H281939   3.327   5.443  15.609 -0.1840 -0.3657 -0.9307
20150TIP3   OH281940   3.241   3.885  12.970  0.0601 -0.7534 -0.5329
20150TIP3    H181941   3.272   3.916  13.055 -1.5094  0.3043 -0.3318
20150TIP3    H281942   3.243   3.789  12.977  2.8320 -0.7066 -0.3903
20151TIP3   OH281943   4.879   2.547   0.621  0.2703  0.0355  0.3670
20151TIP3    H181944   4.881   2.452   0.627 -0.0386  0.0450  0.6723
20151TIP3    H281945   4.786   2.568   0.612  0.3003  0.3276  0.7132
20152TIP3   OH281946   1.273   4.255   6.590 -0.5674  0.5062 -0.6904
20152TIP3    H181947   1.319   4.338   6.600 -1.2545  0.9008 -0.7185
20152TIP3    H281948   1.237   4.259   6.501 -1.1265  0.4566 -0.4695
20153TIP3   OH281949   5.910   5.828   4.062  0.4919 -0.4162  0.1101
20153TIP3    H181950   5.995   5.785   4.060  1.3023  1.1266 -0.2455
20153TIP3    H281951   5.862   5.790   3.988  1.1223 -0.8174 -0.0956
20154TIP3   OH281952   3.458   5.178  12.820  0.9698  0.1844  0.4192
20154TIP3    H181953   3.510   5.140  12.749  0.8514  2.5609 -0.9865
20154TIP3    H281954   3.473   5.272  12.813 -4.3899  1.0585 -0.7396
20155TIP3   OH281955   1.353   1.930   0.998  0.7681  0.8011 -0.0765
20155TIP3    H181956   1.302   1.949   1.077  0.8148  1.5880 -0.2293
20155TIP3    H281957   1.434   1.892   1.031 -1.1710 -3.5221  0.0458
20156TIP3   OH281958   3.370   5.055  11.370 -0.3033  0.0043  0.1233
20156TIP3    H181959   3.458   5.017  11.372 -0.8680 -1.4049 -1.0283
20156TIP3    H281960   3.343   5.048  11.278 -1.6122  0.4398  0.4602
20157TIP3   OH281961   5.655   5.578  14.062 -0.2977  0.3658  0.2919
20157TIP3    H181962   5.629   5.629  14.139  0.1691 -0.8650  1.2811
20157TIP3    H281963   5.723   5.631  14.020 -0.7330  1.1641  0.5805
20158TIP3   OH281964   4.038   3.266  13.775  0.0783  0.0307  0.8876
20158TIP3    H181965   4.061   3.254  13.867 -0.0299 -1.8407  0.6941
20158TIP3    H281966   3.945   3.290  13.776  0.4332  1.4271  1.3299
20159TIP3   OH281967   2.488   6.204  16.460 -0.1990  0.5921  0.4589
20159TIP3    H181968   2.492   6.299  16.467  3.2222  0.3870  2.3595
20159TIP3    H281969   2.540   6.183  16.382 -1.0257  0.2935 -0.0123
20160TIP3   OH281970   3.345   5.314   3.204 -0.2271  0.5035 -0.3739
20160TIP3    H181971   3.350   5.223   3.173 -0.9874  0.1415  0.5504
20160TIP3    H281972   3.377   5.310   3.294  0.4334  1.2788 -0.5736
20161TIP3   OH281973   4.821   3.641   0.196  0.5441  0.0900  0.5210
20161TIP3    H181974   4.814   3.580   0.269 -0.1536 -0.2534  0.1703
20161TIP3    H281975   4.785   3.594   0.121 -0.9757  1.2963  0.4631
20162TIP3   OH281976   6.061   4.992   2.486 -0.3351 -0.1982  0.7086
20162TIP3    H181977   6.022   4.911   2.519 -2.6878 -0.1770 -1.8282
20162TIP3    H281978   5.997   5.059   2.507 -0.9454  0.1151 -1.9743
20163TIP3   OH281979   0.788   4.435  14.672 -0.3491  0.2240 -0.0828
20163TIP3    H181980   0.861   4.383  14.637  1.2788  1.0342  2.0083
20163TIP3    H281981   0.720   4.370  14.690  0.1331 -0.6587 -1.3022
20164TIP3   OH281982   5.889   0.196   2.028  0.1470  0.4222 -0.6396
20164TIP3    H181983   5.829   0.207   2.102 -0.0372 -0.4132 -0.6646
20164TIP3    H281984   5.976   0.190   2.068  0.1931  1.3902 -0.5869
20165TIP3   OH281985   1.108   3.255  14.873  0.3439 -0.4122  1.1321
20165TIP3    H181986   1.072   3.337  14.840  4.9359  1.8383  1.2923
20165TIP3    H281987   1.038   3.218  14.927 -2.9931  1.7236 -1.4950
20166TIP3   OH281988   6.226   1.391  16.932  0.2272 -0.1876 -0.6191
20166TIP3    H181989   6.140   1.356  16.954 -1.8905  3.5931 -2.3026
20166TIP3    H281990   6.234   1.378  16.837  1.8440 -1.1380 -0.3764
20167TIP3   OH281991   5.276   4.619   5.177  0.1429  0.7285 -0.6026
20167TIP3    H181992   5.333   4.690   5.207  1.1446 -0.5481  0.5693
20167TIP3    H281993   5.309   4.541   5.223 -2.2363 -0.1101 -0.2594
20168TIP3   OH281994   5.788   1.781   0.031 -0.1652 -0.5207 -0.2934
20168TIP3    H181995   5.804   1.729  -0.047 -0.3895 -0.1486 -0.5876
20168TIP3    H281996   5.697   1.762   0.055  0.4865 -2.1628  1.0244
20169TIP3   OH281997   3.592   3.378  13.129 -0.0566 -0.0223 -0.3286
20169TIP3    H181998   3.586   3.284  13.115 -1.7722 -0.0674  0.5995
20169TIP3    H281999   3.660   3.407  13.067  1.5566 -2.0613  0.4227
20170TIP3   OH282000   6.182   6.447   1.281 -0.2502 -0.1245 -0.5041
20170TIP3    H182001   6.236   6.519   1.311  0.1492 -1.0485  1.0689
20170TIP3    H282002   6.215   6.426   1.194  1.1807  0.0474 -0.0079
20171TIP3   OH282003   0.190   3.909   4.284  0.6963  0.3819 -0.1676
20171TIP3    H182004   0.227   3.997   4.280  0.8320  0.3009 -0.7246
20171TIP3    H282005   0.120   3.916   4.348  1.3840  0.6423  0.5576
20172TIP3   OH282006   0.615   5.371   0.975 -0.0804  0.1838 -0.1705
20172TIP3    H182007   0.681   5.440   0.973 -1.9305  2.0465  1.0145
20172TIP3    H282008   0.549   5.399   0.911 -0.5564 -0.7931 -0.1225
20173TIP3   OH282009   2.974   3.738  16.026 -0.0658  0.0009 -0.0102
20173TIP3    H182010   2.900   3.760  16.082  0.9228  3.0675  0.1805
20173TIP3    H282011   2.973   3.642  16.021 -3.0226 -0.0818  1.3260
20174TIP3   OH282012   2.038   6.034  17.098 -0.2389  0.1323  0.7251
20174TIP3    H182013   2.094   5.958  17.117  1.2119  1.0241  0.0965
20174TIP3    H282014   1.961   6.021  17.154  0.7446 -0.9431  1.8794
20175TIP3   OH282015   4.705   4.192  10.699 -0.4830  0.2863 -0.1417
20175TIP3    H182016   4.754   4.127  10.649  1.0589  0.9981  0.4032
20175TIP3    H282017   4.614   4.165  10.691  0.0495 -1.4382 -0.6543
20176TIP3   OH282018   6.620   3.598  15.489  0.0492 -0.1486 -0.1278
20176TIP3    H182019   6.681   3.566  15.423 -0.8984 -1.7100 -0.2873
20176TIP3    H282020   6.543   3.627  15.439 -0.0833  0.0648  0.1944
20177TIP3   OH282021   6.723   3.276   4.485 -0.2108 -0.7825  0.4990
20177TIP3    H182022   6.679   3.302   4.404  1.8859 -1.7730 -1.0097
20177TIP3    H282023   6.690   3.188   4.504 -0.5686 -0.6212  0.6297
20178TIP3   OH282024   3.661   1.838  10.874  0.3282 -0.5693 -0.1246
20178TIP3    H182025   3.572   1.807  10.856 -0.4471  0.7759  1.3585
20178TIP3    H282026   3.710   1.758  10.895 -0.7476 -1.2132 -0.0209
20179TIP3   OH282027   1.884   3.204  11.156  0.3204 -0.3681  0.2169
20179TIP3    H182028   1.837   3.193  11.073  0.1125 -0.7804  0.3856
20179TIP3    H282029   1.955   3.139  11.151  0.8776  0.2609 -0.0425
20180TIP3   OH282030   5.544   5.542  16.039 -0.1466  0.4611  0.1638
20180TIP3    H182031   5.622   5.487  16.038 -0.4190  0.0599  0.8218
20180TIP3    H282032   5.545   5.587  15.955  1.8697  1.9723  0.9692
20181TIP3   OH282033   1.279   1.659  11.874 -0.3826  0.0088 -0.3677
20181TIP3    H182034   1.308   1.713  11.948 -0.2764  0.1062 -0.4790
20181TIP3    H282035   1.191   1.690  11.855 -0.2738  0.2346 -0.5137
20182TIP3   OH282036   4.224   5.449   0.672  0.3525 -0.7498  0.4728
20182TIP3    H182037   4.301   5.499   0.646 -0.9068  1.8622  1.5118
20182TIP3    H282038   4.185   5.420   0.590  1.8795 -1.2476 -0.0895
20183TIP3   OH282039   4.483   0.659  16.231 -0.6742 -0.3489  0.4509
20183TIP3    H182040   4.511   0.625  16.145 -1.8612  2.8007 -1.2364
20183TIP3    H282041   4.560   0.646  16.287  1.1983  0.2297 -1.8680
20184TIP3   OH282042   6.740   0.679  14.842 -0.1874  0.7555  0.1562
20184TIP3    H182043   6.794   0.697  14.918  0.0545 -2.2631  0.7534
20184TIP3    H282044   6.650   0.685  14.874 -0.1947  2.7137 -0.1322
20185TIP3   OH282045   1.517   3.044  15.976  0.2004 -0.2265 -0.3173
20185TIP3    H182046   1.526   3.085  15.890  0.6023  0.3709  0.0062
20185TIP3    H282047   1.501   3.117  16.036 -1.6530 -0.7943 -0.1157
20186TIP3   OH282048   0.392   3.200  16.231 -0.2939 -0.2694 -0.4215
20186TIP3    H182049   0.484   3.188  16.254 -0.8482 -0.8109  1.6304
20186TIP3    H282050   0.391   3.205  16.135  1.8437 -0.3610 -0.4590
20187TIP3   OH282051   2.445   1.813   5.334 -0.2379  0.2781  0.1694
20187TIP3    H182052   2.540   1.806   5.347 -0.3569 -1.2919  0.3784
20187TIP3    H282053   2.426   1.749   5.265 -1.3470 -0.5145  1.2022
20188TIP3   OH282054   6.190   5.023   0.534 -0.3712  0.5726  0.7316
20188TIP3    H182055   6.113   4.987   0.577 -0.5890 -0.3504 -0.4138
20188TIP3    H282056   6.160   5.106   0.496 -0.6488  0.5018  0.7971
20189TIP3   OH282057   5.094   5.338  14.146  0.2115  0.0854  0.2528
20189TIP3    H182058   5.086   5.355  14.240 -0.5250  0.2777  0.1610
20189TIP3    H282059   5.134   5.252  14.140  1.9250  0.8215  0.7367
20190TIP3   OH282060   0.961   4.901   2.431 -0.1101 -0.3707 -0.5258
20190TIP3    H182061   0.917   4.915   2.347  0.2412 -1.4333 -0.8997
20190TIP3    H282062   0.919   4.962   2.491  0.3778  1.1742 -1.7316
20191TIP3   OH282063   4.540   1.748  12.595 -0.0413  0.0838 -0.7303
20191TIP3    H182064   4.482   1.672  12.587  0.8574 -0.5702 -1.1103
20191TIP3    H282065   4.495   1.817  12.547 -1.3638  0.0941  0.4842
20192TIP3   OH282066   4.032   6.435  16.615 -0.0084  0.4123 -0.2011
20192TIP3    H182067   3.941   6.412  16.634  0.3568 -0.8467  0.0471
20192TIP3    H282068   4.041   6.422  16.520  0.6612 -2.1501  0.1958
20193TIP3   OH282069   2.450   1.422  15.999 -0.0230 -0.8260 -0.2649
20193TIP3    H182070   2.366   1.439  16.042  0.2326 -1.4907  0.5111
20193TIP3    H282071   2.427   1.380  15.916 -0.4803 -0.3794 -0.3681
20194TIP3   OH282072   6.424   0.397  11.951 -0.0233 -0.1383 -0.1657
20194TIP3    H182073   6.402   0.382  11.859 -0.5142 -1.1256  0.1110
20194TIP3    H282074   6.466   0.483  11.952 -1.9159  0.8012 -0.9924
20195TIP3   OH282075   0.599   2.155  13.176  0.3458  0.1432  0.3366
20195TIP3    H182076   0.531   2.215  13.147 -0.3470  0.1428  1.9343
20195TIP3    H282077   0.558   2.068  13.170 -0.3339  0.2788  2.7879
20196TIP3   OH282078   0.477   5.613  12.132  0.7513  0.1587  0.0178
20196TIP3    H182079   0.547   5.608  12.197  1.3070  0.8389 -0.5231
20196TIP3    H282080   0.424   5.688  12.160 -0.1198 -0.7246  0.7698
20197TIP3   OH282081   3.972   2.768  13.175  0.1577 -0.0078 -0.1210
20197TIP3    H182082   4.011   2.690  13.135 -2.2078 -0.6029 -1.3477
20197TIP3    H282083   4.003   2.841  13.122  0.6524 -0.3174 -0.2633
20198TIP3   OH282084   2.636   1.764  14.694  0.0113 -0.2386 -0.6416
20198TIP3    H182085   2.560   1.745  14.639 -0.4884  0.3800 -0.1808
20198TIP3    H282086   2.645   1.687  14.750 -1.5374  0.5222  0.7033
20199TIP3   OH282087   3.007   0.077   6.246  0.3554 -0.2818 -0.8917
20199TIP3    H182088   3.051   0.158   6.221  0.1030  0.1809  0.1236
20199TIP3    H282089   3.070   0.031   6.301  0.7421 -1.0842 -1.9956
20200TIP3   OH282090   0.742   3.107  12.117  0.2483 -0.5493 -0.7003
20200TIP3    H182091   0.781   3.162  12.049  1.2652 -2.2975 -1.5481
20200TIP3    H282092   0.778   3.020  12.101  1.5681 -0.7377  2.8922
20201TIP3   OH282093   2.368   4.493  13.209 -0.1712  0.6292 -0.1066
20201TIP3    H182094   2.387   4.404  13.239 -1.6854  0.1884 -0.4092
20201TIP3    H282095   2.352   4.483  13.115  1.4915  1.5230 -0.5109
20202TIP3   OH282096   0.965   6.203   3.169  0.1579  0.7613  0.4994
20202TIP3    H182097   0.931   6.152   3.243 -1.3198  1.1447  0.0918
20202TIP3    H282098   0.985   6.288   3.206 -1.2182  1.1680  0.3286
20203TIP3   OH282099   0.342   4.251   0.828  0.4397  0.3174 -0.0001
20203TIP3    H182100   0.305   4.336   0.804  0.6150  0.5382  0.5108
20203TIP3    H282101   0.290   4.188   0.778  0.7653  0.7681 -0.9139
20204TIP3   OH282102   4.133   3.940   5.370  0.0204  0.0744  0.2754
20204TIP3    H182103   4.071   3.897   5.429 -0.5185  2.4978  1.5533
20204TIP3    H282104   4.214   3.945   5.420 -0.0752  0.9871  0.3487
20205TIP3   OH282105   4.312   1.997   3.157 -0.1926 -0.2215  0.3369
20205TIP3    H182106   4.283   1.912   3.191  1.6736 -0.6509  0.9263
20205TIP3    H282107   4.335   1.980   3.066 -0.9559 -0.0658  0.1093
20206TIP3   OH282108   6.239   4.304   6.494 -0.4135  0.1295  0.1944
20206TIP3    H182109   6.279   4.390   6.482 -0.5376  0.1486 -0.1025
20206TIP3    H282110   6.217   4.299   6.587  0.0384  0.2221  0.3051
20207TIP3   OH282111   4.821   2.026  11.925 -0.2794  0.6050 -0.0308
20207TIP3    H182112   4.827   2.025  11.829  0.2801  1.6694 -0.0083
20207TIP3    H282113   4.739   1.980  11.944  1.3703 -2.8773 -0.8577
20208TIP3   OH282114   2.479   1.909  11.744 -0.6015  0.3653  0.2462
20208TIP3    H182115   2.421   1.888  11.672 -2.1844 -1.6062  2.0383
20208TIP3    H282116   2.547   1.841  11.741 -0.3995  0.5584  0.3499
20209TIP3   OH282117   6.075   2.601  12.407 -0.5534 -0.3439 -0.0482
20209TIP3    H182118   6.083   2.693  12.384 -1.4589 -0.1655  0.3325
20209TIP3    H282119   6.037   2.560  12.330  2.1200 -0.8569 -1.1492
20210TIP3   OH282120   0.678   4.518  10.830  0.3932  0.2134 -0.6045
20210TIP3    H182121   0.728   4.437  10.813  1.4777  1.1130 -1.7897
20210TIP3    H282122   0.592   4.487  10.858  1.4518 -1.3711  1.0438
20211TIP3   OH282123   2.289   0.017  15.875 -0.4113 -0.3712  0.0536
20211TIP3    H182124   2.206  -0.025  15.896 -0.1087 -0.6606  0.6811
20211TIP3    H282125   2.348  -0.008  15.946 -0.4736  1.8668  0.9501
20212TIP3   OH282126   0.759   1.763   0.179  0.2398 -0.2997 -0.1244
20212TIP3    H182127   0.681   1.754   0.234  1.6421  1.7006  2.2798
20212TIP3    H282128   0.832   1.768   0.240  1.9604  0.9642 -2.1844
20213TIP3   OH282129   5.406   1.402  15.928  0.3705 -0.1535 -0.4813
20213TIP3    H182130   5.325   1.440  15.896  0.6640  0.0573 -0.9746
20213TIP3    H282131   5.448   1.472  15.977 -0.4055 -0.6800  0.9639
20214TIP3   OH282132   3.566   5.433   0.755  0.1331  0.0903  0.0822
20214TIP3    H182133   3.620   5.465   0.827 -1.6289 -1.3409  2.0978
20214TIP3    H282134   3.608   5.351   0.729 -1.4347 -1.4305  2.1797
20215TIP3   OH282135   0.862   5.826  17.236  0.6543  0.0778 -0.1229
20215TIP3    H182136   0.954   5.806  17.255  0.6195  0.8065  0.9006
20215TIP3    H282137   0.866   5.897  17.173  0.7928 -0.3040 -0.5456
20216TIP3   OH282138   0.305   1.340   4.928 -0.2302 -0.3254  0.2006
20216TIP3    H182139   0.339   1.417   4.882 -0.0944  0.2804  1.3016
20216TIP3    H282140   0.355   1.336   5.009 -0.8488 -1.0600  0.5568
20217TIP3   OH282141   4.406   5.311  11.147  0.0927 -0.3457 -0.4822
20217TIP3    H182142   4.321   5.268  11.139 -0.2866  0.7299 -2.6487
20217TIP3    H282143   4.468   5.239  11.158 -1.0310 -1.1720  0.4943
20218TIP3   OH282144   0.942   5.246   3.457  0.3131 -0.0810 -0.1585
20218TIP3    H182145   0.865   5.251   3.514  0.8202  2.0446  0.3968
20218TIP3    H282146   0.992   5.172   3.490 -1.2349 -1.1630 -0.1989
20219TIP3   OH282147   0.824   1.113   2.054 -0.2248  0.5449 -0.0433
20219TIP3    H182148   0.786   1.147   1.973  1.4272  2.1619 -0.1902
20219TIP3    H282149   0.752   1.114   2.117 -1.8424 -1.8435 -1.7649
20220TIP3   OH282150   3.647   3.217   1.215  0.2249  0.4332 -0.8198
20220TIP3    H182151   3.710   3.187   1.149  0.4198  0.0151 -0.4488
20220TIP3    H282152   3.604   3.137   1.245 -0.1823  0.6733 -0.7654
20221TIP3   OH282153   3.401   3.288  10.973  0.3100 -0.1528  0.1465
20221TIP3    H182154   3.390   3.255  11.062  0.7382 -0.9383 -0.0875
20221TIP3    H282155   3.477   3.346  10.977 -1.0601  1.6505  0.7801
20222TIP3   OH282156   1.733   3.420  13.001 -0.0891 -0.3877 -0.0110
20222TIP3    H182157   1.775   3.480  12.939  2.3847 -0.7201  1.3120
20222TIP3    H282158   1.735   3.467  13.084 -0.7363 -1.1556  0.4410
20223TIP3   OH282159   0.186   2.924  16.232  0.2561  0.1192  0.2195
20223TIP3    H182160   0.233   3.000  16.265 -2.7976  1.5781  1.3888
20223TIP3    H282161   0.221   2.851  16.283  1.4539  1.0984  0.8404
20224TIP3   OH282162   6.189   3.059  15.726 -0.2016 -0.4942  0.2720
20224TIP3    H182163   6.093   3.058  15.718 -0.1655  0.3306 -0.3175
20224TIP3    H282164   6.206   3.008  15.805 -1.1929  0.1219  0.9057
20225TIP3   OH282165   5.936   1.268   5.212 -0.1468  0.4250 -0.2536
20225TIP3    H182166   5.962   1.307   5.295  0.3072 -1.8951  0.7247
20225TIP3    H282167   6.012   1.281   5.155 -0.2713  1.5812 -0.1621
20226TIP3   OH282168   2.881   0.165   2.722  0.4566 -0.4853  0.0076
20226TIP3    H182169   2.877   0.156   2.627  1.6713  0.2776 -0.1205
20226TIP3    H282170   2.847   0.253   2.739  1.4981 -0.1075  0.1653
20227TIP3   OH282171   1.535   6.323  13.675  0.2712 -0.0786  0.1119
20227TIP3    H182172   1.602   6.360  13.734  0.1534 -1.6934  1.2942
20227TIP3    H282173   1.456   6.372  13.695  0.6185  0.4568  0.1806
20228TIP3   OH282174   4.529   2.621  13.901 -0.1075  0.1845  0.1703
20228TIP3    H182175   4.595   2.657  13.842  1.5258 -0.9788  1.2230
20228TIP3    H282176   4.562   2.640  13.989  0.0013 -2.3937  0.7389
20229TIP3   OH282177   4.344   0.122   5.596  0.5171 -0.1056 -0.4805
20229TIP3    H182178   4.392   0.196   5.559 -1.0553  0.8417 -0.7102
20229TIP3    H282179   4.258   0.159   5.618 -0.0055 -1.6758  0.1834
20230TIP3   OH282180   6.621   0.102  14.645 -0.4764  0.0259  0.0138
20230TIP3    H182181   6.568   0.100  14.725  0.7770 -1.1283  0.8421
20230TIP3    H282182   6.668   0.185  14.650 -1.9738  0.9298 -0.5872
20231TIP3   OH282183   1.966   5.374  13.616  0.0413  0.1605  0.7257
20231TIP3    H182184   1.962   5.469  13.606 -0.1111  0.2945  2.0355
20231TIP3    H282185   1.979   5.341  13.527 -2.7039  1.2388 -0.1021
20232TIP3   OH282186   6.468   3.890   5.513  0.7249  0.2852 -0.4394
20232TIP3    H182187   6.508   3.887   5.426 -0.6949 -0.7575 -1.0819
20232TIP3    H282188   6.476   3.800   5.546 -0.3264  0.2674 -0.2298
20233TIP3   OH282189   1.172   0.051   4.786 -0.6142 -0.4533 -0.0555
20233TIP3    H182190   1.082   0.056   4.817 -0.0521  1.7652  1.3435
20233TIP3    H282191   1.188   0.137   4.747  0.3569 -1.4272 -1.8563
20234TIP3   OH282192   6.591   6.552  11.523 -0.0176 -0.0511 -0.2301
20234TIP3    H182193   6.586   6.644  11.496  1.1359 -0.3334 -1.4198
20234TIP3    H282194   6.531   6.506  11.464 -1.6168  0.0946  1.2162
20235TIP3   OH282195   2.617   6.717  13.053 -0.1065  0.1472  0.1045
20235TIP3    H182196   2.572   6.796  13.023  0.0747  0.0660 -0.3801
20235TIP3    H282197   2.563   6.685  13.126 -0.4249  0.4662  0.0099
20236TIP3   OH282198   0.309   4.673  12.218  0.0678 -0.5188  0.1327
20236TIP3    H182199   0.276   4.598  12.169 -0.4945  0.1307 -0.4815
20236TIP3    H282200   0.387   4.701  12.170 -0.0400 -0.3672  0.0447
20237TIP3   OH282201   4.170   3.782   4.400  0.2694 -0.2809 -0.6261
20237TIP3    H182202   4.146   3.721   4.330  1.6277 -1.5762 -0.0160
20237TIP3    H282203   4.145   3.737   4.480  0.4896  0.3568 -0.1975
20238TIP3   OH282204   1.183   5.087  16.265  0.3098 -0.6472  0.0909
20238TIP3    H182205   1.176   4.995  16.239 -0.3782 -0.8251  0.8726
20238TIP3    H282206   1.221   5.085  16.353 -0.6277 -0.2464  0.5180
20239TIP3   OH282207   0.878   1.305   2.423  0.0784  0.3583  0.3539
20239TIP3    H182208   0.920   1.310   2.509 -1.6700 -0.7731  1.2796
20239TIP3    H282209   0.788   1.332   2.438 -0.0089  1.1254 -1.3311
20240TIP3   OH282210   3.890   2.637  15.004  0.3081 -1.0604 -0.0296
20240TIP3    H182211   3.984   2.640  14.988  0.0377 -0.6004 -1.6323
20240TIP3    H282212   3.853   2.700  14.942 -1.0470 -1.1745  0.6423
20241TIP3   OH282213   2.967   1.583   1.357  0.3922 -0.2252  0.5019
20241TIP3    H182214   2.967   1.564   1.451 -0.7200 -1.2008  0.3108
20241TIP3    H282215   3.055   1.617   1.340  1.0980 -1.4441  1.6116
20242TIP3   OH282216   6.117   0.520   1.612 -0.1755 -0.1752  0.3406
20242TIP3    H182217   6.161   0.458   1.671 -0.7405 -1.2768 -0.3846
20242TIP3    H282218   6.188   0.558   1.561  0.0513 -1.1855 -0.1133
20243TIP3   OH282219   0.902   0.781  10.480  0.2659  0.3726 -0.0815
20243TIP3    H182220   0.978   0.776  10.538  1.2239 -0.4019 -1.3959
20243TIP3    H282221   0.866   0.869  10.495 -0.4321 -0.3287  2.8176
20244TIP3   OH282222   3.729   4.853   3.360 -0.0644  0.1214 -1.3387
20244TIP3    H182223   3.710   4.840   3.453  0.3741  0.2668 -1.2292
20244TIP3    H282224   3.673   4.790   3.315  1.8751 -2.0493 -0.8148
20245TIP3   OH282225   4.255   2.864   4.469 -0.1253  0.3754  0.2857
20245TIP3    H182226   4.224   2.784   4.427 -0.8205  0.7870  0.0028
20245TIP3    H282227   4.225   2.858   4.560 -0.4256  0.4540  0.1897
20246TIP3   OH282228   2.678   1.102  11.875 -0.1707  0.2849 -0.0849
20246TIP3    H182229   2.642   1.151  11.801 -0.8190  0.6970  0.4991
20246TIP3    H282230   2.755   1.058  11.839  0.8151  2.2551 -0.4451
20247TIP3   OH282231   4.343   0.510  15.605  0.2123  0.2928 -0.2712
20247TIP3    H182232   4.418   0.541  15.657 -0.1313 -0.8574  0.9618
20247TIP3    H282233   4.348   0.414  15.612 -0.3772  0.1563 -1.6258
20248LIG      S82234   3.177   3.450  16.436  0.0231  0.1327 -0.2998
20248LIG     F182235   3.339   3.375  15.821 -0.5318  0.0292  0.1389
20248LIG     F282236   3.156   3.457  15.870 -0.2470 -0.2748 -0.0890
20248LIG     F382237   3.336   3.559  15.919  0.1221  0.0230  0.1673
20248LIG     N182238   3.162   3.156  16.411 -0.7731  0.3285 -0.1773
20248LIG     N282239   3.252   3.013  16.157  0.0911  0.0036 -0.3512
20248LIG     C182240   3.215   3.027  16.472 -0.6423 -0.4630 -0.4749
20248LIG     C282241   3.210   3.224  16.292  0.1691 -0.0491 -0.6206
20248LIG     C382242   3.260   3.060  16.620 -0.0271 -0.5567 -0.3140
20248LIG     C482243   3.042   3.217  16.472 -0.0550 -0.0580  0.1783
20248LIG     C582244   3.221   3.365  16.291 -0.5467  0.8127  0.0707
20248LIG     C682245   3.043   3.352  16.491 -0.1809  0.5230 -0.0787
20248LIG     C782246   3.249   3.153  16.177 -0.6743 -0.1294 -0.1009
20248LIG     C882247   3.393   3.143  16.625  0.1448 -0.0537 -0.3028
20248LIG     C982248   3.255   3.434  16.171 -0.3667 -0.0797 -0.2409
20248LIG    C1082249   3.277   3.360  16.051 -0.9201  0.8112  0.3925
20248LIG    C1182250   2.932   3.139  16.511  0.1911 -0.3706 -0.6121
20248LIG    C1282251   3.281   3.219  16.058  1.0414 -0.1167 -0.8290
20248LIG    C1382252   2.930   3.422  16.548 -0.5263 -0.2418 -0.4853
20248LIG    C1482253   3.424   3.210  16.759  0.1712 -0.0913 -0.0258
20248LIG    C1582254   2.818   3.211  16.557  0.9086 -0.0335  0.8226
20248LIG    C1682255   2.820   3.349  16.581 -0.2445 -0.1688 -0.2424
20248LIG    C1782256   3.283   3.434  15.917  1.1831  0.6339  0.4686
20248LIG     H182257   3.306   3.002  16.414  0.9724  0.7584  1.4452
20248LIG     H282258   3.142   2.943  16.477 -0.0220 -0.9889 -0.0600
20248LIG     H382259   3.280   2.968  16.680  0.3919  0.0744  0.5131
20248LIG     H482260   3.189   3.112  16.688  1.9473 -0.0111  1.3798
20248LIG     H582261   3.384   3.227  16.552 -0.0305  0.3075  0.1368
20248LIG     H682262   3.470   3.068  16.599 -0.0631 -0.6671  0.8550
20248LIG     H782263   3.260   3.541  16.156 -2.3703  0.2507  1.2386
20248LIG     H882264   2.933   3.032  16.495 -1.1365 -0.7126  1.4345
20248LIG     H982265   3.296   3.161  15.969  0.0308  0.3728 -1.3222
20248LIG    H1082266   2.922   3.530  16.552  1.0440 -0.0618 -1.3885
20248LIG    H1182267   3.392   3.141  16.839  3.2057 -0.8047  0.6279
20248LIG    H1282268   3.366   3.305  16.762  1.4934  0.6896  1.3110
20248LIG    H1382269   3.526   3.253  16.764  1.3671 -2.8696  0.3883
20248LIG    H1482270   2.734   3.148  16.582 -0.4671  0.8769 -1.3262
20248LIG    H1582271   2.730   3.393  16.623 -0.7750  0.2013 -1.7063
20248LIG    H1682272   3.222   2.947  16.226  0.5566  0.4451  0.2796
20248LIG    H1782273   3.306   2.990  16.076  1.7191  0.4877  0.5930
   6.82013   6.82013  17.29240
